glycan chain in water
        1051
     NAG    C1     1   1.580   1.615   1.521
     NAG    H1     2   1.589   1.624   1.632
     NAG    C5     3   1.697   1.408   1.535
     NAG    H5     4   1.705   1.417   1.646
     NAG    O5     5   1.691   1.537   1.474
     NAG    C2     6   1.452   1.546   1.484
     NAG    H2     7   1.451   1.536   1.372
     NAG    NC     8   1.337   1.625   1.526
     NAG    HN     9   1.341   1.668   1.616
     NAG    CM    10   1.225   1.645   1.452
     NAG    OM    11   1.210   1.597   1.340
     NAG    CC    12   1.117   1.731   1.515
     NAG   HC1    13   1.114   1.710   1.624
     NAG   HC2    14   1.020   1.707   1.469
     NAG   HC3    15   1.142   1.837   1.498
     NAG    C3    16   1.451   1.408   1.546
     NAG    H3    17   1.454   1.419   1.656
     NAG    O3    18   1.330   1.342   1.514
     NAG   HO3    19   1.334   1.311   1.422
     NAG    C4    20   1.571   1.331   1.499
     NAG    H4    21   1.560   1.330   1.389
     NAG    O4    22   1.575   1.202   1.555
     NAG   HO4    23   1.544   1.136   1.490
     NAG    C6    24   1.824   1.339   1.487
     NAG   H61    25   1.832   1.240   1.534
     NAG   H62    26   1.823   1.325   1.377
     NAG    O6    27   1.940   1.414   1.523
     NAG   HO6    28   1.941   1.497   1.473
     NAM    C1    29   1.621   2.142   1.477
     NAM    H1    30   1.608   2.145   1.367
     NAM    C5    31   1.501   1.938   1.485
     NAM    H5    32   1.488   1.949   1.375
     NAM    O5    33   1.517   2.069   1.543
     NAM    C2    34   1.752   2.074   1.517
     NAM    H2    35   1.751   2.071   1.628
     NAM    NC    36   1.863   2.151   1.463
     NAM    HN    37   1.858   2.189   1.371
     NAM    CM    38   1.965   2.202   1.535
     NAM    OM    39   1.966   2.201   1.658
     NAM    CC    40   2.080   2.261   1.458
     NAM   HC1    41   2.076   2.231   1.351
     NAM   HC2    42   2.176   2.228   1.502
     NAM   HC3    43   2.076   2.372   1.465
     NAM    C3    44   1.749   1.931   1.464
     NAM    H3    45   1.745   1.940   1.353
     NAM    O3    46   1.865   1.852   1.492
     NAM    CA    47   1.884   1.802   1.625
     NAM    HA    48   1.797   1.772   1.681
     NAM     C    49   1.979   1.679   1.625
     NAM     O    50   1.983   1.601   1.718
     NAM    CB    51   1.948   1.912   1.712
     NAM   HB1    52   1.872   1.967   1.769
     NAM   HB2    53   2.024   1.874   1.783
     NAM   HB3    54   2.002   1.980   1.643
     NAM    C4    55   1.625   1.857   1.507
     NAM    H4    56   1.627   1.840   1.617
     NAM    O4    57   1.613   1.730   1.443
     NAM    C6    58   1.382   1.868   1.548
     NAM   H61    59   1.356   1.781   1.483
     NAM   H62    60   1.409   1.825   1.647
     NAM    O6    61   1.270   1.953   1.566
     NAM   HO6    62   1.273   2.022   1.499
     ALA     N    63   2.090   1.689   1.535
     ALA    HN    64   2.084   1.616   1.467
     ALA    CA    65   2.216   1.677   1.613
     ALA    HA    66   2.218   1.765   1.683
     ALA    CB    67   2.228   1.548   1.693
     ALA   HB1    68   2.147   1.539   1.766
     ALA   HB2    69   2.226   1.459   1.629
     ALA   HB3    70   2.323   1.545   1.749
     ALA     C    71   2.333   1.687   1.516
     ALA     O    72   2.356   1.622   1.416
     GLN     N    73   2.431   1.787   1.547
     GLN    HN    74   2.451   1.871   1.498
     GLN    CA    75   2.493   1.735   1.671
     GLN    HA    76   2.594   1.780   1.691
     GLN    CD    77   2.514   1.585   1.650
     GLN   OE1    78   2.621   1.554   1.573
     GLN   NE2    79   2.450   1.490   1.692
     GLN  HE21    80   2.455   1.495   1.730
     GLN  HE22    81   2.457   1.497   1.790
     GLN    CB    82   2.404   1.760   1.793
     GLN   HB1    83   2.298   1.735   1.770
     GLN   HB2    84   2.433   1.690   1.875
     GLN    CG    85   2.415   1.904   1.843
     GLN   HG1    86   2.521   1.929   1.865
     GLN   HG2    87   2.382   1.975   1.765
     GLN     C    88   2.334   1.922   1.968
     GLN     O    89   2.366   1.899   2.084
     LYS     N    90   2.219   1.878   1.955
     LYS    HN    91   2.187   1.798   2.042
     LYS    CA    92   2.210   2.036   1.895
     LYS    HA    93   2.096   2.114   1.902
     LYS    CB    94   2.210   2.117   2.051
     LYS   HB1    95   2.220   2.219   2.017
     LYS   HB2    96   2.308   2.071   2.059
     LYS    CG    97   2.183   2.117   2.205
     LYS   HG1    98   2.189   2.001   2.225
     LYS   HG2    99   2.096   2.145   2.175
     LYS    CD   100   2.233   2.262   2.290
     LYS   HD1   101   2.294   2.323   2.212
     LYS   HD2   102   2.335   2.229   2.326
     LYS    CE   103   2.243   2.384   2.392
     LYS   HE1   104   2.317   2.447   2.347
     LYS   HE2   105   2.155   2.295   2.510
     LYS    NZ   106   2.119   2.465   2.455
     LYS   HZ1   107   2.102   2.550   2.450
     LYS   HZ2   108   2.030   2.437   2.475
     LYS   HZ3   109   2.093   2.458   2.553
     LYS     C   110   2.214   2.140   1.768
     LYS     O   111   2.271   2.115   1.704
     DAL     N   112   2.181   2.247   1.732
     DAL    HN   113   2.224   2.305   1.736
     DAL    CA   114   2.098   2.342   1.819
     DAL    HA   115   2.059   2.281   1.918
     DAL    CB   116   2.162   2.437   1.908
     DAL   HB1   117   2.158   2.537   1.875
     DAL   HB2   118   2.285   2.507   1.952
     DAL   HB3   119   2.174   2.444   2.010
     DAL     C   120   2.057   2.386   1.694
     DAL     O   121   2.098   2.507   1.608
     DAL     N   122   1.929   2.455   1.749
     DAL    HN   123   1.972   2.513   1.753
     DAL    CA   124   1.905   2.457   1.885
     DAL    HA   125   1.896   2.315   1.928
     DAL    CB   126   1.950   2.598   1.958
     DAL   HB1   127   2.030   2.631   1.922
     DAL   HB2   128   2.040   2.532   1.942
     DAL   HB3   129   2.001   2.533   2.067
     DAL     C   130   1.775   2.535   1.908
     DAL   OC1   131   1.684   2.510   1.986
     DAL   OC2   132   1.759   2.645   1.837
     NAG    C1   133   1.545   2.655   1.521
     NAG    H1   134   1.536   2.664   1.632
     NAG    C5   135   1.428   2.448   1.535
     NAG    H5   136   1.420   2.457   1.646
     NAG    O5   137   1.434   2.577   1.474
     NAG    C2   138   1.673   2.586   1.484
     NAG    H2   139   1.674   2.576   1.372
     NAG    NC   140   1.788   2.665   1.526
     NAG    HN   141   1.784   2.708   1.616
     NAG    CM   142   1.900   2.645   1.452
     NAG    OM   143   1.915   2.637   1.340
     NAG    CC   144   2.008   2.691   1.515
     NAG   HC1   145   2.011   2.750   1.624
     NAG   HC2   146   2.105   2.747   1.469
     NAG   HC3   147   2.012   2.797   1.498
     NAG    C3   148   1.674   2.448   1.546
     NAG    H3   149   1.671   2.459   1.656
     NAG    O3   150   1.795   2.382   1.514
     NAG   HO3   151   1.791   2.351   1.422
     NAG    C4   152   1.554   2.371   1.499
     NAG    H4   153   1.565   2.370   1.389
     NAG    O4   154   1.550   2.242   1.555
     NAG    C6   155   1.301   2.379   1.487
     NAG   H61   156   1.293   2.280   1.534
     NAG   H62   157   1.302   2.365   1.377
     NAG    O6   158   1.185   2.454   1.523
     NAG   HO6   159   1.184   2.537   1.473
     NAM    C1   160   1.629   3.182   1.477
     NAM    H1   161   1.642   3.185   1.367
     NAM    C5   162   1.749   2.978   1.485
     NAM    H5   163   1.762   2.989   1.375
     NAM    O5   164   1.733   3.109   1.543
     NAM    C2   165   1.498   3.114   1.517
     NAM    H2   166   1.499   3.111   1.628
     NAM    NC   167   1.387   3.191   1.463
     NAM    HN   168   1.392   3.229   1.371
     NAM    CM   169   1.285   3.242   1.535
     NAM    OM   170   1.284   3.241   1.658
     NAM    CC   171   1.170   3.301   1.458
     NAM   HC1   172   1.174   3.271   1.351
     NAM   HC2   173   1.074   3.268   1.502
     NAM   HC3   174   1.174   3.412   1.465
     NAM    C3   175   1.501   2.971   1.464
     NAM    H3   176   1.505   2.980   1.353
     NAM    O3   177   1.385   2.892   1.492
     NAM    CA   178   1.366   2.842   1.625
     NAM    HA   179   1.453   2.812   1.681
     NAM     C   180   1.271   2.719   1.625
     NAM     O   181   1.267   2.641   1.718
     NAM    CB   182   1.302   2.952   1.712
     NAM   HB1   183   1.378   3.007   1.769
     NAM   HB2   184   1.226   2.914   1.783
     NAM   HB3   185   1.248   3.020   1.643
     NAM    C4   186   1.625   2.897   1.507
     NAM    H4   187   1.623   2.880   1.617
     NAM    O4   188   1.637   2.770   1.443
     NAM    C6   189   1.868   2.908   1.548
     NAM   H61   190   1.894   2.821   1.483
     NAM   H62   191   1.841   2.865   1.647
     NAM    O6   192   1.980   2.993   1.566
     NAM   HO6   193   1.977   3.062   1.499
     ALA     N   194   1.160   2.729   1.535
     ALA    HN   195   1.166   2.656   1.467
     ALA    CA   196   1.034   2.717   1.613
     ALA    HA   197   1.032   2.805   1.683
     ALA    CB   198   1.022   2.588   1.693
     ALA   HB1   199   1.103   2.579   1.766
     ALA   HB2   200   1.024   2.499   1.629
     ALA   HB3   201   0.927   2.585   1.749
     ALA     C   202   0.917   2.727   1.516
     ALA     O   203   0.894   2.662   1.416
     GLN     N   204   0.819   2.827   1.547
     GLN    HN   205   0.799   2.911   1.498
     GLN    CA   206   0.757   2.775   1.671
     GLN    HA   207   0.656   2.820   1.691
     GLN    CD   208   0.736   2.625   1.650
     GLN   OE1   209   0.629   2.594   1.573
     GLN   NE2   210   0.800   2.530   1.692
     GLN  HE21   211   0.805   2.535   1.730
     GLN  HE22   212   0.810   2.537   1.790
     GLN    CB   213   0.846   2.800   1.793
     GLN   HB1   214   0.952   2.775   1.770
     GLN   HB2   215   0.817   2.730   1.875
     GLN    CG   216   0.835   2.944   1.843
     GLN   HG1   217   0.729   2.969   1.865
     GLN   HG2   218   0.868   3.015   1.765
     GLN     C   219   0.916   2.962   1.968
     GLN     O   220   0.884   2.939   2.084
     LYS     N   221   1.031   2.918   1.955
     LYS    HN   222   1.063   2.838   2.042
     LYS    CA   223   1.040   3.076   1.895
     LYS    HA   224   1.154   3.154   1.902
     LYS    CB   225   1.040   3.157   2.051
     LYS   HB1   226   1.030   3.259   2.017
     LYS   HB2   227   0.942   3.111   2.059
     LYS    CG   228   1.067   3.157   2.205
     LYS   HG1   229   1.061   3.041   2.225
     LYS   HG2   230   1.154   3.185   2.175
     LYS    CD   231   1.017   3.302   2.290
     LYS   HD1   232   0.956   3.363   2.212
     LYS   HD2   233   0.915   3.269   2.326
     LYS    CE   234   1.007   3.424   2.392
     LYS   HE1   235   0.933   3.487   2.347
     LYS   HE2   236   1.095   3.335   2.510
     LYS    NZ   237   1.131   3.505   2.455
     LYS   HZ1   238   1.148   3.590   2.450
     LYS   HZ2   239   1.220   3.477   2.475
     LYS   HZ3   240   1.157   3.498   2.553
     LYS     C   241   1.036   3.180   1.768
     LYS     O   242   0.979   3.155   1.704
     DAL     N   243   1.069   3.287   1.732
     DAL    HN   244   1.026   3.345   1.736
     DAL    CA   245   1.152   3.382   1.819
     DAL    HA   246   1.191   3.321   1.918
     DAL    CB   247   1.088   3.477   1.908
     DAL   HB1   248   1.092   3.577   1.875
     DAL   HB2   249   0.965   3.547   1.952
     DAL   HB3   250   1.076   3.484   2.010
     DAL     C   251   1.193   3.426   1.694
     DAL     O   252   1.152   3.547   1.608
     DAL     N   253   1.321   3.495   1.749
     DAL    HN   254   1.278   3.553   1.753
     DAL    CA   255   1.345   3.497   1.885
     DAL    HA   256   1.354   3.355   1.928
     DAL    CB   257   1.300   3.638   1.958
     DAL   HB1   258   1.220   3.671   1.922
     DAL   HB2   259   1.210   3.572   1.942
     DAL   HB3   260   1.249   3.573   2.067
     DAL     C   261   1.475   3.575   1.908
     DAL   OC1   262   1.566   3.550   1.986
     DAL   OC2   263   1.491   3.685   1.837
     NAG    C1   264   1.580   3.695   1.521
     NAG    H1   265   1.589   3.704   1.632
     NAG    C5   266   1.697   3.488   1.535
     NAG    H5   267   1.705   3.497   1.646
     NAG    O5   268   1.691   3.617   1.474
     NAG    C2   269   1.452   3.626   1.484
     NAG    H2   270   1.451   3.616   1.372
     NAG    NC   271   1.337   3.705   1.526
     NAG    HN   272   1.341   3.748   1.616
     NAG    CM   273   1.225   3.685   1.452
     NAG    OM   274   1.210   3.677   1.340
     NAG    CC   275   1.117   3.731   1.515
     NAG   HC1   276   1.114   3.790   1.624
     NAG   HC2   277   1.020   3.787   1.469
     NAG   HC3   278   1.142   3.837   1.498
     NAG    C3   279   1.451   3.488   1.546
     NAG    H3   280   1.454   3.499   1.656
     NAG    O3   281   1.330   3.422   1.514
     NAG   HO3   282   1.334   3.391   1.422
     NAG    C4   283   1.571   3.411   1.499
     NAG    H4   284   1.560   3.410   1.389
     NAG    O4   285   1.575   3.282   1.555
     NAG    C6   286   1.824   3.419   1.487
     NAG   H61   287   1.832   3.320   1.534
     NAG   H62   288   1.823   3.405   1.377
     NAG    O6   289   1.940   3.494   1.523
     NAG   HO6   290   1.941   3.577   1.473
     NAM    C1   291   1.621   4.222   1.477
     NAM    H1   292   1.608   4.225   1.367
     NAM    C5   293   1.501   4.018   1.485
     NAM    H5   294   1.488   4.029   1.375
     NAM    O5   295   1.517   4.149   1.543
     NAM    C2   296   1.752   4.154   1.517
     NAM    H2   297   1.751   4.151   1.628
     NAM    NC   298   1.863   4.231   1.463
     NAM    HN   299   1.858   4.269   1.371
     NAM    CM   300   1.965   4.282   1.535
     NAM    OM   301   1.966   4.281   1.658
     NAM    CC   302   2.080   4.341   1.458
     NAM   HC1   303   2.076   4.311   1.351
     NAM   HC2   304   2.176   4.308   1.502
     NAM   HC3   305   2.076   4.452   1.465
     NAM    C3   306   1.749   4.011   1.464
     NAM    H3   307   1.745   4.020   1.353
     NAM    O3   308   1.865   3.932   1.492
     NAM    CA   309   1.884   3.882   1.625
     NAM    HA   310   1.797   3.852   1.681
     NAM     C   311   1.979   3.759   1.625
     NAM     O   312   1.983   3.681   1.718
     NAM    CB   313   1.948   3.992   1.712
     NAM   HB1   314   1.872   4.047   1.769
     NAM   HB2   315   2.024   3.954   1.783
     NAM   HB3   316   2.002   4.060   1.643
     NAM    C4   317   1.625   3.937   1.507
     NAM    H4   318   1.627   3.920   1.617
     NAM    O4   319   1.613   3.810   1.443
     NAM    C6   320   1.382   3.948   1.548
     NAM   H61   321   1.356   3.861   1.483
     NAM   H62   322   1.409   3.905   1.647
     NAM    O6   323   1.270   4.033   1.566
     NAM   HO6   324   1.273   4.102   1.499
     ALA     N   325   2.090   3.769   1.535
     ALA    HN   326   2.084   3.696   1.467
     ALA    CA   327   2.216   3.757   1.613
     ALA    HA   328   2.218   3.845   1.683
     ALA    CB   329   2.228   3.628   1.693
     ALA   HB1   330   2.147   3.619   1.766
     ALA   HB2   331   2.226   3.539   1.629
     ALA   HB3   332   2.323   3.625   1.749
     ALA     C   333   2.333   3.767   1.516
     ALA     O   334   2.356   3.702   1.416
     GLN     N   335   2.431   3.867   1.547
     GLN    HN   336   2.451   3.951   1.498
     GLN    CA   337   2.493   3.815   1.671
     GLN    HA   338   2.594   3.860   1.691
     GLN    CD   339   2.514   3.665   1.650
     GLN   OE1   340   2.621   3.634   1.573
     GLN   NE2   341   2.450   3.570   1.692
     GLN  HE21   342   2.455   3.575   1.730
     GLN  HE22   343   2.457   3.577   1.790
     GLN    CB   344   2.404   3.840   1.793
     GLN   HB1   345   2.298   3.815   1.770
     GLN   HB2   346   2.433   3.770   1.875
     GLN    CG   347   2.415   3.984   1.843
     GLN   HG1   348   2.521   4.009   1.865
     GLN   HG2   349   2.382   4.055   1.765
     GLN     C   350   2.334   4.002   1.968
     GLN     O   351   2.366   3.979   2.084
     LYS     N   352   2.219   3.958   1.955
     LYS    HN   353   2.187   3.878   2.042
     LYS    CA   354   2.210   4.116   1.895
     LYS    HA   355   2.096   4.194   1.902
     LYS    CB   356   2.210   4.197   2.051
     LYS   HB1   357   2.220   4.299   2.017
     LYS   HB2   358   2.308   4.151   2.059
     LYS    CG   359   2.183   4.197   2.205
     LYS   HG1   360   2.189   4.081   2.225
     LYS   HG2   361   2.096   4.225   2.175
     LYS    CD   362   2.233   4.342   2.290
     LYS   HD1   363   2.294   4.403   2.212
     LYS   HD2   364   2.335   4.309   2.326
     LYS    CE   365   2.243   4.464   2.392
     LYS   HE1   366   2.317   4.527   2.347
     LYS   HE2   367   2.155   4.375   2.510
     LYS    NZ   368   2.119   4.545   2.455
     LYS   HZ1   369   2.102   4.630   2.450
     LYS   HZ2   370   2.030   4.517   2.475
     LYS   HZ3   371   2.093   4.538   2.553
     LYS     C   372   2.214   4.220   1.768
     LYS     O   373   2.271   4.195   1.704
     DAL     N   374   2.181   4.327   1.732
     DAL    HN   375   2.224   4.385   1.736
     DAL    CA   376   2.098   4.422   1.819
     DAL    HA   377   2.059   4.361   1.918
     DAL    CB   378   2.162   4.517   1.908
     DAL   HB1   379   2.158   4.617   1.875
     DAL   HB2   380   2.285   4.587   1.952
     DAL   HB3   381   2.174   4.524   2.010
     DAL     C   382   2.057   4.466   1.694
     DAL     O   383   2.098   4.587   1.608
     DAL     N   384   1.929   4.535   1.749
     DAL    HN   385   1.972   4.593   1.753
     DAL    CA   386   1.905   4.537   1.885
     DAL    HA   387   1.896   4.395   1.928
     DAL    CB   388   1.950   4.678   1.958
     DAL   HB1   389   2.030   4.711   1.922
     DAL   HB2   390   2.040   4.612   1.942
     DAL   HB3   391   2.001   4.613   2.067
     DAL     C   392   1.775   4.615   1.908
     DAL   OC1   393   1.684   4.590   1.986
     DAL   OC2   394   1.759   4.725   1.837
     NAG    C1   395   1.545   4.735   1.521
     NAG    H1   396   1.536   4.744   1.632
     NAG    C5   397   1.428   4.528   1.535
     NAG    H5   398   1.420   4.537   1.646
     NAG    O5   399   1.434   4.657   1.474
     NAG    C2   400   1.673   4.666   1.484
     NAG    H2   401   1.674   4.656   1.372
     NAG    NC   402   1.788   4.745   1.526
     NAG    HN   403   1.784   4.788   1.616
     NAG    CM   404   1.900   4.725   1.452
     NAG    OM   405   1.915   4.717   1.340
     NAG    CC   406   2.008   4.771   1.515
     NAG   HC1   407   2.011   4.830   1.624
     NAG   HC2   408   2.105   4.827   1.469
     NAG   HC3   409   2.012   4.877   1.498
     NAG    C3   410   1.674   4.528   1.546
     NAG    H3   411   1.671   4.539   1.656
     NAG    O3   412   1.795   4.462   1.514
     NAG   HO3   413   1.791   4.431   1.422
     NAG    C4   414   1.554   4.451   1.499
     NAG    H4   415   1.565   4.450   1.389
     NAG    O4   416   1.550   4.322   1.555
     NAG    C6   417   1.301   4.459   1.487
     NAG   H61   418   1.293   4.360   1.534
     NAG   H62   419   1.302   4.445   1.377
     NAG    O6   420   1.185   4.534   1.523
     NAG   HO6   421   1.184   4.617   1.473
     NAM    C1   422   1.629   5.262   1.477
     NAM    H1   423   1.642   5.265   1.367
     NAM    C5   424   1.749   5.058   1.485
     NAM    H5   425   1.762   5.069   1.375
     NAM    O5   426   1.733   5.189   1.543
     NAM    C2   427   1.498   5.194   1.517
     NAM    H2   428   1.499   5.191   1.628
     NAM    NC   429   1.387   5.271   1.463
     NAM    HN   430   1.392   5.309   1.371
     NAM    CM   431   1.285   5.322   1.535
     NAM    OM   432   1.284   5.321   1.658
     NAM    CC   433   1.170   5.381   1.458
     NAM   HC1   434   1.174   5.351   1.351
     NAM   HC2   435   1.074   5.348   1.502
     NAM   HC3   436   1.174   5.492   1.465
     NAM    C3   437   1.501   5.051   1.464
     NAM    H3   438   1.505   5.060   1.353
     NAM    O3   439   1.385   4.972   1.492
     NAM    CA   440   1.366   4.922   1.625
     NAM    HA   441   1.453   4.892   1.681
     NAM     C   442   1.271   4.799   1.625
     NAM     O   443   1.267   4.721   1.718
     NAM    CB   444   1.302   5.032   1.712
     NAM   HB1   445   1.378   5.087   1.769
     NAM   HB2   446   1.226   4.994   1.783
     NAM   HB3   447   1.248   5.100   1.643
     NAM    C4   448   1.625   4.977   1.507
     NAM    H4   449   1.623   4.960   1.617
     NAM    O4   450   1.637   4.850   1.443
     NAM    C6   451   1.868   4.988   1.548
     NAM   H61   452   1.894   4.901   1.483
     NAM   H62   453   1.841   4.945   1.647
     NAM    O6   454   1.980   5.073   1.566
     NAM   HO6   455   1.977   5.142   1.499
     ALA     N   456   1.160   4.809   1.535
     ALA    HN   457   1.166   4.736   1.467
     ALA    CA   458   1.034   4.797   1.613
     ALA    HA   459   1.032   4.885   1.683
     ALA    CB   460   1.022   4.668   1.693
     ALA   HB1   461   1.103   4.659   1.766
     ALA   HB2   462   1.024   4.579   1.629
     ALA   HB3   463   0.927   4.665   1.749
     ALA     C   464   0.917   4.807   1.516
     ALA     O   465   0.894   4.742   1.416
     GLN     N   466   0.819   4.907   1.547
     GLN    HN   467   0.799   4.991   1.498
     GLN    CA   468   0.757   4.855   1.671
     GLN    HA   469   0.656   4.900   1.691
     GLN    CD   470   0.736   4.705   1.650
     GLN   OE1   471   0.629   4.674   1.573
     GLN   NE2   472   0.800   4.610   1.692
     GLN  HE21   473   0.805   4.615   1.730
     GLN  HE22   474   0.810   4.617   1.790
     GLN    CB   475   0.846   4.880   1.793
     GLN   HB1   476   0.952   4.855   1.770
     GLN   HB2   477   0.817   4.810   1.875
     GLN    CG   478   0.835   5.024   1.843
     GLN   HG1   479   0.729   5.049   1.865
     GLN   HG2   480   0.868   5.095   1.765
     GLN     C   481   0.916   5.042   1.968
     GLN     O   482   0.884   5.019   2.084
     LYS     N   483   1.031   4.998   1.955
     LYS    HN   484   1.063   4.918   2.042
     LYS    CA   485   1.040   5.156   1.895
     LYS    HA   486   1.154   5.234   1.902
     LYS    CB   487   1.040   5.237   2.051
     LYS   HB1   488   1.030   5.339   2.017
     LYS   HB2   489   0.942   5.191   2.059
     LYS    CG   490   1.067   5.237   2.205
     LYS   HG1   491   1.061   5.121   2.225
     LYS   HG2   492   1.154   5.265   2.175
     LYS    CD   493   1.017   5.382   2.290
     LYS   HD1   494   0.956   5.443   2.212
     LYS   HD2   495   0.915   5.349   2.326
     LYS    CE   496   1.007   5.504   2.392
     LYS   HE1   497   0.933   5.567   2.347
     LYS   HE2   498   1.095   5.415   2.510
     LYS    NZ   499   1.131   5.585   2.455
     LYS   HZ1   500   1.148   5.670   2.450
     LYS   HZ2   501   1.220   5.557   2.475
     LYS   HZ3   502   1.157   5.578   2.553
     LYS     C   503   1.036   5.260   1.768
     LYS     O   504   0.979   5.235   1.704
     DAL     N   505   1.069   5.367   1.732
     DAL    HN   506   1.026   5.425   1.736
     DAL    CA   507   1.152   5.462   1.819
     DAL    HA   508   1.191   5.401   1.918
     DAL    CB   509   1.088   5.557   1.908
     DAL   HB1   510   1.092   5.657   1.875
     DAL   HB2   511   0.965   5.627   1.952
     DAL   HB3   512   1.076   5.564   2.010
     DAL     C   513   1.193   5.506   1.694
     DAL     O   514   1.152   5.627   1.608
     DAL     N   515   1.321   5.575   1.749
     DAL    HN   516   1.278   5.633   1.753
     DAL    CA   517   1.345   5.577   1.885
     DAL    HA   518   1.354   5.435   1.928
     DAL    CB   519   1.300   5.718   1.958
     DAL   HB1   520   1.220   5.751   1.922
     DAL   HB2   521   1.210   5.652   1.942
     DAL   HB3   522   1.249   5.653   2.067
     DAL     C   523   1.475   5.655   1.908
     DAL   OC1   524   1.566   5.630   1.986
     DAL   OC2   525   1.491   5.765   1.837
     NAG    C1   526   1.580   5.775   1.521
     NAG    H1   527   1.589   5.784   1.632
     NAG    C5   528   1.697   5.568   1.535
     NAG    H5   529   1.705   5.577   1.646
     NAG    O5   530   1.691   5.697   1.474
     NAG    C2   531   1.452   5.706   1.484
     NAG    H2   532   1.451   5.696   1.372
     NAG    NC   533   1.337   5.785   1.526
     NAG    HN   534   1.341   5.828   1.616
     NAG    CM   535   1.225   5.765   1.452
     NAG    OM   536   1.210   5.757   1.340
     NAG    CC   537   1.117   5.811   1.515
     NAG   HC1   538   1.114   5.870   1.624
     NAG   HC2   539   1.020   5.867   1.469
     NAG   HC3   540   1.142   5.917   1.498
     NAG    C3   541   1.451   5.568   1.546
     NAG    H3   542   1.454   5.579   1.656
     NAG    O3   543   1.330   5.502   1.514
     NAG   HO3   544   1.334   5.471   1.422
     NAG    C4   545   1.571   5.491   1.499
     NAG    H4   546   1.560   5.490   1.389
     NAG    O4   547   1.575   5.362   1.555
     NAG    C6   548   1.824   5.499   1.487
     NAG   H61   549   1.832   5.400   1.534
     NAG   H62   550   1.823   5.485   1.377
     NAG    O6   551   1.940   5.574   1.523
     NAG   HO6   552   1.941   5.657   1.473
     NAM    C1   553   1.621   6.302   1.477
     NAM    H1   554   1.608   6.305   1.367
     NAM    C5   555   1.501   6.098   1.485
     NAM    H5   556   1.488   6.109   1.375
     NAM    O5   557   1.517   6.229   1.543
     NAM    C2   558   1.752   6.234   1.517
     NAM    H2   559   1.751   6.231   1.628
     NAM    NC   560   1.863   6.311   1.463
     NAM    HN   561   1.858   6.349   1.371
     NAM    CM   562   1.965   6.362   1.535
     NAM    OM   563   1.966   6.361   1.658
     NAM    CC   564   2.080   6.421   1.458
     NAM   HC1   565   2.076   6.391   1.351
     NAM   HC2   566   2.176   6.388   1.502
     NAM   HC3   567   2.076   6.532   1.465
     NAM    C3   568   1.749   6.091   1.464
     NAM    H3   569   1.745   6.100   1.353
     NAM    O3   570   1.865   6.012   1.492
     NAM    CA   571   1.884   5.962   1.625
     NAM    HA   572   1.797   5.932   1.681
     NAM     C   573   1.979   5.839   1.625
     NAM     O   574   1.983   5.761   1.718
     NAM    CB   575   1.948   6.072   1.712
     NAM   HB1   576   1.872   6.127   1.769
     NAM   HB2   577   2.024   6.034   1.783
     NAM   HB3   578   2.002   6.140   1.643
     NAM    C4   579   1.625   6.017   1.507
     NAM    H4   580   1.627   6.000   1.617
     NAM    O4   581   1.613   5.890   1.443
     NAM    C6   582   1.382   6.028   1.548
     NAM   H61   583   1.356   5.941   1.483
     NAM   H62   584   1.409   5.985   1.647
     NAM    O6   585   1.270   6.113   1.566
     NAM   HO6   586   1.273   6.182   1.499
     ALA     N   587   2.090   5.849   1.535
     ALA    HN   588   2.084   5.776   1.467
     ALA    CA   589   2.216   5.837   1.613
     ALA    HA   590   2.218   5.925   1.683
     ALA    CB   591   2.228   5.708   1.693
     ALA   HB1   592   2.147   5.699   1.766
     ALA   HB2   593   2.226   5.619   1.629
     ALA   HB3   594   2.323   5.705   1.749
     ALA     C   595   2.333   5.847   1.516
     ALA     O   596   2.356   5.782   1.416
     GLN     N   597   2.431   5.947   1.547
     GLN    HN   598   2.451   6.031   1.498
     GLN    CA   599   2.493   5.895   1.671
     GLN    HA   600   2.594   5.940   1.691
     GLN    CD   601   2.514   5.745   1.650
     GLN   OE1   602   2.621   5.714   1.573
     GLN   NE2   603   2.450   5.650   1.692
     GLN  HE21   604   2.455   5.655   1.730
     GLN  HE22   605   2.457   5.657   1.790
     GLN    CB   606   2.404   5.920   1.793
     GLN   HB1   607   2.298   5.895   1.770
     GLN   HB2   608   2.433   5.850   1.875
     GLN    CG   609   2.415   6.064   1.843
     GLN   HG1   610   2.521   6.089   1.865
     GLN   HG2   611   2.382   6.135   1.765
     GLN     C   612   2.334   6.082   1.968
     GLN     O   613   2.366   6.059   2.084
     LYS     N   614   2.219   6.038   1.955
     LYS    HN   615   2.187   5.958   2.042
     LYS    CA   616   2.210   6.196   1.895
     LYS    HA   617   2.096   6.274   1.902
     LYS    CB   618   2.210   6.277   2.051
     LYS   HB1   619   2.220   6.379   2.017
     LYS   HB2   620   2.308   6.231   2.059
     LYS    CG   621   2.183   6.277   2.205
     LYS   HG1   622   2.189   6.161   2.225
     LYS   HG2   623   2.096   6.305   2.175
     LYS    CD   624   2.233   6.422   2.290
     LYS   HD1   625   2.294   6.483   2.212
     LYS   HD2   626   2.335   6.389   2.326
     LYS    CE   627   2.243   6.544   2.392
     LYS   HE1   628   2.317   6.607   2.347
     LYS   HE2   629   2.155   6.455   2.510
     LYS    NZ   630   2.119   6.625   2.455
     LYS   HZ1   631   2.102   6.710   2.450
     LYS   HZ2   632   2.030   6.597   2.475
     LYS   HZ3   633   2.093   6.618   2.553
     LYS     C   634   2.214   6.300   1.768
     LYS     O   635   2.271   6.275   1.704
     DAL     N   636   2.181   6.407   1.732
     DAL    HN   637   2.224   6.465   1.736
     DAL    CA   638   2.098   6.502   1.819
     DAL    HA   639   2.059   6.441   1.918
     DAL    CB   640   2.162   6.597   1.908
     DAL   HB1   641   2.158   6.697   1.875
     DAL   HB2   642   2.285   6.667   1.952
     DAL   HB3   643   2.174   6.604   2.010
     DAL     C   644   2.057   6.546   1.694
     DAL     O   645   2.098   6.667   1.608
     DAL     N   646   1.929   6.615   1.749
     DAL    HN   647   1.972   6.673   1.753
     DAL    CA   648   1.905   6.617   1.885
     DAL    HA   649   1.896   6.475   1.928
     DAL    CB   650   1.950   6.758   1.958
     DAL   HB1   651   2.030   6.791   1.922
     DAL   HB2   652   2.040   6.692   1.942
     DAL   HB3   653   2.001   6.693   2.067
     DAL     C   654   1.775   6.695   1.908
     DAL   OC1   655   1.684   6.670   1.986
     DAL   OC2   656   1.759   6.805   1.837
     NAG    C1   657   1.545   6.815   1.521
     NAG    H1   658   1.536   6.824   1.632
     NAG    C5   659   1.428   6.608   1.535
     NAG    H5   660   1.420   6.617   1.646
     NAG    O5   661   1.434   6.737   1.474
     NAG    C2   662   1.673   6.746   1.484
     NAG    H2   663   1.674   6.736   1.372
     NAG    NC   664   1.788   6.825   1.526
     NAG    HN   665   1.784   6.868   1.616
     NAG    CM   666   1.900   6.805   1.452
     NAG    OM   667   1.915   6.797   1.340
     NAG    CC   668   2.008   6.851   1.515
     NAG   HC1   669   2.011   6.910   1.624
     NAG   HC2   670   2.105   6.907   1.469
     NAG   HC3   671   2.012   6.957   1.498
     NAG    C3   672   1.674   6.608   1.546
     NAG    H3   673   1.671   6.619   1.656
     NAG    O3   674   1.795   6.542   1.514
     NAG   HO3   675   1.791   6.511   1.422
     NAG    C4   676   1.554   6.531   1.499
     NAG    H4   677   1.565   6.530   1.389
     NAG    O4   678   1.550   6.402   1.555
     NAG    C6   679   1.301   6.539   1.487
     NAG   H61   680   1.293   6.440   1.534
     NAG   H62   681   1.302   6.525   1.377
     NAG    O6   682   1.185   6.614   1.523
     NAG   HO6   683   1.184   6.697   1.473
     NAM    C1   684   1.629   7.342   1.477
     NAM    H1   685   1.642   7.345   1.367
     NAM    C5   686   1.749   7.138   1.485
     NAM    H5   687   1.762   7.149   1.375
     NAM    O5   688   1.733   7.269   1.543
     NAM    C2   689   1.498   7.274   1.517
     NAM    H2   690   1.499   7.271   1.628
     NAM    NC   691   1.387   7.351   1.463
     NAM    HN   692   1.392   7.389   1.371
     NAM    CM   693   1.285   7.402   1.535
     NAM    OM   694   1.284   7.401   1.658
     NAM    CC   695   1.170   7.461   1.458
     NAM   HC1   696   1.174   7.431   1.351
     NAM   HC2   697   1.074   7.428   1.502
     NAM   HC3   698   1.174   7.572   1.465
     NAM    C3   699   1.501   7.131   1.464
     NAM    H3   700   1.505   7.140   1.353
     NAM    O3   701   1.385   7.052   1.492
     NAM    CA   702   1.366   7.002   1.625
     NAM    HA   703   1.453   6.972   1.681
     NAM     C   704   1.271   6.879   1.625
     NAM     O   705   1.267   6.801   1.718
     NAM    CB   706   1.302   7.112   1.712
     NAM   HB1   707   1.378   7.167   1.769
     NAM   HB2   708   1.226   7.074   1.783
     NAM   HB3   709   1.248   7.180   1.643
     NAM    C4   710   1.625   7.057   1.507
     NAM    H4   711   1.623   7.040   1.617
     NAM    O4   712   1.637   6.930   1.443
     NAM    C6   713   1.868   7.068   1.548
     NAM   H61   714   1.894   6.981   1.483
     NAM   H62   715   1.841   7.025   1.647
     NAM    O6   716   1.980   7.153   1.566
     NAM   HO6   717   1.977   7.222   1.499
     ALA     N   718   1.160   6.889   1.535
     ALA    HN   719   1.166   6.816   1.467
     ALA    CA   720   1.034   6.877   1.613
     ALA    HA   721   1.032   6.965   1.683
     ALA    CB   722   1.022   6.748   1.693
     ALA   HB1   723   1.103   6.739   1.766
     ALA   HB2   724   1.024   6.659   1.629
     ALA   HB3   725   0.927   6.745   1.749
     ALA     C   726   0.917   6.887   1.516
     ALA     O   727   0.894   6.822   1.416
     GLN     N   728   0.819   6.987   1.547
     GLN    HN   729   0.799   7.071   1.498
     GLN    CA   730   0.757   6.935   1.671
     GLN    HA   731   0.656   6.980   1.691
     GLN    CD   732   0.736   6.785   1.650
     GLN   OE1   733   0.629   6.754   1.573
     GLN   NE2   734   0.800   6.690   1.692
     GLN  HE21   735   0.805   6.695   1.730
     GLN  HE22   736   0.810   6.697   1.790
     GLN    CB   737   0.846   6.960   1.793
     GLN   HB1   738   0.952   6.935   1.770
     GLN   HB2   739   0.817   6.890   1.875
     GLN    CG   740   0.835   7.104   1.843
     GLN   HG1   741   0.729   7.129   1.865
     GLN   HG2   742   0.868   7.175   1.765
     GLN     C   743   0.916   7.122   1.968
     GLN     O   744   0.884   7.099   2.084
     LYS     N   745   1.031   7.078   1.955
     LYS    HN   746   1.063   6.998   2.042
     LYS    CA   747   1.040   7.236   1.895
     LYS    HA   748   1.154   7.314   1.902
     LYS    CB   749   1.040   7.317   2.051
     LYS   HB1   750   1.030   7.419   2.017
     LYS   HB2   751   0.942   7.271   2.059
     LYS    CG   752   1.067   7.317   2.205
     LYS   HG1   753   1.061   7.201   2.225
     LYS   HG2   754   1.154   7.345   2.175
     LYS    CD   755   1.017   7.462   2.290
     LYS   HD1   756   0.956   7.523   2.212
     LYS   HD2   757   0.915   7.429   2.326
     LYS    CE   758   1.007   7.584   2.392
     LYS   HE1   759   0.933   7.647   2.347
     LYS   HE2   760   1.095   7.495   2.510
     LYS    NZ   761   1.131   7.665   2.455
     LYS   HZ1   762   1.148   7.750   2.450
     LYS   HZ2   763   1.220   7.637   2.475
     LYS   HZ3   764   1.157   7.658   2.553
     LYS     C   765   1.036   7.340   1.768
     LYS     O   766   0.979   7.315   1.704
     DAL     N   767   1.069   7.447   1.732
     DAL    HN   768   1.026   7.505   1.736
     DAL    CA   769   1.152   7.542   1.819
     DAL    HA   770   1.191   7.481   1.918
     DAL    CB   771   1.088   7.637   1.908
     DAL   HB1   772   1.092   7.737   1.875
     DAL   HB2   773   0.965   7.707   1.952
     DAL   HB3   774   1.076   7.644   2.010
     DAL     C   775   1.193   7.586   1.694
     DAL     O   776   1.152   7.707   1.608
     DAL     N   777   1.321   7.655   1.749
     DAL    HN   778   1.278   7.713   1.753
     DAL    CA   779   1.345   7.657   1.885
     DAL    HA   780   1.354   7.515   1.928
     DAL    CB   781   1.300   7.798   1.958
     DAL   HB1   782   1.220   7.831   1.922
     DAL   HB2   783   1.210   7.732   1.942
     DAL   HB3   784   1.249   7.733   2.067
     DAL     C   785   1.475   7.735   1.908
     DAL   OC1   786   1.566   7.710   1.986
     DAL   OC2   787   1.491   7.845   1.837
     NAG    C1   788   1.580   7.855   1.521
     NAG    H1   789   1.589   7.864   1.632
     NAG    C5   790   1.697   7.648   1.535
     NAG    H5   791   1.705   7.657   1.646
     NAG    O5   792   1.691   7.777   1.474
     NAG    C2   793   1.452   7.786   1.484
     NAG    H2   794   1.451   7.776   1.372
     NAG    NC   795   1.337   7.865   1.526
     NAG    HN   796   1.341   7.908   1.616
     NAG    CM   797   1.225   7.845   1.452
     NAG    OM   798   1.210   7.837   1.340
     NAG    CC   799   1.117   7.891   1.515
     NAG   HC1   800   1.114   7.950   1.624
     NAG   HC2   801   1.020   7.947   1.469
     NAG   HC3   802   1.142   7.997   1.498
     NAG    C3   803   1.451   7.648   1.546
     NAG    H3   804   1.454   7.659   1.656
     NAG    O3   805   1.330   7.582   1.514
     NAG   HO3   806   1.334   7.551   1.422
     NAG    C4   807   1.571   7.571   1.499
     NAG    H4   808   1.560   7.570   1.389
     NAG    O4   809   1.575   7.442   1.555
     NAG    C6   810   1.824   7.579   1.487
     NAG   H61   811   1.832   7.480   1.534
     NAG   H62   812   1.823   7.565   1.377
     NAG    O6   813   1.940   7.654   1.523
     NAG   HO6   814   1.941   7.737   1.473
     NAM    C1   815   1.621   8.382   1.477
     NAM    H1   816   1.608   8.385   1.367
     NAM    C5   817   1.501   8.178   1.485
     NAM    H5   818   1.488   8.189   1.375
     NAM    O5   819   1.517   8.309   1.543
     NAM    C2   820   1.752   8.314   1.517
     NAM    H2   821   1.751   8.311   1.628
     NAM    NC   822   1.863   8.391   1.463
     NAM    HN   823   1.858   8.429   1.371
     NAM    CM   824   1.965   8.442   1.535
     NAM    OM   825   1.966   8.441   1.658
     NAM    CC   826   2.080   8.501   1.458
     NAM   HC1   827   2.076   8.471   1.351
     NAM   HC2   828   2.176   8.468   1.502
     NAM   HC3   829   2.076   8.612   1.465
     NAM    C3   830   1.749   8.171   1.464
     NAM    H3   831   1.745   8.180   1.353
     NAM    O3   832   1.865   8.092   1.492
     NAM    CA   833   1.884   8.042   1.625
     NAM    HA   834   1.797   8.012   1.681
     NAM     C   835   1.979   7.919   1.625
     NAM     O   836   1.983   7.841   1.718
     NAM    CB   837   1.948   8.152   1.712
     NAM   HB1   838   1.872   8.207   1.769
     NAM   HB2   839   2.024   8.114   1.783
     NAM   HB3   840   2.002   8.220   1.643
     NAM    C4   841   1.625   8.097   1.507
     NAM    H4   842   1.627   8.080   1.617
     NAM    O4   843   1.613   7.970   1.443
     NAM    C6   844   1.382   8.108   1.548
     NAM   H61   845   1.356   8.021   1.483
     NAM   H62   846   1.409   8.065   1.647
     NAM    O6   847   1.270   8.193   1.566
     NAM   HO6   848   1.273   8.262   1.499
     ALA     N   849   2.090   7.929   1.535
     ALA    HN   850   2.084   7.856   1.467
     ALA    CA   851   2.216   7.917   1.613
     ALA    HA   852   2.218   8.005   1.683
     ALA    CB   853   2.228   7.788   1.693
     ALA   HB1   854   2.147   7.779   1.766
     ALA   HB2   855   2.226   7.699   1.629
     ALA   HB3   856   2.323   7.785   1.749
     ALA     C   857   2.333   7.927   1.516
     ALA     O   858   2.356   7.862   1.416
     GLN     N   859   2.431   8.027   1.547
     GLN    HN   860   2.451   8.111   1.498
     GLN    CA   861   2.493   7.975   1.671
     GLN    HA   862   2.594   8.020   1.691
     GLN    CD   863   2.514   7.825   1.650
     GLN   OE1   864   2.621   7.794   1.573
     GLN   NE2   865   2.450   7.730   1.692
     GLN  HE21   866   2.455   7.735   1.730
     GLN  HE22   867   2.457   7.737   1.790
     GLN    CB   868   2.404   8.000   1.793
     GLN   HB1   869   2.298   7.975   1.770
     GLN   HB2   870   2.433   7.930   1.875
     GLN    CG   871   2.415   8.144   1.843
     GLN   HG1   872   2.521   8.169   1.865
     GLN   HG2   873   2.382   8.215   1.765
     GLN     C   874   2.334   8.162   1.968
     GLN     O   875   2.366   8.139   2.084
     LYS     N   876   2.219   8.118   1.955
     LYS    HN   877   2.187   8.038   2.042
     LYS    CA   878   2.210   8.276   1.895
     LYS    HA   879   2.096   8.354   1.902
     LYS    CB   880   2.210   8.357   2.051
     LYS   HB1   881   2.220   8.459   2.017
     LYS   HB2   882   2.308   8.311   2.059
     LYS    CG   883   2.183   8.357   2.205
     LYS   HG1   884   2.189   8.241   2.225
     LYS   HG2   885   2.096   8.385   2.175
     LYS    CD   886   2.233   8.502   2.290
     LYS   HD1   887   2.294   8.563   2.212
     LYS   HD2   888   2.335   8.469   2.326
     LYS    CE   889   2.243   8.624   2.392
     LYS   HE1   890   2.317   8.687   2.347
     LYS   HE2   891   2.155   8.535   2.510
     LYS    NZ   892   2.119   8.705   2.455
     LYS   HZ1   893   2.102   8.790   2.450
     LYS   HZ2   894   2.030   8.677   2.475
     LYS   HZ3   895   2.093   8.698   2.553
     LYS     C   896   2.214   8.380   1.768
     LYS     O   897   2.271   8.355   1.704
     DAL     N   898   2.181   8.487   1.732
     DAL    HN   899   2.224   8.545   1.736
     DAL    CA   900   2.098   8.582   1.819
     DAL    HA   901   2.059   8.521   1.918
     DAL    CB   902   2.162   8.677   1.908
     DAL   HB1   903   2.158   8.777   1.875
     DAL   HB2   904   2.285   8.747   1.952
     DAL   HB3   905   2.174   8.684   2.010
     DAL     C   906   2.057   8.626   1.694
     DAL     O   907   2.098   8.747   1.608
     DAL     N   908   1.929   8.695   1.749
     DAL    HN   909   1.972   8.753   1.753
     DAL    CA   910   1.905   8.697   1.885
     DAL    HA   911   1.896   8.555   1.928
     DAL    CB   912   1.950   8.838   1.958
     DAL   HB1   913   2.030   8.871   1.922
     DAL   HB2   914   2.040   8.772   1.942
     DAL   HB3   915   2.001   8.773   2.067
     DAL     C   916   1.775   8.775   1.908
     DAL   OC1   917   1.684   8.750   1.986
     DAL   OC2   918   1.759   8.885   1.837
     NAG    C1   919   1.545   8.895   1.521
     NAG    H1   920   1.536   8.904   1.632
     NAG    C5   921   1.428   8.688   1.535
     NAG    H5   922   1.420   8.697   1.646
     NAG    O5   923   1.434   8.817   1.474
     NAG    C2   924   1.673   8.826   1.484
     NAG    H2   925   1.674   8.816   1.372
     NAG    NC   926   1.788   8.905   1.526
     NAG    HN   927   1.784   8.948   1.616
     NAG    CM   928   1.900   8.885   1.452
     NAG    OM   929   1.915   8.877   1.340
     NAG    CC   930   2.008   8.931   1.515
     NAG   HC1   931   2.011   8.990   1.624
     NAG   HC2   932   2.105   8.987   1.469
     NAG   HC3   933   2.012   9.037   1.498
     NAG    C3   934   1.674   8.688   1.546
     NAG    H3   935   1.671   8.699   1.656
     NAG    O3   936   1.795   8.622   1.514
     NAG   HO3   937   1.791   8.591   1.422
     NAG    C4   938   1.554   8.611   1.499
     NAG    H4   939   1.565   8.610   1.389
     NAG    O4   940   1.550   8.482   1.555
     NAG    C6   941   1.301   8.619   1.487
     NAG   H61   942   1.293   8.520   1.534
     NAG   H62   943   1.302   8.605   1.377
     NAG    O6   944   1.185   8.694   1.523
     NAG   HO6   945   1.184   8.777   1.473
     NAM    C1   946   1.629   9.422   1.477
     NAM    H1   947   1.642   9.425   1.367
     NAM    O1   948   1.631   9.554   1.526
     NAM   HO1   949   1.614   9.552   1.600
     NAM    C5   950   1.749   9.218   1.485
     NAM    H5   951   1.762   9.229   1.375
     NAM    O5   952   1.733   9.349   1.543
     NAM    C2   953   1.498   9.354   1.517
     NAM    H2   954   1.499   9.351   1.628
     NAM    NC   955   1.387   9.431   1.463
     NAM    HN   956   1.392   9.469   1.371
     NAM    CM   957   1.285   9.482   1.535
     NAM    OM   958   1.284   9.481   1.658
     NAM    CC   959   1.170   9.541   1.458
     NAM   HC1   960   1.174   9.511   1.351
     NAM   HC2   961   1.074   9.508   1.502
     NAM   HC3   962   1.174   9.652   1.465
     NAM    C3   963   1.501   9.211   1.464
     NAM    H3   964   1.505   9.220   1.353
     NAM    O3   965   1.385   9.132   1.492
     NAM    CA   966   1.366   9.082   1.625
     NAM    HA   967   1.453   9.052   1.681
     NAM     C   968   1.271   8.959   1.625
     NAM     O   969   1.267   8.881   1.718
     NAM    CB   970   1.302   9.192   1.712
     NAM   HB1   971   1.378   9.247   1.769
     NAM   HB2   972   1.226   9.154   1.783
     NAM   HB3   973   1.248   9.260   1.643
     NAM    C4   974   1.625   9.137   1.507
     NAM    H4   975   1.623   9.120   1.617
     NAM    O4   976   1.637   9.010   1.443
     NAM    C6   977   1.868   9.148   1.548
     NAM   H61   978   1.894   9.061   1.483
     NAM   H62   979   1.841   9.105   1.647
     NAM    O6   980   1.980   9.233   1.566
     NAM   HO6   981   1.977   9.302   1.499
     ALA     N   982   1.160   8.969   1.535
     ALA    HN   983   1.166   8.896   1.467
     ALA    CA   984   1.034   8.957   1.613
     ALA    HA   985   1.032   9.045   1.683
     ALA    CB   986   1.022   8.828   1.693
     ALA   HB1   987   1.103   8.819   1.766
     ALA   HB2   988   1.024   8.739   1.629
     ALA   HB3   989   0.927   8.825   1.749
     ALA     C   990   0.917   8.967   1.516
     ALA     O   991   0.894   8.902   1.416
     GLN     N   992   0.819   9.067   1.547
     GLN    HN   993   0.799   9.151   1.498
     GLN    CA   994   0.757   9.015   1.671
     GLN    HA   995   0.656   9.060   1.691
     GLN    CD   996   0.736   8.865   1.650
     GLN   OE1   997   0.629   8.834   1.573
     GLN   NE2   998   0.800   8.770   1.692
     GLN  HE21   999   0.805   8.775   1.730
     GLN  HE22  1000   0.810   8.777   1.790
     GLN    CB  1001   0.846   9.040   1.793
     GLN   HB1  1002   0.952   9.015   1.770
     GLN   HB2  1003   0.817   8.970   1.875
     GLN    CG  1004   0.835   9.184   1.843
     GLN   HG1  1005   0.729   9.209   1.865
     GLN   HG2  1006   0.868   9.255   1.765
     GLN     C  1007   0.916   9.202   1.968
     GLN     O  1008   0.884   9.179   2.084
     LYS     N  1009   1.031   9.158   1.955
     LYS    HN  1010   1.063   9.078   2.042
     LYS    CA  1011   1.040   9.316   1.895
     LYS    HA  1012   1.154   9.394   1.902
     LYS    CB  1013   1.040   9.397   2.051
     LYS   HB1  1014   1.030   9.499   2.017
     LYS   HB2  1015   0.942   9.351   2.059
     LYS    CG  1016   1.067   9.397   2.205
     LYS   HG1  1017   1.061   9.281   2.225
     LYS   HG2  1018   1.154   9.425   2.175
     LYS    CD  1019   1.017   9.542   2.290
     LYS   HD1  1020   0.956   9.603   2.212
     LYS   HD2  1021   0.915   9.509   2.326
     LYS    CE  1022   1.007   9.664   2.392
     LYS   HE1  1023   0.933   9.727   2.347
     LYS   HE2  1024   1.095   9.575   2.510
     LYS    NZ  1025   1.131   9.745   2.455
     LYS   HZ1  1026   1.148   9.830   2.450
     LYS   HZ2  1027   1.220   9.717   2.475
     LYS   HZ3  1028   1.157   9.738   2.553
     LYS     C  1029   1.036   9.420   1.768
     LYS     O  1030   0.979   9.395   1.704
     DAL     N  1031   1.069   9.527   1.732
     DAL    HN  1032   1.026   9.585   1.736
     DAL    CA  1033   1.152   9.622   1.819
     DAL    HA  1034   1.191   9.561   1.918
     DAL    CB  1035   1.088   9.717   1.908
     DAL   HB1  1036   1.092   9.817   1.875
     DAL   HB2  1037   0.965   9.787   1.952
     DAL   HB3  1038   1.076   9.724   2.010
     DAL     C  1039   1.193   9.666   1.694
     DAL     O  1040   1.152   9.787   1.608
     DAL     N  1041   1.321   9.735   1.749
     DAL    HN  1042   1.278   9.793   1.753
     DAL    CA  1043   1.345   9.737   1.885
     DAL    HA  1044   1.354   9.595   1.928
     DAL    CB  1045   1.300   9.878   1.958
     DAL   HB1  1046   1.220   9.911   1.922
     DAL   HB2  1047   1.210   9.812   1.942
     DAL   HB3  1048   1.249   9.813   2.067
     DAL     C  1049   1.475   9.815   1.908
     DAL   OC1  1050   1.566   9.790   1.986
     DAL   OC2  1051   1.491   9.925   1.837
   16.000000000000000        16.000000000000000        16.000000000000000     
