GLN
17
     GLN     N     1   0.619   1.267   1.547
     GLN    HN     2   0.599   1.351   1.498
     GLN    CA     3   0.557   1.215   1.671
     GLN    HA     4   0.456   1.260   1.691
     GLN    CD     5   0.536   1.065   1.650
     GLN   OE1     6   0.429   1.034   1.573
     GLN   NE2     7   0.600   0.970   1.692
     GLN  HE21     8   0.605   0.975   1.730
     GLN  HE22     9   0.610   0.977   1.790
     GLN    CB    10   0.646   1.240   1.793
     GLN   HB1    11   0.752   1.215   1.770
     GLN   HB2    12   0.617   1.170   1.875
     GLN    CG    13   0.635   1.384   1.843
     GLN   HG1    14   0.529   1.409   1.865
     GLN   HG2    15   0.668   1.455   1.765
     GLN     C    16   0.716   1.402   1.968
     GLN     O    17   0.684   1.379   2.084
   3.0000000000000000        3.0000000000000000        3.0000000000000000     
