LYS residue in water
22
     LYS     N    1   2.019   1.358   1.955
     LYS    HN    2   1.987   1.278   2.042
     LYS    CA    3   2.010   1.516   1.895
     LYS    HA    4   1.896   1.594   1.902
     LYS    CB    5   2.010   1.597   2.051
     LYS   HB1    6   2.020   1.699   2.017
     LYS   HB2    7   2.108   1.551   2.059
     LYS    CG    8   1.983   1.597   2.205
     LYS   HG1    9   1.989   1.481   2.225
     LYS   HG2   10   1.896   1.625   2.175
     LYS    CD   11   2.033   1.742   2.290
     LYS   HD1   12   2.094   1.803   2.212
     LYS   HD2   13   2.135   1.709   2.326
     LYS    CE   14   2.043   1.864   2.392
     LYS   HE1   15   2.117   1.927   2.347
     LYS   HE2   16   1.955   1.775   2.510
     LYS    NZ   17   1.919   1.945   2.455
     LYS   HZ1   18   1.902   2.030   2.450
     LYS   HZ2   19   1.830   1.917   2.475
     LYS   HZ3   20   1.893   1.938   2.553
     LYS     C   21   2.014   1.620   1.768
     LYS     O   22   2.071   1.595   1.704
   10.00000   10.00000   10.00000
