NAM
36
     NAM    C1    1   1.421   1.622   1.477
     NAM    H1    2   1.408   1.625   1.367
     NAM    O1    3   1.419   1.754   1.526
     NAM   HO1    4   1.436   1.752   1.600
     NAM    C5    5   1.301   1.418   1.485
     NAM    H5    6   1.288   1.429   1.375
     NAM    O5    7   1.317   1.549   1.543
     NAM    C2    8   1.552   1.554   1.517 
     NAM    H2    9   1.551   1.551   1.628
     NAM    NC   10   1.663   1.631   1.463
     NAM    HN   11   1.658   1.669   1.371
     NAM    CM   12   1.765   1.682   1.535 
     NAM    OM   13   1.766   1.681   1.658 
     NAM    CC   14   1.880   1.741   1.458
     NAM   HC1   15   1.876   1.711   1.351
     NAM   HC2   16   1.976   1.708   1.502
     NAM   HC3   17   1.876   1.852   1.465
     NAM    C3   18   1.549   1.411   1.464
     NAM    H3   19   1.545   1.420   1.353
     NAM    O3   20   1.665   1.332   1.492
     NAM    CA   21   1.684   1.282   1.625
     NAM    HA   22   1.597   1.252   1.681
     NAM     C   23   1.779   1.159   1.625
     NAM     O   24   1.783   1.081   1.718
     NAM    CB   25   1.748   1.392   1.712
     NAM   HB1   26   1.672   1.447   1.769 
     NAM   HB2   27   1.824   1.354   1.783
     NAM   HB3   28   1.802   1.460   1.643
     NAM    C4   29   1.425   1.337   1.507
     NAM    H4   30   1.427   1.320   1.617 
     NAM    O4   31   1.413   1.210   1.443
     NAM    C6   32   1.182   1.348   1.548
     NAM   H61   33   1.156   1.261   1.483
     NAM   H62   34   1.209   1.305   1.647
     NAM    O6   35   1.070   1.433   1.566
     NAM   HO6   36   1.073   1.502   1.499
   10.00000   10.00000   10.00000
