LYS          
22
     LYS     N     1   0.831   1.358   1.955
     LYS    HN     2   0.863   1.278   2.042
     LYS    CA     3   0.840   1.516   1.895
     LYS    HA     4   0.954   1.594   1.902
     LYS    CB     5   0.840   1.597   2.051
     LYS   HB1     6   0.830   1.699   2.017
     LYS   HB2     7   0.742   1.551   2.059
     LYS    CG     8   0.867   1.597   2.205
     LYS   HG1     9   0.861   1.481   2.225
     LYS   HG2    10   0.954   1.625   2.175
     LYS    CD    11   0.817   1.742   2.290
     LYS   HD1    12   0.756   1.803   2.212
     LYS   HD2    13   0.715   1.709   2.326
     LYS    CE    14   0.807   1.864   2.392
     LYS   HE1    15   0.733   1.927   2.347
     LYS   HE2    16   0.895   1.775   2.510
     LYS    NZ    17   0.931   1.945   2.455
     LYS   HZ1    18   0.948   2.030   2.450
     LYS   HZ2    19   1.020   1.917   2.475
     LYS   HZ3    20   0.957   1.938   2.553
     LYS     C    21   0.836   1.620   1.768
     LYS     O    22   0.779   1.595   1.704
   3.0000000000000000        3.0000000000000000        3.0000000000000000     
