NAM      
36
     NAM    C1     1   1.429   1.622   1.477
     NAM    H1     2   1.442   1.625   1.367
     NAM    O1     3   1.431   1.754   1.526
     NAM   HO1     4   1.414   1.752   1.600
     NAM    C5     5   1.549   1.418   1.485
     NAM    H5     6   1.562   1.429   1.375
     NAM    O5     7   1.533   1.549   1.543
     NAM    C2     8   1.298   1.554   1.517
     NAM    H2     9   1.299   1.551   1.628
     NAM    NC    10   1.187   1.631   1.463
     NAM    HN    11   1.192   1.669   1.371
     NAM    CM    12   1.085   1.682   1.535
     NAM    OM    13   1.084   1.681   1.658
     NAM    CC    14   0.970   1.741   1.458
     NAM   HC1    15   0.974   1.711   1.351
     NAM   HC2    16   0.874   1.708   1.502
     NAM   HC3    17   0.974   1.852   1.465
     NAM    C3    18   1.301   1.411   1.464
     NAM    H3    19   1.305   1.420   1.353
     NAM    O3    20   1.185   1.332   1.492
     NAM    CA    21   1.166   1.282   1.625
     NAM    HA    22   1.253   1.252   1.681
     NAM     C    23   1.071   1.159   1.625
     NAM     O    24   1.067   1.081   1.718
     NAM    CB    25   1.102   1.392   1.712
     NAM   HB1    26   1.178   1.447   1.769
     NAM   HB2    27   1.026   1.354   1.783
     NAM   HB3    28   1.048   1.460   1.643
     NAM    C4    29   1.425   1.337   1.507
     NAM    H4    30   1.423   1.320   1.617
     NAM    O4    31   1.437   1.210   1.443
     NAM    C6    32   1.668   1.348   1.548
     NAM   H61    33   1.694   1.261   1.483
     NAM   H62    34   1.641   1.305   1.647
     NAM    O6    35   1.780   1.433   1.566
     NAM   HO6    36   1.777   1.502   1.499
   3.0000000000000000        3.0000000000000000        3.0000000000000000     
