GLN residue in water
17
     GLN     N    1   2.231   1.267   1.547
     GLN    HN    2   2.251   1.351   1.498
     GLN    CA    3   2.293   1.215   1.671
     GLN    HA    4   2.394   1.260   1.691
     GLN    CD    5   2.314   1.065   1.650
     GLN   OE1    6   2.421   1.034   1.573
     GLN   NE2    7   2.250   0.970   1.692
     GLN  HE21    8   2.255   0.975   1.730
     GLN  HE22    9   2.257   0.977   1.790
     GLN    CB   10   2.204   1.240   1.793
     GLN   HB1   11   2.098   1.215   1.770
     GLN   HB2   12   2.233   1.170   1.875
     GLN    CG   13   2.215   1.384   1.843
     GLN   HG1   14   2.321   1.409   1.865
     GLN   HG2   15   2.182   1.455   1.765
     GLN     C   16   2.134   1.402   1.968
     GLN     O   17   2.166   1.379   2.084  
   10.00000   10.00000   10.00000
