;;
;; Generated by Rakesh Vaiwala
;;
;;
;;
;; Corresponance:
;; multiscalesimu@gmail.com
;;
;; GROMACS topology:glycan                          
;;


[ moleculetype ]
; name  nrexcl
glycan   3

[ atoms ]
;nr type resnr residue atom cgnr charge mass
;residue   1   NAG   
     1     CC3162      1      NAG     C1      1      0.290    12.0110   ; qtot   0.29
     2       HCA1      1      NAG     H1      2      0.090     1.0080   ; qtot   0.38
     3     CC3163      1      NAG     C5      3      0.110    12.0110   ; qtot   0.49
     4       HCA1      1      NAG     H5      4      0.090     1.0080   ; qtot   0.58
     5     OC3C61      1      NAG     O5      5     -0.400    15.9994   ; qtot   0.18
     6     CC3161      1      NAG     C2      6      0.134    12.0110   ; qtot   0.31
     7       HCA1      1      NAG     H2      7      0.090     1.0080   ; qtot   0.40
     8        NH1      1      NAG     NC      8     -0.587    14.0070   ; qtot  -0.18
     9          H      1      NAG     HN      9      0.363     1.0080   ; qtot   0.18
    10         CC      1      NAG     CM     10      0.550    12.0110   ; qtot   0.73
    11          O      1      NAG     OM     11     -0.550    15.9994   ; qtot   0.18
    12        CT3      1      NAG     CC     12     -0.270    12.0110   ; qtot  -0.09
    13        HA3      1      NAG    HC1     13      0.090     1.0080   ; qtot  -0.00
    14        HA3      1      NAG    HC2     14      0.090     1.0080   ; qtot   0.09
    15        HA3      1      NAG    HC3     15      0.090     1.0080   ; qtot   0.18
    16     CC3161      1      NAG     C3     16      0.140    12.0110   ; qtot   0.32
    17       HCA1      1      NAG     H3     17      0.090     1.0080   ; qtot   0.41
    18      OC311      1      NAG     O3     18     -0.650    15.9994   ; qtot  -0.24
    19       HCP1      1      NAG    HO3     19      0.420     1.0080   ; qtot   0.18
    20     CC3161      1      NAG     C4     20      0.140    12.0110   ; qtot   0.32
    21       HCA1      1      NAG     H4     21      0.090     1.0080   ; qtot   0.41
    22      OC311      1      NAG     O4     22     -0.650    15.9994   ; qtot  -0.24
    23       HCP1      1      NAG    HO4     23      0.420     1.0080   ; qtot   0.18
    24      CC321      1      NAG     C6     24      0.050    12.0110   ; qtot   0.23
    25       HCA2      1      NAG    H61     25      0.090     1.0080   ; qtot   0.32
    26       HCA2      1      NAG    H62     26      0.090     1.0080   ; qtot   0.41
    27      OC311      1      NAG     O6     27     -0.650    15.9994   ; qtot  -0.24
    28       HCP1      1      NAG    HO6     28      0.420     1.0080   ; qtot   0.18
;residue   2   NAM   
    29     CC3162      2      NAM     C1     29      0.290    12.0110   ; qtot   0.47
    30       HCA1      2      NAM     H1     30      0.090     1.0080   ; qtot   0.56
    31     CC3163      2      NAM     C5     31      0.110    12.0110   ; qtot   0.67
    32       HCA1      2      NAM     H5     32      0.090     1.0080   ; qtot   0.76
    33     OC3C61      2      NAM     O5     33     -0.400    15.9994   ; qtot   0.36
    34     CC3161      2      NAM     C2     34      0.134    12.0110   ; qtot   0.49
    35       HCA1      2      NAM     H2     35      0.090     1.0080   ; qtot   0.58
    36        NH1      2      NAM     NC     36     -0.587    14.0070   ; qtot  -0.00
    37          H      2      NAM     HN     37      0.363     1.0080   ; qtot   0.36
    38         CC      2      NAM     CM     38      0.550    12.0110   ; qtot   0.91
    39          O      2      NAM     OM     39     -0.550    15.9994   ; qtot   0.36
    40        CT3      2      NAM     CC     40     -0.270    12.0110   ; qtot   0.09
    41        HA3      2      NAM    HC1     41      0.090     1.0080   ; qtot   0.18
    42        HA3      2      NAM    HC2     42      0.090     1.0080   ; qtot   0.27
    43        HA3      2      NAM    HC3     43      0.090     1.0080   ; qtot   0.36
    44     CC3161      2      NAM     C3     44     -0.024    12.0110   ; qtot   0.34
    45       HCA1      2      NAM     H3     45      0.090     1.0080   ; qtot   0.43
    46      OC311      2      NAM     O3     46     -0.406    15.9994   ; qtot   0.02
    47        CT1      2      NAM     CA     47      0.250    12.0110   ; qtot   0.27
    48        HB1      2      NAM     HA     48      0.090     1.0080   ; qtot   0.36
    49          C      2      NAM      C     49      0.510    12.0110   ; qtot   0.87
    50          O      2      NAM      O     50     -0.510    15.9994   ; qtot   0.36
    51        CT3      2      NAM     CB     51     -0.270    12.0110   ; qtot   0.09
    52        HA3      2      NAM    HB1     52      0.090     1.0080   ; qtot   0.18
    53        HA3      2      NAM    HB2     53      0.090     1.0080   ; qtot   0.27
    54        HA3      2      NAM    HB3     54      0.090     1.0080   ; qtot   0.36
    55     CC3161      2      NAM     C4     55      0.090    12.0110   ; qtot   0.45
    56       HCA1      2      NAM     H4     56      0.090     1.0080   ; qtot   0.54
    57      OC301      2      NAM     O4     57     -0.360    15.9994   ; qtot   0.18
    58      CC321      2      NAM     C6     58      0.050    12.0110   ; qtot   0.23
    59       HCA2      2      NAM    H61     59      0.090     1.0080   ; qtot   0.32
    60       HCA2      2      NAM    H62     60      0.090     1.0080   ; qtot   0.41
    61      OC311      2      NAM     O6     61     -0.650    15.9994   ; qtot  -0.24
    62       HCP1      2      NAM    HO6     62      0.420     1.0080   ; qtot   0.18
;residue   3   ALA   
    63        NH1      3      ALA      N     63     -0.470    14.0070   ; qtot  -0.29
    64          H      3      ALA     HN     64      0.310     1.0080   ; qtot   0.02
    65        CT1      3      ALA     CA     65      0.070    12.0110   ; qtot   0.09
    66        HB1      3      ALA     HA     66      0.090     1.0080   ; qtot   0.18
    67        CT3      3      ALA     CB     67     -0.270    12.0110   ; qtot  -0.09
    68        HA3      3      ALA    HB1     68      0.090     1.0080   ; qtot  -0.00
    69        HA3      3      ALA    HB2     69      0.090     1.0080   ; qtot   0.09
    70        HA3      3      ALA    HB3     70      0.090     1.0080   ; qtot   0.18
    71          C      3      ALA      C     71      0.510    12.0110   ; qtot   0.69
    72          O      3      ALA      O     72     -0.510    15.9994   ; qtot   0.18
;residue   4   GLN   
    73        NH1      4      GLN      N     73     -0.470    14.0070   ; qtot  -0.29
    74          H      4      GLN     HN     74      0.310     1.0080   ; qtot   0.02
    75        CT1      4      GLN     CA     75      0.070    12.0110   ; qtot   0.09
    76        HB1      4      GLN     HA     76      0.090     1.0080   ; qtot   0.18
    77         CC      4      GLN     CD     77      0.550    12.0110   ; qtot   0.73
    78          O      4      GLN    OE1     78     -0.550    15.9994   ; qtot   0.18
    79        NH2      4      GLN    NE2     79     -0.620    14.0070   ; qtot  -0.44
    80          H      4      GLN   HE21     80      0.320     1.0080   ; qtot  -0.12
    81          H      4      GLN   HE22     81      0.300     1.0080   ; qtot   0.18
    82        CT2      4      GLN     CB     82     -0.180    12.0110   ; qtot  -0.00
    83        HA2      4      GLN    HB1     83      0.090     1.0080   ; qtot   0.09
    84        HA2      4      GLN    HB2     84      0.090     1.0080   ; qtot   0.18
    85        CT2      4      GLN     CG     85     -0.180    12.0110   ; qtot  -0.00
    86        HA2      4      GLN    HG1     86      0.090     1.0080   ; qtot   0.09
    87        HA2      4      GLN    HG2     87      0.090     1.0080   ; qtot   0.18
    88          C      4      GLN      C     88      0.510    12.0110   ; qtot   0.69
    89          O      4      GLN      O     89     -0.510    15.9994   ; qtot   0.18
;residue   5   LYS   
    90        NH1      5      LYS      N     90     -0.470    14.0070   ; qtot  -0.29
    91          H      5      LYS     HN     91      0.310     1.0080   ; qtot   0.02
    92        CT1      5      LYS     CA     92      0.070    12.0110   ; qtot   0.09
    93        HB1      5      LYS     HA     93      0.090     1.0080   ; qtot   0.18
    94        CT2      5      LYS     CB     94     -0.180    12.0110   ; qtot  -0.00
    95        HA2      5      LYS    HB1     95      0.090     1.0080   ; qtot   0.09
    96        HA2      5      LYS    HB2     96      0.090     1.0080   ; qtot   0.18
    97        CT2      5      LYS     CG     97     -0.180    12.0110   ; qtot  -0.00
    98        HA2      5      LYS    HG1     98      0.090     1.0080   ; qtot   0.09
    99        HA2      5      LYS    HG2     99      0.090     1.0080   ; qtot   0.18
   100        CT2      5      LYS     CD    100     -0.180    12.0110   ; qtot  -0.00
   101        HA2      5      LYS    HD1    101      0.090     1.0080   ; qtot   0.09
   102        HA2      5      LYS    HD2    102      0.090     1.0080   ; qtot   0.18
   103        CT2      5      LYS     CE    103      0.210    12.0110   ; qtot   0.39
   104        HA2      5      LYS    HE1    104      0.050     1.0080   ; qtot   0.44
   105        HA2      5      LYS    HE2    105      0.050     1.0080   ; qtot   0.49
   106        NH3      5      LYS     NZ    106     -0.300    14.0070   ; qtot   0.19
   107         HC      5      LYS    HZ1    107      0.330     1.0080   ; qtot   0.52
   108         HC      5      LYS    HZ2    108      0.330     1.0080   ; qtot   0.85
   109         HC      5      LYS    HZ3    109      0.330     1.0080   ; qtot   1.18
   110          C      5      LYS      C    110      0.510    12.0110   ; qtot   1.69
   111          O      5      LYS      O    111     -0.510    15.9994   ; qtot   1.18
;residue   6   DAL   
   112        NH1      6      DAL      N    112     -0.470    14.0070   ; qtot   0.71
   113          H      6      DAL     HN    113      0.310     1.0080   ; qtot   1.02
   114       CTD1      6      DAL     CA    114      0.070    12.0110   ; qtot   1.09
   115        HB1      6      DAL     HA    115      0.090     1.0080   ; qtot   1.18
   116        CT3      6      DAL     CB    116     -0.270    12.0110   ; qtot   0.91
   117        HA3      6      DAL    HB1    117      0.090     1.0080   ; qtot   1.00
   118        HA3      6      DAL    HB2    118      0.090     1.0080   ; qtot   1.09
   119        HA3      6      DAL    HB3    119      0.090     1.0080   ; qtot   1.18
   120          C      6      DAL      C    120      0.510    12.0110   ; qtot   1.69
   121          O      6      DAL      O    121     -0.510    15.9994   ; qtot   1.18
;residue   7   DAL   
   122        NH1      7      DAL      N    122     -0.470    14.0070   ; qtot   0.71
   123          H      7      DAL     HN    123      0.310     1.0080   ; qtot   1.02
   124       CTD1      7      DAL     CA    124      0.070    12.0110   ; qtot   1.09
   125        HB1      7      DAL     HA    125      0.090     1.0080   ; qtot   1.18
   126        CT3      7      DAL     CB    126     -0.270    12.0110   ; qtot   0.91
   127        HA3      7      DAL    HB1    127      0.090     1.0080   ; qtot   1.00
   128        HA3      7      DAL    HB2    128      0.090     1.0080   ; qtot   1.09
   129        HA3      7      DAL    HB3    129      0.090     1.0080   ; qtot   1.18
   130         CC      7      DAL      C    130      0.340    12.0110   ; qtot   1.52
   131         OC      7      DAL    OC1    131     -0.670    15.9994   ; qtot   0.85
   132         OC      7      DAL    OC2    132     -0.670    15.9994   ; qtot   0.18
;residue   8   NAG   
   133     CC3162      8      NAG     C1    133      0.290    12.0110   ; qtot   0.47
   134       HCA1      8      NAG     H1    134      0.090     1.0080   ; qtot   0.56
   135     CC3163      8      NAG     C5    135      0.110    12.0110   ; qtot   0.67
   136       HCA1      8      NAG     H5    136      0.090     1.0080   ; qtot   0.76
   137     OC3C61      8      NAG     O5    137     -0.400    15.9994   ; qtot   0.36
   138     CC3161      8      NAG     C2    138      0.134    12.0110   ; qtot   0.49
   139       HCA1      8      NAG     H2    139      0.090     1.0080   ; qtot   0.58
   140        NH1      8      NAG     NC    140     -0.587    14.0070   ; qtot  -0.00
   141          H      8      NAG     HN    141      0.363     1.0080   ; qtot   0.36
   142         CC      8      NAG     CM    142      0.550    12.0110   ; qtot   0.91
   143          O      8      NAG     OM    143     -0.550    15.9994   ; qtot   0.36
   144        CT3      8      NAG     CC    144     -0.270    12.0110   ; qtot   0.09
   145        HA3      8      NAG    HC1    145      0.090     1.0080   ; qtot   0.18
   146        HA3      8      NAG    HC2    146      0.090     1.0080   ; qtot   0.27
   147        HA3      8      NAG    HC3    147      0.090     1.0080   ; qtot   0.36
   148     CC3161      8      NAG     C3    148      0.140    12.0110   ; qtot   0.50
   149       HCA1      8      NAG     H3    149      0.090     1.0080   ; qtot   0.59
   150      OC311      8      NAG     O3    150     -0.650    15.9994   ; qtot  -0.06
   151       HCP1      8      NAG    HO3    151      0.420     1.0080   ; qtot   0.36
   152     CC3161      8      NAG     C4    152      0.090    12.0110   ; qtot   0.45
   153       HCA1      8      NAG     H4    153      0.090     1.0080   ; qtot   0.54
   154      OC301      8      NAG     O4    154     -0.360    15.9994   ; qtot   0.18
   155      CC321      8      NAG     C6    155      0.050    12.0110   ; qtot   0.23
   156       HCA2      8      NAG    H61    156      0.090     1.0080   ; qtot   0.32
   157       HCA2      8      NAG    H62    157      0.090     1.0080   ; qtot   0.41
   158      OC311      8      NAG     O6    158     -0.650    15.9994   ; qtot  -0.24
   159       HCP1      8      NAG    HO6    159      0.420     1.0080   ; qtot   0.18
;residue   9   NAM   
   160     CC3162      9      NAM     C1    160      0.290    12.0110   ; qtot   0.47
   161       HCA1      9      NAM     H1    161      0.090     1.0080   ; qtot   0.56
   162     CC3163      9      NAM     C5    162      0.110    12.0110   ; qtot   0.67
   163       HCA1      9      NAM     H5    163      0.090     1.0080   ; qtot   0.76
   164     OC3C61      9      NAM     O5    164     -0.400    15.9994   ; qtot   0.36
   165     CC3161      9      NAM     C2    165      0.134    12.0110   ; qtot   0.49
   166       HCA1      9      NAM     H2    166      0.090     1.0080   ; qtot   0.58
   167        NH1      9      NAM     NC    167     -0.587    14.0070   ; qtot  -0.00
   168          H      9      NAM     HN    168      0.363     1.0080   ; qtot   0.36
   169         CC      9      NAM     CM    169      0.550    12.0110   ; qtot   0.91
   170          O      9      NAM     OM    170     -0.550    15.9994   ; qtot   0.36
   171        CT3      9      NAM     CC    171     -0.270    12.0110   ; qtot   0.09
   172        HA3      9      NAM    HC1    172      0.090     1.0080   ; qtot   0.18
   173        HA3      9      NAM    HC2    173      0.090     1.0080   ; qtot   0.27
   174        HA3      9      NAM    HC3    174      0.090     1.0080   ; qtot   0.36
   175     CC3161      9      NAM     C3    175     -0.024    12.0110   ; qtot   0.34
   176       HCA1      9      NAM     H3    176      0.090     1.0080   ; qtot   0.43
   177      OC311      9      NAM     O3    177     -0.406    15.9994   ; qtot   0.02
   178        CT1      9      NAM     CA    178      0.250    12.0110   ; qtot   0.27
   179        HB1      9      NAM     HA    179      0.090     1.0080   ; qtot   0.36
   180          C      9      NAM      C    180      0.510    12.0110   ; qtot   0.87
   181          O      9      NAM      O    181     -0.510    15.9994   ; qtot   0.36
   182        CT3      9      NAM     CB    182     -0.270    12.0110   ; qtot   0.09
   183        HA3      9      NAM    HB1    183      0.090     1.0080   ; qtot   0.18
   184        HA3      9      NAM    HB2    184      0.090     1.0080   ; qtot   0.27
   185        HA3      9      NAM    HB3    185      0.090     1.0080   ; qtot   0.36
   186     CC3161      9      NAM     C4    186      0.090    12.0110   ; qtot   0.45
   187       HCA1      9      NAM     H4    187      0.090     1.0080   ; qtot   0.54
   188      OC301      9      NAM     O4    188     -0.360    15.9994   ; qtot   0.18
   189      CC321      9      NAM     C6    189      0.050    12.0110   ; qtot   0.23
   190       HCA2      9      NAM    H61    190      0.090     1.0080   ; qtot   0.32
   191       HCA2      9      NAM    H62    191      0.090     1.0080   ; qtot   0.41
   192      OC311      9      NAM     O6    192     -0.650    15.9994   ; qtot  -0.24
   193       HCP1      9      NAM    HO6    193      0.420     1.0080   ; qtot   0.18
;residue  10   ALA   
   194        NH1     10      ALA      N    194     -0.470    14.0070   ; qtot  -0.29
   195          H     10      ALA     HN    195      0.310     1.0080   ; qtot   0.02
   196        CT1     10      ALA     CA    196      0.070    12.0110   ; qtot   0.09
   197        HB1     10      ALA     HA    197      0.090     1.0080   ; qtot   0.18
   198        CT3     10      ALA     CB    198     -0.270    12.0110   ; qtot  -0.09
   199        HA3     10      ALA    HB1    199      0.090     1.0080   ; qtot  -0.00
   200        HA3     10      ALA    HB2    200      0.090     1.0080   ; qtot   0.09
   201        HA3     10      ALA    HB3    201      0.090     1.0080   ; qtot   0.18
   202          C     10      ALA      C    202      0.510    12.0110   ; qtot   0.69
   203          O     10      ALA      O    203     -0.510    15.9994   ; qtot   0.18
;residue  11   GLN   
   204        NH1     11      GLN      N    204     -0.470    14.0070   ; qtot  -0.29
   205          H     11      GLN     HN    205      0.310     1.0080   ; qtot   0.02
   206        CT1     11      GLN     CA    206      0.070    12.0110   ; qtot   0.09
   207        HB1     11      GLN     HA    207      0.090     1.0080   ; qtot   0.18
   208         CC     11      GLN     CD    208      0.550    12.0110   ; qtot   0.73
   209          O     11      GLN    OE1    209     -0.550    15.9994   ; qtot   0.18
   210        NH2     11      GLN    NE2    210     -0.620    14.0070   ; qtot  -0.44
   211          H     11      GLN   HE21    211      0.320     1.0080   ; qtot  -0.12
   212          H     11      GLN   HE22    212      0.300     1.0080   ; qtot   0.18
   213        CT2     11      GLN     CB    213     -0.180    12.0110   ; qtot  -0.00
   214        HA2     11      GLN    HB1    214      0.090     1.0080   ; qtot   0.09
   215        HA2     11      GLN    HB2    215      0.090     1.0080   ; qtot   0.18
   216        CT2     11      GLN     CG    216     -0.180    12.0110   ; qtot  -0.00
   217        HA2     11      GLN    HG1    217      0.090     1.0080   ; qtot   0.09
   218        HA2     11      GLN    HG2    218      0.090     1.0080   ; qtot   0.18
   219          C     11      GLN      C    219      0.510    12.0110   ; qtot   0.69
   220          O     11      GLN      O    220     -0.510    15.9994   ; qtot   0.18
;residue  12   LYS   
   221        NH1     12      LYS      N    221     -0.470    14.0070   ; qtot  -0.29
   222          H     12      LYS     HN    222      0.310     1.0080   ; qtot   0.02
   223        CT1     12      LYS     CA    223      0.070    12.0110   ; qtot   0.09
   224        HB1     12      LYS     HA    224      0.090     1.0080   ; qtot   0.18
   225        CT2     12      LYS     CB    225     -0.180    12.0110   ; qtot  -0.00
   226        HA2     12      LYS    HB1    226      0.090     1.0080   ; qtot   0.09
   227        HA2     12      LYS    HB2    227      0.090     1.0080   ; qtot   0.18
   228        CT2     12      LYS     CG    228     -0.180    12.0110   ; qtot  -0.00
   229        HA2     12      LYS    HG1    229      0.090     1.0080   ; qtot   0.09
   230        HA2     12      LYS    HG2    230      0.090     1.0080   ; qtot   0.18
   231        CT2     12      LYS     CD    231     -0.180    12.0110   ; qtot  -0.00
   232        HA2     12      LYS    HD1    232      0.090     1.0080   ; qtot   0.09
   233        HA2     12      LYS    HD2    233      0.090     1.0080   ; qtot   0.18
   234        CT2     12      LYS     CE    234      0.210    12.0110   ; qtot   0.39
   235        HA2     12      LYS    HE1    235      0.050     1.0080   ; qtot   0.44
   236        HA2     12      LYS    HE2    236      0.050     1.0080   ; qtot   0.49
   237        NH3     12      LYS     NZ    237     -0.300    14.0070   ; qtot   0.19
   238         HC     12      LYS    HZ1    238      0.330     1.0080   ; qtot   0.52
   239         HC     12      LYS    HZ2    239      0.330     1.0080   ; qtot   0.85
   240         HC     12      LYS    HZ3    240      0.330     1.0080   ; qtot   1.18
   241          C     12      LYS      C    241      0.510    12.0110   ; qtot   1.69
   242          O     12      LYS      O    242     -0.510    15.9994   ; qtot   1.18
;residue  13   DAL   
   243        NH1     13      DAL      N    243     -0.470    14.0070   ; qtot   0.71
   244          H     13      DAL     HN    244      0.310     1.0080   ; qtot   1.02
   245       CTD1     13      DAL     CA    245      0.070    12.0110   ; qtot   1.09
   246        HB1     13      DAL     HA    246      0.090     1.0080   ; qtot   1.18
   247        CT3     13      DAL     CB    247     -0.270    12.0110   ; qtot   0.91
   248        HA3     13      DAL    HB1    248      0.090     1.0080   ; qtot   1.00
   249        HA3     13      DAL    HB2    249      0.090     1.0080   ; qtot   1.09
   250        HA3     13      DAL    HB3    250      0.090     1.0080   ; qtot   1.18
   251          C     13      DAL      C    251      0.510    12.0110   ; qtot   1.69
   252          O     13      DAL      O    252     -0.510    15.9994   ; qtot   1.18
;residue  14   DAL   
   253        NH1     14      DAL      N    253     -0.470    14.0070   ; qtot   0.71
   254          H     14      DAL     HN    254      0.310     1.0080   ; qtot   1.02
   255       CTD1     14      DAL     CA    255      0.070    12.0110   ; qtot   1.09
   256        HB1     14      DAL     HA    256      0.090     1.0080   ; qtot   1.18
   257        CT3     14      DAL     CB    257     -0.270    12.0110   ; qtot   0.91
   258        HA3     14      DAL    HB1    258      0.090     1.0080   ; qtot   1.00
   259        HA3     14      DAL    HB2    259      0.090     1.0080   ; qtot   1.09
   260        HA3     14      DAL    HB3    260      0.090     1.0080   ; qtot   1.18
   261         CC     14      DAL      C    261      0.340    12.0110   ; qtot   1.52
   262         OC     14      DAL    OC1    262     -0.670    15.9994   ; qtot   0.85
   263         OC     14      DAL    OC2    263     -0.670    15.9994   ; qtot   0.18
;residue  15   NAG   
   264     CC3162     15      NAG     C1    264      0.290    12.0110   ; qtot   0.47
   265       HCA1     15      NAG     H1    265      0.090     1.0080   ; qtot   0.56
   266     CC3163     15      NAG     C5    266      0.110    12.0110   ; qtot   0.67
   267       HCA1     15      NAG     H5    267      0.090     1.0080   ; qtot   0.76
   268     OC3C61     15      NAG     O5    268     -0.400    15.9994   ; qtot   0.36
   269     CC3161     15      NAG     C2    269      0.134    12.0110   ; qtot   0.49
   270       HCA1     15      NAG     H2    270      0.090     1.0080   ; qtot   0.58
   271        NH1     15      NAG     NC    271     -0.587    14.0070   ; qtot  -0.00
   272          H     15      NAG     HN    272      0.363     1.0080   ; qtot   0.36
   273         CC     15      NAG     CM    273      0.550    12.0110   ; qtot   0.91
   274          O     15      NAG     OM    274     -0.550    15.9994   ; qtot   0.36
   275        CT3     15      NAG     CC    275     -0.270    12.0110   ; qtot   0.09
   276        HA3     15      NAG    HC1    276      0.090     1.0080   ; qtot   0.18
   277        HA3     15      NAG    HC2    277      0.090     1.0080   ; qtot   0.27
   278        HA3     15      NAG    HC3    278      0.090     1.0080   ; qtot   0.36
   279     CC3161     15      NAG     C3    279      0.140    12.0110   ; qtot   0.50
   280       HCA1     15      NAG     H3    280      0.090     1.0080   ; qtot   0.59
   281      OC311     15      NAG     O3    281     -0.650    15.9994   ; qtot  -0.06
   282       HCP1     15      NAG    HO3    282      0.420     1.0080   ; qtot   0.36
   283     CC3161     15      NAG     C4    283      0.090    12.0110   ; qtot   0.45
   284       HCA1     15      NAG     H4    284      0.090     1.0080   ; qtot   0.54
   285      OC301     15      NAG     O4    285     -0.360    15.9994   ; qtot   0.18
   286      CC321     15      NAG     C6    286      0.050    12.0110   ; qtot   0.23
   287       HCA2     15      NAG    H61    287      0.090     1.0080   ; qtot   0.32
   288       HCA2     15      NAG    H62    288      0.090     1.0080   ; qtot   0.41
   289      OC311     15      NAG     O6    289     -0.650    15.9994   ; qtot  -0.24
   290       HCP1     15      NAG    HO6    290      0.420     1.0080   ; qtot   0.18
;residue  16   NAM   
   291     CC3162     16      NAM     C1    291      0.290    12.0110   ; qtot   0.47
   292       HCA1     16      NAM     H1    292      0.090     1.0080   ; qtot   0.56
   293     CC3163     16      NAM     C5    293      0.110    12.0110   ; qtot   0.67
   294       HCA1     16      NAM     H5    294      0.090     1.0080   ; qtot   0.76
   295     OC3C61     16      NAM     O5    295     -0.400    15.9994   ; qtot   0.36
   296     CC3161     16      NAM     C2    296      0.134    12.0110   ; qtot   0.49
   297       HCA1     16      NAM     H2    297      0.090     1.0080   ; qtot   0.58
   298        NH1     16      NAM     NC    298     -0.587    14.0070   ; qtot  -0.00
   299          H     16      NAM     HN    299      0.363     1.0080   ; qtot   0.36
   300         CC     16      NAM     CM    300      0.550    12.0110   ; qtot   0.91
   301          O     16      NAM     OM    301     -0.550    15.9994   ; qtot   0.36
   302        CT3     16      NAM     CC    302     -0.270    12.0110   ; qtot   0.09
   303        HA3     16      NAM    HC1    303      0.090     1.0080   ; qtot   0.18
   304        HA3     16      NAM    HC2    304      0.090     1.0080   ; qtot   0.27
   305        HA3     16      NAM    HC3    305      0.090     1.0080   ; qtot   0.36
   306     CC3161     16      NAM     C3    306     -0.024    12.0110   ; qtot   0.34
   307       HCA1     16      NAM     H3    307      0.090     1.0080   ; qtot   0.43
   308      OC311     16      NAM     O3    308     -0.406    15.9994   ; qtot   0.02
   309        CT1     16      NAM     CA    309      0.250    12.0110   ; qtot   0.27
   310        HB1     16      NAM     HA    310      0.090     1.0080   ; qtot   0.36
   311          C     16      NAM      C    311      0.510    12.0110   ; qtot   0.87
   312          O     16      NAM      O    312     -0.510    15.9994   ; qtot   0.36
   313        CT3     16      NAM     CB    313     -0.270    12.0110   ; qtot   0.09
   314        HA3     16      NAM    HB1    314      0.090     1.0080   ; qtot   0.18
   315        HA3     16      NAM    HB2    315      0.090     1.0080   ; qtot   0.27
   316        HA3     16      NAM    HB3    316      0.090     1.0080   ; qtot   0.36
   317     CC3161     16      NAM     C4    317      0.090    12.0110   ; qtot   0.45
   318       HCA1     16      NAM     H4    318      0.090     1.0080   ; qtot   0.54
   319      OC301     16      NAM     O4    319     -0.360    15.9994   ; qtot   0.18
   320      CC321     16      NAM     C6    320      0.050    12.0110   ; qtot   0.23
   321       HCA2     16      NAM    H61    321      0.090     1.0080   ; qtot   0.32
   322       HCA2     16      NAM    H62    322      0.090     1.0080   ; qtot   0.41
   323      OC311     16      NAM     O6    323     -0.650    15.9994   ; qtot  -0.24
   324       HCP1     16      NAM    HO6    324      0.420     1.0080   ; qtot   0.18
;residue  17   ALA   
   325        NH1     17      ALA      N    325     -0.470    14.0070   ; qtot  -0.29
   326          H     17      ALA     HN    326      0.310     1.0080   ; qtot   0.02
   327        CT1     17      ALA     CA    327      0.070    12.0110   ; qtot   0.09
   328        HB1     17      ALA     HA    328      0.090     1.0080   ; qtot   0.18
   329        CT3     17      ALA     CB    329     -0.270    12.0110   ; qtot  -0.09
   330        HA3     17      ALA    HB1    330      0.090     1.0080   ; qtot   0.00
   331        HA3     17      ALA    HB2    331      0.090     1.0080   ; qtot   0.09
   332        HA3     17      ALA    HB3    332      0.090     1.0080   ; qtot   0.18
   333          C     17      ALA      C    333      0.510    12.0110   ; qtot   0.69
   334          O     17      ALA      O    334     -0.510    15.9994   ; qtot   0.18
;residue  18   GLN   
   335        NH1     18      GLN      N    335     -0.470    14.0070   ; qtot  -0.29
   336          H     18      GLN     HN    336      0.310     1.0080   ; qtot   0.02
   337        CT1     18      GLN     CA    337      0.070    12.0110   ; qtot   0.09
   338        HB1     18      GLN     HA    338      0.090     1.0080   ; qtot   0.18
   339         CC     18      GLN     CD    339      0.550    12.0110   ; qtot   0.73
   340          O     18      GLN    OE1    340     -0.550    15.9994   ; qtot   0.18
   341        NH2     18      GLN    NE2    341     -0.620    14.0070   ; qtot  -0.44
   342          H     18      GLN   HE21    342      0.320     1.0080   ; qtot  -0.12
   343          H     18      GLN   HE22    343      0.300     1.0080   ; qtot   0.18
   344        CT2     18      GLN     CB    344     -0.180    12.0110   ; qtot   0.00
   345        HA2     18      GLN    HB1    345      0.090     1.0080   ; qtot   0.09
   346        HA2     18      GLN    HB2    346      0.090     1.0080   ; qtot   0.18
   347        CT2     18      GLN     CG    347     -0.180    12.0110   ; qtot   0.00
   348        HA2     18      GLN    HG1    348      0.090     1.0080   ; qtot   0.09
   349        HA2     18      GLN    HG2    349      0.090     1.0080   ; qtot   0.18
   350          C     18      GLN      C    350      0.510    12.0110   ; qtot   0.69
   351          O     18      GLN      O    351     -0.510    15.9994   ; qtot   0.18
;residue  19   LYS   
   352        NH1     19      LYS      N    352     -0.470    14.0070   ; qtot  -0.29
   353          H     19      LYS     HN    353      0.310     1.0080   ; qtot   0.02
   354        CT1     19      LYS     CA    354      0.070    12.0110   ; qtot   0.09
   355        HB1     19      LYS     HA    355      0.090     1.0080   ; qtot   0.18
   356        CT2     19      LYS     CB    356     -0.180    12.0110   ; qtot   0.00
   357        HA2     19      LYS    HB1    357      0.090     1.0080   ; qtot   0.09
   358        HA2     19      LYS    HB2    358      0.090     1.0080   ; qtot   0.18
   359        CT2     19      LYS     CG    359     -0.180    12.0110   ; qtot   0.00
   360        HA2     19      LYS    HG1    360      0.090     1.0080   ; qtot   0.09
   361        HA2     19      LYS    HG2    361      0.090     1.0080   ; qtot   0.18
   362        CT2     19      LYS     CD    362     -0.180    12.0110   ; qtot   0.00
   363        HA2     19      LYS    HD1    363      0.090     1.0080   ; qtot   0.09
   364        HA2     19      LYS    HD2    364      0.090     1.0080   ; qtot   0.18
   365        CT2     19      LYS     CE    365      0.210    12.0110   ; qtot   0.39
   366        HA2     19      LYS    HE1    366      0.050     1.0080   ; qtot   0.44
   367        HA2     19      LYS    HE2    367      0.050     1.0080   ; qtot   0.49
   368        NH3     19      LYS     NZ    368     -0.300    14.0070   ; qtot   0.19
   369         HC     19      LYS    HZ1    369      0.330     1.0080   ; qtot   0.52
   370         HC     19      LYS    HZ2    370      0.330     1.0080   ; qtot   0.85
   371         HC     19      LYS    HZ3    371      0.330     1.0080   ; qtot   1.18
   372          C     19      LYS      C    372      0.510    12.0110   ; qtot   1.69
   373          O     19      LYS      O    373     -0.510    15.9994   ; qtot   1.18
;residue  20   DAL   
   374        NH1     20      DAL      N    374     -0.470    14.0070   ; qtot   0.71
   375          H     20      DAL     HN    375      0.310     1.0080   ; qtot   1.02
   376       CTD1     20      DAL     CA    376      0.070    12.0110   ; qtot   1.09
   377        HB1     20      DAL     HA    377      0.090     1.0080   ; qtot   1.18
   378        CT3     20      DAL     CB    378     -0.270    12.0110   ; qtot   0.91
   379        HA3     20      DAL    HB1    379      0.090     1.0080   ; qtot   1.00
   380        HA3     20      DAL    HB2    380      0.090     1.0080   ; qtot   1.09
   381        HA3     20      DAL    HB3    381      0.090     1.0080   ; qtot   1.18
   382          C     20      DAL      C    382      0.510    12.0110   ; qtot   1.69
   383          O     20      DAL      O    383     -0.510    15.9994   ; qtot   1.18
;residue  21   DAL   
   384        NH1     21      DAL      N    384     -0.470    14.0070   ; qtot   0.71
   385          H     21      DAL     HN    385      0.310     1.0080   ; qtot   1.02
   386       CTD1     21      DAL     CA    386      0.070    12.0110   ; qtot   1.09
   387        HB1     21      DAL     HA    387      0.090     1.0080   ; qtot   1.18
   388        CT3     21      DAL     CB    388     -0.270    12.0110   ; qtot   0.91
   389        HA3     21      DAL    HB1    389      0.090     1.0080   ; qtot   1.00
   390        HA3     21      DAL    HB2    390      0.090     1.0080   ; qtot   1.09
   391        HA3     21      DAL    HB3    391      0.090     1.0080   ; qtot   1.18
   392         CC     21      DAL      C    392      0.340    12.0110   ; qtot   1.52
   393         OC     21      DAL    OC1    393     -0.670    15.9994   ; qtot   0.85
   394         OC     21      DAL    OC2    394     -0.670    15.9994   ; qtot   0.18
;residue  22   NAG   
   395     CC3162     22      NAG     C1    395      0.290    12.0110   ; qtot   0.47
   396       HCA1     22      NAG     H1    396      0.090     1.0080   ; qtot   0.56
   397     CC3163     22      NAG     C5    397      0.110    12.0110   ; qtot   0.67
   398       HCA1     22      NAG     H5    398      0.090     1.0080   ; qtot   0.76
   399     OC3C61     22      NAG     O5    399     -0.400    15.9994   ; qtot   0.36
   400     CC3161     22      NAG     C2    400      0.134    12.0110   ; qtot   0.49
   401       HCA1     22      NAG     H2    401      0.090     1.0080   ; qtot   0.58
   402        NH1     22      NAG     NC    402     -0.587    14.0070   ; qtot  -0.00
   403          H     22      NAG     HN    403      0.363     1.0080   ; qtot   0.36
   404         CC     22      NAG     CM    404      0.550    12.0110   ; qtot   0.91
   405          O     22      NAG     OM    405     -0.550    15.9994   ; qtot   0.36
   406        CT3     22      NAG     CC    406     -0.270    12.0110   ; qtot   0.09
   407        HA3     22      NAG    HC1    407      0.090     1.0080   ; qtot   0.18
   408        HA3     22      NAG    HC2    408      0.090     1.0080   ; qtot   0.27
   409        HA3     22      NAG    HC3    409      0.090     1.0080   ; qtot   0.36
   410     CC3161     22      NAG     C3    410      0.140    12.0110   ; qtot   0.50
   411       HCA1     22      NAG     H3    411      0.090     1.0080   ; qtot   0.59
   412      OC311     22      NAG     O3    412     -0.650    15.9994   ; qtot  -0.06
   413       HCP1     22      NAG    HO3    413      0.420     1.0080   ; qtot   0.36
   414     CC3161     22      NAG     C4    414      0.090    12.0110   ; qtot   0.45
   415       HCA1     22      NAG     H4    415      0.090     1.0080   ; qtot   0.54
   416      OC301     22      NAG     O4    416     -0.360    15.9994   ; qtot   0.18
   417      CC321     22      NAG     C6    417      0.050    12.0110   ; qtot   0.23
   418       HCA2     22      NAG    H61    418      0.090     1.0080   ; qtot   0.32
   419       HCA2     22      NAG    H62    419      0.090     1.0080   ; qtot   0.41
   420      OC311     22      NAG     O6    420     -0.650    15.9994   ; qtot  -0.24
   421       HCP1     22      NAG    HO6    421      0.420     1.0080   ; qtot   0.18
;residue  23   NAM   
   422     CC3162     23      NAM     C1    422      0.290    12.0110   ; qtot   0.47
   423       HCA1     23      NAM     H1    423      0.090     1.0080   ; qtot   0.56
   424     CC3163     23      NAM     C5    424      0.110    12.0110   ; qtot   0.67
   425       HCA1     23      NAM     H5    425      0.090     1.0080   ; qtot   0.76
   426     OC3C61     23      NAM     O5    426     -0.400    15.9994   ; qtot   0.36
   427     CC3161     23      NAM     C2    427      0.134    12.0110   ; qtot   0.49
   428       HCA1     23      NAM     H2    428      0.090     1.0080   ; qtot   0.58
   429        NH1     23      NAM     NC    429     -0.587    14.0070   ; qtot  -0.00
   430          H     23      NAM     HN    430      0.363     1.0080   ; qtot   0.36
   431         CC     23      NAM     CM    431      0.550    12.0110   ; qtot   0.91
   432          O     23      NAM     OM    432     -0.550    15.9994   ; qtot   0.36
   433        CT3     23      NAM     CC    433     -0.270    12.0110   ; qtot   0.09
   434        HA3     23      NAM    HC1    434      0.090     1.0080   ; qtot   0.18
   435        HA3     23      NAM    HC2    435      0.090     1.0080   ; qtot   0.27
   436        HA3     23      NAM    HC3    436      0.090     1.0080   ; qtot   0.36
   437     CC3161     23      NAM     C3    437     -0.024    12.0110   ; qtot   0.34
   438       HCA1     23      NAM     H3    438      0.090     1.0080   ; qtot   0.43
   439      OC311     23      NAM     O3    439     -0.406    15.9994   ; qtot   0.02
   440        CT1     23      NAM     CA    440      0.250    12.0110   ; qtot   0.27
   441        HB1     23      NAM     HA    441      0.090     1.0080   ; qtot   0.36
   442          C     23      NAM      C    442      0.510    12.0110   ; qtot   0.87
   443          O     23      NAM      O    443     -0.510    15.9994   ; qtot   0.36
   444        CT3     23      NAM     CB    444     -0.270    12.0110   ; qtot   0.09
   445        HA3     23      NAM    HB1    445      0.090     1.0080   ; qtot   0.18
   446        HA3     23      NAM    HB2    446      0.090     1.0080   ; qtot   0.27
   447        HA3     23      NAM    HB3    447      0.090     1.0080   ; qtot   0.36
   448     CC3161     23      NAM     C4    448      0.090    12.0110   ; qtot   0.45
   449       HCA1     23      NAM     H4    449      0.090     1.0080   ; qtot   0.54
   450      OC301     23      NAM     O4    450     -0.360    15.9994   ; qtot   0.18
   451      CC321     23      NAM     C6    451      0.050    12.0110   ; qtot   0.23
   452       HCA2     23      NAM    H61    452      0.090     1.0080   ; qtot   0.32
   453       HCA2     23      NAM    H62    453      0.090     1.0080   ; qtot   0.41
   454      OC311     23      NAM     O6    454     -0.650    15.9994   ; qtot  -0.24
   455       HCP1     23      NAM    HO6    455      0.420     1.0080   ; qtot   0.18
;residue  24   ALA   
   456        NH1     24      ALA      N    456     -0.470    14.0070   ; qtot  -0.29
   457          H     24      ALA     HN    457      0.310     1.0080   ; qtot   0.02
   458        CT1     24      ALA     CA    458      0.070    12.0110   ; qtot   0.09
   459        HB1     24      ALA     HA    459      0.090     1.0080   ; qtot   0.18
   460        CT3     24      ALA     CB    460     -0.270    12.0110   ; qtot  -0.09
   461        HA3     24      ALA    HB1    461      0.090     1.0080   ; qtot   0.00
   462        HA3     24      ALA    HB2    462      0.090     1.0080   ; qtot   0.09
   463        HA3     24      ALA    HB3    463      0.090     1.0080   ; qtot   0.18
   464          C     24      ALA      C    464      0.510    12.0110   ; qtot   0.69
   465          O     24      ALA      O    465     -0.510    15.9994   ; qtot   0.18
;residue  25   GLN   
   466        NH1     25      GLN      N    466     -0.470    14.0070   ; qtot  -0.29
   467          H     25      GLN     HN    467      0.310     1.0080   ; qtot   0.02
   468        CT1     25      GLN     CA    468      0.070    12.0110   ; qtot   0.09
   469        HB1     25      GLN     HA    469      0.090     1.0080   ; qtot   0.18
   470         CC     25      GLN     CD    470      0.550    12.0110   ; qtot   0.73
   471          O     25      GLN    OE1    471     -0.550    15.9994   ; qtot   0.18
   472        NH2     25      GLN    NE2    472     -0.620    14.0070   ; qtot  -0.44
   473          H     25      GLN   HE21    473      0.320     1.0080   ; qtot  -0.12
   474          H     25      GLN   HE22    474      0.300     1.0080   ; qtot   0.18
   475        CT2     25      GLN     CB    475     -0.180    12.0110   ; qtot   0.00
   476        HA2     25      GLN    HB1    476      0.090     1.0080   ; qtot   0.09
   477        HA2     25      GLN    HB2    477      0.090     1.0080   ; qtot   0.18
   478        CT2     25      GLN     CG    478     -0.180    12.0110   ; qtot   0.00
   479        HA2     25      GLN    HG1    479      0.090     1.0080   ; qtot   0.09
   480        HA2     25      GLN    HG2    480      0.090     1.0080   ; qtot   0.18
   481          C     25      GLN      C    481      0.510    12.0110   ; qtot   0.69
   482          O     25      GLN      O    482     -0.510    15.9994   ; qtot   0.18
;residue  26   LYS   
   483        NH1     26      LYS      N    483     -0.470    14.0070   ; qtot  -0.29
   484          H     26      LYS     HN    484      0.310     1.0080   ; qtot   0.02
   485        CT1     26      LYS     CA    485      0.070    12.0110   ; qtot   0.09
   486        HB1     26      LYS     HA    486      0.090     1.0080   ; qtot   0.18
   487        CT2     26      LYS     CB    487     -0.180    12.0110   ; qtot   0.00
   488        HA2     26      LYS    HB1    488      0.090     1.0080   ; qtot   0.09
   489        HA2     26      LYS    HB2    489      0.090     1.0080   ; qtot   0.18
   490        CT2     26      LYS     CG    490     -0.180    12.0110   ; qtot   0.00
   491        HA2     26      LYS    HG1    491      0.090     1.0080   ; qtot   0.09
   492        HA2     26      LYS    HG2    492      0.090     1.0080   ; qtot   0.18
   493        CT2     26      LYS     CD    493     -0.180    12.0110   ; qtot   0.00
   494        HA2     26      LYS    HD1    494      0.090     1.0080   ; qtot   0.09
   495        HA2     26      LYS    HD2    495      0.090     1.0080   ; qtot   0.18
   496        CT2     26      LYS     CE    496      0.210    12.0110   ; qtot   0.39
   497        HA2     26      LYS    HE1    497      0.050     1.0080   ; qtot   0.44
   498        HA2     26      LYS    HE2    498      0.050     1.0080   ; qtot   0.49
   499        NH3     26      LYS     NZ    499     -0.300    14.0070   ; qtot   0.19
   500         HC     26      LYS    HZ1    500      0.330     1.0080   ; qtot   0.52
   501         HC     26      LYS    HZ2    501      0.330     1.0080   ; qtot   0.85
   502         HC     26      LYS    HZ3    502      0.330     1.0080   ; qtot   1.18
   503          C     26      LYS      C    503      0.510    12.0110   ; qtot   1.69
   504          O     26      LYS      O    504     -0.510    15.9994   ; qtot   1.18
;residue  27   DAL   
   505        NH1     27      DAL      N    505     -0.470    14.0070   ; qtot   0.71
   506          H     27      DAL     HN    506      0.310     1.0080   ; qtot   1.02
   507       CTD1     27      DAL     CA    507      0.070    12.0110   ; qtot   1.09
   508        HB1     27      DAL     HA    508      0.090     1.0080   ; qtot   1.18
   509        CT3     27      DAL     CB    509     -0.270    12.0110   ; qtot   0.91
   510        HA3     27      DAL    HB1    510      0.090     1.0080   ; qtot   1.00
   511        HA3     27      DAL    HB2    511      0.090     1.0080   ; qtot   1.09
   512        HA3     27      DAL    HB3    512      0.090     1.0080   ; qtot   1.18
   513          C     27      DAL      C    513      0.510    12.0110   ; qtot   1.69
   514          O     27      DAL      O    514     -0.510    15.9994   ; qtot   1.18
;residue  28   DAL   
   515        NH1     28      DAL      N    515     -0.470    14.0070   ; qtot   0.71
   516          H     28      DAL     HN    516      0.310     1.0080   ; qtot   1.02
   517       CTD1     28      DAL     CA    517      0.070    12.0110   ; qtot   1.09
   518        HB1     28      DAL     HA    518      0.090     1.0080   ; qtot   1.18
   519        CT3     28      DAL     CB    519     -0.270    12.0110   ; qtot   0.91
   520        HA3     28      DAL    HB1    520      0.090     1.0080   ; qtot   1.00
   521        HA3     28      DAL    HB2    521      0.090     1.0080   ; qtot   1.09
   522        HA3     28      DAL    HB3    522      0.090     1.0080   ; qtot   1.18
   523         CC     28      DAL      C    523      0.340    12.0110   ; qtot   1.52
   524         OC     28      DAL    OC1    524     -0.670    15.9994   ; qtot   0.85
   525         OC     28      DAL    OC2    525     -0.670    15.9994   ; qtot   0.18
;residue  29   NAG   
   526     CC3162     29      NAG     C1    526      0.290    12.0110   ; qtot   0.47
   527       HCA1     29      NAG     H1    527      0.090     1.0080   ; qtot   0.56
   528     CC3163     29      NAG     C5    528      0.110    12.0110   ; qtot   0.67
   529       HCA1     29      NAG     H5    529      0.090     1.0080   ; qtot   0.76
   530     OC3C61     29      NAG     O5    530     -0.400    15.9994   ; qtot   0.36
   531     CC3161     29      NAG     C2    531      0.134    12.0110   ; qtot   0.49
   532       HCA1     29      NAG     H2    532      0.090     1.0080   ; qtot   0.58
   533        NH1     29      NAG     NC    533     -0.587    14.0070   ; qtot  -0.00
   534          H     29      NAG     HN    534      0.363     1.0080   ; qtot   0.36
   535         CC     29      NAG     CM    535      0.550    12.0110   ; qtot   0.91
   536          O     29      NAG     OM    536     -0.550    15.9994   ; qtot   0.36
   537        CT3     29      NAG     CC    537     -0.270    12.0110   ; qtot   0.09
   538        HA3     29      NAG    HC1    538      0.090     1.0080   ; qtot   0.18
   539        HA3     29      NAG    HC2    539      0.090     1.0080   ; qtot   0.27
   540        HA3     29      NAG    HC3    540      0.090     1.0080   ; qtot   0.36
   541     CC3161     29      NAG     C3    541      0.140    12.0110   ; qtot   0.50
   542       HCA1     29      NAG     H3    542      0.090     1.0080   ; qtot   0.59
   543      OC311     29      NAG     O3    543     -0.650    15.9994   ; qtot  -0.06
   544       HCP1     29      NAG    HO3    544      0.420     1.0080   ; qtot   0.36
   545     CC3161     29      NAG     C4    545      0.090    12.0110   ; qtot   0.45
   546       HCA1     29      NAG     H4    546      0.090     1.0080   ; qtot   0.54
   547      OC301     29      NAG     O4    547     -0.360    15.9994   ; qtot   0.18
   548      CC321     29      NAG     C6    548      0.050    12.0110   ; qtot   0.23
   549       HCA2     29      NAG    H61    549      0.090     1.0080   ; qtot   0.32
   550       HCA2     29      NAG    H62    550      0.090     1.0080   ; qtot   0.41
   551      OC311     29      NAG     O6    551     -0.650    15.9994   ; qtot  -0.24
   552       HCP1     29      NAG    HO6    552      0.420     1.0080   ; qtot   0.18
;residue  30   NAM   
   553     CC3162     30      NAM     C1    553      0.290    12.0110   ; qtot   0.47
   554       HCA1     30      NAM     H1    554      0.090     1.0080   ; qtot   0.56
   555     CC3163     30      NAM     C5    555      0.110    12.0110   ; qtot   0.67
   556       HCA1     30      NAM     H5    556      0.090     1.0080   ; qtot   0.76
   557     OC3C61     30      NAM     O5    557     -0.400    15.9994   ; qtot   0.36
   558     CC3161     30      NAM     C2    558      0.134    12.0110   ; qtot   0.49
   559       HCA1     30      NAM     H2    559      0.090     1.0080   ; qtot   0.58
   560        NH1     30      NAM     NC    560     -0.587    14.0070   ; qtot  -0.00
   561          H     30      NAM     HN    561      0.363     1.0080   ; qtot   0.36
   562         CC     30      NAM     CM    562      0.550    12.0110   ; qtot   0.91
   563          O     30      NAM     OM    563     -0.550    15.9994   ; qtot   0.36
   564        CT3     30      NAM     CC    564     -0.270    12.0110   ; qtot   0.09
   565        HA3     30      NAM    HC1    565      0.090     1.0080   ; qtot   0.18
   566        HA3     30      NAM    HC2    566      0.090     1.0080   ; qtot   0.27
   567        HA3     30      NAM    HC3    567      0.090     1.0080   ; qtot   0.36
   568     CC3161     30      NAM     C3    568     -0.024    12.0110   ; qtot   0.34
   569       HCA1     30      NAM     H3    569      0.090     1.0080   ; qtot   0.43
   570      OC311     30      NAM     O3    570     -0.406    15.9994   ; qtot   0.02
   571        CT1     30      NAM     CA    571      0.250    12.0110   ; qtot   0.27
   572        HB1     30      NAM     HA    572      0.090     1.0080   ; qtot   0.36
   573          C     30      NAM      C    573      0.510    12.0110   ; qtot   0.87
   574          O     30      NAM      O    574     -0.510    15.9994   ; qtot   0.36
   575        CT3     30      NAM     CB    575     -0.270    12.0110   ; qtot   0.09
   576        HA3     30      NAM    HB1    576      0.090     1.0080   ; qtot   0.18
   577        HA3     30      NAM    HB2    577      0.090     1.0080   ; qtot   0.27
   578        HA3     30      NAM    HB3    578      0.090     1.0080   ; qtot   0.36
   579     CC3161     30      NAM     C4    579      0.090    12.0110   ; qtot   0.45
   580       HCA1     30      NAM     H4    580      0.090     1.0080   ; qtot   0.54
   581      OC301     30      NAM     O4    581     -0.360    15.9994   ; qtot   0.18
   582      CC321     30      NAM     C6    582      0.050    12.0110   ; qtot   0.23
   583       HCA2     30      NAM    H61    583      0.090     1.0080   ; qtot   0.32
   584       HCA2     30      NAM    H62    584      0.090     1.0080   ; qtot   0.41
   585      OC311     30      NAM     O6    585     -0.650    15.9994   ; qtot  -0.24
   586       HCP1     30      NAM    HO6    586      0.420     1.0080   ; qtot   0.18
;residue  31   ALA   
   587        NH1     31      ALA      N    587     -0.470    14.0070   ; qtot  -0.29
   588          H     31      ALA     HN    588      0.310     1.0080   ; qtot   0.02
   589        CT1     31      ALA     CA    589      0.070    12.0110   ; qtot   0.09
   590        HB1     31      ALA     HA    590      0.090     1.0080   ; qtot   0.18
   591        CT3     31      ALA     CB    591     -0.270    12.0110   ; qtot  -0.09
   592        HA3     31      ALA    HB1    592      0.090     1.0080   ; qtot   0.00
   593        HA3     31      ALA    HB2    593      0.090     1.0080   ; qtot   0.09
   594        HA3     31      ALA    HB3    594      0.090     1.0080   ; qtot   0.18
   595          C     31      ALA      C    595      0.510    12.0110   ; qtot   0.69
   596          O     31      ALA      O    596     -0.510    15.9994   ; qtot   0.18
;residue  32   GLN   
   597        NH1     32      GLN      N    597     -0.470    14.0070   ; qtot  -0.29
   598          H     32      GLN     HN    598      0.310     1.0080   ; qtot   0.02
   599        CT1     32      GLN     CA    599      0.070    12.0110   ; qtot   0.09
   600        HB1     32      GLN     HA    600      0.090     1.0080   ; qtot   0.18
   601         CC     32      GLN     CD    601      0.550    12.0110   ; qtot   0.73
   602          O     32      GLN    OE1    602     -0.550    15.9994   ; qtot   0.18
   603        NH2     32      GLN    NE2    603     -0.620    14.0070   ; qtot  -0.44
   604          H     32      GLN   HE21    604      0.320     1.0080   ; qtot  -0.12
   605          H     32      GLN   HE22    605      0.300     1.0080   ; qtot   0.18
   606        CT2     32      GLN     CB    606     -0.180    12.0110   ; qtot   0.00
   607        HA2     32      GLN    HB1    607      0.090     1.0080   ; qtot   0.09
   608        HA2     32      GLN    HB2    608      0.090     1.0080   ; qtot   0.18
   609        CT2     32      GLN     CG    609     -0.180    12.0110   ; qtot   0.00
   610        HA2     32      GLN    HG1    610      0.090     1.0080   ; qtot   0.09
   611        HA2     32      GLN    HG2    611      0.090     1.0080   ; qtot   0.18
   612          C     32      GLN      C    612      0.510    12.0110   ; qtot   0.69
   613          O     32      GLN      O    613     -0.510    15.9994   ; qtot   0.18
;residue  33   LYS   
   614        NH1     33      LYS      N    614     -0.470    14.0070   ; qtot  -0.29
   615          H     33      LYS     HN    615      0.310     1.0080   ; qtot   0.02
   616        CT1     33      LYS     CA    616      0.070    12.0110   ; qtot   0.09
   617        HB1     33      LYS     HA    617      0.090     1.0080   ; qtot   0.18
   618        CT2     33      LYS     CB    618     -0.180    12.0110   ; qtot   0.00
   619        HA2     33      LYS    HB1    619      0.090     1.0080   ; qtot   0.09
   620        HA2     33      LYS    HB2    620      0.090     1.0080   ; qtot   0.18
   621        CT2     33      LYS     CG    621     -0.180    12.0110   ; qtot   0.00
   622        HA2     33      LYS    HG1    622      0.090     1.0080   ; qtot   0.09
   623        HA2     33      LYS    HG2    623      0.090     1.0080   ; qtot   0.18
   624        CT2     33      LYS     CD    624     -0.180    12.0110   ; qtot   0.00
   625        HA2     33      LYS    HD1    625      0.090     1.0080   ; qtot   0.09
   626        HA2     33      LYS    HD2    626      0.090     1.0080   ; qtot   0.18
   627        CT2     33      LYS     CE    627      0.210    12.0110   ; qtot   0.39
   628        HA2     33      LYS    HE1    628      0.050     1.0080   ; qtot   0.44
   629        HA2     33      LYS    HE2    629      0.050     1.0080   ; qtot   0.49
   630        NH3     33      LYS     NZ    630     -0.300    14.0070   ; qtot   0.19
   631         HC     33      LYS    HZ1    631      0.330     1.0080   ; qtot   0.52
   632         HC     33      LYS    HZ2    632      0.330     1.0080   ; qtot   0.85
   633         HC     33      LYS    HZ3    633      0.330     1.0080   ; qtot   1.18
   634          C     33      LYS      C    634      0.510    12.0110   ; qtot   1.69
   635          O     33      LYS      O    635     -0.510    15.9994   ; qtot   1.18
;residue  34   DAL   
   636        NH1     34      DAL      N    636     -0.470    14.0070   ; qtot   0.71
   637          H     34      DAL     HN    637      0.310     1.0080   ; qtot   1.02
   638       CTD1     34      DAL     CA    638      0.070    12.0110   ; qtot   1.09
   639        HB1     34      DAL     HA    639      0.090     1.0080   ; qtot   1.18
   640        CT3     34      DAL     CB    640     -0.270    12.0110   ; qtot   0.91
   641        HA3     34      DAL    HB1    641      0.090     1.0080   ; qtot   1.00
   642        HA3     34      DAL    HB2    642      0.090     1.0080   ; qtot   1.09
   643        HA3     34      DAL    HB3    643      0.090     1.0080   ; qtot   1.18
   644          C     34      DAL      C    644      0.510    12.0110   ; qtot   1.69
   645          O     34      DAL      O    645     -0.510    15.9994   ; qtot   1.18
;residue  35   DAL   
   646        NH1     35      DAL      N    646     -0.470    14.0070   ; qtot   0.71
   647          H     35      DAL     HN    647      0.310     1.0080   ; qtot   1.02
   648       CTD1     35      DAL     CA    648      0.070    12.0110   ; qtot   1.09
   649        HB1     35      DAL     HA    649      0.090     1.0080   ; qtot   1.18
   650        CT3     35      DAL     CB    650     -0.270    12.0110   ; qtot   0.91
   651        HA3     35      DAL    HB1    651      0.090     1.0080   ; qtot   1.00
   652        HA3     35      DAL    HB2    652      0.090     1.0080   ; qtot   1.09
   653        HA3     35      DAL    HB3    653      0.090     1.0080   ; qtot   1.18
   654         CC     35      DAL      C    654      0.340    12.0110   ; qtot   1.52
   655         OC     35      DAL    OC1    655     -0.670    15.9994   ; qtot   0.85
   656         OC     35      DAL    OC2    656     -0.670    15.9994   ; qtot   0.18
;residue  36   NAG   
   657     CC3162     36      NAG     C1    657      0.290    12.0110   ; qtot   0.47
   658       HCA1     36      NAG     H1    658      0.090     1.0080   ; qtot   0.56
   659     CC3163     36      NAG     C5    659      0.110    12.0110   ; qtot   0.67
   660       HCA1     36      NAG     H5    660      0.090     1.0080   ; qtot   0.76
   661     OC3C61     36      NAG     O5    661     -0.400    15.9994   ; qtot   0.36
   662     CC3161     36      NAG     C2    662      0.134    12.0110   ; qtot   0.49
   663       HCA1     36      NAG     H2    663      0.090     1.0080   ; qtot   0.58
   664        NH1     36      NAG     NC    664     -0.587    14.0070   ; qtot  -0.00
   665          H     36      NAG     HN    665      0.363     1.0080   ; qtot   0.36
   666         CC     36      NAG     CM    666      0.550    12.0110   ; qtot   0.91
   667          O     36      NAG     OM    667     -0.550    15.9994   ; qtot   0.36
   668        CT3     36      NAG     CC    668     -0.270    12.0110   ; qtot   0.09
   669        HA3     36      NAG    HC1    669      0.090     1.0080   ; qtot   0.18
   670        HA3     36      NAG    HC2    670      0.090     1.0080   ; qtot   0.27
   671        HA3     36      NAG    HC3    671      0.090     1.0080   ; qtot   0.36
   672     CC3161     36      NAG     C3    672      0.140    12.0110   ; qtot   0.50
   673       HCA1     36      NAG     H3    673      0.090     1.0080   ; qtot   0.59
   674      OC311     36      NAG     O3    674     -0.650    15.9994   ; qtot  -0.06
   675       HCP1     36      NAG    HO3    675      0.420     1.0080   ; qtot   0.36
   676     CC3161     36      NAG     C4    676      0.090    12.0110   ; qtot   0.45
   677       HCA1     36      NAG     H4    677      0.090     1.0080   ; qtot   0.54
   678      OC301     36      NAG     O4    678     -0.360    15.9994   ; qtot   0.18
   679      CC321     36      NAG     C6    679      0.050    12.0110   ; qtot   0.23
   680       HCA2     36      NAG    H61    680      0.090     1.0080   ; qtot   0.32
   681       HCA2     36      NAG    H62    681      0.090     1.0080   ; qtot   0.41
   682      OC311     36      NAG     O6    682     -0.650    15.9994   ; qtot  -0.24
   683       HCP1     36      NAG    HO6    683      0.420     1.0080   ; qtot   0.18
;residue  37   NAM   
   684     CC3162     37      NAM     C1    684      0.290    12.0110   ; qtot   0.47
   685       HCA1     37      NAM     H1    685      0.090     1.0080   ; qtot   0.56
   686     CC3163     37      NAM     C5    686      0.110    12.0110   ; qtot   0.67
   687       HCA1     37      NAM     H5    687      0.090     1.0080   ; qtot   0.76
   688     OC3C61     37      NAM     O5    688     -0.400    15.9994   ; qtot   0.36
   689     CC3161     37      NAM     C2    689      0.134    12.0110   ; qtot   0.49
   690       HCA1     37      NAM     H2    690      0.090     1.0080   ; qtot   0.58
   691        NH1     37      NAM     NC    691     -0.587    14.0070   ; qtot  -0.00
   692          H     37      NAM     HN    692      0.363     1.0080   ; qtot   0.36
   693         CC     37      NAM     CM    693      0.550    12.0110   ; qtot   0.91
   694          O     37      NAM     OM    694     -0.550    15.9994   ; qtot   0.36
   695        CT3     37      NAM     CC    695     -0.270    12.0110   ; qtot   0.09
   696        HA3     37      NAM    HC1    696      0.090     1.0080   ; qtot   0.18
   697        HA3     37      NAM    HC2    697      0.090     1.0080   ; qtot   0.27
   698        HA3     37      NAM    HC3    698      0.090     1.0080   ; qtot   0.36
   699     CC3161     37      NAM     C3    699     -0.024    12.0110   ; qtot   0.34
   700       HCA1     37      NAM     H3    700      0.090     1.0080   ; qtot   0.43
   701      OC311     37      NAM     O3    701     -0.406    15.9994   ; qtot   0.02
   702        CT1     37      NAM     CA    702      0.250    12.0110   ; qtot   0.27
   703        HB1     37      NAM     HA    703      0.090     1.0080   ; qtot   0.36
   704          C     37      NAM      C    704      0.510    12.0110   ; qtot   0.87
   705          O     37      NAM      O    705     -0.510    15.9994   ; qtot   0.36
   706        CT3     37      NAM     CB    706     -0.270    12.0110   ; qtot   0.09
   707        HA3     37      NAM    HB1    707      0.090     1.0080   ; qtot   0.18
   708        HA3     37      NAM    HB2    708      0.090     1.0080   ; qtot   0.27
   709        HA3     37      NAM    HB3    709      0.090     1.0080   ; qtot   0.36
   710     CC3161     37      NAM     C4    710      0.090    12.0110   ; qtot   0.45
   711       HCA1     37      NAM     H4    711      0.090     1.0080   ; qtot   0.54
   712      OC301     37      NAM     O4    712     -0.360    15.9994   ; qtot   0.18
   713      CC321     37      NAM     C6    713      0.050    12.0110   ; qtot   0.23
   714       HCA2     37      NAM    H61    714      0.090     1.0080   ; qtot   0.32
   715       HCA2     37      NAM    H62    715      0.090     1.0080   ; qtot   0.41
   716      OC311     37      NAM     O6    716     -0.650    15.9994   ; qtot  -0.24
   717       HCP1     37      NAM    HO6    717      0.420     1.0080   ; qtot   0.18
;residue  38   ALA   
   718        NH1     38      ALA      N    718     -0.470    14.0070   ; qtot  -0.29
   719          H     38      ALA     HN    719      0.310     1.0080   ; qtot   0.02
   720        CT1     38      ALA     CA    720      0.070    12.0110   ; qtot   0.09
   721        HB1     38      ALA     HA    721      0.090     1.0080   ; qtot   0.18
   722        CT3     38      ALA     CB    722     -0.270    12.0110   ; qtot  -0.09
   723        HA3     38      ALA    HB1    723      0.090     1.0080   ; qtot   0.00
   724        HA3     38      ALA    HB2    724      0.090     1.0080   ; qtot   0.09
   725        HA3     38      ALA    HB3    725      0.090     1.0080   ; qtot   0.18
   726          C     38      ALA      C    726      0.510    12.0110   ; qtot   0.69
   727          O     38      ALA      O    727     -0.510    15.9994   ; qtot   0.18
;residue  39   GLN   
   728        NH1     39      GLN      N    728     -0.470    14.0070   ; qtot  -0.29
   729          H     39      GLN     HN    729      0.310     1.0080   ; qtot   0.02
   730        CT1     39      GLN     CA    730      0.070    12.0110   ; qtot   0.09
   731        HB1     39      GLN     HA    731      0.090     1.0080   ; qtot   0.18
   732         CC     39      GLN     CD    732      0.550    12.0110   ; qtot   0.73
   733          O     39      GLN    OE1    733     -0.550    15.9994   ; qtot   0.18
   734        NH2     39      GLN    NE2    734     -0.620    14.0070   ; qtot  -0.44
   735          H     39      GLN   HE21    735      0.320     1.0080   ; qtot  -0.12
   736          H     39      GLN   HE22    736      0.300     1.0080   ; qtot   0.18
   737        CT2     39      GLN     CB    737     -0.180    12.0110   ; qtot   0.00
   738        HA2     39      GLN    HB1    738      0.090     1.0080   ; qtot   0.09
   739        HA2     39      GLN    HB2    739      0.090     1.0080   ; qtot   0.18
   740        CT2     39      GLN     CG    740     -0.180    12.0110   ; qtot   0.00
   741        HA2     39      GLN    HG1    741      0.090     1.0080   ; qtot   0.09
   742        HA2     39      GLN    HG2    742      0.090     1.0080   ; qtot   0.18
   743          C     39      GLN      C    743      0.510    12.0110   ; qtot   0.69
   744          O     39      GLN      O    744     -0.510    15.9994   ; qtot   0.18
;residue  40   LYS   
   745        NH1     40      LYS      N    745     -0.470    14.0070   ; qtot  -0.29
   746          H     40      LYS     HN    746      0.310     1.0080   ; qtot   0.02
   747        CT1     40      LYS     CA    747      0.070    12.0110   ; qtot   0.09
   748        HB1     40      LYS     HA    748      0.090     1.0080   ; qtot   0.18
   749        CT2     40      LYS     CB    749     -0.180    12.0110   ; qtot   0.00
   750        HA2     40      LYS    HB1    750      0.090     1.0080   ; qtot   0.09
   751        HA2     40      LYS    HB2    751      0.090     1.0080   ; qtot   0.18
   752        CT2     40      LYS     CG    752     -0.180    12.0110   ; qtot   0.00
   753        HA2     40      LYS    HG1    753      0.090     1.0080   ; qtot   0.09
   754        HA2     40      LYS    HG2    754      0.090     1.0080   ; qtot   0.18
   755        CT2     40      LYS     CD    755     -0.180    12.0110   ; qtot   0.00
   756        HA2     40      LYS    HD1    756      0.090     1.0080   ; qtot   0.09
   757        HA2     40      LYS    HD2    757      0.090     1.0080   ; qtot   0.18
   758        CT2     40      LYS     CE    758      0.210    12.0110   ; qtot   0.39
   759        HA2     40      LYS    HE1    759      0.050     1.0080   ; qtot   0.44
   760        HA2     40      LYS    HE2    760      0.050     1.0080   ; qtot   0.49
   761        NH3     40      LYS     NZ    761     -0.300    14.0070   ; qtot   0.19
   762         HC     40      LYS    HZ1    762      0.330     1.0080   ; qtot   0.52
   763         HC     40      LYS    HZ2    763      0.330     1.0080   ; qtot   0.85
   764         HC     40      LYS    HZ3    764      0.330     1.0080   ; qtot   1.18
   765          C     40      LYS      C    765      0.510    12.0110   ; qtot   1.69
   766          O     40      LYS      O    766     -0.510    15.9994   ; qtot   1.18
;residue  41   DAL   
   767        NH1     41      DAL      N    767     -0.470    14.0070   ; qtot   0.71
   768          H     41      DAL     HN    768      0.310     1.0080   ; qtot   1.02
   769       CTD1     41      DAL     CA    769      0.070    12.0110   ; qtot   1.09
   770        HB1     41      DAL     HA    770      0.090     1.0080   ; qtot   1.18
   771        CT3     41      DAL     CB    771     -0.270    12.0110   ; qtot   0.91
   772        HA3     41      DAL    HB1    772      0.090     1.0080   ; qtot   1.00
   773        HA3     41      DAL    HB2    773      0.090     1.0080   ; qtot   1.09
   774        HA3     41      DAL    HB3    774      0.090     1.0080   ; qtot   1.18
   775          C     41      DAL      C    775      0.510    12.0110   ; qtot   1.69
   776          O     41      DAL      O    776     -0.510    15.9994   ; qtot   1.18
;residue  42   DAL   
   777        NH1     42      DAL      N    777     -0.470    14.0070   ; qtot   0.71
   778          H     42      DAL     HN    778      0.310     1.0080   ; qtot   1.02
   779       CTD1     42      DAL     CA    779      0.070    12.0110   ; qtot   1.09
   780        HB1     42      DAL     HA    780      0.090     1.0080   ; qtot   1.18
   781        CT3     42      DAL     CB    781     -0.270    12.0110   ; qtot   0.91
   782        HA3     42      DAL    HB1    782      0.090     1.0080   ; qtot   1.00
   783        HA3     42      DAL    HB2    783      0.090     1.0080   ; qtot   1.09
   784        HA3     42      DAL    HB3    784      0.090     1.0080   ; qtot   1.18
   785         CC     42      DAL      C    785      0.340    12.0110   ; qtot   1.52
   786         OC     42      DAL    OC1    786     -0.670    15.9994   ; qtot   0.85
   787         OC     42      DAL    OC2    787     -0.670    15.9994   ; qtot   0.18
;residue  43   NAG   
   788     CC3162     43      NAG     C1    788      0.290    12.0110   ; qtot   0.47
   789       HCA1     43      NAG     H1    789      0.090     1.0080   ; qtot   0.56
   790     CC3163     43      NAG     C5    790      0.110    12.0110   ; qtot   0.67
   791       HCA1     43      NAG     H5    791      0.090     1.0080   ; qtot   0.76
   792     OC3C61     43      NAG     O5    792     -0.400    15.9994   ; qtot   0.36
   793     CC3161     43      NAG     C2    793      0.134    12.0110   ; qtot   0.49
   794       HCA1     43      NAG     H2    794      0.090     1.0080   ; qtot   0.58
   795        NH1     43      NAG     NC    795     -0.587    14.0070   ; qtot  -0.00
   796          H     43      NAG     HN    796      0.363     1.0080   ; qtot   0.36
   797         CC     43      NAG     CM    797      0.550    12.0110   ; qtot   0.91
   798          O     43      NAG     OM    798     -0.550    15.9994   ; qtot   0.36
   799        CT3     43      NAG     CC    799     -0.270    12.0110   ; qtot   0.09
   800        HA3     43      NAG    HC1    800      0.090     1.0080   ; qtot   0.18
   801        HA3     43      NAG    HC2    801      0.090     1.0080   ; qtot   0.27
   802        HA3     43      NAG    HC3    802      0.090     1.0080   ; qtot   0.36
   803     CC3161     43      NAG     C3    803      0.140    12.0110   ; qtot   0.50
   804       HCA1     43      NAG     H3    804      0.090     1.0080   ; qtot   0.59
   805      OC311     43      NAG     O3    805     -0.650    15.9994   ; qtot  -0.06
   806       HCP1     43      NAG    HO3    806      0.420     1.0080   ; qtot   0.36
   807     CC3161     43      NAG     C4    807      0.090    12.0110   ; qtot   0.45
   808       HCA1     43      NAG     H4    808      0.090     1.0080   ; qtot   0.54
   809      OC301     43      NAG     O4    809     -0.360    15.9994   ; qtot   0.18
   810      CC321     43      NAG     C6    810      0.050    12.0110   ; qtot   0.23
   811       HCA2     43      NAG    H61    811      0.090     1.0080   ; qtot   0.32
   812       HCA2     43      NAG    H62    812      0.090     1.0080   ; qtot   0.41
   813      OC311     43      NAG     O6    813     -0.650    15.9994   ; qtot  -0.24
   814       HCP1     43      NAG    HO6    814      0.420     1.0080   ; qtot   0.18
;residue  44   NAM   
   815     CC3162     44      NAM     C1    815      0.290    12.0110   ; qtot   0.47
   816       HCA1     44      NAM     H1    816      0.090     1.0080   ; qtot   0.56
   817     CC3163     44      NAM     C5    817      0.110    12.0110   ; qtot   0.67
   818       HCA1     44      NAM     H5    818      0.090     1.0080   ; qtot   0.76
   819     OC3C61     44      NAM     O5    819     -0.400    15.9994   ; qtot   0.36
   820     CC3161     44      NAM     C2    820      0.134    12.0110   ; qtot   0.49
   821       HCA1     44      NAM     H2    821      0.090     1.0080   ; qtot   0.58
   822        NH1     44      NAM     NC    822     -0.587    14.0070   ; qtot  -0.00
   823          H     44      NAM     HN    823      0.363     1.0080   ; qtot   0.36
   824         CC     44      NAM     CM    824      0.550    12.0110   ; qtot   0.91
   825          O     44      NAM     OM    825     -0.550    15.9994   ; qtot   0.36
   826        CT3     44      NAM     CC    826     -0.270    12.0110   ; qtot   0.09
   827        HA3     44      NAM    HC1    827      0.090     1.0080   ; qtot   0.18
   828        HA3     44      NAM    HC2    828      0.090     1.0080   ; qtot   0.27
   829        HA3     44      NAM    HC3    829      0.090     1.0080   ; qtot   0.36
   830     CC3161     44      NAM     C3    830     -0.024    12.0110   ; qtot   0.34
   831       HCA1     44      NAM     H3    831      0.090     1.0080   ; qtot   0.43
   832      OC311     44      NAM     O3    832     -0.406    15.9994   ; qtot   0.02
   833        CT1     44      NAM     CA    833      0.250    12.0110   ; qtot   0.27
   834        HB1     44      NAM     HA    834      0.090     1.0080   ; qtot   0.36
   835          C     44      NAM      C    835      0.510    12.0110   ; qtot   0.87
   836          O     44      NAM      O    836     -0.510    15.9994   ; qtot   0.36
   837        CT3     44      NAM     CB    837     -0.270    12.0110   ; qtot   0.09
   838        HA3     44      NAM    HB1    838      0.090     1.0080   ; qtot   0.18
   839        HA3     44      NAM    HB2    839      0.090     1.0080   ; qtot   0.27
   840        HA3     44      NAM    HB3    840      0.090     1.0080   ; qtot   0.36
   841     CC3161     44      NAM     C4    841      0.090    12.0110   ; qtot   0.45
   842       HCA1     44      NAM     H4    842      0.090     1.0080   ; qtot   0.54
   843      OC301     44      NAM     O4    843     -0.360    15.9994   ; qtot   0.18
   844      CC321     44      NAM     C6    844      0.050    12.0110   ; qtot   0.23
   845       HCA2     44      NAM    H61    845      0.090     1.0080   ; qtot   0.32
   846       HCA2     44      NAM    H62    846      0.090     1.0080   ; qtot   0.41
   847      OC311     44      NAM     O6    847     -0.650    15.9994   ; qtot  -0.24
   848       HCP1     44      NAM    HO6    848      0.420     1.0080   ; qtot   0.18
;residue  45   ALA   
   849        NH1     45      ALA      N    849     -0.470    14.0070   ; qtot  -0.29
   850          H     45      ALA     HN    850      0.310     1.0080   ; qtot   0.02
   851        CT1     45      ALA     CA    851      0.070    12.0110   ; qtot   0.09
   852        HB1     45      ALA     HA    852      0.090     1.0080   ; qtot   0.18
   853        CT3     45      ALA     CB    853     -0.270    12.0110   ; qtot  -0.09
   854        HA3     45      ALA    HB1    854      0.090     1.0080   ; qtot   0.00
   855        HA3     45      ALA    HB2    855      0.090     1.0080   ; qtot   0.09
   856        HA3     45      ALA    HB3    856      0.090     1.0080   ; qtot   0.18
   857          C     45      ALA      C    857      0.510    12.0110   ; qtot   0.69
   858          O     45      ALA      O    858     -0.510    15.9994   ; qtot   0.18
;residue  46   GLN   
   859        NH1     46      GLN      N    859     -0.470    14.0070   ; qtot  -0.29
   860          H     46      GLN     HN    860      0.310     1.0080   ; qtot   0.02
   861        CT1     46      GLN     CA    861      0.070    12.0110   ; qtot   0.09
   862        HB1     46      GLN     HA    862      0.090     1.0080   ; qtot   0.18
   863         CC     46      GLN     CD    863      0.550    12.0110   ; qtot   0.73
   864          O     46      GLN    OE1    864     -0.550    15.9994   ; qtot   0.18
   865        NH2     46      GLN    NE2    865     -0.620    14.0070   ; qtot  -0.44
   866          H     46      GLN   HE21    866      0.320     1.0080   ; qtot  -0.12
   867          H     46      GLN   HE22    867      0.300     1.0080   ; qtot   0.18
   868        CT2     46      GLN     CB    868     -0.180    12.0110   ; qtot   0.00
   869        HA2     46      GLN    HB1    869      0.090     1.0080   ; qtot   0.09
   870        HA2     46      GLN    HB2    870      0.090     1.0080   ; qtot   0.18
   871        CT2     46      GLN     CG    871     -0.180    12.0110   ; qtot   0.00
   872        HA2     46      GLN    HG1    872      0.090     1.0080   ; qtot   0.09
   873        HA2     46      GLN    HG2    873      0.090     1.0080   ; qtot   0.18
   874          C     46      GLN      C    874      0.510    12.0110   ; qtot   0.69
   875          O     46      GLN      O    875     -0.510    15.9994   ; qtot   0.18
;residue  47   LYS   
   876        NH1     47      LYS      N    876     -0.470    14.0070   ; qtot  -0.29
   877          H     47      LYS     HN    877      0.310     1.0080   ; qtot   0.02
   878        CT1     47      LYS     CA    878      0.070    12.0110   ; qtot   0.09
   879        HB1     47      LYS     HA    879      0.090     1.0080   ; qtot   0.18
   880        CT2     47      LYS     CB    880     -0.180    12.0110   ; qtot   0.00
   881        HA2     47      LYS    HB1    881      0.090     1.0080   ; qtot   0.09
   882        HA2     47      LYS    HB2    882      0.090     1.0080   ; qtot   0.18
   883        CT2     47      LYS     CG    883     -0.180    12.0110   ; qtot   0.00
   884        HA2     47      LYS    HG1    884      0.090     1.0080   ; qtot   0.09
   885        HA2     47      LYS    HG2    885      0.090     1.0080   ; qtot   0.18
   886        CT2     47      LYS     CD    886     -0.180    12.0110   ; qtot   0.00
   887        HA2     47      LYS    HD1    887      0.090     1.0080   ; qtot   0.09
   888        HA2     47      LYS    HD2    888      0.090     1.0080   ; qtot   0.18
   889        CT2     47      LYS     CE    889      0.210    12.0110   ; qtot   0.39
   890        HA2     47      LYS    HE1    890      0.050     1.0080   ; qtot   0.44
   891        HA2     47      LYS    HE2    891      0.050     1.0080   ; qtot   0.49
   892        NH3     47      LYS     NZ    892     -0.300    14.0070   ; qtot   0.19
   893         HC     47      LYS    HZ1    893      0.330     1.0080   ; qtot   0.52
   894         HC     47      LYS    HZ2    894      0.330     1.0080   ; qtot   0.85
   895         HC     47      LYS    HZ3    895      0.330     1.0080   ; qtot   1.18
   896          C     47      LYS      C    896      0.510    12.0110   ; qtot   1.69
   897          O     47      LYS      O    897     -0.510    15.9994   ; qtot   1.18
;residue  48   DAL   
   898        NH1     48      DAL      N    898     -0.470    14.0070   ; qtot   0.71
   899          H     48      DAL     HN    899      0.310     1.0080   ; qtot   1.02
   900       CTD1     48      DAL     CA    900      0.070    12.0110   ; qtot   1.09
   901        HB1     48      DAL     HA    901      0.090     1.0080   ; qtot   1.18
   902        CT3     48      DAL     CB    902     -0.270    12.0110   ; qtot   0.91
   903        HA3     48      DAL    HB1    903      0.090     1.0080   ; qtot   1.00
   904        HA3     48      DAL    HB2    904      0.090     1.0080   ; qtot   1.09
   905        HA3     48      DAL    HB3    905      0.090     1.0080   ; qtot   1.18
   906          C     48      DAL      C    906      0.510    12.0110   ; qtot   1.69
   907          O     48      DAL      O    907     -0.510    15.9994   ; qtot   1.18
;residue  49   DAL   
   908        NH1     49      DAL      N    908     -0.470    14.0070   ; qtot   0.71
   909          H     49      DAL     HN    909      0.310     1.0080   ; qtot   1.02
   910       CTD1     49      DAL     CA    910      0.070    12.0110   ; qtot   1.09
   911        HB1     49      DAL     HA    911      0.090     1.0080   ; qtot   1.18
   912        CT3     49      DAL     CB    912     -0.270    12.0110   ; qtot   0.91
   913        HA3     49      DAL    HB1    913      0.090     1.0080   ; qtot   1.00
   914        HA3     49      DAL    HB2    914      0.090     1.0080   ; qtot   1.09
   915        HA3     49      DAL    HB3    915      0.090     1.0080   ; qtot   1.18
   916         CC     49      DAL      C    916      0.340    12.0110   ; qtot   1.52
   917         OC     49      DAL    OC1    917     -0.670    15.9994   ; qtot   0.85
   918         OC     49      DAL    OC2    918     -0.670    15.9994   ; qtot   0.18
;residue  50   NAG   
   919     CC3162     50      NAG     C1    919      0.290    12.0110   ; qtot   0.47
   920       HCA1     50      NAG     H1    920      0.090     1.0080   ; qtot   0.56
   921     CC3163     50      NAG     C5    921      0.110    12.0110   ; qtot   0.67
   922       HCA1     50      NAG     H5    922      0.090     1.0080   ; qtot   0.76
   923     OC3C61     50      NAG     O5    923     -0.400    15.9994   ; qtot   0.36
   924     CC3161     50      NAG     C2    924      0.134    12.0110   ; qtot   0.49
   925       HCA1     50      NAG     H2    925      0.090     1.0080   ; qtot   0.58
   926        NH1     50      NAG     NC    926     -0.587    14.0070   ; qtot  -0.00
   927          H     50      NAG     HN    927      0.363     1.0080   ; qtot   0.36
   928         CC     50      NAG     CM    928      0.550    12.0110   ; qtot   0.91
   929          O     50      NAG     OM    929     -0.550    15.9994   ; qtot   0.36
   930        CT3     50      NAG     CC    930     -0.270    12.0110   ; qtot   0.09
   931        HA3     50      NAG    HC1    931      0.090     1.0080   ; qtot   0.18
   932        HA3     50      NAG    HC2    932      0.090     1.0080   ; qtot   0.27
   933        HA3     50      NAG    HC3    933      0.090     1.0080   ; qtot   0.36
   934     CC3161     50      NAG     C3    934      0.140    12.0110   ; qtot   0.50
   935       HCA1     50      NAG     H3    935      0.090     1.0080   ; qtot   0.59
   936      OC311     50      NAG     O3    936     -0.650    15.9994   ; qtot  -0.06
   937       HCP1     50      NAG    HO3    937      0.420     1.0080   ; qtot   0.36
   938     CC3161     50      NAG     C4    938      0.090    12.0110   ; qtot   0.45
   939       HCA1     50      NAG     H4    939      0.090     1.0080   ; qtot   0.54
   940      OC301     50      NAG     O4    940     -0.360    15.9994   ; qtot   0.18
   941      CC321     50      NAG     C6    941      0.050    12.0110   ; qtot   0.23
   942       HCA2     50      NAG    H61    942      0.090     1.0080   ; qtot   0.32
   943       HCA2     50      NAG    H62    943      0.090     1.0080   ; qtot   0.41
   944      OC311     50      NAG     O6    944     -0.650    15.9994   ; qtot  -0.24
   945       HCP1     50      NAG    HO6    945      0.420     1.0080   ; qtot   0.18
;residue  51   NAM   
   946     CC3162     51      NAM     C1    946      0.340    12.0110   ; qtot   0.52
   947       HCA1     51      NAM     H1    947      0.090     1.0080   ; qtot   0.61
   948      OC311     51      NAM     O1    948     -0.650    15.9994   ; qtot  -0.04
   949       HCP1     51      NAM    HO1    949      0.420     1.0080   ; qtot   0.38
   950     CC3163     51      NAM     C5    950      0.110    12.0110   ; qtot   0.49
   951       HCA1     51      NAM     H5    951      0.090     1.0080   ; qtot   0.58
   952     OC3C61     51      NAM     O5    952     -0.400    15.9994   ; qtot   0.18
   953     CC3161     51      NAM     C2    953      0.134    12.0110   ; qtot   0.31
   954       HCA1     51      NAM     H2    954      0.090     1.0080   ; qtot   0.40
   955        NH1     51      NAM     NC    955     -0.587    14.0070   ; qtot  -0.18
   956          H     51      NAM     HN    956      0.363     1.0080   ; qtot   0.18
   957         CC     51      NAM     CM    957      0.550    12.0110   ; qtot   0.73
   958          O     51      NAM     OM    958     -0.550    15.9994   ; qtot   0.18
   959        CT3     51      NAM     CC    959     -0.270    12.0110   ; qtot  -0.09
   960        HA3     51      NAM    HC1    960      0.090     1.0080   ; qtot   0.00
   961        HA3     51      NAM    HC2    961      0.090     1.0080   ; qtot   0.09
   962        HA3     51      NAM    HC3    962      0.090     1.0080   ; qtot   0.18
   963     CC3161     51      NAM     C3    963     -0.024    12.0110   ; qtot   0.16
   964       HCA1     51      NAM     H3    964      0.090     1.0080   ; qtot   0.25
   965      OC311     51      NAM     O3    965     -0.406    15.9994   ; qtot  -0.16
   966        CT1     51      NAM     CA    966      0.250    12.0110   ; qtot   0.09
   967        HB1     51      NAM     HA    967      0.090     1.0080   ; qtot   0.18
   968          C     51      NAM      C    968      0.510    12.0110   ; qtot   0.69
   969          O     51      NAM      O    969     -0.510    15.9994   ; qtot   0.18
   970        CT3     51      NAM     CB    970     -0.270    12.0110   ; qtot  -0.09
   971        HA3     51      NAM    HB1    971      0.090     1.0080   ; qtot   0.00
   972        HA3     51      NAM    HB2    972      0.090     1.0080   ; qtot   0.09
   973        HA3     51      NAM    HB3    973      0.090     1.0080   ; qtot   0.18
   974     CC3161     51      NAM     C4    974      0.090    12.0110   ; qtot   0.27
   975       HCA1     51      NAM     H4    975      0.090     1.0080   ; qtot   0.36
   976      OC301     51      NAM     O4    976     -0.360    15.9994   ; qtot   0.00
   977      CC321     51      NAM     C6    977      0.050    12.0110   ; qtot   0.05
   978       HCA2     51      NAM    H61    978      0.090     1.0080   ; qtot   0.14
   979       HCA2     51      NAM    H62    979      0.090     1.0080   ; qtot   0.23
   980      OC311     51      NAM     O6    980     -0.650    15.9994   ; qtot  -0.42
   981       HCP1     51      NAM    HO6    981      0.420     1.0080   ; qtot   0.00
;residue  52   ALA   
   982        NH1     52      ALA      N    982     -0.470    14.0070   ; qtot  -0.47
   983          H     52      ALA     HN    983      0.310     1.0080   ; qtot  -0.16
   984        CT1     52      ALA     CA    984      0.070    12.0110   ; qtot  -0.09
   985        HB1     52      ALA     HA    985      0.090     1.0080   ; qtot   0.00
   986        CT3     52      ALA     CB    986     -0.270    12.0110   ; qtot  -0.27
   987        HA3     52      ALA    HB1    987      0.090     1.0080   ; qtot  -0.18
   988        HA3     52      ALA    HB2    988      0.090     1.0080   ; qtot  -0.09
   989        HA3     52      ALA    HB3    989      0.090     1.0080   ; qtot   0.00
   990          C     52      ALA      C    990      0.510    12.0110   ; qtot   0.51
   991          O     52      ALA      O    991     -0.510    15.9994   ; qtot   0.00
;residue  53   GLN   
   992        NH1     53      GLN      N    992     -0.470    14.0070   ; qtot  -0.47
   993          H     53      GLN     HN    993      0.310     1.0080   ; qtot  -0.16
   994        CT1     53      GLN     CA    994      0.070    12.0110   ; qtot  -0.09
   995        HB1     53      GLN     HA    995      0.090     1.0080   ; qtot   0.00
   996         CC     53      GLN     CD    996      0.550    12.0110   ; qtot   0.55
   997          O     53      GLN    OE1    997     -0.550    15.9994   ; qtot   0.00
   998        NH2     53      GLN    NE2    998     -0.620    14.0070   ; qtot  -0.62
   999          H     53      GLN   HE21    999      0.320     1.0080   ; qtot  -0.30
  1000          H     53      GLN   HE22   1000      0.300     1.0080   ; qtot   0.00
  1001        CT2     53      GLN     CB   1001     -0.180    12.0110   ; qtot  -0.18
  1002        HA2     53      GLN    HB1   1002      0.090     1.0080   ; qtot  -0.09
  1003        HA2     53      GLN    HB2   1003      0.090     1.0080   ; qtot   0.00
  1004        CT2     53      GLN     CG   1004     -0.180    12.0110   ; qtot  -0.18
  1005        HA2     53      GLN    HG1   1005      0.090     1.0080   ; qtot  -0.09
  1006        HA2     53      GLN    HG2   1006      0.090     1.0080   ; qtot   0.00
  1007          C     53      GLN      C   1007      0.510    12.0110   ; qtot   0.51
  1008          O     53      GLN      O   1008     -0.510    15.9994   ; qtot   0.00
;residue  54   LYS   
  1009        NH1     54      LYS      N   1009     -0.470    14.0070   ; qtot  -0.47
  1010          H     54      LYS     HN   1010      0.310     1.0080   ; qtot  -0.16
  1011        CT1     54      LYS     CA   1011      0.070    12.0110   ; qtot  -0.09
  1012        HB1     54      LYS     HA   1012      0.090     1.0080   ; qtot   0.00
  1013        CT2     54      LYS     CB   1013     -0.180    12.0110   ; qtot  -0.18
  1014        HA2     54      LYS    HB1   1014      0.090     1.0080   ; qtot  -0.09
  1015        HA2     54      LYS    HB2   1015      0.090     1.0080   ; qtot   0.00
  1016        CT2     54      LYS     CG   1016     -0.180    12.0110   ; qtot  -0.18
  1017        HA2     54      LYS    HG1   1017      0.090     1.0080   ; qtot  -0.09
  1018        HA2     54      LYS    HG2   1018      0.090     1.0080   ; qtot   0.00
  1019        CT2     54      LYS     CD   1019     -0.180    12.0110   ; qtot  -0.18
  1020        HA2     54      LYS    HD1   1020      0.090     1.0080   ; qtot  -0.09
  1021        HA2     54      LYS    HD2   1021      0.090     1.0080   ; qtot   0.00
  1022        CT2     54      LYS     CE   1022      0.210    12.0110   ; qtot   0.21
  1023        HA2     54      LYS    HE1   1023      0.050     1.0080   ; qtot   0.26
  1024        HA2     54      LYS    HE2   1024      0.050     1.0080   ; qtot   0.31
  1025        NH3     54      LYS     NZ   1025     -0.300    14.0070   ; qtot   0.01
  1026         HC     54      LYS    HZ1   1026      0.330     1.0080   ; qtot   0.34
  1027         HC     54      LYS    HZ2   1027      0.330     1.0080   ; qtot   0.67
  1028         HC     54      LYS    HZ3   1028      0.330     1.0080   ; qtot   1.00
  1029          C     54      LYS      C   1029      0.510    12.0110   ; qtot   1.51
  1030          O     54      LYS      O   1030     -0.510    15.9994   ; qtot   1.00
;residue  55   DAL   
  1031        NH1     55      DAL      N   1031     -0.470    14.0070   ; qtot   0.53
  1032          H     55      DAL     HN   1032      0.310     1.0080   ; qtot   0.84
  1033       CTD1     55      DAL     CA   1033      0.070    12.0110   ; qtot   0.91
  1034        HB1     55      DAL     HA   1034      0.090     1.0080   ; qtot   1.00
  1035        CT3     55      DAL     CB   1035     -0.270    12.0110   ; qtot   0.73
  1036        HA3     55      DAL    HB1   1036      0.090     1.0080   ; qtot   0.82
  1037        HA3     55      DAL    HB2   1037      0.090     1.0080   ; qtot   0.91
  1038        HA3     55      DAL    HB3   1038      0.090     1.0080   ; qtot   1.00
  1039          C     55      DAL      C   1039      0.510    12.0110   ; qtot   1.51
  1040          O     55      DAL      O   1040     -0.510    15.9994   ; qtot   1.00
;residue  56   DAL   
  1041        NH1     56      DAL      N   1041     -0.470    14.0070   ; qtot   0.53
  1042          H     56      DAL     HN   1042      0.310     1.0080   ; qtot   0.84
  1043       CTD1     56      DAL     CA   1043      0.070    12.0110   ; qtot   0.91
  1044        HB1     56      DAL     HA   1044      0.090     1.0080   ; qtot   1.00
  1045        CT3     56      DAL     CB   1045     -0.270    12.0110   ; qtot   0.73
  1046        HA3     56      DAL    HB1   1046      0.090     1.0080   ; qtot   0.82
  1047        HA3     56      DAL    HB2   1047      0.090     1.0080   ; qtot   0.91
  1048        HA3     56      DAL    HB3   1048      0.090     1.0080   ; qtot   1.00
  1049         CC     56      DAL      C   1049      0.340    12.0110   ; qtot   1.34
  1050         OC     56      DAL    OC1   1050     -0.670    15.9994   ; qtot   0.67
  1051         OC     56      DAL    OC2   1051     -0.670    15.9994   ; qtot   0.00

[ bonds ]
; i    j   func   bo   kb
    1     2     1
    1     5     1
    1     6     1
    1    57     1
    3     4     1
    3     5     1
    3    20     1
    3    24     1
    6     7     1
    6     8     1
    6    16     1
    8     9     1
    8    10     1
   10    11     1
   10    12     1
   12    13     1
   12    14     1
   12    15     1
   16    17     1
   16    18     1
   16    20     1
   18    19     1
   20    21     1
   20    22     1
   22    23     1
   24    25     1
   24    26     1
   24    27     1
   27    28     1
   29    30     1
   29    33     1
   29    34     1
   29   154     1
   31    32     1
   31    33     1
   31    55     1
   31    58     1
   34    35     1
   34    36     1
   34    44     1
   36    37     1
   36    38     1
   38    39     1
   38    40     1
   40    41     1
   40    42     1
   40    43     1
   44    45     1
   44    46     1
   44    55     1
   46    47     1
   47    48     1
   47    49     1
   47    51     1
   49    50     1
   49    63     1
   51    52     1
   51    53     1
   51    54     1
   55    56     1
   55    57     1
   58    59     1
   58    60     1
   58    61     1
   61    62     1
   63    64     1
   63    65     1
   65    66     1
   65    67     1
   65    71     1
   67    68     1
   67    69     1
   67    70     1
   71    72     1
   71    73     1
   73    74     1
   73    75     1
   75    76     1
   75    77     1
   75    82     1
   77    78     1
   77    79     1
   79    80     1
   79    81     1
   82    83     1
   82    84     1
   82    85     1
   85    86     1
   85    87     1
   85    88     1
   88    89     1
   88    90     1
   90    91     1
   90    92     1
   92    93     1
   92    94     1
   92   110     1
   94    95     1
   94    96     1
   94    97     1
   97    98     1
   97    99     1
   97   100     1
  100   101     1
  100   102     1
  100   103     1
  103   104     1
  103   105     1
  103   106     1
  106   107     1
  106   108     1
  106   109     1
  110   111     1
  110   112     1
  112   113     1
  112   114     1
  114   115     1
  114   116     1
  114   120     1
  116   117     1
  116   118     1
  116   119     1
  120   121     1
  120   122     1
  122   123     1
  122   124     1
  124   125     1
  124   126     1
  124   130     1
  126   127     1
  126   128     1
  126   129     1
  130   131     1
  130   132     1
  133   134     1
  133   137     1
  133   138     1
  133   188     1
  135   136     1
  135   137     1
  135   152     1
  135   155     1
  138   139     1
  138   140     1
  138   148     1
  140   141     1
  140   142     1
  142   143     1
  142   144     1
  144   145     1
  144   146     1
  144   147     1
  148   149     1
  148   150     1
  148   152     1
  150   151     1
  152   153     1
  152   154     1
  155   156     1
  155   157     1
  155   158     1
  158   159     1
  160   161     1
  160   164     1
  160   165     1
  160   285     1
  162   163     1
  162   164     1
  162   186     1
  162   189     1
  165   166     1
  165   167     1
  165   175     1
  167   168     1
  167   169     1
  169   170     1
  169   171     1
  171   172     1
  171   173     1
  171   174     1
  175   176     1
  175   177     1
  175   186     1
  177   178     1
  178   179     1
  178   180     1
  178   182     1
  180   181     1
  180   194     1
  182   183     1
  182   184     1
  182   185     1
  186   187     1
  186   188     1
  189   190     1
  189   191     1
  189   192     1
  192   193     1
  194   195     1
  194   196     1
  196   197     1
  196   198     1
  196   202     1
  198   199     1
  198   200     1
  198   201     1
  202   203     1
  202   204     1
  204   205     1
  204   206     1
  206   207     1
  206   208     1
  206   213     1
  208   209     1
  208   210     1
  210   211     1
  210   212     1
  213   214     1
  213   215     1
  213   216     1
  216   217     1
  216   218     1
  216   219     1
  219   220     1
  219   221     1
  221   222     1
  221   223     1
  223   224     1
  223   225     1
  223   241     1
  225   226     1
  225   227     1
  225   228     1
  228   229     1
  228   230     1
  228   231     1
  231   232     1
  231   233     1
  231   234     1
  234   235     1
  234   236     1
  234   237     1
  237   238     1
  237   239     1
  237   240     1
  241   242     1
  241   243     1
  243   244     1
  243   245     1
  245   246     1
  245   247     1
  245   251     1
  247   248     1
  247   249     1
  247   250     1
  251   252     1
  251   253     1
  253   254     1
  253   255     1
  255   256     1
  255   257     1
  255   261     1
  257   258     1
  257   259     1
  257   260     1
  261   262     1
  261   263     1
  264   265     1
  264   268     1
  264   269     1
  264   319     1
  266   267     1
  266   268     1
  266   283     1
  266   286     1
  269   270     1
  269   271     1
  269   279     1
  271   272     1
  271   273     1
  273   274     1
  273   275     1
  275   276     1
  275   277     1
  275   278     1
  279   280     1
  279   281     1
  279   283     1
  281   282     1
  283   284     1
  283   285     1
  286   287     1
  286   288     1
  286   289     1
  289   290     1
  291   292     1
  291   295     1
  291   296     1
  291   416     1
  293   294     1
  293   295     1
  293   317     1
  293   320     1
  296   297     1
  296   298     1
  296   306     1
  298   299     1
  298   300     1
  300   301     1
  300   302     1
  302   303     1
  302   304     1
  302   305     1
  306   307     1
  306   308     1
  306   317     1
  308   309     1
  309   310     1
  309   311     1
  309   313     1
  311   312     1
  311   325     1
  313   314     1
  313   315     1
  313   316     1
  317   318     1
  317   319     1
  320   321     1
  320   322     1
  320   323     1
  323   324     1
  325   326     1
  325   327     1
  327   328     1
  327   329     1
  327   333     1
  329   330     1
  329   331     1
  329   332     1
  333   334     1
  333   335     1
  335   336     1
  335   337     1
  337   338     1
  337   339     1
  337   344     1
  339   340     1
  339   341     1
  341   342     1
  341   343     1
  344   345     1
  344   346     1
  344   347     1
  347   348     1
  347   349     1
  347   350     1
  350   351     1
  350   352     1
  352   353     1
  352   354     1
  354   355     1
  354   356     1
  354   372     1
  356   357     1
  356   358     1
  356   359     1
  359   360     1
  359   361     1
  359   362     1
  362   363     1
  362   364     1
  362   365     1
  365   366     1
  365   367     1
  365   368     1
  368   369     1
  368   370     1
  368   371     1
  372   373     1
  372   374     1
  374   375     1
  374   376     1
  376   377     1
  376   378     1
  376   382     1
  378   379     1
  378   380     1
  378   381     1
  382   383     1
  382   384     1
  384   385     1
  384   386     1
  386   387     1
  386   388     1
  386   392     1
  388   389     1
  388   390     1
  388   391     1
  392   393     1
  392   394     1
  395   396     1
  395   399     1
  395   400     1
  395   450     1
  397   398     1
  397   399     1
  397   414     1
  397   417     1
  400   401     1
  400   402     1
  400   410     1
  402   403     1
  402   404     1
  404   405     1
  404   406     1
  406   407     1
  406   408     1
  406   409     1
  410   411     1
  410   412     1
  410   414     1
  412   413     1
  414   415     1
  414   416     1
  417   418     1
  417   419     1
  417   420     1
  420   421     1
  422   423     1
  422   426     1
  422   427     1
  422   547     1
  424   425     1
  424   426     1
  424   448     1
  424   451     1
  427   428     1
  427   429     1
  427   437     1
  429   430     1
  429   431     1
  431   432     1
  431   433     1
  433   434     1
  433   435     1
  433   436     1
  437   438     1
  437   439     1
  437   448     1
  439   440     1
  440   441     1
  440   442     1
  440   444     1
  442   443     1
  442   456     1
  444   445     1
  444   446     1
  444   447     1
  448   449     1
  448   450     1
  451   452     1
  451   453     1
  451   454     1
  454   455     1
  456   457     1
  456   458     1
  458   459     1
  458   460     1
  458   464     1
  460   461     1
  460   462     1
  460   463     1
  464   465     1
  464   466     1
  466   467     1
  466   468     1
  468   469     1
  468   470     1
  468   475     1
  470   471     1
  470   472     1
  472   473     1
  472   474     1
  475   476     1
  475   477     1
  475   478     1
  478   479     1
  478   480     1
  478   481     1
  481   482     1
  481   483     1
  483   484     1
  483   485     1
  485   486     1
  485   487     1
  485   503     1
  487   488     1
  487   489     1
  487   490     1
  490   491     1
  490   492     1
  490   493     1
  493   494     1
  493   495     1
  493   496     1
  496   497     1
  496   498     1
  496   499     1
  499   500     1
  499   501     1
  499   502     1
  503   504     1
  503   505     1
  505   506     1
  505   507     1
  507   508     1
  507   509     1
  507   513     1
  509   510     1
  509   511     1
  509   512     1
  513   514     1
  513   515     1
  515   516     1
  515   517     1
  517   518     1
  517   519     1
  517   523     1
  519   520     1
  519   521     1
  519   522     1
  523   524     1
  523   525     1
  526   527     1
  526   530     1
  526   531     1
  526   581     1
  528   529     1
  528   530     1
  528   545     1
  528   548     1
  531   532     1
  531   533     1
  531   541     1
  533   534     1
  533   535     1
  535   536     1
  535   537     1
  537   538     1
  537   539     1
  537   540     1
  541   542     1
  541   543     1
  541   545     1
  543   544     1
  545   546     1
  545   547     1
  548   549     1
  548   550     1
  548   551     1
  551   552     1
  553   554     1
  553   557     1
  553   558     1
  553   678     1
  555   556     1
  555   557     1
  555   579     1
  555   582     1
  558   559     1
  558   560     1
  558   568     1
  560   561     1
  560   562     1
  562   563     1
  562   564     1
  564   565     1
  564   566     1
  564   567     1
  568   569     1
  568   570     1
  568   579     1
  570   571     1
  571   572     1
  571   573     1
  571   575     1
  573   574     1
  573   587     1
  575   576     1
  575   577     1
  575   578     1
  579   580     1
  579   581     1
  582   583     1
  582   584     1
  582   585     1
  585   586     1
  587   588     1
  587   589     1
  589   590     1
  589   591     1
  589   595     1
  591   592     1
  591   593     1
  591   594     1
  595   596     1
  595   597     1
  597   598     1
  597   599     1
  599   600     1
  599   601     1
  599   606     1
  601   602     1
  601   603     1
  603   604     1
  603   605     1
  606   607     1
  606   608     1
  606   609     1
  609   610     1
  609   611     1
  609   612     1
  612   613     1
  612   614     1
  614   615     1
  614   616     1
  616   617     1
  616   618     1
  616   634     1
  618   619     1
  618   620     1
  618   621     1
  621   622     1
  621   623     1
  621   624     1
  624   625     1
  624   626     1
  624   627     1
  627   628     1
  627   629     1
  627   630     1
  630   631     1
  630   632     1
  630   633     1
  634   635     1
  634   636     1
  636   637     1
  636   638     1
  638   639     1
  638   640     1
  638   644     1
  640   641     1
  640   642     1
  640   643     1
  644   645     1
  644   646     1
  646   647     1
  646   648     1
  648   649     1
  648   650     1
  648   654     1
  650   651     1
  650   652     1
  650   653     1
  654   655     1
  654   656     1
  657   658     1
  657   661     1
  657   662     1
  657   712     1
  659   660     1
  659   661     1
  659   676     1
  659   679     1
  662   663     1
  662   664     1
  662   672     1
  664   665     1
  664   666     1
  666   667     1
  666   668     1
  668   669     1
  668   670     1
  668   671     1
  672   673     1
  672   674     1
  672   676     1
  674   675     1
  676   677     1
  676   678     1
  679   680     1
  679   681     1
  679   682     1
  682   683     1
  684   685     1
  684   688     1
  684   689     1
  684   809     1
  686   687     1
  686   688     1
  686   710     1
  686   713     1
  689   690     1
  689   691     1
  689   699     1
  691   692     1
  691   693     1
  693   694     1
  693   695     1
  695   696     1
  695   697     1
  695   698     1
  699   700     1
  699   701     1
  699   710     1
  701   702     1
  702   703     1
  702   704     1
  702   706     1
  704   705     1
  704   718     1
  706   707     1
  706   708     1
  706   709     1
  710   711     1
  710   712     1
  713   714     1
  713   715     1
  713   716     1
  716   717     1
  718   719     1
  718   720     1
  720   721     1
  720   722     1
  720   726     1
  722   723     1
  722   724     1
  722   725     1
  726   727     1
  726   728     1
  728   729     1
  728   730     1
  730   731     1
  730   732     1
  730   737     1
  732   733     1
  732   734     1
  734   735     1
  734   736     1
  737   738     1
  737   739     1
  737   740     1
  740   741     1
  740   742     1
  740   743     1
  743   744     1
  743   745     1
  745   746     1
  745   747     1
  747   748     1
  747   749     1
  747   765     1
  749   750     1
  749   751     1
  749   752     1
  752   753     1
  752   754     1
  752   755     1
  755   756     1
  755   757     1
  755   758     1
  758   759     1
  758   760     1
  758   761     1
  761   762     1
  761   763     1
  761   764     1
  765   766     1
  765   767     1
  767   768     1
  767   769     1
  769   770     1
  769   771     1
  769   775     1
  771   772     1
  771   773     1
  771   774     1
  775   776     1
  775   777     1
  777   778     1
  777   779     1
  779   780     1
  779   781     1
  779   785     1
  781   782     1
  781   783     1
  781   784     1
  785   786     1
  785   787     1
  788   789     1
  788   792     1
  788   793     1
  788   843     1
  790   791     1
  790   792     1
  790   807     1
  790   810     1
  793   794     1
  793   795     1
  793   803     1
  795   796     1
  795   797     1
  797   798     1
  797   799     1
  799   800     1
  799   801     1
  799   802     1
  803   804     1
  803   805     1
  803   807     1
  805   806     1
  807   808     1
  807   809     1
  810   811     1
  810   812     1
  810   813     1
  813   814     1
  815   816     1
  815   819     1
  815   820     1
  815   940     1
  817   818     1
  817   819     1
  817   841     1
  817   844     1
  820   821     1
  820   822     1
  820   830     1
  822   823     1
  822   824     1
  824   825     1
  824   826     1
  826   827     1
  826   828     1
  826   829     1
  830   831     1
  830   832     1
  830   841     1
  832   833     1
  833   834     1
  833   835     1
  833   837     1
  835   836     1
  835   849     1
  837   838     1
  837   839     1
  837   840     1
  841   842     1
  841   843     1
  844   845     1
  844   846     1
  844   847     1
  847   848     1
  849   850     1
  849   851     1
  851   852     1
  851   853     1
  851   857     1
  853   854     1
  853   855     1
  853   856     1
  857   858     1
  857   859     1
  859   860     1
  859   861     1
  861   862     1
  861   863     1
  861   868     1
  863   864     1
  863   865     1
  865   866     1
  865   867     1
  868   869     1
  868   870     1
  868   871     1
  871   872     1
  871   873     1
  871   874     1
  874   875     1
  874   876     1
  876   877     1
  876   878     1
  878   879     1
  878   880     1
  878   896     1
  880   881     1
  880   882     1
  880   883     1
  883   884     1
  883   885     1
  883   886     1
  886   887     1
  886   888     1
  886   889     1
  889   890     1
  889   891     1
  889   892     1
  892   893     1
  892   894     1
  892   895     1
  896   897     1
  896   898     1
  898   899     1
  898   900     1
  900   901     1
  900   902     1
  900   906     1
  902   903     1
  902   904     1
  902   905     1
  906   907     1
  906   908     1
  908   909     1
  908   910     1
  910   911     1
  910   912     1
  910   916     1
  912   913     1
  912   914     1
  912   915     1
  916   917     1
  916   918     1
  919   920     1
  919   923     1
  919   924     1
  919   976     1
  921   922     1
  921   923     1
  921   938     1
  921   941     1
  924   925     1
  924   926     1
  924   934     1
  926   927     1
  926   928     1
  928   929     1
  928   930     1
  930   931     1
  930   932     1
  930   933     1
  934   935     1
  934   936     1
  934   938     1
  936   937     1
  938   939     1
  938   940     1
  941   942     1
  941   943     1
  941   944     1
  944   945     1
  946   947     1
  946   948     1
  946   952     1
  946   953     1
  948   949     1
  950   951     1
  950   952     1
  950   974     1
  950   977     1
  953   954     1
  953   955     1
  953   963     1
  955   956     1
  955   957     1
  957   958     1
  957   959     1
  959   960     1
  959   961     1
  959   962     1
  963   964     1
  963   965     1
  963   974     1
  965   966     1
  966   967     1
  966   968     1
  966   970     1
  968   969     1
  968   982     1
  970   971     1
  970   972     1
  970   973     1
  974   975     1
  974   976     1
  977   978     1
  977   979     1
  977   980     1
  980   981     1
  982   983     1
  982   984     1
  984   985     1
  984   986     1
  984   990     1
  986   987     1
  986   988     1
  986   989     1
  990   991     1
  990   992     1
  992   993     1
  992   994     1
  994   995     1
  994   996     1
  994  1001     1
  996   997     1
  996   998     1
  998   999     1
  998  1000     1
 1001  1002     1
 1001  1003     1
 1001  1004     1
 1004  1005     1
 1004  1006     1
 1004  1007     1
 1007  1008     1
 1007  1009     1
 1009  1010     1
 1009  1011     1
 1011  1012     1
 1011  1013     1
 1011  1029     1
 1013  1014     1
 1013  1015     1
 1013  1016     1
 1016  1017     1
 1016  1018     1
 1016  1019     1
 1019  1020     1
 1019  1021     1
 1019  1022     1
 1022  1023     1
 1022  1024     1
 1022  1025     1
 1025  1026     1
 1025  1027     1
 1025  1028     1
 1029  1030     1
 1029  1031     1
 1031  1032     1
 1031  1033     1
 1033  1034     1
 1033  1035     1
 1033  1039     1
 1035  1036     1
 1035  1037     1
 1035  1038     1
 1039  1040     1
 1039  1041     1
 1041  1042     1
 1041  1043     1
 1043  1044     1
 1043  1045     1
 1043  1049     1
 1045  1046     1
 1045  1047     1
 1045  1048     1
 1049  1050     1
 1049  1051     1

[ pairs ]
; i    j   func   sigma14  epsilon14
    1     4     1
    1     9     1
    1    10     1
    1    17     1
    1    18     1
    1    20     1
    1    24     1
    1    31     1
    1    44     1
    1    56     1
    2     3     1
    2     7     1
    2     8     1
    2    16     1
    2    55     1
    3     6     1
    3    17     1
    3    18     1
    3    23     1
    3    28     1
    3    57     1
    4    16     1
    4    21     1
    4    22     1
    4    25     1
    4    26     1
    4    27     1
    5     7     1
    5     8     1
    5    16     1
    5    21     1
    5    22     1
    5    25     1
    5    26     1
    5    27     1
    5    55     1
    6    11     1
    6    12     1
    6    19     1
    6    21     1
    6    22     1
    6    55     1
    7     9     1
    7    10     1
    7    17     1
    7    18     1
    7    20     1
    7    57     1
    8    13     1
    8    14     1
    8    15     1
    8    17     1
    8    18     1
    8    20     1
    8    57     1
    9    11     1
    9    12     1
    9    16     1
   10    16     1
   11    13     1
   11    14     1
   11    15     1
   16    23     1
   16    24     1
   16    57     1
   17    19     1
   17    21     1
   17    22     1
   18    21     1
   18    22     1
   19    20     1
   20    25     1
   20    26     1
   20    27     1
   21    23     1
   21    24     1
   22    24     1
   25    28     1
   26    28     1
   29    32     1
   29    37     1
   29    38     1
   29    45     1
   29    46     1
   29    55     1
   29    58     1
   29   135     1
   29   148     1
   29   153     1
   30    31     1
   30    35     1
   30    36     1
   30    44     1
   30   152     1
   31    34     1
   31    45     1
   31    46     1
   31    62     1
   31   154     1
   32    44     1
   32    56     1
   32    57     1
   32    59     1
   32    60     1
   32    61     1
   33    35     1
   33    36     1
   33    44     1
   33    56     1
   33    57     1
   33    59     1
   33    60     1
   33    61     1
   33   152     1
   34    39     1
   34    40     1
   34    47     1
   34    56     1
   34    57     1
   34   152     1
   35    37     1
   35    38     1
   35    45     1
   35    46     1
   35    55     1
   35   154     1
   36    41     1
   36    42     1
   36    43     1
   36    45     1
   36    46     1
   36    55     1
   36   154     1
   37    39     1
   37    40     1
   37    44     1
   38    44     1
   39    41     1
   39    42     1
   39    43     1
   44    48     1
   44    49     1
   44    51     1
   44    58     1
   44   154     1
   45    47     1
   45    56     1
   45    57     1
   46    50     1
   46    52     1
   46    53     1
   46    54     1
   46    56     1
   46    57     1
   46    63     1
   47    55     1
   47    64     1
   47    65     1
   48    50     1
   48    52     1
   48    53     1
   48    54     1
   48    63     1
   49    52     1
   49    53     1
   49    54     1
   49    66     1
   49    67     1
   49    71     1
   50    51     1
   50    64     1
   50    65     1
   51    63     1
   55    59     1
   55    60     1
   55    61     1
   56    58     1
   57    58     1
   59    62     1
   60    62     1
   63    68     1
   63    69     1
   63    70     1
   63    72     1
   63    73     1
   64    66     1
   64    67     1
   64    71     1
   65    74     1
   65    75     1
   66    68     1
   66    69     1
   66    70     1
   66    72     1
   66    73     1
   67    72     1
   67    73     1
   68    71     1
   69    71     1
   70    71     1
   71    76     1
   71    77     1
   71    82     1
   72    74     1
   72    75     1
   73    78     1
   73    79     1
   73    83     1
   73    84     1
   73    85     1
   74    76     1
   74    77     1
   74    82     1
   75    80     1
   75    81     1
   75    86     1
   75    87     1
   75    88     1
   76    78     1
   76    79     1
   76    83     1
   76    84     1
   76    85     1
   77    83     1
   77    84     1
   77    85     1
   78    80     1
   78    81     1
   78    82     1
   79    82     1
   82    89     1
   82    90     1
   83    86     1
   83    87     1
   83    88     1
   84    86     1
   84    87     1
   84    88     1
   85    91     1
   85    92     1
   86    89     1
   86    90     1
   87    89     1
   87    90     1
   88    93     1
   88    94     1
   88   110     1
   89    91     1
   89    92     1
   90    95     1
   90    96     1
   90    97     1
   90   111     1
   90   112     1
   91    93     1
   91    94     1
   91   110     1
   92    98     1
   92    99     1
   92   100     1
   92   113     1
   92   114     1
   93    95     1
   93    96     1
   93    97     1
   93   111     1
   93   112     1
   94   101     1
   94   102     1
   94   103     1
   94   111     1
   94   112     1
   95    98     1
   95    99     1
   95   100     1
   95   110     1
   96    98     1
   96    99     1
   96   100     1
   96   110     1
   97   104     1
   97   105     1
   97   106     1
   97   110     1
   98   101     1
   98   102     1
   98   103     1
   99   101     1
   99   102     1
   99   103     1
  100   107     1
  100   108     1
  100   109     1
  101   104     1
  101   105     1
  101   106     1
  102   104     1
  102   105     1
  102   106     1
  104   107     1
  104   108     1
  104   109     1
  105   107     1
  105   108     1
  105   109     1
  110   115     1
  110   116     1
  110   120     1
  111   113     1
  111   114     1
  112   117     1
  112   118     1
  112   119     1
  112   121     1
  112   122     1
  113   115     1
  113   116     1
  113   120     1
  114   123     1
  114   124     1
  115   117     1
  115   118     1
  115   119     1
  115   121     1
  115   122     1
  116   121     1
  116   122     1
  117   120     1
  118   120     1
  119   120     1
  120   125     1
  120   126     1
  120   130     1
  121   123     1
  121   124     1
  122   127     1
  122   128     1
  122   129     1
  122   131     1
  122   132     1
  123   125     1
  123   126     1
  123   130     1
  125   127     1
  125   128     1
  125   129     1
  125   131     1
  125   132     1
  126   131     1
  126   132     1
  127   130     1
  128   130     1
  129   130     1
  133   136     1
  133   141     1
  133   142     1
  133   149     1
  133   150     1
  133   152     1
  133   155     1
  133   162     1
  133   175     1
  133   187     1
  134   135     1
  134   139     1
  134   140     1
  134   148     1
  134   186     1
  135   138     1
  135   149     1
  135   150     1
  135   159     1
  135   188     1
  136   148     1
  136   153     1
  136   154     1
  136   156     1
  136   157     1
  136   158     1
  137   139     1
  137   140     1
  137   148     1
  137   153     1
  137   154     1
  137   156     1
  137   157     1
  137   158     1
  137   186     1
  138   143     1
  138   144     1
  138   151     1
  138   153     1
  138   154     1
  138   186     1
  139   141     1
  139   142     1
  139   149     1
  139   150     1
  139   152     1
  139   188     1
  140   145     1
  140   146     1
  140   147     1
  140   149     1
  140   150     1
  140   152     1
  140   188     1
  141   143     1
  141   144     1
  141   148     1
  142   148     1
  143   145     1
  143   146     1
  143   147     1
  148   155     1
  148   188     1
  149   151     1
  149   153     1
  149   154     1
  150   153     1
  150   154     1
  151   152     1
  152   156     1
  152   157     1
  152   158     1
  153   155     1
  154   155     1
  156   159     1
  157   159     1
  160   163     1
  160   168     1
  160   169     1
  160   176     1
  160   177     1
  160   186     1
  160   189     1
  160   266     1
  160   279     1
  160   284     1
  161   162     1
  161   166     1
  161   167     1
  161   175     1
  161   283     1
  162   165     1
  162   176     1
  162   177     1
  162   193     1
  162   285     1
  163   175     1
  163   187     1
  163   188     1
  163   190     1
  163   191     1
  163   192     1
  164   166     1
  164   167     1
  164   175     1
  164   187     1
  164   188     1
  164   190     1
  164   191     1
  164   192     1
  164   283     1
  165   170     1
  165   171     1
  165   178     1
  165   187     1
  165   188     1
  165   283     1
  166   168     1
  166   169     1
  166   176     1
  166   177     1
  166   186     1
  166   285     1
  167   172     1
  167   173     1
  167   174     1
  167   176     1
  167   177     1
  167   186     1
  167   285     1
  168   170     1
  168   171     1
  168   175     1
  169   175     1
  170   172     1
  170   173     1
  170   174     1
  175   179     1
  175   180     1
  175   182     1
  175   189     1
  175   285     1
  176   178     1
  176   187     1
  176   188     1
  177   181     1
  177   183     1
  177   184     1
  177   185     1
  177   187     1
  177   188     1
  177   194     1
  178   186     1
  178   195     1
  178   196     1
  179   181     1
  179   183     1
  179   184     1
  179   185     1
  179   194     1
  180   183     1
  180   184     1
  180   185     1
  180   197     1
  180   198     1
  180   202     1
  181   182     1
  181   195     1
  181   196     1
  182   194     1
  186   190     1
  186   191     1
  186   192     1
  187   189     1
  188   189     1
  190   193     1
  191   193     1
  194   199     1
  194   200     1
  194   201     1
  194   203     1
  194   204     1
  195   197     1
  195   198     1
  195   202     1
  196   205     1
  196   206     1
  197   199     1
  197   200     1
  197   201     1
  197   203     1
  197   204     1
  198   203     1
  198   204     1
  199   202     1
  200   202     1
  201   202     1
  202   207     1
  202   208     1
  202   213     1
  203   205     1
  203   206     1
  204   209     1
  204   210     1
  204   214     1
  204   215     1
  204   216     1
  205   207     1
  205   208     1
  205   213     1
  206   211     1
  206   212     1
  206   217     1
  206   218     1
  206   219     1
  207   209     1
  207   210     1
  207   214     1
  207   215     1
  207   216     1
  208   214     1
  208   215     1
  208   216     1
  209   211     1
  209   212     1
  209   213     1
  210   213     1
  213   220     1
  213   221     1
  214   217     1
  214   218     1
  214   219     1
  215   217     1
  215   218     1
  215   219     1
  216   222     1
  216   223     1
  217   220     1
  217   221     1
  218   220     1
  218   221     1
  219   224     1
  219   225     1
  219   241     1
  220   222     1
  220   223     1
  221   226     1
  221   227     1
  221   228     1
  221   242     1
  221   243     1
  222   224     1
  222   225     1
  222   241     1
  223   229     1
  223   230     1
  223   231     1
  223   244     1
  223   245     1
  224   226     1
  224   227     1
  224   228     1
  224   242     1
  224   243     1
  225   232     1
  225   233     1
  225   234     1
  225   242     1
  225   243     1
  226   229     1
  226   230     1
  226   231     1
  226   241     1
  227   229     1
  227   230     1
  227   231     1
  227   241     1
  228   235     1
  228   236     1
  228   237     1
  228   241     1
  229   232     1
  229   233     1
  229   234     1
  230   232     1
  230   233     1
  230   234     1
  231   238     1
  231   239     1
  231   240     1
  232   235     1
  232   236     1
  232   237     1
  233   235     1
  233   236     1
  233   237     1
  235   238     1
  235   239     1
  235   240     1
  236   238     1
  236   239     1
  236   240     1
  241   246     1
  241   247     1
  241   251     1
  242   244     1
  242   245     1
  243   248     1
  243   249     1
  243   250     1
  243   252     1
  243   253     1
  244   246     1
  244   247     1
  244   251     1
  245   254     1
  245   255     1
  246   248     1
  246   249     1
  246   250     1
  246   252     1
  246   253     1
  247   252     1
  247   253     1
  248   251     1
  249   251     1
  250   251     1
  251   256     1
  251   257     1
  251   261     1
  252   254     1
  252   255     1
  253   258     1
  253   259     1
  253   260     1
  253   262     1
  253   263     1
  254   256     1
  254   257     1
  254   261     1
  256   258     1
  256   259     1
  256   260     1
  256   262     1
  256   263     1
  257   262     1
  257   263     1
  258   261     1
  259   261     1
  260   261     1
  264   267     1
  264   272     1
  264   273     1
  264   280     1
  264   281     1
  264   283     1
  264   286     1
  264   293     1
  264   306     1
  264   318     1
  265   266     1
  265   270     1
  265   271     1
  265   279     1
  265   317     1
  266   269     1
  266   280     1
  266   281     1
  266   290     1
  266   319     1
  267   279     1
  267   284     1
  267   285     1
  267   287     1
  267   288     1
  267   289     1
  268   270     1
  268   271     1
  268   279     1
  268   284     1
  268   285     1
  268   287     1
  268   288     1
  268   289     1
  268   317     1
  269   274     1
  269   275     1
  269   282     1
  269   284     1
  269   285     1
  269   317     1
  270   272     1
  270   273     1
  270   280     1
  270   281     1
  270   283     1
  270   319     1
  271   276     1
  271   277     1
  271   278     1
  271   280     1
  271   281     1
  271   283     1
  271   319     1
  272   274     1
  272   275     1
  272   279     1
  273   279     1
  274   276     1
  274   277     1
  274   278     1
  279   286     1
  279   319     1
  280   282     1
  280   284     1
  280   285     1
  281   284     1
  281   285     1
  282   283     1
  283   287     1
  283   288     1
  283   289     1
  284   286     1
  285   286     1
  287   290     1
  288   290     1
  291   294     1
  291   299     1
  291   300     1
  291   307     1
  291   308     1
  291   317     1
  291   320     1
  291   397     1
  291   410     1
  291   415     1
  292   293     1
  292   297     1
  292   298     1
  292   306     1
  292   414     1
  293   296     1
  293   307     1
  293   308     1
  293   324     1
  293   416     1
  294   306     1
  294   318     1
  294   319     1
  294   321     1
  294   322     1
  294   323     1
  295   297     1
  295   298     1
  295   306     1
  295   318     1
  295   319     1
  295   321     1
  295   322     1
  295   323     1
  295   414     1
  296   301     1
  296   302     1
  296   309     1
  296   318     1
  296   319     1
  296   414     1
  297   299     1
  297   300     1
  297   307     1
  297   308     1
  297   317     1
  297   416     1
  298   303     1
  298   304     1
  298   305     1
  298   307     1
  298   308     1
  298   317     1
  298   416     1
  299   301     1
  299   302     1
  299   306     1
  300   306     1
  301   303     1
  301   304     1
  301   305     1
  306   310     1
  306   311     1
  306   313     1
  306   320     1
  306   416     1
  307   309     1
  307   318     1
  307   319     1
  308   312     1
  308   314     1
  308   315     1
  308   316     1
  308   318     1
  308   319     1
  308   325     1
  309   317     1
  309   326     1
  309   327     1
  310   312     1
  310   314     1
  310   315     1
  310   316     1
  310   325     1
  311   314     1
  311   315     1
  311   316     1
  311   328     1
  311   329     1
  311   333     1
  312   313     1
  312   326     1
  312   327     1
  313   325     1
  317   321     1
  317   322     1
  317   323     1
  318   320     1
  319   320     1
  321   324     1
  322   324     1
  325   330     1
  325   331     1
  325   332     1
  325   334     1
  325   335     1
  326   328     1
  326   329     1
  326   333     1
  327   336     1
  327   337     1
  328   330     1
  328   331     1
  328   332     1
  328   334     1
  328   335     1
  329   334     1
  329   335     1
  330   333     1
  331   333     1
  332   333     1
  333   338     1
  333   339     1
  333   344     1
  334   336     1
  334   337     1
  335   340     1
  335   341     1
  335   345     1
  335   346     1
  335   347     1
  336   338     1
  336   339     1
  336   344     1
  337   342     1
  337   343     1
  337   348     1
  337   349     1
  337   350     1
  338   340     1
  338   341     1
  338   345     1
  338   346     1
  338   347     1
  339   345     1
  339   346     1
  339   347     1
  340   342     1
  340   343     1
  340   344     1
  341   344     1
  344   351     1
  344   352     1
  345   348     1
  345   349     1
  345   350     1
  346   348     1
  346   349     1
  346   350     1
  347   353     1
  347   354     1
  348   351     1
  348   352     1
  349   351     1
  349   352     1
  350   355     1
  350   356     1
  350   372     1
  351   353     1
  351   354     1
  352   357     1
  352   358     1
  352   359     1
  352   373     1
  352   374     1
  353   355     1
  353   356     1
  353   372     1
  354   360     1
  354   361     1
  354   362     1
  354   375     1
  354   376     1
  355   357     1
  355   358     1
  355   359     1
  355   373     1
  355   374     1
  356   363     1
  356   364     1
  356   365     1
  356   373     1
  356   374     1
  357   360     1
  357   361     1
  357   362     1
  357   372     1
  358   360     1
  358   361     1
  358   362     1
  358   372     1
  359   366     1
  359   367     1
  359   368     1
  359   372     1
  360   363     1
  360   364     1
  360   365     1
  361   363     1
  361   364     1
  361   365     1
  362   369     1
  362   370     1
  362   371     1
  363   366     1
  363   367     1
  363   368     1
  364   366     1
  364   367     1
  364   368     1
  366   369     1
  366   370     1
  366   371     1
  367   369     1
  367   370     1
  367   371     1
  372   377     1
  372   378     1
  372   382     1
  373   375     1
  373   376     1
  374   379     1
  374   380     1
  374   381     1
  374   383     1
  374   384     1
  375   377     1
  375   378     1
  375   382     1
  376   385     1
  376   386     1
  377   379     1
  377   380     1
  377   381     1
  377   383     1
  377   384     1
  378   383     1
  378   384     1
  379   382     1
  380   382     1
  381   382     1
  382   387     1
  382   388     1
  382   392     1
  383   385     1
  383   386     1
  384   389     1
  384   390     1
  384   391     1
  384   393     1
  384   394     1
  385   387     1
  385   388     1
  385   392     1
  387   389     1
  387   390     1
  387   391     1
  387   393     1
  387   394     1
  388   393     1
  388   394     1
  389   392     1
  390   392     1
  391   392     1
  395   398     1
  395   403     1
  395   404     1
  395   411     1
  395   412     1
  395   414     1
  395   417     1
  395   424     1
  395   437     1
  395   449     1
  396   397     1
  396   401     1
  396   402     1
  396   410     1
  396   448     1
  397   400     1
  397   411     1
  397   412     1
  397   421     1
  397   450     1
  398   410     1
  398   415     1
  398   416     1
  398   418     1
  398   419     1
  398   420     1
  399   401     1
  399   402     1
  399   410     1
  399   415     1
  399   416     1
  399   418     1
  399   419     1
  399   420     1
  399   448     1
  400   405     1
  400   406     1
  400   413     1
  400   415     1
  400   416     1
  400   448     1
  401   403     1
  401   404     1
  401   411     1
  401   412     1
  401   414     1
  401   450     1
  402   407     1
  402   408     1
  402   409     1
  402   411     1
  402   412     1
  402   414     1
  402   450     1
  403   405     1
  403   406     1
  403   410     1
  404   410     1
  405   407     1
  405   408     1
  405   409     1
  410   417     1
  410   450     1
  411   413     1
  411   415     1
  411   416     1
  412   415     1
  412   416     1
  413   414     1
  414   418     1
  414   419     1
  414   420     1
  415   417     1
  416   417     1
  418   421     1
  419   421     1
  422   425     1
  422   430     1
  422   431     1
  422   438     1
  422   439     1
  422   448     1
  422   451     1
  422   528     1
  422   541     1
  422   546     1
  423   424     1
  423   428     1
  423   429     1
  423   437     1
  423   545     1
  424   427     1
  424   438     1
  424   439     1
  424   455     1
  424   547     1
  425   437     1
  425   449     1
  425   450     1
  425   452     1
  425   453     1
  425   454     1
  426   428     1
  426   429     1
  426   437     1
  426   449     1
  426   450     1
  426   452     1
  426   453     1
  426   454     1
  426   545     1
  427   432     1
  427   433     1
  427   440     1
  427   449     1
  427   450     1
  427   545     1
  428   430     1
  428   431     1
  428   438     1
  428   439     1
  428   448     1
  428   547     1
  429   434     1
  429   435     1
  429   436     1
  429   438     1
  429   439     1
  429   448     1
  429   547     1
  430   432     1
  430   433     1
  430   437     1
  431   437     1
  432   434     1
  432   435     1
  432   436     1
  437   441     1
  437   442     1
  437   444     1
  437   451     1
  437   547     1
  438   440     1
  438   449     1
  438   450     1
  439   443     1
  439   445     1
  439   446     1
  439   447     1
  439   449     1
  439   450     1
  439   456     1
  440   448     1
  440   457     1
  440   458     1
  441   443     1
  441   445     1
  441   446     1
  441   447     1
  441   456     1
  442   445     1
  442   446     1
  442   447     1
  442   459     1
  442   460     1
  442   464     1
  443   444     1
  443   457     1
  443   458     1
  444   456     1
  448   452     1
  448   453     1
  448   454     1
  449   451     1
  450   451     1
  452   455     1
  453   455     1
  456   461     1
  456   462     1
  456   463     1
  456   465     1
  456   466     1
  457   459     1
  457   460     1
  457   464     1
  458   467     1
  458   468     1
  459   461     1
  459   462     1
  459   463     1
  459   465     1
  459   466     1
  460   465     1
  460   466     1
  461   464     1
  462   464     1
  463   464     1
  464   469     1
  464   470     1
  464   475     1
  465   467     1
  465   468     1
  466   471     1
  466   472     1
  466   476     1
  466   477     1
  466   478     1
  467   469     1
  467   470     1
  467   475     1
  468   473     1
  468   474     1
  468   479     1
  468   480     1
  468   481     1
  469   471     1
  469   472     1
  469   476     1
  469   477     1
  469   478     1
  470   476     1
  470   477     1
  470   478     1
  471   473     1
  471   474     1
  471   475     1
  472   475     1
  475   482     1
  475   483     1
  476   479     1
  476   480     1
  476   481     1
  477   479     1
  477   480     1
  477   481     1
  478   484     1
  478   485     1
  479   482     1
  479   483     1
  480   482     1
  480   483     1
  481   486     1
  481   487     1
  481   503     1
  482   484     1
  482   485     1
  483   488     1
  483   489     1
  483   490     1
  483   504     1
  483   505     1
  484   486     1
  484   487     1
  484   503     1
  485   491     1
  485   492     1
  485   493     1
  485   506     1
  485   507     1
  486   488     1
  486   489     1
  486   490     1
  486   504     1
  486   505     1
  487   494     1
  487   495     1
  487   496     1
  487   504     1
  487   505     1
  488   491     1
  488   492     1
  488   493     1
  488   503     1
  489   491     1
  489   492     1
  489   493     1
  489   503     1
  490   497     1
  490   498     1
  490   499     1
  490   503     1
  491   494     1
  491   495     1
  491   496     1
  492   494     1
  492   495     1
  492   496     1
  493   500     1
  493   501     1
  493   502     1
  494   497     1
  494   498     1
  494   499     1
  495   497     1
  495   498     1
  495   499     1
  497   500     1
  497   501     1
  497   502     1
  498   500     1
  498   501     1
  498   502     1
  503   508     1
  503   509     1
  503   513     1
  504   506     1
  504   507     1
  505   510     1
  505   511     1
  505   512     1
  505   514     1
  505   515     1
  506   508     1
  506   509     1
  506   513     1
  507   516     1
  507   517     1
  508   510     1
  508   511     1
  508   512     1
  508   514     1
  508   515     1
  509   514     1
  509   515     1
  510   513     1
  511   513     1
  512   513     1
  513   518     1
  513   519     1
  513   523     1
  514   516     1
  514   517     1
  515   520     1
  515   521     1
  515   522     1
  515   524     1
  515   525     1
  516   518     1
  516   519     1
  516   523     1
  518   520     1
  518   521     1
  518   522     1
  518   524     1
  518   525     1
  519   524     1
  519   525     1
  520   523     1
  521   523     1
  522   523     1
  526   529     1
  526   534     1
  526   535     1
  526   542     1
  526   543     1
  526   545     1
  526   548     1
  526   555     1
  526   568     1
  526   580     1
  527   528     1
  527   532     1
  527   533     1
  527   541     1
  527   579     1
  528   531     1
  528   542     1
  528   543     1
  528   552     1
  528   581     1
  529   541     1
  529   546     1
  529   547     1
  529   549     1
  529   550     1
  529   551     1
  530   532     1
  530   533     1
  530   541     1
  530   546     1
  530   547     1
  530   549     1
  530   550     1
  530   551     1
  530   579     1
  531   536     1
  531   537     1
  531   544     1
  531   546     1
  531   547     1
  531   579     1
  532   534     1
  532   535     1
  532   542     1
  532   543     1
  532   545     1
  532   581     1
  533   538     1
  533   539     1
  533   540     1
  533   542     1
  533   543     1
  533   545     1
  533   581     1
  534   536     1
  534   537     1
  534   541     1
  535   541     1
  536   538     1
  536   539     1
  536   540     1
  541   548     1
  541   581     1
  542   544     1
  542   546     1
  542   547     1
  543   546     1
  543   547     1
  544   545     1
  545   549     1
  545   550     1
  545   551     1
  546   548     1
  547   548     1
  549   552     1
  550   552     1
  553   556     1
  553   561     1
  553   562     1
  553   569     1
  553   570     1
  553   579     1
  553   582     1
  553   659     1
  553   672     1
  553   677     1
  554   555     1
  554   559     1
  554   560     1
  554   568     1
  554   676     1
  555   558     1
  555   569     1
  555   570     1
  555   586     1
  555   678     1
  556   568     1
  556   580     1
  556   581     1
  556   583     1
  556   584     1
  556   585     1
  557   559     1
  557   560     1
  557   568     1
  557   580     1
  557   581     1
  557   583     1
  557   584     1
  557   585     1
  557   676     1
  558   563     1
  558   564     1
  558   571     1
  558   580     1
  558   581     1
  558   676     1
  559   561     1
  559   562     1
  559   569     1
  559   570     1
  559   579     1
  559   678     1
  560   565     1
  560   566     1
  560   567     1
  560   569     1
  560   570     1
  560   579     1
  560   678     1
  561   563     1
  561   564     1
  561   568     1
  562   568     1
  563   565     1
  563   566     1
  563   567     1
  568   572     1
  568   573     1
  568   575     1
  568   582     1
  568   678     1
  569   571     1
  569   580     1
  569   581     1
  570   574     1
  570   576     1
  570   577     1
  570   578     1
  570   580     1
  570   581     1
  570   587     1
  571   579     1
  571   588     1
  571   589     1
  572   574     1
  572   576     1
  572   577     1
  572   578     1
  572   587     1
  573   576     1
  573   577     1
  573   578     1
  573   590     1
  573   591     1
  573   595     1
  574   575     1
  574   588     1
  574   589     1
  575   587     1
  579   583     1
  579   584     1
  579   585     1
  580   582     1
  581   582     1
  583   586     1
  584   586     1
  587   592     1
  587   593     1
  587   594     1
  587   596     1
  587   597     1
  588   590     1
  588   591     1
  588   595     1
  589   598     1
  589   599     1
  590   592     1
  590   593     1
  590   594     1
  590   596     1
  590   597     1
  591   596     1
  591   597     1
  592   595     1
  593   595     1
  594   595     1
  595   600     1
  595   601     1
  595   606     1
  596   598     1
  596   599     1
  597   602     1
  597   603     1
  597   607     1
  597   608     1
  597   609     1
  598   600     1
  598   601     1
  598   606     1
  599   604     1
  599   605     1
  599   610     1
  599   611     1
  599   612     1
  600   602     1
  600   603     1
  600   607     1
  600   608     1
  600   609     1
  601   607     1
  601   608     1
  601   609     1
  602   604     1
  602   605     1
  602   606     1
  603   606     1
  606   613     1
  606   614     1
  607   610     1
  607   611     1
  607   612     1
  608   610     1
  608   611     1
  608   612     1
  609   615     1
  609   616     1
  610   613     1
  610   614     1
  611   613     1
  611   614     1
  612   617     1
  612   618     1
  612   634     1
  613   615     1
  613   616     1
  614   619     1
  614   620     1
  614   621     1
  614   635     1
  614   636     1
  615   617     1
  615   618     1
  615   634     1
  616   622     1
  616   623     1
  616   624     1
  616   637     1
  616   638     1
  617   619     1
  617   620     1
  617   621     1
  617   635     1
  617   636     1
  618   625     1
  618   626     1
  618   627     1
  618   635     1
  618   636     1
  619   622     1
  619   623     1
  619   624     1
  619   634     1
  620   622     1
  620   623     1
  620   624     1
  620   634     1
  621   628     1
  621   629     1
  621   630     1
  621   634     1
  622   625     1
  622   626     1
  622   627     1
  623   625     1
  623   626     1
  623   627     1
  624   631     1
  624   632     1
  624   633     1
  625   628     1
  625   629     1
  625   630     1
  626   628     1
  626   629     1
  626   630     1
  628   631     1
  628   632     1
  628   633     1
  629   631     1
  629   632     1
  629   633     1
  634   639     1
  634   640     1
  634   644     1
  635   637     1
  635   638     1
  636   641     1
  636   642     1
  636   643     1
  636   645     1
  636   646     1
  637   639     1
  637   640     1
  637   644     1
  638   647     1
  638   648     1
  639   641     1
  639   642     1
  639   643     1
  639   645     1
  639   646     1
  640   645     1
  640   646     1
  641   644     1
  642   644     1
  643   644     1
  644   649     1
  644   650     1
  644   654     1
  645   647     1
  645   648     1
  646   651     1
  646   652     1
  646   653     1
  646   655     1
  646   656     1
  647   649     1
  647   650     1
  647   654     1
  649   651     1
  649   652     1
  649   653     1
  649   655     1
  649   656     1
  650   655     1
  650   656     1
  651   654     1
  652   654     1
  653   654     1
  657   660     1
  657   665     1
  657   666     1
  657   673     1
  657   674     1
  657   676     1
  657   679     1
  657   686     1
  657   699     1
  657   711     1
  658   659     1
  658   663     1
  658   664     1
  658   672     1
  658   710     1
  659   662     1
  659   673     1
  659   674     1
  659   683     1
  659   712     1
  660   672     1
  660   677     1
  660   678     1
  660   680     1
  660   681     1
  660   682     1
  661   663     1
  661   664     1
  661   672     1
  661   677     1
  661   678     1
  661   680     1
  661   681     1
  661   682     1
  661   710     1
  662   667     1
  662   668     1
  662   675     1
  662   677     1
  662   678     1
  662   710     1
  663   665     1
  663   666     1
  663   673     1
  663   674     1
  663   676     1
  663   712     1
  664   669     1
  664   670     1
  664   671     1
  664   673     1
  664   674     1
  664   676     1
  664   712     1
  665   667     1
  665   668     1
  665   672     1
  666   672     1
  667   669     1
  667   670     1
  667   671     1
  672   679     1
  672   712     1
  673   675     1
  673   677     1
  673   678     1
  674   677     1
  674   678     1
  675   676     1
  676   680     1
  676   681     1
  676   682     1
  677   679     1
  678   679     1
  680   683     1
  681   683     1
  684   687     1
  684   692     1
  684   693     1
  684   700     1
  684   701     1
  684   710     1
  684   713     1
  684   790     1
  684   803     1
  684   808     1
  685   686     1
  685   690     1
  685   691     1
  685   699     1
  685   807     1
  686   689     1
  686   700     1
  686   701     1
  686   717     1
  686   809     1
  687   699     1
  687   711     1
  687   712     1
  687   714     1
  687   715     1
  687   716     1
  688   690     1
  688   691     1
  688   699     1
  688   711     1
  688   712     1
  688   714     1
  688   715     1
  688   716     1
  688   807     1
  689   694     1
  689   695     1
  689   702     1
  689   711     1
  689   712     1
  689   807     1
  690   692     1
  690   693     1
  690   700     1
  690   701     1
  690   710     1
  690   809     1
  691   696     1
  691   697     1
  691   698     1
  691   700     1
  691   701     1
  691   710     1
  691   809     1
  692   694     1
  692   695     1
  692   699     1
  693   699     1
  694   696     1
  694   697     1
  694   698     1
  699   703     1
  699   704     1
  699   706     1
  699   713     1
  699   809     1
  700   702     1
  700   711     1
  700   712     1
  701   705     1
  701   707     1
  701   708     1
  701   709     1
  701   711     1
  701   712     1
  701   718     1
  702   710     1
  702   719     1
  702   720     1
  703   705     1
  703   707     1
  703   708     1
  703   709     1
  703   718     1
  704   707     1
  704   708     1
  704   709     1
  704   721     1
  704   722     1
  704   726     1
  705   706     1
  705   719     1
  705   720     1
  706   718     1
  710   714     1
  710   715     1
  710   716     1
  711   713     1
  712   713     1
  714   717     1
  715   717     1
  718   723     1
  718   724     1
  718   725     1
  718   727     1
  718   728     1
  719   721     1
  719   722     1
  719   726     1
  720   729     1
  720   730     1
  721   723     1
  721   724     1
  721   725     1
  721   727     1
  721   728     1
  722   727     1
  722   728     1
  723   726     1
  724   726     1
  725   726     1
  726   731     1
  726   732     1
  726   737     1
  727   729     1
  727   730     1
  728   733     1
  728   734     1
  728   738     1
  728   739     1
  728   740     1
  729   731     1
  729   732     1
  729   737     1
  730   735     1
  730   736     1
  730   741     1
  730   742     1
  730   743     1
  731   733     1
  731   734     1
  731   738     1
  731   739     1
  731   740     1
  732   738     1
  732   739     1
  732   740     1
  733   735     1
  733   736     1
  733   737     1
  734   737     1
  737   744     1
  737   745     1
  738   741     1
  738   742     1
  738   743     1
  739   741     1
  739   742     1
  739   743     1
  740   746     1
  740   747     1
  741   744     1
  741   745     1
  742   744     1
  742   745     1
  743   748     1
  743   749     1
  743   765     1
  744   746     1
  744   747     1
  745   750     1
  745   751     1
  745   752     1
  745   766     1
  745   767     1
  746   748     1
  746   749     1
  746   765     1
  747   753     1
  747   754     1
  747   755     1
  747   768     1
  747   769     1
  748   750     1
  748   751     1
  748   752     1
  748   766     1
  748   767     1
  749   756     1
  749   757     1
  749   758     1
  749   766     1
  749   767     1
  750   753     1
  750   754     1
  750   755     1
  750   765     1
  751   753     1
  751   754     1
  751   755     1
  751   765     1
  752   759     1
  752   760     1
  752   761     1
  752   765     1
  753   756     1
  753   757     1
  753   758     1
  754   756     1
  754   757     1
  754   758     1
  755   762     1
  755   763     1
  755   764     1
  756   759     1
  756   760     1
  756   761     1
  757   759     1
  757   760     1
  757   761     1
  759   762     1
  759   763     1
  759   764     1
  760   762     1
  760   763     1
  760   764     1
  765   770     1
  765   771     1
  765   775     1
  766   768     1
  766   769     1
  767   772     1
  767   773     1
  767   774     1
  767   776     1
  767   777     1
  768   770     1
  768   771     1
  768   775     1
  769   778     1
  769   779     1
  770   772     1
  770   773     1
  770   774     1
  770   776     1
  770   777     1
  771   776     1
  771   777     1
  772   775     1
  773   775     1
  774   775     1
  775   780     1
  775   781     1
  775   785     1
  776   778     1
  776   779     1
  777   782     1
  777   783     1
  777   784     1
  777   786     1
  777   787     1
  778   780     1
  778   781     1
  778   785     1
  780   782     1
  780   783     1
  780   784     1
  780   786     1
  780   787     1
  781   786     1
  781   787     1
  782   785     1
  783   785     1
  784   785     1
  788   791     1
  788   796     1
  788   797     1
  788   804     1
  788   805     1
  788   807     1
  788   810     1
  788   817     1
  788   830     1
  788   842     1
  789   790     1
  789   794     1
  789   795     1
  789   803     1
  789   841     1
  790   793     1
  790   804     1
  790   805     1
  790   814     1
  790   843     1
  791   803     1
  791   808     1
  791   809     1
  791   811     1
  791   812     1
  791   813     1
  792   794     1
  792   795     1
  792   803     1
  792   808     1
  792   809     1
  792   811     1
  792   812     1
  792   813     1
  792   841     1
  793   798     1
  793   799     1
  793   806     1
  793   808     1
  793   809     1
  793   841     1
  794   796     1
  794   797     1
  794   804     1
  794   805     1
  794   807     1
  794   843     1
  795   800     1
  795   801     1
  795   802     1
  795   804     1
  795   805     1
  795   807     1
  795   843     1
  796   798     1
  796   799     1
  796   803     1
  797   803     1
  798   800     1
  798   801     1
  798   802     1
  803   810     1
  803   843     1
  804   806     1
  804   808     1
  804   809     1
  805   808     1
  805   809     1
  806   807     1
  807   811     1
  807   812     1
  807   813     1
  808   810     1
  809   810     1
  811   814     1
  812   814     1
  815   818     1
  815   823     1
  815   824     1
  815   831     1
  815   832     1
  815   841     1
  815   844     1
  815   921     1
  815   934     1
  815   939     1
  816   817     1
  816   821     1
  816   822     1
  816   830     1
  816   938     1
  817   820     1
  817   831     1
  817   832     1
  817   848     1
  817   940     1
  818   830     1
  818   842     1
  818   843     1
  818   845     1
  818   846     1
  818   847     1
  819   821     1
  819   822     1
  819   830     1
  819   842     1
  819   843     1
  819   845     1
  819   846     1
  819   847     1
  819   938     1
  820   825     1
  820   826     1
  820   833     1
  820   842     1
  820   843     1
  820   938     1
  821   823     1
  821   824     1
  821   831     1
  821   832     1
  821   841     1
  821   940     1
  822   827     1
  822   828     1
  822   829     1
  822   831     1
  822   832     1
  822   841     1
  822   940     1
  823   825     1
  823   826     1
  823   830     1
  824   830     1
  825   827     1
  825   828     1
  825   829     1
  830   834     1
  830   835     1
  830   837     1
  830   844     1
  830   940     1
  831   833     1
  831   842     1
  831   843     1
  832   836     1
  832   838     1
  832   839     1
  832   840     1
  832   842     1
  832   843     1
  832   849     1
  833   841     1
  833   850     1
  833   851     1
  834   836     1
  834   838     1
  834   839     1
  834   840     1
  834   849     1
  835   838     1
  835   839     1
  835   840     1
  835   852     1
  835   853     1
  835   857     1
  836   837     1
  836   850     1
  836   851     1
  837   849     1
  841   845     1
  841   846     1
  841   847     1
  842   844     1
  843   844     1
  845   848     1
  846   848     1
  849   854     1
  849   855     1
  849   856     1
  849   858     1
  849   859     1
  850   852     1
  850   853     1
  850   857     1
  851   860     1
  851   861     1
  852   854     1
  852   855     1
  852   856     1
  852   858     1
  852   859     1
  853   858     1
  853   859     1
  854   857     1
  855   857     1
  856   857     1
  857   862     1
  857   863     1
  857   868     1
  858   860     1
  858   861     1
  859   864     1
  859   865     1
  859   869     1
  859   870     1
  859   871     1
  860   862     1
  860   863     1
  860   868     1
  861   866     1
  861   867     1
  861   872     1
  861   873     1
  861   874     1
  862   864     1
  862   865     1
  862   869     1
  862   870     1
  862   871     1
  863   869     1
  863   870     1
  863   871     1
  864   866     1
  864   867     1
  864   868     1
  865   868     1
  868   875     1
  868   876     1
  869   872     1
  869   873     1
  869   874     1
  870   872     1
  870   873     1
  870   874     1
  871   877     1
  871   878     1
  872   875     1
  872   876     1
  873   875     1
  873   876     1
  874   879     1
  874   880     1
  874   896     1
  875   877     1
  875   878     1
  876   881     1
  876   882     1
  876   883     1
  876   897     1
  876   898     1
  877   879     1
  877   880     1
  877   896     1
  878   884     1
  878   885     1
  878   886     1
  878   899     1
  878   900     1
  879   881     1
  879   882     1
  879   883     1
  879   897     1
  879   898     1
  880   887     1
  880   888     1
  880   889     1
  880   897     1
  880   898     1
  881   884     1
  881   885     1
  881   886     1
  881   896     1
  882   884     1
  882   885     1
  882   886     1
  882   896     1
  883   890     1
  883   891     1
  883   892     1
  883   896     1
  884   887     1
  884   888     1
  884   889     1
  885   887     1
  885   888     1
  885   889     1
  886   893     1
  886   894     1
  886   895     1
  887   890     1
  887   891     1
  887   892     1
  888   890     1
  888   891     1
  888   892     1
  890   893     1
  890   894     1
  890   895     1
  891   893     1
  891   894     1
  891   895     1
  896   901     1
  896   902     1
  896   906     1
  897   899     1
  897   900     1
  898   903     1
  898   904     1
  898   905     1
  898   907     1
  898   908     1
  899   901     1
  899   902     1
  899   906     1
  900   909     1
  900   910     1
  901   903     1
  901   904     1
  901   905     1
  901   907     1
  901   908     1
  902   907     1
  902   908     1
  903   906     1
  904   906     1
  905   906     1
  906   911     1
  906   912     1
  906   916     1
  907   909     1
  907   910     1
  908   913     1
  908   914     1
  908   915     1
  908   917     1
  908   918     1
  909   911     1
  909   912     1
  909   916     1
  911   913     1
  911   914     1
  911   915     1
  911   917     1
  911   918     1
  912   917     1
  912   918     1
  913   916     1
  914   916     1
  915   916     1
  919   922     1
  919   927     1
  919   928     1
  919   935     1
  919   936     1
  919   938     1
  919   941     1
  919   950     1
  919   963     1
  919   975     1
  920   921     1
  920   925     1
  920   926     1
  920   934     1
  920   974     1
  921   924     1
  921   935     1
  921   936     1
  921   945     1
  921   976     1
  922   934     1
  922   939     1
  922   940     1
  922   942     1
  922   943     1
  922   944     1
  923   925     1
  923   926     1
  923   934     1
  923   939     1
  923   940     1
  923   942     1
  923   943     1
  923   944     1
  923   974     1
  924   929     1
  924   930     1
  924   937     1
  924   939     1
  924   940     1
  924   974     1
  925   927     1
  925   928     1
  925   935     1
  925   936     1
  925   938     1
  925   976     1
  926   931     1
  926   932     1
  926   933     1
  926   935     1
  926   936     1
  926   938     1
  926   976     1
  927   929     1
  927   930     1
  927   934     1
  928   934     1
  929   931     1
  929   932     1
  929   933     1
  934   941     1
  934   976     1
  935   937     1
  935   939     1
  935   940     1
  936   939     1
  936   940     1
  937   938     1
  938   942     1
  938   943     1
  938   944     1
  939   941     1
  940   941     1
  942   945     1
  943   945     1
  946   951     1
  946   956     1
  946   957     1
  946   964     1
  946   965     1
  946   974     1
  946   977     1
  947   949     1
  947   950     1
  947   954     1
  947   955     1
  947   963     1
  948   950     1
  948   954     1
  948   955     1
  948   963     1
  949   952     1
  949   953     1
  950   953     1
  950   964     1
  950   965     1
  950   981     1
  951   963     1
  951   975     1
  951   976     1
  951   978     1
  951   979     1
  951   980     1
  952   954     1
  952   955     1
  952   963     1
  952   975     1
  952   976     1
  952   978     1
  952   979     1
  952   980     1
  953   958     1
  953   959     1
  953   966     1
  953   975     1
  953   976     1
  954   956     1
  954   957     1
  954   964     1
  954   965     1
  954   974     1
  955   960     1
  955   961     1
  955   962     1
  955   964     1
  955   965     1
  955   974     1
  956   958     1
  956   959     1
  956   963     1
  957   963     1
  958   960     1
  958   961     1
  958   962     1
  963   967     1
  963   968     1
  963   970     1
  963   977     1
  964   966     1
  964   975     1
  964   976     1
  965   969     1
  965   971     1
  965   972     1
  965   973     1
  965   975     1
  965   976     1
  965   982     1
  966   974     1
  966   983     1
  966   984     1
  967   969     1
  967   971     1
  967   972     1
  967   973     1
  967   982     1
  968   971     1
  968   972     1
  968   973     1
  968   985     1
  968   986     1
  968   990     1
  969   970     1
  969   983     1
  969   984     1
  970   982     1
  974   978     1
  974   979     1
  974   980     1
  975   977     1
  976   977     1
  978   981     1
  979   981     1
  982   987     1
  982   988     1
  982   989     1
  982   991     1
  982   992     1
  983   985     1
  983   986     1
  983   990     1
  984   993     1
  984   994     1
  985   987     1
  985   988     1
  985   989     1
  985   991     1
  985   992     1
  986   991     1
  986   992     1
  987   990     1
  988   990     1
  989   990     1
  990   995     1
  990   996     1
  990  1001     1
  991   993     1
  991   994     1
  992   997     1
  992   998     1
  992  1002     1
  992  1003     1
  992  1004     1
  993   995     1
  993   996     1
  993  1001     1
  994   999     1
  994  1000     1
  994  1005     1
  994  1006     1
  994  1007     1
  995   997     1
  995   998     1
  995  1002     1
  995  1003     1
  995  1004     1
  996  1002     1
  996  1003     1
  996  1004     1
  997   999     1
  997  1000     1
  997  1001     1
  998  1001     1
 1001  1008     1
 1001  1009     1
 1002  1005     1
 1002  1006     1
 1002  1007     1
 1003  1005     1
 1003  1006     1
 1003  1007     1
 1004  1010     1
 1004  1011     1
 1005  1008     1
 1005  1009     1
 1006  1008     1
 1006  1009     1
 1007  1012     1
 1007  1013     1
 1007  1029     1
 1008  1010     1
 1008  1011     1
 1009  1014     1
 1009  1015     1
 1009  1016     1
 1009  1030     1
 1009  1031     1
 1010  1012     1
 1010  1013     1
 1010  1029     1
 1011  1017     1
 1011  1018     1
 1011  1019     1
 1011  1032     1
 1011  1033     1
 1012  1014     1
 1012  1015     1
 1012  1016     1
 1012  1030     1
 1012  1031     1
 1013  1020     1
 1013  1021     1
 1013  1022     1
 1013  1030     1
 1013  1031     1
 1014  1017     1
 1014  1018     1
 1014  1019     1
 1014  1029     1
 1015  1017     1
 1015  1018     1
 1015  1019     1
 1015  1029     1
 1016  1023     1
 1016  1024     1
 1016  1025     1
 1016  1029     1
 1017  1020     1
 1017  1021     1
 1017  1022     1
 1018  1020     1
 1018  1021     1
 1018  1022     1
 1019  1026     1
 1019  1027     1
 1019  1028     1
 1020  1023     1
 1020  1024     1
 1020  1025     1
 1021  1023     1
 1021  1024     1
 1021  1025     1
 1023  1026     1
 1023  1027     1
 1023  1028     1
 1024  1026     1
 1024  1027     1
 1024  1028     1
 1029  1034     1
 1029  1035     1
 1029  1039     1
 1030  1032     1
 1030  1033     1
 1031  1036     1
 1031  1037     1
 1031  1038     1
 1031  1040     1
 1031  1041     1
 1032  1034     1
 1032  1035     1
 1032  1039     1
 1033  1042     1
 1033  1043     1
 1034  1036     1
 1034  1037     1
 1034  1038     1
 1034  1040     1
 1034  1041     1
 1035  1040     1
 1035  1041     1
 1036  1039     1
 1037  1039     1
 1038  1039     1
 1039  1044     1
 1039  1045     1
 1039  1049     1
 1040  1042     1
 1040  1043     1
 1041  1046     1
 1041  1047     1
 1041  1048     1
 1041  1050     1
 1041  1051     1
 1042  1044     1
 1042  1045     1
 1042  1049     1
 1044  1046     1
 1044  1047     1
 1044  1048     1
 1044  1050     1
 1044  1051     1
 1045  1050     1
 1045  1051     1
 1046  1049     1
 1047  1049     1
 1048  1049     1

[ angles ]
; i    j   k   func
    1     5     3     5
    1     6     7     5
    1     6     8     5
    1     6    16     5
    1    57    55     5
    2     1     5     5
    2     1     6     5
    2     1    57     5
    3    20    16     5
    3    20    21     5
    3    20    22     5
    3    24    25     5
    3    24    26     5
    3    24    27     5
    4     3     5     5
    4     3    20     5
    4     3    24     5
    5     1     6     5
    5     1    57     5
    5     3    20     5
    5     3    24     5
    6     1    57     5
    6     8     9     5
    6     8    10     5
    6    16    17     5
    6    16    18     5
    6    16    20     5
    7     6     8     5
    7     6    16     5
    8     6    16     5
    8    10    11     5
    8    10    12     5
    9     8    10     5
   10    12    13     5
   10    12    14     5
   10    12    15     5
   11    10    12     5
   13    12    14     5
   13    12    15     5
   14    12    15     5
   16    18    19     5
   16    20    21     5
   16    20    22     5
   17    16    18     5
   17    16    20     5
   18    16    20     5
   20     3    24     5
   20    22    23     5
   21    20    22     5
   24    27    28     5
   25    24    26     5
   25    24    27     5
   26    24    27     5
   29    33    31     5
   29    34    35     5
   29    34    36     5
   29    34    44     5
   29   154   152     5
   30    29    33     5
   30    29    34     5
   30    29   154     5
   31    55    44     5
   31    55    56     5
   31    55    57     5
   31    58    59     5
   31    58    60     5
   31    58    61     5
   32    31    33     5
   32    31    55     5
   32    31    58     5
   33    29    34     5
   33    29   154     5
   33    31    55     5
   33    31    58     5
   34    29   154     5
   34    36    37     5
   34    36    38     5
   34    44    45     5
   34    44    46     5
   34    44    55     5
   35    34    36     5
   35    34    44     5
   36    34    44     5
   36    38    39     5
   36    38    40     5
   37    36    38     5
   38    40    41     5
   38    40    42     5
   38    40    43     5
   39    38    40     5
   41    40    42     5
   41    40    43     5
   42    40    43     5
   44    46    47     5
   44    55    56     5
   44    55    57     5
   45    44    46     5
   45    44    55     5
   46    44    55     5
   46    47    48     5
   46    47    49     5
   46    47    51     5
   47    49    50     5
   47    49    63     5
   47    51    52     5
   47    51    53     5
   47    51    54     5
   48    47    49     5
   48    47    51     5
   49    47    51     5
   49    63    64     5
   49    63    65     5
   50    49    63     5
   52    51    53     5
   52    51    54     5
   53    51    54     5
   55    31    58     5
   56    55    57     5
   58    61    62     5
   59    58    60     5
   59    58    61     5
   60    58    61     5
   63    65    66     5
   63    65    67     5
   63    65    71     5
   64    63    65     5
   65    67    68     5
   65    67    69     5
   65    67    70     5
   65    71    72     5
   65    71    73     5
   66    65    67     5
   66    65    71     5
   67    65    71     5
   68    67    69     5
   68    67    70     5
   69    67    70     5
   71    73    74     5
   71    73    75     5
   72    71    73     5
   73    75    76     5
   73    75    77     5
   73    75    82     5
   74    73    75     5
   75    77    78     5
   75    77    79     5
   75    82    83     5
   75    82    84     5
   75    82    85     5
   76    75    77     5
   76    75    82     5
   77    75    82     5
   77    79    80     5
   77    79    81     5
   78    77    79     5
   80    79    81     5
   82    85    86     5
   82    85    87     5
   82    85    88     5
   83    82    84     5
   83    82    85     5
   84    82    85     5
   85    88    89     5
   85    88    90     5
   86    85    87     5
   86    85    88     5
   87    85    88     5
   88    90    91     5
   88    90    92     5
   89    88    90     5
   90    92    93     5
   90    92    94     5
   90    92   110     5
   91    90    92     5
   92    94    95     5
   92    94    96     5
   92    94    97     5
   92   110   111     5
   92   110   112     5
   93    92    94     5
   93    92   110     5
   94    92   110     5
   94    97    98     5
   94    97    99     5
   94    97   100     5
   95    94    96     5
   95    94    97     5
   96    94    97     5
   97   100   101     5
   97   100   102     5
   97   100   103     5
   98    97    99     5
   98    97   100     5
   99    97   100     5
  100   103   104     5
  100   103   105     5
  100   103   106     5
  101   100   102     5
  101   100   103     5
  102   100   103     5
  103   106   107     5
  103   106   108     5
  103   106   109     5
  104   103   105     5
  104   103   106     5
  105   103   106     5
  107   106   108     5
  107   106   109     5
  108   106   109     5
  110   112   113     5
  110   112   114     5
  111   110   112     5
  112   114   115     5
  112   114   116     5
  112   114   120     5
  113   112   114     5
  114   116   117     5
  114   116   118     5
  114   116   119     5
  114   120   121     5
  114   120   122     5
  115   114   116     5
  115   114   120     5
  116   114   120     5
  117   116   118     5
  117   116   119     5
  118   116   119     5
  120   122   123     5
  120   122   124     5
  121   120   122     5
  122   124   125     5
  122   124   126     5
  122   124   130     5
  123   122   124     5
  124   126   127     5
  124   126   128     5
  124   126   129     5
  124   130   131     5
  124   130   132     5
  125   124   126     5
  125   124   130     5
  126   124   130     5
  127   126   128     5
  127   126   129     5
  128   126   129     5
  131   130   132     5
  133   137   135     5
  133   138   139     5
  133   138   140     5
  133   138   148     5
  133   188   186     5
  134   133   137     5
  134   133   138     5
  134   133   188     5
  135   152   148     5
  135   152   153     5
  135   152   154     5
  135   155   156     5
  135   155   157     5
  135   155   158     5
  136   135   137     5
  136   135   152     5
  136   135   155     5
  137   133   138     5
  137   133   188     5
  137   135   152     5
  137   135   155     5
  138   133   188     5
  138   140   141     5
  138   140   142     5
  138   148   149     5
  138   148   150     5
  138   148   152     5
  139   138   140     5
  139   138   148     5
  140   138   148     5
  140   142   143     5
  140   142   144     5
  141   140   142     5
  142   144   145     5
  142   144   146     5
  142   144   147     5
  143   142   144     5
  145   144   146     5
  145   144   147     5
  146   144   147     5
  148   150   151     5
  148   152   153     5
  148   152   154     5
  149   148   150     5
  149   148   152     5
  150   148   152     5
  152   135   155     5
  153   152   154     5
  155   158   159     5
  156   155   157     5
  156   155   158     5
  157   155   158     5
  160   164   162     5
  160   165   166     5
  160   165   167     5
  160   165   175     5
  160   285   283     5
  161   160   164     5
  161   160   165     5
  161   160   285     5
  162   186   175     5
  162   186   187     5
  162   186   188     5
  162   189   190     5
  162   189   191     5
  162   189   192     5
  163   162   164     5
  163   162   186     5
  163   162   189     5
  164   160   165     5
  164   160   285     5
  164   162   186     5
  164   162   189     5
  165   160   285     5
  165   167   168     5
  165   167   169     5
  165   175   176     5
  165   175   177     5
  165   175   186     5
  166   165   167     5
  166   165   175     5
  167   165   175     5
  167   169   170     5
  167   169   171     5
  168   167   169     5
  169   171   172     5
  169   171   173     5
  169   171   174     5
  170   169   171     5
  172   171   173     5
  172   171   174     5
  173   171   174     5
  175   177   178     5
  175   186   187     5
  175   186   188     5
  176   175   177     5
  176   175   186     5
  177   175   186     5
  177   178   179     5
  177   178   180     5
  177   178   182     5
  178   180   181     5
  178   180   194     5
  178   182   183     5
  178   182   184     5
  178   182   185     5
  179   178   180     5
  179   178   182     5
  180   178   182     5
  180   194   195     5
  180   194   196     5
  181   180   194     5
  183   182   184     5
  183   182   185     5
  184   182   185     5
  186   162   189     5
  187   186   188     5
  189   192   193     5
  190   189   191     5
  190   189   192     5
  191   189   192     5
  194   196   197     5
  194   196   198     5
  194   196   202     5
  195   194   196     5
  196   198   199     5
  196   198   200     5
  196   198   201     5
  196   202   203     5
  196   202   204     5
  197   196   198     5
  197   196   202     5
  198   196   202     5
  199   198   200     5
  199   198   201     5
  200   198   201     5
  202   204   205     5
  202   204   206     5
  203   202   204     5
  204   206   207     5
  204   206   208     5
  204   206   213     5
  205   204   206     5
  206   208   209     5
  206   208   210     5
  206   213   214     5
  206   213   215     5
  206   213   216     5
  207   206   208     5
  207   206   213     5
  208   206   213     5
  208   210   211     5
  208   210   212     5
  209   208   210     5
  211   210   212     5
  213   216   217     5
  213   216   218     5
  213   216   219     5
  214   213   215     5
  214   213   216     5
  215   213   216     5
  216   219   220     5
  216   219   221     5
  217   216   218     5
  217   216   219     5
  218   216   219     5
  219   221   222     5
  219   221   223     5
  220   219   221     5
  221   223   224     5
  221   223   225     5
  221   223   241     5
  222   221   223     5
  223   225   226     5
  223   225   227     5
  223   225   228     5
  223   241   242     5
  223   241   243     5
  224   223   225     5
  224   223   241     5
  225   223   241     5
  225   228   229     5
  225   228   230     5
  225   228   231     5
  226   225   227     5
  226   225   228     5
  227   225   228     5
  228   231   232     5
  228   231   233     5
  228   231   234     5
  229   228   230     5
  229   228   231     5
  230   228   231     5
  231   234   235     5
  231   234   236     5
  231   234   237     5
  232   231   233     5
  232   231   234     5
  233   231   234     5
  234   237   238     5
  234   237   239     5
  234   237   240     5
  235   234   236     5
  235   234   237     5
  236   234   237     5
  238   237   239     5
  238   237   240     5
  239   237   240     5
  241   243   244     5
  241   243   245     5
  242   241   243     5
  243   245   246     5
  243   245   247     5
  243   245   251     5
  244   243   245     5
  245   247   248     5
  245   247   249     5
  245   247   250     5
  245   251   252     5
  245   251   253     5
  246   245   247     5
  246   245   251     5
  247   245   251     5
  248   247   249     5
  248   247   250     5
  249   247   250     5
  251   253   254     5
  251   253   255     5
  252   251   253     5
  253   255   256     5
  253   255   257     5
  253   255   261     5
  254   253   255     5
  255   257   258     5
  255   257   259     5
  255   257   260     5
  255   261   262     5
  255   261   263     5
  256   255   257     5
  256   255   261     5
  257   255   261     5
  258   257   259     5
  258   257   260     5
  259   257   260     5
  262   261   263     5
  264   268   266     5
  264   269   270     5
  264   269   271     5
  264   269   279     5
  264   319   317     5
  265   264   268     5
  265   264   269     5
  265   264   319     5
  266   283   279     5
  266   283   284     5
  266   283   285     5
  266   286   287     5
  266   286   288     5
  266   286   289     5
  267   266   268     5
  267   266   283     5
  267   266   286     5
  268   264   269     5
  268   264   319     5
  268   266   283     5
  268   266   286     5
  269   264   319     5
  269   271   272     5
  269   271   273     5
  269   279   280     5
  269   279   281     5
  269   279   283     5
  270   269   271     5
  270   269   279     5
  271   269   279     5
  271   273   274     5
  271   273   275     5
  272   271   273     5
  273   275   276     5
  273   275   277     5
  273   275   278     5
  274   273   275     5
  276   275   277     5
  276   275   278     5
  277   275   278     5
  279   281   282     5
  279   283   284     5
  279   283   285     5
  280   279   281     5
  280   279   283     5
  281   279   283     5
  283   266   286     5
  284   283   285     5
  286   289   290     5
  287   286   288     5
  287   286   289     5
  288   286   289     5
  291   295   293     5
  291   296   297     5
  291   296   298     5
  291   296   306     5
  291   416   414     5
  292   291   295     5
  292   291   296     5
  292   291   416     5
  293   317   306     5
  293   317   318     5
  293   317   319     5
  293   320   321     5
  293   320   322     5
  293   320   323     5
  294   293   295     5
  294   293   317     5
  294   293   320     5
  295   291   296     5
  295   291   416     5
  295   293   317     5
  295   293   320     5
  296   291   416     5
  296   298   299     5
  296   298   300     5
  296   306   307     5
  296   306   308     5
  296   306   317     5
  297   296   298     5
  297   296   306     5
  298   296   306     5
  298   300   301     5
  298   300   302     5
  299   298   300     5
  300   302   303     5
  300   302   304     5
  300   302   305     5
  301   300   302     5
  303   302   304     5
  303   302   305     5
  304   302   305     5
  306   308   309     5
  306   317   318     5
  306   317   319     5
  307   306   308     5
  307   306   317     5
  308   306   317     5
  308   309   310     5
  308   309   311     5
  308   309   313     5
  309   311   312     5
  309   311   325     5
  309   313   314     5
  309   313   315     5
  309   313   316     5
  310   309   311     5
  310   309   313     5
  311   309   313     5
  311   325   326     5
  311   325   327     5
  312   311   325     5
  314   313   315     5
  314   313   316     5
  315   313   316     5
  317   293   320     5
  318   317   319     5
  320   323   324     5
  321   320   322     5
  321   320   323     5
  322   320   323     5
  325   327   328     5
  325   327   329     5
  325   327   333     5
  326   325   327     5
  327   329   330     5
  327   329   331     5
  327   329   332     5
  327   333   334     5
  327   333   335     5
  328   327   329     5
  328   327   333     5
  329   327   333     5
  330   329   331     5
  330   329   332     5
  331   329   332     5
  333   335   336     5
  333   335   337     5
  334   333   335     5
  335   337   338     5
  335   337   339     5
  335   337   344     5
  336   335   337     5
  337   339   340     5
  337   339   341     5
  337   344   345     5
  337   344   346     5
  337   344   347     5
  338   337   339     5
  338   337   344     5
  339   337   344     5
  339   341   342     5
  339   341   343     5
  340   339   341     5
  342   341   343     5
  344   347   348     5
  344   347   349     5
  344   347   350     5
  345   344   346     5
  345   344   347     5
  346   344   347     5
  347   350   351     5
  347   350   352     5
  348   347   349     5
  348   347   350     5
  349   347   350     5
  350   352   353     5
  350   352   354     5
  351   350   352     5
  352   354   355     5
  352   354   356     5
  352   354   372     5
  353   352   354     5
  354   356   357     5
  354   356   358     5
  354   356   359     5
  354   372   373     5
  354   372   374     5
  355   354   356     5
  355   354   372     5
  356   354   372     5
  356   359   360     5
  356   359   361     5
  356   359   362     5
  357   356   358     5
  357   356   359     5
  358   356   359     5
  359   362   363     5
  359   362   364     5
  359   362   365     5
  360   359   361     5
  360   359   362     5
  361   359   362     5
  362   365   366     5
  362   365   367     5
  362   365   368     5
  363   362   364     5
  363   362   365     5
  364   362   365     5
  365   368   369     5
  365   368   370     5
  365   368   371     5
  366   365   367     5
  366   365   368     5
  367   365   368     5
  369   368   370     5
  369   368   371     5
  370   368   371     5
  372   374   375     5
  372   374   376     5
  373   372   374     5
  374   376   377     5
  374   376   378     5
  374   376   382     5
  375   374   376     5
  376   378   379     5
  376   378   380     5
  376   378   381     5
  376   382   383     5
  376   382   384     5
  377   376   378     5
  377   376   382     5
  378   376   382     5
  379   378   380     5
  379   378   381     5
  380   378   381     5
  382   384   385     5
  382   384   386     5
  383   382   384     5
  384   386   387     5
  384   386   388     5
  384   386   392     5
  385   384   386     5
  386   388   389     5
  386   388   390     5
  386   388   391     5
  386   392   393     5
  386   392   394     5
  387   386   388     5
  387   386   392     5
  388   386   392     5
  389   388   390     5
  389   388   391     5
  390   388   391     5
  393   392   394     5
  395   399   397     5
  395   400   401     5
  395   400   402     5
  395   400   410     5
  395   450   448     5
  396   395   399     5
  396   395   400     5
  396   395   450     5
  397   414   410     5
  397   414   415     5
  397   414   416     5
  397   417   418     5
  397   417   419     5
  397   417   420     5
  398   397   399     5
  398   397   414     5
  398   397   417     5
  399   395   400     5
  399   395   450     5
  399   397   414     5
  399   397   417     5
  400   395   450     5
  400   402   403     5
  400   402   404     5
  400   410   411     5
  400   410   412     5
  400   410   414     5
  401   400   402     5
  401   400   410     5
  402   400   410     5
  402   404   405     5
  402   404   406     5
  403   402   404     5
  404   406   407     5
  404   406   408     5
  404   406   409     5
  405   404   406     5
  407   406   408     5
  407   406   409     5
  408   406   409     5
  410   412   413     5
  410   414   415     5
  410   414   416     5
  411   410   412     5
  411   410   414     5
  412   410   414     5
  414   397   417     5
  415   414   416     5
  417   420   421     5
  418   417   419     5
  418   417   420     5
  419   417   420     5
  422   426   424     5
  422   427   428     5
  422   427   429     5
  422   427   437     5
  422   547   545     5
  423   422   426     5
  423   422   427     5
  423   422   547     5
  424   448   437     5
  424   448   449     5
  424   448   450     5
  424   451   452     5
  424   451   453     5
  424   451   454     5
  425   424   426     5
  425   424   448     5
  425   424   451     5
  426   422   427     5
  426   422   547     5
  426   424   448     5
  426   424   451     5
  427   422   547     5
  427   429   430     5
  427   429   431     5
  427   437   438     5
  427   437   439     5
  427   437   448     5
  428   427   429     5
  428   427   437     5
  429   427   437     5
  429   431   432     5
  429   431   433     5
  430   429   431     5
  431   433   434     5
  431   433   435     5
  431   433   436     5
  432   431   433     5
  434   433   435     5
  434   433   436     5
  435   433   436     5
  437   439   440     5
  437   448   449     5
  437   448   450     5
  438   437   439     5
  438   437   448     5
  439   437   448     5
  439   440   441     5
  439   440   442     5
  439   440   444     5
  440   442   443     5
  440   442   456     5
  440   444   445     5
  440   444   446     5
  440   444   447     5
  441   440   442     5
  441   440   444     5
  442   440   444     5
  442   456   457     5
  442   456   458     5
  443   442   456     5
  445   444   446     5
  445   444   447     5
  446   444   447     5
  448   424   451     5
  449   448   450     5
  451   454   455     5
  452   451   453     5
  452   451   454     5
  453   451   454     5
  456   458   459     5
  456   458   460     5
  456   458   464     5
  457   456   458     5
  458   460   461     5
  458   460   462     5
  458   460   463     5
  458   464   465     5
  458   464   466     5
  459   458   460     5
  459   458   464     5
  460   458   464     5
  461   460   462     5
  461   460   463     5
  462   460   463     5
  464   466   467     5
  464   466   468     5
  465   464   466     5
  466   468   469     5
  466   468   470     5
  466   468   475     5
  467   466   468     5
  468   470   471     5
  468   470   472     5
  468   475   476     5
  468   475   477     5
  468   475   478     5
  469   468   470     5
  469   468   475     5
  470   468   475     5
  470   472   473     5
  470   472   474     5
  471   470   472     5
  473   472   474     5
  475   478   479     5
  475   478   480     5
  475   478   481     5
  476   475   477     5
  476   475   478     5
  477   475   478     5
  478   481   482     5
  478   481   483     5
  479   478   480     5
  479   478   481     5
  480   478   481     5
  481   483   484     5
  481   483   485     5
  482   481   483     5
  483   485   486     5
  483   485   487     5
  483   485   503     5
  484   483   485     5
  485   487   488     5
  485   487   489     5
  485   487   490     5
  485   503   504     5
  485   503   505     5
  486   485   487     5
  486   485   503     5
  487   485   503     5
  487   490   491     5
  487   490   492     5
  487   490   493     5
  488   487   489     5
  488   487   490     5
  489   487   490     5
  490   493   494     5
  490   493   495     5
  490   493   496     5
  491   490   492     5
  491   490   493     5
  492   490   493     5
  493   496   497     5
  493   496   498     5
  493   496   499     5
  494   493   495     5
  494   493   496     5
  495   493   496     5
  496   499   500     5
  496   499   501     5
  496   499   502     5
  497   496   498     5
  497   496   499     5
  498   496   499     5
  500   499   501     5
  500   499   502     5
  501   499   502     5
  503   505   506     5
  503   505   507     5
  504   503   505     5
  505   507   508     5
  505   507   509     5
  505   507   513     5
  506   505   507     5
  507   509   510     5
  507   509   511     5
  507   509   512     5
  507   513   514     5
  507   513   515     5
  508   507   509     5
  508   507   513     5
  509   507   513     5
  510   509   511     5
  510   509   512     5
  511   509   512     5
  513   515   516     5
  513   515   517     5
  514   513   515     5
  515   517   518     5
  515   517   519     5
  515   517   523     5
  516   515   517     5
  517   519   520     5
  517   519   521     5
  517   519   522     5
  517   523   524     5
  517   523   525     5
  518   517   519     5
  518   517   523     5
  519   517   523     5
  520   519   521     5
  520   519   522     5
  521   519   522     5
  524   523   525     5
  526   530   528     5
  526   531   532     5
  526   531   533     5
  526   531   541     5
  526   581   579     5
  527   526   530     5
  527   526   531     5
  527   526   581     5
  528   545   541     5
  528   545   546     5
  528   545   547     5
  528   548   549     5
  528   548   550     5
  528   548   551     5
  529   528   530     5
  529   528   545     5
  529   528   548     5
  530   526   531     5
  530   526   581     5
  530   528   545     5
  530   528   548     5
  531   526   581     5
  531   533   534     5
  531   533   535     5
  531   541   542     5
  531   541   543     5
  531   541   545     5
  532   531   533     5
  532   531   541     5
  533   531   541     5
  533   535   536     5
  533   535   537     5
  534   533   535     5
  535   537   538     5
  535   537   539     5
  535   537   540     5
  536   535   537     5
  538   537   539     5
  538   537   540     5
  539   537   540     5
  541   543   544     5
  541   545   546     5
  541   545   547     5
  542   541   543     5
  542   541   545     5
  543   541   545     5
  545   528   548     5
  546   545   547     5
  548   551   552     5
  549   548   550     5
  549   548   551     5
  550   548   551     5
  553   557   555     5
  553   558   559     5
  553   558   560     5
  553   558   568     5
  553   678   676     5
  554   553   557     5
  554   553   558     5
  554   553   678     5
  555   579   568     5
  555   579   580     5
  555   579   581     5
  555   582   583     5
  555   582   584     5
  555   582   585     5
  556   555   557     5
  556   555   579     5
  556   555   582     5
  557   553   558     5
  557   553   678     5
  557   555   579     5
  557   555   582     5
  558   553   678     5
  558   560   561     5
  558   560   562     5
  558   568   569     5
  558   568   570     5
  558   568   579     5
  559   558   560     5
  559   558   568     5
  560   558   568     5
  560   562   563     5
  560   562   564     5
  561   560   562     5
  562   564   565     5
  562   564   566     5
  562   564   567     5
  563   562   564     5
  565   564   566     5
  565   564   567     5
  566   564   567     5
  568   570   571     5
  568   579   580     5
  568   579   581     5
  569   568   570     5
  569   568   579     5
  570   568   579     5
  570   571   572     5
  570   571   573     5
  570   571   575     5
  571   573   574     5
  571   573   587     5
  571   575   576     5
  571   575   577     5
  571   575   578     5
  572   571   573     5
  572   571   575     5
  573   571   575     5
  573   587   588     5
  573   587   589     5
  574   573   587     5
  576   575   577     5
  576   575   578     5
  577   575   578     5
  579   555   582     5
  580   579   581     5
  582   585   586     5
  583   582   584     5
  583   582   585     5
  584   582   585     5
  587   589   590     5
  587   589   591     5
  587   589   595     5
  588   587   589     5
  589   591   592     5
  589   591   593     5
  589   591   594     5
  589   595   596     5
  589   595   597     5
  590   589   591     5
  590   589   595     5
  591   589   595     5
  592   591   593     5
  592   591   594     5
  593   591   594     5
  595   597   598     5
  595   597   599     5
  596   595   597     5
  597   599   600     5
  597   599   601     5
  597   599   606     5
  598   597   599     5
  599   601   602     5
  599   601   603     5
  599   606   607     5
  599   606   608     5
  599   606   609     5
  600   599   601     5
  600   599   606     5
  601   599   606     5
  601   603   604     5
  601   603   605     5
  602   601   603     5
  604   603   605     5
  606   609   610     5
  606   609   611     5
  606   609   612     5
  607   606   608     5
  607   606   609     5
  608   606   609     5
  609   612   613     5
  609   612   614     5
  610   609   611     5
  610   609   612     5
  611   609   612     5
  612   614   615     5
  612   614   616     5
  613   612   614     5
  614   616   617     5
  614   616   618     5
  614   616   634     5
  615   614   616     5
  616   618   619     5
  616   618   620     5
  616   618   621     5
  616   634   635     5
  616   634   636     5
  617   616   618     5
  617   616   634     5
  618   616   634     5
  618   621   622     5
  618   621   623     5
  618   621   624     5
  619   618   620     5
  619   618   621     5
  620   618   621     5
  621   624   625     5
  621   624   626     5
  621   624   627     5
  622   621   623     5
  622   621   624     5
  623   621   624     5
  624   627   628     5
  624   627   629     5
  624   627   630     5
  625   624   626     5
  625   624   627     5
  626   624   627     5
  627   630   631     5
  627   630   632     5
  627   630   633     5
  628   627   629     5
  628   627   630     5
  629   627   630     5
  631   630   632     5
  631   630   633     5
  632   630   633     5
  634   636   637     5
  634   636   638     5
  635   634   636     5
  636   638   639     5
  636   638   640     5
  636   638   644     5
  637   636   638     5
  638   640   641     5
  638   640   642     5
  638   640   643     5
  638   644   645     5
  638   644   646     5
  639   638   640     5
  639   638   644     5
  640   638   644     5
  641   640   642     5
  641   640   643     5
  642   640   643     5
  644   646   647     5
  644   646   648     5
  645   644   646     5
  646   648   649     5
  646   648   650     5
  646   648   654     5
  647   646   648     5
  648   650   651     5
  648   650   652     5
  648   650   653     5
  648   654   655     5
  648   654   656     5
  649   648   650     5
  649   648   654     5
  650   648   654     5
  651   650   652     5
  651   650   653     5
  652   650   653     5
  655   654   656     5
  657   661   659     5
  657   662   663     5
  657   662   664     5
  657   662   672     5
  657   712   710     5
  658   657   661     5
  658   657   662     5
  658   657   712     5
  659   676   672     5
  659   676   677     5
  659   676   678     5
  659   679   680     5
  659   679   681     5
  659   679   682     5
  660   659   661     5
  660   659   676     5
  660   659   679     5
  661   657   662     5
  661   657   712     5
  661   659   676     5
  661   659   679     5
  662   657   712     5
  662   664   665     5
  662   664   666     5
  662   672   673     5
  662   672   674     5
  662   672   676     5
  663   662   664     5
  663   662   672     5
  664   662   672     5
  664   666   667     5
  664   666   668     5
  665   664   666     5
  666   668   669     5
  666   668   670     5
  666   668   671     5
  667   666   668     5
  669   668   670     5
  669   668   671     5
  670   668   671     5
  672   674   675     5
  672   676   677     5
  672   676   678     5
  673   672   674     5
  673   672   676     5
  674   672   676     5
  676   659   679     5
  677   676   678     5
  679   682   683     5
  680   679   681     5
  680   679   682     5
  681   679   682     5
  684   688   686     5
  684   689   690     5
  684   689   691     5
  684   689   699     5
  684   809   807     5
  685   684   688     5
  685   684   689     5
  685   684   809     5
  686   710   699     5
  686   710   711     5
  686   710   712     5
  686   713   714     5
  686   713   715     5
  686   713   716     5
  687   686   688     5
  687   686   710     5
  687   686   713     5
  688   684   689     5
  688   684   809     5
  688   686   710     5
  688   686   713     5
  689   684   809     5
  689   691   692     5
  689   691   693     5
  689   699   700     5
  689   699   701     5
  689   699   710     5
  690   689   691     5
  690   689   699     5
  691   689   699     5
  691   693   694     5
  691   693   695     5
  692   691   693     5
  693   695   696     5
  693   695   697     5
  693   695   698     5
  694   693   695     5
  696   695   697     5
  696   695   698     5
  697   695   698     5
  699   701   702     5
  699   710   711     5
  699   710   712     5
  700   699   701     5
  700   699   710     5
  701   699   710     5
  701   702   703     5
  701   702   704     5
  701   702   706     5
  702   704   705     5
  702   704   718     5
  702   706   707     5
  702   706   708     5
  702   706   709     5
  703   702   704     5
  703   702   706     5
  704   702   706     5
  704   718   719     5
  704   718   720     5
  705   704   718     5
  707   706   708     5
  707   706   709     5
  708   706   709     5
  710   686   713     5
  711   710   712     5
  713   716   717     5
  714   713   715     5
  714   713   716     5
  715   713   716     5
  718   720   721     5
  718   720   722     5
  718   720   726     5
  719   718   720     5
  720   722   723     5
  720   722   724     5
  720   722   725     5
  720   726   727     5
  720   726   728     5
  721   720   722     5
  721   720   726     5
  722   720   726     5
  723   722   724     5
  723   722   725     5
  724   722   725     5
  726   728   729     5
  726   728   730     5
  727   726   728     5
  728   730   731     5
  728   730   732     5
  728   730   737     5
  729   728   730     5
  730   732   733     5
  730   732   734     5
  730   737   738     5
  730   737   739     5
  730   737   740     5
  731   730   732     5
  731   730   737     5
  732   730   737     5
  732   734   735     5
  732   734   736     5
  733   732   734     5
  735   734   736     5
  737   740   741     5
  737   740   742     5
  737   740   743     5
  738   737   739     5
  738   737   740     5
  739   737   740     5
  740   743   744     5
  740   743   745     5
  741   740   742     5
  741   740   743     5
  742   740   743     5
  743   745   746     5
  743   745   747     5
  744   743   745     5
  745   747   748     5
  745   747   749     5
  745   747   765     5
  746   745   747     5
  747   749   750     5
  747   749   751     5
  747   749   752     5
  747   765   766     5
  747   765   767     5
  748   747   749     5
  748   747   765     5
  749   747   765     5
  749   752   753     5
  749   752   754     5
  749   752   755     5
  750   749   751     5
  750   749   752     5
  751   749   752     5
  752   755   756     5
  752   755   757     5
  752   755   758     5
  753   752   754     5
  753   752   755     5
  754   752   755     5
  755   758   759     5
  755   758   760     5
  755   758   761     5
  756   755   757     5
  756   755   758     5
  757   755   758     5
  758   761   762     5
  758   761   763     5
  758   761   764     5
  759   758   760     5
  759   758   761     5
  760   758   761     5
  762   761   763     5
  762   761   764     5
  763   761   764     5
  765   767   768     5
  765   767   769     5
  766   765   767     5
  767   769   770     5
  767   769   771     5
  767   769   775     5
  768   767   769     5
  769   771   772     5
  769   771   773     5
  769   771   774     5
  769   775   776     5
  769   775   777     5
  770   769   771     5
  770   769   775     5
  771   769   775     5
  772   771   773     5
  772   771   774     5
  773   771   774     5
  775   777   778     5
  775   777   779     5
  776   775   777     5
  777   779   780     5
  777   779   781     5
  777   779   785     5
  778   777   779     5
  779   781   782     5
  779   781   783     5
  779   781   784     5
  779   785   786     5
  779   785   787     5
  780   779   781     5
  780   779   785     5
  781   779   785     5
  782   781   783     5
  782   781   784     5
  783   781   784     5
  786   785   787     5
  788   792   790     5
  788   793   794     5
  788   793   795     5
  788   793   803     5
  788   843   841     5
  789   788   792     5
  789   788   793     5
  789   788   843     5
  790   807   803     5
  790   807   808     5
  790   807   809     5
  790   810   811     5
  790   810   812     5
  790   810   813     5
  791   790   792     5
  791   790   807     5
  791   790   810     5
  792   788   793     5
  792   788   843     5
  792   790   807     5
  792   790   810     5
  793   788   843     5
  793   795   796     5
  793   795   797     5
  793   803   804     5
  793   803   805     5
  793   803   807     5
  794   793   795     5
  794   793   803     5
  795   793   803     5
  795   797   798     5
  795   797   799     5
  796   795   797     5
  797   799   800     5
  797   799   801     5
  797   799   802     5
  798   797   799     5
  800   799   801     5
  800   799   802     5
  801   799   802     5
  803   805   806     5
  803   807   808     5
  803   807   809     5
  804   803   805     5
  804   803   807     5
  805   803   807     5
  807   790   810     5
  808   807   809     5
  810   813   814     5
  811   810   812     5
  811   810   813     5
  812   810   813     5
  815   819   817     5
  815   820   821     5
  815   820   822     5
  815   820   830     5
  815   940   938     5
  816   815   819     5
  816   815   820     5
  816   815   940     5
  817   841   830     5
  817   841   842     5
  817   841   843     5
  817   844   845     5
  817   844   846     5
  817   844   847     5
  818   817   819     5
  818   817   841     5
  818   817   844     5
  819   815   820     5
  819   815   940     5
  819   817   841     5
  819   817   844     5
  820   815   940     5
  820   822   823     5
  820   822   824     5
  820   830   831     5
  820   830   832     5
  820   830   841     5
  821   820   822     5
  821   820   830     5
  822   820   830     5
  822   824   825     5
  822   824   826     5
  823   822   824     5
  824   826   827     5
  824   826   828     5
  824   826   829     5
  825   824   826     5
  827   826   828     5
  827   826   829     5
  828   826   829     5
  830   832   833     5
  830   841   842     5
  830   841   843     5
  831   830   832     5
  831   830   841     5
  832   830   841     5
  832   833   834     5
  832   833   835     5
  832   833   837     5
  833   835   836     5
  833   835   849     5
  833   837   838     5
  833   837   839     5
  833   837   840     5
  834   833   835     5
  834   833   837     5
  835   833   837     5
  835   849   850     5
  835   849   851     5
  836   835   849     5
  838   837   839     5
  838   837   840     5
  839   837   840     5
  841   817   844     5
  842   841   843     5
  844   847   848     5
  845   844   846     5
  845   844   847     5
  846   844   847     5
  849   851   852     5
  849   851   853     5
  849   851   857     5
  850   849   851     5
  851   853   854     5
  851   853   855     5
  851   853   856     5
  851   857   858     5
  851   857   859     5
  852   851   853     5
  852   851   857     5
  853   851   857     5
  854   853   855     5
  854   853   856     5
  855   853   856     5
  857   859   860     5
  857   859   861     5
  858   857   859     5
  859   861   862     5
  859   861   863     5
  859   861   868     5
  860   859   861     5
  861   863   864     5
  861   863   865     5
  861   868   869     5
  861   868   870     5
  861   868   871     5
  862   861   863     5
  862   861   868     5
  863   861   868     5
  863   865   866     5
  863   865   867     5
  864   863   865     5
  866   865   867     5
  868   871   872     5
  868   871   873     5
  868   871   874     5
  869   868   870     5
  869   868   871     5
  870   868   871     5
  871   874   875     5
  871   874   876     5
  872   871   873     5
  872   871   874     5
  873   871   874     5
  874   876   877     5
  874   876   878     5
  875   874   876     5
  876   878   879     5
  876   878   880     5
  876   878   896     5
  877   876   878     5
  878   880   881     5
  878   880   882     5
  878   880   883     5
  878   896   897     5
  878   896   898     5
  879   878   880     5
  879   878   896     5
  880   878   896     5
  880   883   884     5
  880   883   885     5
  880   883   886     5
  881   880   882     5
  881   880   883     5
  882   880   883     5
  883   886   887     5
  883   886   888     5
  883   886   889     5
  884   883   885     5
  884   883   886     5
  885   883   886     5
  886   889   890     5
  886   889   891     5
  886   889   892     5
  887   886   888     5
  887   886   889     5
  888   886   889     5
  889   892   893     5
  889   892   894     5
  889   892   895     5
  890   889   891     5
  890   889   892     5
  891   889   892     5
  893   892   894     5
  893   892   895     5
  894   892   895     5
  896   898   899     5
  896   898   900     5
  897   896   898     5
  898   900   901     5
  898   900   902     5
  898   900   906     5
  899   898   900     5
  900   902   903     5
  900   902   904     5
  900   902   905     5
  900   906   907     5
  900   906   908     5
  901   900   902     5
  901   900   906     5
  902   900   906     5
  903   902   904     5
  903   902   905     5
  904   902   905     5
  906   908   909     5
  906   908   910     5
  907   906   908     5
  908   910   911     5
  908   910   912     5
  908   910   916     5
  909   908   910     5
  910   912   913     5
  910   912   914     5
  910   912   915     5
  910   916   917     5
  910   916   918     5
  911   910   912     5
  911   910   916     5
  912   910   916     5
  913   912   914     5
  913   912   915     5
  914   912   915     5
  917   916   918     5
  919   923   921     5
  919   924   925     5
  919   924   926     5
  919   924   934     5
  919   976   974     5
  920   919   923     5
  920   919   924     5
  920   919   976     5
  921   938   934     5
  921   938   939     5
  921   938   940     5
  921   941   942     5
  921   941   943     5
  921   941   944     5
  922   921   923     5
  922   921   938     5
  922   921   941     5
  923   919   924     5
  923   919   976     5
  923   921   938     5
  923   921   941     5
  924   919   976     5
  924   926   927     5
  924   926   928     5
  924   934   935     5
  924   934   936     5
  924   934   938     5
  925   924   926     5
  925   924   934     5
  926   924   934     5
  926   928   929     5
  926   928   930     5
  927   926   928     5
  928   930   931     5
  928   930   932     5
  928   930   933     5
  929   928   930     5
  931   930   932     5
  931   930   933     5
  932   930   933     5
  934   936   937     5
  934   938   939     5
  934   938   940     5
  935   934   936     5
  935   934   938     5
  936   934   938     5
  938   921   941     5
  939   938   940     5
  941   944   945     5
  942   941   943     5
  942   941   944     5
  943   941   944     5
  946   948   949     5
  946   952   950     5
  946   953   954     5
  946   953   955     5
  946   953   963     5
  947   946   948     5
  947   946   952     5
  947   946   953     5
  948   946   952     5
  948   946   953     5
  950   974   963     5
  950   974   975     5
  950   974   976     5
  950   977   978     5
  950   977   979     5
  950   977   980     5
  951   950   952     5
  951   950   974     5
  951   950   977     5
  952   946   953     5
  952   950   974     5
  952   950   977     5
  953   955   956     5
  953   955   957     5
  953   963   964     5
  953   963   965     5
  953   963   974     5
  954   953   955     5
  954   953   963     5
  955   953   963     5
  955   957   958     5
  955   957   959     5
  956   955   957     5
  957   959   960     5
  957   959   961     5
  957   959   962     5
  958   957   959     5
  960   959   961     5
  960   959   962     5
  961   959   962     5
  963   965   966     5
  963   974   975     5
  963   974   976     5
  964   963   965     5
  964   963   974     5
  965   963   974     5
  965   966   967     5
  965   966   968     5
  965   966   970     5
  966   968   969     5
  966   968   982     5
  966   970   971     5
  966   970   972     5
  966   970   973     5
  967   966   968     5
  967   966   970     5
  968   966   970     5
  968   982   983     5
  968   982   984     5
  969   968   982     5
  971   970   972     5
  971   970   973     5
  972   970   973     5
  974   950   977     5
  975   974   976     5
  977   980   981     5
  978   977   979     5
  978   977   980     5
  979   977   980     5
  982   984   985     5
  982   984   986     5
  982   984   990     5
  983   982   984     5
  984   986   987     5
  984   986   988     5
  984   986   989     5
  984   990   991     5
  984   990   992     5
  985   984   986     5
  985   984   990     5
  986   984   990     5
  987   986   988     5
  987   986   989     5
  988   986   989     5
  990   992   993     5
  990   992   994     5
  991   990   992     5
  992   994   995     5
  992   994   996     5
  992   994  1001     5
  993   992   994     5
  994   996   997     5
  994   996   998     5
  994  1001  1002     5
  994  1001  1003     5
  994  1001  1004     5
  995   994   996     5
  995   994  1001     5
  996   994  1001     5
  996   998   999     5
  996   998  1000     5
  997   996   998     5
  999   998  1000     5
 1001  1004  1005     5
 1001  1004  1006     5
 1001  1004  1007     5
 1002  1001  1003     5
 1002  1001  1004     5
 1003  1001  1004     5
 1004  1007  1008     5
 1004  1007  1009     5
 1005  1004  1006     5
 1005  1004  1007     5
 1006  1004  1007     5
 1007  1009  1010     5
 1007  1009  1011     5
 1008  1007  1009     5
 1009  1011  1012     5
 1009  1011  1013     5
 1009  1011  1029     5
 1010  1009  1011     5
 1011  1013  1014     5
 1011  1013  1015     5
 1011  1013  1016     5
 1011  1029  1030     5
 1011  1029  1031     5
 1012  1011  1013     5
 1012  1011  1029     5
 1013  1011  1029     5
 1013  1016  1017     5
 1013  1016  1018     5
 1013  1016  1019     5
 1014  1013  1015     5
 1014  1013  1016     5
 1015  1013  1016     5
 1016  1019  1020     5
 1016  1019  1021     5
 1016  1019  1022     5
 1017  1016  1018     5
 1017  1016  1019     5
 1018  1016  1019     5
 1019  1022  1023     5
 1019  1022  1024     5
 1019  1022  1025     5
 1020  1019  1021     5
 1020  1019  1022     5
 1021  1019  1022     5
 1022  1025  1026     5
 1022  1025  1027     5
 1022  1025  1028     5
 1023  1022  1024     5
 1023  1022  1025     5
 1024  1022  1025     5
 1026  1025  1027     5
 1026  1025  1028     5
 1027  1025  1028     5
 1029  1031  1032     5
 1029  1031  1033     5
 1030  1029  1031     5
 1031  1033  1034     5
 1031  1033  1035     5
 1031  1033  1039     5
 1032  1031  1033     5
 1033  1035  1036     5
 1033  1035  1037     5
 1033  1035  1038     5
 1033  1039  1040     5
 1033  1039  1041     5
 1034  1033  1035     5
 1034  1033  1039     5
 1035  1033  1039     5
 1036  1035  1037     5
 1036  1035  1038     5
 1037  1035  1038     5
 1039  1041  1042     5
 1039  1041  1043     5
 1040  1039  1041     5
 1041  1043  1044     5
 1041  1043  1045     5
 1041  1043  1049     5
 1042  1041  1043     5
 1043  1045  1046     5
 1043  1045  1047     5
 1043  1045  1048     5
 1043  1049  1050     5
 1043  1049  1051     5
 1044  1043  1045     5
 1044  1043  1049     5
 1045  1043  1049     5
 1046  1045  1047     5
 1046  1045  1048     5
 1047  1045  1048     5
 1050  1049  1051     5

[ dihedrals ]
; i    j   k   l   func
    1     5     3     4     9
    1     5     3    20     9
    1     5     3    24     9
    1     6     8     9     9
    1     6     8    10     9
    1     6    16    17     9
    1     6    16    18     9
    1     6    16    20     9
    1    57    55    31     9
    1    57    55    44     9
    1    57    55    56     9
    2     1     5     3     9
    2     1     6     7     9
    2     1     6     8     9
    2     1     6    16     9
    2     1    57    55     9
    3     5     1     6     9
    3     5     1    57     9
    3    20    16     6     9
    3    20    16    17     9
    3    20    16    18     9
    3    20    22    23     9
    3    24    27    28     9
    4     3    20    16     9
    4     3    20    21     9
    4     3    20    22     9
    4     3    24    25     9
    4     3    24    26     9
    4     3    24    27     9
    5     1     6     7     9
    5     1     6     8     9
    5     1     6    16     9
    5     1    57    55     9
    5     3    20    16     9
    5     3    20    21     9
    5     3    20    22     9
    5     3    24    25     9
    5     3    24    26     9
    5     3    24    27     9
    6     1    57    55     9
    6     8    10    11     9
    6     8    10    12     9
    6    16    18    19     9
    6    16    20    21     9
    6    16    20    22     9
    7     6     1    57     9
    7     6     8     9     9
    7     6     8    10     9
    7     6    16    17     9
    7     6    16    18     9
    7     6    16    20     9
    8     6     1    57     9
    8     6    16    17     9
    8     6    16    18     9
    8     6    16    20     9
    8    10    12    13     9
    8    10    12    14     9
    8    10    12    15     9
    9     8     6    16     9
    9     8    10    11     9
    9     8    10    12     9
   10     8     6    16     9
   11    10    12    13     9
   11    10    12    14     9
   11    10    12    15     9
   16     6     1    57     9
   16    20     3    24     9
   16    20    22    23     9
   17    16    18    19     9
   17    16    20    21     9
   17    16    20    22     9
   18    16    20    21     9
   18    16    20    22     9
   19    18    16    20     9
   20     3    24    25     9
   20     3    24    26     9
   20     3    24    27     9
   21    20     3    24     9
   21    20    22    23     9
   22    20     3    24     9
   25    24    27    28     9
   26    24    27    28     9
   29    33    31    32     9
   29    33    31    55     9
   29    33    31    58     9
   29    34    36    37     9
   29    34    36    38     9
   29    34    44    45     9
   29    34    44    46     9
   29    34    44    55     9
   29   154   152   135     9
   29   154   152   148     9
   29   154   152   153     9
   30    29    33    31     9
   30    29    34    35     9
   30    29    34    36     9
   30    29    34    44     9
   30    29   154   152     9
   31    33    29    34     9
   31    33    29   154     9
   31    55    44    34     9
   31    55    44    45     9
   31    55    44    46     9
   31    58    61    62     9
   32    31    55    44     9
   32    31    55    56     9
   32    31    55    57     9
   32    31    58    59     9
   32    31    58    60     9
   32    31    58    61     9
   33    29    34    35     9
   33    29    34    36     9
   33    29    34    44     9
   33    29   154   152     9
   33    31    55    44     9
   33    31    55    56     9
   33    31    55    57     9
   33    31    58    59     9
   33    31    58    60     9
   33    31    58    61     9
   34    29   154   152     9
   34    36    38    39     9
   34    36    38    40     9
   34    44    46    47     9
   34    44    55    56     9
   34    44    55    57     9
   35    34    29   154     9
   35    34    36    37     9
   35    34    36    38     9
   35    34    44    45     9
   35    34    44    46     9
   35    34    44    55     9
   36    34    29   154     9
   36    34    44    45     9
   36    34    44    46     9
   36    34    44    55     9
   36    38    40    41     9
   36    38    40    42     9
   36    38    40    43     9
   37    36    34    44     9
   37    36    38    39     9
   37    36    38    40     9
   38    36    34    44     9
   39    38    40    41     9
   39    38    40    42     9
   39    38    40    43     9
   44    34    29   154     9
   44    46    47    48     9
   44    46    47    49     9
   44    46    47    51     9
   44    55    31    58     9
   45    44    46    47     9
   45    44    55    56     9
   45    44    55    57     9
   46    44    55    56     9
   46    44    55    57     9
   46    47    49    50     9
   46    47    49    63     9
   46    47    51    52     9
   46    47    51    53     9
   46    47    51    54     9
   47    46    44    55     9
   47    49    63    64     9
   47    49    63    65     9
   48    47    49    50     9
   48    47    49    63     9
   48    47    51    52     9
   48    47    51    53     9
   48    47    51    54     9
   49    47    51    52     9
   49    47    51    53     9
   49    47    51    54     9
   49    63    65    66     9
   49    63    65    67     9
   49    63    65    71     9
   50    49    47    51     9
   50    49    63    64     9
   50    49    63    65     9
   51    47    49    63     9
   55    31    58    59     9
   55    31    58    60     9
   55    31    58    61     9
   56    55    31    58     9
   57    55    31    58     9
   59    58    61    62     9
   60    58    61    62     9
   63    65    67    68     9
   63    65    67    69     9
   63    65    67    70     9
   63    65    71    72     9
   63    65    71    73     9
   64    63    65    66     9
   64    63    65    67     9
   64    63    65    71     9
   65    71    73    74     9
   65    71    73    75     9
   66    65    67    68     9
   66    65    67    69     9
   66    65    67    70     9
   66    65    71    72     9
   66    65    71    73     9
   67    65    71    72     9
   67    65    71    73     9
   68    67    65    71     9
   69    67    65    71     9
   70    67    65    71     9
   71    73    75    76     9
   71    73    75    77     9
   71    73    75    82     9
   72    71    73    74     9
   72    71    73    75     9
   73    75    77    78     9
   73    75    77    79     9
   73    75    82    83     9
   73    75    82    84     9
   73    75    82    85     9
   74    73    75    76     9
   74    73    75    77     9
   74    73    75    82     9
   75    77    79    80     9
   75    77    79    81     9
   75    82    85    86     9
   75    82    85    87     9
   75    82    85    88     9
   76    75    77    78     9
   76    75    77    79     9
   76    75    82    83     9
   76    75    82    84     9
   76    75    82    85     9
   77    75    82    83     9
   77    75    82    84     9
   77    75    82    85     9
   78    77    75    82     9
   78    77    79    80     9
   78    77    79    81     9
   79    77    75    82     9
   82    85    88    89     9
   82    85    88    90     9
   83    82    85    86     9
   83    82    85    87     9
   83    82    85    88     9
   84    82    85    86     9
   84    82    85    87     9
   84    82    85    88     9
   85    88    90    91     9
   85    88    90    92     9
   86    85    88    89     9
   86    85    88    90     9
   87    85    88    89     9
   87    85    88    90     9
   88    90    92    93     9
   88    90    92    94     9
   88    90    92   110     9
   89    88    90    91     9
   89    88    90    92     9
   90    92    94    95     9
   90    92    94    96     9
   90    92    94    97     9
   90    92   110   111     9
   90    92   110   112     9
   91    90    92    93     9
   91    90    92    94     9
   91    90    92   110     9
   92    94    97    98     9
   92    94    97    99     9
   92    94    97   100     9
   92   110   112   113     9
   92   110   112   114     9
   93    92    94    95     9
   93    92    94    96     9
   93    92    94    97     9
   93    92   110   111     9
   93    92   110   112     9
   94    92   110   111     9
   94    92   110   112     9
   94    97   100   101     9
   94    97   100   102     9
   94    97   100   103     9
   95    94    92   110     9
   95    94    97    98     9
   95    94    97    99     9
   95    94    97   100     9
   96    94    92   110     9
   96    94    97    98     9
   96    94    97    99     9
   96    94    97   100     9
   97    94    92   110     9
   97   100   103   104     9
   97   100   103   105     9
   97   100   103   106     9
   98    97   100   101     9
   98    97   100   102     9
   98    97   100   103     9
   99    97   100   101     9
   99    97   100   102     9
   99    97   100   103     9
  100   103   106   107     9
  100   103   106   108     9
  100   103   106   109     9
  101   100   103   104     9
  101   100   103   105     9
  101   100   103   106     9
  102   100   103   104     9
  102   100   103   105     9
  102   100   103   106     9
  104   103   106   107     9
  104   103   106   108     9
  104   103   106   109     9
  105   103   106   107     9
  105   103   106   108     9
  105   103   106   109     9
  110   112   114   115     9
  110   112   114   116     9
  110   112   114   120     9
  111   110   112   113     9
  111   110   112   114     9
  112   114   116   117     9
  112   114   116   118     9
  112   114   116   119     9
  112   114   120   121     9
  112   114   120   122     9
  113   112   114   115     9
  113   112   114   116     9
  113   112   114   120     9
  114   120   122   123     9
  114   120   122   124     9
  115   114   116   117     9
  115   114   116   118     9
  115   114   116   119     9
  115   114   120   121     9
  115   114   120   122     9
  116   114   120   121     9
  116   114   120   122     9
  117   116   114   120     9
  118   116   114   120     9
  119   116   114   120     9
  120   122   124   125     9
  120   122   124   126     9
  120   122   124   130     9
  121   120   122   123     9
  121   120   122   124     9
  122   124   126   127     9
  122   124   126   128     9
  122   124   126   129     9
  122   124   130   131     9
  122   124   130   132     9
  123   122   124   125     9
  123   122   124   126     9
  123   122   124   130     9
  125   124   126   127     9
  125   124   126   128     9
  125   124   126   129     9
  125   124   130   131     9
  125   124   130   132     9
  126   124   130   131     9
  126   124   130   132     9
  127   126   124   130     9
  128   126   124   130     9
  129   126   124   130     9
  133   137   135   136     9
  133   137   135   152     9
  133   137   135   155     9
  133   138   140   141     9
  133   138   140   142     9
  133   138   148   149     9
  133   138   148   150     9
  133   138   148   152     9
  133   188   186   162     9
  133   188   186   175     9
  133   188   186   187     9
  134   133   137   135     9
  134   133   138   139     9
  134   133   138   140     9
  134   133   138   148     9
  134   133   188   186     9
  135   137   133   138     9
  135   137   133   188     9
  135   152   148   138     9
  135   152   148   149     9
  135   152   148   150     9
  135   155   158   159     9
  136   135   152   148     9
  136   135   152   153     9
  136   135   152   154     9
  136   135   155   156     9
  136   135   155   157     9
  136   135   155   158     9
  137   133   138   139     9
  137   133   138   140     9
  137   133   138   148     9
  137   133   188   186     9
  137   135   152   148     9
  137   135   152   153     9
  137   135   152   154     9
  137   135   155   156     9
  137   135   155   157     9
  137   135   155   158     9
  138   133   188   186     9
  138   140   142   143     9
  138   140   142   144     9
  138   148   150   151     9
  138   148   152   153     9
  138   148   152   154     9
  139   138   133   188     9
  139   138   140   141     9
  139   138   140   142     9
  139   138   148   149     9
  139   138   148   150     9
  139   138   148   152     9
  140   138   133   188     9
  140   138   148   149     9
  140   138   148   150     9
  140   138   148   152     9
  140   142   144   145     9
  140   142   144   146     9
  140   142   144   147     9
  141   140   138   148     9
  141   140   142   143     9
  141   140   142   144     9
  142   140   138   148     9
  143   142   144   145     9
  143   142   144   146     9
  143   142   144   147     9
  148   138   133   188     9
  148   152   135   155     9
  149   148   150   151     9
  149   148   152   153     9
  149   148   152   154     9
  150   148   152   153     9
  150   148   152   154     9
  151   150   148   152     9
  152   135   155   156     9
  152   135   155   157     9
  152   135   155   158     9
  153   152   135   155     9
  154   152   135   155     9
  156   155   158   159     9
  157   155   158   159     9
  160   164   162   163     9
  160   164   162   186     9
  160   164   162   189     9
  160   165   167   168     9
  160   165   167   169     9
  160   165   175   176     9
  160   165   175   177     9
  160   165   175   186     9
  160   285   283   266     9
  160   285   283   279     9
  160   285   283   284     9
  161   160   164   162     9
  161   160   165   166     9
  161   160   165   167     9
  161   160   165   175     9
  161   160   285   283     9
  162   164   160   165     9
  162   164   160   285     9
  162   186   175   165     9
  162   186   175   176     9
  162   186   175   177     9
  162   189   192   193     9
  163   162   186   175     9
  163   162   186   187     9
  163   162   186   188     9
  163   162   189   190     9
  163   162   189   191     9
  163   162   189   192     9
  164   160   165   166     9
  164   160   165   167     9
  164   160   165   175     9
  164   160   285   283     9
  164   162   186   175     9
  164   162   186   187     9
  164   162   186   188     9
  164   162   189   190     9
  164   162   189   191     9
  164   162   189   192     9
  165   160   285   283     9
  165   167   169   170     9
  165   167   169   171     9
  165   175   177   178     9
  165   175   186   187     9
  165   175   186   188     9
  166   165   160   285     9
  166   165   167   168     9
  166   165   167   169     9
  166   165   175   176     9
  166   165   175   177     9
  166   165   175   186     9
  167   165   160   285     9
  167   165   175   176     9
  167   165   175   177     9
  167   165   175   186     9
  167   169   171   172     9
  167   169   171   173     9
  167   169   171   174     9
  168   167   165   175     9
  168   167   169   170     9
  168   167   169   171     9
  169   167   165   175     9
  170   169   171   172     9
  170   169   171   173     9
  170   169   171   174     9
  175   165   160   285     9
  175   177   178   179     9
  175   177   178   180     9
  175   177   178   182     9
  175   186   162   189     9
  176   175   177   178     9
  176   175   186   187     9
  176   175   186   188     9
  177   175   186   187     9
  177   175   186   188     9
  177   178   180   181     9
  177   178   180   194     9
  177   178   182   183     9
  177   178   182   184     9
  177   178   182   185     9
  178   177   175   186     9
  178   180   194   195     9
  178   180   194   196     9
  179   178   180   181     9
  179   178   180   194     9
  179   178   182   183     9
  179   178   182   184     9
  179   178   182   185     9
  180   178   182   183     9
  180   178   182   184     9
  180   178   182   185     9
  180   194   196   197     9
  180   194   196   198     9
  180   194   196   202     9
  181   180   178   182     9
  181   180   194   195     9
  181   180   194   196     9
  182   178   180   194     9
  186   162   189   190     9
  186   162   189   191     9
  186   162   189   192     9
  187   186   162   189     9
  188   186   162   189     9
  190   189   192   193     9
  191   189   192   193     9
  194   196   198   199     9
  194   196   198   200     9
  194   196   198   201     9
  194   196   202   203     9
  194   196   202   204     9
  195   194   196   197     9
  195   194   196   198     9
  195   194   196   202     9
  196   202   204   205     9
  196   202   204   206     9
  197   196   198   199     9
  197   196   198   200     9
  197   196   198   201     9
  197   196   202   203     9
  197   196   202   204     9
  198   196   202   203     9
  198   196   202   204     9
  199   198   196   202     9
  200   198   196   202     9
  201   198   196   202     9
  202   204   206   207     9
  202   204   206   208     9
  202   204   206   213     9
  203   202   204   205     9
  203   202   204   206     9
  204   206   208   209     9
  204   206   208   210     9
  204   206   213   214     9
  204   206   213   215     9
  204   206   213   216     9
  205   204   206   207     9
  205   204   206   208     9
  205   204   206   213     9
  206   208   210   211     9
  206   208   210   212     9
  206   213   216   217     9
  206   213   216   218     9
  206   213   216   219     9
  207   206   208   209     9
  207   206   208   210     9
  207   206   213   214     9
  207   206   213   215     9
  207   206   213   216     9
  208   206   213   214     9
  208   206   213   215     9
  208   206   213   216     9
  209   208   206   213     9
  209   208   210   211     9
  209   208   210   212     9
  210   208   206   213     9
  213   216   219   220     9
  213   216   219   221     9
  214   213   216   217     9
  214   213   216   218     9
  214   213   216   219     9
  215   213   216   217     9
  215   213   216   218     9
  215   213   216   219     9
  216   219   221   222     9
  216   219   221   223     9
  217   216   219   220     9
  217   216   219   221     9
  218   216   219   220     9
  218   216   219   221     9
  219   221   223   224     9
  219   221   223   225     9
  219   221   223   241     9
  220   219   221   222     9
  220   219   221   223     9
  221   223   225   226     9
  221   223   225   227     9
  221   223   225   228     9
  221   223   241   242     9
  221   223   241   243     9
  222   221   223   224     9
  222   221   223   225     9
  222   221   223   241     9
  223   225   228   229     9
  223   225   228   230     9
  223   225   228   231     9
  223   241   243   244     9
  223   241   243   245     9
  224   223   225   226     9
  224   223   225   227     9
  224   223   225   228     9
  224   223   241   242     9
  224   223   241   243     9
  225   223   241   242     9
  225   223   241   243     9
  225   228   231   232     9
  225   228   231   233     9
  225   228   231   234     9
  226   225   223   241     9
  226   225   228   229     9
  226   225   228   230     9
  226   225   228   231     9
  227   225   223   241     9
  227   225   228   229     9
  227   225   228   230     9
  227   225   228   231     9
  228   225   223   241     9
  228   231   234   235     9
  228   231   234   236     9
  228   231   234   237     9
  229   228   231   232     9
  229   228   231   233     9
  229   228   231   234     9
  230   228   231   232     9
  230   228   231   233     9
  230   228   231   234     9
  231   234   237   238     9
  231   234   237   239     9
  231   234   237   240     9
  232   231   234   235     9
  232   231   234   236     9
  232   231   234   237     9
  233   231   234   235     9
  233   231   234   236     9
  233   231   234   237     9
  235   234   237   238     9
  235   234   237   239     9
  235   234   237   240     9
  236   234   237   238     9
  236   234   237   239     9
  236   234   237   240     9
  241   243   245   246     9
  241   243   245   247     9
  241   243   245   251     9
  242   241   243   244     9
  242   241   243   245     9
  243   245   247   248     9
  243   245   247   249     9
  243   245   247   250     9
  243   245   251   252     9
  243   245   251   253     9
  244   243   245   246     9
  244   243   245   247     9
  244   243   245   251     9
  245   251   253   254     9
  245   251   253   255     9
  246   245   247   248     9
  246   245   247   249     9
  246   245   247   250     9
  246   245   251   252     9
  246   245   251   253     9
  247   245   251   252     9
  247   245   251   253     9
  248   247   245   251     9
  249   247   245   251     9
  250   247   245   251     9
  251   253   255   256     9
  251   253   255   257     9
  251   253   255   261     9
  252   251   253   254     9
  252   251   253   255     9
  253   255   257   258     9
  253   255   257   259     9
  253   255   257   260     9
  253   255   261   262     9
  253   255   261   263     9
  254   253   255   256     9
  254   253   255   257     9
  254   253   255   261     9
  256   255   257   258     9
  256   255   257   259     9
  256   255   257   260     9
  256   255   261   262     9
  256   255   261   263     9
  257   255   261   262     9
  257   255   261   263     9
  258   257   255   261     9
  259   257   255   261     9
  260   257   255   261     9
  264   268   266   267     9
  264   268   266   283     9
  264   268   266   286     9
  264   269   271   272     9
  264   269   271   273     9
  264   269   279   280     9
  264   269   279   281     9
  264   269   279   283     9
  264   319   317   293     9
  264   319   317   306     9
  264   319   317   318     9
  265   264   268   266     9
  265   264   269   270     9
  265   264   269   271     9
  265   264   269   279     9
  265   264   319   317     9
  266   268   264   269     9
  266   268   264   319     9
  266   283   279   269     9
  266   283   279   280     9
  266   283   279   281     9
  266   286   289   290     9
  267   266   283   279     9
  267   266   283   284     9
  267   266   283   285     9
  267   266   286   287     9
  267   266   286   288     9
  267   266   286   289     9
  268   264   269   270     9
  268   264   269   271     9
  268   264   269   279     9
  268   264   319   317     9
  268   266   283   279     9
  268   266   283   284     9
  268   266   283   285     9
  268   266   286   287     9
  268   266   286   288     9
  268   266   286   289     9
  269   264   319   317     9
  269   271   273   274     9
  269   271   273   275     9
  269   279   281   282     9
  269   279   283   284     9
  269   279   283   285     9
  270   269   264   319     9
  270   269   271   272     9
  270   269   271   273     9
  270   269   279   280     9
  270   269   279   281     9
  270   269   279   283     9
  271   269   264   319     9
  271   269   279   280     9
  271   269   279   281     9
  271   269   279   283     9
  271   273   275   276     9
  271   273   275   277     9
  271   273   275   278     9
  272   271   269   279     9
  272   271   273   274     9
  272   271   273   275     9
  273   271   269   279     9
  274   273   275   276     9
  274   273   275   277     9
  274   273   275   278     9
  279   269   264   319     9
  279   283   266   286     9
  280   279   281   282     9
  280   279   283   284     9
  280   279   283   285     9
  281   279   283   284     9
  281   279   283   285     9
  282   281   279   283     9
  283   266   286   287     9
  283   266   286   288     9
  283   266   286   289     9
  284   283   266   286     9
  285   283   266   286     9
  287   286   289   290     9
  288   286   289   290     9
  291   295   293   294     9
  291   295   293   317     9
  291   295   293   320     9
  291   296   298   299     9
  291   296   298   300     9
  291   296   306   307     9
  291   296   306   308     9
  291   296   306   317     9
  291   416   414   397     9
  291   416   414   410     9
  291   416   414   415     9
  292   291   295   293     9
  292   291   296   297     9
  292   291   296   298     9
  292   291   296   306     9
  292   291   416   414     9
  293   295   291   296     9
  293   295   291   416     9
  293   317   306   296     9
  293   317   306   307     9
  293   317   306   308     9
  293   320   323   324     9
  294   293   317   306     9
  294   293   317   318     9
  294   293   317   319     9
  294   293   320   321     9
  294   293   320   322     9
  294   293   320   323     9
  295   291   296   297     9
  295   291   296   298     9
  295   291   296   306     9
  295   291   416   414     9
  295   293   317   306     9
  295   293   317   318     9
  295   293   317   319     9
  295   293   320   321     9
  295   293   320   322     9
  295   293   320   323     9
  296   291   416   414     9
  296   298   300   301     9
  296   298   300   302     9
  296   306   308   309     9
  296   306   317   318     9
  296   306   317   319     9
  297   296   291   416     9
  297   296   298   299     9
  297   296   298   300     9
  297   296   306   307     9
  297   296   306   308     9
  297   296   306   317     9
  298   296   291   416     9
  298   296   306   307     9
  298   296   306   308     9
  298   296   306   317     9
  298   300   302   303     9
  298   300   302   304     9
  298   300   302   305     9
  299   298   296   306     9
  299   298   300   301     9
  299   298   300   302     9
  300   298   296   306     9
  301   300   302   303     9
  301   300   302   304     9
  301   300   302   305     9
  306   296   291   416     9
  306   308   309   310     9
  306   308   309   311     9
  306   308   309   313     9
  306   317   293   320     9
  307   306   308   309     9
  307   306   317   318     9
  307   306   317   319     9
  308   306   317   318     9
  308   306   317   319     9
  308   309   311   312     9
  308   309   311   325     9
  308   309   313   314     9
  308   309   313   315     9
  308   309   313   316     9
  309   308   306   317     9
  309   311   325   326     9
  309   311   325   327     9
  310   309   311   312     9
  310   309   311   325     9
  310   309   313   314     9
  310   309   313   315     9
  310   309   313   316     9
  311   309   313   314     9
  311   309   313   315     9
  311   309   313   316     9
  311   325   327   328     9
  311   325   327   329     9
  311   325   327   333     9
  312   311   309   313     9
  312   311   325   326     9
  312   311   325   327     9
  313   309   311   325     9
  317   293   320   321     9
  317   293   320   322     9
  317   293   320   323     9
  318   317   293   320     9
  319   317   293   320     9
  321   320   323   324     9
  322   320   323   324     9
  325   327   329   330     9
  325   327   329   331     9
  325   327   329   332     9
  325   327   333   334     9
  325   327   333   335     9
  326   325   327   328     9
  326   325   327   329     9
  326   325   327   333     9
  327   333   335   336     9
  327   333   335   337     9
  328   327   329   330     9
  328   327   329   331     9
  328   327   329   332     9
  328   327   333   334     9
  328   327   333   335     9
  329   327   333   334     9
  329   327   333   335     9
  330   329   327   333     9
  331   329   327   333     9
  332   329   327   333     9
  333   335   337   338     9
  333   335   337   339     9
  333   335   337   344     9
  334   333   335   336     9
  334   333   335   337     9
  335   337   339   340     9
  335   337   339   341     9
  335   337   344   345     9
  335   337   344   346     9
  335   337   344   347     9
  336   335   337   338     9
  336   335   337   339     9
  336   335   337   344     9
  337   339   341   342     9
  337   339   341   343     9
  337   344   347   348     9
  337   344   347   349     9
  337   344   347   350     9
  338   337   339   340     9
  338   337   339   341     9
  338   337   344   345     9
  338   337   344   346     9
  338   337   344   347     9
  339   337   344   345     9
  339   337   344   346     9
  339   337   344   347     9
  340   339   337   344     9
  340   339   341   342     9
  340   339   341   343     9
  341   339   337   344     9
  344   347   350   351     9
  344   347   350   352     9
  345   344   347   348     9
  345   344   347   349     9
  345   344   347   350     9
  346   344   347   348     9
  346   344   347   349     9
  346   344   347   350     9
  347   350   352   353     9
  347   350   352   354     9
  348   347   350   351     9
  348   347   350   352     9
  349   347   350   351     9
  349   347   350   352     9
  350   352   354   355     9
  350   352   354   356     9
  350   352   354   372     9
  351   350   352   353     9
  351   350   352   354     9
  352   354   356   357     9
  352   354   356   358     9
  352   354   356   359     9
  352   354   372   373     9
  352   354   372   374     9
  353   352   354   355     9
  353   352   354   356     9
  353   352   354   372     9
  354   356   359   360     9
  354   356   359   361     9
  354   356   359   362     9
  354   372   374   375     9
  354   372   374   376     9
  355   354   356   357     9
  355   354   356   358     9
  355   354   356   359     9
  355   354   372   373     9
  355   354   372   374     9
  356   354   372   373     9
  356   354   372   374     9
  356   359   362   363     9
  356   359   362   364     9
  356   359   362   365     9
  357   356   354   372     9
  357   356   359   360     9
  357   356   359   361     9
  357   356   359   362     9
  358   356   354   372     9
  358   356   359   360     9
  358   356   359   361     9
  358   356   359   362     9
  359   356   354   372     9
  359   362   365   366     9
  359   362   365   367     9
  359   362   365   368     9
  360   359   362   363     9
  360   359   362   364     9
  360   359   362   365     9
  361   359   362   363     9
  361   359   362   364     9
  361   359   362   365     9
  362   365   368   369     9
  362   365   368   370     9
  362   365   368   371     9
  363   362   365   366     9
  363   362   365   367     9
  363   362   365   368     9
  364   362   365   366     9
  364   362   365   367     9
  364   362   365   368     9
  366   365   368   369     9
  366   365   368   370     9
  366   365   368   371     9
  367   365   368   369     9
  367   365   368   370     9
  367   365   368   371     9
  372   374   376   377     9
  372   374   376   378     9
  372   374   376   382     9
  373   372   374   375     9
  373   372   374   376     9
  374   376   378   379     9
  374   376   378   380     9
  374   376   378   381     9
  374   376   382   383     9
  374   376   382   384     9
  375   374   376   377     9
  375   374   376   378     9
  375   374   376   382     9
  376   382   384   385     9
  376   382   384   386     9
  377   376   378   379     9
  377   376   378   380     9
  377   376   378   381     9
  377   376   382   383     9
  377   376   382   384     9
  378   376   382   383     9
  378   376   382   384     9
  379   378   376   382     9
  380   378   376   382     9
  381   378   376   382     9
  382   384   386   387     9
  382   384   386   388     9
  382   384   386   392     9
  383   382   384   385     9
  383   382   384   386     9
  384   386   388   389     9
  384   386   388   390     9
  384   386   388   391     9
  384   386   392   393     9
  384   386   392   394     9
  385   384   386   387     9
  385   384   386   388     9
  385   384   386   392     9
  387   386   388   389     9
  387   386   388   390     9
  387   386   388   391     9
  387   386   392   393     9
  387   386   392   394     9
  388   386   392   393     9
  388   386   392   394     9
  389   388   386   392     9
  390   388   386   392     9
  391   388   386   392     9
  395   399   397   398     9
  395   399   397   414     9
  395   399   397   417     9
  395   400   402   403     9
  395   400   402   404     9
  395   400   410   411     9
  395   400   410   412     9
  395   400   410   414     9
  395   450   448   424     9
  395   450   448   437     9
  395   450   448   449     9
  396   395   399   397     9
  396   395   400   401     9
  396   395   400   402     9
  396   395   400   410     9
  396   395   450   448     9
  397   399   395   400     9
  397   399   395   450     9
  397   414   410   400     9
  397   414   410   411     9
  397   414   410   412     9
  397   417   420   421     9
  398   397   414   410     9
  398   397   414   415     9
  398   397   414   416     9
  398   397   417   418     9
  398   397   417   419     9
  398   397   417   420     9
  399   395   400   401     9
  399   395   400   402     9
  399   395   400   410     9
  399   395   450   448     9
  399   397   414   410     9
  399   397   414   415     9
  399   397   414   416     9
  399   397   417   418     9
  399   397   417   419     9
  399   397   417   420     9
  400   395   450   448     9
  400   402   404   405     9
  400   402   404   406     9
  400   410   412   413     9
  400   410   414   415     9
  400   410   414   416     9
  401   400   395   450     9
  401   400   402   403     9
  401   400   402   404     9
  401   400   410   411     9
  401   400   410   412     9
  401   400   410   414     9
  402   400   395   450     9
  402   400   410   411     9
  402   400   410   412     9
  402   400   410   414     9
  402   404   406   407     9
  402   404   406   408     9
  402   404   406   409     9
  403   402   400   410     9
  403   402   404   405     9
  403   402   404   406     9
  404   402   400   410     9
  405   404   406   407     9
  405   404   406   408     9
  405   404   406   409     9
  410   400   395   450     9
  410   414   397   417     9
  411   410   412   413     9
  411   410   414   415     9
  411   410   414   416     9
  412   410   414   415     9
  412   410   414   416     9
  413   412   410   414     9
  414   397   417   418     9
  414   397   417   419     9
  414   397   417   420     9
  415   414   397   417     9
  416   414   397   417     9
  418   417   420   421     9
  419   417   420   421     9
  422   426   424   425     9
  422   426   424   448     9
  422   426   424   451     9
  422   427   429   430     9
  422   427   429   431     9
  422   427   437   438     9
  422   427   437   439     9
  422   427   437   448     9
  422   547   545   528     9
  422   547   545   541     9
  422   547   545   546     9
  423   422   426   424     9
  423   422   427   428     9
  423   422   427   429     9
  423   422   427   437     9
  423   422   547   545     9
  424   426   422   427     9
  424   426   422   547     9
  424   448   437   427     9
  424   448   437   438     9
  424   448   437   439     9
  424   451   454   455     9
  425   424   448   437     9
  425   424   448   449     9
  425   424   448   450     9
  425   424   451   452     9
  425   424   451   453     9
  425   424   451   454     9
  426   422   427   428     9
  426   422   427   429     9
  426   422   427   437     9
  426   422   547   545     9
  426   424   448   437     9
  426   424   448   449     9
  426   424   448   450     9
  426   424   451   452     9
  426   424   451   453     9
  426   424   451   454     9
  427   422   547   545     9
  427   429   431   432     9
  427   429   431   433     9
  427   437   439   440     9
  427   437   448   449     9
  427   437   448   450     9
  428   427   422   547     9
  428   427   429   430     9
  428   427   429   431     9
  428   427   437   438     9
  428   427   437   439     9
  428   427   437   448     9
  429   427   422   547     9
  429   427   437   438     9
  429   427   437   439     9
  429   427   437   448     9
  429   431   433   434     9
  429   431   433   435     9
  429   431   433   436     9
  430   429   427   437     9
  430   429   431   432     9
  430   429   431   433     9
  431   429   427   437     9
  432   431   433   434     9
  432   431   433   435     9
  432   431   433   436     9
  437   427   422   547     9
  437   439   440   441     9
  437   439   440   442     9
  437   439   440   444     9
  437   448   424   451     9
  438   437   439   440     9
  438   437   448   449     9
  438   437   448   450     9
  439   437   448   449     9
  439   437   448   450     9
  439   440   442   443     9
  439   440   442   456     9
  439   440   444   445     9
  439   440   444   446     9
  439   440   444   447     9
  440   439   437   448     9
  440   442   456   457     9
  440   442   456   458     9
  441   440   442   443     9
  441   440   442   456     9
  441   440   444   445     9
  441   440   444   446     9
  441   440   444   447     9
  442   440   444   445     9
  442   440   444   446     9
  442   440   444   447     9
  442   456   458   459     9
  442   456   458   460     9
  442   456   458   464     9
  443   442   440   444     9
  443   442   456   457     9
  443   442   456   458     9
  444   440   442   456     9
  448   424   451   452     9
  448   424   451   453     9
  448   424   451   454     9
  449   448   424   451     9
  450   448   424   451     9
  452   451   454   455     9
  453   451   454   455     9
  456   458   460   461     9
  456   458   460   462     9
  456   458   460   463     9
  456   458   464   465     9
  456   458   464   466     9
  457   456   458   459     9
  457   456   458   460     9
  457   456   458   464     9
  458   464   466   467     9
  458   464   466   468     9
  459   458   460   461     9
  459   458   460   462     9
  459   458   460   463     9
  459   458   464   465     9
  459   458   464   466     9
  460   458   464   465     9
  460   458   464   466     9
  461   460   458   464     9
  462   460   458   464     9
  463   460   458   464     9
  464   466   468   469     9
  464   466   468   470     9
  464   466   468   475     9
  465   464   466   467     9
  465   464   466   468     9
  466   468   470   471     9
  466   468   470   472     9
  466   468   475   476     9
  466   468   475   477     9
  466   468   475   478     9
  467   466   468   469     9
  467   466   468   470     9
  467   466   468   475     9
  468   470   472   473     9
  468   470   472   474     9
  468   475   478   479     9
  468   475   478   480     9
  468   475   478   481     9
  469   468   470   471     9
  469   468   470   472     9
  469   468   475   476     9
  469   468   475   477     9
  469   468   475   478     9
  470   468   475   476     9
  470   468   475   477     9
  470   468   475   478     9
  471   470   468   475     9
  471   470   472   473     9
  471   470   472   474     9
  472   470   468   475     9
  475   478   481   482     9
  475   478   481   483     9
  476   475   478   479     9
  476   475   478   480     9
  476   475   478   481     9
  477   475   478   479     9
  477   475   478   480     9
  477   475   478   481     9
  478   481   483   484     9
  478   481   483   485     9
  479   478   481   482     9
  479   478   481   483     9
  480   478   481   482     9
  480   478   481   483     9
  481   483   485   486     9
  481   483   485   487     9
  481   483   485   503     9
  482   481   483   484     9
  482   481   483   485     9
  483   485   487   488     9
  483   485   487   489     9
  483   485   487   490     9
  483   485   503   504     9
  483   485   503   505     9
  484   483   485   486     9
  484   483   485   487     9
  484   483   485   503     9
  485   487   490   491     9
  485   487   490   492     9
  485   487   490   493     9
  485   503   505   506     9
  485   503   505   507     9
  486   485   487   488     9
  486   485   487   489     9
  486   485   487   490     9
  486   485   503   504     9
  486   485   503   505     9
  487   485   503   504     9
  487   485   503   505     9
  487   490   493   494     9
  487   490   493   495     9
  487   490   493   496     9
  488   487   485   503     9
  488   487   490   491     9
  488   487   490   492     9
  488   487   490   493     9
  489   487   485   503     9
  489   487   490   491     9
  489   487   490   492     9
  489   487   490   493     9
  490   487   485   503     9
  490   493   496   497     9
  490   493   496   498     9
  490   493   496   499     9
  491   490   493   494     9
  491   490   493   495     9
  491   490   493   496     9
  492   490   493   494     9
  492   490   493   495     9
  492   490   493   496     9
  493   496   499   500     9
  493   496   499   501     9
  493   496   499   502     9
  494   493   496   497     9
  494   493   496   498     9
  494   493   496   499     9
  495   493   496   497     9
  495   493   496   498     9
  495   493   496   499     9
  497   496   499   500     9
  497   496   499   501     9
  497   496   499   502     9
  498   496   499   500     9
  498   496   499   501     9
  498   496   499   502     9
  503   505   507   508     9
  503   505   507   509     9
  503   505   507   513     9
  504   503   505   506     9
  504   503   505   507     9
  505   507   509   510     9
  505   507   509   511     9
  505   507   509   512     9
  505   507   513   514     9
  505   507   513   515     9
  506   505   507   508     9
  506   505   507   509     9
  506   505   507   513     9
  507   513   515   516     9
  507   513   515   517     9
  508   507   509   510     9
  508   507   509   511     9
  508   507   509   512     9
  508   507   513   514     9
  508   507   513   515     9
  509   507   513   514     9
  509   507   513   515     9
  510   509   507   513     9
  511   509   507   513     9
  512   509   507   513     9
  513   515   517   518     9
  513   515   517   519     9
  513   515   517   523     9
  514   513   515   516     9
  514   513   515   517     9
  515   517   519   520     9
  515   517   519   521     9
  515   517   519   522     9
  515   517   523   524     9
  515   517   523   525     9
  516   515   517   518     9
  516   515   517   519     9
  516   515   517   523     9
  518   517   519   520     9
  518   517   519   521     9
  518   517   519   522     9
  518   517   523   524     9
  518   517   523   525     9
  519   517   523   524     9
  519   517   523   525     9
  520   519   517   523     9
  521   519   517   523     9
  522   519   517   523     9
  526   530   528   529     9
  526   530   528   545     9
  526   530   528   548     9
  526   531   533   534     9
  526   531   533   535     9
  526   531   541   542     9
  526   531   541   543     9
  526   531   541   545     9
  526   581   579   555     9
  526   581   579   568     9
  526   581   579   580     9
  527   526   530   528     9
  527   526   531   532     9
  527   526   531   533     9
  527   526   531   541     9
  527   526   581   579     9
  528   530   526   531     9
  528   530   526   581     9
  528   545   541   531     9
  528   545   541   542     9
  528   545   541   543     9
  528   548   551   552     9
  529   528   545   541     9
  529   528   545   546     9
  529   528   545   547     9
  529   528   548   549     9
  529   528   548   550     9
  529   528   548   551     9
  530   526   531   532     9
  530   526   531   533     9
  530   526   531   541     9
  530   526   581   579     9
  530   528   545   541     9
  530   528   545   546     9
  530   528   545   547     9
  530   528   548   549     9
  530   528   548   550     9
  530   528   548   551     9
  531   526   581   579     9
  531   533   535   536     9
  531   533   535   537     9
  531   541   543   544     9
  531   541   545   546     9
  531   541   545   547     9
  532   531   526   581     9
  532   531   533   534     9
  532   531   533   535     9
  532   531   541   542     9
  532   531   541   543     9
  532   531   541   545     9
  533   531   526   581     9
  533   531   541   542     9
  533   531   541   543     9
  533   531   541   545     9
  533   535   537   538     9
  533   535   537   539     9
  533   535   537   540     9
  534   533   531   541     9
  534   533   535   536     9
  534   533   535   537     9
  535   533   531   541     9
  536   535   537   538     9
  536   535   537   539     9
  536   535   537   540     9
  541   531   526   581     9
  541   545   528   548     9
  542   541   543   544     9
  542   541   545   546     9
  542   541   545   547     9
  543   541   545   546     9
  543   541   545   547     9
  544   543   541   545     9
  545   528   548   549     9
  545   528   548   550     9
  545   528   548   551     9
  546   545   528   548     9
  547   545   528   548     9
  549   548   551   552     9
  550   548   551   552     9
  553   557   555   556     9
  553   557   555   579     9
  553   557   555   582     9
  553   558   560   561     9
  553   558   560   562     9
  553   558   568   569     9
  553   558   568   570     9
  553   558   568   579     9
  553   678   676   659     9
  553   678   676   672     9
  553   678   676   677     9
  554   553   557   555     9
  554   553   558   559     9
  554   553   558   560     9
  554   553   558   568     9
  554   553   678   676     9
  555   557   553   558     9
  555   557   553   678     9
  555   579   568   558     9
  555   579   568   569     9
  555   579   568   570     9
  555   582   585   586     9
  556   555   579   568     9
  556   555   579   580     9
  556   555   579   581     9
  556   555   582   583     9
  556   555   582   584     9
  556   555   582   585     9
  557   553   558   559     9
  557   553   558   560     9
  557   553   558   568     9
  557   553   678   676     9
  557   555   579   568     9
  557   555   579   580     9
  557   555   579   581     9
  557   555   582   583     9
  557   555   582   584     9
  557   555   582   585     9
  558   553   678   676     9
  558   560   562   563     9
  558   560   562   564     9
  558   568   570   571     9
  558   568   579   580     9
  558   568   579   581     9
  559   558   553   678     9
  559   558   560   561     9
  559   558   560   562     9
  559   558   568   569     9
  559   558   568   570     9
  559   558   568   579     9
  560   558   553   678     9
  560   558   568   569     9
  560   558   568   570     9
  560   558   568   579     9
  560   562   564   565     9
  560   562   564   566     9
  560   562   564   567     9
  561   560   558   568     9
  561   560   562   563     9
  561   560   562   564     9
  562   560   558   568     9
  563   562   564   565     9
  563   562   564   566     9
  563   562   564   567     9
  568   558   553   678     9
  568   570   571   572     9
  568   570   571   573     9
  568   570   571   575     9
  568   579   555   582     9
  569   568   570   571     9
  569   568   579   580     9
  569   568   579   581     9
  570   568   579   580     9
  570   568   579   581     9
  570   571   573   574     9
  570   571   573   587     9
  570   571   575   576     9
  570   571   575   577     9
  570   571   575   578     9
  571   570   568   579     9
  571   573   587   588     9
  571   573   587   589     9
  572   571   573   574     9
  572   571   573   587     9
  572   571   575   576     9
  572   571   575   577     9
  572   571   575   578     9
  573   571   575   576     9
  573   571   575   577     9
  573   571   575   578     9
  573   587   589   590     9
  573   587   589   591     9
  573   587   589   595     9
  574   573   571   575     9
  574   573   587   588     9
  574   573   587   589     9
  575   571   573   587     9
  579   555   582   583     9
  579   555   582   584     9
  579   555   582   585     9
  580   579   555   582     9
  581   579   555   582     9
  583   582   585   586     9
  584   582   585   586     9
  587   589   591   592     9
  587   589   591   593     9
  587   589   591   594     9
  587   589   595   596     9
  587   589   595   597     9
  588   587   589   590     9
  588   587   589   591     9
  588   587   589   595     9
  589   595   597   598     9
  589   595   597   599     9
  590   589   591   592     9
  590   589   591   593     9
  590   589   591   594     9
  590   589   595   596     9
  590   589   595   597     9
  591   589   595   596     9
  591   589   595   597     9
  592   591   589   595     9
  593   591   589   595     9
  594   591   589   595     9
  595   597   599   600     9
  595   597   599   601     9
  595   597   599   606     9
  596   595   597   598     9
  596   595   597   599     9
  597   599   601   602     9
  597   599   601   603     9
  597   599   606   607     9
  597   599   606   608     9
  597   599   606   609     9
  598   597   599   600     9
  598   597   599   601     9
  598   597   599   606     9
  599   601   603   604     9
  599   601   603   605     9
  599   606   609   610     9
  599   606   609   611     9
  599   606   609   612     9
  600   599   601   602     9
  600   599   601   603     9
  600   599   606   607     9
  600   599   606   608     9
  600   599   606   609     9
  601   599   606   607     9
  601   599   606   608     9
  601   599   606   609     9
  602   601   599   606     9
  602   601   603   604     9
  602   601   603   605     9
  603   601   599   606     9
  606   609   612   613     9
  606   609   612   614     9
  607   606   609   610     9
  607   606   609   611     9
  607   606   609   612     9
  608   606   609   610     9
  608   606   609   611     9
  608   606   609   612     9
  609   612   614   615     9
  609   612   614   616     9
  610   609   612   613     9
  610   609   612   614     9
  611   609   612   613     9
  611   609   612   614     9
  612   614   616   617     9
  612   614   616   618     9
  612   614   616   634     9
  613   612   614   615     9
  613   612   614   616     9
  614   616   618   619     9
  614   616   618   620     9
  614   616   618   621     9
  614   616   634   635     9
  614   616   634   636     9
  615   614   616   617     9
  615   614   616   618     9
  615   614   616   634     9
  616   618   621   622     9
  616   618   621   623     9
  616   618   621   624     9
  616   634   636   637     9
  616   634   636   638     9
  617   616   618   619     9
  617   616   618   620     9
  617   616   618   621     9
  617   616   634   635     9
  617   616   634   636     9
  618   616   634   635     9
  618   616   634   636     9
  618   621   624   625     9
  618   621   624   626     9
  618   621   624   627     9
  619   618   616   634     9
  619   618   621   622     9
  619   618   621   623     9
  619   618   621   624     9
  620   618   616   634     9
  620   618   621   622     9
  620   618   621   623     9
  620   618   621   624     9
  621   618   616   634     9
  621   624   627   628     9
  621   624   627   629     9
  621   624   627   630     9
  622   621   624   625     9
  622   621   624   626     9
  622   621   624   627     9
  623   621   624   625     9
  623   621   624   626     9
  623   621   624   627     9
  624   627   630   631     9
  624   627   630   632     9
  624   627   630   633     9
  625   624   627   628     9
  625   624   627   629     9
  625   624   627   630     9
  626   624   627   628     9
  626   624   627   629     9
  626   624   627   630     9
  628   627   630   631     9
  628   627   630   632     9
  628   627   630   633     9
  629   627   630   631     9
  629   627   630   632     9
  629   627   630   633     9
  634   636   638   639     9
  634   636   638   640     9
  634   636   638   644     9
  635   634   636   637     9
  635   634   636   638     9
  636   638   640   641     9
  636   638   640   642     9
  636   638   640   643     9
  636   638   644   645     9
  636   638   644   646     9
  637   636   638   639     9
  637   636   638   640     9
  637   636   638   644     9
  638   644   646   647     9
  638   644   646   648     9
  639   638   640   641     9
  639   638   640   642     9
  639   638   640   643     9
  639   638   644   645     9
  639   638   644   646     9
  640   638   644   645     9
  640   638   644   646     9
  641   640   638   644     9
  642   640   638   644     9
  643   640   638   644     9
  644   646   648   649     9
  644   646   648   650     9
  644   646   648   654     9
  645   644   646   647     9
  645   644   646   648     9
  646   648   650   651     9
  646   648   650   652     9
  646   648   650   653     9
  646   648   654   655     9
  646   648   654   656     9
  647   646   648   649     9
  647   646   648   650     9
  647   646   648   654     9
  649   648   650   651     9
  649   648   650   652     9
  649   648   650   653     9
  649   648   654   655     9
  649   648   654   656     9
  650   648   654   655     9
  650   648   654   656     9
  651   650   648   654     9
  652   650   648   654     9
  653   650   648   654     9
  657   661   659   660     9
  657   661   659   676     9
  657   661   659   679     9
  657   662   664   665     9
  657   662   664   666     9
  657   662   672   673     9
  657   662   672   674     9
  657   662   672   676     9
  657   712   710   686     9
  657   712   710   699     9
  657   712   710   711     9
  658   657   661   659     9
  658   657   662   663     9
  658   657   662   664     9
  658   657   662   672     9
  658   657   712   710     9
  659   661   657   662     9
  659   661   657   712     9
  659   676   672   662     9
  659   676   672   673     9
  659   676   672   674     9
  659   679   682   683     9
  660   659   676   672     9
  660   659   676   677     9
  660   659   676   678     9
  660   659   679   680     9
  660   659   679   681     9
  660   659   679   682     9
  661   657   662   663     9
  661   657   662   664     9
  661   657   662   672     9
  661   657   712   710     9
  661   659   676   672     9
  661   659   676   677     9
  661   659   676   678     9
  661   659   679   680     9
  661   659   679   681     9
  661   659   679   682     9
  662   657   712   710     9
  662   664   666   667     9
  662   664   666   668     9
  662   672   674   675     9
  662   672   676   677     9
  662   672   676   678     9
  663   662   657   712     9
  663   662   664   665     9
  663   662   664   666     9
  663   662   672   673     9
  663   662   672   674     9
  663   662   672   676     9
  664   662   657   712     9
  664   662   672   673     9
  664   662   672   674     9
  664   662   672   676     9
  664   666   668   669     9
  664   666   668   670     9
  664   666   668   671     9
  665   664   662   672     9
  665   664   666   667     9
  665   664   666   668     9
  666   664   662   672     9
  667   666   668   669     9
  667   666   668   670     9
  667   666   668   671     9
  672   662   657   712     9
  672   676   659   679     9
  673   672   674   675     9
  673   672   676   677     9
  673   672   676   678     9
  674   672   676   677     9
  674   672   676   678     9
  675   674   672   676     9
  676   659   679   680     9
  676   659   679   681     9
  676   659   679   682     9
  677   676   659   679     9
  678   676   659   679     9
  680   679   682   683     9
  681   679   682   683     9
  684   688   686   687     9
  684   688   686   710     9
  684   688   686   713     9
  684   689   691   692     9
  684   689   691   693     9
  684   689   699   700     9
  684   689   699   701     9
  684   689   699   710     9
  684   809   807   790     9
  684   809   807   803     9
  684   809   807   808     9
  685   684   688   686     9
  685   684   689   690     9
  685   684   689   691     9
  685   684   689   699     9
  685   684   809   807     9
  686   688   684   689     9
  686   688   684   809     9
  686   710   699   689     9
  686   710   699   700     9
  686   710   699   701     9
  686   713   716   717     9
  687   686   710   699     9
  687   686   710   711     9
  687   686   710   712     9
  687   686   713   714     9
  687   686   713   715     9
  687   686   713   716     9
  688   684   689   690     9
  688   684   689   691     9
  688   684   689   699     9
  688   684   809   807     9
  688   686   710   699     9
  688   686   710   711     9
  688   686   710   712     9
  688   686   713   714     9
  688   686   713   715     9
  688   686   713   716     9
  689   684   809   807     9
  689   691   693   694     9
  689   691   693   695     9
  689   699   701   702     9
  689   699   710   711     9
  689   699   710   712     9
  690   689   684   809     9
  690   689   691   692     9
  690   689   691   693     9
  690   689   699   700     9
  690   689   699   701     9
  690   689   699   710     9
  691   689   684   809     9
  691   689   699   700     9
  691   689   699   701     9
  691   689   699   710     9
  691   693   695   696     9
  691   693   695   697     9
  691   693   695   698     9
  692   691   689   699     9
  692   691   693   694     9
  692   691   693   695     9
  693   691   689   699     9
  694   693   695   696     9
  694   693   695   697     9
  694   693   695   698     9
  699   689   684   809     9
  699   701   702   703     9
  699   701   702   704     9
  699   701   702   706     9
  699   710   686   713     9
  700   699   701   702     9
  700   699   710   711     9
  700   699   710   712     9
  701   699   710   711     9
  701   699   710   712     9
  701   702   704   705     9
  701   702   704   718     9
  701   702   706   707     9
  701   702   706   708     9
  701   702   706   709     9
  702   701   699   710     9
  702   704   718   719     9
  702   704   718   720     9
  703   702   704   705     9
  703   702   704   718     9
  703   702   706   707     9
  703   702   706   708     9
  703   702   706   709     9
  704   702   706   707     9
  704   702   706   708     9
  704   702   706   709     9
  704   718   720   721     9
  704   718   720   722     9
  704   718   720   726     9
  705   704   702   706     9
  705   704   718   719     9
  705   704   718   720     9
  706   702   704   718     9
  710   686   713   714     9
  710   686   713   715     9
  710   686   713   716     9
  711   710   686   713     9
  712   710   686   713     9
  714   713   716   717     9
  715   713   716   717     9
  718   720   722   723     9
  718   720   722   724     9
  718   720   722   725     9
  718   720   726   727     9
  718   720   726   728     9
  719   718   720   721     9
  719   718   720   722     9
  719   718   720   726     9
  720   726   728   729     9
  720   726   728   730     9
  721   720   722   723     9
  721   720   722   724     9
  721   720   722   725     9
  721   720   726   727     9
  721   720   726   728     9
  722   720   726   727     9
  722   720   726   728     9
  723   722   720   726     9
  724   722   720   726     9
  725   722   720   726     9
  726   728   730   731     9
  726   728   730   732     9
  726   728   730   737     9
  727   726   728   729     9
  727   726   728   730     9
  728   730   732   733     9
  728   730   732   734     9
  728   730   737   738     9
  728   730   737   739     9
  728   730   737   740     9
  729   728   730   731     9
  729   728   730   732     9
  729   728   730   737     9
  730   732   734   735     9
  730   732   734   736     9
  730   737   740   741     9
  730   737   740   742     9
  730   737   740   743     9
  731   730   732   733     9
  731   730   732   734     9
  731   730   737   738     9
  731   730   737   739     9
  731   730   737   740     9
  732   730   737   738     9
  732   730   737   739     9
  732   730   737   740     9
  733   732   730   737     9
  733   732   734   735     9
  733   732   734   736     9
  734   732   730   737     9
  737   740   743   744     9
  737   740   743   745     9
  738   737   740   741     9
  738   737   740   742     9
  738   737   740   743     9
  739   737   740   741     9
  739   737   740   742     9
  739   737   740   743     9
  740   743   745   746     9
  740   743   745   747     9
  741   740   743   744     9
  741   740   743   745     9
  742   740   743   744     9
  742   740   743   745     9
  743   745   747   748     9
  743   745   747   749     9
  743   745   747   765     9
  744   743   745   746     9
  744   743   745   747     9
  745   747   749   750     9
  745   747   749   751     9
  745   747   749   752     9
  745   747   765   766     9
  745   747   765   767     9
  746   745   747   748     9
  746   745   747   749     9
  746   745   747   765     9
  747   749   752   753     9
  747   749   752   754     9
  747   749   752   755     9
  747   765   767   768     9
  747   765   767   769     9
  748   747   749   750     9
  748   747   749   751     9
  748   747   749   752     9
  748   747   765   766     9
  748   747   765   767     9
  749   747   765   766     9
  749   747   765   767     9
  749   752   755   756     9
  749   752   755   757     9
  749   752   755   758     9
  750   749   747   765     9
  750   749   752   753     9
  750   749   752   754     9
  750   749   752   755     9
  751   749   747   765     9
  751   749   752   753     9
  751   749   752   754     9
  751   749   752   755     9
  752   749   747   765     9
  752   755   758   759     9
  752   755   758   760     9
  752   755   758   761     9
  753   752   755   756     9
  753   752   755   757     9
  753   752   755   758     9
  754   752   755   756     9
  754   752   755   757     9
  754   752   755   758     9
  755   758   761   762     9
  755   758   761   763     9
  755   758   761   764     9
  756   755   758   759     9
  756   755   758   760     9
  756   755   758   761     9
  757   755   758   759     9
  757   755   758   760     9
  757   755   758   761     9
  759   758   761   762     9
  759   758   761   763     9
  759   758   761   764     9
  760   758   761   762     9
  760   758   761   763     9
  760   758   761   764     9
  765   767   769   770     9
  765   767   769   771     9
  765   767   769   775     9
  766   765   767   768     9
  766   765   767   769     9
  767   769   771   772     9
  767   769   771   773     9
  767   769   771   774     9
  767   769   775   776     9
  767   769   775   777     9
  768   767   769   770     9
  768   767   769   771     9
  768   767   769   775     9
  769   775   777   778     9
  769   775   777   779     9
  770   769   771   772     9
  770   769   771   773     9
  770   769   771   774     9
  770   769   775   776     9
  770   769   775   777     9
  771   769   775   776     9
  771   769   775   777     9
  772   771   769   775     9
  773   771   769   775     9
  774   771   769   775     9
  775   777   779   780     9
  775   777   779   781     9
  775   777   779   785     9
  776   775   777   778     9
  776   775   777   779     9
  777   779   781   782     9
  777   779   781   783     9
  777   779   781   784     9
  777   779   785   786     9
  777   779   785   787     9
  778   777   779   780     9
  778   777   779   781     9
  778   777   779   785     9
  780   779   781   782     9
  780   779   781   783     9
  780   779   781   784     9
  780   779   785   786     9
  780   779   785   787     9
  781   779   785   786     9
  781   779   785   787     9
  782   781   779   785     9
  783   781   779   785     9
  784   781   779   785     9
  788   792   790   791     9
  788   792   790   807     9
  788   792   790   810     9
  788   793   795   796     9
  788   793   795   797     9
  788   793   803   804     9
  788   793   803   805     9
  788   793   803   807     9
  788   843   841   817     9
  788   843   841   830     9
  788   843   841   842     9
  789   788   792   790     9
  789   788   793   794     9
  789   788   793   795     9
  789   788   793   803     9
  789   788   843   841     9
  790   792   788   793     9
  790   792   788   843     9
  790   807   803   793     9
  790   807   803   804     9
  790   807   803   805     9
  790   810   813   814     9
  791   790   807   803     9
  791   790   807   808     9
  791   790   807   809     9
  791   790   810   811     9
  791   790   810   812     9
  791   790   810   813     9
  792   788   793   794     9
  792   788   793   795     9
  792   788   793   803     9
  792   788   843   841     9
  792   790   807   803     9
  792   790   807   808     9
  792   790   807   809     9
  792   790   810   811     9
  792   790   810   812     9
  792   790   810   813     9
  793   788   843   841     9
  793   795   797   798     9
  793   795   797   799     9
  793   803   805   806     9
  793   803   807   808     9
  793   803   807   809     9
  794   793   788   843     9
  794   793   795   796     9
  794   793   795   797     9
  794   793   803   804     9
  794   793   803   805     9
  794   793   803   807     9
  795   793   788   843     9
  795   793   803   804     9
  795   793   803   805     9
  795   793   803   807     9
  795   797   799   800     9
  795   797   799   801     9
  795   797   799   802     9
  796   795   793   803     9
  796   795   797   798     9
  796   795   797   799     9
  797   795   793   803     9
  798   797   799   800     9
  798   797   799   801     9
  798   797   799   802     9
  803   793   788   843     9
  803   807   790   810     9
  804   803   805   806     9
  804   803   807   808     9
  804   803   807   809     9
  805   803   807   808     9
  805   803   807   809     9
  806   805   803   807     9
  807   790   810   811     9
  807   790   810   812     9
  807   790   810   813     9
  808   807   790   810     9
  809   807   790   810     9
  811   810   813   814     9
  812   810   813   814     9
  815   819   817   818     9
  815   819   817   841     9
  815   819   817   844     9
  815   820   822   823     9
  815   820   822   824     9
  815   820   830   831     9
  815   820   830   832     9
  815   820   830   841     9
  815   940   938   921     9
  815   940   938   934     9
  815   940   938   939     9
  816   815   819   817     9
  816   815   820   821     9
  816   815   820   822     9
  816   815   820   830     9
  816   815   940   938     9
  817   819   815   820     9
  817   819   815   940     9
  817   841   830   820     9
  817   841   830   831     9
  817   841   830   832     9
  817   844   847   848     9
  818   817   841   830     9
  818   817   841   842     9
  818   817   841   843     9
  818   817   844   845     9
  818   817   844   846     9
  818   817   844   847     9
  819   815   820   821     9
  819   815   820   822     9
  819   815   820   830     9
  819   815   940   938     9
  819   817   841   830     9
  819   817   841   842     9
  819   817   841   843     9
  819   817   844   845     9
  819   817   844   846     9
  819   817   844   847     9
  820   815   940   938     9
  820   822   824   825     9
  820   822   824   826     9
  820   830   832   833     9
  820   830   841   842     9
  820   830   841   843     9
  821   820   815   940     9
  821   820   822   823     9
  821   820   822   824     9
  821   820   830   831     9
  821   820   830   832     9
  821   820   830   841     9
  822   820   815   940     9
  822   820   830   831     9
  822   820   830   832     9
  822   820   830   841     9
  822   824   826   827     9
  822   824   826   828     9
  822   824   826   829     9
  823   822   820   830     9
  823   822   824   825     9
  823   822   824   826     9
  824   822   820   830     9
  825   824   826   827     9
  825   824   826   828     9
  825   824   826   829     9
  830   820   815   940     9
  830   832   833   834     9
  830   832   833   835     9
  830   832   833   837     9
  830   841   817   844     9
  831   830   832   833     9
  831   830   841   842     9
  831   830   841   843     9
  832   830   841   842     9
  832   830   841   843     9
  832   833   835   836     9
  832   833   835   849     9
  832   833   837   838     9
  832   833   837   839     9
  832   833   837   840     9
  833   832   830   841     9
  833   835   849   850     9
  833   835   849   851     9
  834   833   835   836     9
  834   833   835   849     9
  834   833   837   838     9
  834   833   837   839     9
  834   833   837   840     9
  835   833   837   838     9
  835   833   837   839     9
  835   833   837   840     9
  835   849   851   852     9
  835   849   851   853     9
  835   849   851   857     9
  836   835   833   837     9
  836   835   849   850     9
  836   835   849   851     9
  837   833   835   849     9
  841   817   844   845     9
  841   817   844   846     9
  841   817   844   847     9
  842   841   817   844     9
  843   841   817   844     9
  845   844   847   848     9
  846   844   847   848     9
  849   851   853   854     9
  849   851   853   855     9
  849   851   853   856     9
  849   851   857   858     9
  849   851   857   859     9
  850   849   851   852     9
  850   849   851   853     9
  850   849   851   857     9
  851   857   859   860     9
  851   857   859   861     9
  852   851   853   854     9
  852   851   853   855     9
  852   851   853   856     9
  852   851   857   858     9
  852   851   857   859     9
  853   851   857   858     9
  853   851   857   859     9
  854   853   851   857     9
  855   853   851   857     9
  856   853   851   857     9
  857   859   861   862     9
  857   859   861   863     9
  857   859   861   868     9
  858   857   859   860     9
  858   857   859   861     9
  859   861   863   864     9
  859   861   863   865     9
  859   861   868   869     9
  859   861   868   870     9
  859   861   868   871     9
  860   859   861   862     9
  860   859   861   863     9
  860   859   861   868     9
  861   863   865   866     9
  861   863   865   867     9
  861   868   871   872     9
  861   868   871   873     9
  861   868   871   874     9
  862   861   863   864     9
  862   861   863   865     9
  862   861   868   869     9
  862   861   868   870     9
  862   861   868   871     9
  863   861   868   869     9
  863   861   868   870     9
  863   861   868   871     9
  864   863   861   868     9
  864   863   865   866     9
  864   863   865   867     9
  865   863   861   868     9
  868   871   874   875     9
  868   871   874   876     9
  869   868   871   872     9
  869   868   871   873     9
  869   868   871   874     9
  870   868   871   872     9
  870   868   871   873     9
  870   868   871   874     9
  871   874   876   877     9
  871   874   876   878     9
  872   871   874   875     9
  872   871   874   876     9
  873   871   874   875     9
  873   871   874   876     9
  874   876   878   879     9
  874   876   878   880     9
  874   876   878   896     9
  875   874   876   877     9
  875   874   876   878     9
  876   878   880   881     9
  876   878   880   882     9
  876   878   880   883     9
  876   878   896   897     9
  876   878   896   898     9
  877   876   878   879     9
  877   876   878   880     9
  877   876   878   896     9
  878   880   883   884     9
  878   880   883   885     9
  878   880   883   886     9
  878   896   898   899     9
  878   896   898   900     9
  879   878   880   881     9
  879   878   880   882     9
  879   878   880   883     9
  879   878   896   897     9
  879   878   896   898     9
  880   878   896   897     9
  880   878   896   898     9
  880   883   886   887     9
  880   883   886   888     9
  880   883   886   889     9
  881   880   878   896     9
  881   880   883   884     9
  881   880   883   885     9
  881   880   883   886     9
  882   880   878   896     9
  882   880   883   884     9
  882   880   883   885     9
  882   880   883   886     9
  883   880   878   896     9
  883   886   889   890     9
  883   886   889   891     9
  883   886   889   892     9
  884   883   886   887     9
  884   883   886   888     9
  884   883   886   889     9
  885   883   886   887     9
  885   883   886   888     9
  885   883   886   889     9
  886   889   892   893     9
  886   889   892   894     9
  886   889   892   895     9
  887   886   889   890     9
  887   886   889   891     9
  887   886   889   892     9
  888   886   889   890     9
  888   886   889   891     9
  888   886   889   892     9
  890   889   892   893     9
  890   889   892   894     9
  890   889   892   895     9
  891   889   892   893     9
  891   889   892   894     9
  891   889   892   895     9
  896   898   900   901     9
  896   898   900   902     9
  896   898   900   906     9
  897   896   898   899     9
  897   896   898   900     9
  898   900   902   903     9
  898   900   902   904     9
  898   900   902   905     9
  898   900   906   907     9
  898   900   906   908     9
  899   898   900   901     9
  899   898   900   902     9
  899   898   900   906     9
  900   906   908   909     9
  900   906   908   910     9
  901   900   902   903     9
  901   900   902   904     9
  901   900   902   905     9
  901   900   906   907     9
  901   900   906   908     9
  902   900   906   907     9
  902   900   906   908     9
  903   902   900   906     9
  904   902   900   906     9
  905   902   900   906     9
  906   908   910   911     9
  906   908   910   912     9
  906   908   910   916     9
  907   906   908   909     9
  907   906   908   910     9
  908   910   912   913     9
  908   910   912   914     9
  908   910   912   915     9
  908   910   916   917     9
  908   910   916   918     9
  909   908   910   911     9
  909   908   910   912     9
  909   908   910   916     9
  911   910   912   913     9
  911   910   912   914     9
  911   910   912   915     9
  911   910   916   917     9
  911   910   916   918     9
  912   910   916   917     9
  912   910   916   918     9
  913   912   910   916     9
  914   912   910   916     9
  915   912   910   916     9
  919   923   921   922     9
  919   923   921   938     9
  919   923   921   941     9
  919   924   926   927     9
  919   924   926   928     9
  919   924   934   935     9
  919   924   934   936     9
  919   924   934   938     9
  919   976   974   950     9
  919   976   974   963     9
  919   976   974   975     9
  920   919   923   921     9
  920   919   924   925     9
  920   919   924   926     9
  920   919   924   934     9
  920   919   976   974     9
  921   923   919   924     9
  921   923   919   976     9
  921   938   934   924     9
  921   938   934   935     9
  921   938   934   936     9
  921   941   944   945     9
  922   921   938   934     9
  922   921   938   939     9
  922   921   938   940     9
  922   921   941   942     9
  922   921   941   943     9
  922   921   941   944     9
  923   919   924   925     9
  923   919   924   926     9
  923   919   924   934     9
  923   919   976   974     9
  923   921   938   934     9
  923   921   938   939     9
  923   921   938   940     9
  923   921   941   942     9
  923   921   941   943     9
  923   921   941   944     9
  924   919   976   974     9
  924   926   928   929     9
  924   926   928   930     9
  924   934   936   937     9
  924   934   938   939     9
  924   934   938   940     9
  925   924   919   976     9
  925   924   926   927     9
  925   924   926   928     9
  925   924   934   935     9
  925   924   934   936     9
  925   924   934   938     9
  926   924   919   976     9
  926   924   934   935     9
  926   924   934   936     9
  926   924   934   938     9
  926   928   930   931     9
  926   928   930   932     9
  926   928   930   933     9
  927   926   924   934     9
  927   926   928   929     9
  927   926   928   930     9
  928   926   924   934     9
  929   928   930   931     9
  929   928   930   932     9
  929   928   930   933     9
  934   924   919   976     9
  934   938   921   941     9
  935   934   936   937     9
  935   934   938   939     9
  935   934   938   940     9
  936   934   938   939     9
  936   934   938   940     9
  937   936   934   938     9
  938   921   941   942     9
  938   921   941   943     9
  938   921   941   944     9
  939   938   921   941     9
  940   938   921   941     9
  942   941   944   945     9
  943   941   944   945     9
  946   952   950   951     9
  946   952   950   974     9
  946   952   950   977     9
  946   953   955   956     9
  946   953   955   957     9
  946   953   963   964     9
  946   953   963   965     9
  946   953   963   974     9
  947   946   948   949     9
  947   946   952   950     9
  947   946   953   954     9
  947   946   953   955     9
  947   946   953   963     9
  948   946   952   950     9
  948   946   953   954     9
  948   946   953   955     9
  948   946   953   963     9
  949   948   946   952     9
  949   948   946   953     9
  950   952   946   953     9
  950   974   963   953     9
  950   974   963   964     9
  950   974   963   965     9
  950   977   980   981     9
  951   950   974   963     9
  951   950   974   975     9
  951   950   974   976     9
  951   950   977   978     9
  951   950   977   979     9
  951   950   977   980     9
  952   946   953   954     9
  952   946   953   955     9
  952   946   953   963     9
  952   950   974   963     9
  952   950   974   975     9
  952   950   974   976     9
  952   950   977   978     9
  952   950   977   979     9
  952   950   977   980     9
  953   955   957   958     9
  953   955   957   959     9
  953   963   965   966     9
  953   963   974   975     9
  953   963   974   976     9
  954   953   955   956     9
  954   953   955   957     9
  954   953   963   964     9
  954   953   963   965     9
  954   953   963   974     9
  955   953   963   964     9
  955   953   963   965     9
  955   953   963   974     9
  955   957   959   960     9
  955   957   959   961     9
  955   957   959   962     9
  956   955   953   963     9
  956   955   957   958     9
  956   955   957   959     9
  957   955   953   963     9
  958   957   959   960     9
  958   957   959   961     9
  958   957   959   962     9
  963   965   966   967     9
  963   965   966   968     9
  963   965   966   970     9
  963   974   950   977     9
  964   963   965   966     9
  964   963   974   975     9
  964   963   974   976     9
  965   963   974   975     9
  965   963   974   976     9
  965   966   968   969     9
  965   966   968   982     9
  965   966   970   971     9
  965   966   970   972     9
  965   966   970   973     9
  966   965   963   974     9
  966   968   982   983     9
  966   968   982   984     9
  967   966   968   969     9
  967   966   968   982     9
  967   966   970   971     9
  967   966   970   972     9
  967   966   970   973     9
  968   966   970   971     9
  968   966   970   972     9
  968   966   970   973     9
  968   982   984   985     9
  968   982   984   986     9
  968   982   984   990     9
  969   968   966   970     9
  969   968   982   983     9
  969   968   982   984     9
  970   966   968   982     9
  974   950   977   978     9
  974   950   977   979     9
  974   950   977   980     9
  975   974   950   977     9
  976   974   950   977     9
  978   977   980   981     9
  979   977   980   981     9
  982   984   986   987     9
  982   984   986   988     9
  982   984   986   989     9
  982   984   990   991     9
  982   984   990   992     9
  983   982   984   985     9
  983   982   984   986     9
  983   982   984   990     9
  984   990   992   993     9
  984   990   992   994     9
  985   984   986   987     9
  985   984   986   988     9
  985   984   986   989     9
  985   984   990   991     9
  985   984   990   992     9
  986   984   990   991     9
  986   984   990   992     9
  987   986   984   990     9
  988   986   984   990     9
  989   986   984   990     9
  990   992   994   995     9
  990   992   994   996     9
  990   992   994  1001     9
  991   990   992   993     9
  991   990   992   994     9
  992   994   996   997     9
  992   994   996   998     9
  992   994  1001  1002     9
  992   994  1001  1003     9
  992   994  1001  1004     9
  993   992   994   995     9
  993   992   994   996     9
  993   992   994  1001     9
  994   996   998   999     9
  994   996   998  1000     9
  994  1001  1004  1005     9
  994  1001  1004  1006     9
  994  1001  1004  1007     9
  995   994   996   997     9
  995   994   996   998     9
  995   994  1001  1002     9
  995   994  1001  1003     9
  995   994  1001  1004     9
  996   994  1001  1002     9
  996   994  1001  1003     9
  996   994  1001  1004     9
  997   996   994  1001     9
  997   996   998   999     9
  997   996   998  1000     9
  998   996   994  1001     9
 1001  1004  1007  1008     9
 1001  1004  1007  1009     9
 1002  1001  1004  1005     9
 1002  1001  1004  1006     9
 1002  1001  1004  1007     9
 1003  1001  1004  1005     9
 1003  1001  1004  1006     9
 1003  1001  1004  1007     9
 1004  1007  1009  1010     9
 1004  1007  1009  1011     9
 1005  1004  1007  1008     9
 1005  1004  1007  1009     9
 1006  1004  1007  1008     9
 1006  1004  1007  1009     9
 1007  1009  1011  1012     9
 1007  1009  1011  1013     9
 1007  1009  1011  1029     9
 1008  1007  1009  1010     9
 1008  1007  1009  1011     9
 1009  1011  1013  1014     9
 1009  1011  1013  1015     9
 1009  1011  1013  1016     9
 1009  1011  1029  1030     9
 1009  1011  1029  1031     9
 1010  1009  1011  1012     9
 1010  1009  1011  1013     9
 1010  1009  1011  1029     9
 1011  1013  1016  1017     9
 1011  1013  1016  1018     9
 1011  1013  1016  1019     9
 1011  1029  1031  1032     9
 1011  1029  1031  1033     9
 1012  1011  1013  1014     9
 1012  1011  1013  1015     9
 1012  1011  1013  1016     9
 1012  1011  1029  1030     9
 1012  1011  1029  1031     9
 1013  1011  1029  1030     9
 1013  1011  1029  1031     9
 1013  1016  1019  1020     9
 1013  1016  1019  1021     9
 1013  1016  1019  1022     9
 1014  1013  1011  1029     9
 1014  1013  1016  1017     9
 1014  1013  1016  1018     9
 1014  1013  1016  1019     9
 1015  1013  1011  1029     9
 1015  1013  1016  1017     9
 1015  1013  1016  1018     9
 1015  1013  1016  1019     9
 1016  1013  1011  1029     9
 1016  1019  1022  1023     9
 1016  1019  1022  1024     9
 1016  1019  1022  1025     9
 1017  1016  1019  1020     9
 1017  1016  1019  1021     9
 1017  1016  1019  1022     9
 1018  1016  1019  1020     9
 1018  1016  1019  1021     9
 1018  1016  1019  1022     9
 1019  1022  1025  1026     9
 1019  1022  1025  1027     9
 1019  1022  1025  1028     9
 1020  1019  1022  1023     9
 1020  1019  1022  1024     9
 1020  1019  1022  1025     9
 1021  1019  1022  1023     9
 1021  1019  1022  1024     9
 1021  1019  1022  1025     9
 1023  1022  1025  1026     9
 1023  1022  1025  1027     9
 1023  1022  1025  1028     9
 1024  1022  1025  1026     9
 1024  1022  1025  1027     9
 1024  1022  1025  1028     9
 1029  1031  1033  1034     9
 1029  1031  1033  1035     9
 1029  1031  1033  1039     9
 1030  1029  1031  1032     9
 1030  1029  1031  1033     9
 1031  1033  1035  1036     9
 1031  1033  1035  1037     9
 1031  1033  1035  1038     9
 1031  1033  1039  1040     9
 1031  1033  1039  1041     9
 1032  1031  1033  1034     9
 1032  1031  1033  1035     9
 1032  1031  1033  1039     9
 1033  1039  1041  1042     9
 1033  1039  1041  1043     9
 1034  1033  1035  1036     9
 1034  1033  1035  1037     9
 1034  1033  1035  1038     9
 1034  1033  1039  1040     9
 1034  1033  1039  1041     9
 1035  1033  1039  1040     9
 1035  1033  1039  1041     9
 1036  1035  1033  1039     9
 1037  1035  1033  1039     9
 1038  1035  1033  1039     9
 1039  1041  1043  1044     9
 1039  1041  1043  1045     9
 1039  1041  1043  1049     9
 1040  1039  1041  1042     9
 1040  1039  1041  1043     9
 1041  1043  1045  1046     9
 1041  1043  1045  1047     9
 1041  1043  1045  1048     9
 1041  1043  1049  1050     9
 1041  1043  1049  1051     9
 1042  1041  1043  1044     9
 1042  1041  1043  1045     9
 1042  1041  1043  1049     9
 1044  1043  1045  1046     9
 1044  1043  1045  1047     9
 1044  1043  1045  1048     9
 1044  1043  1049  1050     9
 1044  1043  1049  1051     9
 1045  1043  1049  1050     9
 1045  1043  1049  1051     9
 1046  1045  1043  1049     9
 1047  1045  1043  1049     9
 1048  1045  1043  1049     9

[ dihedrals ]
; i    j   k   l   func  zeta  kzeta
    8    10     9     6     2
   10    12     8    11     2
   36    38    37    34     2
   38    40    36    39     2
   77    79    75    78     2
   77    75    79    78     2
   79    77    80    81     2
   79    77    81    80     2
  130   124   132   131     2
  140   142   141   138     2
  142   144   140   143     2
  167   169   168   165     2
  169   171   167   170     2
  208   210   206   209     2
  208   206   210   209     2
  210   208   211   212     2
  210   208   212   211     2
  261   255   263   262     2
  271   273   272   269     2
  273   275   271   274     2
  298   300   299   296     2
  300   302   298   301     2
  339   341   337   340     2
  339   337   341   340     2
  341   339   342   343     2
  341   339   343   342     2
  392   386   394   393     2
  402   404   403   400     2
  404   406   402   405     2
  429   431   430   427     2
  431   433   429   432     2
  470   472   468   471     2
  470   468   472   471     2
  472   470   473   474     2
  472   470   474   473     2
  523   517   525   524     2
  533   535   534   531     2
  535   537   533   536     2
  560   562   561   558     2
  562   564   560   563     2
  601   603   599   602     2
  601   599   603   602     2
  603   601   604   605     2
  603   601   605   604     2
  654   648   656   655     2
  664   666   665   662     2
  666   668   664   667     2
  691   693   692   689     2
  693   695   691   694     2
  732   734   730   733     2
  732   730   734   733     2
  734   732   735   736     2
  734   732   736   735     2
  785   779   787   786     2
  795   797   796   793     2
  797   799   795   798     2
  822   824   823   820     2
  824   826   822   825     2
  863   865   861   864     2
  863   861   865   864     2
  865   863   866   867     2
  865   863   867   866     2
  916   910   918   917     2
  926   928   927   924     2
  928   930   926   929     2
  955   957   956   953     2
  957   959   955   958     2
  996   998   994   997     2
  996   994   998   997     2
  998   996   999  1000     2
  998   996  1000   999     2
 1049  1043  1051  1050     2
   49    47    63    50     2
   63    49    65    64     2
   71    65    73    72     2
   73    71    75    74     2
   88    85    90    89     2
   90    88    92    91     2
  110    92   112   111     2
  112   110   114   113     2
  120   114   122   121     2
  122   120   124   123     2
  180   178   194   181     2
  194   180   196   195     2
  202   196   204   203     2
  204   202   206   205     2
  219   216   221   220     2
  221   219   223   222     2
  241   223   243   242     2
  243   241   245   244     2
  251   245   253   252     2
  253   251   255   254     2
  311   309   325   312     2
  325   311   327   326     2
  333   327   335   334     2
  335   333   337   336     2
  350   347   352   351     2
  352   350   354   353     2
  372   354   374   373     2
  374   372   376   375     2
  382   376   384   383     2
  384   382   386   385     2
  442   440   456   443     2
  456   442   458   457     2
  464   458   466   465     2
  466   464   468   467     2
  481   478   483   482     2
  483   481   485   484     2
  503   485   505   504     2
  505   503   507   506     2
  513   507   515   514     2
  515   513   517   516     2
  573   571   587   574     2
  587   573   589   588     2
  595   589   597   596     2
  597   595   599   598     2
  612   609   614   613     2
  614   612   616   615     2
  634   616   636   635     2
  636   634   638   637     2
  644   638   646   645     2
  646   644   648   647     2
  704   702   718   705     2
  718   704   720   719     2
  726   720   728   727     2
  728   726   730   729     2
  743   740   745   744     2
  745   743   747   746     2
  765   747   767   766     2
  767   765   769   768     2
  775   769   777   776     2
  777   775   779   778     2
  835   833   849   836     2
  849   835   851   850     2
  857   851   859   858     2
  859   857   861   860     2
  874   871   876   875     2
  876   874   878   877     2
  896   878   898   897     2
  898   896   900   899     2
  906   900   908   907     2
  908   906   910   909     2
  968   966   982   969     2
  982   968   984   983     2
  990   984   992   991     2
  992   990   994   993     2
 1007  1004  1009  1008     2
 1009  1007  1011  1010     2
 1029  1011  1031  1030     2
 1031  1029  1033  1032     2
 1039  1033  1041  1040     2
 1041  1039  1043  1042     2

[ cmap ]
; i     j     k     l     m     func 
   49    63    65    71    73     1
   88    90    92   110   112     1
  110   112   114   120   122     1
  180   194   196   202   204     1
  219   221   223   241   243     1
  241   243   245   251   253     1
  311   325   327   333   335     1
  350   352   354   372   374     1
  372   374   376   382   384     1
  442   456   458   464   466     1
  481   483   485   503   505     1
  503   505   507   513   515     1
  573   587   589   595   597     1
  612   614   616   634   636     1
  634   636   638   644   646     1
  704   718   720   726   728     1
  743   745   747   765   767     1
  765   767   769   775   777     1
  835   849   851   857   859     1
  874   876   878   896   898     1
  896   898   900   906   908     1
  968   982   984   990   992     1
 1007  1009  1011  1029  1031     1
 1029  1031  1033  1039  1041     1

#ifdef REST_ON_glycan                          
#include "../restraints/glycan_rest.itp"
#endif
