;;
;; Generated by Rakesh Vaiwala
;;
;; 
;;
;; Correspondance:
;; multiscalesimu@gmail.com
;;
;; The main GROMACS topology file
;;

; Include forcefield parameters
#include "moltoppar/forcefield.itp"
#include "moltoppar/glycan.itp"
#include "moltoppar/TIP3.itp"

[ system ]
; Name
glycan in water

[ molecules ]
; Compound	#mols
glycan 	         1
TIP3             55333
