glycan in water
       12637
     NAG    C1     1   0.617   0.234   6.329
     NAG    H1     2   0.640   0.239   6.220
     NAG    C5     3   0.770   0.053   6.345
     NAG    H5     4   0.784   0.075   6.237
     NAG    O5     5   0.721   0.169   6.410
     NAG    C2     6   0.495   0.146   6.335
     NAG    H2     7   0.459   0.136   6.440
     NAG    NC     8   0.403   0.193   6.242
     NAG    HN     9   0.412   0.155   6.151
     NAG    CM    10   0.299   0.273   6.271
     NAG    OM    11   0.275   0.311   6.387
     NAG    CC    12   0.227   0.323   6.153
     NAG   HC1    13   0.268   0.290   6.055
     NAG   HC2    14   0.135   0.261   6.151
     NAG   HC3    15   0.194   0.428   6.144
     NAG    C3    16   0.538   0.008   6.277
     NAG    H3    17   0.570   0.036   6.174
     NAG    O3    18   0.426  13.372   6.275
     NAG   HO3    19   0.466  13.284   6.279
     NAG    C4    20   0.659  13.405   6.352
     NAG    H4    21   0.630  13.389   6.458
     NAG    O4    22   0.712  13.289   6.282
     NAG    C6    23   0.898  13.455   6.418
     NAG   H61    24   0.985   0.053   6.375
     NAG   H62    25   0.919  13.348   6.394
     NAG    O6    26   0.888   0.030   6.557
     NAG   HO6    27   0.879   0.125   6.547
     NAM    C1    28   0.782   0.738   6.365
     NAM    H1    29   0.759   0.751   6.473
     NAM    C5    30   0.582   0.604   6.348
     NAM    H5    31   0.577   0.621   6.458
     NAM    O5    32   0.671   0.701   6.278
     NAM    C2    33   0.875   0.621   6.337
     NAM    H2    34   0.891   0.624   6.227
     NAM    NC    35   0.998   0.628   6.418
     NAM    HN    36   0.998   0.579   6.505
     NAM    CM    37   1.116   0.677   6.376
     NAM    OM    38   1.143   0.706   6.260
     NAM    CC    39   1.224   0.700   6.484
     NAM   HC1    40   1.263   0.602   6.518
     NAM   HC2    41   1.310   0.762   6.451
     NAM   HC3    42   1.172   0.753   6.566
     NAM    C3    43   0.802   0.493   6.370
     NAM    H3    44   0.787   0.494   6.480
     NAM    O3    45   0.893   0.380   6.374
     NAM    CA    46   0.975   0.356   6.259
     NAM    HA    47   0.925   0.264   6.285
     NAM     C    48   1.128   0.344   6.290
     NAM     O    49   1.175   0.333   6.404
     NAM    CB    50   0.934   0.373   6.110
     NAM   HB1    51   0.823   0.365   6.110
     NAM   HB2    52   0.970   0.293   6.042
     NAM   HB3    53   0.947   0.472   6.062
     NAM    C4    54   0.663   0.473   6.311
     NAM    H4    55   0.653   0.465   6.200
     NAM    O4    56   0.593   0.366   6.376
     NAM    C6    57   0.438   0.602   6.298
     NAM   H61    58   0.374   0.528   6.350
     NAM   H62    59   0.447   0.596   6.187
     NAM    O6    60   0.382   0.732   6.330
     NAM   HO6    61   0.310   0.708   6.389
     ALA     N    62   1.212   0.359   6.184
     ALA    HN    63   1.170   0.373   6.095
     ALA    CA    64   1.359   0.372   6.203
     ALA    HA    65   1.369   0.447   6.281
     ALA    CB    66   1.432   0.403   6.064
     ALA   HB1    67   1.543   0.399   6.075
     ALA   HB2    68   1.386   0.496   6.023
     ALA   HB3    69   1.405   0.321   5.995
     ALA     C    70   1.427   0.247   6.261
     ALA     O    71   1.375   0.139   6.250
     GLN     N    72   1.545   0.260   6.334
     GLN    HN    73   1.602   0.181   6.355
     GLN    CA    74   1.616   0.385   6.359
     GLN    HA    75   1.583   0.449   6.278
     GLN    CD    76   1.586   0.438   6.505
     GLN   OE1    77   1.537   0.550   6.521
     GLN   NE2    78   1.633   0.360   6.604
     GLN  HE21    79   1.639   0.404   6.694
     GLN  HE22    80   1.644   0.261   6.594
     GLN    CB    81   1.773   0.361   6.332
     GLN   HB1    82   1.812   0.293   6.411
     GLN   HB2    83   1.823   0.460   6.332
     GLN    CG    84   1.805   0.305   6.187
     GLN   HG1    85   1.767   0.374   6.109
     GLN   HG2    86   1.768   0.200   6.178
     GLN     C    87   1.958   0.306   6.190
     GLN     O    88   2.013   0.396   6.132
     LYS     N    89   2.025   0.205   6.246
     LYS    HN    90   2.123   0.218   6.253
     LYS    CA    91   1.972   0.077   6.294
     LYS    HA    92   1.869   0.089   6.325
     LYS    CB    93   2.059   0.025   6.410
     LYS   HB1    94   2.029  13.378   6.443
     LYS   HB2    95   2.164   0.017   6.373
     LYS    CG    96   2.048   0.120   6.527
     LYS   HG1    97   2.116   0.207   6.512
     LYS   HG2    98   1.949   0.169   6.540
     LYS    CD    99   2.090   0.036   6.651
     LYS   HD1   100   2.189  13.450   6.620
     LYS   HD2   101   2.115   0.098   6.740
     LYS    CE   102   1.981  13.397   6.702
     LYS   HE1   103   1.946  13.320   6.630
     LYS   HE2   104   2.012  13.349   6.797
     LYS    NZ   105   1.860   0.020   6.734
     LYS   HZ1   106   1.794   0.041   6.656
     LYS   HZ2   107   1.880   0.114   6.772
     LYS   HZ3   108   1.809  13.425   6.809
     LYS     C   109   1.972  13.440   6.171
     LYS     O   110   2.041   0.009   6.076
     DAL     N   111   1.898  13.330   6.183
     DAL    HN   112   1.912  13.266   6.109
     DAL    CA   113   1.788  13.312   6.274
     DAL    HA   114   1.825  13.343   6.370
     DAL    CB   115   1.762  13.162   6.282
     DAL   HB1   116   1.726  13.137   6.180
     DAL   HB2   117   1.850  13.097   6.301
     DAL   HB3   118   1.673  13.141   6.344
     DAL     C   119   1.665  13.381   6.230
     DAL     O   120   1.650  13.413   6.115
     DAL     N   121   1.567  13.411   6.314
     DAL    HN   122   1.496   0.008   6.267
     DAL    CA   123   1.543  13.378   6.453
     DAL    HA   124   1.572  13.276   6.475
     DAL    CB   125   1.392  13.379   6.481
     DAL   HB1   126   1.351  13.294   6.421
     DAL   HB2   127   1.364  13.363   6.587
     DAL   HB3   128   1.351   0.023   6.454
     DAL     C   129   1.607   0.018   6.546
     DAL   OC1   130   1.584   0.026   6.669
     DAL   OC2   131   1.705   0.082   6.502
     NAG    C1   132   0.748   1.260   6.353
     NAG    H1   133   0.739   1.264   6.242
     NAG    C5   134   0.894   1.083   6.318
     NAG    H5   135   0.873   1.085   6.209
     NAG    O5   136   0.878   1.213   6.387
     NAG    C2   137   0.647   1.162   6.416
     NAG    H2   138   0.659   1.146   6.525
     NAG    NC   139   0.520   1.212   6.377
     NAG    HN   140   0.471   1.197   6.292
     NAG    CM   141   0.438   1.279   6.460
     NAG    OM   142   0.456   1.313   6.575
     NAG    CC   143   0.304   1.304   6.406
     NAG   HC1   144   0.295   1.289   6.296
     NAG   HC2   145   0.224   1.250   6.461
     NAG   HC3   146   0.288   1.413   6.420
     NAG    C3   147   0.663   1.022   6.345
     NAG    H3   148   0.649   1.026   6.235
     NAG    O3   149   0.573   0.933   6.397
     NAG   HO3   150   0.545   0.872   6.327
     NAG    C4   151   0.805   0.982   6.373
     NAG    H4   152   0.823   0.975   6.482
     NAG    O4   153   0.836   0.856   6.317
     NAG    C6   154   1.036   1.044   6.326
     NAG   H61   155   1.058   0.965   6.251
     NAG   H62   156   1.062   1.002   6.426
     NAG    O6   157   1.126   1.149   6.300
     NAG   HO6   158   1.107   1.183   6.213
     NAM    C1   159   0.803   1.762   6.377
     NAM    H1   160   0.715   1.779   6.443
     NAM    C5   161   0.706   1.574   6.279
     NAM    H5   162   0.617   1.598   6.341
     NAM    O5   163   0.779   1.691   6.252
     NAM    C2   164   0.905   1.679   6.457
     NAM    H2   165   0.991   1.652   6.391
     NAM    NC   166   0.957   1.735   6.576
     NAM    HN   167   0.920   1.687   6.656
     NAM    CM   168   1.065   1.805   6.602
     NAM    OM   169   1.144   1.832   6.509
     NAM    CC   170   1.078   1.826   6.748
     NAM   HC1   171   0.988   1.884   6.778
     NAM   HC2   172   1.080   1.721   6.784
     NAM   HC3   173   1.171   1.882   6.771
     NAM    C3   174   0.840   1.553   6.494
     NAM    H3   175   0.749   1.577   6.553
     NAM    O3   176   0.910   1.475   6.591
     NAM    CA   177   1.029   1.410   6.555
     NAM    HA   178   1.022   1.357   6.461
     NAM     C   179   1.051   1.299   6.656
     NAM     O   180   0.985   1.296   6.760
     NAM    CB   181   1.162   1.504   6.556
     NAM   HB1   182   1.162   1.579   6.475
     NAM   HB2   183   1.253   1.447   6.528
     NAM   HB3   184   1.173   1.532   6.663
     NAM    C4   185   0.795   1.485   6.366
     NAM    H4   186   0.885   1.459   6.306
     NAM    O4   187   0.720   1.375   6.413
     NAM    C6   188   0.647   1.520   6.145
     NAM   H61   189   0.589   1.602   6.098
     NAM   H62   190   0.570   1.444   6.167
     NAM    O6   191   0.751   1.470   6.066
     NAM   HO6   192   0.811   1.543   6.047
     ALA     N   193   1.145   1.202   6.617
     ALA    HN   194   1.183   1.205   6.524
     ALA    CA   195   1.197   1.105   6.703
     ALA    HA   196   1.231   1.174   6.779
     ALA    CB   197   1.317   1.032   6.638
     ALA   HB1   198   1.353   0.949   6.703
     ALA   HB2   199   1.402   1.102   6.624
     ALA   HB3   200   1.290   0.991   6.539
     ALA     C   201   1.105   1.000   6.748
     ALA     O   202   1.013   0.961   6.680
     GLN     N   203   1.129   0.947   6.868
     GLN    HN   204   1.075   0.865   6.884
     GLN    CA   205   1.197   1.000   6.982
     GLN    HA   206   1.299   1.025   6.956
     GLN    CD   207   1.124   1.128   7.023
     GLN   OE1   208   1.190   1.230   7.044
     GLN   NE2   209   0.985   1.128   7.042
     GLN  HE21   210   0.945   1.219   7.057
     GLN  HE22   211   0.935   1.044   7.019
     GLN    CB   212   1.190   0.897   7.100
     GLN   HB1   213   1.085   0.877   7.131
     GLN   HB2   214   1.241   0.941   7.189
     GLN    CG   215   1.259   0.755   7.066
     GLN   HG1   216   1.360   0.778   7.025
     GLN   HG2   217   1.207   0.714   6.977
     GLN     C   218   1.256   0.656   7.176
     GLN     O   219   1.361   0.637   7.239
     LYS     N   220   1.137   0.606   7.209
     LYS    HN   221   1.132   0.537   7.281
     LYS    CA   222   1.021   0.599   7.125
     LYS    HA   223   1.003   0.685   7.062
     LYS    CB   224   0.902   0.594   7.227
     LYS   HB1   225   0.810   0.598   7.165
     LYS   HB2   226   0.912   0.502   7.289
     LYS    CG   227   0.921   0.707   7.325
     LYS   HG1   228   1.010   0.697   7.391
     LYS   HG2   229   0.932   0.801   7.267
     LYS    CD   230   0.801   0.713   7.422
     LYS   HD1   231   0.778   0.611   7.461
     LYS   HD2   232   0.835   0.786   7.498
     LYS    CE   233   0.666   0.757   7.360
     LYS   HE1   234   0.636   0.681   7.285
     LYS   HE2   235   0.596   0.772   7.446
     LYS    NZ   236   0.679   0.884   7.285
     LYS   HZ1   237   0.587   0.932   7.276
     LYS     C   238   1.029   0.479   7.028
     LYS     O   239   1.127   0.403   7.040
     GLY     C   240   2.167   0.531   8.003
     GLY     O   241   2.266   0.480   8.054
     GLY    CA   242   2.170   0.606   7.870
     GLY   HA1   243   2.259   0.577   7.813
     GLY   HA2   244   2.171   0.714   7.888
     GLY     N   245   2.052   0.573   7.792
     GLY    HN   246   1.986   0.508   7.832
     GLY     C   247   2.029   0.446   7.756
     GLY     O   248   2.111   0.363   7.793
     GLY    CA   249   1.905   0.412   7.674
     GLY   HA1   250   1.882   0.305   7.685
     GLY   HA2   251   1.922   0.435   7.569
     GLY     N   252   1.792   0.489   7.721
     GLY    HN   253   1.807   0.553   7.799
     GLY     C   254   1.750   0.476   7.848
     GLY     O   255   1.813   0.398   7.919
     GLY    CA   256   1.631   0.557   7.897
     GLY   HA1   257   1.633   0.564   8.007
     GLY   HA2   258   1.538   0.510   7.865
     GLY     N   259   1.636   0.691   7.843
     GLY    HN   260   1.714   0.715   7.782
     GLY     C   261   1.741   0.770   7.869
     GLY     O   262   1.829   0.722   7.940
     GLY    CA   263   1.747   0.912   7.812
     GLY   HA1   264   1.850   0.947   7.812
     GLY   HA2   265   1.685   0.979   7.872
     GLY     N   266   1.697   0.912   7.676
     GLY    HN   267   1.667   0.823   7.637
     GLY     C   268   1.758   0.837   7.582
     GLY     O   269   1.855   0.771   7.619
     GLY    CA   270   1.706   0.837   7.439
     GLY   HA1   271   1.741   0.747   7.387
     GLY   HA2   272   1.741   0.926   7.387
     GLY     N   273   1.561   0.837   7.439
     GLY    HN   274   1.510   0.845   7.351
     DAL     N   275   0.944   0.456   6.924
     DAL    HN   276   0.950   0.372   6.870
     DAL    CA   277   0.844   0.537   6.859
     DAL    HA   278   0.783   0.580   6.936
     DAL    CB   279   0.746   0.454   6.765
     DAL   HB1   280   0.712   0.364   6.821
     DAL   HB2   281   0.662   0.512   6.722
     DAL   HB3   282   0.802   0.408   6.681
     DAL     C   283   0.903   0.661   6.780
     DAL     O   284   1.018   0.660   6.740
     DAL     N   285   0.822   0.771   6.762
     DAL    HN   286   0.852   0.854   6.714
     DAL    CA   287   0.692   0.802   6.811
     DAL    HA   288   0.626   0.720   6.785
     DAL    CB   289   0.641   0.941   6.768
     DAL   HB1   290   0.543   0.966   6.813
     DAL   HB2   291   0.696   1.033   6.797
     DAL   HB3   292   0.635   0.935   6.657
     DAL     C   293   0.680   0.810   6.968
     DAL   OC1   294   0.595   0.747   7.030
     DAL   OC2   295   0.770   0.883   7.027
     NAG    C1   296   0.775   2.279   6.249
     NAG    H1   297   0.882   2.311   6.251
     NAG    C5   298   0.818   2.117   6.418
     NAG    H5   299   0.922   2.153   6.408
     NAG    O5   300   0.726   2.216   6.371
     NAG    C2   301   0.762   2.171   6.139
     NAG    H2   302   0.657   2.140   6.121
     NAG    NC   303   0.820   2.224   6.017
     NAG    HN   304   0.896   2.170   5.981
     NAG    CM   305   0.778   2.318   5.923
     NAG    OM   306   0.666   2.359   5.903
     NAG    CC   307   0.892   2.380   5.831
     NAG   HC1   308   0.909   2.487   5.854
     NAG   HC2   309   0.982   2.326   5.867
     NAG   HC3   310   0.874   2.369   5.722
     NAG    C3   311   0.838   2.045   6.185
     NAG    H3   312   0.945   2.074   6.188
     NAG    O3   313   0.812   1.942   6.091
     NAG   HO3   314   0.873   1.869   6.104
     NAG    C4   315   0.798   1.999   6.323
     NAG    H4   316   0.690   1.978   6.332
     NAG    O4   317   0.875   1.883   6.353
     NAG    C6   318   0.791   2.103   6.566
     NAG   H61   319   0.779   2.204   6.612
     NAG   H62   320   0.879   2.059   6.617
     NAG    O6   321   0.679   2.019   6.599
     NAG   HO6   322   0.599   2.072   6.603
     NAM    C1   323   0.703   2.794   6.308
     NAM    H1   324   0.666   2.809   6.205
     NAM    C5   325   0.817   2.605   6.228
     NAM    H5   326   0.780   2.635   6.128
     NAM    O5   327   0.818   2.720   6.311
     NAM    C2   328   0.593   2.716   6.376
     NAM    H2   329   0.627   2.693   6.479
     NAM    NC   330   0.459   2.767   6.358
     NAM    HN   331   0.397   2.715   6.300
     NAM    CM   332   0.413   2.857   6.446
     NAM    OM   333   0.460   2.878   6.557
     NAM    CC   334   0.297   2.943   6.408
     NAM   HC1   335   0.289   3.016   6.491
     NAM   HC2   336   0.309   2.997   6.311
     NAM   HC3   337   0.206   2.878   6.408
     NAM    C3   338   0.580   2.574   6.310
     NAM    H3   339   0.540   2.582   6.207
     NAM    O3   340   0.478   2.488   6.372
     NAM    CA   341   0.501   2.436   6.503
     NAM    HA   342   0.605   2.437   6.533
     NAM     C   343   0.465   2.289   6.512
     NAM     O   344   0.481   2.236   6.622
     NAM    CB   345   0.405   2.522   6.594
     NAM   HB1   346   0.442   2.625   6.610
     NAM   HB2   347   0.389   2.476   6.694
     NAM   HB3   348   0.304   2.508   6.549
     NAM    C4   349   0.721   2.512   6.289
     NAM    H4   350   0.754   2.485   6.391
     NAM    O4   351   0.693   2.392   6.219
     NAM    C6   352   0.959   2.555   6.206
     NAM   H61   353   0.965   2.470   6.135
     NAM   H62   354   1.014   2.524   6.298
     NAM    O6   355   1.034   2.652   6.130
     NAM   HO6   356   1.124   2.650   6.163
     ALA     N   357   0.409   2.233   6.403
     ALA    HN   358   0.365   2.287   6.332
     ALA    CA   359   0.362   2.097   6.387
     ALA    HA   360   0.454   2.042   6.373
     ALA    CB   361   0.289   2.097   6.255
     ALA   HB1   362   0.189   2.146   6.254
     ALA   HB2   363   0.277   1.989   6.230
     ALA   HB3   364   0.357   2.141   6.179
     ALA     C   365   0.265   2.044   6.495
     ALA     O   366   0.197   2.126   6.559
     GLN     N   367   0.244   1.909   6.522
     GLN    HN   368   0.184   1.890   6.600
     GLN    CA   369   0.316   1.786   6.479
     GLN    HA   370   0.242   1.708   6.495
     GLN    CD   371   0.347   1.775   6.324
     GLN   OE1   372   0.454   1.826   6.286
     GLN   NE2   373   0.259   1.718   6.239
     GLN  HE21   374   0.266   1.729   6.139
     GLN  HE22   375   0.169   1.692   6.273
     GLN    CB   376   0.437   1.752   6.572
     GLN   HB1   377   0.506   1.839   6.559
     GLN   HB2   378   0.492   1.665   6.531
     GLN    CG   379   0.389   1.738   6.715
     GLN   HG1   380   0.317   1.654   6.715
     GLN   HG2   381   0.342   1.832   6.751
     GLN     C   382   0.492   1.693   6.814
     GLN     O   383   0.601   1.648   6.773
     LYS     N   384   0.463   1.696   6.942
     LYS    HN   385   0.530   1.652   7.002
     LYS    CA   386   0.346   1.762   7.015
     LYS    HA   387   0.334   1.858   6.967
     LYS    CB   388   0.384   1.798   7.167
     LYS   HB1   389   0.305   1.864   7.208
     LYS   HB2   390   0.388   1.705   7.227
     LYS    CG   391   0.511   1.886   7.181
     LYS   HG1   392   0.591   1.829   7.128
     LYS   HG2   393   0.506   1.970   7.108
     LYS    CD   394   0.549   1.931   7.326
     LYS   HD1   395   0.537   1.838   7.386
     LYS   HD2   396   0.658   1.955   7.330
     LYS    CE   397   0.463   2.035   7.399
     LYS   HE1   398   0.355   2.007   7.394
     LYS   HE2   399   0.485   2.053   7.506
     LYS    NZ   400   0.469   2.165   7.320
     LYS   HZ1   401   0.561   2.161   7.271
     LYS   HZ2   402   0.477   2.243   7.387
     LYS   HZ3   403   0.398   2.175   7.244
     LYS     C   404   0.214   1.687   7.021
     LYS     O   405   0.220   1.566   7.000
     DAL     N   406   0.097   1.745   7.047
     DAL    HN   407   0.019   1.683   7.056
     DAL    CA   408   0.067   1.888   7.037
     DAL    HA   409   0.125   1.934   7.116
     DAL    CB   410  13.372   1.898   7.061
     DAL   HB1   411  13.336   1.998   7.093
     DAL   HB2   412  13.315   1.871   6.969
     DAL   HB3   413  13.338   1.837   7.148
     DAL     C   414   0.101   1.954   6.903
     DAL     O   415   0.113   1.893   6.794
     DAL     N   416   0.107   2.093   6.902
     DAL    HN   417   0.108   2.145   6.816
     DAL    CA   418   0.104   2.179   7.015
     DAL    HA   419   0.019   2.167   7.081
     DAL    CB   420   0.070   2.323   6.959
     DAL   HB1   421  13.419   2.315   6.929
     DAL   HB2   422   0.085   2.394   7.043
     DAL   HB3   423   0.121   2.366   6.870
     DAL     C   424   0.237   2.190   7.095
     DAL   OC1   425   0.341   2.135   7.042
     DAL   OC2   426   0.238   2.241   7.206
     NAG    C1   427   0.818   3.300   6.297
     NAG    H1   428   0.785   3.321   6.401
     NAG    C5   429   0.664   3.120   6.262
     NAG    H5   430   0.623   3.142   6.362
     NAG    O5   431   0.710   3.244   6.219
     NAG    C2   432   0.935   3.203   6.277
     NAG    H2   433   0.955   3.198   6.168
     NAG    NC   434   1.041   3.261   6.364
     NAG    HN   435   1.006   3.265   6.457
     NAG    CM   436   1.175   3.256   6.343
     NAG    OM   437   1.218   3.226   6.230
     NAG    CC   438   1.266   3.293   6.458
     NAG   HC1   439   1.358   3.350   6.430
     NAG   HC2   440   1.216   3.367   6.523
     NAG   HC3   441   1.299   3.207   6.520
     NAG    C3   442   0.910   3.060   6.321
     NAG    H3   443   0.915   3.047   6.431
     NAG    O3   444   1.003   2.975   6.260
     NAG   HO3   445   1.052   2.932   6.331
     NAG    C4   446   0.773   3.016   6.279
     NAG    H4   447   0.788   2.978   6.175
     NAG    O4   448   0.720   2.919   6.368
     NAG    C6   449   0.541   3.073   6.182
     NAG   H61   450   0.461   3.149   6.197
     NAG   H62   451   0.519   2.970   6.219
     NAG    O6   452   0.565   3.061   6.041
     NAG   HO6   453   0.591   3.149   6.012
     NAM    C1   454   0.717   3.817   6.236
     NAM    H1   455   0.708   3.803   6.126
     NAM    C5   456   0.893   3.657   6.249
     NAM    H5   457   0.895   3.654   6.138
     NAM    O5   458   0.840   3.786   6.290
     NAM    C2   459   0.614   3.715   6.291
     NAM    H2   460   0.602   3.719   6.402
     NAM    NC   461   0.484   3.726   6.220
     NAM    HN   462   0.465   3.674   6.137
     NAM    CM   463   0.389   3.798   6.282
     NAM    OM   464   0.405   3.869   6.375
     NAM    CC   465   0.255   3.803   6.223
     NAM   HC1   466   0.256   3.901   6.170
     NAM   HC2   467   0.238   3.722   6.148
     NAM   HC3   468   0.181   3.817   6.304
     NAM    C3   469   0.666   3.565   6.261
     NAM    H3   470   0.656   3.560   6.150
     NAM    O3   471   0.565   3.471   6.310
     NAM    CA   472   0.525   3.476   6.442
     NAM    HA   473   0.527   3.369   6.429
     NAM     C   474   0.377   3.505   6.476
     NAM     O   475   0.291   3.430   6.436
     NAM    CB   476   0.614   3.486   6.575
     NAM   HB1   477   0.551   3.470   6.665
     NAM   HB2   478   0.640   3.593   6.585
     NAM   HB3   479   0.699   3.414   6.581
     NAM    C4   480   0.803   3.544   6.304
     NAM    H4   481   0.813   3.541   6.415
     NAM    O4   482   0.850   3.426   6.239
     NAM    C6   483   1.038   3.636   6.292
     NAM   H61   484   1.075   3.539   6.251
     NAM   H62   485   1.050   3.640   6.402
     NAM    O6   486   1.124   3.732   6.236
     NAM   HO6   487   1.112   3.812   6.288
     ALA     N   488   0.343   3.619   6.541
     ALA    HN   489   0.409   3.692   6.559
     ALA    CA   490   0.212   3.670   6.581
     ALA    HA   491   0.183   3.701   6.481
     ALA    CB   492   0.237   3.795   6.664
     ALA   HB1   493   0.139   3.835   6.700
     ALA   HB2   494   0.284   3.880   6.611
     ALA   HB3   495   0.295   3.764   6.754
     ALA     C   496   0.118   3.574   6.642
     ALA     O   497   0.157   3.494   6.728
     GLN     N   498  13.445   3.586   6.626
     GLN    HN   499  13.387   3.523   6.678
     GLN    CA   500  13.370   3.691   6.556
     GLN    HA   501  13.432   3.780   6.562
     GLN    CD   502  13.357   3.650   6.403
     GLN   OE1   503  13.353   3.531   6.368
     GLN   NE2   504  13.372   3.751   6.314
     GLN  HE21   505  13.392   3.727   6.219
     GLN  HE22   506  13.371   3.846   6.346
     GLN    CB   507  13.232   3.717   6.624
     GLN   HB1   508  13.175   3.621   6.624
     GLN   HB2   509  13.162   3.794   6.585
     GLN    CG   510  13.246   3.750   6.774
     GLN   HG1   511  13.294   3.667   6.830
     GLN   HG2   512  13.144   3.760   6.818
     GLN     C   513  13.324   3.876   6.802
     GLN     O   514  13.353   3.947   6.704
     LYS     N   515  13.348   3.917   6.926
     LYS    HN   516  13.394   4.005   6.935
     LYS    CA   517  13.318   3.840   7.047
     LYS    HA   518  13.218   3.798   7.053
     LYS    CB   519  13.312   3.925   7.171
     LYS   HB1   520  13.316   3.865   7.265
     LYS   HB2   521  13.401   3.992   7.176
     LYS    CG   522  13.181   4.020   7.187
     LYS   HG1   523  13.181   4.089   7.100
     LYS   HG2   524  13.087   3.961   7.178
     LYS    CD   525  13.180   4.105   7.316
     LYS   HD1   526  13.206   4.036   7.400
     LYS   HD2   527  13.257   4.185   7.313
     LYS    CE   528  13.050   4.183   7.350
     LYS   HE1   529  13.061   4.246   7.441
     LYS   HE2   530  13.014   4.244   7.264
     LYS    NZ   531  12.944   4.080   7.357
     LYS   HZ1   532  12.858   4.107   7.408
     LYS   HZ2   533  12.977   3.985   7.384
     LYS   HZ3   534  12.918   4.065   7.257
     LYS     C   535  13.414   3.722   7.058
     LYS     O   536   0.062   3.718   6.993
     DAL     N   537  13.390   3.619   7.134
     DAL    HN   538  13.448   3.539   7.122
     DAL    CA   539  13.278   3.588   7.229
     DAL    HA   540  13.259   3.672   7.294
     DAL    CB   541  13.334   3.468   7.307
     DAL   HB1   542  13.373   3.392   7.235
     DAL   HB2   543  13.411   3.500   7.381
     DAL   HB3   544  13.255   3.421   7.369
     DAL     C   545  13.147   3.551   7.160
     DAL     O   546  13.149   3.513   7.043
     NAG    C1   547   0.785   4.346   6.264
     NAG    H1   548   0.785   4.333   6.375
     NAG    C5   549   0.621   4.175   6.244
     NAG    H5   550   0.611   4.176   6.355
     NAG    O5   551   0.676   4.297   6.193
     NAG    C2   552   0.896   4.253   6.206
     NAG    H2   553   0.893   4.246   6.095
     NAG    NC   554   1.019   4.287   6.267
     NAG    HN   555   1.043   4.263   6.361
     NAG    CM   556   1.131   4.323   6.193
     NAG    OM   557   1.123   4.354   6.074
     NAG    CC   558   1.264   4.314   6.264
     NAG   HC1   559   1.242   4.260   6.359
     NAG   HC2   560   1.337   4.263   6.198
     NAG   HC3   561   1.303   4.416   6.286
     NAG    C3   562   0.865   4.112   6.256
     NAG    H3   563   0.882   4.124   6.365
     NAG    O3   564   0.952   4.014   6.199
     NAG   HO3   565   0.941   3.928   6.239
     NAG    C4   566   0.724   4.068   6.219
     NAG    H4   567   0.713   4.049   6.110
     NAG    O4   568   0.684   3.948   6.286
     NAG    C6   569   0.483   4.155   6.186
     NAG   H61   570   0.411   4.237   6.206
     NAG   H62   571   0.440   4.065   6.236
     NAG    O6   572   0.475   4.138   6.049
     NAG   HO6   573   0.393   4.184   6.027
     NAM    C1   574   0.728   4.864   6.288
     NAM    H1   575   0.742   4.881   6.179
     NAM    C5   576   0.887   4.690   6.288
     NAM    H5   577   0.905   4.708   6.180
     NAM    O5   578   0.846   4.814   6.344
     NAM    C2   579   0.613   4.770   6.330
     NAM    H2   580   0.605   4.746   6.438
     NAM    NC   581   0.494   4.801   6.253
     NAM    HN   582   0.475   4.742   6.175
     NAM    CM   583   0.416   4.907   6.271
     NAM    OM   584   0.427   4.975   6.373
     NAM    CC   585   0.320   4.943   6.166
     NAM   HC1   586   0.317   5.053   6.146
     NAM   HC2   587   0.352   4.887   6.075
     NAM   HC3   588   0.225   4.894   6.195
     NAM    C3   589   0.643   4.636   6.271
     NAM    H3   590   0.646   4.654   6.161
     NAM    O3   591   0.540   4.536   6.266
     NAM    CA   592   0.490   4.488   6.385
     NAM    HA   593   0.488   4.404   6.317
     NAM     C   594   0.345   4.525   6.399
     NAM     O   595   0.267   4.475   6.323
     NAM    CB   596   0.547   4.439   6.515
     NAM   HB1   597   0.523   4.508   6.599
     NAM   HB2   598   0.658   4.429   6.514
     NAM   HB3   599   0.501   4.339   6.532
     NAM    C4   600   0.780   4.583   6.311
     NAM    H4   601   0.781   4.552   6.417
     NAM    O4   602   0.819   4.475   6.226
     NAM    C6   603   1.015   4.642   6.355
     NAM   H61   604   1.046   4.543   6.315
     NAM   H62   605   0.994   4.625   6.463
     NAM    O6   606   1.126   4.723   6.351
     NAM   HO6   607   1.166   4.710   6.437
     ALA     N   608   0.312   4.605   6.505
     ALA    HN   609   0.375   4.606   6.583
     ALA    CA   610   0.184   4.654   6.532
     ALA    HA   611   0.138   4.665   6.435
     ALA    CB   612   0.195   4.801   6.587
     ALA   HB1   613   0.198   4.798   6.698
     ALA   HB2   614   0.103   4.856   6.560
     ALA   HB3   615   0.270   4.862   6.533
     ALA     C   616   0.112   4.552   6.621
     ALA     O   617   0.170   4.472   6.690
     GLN     N   618  13.437   4.558   6.620
     GLN    HN   619  13.382   4.489   6.666
     GLN    CA   620  13.349   4.646   6.550
     GLN    HA   621  13.384   4.747   6.562
     GLN    CD   622  13.338   4.606   6.403
     GLN   OE1   623  13.314   4.490   6.367
     GLN   NE2   624  13.365   4.694   6.304
     GLN  HE21   625  13.391   4.662   6.213
     GLN  HE22   626  13.396   4.787   6.322
     GLN    CB   627  13.212   4.635   6.609
     GLN   HB1   628  13.182   4.528   6.609
     GLN   HB2   629  13.139   4.674   6.536
     GLN    CG   630  13.194   4.707   6.739
     GLN   HG1   631  13.085   4.700   6.762
     GLN   HG2   632  13.214   4.816   6.735
     GLN     C   633  13.272   4.653   6.850
     GLN     O   634  13.374   4.716   6.890
     LYS     N   635  13.243   4.536   6.906
     LYS    HN   636  13.315   4.509   6.969
     LYS    CA   637  13.138   4.447   6.883
     LYS    HA   638  13.049   4.482   6.833
     LYS    CB   639  13.083   4.407   7.020
     LYS   HB1   640  12.993   4.343   7.022
     LYS   HB2   641  13.157   4.341   7.071
     LYS    CG   642  13.027   4.526   7.107
     LYS   HG1   643  13.021   4.474   7.204
     LYS   HG2   644  13.110   4.597   7.129
     LYS    CD   645  12.901   4.589   7.047
     LYS   HD1   646  12.926   4.652   6.959
     LYS   HD2   647  12.841   4.511   6.996
     LYS    CE   648  12.799   4.662   7.136
     LYS   HE1   649  12.832   4.752   7.192
     LYS   HE2   650  12.718   4.697   7.070
     LYS    NZ   651  12.747   4.567   7.239
     LYS   HZ1   652  12.739   4.477   7.188
     LYS     C   653  13.193   4.326   6.800
     LYS     O   654  13.313   4.326   6.760
     GLY     C   655  14.180   4.610   7.654
     GLY     O   656  14.279   4.559   7.705
     GLY    CA   657  14.183   4.685   7.521
     GLY   HA1   658  14.272   4.656   7.464
     GLY   HA2   659  14.184   4.793   7.539
     GLY     N   660  14.065   4.652   7.443
     GLY    HN   661  13.999   4.587   7.483
     GLY     C   662  14.042   4.525   7.407
     GLY     O   663  14.124   4.442   7.444
     GLY    CA   664  13.918   4.491   7.325
     GLY   HA1   665  13.895   4.384   7.336
     GLY   HA2   666  13.935   4.514   7.220
     GLY     N   667  13.805   4.568   7.372
     GLY    HN   668  13.820   4.632   7.450
     GLY     C   669  13.763   4.555   7.499
     GLY     O   670  13.826   4.477   7.570
     GLY    CA   671  13.644   4.636   7.548
     GLY   HA1   672  13.646   4.643   7.658
     GLY   HA2   673  13.551   4.589   7.516
     GLY     N   674  13.649   4.770   7.494
     GLY    HN   675  13.727   4.794   7.433
     GLY     C   676  13.754   4.849   7.520
     GLY     O   677  13.842   4.801   7.591
     GLY    CA   678  13.760   4.991   7.463
     GLY   HA1   679  13.863   5.026   7.463
     GLY   HA2   680  13.698   5.058   7.523
     GLY     N   681  13.710   4.991   7.327
     GLY    HN   682  13.680   4.902   7.288
     GLY     C   683  13.771   4.916   7.233
     GLY     O   684  13.868   4.850   7.270
     GLY    CA   685  13.719   4.916   7.090
     GLY   HA1   686  13.754   4.826   7.038
     GLY   HA2   687  13.754   5.005   7.038
     GLY     N   688  13.574   4.916   7.090
     GLY    HN   689  13.523   4.924   7.002
     DAL     N   690  13.123   4.212   6.781
     DAL    HN   691  13.160   4.139   6.725
     DAL    CA   692  12.978   4.186   6.800
     DAL    HA   693  12.958   4.151   6.900
     DAL    CB   694  12.940   4.062   6.710
     DAL   HB1   695  13.003   3.975   6.738
     DAL   HB2   696  12.834   4.033   6.729
     DAL   HB3   697  12.949   4.090   6.603
     DAL     C   698  12.871   4.299   6.771
     DAL     O   699  12.897   4.386   6.691
     DAL     N   700  12.754   4.296   6.834
     DAL    HN   701  12.693   4.370   6.808
     DAL    CA   702  12.703   4.193   6.921
     DAL    HA   703  12.729   4.097   6.879
     DAL    CB   704  12.554   4.203   6.918
     DAL   HB1   705  12.514   4.284   6.984
     DAL   HB2   706  12.514   4.215   6.815
     DAL   HB3   707  12.510   4.107   6.952
     DAL     C   708  12.756   4.205   7.067
     DAL   OC1   709  12.830   4.113   7.115
     DAL   OC2   710  12.732   4.310   7.129
     NAG    C1   711   0.788   5.397   6.320
     NAG    H1   712   0.705   5.416   6.393
     NAG    C5   713   0.673   5.204   6.238
     NAG    H5   714   0.598   5.236   6.314
     NAG    O5   715   0.745   5.321   6.205
     NAG    C2   716   0.886   5.304   6.386
     NAG    H2   717   0.980   5.282   6.331
     NAG    NC   718   0.946   5.339   6.514
     NAG    HN   719   0.965   5.251   6.556
     NAG    CM   720   1.031   5.430   6.555
     NAG    OM   721   1.101   5.500   6.485
     NAG    CC   722   1.029   5.439   6.701
     NAG   HC1   723   1.003   5.539   6.743
     NAG   HC2   724   0.962   5.362   6.744
     NAG   HC3   725   1.134   5.415   6.728
     NAG    C3   726   0.826   5.166   6.431
     NAG    H3   727   0.740   5.176   6.500
     NAG    O3   728   0.926   5.085   6.495
     NAG   HO3   729   0.985   5.045   6.432
     NAG    C4   730   0.770   5.100   6.304
     NAG    H4   731   0.848   5.080   6.228
     NAG    O4   732   0.696   4.984   6.343
     NAG    C6   733   0.614   5.159   6.107
     NAG   H61   734   0.548   5.236   6.061
     NAG   H62   735   0.549   5.070   6.121
     NAG    O6   736   0.714   5.114   6.017
     NAG   HO6   737   0.720   5.176   5.944
     NAM    C1   738   0.819   5.922   6.220
     NAM    H1   739   0.929   5.932   6.236
     NAM    C5   740   0.814   5.743   6.363
     NAM    H5   741   0.924   5.755   6.368
     NAM    O5   742   0.753   5.869   6.326
     NAM    C2   743   0.780   5.837   6.102
     NAM    H2   744   0.669   5.843   6.098
     NAM    NC   745   0.863   5.878   5.986
     NAM    HN   746   0.953   5.911   6.011
     NAM    CM   747   0.832   5.882   5.855
     NAM    OM   748   0.740   5.828   5.797
     NAM    CC   749   0.937   5.962   5.789
     NAM   HC1   750   1.025   5.975   5.857
     NAM   HC2   751   0.972   5.911   5.697
     NAM   HC3   752   0.898   6.063   5.761
     NAM    C3   753   0.833   5.689   6.121
     NAM    H3   754   0.944   5.687   6.116
     NAM    O3   755   0.802   5.595   6.019
     NAM    CA   756   0.663   5.553   6.008
     NAM    HA   757   0.641   5.475   6.080
     NAM     C   758   0.676   5.482   5.874
     NAM     O   759   0.689   5.357   5.875
     NAM    CB   760   0.543   5.649   6.006
     NAM   HB1   761   0.551   5.731   5.932
     NAM   HB2   762   0.516   5.684   6.108
     NAM   HB3   763   0.456   5.584   5.982
     NAM    C4   764   0.792   5.636   6.254
     NAM    H4   765   0.682   5.619   6.253
     NAM    O4   766   0.862   5.513   6.280
     NAM    C6   767   0.754   5.715   6.498
     NAM   H61   768   0.766   5.806   6.561
     NAM   H62   769   0.809   5.631   6.545
     NAM    O6   770   0.614   5.673   6.485
     NAM   HO6   771   0.572   5.733   6.423
     ALA     N   772   0.671   5.559   5.764
     ALA    HN   773   0.653   5.656   5.776
     ALA    CA   774   0.653   5.508   5.631
     ALA    HA   775   0.750   5.468   5.604
     ALA    CB   776   0.612   5.634   5.539
     ALA   HB1   777   0.501   5.640   5.527
     ALA   HB2   778   0.640   5.623   5.432
     ALA   HB3   779   0.629   5.736   5.580
     ALA     C   780   0.558   5.397   5.609
     ALA     O   781   0.441   5.397   5.636
     GLN     N   782   0.614   5.295   5.547
     GLN    HN   783   0.562   5.212   5.533
     GLN    CA   784   0.751   5.273   5.482
     GLN    HA   785   0.794   5.365   5.443
     GLN    CD   786   0.858   5.219   5.576
     GLN   OE1   787   0.962   5.278   5.590
     GLN   NE2   788   0.834   5.101   5.637
     GLN  HE21   789   0.907   5.065   5.695
     GLN  HE22   790   0.743   5.060   5.635
     GLN    CB   791   0.728   5.173   5.360
     GLN   HB1   792   0.692   5.074   5.396
     GLN   HB2   793   0.826   5.150   5.312
     GLN    CG   794   0.629   5.224   5.252
     GLN   HG1   795   0.659   5.328   5.225
     GLN   HG2   796   0.523   5.231   5.287
     GLN     C   797   0.625   5.129   5.137
     GLN     O   798   0.674   5.157   5.028
     LYS     N   799   0.560   5.011   5.151
     LYS    HN   800   0.559   4.959   5.065
     LYS    CA   801   0.486   4.959   5.267
     LYS    HA   802   0.499   5.027   5.350
     LYS    CB   803   0.542   4.819   5.290
     LYS   HB1   804   0.479   4.781   5.373
     LYS   HB2   805   0.521   4.757   5.201
     LYS    CG   806   0.692   4.819   5.318
     LYS   HG1   807   0.758   4.861   5.240
     LYS   HG2   808   0.711   4.882   5.408
     LYS    CD   809   0.739   4.673   5.341
     LYS   HD1   810   0.720   4.599   5.260
     LYS   HD2   811   0.849   4.670   5.354
     LYS    CE   812   0.686   4.611   5.471
     LYS   HE1   813   0.575   4.617   5.470
     LYS   HE2   814   0.699   4.501   5.482
     LYS    NZ   815   0.721   4.688   5.593
     LYS   HZ1   816   0.734   4.617   5.668
     LYS   HZ2   817   0.642   4.749   5.624
     LYS   HZ3   818   0.802   4.750   5.576
     LYS     C   819   0.346   4.954   5.215
     LYS     O   820   0.324   4.967   5.093
     DAL     N   821   0.247   4.939   5.302
     DAL    HN   822   0.160   4.936   5.253
     DAL    CA   823   0.240   4.953   5.445
     DAL    HA   824   0.315   4.887   5.485
     DAL    CB   825   0.116   4.887   5.505
     DAL   HB1   826   0.102   4.782   5.471
     DAL   HB2   827   0.128   4.884   5.615
     DAL   HB3   828   0.030   4.954   5.484
     DAL     C   829   0.270   5.097   5.491
     DAL     O   830   0.250   5.190   5.419
     NAG    C1   831   0.823   6.446   6.296
     NAG    H1   832   0.723   6.464   6.249
     NAG    C5   833   0.840   6.273   6.143
     NAG    H5   834   0.740   6.309   6.111
     NAG    O5   835   0.913   6.381   6.204
     NAG    C2   836   0.803   6.346   6.407
     NAG    H2   837   0.908   6.316   6.424
     NAG    NC   838   0.733   6.404   6.522
     NAG    HN   839   0.642   6.443   6.520
     NAG    CM   840   0.790   6.417   6.646
     NAG    OM   841   0.908   6.402   6.666
     NAG    CC   842   0.704   6.451   6.768
     NAG   HC1   843   0.605   6.482   6.729
     NAG   HC2   844   0.681   6.361   6.828
     NAG   HC3   845   0.740   6.540   6.823
     NAG    C3   846   0.730   6.230   6.352
     NAG    H3   847   0.635   6.259   6.302
     NAG    O3   848   0.694   6.141   6.457
     NAG   HO3   849   0.773   6.107   6.500
     NAG    C4   850   0.818   6.164   6.252
     NAG    H4   851   0.913   6.138   6.304
     NAG    O4   852   0.761   6.051   6.190
     NAG    C6   853   0.915   6.220   6.025
     NAG   H61   854   0.854   6.138   5.980
     NAG   H62   855   1.009   6.169   6.055
     NAG    O6   856   0.935   6.320   5.924
     NAG   HO6   857   0.998   6.378   5.968
     NAM    C1   858   0.859   6.987   6.277
     NAM    H1   859   0.864   6.994   6.388
     NAM    C5   860   0.748   6.780   6.312
     NAM    H5   861   0.753   6.810   6.419
     NAM    O5   862   0.751   6.902   6.229
     NAM    C2   863   0.982   6.909   6.238
     NAM    H2   864   0.990   6.909   6.128
     NAM    NC   865   1.094   6.968   6.318
     NAM    HN   866   1.095   6.959   6.417
     NAM    CM   867   1.198   7.035   6.266
     NAM    OM   868   1.199   7.087   6.155
     NAM    CC   869   1.316   7.048   6.356
     NAM   HC1   870   1.311   7.000   6.456
     NAM   HC2   871   1.405   7.004   6.306
     NAM   HC3   872   1.352   7.151   6.375
     NAM    C3   873   0.996   6.775   6.309
     NAM    H3   874   0.994   6.789   6.419
     NAM    O3   875   1.116   6.708   6.279
     NAM    CA   876   1.136   6.674   6.139
     NAM    HA   877   1.054   6.681   6.069
     NAM     C   878   1.170   6.531   6.124
     NAM     O   879   1.150   6.477   6.012
     NAM    CB   880   1.249   6.763   6.087
     NAM   HB1   881   1.327   6.774   6.165
     NAM   HB2   882   1.210   6.862   6.055
     NAM   HB3   883   1.296   6.709   6.001
     NAM    C4   884   0.871   6.685   6.280
     NAM    H4   885   0.869   6.665   6.171
     NAM    O4   886   0.876   6.561   6.356
     NAM    C6   887   0.608   6.718   6.298
     NAM   H61   888   0.528   6.794   6.317
     NAM   H62   889   0.589   6.641   6.376
     NAM    O6   890   0.587   6.667   6.169
     NAM   HO6   891   0.637   6.714   6.101
     ALA     N   892   1.215   6.461   6.234
     ALA    HN   893   1.223   6.520   6.314
     ALA    CA   894   1.237   6.317   6.238
     ALA    HA   895   1.175   6.260   6.171
     ALA    CB   896   1.202   6.264   6.385
     ALA   HB1   897   1.093   6.276   6.404
     ALA   HB2   898   1.264   6.322   6.456
     ALA   HB3   899   1.238   6.159   6.375
     ALA     C   900   1.377   6.266   6.207
     ALA     O   901   1.385   6.179   6.123
     GLN     N   902   1.484   6.323   6.260
     GLN    HN   903   1.469   6.410   6.306
     GLN    CA   904   1.619   6.283   6.228
     GLN    HA   905   1.618   6.219   6.141
     GLN    CD   906   1.703   6.412   6.199
     GLN   OE1   907   1.658   6.525   6.240
     GLN   NE2   908   1.817   6.402   6.136
     GLN  HE21   909   1.872   6.484   6.119
     GLN  HE22   910   1.833   6.310   6.098
     GLN    CB   911   1.684   6.208   6.348
     GLN   HB1   912   1.683   6.275   6.437
     GLN   HB2   913   1.792   6.187   6.333
     GLN    CG   914   1.604   6.084   6.391
     GLN   HG1   915   1.582   6.022   6.301
     GLN   HG2   916   1.507   6.119   6.431
     GLN     C   917   1.678   5.997   6.491
     GLN     O   918   1.793   5.956   6.473
     LYS     N   919   1.625   5.967   6.612
     LYS    HN   920   1.674   5.909   6.676
     LYS    CA   921   1.508   6.025   6.670
     LYS    HA   922   1.499   6.123   6.627
     LYS    CB   923   1.518   6.049   6.816
     LYS   HB1   924   1.429   6.106   6.851
     LYS   HB2   925   1.513   5.969   6.893
     LYS    CG   926   1.642   6.146   6.847
     LYS   HG1   927   1.739   6.093   6.845
     LYS   HG2   928   1.640   6.219   6.763
     LYS    CD   929   1.613   6.222   6.980
     LYS   HD1   930   1.710   6.275   6.995
     LYS   HD2   931   1.537   6.303   6.979
     LYS    CE   932   1.603   6.138   7.114
     LYS   HE1   933   1.583   6.198   7.205
     LYS   HE2   934   1.516   6.070   7.102
     LYS    NZ   935   1.722   6.056   7.150
     LYS   HZ1   936   1.738   5.965   7.103
     LYS   HZ2   937   1.727   6.043   7.253
     LYS   HZ3   938   1.801   6.118   7.121
     LYS     C   939   1.371   5.954   6.660
     LYS     O   940   1.275   6.014   6.611
     DAL     N   941   1.350   5.828   6.706
     DAL    HN   942   1.260   5.785   6.707
     DAL    CA   943   1.445   5.730   6.757
     DAL    HA   944   1.536   5.776   6.793
     DAL    CB   945   1.482   5.629   6.649
     DAL   HB1   946   1.399   5.555   6.641
     DAL   HB2   947   1.508   5.686   6.558
     DAL   HB3   948   1.574   5.580   6.689
     DAL     C   949   1.372   5.658   6.874
     DAL     O   950   1.252   5.638   6.868
     DAL     N   951   1.439   5.607   6.980
     DAL    HN   952   1.383   5.572   7.054
     DAL    CA   953   1.580   5.621   6.996
     DAL    HA   954   1.616   5.624   6.894
     DAL    CB   955   1.635   5.508   7.082
     DAL   HB1   956   1.599   5.511   7.187
     DAL   HB2   957   1.601   5.409   7.044
     DAL   HB3   958   1.746   5.499   7.081
     DAL     C   959   1.619   5.762   7.050
     DAL   OC1   960   1.739   5.808   7.039
     DAL   OC2   961   1.537   5.819   7.122
     NAG    C1   962   0.691   7.473   6.326
     NAG    H1   963   0.632   7.481   6.232
     NAG    C5   964   0.865   7.340   6.226
     NAG    H5   965   0.807   7.355   6.132
     NAG    O5   966   0.832   7.453   6.304
     NAG    C2   967   0.630   7.354   6.403
     NAG    H2   968   0.678   7.368   6.502
     NAG    NC   969   0.482   7.352   6.403
     NAG    HN   970   0.430   7.310   6.329
     NAG    CM   971   0.407   7.388   6.506
     NAG    OM   972   0.431   7.369   6.623
     NAG    CC   973   0.286   7.466   6.454
     NAG   HC1   974   0.197   7.453   6.519
     NAG   HC2   975   0.320   7.571   6.462
     NAG   HC3   976   0.267   7.438   6.348
     NAG    C3   977   0.675   7.224   6.335
     NAG    H3   978   0.607   7.217   6.248
     NAG    O3   979   0.647   7.112   6.418
     NAG   HO3   980   0.556   7.084   6.406
     NAG    C4   981   0.820   7.223   6.303
     NAG    H4   982   0.880   7.217   6.396
     NAG    O4   983   0.867   7.117   6.211
     NAG    C6   984   1.017   7.343   6.199
     NAG   H61   985   1.040   7.263   6.125
     NAG   H62   986   1.076   7.327   6.292
     NAG    O6   987   1.058   7.458   6.135
     NAG   HO6   988   1.074   7.517   6.209
     NAM    C1   989   0.722   7.998   6.394
     NAM    H1   990   0.621   8.009   6.440
     NAM    C5   991   0.649   7.798   6.285
     NAM    H5   992   0.560   7.815   6.349
     NAM    O5   993   0.716   7.922   6.269
     NAM    C2   994   0.815   7.920   6.482
     NAM    H2   995   0.916   7.929   6.437
     NAM    NC   996   0.822   7.988   6.608
     NAM    HN   997   0.736   7.986   6.657
     NAM    CM   998   0.921   8.067   6.647
     NAM    OM   999   1.005   8.100   6.567
     NAM    CC  1000   0.909   8.120   6.788
     NAM   HC1  1001   0.895   8.230   6.785
     NAM   HC2  1002   0.821   8.077   6.841
     NAM   HC3  1003   0.998   8.090   6.847
     NAM    C3  1004   0.764   7.784   6.500
     NAM    H3  1005   0.663   7.783   6.548
     NAM    O3  1006   0.836   7.702   6.600
     NAM    CA  1007   0.959   7.645   6.568
     NAM    HA  1008   0.973   7.661   6.462
     NAM     C  1009   0.975   7.494   6.590
     NAM     O  1010   1.074   7.442   6.543
     NAM    CB  1011   1.055   7.737   6.639
     NAM   HB1  1012   1.050   7.842   6.603
     NAM   HB2  1013   1.158   7.696   6.634
     NAM   HB3  1014   1.038   7.755   6.747
     NAM    C4  1015   0.735   7.709   6.377
     NAM    H4  1016   0.825   7.690   6.316
     NAM    O4  1017   0.669   7.584   6.407
     NAM    C6  1018   0.602   7.744   6.153
     NAM   H61  1019   0.523   7.666   6.161
     NAM   H62  1020   0.688   7.701   6.098
     NAM    O6  1021   0.555   7.853   6.074
     NAM   HO6  1022   0.627   7.916   6.070
     ALA     N  1023   0.883   7.420   6.661
     ALA    HN  1024   0.791   7.454   6.680
     ALA    CA  1025   0.909   7.295   6.732
     ALA    HA  1026   0.972   7.235   6.667
     ALA    CB  1027   0.776   7.218   6.760
     ALA   HB1  1028   0.716   7.199   6.669
     ALA   HB2  1029   0.705   7.253   6.838
     ALA   HB3  1030   0.787   7.114   6.798
     ALA     C  1031   0.996   7.300   6.852
     ALA     O  1032   1.002   7.404   6.915
     GLN     N  1033   1.063   7.187   6.890
     GLN    HN  1034   1.111   7.206   6.975
     GLN    CA  1035   1.054   7.051   6.837
     GLN    HA  1036   0.955   7.007   6.832
     GLN    CD  1037   1.130   7.037   6.701
     GLN   OE1  1038   1.080   6.976   6.602
     GLN   NE2  1039   1.248   7.094   6.704
     GLN  HE21  1040   1.294   7.081   6.616
     GLN  HE22  1041   1.296   7.105   6.791
     GLN    CB  1042   1.113   6.957   6.945
     GLN   HB1  1043   1.222   6.976   6.953
     GLN   HB2  1044   1.089   6.852   6.917
     GLN    CG  1045   1.057   6.973   7.090
     GLN   HG1  1046   0.946   6.977   7.089
     GLN   HG2  1047   1.098   7.073   7.116
     GLN     C  1048   1.115   6.867   7.179
     GLN     O  1049   1.070   6.755   7.189
     LYS     N  1050   1.221   6.897   7.248
     LYS    HN  1051   1.257   6.813   7.288
     LYS    CA  1052   1.284   7.020   7.282
     LYS    HA  1053   1.297   7.070   7.187
     LYS    CB  1054   1.406   6.992   7.369
     LYS   HB1  1055   1.454   7.084   7.409
     LYS   HB2  1056   1.388   6.927   7.458
     LYS    CG  1057   1.516   6.925   7.291
     LYS   HG1  1058   1.470   6.833   7.251
     LYS   HG2  1059   1.529   6.980   7.195
     LYS    CD  1060   1.647   6.889   7.366
     LYS   HD1  1061   1.618   6.844   7.463
     LYS   HD2  1062   1.693   6.806   7.307
     LYS    CE  1063   1.753   6.998   7.381
     LYS   HE1  1064   1.726   7.083   7.448
     LYS   HE2  1065   1.844   6.950   7.422
     LYS    NZ  1066   1.791   7.043   7.244
     LYS   HZ1  1067   1.819   6.959   7.189
     LYS   HZ2  1068   1.875   7.104   7.245
     LYS   HZ3  1069   1.714   7.089   7.191
     LYS     C  1070   1.192   7.108   7.375
     LYS     O  1071   1.092   7.064   7.433
     DAL     N  1072   1.226   7.232   7.400
     DAL    HN  1073   1.163   7.279   7.461
     DAL    CA  1074   1.318   7.326   7.345
     DAL    HA  1075   1.419   7.287   7.347
     DAL    CB  1076   1.314   7.450   7.425
     DAL   HB1  1077   1.389   7.526   7.395
     DAL   HB2  1078   1.214   7.494   7.405
     DAL   HB3  1079   1.310   7.426   7.533
     DAL     C  1080   1.287   7.354   7.200
     DAL     O  1081   1.173   7.329   7.154
     NAG    C1  1082   0.695   8.512   6.276
     NAG    H1  1083   0.798   8.524   6.317
     NAG    C5  1084   0.671   8.325   6.420
     NAG    H5  1085   0.766   8.360   6.466
     NAG    O5  1086   0.611   8.448   6.366
     NAG    C2  1087   0.690   8.424   6.149
     NAG    H2  1088   0.582   8.414   6.126
     NAG    NC  1089   0.757   8.475   6.031
     NAG    HN  1090   0.853   8.449   6.040
     NAG    CM  1091   0.715   8.551   5.923
     NAG    OM  1092   0.603   8.601   5.921
     NAG    CC  1093   0.824   8.576   5.814
     NAG   HC1  1094   0.877   8.667   5.846
     NAG   HC2  1095   0.892   8.489   5.803
     NAG   HC3  1096   0.778   8.601   5.716
     NAG    C3  1097   0.751   8.282   6.178
     NAG    H3  1098   0.858   8.306   6.196
     NAG    O3  1099   0.726   8.195   6.064
     NAG   HO3  1100   0.780   8.116   6.066
     NAG    C4  1101   0.693   8.222   6.307
     NAG    H4  1102   0.595   8.177   6.280
     NAG    O4  1103   0.783   8.118   6.355
     NAG    C6  1104   0.585   8.270   6.530
     NAG   H61  1105   0.579   8.352   6.604
     NAG   H62  1106   0.638   8.188   6.583
     NAG    O6  1107   0.457   8.227   6.480
     NAG   HO6  1108   0.421   8.299   6.428
     NAM    C1  1109   0.665   9.054   6.362
     NAM    H1  1110   0.621   9.097   6.269
     NAM    C5  1111   0.754   8.853   6.258
     NAM    H5  1112   0.704   8.878   6.162
     NAM    O5  1113   0.782   8.971   6.331
     NAM    C2  1114   0.570   8.960   6.435
     NAM    H2  1115   0.620   8.921   6.526
     NAM    NC  1116   0.439   9.007   6.420
     NAM    HN  1117   0.378   8.975   6.348
     NAM    CM  1118   0.384   9.080   6.520
     NAM    OM  1119   0.432   9.061   6.638
     NAM    CC  1120   0.262   9.155   6.480
     NAM   HC1  1121   0.206   9.185   6.571
     NAM   HC2  1122   0.295   9.240   6.417
     NAM   HC3  1123   0.201   9.083   6.422
     NAM    C3  1124   0.539   8.822   6.364
     NAM    H3  1125   0.501   8.855   6.265
     NAM    O3  1126   0.438   8.735   6.415
     NAM    CA  1127   0.449   8.659   6.534
     NAM    HA  1128   0.468   8.560   6.496
     NAM     C  1129   0.314   8.670   6.594
     NAM     O  1130   0.246   8.567   6.590
     NAM    CB  1131   0.546   8.714   6.645
     NAM   HB1  1132   0.653   8.711   6.615
     NAM   HB2  1133   0.534   8.656   6.739
     NAM   HB3  1134   0.527   8.822   6.661
     NAM    C4  1135   0.668   8.754   6.327
     NAM    H4  1136   0.730   8.731   6.417
     NAM    O4  1137   0.644   8.641   6.238
     NAM    C6  1138   0.890   8.804   6.226
     NAM   H61  1139   0.887   8.703   6.180
     NAM   H62  1140   0.929   8.799   6.330
     NAM    O6  1141   0.977   8.895   6.147
     NAM   HO6  1142   1.024   8.955   6.205
     ALA     N  1143   0.271   8.784   6.655
     ALA    HN  1144   0.327   8.866   6.653
     ALA    CA  1145   0.142   8.787   6.725
     ALA    HA  1146   0.076   8.733   6.659
     ALA    CB  1147   0.095   8.929   6.751
     ALA   HB1  1148   0.107   8.998   6.664
     ALA   HB2  1149   0.162   8.978   6.825
     ALA   HB3  1150  13.448   8.933   6.794
     ALA     C  1151   0.140   8.708   6.860
     ALA     O  1152   0.245   8.652   6.900
     GLN     N  1153   0.027   8.695   6.926
     GLN    HN  1154   0.034   8.649   7.014
     GLN    CA  1155  13.344   8.700   6.876
     GLN    HA  1156  13.333   8.753   6.783
     GLN    CD  1157  13.298   8.557   6.832
     GLN   OE1  1158  13.258   8.533   6.720
     GLN   NE2  1159  13.324   8.455   6.915
     GLN  HE21  1160  13.302   8.361   6.888
     GLN  HE22  1161  13.360   8.472   7.007
     GLN    CB  1162  13.260   8.754   6.989
     GLN   HB1  1163  13.279   8.689   7.077
     GLN   HB2  1164  13.152   8.741   6.965
     GLN    CG  1165  13.276   8.903   7.026
     GLN   HG1  1166  13.256   8.963   6.934
     GLN   HG2  1167  13.378   8.931   7.057
     GLN     C  1168  13.173   8.957   7.122
     GLN     O  1169  13.068   9.003   7.077
     LYS     N  1170  13.196   8.960   7.255
     LYS    HN  1171  13.123   8.982   7.319
     LYS    CA  1172  13.321   8.924   7.320
     LYS    HA  1173  13.374   8.860   7.251
     LYS    CB  1174  13.281   8.857   7.454
     LYS   HB1  1175  13.368   8.824   7.515
     LYS   HB2  1176  13.233   8.931   7.523
     LYS    CG  1177  13.184   8.741   7.442
     LYS   HG1  1178  13.170   8.704   7.546
     LYS   HG2  1179  13.085   8.770   7.399
     LYS    CD  1180  13.258   8.630   7.363
     LYS   HD1  1181  13.205   8.619   7.266
     LYS   HD2  1182  13.362   8.664   7.344
     LYS    CE  1183  13.275   8.495   7.442
     LYS   HE1  1184  13.353   8.521   7.516
     LYS   HE2  1185  13.178   8.461   7.486
     LYS    NZ  1186  13.330   8.393   7.352
     LYS   HZ1  1187  13.256   8.351   7.292
     LYS   HZ2  1188  13.364   8.308   7.402
     LYS   HZ3  1189  13.397   8.439   7.288
     LYS     C  1190  13.407   9.037   7.338
     LYS     O  1191  13.363   9.151   7.340
     DAL     N  1192   0.083   9.029   7.346
     DAL    HN  1193   0.134   9.115   7.351
     DAL    CA  1194   0.162   8.903   7.339
     DAL    HA  1195   0.106   8.833   7.399
     DAL    CB  1196   0.296   8.936   7.404
     DAL   HB1  1197   0.276   8.981   7.504
     DAL   HB2  1198   0.359   8.846   7.414
     DAL   HB3  1199   0.342   9.013   7.339
     DAL     C  1200   0.178   8.857   7.189
     DAL     O  1201   0.160   8.931   7.092
     DAL     N  1202   0.228   8.733   7.166
     DAL    HN  1203   0.257   8.724   7.070
     DAL    CA  1204   0.246   8.610   7.248
     DAL    HA  1205   0.252   8.637   7.353
     DAL    CB  1206   0.380   8.546   7.211
     DAL   HB1  1207   0.465   8.615   7.233
     DAL   HB2  1208   0.396   8.452   7.267
     DAL   HB3  1209   0.376   8.524   7.102
     DAL     C  1210   0.131   8.513   7.231
     DAL   OC1  1211   0.021   8.542   7.176
     DAL   OC2  1212   0.137   8.404   7.300
     NAG    C1  1213   0.834   9.560   6.409
     NAG    H1  1214   0.891   9.559   6.505
     NAG    C5  1215   0.708   9.384   6.518
     NAG    H5  1216   0.788   9.380   6.594
     NAG    O5  1217   0.706   9.513   6.450
     NAG    C2  1218   0.889   9.455   6.309
     NAG    H2  1219   0.840   9.482   6.213
     NAG    NC  1220   1.032   9.488   6.315
     NAG    HN  1221   1.060   9.549   6.389
     NAG    CM  1222   1.111   9.456   6.212
     NAG    OM  1223   1.072   9.441   6.094
     NAG    CC  1224   1.258   9.466   6.236
     NAG   HC1  1225   1.293   9.564   6.197
     NAG   HC2  1226   1.267   9.458   6.347
     NAG   HC3  1227   1.322   9.405   6.168
     NAG    C3  1228   0.864   9.312   6.347
     NAG    H3  1229   0.937   9.289   6.427
     NAG    O3  1230   0.885   9.223   6.238
     NAG   HO3  1231   0.937   9.149   6.268
     NAG    C4  1232   0.727   9.288   6.403
     NAG    H4  1233   0.653   9.314   6.323
     NAG    O4  1234   0.708   9.156   6.456
     NAG    C6  1235   0.575   9.366   6.590
     NAG   H61  1236   0.581   9.280   6.660
     NAG   H62  1237   0.503   9.332   6.513
     NAG    O6  1238   0.526   9.485   6.654
     NAG   HO6  1239   0.525   9.558   6.592
     NAM    C1  1240   0.792  10.095   6.421
     NAM    H1  1241   0.705  10.096   6.353
     NAM    C5  1242   0.897   9.912   6.315
     NAM    H5  1243   0.807   9.930   6.253
     NAM    O5  1244   0.919  10.045   6.364
     NAM    C2  1245   0.753  10.004   6.544
     NAM    H2  1246   0.841  10.015   6.610
     NAM    NC  1247   0.633  10.036   6.622
     NAM    HN  1248   0.546   9.993   6.597
     NAM    CM  1249   0.620  10.114   6.734
     NAM    OM  1250   0.710  10.184   6.777
     NAM    CC  1251   0.488  10.099   6.794
     NAM   HC1  1252   0.492  10.025   6.877
     NAM   HC2  1253   0.440  10.197   6.812
     NAM   HC3  1254   0.422  10.053   6.718
     NAM    C3  1255   0.727   9.859   6.499
     NAM    H3  1256   0.637   9.860   6.433
     NAM    O3  1257   0.682   9.769   6.601
     NAM    CA  1258   0.751   9.747   6.724
     NAM    HA  1259   0.710   9.652   6.693
     NAM     C  1260   0.667   9.786   6.843
     NAM     O  1261   0.542   9.781   6.837
     NAM    CB  1262   0.898   9.724   6.744
     NAM   HB1  1263   0.963   9.815   6.746
     NAM   HB2  1264   0.952   9.660   6.671
     NAM   HB3  1265   0.920   9.686   6.847
     NAM    C4  1266   0.845   9.810   6.417
     NAM    H4  1267   0.939   9.794   6.475
     NAM    O4  1268   0.828   9.684   6.345
     NAM    C6  1269   1.012   9.861   6.227
     NAM   H61  1270   0.982   9.763   6.185
     NAM   H62  1271   1.108   9.854   6.282
     NAM    O6  1272   1.013   9.941   6.113
     NAM   HO6  1273   1.037  10.033   6.127
     ALA     N  1274   0.729   9.829   6.961
     ALA    HN  1275   0.829   9.832   6.963
     ALA    CA  1276   0.656   9.842   7.092
     ALA    HA  1277   0.578   9.914   7.070
     ALA    CB  1278   0.737   9.919   7.201
     ALA   HB1  1279   0.825   9.855   7.222
     ALA   HB2  1280   0.681   9.938   7.295
     ALA   HB3  1281   0.766  10.022   7.171
     ALA     C  1282   0.589   9.715   7.144
     ALA     O  1283   0.638   9.603   7.114
     GLN     N  1284   0.488   9.725   7.232
     GLN    HN  1285   0.446   9.643   7.272
     GLN    CA  1286   0.397   9.838   7.247
     GLN    HA  1287   0.451   9.931   7.235
     GLN    CD  1288   0.281   9.824   7.141
     GLN   OE1  1289   0.163   9.814   7.181
     GLN   NE2  1290   0.310   9.809   7.009
     GLN  HE21  1291   0.233   9.818   6.947
     GLN  HE22  1292   0.403   9.784   6.981
     GLN    CB  1293   0.335   9.856   7.396
     GLN   HB1  1294   0.260   9.776   7.410
     GLN   HB2  1295   0.298   9.960   7.382
     GLN    CG  1296   0.437   9.870   7.517
     GLN   HG1  1297   0.488   9.968   7.512
     GLN   HG2  1298   0.508   9.784   7.513
     GLN     C  1299   0.369   9.865   7.643
     GLN     O  1300   0.331   9.970   7.699
     LYS     N  1301   0.329   9.747   7.690
     LYS    HN  1302   0.271   9.745   7.771
     LYS    CA  1303   0.385   9.616   7.661
     LYS    HA  1304   0.380   9.607   7.553
     LYS    CB  1305   0.310   9.511   7.743
     LYS   HB1  1306   0.355   9.410   7.730
     LYS   HB2  1307   0.297   9.535   7.850
     LYS    CG  1308   0.161   9.497   7.698
     LYS   HG1  1309   0.119   9.599   7.715
     LYS   HG2  1310   0.163   9.474   7.590
     LYS    CD  1311   0.075   9.404   7.781
     LYS   HD1  1312   0.087   9.453   7.880
     LYS   HD2  1313  13.427   9.415   7.741
     LYS    CE  1314   0.108   9.256   7.777
     LYS   HE1  1315   0.211   9.241   7.816
     LYS   HE2  1316   0.033   9.198   7.836
     LYS    NZ  1317   0.105   9.201   7.642
     LYS   HZ1  1318   0.017   9.234   7.598
     LYS   HZ2  1319   0.099   9.097   7.639
     LYS   HZ3  1320   0.175   9.241   7.577
     LYS     C  1321   0.532   9.612   7.701
     LYS     O  1322   0.588   9.703   7.765
     DAL     N  1323   0.604   9.503   7.672
     DAL    HN  1324   0.686   9.503   7.729
     DAL    CA  1325   0.581   9.400   7.570
     DAL    HA  1326   0.476   9.376   7.563
     DAL    CB  1327   0.661   9.272   7.598
     DAL   HB1  1328   0.643   9.190   7.526
     DAL   HB2  1329   0.769   9.294   7.612
     DAL   HB3  1330   0.624   9.234   7.696
     DAL     C  1331   0.612   9.452   7.431
     DAL     O  1332   0.691   9.544   7.419
     DAL     N  1333   0.546   9.405   7.329
     DAL    HN  1334   0.577   9.432   7.238
     DAL    CA  1335   0.446   9.302   7.330
     DAL    HA  1336   0.486   9.222   7.390
     DAL    CB  1337   0.437   9.242   7.190
     DAL   HB1  1338   0.414   9.334   7.133
     DAL   HB2  1339   0.536   9.207   7.155
     DAL   HB3  1340   0.368   9.155   7.186
     DAL     C  1341   0.308   9.352   7.370
     DAL   OC1  1342   0.239   9.279   7.440
     DAL   OC2  1343   0.263   9.463   7.327
     NAG    C1  1344   0.797  10.604   6.329
     NAG    H1  1345   0.768  10.634   6.432
     NAG    C5  1346   0.687  10.410   6.384
     NAG    H5  1347   0.675  10.457   6.484
     NAG    O5  1348   0.705  10.507   6.287
     NAG    C2  1349   0.926  10.531   6.320
     NAG    H2  1350   0.953  10.500   6.216
     NAG    NC  1351   1.041  10.615   6.366
     NAG    HN  1352   1.081  10.574   6.447
     NAG    CM  1353   1.104  10.719   6.308
     NAG    OM  1354   1.097  10.730   6.187
     NAG    CC  1355   1.182  10.803   6.402
     NAG   HC1  1356   1.124  10.833   6.492
     NAG   HC2  1357   1.266  10.737   6.432
     NAG   HC3  1358   1.214  10.894   6.346
     NAG    C3  1359   0.924  10.409   6.413
     NAG    H3  1360   0.927  10.448   6.517
     NAG    O3  1361   1.044  10.336   6.395
     NAG   HO3  1362   1.058  10.269   6.462
     NAG    C4  1363   0.813  10.321   6.375
     NAG    H4  1364   0.834  10.279   6.275
     NAG    O4  1365   0.810  10.222   6.473
     NAG    C6  1366   0.561  10.321   6.366
     NAG   H61  1367   0.553  10.259   6.458
     NAG   H62  1368   0.575  10.248   6.284
     NAG    O6  1369   0.441  10.392   6.355
     NAG   HO6  1370   0.433  10.434   6.269
     NAM    C1  1371   0.649  11.067   6.145
     NAM    H1  1372   0.745  11.083   6.091
     NAM    C5  1373   0.764  10.929   6.297
     NAM    H5  1374   0.866  10.948   6.258
     NAM    O5  1375   0.675  11.038   6.273
     NAM    C2  1376   0.585  10.943   6.075
     NAM    H2  1377   0.495  10.910   6.131
     NAM    NC  1378   0.569  10.972   5.935
     NAM    HN  1379   0.629  10.918   5.877
     NAM    CM  1380   0.472  11.047   5.889
     NAM    OM  1381   0.380  11.096   5.954
     NAM    CC  1382   0.472  11.063   5.735
     NAM   HC1  1383   0.578  11.072   5.703
     NAM   HC2  1384   0.436  10.968   5.689
     NAM   HC3  1385   0.421  11.154   5.698
     NAM    C3  1386   0.675  10.826   6.085
     NAM    H3  1387   0.769  10.858   6.034
     NAM    O3  1388   0.634  10.710   6.010
     NAM    CA  1389   0.516  10.643   6.055
     NAM    HA  1390   0.501  10.666   6.159
     NAM     C  1391   0.543  10.497   6.028
     NAM     O  1392   0.471  10.408   6.077
     NAM    CB  1393   0.400  10.697   5.963
     NAM   HB1  1394   0.430  10.683   5.857
     NAM   HB2  1395   0.377  10.801   5.996
     NAM   HB3  1396   0.307  10.642   5.986
     NAM    C4  1397   0.712  10.802   6.232
     NAM    H4  1398   0.621  10.775   6.290
     NAM    O4  1399   0.816  10.711   6.242
     NAM    C6  1400   0.778  10.916   6.457
     NAM   H61  1401   0.852  10.836   6.472
     NAM   H62  1402   0.678  10.890   6.498
     NAM    O6  1403   0.817  11.040   6.521
     NAM   HO6  1404   0.911  11.048   6.543
     ALA     N  1405   0.648  10.458   5.952
     ALA    HN  1406   0.715  10.529   5.932
     ALA    CA  1407   0.681  10.326   5.932
     ALA    HA  1408   0.655  10.267   6.019
     ALA    CB  1409   0.829  10.320   5.899
     ALA   HB1  1410   0.843  10.368   5.799
     ALA   HB2  1411   0.850  10.212   5.886
     ALA   HB3  1412   0.896  10.369   5.973
     ALA     C  1413   0.599  10.270   5.821
     ALA     O  1414   0.574  10.329   5.715
     GLN     N  1415   0.554  10.146   5.812
     GLN    HN  1416   0.520  10.123   5.721
     GLN    CA  1417   0.518  10.049   5.913
     GLN    HA  1418   0.491   9.954   5.869
     GLN    CD  1419   0.624  10.018   6.021
     GLN   OE1  1420   0.601  10.048   6.141
     GLN   NE2  1421   0.740   9.973   5.977
     GLN  HE21  1422   0.816   9.984   6.041
     GLN  HE22  1423   0.751   9.957   5.879
     GLN    CB  1424   0.389  10.079   5.988
     GLN   HB1  1425   0.393  10.168   6.055
     GLN   HB2  1426   0.373   9.983   6.041
     GLN    CG  1427   0.266  10.106   5.899
     GLN   HG1  1428   0.267  10.024   5.824
     GLN   HG2  1429   0.270  10.201   5.843
     GLN     C  1430   0.129  10.097   5.972
     GLN     O  1431   0.076   9.990   6.000
     LYS     N  1432   0.065  10.212   5.994
     LYS    HN  1433  13.432  10.221   6.038
     LYS    CA  1434   0.126  10.347   5.987
     LYS    HA  1435   0.231  10.340   6.007
     LYS    CB  1436   0.085  10.439   6.108
     LYS   HB1  1437   0.145  10.532   6.100
     LYS   HB2  1438  13.436  10.475   6.092
     LYS    CG  1439   0.102  10.361   6.243
     LYS   HG1  1440   0.027  10.280   6.257
     LYS   HG2  1441   0.203  10.317   6.234
     LYS    CD  1442   0.102  10.462   6.360
     LYS   HD1  1443   0.103  10.405   6.455
     LYS   HD2  1444   0.201  10.511   6.350
     LYS    CE  1445  13.447  10.560   6.362
     LYS   HE1  1446   0.006  10.631   6.446
     LYS   HE2  1447   0.001  10.614   6.265
     LYS    NZ  1448  13.317  10.502   6.377
     LYS   HZ1  1449  13.296  10.436   6.300
     LYS   HZ2  1450  13.237  10.569   6.376
     LYS   HZ3  1451  13.313  10.444   6.463
     LYS     C  1452   0.106  10.427   5.853
     LYS     O  1453   0.201  10.485   5.807
     DAL     N  1454  13.439  10.436   5.788
     DAL    HN  1455  13.440  10.484   5.700
     DAL    CA  1456  13.305  10.402   5.821
     DAL    HA  1457  13.318  10.309   5.874
     DAL    CB  1458  13.219  10.375   5.698
     DAL   HB1  1459  13.245  10.426   5.603
     DAL   HB2  1460  13.241  10.270   5.670
     DAL   HB3  1461  13.115  10.392   5.733
     DAL     C  1462  13.232  10.515   5.901
     DAL     O  1463  13.267  10.629   5.884
     DAL     N  1464  13.141  10.489   5.993
     DAL    HN  1465  13.098  10.569   6.034
     DAL    CA  1466  13.083  10.360   6.026
     DAL    HA  1467  13.064  10.306   5.935
     DAL    CB  1468  12.952  10.384   6.106
     DAL   HB1  1469  12.914  10.286   6.142
     DAL   HB2  1470  12.959  10.469   6.177
     DAL   HB3  1471  12.870  10.423   6.043
     DAL     C  1472  13.179  10.265   6.098
     DAL   OC1  1473  13.195  10.148   6.062
     DAL   OC2  1474  13.224  10.309   6.212
     NAG    C1  1475   0.606  11.599   6.262
     NAG    H1  1476   0.497  11.615   6.269
     NAG    C5  1477   0.569  11.422   6.098
     NAG    H5  1478   0.462  11.430   6.127
     NAG    O5  1479   0.638  11.547   6.133
     NAG    C2  1480   0.662  11.493   6.365
     NAG    H2  1481   0.770  11.471   6.356
     NAG    NC  1482   0.618  11.532   6.494
     NAG    HN  1483   0.547  11.476   6.536
     NAG    CM  1484   0.694  11.594   6.591
     NAG    OM  1485   0.805  11.637   6.550
     NAG    CC  1486   0.646  11.594   6.739
     NAG   HC1  1487   0.723  11.534   6.791
     NAG   HC2  1488   0.643  11.701   6.769
     NAG   HC3  1489   0.546  11.549   6.753
     NAG    C3  1490   0.592  11.357   6.328
     NAG    H3  1491   0.483  11.376   6.335
     NAG    O3  1492   0.612  11.254   6.425
     NAG   HO3  1493   0.630  11.171   6.380
     NAG    C4  1494   0.626  11.304   6.184
     NAG    H4  1495   0.735  11.288   6.180
     NAG    O4  1496   0.556  11.180   6.144
     NAG    C6  1497   0.578  11.401   5.949
     NAG   H61  1498   0.540  11.302   5.916
     NAG   H62  1499   0.685  11.392   5.919
     NAG    O6  1500   0.528  11.518   5.870
     NAG   HO6  1501   0.580  11.529   5.790
     NAM    C1  1502   0.718  12.138   6.223
     NAM    H1  1503   0.787  12.137   6.310
     NAM    C5  1504   0.588  11.945   6.302
     NAM    H5  1505   0.649  11.938   6.395
     NAM    O5  1506   0.592  12.089   6.264
     NAM    C2  1507   0.761  12.035   6.113
     NAM    H2  1508   0.698  12.048   6.022
     NAM    NC  1509   0.895  12.082   6.085
     NAM    HN  1510   0.963  12.074   6.157
     NAM    CM  1511   0.936  12.123   5.965
     NAM    OM  1512   0.865  12.133   5.871
     NAM    CC  1513   1.084  12.157   5.968
     NAM   HC1  1514   1.099  12.234   5.890
     NAM   HC2  1515   1.113  12.188   6.071
     NAM   HC3  1516   1.151  12.072   5.942
     NAM    C3  1517   0.767  11.887   6.154
     NAM    H3  1518   0.844  11.890   6.233
     NAM    O3  1519   0.822  11.798   6.057
     NAM    CA  1520   0.762  11.764   5.937
     NAM    HA  1521   0.717  11.666   5.938
     NAM     C  1522   0.894  11.741   5.864
     NAM     O  1523   0.980  11.659   5.906
     NAM    CB  1524   0.670  11.861   5.854
     NAM   HB1  1525   0.722  11.955   5.825
     NAM   HB2  1526   0.577  11.899   5.902
     NAM   HB3  1527   0.629  11.805   5.768
     NAM    C4  1528   0.641  11.837   6.217
     NAM    H4  1529   0.565  11.820   6.137
     NAM    O4  1530   0.678  11.716   6.289
     NAM    C6  1531   0.442  11.918   6.343
     NAM   H61  1532   0.428  12.004   6.412
     NAM   H62  1533   0.433  11.823   6.400
     NAM    O6  1534   0.354  11.937   6.232
     NAM   HO6  1535   0.334  11.852   6.191
     ALA     N  1536   0.920  11.804   5.745
     ALA    HN  1537   0.866  11.884   5.719
     ALA    CA  1538   1.013  11.742   5.642
     ALA    HA  1539   1.098  11.699   5.693
     ALA    CB  1540   1.060  11.868   5.566
     ALA   HB1  1541   1.154  11.860   5.506
     ALA   HB2  1542   1.081  11.953   5.635
     ALA   HB3  1543   0.984  11.902   5.493
     ALA     C  1544   0.943  11.650   5.547
     ALA     O  1545   0.822  11.656   5.535
     GLN     N  1546   1.005  11.555   5.471
     GLN    HN  1547   0.943  11.503   5.413
     GLN    CA  1548   1.139  11.535   5.445
     GLN    HA  1549   1.188  11.630   5.431
     GLN    CD  1550   1.204  11.471   5.564
     GLN   OE1  1551   1.287  11.531   5.629
     GLN   NE2  1552   1.167  11.343   5.601
     GLN  HE21  1553   1.195  11.299   5.686
     GLN  HE22  1554   1.094  11.298   5.550
     GLN    CB  1555   1.172  11.458   5.316
     GLN   HB1  1556   1.135  11.353   5.320
     GLN   HB2  1557   1.282  11.447   5.303
     GLN    CG  1558   1.119  11.514   5.187
     GLN   HG1  1559   1.008  11.507   5.183
     GLN   HG2  1560   1.155  11.465   5.094
     GLN     C  1561   1.158  11.662   5.186
     GLN     O  1562   1.068  11.749   5.199
     LYS     N  1563   1.295  11.688   5.170
     LYS    HN  1564   1.365  11.617   5.163
     LYS    CA  1565   1.354  11.820   5.153
     LYS    HA  1566   1.272  11.884   5.124
     LYS    CB  1567   1.460  11.823   5.045
     LYS   HB1  1568   1.516  11.919   5.046
     LYS   HB2  1569   1.529  11.740   5.068
     LYS    CG  1570   1.401  11.811   4.905
     LYS   HG1  1571   1.482  11.787   4.832
     LYS   HG2  1572   1.324  11.732   4.897
     LYS    CD  1573   1.336  11.935   4.842
     LYS   HD1  1574   1.255  11.959   4.915
     LYS   HD2  1575   1.394  12.027   4.823
     LYS    CE  1576   1.251  11.906   4.720
     LYS   HE1  1577   1.177  11.827   4.742
     LYS   HE2  1578   1.195  11.999   4.698
     LYS    NZ  1579   1.330  11.875   4.599
     LYS   HZ1  1580   1.286  11.889   4.506
     LYS     C  1581   1.401  11.892   5.279
     LYS     O  1582   1.357  12.005   5.309
     GLY     C  1583   1.874  11.643   5.963
     GLY     O  1584   1.973  11.592   6.014
     GLY    CA  1585   1.877  11.718   5.830
     GLY   HA1  1586   1.966  11.689   5.773
     GLY   HA2  1587   1.878  11.826   5.848
     GLY     N  1588   1.759  11.685   5.752
     GLY    HN  1589   1.693  11.620   5.792
     GLY     C  1590   1.736  11.558   5.716
     GLY     O  1591   1.818  11.475   5.753
     GLY    CA  1592   1.612  11.524   5.634
     GLY   HA1  1593   1.589  11.417   5.645
     GLY   HA2  1594   1.629  11.547   5.529
     GLY     N  1595   1.499  11.601   5.681
     GLY    HN  1596   1.514  11.665   5.759
     GLY     C  1597   1.457  11.588   5.808
     GLY     O  1598   1.520  11.510   5.879
     GLY    CA  1599   1.338  11.669   5.857
     GLY   HA1  1600   1.340  11.676   5.967
     GLY   HA2  1601   1.245  11.622   5.825
     GLY     N  1602   1.343  11.803   5.803
     GLY    HN  1603   1.421  11.827   5.742
     GLY     C  1604   1.448  11.882   5.829
     GLY     O  1605   1.536  11.834   5.900
     GLY    CA  1606   1.454  12.024   5.772
     GLY   HA1  1607   1.557  12.059   5.772
     GLY   HA2  1608   1.392  12.091   5.832
     GLY     N  1609   1.404  12.024   5.636
     GLY    HN  1610   1.374  11.935   5.597
     GLY     C  1611   1.465  11.949   5.542
     GLY     O  1612   1.562  11.883   5.579
     GLY    CA  1613   1.413  11.949   5.399
     GLY   HA1  1614   1.448  11.859   5.347
     GLY   HA2  1615   1.448  12.038   5.347
     GLY     N  1616   1.268  11.949   5.399
     GLY    HN  1617   1.217  11.957   5.311
     DAL     N  1618   1.481  11.833   5.370
     DAL    HN  1619   1.473  11.876   5.460
     DAL    CA  1620   1.563  11.711   5.360
     DAL    HA  1621   1.502  11.636   5.312
     DAL    CB  1622   1.596  11.666   5.504
     DAL   HB1  1623   1.662  11.732   5.565
     DAL   HB2  1624   1.503  11.671   5.565
     DAL   HB3  1625   1.638  11.564   5.517
     DAL     C  1626   1.689  11.733   5.279
     DAL     O  1627   1.740  11.845   5.256
     DAL     N  1628   1.753  11.631   5.212
     DAL    HN  1629   1.832  11.646   5.154
     DAL    CA  1630   1.705  11.496   5.195
     DAL    HA  1631   1.665  11.461   5.289
     DAL    CB  1632   1.816  11.400   5.164
     DAL   HB1  1633   1.874  11.376   5.255
     DAL   HB2  1634   1.768  11.302   5.143
     DAL   HB3  1635   1.875  11.436   5.076
     DAL     C  1636   1.586  11.496   5.096
     DAL   OC1  1637   1.607  11.526   4.977
     DAL   OC2  1638   1.472  11.472   5.144
     NAG    C1  1639   0.609  12.648   6.257
     NAG    H1  1640   0.616  12.657   6.146
     NAG    C5  1641   0.767  12.475   6.261
     NAG    H5  1642   0.787  12.504   6.155
     NAG    O5  1643   0.729  12.595   6.324
     NAG    C2  1644   0.490  12.550   6.285
     NAG    H2  1645   0.494  12.535   6.395
     NAG    NC  1646   0.354  12.598   6.257
     NAG    HN  1647   0.278  12.558   6.307
     NAG    CM  1648   0.315  12.662   6.149
     NAG    OM  1649   0.385  12.724   6.071
     NAG    CC  1650   0.172  12.652   6.120
     NAG   HC1  1651   0.152  12.642   6.011
     NAG   HC2  1652   0.127  12.569   6.178
     NAG   HC3  1653   0.127  12.750   6.148
     NAG    C3  1654   0.515  12.411   6.215
     NAG    H3  1655   0.517  12.429   6.106
     NAG    O3  1656   0.424  12.305   6.247
     NAG   HO3  1657   0.484  12.237   6.279
     NAG    C4  1658   0.656  12.365   6.255
     NAG    H4  1659   0.650  12.321   6.357
     NAG    O4  1660   0.708  12.268   6.163
     NAG    C6  1661   0.904  12.428   6.306
     NAG   H61  1662   0.927  12.320   6.288
     NAG   H62  1663   0.909  12.433   6.417
     NAG    O6  1664   1.004  12.511   6.249
     NAG   HO6  1665   1.036  12.584   6.303
     NAM    C1  1666   0.694  13.161   6.340
     NAM    H1  1667   0.708  13.160   6.450
     NAM    C5  1668   0.531  12.988   6.354
     NAM    H5  1669   0.562  12.978   6.460
     NAM    O5  1670   0.561  13.124   6.307
     NAM    C2  1671   0.792  13.064   6.263
     NAM    H2  1672   0.783  13.081   6.154
     NAM    NC  1673   0.911  13.088   6.328
     NAM    HN  1674   0.929  13.043   6.415
     NAM    CM  1675   1.028  13.140   6.276
     NAM    OM  1676   1.036  13.216   6.183
     NAM    CC  1677   1.157  13.087   6.335
     NAM   HC1  1678   1.149  12.982   6.372
     NAM   HC2  1679   1.243  13.096   6.265
     NAM   HC3  1680   1.175  13.155   6.421
     NAM    C3  1681   0.757  12.918   6.288
     NAM    H3  1682   0.778  12.893   6.394
     NAM    O3  1683   0.842  12.829   6.215
     NAM    CA  1684   0.857  12.835   6.076
     NAM    HA  1685   0.855  12.728   6.091
     NAM     C  1686   1.009  12.861   6.038
     NAM     O  1687   1.102  12.837   6.117
     NAM    CB  1688   0.756  12.857   5.955
     NAM   HB1  1689   0.748  12.962   5.921
     NAM   HB2  1690   0.656  12.817   5.984
     NAM   HB3  1691   0.784  12.789   5.872
     NAM    C4  1692   0.616  12.894   6.268
     NAM    H4  1693   0.571  12.911   6.167
     NAM    O4  1694   0.581  12.771   6.321
     NAM    C6  1695   0.384  12.964   6.333
     NAM   H61  1696   0.363  12.863   6.372
     NAM   H62  1697   0.368  12.979   6.224
     NAM    O6  1698   0.317  13.058   6.424
     NAM   HO6  1699   0.303  13.140   6.376
     ALA     N  1700   1.038  12.898   5.911
     ALA    HN  1701   0.966  12.926   5.847
     ALA    CA  1702   1.171  12.944   5.877
     ALA    HA  1703   1.225  12.969   5.967
     ALA    CB  1704   1.165  13.070   5.790
     ALA   HB1  1705   1.111  13.157   5.833
     ALA   HB2  1706   1.112  13.052   5.694
     ALA   HB3  1707   1.264  13.118   5.780
     ALA     C  1708   1.254  12.827   5.808
     ALA     O  1709   1.195  12.736   5.755
     GLN     N  1710   1.384  12.834   5.812
     GLN    HN  1711   1.426  12.761   5.757
     GLN    CA  1712   1.482  12.909   5.884
     GLN    HA  1713   1.458  13.014   5.881
     GLN    CD  1714   1.486  12.863   6.034
     GLN   OE1  1715   1.528  12.753   6.073
     GLN   NE2  1716   1.458  12.955   6.125
     GLN  HE21  1717   1.478  12.917   6.215
     GLN  HE22  1718   1.453  13.049   6.090
     GLN    CB  1719   1.623  12.900   5.815
     GLN   HB1  1720   1.645  12.794   5.836
     GLN   HB2  1721   1.692  12.967   5.872
     GLN    CG  1722   1.624  12.948   5.671
     GLN   HG1  1723   1.597  13.056   5.676
     GLN   HG2  1724   1.554  12.898   5.601
     GLN     C  1725   1.758  12.928   5.613
     GLN     O  1726   1.803  12.820   5.602
     LYS     N  1727   1.831  13.029   5.567
     LYS    HN  1728   1.917  12.994   5.531
     LYS    CA  1729   1.808  13.174   5.574
     LYS    HA  1730   1.710  13.197   5.535
     LYS    CB  1731   1.924  13.248   5.496
     LYS   HB1  1732   1.906  13.357   5.483
     LYS   HB2  1733   2.021  13.247   5.550
     LYS    CG  1734   1.952  13.188   5.357
     LYS   HG1  1735   1.988  13.083   5.363
     LYS   HG2  1736   1.864  13.190   5.288
     LYS    CD  1737   2.076  13.254   5.293
     LYS   HD1  1738   2.158  13.248   5.367
     LYS   HD2  1739   2.096  13.207   5.194
     LYS    CE  1740   2.066  13.403   5.262
     LYS   HE1  1741   2.058   0.024   5.342
     LYS   HE2  1742   2.152  13.441   5.203
     LYS    NZ  1743   1.941  13.428   5.172
     LYS   HZ1  1744   1.866   0.004   5.238
     LYS   HZ2  1745   1.912  13.331   5.148
     LYS   HZ3  1746   1.955   0.037   5.092
     LYS     C  1747   1.811  13.223   5.719
     LYS     O  1748   1.861  13.152   5.804
     DAL     N  1749   1.757  13.339   5.766
     DAL    HN  1750   1.760  13.335   5.866
     DAL    CA  1751   1.679  13.435   5.695
     DAL    HA  1752   1.738   0.026   5.617
     DAL    CB  1753   1.625   0.078   5.802
     DAL   HB1  1754   1.569   0.160   5.752
     DAL   HB2  1755   1.565   0.030   5.882
     DAL   HB3  1756   1.703   0.130   5.862
     DAL     C  1757   1.556  13.380   5.618
     DAL     O  1758   1.503  13.279   5.662
     DAL     N  1759   1.520  13.431   5.504
     DAL    HN  1760   1.445  13.387   5.454
     DAL    CA  1761   1.577   0.092   5.446
     DAL    HA  1762   1.624   0.149   5.525
     DAL    CB  1763   1.465   0.171   5.370
     DAL   HB1  1764   1.507   0.271   5.343
     DAL   HB2  1765   1.432   0.134   5.270
     DAL   HB3  1766   1.378   0.193   5.435
     DAL     C  1767   1.704   0.062   5.351
     DAL   OC1  1768   1.693  13.423   5.264
     DAL   OC2  1769   1.812   0.124   5.365
     NAG    C1  1770   2.707   0.194   6.137
     NAG    H1  1771   2.603   0.224   6.111
     NAG    C5  1772   2.710   0.022   5.979
     NAG    H5  1773   2.604   0.054   5.977
     NAG    O5  1774   2.782   0.136   6.028
     NAG    C2  1775   2.715   0.094   6.252
     NAG    H2  1776   2.820   0.095   6.290
     NAG    NC  1777   2.640   0.139   6.367
     NAG    HN  1778   2.547   0.104   6.374
     NAG    CM  1779   2.684   0.212   6.476
     NAG    OM  1780   2.771   0.298   6.472
     NAG    CC  1781   2.632   0.164   6.609
     NAG   HC1  1782   2.528   0.123   6.608
     NAG   HC2  1783   2.697   0.082   6.648
     NAG   HC3  1784   2.638   0.251   6.678
     NAG    C3  1785   2.661  13.420   6.210
     NAG    H3  1786   2.558  13.441   6.174
     NAG    O3  1787   2.661  13.325   6.322
     NAG   HO3  1788   2.603  13.251   6.300
     NAG    C4  1789   2.741  13.371   6.083
     NAG    H4  1790   2.847  13.365   6.115
     NAG    O4  1791   2.698  13.243   6.035
     NAG    C6  1792   2.755  13.427   5.837
     NAG   H61  1793   2.678  13.354   5.806
     NAG   H62  1794   2.853  13.375   5.836
     NAG    O6  1795   2.731   0.086   5.744
     NAG   HO6  1796   2.640   0.117   5.742
     NAM    C1  1797   2.789   0.722   6.137
     NAM    H1  1798   2.856   0.716   6.225
     NAM    C5  1799   2.678   0.523   6.218
     NAM    H5  1800   2.749   0.530   6.303
     NAM    O5  1801   2.662   0.660   6.166
     NAM    C2  1802   2.858   0.647   6.024
     NAM    H2  1803   2.787   0.652   5.938
     NAM    NC  1804   2.993   0.682   6.016
     NAM    HN  1805   3.048   0.651   6.093
     NAM    CM  1806   3.056   0.762   5.924
     NAM    OM  1807   2.990   0.805   5.826
     NAM    CC  1808   3.199   0.795   5.933
     NAM   HC1  1809   3.208   0.905   5.930
     NAM   HC2  1810   3.229   0.768   6.037
     NAM   HC3  1811   3.263   0.750   5.855
     NAM    C3  1812   2.876   0.500   6.070
     NAM    H3  1813   2.938   0.509   6.162
     NAM    O3  1814   2.955   0.422   5.977
     NAM    CA  1815   2.895   0.387   5.856
     NAM    HA  1816   2.839   0.302   5.895
     NAM     C  1817   3.020   0.337   5.781
     NAM     O  1818   3.118   0.409   5.745
     NAM    CB  1819   2.823   0.474   5.755
     NAM   HB1  1820   2.733   0.524   5.796
     NAM   HB2  1821   2.792   0.424   5.661
     NAM   HB3  1822   2.899   0.553   5.734
     NAM    C4  1823   2.748   0.435   6.118
     NAM    H4  1824   2.676   0.424   6.034
     NAM    O4  1825   2.770   0.312   6.188
     NAM    C6  1826   2.539   0.483   6.284
     NAM   H61  1827   2.504   0.565   6.351
     NAM   H62  1828   2.567   0.391   6.339
     NAM    O6  1829   2.445   0.440   6.192
     NAM   HO6  1830   2.393   0.516   6.164
     ALA     N  1831   3.025   0.204   5.758
     ALA    HN  1832   2.943   0.148   5.772
     ALA    CA  1833   3.150   0.136   5.725
     ALA    HA  1834   3.226   0.211   5.710
     ALA    CB  1835   3.125   0.049   5.598
     ALA   HB1  1836   3.035  13.440   5.592
     ALA   HB2  1837   3.203  13.428   5.577
     ALA   HB3  1838   3.140   0.111   5.507
     ALA     C  1839   3.188   0.047   5.845
     ALA     O  1840   3.106   0.001   5.925
     GLN     N  1841   3.316   0.015   5.870
     GLN    HN  1842   3.333  13.408   5.947
     GLN    CA  1843   3.424   0.046   5.775
     GLN    HA  1844   3.387   0.058   5.675
     GLN    CD  1845   3.492   0.188   5.804
     GLN   OE1  1846   3.502   0.279   5.718
     GLN   NE2  1847   3.532   0.198   5.933
     GLN  HE21  1848   3.569   0.286   5.964
     GLN  HE22  1849   3.497   0.131   5.998
     GLN    CB  1850   3.542  13.398   5.777
     GLN   HB1  1851   3.588  13.405   5.878
     GLN   HB2  1852   3.624  13.442   5.717
     GLN    CG  1853   3.503  13.261   5.735
     GLN   HG1  1854   3.458  13.253   5.634
     GLN   HG2  1855   3.434  13.227   5.815
     GLN     C  1856   3.626  13.170   5.746
     GLN     O  1857   3.633  13.093   5.841
     LYS     N  1858   3.723  13.167   5.658
     LYS    HN  1859   3.790  13.102   5.693
     LYS    CA  1860   3.742  13.240   5.533
     LYS    HA  1861   3.647  13.274   5.495
     LYS    CB  1862   3.814  13.144   5.442
     LYS   HB1  1863   3.850  13.202   5.353
     LYS   HB2  1864   3.908  13.119   5.495
     LYS    CG  1865   3.729  13.022   5.409
     LYS   HG1  1866   3.704  12.961   5.499
     LYS   HG2  1867   3.631  13.065   5.379
     LYS    CD  1868   3.800  12.935   5.302
     LYS   HD1  1869   3.732  12.860   5.255
     LYS   HD2  1870   3.814  13.014   5.225
     LYS    CE  1871   3.934  12.878   5.345
     LYS   HE1  1872   3.972  12.804   5.271
     LYS   HE2  1873   4.016  12.953   5.350
     LYS    NZ  1874   3.927  12.812   5.478
     LYS   HZ1  1875   4.021  12.777   5.505
     LYS   HZ2  1876   3.861  12.733   5.483
     LYS   HZ3  1877   3.896  12.867   5.561
     LYS     C  1878   3.809  13.375   5.546
     LYS     O  1879   3.767   0.021   5.486
     DAL     N  1880   3.919  13.398   5.624
     DAL    HN  1881   3.961   0.032   5.614
     DAL    CA  1882   3.974  13.326   5.741
     DAL    HA  1883   3.896  13.266   5.786
     DAL    CB  1884   4.018  13.424   5.854
     DAL   HB1  1885   4.101   0.036   5.824
     DAL   HB2  1886   3.931   0.027   5.890
     DAL   HB3  1887   4.064  13.364   5.935
     DAL     C  1888   4.083  13.231   5.689
     DAL     O  1889   4.152  13.255   5.593
     DAL     N  1890   4.109  13.120   5.753
     DAL    HN  1891   4.183  13.062   5.718
     DAL    CA  1892   4.036  13.062   5.867
     DAL    HA  1893   3.976  13.128   5.928
     DAL    CB  1894   4.141  13.003   5.968
     DAL   HB1  1895   4.203  12.930   5.911
     DAL   HB2  1896   4.209  13.084   6.002
     DAL   HB3  1897   4.101  12.961   6.063
     DAL     C  1898   3.938  12.950   5.818
     DAL   OC1  1899   3.900  12.957   5.703
     DAL   OC2  1900   3.897  12.862   5.896
     NAG    C1  1901   2.726   1.231   6.242
     NAG    H1  1902   2.758   1.258   6.139
     NAG    C5  1903   2.873   1.042   6.218
     NAG    H5  1904   2.913   1.082   6.123
     NAG    O5  1905   2.825   1.145   6.309
     NAG    C2  1906   2.598   1.147   6.241
     NAG    H2  1907   2.584   1.118   6.348
     NAG    NC  1908   2.484   1.215   6.183
     NAG    HN  1909   2.493   1.236   6.086
     NAG    CM  1910   2.371   1.258   6.256
     NAG    OM  1911   2.380   1.281   6.377
     NAG    CC  1912   2.246   1.279   6.178
     NAG   HC1  1913   2.226   1.183   6.126
     NAG   HC2  1914   2.157   1.315   6.233
     NAG   HC3  1915   2.270   1.355   6.100
     NAG    C3  1916   2.631   1.030   6.156
     NAG    H3  1917   2.650   1.065   6.052
     NAG    O3  1918   2.518   0.948   6.154
     NAG   HO3  1919   2.470   0.954   6.071
     NAG    C4  1920   2.757   0.948   6.190
     NAG    H4  1921   2.743   0.902   6.290
     NAG    O4  1922   2.784   0.855   6.084
     NAG    C6  1923   2.997   0.970   6.270
     NAG   H61  1924   3.026   0.904   6.185
     NAG   H62  1925   2.976   0.916   6.364
     NAG    O6  1926   3.107   1.060   6.291
     NAG   HO6  1927   3.183   1.006   6.315
     NAM    C1  1928   2.852   1.727   6.355
     NAM    H1  1929   2.746   1.753   6.375
     NAM    C5  1930   2.780   1.554   6.208
     NAM    H5  1931   2.675   1.589   6.222
     NAM    O5  1932   2.865   1.665   6.232
     NAM    C2  1933   2.900   1.640   6.462
     NAM    H2  1934   3.005   1.613   6.436
     NAM    NC  1935   2.870   1.699   6.591
     NAM    HN  1936   2.783   1.746   6.601
     NAM    CM  1937   2.956   1.696   6.692
     NAM    OM  1938   3.070   1.650   6.698
     NAM    CC  1939   2.887   1.755   6.813
     NAM   HC1  1940   2.810   1.685   6.850
     NAM   HC2  1941   2.968   1.768   6.887
     NAM   HC3  1942   2.849   1.857   6.789
     NAM    C3  1943   2.824   1.504   6.456
     NAM    H3  1944   2.723   1.528   6.495
     NAM    O3  1945   2.865   1.407   6.550
     NAM    CA  1946   2.989   1.333   6.516
     NAM    HA  1947   2.964   1.247   6.456
     NAM     C  1948   3.016   1.275   6.658
     NAM     O  1949   3.046   1.157   6.680
     NAM    CB  1950   3.128   1.394   6.472
     NAM   HB1  1951   3.113   1.449   6.377
     NAM   HB2  1952   3.205   1.315   6.456
     NAM   HB3  1953   3.149   1.468   6.553
     NAM    C4  1954   2.810   1.449   6.313
     NAM    H4  1955   2.904   1.399   6.282
     NAM    O4  1956   2.706   1.351   6.320
     NAM    C6  1957   2.803   1.521   6.061
     NAM   H61  1958   2.780   1.609   5.997
     NAM   H62  1959   2.731   1.446   6.022
     NAM    O6  1960   2.936   1.466   6.042
     NAM   HO6  1961   2.996   1.541   6.051
     ALA     N  1962   3.016   1.364   6.765
     ALA    HN  1963   3.010   1.462   6.750
     ALA    CA  1964   3.030   1.328   6.904
     ALA    HA  1965   2.965   1.243   6.924
     ALA    CB  1966   2.998   1.456   6.985
     ALA   HB1  1967   3.019   1.431   7.091
     ALA   HB2  1968   2.890   1.481   6.978
     ALA   HB3  1969   3.068   1.537   6.957
     ALA     C  1970   3.172   1.282   6.935
     ALA     O  1971   3.273   1.325   6.876
     GLN     N  1972   3.193   1.190   7.027
     GLN    HN  1973   3.288   1.160   7.038
     GLN    CA  1974   3.087   1.130   7.112
     GLN    HA  1975   3.003   1.198   7.111
     GLN    CD  1976   3.047   0.998   7.041
     GLN   OE1  1977   2.928   0.976   7.011
     GLN   NE2  1978   3.144   0.909   7.008
     GLN  HE21  1979   3.124   0.830   6.949
     GLN  HE22  1980   3.238   0.915   7.041
     GLN    CB  1981   3.138   1.098   7.256
     GLN   HB1  1982   3.236   1.047   7.247
     GLN   HB2  1983   3.060   1.037   7.308
     GLN    CG  1984   3.162   1.227   7.339
     GLN   HG1  1985   3.074   1.292   7.324
     GLN   HG2  1986   3.247   1.284   7.295
     GLN     C  1987   3.179   1.195   7.486
     GLN     O  1988   3.079   1.170   7.549
     LYS     N  1989   3.300   1.202   7.539
     LYS    HN  1990   3.287   1.188   7.637
     LYS    CA  1991   3.435   1.206   7.477
     LYS    HA  1992   3.420   1.184   7.373
     LYS    CB  1993   3.514   1.102   7.546
     LYS   HB1  1994   3.623   1.116   7.533
     LYS   HB2  1995   3.506   1.120   7.656
     LYS    CG  1996   3.463   0.964   7.514
     LYS   HG1  1997   3.516   0.906   7.592
     LYS   HG2  1998   3.354   0.959   7.539
     LYS    CD  1999   3.508   0.912   7.383
     LYS   HD1  2000   3.509   0.994   7.308
     LYS   HD2  2001   3.612   0.875   7.397
     LYS    CE  2002   3.424   0.788   7.333
     LYS   HE1  2003   3.445   0.701   7.398
     LYS   HE2  2004   3.317   0.817   7.320
     LYS    NZ  2005   3.486   0.750   7.199
     LYS   HZ1  2006   3.583   0.713   7.202
     LYS   HZ2  2007   3.493   0.832   7.136
     LYS   HZ3  2008   3.429   0.687   7.139
     LYS     C  2009   3.491   1.347   7.482
     LYS     O  2010   3.430   1.432   7.549
     DAL     N  2011   3.587   1.392   7.406
     DAL    HN  2012   3.620   1.483   7.429
     DAL    CA  2013   3.629   1.338   7.279
     DAL    HA  2014   3.660   1.234   7.288
     DAL    CB  2015   3.743   1.428   7.222
     DAL   HB1  2016   3.837   1.425   7.281
     DAL   HB2  2017   3.765   1.410   7.114
     DAL   HB3  2018   3.703   1.531   7.221
     DAL     C  2019   3.515   1.342   7.176
     DAL     O  2020   3.427   1.430   7.184
     NAG    C1  2021   2.814   2.253   6.314
     NAG    H1  2022   2.897   2.281   6.246
     NAG    C5  2023   2.947   2.074   6.406
     NAG    H5  2024   3.014   2.098   6.320
     NAG    O5  2025   2.860   2.189   6.431
     NAG    C2  2026   2.713   2.157   6.257
     NAG    H2  2027   2.642   2.138   6.341
     NAG    NC  2028   2.654   2.216   6.132
     NAG    HN  2029   2.710   2.222   6.050
     NAG    CM  2030   2.523   2.260   6.126
     NAG    OM  2031   2.429   2.235   6.205
     NAG    CC  2032   2.479   2.327   5.999
     NAG   HC1  2033   2.457   2.433   6.024
     NAG   HC2  2034   2.561   2.312   5.926
     NAG   HC3  2035   2.392   2.278   5.950
     NAG    C3  2036   2.774   2.019   6.241
     NAG    H3  2037   2.849   2.022   6.159
     NAG    O3  2038   2.674   1.933   6.191
     NAG   HO3  2039   2.680   1.942   6.096
     NAG    C4  2040   2.848   1.967   6.368
     NAG    H4  2041   2.772   1.956   6.448
     NAG    O4  2042   2.924   1.849   6.336
     NAG    C6  2043   3.021   2.025   6.531
     NAG   H61  2044   3.056   1.925   6.499
     NAG   H62  2045   2.949   2.018   6.615
     NAG    O6  2046   3.132   2.102   6.571
     NAG   HO6  2047   3.118   2.139   6.659
     NAM    C1  2048   2.721   2.758   6.480
     NAM    H1  2049   2.619   2.743   6.437
     NAM    C5  2050   2.785   2.599   6.310
     NAM    H5  2051   2.683   2.598   6.265
     NAM    O5  2052   2.817   2.723   6.380
     NAM    C2  2053   2.731   2.652   6.590
     NAM    H2  2054   2.831   2.650   6.638
     NAM    NC  2055   2.629   2.661   6.698
     NAM    HN  2056   2.570   2.584   6.721
     NAM    CM  2057   2.645   2.718   6.819
     NAM    OM  2058   2.759   2.723   6.865
     NAM    CC  2059   2.515   2.747   6.874
     NAM   HC1  2060   2.502   2.853   6.905
     NAM   HC2  2061   2.427   2.718   6.813
     NAM   HC3  2062   2.505   2.680   6.963
     NAM    C3  2063   2.713   2.511   6.542
     NAM    H3  2064   2.608   2.513   6.505
     NAM    O3  2065   2.719   2.416   6.648
     NAM    CA  2066   2.843   2.372   6.701
     NAM    HA  2067   2.872   2.288   6.640
     NAM     C  2068   2.775   2.301   6.816
     NAM     O  2069   2.739   2.188   6.812
     NAM    CB  2070   2.962   2.466   6.734
     NAM   HB1  2071   2.933   2.545   6.806
     NAM   HB2  2072   3.002   2.512   6.641
     NAM   HB3  2073   3.039   2.399   6.778
     NAM    C4  2074   2.791   2.482   6.413
     NAM    H4  2075   2.898   2.472   6.443
     NAM    O4  2076   2.737   2.366   6.353
     NAM    C6  2077   2.873   2.579   6.196
     NAM   H61  2078   2.874   2.669   6.131
     NAM   H62  2079   2.847   2.498   6.124
     NAM    O6  2080   3.013   2.568   6.232
     NAM   HO6  2081   3.063   2.610   6.161
     ALA     N  2082   2.772   2.370   6.939
     ALA    HN  2083   2.804   2.464   6.941
     ALA    CA  2084   2.745   2.311   7.063
     ALA    HA  2085   2.641   2.282   7.062
     ALA    CB  2086   2.749   2.401   7.183
     ALA   HB1  2087   2.837   2.468   7.197
     ALA   HB2  2088   2.719   2.353   7.278
     ALA   HB3  2089   2.666   2.474   7.171
     ALA     C  2090   2.837   2.189   7.085
     ALA     O  2091   2.953   2.196   7.052
     GLN     N  2092   2.780   2.073   7.140
     GLN    HN  2093   2.843   1.995   7.143
     GLN    CA  2094   2.650   2.047   7.191
     GLN    HA  2095   2.609   2.139   7.231
     GLN    CD  2096   2.561   2.008   7.080
     GLN   OE1  2097   2.453   2.055   7.081
     GLN   NE2  2098   2.602   1.919   6.986
     GLN  HE21  2099   2.543   1.913   6.905
     GLN  HE22  2100   2.695   1.883   6.987
     GLN    CB  2101   2.656   1.944   7.307
     GLN   HB1  2102   2.698   1.851   7.264
     GLN   HB2  2103   2.549   1.932   7.337
     GLN    CG  2104   2.742   1.995   7.419
     GLN   HG1  2105   2.711   2.101   7.427
     GLN   HG2  2106   2.847   1.997   7.381
     GLN     C  2107   2.714   1.926   7.546
     GLN     O  2108   2.614   1.856   7.556
     LYS     N  2109   2.792   1.950   7.651
     LYS    HN  2110   2.755   1.920   7.738
     LYS    CA  2111   2.913   2.028   7.658
     LYS    HA  2112   2.966   2.027   7.564
     LYS    CB  2113   3.013   1.981   7.762
     LYS   HB1  2114   3.109   2.037   7.765
     LYS   HB2  2115   2.972   1.986   7.865
     LYS    CG  2116   3.049   1.826   7.744
     LYS   HG1  2117   2.956   1.764   7.742
     LYS   HG2  2118   3.088   1.823   7.640
     LYS    CD  2119   3.142   1.774   7.856
     LYS   HD1  2120   3.081   1.774   7.948
     LYS   HD2  2121   3.168   1.670   7.827
     LYS    CE  2122   3.278   1.844   7.864
     LYS   HE1  2123   3.257   1.950   7.888
     LYS   HE2  2124   3.358   1.810   7.934
     LYS    NZ  2125   3.343   1.852   7.727
     LYS   HZ1  2126   3.442   1.883   7.726
     LYS   HZ2  2127   3.292   1.918   7.665
     LYS   HZ3  2128   3.332   1.761   7.678
     LYS     C  2129   2.876   2.169   7.695
     LYS     O  2130   2.767   2.191   7.752
     DAL     N  2131   2.959   2.266   7.668
     DAL    HN  2132   2.922   2.350   7.707
     DAL    CA  2133   3.067   2.275   7.577
     DAL    HA  2134   3.128   2.193   7.612
     DAL    CB  2135   3.137   2.407   7.605
     DAL   HB1  2136   3.155   2.417   7.714
     DAL   HB2  2137   3.227   2.435   7.546
     DAL   HB3  2138   3.071   2.492   7.579
     DAL     C  2139   3.023   2.254   7.428
     DAL     O  2140   2.904   2.274   7.402
     NAG    C1  2141   2.764   3.285   6.456
     NAG    H1  2142   2.855   3.294   6.520
     NAG    C5  2143   2.679   3.102   6.586
     NAG    H5  2144   2.769   3.113   6.651
     NAG    O5  2145   2.656   3.232   6.532
     NAG    C2  2146   2.782   3.197   6.339
     NAG    H2  2147   2.682   3.189   6.291
     NAG    NC  2148   2.891   3.248   6.255
     NAG    HN  2149   2.979   3.203   6.260
     NAG    CM  2150   2.867   3.332   6.145
     NAG    OM  2151   2.756   3.337   6.089
     NAG    CC  2152   2.987   3.383   6.077
     NAG   HC1  2153   3.064   3.392   6.157
     NAG   HC2  2154   3.029   3.320   5.996
     NAG   HC3  2155   2.971   3.482   6.028
     NAG    C3  2156   2.817   3.052   6.386
     NAG    H3  2157   2.909   3.046   6.448
     NAG    O3  2158   2.839   2.962   6.274
     NAG   HO3  2159   2.837   2.876   6.318
     NAG    C4  2160   2.711   3.006   6.471
     NAG    H4  2161   2.616   2.997   6.414
     NAG    O4  2162   2.748   2.886   6.536
     NAG    C6  2163   2.564   3.059   6.674
     NAG   H61  2164   2.544   2.950   6.667
     NAG   H62  2165   2.466   3.103   6.644
     NAG    O6  2166   2.573   3.091   6.814
     NAG   HO6  2167   2.485   3.108   6.848
     NAM    C1  2168   2.682   3.818   6.475
     NAM    H1  2169   2.651   3.832   6.369
     NAM    C5  2170   2.832   3.641   6.409
     NAM    H5  2171   2.793   3.658   6.306
     NAM    O5  2172   2.817   3.763   6.482
     NAM    C2  2173   2.597   3.722   6.549
     NAM    H2  2174   2.628   3.706   6.655
     NAM    NC  2175   2.460   3.758   6.553
     NAM    HN  2176   2.385   3.715   6.504
     NAM    CM  2177   2.402   3.826   6.655
     NAM    OM  2178   2.457   3.868   6.758
     NAM    CC  2179   2.251   3.832   6.642
     NAM   HC1  2180   2.196   3.736   6.643
     NAM   HC2  2181   2.218   3.901   6.723
     NAM   HC3  2182   2.235   3.872   6.539
     NAM    C3  2183   2.607   3.581   6.489
     NAM    H3  2184   2.574   3.604   6.385
     NAM    O3  2185   2.515   3.491   6.547
     NAM    CA  2186   2.516   3.466   6.684
     NAM    HA  2187   2.501   3.374   6.631
     NAM     C  2188   2.381   3.492   6.755
     NAM     O  2189   2.271   3.482   6.701
     NAM    CB  2190   2.636   3.451   6.784
     NAM   HB1  2191   2.716   3.412   6.718
     NAM   HB2  2192   2.613   3.368   6.855
     NAM   HB3  2193   2.672   3.543   6.834
     NAM    C4  2194   2.749   3.530   6.475
     NAM    H4  2195   2.807   3.507   6.567
     NAM    O4  2196   2.744   3.409   6.399
     NAM    C6  2197   2.979   3.607   6.387
     NAM   H61  2198   2.993   3.500   6.360
     NAM   H62  2199   3.032   3.622   6.483
     NAM    O6  2200   3.045   3.682   6.284
     NAM   HO6  2201   2.988   3.720   6.217
     ALA     N  2202   2.388   3.533   6.883
     ALA    HN  2203   2.476   3.534   6.929
     ALA    CA  2204   2.278   3.601   6.948
     ALA    HA  2205   2.239   3.674   6.878
     ALA    CB  2206   2.337   3.669   7.078
     ALA   HB1  2207   2.419   3.734   7.043
     ALA   HB2  2208   2.379   3.592   7.147
     ALA   HB3  2209   2.257   3.730   7.126
     ALA     C  2210   2.172   3.507   6.989
     ALA     O  2211   2.199   3.390   7.010
     GLN     N  2212   2.048   3.562   7.005
     GLN    HN  2213   1.975   3.503   7.038
     GLN    CA  2214   1.991   3.696   6.963
     GLN    HA  2215   2.068   3.769   6.981
     GLN    CD  2216   1.937   3.705   6.816
     GLN   OE1  2217   1.920   3.813   6.755
     GLN   NE2  2218   1.920   3.593   6.751
     GLN  HE21  2219   1.906   3.601   6.653
     GLN  HE22  2220   1.925   3.502   6.793
     GLN    CB  2221   1.869   3.714   7.052
     GLN   HB1  2222   1.785   3.647   7.023
     GLN   HB2  2223   1.836   3.812   7.010
     GLN    CG  2224   1.904   3.714   7.201
     GLN   HG1  2225   1.972   3.802   7.212
     GLN   HG2  2226   1.958   3.621   7.230
     GLN     C  2227   1.777   3.718   7.271
     GLN     O  2228   1.719   3.615   7.303
     LYS     N  2229   1.723   3.830   7.310
     LYS    HN  2230   1.635   3.819   7.355
     LYS    CA  2231   1.775   3.965   7.307
     LYS    HA  2232   1.879   3.947   7.331
     LYS    CB  2233   1.727   4.043   7.435
     LYS   HB1  2234   1.740   4.152   7.420
     LYS   HB2  2235   1.619   4.019   7.437
     LYS    CG  2236   1.806   4.004   7.559
     LYS   HG1  2237   1.756   4.047   7.648
     LYS   HG2  2238   1.801   3.894   7.545
     LYS    CD  2239   1.957   4.060   7.562
     LYS   HD1  2240   2.000   4.027   7.465
     LYS   HD2  2241   1.964   4.170   7.558
     LYS    CE  2242   2.035   4.006   7.680
     LYS   HE1  2243   2.007   4.051   7.778
     LYS   HE2  2244   2.020   3.896   7.684
     LYS    NZ  2245   2.180   4.030   7.665
     LYS   HZ1  2246   2.202   4.125   7.629
     LYS   HZ2  2247   2.225   3.966   7.597
     LYS   HZ3  2248   2.223   4.022   7.759
     LYS     C  2249   1.775   4.040   7.174
     LYS     O  2250   1.880   4.070   7.112
     DAL     N  2251   1.659   4.053   7.106
     DAL    HN  2252   1.666   4.069   7.008
     DAL    CA  2253   1.522   4.051   7.158
     DAL    HA  2254   1.513   3.959   7.215
     DAL    CB  2255   1.409   4.057   7.040
     DAL   HB1  2256   1.441   4.130   6.962
     DAL   HB2  2257   1.414   3.954   6.998
     DAL   HB3  2258   1.309   4.071   7.085
     DAL     C  2259   1.481   4.162   7.252
     DAL     O  2260   1.534   4.269   7.249
     DAL     N  2261   1.382   4.144   7.351
     DAL    HN  2262   1.376   4.221   7.413
     DAL    CA  2263   1.318   4.015   7.376
     DAL    HA  2264   1.315   3.964   7.281
     DAL    CB  2265   1.170   4.023   7.412
     DAL   HB1  2266   1.154   4.063   7.515
     DAL   HB2  2267   1.114   4.090   7.344
     DAL   HB3  2268   1.129   3.919   7.409
     DAL     C  2269   1.385   3.920   7.470
     DAL   OC1  2270   1.445   3.819   7.435
     DAL   OC2  2271   1.376   3.941   7.597
     NAG    C1  2272   2.785   4.333   6.492
     NAG    H1  2273   2.739   4.361   6.590
     NAG    C5  2274   2.622   4.163   6.486
     NAG    H5  2275   2.616   4.181   6.595
     NAG    O5  2276   2.686   4.271   6.416
     NAG    C2  2277   2.895   4.227   6.507
     NAG    H2  2278   2.937   4.215   6.404
     NAG    NC  2279   2.985   4.282   6.602
     NAG    HN  2280   3.008   4.237   6.688
     NAG    CM  2281   3.092   4.359   6.572
     NAG    OM  2282   3.143   4.347   6.463
     NAG    CC  2283   3.142   4.454   6.673
     NAG   HC1  2284   3.174   4.406   6.767
     NAG   HC2  2285   3.239   4.493   6.634
     NAG   HC3  2286   3.067   4.534   6.692
     NAG    C3  2287   2.838   4.091   6.555
     NAG    H3  2288   2.808   4.105   6.661
     NAG    O3  2289   2.940   3.987   6.553
     NAG   HO3  2290   2.887   3.907   6.544
     NAG    C4  2291   2.717   4.049   6.476
     NAG    H4  2292   2.742   4.028   6.370
     NAG    O4  2293   2.664   3.933   6.541
     NAG    C6  2294   2.482   4.131   6.433
     NAG   H61  2295   2.425   4.227   6.434
     NAG   H62  2296   2.423   4.052   6.484
     NAG    O6  2297   2.498   4.090   6.294
     NAG   HO6  2298   2.452   4.156   6.241
     NAM    C1  2299   2.763   4.851   6.340
     NAM    H1  2300   2.871   4.850   6.311
     NAM    C5  2301   2.815   4.695   6.507
     NAM    H5  2302   2.920   4.712   6.475
     NAM    O5  2303   2.744   4.815   6.474
     NAM    C2  2304   2.692   4.747   6.251
     NAM    H2  2305   2.584   4.762   6.275
     NAM    NC  2306   2.715   4.771   6.110
     NAM    HN  2307   2.785   4.724   6.057
     NAM    CM  2308   2.631   4.825   6.016
     NAM    OM  2309   2.513   4.857   6.041
     NAM    CC  2310   2.696   4.850   5.878
     NAM   HC1  2311   2.704   4.958   5.851
     NAM   HC2  2312   2.799   4.809   5.882
     NAM   HC3  2313   2.633   4.798   5.803
     NAM    C3  2314   2.746   4.608   6.280
     NAM    H3  2315   2.851   4.605   6.244
     NAM    O3  2316   2.679   4.514   6.206
     NAM    CA  2317   2.535   4.512   6.210
     NAM    HA  2318   2.578   4.414   6.225
     NAM     C  2319   2.465   4.496   6.072
     NAM     O  2320   2.493   4.397   5.999
     NAM    CB  2321   2.435   4.525   6.331
     NAM   HB1  2322   2.410   4.633   6.326
     NAM   HB2  2323   2.479   4.492   6.427
     NAM   HB3  2324   2.342   4.474   6.297
     NAM    C4  2325   2.752   4.574   6.432
     NAM    H4  2326   2.659   4.555   6.489
     NAM    O4  2327   2.837   4.458   6.444
     NAM    C6  2328   2.816   4.683   6.659
     NAM   H61  2329   2.833   4.577   6.689
     NAM   H62  2330   2.715   4.713   6.693
     NAM    O6  2331   2.903   4.767   6.727
     NAM   HO6  2332   2.846   4.828   6.776
     ALA     N  2333   2.377   4.589   6.024
     ALA    HN  2334   2.355   4.670   6.077
     ALA    CA  2335   2.299   4.577   5.905
     ALA    HA  2336   2.357   4.524   5.831
     ALA    CB  2337   2.250   4.701   5.839
     ALA   HB1  2338   2.182   4.673   5.756
     ALA   HB2  2339   2.341   4.736   5.786
     ALA   HB3  2340   2.207   4.774   5.911
     ALA     C  2341   2.177   4.496   5.944
     ALA     O  2342   2.144   4.488   6.061
     GLN     N  2343   2.104   4.414   5.852
     GLN    HN  2344   2.020   4.376   5.890
     GLN    CA  2345   2.133   4.397   5.708
     GLN    HA  2346   2.180   4.487   5.670
     GLN    CD  2347   2.213   4.264   5.679
     GLN   OE1  2348   2.190   4.154   5.728
     GLN   NE2  2349   2.312   4.270   5.585
     GLN  HE21  2350   2.336   4.178   5.554
     GLN  HE22  2351   2.330   4.351   5.531
     GLN    CB  2352   1.995   4.392   5.637
     GLN   HB1  2353   1.929   4.309   5.670
     GLN   HB2  2354   2.005   4.368   5.529
     GLN    CG  2355   1.914   4.522   5.650
     GLN   HG1  2356   1.967   4.605   5.598
     GLN   HG2  2357   1.915   4.554   5.757
     GLN     C  2358   1.774   4.528   5.593
     GLN     O  2359   1.727   4.439   5.523
     LYS     N  2360   1.691   4.625   5.623
     LYS    HN  2361   1.601   4.610   5.582
     LYS    CA  2362   1.713   4.744   5.704
     LYS    HA  2363   1.733   4.703   5.802
     LYS    CB  2364   1.588   4.834   5.708
     LYS   HB1  2365   1.615   4.932   5.755
     LYS   HB2  2366   1.560   4.841   5.601
     LYS    CG  2367   1.477   4.769   5.799
     LYS   HG1  2368   1.483   4.659   5.781
     LYS   HG2  2369   1.502   4.801   5.902
     LYS    CD  2370   1.332   4.812   5.763
     LYS   HD1  2371   1.329   4.802   5.652
     LYS   HD2  2372   1.252   4.751   5.809
     LYS    CE  2373   1.313   4.965   5.782
     LYS   HE1  2374   1.396   5.026   5.739
     LYS   HE2  2375   1.218   5.004   5.741
     LYS    NZ  2376   1.319   5.001   5.927
     LYS   HZ1  2377   1.244   5.068   5.953
     LYS   HZ2  2378   1.411   5.034   5.961
     LYS   HZ3  2379   1.310   4.912   5.981
     LYS     C  2380   1.837   4.829   5.660
     LYS     O  2381   1.881   4.812   5.544
     DAL     N  2382   1.897   4.927   5.733
     DAL    HN  2383   1.981   4.966   5.697
     DAL    CA  2384   1.875   4.984   5.864
     DAL    HA  2385   1.781   5.036   5.865
     DAL    CB  2386   1.981   5.089   5.898
     DAL   HB1  2387   1.944   5.157   5.978
     DAL   HB2  2388   2.078   5.041   5.921
     DAL   HB3  2389   1.995   5.156   5.810
     DAL     C  2390   1.873   4.877   5.971
     DAL     O  2391   1.942   4.776   5.964
     NAG    C1  2392   2.770   5.367   6.369
     NAG    H1  2393   2.661   5.357   6.354
     NAG    C5  2394   2.774   5.190   6.217
     NAG    H5  2395   2.664   5.204   6.210
     NAG    O5  2396   2.837   5.312   6.256
     NAG    C2  2397   2.818   5.275   6.484
     NAG    H2  2398   2.929   5.271   6.480
     NAG    NC  2399   2.762   5.307   6.616
     NAG    HN  2400   2.669   5.277   6.638
     NAG    CM  2401   2.832   5.367   6.713
     NAG    OM  2402   2.947   5.399   6.723
     NAG    CC  2403   2.750   5.378   6.831
     NAG   HC1  2404   2.688   5.289   6.855
     NAG   HC2  2405   2.814   5.395   6.921
     NAG   HC3  2406   2.687   5.469   6.820
     NAG    C3  2407   2.749   5.143   6.457
     NAG    H3  2408   2.640   5.164   6.453
     NAG    O3  2409   2.769   5.050   6.565
     NAG   HO3  2410   2.742   4.963   6.535
     NAG    C4  2411   2.785   5.084   6.329
     NAG    H4  2412   2.891   5.054   6.343
     NAG    O4  2413   2.708   4.975   6.294
     NAG    C6  2414   2.829   5.146   6.081
     NAG   H61  2415   2.793   5.044   6.060
     NAG   H62  2416   2.939   5.148   6.093
     NAG    O6  2417   2.786   5.233   5.973
     NAG   HO6  2418   2.829   5.319   5.981
     NAM    C1  2419   2.766   5.880   6.248
     NAM    H1  2420   2.865   5.887   6.199
     NAM    C5  2421   2.842   5.732   6.409
     NAM    H5  2422   2.943   5.722   6.363
     NAM    O5  2423   2.773   5.853   6.381
     NAM    C2  2424   2.671   5.774   6.186
     NAM    H2  2425   2.566   5.778   6.223
     NAM    NC  2426   2.640   5.805   6.041
     NAM    HN  2427   2.687   5.747   5.975
     NAM    CM  2428   2.545   5.882   5.975
     NAM    OM  2429   2.454   5.942   6.032
     NAM    CC  2430   2.565   5.867   5.827
     NAM   HC1  2431   2.474   5.912   5.782
     NAM   HC2  2432   2.650   5.933   5.798
     NAM   HC3  2433   2.597   5.765   5.798
     NAM    C3  2434   2.732   5.631   6.207
     NAM    H3  2435   2.828   5.631   6.151
     NAM    O3  2436   2.649   5.531   6.150
     NAM    CA  2437   2.506   5.525   6.176
     NAM    HA  2438   2.528   5.419   6.174
     NAM     C  2439   2.420   5.545   6.046
     NAM     O  2440   2.457   5.499   5.934
     NAM    CB  2441   2.433   5.555   6.309
     NAM   HB1  2442   2.335   5.506   6.292
     NAM   HB2  2443   2.425   5.663   6.333
     NAM   HB3  2444   2.489   5.509   6.392
     NAM    C4  2445   2.755   5.616   6.357
     NAM    H4  2446   2.663   5.622   6.418
     NAM    O4  2447   2.827   5.494   6.395
     NAM    C6  2448   2.854   5.734   6.560
     NAM   H61  2449   2.911   5.641   6.581
     NAM   H62  2450   2.760   5.741   6.618
     NAM    O6  2451   2.934   5.844   6.607
     NAM   HO6  2452   2.887   5.925   6.629
     ALA     N  2453   2.305   5.624   6.058
     ALA    HN  2454   2.263   5.647   6.145
     ALA    CA  2455   2.222   5.662   5.944
     ALA    HA  2456   2.287   5.722   5.883
     ALA    CB  2457   2.106   5.750   5.994
     ALA   HB1  2458   2.035   5.696   6.060
     ALA   HB2  2459   2.041   5.786   5.912
     ALA   HB3  2460   2.150   5.836   6.049
     ALA     C  2461   2.152   5.544   5.857
     ALA     O  2462   2.133   5.436   5.908
     GLN     N  2463   2.125   5.554   5.725
     GLN    HN  2464   2.083   5.480   5.674
     GLN    CA  2465   2.148   5.679   5.654
     GLN    HA  2466   2.156   5.757   5.728
     GLN    CD  2467   2.285   5.685   5.590
     GLN   OE1  2468   2.374   5.761   5.624
     GLN   NE2  2469   2.297   5.605   5.482
     GLN  HE21  2470   2.380   5.617   5.427
     GLN  HE22  2471   2.228   5.534   5.472
     GLN    CB  2472   2.032   5.703   5.552
     GLN   HB1  2473   2.030   5.614   5.486
     GLN   HB2  2474   2.070   5.783   5.485
     GLN    CG  2475   1.897   5.738   5.633
     GLN   HG1  2476   1.907   5.805   5.721
     GLN   HG2  2477   1.859   5.638   5.663
     GLN     C  2478   1.816   5.793   5.521
     GLN     O  2479   1.822   5.916   5.493
     LYS     N  2480   1.735   5.726   5.447
     LYS    HN  2481   1.701   5.778   5.368
     LYS    CA  2482   1.698   5.586   5.460
     LYS    HA  2483   1.787   5.525   5.458
     LYS    CB  2484   1.592   5.560   5.349
     LYS   HB1  2485   1.641   5.595   5.257
     LYS   HB2  2486   1.579   5.449   5.343
     LYS    CG  2487   1.449   5.627   5.353
     LYS   HG1  2488   1.393   5.581   5.437
     LYS   HG2  2489   1.467   5.734   5.376
     LYS    CD  2490   1.373   5.594   5.220
     LYS   HD1  2491   1.359   5.484   5.222
     LYS   HD2  2492   1.277   5.649   5.231
     LYS    CE  2493   1.432   5.645   5.088
     LYS   HE1  2494   1.456   5.753   5.096
     LYS   HE2  2495   1.529   5.598   5.062
     LYS    NZ  2496   1.338   5.626   4.982
     LYS   HZ1  2497   1.250   5.675   5.010
     LYS   HZ2  2498   1.317   5.527   4.958
     LYS   HZ3  2499   1.374   5.676   4.898
     LYS     C  2500   1.630   5.561   5.594
     LYS     O  2501   1.591   5.652   5.666
     DAL     N  2502   1.601   5.432   5.637
     DAL    HN  2503   1.542   5.412   5.715
     DAL    CA  2504   1.661   5.311   5.586
     DAL    HA  2505   1.643   5.310   5.480
     DAL    CB  2506   1.601   5.192   5.659
     DAL   HB1  2507   1.647   5.190   5.760
     DAL   HB2  2508   1.493   5.214   5.675
     DAL   HB3  2509   1.625   5.097   5.607
     DAL     C  2510   1.814   5.309   5.591
     DAL     O  2511   1.867   5.373   5.684
     DAL     N  2512   1.883   5.230   5.506
     DAL    HN  2513   1.982   5.239   5.514
     DAL    CA  2514   1.839   5.153   5.392
     DAL    HA  2515   1.761   5.085   5.422
     DAL    CB  2516   1.960   5.063   5.347
     DAL   HB1  2517   2.051   5.106   5.298
     DAL   HB2  2518   2.003   5.001   5.428
     DAL   HB3  2519   1.924   4.991   5.270
     DAL     C  2520   1.787   5.241   5.277
     DAL   OC1  2521   1.682   5.208   5.216
     DAL   OC2  2522   1.855   5.339   5.236
     NAG    C1  2523   2.725   6.411   6.358
     NAG    H1  2524   2.638   6.447   6.300
     NAG    C5  2525   2.761   6.231   6.186
     NAG    H5  2526   2.664   6.267   6.146
     NAG    O5  2527   2.816   6.341   6.265
     NAG    C2  2528   2.697   6.304   6.460
     NAG    H2  2529   2.789   6.280   6.516
     NAG    NC  2530   2.597   6.344   6.551
     NAG    HN  2531   2.523   6.393   6.507
     NAG    CM  2532   2.611   6.354   6.687
     NAG    OM  2533   2.717   6.339   6.746
     NAG    CC  2534   2.489   6.413   6.758
     NAG   HC1  2535   2.422   6.477   6.697
     NAG   HC2  2536   2.421   6.330   6.788
     NAG   HC3  2537   2.508   6.477   6.847
     NAG    C3  2538   2.659   6.172   6.397
     NAG    H3  2539   2.561   6.183   6.346
     NAG    O3  2540   2.635   6.069   6.489
     NAG   HO3  2541   2.711   6.010   6.485
     NAG    C4  2542   2.752   6.121   6.286
     NAG    H4  2543   2.853   6.105   6.330
     NAG    O4  2544   2.692   6.000   6.233
     NAG    C6  2545   2.859   6.197   6.076
     NAG   H61  2546   2.873   6.093   6.038
     NAG   H62  2547   2.959   6.211   6.121
     NAG    O6  2548   2.850   6.287   5.966
     NAG   HO6  2549   2.761   6.315   5.943
     NAM    C1  2550   2.867   6.924   6.334
     NAM    H1  2551   2.935   6.916   6.422
     NAM    C5  2552   2.744   6.749   6.451
     NAM    H5  2553   2.826   6.754   6.526
     NAM    O5  2554   2.738   6.879   6.377
     NAM    C2  2555   2.904   6.823   6.226
     NAM    H2  2556   2.830   6.843   6.146
     NAM    NC  2557   3.035   6.845   6.177
     NAM    HN  2558   3.088   6.763   6.194
     NAM    CM  2559   3.072   6.937   6.081
     NAM    OM  2560   2.990   6.991   6.008
     NAM    CC  2561   3.217   6.960   6.051
     NAM   HC1  2562   3.278   6.957   6.144
     NAM   HC2  2563   3.253   6.871   5.995
     NAM   HC3  2564   3.228   7.052   5.990
     NAM    C3  2565   2.917   6.676   6.272
     NAM    H3  2566   2.996   6.678   6.350
     NAM    O3  2567   2.961   6.588   6.167
     NAM    CA  2568   2.892   6.581   6.044
     NAM    HA  2569   2.927   6.485   6.080
     NAM     C  2570   2.988   6.630   5.942
     NAM     O  2571   3.107   6.607   5.952
     NAM    CB  2572   2.743   6.596   5.992
     NAM   HB1  2573   2.725   6.563   5.888
     NAM   HB2  2574   2.727   6.706   5.986
     NAM   HB3  2575   2.677   6.541   6.062
     NAM    C4  2576   2.780   6.640   6.349
     NAM    H4  2577   2.695   6.637   6.278
     NAM    O4  2578   2.795   6.519   6.422
     NAM    C6  2579   2.607   6.733   6.521
     NAM   H61  2580   2.595   6.815   6.595
     NAM   H62  2581   2.623   6.637   6.576
     NAM    O6  2582   2.505   6.715   6.423
     NAM   HO6  2583   2.502   6.790   6.363
     ALA     N  2584   2.949   6.698   5.830
     ALA    HN  2585   2.853   6.721   5.818
     ALA    CA  2586   3.044   6.739   5.730
     ALA    HA  2587   3.141   6.771   5.767
     ALA    CB  2588   2.987   6.864   5.650
     ALA   HB1  2589   3.059   6.905   5.575
     ALA   HB2  2590   2.956   6.945   5.719
     ALA   HB3  2591   2.895   6.838   5.594
     ALA     C  2592   3.087   6.624   5.640
     ALA     O  2593   3.013   6.526   5.640
     GLN     N  2594   3.205   6.618   5.570
     GLN    HN  2595   3.213   6.544   5.504
     GLN    CA  2596   3.310   6.715   5.565
     GLN    HA  2597   3.261   6.811   5.558
     GLN    CD  2598   3.401   6.728   5.691
     GLN   OE1  2599   3.466   6.633   5.735
     GLN   NE2  2600   3.416   6.848   5.752
     GLN  HE21  2601   3.469   6.850   5.837
     GLN  HE22  2602   3.365   6.928   5.718
     GLN    CB  2603   3.407   6.686   5.448
     GLN   HB1  2604   3.450   6.585   5.465
     GLN   HB2  2605   3.492   6.757   5.458
     GLN    CG  2606   3.341   6.703   5.309
     GLN   HG1  2607   3.290   6.801   5.304
     GLN   HG2  2608   3.260   6.628   5.293
     GLN     C  2609   3.433   6.704   5.194
     GLN     O  2610   3.509   6.802   5.177
     LYS     N  2611   3.439   6.598   5.110
     LYS    HN  2612   3.511   6.600   5.041
     LYS    CA  2613   3.379   6.467   5.121
     LYS    HA  2614   3.383   6.430   5.223
     LYS    CB  2615   3.458   6.370   5.026
     LYS   HB1  2616   3.398   6.277   5.017
     LYS   HB2  2617   3.449   6.421   4.928
     LYS    CG  2618   3.610   6.347   5.057
     LYS   HG1  2619   3.661   6.445   5.066
     LYS   HG2  2620   3.628   6.312   5.161
     LYS    CD  2621   3.685   6.259   4.954
     LYS   HD1  2622   3.661   6.291   4.850
     LYS   HD2  2623   3.791   6.288   4.963
     LYS    CE  2624   3.656   6.109   4.961
     LYS   HE1  2625   3.550   6.077   4.948
     LYS   HE2  2626   3.722   6.058   4.887
     LYS    NZ  2627   3.699   6.065   5.090
     LYS   HZ1  2628   3.772   6.124   5.135
     LYS   HZ2  2629   3.736   5.968   5.091
     LYS   HZ3  2630   3.620   6.065   5.159
     LYS     C  2631   3.230   6.464   5.079
     LYS     O  2632   3.184   6.563   5.021
     DAL     N  2633   3.151   6.360   5.106
     DAL    HN  2634   3.072   6.351   5.046
     DAL    CA  2635   3.159   6.248   5.191
     DAL    HA  2636   3.236   6.184   5.150
     DAL    CB  2637   3.025   6.175   5.174
     DAL   HB1  2638   2.939   6.243   5.189
     DAL   HB2  2639   3.021   6.140   5.069
     DAL   HB3  2640   3.013   6.085   5.238
     DAL     C  2641   3.186   6.294   5.334
     DAL     O  2642   3.142   6.404   5.364
     DAL     N  2643   3.257   6.220   5.421
     DAL    HN  2644   3.267   6.256   5.514
     DAL    CA  2645   3.309   6.090   5.393
     DAL    HA  2646   3.228   6.044   5.338
     DAL    CB  2647   3.353   6.005   5.515
     DAL   HB1  2648   3.423   6.074   5.568
     DAL   HB2  2649   3.267   5.988   5.583
     DAL   HB3  2650   3.409   5.912   5.491
     DAL     C  2651   3.430   6.087   5.287
     DAL   OC1  2652   3.406   6.056   5.168
     DAL   OC2  2653   3.550   6.111   5.322
     NAG    C1  2654   2.804   7.467   6.365
     NAG    H1  2655   2.755   7.482   6.267
     NAG    C5  2656   2.939   7.283   6.284
     NAG    H5  2657   2.886   7.295   6.187
     NAG    O5  2658   2.935   7.407   6.360
     NAG    C2  2659   2.716   7.370   6.446
     NAG    H2  2660   2.761   7.373   6.548
     NAG    NC  2661   2.583   7.420   6.438
     NAG    HN  2662   2.537   7.422   6.350
     NAG    CM  2663   2.511   7.430   6.555
     NAG    OM  2664   2.540   7.395   6.667
     NAG    CC  2665   2.377   7.491   6.523
     NAG   HC1  2666   2.375   7.541   6.424
     NAG   HC2  2667   2.310   7.403   6.528
     NAG   HC3  2668   2.342   7.562   6.601
     NAG    C3  2669   2.724   7.228   6.388
     NAG    H3  2670   2.669   7.227   6.292
     NAG    O3  2671   2.655   7.129   6.472
     NAG   HO3  2672   2.587   7.074   6.432
     NAG    C4  2673   2.865   7.177   6.364
     NAG    H4  2674   2.927   7.161   6.454
     NAG    O4  2675   2.867   7.060   6.280
     NAG    C6  2676   3.090   7.259   6.259
     NAG   H61  2677   3.104   7.161   6.207
     NAG   H62  2678   3.139   7.258   6.359
     NAG    O6  2679   3.155   7.358   6.180
     NAG   HO6  2680   3.119   7.374   6.092
     NAM    C1  2681   2.864   7.999   6.413
     NAM    H1  2682   2.816   8.008   6.513
     NAM    C5  2683   2.721   7.808   6.372
     NAM    H5  2684   2.683   7.817   6.476
     NAM    O5  2685   2.772   7.934   6.322
     NAM    C2  2686   2.988   7.912   6.394
     NAM    H2  2687   3.007   7.918   6.284
     NAM    NC  2688   3.096   7.939   6.487
     NAM    HN  2689   3.123   7.864   6.547
     NAM    CM  2690   3.192   8.035   6.480
     NAM    OM  2691   3.197   8.096   6.379
     NAM    CC  2692   3.275   8.051   6.598
     NAM   HC1  2693   3.266   8.161   6.613
     NAM   HC2  2694   3.234   7.986   6.678
     NAM   HC3  2695   3.381   8.032   6.571
     NAM    C3  2696   2.960   7.772   6.437
     NAM    H3  2697   2.922   7.784   6.541
     NAM    O3  2698   3.076   7.683   6.461
     NAM    CA  2699   3.152   7.648   6.350
     NAM    HA  2700   3.119   7.550   6.318
     NAM     C  2701   3.281   7.622   6.418
     NAM     O  2702   3.344   7.708   6.483
     NAM    CB  2703   3.201   7.731   6.229
     NAM   HB1  2704   3.242   7.826   6.269
     NAM   HB2  2705   3.110   7.753   6.169
     NAM   HB3  2706   3.276   7.666   6.179
     NAM    C4  2707   2.842   7.706   6.367
     NAM    H4  2708   2.879   7.680   6.265
     NAM    O4  2709   2.802   7.589   6.437
     NAM    C6  2710   2.613   7.755   6.283
     NAM   H61  2711   2.576   7.661   6.328
     NAM   H62  2712   2.655   7.740   6.181
     NAM    O6  2713   2.500   7.849   6.279
     NAM   HO6  2714   2.451   7.840   6.361
     ALA     N  2715   3.338   7.494   6.408
     ALA    HN  2716   3.285   7.425   6.359
     ALA    CA  2717   3.461   7.451   6.463
     ALA    HA  2718   3.505   7.528   6.524
     ALA    CB  2719   3.558   7.410   6.357
     ALA   HB1  2720   3.518   7.332   6.289
     ALA   HB2  2721   3.660   7.380   6.390
     ALA   HB3  2722   3.561   7.493   6.283
     ALA     C  2723   3.432   7.328   6.556
     ALA     O  2724   3.323   7.272   6.548
     GLN     N  2725   3.523   7.280   6.637
     GLN    HN  2726   3.497   7.195   6.681
     GLN    CA  2727   3.647   7.332   6.686
     GLN    HA  2728   3.707   7.364   6.601
     GLN    CD  2729   3.625   7.462   6.774
     GLN   OE1  2730   3.671   7.573   6.738
     GLN   NE2  2731   3.547   7.455   6.881
     GLN  HE21  2732   3.519   7.541   6.924
     GLN  HE22  2733   3.484   7.382   6.907
     GLN    CB  2734   3.721   7.220   6.762
     GLN   HB1  2735   3.652   7.186   6.842
     GLN   HB2  2736   3.804   7.250   6.830
     GLN    CG  2737   3.768   7.099   6.675
     GLN   HG1  2738   3.679   7.053   6.628
     GLN   HG2  2739   3.813   7.028   6.748
     GLN     C  2740   3.854   7.134   6.551
     GLN     O  2741   3.807   7.144   6.438
     LYS     N  2742   3.989   7.159   6.565
     LYS    HN  2743   4.035   7.192   6.483
     LYS    CA  2744   4.071   7.162   6.680
     LYS    HA  2745   4.007   7.173   6.766
     LYS    CB  2746   4.160   7.288   6.672
     LYS   HB1  2747   4.221   7.306   6.763
     LYS   HB2  2748   4.224   7.285   6.581
     LYS    CG  2749   4.080   7.417   6.655
     LYS   HG1  2750   4.019   7.417   6.563
     LYS   HG2  2751   4.007   7.437   6.737
     LYS    CD  2752   4.173   7.538   6.646
     LYS   HD1  2753   4.112   7.631   6.644
     LYS   HD2  2754   4.239   7.548   6.735
     LYS    CE  2755   4.280   7.541   6.533
     LYS   HE1  2756   4.332   7.639   6.544
     LYS   HE2  2757   4.347   7.452   6.537
     LYS    NZ  2758   4.209   7.534   6.403
     LYS   HZ1  2759   4.139   7.610   6.404
     LYS     C  2760   4.145   7.036   6.722
     LYS     O  2761   4.141   7.005   6.841
     GLY     C  2762   4.613   7.038   7.202
     GLY     O  2763   4.712   6.987   7.253
     GLY    CA  2764   4.616   7.113   7.069
     GLY   HA1  2765   4.705   7.084   7.012
     GLY   HA2  2766   4.617   7.221   7.087
     GLY     N  2767   4.498   7.080   6.991
     GLY    HN  2768   4.432   7.015   7.031
     GLY     C  2769   4.475   6.953   6.955
     GLY     O  2770   4.557   6.870   6.992
     GLY    CA  2771   4.351   6.919   6.873
     GLY   HA1  2772   4.328   6.812   6.884
     GLY   HA2  2773   4.368   6.942   6.768
     GLY     N  2774   4.238   6.996   6.920
     GLY    HN  2775   4.253   7.060   6.998
     GLY     C  2776   4.196   6.983   7.047
     GLY     O  2777   4.259   6.905   7.118
     GLY    CA  2778   4.077   7.064   7.096
     GLY   HA1  2779   4.079   7.071   7.206
     GLY   HA2  2780   3.984   7.017   7.064
     GLY     N  2781   4.082   7.198   7.042
     GLY    HN  2782   4.160   7.222   6.981
     GLY     C  2783   4.187   7.277   7.068
     GLY     O  2784   4.275   7.229   7.139
     GLY    CA  2785   4.193   7.419   7.011
     GLY   HA1  2786   4.296   7.454   7.011
     GLY   HA2  2787   4.131   7.486   7.071
     GLY     N  2788   4.143   7.419   6.875
     GLY    HN  2789   4.113   7.330   6.836
     GLY     C  2790   4.204   7.344   6.781
     GLY     O  2791   4.301   7.278   6.818
     GLY    CA  2792   4.152   7.344   6.638
     GLY   HA1  2793   4.187   7.254   6.586
     GLY   HA2  2794   4.187   7.433   6.586
     GLY     N  2795   4.007   7.344   6.638
     GLY    HN  2796   3.956   7.352   6.550
     DAL     N  2797   4.208   6.953   6.641
     DAL    HN  2798   4.248   6.872   6.684
     DAL    CA  2799   4.238   6.970   6.499
     DAL    HA  2800   4.148   6.995   6.445
     DAL    CB  2801   4.289   6.833   6.434
     DAL   HB1  2802   4.204   6.761   6.440
     DAL   HB2  2803   4.327   6.835   6.330
     DAL   HB3  2804   4.364   6.793   6.505
     DAL     C  2805   4.353   7.073   6.487
     DAL     O  2806   4.434   7.090   6.574
     DAL     N  2807   4.355   7.156   6.381
     DAL    HN  2808   4.430   7.221   6.376
     DAL    CA  2809   4.266   7.134   6.258
     DAL    HA  2810   4.239   7.031   6.239
     DAL    CB  2811   4.356   7.154   6.134
     DAL   HB1  2812   4.377   7.260   6.111
     DAL   HB2  2813   4.450   7.102   6.162
     DAL   HB3  2814   4.309   7.102   6.047
     DAL     C  2815   4.136   7.223   6.257
     DAL   OC1  2816   4.067   7.215   6.156
     DAL   OC2  2817   4.106   7.294   6.353
     NAG    C1  2818   2.814   8.517   6.375
     NAG    H1  2819   2.924   8.524   6.361
     NAG    C5  2820   2.872   8.317   6.491
     NAG    H5  2821   2.977   8.337   6.461
     NAG    O5  2822   2.794   8.440   6.494
     NAG    C2  2823   2.738   8.440   6.275
     NAG    H2  2824   2.634   8.416   6.308
     NAG    NC  2825   2.756   8.502   6.147
     NAG    HN  2826   2.845   8.515   6.104
     NAG    CM  2827   2.666   8.554   6.059
     NAG    OM  2828   2.546   8.528   6.077
     NAG    CC  2829   2.735   8.634   5.954
     NAG   HC1  2830   2.714   8.743   5.957
     NAG   HC2  2831   2.844   8.617   5.970
     NAG   HC3  2832   2.711   8.583   5.858
     NAG    C3  2833   2.815   8.307   6.258
     NAG    H3  2834   2.918   8.329   6.223
     NAG    O3  2835   2.755   8.231   6.159
     NAG   HO3  2836   2.804   8.247   6.078
     NAG    C4  2837   2.816   8.228   6.386
     NAG    H4  2838   2.713   8.192   6.406
     NAG    O4  2839   2.906   8.118   6.366
     NAG    C6  2840   2.873   8.258   6.639
     NAG   H61  2841   2.919   8.327   6.712
     NAG   H62  2842   2.934   8.165   6.634
     NAG    O6  2843   2.745   8.203   6.680
     NAG   HO6  2844   2.680   8.272   6.672
     NAM    C1  2845   2.816   9.042   6.453
     NAM    H1  2846   2.709   9.032   6.426
     NAM    C5  2847   2.850   8.859   6.318
     NAM    H5  2848   2.750   8.882   6.277
     NAM    O5  2849   2.908   8.979   6.366
     NAM    C2  2850   2.840   8.965   6.575
     NAM    H2  2851   2.947   8.962   6.603
     NAM    NC  2852   2.756   9.008   6.684
     NAM    HN  2853   2.662   8.976   6.689
     NAM    CM  2854   2.810   9.036   6.805
     NAM    OM  2855   2.928   9.021   6.835
     NAM    CC  2856   2.706   9.080   6.908
     NAM   HC1  2857   2.608   9.070   6.858
     NAM   HC2  2858   2.708   9.012   6.996
     NAM   HC3  2859   2.727   9.187   6.930
     NAM    C3  2860   2.789   8.822   6.558
     NAM    H3  2861   2.678   8.827   6.553
     NAM    O3  2862   2.808   8.734   6.667
     NAM    CA  2863   2.941   8.675   6.689
     NAM    HA  2864   2.941   8.586   6.627
     NAM     C  2865   2.910   8.630   6.830
     NAM     O  2866   2.878   8.517   6.847
     NAM    CB  2867   3.070   8.758   6.690
     NAM   HB1  2868   3.087   8.808   6.592
     NAM   HB2  2869   3.158   8.692   6.705
     NAM   HB3  2870   3.065   8.841   6.764
     NAM    C4  2871   2.834   8.755   6.429
     NAM    H4  2872   2.938   8.720   6.443
     NAM    O4  2873   2.753   8.646   6.382
     NAM    C6  2874   2.936   8.817   6.197
     NAM   H61  2875   2.918   8.711   6.167
     NAM   H62  2876   3.044   8.820   6.222
     NAM    O6  2877   2.928   8.905   6.088
     NAM   HO6  2878   2.974   8.867   6.013
     ALA     N  2879   2.906   8.711   6.935
     ALA    HN  2880   2.916   8.809   6.923
     ALA    CA  2881   2.890   8.666   7.071
     ALA    HA  2882   2.787   8.631   7.073
     ALA    CB  2883   2.903   8.787   7.155
     ALA   HB1  2884   2.925   8.781   7.264
     ALA   HB2  2885   2.813   8.852   7.152
     ALA   HB3  2886   2.998   8.841   7.131
     ALA     C  2887   2.994   8.559   7.142
     ALA     O  2888   3.114   8.566   7.120
     GLN     N  2889   2.946   8.459   7.217
     GLN    HN  2890   3.016   8.404   7.261
     GLN    CA  2891   2.806   8.435   7.235
     GLN    HA  2892   2.755   8.528   7.220
     GLN    CD  2893   2.750   8.322   7.140
     GLN   OE1  2894   2.642   8.267   7.160
     GLN   NE2  2895   2.815   8.279   7.027
     GLN  HE21  2896   2.785   8.196   6.980
     GLN  HE22  2897   2.902   8.316   6.993
     GLN    CB  2898   2.781   8.398   7.388
     GLN   HB1  2899   2.825   8.302   7.422
     GLN   HB2  2900   2.674   8.381   7.413
     GLN    CG  2901   2.827   8.517   7.475
     GLN   HG1  2902   2.779   8.609   7.436
     GLN   HG2  2903   2.937   8.521   7.459
     GLN     C  2904   2.801   8.512   7.627
     GLN     O  2905   2.702   8.572   7.676
     LYS     N  2906   2.877   8.451   7.716
     LYS    HN  2907   2.862   8.466   7.813
     LYS    CA  2908   2.990   8.354   7.692
     LYS    HA  2909   2.969   8.313   7.594
     LYS    CB  2910   3.006   8.247   7.807
     LYS   HB1  2911   3.088   8.174   7.790
     LYS   HB2  2912   3.016   8.303   7.902
     LYS    CG  2913   2.883   8.147   7.806
     LYS   HG1  2914   2.787   8.201   7.793
     LYS   HG2  2915   2.897   8.084   7.715
     LYS    CD  2916   2.875   8.059   7.924
     LYS   HD1  2917   2.892   8.122   8.014
     LYS   HD2  2918   2.781   7.999   7.926
     LYS    CE  2919   2.987   7.952   7.931
     LYS   HE1  2920   3.087   8.000   7.921
     LYS   HE2  2921   2.985   7.909   8.033
     LYS    NZ  2922   2.987   7.845   7.835
     LYS   HZ1  2923   3.049   7.858   7.752
     LYS   HZ2  2924   2.890   7.826   7.803
     LYS   HZ3  2925   3.022   7.754   7.870
     LYS     C  2926   3.124   8.427   7.688
     LYS     O  2927   3.141   8.537   7.743
     DAL     N  2928   3.233   8.366   7.635
     DAL    HN  2929   3.314   8.424   7.630
     DAL    CA  2930   3.255   8.245   7.554
     DAL    HA  2931   3.234   8.159   7.615
     DAL    CB  2932   3.409   8.249   7.518
     DAL   HB1  2933   3.447   8.157   7.469
     DAL   HB2  2934   3.432   8.329   7.444
     DAL   HB3  2935   3.465   8.262   7.613
     DAL     C  2936   3.175   8.235   7.423
     DAL     O  2937   3.124   8.334   7.373
     DAL     N  2938   3.155   8.109   7.368
     DAL    HN  2939   3.099   8.099   7.287
     DAL    CA  2940   3.199   7.981   7.420
     DAL    HA  2941   3.298   7.991   7.462
     DAL    CB  2942   3.205   7.869   7.308
     DAL   HB1  2943   3.102   7.836   7.281
     DAL   HB2  2944   3.265   7.903   7.221
     DAL   HB3  2945   3.259   7.781   7.348
     DAL     C  2946   3.122   7.921   7.539
     DAL   OC1  2947   2.994   7.889   7.513
     DAL   OC2  2948   3.180   7.904   7.650
     NAG    C1  2949   2.795   9.570   6.338
     NAG    H1  2950   2.905   9.586   6.338
     NAG    C5  2951   2.810   9.412   6.509
     NAG    H5  2952   2.918   9.429   6.493
     NAG    O5  2953   2.742   9.524   6.461
     NAG    C2  2954   2.757   9.459   6.242
     NAG    H2  2955   2.646   9.470   6.242
     NAG    NC  2956   2.815   9.489   6.115
     NAG    HN  2957   2.914   9.485   6.104
     NAG    CM  2958   2.757   9.495   5.994
     NAG    OM  2959   2.633   9.474   5.972
     NAG    CC  2960   2.847   9.538   5.884
     NAG   HC1  2961   2.863   9.648   5.886
     NAG   HC2  2962   2.942   9.481   5.884
     NAG   HC3  2963   2.796   9.526   5.785
     NAG    C3  2964   2.802   9.318   6.285
     NAG    H3  2965   2.913   9.310   6.279
     NAG    O3  2966   2.748   9.226   6.199
     NAG   HO3  2967   2.822   9.190   6.150
     NAG    C4  2968   2.769   9.290   6.432
     NAG    H4  2969   2.660   9.278   6.451
     NAG    O4  2970   2.849   9.182   6.483
     NAG    C6  2971   2.764   9.398   6.648
     NAG   H61  2972   2.764   9.290   6.674
     NAG   H62  2973   2.658   9.428   6.655
     NAG    O6  2974   2.840   9.474   6.743
     NAG   HO6  2975   2.777   9.525   6.795
     NAM    C1  2976   2.729  10.098   6.335
     NAM    H1  2977   2.663  10.093   6.245
     NAM    C5  2978   2.832   9.904   6.262
     NAM    H5  2979   2.755   9.904   6.181
     NAM    O5  2980   2.858  10.037   6.304
     NAM    C2  2981   2.664  10.022   6.451
     NAM    H2  2982   2.731  10.038   6.538
     NAM    NC  2983   2.542  10.095   6.466
     NAM    HN  2984   2.487  10.107   6.384
     NAM    CM  2985   2.475  10.147   6.575
     NAM    OM  2986   2.537  10.164   6.675
     NAM    CC  2987   2.327  10.160   6.545
     NAM   HC1  2988   2.272  10.067   6.518
     NAM   HC2  2989   2.270  10.195   6.633
     NAM   HC3  2990   2.308  10.232   6.463
     NAM    C3  2991   2.641   9.876   6.414
     NAM    H3  2992   2.572   9.887   6.328
     NAM    O3  2993   2.562   9.796   6.507
     NAM    CA  2994   2.617   9.761   6.630
     NAM    HA  2995   2.659   9.664   6.608
     NAM     C  2996   2.480   9.722   6.688
     NAM     O  2997   2.430   9.611   6.661
     NAM    CB  2998   2.696   9.847   6.726
     NAM   HB1  2999   2.709   9.793   6.823
     NAM   HB2  3000   2.644   9.942   6.753
     NAM   HB3  3001   2.799   9.868   6.691
     NAM    C4  3002   2.768   9.813   6.366
     NAM    H4  3003   2.842   9.790   6.447
     NAM    O4  3004   2.728   9.690   6.307
     NAM    C6  3005   2.956   9.855   6.193
     NAM   H61  3006   3.006   9.939   6.141
     NAM   H62  3007   2.933   9.780   6.114
     NAM    O6  3008   3.055   9.815   6.286
     NAM   HO6  3009   3.075   9.898   6.329
     ALA     N  3010   2.411   9.803   6.772
     ALA    HN  3011   2.438   9.899   6.770
     ALA    CA  3012   2.296   9.765   6.853
     ALA    HA  3013   2.236   9.706   6.784
     ALA    CB  3014   2.228   9.901   6.885
     ALA   HB1  3015   2.185   9.948   6.793
     ALA   HB2  3016   2.306   9.972   6.917
     ALA   HB3  3017   2.147   9.885   6.959
     ALA     C  3018   2.346   9.675   6.972
     ALA     O  3019   2.468   9.685   7.010
     GLN     N  3020   2.267   9.586   7.023
     GLN    HN  3021   2.302   9.539   7.103
     GLN    CA  3022   2.128   9.568   6.985
     GLN    HA  3023   2.077   9.662   6.969
     GLN    CD  3024   2.106   9.470   6.866
     GLN   OE1  3025   1.987   9.457   6.840
     GLN   NE2  3026   2.202   9.398   6.807
     GLN  HE21  3027   2.177   9.309   6.768
     GLN  HE22  3028   2.301   9.409   6.823
     GLN    CB  3029   2.058   9.488   7.105
     GLN   HB1  3030   1.949   9.483   7.087
     GLN   HB2  3031   2.066   9.551   7.196
     GLN    CG  3032   2.111   9.347   7.129
     GLN   HG1  3033   2.220   9.348   7.151
     GLN   HG2  3034   2.100   9.277   7.044
     GLN     C  3035   2.050   9.286   7.256
     GLN     O  3036   2.062   9.337   7.364
     LYS     N  3037   1.991   9.165   7.249
     LYS    HN  3038   1.963   9.129   7.337
     LYS    CA  3039   1.944   9.088   7.139
     LYS    HA  3040   1.923   9.151   7.054
     LYS    CB  3041   1.824   9.006   7.186
     LYS   HB1  3042   1.797   8.930   7.109
     LYS   HB2  3043   1.838   8.957   7.284
     LYS    CG  3044   1.696   9.084   7.197
     LYS   HG1  3045   1.704   9.152   7.285
     LYS   HG2  3046   1.680   9.146   7.106
     LYS    CD  3047   1.570   8.998   7.217
     LYS   HD1  3048   1.476   9.057   7.226
     LYS   HD2  3049   1.555   8.942   7.123
     LYS    CE  3050   1.566   8.894   7.331
     LYS   HE1  3051   1.461   8.858   7.335
     LYS   HE2  3052   1.628   8.804   7.312
     LYS    NZ  3053   1.599   8.962   7.455
     LYS   HZ1  3054   1.694   8.939   7.490
     LYS     C  3055   2.036   8.992   7.066
     LYS     O  3056   2.037   8.990   6.939
     GLY     C  3057   2.868   9.231   8.128
     GLY     O  3058   2.967   9.180   8.179
     GLY    CA  3059   2.871   9.306   7.995
     GLY   HA1  3060   2.960   9.277   7.938
     GLY   HA2  3061   2.872   9.414   8.013
     GLY     N  3062   2.753   9.273   7.917
     GLY    HN  3063   2.687   9.208   7.957
     GLY     C  3064   2.730   9.146   7.881
     GLY     O  3065   2.812   9.063   7.918
     GLY    CA  3066   2.606   9.112   7.799
     GLY   HA1  3067   2.583   9.005   7.810
     GLY   HA2  3068   2.623   9.135   7.694
     GLY     N  3069   2.493   9.189   7.846
     GLY    HN  3070   2.508   9.253   7.924
     GLY     C  3071   2.451   9.176   7.973
     GLY     O  3072   2.514   9.098   8.044
     GLY    CA  3073   2.332   9.257   8.022
     GLY   HA1  3074   2.334   9.264   8.132
     GLY   HA2  3075   2.239   9.210   7.990
     GLY     N  3076   2.337   9.391   7.968
     GLY    HN  3077   2.415   9.415   7.907
     GLY     C  3078   2.442   9.470   7.994
     GLY     O  3079   2.530   9.422   8.065
     GLY    CA  3080   2.448   9.612   7.937
     GLY   HA1  3081   2.551   9.647   7.937
     GLY   HA2  3082   2.386   9.679   7.997
     GLY     N  3083   2.398   9.612   7.801
     GLY    HN  3084   2.368   9.523   7.762
     GLY     C  3085   2.459   9.537   7.707
     GLY     O  3086   2.556   9.471   7.744
     GLY    CA  3087   2.407   9.537   7.564
     GLY   HA1  3088   2.442   9.447   7.512
     GLY   HA2  3089   2.442   9.626   7.512
     GLY     N  3090   2.262   9.537   7.564
     GLY    HN  3091   2.211   9.545   7.476
     DAL     N  3092   2.130   8.915   7.126
     DAL    HN  3093   2.194   8.869   7.065
     DAL    CA  3094   2.155   8.881   7.263
     DAL    HA  3095   2.087   8.940   7.323
     DAL    CB  3096   2.292   8.922   7.308
     DAL   HB1  3097   2.289   9.033   7.315
     DAL   HB2  3098   2.318   8.884   7.409
     DAL   HB3  3099   2.361   8.886   7.228
     DAL     C  3100   2.140   8.729   7.289
     DAL     O  3101   2.152   8.655   7.189
     DAL     N  3102   2.106   8.682   7.407
     DAL    HN  3103   2.100   8.583   7.397
     DAL    CA  3104   2.066   8.760   7.527
     DAL    HA  3105   2.117   8.854   7.538
     DAL    CB  3106   2.100   8.679   7.652
     DAL   HB1  3107   2.211   8.677   7.642
     DAL   HB2  3108   2.091   8.746   7.740
     DAL   HB3  3109   2.078   8.571   7.665
     DAL     C  3110   1.913   8.777   7.521
     DAL   OC1  3111   1.860   8.890   7.524
     DAL   OC2  3112   1.838   8.676   7.509
     NAG    C1  3113   2.841  10.598   6.204
     NAG    H1  3114   2.907  10.611   6.292
     NAG    C5  3115   2.709  10.464   6.360
     NAG    H5  3116   2.791  10.496   6.428
     NAG    O5  3117   2.706  10.562   6.254
     NAG    C2  3118   2.892  10.480   6.140
     NAG    H2  3119   2.830  10.463   6.050
     NAG    NC  3120   3.038  10.482   6.122
     NAG    HN  3121   3.088  10.406   6.163
     NAG    CM  3122   3.097  10.562   6.026
     NAG    OM  3123   3.051  10.606   5.923
     NAG    CC  3124   3.230  10.598   6.077
     NAG   HC1  3125   3.215  10.658   6.169
     NAG   HC2  3126   3.292  10.508   6.101
     NAG   HC3  3127   3.286  10.660   6.003
     NAG    C3  3128   2.876  10.353   6.228
     NAG    H3  3129   2.952  10.353   6.310
     NAG    O3  3130   2.912  10.240   6.148
     NAG   HO3  3131   2.918  10.169   6.212
     NAG    C4  3132   2.733  10.330   6.288
     NAG    H4  3133   2.657  10.314   6.208
     NAG    O4  3134   2.743  10.229   6.382
     NAG    C6  3135   2.573  10.488   6.434
     NAG   H61  3136   2.571  10.396   6.496
     NAG   H62  3137   2.490  10.485   6.360
     NAG    O6  3138   2.576  10.608   6.513
     NAG   HO6  3139   2.568  10.682   6.452
     NAM    C1  3140   2.667  11.092   6.175
     NAM    H1  3141   2.732  11.136   6.097
     NAM    C5  3142   2.839  10.933   6.218
     NAM    H5  3143   2.903  10.971   6.135
     NAM    O5  3144   2.759  11.038   6.271
     NAM    C2  3145   2.576  10.986   6.114
     NAM    H2  3146   2.515  10.950   6.200
     NAM    NC  3147   2.533  11.053   5.999
     NAM    HN  3148   2.565  11.023   5.909
     NAM    CM  3149   2.412  11.107   5.988
     NAM    OM  3150   2.331  11.092   6.081
     NAM    CC  3151   2.379  11.177   5.860
     NAM   HC1  3152   2.278  11.155   5.819
     NAM   HC2  3153   2.372  11.284   5.889
     NAM   HC3  3154   2.464  11.169   5.788
     NAM    C3  3155   2.662  10.878   6.058
     NAM    H3  3156   2.722  10.935   5.984
     NAM    O3  3157   2.586  10.780   5.984
     NAM    CA  3158   2.510  10.695   6.065
     NAM    HA  3159   2.514  10.696   6.173
     NAM     C  3160   2.522  10.556   6.004
     NAM     O  3161   2.477  10.463   6.069
     NAM    CB  3162   2.371  10.756   6.023
     NAM   HB1  3163   2.297  10.679   6.053
     NAM   HB2  3164   2.361  10.764   5.913
     NAM   HB3  3165   2.349  10.852   6.074
     NAM    C4  3166   2.749  10.821   6.161
     NAM    H4  3167   2.693  10.785   6.250
     NAM    O4  3168   2.837  10.713   6.117
     NAM    C6  3169   2.941  10.897   6.317
     NAM   H61  3170   2.982  10.989   6.363
     NAM   H62  3171   3.020  10.834   6.270
     NAM    O6  3172   2.878  10.822   6.422
     NAM   HO6  3173   2.833  10.879   6.486
     ALA     N  3174   2.598  10.533   5.895
     ALA    HN  3175   2.646  10.609   5.853
     ALA    CA  3176   2.631  10.404   5.849
     ALA    HA  3177   2.651  10.344   5.936
     ALA    CB  3178   2.754  10.411   5.761
     ALA   HB1  3179   2.828  10.485   5.797
     ALA   HB2  3180   2.732  10.456   5.661
     ALA   HB3  3181   2.808  10.317   5.738
     ALA     C  3182   2.515  10.336   5.772
     ALA     O  3183   2.406  10.388   5.746
     GLN     N  3184   2.521  10.201   5.753
     GLN    HN  3185   2.448  10.163   5.696
     GLN    CA  3186   2.580  10.091   5.822
     GLN    HA  3187   2.526  10.001   5.800
     GLN    CD  3188   2.725  10.061   5.784
     GLN   OE1  3189   2.811  10.045   5.869
     GLN   NE2  3190   2.754  10.059   5.651
     GLN  HE21  3191   2.849  10.049   5.622
     GLN  HE22  3192   2.672  10.071   5.596
     GLN    CB  3193   2.557  10.097   5.981
     GLN   HB1  3194   2.629  10.152   6.045
     GLN   HB2  3195   2.583   9.996   6.021
     GLN    CG  3196   2.408  10.132   6.010
     GLN   HG1  3197   2.342  10.091   5.931
     GLN   HG2  3198   2.391  10.241   6.001
     GLN     C  3199   2.358  10.077   6.141
     GLN     O  3200   2.362  10.140   6.248
     LYS     N  3201   2.290   9.963   6.140
     LYS    HN  3202   2.240   9.934   6.221
     LYS    CA  3203   2.288   9.851   6.042
     LYS    HA  3204   2.287   9.889   5.940
     LYS    CB  3205   2.169   9.758   6.063
     LYS   HB1  3206   2.165   9.685   5.980
     LYS   HB2  3207   2.165   9.713   6.164
     LYS    CG  3208   2.032   9.843   6.062
     LYS   HG1  3209   2.041   9.931   6.130
     LYS   HG2  3210   2.026   9.877   5.957
     LYS    CD  3211   1.909   9.762   6.094
     LYS   HD1  3212   1.918   9.682   6.017
     LYS   HD2  3213   1.920   9.716   6.194
     LYS    CE  3214   1.776   9.841   6.086
     LYS   HE1  3215   1.768   9.884   6.188
     LYS   HE2  3216   1.795   9.910   6.001
     LYS    NZ  3217   1.657   9.750   6.062
     LYS   HZ1  3218   1.662   9.719   5.963
     LYS   HZ2  3219   1.570   9.806   6.054
     LYS   HZ3  3220   1.649   9.661   6.116
     LYS     C  3221   2.417   9.777   6.044
     LYS     O  3222   2.468   9.751   6.154
     DAL     N  3223   2.487   9.736   5.938
     DAL    HN  3224   2.576   9.697   5.962
     DAL    CA  3225   2.442   9.729   5.790
     DAL    HA  3226   2.371   9.806   5.765
     DAL    CB  3227   2.363   9.598   5.763
     DAL   HB1  3228   2.276   9.588   5.832
     DAL   HB2  3229   2.341   9.588   5.655
     DAL   HB3  3230   2.440   9.521   5.786
     DAL     C  3231   2.557   9.751   5.690
     DAL     O  3232   2.672   9.735   5.731
     NAG    C1  3233   2.665  11.594   6.318
     NAG    H1  3234   2.555  11.601   6.332
     NAG    C5  3235   2.620  11.422   6.156
     NAG    H5  3236   2.511  11.425   6.176
     NAG    O5  3237   2.692  11.544   6.187
     NAG    C2  3238   2.736  11.496   6.403
     NAG    H2  3239   2.840  11.492   6.364
     NAG    NC  3240   2.716  11.530   6.540
     NAG    HN  3241   2.627  11.560   6.573
     NAG    CM  3242   2.827  11.549   6.614
     NAG    OM  3243   2.938  11.553   6.567
     NAG    CC  3244   2.794  11.566   6.756
     NAG   HC1  3245   2.879  11.594   6.822
     NAG   HC2  3246   2.721  11.649   6.765
     NAG   HC3  3247   2.753  11.472   6.801
     NAG    C3  3248   2.670  11.360   6.388
     NAG    H3  3249   2.567  11.356   6.429
     NAG    O3  3250   2.733  11.263   6.469
     NAG   HO3  3251   2.670  11.225   6.530
     NAG    C4  3252   2.673  11.314   6.245
     NAG    H4  3253   2.778  11.294   6.218
     NAG    O4  3254   2.594  11.202   6.232
     NAG    C6  3255   2.632  11.400   6.014
     NAG   H61  3256   2.575  11.479   5.962
     NAG   H62  3257   2.582  11.307   5.980
     NAG    O6  3258   2.767  11.390   5.960
     NAG   HO6  3259   2.806  11.478   5.964
     NAM    C1  3260   2.637  12.109   6.212
     NAM    H1  3261   2.742  12.114   6.174
     NAM    C5  3262   2.708  11.960   6.372
     NAM    H5  3263   2.802  11.976   6.316
     NAM    O5  3264   2.641  12.085   6.352
     NAM    C2  3265   2.550  11.999   6.140
     NAM    H2  3266   2.453  12.004   6.195
     NAM    NC  3267   2.535  12.024   5.999
     NAM    HN  3268   2.607  11.996   5.937
     NAM    CM  3269   2.450  12.106   5.939
     NAM    OM  3270   2.352  12.163   5.989
     NAM    CC  3271   2.482  12.116   5.794
     NAM   HC1  3272   2.460  12.024   5.736
     NAM   HC2  3273   2.433  12.203   5.744
     NAM   HC3  3274   2.588  12.145   5.782
     NAM    C3  3275   2.604  11.862   6.168
     NAM    H3  3276   2.702  11.857   6.115
     NAM    O3  3277   2.533  11.759   6.101
     NAM    CA  3278   2.400  11.723   6.142
     NAM    HA  3279   2.404  11.630   6.196
     NAM     C  3280   2.354  11.668   6.004
     NAM     O  3281   2.293  11.562   5.995
     NAM    CB  3282   2.279  11.814   6.185
     NAM   HB1  3283   2.288  11.846   6.291
     NAM   HB2  3284   2.186  11.753   6.185
     NAM   HB3  3285   2.266  11.900   6.116
     NAM    C4  3286   2.636  11.836   6.313
     NAM    H4  3287   2.546  11.817   6.376
     NAM    O4  3288   2.724  11.726   6.323
     NAM    C6  3289   2.745  11.929   6.520
     NAM   H61  3290   2.829  11.857   6.531
     NAM   H62  3291   2.657  11.880   6.566
     NAM    O6  3292   2.779  12.042   6.597
     NAM   HO6  3293   2.873  12.053   6.583
     ALA     N  3294   2.375  11.744   5.896
     ALA    HN  3295   2.423  11.829   5.915
     ALA    CA  3296   2.316  11.732   5.765
     ALA    HA  3297   2.280  11.631   5.776
     ALA    CB  3298   2.436  11.701   5.668
     ALA   HB1  3299   2.492  11.608   5.690
     ALA   HB2  3300   2.506  11.787   5.664
     ALA   HB3  3301   2.398  11.691   5.564
     ALA     C  3302   2.214  11.830   5.713
     ALA     O  3303   2.197  11.951   5.749
     GLN     N  3304   2.115  11.781   5.630
     GLN    HN  3305   2.066  11.851   5.578
     GLN    CA  3306   2.109  11.645   5.582
     GLN    HA  3307   2.206  11.597   5.582
     GLN    CD  3308   2.014  11.555   5.676
     GLN   OE1  3309   1.922  11.607   5.742
     GLN   NE2  3310   2.037  11.420   5.670
     GLN  HE21  3311   1.968  11.359   5.709
     GLN  HE22  3312   2.083  11.381   5.590
     GLN    CB  3313   2.080  11.636   5.430
     GLN   HB1  3314   1.975  11.671   5.417
     GLN   HB2  3315   2.076  11.528   5.402
     GLN    CG  3316   2.183  11.716   5.345
     GLN   HG1  3317   2.278  11.663   5.367
     GLN   HG2  3318   2.191  11.822   5.377
     GLN     C  3319   2.130  11.712   5.207
     GLN     O  3320   2.070  11.614   5.160
     LYS     N  3321   2.133  11.819   5.132
     LYS    HN  3322   2.101  11.807   5.038
     LYS    CA  3323   2.202  11.944   5.154
     LYS    HA  3324   2.170  11.989   5.246
     LYS    CB  3325   2.159  12.038   5.042
     LYS   HB1  3326   2.211  12.134   5.060
     LYS   HB2  3327   2.182  12.000   4.940
     LYS    CG  3328   2.010  12.060   5.047
     LYS   HG1  3329   1.967  11.965   5.009
     LYS   HG2  3330   1.971  12.077   5.150
     LYS    CD  3331   1.955  12.182   4.970
     LYS   HD1  3332   2.005  12.192   4.871
     LYS   HD2  3333   1.845  12.178   4.954
     LYS    CE  3334   1.962  12.321   5.035
     LYS   HE1  3335   2.068  12.355   5.033
     LYS   HE2  3336   1.910  12.386   4.962
     LYS    NZ  3337   1.898  12.328   5.165
     LYS   HZ1  3338   1.972  12.298   5.232
     LYS     C  3339   2.355  11.924   5.158
     LYS     O  3340   2.401  11.817   5.114
     GLY     C  3341   2.876  11.508   5.924
     GLY     O  3342   2.975  11.457   5.975
     GLY    CA  3343   2.879  11.583   5.791
     GLY   HA1  3344   2.968  11.554   5.734
     GLY   HA2  3345   2.880  11.691   5.809
     GLY     N  3346   2.761  11.550   5.713
     GLY    HN  3347   2.695  11.485   5.753
     GLY     C  3348   2.738  11.423   5.677
     GLY     O  3349   2.820  11.340   5.714
     GLY    CA  3350   2.614  11.389   5.595
     GLY   HA1  3351   2.591  11.282   5.606
     GLY   HA2  3352   2.631  11.412   5.490
     GLY     N  3353   2.501  11.466   5.642
     GLY    HN  3354   2.516  11.530   5.720
     GLY     C  3355   2.459  11.453   5.769
     GLY     O  3356   2.522  11.375   5.840
     GLY    CA  3357   2.340  11.534   5.818
     GLY   HA1  3358   2.342  11.541   5.928
     GLY   HA2  3359   2.247  11.487   5.786
     GLY     N  3360   2.345  11.668   5.764
     GLY    HN  3361   2.423  11.692   5.703
     GLY     C  3362   2.450  11.747   5.790
     GLY     O  3363   2.538  11.699   5.861
     GLY    CA  3364   2.456  11.889   5.733
     GLY   HA1  3365   2.559  11.924   5.733
     GLY   HA2  3366   2.394  11.956   5.793
     GLY     N  3367   2.406  11.889   5.597
     GLY    HN  3368   2.376  11.800   5.558
     GLY     C  3369   2.467  11.814   5.503
     GLY     O  3370   2.564  11.748   5.540
     GLY    CA  3371   2.415  11.814   5.360
     GLY   HA1  3372   2.450  11.724   5.308
     GLY   HA2  3373   2.450  11.903   5.308
     GLY     N  3374   2.270  11.814   5.360
     GLY   HN1  3375   2.219  11.822   5.272
     GLY   HN2  3376   2.200  11.812   5.450
     GLY   HN3  3377   2.185  11.864   5.350
     DAL     N  3378   2.441  12.016   5.197
     DAL    HN  3379   2.534  12.010   5.162
     DAL    CA  3380   2.411  12.114   5.300
     DAL    HA  3381   2.328  12.164   5.252
     DAL    CB  3382   2.545  12.203   5.306
     DAL   HB1  3383   2.542  12.257   5.209
     DAL   HB2  3384   2.537  12.275   5.390
     DAL   HB3  3385   2.638  12.143   5.309
     DAL     C  3386   2.369  12.055   5.436
     DAL     O  3387   2.416  11.950   5.476
     DAL     N  3388   2.279  12.118   5.519
     DAL    HN  3389   2.257  12.074   5.606
     DAL    CA  3390   2.219  12.247   5.516
     DAL    HA  3391   2.301  12.316   5.507
     DAL    CB  3392   2.121  12.267   5.640
     DAL   HB1  3393   2.034  12.199   5.633
     DAL   HB2  3394   2.179  12.238   5.730
     DAL   HB3  3395   2.085  12.373   5.639
     DAL     C  3396   2.127  12.272   5.389
     DAL   OC1  3397   2.018  12.210   5.370
     DAL   OC2  3398   2.155  12.370   5.316
     NAG    C1  3399   2.639  12.638   6.258
     NAG    H1  3400   2.534  12.664   6.233
     NAG    C5  3401   2.640  12.444   6.106
     NAG    H5  3402   2.532  12.456   6.084
     NAG    O5  3403   2.702  12.576   6.142
     NAG    C2  3404   2.638  12.537   6.373
     NAG    H2  3405   2.742  12.501   6.386
     NAG    NC  3406   2.570  12.602   6.485
     NAG    HN  3407   2.471  12.594   6.495
     NAG    CM  3408   2.636  12.650   6.590
     NAG    OM  3409   2.750  12.637   6.604
     NAG    CC  3410   2.544  12.720   6.677
     NAG   HC1  3411   2.587  12.740   6.778
     NAG   HC2  3412   2.505  12.809   6.624
     NAG   HC3  3413   2.449  12.664   6.693
     NAG    C3  3414   2.563  12.414   6.334
     NAG    H3  3415   2.463  12.449   6.300
     NAG    O3  3416   2.536  12.336   6.448
     NAG   HO3  3417   2.574  12.248   6.441
     NAG    C4  3418   2.637  12.347   6.224
     NAG    H4  3419   2.743  12.325   6.250
     NAG    O4  3420   2.573  12.227   6.184
     NAG    C6  3421   2.712  12.397   5.985
     NAG   H61  3422   2.725  12.470   5.902
     NAG   H62  3423   2.660  12.311   5.938
     NAG    O6  3424   2.846  12.344   6.013
     NAG   HO6  3425   2.909  12.407   6.048
     NAM    C1  3426   2.738  13.134   6.113
     NAM    H1  3427   2.822  13.171   6.175
     NAM    C5  3428   2.649  12.979   6.281
     NAM    H5  3429   2.736  13.003   6.345
     NAM    O5  3430   2.628  13.088   6.187
     NAM    C2  3431   2.774  13.031   6.020
     NAM    H2  3432   2.681  13.021   5.960
     NAM    NC  3433   2.909  13.056   5.964
     NAM    HN  3434   2.989  13.049   6.023
     NAM    CM  3435   2.935  13.079   5.834
     NAM    OM  3436   2.843  13.087   5.752
     NAM    CC  3437   3.078  13.115   5.798
     NAM   HC1  3438   3.097  13.218   5.834
     NAM   HC2  3439   3.148  13.040   5.841
     NAM   HC3  3440   3.093  13.110   5.688
     NAM    C3  3441   2.806  12.910   6.108
     NAM    H3  3442   2.874  12.941   6.189
     NAM    O3  3443   2.890  12.805   6.040
     NAM    CA  3444   2.828  12.751   5.916
     NAM    HA  3445   2.844  12.655   5.962
     NAM     C  3446   2.920  12.751   5.796
     NAM     O  3447   3.040  12.734   5.809
     NAM    CB  3448   2.676  12.745   5.881
     NAM   HB1  3449   2.638  12.849   5.888
     NAM   HB2  3450   2.613  12.695   5.958
     NAM   HB3  3451   2.654  12.689   5.787
     NAM    C4  3452   2.686  12.864   6.196
     NAM    H4  3453   2.600  12.841   6.129
     NAM    O4  3454   2.711  12.757   6.286
     NAM    C6  3455   2.522  12.951   6.360
     NAM   H61  3456   2.510  13.032   6.436
     NAM   H62  3457   2.533  12.853   6.411
     NAM    O6  3458   2.402  12.944   6.279
     NAM   HO6  3459   2.375  13.028   6.242
     ALA     N  3460   2.869  12.768   5.678
     ALA    HN  3461   2.771  12.769   5.661
     ALA    CA  3462   2.952  12.813   5.564
     ALA    HA  3463   2.993  12.911   5.585
     ALA    CB  3464   2.848  12.820   5.448
     ALA   HB1  3465   2.773  12.900   5.467
     ALA   HB2  3466   2.795  12.723   5.452
     ALA   HB3  3467   2.903  12.828   5.352
     ALA     C  3468   3.066  12.727   5.514
     ALA     O  3469   3.051  12.605   5.496
     GLN     N  3470   3.188  12.777   5.474
     GLN    HN  3471   3.250  12.711   5.434
     GLN    CA  3472   3.243  12.907   5.499
     GLN    HA  3473   3.175  12.964   5.560
     GLN    CD  3474   3.371  12.898   5.589
     GLN   OE1  3475   3.377  12.950   5.698
     GLN   NE2  3476   3.478  12.830   5.546
     GLN  HE21  3477   3.542  12.817   5.622
     GLN  HE22  3478   3.477  12.779   5.460
     GLN    CB  3479   3.288  12.983   5.367
     GLN   HB1  3480   3.358  12.905   5.330
     GLN   HB2  3481   3.347  13.069   5.406
     GLN    CG  3482   3.171  13.011   5.273
     GLN   HG1  3483   3.096  13.084   5.311
     GLN   HG2  3484   3.117  12.915   5.258
     GLN     C  3485   3.215  13.049   5.135
     GLN     O  3486   3.214  12.969   5.047
     LYS     N  3487   3.262  13.175   5.111
     LYS    HN  3488   3.300  13.185   5.020
     LYS    CA  3489   3.255  13.289   5.200
     LYS    HA  3490   3.170  13.288   5.267
     LYS    CB  3491   3.199  13.408   5.112
     LYS   HB1  3492   3.194   0.042   5.177
     LYS   HB2  3493   3.266  13.433   5.028
     LYS    CG  3494   3.063  13.377   5.056
     LYS   HG1  3495   3.070  13.312   4.966
     LYS   HG2  3496   3.002  13.319   5.129
     LYS    CD  3497   2.982   0.042   5.003
     LYS   HD1  3498   2.883   0.011   4.964
     LYS   HD2  3499   2.964   0.112   5.088
     LYS    CE  3500   3.059   0.141   4.908
     LYS   HE1  3501   2.988   0.225   4.890
     LYS   HE2  3502   3.143   0.166   4.977
     LYS    NZ  3503   3.104   0.072   4.795
     LYS   HZ1  3504   3.208   0.077   4.784
     LYS   HZ2  3505   3.068   0.110   4.705
     LYS   HZ3  3506   3.084  13.425   4.796
     LYS     C  3507   3.379  13.313   5.291
     LYS     O  3508   3.375  13.322   5.416
     DAL     N  3509   3.507  13.338   5.242
     DAL    HN  3510   3.580  13.356   5.307
     DAL    CA  3511   3.548  13.329   5.105
     DAL    HA  3512   3.470  13.359   5.036
     DAL    CB  3513   3.597  13.191   5.061
     DAL   HB1  3514   3.692  13.167   5.112
     DAL   HB2  3515   3.524  13.114   5.095
     DAL   HB3  3516   3.619  13.176   4.954
     DAL     C  3517   3.651  13.435   5.080
     DAL     O  3518   3.721   0.019   5.176
     DAL     N  3519   3.663   0.030   4.955
     DAL    HN  3520   3.717   0.113   4.941
     DAL    CA  3521   3.589  13.438   4.839
     DAL    HA  3522   3.591  13.330   4.835
     DAL    CB  3523   3.676   0.010   4.722
     DAL   HB1  3524   3.694   0.117   4.697
     DAL   HB2  3525   3.776  13.421   4.743
     DAL   HB3  3526   3.648  13.404   4.634
     DAL     C  3527   3.460   0.055   4.811
     DAL   OC1  3528   3.357  13.437   4.808
     DAL   OC2  3529   3.450   0.179   4.783
     NAG    C1  3530   4.671   0.179   6.283
     NAG    H1  3531   4.589   0.204   6.212
     NAG    C5  3532   4.727   0.022   6.108
     NAG    H5  3533   4.640   0.062   6.051
     NAG    O5  3534   4.775   0.121   6.198
     NAG    C2  3535   4.621   0.061   6.368
     NAG    H2  3536   4.705   0.026   6.431
     NAG    NC  3537   4.505   0.123   6.431
     NAG    HN  3538   4.417   0.132   6.384
     NAG    CM  3539   4.495   0.167   6.554
     NAG    OM  3540   4.568   0.124   6.645
     NAG    CC  3541   4.397   0.279   6.574
     NAG   HC1  3542   4.429   0.381   6.544
     NAG   HC2  3543   4.305   0.259   6.515
     NAG   HC3  3544   4.374   0.272   6.682
     NAG    C3  3545   4.571  13.402   6.286
     NAG    H3  3546   4.481  13.431   6.227
     NAG    O3  3547   4.537  13.298   6.374
     NAG   HO3  3548   4.481  13.241   6.320
     NAG    C4  3549   4.682  13.350   6.192
     NAG    H4  3550   4.762  13.307   6.256
     NAG    O4  3551   4.640  13.250   6.099
     NAG    C6  3552   4.840  13.448   6.019
     NAG   H61  3553   4.817  13.361   5.954
     NAG   H62  3554   4.923  13.415   6.085
     NAG    O6  3555   4.871   0.104   5.933
     NAG   HO6  3556   4.923   0.169   5.981
     NAM    C1  3557   4.812   0.686   6.265
     NAM    H1  3558   4.779   0.708   6.369
     NAM    C5  3559   4.645   0.522   6.275
     NAM    H5  3560   4.609   0.553   6.376
     NAM    O5  3561   4.702   0.625   6.196
     NAM    C2  3562   4.924   0.593   6.273
     NAM    H2  3563   4.964   0.552   6.178
     NAM    NC  3564   5.040   0.636   6.341
     NAM    HN  3565   5.055   0.591   6.429
     NAM    CM  3566   5.149   0.698   6.283
     NAM    OM  3567   5.167   0.688   6.162
     NAM    CC  3568   5.248   0.764   6.377
     NAM   HC1  3569   5.269   0.869   6.348
     NAM   HC2  3570   5.200   0.766   6.478
     NAM   HC3  3571   5.347   0.715   6.384
     NAM    C3  3572   4.875   0.478   6.358
     NAM    H3  3573   4.846   0.504   6.462
     NAM    O3  3574   4.977   0.387   6.404
     NAM    CA  3575   5.043   0.309   6.308
     NAM    HA  3576   4.990   0.310   6.214
     NAM     C  3577   5.054   0.163   6.338
     NAM     O  3578   5.111   0.084   6.256
     NAM    CB  3579   5.184   0.357   6.282
     NAM   HB1  3580   5.181   0.451   6.223
     NAM   HB2  3581   5.243   0.293   6.213
     NAM   HB3  3582   5.241   0.384   6.374
     NAM    C4  3583   4.752   0.414   6.293
     NAM    H4  3584   4.797   0.393   6.193
     NAM    O4  3585   4.713   0.292   6.357
     NAM    C6  3586   4.529   0.462   6.200
     NAM   H61  3587   4.480   0.382   6.260
     NAM   H62  3588   4.561   0.425   6.101
     NAM    O6  3589   4.426   0.560   6.174
     NAM   HO6  3590   4.416   0.584   6.082
     ALA     N  3591   5.001   0.112   6.448
     ALA    HN  3592   4.946   0.180   6.496
     ALA    CA  3593   5.013  13.427   6.500
     ALA    HA  3594   4.965  13.367   6.424
     ALA    CB  3595   4.932  13.409   6.637
     ALA   HB1  3596   4.830  13.452   6.632
     ALA   HB2  3597   4.984   0.013   6.714
     ALA   HB3  3598   4.926  13.302   6.668
     ALA     C  3599   5.157  13.380   6.530
     ALA     O  3600   5.246   0.002   6.570
     GLN     N  3601   5.186  13.252   6.513
     GLN    HN  3602   5.281  13.225   6.527
     GLN    CA  3603   5.096  13.148   6.458
     GLN    HA  3604   5.000  13.148   6.508
     GLN    CD  3605   5.064  13.161   6.310
     GLN   OE1  3606   4.951  13.166   6.263
     GLN   NE2  3607   5.173  13.182   6.229
     GLN  HE21  3608   5.168  13.168   6.130
     GLN  HE22  3609   5.260  13.192   6.277
     GLN    CB  3610   5.156  13.009   6.482
     GLN   HB1  3611   5.242  12.983   6.416
     GLN   HB2  3612   5.078  12.936   6.452
     GLN    CG  3613   5.194  12.979   6.633
     GLN   HG1  3614   5.273  13.047   6.670
     GLN   HG2  3615   5.248  12.883   6.647
     GLN     C  3616   5.077  12.988   6.720
     GLN     O  3617   4.967  12.948   6.682
     LYS     N  3618   5.090  13.037   6.849
     LYS    HN  3619   5.010  13.052   6.908
     LYS    CA  3620   5.212  13.066   6.920
     LYS    HA  3621   5.290  12.996   6.894
     LYS    CB  3622   5.180  13.044   7.067
     LYS   HB1  3623   5.280  13.054   7.115
     LYS   HB2  3624   5.111  13.114   7.118
     LYS    CG  3625   5.136  12.899   7.101
     LYS   HG1  3626   5.100  12.897   7.206
     LYS   HG2  3627   5.045  12.897   7.037
     LYS    CD  3628   5.233  12.784   7.069
     LYS   HD1  3629   5.325  12.837   7.037
     LYS   HD2  3630   5.258  12.739   7.167
     LYS    CE  3631   5.163  12.686   6.975
     LYS   HE1  3632   5.083  12.638   7.036
     LYS   HE2  3633   5.141  12.737   6.879
     LYS    NZ  3634   5.261  12.583   6.945
     LYS   HZ1  3635   5.276  12.538   7.037
     LYS   HZ2  3636   5.352  12.624   6.917
     LYS   HZ3  3637   5.233  12.516   6.871
     LYS     C  3638   5.267  13.208   6.893
     LYS     O  3639   5.189  13.299   6.872
     DAL     N  3640   5.396  13.245   6.899
     DAL    HN  3641   5.418  13.329   6.850
     DAL    CA  3642   5.512  13.160   6.929
     DAL    HA  3643   5.495  13.112   7.025
     DAL    CB  3644   5.640  13.236   6.942
     DAL   HB1  3645   5.619  13.316   7.016
     DAL   HB2  3646   5.717  13.164   6.975
     DAL   HB3  3647   5.677  13.273   6.844
     DAL     C  3648   5.536  13.061   6.810
     DAL     O  3649   5.522  13.089   6.695
     DAL     N  3650   5.567  12.938   6.841
     DAL    HN  3651   5.568  12.875   6.763
     DAL    CA  3652   5.614  12.875   6.970
     DAL    HA  3653   5.580  12.946   7.044
     DAL    CB  3654   5.766  12.887   6.966
     DAL   HB1  3655   5.798  12.993   6.950
     DAL   HB2  3656   5.812  12.839   7.055
     DAL   HB3  3657   5.808  12.840   6.874
     DAL     C  3658   5.562  12.730   6.995
     DAL   OC1  3659   5.565  12.682   7.114
     DAL   OC2  3660   5.524  12.655   6.903
     NAG    C1  3661   4.794   1.207   6.185
     NAG    H1  3662   4.851   1.238   6.095
     NAG    C5  3663   4.849   1.008   6.324
     NAG    H5  3664   4.942   0.959   6.358
     NAG    O5  3665   4.897   1.118   6.252
     NAG    C2  3666   4.675   1.129   6.139
     NAG    H2  3667   4.606   1.121   6.226
     NAG    NC  3668   4.625   1.193   6.021
     NAG    HN  3669   4.686   1.197   5.942
     NAG    CM  3670   4.501   1.245   6.006
     NAG    OM  3671   4.423   1.222   6.096
     NAG    CC  3672   4.472   1.317   5.871
     NAG   HC1  3673   4.363   1.332   5.861
     NAG   HC2  3674   4.506   1.422   5.885
     NAG   HC3  3675   4.519   1.270   5.781
     NAG    C3  3676   4.718   0.985   6.109
     NAG    H3  3677   4.805   0.988   6.041
     NAG    O3  3678   4.623   0.901   6.042
     NAG   HO3  3679   4.534   0.921   6.072
     NAG    C4  3680   4.765   0.911   6.240
     NAG    H4  3681   4.666   0.892   6.287
     NAG    O4  3682   4.850   0.801   6.207
     NAG    C6  3683   4.781   1.055   6.459
     NAG   H61  3684   4.684   1.105   6.438
     NAG   H62  3685   4.856   1.114   6.516
     NAG    O6  3686   4.755   0.935   6.525
     NAG   HO6  3687   4.839   0.922   6.571
     NAM    C1  3688   4.868   1.703   6.361
     NAM    H1  3689   4.773   1.708   6.419
     NAM    C5  3690   4.779   1.540   6.213
     NAM    H5  3691   4.691   1.551   6.280
     NAM    O5  3692   4.844   1.670   6.220
     NAM    C2  3693   4.956   1.598   6.429
     NAM    H2  3694   5.049   1.602   6.367
     NAM    NC  3695   4.964   1.634   6.565
     NAM    HN  3696   4.899   1.599   6.632
     NAM    CM  3697   5.068   1.703   6.616
     NAM    OM  3698   5.162   1.735   6.545
     NAM    CC  3699   5.065   1.732   6.764
     NAM   HC1  3700   5.116   1.827   6.789
     NAM   HC2  3701   4.961   1.737   6.805
     NAM   HC3  3702   5.112   1.642   6.810
     NAM    C3  3703   4.896   1.457   6.410
     NAM    H3  3704   4.801   1.454   6.467
     NAM    O3  3705   4.984   1.364   6.469
     NAM    CA  3706   5.114   1.335   6.422
     NAM    HA  3707   5.099   1.372   6.321
     NAM     C  3708   5.137   1.187   6.406
     NAM     O  3709   5.172   1.140   6.298
     NAM    CB  3710   5.236   1.413   6.472
     NAM   HB1  3711   5.301   1.438   6.386
     NAM   HB2  3712   5.296   1.363   6.551
     NAM   HB3  3713   5.207   1.504   6.528
     NAM    C4  3714   4.858   1.422   6.268
     NAM    H4  3715   4.947   1.411   6.202
     NAM    O4  3716   4.765   1.315   6.268
     NAM    C6  3717   4.736   1.531   6.065
     NAM   H61  3718   4.684   1.625   6.036
     NAM   H62  3719   4.667   1.444   6.057
     NAM    O6  3720   4.841   1.525   5.966
     NAM   HO6  3721   4.806   1.517   5.877
     ALA     N  3722   5.151   1.112   6.522
     ALA    HN  3723   5.177   1.016   6.515
     ALA    CA  3724   5.151   1.168   6.655
     ALA    HA  3725   5.118   1.270   6.658
     ALA    CB  3726   5.287   1.151   6.722
     ALA   HB1  3727   5.301   1.054   6.775
     ALA   HB2  3728   5.315   1.228   6.797
     ALA   HB3  3729   5.368   1.158   6.646
     ALA     C  3730   5.045   1.092   6.739
     ALA     O  3731   4.998   0.989   6.686
     GLN     N  3732   4.994   1.136   6.864
     GLN    HN  3733   4.911   1.090   6.896
     GLN    CA  3734   5.013   1.263   6.927
     GLN    HA  3735   4.958   1.242   7.017
     GLN    CD  3736   5.153   1.300   6.993
     GLN   OE1  3737   5.202   1.413   6.966
     GLN   NE2  3738   5.200   1.216   7.092
     GLN  HE21  3739   5.289   1.237   7.132
     GLN  HE22  3740   5.145   1.135   7.116
     GLN    CB  3741   4.938   1.373   6.849
     GLN   HB1  3742   4.993   1.387   6.754
     GLN   HB2  3743   4.942   1.463   6.915
     GLN    CG  3744   4.790   1.337   6.822
     GLN   HG1  3745   4.737   1.308   6.915
     GLN   HG2  3746   4.787   1.243   6.762
     GLN     C  3747   4.729   1.446   6.747
     GLN     O  3748   4.776   1.556   6.740
     LYS     N  3749   4.610   1.431   6.687
     LYS    HN  3750   4.583   1.508   6.630
     LYS    CA  3751   4.515   1.321   6.707
     LYS    HA  3752   4.560   1.228   6.673
     LYS    CB  3753   4.392   1.352   6.619
     LYS   HB1  3754   4.304   1.288   6.637
     LYS   HB2  3755   4.343   1.449   6.638
     LYS    CG  3756   4.429   1.359   6.471
     LYS   HG1  3757   4.517   1.424   6.452
     LYS   HG2  3758   4.462   1.257   6.441
     LYS    CD  3759   4.321   1.409   6.375
     LYS   HD1  3760   4.309   1.518   6.392
     LYS   HD2  3761   4.366   1.410   6.273
     LYS    CE  3762   4.200   1.321   6.371
     LYS   HE1  3763   4.161   1.292   6.471
     LYS   HE2  3764   4.119   1.374   6.316
     LYS    NZ  3765   4.216   1.197   6.283
     LYS   HZ1  3766   4.254   1.127   6.349
     LYS   HZ2  3767   4.269   1.203   6.194
     LYS   HZ3  3768   4.122   1.168   6.248
     LYS     C  3769   4.479   1.299   6.855
     LYS     O  3770   4.502   1.383   6.940
     DAL     N  3771   4.406   1.187   6.895
     DAL    HN  3772   4.372   1.181   6.989
     DAL    CA  3773   4.369   1.070   6.820
     DAL    HA  3774   4.310   1.107   6.737
     DAL    CB  3775   4.298   0.974   6.916
     DAL   HB1  3776   4.274   0.878   6.865
     DAL   HB2  3777   4.360   0.960   7.007
     DAL   HB3  3778   4.198   1.014   6.947
     DAL     C  3779   4.499   0.997   6.765
     DAL     O  3780   4.610   1.020   6.803
     NAG    C1  3781   4.863   2.223   6.288
     NAG    H1  3782   4.970   2.255   6.285
     NAG    C5  3783   4.888   2.049   6.437
     NAG    H5  3784   4.992   2.086   6.446
     NAG    O5  3785   4.815   2.170   6.410
     NAG    C2  3786   4.828   2.138   6.173
     NAG    H2  3787   4.718   2.121   6.179
     NAG    NC  3788   4.891   2.187   6.052
     NAG    HN  3789   4.983   2.159   6.025
     NAG    CM  3790   4.808   2.253   5.965
     NAG    OM  3791   4.685   2.232   5.953
     NAG    CC  3792   4.879   2.345   5.884
     NAG   HC1  3793   4.873   2.438   5.944
     NAG   HC2  3794   4.988   2.322   5.872
     NAG   HC3  3795   4.842   2.378   5.784
     NAG    C3  3796   4.885   1.994   6.186
     NAG    H3  3797   4.994   2.004   6.171
     NAG    O3  3798   4.832   1.906   6.083
     NAG   HO3  3799   4.847   1.813   6.099
     NAG    C4  3800   4.863   1.942   6.333
     NAG    H4  3801   4.753   1.929   6.342
     NAG    O4  3802   4.935   1.828   6.373
     NAG    C6  3803   4.855   2.003   6.576
     NAG   H61  3804   4.872   2.093   6.640
     NAG   H62  3805   4.928   1.922   6.601
     NAG    O6  3806   4.722   1.960   6.591
     NAG   HO6  3807   4.673   2.040   6.613
     NAM    C1  3808   4.719   2.737   6.323
     NAM    H1  3809   4.652   2.705   6.240
     NAM    C5  3810   4.868   2.567   6.252
     NAM    H5  3811   4.797   2.559   6.167
     NAM    O5  3812   4.857   2.700   6.302
     NAM    C2  3813   4.691   2.651   6.442
     NAM    H2  3814   4.764   2.677   6.521
     NAM    NC  3815   4.557   2.660   6.480
     NAM    HN  3816   4.494   2.621   6.413
     NAM    CM  3817   4.509   2.735   6.585
     NAM    OM  3818   4.569   2.805   6.669
     NAM    CC  3819   4.367   2.744   6.578
     NAM   HC1  3820   4.334   2.780   6.478
     NAM   HC2  3821   4.313   2.655   6.615
     NAM   HC3  3822   4.332   2.828   6.642
     NAM    C3  3823   4.691   2.499   6.410
     NAM    H3  3824   4.604   2.481   6.343
     NAM    O3  3825   4.654   2.427   6.521
     NAM    CA  3826   4.745   2.394   6.622
     NAM    HA  3827   4.805   2.307   6.597
     NAM     C  3828   4.650   2.338   6.716
     NAM     O  3829   4.641   2.218   6.742
     NAM    CB  3830   4.840   2.487   6.696
     NAM   HB1  3831   4.866   2.429   6.788
     NAM   HB2  3832   4.786   2.580   6.724
     NAM   HB3  3833   4.921   2.509   6.625
     NAM    C4  3834   4.818   2.457   6.342
     NAM    H4  3835   4.902   2.435   6.412
     NAM    O4  3836   4.783   2.340   6.272
     NAM    C6  3837   5.007   2.529   6.200
     NAM   H61  3838   5.003   2.428   6.155
     NAM   H62  3839   5.081   2.539   6.282
     NAM    O6  3840   5.041   2.624   6.099
     NAM   HO6  3841   5.014   2.713   6.123
     ALA     N  3842   4.570   2.420   6.777
     ALA    HN  3843   4.560   2.516   6.752
     ALA    CA  3844   4.491   2.397   6.895
     ALA    HA  3845   4.415   2.327   6.865
     ALA    CB  3846   4.428   2.526   6.926
     ALA   HB1  3847   4.363   2.557   6.842
     ALA   HB2  3848   4.502   2.609   6.930
     ALA   HB3  3849   4.372   2.524   7.022
     ALA     C  3850   4.572   2.321   7.012
     ALA     O  3851   4.695   2.329   7.027
     GLN     N  3852   4.500   2.250   7.102
     GLN    HN  3853   4.551   2.209   7.178
     GLN    CA  3854   4.356   2.211   7.094
     GLN    HA  3855   4.319   2.303   7.053
     GLN    CD  3856   4.331   2.095   6.996
     GLN   OE1  3857   4.258   2.104   6.892
     GLN   NE2  3858   4.395   1.978   7.029
     GLN  HE21  3859   4.371   1.895   6.980
     GLN  HE22  3860   4.456   1.983   7.109
     GLN    CB  3861   4.282   2.187   7.225
     GLN   HB1  3862   4.310   2.280   7.281
     GLN   HB2  3863   4.331   2.110   7.288
     GLN    CG  3864   4.129   2.168   7.214
     GLN   HG1  3865   4.088   2.172   7.317
     GLN   HG2  3866   4.106   2.075   7.157
     GLN     C  3867   4.062   2.281   7.135
     GLN     O  3868   4.032   2.260   7.017
     LYS     N  3869   4.035   2.401   7.198
     LYS    HN  3870   4.003   2.471   7.134
     LYS    CA  3871   4.047   2.442   7.338
     LYS    HA  3872   4.029   2.355   7.399
     LYS    CB  3873   3.924   2.535   7.361
     LYS   HB1  3874   3.943   2.587   7.457
     LYS   HB2  3875   3.919   2.618   7.287
     LYS    CG  3876   3.786   2.471   7.380
     LYS   HG1  3877   3.773   2.480   7.490
     LYS   HG2  3878   3.714   2.539   7.328
     LYS    CD  3879   3.766   2.316   7.346
     LYS   HD1  3880   3.766   2.311   7.235
     LYS   HD2  3881   3.850   2.258   7.390
     LYS    CE  3882   3.634   2.254   7.399
     LYS   HE1  3883   3.604   2.300   7.496
     LYS   HE2  3884   3.557   2.267   7.321
     LYS    NZ  3885   3.645   2.109   7.417
     LYS   HZ1  3886   3.717   2.096   7.491
     LYS     C  3887   4.171   2.509   7.392
     LYS     O  3888   4.239   2.583   7.319
     GLY     C  3889   4.838   2.154   7.781
     GLY     O  3890   4.937   2.103   7.832
     GLY    CA  3891   4.841   2.229   7.648
     GLY   HA1  3892   4.930   2.200   7.591
     GLY   HA2  3893   4.842   2.337   7.666
     GLY     N  3894   4.723   2.196   7.570
     GLY    HN  3895   4.657   2.131   7.610
     GLY     C  3896   4.700   2.069   7.534
     GLY     O  3897   4.782   1.986   7.571
     GLY    CA  3898   4.576   2.035   7.452
     GLY   HA1  3899   4.553   1.928   7.463
     GLY   HA2  3900   4.593   2.058   7.347
     GLY     N  3901   4.463   2.112   7.499
     GLY    HN  3902   4.478   2.176   7.577
     GLY     C  3903   4.421   2.099   7.626
     GLY     O  3904   4.484   2.021   7.697
     GLY    CA  3905   4.302   2.180   7.675
     GLY   HA1  3906   4.304   2.187   7.785
     GLY   HA2  3907   4.209   2.133   7.643
     GLY     N  3908   4.307   2.314   7.621
     GLY    HN  3909   4.385   2.338   7.560
     GLY     C  3910   4.412   2.393   7.647
     GLY     O  3911   4.500   2.345   7.718
     GLY    CA  3912   4.418   2.535   7.590
     GLY   HA1  3913   4.521   2.570   7.590
     GLY   HA2  3914   4.356   2.602   7.650
     GLY     N  3915   4.368   2.535   7.454
     GLY    HN  3916   4.338   2.446   7.415
     GLY     C  3917   4.429   2.460   7.360
     GLY     O  3918   4.526   2.394   7.397
     GLY    CA  3919   4.377   2.460   7.217
     GLY   HA1  3920   4.412   2.370   7.165
     GLY   HA2  3921   4.412   2.549   7.165
     GLY     N  3922   4.232   2.460   7.217
     GLY    HN  3923   4.181   2.468   7.129
     DAL     N  3924   4.202   2.490   7.522
     DAL    HN  3925   4.286   2.534   7.551
     DAL    CA  3926   4.129   2.427   7.628
     DAL    HA  3927   4.025   2.454   7.635
     DAL    CB  3928   4.190   2.466   7.766
     DAL   HB1  3929   4.129   2.411   7.842
     DAL   HB2  3930   4.299   2.447   7.775
     DAL   HB3  3931   4.177   2.575   7.780
     DAL     C  3932   4.158   2.273   7.614
     DAL     O  3933   4.260   2.239   7.557
     DAL     N  3934   4.071   2.183   7.668
     DAL    HN  3935   4.082   2.085   7.659
     DAL    CA  3936   3.970   2.214   7.761
     DAL    HA  3937   3.960   2.321   7.775
     DAL    CB  3938   3.999   2.148   7.899
     DAL   HB1  3939   3.923   2.175   7.975
     DAL   HB2  3940   3.990   2.040   7.876
     DAL   HB3  3941   4.106   2.168   7.921
     DAL     C  3942   3.829   2.170   7.709
     DAL   OC1  3943   3.728   2.201   7.779
     DAL   OC2  3944   3.823   2.091   7.608
     NAG    C1  3945   4.759   3.260   6.241
     NAG    H1  3946   4.799   3.268   6.344
     NAG    C5  3947   4.627   3.075   6.316
     NAG    H5  3948   4.661   3.110   6.415
     NAG    O5  3949   4.632   3.190   6.233
     NAG    C2  3950   4.854   3.165   6.176
     NAG    H2  3951   4.815   3.145   6.074
     NAG    NC  3952   4.991   3.208   6.183
     NAG    HN  3953   5.033   3.254   6.261
     NAG    CM  3954   5.089   3.184   6.097
     NAG    OM  3955   5.072   3.135   5.984
     NAG    CC  3956   5.225   3.228   6.143
     NAG   HC1  3957   5.220   3.278   6.242
     NAG   HC2  3958   5.293   3.142   6.153
     NAG   HC3  3959   5.276   3.293   6.068
     NAG    C3  3960   4.857   3.024   6.238
     NAG    H3  3961   4.911   3.037   6.334
     NAG    O3  3962   4.941   2.932   6.165
     NAG   HO3  3963   4.922   2.933   6.070
     NAG    C4  3964   4.717   2.969   6.258
     NAG    H4  3965   4.678   2.928   6.162
     NAG    O4  3966   4.709   2.873   6.360
     NAG    C6  3967   4.484   3.030   6.333
     NAG   H61  3968   4.425   3.108   6.384
     NAG   H62  3969   4.480   2.945   6.404
     NAG    O6  3970   4.423   2.984   6.210
     NAG   HO6  3971   4.338   2.944   6.227
     NAM    C1  3972   4.717   3.778   6.279
     NAM    H1  3973   4.640   3.778   6.198
     NAM    C5  3974   4.836   3.607   6.158
     NAM    H5  3975   4.781   3.611   6.061
     NAM    O5  3976   4.845   3.726   6.239
     NAM    C2  3977   4.651   3.676   6.384
     NAM    H2  3978   4.721   3.670   6.470
     NAM    NC  3979   4.515   3.700   6.434
     NAM    HN  3980   4.446   3.631   6.411
     NAM    CM  3981   4.476   3.790   6.527
     NAM    OM  3982   4.563   3.867   6.576
     NAM    CC  3983   4.327   3.790   6.527
     NAM   HC1  3984   4.296   3.715   6.602
     NAM   HC2  3985   4.293   3.890   6.563
     NAM   HC3  3986   4.286   3.760   6.428
     NAM    C3  3987   4.643   3.537   6.322
     NAM    H3  3988   4.579   3.557   6.234
     NAM    O3  3989   4.575   3.432   6.407
     NAM    CA  3990   4.622   3.410   6.547
     NAM    HA  3991   4.604   3.306   6.522
     NAM     C  3992   4.513   3.445   6.642
     NAM     O  3993   4.401   3.446   6.612
     NAM    CB  3994   4.768   3.410   6.596
     NAM   HB1  3995   4.778   3.354   6.691
     NAM   HB2  3996   4.817   3.510   6.601
     NAM   HB3  3997   4.833   3.348   6.532
     NAM    C4  3998   4.776   3.504   6.260
     NAM    H4  3999   4.854   3.494   6.338
     NAM    O4  4000   4.766   3.384   6.177
     NAM    C6  4001   4.973   3.564   6.114
     NAM   H61  4002   4.975   3.463   6.068
     NAM   H62  4003   5.046   3.554   6.197
     NAM    O6  4004   5.027   3.645   6.014
     NAM   HO6  4005   4.999   3.736   6.024
     ALA     N  4006   4.546   3.482   6.765
     ALA    HN  4007   4.639   3.504   6.791
     ALA    CA  4008   4.451   3.503   6.881
     ALA    HA  4009   4.382   3.583   6.858
     ALA    CB  4010   4.536   3.575   6.991
     ALA   HB1  4011   4.487   3.613   7.083
     ALA   HB2  4012   4.578   3.660   6.934
     ALA   HB3  4013   4.617   3.506   7.023
     ALA     C  4014   4.380   3.376   6.935
     ALA     O  4015   4.430   3.263   6.927
     GLN     N  4016   4.256   3.394   6.993
     GLN    HN  4017   4.215   3.307   7.021
     GLN    CA  4018   4.182   3.520   7.005
     GLN    HA  4019   4.255   3.597   7.026
     GLN    CD  4020   4.133   3.573   6.867
     GLN   OE1  4021   4.169   3.690   6.842
     GLN   NE2  4022   4.051   3.497   6.788
     GLN  HE21  4023   4.024   3.538   6.701
     GLN  HE22  4024   4.007   3.413   6.817
     GLN    CB  4025   4.062   3.497   7.099
     GLN   HB1  4026   4.000   3.412   7.063
     GLN   HB2  4027   4.000   3.589   7.109
     GLN    CG  4028   4.116   3.467   7.246
     GLN   HG1  4029   4.208   3.523   7.269
     GLN   HG2  4030   4.157   3.364   7.253
     GLN     C  4031   4.003   3.501   7.337
     GLN     O  4032   4.001   3.598   7.419
     LYS     N  4033   3.897   3.420   7.343
     LYS    HN  4034   3.814   3.464   7.377
     LYS    CA  4035   3.890   3.278   7.309
     LYS    HA  4036   3.905   3.270   7.203
     LYS    CB  4037   3.753   3.213   7.348
     LYS   HB1  4038   3.756   3.109   7.307
     LYS   HB2  4039   3.733   3.205   7.457
     LYS    CG  4040   3.632   3.294   7.309
     LYS   HG1  4041   3.636   3.390   7.365
     LYS   HG2  4042   3.631   3.315   7.200
     LYS    CD  4043   3.503   3.217   7.340
     LYS   HD1  4044   3.482   3.139   7.263
     LYS   HD2  4045   3.506   3.177   7.444
     LYS    CE  4046   3.373   3.299   7.337
     LYS   HE1  4047   3.279   3.243   7.357
     LYS   HE2  4048   3.381   3.380   7.412
     LYS    NZ  4049   3.354   3.356   7.200
     LYS   HZ1  4050   3.356   3.284   7.125
     LYS     C  4051   3.996   3.194   7.385
     LYS     O  4052   4.042   3.239   7.488
     GLY     C  4053   4.807   3.492   8.183
     GLY     O  4054   4.906   3.441   8.234
     GLY    CA  4055   4.810   3.567   8.050
     GLY   HA1  4056   4.899   3.538   7.993
     GLY   HA2  4057   4.811   3.675   8.068
     GLY     N  4058   4.692   3.534   7.972
     GLY    HN  4059   4.626   3.469   8.012
     GLY     C  4060   4.669   3.407   7.936
     GLY     O  4061   4.751   3.324   7.973
     GLY    CA  4062   4.545   3.373   7.854
     GLY   HA1  4063   4.522   3.266   7.865
     GLY   HA2  4064   4.562   3.396   7.749
     GLY     N  4065   4.432   3.450   7.901
     GLY    HN  4066   4.447   3.514   7.979
     GLY     C  4067   4.390   3.437   8.028
     GLY     O  4068   4.453   3.359   8.099
     GLY    CA  4069   4.271   3.518   8.077
     GLY   HA1  4070   4.273   3.525   8.187
     GLY   HA2  4071   4.178   3.471   8.045
     GLY     N  4072   4.276   3.652   8.023
     GLY    HN  4073   4.354   3.676   7.962
     GLY     C  4074   4.381   3.731   8.049
     GLY     O  4075   4.469   3.683   8.120
     GLY    CA  4076   4.387   3.873   7.992
     GLY   HA1  4077   4.490   3.908   7.992
     GLY   HA2  4078   4.325   3.940   8.052
     GLY     N  4079   4.337   3.873   7.856
     GLY    HN  4080   4.307   3.784   7.817
     GLY     C  4081   4.398   3.798   7.762
     GLY     O  4082   4.495   3.732   7.799
     GLY    CA  4083   4.346   3.798   7.619
     GLY   HA1  4084   4.381   3.708   7.567
     GLY   HA2  4085   4.381   3.887   7.567
     GLY     N  4086   4.201   3.798   7.619
     GLY    HN  4087   4.150   3.806   7.531
     DAL     N  4088   4.046   3.073   7.340
     DAL    HN  4089   4.111   3.039   7.407
     DAL    CA  4090   4.011   2.995   7.220
     DAL    HA  4091   3.905   2.972   7.222
     DAL    CB  4092   4.098   2.874   7.222
     DAL   HB1  4093   4.060   2.809   7.303
     DAL   HB2  4094   4.109   2.807   7.134
     DAL   HB3  4095   4.199   2.912   7.250
     DAL     C  4096   4.025   3.073   7.088
     DAL     O  4097   4.113   3.154   7.069
     DAL     N  4098   3.931   3.055   6.990
     DAL    HN  4099   3.953   3.083   6.897
     DAL    CA  4100   3.802   2.980   6.999
     DAL    HA  4101   3.735   3.024   7.072
     DAL    CB  4102   3.815   2.827   7.014
     DAL   HB1  4103   3.882   2.797   6.931
     DAL   HB2  4104   3.867   2.806   7.110
     DAL   HB3  4105   3.719   2.772   7.003
     DAL     C  4106   3.726   3.005   6.868
     DAL   OC1  4107   3.658   3.111   6.853
     DAL   OC2  4108   3.712   2.912   6.784
     NAG    C1  4109   4.759   4.313   6.307
     NAG    H1  4110   4.770   4.317   6.418
     NAG    C5  4111   4.628   4.112   6.305
     NAG    H5  4112   4.625   4.114   6.416
     NAG    O5  4113   4.644   4.249   6.255
     NAG    C2  4114   4.882   4.228   6.254
     NAG    H2  4115   4.877   4.229   6.143
     NAG    NC  4116   5.002   4.291   6.304
     NAG    HN  4117   5.006   4.358   6.378
     NAG    CM  4118   5.125   4.260   6.255
     NAG    OM  4119   5.154   4.173   6.174
     NAG    CC  4120   5.237   4.350   6.297
     NAG   HC1  4121   5.228   4.353   6.408
     NAG   HC2  4122   5.336   4.318   6.260
     NAG   HC3  4123   5.220   4.455   6.264
     NAG    C3  4124   4.868   4.076   6.297
     NAG    H3  4125   4.873   4.069   6.408
     NAG    O3  4126   4.970   3.996   6.243
     NAG   HO3  4127   5.050   4.047   6.228
     NAG    C4  4128   4.733   4.017   6.258
     NAG    H4  4129   4.722   3.993   6.150
     NAG    O4  4130   4.719   3.904   6.340
     NAG    C6  4131   4.493   4.070   6.257
     NAG   H61  4132   4.414   4.139   6.294
     NAG   H62  4133   4.479   3.966   6.293
     NAG    O6  4134   4.490   4.061   6.111
     NAG   HO6  4135   4.476   4.147   6.071
     NAM    C1  4136   4.699   4.844   6.252
     NAM    H1  4137   4.728   4.850   6.145
     NAM    C5  4138   4.841   4.664   6.271
     NAM    H5  4139   4.838   4.669   6.160
     NAM    O5  4140   4.806   4.784   6.330
     NAM    C2  4141   4.579   4.746   6.268
     NAM    H2  4142   4.552   4.762   6.374
     NAM    NC  4143   4.463   4.782   6.191
     NAM    HN  4144   4.456   4.713   6.119
     NAM    CM  4145   4.346   4.848   6.209
     NAM    OM  4146   4.312   4.898   6.316
     NAM    CC  4147   4.259   4.872   6.085
     NAM   HC1  4148   4.325   4.892   5.998
     NAM   HC2  4149   4.192   4.784   6.074
     NAM   HC3  4150   4.195   4.963   6.093
     NAM    C3  4151   4.616   4.604   6.251
     NAM    H3  4152   4.631   4.596   6.141
     NAM    O3  4153   4.509   4.508   6.277
     NAM    CA  4154   4.464   4.479   6.410
     NAM    HA  4155   4.512   4.384   6.428
     NAM     C  4156   4.319   4.437   6.388
     NAM     O  4157   4.247   4.464   6.290
     NAM    CB  4158   4.471   4.574   6.528
     NAM   HB1  4159   4.396   4.655   6.516
     NAM   HB2  4160   4.576   4.605   6.548
     NAM   HB3  4161   4.440   4.519   6.619
     NAM    C4  4162   4.745   4.562   6.315
     NAM    H4  4163   4.739   4.557   6.426
     NAM    O4  4164   4.781   4.436   6.248
     NAM    C6  4165   4.981   4.630   6.319
     NAM   H61  4166   5.034   4.727   6.316
     NAM   H62  4167   5.018   4.556   6.244
     NAM    O6  4168   4.988   4.576   6.451
     NAM   HO6  4169   4.989   4.656   6.504
     ALA     N  4170   4.272   4.367   6.494
     ALA    HN  4171   4.333   4.322   6.559
     ALA    CA  4172   4.129   4.324   6.510
     ALA    HA  4173   4.087   4.417   6.546
     ALA    CB  4174   4.112   4.229   6.628
     ALA   HB1  4175   4.150   4.128   6.599
     ALA   HB2  4176   4.008   4.219   6.665
     ALA   HB3  4177   4.161   4.262   6.723
     ALA     C  4178   4.060   4.275   6.380
     ALA     O  4179   4.115   4.199   6.301
     GLN     N  4180   3.928   4.313   6.363
     GLN    HN  4181   3.887   4.263   6.287
     GLN    CA  4182   3.850   4.394   6.459
     GLN    HA  4183   3.875   4.348   6.554
     GLN    CD  4184   3.889   4.547   6.482
     GLN   OE1  4185   3.964   4.607   6.406
     GLN   NE2  4186   3.833   4.610   6.590
     GLN  HE21  4187   3.761   4.578   6.651
     GLN  HE22  4188   3.857   4.706   6.606
     GLN    CB  4189   3.702   4.391   6.429
     GLN   HB1  4190   3.688   4.458   6.342
     GLN   HB2  4191   3.653   4.450   6.510
     GLN    CG  4192   3.645   4.245   6.428
     GLN   HG1  4193   3.683   4.187   6.515
     GLN   HG2  4194   3.685   4.191   6.339
     GLN     C  4195   3.501   4.248   6.418
     GLN     O  4196   3.440   4.291   6.318
     LYS     N  4197   3.425   4.217   6.526
     LYS    HN  4198   3.328   4.217   6.504
     LYS    CA  4199   3.478   4.180   6.656
     LYS    HA  4200   3.552   4.104   6.634
     LYS    CB  4201   3.386   4.090   6.733
     LYS   HB1  4202   3.441   4.049   6.820
     LYS   HB2  4203   3.304   4.161   6.760
     LYS    CG  4204   3.338   3.967   6.652
     LYS   HG1  4205   3.262   3.909   6.709
     LYS   HG2  4206   3.275   4.008   6.570
     LYS    CD  4207   3.445   3.884   6.585
     LYS   HD1  4208   3.501   3.953   6.519
     LYS   HD2  4209   3.505   3.847   6.671
     LYS    CE  4210   3.392   3.759   6.516
     LYS   HE1  4211   3.351   3.687   6.590
     LYS   HE2  4212   3.317   3.796   6.443
     LYS    NZ  4213   3.486   3.688   6.427
     LYS   HZ1  4214   3.448   3.605   6.377
     LYS     C  4215   3.547   4.295   6.732
     LYS     O  4216   3.529   4.410   6.693
     GLY     C  4217   4.246   4.185   7.082
     GLY     O  4218   4.345   4.134   7.133
     GLY    CA  4219   4.249   4.260   6.949
     GLY   HA1  4220   4.338   4.231   6.892
     GLY   HA2  4221   4.250   4.368   6.967
     GLY     N  4222   4.131   4.227   6.871
     GLY    HN  4223   4.065   4.162   6.911
     GLY     C  4224   4.108   4.100   6.835
     GLY     O  4225   4.190   4.017   6.872
     GLY    CA  4226   3.984   4.066   6.753
     GLY   HA1  4227   3.961   3.959   6.764
     GLY   HA2  4228   4.001   4.089   6.648
     GLY     N  4229   3.871   4.143   6.800
     GLY    HN  4230   3.886   4.207   6.878
     GLY     C  4231   3.829   4.130   6.927
     GLY     O  4232   3.892   4.052   6.998
     GLY    CA  4233   3.710   4.211   6.976
     GLY   HA1  4234   3.712   4.218   7.086
     GLY   HA2  4235   3.617   4.164   6.944
     GLY     N  4236   3.715   4.345   6.922
     GLY    HN  4237   3.793   4.369   6.861
     GLY     C  4238   3.820   4.424   6.948
     GLY     O  4239   3.908   4.376   7.019
     GLY    CA  4240   3.826   4.566   6.891
     GLY   HA1  4241   3.929   4.601   6.891
     GLY   HA2  4242   3.764   4.633   6.951
     GLY     N  4243   3.776   4.566   6.755
     GLY    HN  4244   3.746   4.477   6.716
     GLY     C  4245   3.837   4.491   6.661
     GLY     O  4246   3.934   4.425   6.698
     GLY    CA  4247   3.785   4.491   6.518
     GLY   HA1  4248   3.820   4.401   6.466
     GLY   HA2  4249   3.820   4.580   6.466
     GLY     N  4250   3.640   4.491   6.518
     GLY   HN1  4251   3.589   4.499   6.430
     GLY   HN2  4252   3.570   4.489   6.608
     GLY   HN3  4253   3.555   4.541   6.508
     DAL     N  4254   3.622   4.275   6.839
     DAL    HN  4255   3.665   4.360   6.870
     DAL    CA  4256   3.678   4.152   6.886
     DAL    HA  4257   3.598   4.088   6.919
     DAL    CB  4258   3.775   4.195   7.003
     DAL   HB1  4259   3.828   4.114   7.057
     DAL   HB2  4260   3.866   4.252   6.973
     DAL   HB3  4261   3.729   4.264   7.077
     DAL     C  4262   3.758   4.066   6.788
     DAL     O  4263   3.808   4.096   6.681
     DAL     N  4264   3.771   3.938   6.815
     DAL    HN  4265   3.824   3.887   6.747
     DAL    CA  4266   3.736   3.861   6.934
     DAL    HA  4267   3.713   3.929   7.014
     DAL    CB  4268   3.855   3.794   6.994
     DAL   HB1  4269   3.936   3.870   6.998
     DAL   HB2  4270   3.841   3.772   7.102
     DAL   HB3  4271   3.888   3.701   6.943
     DAL     C  4272   3.624   3.762   6.915
     DAL   OC1  4273   3.521   3.775   6.989
     DAL   OC2  4274   3.646   3.662   6.839
     NAG    C1  4275   4.775   5.370   6.303
     NAG    H1  4276   4.701   5.408   6.377
     NAG    C5  4277   4.639   5.205   6.218
     NAG    H5  4278   4.572   5.231   6.303
     NAG    O5  4279   4.716   5.319   6.185
     NAG    C2  4280   4.868   5.272   6.362
     NAG    H2  4281   4.956   5.259   6.294
     NAG    NC  4282   4.924   5.326   6.485
     NAG    HN  4283   4.867   5.328   6.568
     NAG    CM  4284   5.048   5.359   6.523
     NAG    OM  4285   5.152   5.315   6.479
     NAG    CC  4286   5.038   5.461   6.626
     NAG   HC1  4287   5.032   5.556   6.569
     NAG   HC2  4288   4.954   5.429   6.691
     NAG   HC3  4289   5.121   5.474   6.699
     NAG    C3  4290   4.806   5.133   6.383
     NAG    H3  4291   4.733   5.142   6.466
     NAG    O3  4292   4.906   5.037   6.427
     NAG   HO3  4293   4.867   4.958   6.466
     NAG    C4  4294   4.737   5.093   6.263
     NAG    H4  4295   4.821   5.079   6.191
     NAG    O4  4296   4.664   4.969   6.304
     NAG    C6  4297   4.554   5.172   6.099
     NAG   H61  4298   4.497   5.077   6.113
     NAG   H62  4299   4.613   5.170   6.005
     NAG    O6  4300   4.454   5.265   6.081
     NAG   HO6  4301   4.468   5.298   5.992
     NAM    C1  4302   4.806   5.878   6.160
     NAM    H1  4303   4.909   5.905   6.189
     NAM    C5  4304   4.810   5.705   6.327
     NAM    H5  4305   4.915   5.736   6.345
     NAM    O5  4306   4.743   5.819   6.273
     NAM    C2  4307   4.798   5.780   6.049
     NAM    H2  4308   4.690   5.753   6.041
     NAM    NC  4309   4.853   5.851   5.934
     NAM    HN  4310   4.938   5.814   5.897
     NAM    CM  4311   4.791   5.927   5.842
     NAM    OM  4312   4.669   5.920   5.829
     NAM    CC  4313   4.886   6.013   5.758
     NAM   HC1  4314   4.835   6.094   5.701
     NAM   HC2  4315   4.971   6.057   5.815
     NAM   HC3  4316   4.929   5.949   5.678
     NAM    C3  4317   4.867   5.650   6.094
     NAM    H3  4318   4.969   5.678   6.129
     NAM    O3  4319   4.886   5.556   5.987
     NAM    CA  4320   4.777   5.493   5.926
     NAM    HA  4321   4.688   5.515   5.982
     NAM     C  4322   4.809   5.353   5.908
     NAM     O  4323   4.727   5.286   5.837
     NAM    CB  4324   4.763   5.560   5.787
     NAM   HB1  4325   4.679   5.527   5.723
     NAM   HB2  4326   4.864   5.555   5.740
     NAM   HB3  4327   4.732   5.666   5.800
     NAM    C4  4328   4.805   5.591   6.216
     NAM    H4  4329   4.698   5.577   6.190
     NAM    O4  4330   4.866   5.471   6.266
     NAM    C6  4331   4.758   5.661   6.462
     NAM   H61  4332   4.768   5.737   6.541
     NAM   H62  4333   4.806   5.565   6.493
     NAM    O6  4334   4.611   5.637   6.459
     NAM   HO6  4335   4.589   5.642   6.366
     ALA     N  4336   4.934   5.304   5.947
     ALA    HN  4337   5.001   5.365   5.989
     ALA    CA  4338   4.976   5.168   5.914
     ALA    HA  4339   4.903   5.112   5.970
     ALA    CB  4340   5.120   5.149   5.973
     ALA   HB1  4341   5.194   5.215   5.923
     ALA   HB2  4342   5.154   5.043   5.969
     ALA   HB3  4343   5.114   5.160   6.083
     ALA     C  4344   4.973   5.132   5.765
     ALA     O  4345   4.990   5.221   5.686
     GLN     N  4346   4.943   5.000   5.730
     GLN    HN  4347   4.926   4.984   5.633
     GLN    CA  4348   4.910   4.887   5.812
     GLN    HA  4349   4.910   4.801   5.746
     GLN    CD  4350   5.007   4.854   5.927
     GLN   OE1  4351   4.979   4.857   6.049
     GLN   NE2  4352   5.131   4.811   5.886
     GLN  HE21  4353   5.150   4.776   5.795
     GLN  HE22  4354   5.192   4.807   5.965
     GLN    CB  4355   4.762   4.901   5.854
     GLN   HB1  4356   4.752   4.990   5.919
     GLN   HB2  4357   4.718   4.817   5.911
     GLN    CG  4358   4.665   4.931   5.737
     GLN   HG1  4359   4.669   4.866   5.647
     GLN   HG2  4360   4.672   5.037   5.704
     GLN     C  4361   4.524   4.913   5.783
     GLN     O  4362   4.462   5.012   5.821
     LYS     N  4363   4.463   4.795   5.788
     LYS    HN  4364   4.366   4.789   5.809
     LYS    CA  4365   4.512   4.667   5.758
     LYS    HA  4366   4.618   4.675   5.744
     LYS    CB  4367   4.447   4.618   5.629
     LYS   HB1  4368   4.484   4.517   5.603
     LYS   HB2  4369   4.339   4.602   5.649
     LYS    CG  4370   4.451   4.700   5.502
     LYS   HG1  4371   4.406   4.801   5.515
     LYS   HG2  4372   4.553   4.722   5.463
     LYS    CD  4373   4.365   4.631   5.401
     LYS   HD1  4374   4.263   4.625   5.443
     LYS   HD2  4375   4.359   4.686   5.305
     LYS    CE  4376   4.405   4.489   5.355
     LYS   HE1  4377   4.407   4.416   5.438
     LYS   HE2  4378   4.331   4.456   5.278
     LYS    NZ  4379   4.533   4.477   5.288
     LYS   HZ1  4380   4.534   4.546   5.210
     LYS   HZ2  4381   4.547   4.382   5.247
     LYS   HZ3  4382   4.605   4.488   5.362
     LYS     C  4383   4.485   4.570   5.874
     LYS     O  4384   4.400   4.608   5.957
     DAL     N  4385   4.543   4.447   5.885
     DAL    HN  4386   4.510   4.386   5.958
     DAL    CA  4387   4.650   4.382   5.807
     DAL    HA  4388   4.610   4.374   5.707
     DAL    CB  4389   4.674   4.243   5.870
     DAL   HB1  4390   4.681   4.257   5.980
     DAL   HB2  4391   4.584   4.179   5.864
     DAL   HB3  4392   4.759   4.188   5.825
     DAL     C  4393   4.782   4.463   5.784
     DAL     O  4394   4.804   4.562   5.854
     NAG    C1  4395   4.713   6.394   6.252
     NAG    H1  4396   4.695   6.438   6.151
     NAG    C5  4397   4.847   6.217   6.160
     NAG    H5  4398   4.814   6.241   6.057
     NAG    O5  4399   4.834   6.330   6.252
     NAG    C2  4400   4.609   6.294   6.301
     NAG    H2  4401   4.624   6.278   6.410
     NAG    NC  4402   4.473   6.354   6.292
     NAG    HN  4403   4.443   6.350   6.197
     NAG    CM  4404   4.391   6.396   6.389
     NAG    OM  4405   4.425   6.386   6.508
     NAG    CC  4406   4.271   6.476   6.349
     NAG   HC1  4407   4.295   6.583   6.367
     NAG   HC2  4408   4.260   6.468   6.239
     NAG   HC3  4409   4.187   6.433   6.408
     NAG    C3  4410   4.609   6.166   6.223
     NAG    H3  4411   4.568   6.183   6.121
     NAG    O3  4412   4.528   6.065   6.289
     NAG   HO3  4413   4.581   5.986   6.303
     NAG    C4  4414   4.753   6.110   6.217
     NAG    H4  4415   4.798   6.080   6.314
     NAG    O4  4416   4.733   5.992   6.133
     NAG    C6  4417   4.994   6.184   6.154
     NAG   H61  4418   5.058   6.273   6.172
     NAG   H62  4419   5.027   6.134   6.060
     NAG    O6  4420   5.037   6.091   6.259
     NAG   HO6  4421   5.048   6.141   6.340
     NAM    C1  4422   4.833   6.892   6.371
     NAM    H1  4423   4.753   6.911   6.445
     NAM    C5  4424   4.700   6.721   6.261
     NAM    H5  4425   4.622   6.757   6.333
     NAM    O5  4426   4.794   6.831   6.246
     NAM    C2  4427   4.924   6.779   6.439
     NAM    H2  4428   5.011   6.765   6.372
     NAM    NC  4429   4.956   6.800   6.570
     NAM    HN  4430   4.914   6.737   6.635
     NAM    CM  4431   5.045   6.892   6.627
     NAM    OM  4432   5.137   6.942   6.560
     NAM    CC  4433   5.035   6.921   6.768
     NAM   HC1  4434   5.135   6.932   6.815
     NAM   HC2  4435   4.973   7.013   6.781
     NAM   HC3  4436   4.984   6.838   6.821
     NAM    C3  4437   4.849   6.652   6.452
     NAM    H3  4438   4.767   6.685   6.519
     NAM    O3  4439   4.917   6.553   6.536
     NAM    CA  4440   5.038   6.494   6.483
     NAM    HA  4441   5.022   6.514   6.378
     NAM     C  4442   5.041   6.339   6.517
     NAM     O  4443   5.122   6.265   6.461
     NAM    CB  4444   5.167   6.555   6.528
     NAM   HB1  4445   5.174   6.549   6.639
     NAM   HB2  4446   5.174   6.663   6.504
     NAM   HB3  4447   5.256   6.503   6.488
     NAM    C4  4448   4.788   6.602   6.320
     NAM    H4  4449   4.867   6.569   6.249
     NAM    O4  4450   4.707   6.494   6.352
     NAM    C6  4451   4.622   6.688   6.137
     NAM   H61  4452   4.535   6.624   6.166
     NAM   H62  4453   4.691   6.636   6.067
     NAM    O6  4454   4.571   6.811   6.081
     NAM   HO6  4455   4.479   6.808   6.107
     ALA     N  4456   4.966   6.301   6.615
     ALA    HN  4457   4.910   6.375   6.649
     ALA    CA  4458   4.948   6.160   6.664
     ALA    HA  4459   5.026   6.098   6.624
     ALA    CB  4460   4.799   6.117   6.624
     ALA   HB1  4461   4.725   6.162   6.693
     ALA   HB2  4462   4.788   6.007   6.633
     ALA   HB3  4463   4.774   6.146   6.520
     ALA     C  4464   4.977   6.176   6.815
     ALA     O  4465   4.992   6.281   6.871
     GLN     N  4466   4.998   6.066   6.892
     GLN    HN  4467   5.026   6.089   6.985
     GLN    CA  4468   4.984   5.928   6.857
     GLN    HA  4469   4.894   5.917   6.798
     GLN    CD  4470   5.103   5.864   6.782
     GLN   OE1  4471   5.087   5.835   6.663
     GLN   NE2  4472   5.231   5.863   6.831
     GLN  HE21  4473   5.308   5.823   6.782
     GLN  HE22  4474   5.251   5.915   6.915
     GLN    CB  4475   4.956   5.860   6.992
     GLN   HB1  4476   4.900   5.930   7.057
     GLN   HB2  4477   5.049   5.859   7.053
     GLN    CG  4478   4.898   5.713   6.997
     GLN   HG1  4479   4.968   5.651   6.937
     GLN   HG2  4480   4.803   5.718   6.939
     GLN     C  4481   4.879   5.654   7.131
     GLN     O  4482   4.976   5.601   7.180
     LYS     N  4483   4.768   5.677   7.197
     LYS    HN  4484   4.770   5.636   7.287
     LYS    CA  4485   4.644   5.731   7.150
     LYS    HA  4486   4.679   5.818   7.095
     LYS    CB  4487   4.556   5.751   7.277
     LYS   HB1  4488   4.476   5.822   7.248
     LYS   HB2  4489   4.514   5.653   7.309
     LYS    CG  4490   4.630   5.833   7.394
     LYS   HG1  4491   4.555   5.851   7.473
     LYS   HG2  4492   4.714   5.780   7.443
     LYS    CD  4493   4.665   5.979   7.352
     LYS   HD1  4494   4.761   5.988   7.296
     LYS   HD2  4495   4.591   6.028   7.286
     LYS    CE  4496   4.691   6.082   7.465
     LYS   HE1  4497   4.602   6.098   7.530
     LYS   HE2  4498   4.766   6.040   7.536
     LYS    NZ  4499   4.744   6.208   7.428
     LYS   HZ1  4500   4.696   6.288   7.474
     LYS     C  4501   4.555   5.667   7.038
     LYS     O  4502   4.557   5.546   7.007
     GLY     C  4503   5.782   5.495   7.944
     GLY     O  4504   5.881   5.444   7.995
     GLY    CA  4505   5.785   5.570   7.811
     GLY   HA1  4506   5.874   5.541   7.754
     GLY   HA2  4507   5.786   5.678   7.829
     GLY     N  4508   5.667   5.537   7.733
     GLY    HN  4509   5.601   5.472   7.773
     GLY     C  4510   5.644   5.410   7.697
     GLY     O  4511   5.726   5.327   7.734
     GLY    CA  4512   5.520   5.376   7.615
     GLY   HA1  4513   5.497   5.269   7.626
     GLY   HA2  4514   5.537   5.399   7.510
     GLY     N  4515   5.407   5.453   7.662
     GLY    HN  4516   5.422   5.517   7.740
     GLY     C  4517   5.365   5.440   7.789
     GLY     O  4518   5.428   5.362   7.860
     GLY    CA  4519   5.246   5.521   7.838
     GLY   HA1  4520   5.248   5.528   7.948
     GLY   HA2  4521   5.153   5.474   7.806
     GLY     N  4522   5.251   5.655   7.784
     GLY    HN  4523   5.329   5.679   7.723
     GLY     C  4524   5.356   5.734   7.810
     GLY     O  4525   5.444   5.686   7.881
     GLY    CA  4526   5.362   5.876   7.753
     GLY   HA1  4527   5.465   5.911   7.753
     GLY   HA2  4528   5.300   5.943   7.813
     GLY     N  4529   5.312   5.876   7.617
     GLY    HN  4530   5.282   5.787   7.578
     GLY     C  4531   5.373   5.801   7.523
     GLY     O  4532   5.470   5.735   7.560
     GLY    CA  4533   5.321   5.801   7.380
     GLY   HA1  4534   5.356   5.711   7.328
     GLY   HA2  4535   5.356   5.890   7.328
     GLY     N  4536   5.176   5.801   7.380
     GLY   HN1  4537   5.125   5.809   7.292
     GLY   HN2  4538   5.106   5.799   7.470
     GLY   HN3  4539   5.091   5.851   7.370
     DAL     N  4540   4.477   5.749   6.973
     DAL    HN  4541   4.411   5.699   6.918
     DAL    CA  4542   4.480   5.894   6.970
     DAL    HA  4543   4.491   5.935   7.070
     DAL    CB  4544   4.348   5.933   6.907
     DAL   HB1  4545   4.354   5.923   6.796
     DAL   HB2  4546   4.262   5.873   6.942
     DAL   HB3  4547   4.318   6.040   6.918
     DAL     C  4548   4.596   5.960   6.899
     DAL     O  4549   4.671   5.894   6.828
     DAL     N  4550   4.634   6.089   6.913
     DAL    HN  4551   4.724   6.110   6.876
     DAL    CA  4552   4.573   6.197   6.990
     DAL    HA  4553   4.467   6.182   7.008
     DAL    CB  4554   4.582   6.323   6.910
     DAL   HB1  4555   4.684   6.353   6.878
     DAL   HB2  4556   4.520   6.304   6.819
     DAL   HB3  4557   4.538   6.404   6.972
     DAL     C  4558   4.633   6.218   7.124
     DAL   OC1  4559   4.755   6.223   7.142
     DAL   OC2  4560   4.555   6.246   7.224
     NAG    C1  4561   4.834   7.416   6.260
     NAG    H1  4562   4.937   7.417   6.219
     NAG    C5  4563   4.898   7.241   6.407
     NAG    H5  4564   4.999   7.251   6.362
     NAG    O5  4565   4.825   7.364   6.394
     NAG    C2  4566   4.757   7.316   6.172
     NAG    H2  4567   4.656   7.315   6.219
     NAG    NC  4568   4.769   7.353   6.034
     NAG    HN  4569   4.855   7.340   5.984
     NAG    CM  4570   4.679   7.409   5.949
     NAG    OM  4571   4.559   7.421   5.977
     NAG    CC  4572   4.737   7.460   5.817
     NAG   HC1  4573   4.803   7.548   5.833
     NAG   HC2  4574   4.788   7.374   5.769
     NAG   HC3  4575   4.647   7.485   5.757
     NAG    C3  4576   4.825   7.181   6.177
     NAG    H3  4577   4.930   7.186   6.140
     NAG    O3  4578   4.755   7.084   6.095
     NAG   HO3  4579   4.780   6.999   6.132
     NAG    C4  4580   4.830   7.134   6.324
     NAG    H4  4581   4.726   7.124   6.361
     NAG    O4  4582   4.905   7.009   6.350
     NAG    C6  4583   4.913   7.219   6.559
     NAG   H61  4584   4.939   7.319   6.601
     NAG   H62  4585   5.003   7.155   6.567
     NAG    O6  4586   4.804   7.162   6.633
     NAG   HO6  4587   4.770   7.212   6.707
     NAM    C1  4588   4.803   7.957   6.337
     NAM    H1  4589   4.695   7.966   6.313
     NAM    C5  4590   4.831   7.764   6.184
     NAM    H5  4591   4.726   7.777   6.149
     NAM    O5  4592   4.883   7.892   6.230
     NAM    C2  4593   4.837   7.858   6.453
     NAM    H2  4594   4.947   7.850   6.464
     NAM    NC  4595   4.785   7.904   6.582
     NAM    HN  4596   4.690   7.878   6.598
     NAM    CM  4597   4.846   7.958   6.687
     NAM    OM  4598   4.960   7.997   6.699
     NAM    CC  4599   4.748   7.969   6.807
     NAM   HC1  4600   4.734   7.867   6.849
     NAM   HC2  4601   4.791   8.037   6.884
     NAM   HC3  4602   4.644   7.986   6.771
     NAM    C3  4603   4.782   7.718   6.424
     NAM    H3  4604   4.679   7.736   6.386
     NAM    O3  4605   4.775   7.631   6.536
     NAM    CA  4606   4.892   7.595   6.605
     NAM    HA  4607   4.846   7.498   6.596
     NAM     C  4608   4.897   7.620   6.756
     NAM     O  4609   4.815   7.571   6.834
     NAM    CB  4610   5.034   7.562   6.548
     NAM   HB1  4611   5.085   7.656   6.517
     NAM   HB2  4612   5.022   7.508   6.451
     NAM   HB3  4613   5.106   7.512   6.617
     NAM    C4  4614   4.832   7.660   6.293
     NAM    H4  4615   4.939   7.639   6.312
     NAM    O4  4616   4.765   7.543   6.236
     NAM    C6  4617   4.912   7.721   6.068
     NAM   H61  4618   4.910   7.805   5.995
     NAM   H62  4619   4.863   7.630   6.027
     NAM    O6  4620   5.048   7.687   6.102
     NAM   HO6  4621   5.099   7.768   6.097
     ALA     N  4622   4.991   7.705   6.803
     ALA    HN  4623   5.040   7.758   6.735
     ALA    CA  4624   5.018   7.726   6.946
     ALA    HA  4625   4.928   7.777   6.976
     ALA    CB  4626   5.133   7.821   6.965
     ALA   HB1  4627   5.167   7.850   7.067
     ALA   HB2  4628   5.119   7.916   6.909
     ALA   HB3  4629   5.228   7.778   6.927
     ALA     C  4630   5.048   7.583   7.023
     ALA     O  4631   5.131   7.499   6.975
     GLN     N  4632   4.996   7.563   7.144
     GLN    HN  4633   5.021   7.474   7.183
     GLN    CA  4634   4.877   7.634   7.200
     GLN    HA  4635   4.885   7.741   7.191
     GLN    CD  4636   4.739   7.596   7.140
     GLN   OE1  4637   4.657   7.684   7.113
     GLN   NE2  4638   4.702   7.464   7.119
     GLN  HE21  4639   4.610   7.439   7.091
     GLN  HE22  4640   4.765   7.396   7.155
     GLN    CB  4641   4.858   7.616   7.347
     GLN   HB1  4642   4.852   7.507   7.368
     GLN   HB2  4643   4.769   7.675   7.377
     GLN    CG  4644   4.977   7.665   7.435
     GLN   HG1  4645   4.994   7.774   7.422
     GLN   HG2  4646   5.079   7.624   7.422
     GLN     C  4647   4.928   7.670   7.581
     GLN     O  4648   4.853   7.765   7.619
     LYS     N  4649   4.969   7.577   7.663
     LYS    HN  4650   4.940   7.597   7.756
     LYS    CA  4651   5.055   7.458   7.639
     LYS    HA  4652   5.024   7.418   7.544
     LYS    CB  4653   5.018   7.359   7.754
     LYS   HB1  4654   5.067   7.264   7.726
     LYS   HB2  4655   5.051   7.396   7.854
     LYS    CG  4656   4.868   7.329   7.753
     LYS   HG1  4657   4.807   7.417   7.784
     LYS   HG2  4658   4.834   7.292   7.653
     LYS    CD  4659   4.817   7.225   7.853
     LYS   HD1  4660   4.841   7.270   7.951
     LYS   HD2  4661   4.707   7.212   7.842
     LYS    CE  4662   4.883   7.083   7.853
     LYS   HE1  4663   4.993   7.094   7.856
     LYS   HE2  4664   4.850   7.027   7.942
     LYS    NZ  4665   4.858   7.009   7.729
     LYS   HZ1  4666   4.930   7.030   7.657
     LYS   HZ2  4667   4.768   7.035   7.685
     LYS   HZ3  4668   4.863   6.907   7.748
     LYS     C  4669   5.207   7.483   7.641
     LYS     O  4670   5.246   7.576   7.708
     DAL     N  4671   5.298   7.385   7.601
     DAL    HN  4672   5.389   7.409   7.634
     DAL    CA  4673   5.287   7.270   7.509
     DAL    HA  4674   5.255   7.185   7.566
     DAL    CB  4675   5.432   7.238   7.463
     DAL   HB1  4676   5.493   7.201   7.548
     DAL   HB2  4677   5.434   7.153   7.392
     DAL   HB3  4678   5.487   7.319   7.410
     DAL     C  4679   5.203   7.292   7.382
     DAL     O  4680   5.191   7.404   7.325
     NAG    C1  4681   4.850   8.509   6.276
     NAG    H1  4682   4.930   8.504   6.353
     NAG    C5  4683   4.752   8.302   6.386
     NAG    H5  4684   4.836   8.313   6.458
     NAG    O5  4685   4.734   8.441   6.341
     NAG    C2  4686   4.875   8.418   6.153
     NAG    H2  4687   4.790   8.432   6.082
     NAG    NC  4688   5.006   8.444   6.109
     NAG    HN  4689   5.075   8.437   6.180
     NAG    CM  4690   5.047   8.488   5.985
     NAG    OM  4691   4.965   8.481   5.897
     NAG    CC  4692   5.196   8.520   5.958
     NAG   HC1  4693   5.217   8.507   5.850
     NAG   HC2  4694   5.213   8.627   5.984
     NAG   HC3  4695   5.263   8.447   6.008
     NAG    C3  4696   4.896   8.265   6.190
     NAG    H3  4697   4.989   8.263   6.251
     NAG    O3  4698   4.905   8.185   6.073
     NAG   HO3  4699   4.927   8.099   6.110
     NAG    C4  4700   4.800   8.201   6.287
     NAG    H4  4701   4.707   8.172   6.233
     NAG    O4  4702   4.850   8.087   6.360
     NAG    C6  4703   4.645   8.244   6.471
     NAG   H61  4704   4.617   8.311   6.556
     NAG   H62  4705   4.669   8.144   6.514
     NAG    O6  4706   4.523   8.226   6.396
     NAG   HO6  4707   4.474   8.307   6.381
     NAM    C1  4708   4.799   9.018   6.410
     NAM    H1  4709   4.697   9.018   6.365
     NAM    C5  4710   4.869   8.873   6.236
     NAM    H5  4711   4.772   8.874   6.181
     NAM    O5  4712   4.897   8.986   6.313
     NAM    C2  4713   4.806   8.906   6.507
     NAM    H2  4714   4.900   8.922   6.563
     NAM    NC  4715   4.683   8.916   6.579
     NAM    HN  4716   4.598   8.885   6.537
     NAM    CM  4717   4.664   8.962   6.704
     NAM    OM  4718   4.755   9.019   6.766
     NAM    CC  4719   4.524   8.948   6.762
     NAM   HC1  4720   4.468   8.866   6.713
     NAM   HC2  4721   4.532   8.940   6.873
     NAM   HC3  4722   4.470   9.042   6.739
     NAM    C3  4723   4.786   8.767   6.437
     NAM    H3  4724   4.685   8.748   6.395
     NAM    O3  4725   4.784   8.662   6.533
     NAM    CA  4726   4.904   8.649   6.611
     NAM    HA  4727   4.877   8.549   6.579
     NAM     C  4728   4.879   8.677   6.757
     NAM     O  4729   4.794   8.607   6.814
     NAM    CB  4730   5.051   8.668   6.575
     NAM   HB1  4731   5.113   8.616   6.651
     NAM   HB2  4732   5.090   8.772   6.568
     NAM   HB3  4733   5.060   8.615   6.479
     NAM    C4  4734   4.872   8.743   6.318
     NAM    H4  4735   4.979   8.715   6.334
     NAM    O4  4736   4.815   8.639   6.236
     NAM    C6  4737   4.974   8.869   6.125
     NAM   H61  4738   5.008   8.765   6.105
     NAM   H62  4739   5.068   8.920   6.157
     NAM    O6  4740   4.935   8.917   5.999
     NAM   HO6  4741   4.910   9.009   6.012
     ALA     N  4742   4.953   8.772   6.822
     ALA    HN  4743   5.012   8.835   6.773
     ALA    CA  4744   4.957   8.793   6.961
     ALA    HA  4745   4.859   8.831   6.986
     ALA    CB  4746   5.062   8.901   6.995
     ALA   HB1  4747   5.041   8.990   6.933
     ALA   HB2  4748   5.158   8.857   6.961
     ALA   HB3  4749   5.075   8.912   7.105
     ALA     C  4750   4.984   8.672   7.053
     ALA     O  4751   5.049   8.575   7.008
     GLN     N  4752   4.945   8.669   7.185
     GLN    HN  4753   4.981   8.589   7.231
     GLN    CA  4754   4.860   8.762   7.261
     GLN    HA  4755   4.895   8.863   7.270
     GLN    CD  4756   4.707   8.759   7.232
     GLN   OE1  4757   4.657   8.648   7.224
     GLN   NE2  4758   4.639   8.872   7.223
     GLN  HE21  4759   4.540   8.878   7.211
     GLN  HE22  4760   4.682   8.960   7.241
     GLN    CB  4761   4.884   8.718   7.410
     GLN   HB1  4762   4.833   8.622   7.430
     GLN   HB2  4763   4.838   8.792   7.480
     GLN    CG  4764   5.031   8.717   7.452
     GLN   HG1  4765   5.081   8.803   7.402
     GLN   HG2  4766   5.080   8.624   7.415
     GLN     C  4767   5.043   8.727   7.599
     GLN     O  4768   5.061   8.838   7.652
     LYS     N  4769   5.044   8.628   7.685
     LYS    HN  4770   5.041   8.644   7.783
     LYS    CA  4771   5.042   8.484   7.652
     LYS    HA  4772   5.027   8.475   7.546
     LYS    CB  4773   4.917   8.432   7.731
     LYS   HB1  4774   4.929   8.322   7.747
     LYS   HB2  4775   4.906   8.494   7.823
     LYS    CG  4776   4.782   8.458   7.662
     LYS   HG1  4777   4.770   8.568   7.671
     LYS   HG2  4778   4.786   8.424   7.556
     LYS    CD  4779   4.661   8.388   7.741
     LYS   HD1  4780   4.689   8.281   7.749
     LYS   HD2  4781   4.666   8.444   7.838
     LYS    CE  4782   4.526   8.407   7.669
     LYS   HE1  4783   4.441   8.375   7.733
     LYS   HE2  4784   4.519   8.513   7.638
     LYS    NZ  4785   4.507   8.320   7.551
     LYS   HZ1  4786   4.498   8.377   7.464
     LYS   HZ2  4787   4.418   8.269   7.566
     LYS   HZ3  4788   4.588   8.255   7.547
     LYS     C  4789   5.172   8.417   7.683
     LYS     O  4790   5.257   8.480   7.746
     DAL     N  4791   5.190   8.291   7.645
     DAL    HN  4792   5.263   8.242   7.692
     DAL    CA  4793   5.114   8.197   7.555
     DAL    HA  4794   5.027   8.176   7.616
     DAL    CB  4795   5.187   8.059   7.530
     DAL   HB1  4796   5.112   7.978   7.521
     DAL   HB2  4797   5.243   8.073   7.435
     DAL   HB3  4798   5.247   8.030   7.619
     DAL     C  4799   5.070   8.258   7.418
     DAL     O  4800   5.128   8.356   7.370
     DAL     N  4801   4.979   8.197   7.340
     DAL    HN  4802   4.958   8.245   7.256
     DAL    CA  4803   4.887   8.087   7.386
     DAL    HA  4804   4.924   8.031   7.471
     DAL    CB  4805   4.863   7.996   7.265
     DAL   HB1  4806   4.961   7.956   7.233
     DAL   HB2  4807   4.790   7.917   7.296
     DAL   HB3  4808   4.819   8.041   7.174
     DAL     C  4809   4.747   8.146   7.425
     DAL   OC1  4810   4.674   8.203   7.341
     DAL   OC2  4811   4.714   8.138   7.544
     NAG    C1  4812   4.781   9.547   6.385
     NAG    H1  4813   4.828   9.559   6.485
     NAG    C5  4814   4.685   9.342   6.458
     NAG    H5  4815   4.721   9.368   6.560
     NAG    O5  4816   4.669   9.462   6.383
     NAG    C2  4817   4.890   9.476   6.300
     NAG    H2  4818   4.849   9.453   6.200
     NAG    NC  4819   5.019   9.544   6.296
     NAG    HN  4820   5.092   9.539   6.364
     NAG    CM  4821   5.062   9.635   6.211
     NAG    OM  4822   4.992   9.685   6.124
     NAG    CC  4823   5.209   9.681   6.233
     NAG   HC1  4824   5.274   9.596   6.264
     NAG   HC2  4825   5.234   9.701   6.127
     NAG   HC3  4826   5.206   9.773   6.295
     NAG    C3  4827   4.913   9.349   6.380
     NAG    H3  4828   4.954   9.362   6.483
     NAG    O3  4829   5.009   9.274   6.306
     NAG   HO3  4830   5.092   9.270   6.355
     NAG    C4  4831   4.793   9.258   6.391
     NAG    H4  4832   4.761   9.222   6.291
     NAG    O4  4833   4.828   9.140   6.467
     NAG    C6  4834   4.550   9.267   6.468
     NAG   H61  4835   4.576   9.174   6.524
     NAG   H62  4836   4.520   9.237   6.365
     NAG    O6  4837   4.453   9.342   6.541
     NAG   HO6  4838   4.479   9.353   6.632
     NAM    C1  4839   4.619  10.050   6.387
     NAM    H1  4840   4.633  10.077   6.280
     NAM    C5  4841   4.780   9.878   6.381
     NAM    H5  4842   4.821   9.894   6.279
     NAM    O5  4843   4.736   9.998   6.446
     NAM    C2  4844   4.504   9.947   6.400
     NAM    H2  4845   4.480   9.933   6.508
     NAM    NC  4846   4.402   9.994   6.307
     NAM    HN  4847   4.419   9.995   6.209
     NAM    CM  4848   4.273  10.012   6.342
     NAM    OM  4849   4.238   9.994   6.462
     NAM    CC  4850   4.178  10.050   6.233
     NAM   HC1  4851   4.186   9.975   6.151
     NAM   HC2  4852   4.074  10.064   6.269
     NAM   HC3  4853   4.205  10.137   6.169
     NAM    C3  4854   4.542   9.811   6.338
     NAM    H3  4855   4.547   9.832   6.229
     NAM    O3  4856   4.444   9.713   6.339
     NAM    CA  4857   4.399   9.648   6.463
     NAM    HA  4858   4.464   9.562   6.468
     NAM     C  4859   4.263   9.590   6.414
     NAM     O  4860   4.248   9.488   6.343
     NAM    CB  4861   4.384   9.719   6.603
     NAM   HB1  4862   4.352   9.647   6.681
     NAM   HB2  4863   4.300   9.791   6.587
     NAM   HB3  4864   4.482   9.765   6.627
     NAM    C4  4865   4.674   9.766   6.387
     NAM    H4  4866   4.669   9.748   6.497
     NAM    O4  4867   4.750   9.667   6.318
     NAM    C6  4868   4.906   9.859   6.469
     NAM   H61  4869   4.979   9.941   6.452
     NAM   H62  4870   4.957   9.768   6.432
     NAM    O6  4871   4.881   9.849   6.612
     NAM   HO6  4872   4.820   9.922   6.622
     ALA     N  4873   4.154   9.669   6.431
     ALA    HN  4874   4.171   9.762   6.463
     ALA    CA  4875   4.018   9.632   6.382
     ALA    HA  4876   4.015   9.541   6.323
     ALA    CB  4877   3.969   9.751   6.292
     ALA   HB1  4878   4.010   9.749   6.189
     ALA   HB2  4879   4.013   9.844   6.336
     ALA   HB3  4880   3.859   9.758   6.291
     ALA     C  4881   3.917   9.614   6.490
     ALA     O  4882   3.930   9.665   6.604
     GLN     N  4883   3.813   9.532   6.468
     GLN    HN  4884   3.758   9.514   6.549
     GLN    CA  4885   3.774   9.445   6.352
     GLN    HA  4886   3.681   9.399   6.380
     GLN    CD  4887   3.731   9.525   6.224
     GLN   OE1  4888   3.807   9.522   6.126
     GLN   NE2  4889   3.622   9.603   6.231
     GLN  HE21  4890   3.588   9.620   6.324
     GLN  HE22  4891   3.589   9.645   6.147
     GLN    CB  4892   3.868   9.317   6.326
     GLN   HB1  4893   3.874   9.267   6.425
     GLN   HB2  4894   3.969   9.353   6.296
     GLN    CG  4895   3.815   9.231   6.221
     GLN   HG1  4896   3.824   9.275   6.119
     GLN   HG2  4897   3.705   9.218   6.235
     GLN     C  4898   3.866   9.097   6.233
     GLN     O  4899   3.977   9.063   6.177
     LYS     N  4900   3.815   9.010   6.309
     LYS    HN  4901   3.860   8.922   6.325
     LYS    CA  4902   3.707   9.023   6.416
     LYS    HA  4903   3.723   9.114   6.471
     LYS    CB  4904   3.718   8.919   6.524
     LYS   HB1  4905   3.625   8.919   6.585
     LYS   HB2  4906   3.718   8.816   6.482
     LYS    CG  4907   3.835   8.936   6.628
     LYS   HG1  4908   3.930   8.920   6.573
     LYS   HG2  4909   3.838   9.040   6.667
     LYS    CD  4910   3.811   8.865   6.762
     LYS   HD1  4911   3.902   8.883   6.824
     LYS   HD2  4912   3.733   8.916   6.823
     LYS    CE  4913   3.769   8.720   6.760
     LYS   HE1  4914   3.769   8.695   6.868
     LYS   HE2  4915   3.666   8.701   6.724
     LYS    NZ  4916   3.870   8.644   6.679
     LYS   HZ1  4917   3.860   8.544   6.706
     LYS   HZ2  4918   3.969   8.674   6.692
     LYS   HZ3  4919   3.844   8.645   6.579
     LYS     C  4920   3.573   9.025   6.340
     LYS     O  4921   3.489   9.104   6.371
     DAL     N  4922   3.532   8.935   6.247
     DAL    HN  4923   3.447   8.955   6.198
     DAL    CA  4924   3.599   8.815   6.197
     DAL    HA  4925   3.687   8.785   6.252
     DAL    CB  4926   3.641   8.833   6.044
     DAL   HB1  4927   3.718   8.756   6.021
     DAL   HB2  4928   3.555   8.835   5.974
     DAL   HB3  4929   3.689   8.933   6.047
     DAL     C  4930   3.505   8.693   6.205
     DAL     O  4931   3.385   8.711   6.187
     NAG    C1  4932   4.702  10.563   6.478
     NAG    H1  4933   4.621  10.584   6.551
     NAG    C5  4934   4.563  10.387   6.379
     NAG    H5  4935   4.490  10.405   6.460
     NAG    O5  4936   4.645  10.503   6.363
     NAG    C2  4937   4.807  10.467   6.526
     NAG    H2  4938   4.892  10.465   6.455
     NAG    NC  4939   4.836  10.509   6.660
     NAG    HN  4940   4.780  10.463   6.728
     NAG    CM  4941   4.956  10.503   6.727
     NAG    OM  4942   5.059  10.447   6.691
     NAG    CC  4943   4.944  10.567   6.867
     NAG   HC1  4944   5.045  10.567   6.913
     NAG   HC2  4945   4.910  10.672   6.853
     NAG   HC3  4946   4.874  10.511   6.932
     NAG    C3  4947   4.737  10.330   6.542
     NAG    H3  4948   4.666  10.336   6.627
     NAG    O3  4949   4.836  10.234   6.579
     NAG   HO3  4950   4.919  10.278   6.559
     NAG    C4  4951   4.658  10.282   6.419
     NAG    H4  4952   4.732  10.266   6.337
     NAG    O4  4953   4.582  10.167   6.454
     NAG    C6  4954   4.493  10.371   6.245
     NAG   H61  4955   4.434  10.277   6.248
     NAG   H62  4956   4.573  10.362   6.169
     NAG    O6  4957   4.406  10.482   6.213
     NAG   HO6  4958   4.451  10.566   6.224
     NAM    C1  4959   4.692  11.079   6.369
     NAM    H1  4960   4.752  11.079   6.275
     NAM    C5  4961   4.828  10.910   6.457
     NAM    H5  4962   4.872  10.891   6.356
     NAM    O5  4963   4.780  11.042   6.472
     NAM    C2  4964   4.578  10.988   6.361
     NAM    H2  4965   4.524  11.015   6.455
     NAM    NC  4966   4.507  11.024   6.238
     NAM    HN  4967   4.536  10.977   6.155
     NAM    CM  4968   4.396  11.092   6.222
     NAM    OM  4969   4.358  11.173   6.306
     NAM    CC  4970   4.340  11.082   6.081
     NAM   HC1  4971   4.229  11.076   6.082
     NAM   HC2  4972   4.384  11.174   6.038
     NAM   HC3  4973   4.372  10.988   6.031
     NAM    C3  4974   4.620  10.841   6.360
     NAM    H3  4975   4.681  10.832   6.267
     NAM    O3  4976   4.505  10.755   6.345
     NAM    CA  4977   4.391  10.761   6.434
     NAM    HA  4978   4.417  10.656   6.434
     NAM     C  4979   4.254  10.784   6.368
     NAM     O  4980   4.242  10.773   6.248
     NAM    CB  4981   4.391  10.789   6.588
     NAM   HB1  4982   4.485  10.759   6.639
     NAM   HB2  4983   4.309  10.732   6.637
     NAM   HB3  4984   4.381  10.897   6.611
     NAM    C4  4985   4.714  10.811   6.469
     NAM    H4  4986   4.664  10.814   6.568
     NAM    O4  4987   4.778  10.682   6.453
     NAM    C6  4988   4.945  10.893   6.554
     NAM   H61  4989   4.976  10.787   6.557
     NAM   H62  4990   4.916  10.917   6.659
     NAM    O6  4991   5.056  10.975   6.515
     NAM   HO6  4992   5.019  11.062   6.500
     ALA     N  4993   4.146  10.832   6.434
     ALA    HN  4994   4.165  10.872   6.524
     ALA    CA  4995   4.008  10.847   6.390
     ALA    HA  4996   4.019  10.935   6.329
     ALA    CB  4997   3.910  10.870   6.506
     ALA   HB1  4998   3.957  10.938   6.580
     ALA   HB2  4999   3.894  10.773   6.558
     ALA   HB3  5000   3.813  10.915   6.474
     ALA     C  5001   3.958  10.731   6.303
     ALA     O  5002   3.997  10.618   6.341
     GLN     N  5003   3.876  10.750   6.198
     GLN    HN  5004   3.848  10.665   6.153
     GLN    CA  5005   3.823  10.870   6.145
     GLN    HA  5006   3.756  10.828   6.072
     GLN    CD  5007   3.739  10.954   6.241
     GLN   OE1  5008   3.761  11.073   6.263
     GLN   NE2  5009   3.642  10.887   6.304
     GLN  HE21  5010   3.577  10.947   6.351
     GLN  HE22  5011   3.638  10.788   6.319
     GLN    CB  5012   3.924  10.945   6.063
     GLN   HB1  5013   4.002  10.996   6.123
     GLN   HB2  5014   3.873  11.025   6.005
     GLN    CG  5015   3.990  10.850   5.958
     GLN   HG1  5016   3.921  10.776   5.912
     GLN   HG2  5017   4.065  10.785   6.007
     GLN     C  5018   4.061  10.931   5.850
     GLN     O  5019   4.183  10.944   5.864
     LYS     N  5020   3.997  10.975   5.743
     LYS    HN  5021   4.054  11.013   5.671
     LYS    CA  5022   3.856  10.959   5.714
     LYS    HA  5023   3.816  10.865   5.750
     LYS    CB  5024   3.841  10.953   5.554
     LYS   HB1  5025   3.735  10.978   5.532
     LYS   HB2  5026   3.899  11.034   5.504
     LYS    CG  5027   3.879  10.820   5.486
     LYS   HG1  5028   3.811  10.737   5.513
     LYS   HG2  5029   3.866  10.825   5.376
     LYS    CD  5030   4.026  10.769   5.506
     LYS   HD1  5031   4.093  10.847   5.464
     LYS   HD2  5032   4.043  10.771   5.616
     LYS    CE  5033   4.057  10.631   5.454
     LYS   HE1  5034   4.031  10.556   5.531
     LYS   HE2  5035   3.997  10.612   5.363
     LYS    NZ  5036   4.197  10.628   5.417
     LYS   HZ1  5037   4.220  10.535   5.375
     LYS   HZ2  5038   4.256  10.641   5.501
     LYS   HZ3  5039   4.217  10.706   5.351
     LYS     C  5040   3.765  11.072   5.775
     LYS     O  5041   3.680  11.046   5.856
     DAL     N  5042   3.783  11.202   5.754
     DAL    HN  5043   3.721  11.260   5.807
     DAL    CA  5044   3.880  11.282   5.680
     DAL    HA  5045   3.929  11.231   5.599
     DAL    CB  5046   3.990  11.331   5.779
     DAL   HB1  5047   4.036  11.425   5.741
     DAL   HB2  5048   3.946  11.344   5.880
     DAL   HB3  5049   4.065  11.252   5.800
     DAL     C  5050   3.812  11.403   5.618
     DAL     O  5051   3.704  11.442   5.654
     DAL     N  5052   3.868  11.456   5.510
     DAL    HN  5053   3.820  11.525   5.457
     DAL    CA  5054   3.989  11.415   5.452
     DAL    HA  5055   4.054  11.363   5.521
     DAL    CB  5056   4.051  11.537   5.376
     DAL   HB1  5057   3.990  11.555   5.285
     DAL   HB2  5058   4.048  11.634   5.430
     DAL   HB3  5059   4.156  11.516   5.346
     DAL     C  5060   3.973  11.300   5.349
     DAL   OC1  5061   4.060  11.212   5.349
     DAL   OC2  5062   3.882  11.299   5.265
     NAG    C1  5063   4.721  11.625   6.333
     NAG    H1  5064   4.613  11.649   6.342
     NAG    C5  5065   4.663  11.415   6.247
     NAG    H5  5066   4.562  11.450   6.276
     NAG    O5  5067   4.738  11.537   6.221
     NAG    C2  5068   4.771  11.558   6.463
     NAG    H2  5069   4.876  11.528   6.439
     NAG    NC  5070   4.757  11.657   6.576
     NAG    HN  5071   4.685  11.649   6.644
     NAG    CM  5072   4.858  11.747   6.602
     NAG    OM  5073   4.975  11.725   6.569
     NAG    CC  5074   4.815  11.858   6.690
     NAG   HC1  5075   4.746  11.928   6.637
     NAG   HC2  5076   4.765  11.813   6.778
     NAG   HC3  5077   4.909  11.911   6.715
     NAG    C3  5078   4.695  11.426   6.486
     NAG    H3  5079   4.588  11.452   6.500
     NAG    O3  5080   4.733  11.366   6.613
     NAG   HO3  5081   4.652  11.364   6.665
     NAG    C4  5082   4.708  11.329   6.368
     NAG    H4  5083   4.812  11.298   6.345
     NAG    O4  5084   4.639  11.206   6.401
     NAG    C6  5085   4.645  11.341   6.115
     NAG   H61  5086   4.584  11.248   6.119
     NAG   H62  5087   4.744  11.322   6.070
     NAG    O6  5088   4.582  11.431   6.016
     NAG   HO6  5089   4.655  11.488   5.993
     NAM    C1  5090   4.741  12.132   6.152
     NAM    H1  5091   4.804  12.180   6.229
     NAM    C5  5092   4.669  11.951   6.311
     NAM    H5  5093   4.753  11.990   6.373
     NAM    O5  5094   4.632  12.056   6.219
     NAM    C2  5095   4.802  12.021   6.064
     NAM    H2  5096   4.727  11.983   5.990
     NAM    NC  5097   4.917  12.080   5.993
     NAM    HN  5098   5.008  12.052   6.022
     NAM    CM  5099   4.909  12.145   5.870
     NAM    OM  5100   4.816  12.145   5.790
     NAM    CC  5101   5.038  12.228   5.843
     NAM   HC1  5102   5.012  12.314   5.778
     NAM   HC2  5103   5.070  12.263   5.943
     NAM   HC3  5104   5.116  12.173   5.786
     NAM    C3  5105   4.851  11.910   6.147
     NAM    H3  5106   4.923  11.952   6.221
     NAM    O3  5107   4.932  11.818   6.072
     NAM    CA  5108   4.872  11.737   5.969
     NAM    HA  5109   4.764  11.739   5.967
     NAM     C  5110   4.918  11.594   5.993
     NAM     O  5111   4.861  11.503   5.930
     NAM    CB  5112   4.914  11.778   5.824
     NAM   HB1  5113   4.870  11.879   5.810
     NAM   HB2  5114   4.883  11.706   5.745
     NAM   HB3  5115   5.025  11.779   5.819
     NAM    C4  5116   4.743  11.847   6.232
     NAM    H4  5117   4.671  11.809   6.157
     NAM    O4  5118   4.787  11.745   6.317
     NAM    C6  5119   4.550  11.901   6.403
     NAM   H61  5120   4.518  11.994   6.454
     NAM   H62  5121   4.583  11.822   6.474
     NAM    O6  5122   4.454  11.842   6.316
     NAM   HO6  5123   4.374  11.896   6.311
     ALA     N  5124   5.017  11.570   6.078
     ALA    HN  5125   5.075  11.647   6.106
     ALA    CA  5126   5.058  11.431   6.109
     ALA    HA  5127   4.967  11.385   6.145
     ALA    CB  5128   5.148  11.438   6.231
     ALA   HB1  5129   5.110  11.516   6.300
     ALA   HB2  5130   5.253  11.462   6.204
     ALA   HB3  5131   5.139  11.348   6.295
     ALA     C  5132   5.137  11.372   5.986
     ALA     O  5133   5.189  11.446   5.904
     GLN     N  5134   5.164  11.237   5.979
     GLN    HN  5135   5.245  11.206   5.930
     GLN    CA  5136   5.090  11.134   6.044
     GLN    HA  5137   5.135  11.041   6.011
     GLN    CD  5138   5.089  11.119   6.198
     GLN   OE1  5139   4.992  11.166   6.261
     GLN   NE2  5140   5.193  11.056   6.258
     GLN  HE21  5141   5.193  11.031   6.355
     GLN  HE22  5142   5.265  11.019   6.199
     GLN    CB  5143   4.950  11.131   5.989
     GLN   HB1  5144   4.889  11.221   6.010
     GLN   HB2  5145   4.893  11.046   6.033
     GLN    CG  5146   4.960  11.104   5.838
     GLN   HG1  5147   5.000  11.002   5.819
     GLN   HG2  5148   5.020  11.177   5.779
     GLN     C  5149   4.814  11.116   5.786
     GLN     O  5150   4.779  11.218   5.727
     LYS     N  5151   4.724  11.020   5.803
     LYS    HN  5152   4.628  11.037   5.783
     LYS    CA  5153   4.756  10.882   5.836
     LYS    HA  5154   4.863  10.865   5.833
     LYS    CB  5155   4.683  10.780   5.740
     LYS   HB1  5156   4.710  10.677   5.771
     LYS   HB2  5157   4.572  10.788   5.750
     LYS    CG  5158   4.719  10.802   5.589
     LYS   HG1  5159   4.659  10.728   5.533
     LYS   HG2  5160   4.693  10.908   5.567
     LYS    CD  5161   4.866  10.773   5.558
     LYS   HD1  5162   4.926  10.860   5.593
     LYS   HD2  5163   4.889  10.674   5.604
     LYS    CE  5164   4.904  10.771   5.403
     LYS   HE1  5165   4.850  10.700   5.336
     LYS   HE2  5166   4.884  10.875   5.369
     LYS    NZ  5167   5.048  10.738   5.387
     LYS   HZ1  5168   5.085  10.686   5.469
     LYS   HZ2  5169   5.113  10.818   5.380
     LYS   HZ3  5170   5.062  10.688   5.298
     LYS     C  5171   4.710  10.845   5.974
     LYS     O  5172   4.614  10.915   6.023
     DAL     N  5173   4.752  10.730   6.033
     DAL    HN  5174   4.705  10.695   6.113
     DAL    CA  5175   4.854  10.645   6.002
     DAL    HA  5176   4.868  10.632   5.896
     DAL    CB  5177   4.826  10.511   6.072
     DAL   HB1  5178   4.812  10.519   6.182
     DAL   HB2  5179   4.736  10.469   6.023
     DAL   HB3  5180   4.912  10.443   6.053
     DAL     C  5181   4.986  10.708   6.041
     DAL     O  5182   4.993  10.788   6.132
     NAG    C1  5183   4.545  12.618   6.139
     NAG    H1  5184   4.530  12.611   6.029
     NAG    C5  5185   4.741  12.475   6.130
     NAG    H5  5186   4.734  12.473   6.019
     NAG    O5  5187   4.682  12.599   6.176
     NAG    C2  5188   4.458  12.504   6.214
     NAG    H2  5189   4.494  12.511   6.319
     NAG    NC  5190   4.317  12.522   6.200
     NAG    HN  5191   4.284  12.467   6.124
     NAG    CM  5192   4.232  12.585   6.286
     NAG    OM  5193   4.254  12.622   6.399
     NAG    CC  5194   4.102  12.605   6.226
     NAG   HC1  5195   4.048  12.697   6.257
     NAG   HC2  5196   4.119  12.612   6.116
     NAG   HC3  5197   4.030  12.520   6.235
     NAG    C3  5198   4.513  12.365   6.160
     NAG    H3  5199   4.482  12.357   6.054
     NAG    O3  5200   4.447  12.265   6.227
     NAG   HO3  5201   4.505  12.189   6.217
     NAG    C4  5202   4.661  12.351   6.165
     NAG    H4  5203   4.684  12.332   6.272
     NAG    O4  5204   4.686  12.240   6.083
     NAG    C6  5205   4.882  12.485   6.162
     NAG   H61  5206   4.921  12.589   6.168
     NAG   H62  5207   4.944  12.437   6.083
     NAG    O6  5208   4.928  12.424   6.283
     NAG   HO6  5209   4.906  12.484   6.355
     NAM    C1  5210   4.636  13.115   6.150
     NAM    H1  5211   4.711  13.087   6.228
     NAM    C5  5212   4.496  12.955   6.235
     NAM    H5  5213   4.582  12.931   6.301
     NAM    O5  5214   4.508  13.091   6.196
     NAM    C2  5215   4.657  13.024   6.026
     NAM    H2  5216   4.587  13.063   5.949
     NAM    NC  5217   4.770  13.064   5.946
     NAM    HN  5218   4.739  13.147   5.899
     NAM    CM  5219   4.900  13.009   5.940
     NAM    OM  5220   4.924  12.894   5.985
     NAM    CC  5221   5.014  13.094   5.885
     NAM   HC1  5222   5.027  13.187   5.945
     NAM   HC2  5223   5.105  13.030   5.894
     NAM   HC3  5224   5.005  13.124   5.778
     NAM    C3  5225   4.621  12.880   6.042
     NAM    H3  5226   4.697  12.832   6.108
     NAM    O3  5227   4.626  12.801   5.926
     NAM    CA  5228   4.537  12.831   5.821
     NAM    HA  5229   4.467  12.912   5.836
     NAM     C  5230   4.451  12.708   5.801
     NAM     O  5231   4.326  12.705   5.807
     NAM    CB  5232   4.632  12.851   5.698
     NAM   HB1  5233   4.711  12.928   5.712
     NAM   HB2  5234   4.574  12.879   5.608
     NAM   HB3  5235   4.686  12.756   5.676
     NAM    C4  5236   4.498  12.861   6.119
     NAM    H4  5237   4.410  12.880   6.054
     NAM    O4  5238   4.481  12.736   6.185
     NAM    C6  5239   4.370  12.937   6.321
     NAM   H61  5240   4.390  12.854   6.392
     NAM   H62  5241   4.292  12.905   6.249
     NAM    O6  5242   4.326  13.053   6.393
     NAM   HO6  5243   4.304  13.106   6.316
     ALA     N  5244   4.521  12.590   5.776
     ALA    HN  5245   4.620  12.600   5.776
     ALA    CA  5246   4.456  12.462   5.763
     ALA    HA  5247   4.396  12.452   5.853
     ALA    CB  5248   4.556  12.355   5.719
     ALA   HB1  5249   4.638  12.345   5.794
     ALA   HB2  5250   4.600  12.384   5.621
     ALA   HB3  5251   4.513  12.253   5.705
     ALA     C  5252   4.345  12.458   5.659
     ALA     O  5253   4.350  12.535   5.561
     GLN     N  5254   4.237  12.373   5.667
     GLN    HN  5255   4.167  12.370   5.597
     GLN    CA  5256   4.217  12.276   5.767
     GLN    HA  5257   4.312  12.230   5.788
     GLN    CD  5258   4.149  12.332   5.896
     GLN   OE1  5259   4.209  12.349   6.000
     GLN   NE2  5260   4.019  12.365   5.892
     GLN  HE21  5261   3.970  12.411   5.966
     GLN  HE22  5262   3.975  12.375   5.802
     GLN    CB  5263   4.130  12.162   5.715
     GLN   HB1  5264   4.026  12.196   5.694
     GLN   HB2  5265   4.123  12.082   5.792
     GLN    CG  5266   4.193  12.106   5.585
     GLN   HG1  5267   4.284  12.049   5.614
     GLN   HG2  5268   4.227  12.186   5.515
     GLN     C  5269   4.100  12.017   5.501
     GLN     O  5270   3.979  12.015   5.514
     LYS     N  5271   4.157  11.933   5.409
     LYS    HN  5272   4.098  11.879   5.350
     LYS    CA  5273   4.296  11.901   5.387
     LYS    HA  5274   4.346  11.994   5.362
     LYS    CB  5275   4.310  11.806   5.264
     LYS   HB1  5276   4.418  11.788   5.249
     LYS   HB2  5277   4.249  11.716   5.286
     LYS    CG  5278   4.260  11.868   5.131
     LYS   HG1  5279   4.295  11.794   5.055
     LYS   HG2  5280   4.150  11.859   5.119
     LYS    CD  5281   4.305  12.017   5.114
     LYS   HD1  5282   4.246  12.086   5.178
     LYS   HD2  5283   4.410  12.017   5.148
     LYS    CE  5284   4.308  12.073   4.964
     LYS   HE1  5285   4.219  12.059   4.899
     LYS   HE2  5286   4.350  12.176   4.964
     LYS    NZ  5287   4.404  11.982   4.887
     LYS   HZ1  5288   4.394  12.007   4.787
     LYS   HZ2  5289   4.372  11.883   4.893
     LYS   HZ3  5290   4.503  11.996   4.915
     LYS     C  5291   4.365  11.832   5.510
     LYS     O  5292   4.305  11.802   5.610
     DAL     N  5293   4.500  11.799   5.512
     DAL    HN  5294   4.536  11.743   5.586
     DAL    CA  5295   4.613  11.856   5.433
     DAL    HA  5296   4.625  11.807   5.337
     DAL    CB  5297   4.732  11.817   5.507
     DAL   HB1  5298   4.760  11.864   5.604
     DAL   HB2  5299   4.737  11.707   5.524
     DAL   HB3  5300   4.819  11.839   5.441
     DAL     C  5301   4.604  12.011   5.411
     DAL     O  5302   4.533  12.084   5.480
     DAL     N  5303   4.665  12.072   5.309
     DAL    HN  5304   4.644  12.169   5.299
     DAL    CA  5305   4.749  12.016   5.206
     DAL    HA  5306   4.789  11.920   5.235
     DAL    CB  5307   4.877  12.104   5.196
     DAL   HB1  5308   4.868  12.213   5.178
     DAL   HB2  5309   4.925  12.100   5.296
     DAL   HB3  5310   4.949  12.067   5.121
     DAL     C  5311   4.670  11.995   5.077
     DAL   OC1  5312   4.645  11.872   5.041
     DAL   OC2  5313   4.636  12.091   5.001
     NAG    C1  5314   6.775   0.259   6.308
     NAG    H1  5315   6.706   0.259   6.221
     NAG    C5  5316   6.903   0.088   6.208
     NAG    H5  5317   6.831   0.094   6.123
     NAG    O5  5318   6.908   0.208   6.282
     NAG    C2  5319   6.716   0.157   6.409
     NAG    H2  5320   6.774   0.155   6.504
     NAG    NC  5321   6.581   0.192   6.433
     NAG    HN  5322   6.509   0.161   6.371
     NAG    CM  5323   6.531   0.246   6.545
     NAG    OM  5324   6.598   0.260   6.644
     NAG    CC  5325   6.384   0.279   6.517
     NAG   HC1  5326   6.366   0.334   6.422
     NAG   HC2  5327   6.339   0.177   6.514
     NAG   HC3  5328   6.333   0.340   6.594
     NAG    C3  5329   6.710   0.019   6.347
     NAG    H3  5330   6.649   0.022   6.255
     NAG    O3  5331   6.657  13.382   6.435
     NAG   HO3  5332   6.561  13.370   6.432
     NAG    C4  5333   6.850  13.431   6.297
     NAG    H4  5334   6.915  13.416   6.386
     NAG    O4  5335   6.834  13.309   6.216
     NAG    C6  5336   7.046   0.065   6.172
     NAG   H61  5337   7.061  13.411   6.158
     NAG   H62  5338   7.111   0.101   6.254
     NAG    O6  5339   7.076   0.128   6.045
     NAG   HO6  5340   7.050   0.069   5.974
     NAM    C1  5341   6.817   0.780   6.327
     NAM    H1  5342   6.818   0.783   6.438
     NAM    C5  5343   6.685   0.585   6.316
     NAM    H5  5344   6.659   0.589   6.424
     NAM    O5  5345   6.698   0.720   6.274
     NAM    C2  5346   6.930   0.704   6.270
     NAM    H2  5347   6.933   0.711   6.159
     NAM    NC  5348   7.064   0.764   6.286
     NAM    HN  5349   7.121   0.722   6.357
     NAM    CM  5350   7.124   0.865   6.219
     NAM    OM  5351   7.083   0.923   6.121
     NAM    CC  5352   7.256   0.915   6.290
     NAM   HC1  5353   7.314   0.827   6.326
     NAM   HC2  5354   7.316   0.962   6.210
     NAM   HC3  5355   7.225   0.978   6.377
     NAM    C3  5356   6.935   0.568   6.318
     NAM    H3  5357   6.926   0.576   6.429
     NAM    O3  5358   7.052   0.482   6.298
     NAM    CA  5359   7.097   0.444   6.167
     NAM    HA  5360   7.046   0.349   6.167
     NAM     C  5361   7.245   0.415   6.187
     NAM     O  5362   7.323   0.492   6.245
     NAM    CB  5363   7.073   0.517   6.027
     NAM   HB1  5364   6.963   0.518   6.017
     NAM   HB2  5365   7.114   0.462   5.940
     NAM   HB3  5366   7.116   0.619   6.039
     NAM    C4  5367   6.806   0.499   6.285
     NAM    H4  5368   6.808   0.469   6.178
     NAM    O4  5369   6.794   0.382   6.371
     NAM    C6  5370   6.567   0.538   6.232
     NAM   H61  5371   6.564   0.428   6.244
     NAM   H62  5372   6.586   0.559   6.125
     NAM    O6  5373   6.438   0.588   6.264
     NAM   HO6  5374   6.366   0.527   6.247
     ALA     N  5375   7.288   0.295   6.132
     ALA    HN  5376   7.224   0.235   6.083
     ALA    CA  5377   7.421   0.234   6.163
     ALA    HA  5378   7.492   0.295   6.109
     ALA    CB  5379   7.429   0.103   6.078
     ALA   HB1  5380   7.331   0.051   6.085
     ALA   HB2  5381   7.515   0.038   6.106
     ALA   HB3  5382   7.438   0.127   5.970
     ALA     C  5383   7.451   0.197   6.304
     ALA     O  5384   7.355   0.164   6.382
     GLN     N  5385   7.580   0.204   6.353
     GLN    HN  5386   7.594   0.185   6.450
     GLN    CA  5387   7.700   0.272   6.290
     GLN    HA  5388   7.782   0.251   6.357
     GLN    CD  5389   7.743   0.208   6.159
     GLN   OE1  5390   7.737   0.280   6.054
     GLN   NE2  5391   7.779   0.076   6.158
     GLN  HE21  5392   7.799   0.035   6.069
     GLN  HE22  5393   7.772   0.025   6.243
     GLN    CB  5394   7.706   0.428   6.280
     GLN   HB1  5395   7.664   0.467   6.185
     GLN   HB2  5396   7.816   0.441   6.277
     GLN    CG  5397   7.647   0.498   6.409
     GLN   HG1  5398   7.700   0.461   6.500
     GLN   HG2  5399   7.539   0.473   6.418
     GLN     C  5400   7.664   0.642   6.414
     GLN     O  5401   7.583   0.715   6.363
     LYS     N  5402   7.757   0.698   6.491
     LYS    HN  5403   7.746   0.797   6.490
     LYS    CA  5404   7.866   0.638   6.571
     LYS    HA  5405   7.816   0.565   6.633
     LYS    CB  5406   7.937   0.750   6.650
     LYS   HB1  5407   7.992   0.701   6.733
     LYS   HB2  5408   8.003   0.813   6.587
     LYS    CG  5409   7.845   0.848   6.725
     LYS   HG1  5410   7.918   0.916   6.774
     LYS   HG2  5411   7.797   0.906   6.643
     LYS    CD  5412   7.741   0.784   6.817
     LYS   HD1  5413   7.666   0.731   6.754
     LYS   HD2  5414   7.788   0.703   6.878
     LYS    CE  5415   7.673   0.893   6.897
     LYS   HE1  5416   7.697   0.993   6.854
     LYS   HE2  5417   7.564   0.877   6.903
     LYS    NZ  5418   7.725   0.913   7.031
     LYS   HZ1  5419   7.699   0.844   7.103
     LYS   HZ2  5420   7.705   1.013   7.054
     LYS   HZ3  5421   7.828   0.904   7.017
     LYS     C  5422   7.973   0.559   6.490
     LYS     O  5423   8.009   0.602   6.380
     DAL     N  5424   8.045   0.452   6.549
     DAL    HN  5425   8.100   0.401   6.483
     DAL    CA  5426   8.042   0.401   6.686
     DAL    HA  5427   8.070   0.479   6.756
     DAL    CB  5428   8.144   0.285   6.693
     DAL   HB1  5429   8.162   0.235   6.791
     DAL   HB2  5430   8.107   0.206   6.624
     DAL   HB3  5431   8.245   0.320   6.662
     DAL     C  5432   7.909   0.332   6.724
     DAL     O  5433   7.833   0.282   6.644
     DAL     N  5434   7.877   0.310   6.860
     DAL    HN  5435   7.788   0.265   6.867
     DAL    CA  5436   7.952   0.345   6.982
     DAL    HA  5437   8.056   0.360   6.955
     DAL    CB  5438   7.963   0.222   7.070
     DAL   HB1  5439   8.023   0.248   7.160
     DAL   HB2  5440   7.864   0.195   7.113
     DAL   HB3  5441   7.986   0.124   7.022
     DAL     C  5442   7.893   0.459   7.060
     DAL   OC1  5443   7.772   0.467   7.086
     DAL   OC2  5444   7.973   0.547   7.104
     NAG    C1  5445   6.680   1.282   6.339
     NAG    H1  5446   6.736   1.305   6.246
     NAG    C5  5447   6.846   1.108   6.390
     NAG    H5  5448   6.904   1.126   6.298
     NAG    O5  5449   6.766   1.224   6.441
     NAG    C2  5450   6.571   1.181   6.299
     NAG    H2  5451   6.506   1.152   6.384
     NAG    NC  5452   6.485   1.242   6.195
     NAG    HN  5453   6.519   1.270   6.106
     NAG    CM  5454   6.349   1.255   6.204
     NAG    OM  5455   6.278   1.229   6.302
     NAG    CC  5456   6.277   1.316   6.086
     NAG   HC1  5457   6.261   1.245   6.002
     NAG   HC2  5458   6.173   1.343   6.116
     NAG   HC3  5459   6.329   1.407   6.050
     NAG    C3  5460   6.646   1.053   6.244
     NAG    H3  5461   6.695   1.087   6.150
     NAG    O3  5462   6.545   0.952   6.219
     NAG   HO3  5463   6.587   0.868   6.195
     NAG    C4  5464   6.748   1.003   6.347
     NAG    H4  5465   6.698   0.956   6.434
     NAG    O4  5466   6.817   0.907   6.271
     NAG    C6  5467   6.952   1.063   6.484
     NAG   H61  5468   7.018   1.151   6.500
     NAG   H62  5469   7.010   0.985   6.430
     NAG    O6  5470   6.893   0.997   6.597
     NAG   HO6  5471   6.871   1.063   6.663
     NAM    C1  5472   6.717   1.786   6.490
     NAM    H1  5473   6.611   1.807   6.467
     NAM    C5  5474   6.702   1.624   6.321
     NAM    H5  5475   6.595   1.652   6.318
     NAM    O5  5476   6.780   1.737   6.372
     NAM    C2  5477   6.719   1.687   6.602
     NAM    H2  5478   6.822   1.667   6.637
     NAM    NC  5479   6.640   1.740   6.711
     NAM    HN  5480   6.541   1.738   6.701
     NAM    CM  5481   6.693   1.775   6.829
     NAM    OM  5482   6.813   1.774   6.853
     NAM    CC  5483   6.586   1.821   6.923
     NAM   HC1  5484   6.628   1.886   7.002
     NAM   HC2  5485   6.512   1.885   6.869
     NAM   HC3  5486   6.524   1.740   6.968
     NAM    C3  5487   6.648   1.555   6.560
     NAM    H3  5488   6.543   1.583   6.538
     NAM    O3  5489   6.621   1.452   6.662
     NAM    CA  5490   6.730   1.377   6.710
     NAM    HA  5491   6.805   1.370   6.632
     NAM     C  5492   6.683   1.236   6.729
     NAM     O  5493   6.751   1.153   6.784
     NAM    CB  5494   6.787   1.434   6.843
     NAM   HB1  5495   6.848   1.522   6.814
     NAM   HB2  5496   6.854   1.362   6.894
     NAM   HB3  5497   6.716   1.468   6.921
     NAM    C4  5498   6.698   1.504   6.425
     NAM    H4  5499   6.803   1.470   6.437
     NAM    O4  5500   6.617   1.399   6.379
     NAM    C6  5501   6.740   1.583   6.179
     NAM   H61  5502   6.769   1.668   6.115
     NAM   H62  5503   6.664   1.521   6.128
     NAM    O6  5504   6.860   1.513   6.182
     NAM   HO6  5505   6.932   1.564   6.219
     ALA     N  5506   6.568   1.193   6.676
     ALA    HN  5507   6.519   1.252   6.612
     ALA    CA  5508   6.510   1.063   6.700
     ALA    HA  5509   6.572   0.992   6.647
     ALA    CB  5510   6.367   1.065   6.635
     ALA   HB1  5511   6.337   0.958   6.635
     ALA   HB2  5512   6.363   1.109   6.533
     ALA   HB3  5513   6.305   1.133   6.698
     ALA     C  5514   6.498   1.001   6.840
     ALA     O  5515   6.495   1.071   6.942
     GLN     N  5516   6.496   0.866   6.864
     GLN    HN  5517   6.481   0.845   6.961
     GLN    CA  5518   6.526   0.758   6.772
     GLN    HA  5519   6.481   0.787   6.678
     GLN    CD  5520   6.676   0.736   6.737
     GLN   OE1  5521   6.702   0.634   6.668
     GLN   NE2  5522   6.770   0.811   6.792
     GLN  HE21  5523   6.863   0.793   6.759
     GLN  HE22  5524   6.742   0.897   6.833
     GLN    CB  5525   6.456   0.626   6.808
     GLN   HB1  5526   6.486   0.588   6.908
     GLN   HB2  5527   6.476   0.543   6.737
     GLN    CG  5528   6.301   0.646   6.806
     GLN   HG1  5529   6.283   0.700   6.710
     GLN   HG2  5530   6.264   0.716   6.885
     GLN     C  5531   6.227   0.520   6.797
     GLN     O  5532   6.160   0.489   6.700
     LYS     N  5533   6.231   0.424   6.894
     LYS    HN  5534   6.173   0.343   6.887
     LYS    CA  5535   6.277   0.447   7.030
     LYS    HA  5536   6.378   0.482   7.039
     LYS    CB  5537   6.277   0.311   7.092
     LYS   HB1  5538   6.267   0.307   7.203
     LYS   HB2  5539   6.200   0.244   7.048
     LYS    CG  5540   6.417   0.225   7.088
     LYS   HG1  5541   6.478   0.270   7.169
     LYS   HG2  5542   6.413   0.119   7.122
     LYS    CD  5543   6.490   0.225   6.960
     LYS   HD1  5544   6.425   0.192   6.876
     LYS   HD2  5545   6.527   0.322   6.921
     LYS    CE  5546   6.602   0.129   6.942
     LYS   HE1  5547   6.564   0.025   6.937
     LYS   HE2  5548   6.668   0.162   6.858
     LYS    NZ  5549   6.693   0.131   7.058
     LYS   HZ1  5550   6.779   0.077   7.038
     LYS     C  5551   6.191   0.556   7.104
     LYS     O  5552   6.078   0.577   7.059
     GLY     C  5553   6.966   0.383   7.464
     GLY     O  5554   7.065   0.332   7.515
     GLY    CA  5555   6.969   0.458   7.331
     GLY   HA1  5556   7.058   0.429   7.274
     GLY   HA2  5557   6.970   0.566   7.349
     GLY     N  5558   6.851   0.425   7.253
     GLY    HN  5559   6.785   0.360   7.293
     GLY     C  5560   6.828   0.298   7.217
     GLY     O  5561   6.910   0.215   7.254
     GLY    CA  5562   6.704   0.264   7.135
     GLY   HA1  5563   6.681   0.157   7.146
     GLY   HA2  5564   6.721   0.287   7.030
     GLY     N  5565   6.591   0.341   7.182
     GLY    HN  5566   6.606   0.405   7.260
     GLY     C  5567   6.549   0.328   7.309
     GLY     O  5568   6.612   0.250   7.380
     GLY    CA  5569   6.430   0.409   7.358
     GLY   HA1  5570   6.432   0.416   7.468
     GLY   HA2  5571   6.337   0.362   7.326
     GLY     N  5572   6.435   0.543   7.304
     GLY    HN  5573   6.513   0.567   7.243
     GLY     C  5574   6.540   0.622   7.330
     GLY     O  5575   6.628   0.574   7.401
     GLY    CA  5576   6.546   0.764   7.273
     GLY   HA1  5577   6.649   0.799   7.273
     GLY   HA2  5578   6.484   0.831   7.333
     GLY     N  5579   6.496   0.764   7.137
     GLY    HN  5580   6.466   0.675   7.098
     GLY     C  5581   6.557   0.689   7.043
     GLY     O  5582   6.654   0.623   7.080
     GLY    CA  5583   6.505   0.689   6.900
     GLY   HA1  5584   6.540   0.599   6.848
     GLY   HA2  5585   6.540   0.778   6.848
     GLY     N  5586   6.360   0.689   6.900
     GLY    HN  5587   6.309   0.697   6.812
     DAL     N  5588   6.235   0.617   7.215
     DAL    HN  5589   6.177   0.680   7.265
     DAL    CA  5590   6.363   0.594   7.283
     DAL    HA  5591   6.371   0.487   7.297
     DAL    CB  5592   6.349   0.657   7.422
     DAL   HB1  5593   6.288   0.589   7.485
     DAL   HB2  5594   6.448   0.680   7.468
     DAL   HB3  5595   6.305   0.757   7.405
     DAL     C  5596   6.480   0.645   7.196
     DAL     O  5597   6.470   0.730   7.110
     DAL     N  5598   6.604   0.599   7.217
     DAL    HN  5599   6.676   0.649   7.170
     DAL    CA  5600   6.643   0.510   7.325
     DAL    HA  5601   6.558   0.469   7.377
     DAL    CB  5602   6.735   0.594   7.419
     DAL   HB1  5603   6.833   0.620   7.374
     DAL   HB2  5604   6.692   0.691   7.452
     DAL   HB3  5605   6.752   0.539   7.514
     DAL     C  5606   6.728   0.403   7.262
     DAL   OC1  5607   6.800   0.333   7.336
     DAL   OC2  5608   6.731   0.387   7.139
     NAG    C1  5609   6.793   2.307   6.420
     NAG    H1  5610   6.879   2.315   6.491
     NAG    C5  5611   6.698   2.133   6.553
     NAG    H5  5612   6.788   2.157   6.614
     NAG    O5  5613   6.673   2.251   6.477
     NAG    C2  5614   6.824   2.203   6.311
     NAG    H2  5615   6.732   2.211   6.249
     NAG    NC  5616   6.931   2.249   6.224
     NAG    HN  5617   7.025   2.254   6.259
     NAG    CM  5618   6.927   2.292   6.098
     NAG    OM  5619   6.820   2.312   6.043
     NAG    CC  5620   7.061   2.329   6.039
     NAG   HC1  5621   7.097   2.418   6.095
     NAG   HC2  5622   7.126   2.240   6.050
     NAG   HC3  5623   7.038   2.356   5.934
     NAG    C3  5624   6.845   2.074   6.368
     NAG    H3  5625   6.930   2.087   6.438
     NAG    O3  5626   6.893   1.973   6.277
     NAG   HO3  5627   6.983   1.952   6.302
     NAG    C4  5628   6.732   2.025   6.454
     NAG    H4  5629   6.640   2.003   6.395
     NAG    O4  5630   6.774   1.910   6.528
     NAG    C6  5631   6.571   2.098   6.627
     NAG   H61  5632   6.587   2.014   6.699
     NAG   H62  5633   6.485   2.084   6.558
     NAG    O6  5634   6.535   2.213   6.708
     NAG   HO6  5635   6.510   2.286   6.651
     NAM    C1  5636   6.673   2.826   6.440
     NAM    H1  5637   6.599   2.810   6.358
     NAM    C5  5638   6.819   2.665   6.346
     NAM    H5  5639   6.756   2.662   6.254
     NAM    O5  5640   6.810   2.798   6.403
     NAM    C2  5641   6.630   2.732   6.543
     NAM    H2  5642   6.672   2.752   6.644
     NAM    NC  5643   6.496   2.758   6.584
     NAM    HN  5644   6.481   2.758   6.683
     NAM    CM  5645   6.388   2.789   6.511
     NAM    OM  5646   6.370   2.766   6.391
     NAM    CC  5647   6.268   2.845   6.587
     NAM   HC1  5648   6.220   2.923   6.524
     NAM   HC2  5649   6.208   2.759   6.624
     NAM   HC3  5650   6.304   2.899   6.677
     NAM    C3  5651   6.647   2.588   6.506
     NAM    H3  5652   6.560   2.567   6.440
     NAM    O3  5653   6.619   2.504   6.616
     NAM    CA  5654   6.683   2.507   6.741
     NAM    HA  5655   6.667   2.401   6.741
     NAM     C  5656   6.607   2.556   6.859
     NAM     O  5657   6.510   2.626   6.847
     NAM    CB  5658   6.834   2.541   6.752
     NAM   HB1  5659   6.857   2.532   6.861
     NAM   HB2  5660   6.858   2.647   6.732
     NAM   HB3  5661   6.896   2.472   6.692
     NAM    C4  5662   6.777   2.549   6.434
     NAM    H4  5663   6.858   2.536   6.509
     NAM    O4  5664   6.761   2.427   6.360
     NAM    C6  5665   6.967   2.634   6.305
     NAM   H61  5666   6.959   2.533   6.259
     NAM   H62  5667   7.046   2.641   6.382
     NAM    O6  5668   7.011   2.726   6.207
     NAM   HO6  5669   6.991   2.701   6.117
     ALA     N  5670   6.651   2.521   6.984
     ALA    HN  5671   6.725   2.459   7.011
     ALA    CA  5672   6.574   2.565   7.099
     ALA    HA  5673   6.583   2.672   7.092
     ALA    CB  5674   6.644   2.524   7.234
     ALA   HB1  5675   6.614   2.426   7.277
     ALA   HB2  5676   6.653   2.600   7.314
     ALA   HB3  5677   6.744   2.498   7.193
     ALA     C  5678   6.421   2.521   7.108
     ALA     O  5679   6.386   2.409   7.066
     GLN     N  5680   6.331   2.606   7.158
     GLN    HN  5681   6.235   2.578   7.148
     GLN    CA  5682   6.331   2.718   7.245
     GLN    HA  5683   6.229   2.723   7.281
     GLN    CD  5684   6.414   2.693   7.376
     GLN   OE1  5685   6.518   2.753   7.405
     GLN   NE2  5686   6.367   2.601   7.461
     GLN  HE21  5687   6.426   2.576   7.538
     GLN  HE22  5688   6.297   2.541   7.422
     GLN    CB  5689   6.373   2.851   7.178
     GLN   HB1  5690   6.482   2.846   7.155
     GLN   HB2  5691   6.365   2.937   7.248
     GLN    CG  5692   6.303   2.880   7.043
     GLN   HG1  5693   6.193   2.896   7.042
     GLN   HG2  5694   6.321   2.785   6.988
     GLN     C  5695   6.370   2.978   6.960
     GLN     O  5696   6.449   2.943   6.872
     LYS     N  5697   6.324   3.098   6.971
     LYS    HN  5698   6.364   3.160   6.904
     LYS    CA  5699   6.241   3.171   7.066
     LYS    HA  5700   6.175   3.098   7.109
     LYS    CB  5701   6.172   3.295   6.994
     LYS   HB1  5702   6.126   3.364   7.068
     LYS   HB2  5703   6.251   3.359   6.950
     LYS    CG  5704   6.075   3.264   6.878
     LYS   HG1  5705   6.139   3.207   6.808
     LYS   HG2  5706   5.982   3.211   6.908
     LYS    CD  5707   6.027   3.393   6.807
     LYS   HD1  5708   6.125   3.430   6.771
     LYS   HD2  5709   5.955   3.367   6.727
     LYS    CE  5710   5.952   3.501   6.886
     LYS   HE1  5711   6.007   3.545   6.972
     LYS   HE2  5712   5.939   3.591   6.822
     LYS    NZ  5713   5.810   3.461   6.923
     LYS   HZ1  5714   5.754   3.531   6.977
     LYS   HZ2  5715   5.823   3.376   6.981
     LYS   HZ3  5716   5.748   3.436   6.843
     LYS     C  5717   6.321   3.216   7.184
     LYS     O  5718   6.443   3.220   7.184
     DAL     N  5719   6.269   3.245   7.303
     DAL    HN  5720   6.330   3.262   7.380
     DAL    CA  5721   6.132   3.236   7.353
     DAL    HA  5722   6.082   3.313   7.296
     DAL    CB  5723   6.127   3.274   7.501
     DAL   HB1  5724   6.216   3.228   7.551
     DAL   HB2  5725   6.132   3.385   7.511
     DAL   HB3  5726   6.038   3.239   7.558
     DAL     C  5727   6.068   3.097   7.345
     DAL     O  5728   6.130   2.990   7.364
     DAL     N  5729   5.934   3.086   7.322
     DAL    HN  5730   5.887   2.999   7.327
     DAL    CA  5731   5.832   3.194   7.305
     DAL    HA  5732   5.839   3.260   7.390
     DAL    CB  5733   5.685   3.135   7.300
     DAL   HB1  5734   5.678   3.056   7.222
     DAL   HB2  5735   5.650   3.088   7.394
     DAL   HB3  5736   5.612   3.210   7.263
     DAL     C  5737   5.852   3.287   7.187
     DAL   OC1  5738   5.880   3.409   7.201
     DAL   OC2  5739   5.824   3.230   7.074
     NAG    C1  5740   6.637   3.347   6.361
     NAG    H1  5741   6.737   3.379   6.397
     NAG    C5  5742   6.593   3.180   6.522
     NAG    H5  5743   6.689   3.204   6.573
     NAG    O5  5744   6.544   3.296   6.454
     NAG    C2  5745   6.669   3.242   6.263
     NAG    H2  5746   6.574   3.201   6.222
     NAG    NC  5747   6.760   3.302   6.155
     NAG    HN  5748   6.859   3.292   6.167
     NAG    CM  5749   6.734   3.337   6.029
     NAG    OM  5750   6.645   3.288   5.966
     NAG    CC  5751   6.827   3.442   5.979
     NAG   HC1  5752   6.789   3.539   6.017
     NAG   HC2  5753   6.925   3.418   6.025
     NAG   HC3  5754   6.827   3.436   5.868
     NAG    C3  5755   6.728   3.117   6.333
     NAG    H3  5756   6.822   3.140   6.388
     NAG    O3  5757   6.766   3.014   6.245
     NAG   HO3  5758   6.819   2.943   6.281
     NAG    C4  5759   6.628   3.061   6.430
     NAG    H4  5760   6.537   3.038   6.371
     NAG    O4  5761   6.666   2.950   6.510
     NAG    C6  5762   6.485   3.146   6.623
     NAG   H61  5763   6.497   3.038   6.644
     NAG   H62  5764   6.387   3.154   6.570
     NAG    O6  5765   6.491   3.220   6.738
     NAG   HO6  5766   6.583   3.217   6.764
     NAM    C1  5767   6.467   3.863   6.314
     NAM    H1  5768   6.494   3.880   6.208
     NAM    C5  5769   6.634   3.689   6.324
     NAM    H5  5770   6.657   3.701   6.216
     NAM    O5  5771   6.583   3.810   6.384
     NAM    C2  5772   6.361   3.752   6.323
     NAM    H2  5773   6.339   3.735   6.431
     NAM    NC  5774   6.251   3.789   6.241
     NAM    HN  5775   6.247   3.763   6.145
     NAM    CM  5776   6.131   3.846   6.279
     NAM    OM  5777   6.102   3.872   6.393
     NAM    CC  5778   6.029   3.865   6.160
     NAM   HC1  5779   5.969   3.772   6.144
     NAM   HC2  5780   5.962   3.951   6.180
     NAM   HC3  5781   6.097   3.887   6.075
     NAM    C3  5782   6.405   3.617   6.267
     NAM    H3  5783   6.435   3.626   6.160
     NAM    O3  5784   6.305   3.513   6.259
     NAM    CA  5785   6.264   3.449   6.384
     NAM    HA  5786   6.325   3.468   6.472
     NAM     C  5787   6.240   3.298   6.364
     NAM     O  5788   6.197   3.222   6.454
     NAM    CB  5789   6.125   3.520   6.414
     NAM   HB1  5790   6.146   3.628   6.432
     NAM   HB2  5791   6.085   3.486   6.512
     NAM   HB3  5792   6.057   3.505   6.328
     NAM    C4  5793   6.532   3.574   6.341
     NAM    H4  5794   6.518   3.564   6.450
     NAM    O4  5795   6.579   3.453   6.281
     NAM    C6  5796   6.765   3.664   6.400
     NAM   H61  5797   6.827   3.578   6.367
     NAM   H62  5798   6.745   3.655   6.509
     NAM    O6  5799   6.844   3.776   6.392
     NAM   HO6  5800   6.865   3.790   6.299
     ALA     N  5801   6.257   3.245   6.234
     ALA    HN  5802   6.296   3.307   6.166
     ALA    CA  5803   6.234   3.106   6.195
     ALA    HA  5804   6.236   3.042   6.282
     ALA    CB  5805   6.341   3.057   6.094
     ALA   HB1  5806   6.446   3.074   6.125
     ALA   HB2  5807   6.316   3.079   5.988
     ALA   HB3  5808   6.328   2.946   6.097
     ALA     C  5809   6.102   3.085   6.122
     ALA     O  5810   6.048   3.185   6.082
     GLN     N  5811   6.060   2.962   6.100
     GLN    HN  5812   5.984   2.964   6.035
     GLN    CA  5813   6.074   2.837   6.170
     GLN    HA  5814   6.169   2.840   6.221
     GLN    CD  5815   5.975   2.812   6.286
     GLN   OE1  5816   6.014   2.770   6.397
     GLN   NE2  5817   5.843   2.822   6.261
     GLN  HE21  5818   5.777   2.798   6.332
     GLN  HE22  5819   5.809   2.852   6.172
     GLN    CB  5820   6.060   2.719   6.076
     GLN   HB1  5821   5.968   2.731   6.016
     GLN   HB2  5822   6.064   2.622   6.130
     GLN    CG  5823   6.170   2.706   5.959
     GLN   HG1  5824   6.263   2.676   6.012
     GLN   HG2  5825   6.190   2.805   5.913
     GLN     C  5826   6.130   2.608   5.852
     GLN     O  5827   6.182   2.494   5.860
     LYS     N  5828   6.050   2.645   5.752
     LYS    HN  5829   6.032   2.578   5.680
     LYS    CA  5830   6.003   2.784   5.721
     LYS    HA  5831   5.980   2.843   5.809
     LYS    CB  5832   5.874   2.793   5.634
     LYS   HB1  5833   5.844   2.900   5.629
     LYS   HB2  5834   5.892   2.759   5.530
     LYS    CG  5835   5.763   2.714   5.699
     LYS   HG1  5836   5.781   2.605   5.689
     LYS   HG2  5837   5.771   2.732   5.808
     LYS    CD  5838   5.633   2.752   5.640
     LYS   HD1  5839   5.552   2.694   5.690
     LYS   HD2  5840   5.587   2.852   5.653
     LYS    CE  5841   5.630   2.739   5.488
     LYS   HE1  5842   5.537   2.776   5.440
     LYS   HE2  5843   5.707   2.808   5.447
     LYS    NZ  5844   5.674   2.606   5.444
     LYS   HZ1  5845   5.631   2.593   5.350
     LYS   HZ2  5846   5.650   2.525   5.504
     LYS   HZ3  5847   5.774   2.607   5.415
     LYS     C  5848   6.115   2.869   5.654
     LYS     O  5849   6.134   2.983   5.691
     DAL     N  5850   6.197   2.834   5.555
     DAL    HN  5851   6.264   2.904   5.531
     DAL    CA  5852   6.212   2.713   5.476
     DAL    HA  5853   6.122   2.653   5.481
     DAL    CB  5854   6.337   2.633   5.511
     DAL   HB1  5855   6.427   2.693   5.484
     DAL   HB2  5856   6.333   2.600   5.617
     DAL   HB3  5857   6.341   2.541   5.449
     DAL     C  5858   6.238   2.763   5.337
     DAL     O  5859   6.288   2.871   5.315
     DAL     N  5860   6.189   2.690   5.231
     DAL    HN  5861   6.199   2.735   5.142
     DAL    CA  5862   6.126   2.566   5.244
     DAL    HA  5863   6.149   2.513   5.335
     DAL    CB  5864   6.162   2.489   5.116
     DAL   HB1  5865   6.266   2.448   5.118
     DAL   HB2  5866   6.091   2.404   5.114
     DAL   HB3  5867   6.146   2.549   5.024
     DAL     C  5868   5.979   2.603   5.258
     DAL   OC1  5869   5.925   2.688   5.177
     DAL   OC2  5870   5.911   2.540   5.348
     NAG    C1  5871   6.560   4.374   6.398
     NAG    H1  5872   6.560   4.360   6.509
     NAG    C5  5873   6.388   4.211   6.385
     NAG    H5  5874   6.382   4.210   6.496
     NAG    O5  5875   6.433   4.341   6.348
     NAG    C2  5876   6.666   4.276   6.336
     NAG    H2  5877   6.664   4.281   6.225
     NAG    NC  5878   6.789   4.296   6.410
     NAG    HN  5879   6.789   4.315   6.508
     NAG    CM  5880   6.906   4.314   6.346
     NAG    OM  5881   6.908   4.349   6.227
     NAG    CC  5882   7.030   4.268   6.427
     NAG   HC1  5883   7.045   4.340   6.511
     NAG   HC2  5884   6.994   4.170   6.466
     NAG   HC3  5885   7.117   4.255   6.360
     NAG    C3  5886   6.623   4.136   6.374
     NAG    H3  5887   6.621   4.126   6.484
     NAG    O3  5888   6.718   4.044   6.322
     NAG   HO3  5889   6.707   3.968   6.379
     NAG    C4  5890   6.479   4.107   6.322
     NAG    H4  5891   6.479   4.121   6.212
     NAG    O4  5892   6.418   3.985   6.369
     NAG    C6  5893   6.248   4.191   6.339
     NAG   H61  5894   6.223   4.092   6.382
     NAG   H62  5895   6.254   4.189   6.228
     NAG    O6  5896   6.150   4.290   6.385
     NAG   HO6  5897   6.171   4.298   6.478
     NAM    C1  5898   6.578   4.898   6.325
     NAM    H1  5899   6.668   4.893   6.259
     NAM    C5  5900   6.662   4.708   6.432
     NAM    H5  5901   6.739   4.707   6.352
     NAM    O5  5902   6.615   4.843   6.453
     NAM    C2  5903   6.456   4.827   6.271
     NAM    H2  5904   6.377   4.846   6.347
     NAM    NC  5905   6.402   4.874   6.150
     NAM    HN  5906   6.449   4.844   6.067
     NAM    CM  5907   6.296   4.953   6.128
     NAM    OM  5908   6.218   5.001   6.211
     NAM    CC  5909   6.300   5.001   5.991
     NAM   HC1  5910   6.240   5.093   5.977
     NAM   HC2  5911   6.402   5.035   5.964
     NAM   HC3  5912   6.264   4.924   5.919
     NAM    C3  5913   6.491   4.677   6.262
     NAM    H3  5914   6.573   4.677   6.187
     NAM    O3  5915   6.388   4.597   6.198
     NAM    CA  5916   6.258   4.594   6.254
     NAM    HA  5917   6.250   4.490   6.228
     NAM     C  5918   6.150   4.652   6.159
     NAM     O  5919   6.174   4.668   6.038
     NAM    CB  5920   6.218   4.604   6.405
     NAM   HB1  5921   6.116   4.565   6.426
     NAM   HB2  5922   6.224   4.709   6.442
     NAM   HB3  5923   6.292   4.538   6.455
     NAM    C4  5924   6.554   4.616   6.381
     NAM    H4  5925   6.481   4.603   6.464
     NAM    O4  5926   6.610   4.490   6.342
     NAM    C6  5927   6.737   4.665   6.557
     NAM   H61  5928   6.817   4.738   6.582
     NAM   H62  5929   6.786   4.567   6.538
     NAM    O6  5930   6.664   4.652   6.681
     NAM   HO6  5931   6.617   4.569   6.691
     ALA     N  5932   6.022   4.678   6.204
     ALA    HN  5933   5.991   4.663   6.297
     ALA    CA  5934   5.925   4.743   6.116
     ALA    HA  5935   5.972   4.835   6.086
     ALA    CB  5936   5.793   4.763   6.190
     ALA   HB1  5937   5.809   4.831   6.276
     ALA   HB2  5938   5.764   4.665   6.233
     ALA   HB3  5939   5.716   4.812   6.127
     ALA     C  5940   5.894   4.674   5.986
     ALA     O  5941   5.906   4.552   5.984
     GLN     N  5942   5.847   4.746   5.871
     GLN    HN  5943   5.814   4.691   5.795
     GLN    CA  5944   5.821   4.892   5.872
     GLN    HA  5945   5.800   4.924   5.973
     GLN    CD  5946   5.959   4.963   5.831
     GLN   OE1  5947   5.986   5.067   5.887
     GLN   NE2  5948   6.041   4.913   5.732
     GLN  HE21  5949   6.122   4.968   5.712
     GLN  HE22  5950   6.031   4.821   5.693
     GLN    CB  5951   5.723   4.926   5.766
     GLN   HB1  5952   5.748   4.862   5.678
     GLN   HB2  5953   5.727   5.032   5.731
     GLN    CG  5954   5.578   4.885   5.799
     GLN   HG1  5955   5.590   4.775   5.810
     GLN   HG2  5956   5.511   4.914   5.715
     GLN     C  5957   5.515   4.935   5.926
     GLN     O  5958   5.492   4.849   6.011
     LYS     N  5959   5.494   5.064   5.945
     LYS    HN  5960   5.473   5.085   6.040
     LYS    CA  5961   5.489   5.182   5.851
     LYS    HA  5962   5.589   5.177   5.810
     LYS    CB  5963   5.465   5.309   5.940
     LYS   HB1  5964   5.446   5.402   5.882
     LYS   HB2  5965   5.376   5.297   6.005
     LYS    CG  5966   5.588   5.347   6.020
     LYS   HG1  5967   5.568   5.428   6.093
     LYS   HG2  5968   5.618   5.259   6.081
     LYS    CD  5969   5.700   5.397   5.933
     LYS   HD1  5970   5.728   5.315   5.863
     LYS   HD2  5971   5.661   5.482   5.872
     LYS    CE  5972   5.828   5.438   5.998
     LYS   HE1  5973   5.808   5.517   6.073
     LYS   HE2  5974   5.869   5.348   6.050
     LYS    NZ  5975   5.928   5.491   5.907
     LYS   HZ1  5976   5.896   5.572   5.851
     LYS     C  5977   5.388   5.178   5.731
     LYS     O  5978   5.306   5.086   5.723
     GLY     C  5979   6.298   4.743   6.775
     GLY     O  5980   6.397   4.692   6.826
     GLY    CA  5981   6.301   4.818   6.642
     GLY   HA1  5982   6.390   4.789   6.585
     GLY   HA2  5983   6.302   4.926   6.660
     GLY     N  5984   6.183   4.785   6.564
     GLY    HN  5985   6.117   4.720   6.604
     GLY     C  5986   6.160   4.658   6.528
     GLY     O  5987   6.242   4.575   6.565
     GLY    CA  5988   6.036   4.624   6.446
     GLY   HA1  5989   6.013   4.517   6.457
     GLY   HA2  5990   6.053   4.647   6.341
     GLY     N  5991   5.923   4.701   6.493
     GLY    HN  5992   5.938   4.765   6.571
     GLY     C  5993   5.881   4.688   6.620
     GLY     O  5994   5.944   4.610   6.691
     GLY    CA  5995   5.762   4.769   6.669
     GLY   HA1  5996   5.764   4.776   6.779
     GLY   HA2  5997   5.669   4.722   6.637
     GLY     N  5998   5.767   4.903   6.615
     GLY    HN  5999   5.845   4.927   6.554
     GLY     C  6000   5.872   4.982   6.641
     GLY     O  6001   5.960   4.934   6.712
     GLY    CA  6002   5.878   5.124   6.584
     GLY   HA1  6003   5.981   5.159   6.584
     GLY   HA2  6004   5.816   5.191   6.644
     GLY     N  6005   5.828   5.124   6.448
     GLY    HN  6006   5.798   5.035   6.409
     GLY     C  6007   5.889   5.049   6.354
     GLY     O  6008   5.986   4.983   6.391
     GLY    CA  6009   5.837   5.049   6.211
     GLY   HA1  6010   5.872   4.959   6.159
     GLY   HA2  6011   5.872   5.138   6.159
     GLY     N  6012   5.692   5.049   6.211
     GLY    HN  6013   5.641   5.057   6.123
     DAL     N  6014   5.388   5.275   5.634
     DAL    HN  6015   5.308   5.265   5.575
     DAL    CA  6016   5.480   5.374   5.600
     DAL    HA  6017   5.474   5.452   5.674
     DAL    CB  6018   5.431   5.437   5.465
     DAL   HB1  6019   5.493   5.526   5.437
     DAL   HB2  6020   5.429   5.359   5.386
     DAL   HB3  6021   5.325   5.468   5.477
     DAL     C  6022   5.628   5.336   5.588
     DAL     O  6023   5.665   5.222   5.595
     DAL     N  6024   5.732   5.429   5.581
     DAL    HN  6025   5.824   5.391   5.579
     DAL    CA  6026   5.719   5.574   5.560
     DAL    HA  6027   5.620   5.609   5.586
     DAL    CB  6028   5.745   5.622   5.420
     DAL   HB1  6029   5.853   5.618   5.397
     DAL   HB2  6030   5.683   5.559   5.352
     DAL   HB3  6031   5.723   5.730   5.409
     DAL     C  6032   5.830   5.628   5.654
     DAL   OC1  6033   5.801   5.677   5.767
     DAL   OC2  6034   5.949   5.608   5.612
     NAG    C1  6035   6.665   5.416   6.343
     NAG    H1  6036   6.559   5.447   6.331
     NAG    C5  6037   6.629   5.222   6.216
     NAG    H5  6038   6.524   5.256   6.206
     NAG    O5  6039   6.718   5.331   6.240
     NAG    C2  6040   6.694   5.331   6.467
     NAG    H2  6041   6.798   5.293   6.463
     NAG    NC  6042   6.662   5.410   6.585
     NAG    HN  6043   6.568   5.423   6.617
     NAG    CM  6044   6.751   5.478   6.663
     NAG    OM  6045   6.869   5.481   6.643
     NAG    CC  6046   6.698   5.557   6.783
     NAG   HC1  6047   6.740   5.497   6.867
     NAG   HC2  6048   6.745   5.657   6.783
     NAG   HC3  6049   6.590   5.582   6.788
     NAG    C3  6050   6.599   5.215   6.469
     NAG    H3  6051   6.492   5.245   6.465
     NAG    O3  6052   6.603   5.137   6.581
     NAG   HO3  6053   6.513   5.123   6.611
     NAG    C4  6054   6.631   5.133   6.340
     NAG    H4  6055   6.735   5.094   6.346
     NAG    O4  6056   6.532   5.028   6.327
     NAG    C6  6057   6.678   5.152   6.089
     NAG   H61  6058   6.617   5.060   6.078
     NAG   H62  6059   6.788   5.135   6.094
     NAG    O6  6060   6.660   5.230   5.974
     NAG   HO6  6061   6.719   5.209   5.901
     NAM    C1  6062   6.818   5.919   6.231
     NAM    H1  6063   6.912   5.897   6.286
     NAM    C5  6064   6.709   5.756   6.375
     NAM    H5  6065   6.791   5.739   6.447
     NAM    O5  6066   6.708   5.889   6.313
     NAM    C2  6067   6.804   5.825   6.109
     NAM    H2  6068   6.703   5.838   6.064
     NAM    NC  6069   6.914   5.833   6.021
     NAM    HN  6070   6.995   5.783   6.052
     NAM    CM  6071   6.919   5.881   5.902
     NAM    OM  6072   6.822   5.936   5.854
     NAM    CC  6073   7.046   5.841   5.834
     NAM   HC1  6074   7.057   5.731   5.820
     NAM   HC2  6075   7.052   5.888   5.734
     NAM   HC3  6076   7.123   5.885   5.901
     NAM    C3  6077   6.818   5.676   6.162
     NAM    H3  6078   6.911   5.691   6.222
     NAM    O3  6079   6.836   5.576   6.068
     NAM    CA  6080   6.738   5.555   5.964
     NAM    HA  6081   6.777   5.457   5.985
     NAM     C  6082   6.785   5.583   5.820
     NAM     O  6083   6.902   5.574   5.788
     NAM    CB  6084   6.583   5.555   5.982
     NAM   HB1  6085   6.550   5.496   6.070
     NAM   HB2  6086   6.527   5.523   5.891
     NAM   HB3  6087   6.548   5.659   6.002
     NAM    C4  6088   6.707   5.647   6.270
     NAM    H4  6089   6.604   5.633   6.232
     NAM    O4  6090   6.740   5.528   6.346
     NAM    C6  6091   6.580   5.766   6.458
     NAM   H61  6092   6.568   5.663   6.498
     NAM   H62  6093   6.489   5.796   6.401
     NAM    O6  6094   6.596   5.869   6.558
     NAM   HO6  6095   6.522   5.859   6.618
     ALA     N  6096   6.692   5.639   5.744
     ALA    HN  6097   6.599   5.647   5.780
     ALA    CA  6098   6.719   5.691   5.610
     ALA    HA  6099   6.800   5.762   5.623
     ALA    CB  6100   6.596   5.771   5.557
     ALA   HB1  6101   6.565   5.861   5.615
     ALA   HB2  6102   6.505   5.708   5.557
     ALA   HB3  6103   6.615   5.796   5.450
     ALA     C  6104   6.766   5.588   5.501
     ALA     O  6105   6.743   5.472   5.513
     GLN     N  6106   6.822   5.633   5.389
     GLN    HN  6107   6.838   5.559   5.324
     GLN    CA  6108   6.883   5.764   5.366
     GLN    HA  6109   6.815   5.844   5.392
     GLN    CD  6110   7.015   5.783   5.449
     GLN   OE1  6111   7.068   5.680   5.486
     GLN   NE2  6112   7.053   5.908   5.471
     GLN  HE21  6113   7.135   5.944   5.515
     GLN  HE22  6114   6.998   5.980   5.429
     GLN    CB  6115   6.920   5.788   5.210
     GLN   HB1  6116   7.011   5.728   5.190
     GLN   HB2  6117   6.941   5.895   5.191
     GLN    CG  6118   6.809   5.738   5.121
     GLN   HG1  6119   6.711   5.772   5.162
     GLN   HG2  6120   6.811   5.630   5.094
     GLN     C  6121   6.806   5.799   4.978
     GLN     O  6122   6.719   5.882   4.952
     LYS     N  6123   6.892   5.758   4.885
     LYS    HN  6124   6.884   5.798   4.794
     LYS    CA  6125   6.986   5.657   4.886
     LYS    HA  6126   7.044   5.674   4.976
     LYS    CB  6127   7.084   5.677   4.759
     LYS   HB1  6128   7.152   5.591   4.741
     LYS   HB2  6129   7.020   5.694   4.669
     LYS    CG  6130   7.154   5.816   4.770
     LYS   HG1  6131   7.191   5.840   4.668
     LYS   HG2  6132   7.085   5.901   4.789
     LYS    CD  6133   7.282   5.821   4.859
     LYS   HD1  6134   7.231   5.797   4.955
     LYS   HD2  6135   7.343   5.732   4.833
     LYS    CE  6136   7.351   5.954   4.874
     LYS   HE1  6137   7.409   5.985   4.784
     LYS   HE2  6138   7.279   6.033   4.903
     LYS    NZ  6139   7.435   5.943   4.988
     LYS   HZ1  6140   7.536   5.924   4.969
     LYS     C  6141   6.935   5.513   4.883
     LYS     O  6142   6.831   5.478   4.820
     GLY     C  6143   7.525   5.776   5.716
     GLY     O  6144   7.624   5.725   5.767
     GLY    CA  6145   7.528   5.851   5.583
     GLY   HA1  6146   7.617   5.822   5.526
     GLY   HA2  6147   7.529   5.959   5.601
     GLY     N  6148   7.410   5.818   5.505
     GLY    HN  6149   7.344   5.753   5.545
     GLY     C  6150   7.387   5.691   5.469
     GLY     O  6151   7.469   5.608   5.506
     GLY    CA  6152   7.263   5.657   5.387
     GLY   HA1  6153   7.240   5.550   5.398
     GLY   HA2  6154   7.280   5.680   5.282
     GLY     N  6155   7.150   5.734   5.434
     GLY    HN  6156   7.165   5.798   5.512
     GLY     C  6157   7.108   5.721   5.561
     GLY     O  6158   7.171   5.643   5.632
     GLY    CA  6159   6.989   5.802   5.610
     GLY   HA1  6160   6.991   5.809   5.720
     GLY   HA2  6161   6.896   5.755   5.578
     GLY     N  6162   6.994   5.936   5.556
     GLY    HN  6163   7.072   5.960   5.495
     GLY     C  6164   7.099   6.015   5.582
     GLY     O  6165   7.187   5.967   5.653
     GLY    CA  6166   7.105   6.157   5.525
     GLY   HA1  6167   7.208   6.192   5.525
     GLY   HA2  6168   7.043   6.224   5.585
     GLY     N  6169   7.055   6.157   5.389
     GLY    HN  6170   7.025   6.068   5.350
     GLY     C  6171   7.116   6.082   5.295
     GLY     O  6172   7.213   6.016   5.332
     GLY    CA  6173   7.064   6.082   5.152
     GLY   HA1  6174   7.099   5.992   5.100
     GLY   HA2  6175   7.099   6.171   5.100
     GLY     N  6176   6.919   6.082   5.152
     GLY    HN  6177   6.868   6.090   5.064
     DAL     N  6178   7.002   5.407   4.943
     DAL    HN  6179   6.962   5.319   4.920
     DAL    CA  6180   7.122   5.412   5.026
     DAL    HA  6181   7.190   5.482   4.979
     DAL    CB  6182   7.176   5.269   5.024
     DAL   HB1  6183   7.266   5.268   5.088
     DAL   HB2  6184   7.100   5.202   5.069
     DAL   HB3  6185   7.182   5.221   4.924
     DAL     C  6186   7.086   5.465   5.161
     DAL     O  6187   6.973   5.461   5.201
     DAL     N  6188   7.180   5.525   5.233
     DAL    HN  6189   7.146   5.576   5.311
     DAL    CA  6190   7.320   5.533   5.202
     DAL    HA  6191   7.348   5.460   5.127
     DAL    CB  6192   7.408   5.504   5.319
     DAL   HB1  6193   7.398   5.398   5.352
     DAL   HB2  6194   7.513   5.519   5.286
     DAL   HB3  6195   7.385   5.572   5.404
     DAL     C  6196   7.361   5.677   5.157
     DAL   OC1  6197   7.319   5.787   5.201
     DAL   OC2  6198   7.447   5.677   5.063
     NAG    C1  6199   6.857   6.441   6.303
     NAG    H1  6200   6.761   6.478   6.259
     NAG    C5  6201   6.888   6.272   6.138
     NAG    H5  6202   6.788   6.310   6.112
     NAG    O5  6203   6.945   6.382   6.207
     NAG    C2  6204   6.852   6.336   6.411
     NAG    H2  6205   6.954   6.307   6.443
     NAG    NC  6206   6.786   6.376   6.529
     NAG    HN  6207   6.838   6.365   6.613
     NAG    CM  6208   6.660   6.416   6.528
     NAG    OM  6209   6.581   6.392   6.436
     NAG    CC  6210   6.609   6.484   6.652
     NAG   HC1  6211   6.504   6.516   6.639
     NAG   HC2  6212   6.617   6.411   6.735
     NAG   HC3  6213   6.684   6.559   6.685
     NAG    C3  6214   6.799   6.200   6.363
     NAG    H3  6215   6.695   6.217   6.326
     NAG    O3  6216   6.806   6.093   6.469
     NAG   HO3  6217   6.757   6.020   6.431
     NAG    C4  6218   6.874   6.158   6.239
     NAG    H4  6219   6.981   6.143   6.265
     NAG    O4  6220   6.813   6.052   6.178
     NAG    C6  6221   6.960   6.248   6.010
     NAG   H61  6222   6.900   6.177   5.949
     NAG   H62  6223   7.048   6.185   6.034
     NAG    O6  6224   6.995   6.371   5.942
     NAG   HO6  6225   6.918   6.412   5.901
     NAM    C1  6226   6.984   6.961   6.275
     NAM    H1  6227   6.999   6.974   6.384
     NAM    C5  6228   6.830   6.788   6.332
     NAM    H5  6229   6.861   6.807   6.437
     NAM    O5  6230   6.851   6.904   6.256
     NAM    C2  6231   7.088   6.871   6.221
     NAM    H2  6232   7.074   6.872   6.110
     NAM    NC  6233   7.211   6.937   6.253
     NAM    HN  6234   7.261   6.909   6.334
     NAM    CM  6235   7.295   7.017   6.181
     NAM    OM  6236   7.286   7.040   6.063
     NAM    CC  6237   7.423   7.054   6.256
     NAM   HC1  6238   7.419   7.164   6.264
     NAM   HC2  6239   7.424   7.008   6.357
     NAM   HC3  6240   7.515   7.026   6.199
     NAM    C3  6241   7.072   6.737   6.282
     NAM    H3  6242   7.100   6.751   6.389
     NAM    O3  6243   7.170   6.640   6.245
     NAM    CA  6244   7.175   6.592   6.115
     NAM    HA  6245   7.081   6.539   6.105
     NAM     C  6246   7.280   6.480   6.115
     NAM     O  6247   7.378   6.482   6.187
     NAM    CB  6248   7.202   6.683   5.990
     NAM   HB1  6249   7.106   6.727   5.954
     NAM   HB2  6250   7.241   6.627   5.902
     NAM   HB3  6251   7.271   6.767   6.008
     NAM    C4  6252   6.931   6.680   6.278
     NAM    H4  6253   6.896   6.663   6.174
     NAM    O4  6254   6.921   6.559   6.358
     NAM    C6  6255   6.682   6.750   6.317
     NAM   H61  6256   6.618   6.835   6.350
     NAM   H62  6257   6.659   6.673   6.394
     NAM    O6  6258   6.644   6.699   6.187
     NAM   HO6  6259   6.658   6.764   6.118
     ALA     N  6260   7.266   6.371   6.042
     ALA    HN  6261   7.181   6.363   5.991
     ALA    CA  6262   7.362   6.267   6.030
     ALA    HA  6263   7.462   6.308   6.022
     ALA    CB  6264   7.336   6.188   5.898
     ALA   HB1  6265   7.227   6.198   5.878
     ALA   HB2  6266   7.367   6.081   5.896
     ALA   HB3  6267   7.383   6.252   5.820
     ALA     C  6268   7.344   6.169   6.155
     ALA     O  6269   7.238   6.146   6.207
     GLN     N  6270   7.446   6.099   6.208
     GLN    HN  6271   7.416   6.042   6.284
     GLN    CA  6272   7.581   6.091   6.154
     GLN    HA  6273   7.585   6.125   6.052
     GLN    CD  6274   7.668   6.193   6.235
     GLN   OE1  6275   7.725   6.291   6.174
     GLN   NE2  6276   7.691   6.174   6.364
     GLN  HE21  6277   7.759   6.230   6.412
     GLN  HE22  6278   7.654   6.099   6.418
     GLN    CB  6279   7.636   5.941   6.165
     GLN   HB1  6280   7.619   5.911   6.270
     GLN   HB2  6281   7.744   5.943   6.138
     GLN    CG  6282   7.561   5.849   6.067
     GLN   HG1  6283   7.552   5.883   5.962
     GLN   HG2  6284   7.455   5.855   6.101
     GLN     C  6285   7.619   5.710   6.056
     GLN     O  6286   7.684   5.676   5.959
     LYS     N  6287   7.598   5.614   6.147
     LYS    HN  6288   7.628   5.527   6.107
     LYS    CA  6289   7.511   5.618   6.260
     LYS    HA  6290   7.473   5.718   6.273
     LYS    CB  6291   7.578   5.564   6.388
     LYS   HB1  6292   7.504   5.585   6.469
     LYS   HB2  6293   7.589   5.454   6.382
     LYS    CG  6294   7.717   5.631   6.409
     LYS   HG1  6295   7.783   5.586   6.332
     LYS   HG2  6296   7.714   5.738   6.379
     LYS    CD  6297   7.770   5.610   6.549
     LYS   HD1  6298   7.766   5.500   6.566
     LYS   HD2  6299   7.880   5.629   6.553
     LYS    CE  6300   7.703   5.686   6.669
     LYS   HE1  6301   7.614   5.623   6.692
     LYS   HE2  6302   7.767   5.688   6.759
     LYS    NZ  6303   7.663   5.825   6.631
     LYS   HZ1  6304   7.669   5.888   6.714
     LYS   HZ2  6305   7.573   5.818   6.579
     LYS   HZ3  6306   7.733   5.873   6.570
     LYS     C  6307   7.399   5.522   6.213
     LYS     O  6308   7.422   5.431   6.130
     DAL     N  6309   7.269   5.531   6.255
     DAL    HN  6310   7.190   5.476   6.229
     DAL    CA  6311   7.225   5.635   6.339
     DAL    HA  6312   7.294   5.665   6.416
     DAL    CB  6313   7.103   5.589   6.423
     DAL   HB1  6314   7.020   5.569   6.351
     DAL   HB2  6315   7.123   5.496   6.480
     DAL   HB3  6316   7.070   5.666   6.496
     DAL     C  6317   7.192   5.770   6.262
     DAL     O  6318   7.161   5.766   6.149
     DAL     N  6319   7.208   5.887   6.317
     DAL    HN  6320   7.233   5.962   6.256
     DAL    CA  6321   7.223   5.907   6.467
     DAL    HA  6322   7.172   5.827   6.519
     DAL    CB  6323   7.164   6.042   6.512
     DAL   HB1  6324   7.069   6.073   6.465
     DAL   HB2  6325   7.143   6.047   6.621
     DAL   HB3  6326   7.237   6.124   6.496
     DAL     C  6327   7.364   5.891   6.515
     DAL   OC1  6328   7.466   5.932   6.449
     DAL   OC2  6329   7.382   5.823   6.619
     NAG    C1  6330   6.845   7.471   6.271
     NAG    H1  6331   6.922   7.486   6.192
     NAG    C5  6332   6.994   7.293   6.336
     NAG    H5  6333   7.061   7.328   6.254
     NAG    O5  6334   6.918   7.411   6.381
     NAG    C2  6335   6.732   7.373   6.229
     NAG    H2  6336   6.667   7.364   6.318
     NAG    NC  6337   6.657   7.429   6.119
     NAG    HN  6338   6.702   7.441   6.031
     NAG    CM  6339   6.531   7.477   6.122
     NAG    OM  6340   6.464   7.486   6.223
     NAG    CC  6341   6.495   7.519   5.976
     NAG   HC1  6342   6.463   7.625   5.968
     NAG   HC2  6343   6.584   7.514   5.910
     NAG   HC3  6344   6.419   7.445   5.941
     NAG    C3  6345   6.791   7.236   6.183
     NAG    H3  6346   6.843   7.250   6.086
     NAG    O3  6347   6.685   7.140   6.175
     NAG   HO3  6348   6.711   7.048   6.162
     NAG    C4  6349   6.898   7.186   6.284
     NAG    H4  6350   6.849   7.144   6.375
     NAG    O4  6351   6.984   7.092   6.220
     NAG    C6  6352   7.071   7.233   6.449
     NAG   H61  6353   7.088   7.123   6.449
     NAG   H62  6354   7.012   7.259   6.540
     NAG    O6  6355   7.199   7.299   6.468
     NAG   HO6  6356   7.190   7.342   6.554
     NAM    C1  6357   6.814   7.985   6.420
     NAM    H1  6358   6.714   7.971   6.465
     NAM    C5  6359   6.756   7.823   6.257
     NAM    H5  6360   6.661   7.823   6.314
     NAM    O5  6361   6.813   7.953   6.284
     NAM    C2  6362   6.916   7.898   6.479
     NAM    H2  6363   7.011   7.927   6.429
     NAM    NC  6364   6.920   7.937   6.623
     NAM    HN  6365   6.851   7.895   6.681
     NAM    CM  6366   7.022   7.986   6.701
     NAM    OM  6367   7.136   8.005   6.656
     NAM    CC  6368   6.977   8.028   6.838
     NAM   HC1  6369   7.021   8.123   6.875
     NAM   HC2  6370   6.872   8.062   6.834
     NAM   HC3  6371   6.994   7.949   6.914
     NAM    C3  6372   6.885   7.753   6.463
     NAM    H3  6373   6.792   7.745   6.523
     NAM    O3  6374   6.973   7.666   6.529
     NAM    CA  6375   7.111   7.652   6.489
     NAM    HA  6376   7.105   7.554   6.444
     NAM     C  6377   7.163   7.625   6.634
     NAM     O  6378   7.143   7.513   6.685
     NAM    CB  6379   7.200   7.757   6.420
     NAM   HB1  6380   7.209   7.858   6.465
     NAM   HB2  6381   7.141   7.777   6.328
     NAM   HB3  6382   7.299   7.715   6.391
     NAM    C4  6383   6.854   7.720   6.315
     NAM    H4  6384   6.950   7.717   6.259
     NAM    O4  6385   6.785   7.588   6.312
     NAM    C6  6386   6.732   7.804   6.109
     NAM   H61  6387   6.756   7.699   6.080
     NAM   H62  6388   6.806   7.865   6.055
     NAM    O6  6389   6.596   7.837   6.081
     NAM   HO6  6390   6.587   7.919   6.032
     ALA     N  6391   7.215   7.727   6.715
     ALA    HN  6392   7.206   7.823   6.690
     ALA    CA  6393   7.272   7.711   6.844
     ALA    HA  6394   7.190   7.675   6.904
     ALA    CB  6395   7.310   7.845   6.908
     ALA   HB1  6396   7.394   7.895   6.854
     ALA   HB2  6397   7.344   7.836   7.013
     ALA   HB3  6398   7.224   7.915   6.911
     ALA     C  6399   7.386   7.611   6.864
     ALA     O  6400   7.476   7.607   6.777
     GLN     N  6401   7.381   7.524   6.966
     GLN    HN  6402   7.450   7.452   6.969
     GLN    CA  6403   7.287   7.499   7.072
     GLN    HA  6404   7.338   7.431   7.139
     GLN    CD  6405   7.255   7.612   7.164
     GLN   OE1  6406   7.143   7.656   7.192
     GLN   NE2  6407   7.371   7.672   7.214
     GLN  HE21  6408   7.372   7.751   7.275
     GLN  HE22  6409   7.459   7.631   7.188
     GLN    CB  6410   7.150   7.434   7.030
     GLN   HB1  6411   7.103   7.508   6.962
     GLN   HB2  6412   7.079   7.417   7.114
     GLN    CG  6413   7.186   7.304   6.963
     GLN   HG1  6414   7.261   7.244   7.019
     GLN   HG2  6415   7.229   7.312   6.860
     GLN     C  6416   7.062   7.213   6.935
     GLN     O  6417   6.981   7.244   6.843
     LYS     N  6418   7.041   7.104   7.012
     LYS    HN  6419   6.969   7.042   6.979
     LYS    CA  6420   7.102   7.049   7.131
     LYS    HA  6421   7.208   7.045   7.113
     LYS    CB  6422   7.045   6.904   7.162
     LYS   HB1  6423   7.087   6.863   7.256
     LYS   HB2  6424   6.934   6.903   7.170
     LYS    CG  6425   7.068   6.799   7.047
     LYS   HG1  6426   7.040   6.853   6.954
     LYS   HG2  6427   7.175   6.769   7.043
     LYS    CD  6428   6.980   6.672   7.054
     LYS   HD1  6429   6.876   6.708   7.043
     LYS   HD2  6430   6.998   6.619   6.958
     LYS    CE  6431   6.985   6.598   7.190
     LYS   HE1  6432   6.962   6.667   7.274
     LYS   HE2  6433   6.914   6.513   7.196
     LYS    NZ  6434   7.119   6.542   7.229
     LYS   HZ1  6435   7.195   6.613   7.232
     LYS     C  6436   7.064   7.138   7.247
     LYS     O  6437   6.988   7.231   7.229
     GLY     C  6438   7.787   7.138   7.607
     GLY     O  6439   7.886   7.087   7.658
     GLY    CA  6440   7.790   7.213   7.474
     GLY   HA1  6441   7.879   7.184   7.417
     GLY   HA2  6442   7.791   7.321   7.492
     GLY     N  6443   7.672   7.180   7.396
     GLY    HN  6444   7.606   7.115   7.436
     GLY     C  6445   7.649   7.053   7.360
     GLY     O  6446   7.731   6.970   7.397
     GLY    CA  6447   7.525   7.019   7.278
     GLY   HA1  6448   7.502   6.912   7.289
     GLY   HA2  6449   7.542   7.042   7.173
     GLY     N  6450   7.412   7.096   7.325
     GLY    HN  6451   7.427   7.160   7.403
     GLY     C  6452   7.370   7.083   7.452
     GLY     O  6453   7.433   7.005   7.523
     GLY    CA  6454   7.251   7.164   7.501
     GLY   HA1  6455   7.253   7.171   7.611
     GLY   HA2  6456   7.158   7.117   7.469
     GLY     N  6457   7.256   7.298   7.447
     GLY    HN  6458   7.334   7.322   7.386
     GLY     C  6459   7.361   7.377   7.473
     GLY     O  6460   7.449   7.329   7.544
     GLY    CA  6461   7.367   7.519   7.416
     GLY   HA1  6462   7.470   7.554   7.416
     GLY   HA2  6463   7.305   7.586   7.476
     GLY     N  6464   7.317   7.519   7.280
     GLY    HN  6465   7.287   7.430   7.241
     GLY     C  6466   7.378   7.444   7.186
     GLY     O  6467   7.475   7.378   7.223
     GLY    CA  6468   7.326   7.444   7.043
     GLY   HA1  6469   7.361   7.354   6.991
     GLY   HA2  6470   7.361   7.533   6.991
     GLY     N  6471   7.181   7.444   7.043
     GLY    HN  6472   7.130   7.452   6.955
     DAL     N  6473   7.121   7.124   7.361
     DAL    HN  6474   7.072   7.172   7.434
     DAL    CA  6475   7.248   7.084   7.414
     DAL    HA  6476   7.225   6.986   7.454
     DAL    CB  6477   7.296   7.159   7.538
     DAL   HB1  6478   7.217   7.140   7.613
     DAL   HB2  6479   7.385   7.119   7.590
     DAL   HB3  6480   7.310   7.266   7.511
     DAL     C  6481   7.358   7.069   7.317
     DAL     O  6482   7.378   7.152   7.226
     DAL     N  6483   7.431   6.958   7.321
     DAL    HN  6484   7.496   6.948   7.246
     DAL    CA  6485   7.429   6.859   7.425
     DAL    HA  6486   7.400   6.897   7.521
     DAL    CB  6487   7.563   6.788   7.439
     DAL   HB1  6488   7.533   6.716   7.518
     DAL   HB2  6489   7.611   6.740   7.351
     DAL   HB3  6490   7.648   6.852   7.472
     DAL     C  6491   7.321   6.755   7.379
     DAL   OC1  6492   7.225   6.724   7.453
     DAL   OC2  6493   7.339   6.692   7.269
     NAG    C1  6494   6.747   8.514   6.375
     NAG    H1  6495   6.850   8.544   6.347
     NAG    C5  6496   6.835   8.343   6.515
     NAG    H5  6497   6.938   8.371   6.484
     NAG    O5  6498   6.741   8.456   6.506
     NAG    C2  6499   6.688   8.414   6.279
     NAG    H2  6500   6.580   8.403   6.302
     NAG    NC  6501   6.708   8.485   6.155
     NAG    HN  6502   6.799   8.496   6.118
     NAG    CM  6503   6.605   8.545   6.089
     NAG    OM  6504   6.485   8.535   6.107
     NAG    CC  6505   6.659   8.623   5.960
     NAG   HC1  6506   6.627   8.730   5.965
     NAG   HC2  6507   6.770   8.623   5.952
     NAG   HC3  6508   6.621   8.579   5.866
     NAG    C3  6509   6.760   8.276   6.281
     NAG    H3  6510   6.858   8.293   6.231
     NAG    O3  6511   6.685   8.184   6.208
     NAG   HO3  6512   6.726   8.101   6.230
     NAG    C4  6513   6.777   8.229   6.422
     NAG    H4  6514   6.676   8.208   6.463
     NAG    O4  6515   6.861   8.119   6.433
     NAG    C6  6516   6.845   8.316   6.663
     NAG   H61  6517   6.897   8.394   6.722
     NAG   H62  6518   6.916   8.232   6.671
     NAG    O6  6519   6.725   8.279   6.723
     NAG   HO6  6520   6.726   8.328   6.806
     NAM    C1  6521   6.665   9.035   6.474
     NAM    H1  6522   6.571   9.053   6.418
     NAM    C5  6523   6.722   8.842   6.337
     NAM    H5  6524   6.626   8.862   6.285
     NAM    O5  6525   6.767   8.967   6.396
     NAM    C2  6526   6.638   8.945   6.596
     NAM    H2  6527   6.738   8.942   6.643
     NAM    NC  6528   6.535   8.989   6.686
     NAM    HN  6529   6.444   8.953   6.669
     NAM    CM  6530   6.564   9.068   6.799
     NAM    OM  6531   6.676   9.103   6.826
     NAM    CC  6532   6.443   9.112   6.878
     NAM   HC1  6533   6.365   9.035   6.862
     NAM   HC2  6534   6.480   9.133   6.980
     NAM   HC3  6535   6.403   9.203   6.829
     NAM    C3  6536   6.588   8.806   6.539
     NAM    H3  6537   6.492   8.822   6.484
     NAM    O3  6538   6.542   8.718   6.641
     NAM    CA  6539   6.628   8.659   6.737
     NAM    HA  6540   6.655   8.559   6.708
     NAM     C  6541   6.517   8.644   6.838
     NAM     O  6542   6.419   8.575   6.810
     NAM    CB  6543   6.747   8.734   6.806
     NAM   HB1  6544   6.830   8.766   6.741
     NAM   HB2  6545   6.781   8.666   6.887
     NAM   HB3  6546   6.715   8.828   6.857
     NAM    C4  6547   6.692   8.743   6.442
     NAM    H4  6548   6.785   8.728   6.501
     NAM    O4  6549   6.654   8.619   6.387
     NAM    C6  6550   6.832   8.809   6.230
     NAM   H61  6551   6.803   8.710   6.190
     NAM   H62  6552   6.928   8.797   6.284
     NAM    O6  6553   6.846   8.907   6.130
     NAM   HO6  6554   6.931   8.950   6.145
     ALA     N  6555   6.523   8.707   6.961
     ALA    HN  6556   6.599   8.771   6.977
     ALA    CA  6557   6.426   8.699   7.065
     ALA    HA  6558   6.331   8.699   7.013
     ALA    CB  6559   6.444   8.829   7.148
     ALA   HB1  6560   6.418   8.922   7.092
     ALA   HB2  6561   6.553   8.828   7.167
     ALA   HB3  6562   6.391   8.828   7.246
     ALA     C  6563   6.449   8.570   7.142
     ALA     O  6564   6.550   8.505   7.138
     GLN     N  6565   6.357   8.536   7.229
     GLN    HN  6566   6.382   8.451   7.275
     GLN    CA  6567   6.218   8.587   7.243
     GLN    HA  6568   6.201   8.682   7.194
     GLN    CD  6569   6.122   8.492   7.166
     GLN   OE1  6570   6.043   8.535   7.080
     GLN   NE2  6571   6.116   8.366   7.219
     GLN  HE21  6572   6.042   8.305   7.190
     GLN  HE22  6573   6.179   8.335   7.290
     GLN    CB  6574   6.190   8.602   7.389
     GLN   HB1  6575   6.243   8.690   7.431
     GLN   HB2  6576   6.232   8.518   7.449
     GLN    CG  6577   6.038   8.627   7.415
     GLN   HG1  6578   5.973   8.551   7.369
     GLN   HG2  6579   6.007   8.714   7.353
     GLN     C  6580   5.999   8.638   7.557
     GLN     O  6581   5.988   8.533   7.625
     LYS     N  6582   5.978   8.755   7.620
     LYS    HN  6583   5.965   8.748   7.718
     LYS    CA  6584   5.975   8.891   7.562
     LYS    HA  6585   6.068   8.902   7.508
     LYS    CB  6586   5.980   8.996   7.671
     LYS   HB1  6587   5.962   9.099   7.635
     LYS   HB2  6588   5.889   8.980   7.733
     LYS    CG  6589   6.105   8.994   7.749
     LYS   HG1  6590   6.114   8.893   7.793
     LYS   HG2  6591   6.197   9.017   7.691
     LYS    CD  6592   6.100   9.091   7.872
     LYS   HD1  6593   6.011   9.062   7.932
     LYS   HD2  6594   6.193   9.072   7.931
     LYS    CE  6595   6.084   9.243   7.835
     LYS   HE1  6596   5.988   9.274   7.787
     LYS   HE2  6597   6.083   9.281   7.939
     LYS    NZ  6598   6.199   9.302   7.766
     LYS   HZ1  6599   6.203   9.275   7.666
     LYS     C  6600   5.850   8.909   7.476
     LYS     O  6601   5.749   8.838   7.498
     GLY     C  6602   6.794   8.427   8.389
     GLY     O  6603   6.893   8.376   8.440
     GLY    CA  6604   6.797   8.502   8.256
     GLY   HA1  6605   6.886   8.473   8.199
     GLY   HA2  6606   6.798   8.610   8.274
     GLY     N  6607   6.679   8.469   8.178
     GLY    HN  6608   6.613   8.404   8.218
     GLY     C  6609   6.656   8.342   8.142
     GLY     O  6610   6.738   8.259   8.179
     GLY    CA  6611   6.532   8.308   8.060
     GLY   HA1  6612   6.509   8.201   8.071
     GLY   HA2  6613   6.549   8.331   7.955
     GLY     N  6614   6.419   8.385   8.107
     GLY    HN  6615   6.434   8.449   8.185
     GLY     C  6616   6.377   8.372   8.234
     GLY     O  6617   6.440   8.294   8.305
     GLY    CA  6618   6.258   8.453   8.283
     GLY   HA1  6619   6.260   8.460   8.393
     GLY   HA2  6620   6.165   8.406   8.251
     GLY     N  6621   6.263   8.587   8.229
     GLY    HN  6622   6.341   8.611   8.168
     GLY     C  6623   6.368   8.666   8.255
     GLY     O  6624   6.456   8.618   8.326
     GLY    CA  6625   6.374   8.808   8.198
     GLY   HA1  6626   6.477   8.843   8.198
     GLY   HA2  6627   6.312   8.875   8.258
     GLY     N  6628   6.324   8.808   8.062
     GLY    HN  6629   6.294   8.719   8.023
     GLY     C  6630   6.385   8.733   7.968
     GLY     O  6631   6.482   8.667   8.005
     GLY    CA  6632   6.333   8.733   7.825
     GLY   HA1  6633   6.368   8.643   7.773
     GLY   HA2  6634   6.368   8.822   7.773
     GLY     N  6635   6.188   8.733   7.825
     GLY    HN  6636   6.137   8.741   7.737
     DAL     N  6637   5.852   9.001   7.372
     DAL    HN  6638   5.774   9.004   7.309
     DAL    CA  6639   5.962   9.087   7.322
     DAL    HA  6640   5.992   9.146   7.407
     DAL    CB  6641   5.897   9.187   7.221
     DAL   HB1  6642   5.809   9.240   7.264
     DAL   HB2  6643   5.970   9.265   7.189
     DAL   HB3  6644   5.869   9.123   7.135
     DAL     C  6645   6.092   9.012   7.273
     DAL     O  6646   6.093   8.898   7.232
     DAL     N  6647   6.209   9.073   7.278
     DAL    HN  6648   6.278   9.005   7.256
     DAL    CA  6649   6.241   9.210   7.308
     DAL    HA  6650   6.166   9.273   7.263
     DAL    CB  6651   6.369   9.243   7.241
     DAL   HB1  6652   6.401   9.346   7.268
     DAL   HB2  6653   6.451   9.172   7.270
     DAL   HB3  6654   6.367   9.243   7.130
     DAL     C  6655   6.235   9.228   7.463
     DAL   OC1  6656   6.150   9.309   7.499
     DAL   OC2  6657   6.319   9.173   7.536
     NAG    C1  6658   6.825   9.533   6.433
     NAG    H1  6659   6.869   9.528   6.535
     NAG    C5  6660   6.661   9.384   6.529
     NAG    H5  6661   6.714   9.401   6.625
     NAG    O5  6662   6.682   9.500   6.444
     NAG    C2  6663   6.874   9.425   6.343
     NAG    H2  6664   6.811   9.430   6.252
     NAG    NC  6665   7.004   9.468   6.298
     NAG    HN  6666   7.061   9.495   6.375
     NAG    CM  6667   7.051   9.472   6.173
     NAG    OM  6668   6.982   9.431   6.079
     NAG    CC  6669   7.186   9.529   6.168
     NAG   HC1  6670   7.262   9.467   6.220
     NAG   HC2  6671   7.205   9.534   6.058
     NAG   HC3  6672   7.185   9.634   6.206
     NAG    C3  6673   6.860   9.296   6.414
     NAG    H3  6674   6.902   9.299   6.517
     NAG    O3  6675   6.919   9.190   6.352
     NAG   HO3  6676   6.883   9.114   6.398
     NAG    C4  6677   6.719   9.268   6.448
     NAG    H4  6678   6.655   9.250   6.358
     NAG    O4  6679   6.711   9.151   6.528
     NAG    C6  6680   6.516   9.375   6.572
     NAG   H61  6681   6.496   9.288   6.637
     NAG   H62  6682   6.452   9.363   6.482
     NAG    O6  6683   6.478   9.492   6.646
     NAG   HO6  6684   6.516   9.568   6.602
     NAM    C1  6685   6.733  10.044   6.465
     NAM    H1  6686   6.666  10.027   6.379
     NAM    C5  6687   6.879   9.889   6.371
     NAM    H5  6688   6.812   9.900   6.282
     NAM    O5  6689   6.871  10.014   6.439
     NAM    C2  6690   6.700   9.952   6.580
     NAM    H2  6691   6.773   9.974   6.661
     NAM    NC  6692   6.568   9.961   6.634
     NAM    HN  6693   6.487   9.909   6.605
     NAM    CM  6694   6.533  10.021   6.751
     NAM    OM  6695   6.605  10.076   6.835
     NAM    CC  6696   6.382  10.019   6.762
     NAM   HC1  6697   6.344  10.100   6.828
     NAM   HC2  6698   6.340  10.033   6.660
     NAM   HC3  6699   6.337   9.929   6.811
     NAM    C3  6700   6.702   9.811   6.538
     NAM    H3  6701   6.636   9.810   6.448
     NAM    O3  6702   6.656   9.715   6.636
     NAM    CA  6703   6.722   9.708   6.765
     NAM    HA  6704   6.710   9.603   6.745
     NAM     C  6705   6.629   9.737   6.882
     NAM     O  6706   6.510   9.752   6.860
     NAM    CB  6707   6.873   9.725   6.795
     NAM   HB1  6708   6.934   9.664   6.725
     NAM   HB2  6709   6.900   9.700   6.900
     NAM   HB3  6710   6.898   9.831   6.774
     NAM    C4  6711   6.835   9.781   6.463
     NAM    H4  6712   6.910   9.763   6.543
     NAM    O4  6713   6.837   9.661   6.377
     NAM    C6  6714   7.012   9.869   6.302
     NAM   H61  6715   7.030   9.954   6.233
     NAM   H62  6716   7.008   9.770   6.251
     NAM    O6  6717   7.114   9.865   6.397
     NAM   HO6  6718   7.098   9.938   6.457
     ALA     N  6719   6.681   9.741   7.010
     ALA    HN  6720   6.777   9.714   7.016
     ALA    CA  6721   6.598   9.767   7.131
     ALA    HA  6722   6.552   9.864   7.120
     ALA    CB  6723   6.697   9.768   7.242
     ALA   HB1  6724   6.652   9.784   7.343
     ALA   HB2  6725   6.782   9.839   7.238
     ALA   HB3  6726   6.750   9.670   7.251
     ALA     C  6727   6.492   9.659   7.154
     ALA     O  6728   6.506   9.544   7.113
     GLN     N  6729   6.384   9.691   7.232
     GLN    HN  6730   6.312   9.623   7.240
     GLN    CA  6731   6.328   9.821   7.268
     GLN    HA  6732   6.237   9.802   7.322
     GLN    CD  6733   6.412   9.899   7.376
     GLN   OE1  6734   6.464  10.006   7.347
     GLN   NE2  6735   6.437   9.838   7.497
     GLN  HE21  6736   6.508   9.873   7.558
     GLN  HE22  6737   6.395   9.749   7.516
     GLN    CB  6738   6.275   9.916   7.157
     GLN   HB1  6739   6.349   9.924   7.074
     GLN   HB2  6740   6.254  10.011   7.210
     GLN    CG  6741   6.147   9.865   7.099
     GLN   HG1  6742   6.087   9.822   7.182
     GLN   HG2  6743   6.182   9.774   7.046
     GLN     C  6744   6.072   9.966   7.016
     GLN     O  6745   6.096   9.987   6.898
     LYS     N  6746   5.968  10.038   7.062
     LYS    HN  6747   5.936  10.112   7.003
     LYS    CA  6748   5.897  10.030   7.186
     LYS    HA  6749   5.957   9.985   7.264
     LYS    CB  6750   5.755   9.970   7.177
     LYS   HB1  6751   5.705   9.973   7.276
     LYS   HB2  6752   5.695  10.040   7.115
     LYS    CG  6753   5.747   9.825   7.127
     LYS   HG1  6754   5.811   9.803   7.039
     LYS   HG2  6755   5.781   9.760   7.211
     LYS    CD  6756   5.603   9.775   7.092
     LYS   HD1  6757   5.544   9.788   7.185
     LYS   HD2  6758   5.550   9.833   7.013
     LYS    CE  6759   5.600   9.630   7.042
     LYS   HE1  6760   5.495   9.596   7.026
     LYS   HE2  6761   5.656   9.620   6.947
     LYS    NZ  6762   5.639   9.528   7.142
     LYS   HZ1  6763   5.632   9.432   7.102
     LYS     C  6764   5.879  10.173   7.233
     LYS     O  6765   5.852  10.263   7.152
     GLY     C  6766   6.902   9.881   7.662
     GLY     O  6767   7.001   9.830   7.713
     GLY    CA  6768   6.905   9.956   7.529
     GLY   HA1  6769   6.994   9.927   7.472
     GLY   HA2  6770   6.906  10.064   7.547
     GLY     N  6771   6.787   9.923   7.451
     GLY    HN  6772   6.721   9.858   7.491
     GLY     C  6773   6.764   9.796   7.415
     GLY     O  6774   6.846   9.713   7.452
     GLY    CA  6775   6.640   9.762   7.333
     GLY   HA1  6776   6.617   9.655   7.344
     GLY   HA2  6777   6.657   9.785   7.228
     GLY     N  6778   6.527   9.839   7.380
     GLY    HN  6779   6.542   9.903   7.458
     GLY     C  6780   6.485   9.826   7.507
     GLY     O  6781   6.548   9.748   7.578
     GLY    CA  6782   6.366   9.907   7.556
     GLY   HA1  6783   6.368   9.914   7.666
     GLY   HA2  6784   6.273   9.860   7.524
     GLY     N  6785   6.371  10.041   7.502
     GLY    HN  6786   6.449  10.065   7.441
     GLY     C  6787   6.476  10.120   7.528
     GLY     O  6788   6.564  10.072   7.599
     GLY    CA  6789   6.482  10.262   7.471
     GLY   HA1  6790   6.585  10.297   7.471
     GLY   HA2  6791   6.420  10.329   7.531
     GLY     N  6792   6.432  10.262   7.335
     GLY    HN  6793   6.402  10.173   7.296
     GLY     C  6794   6.493  10.187   7.241
     GLY     O  6795   6.590  10.121   7.278
     GLY    CA  6796   6.441  10.187   7.098
     GLY   HA1  6797   6.476  10.097   7.046
     GLY   HA2  6798   6.476  10.276   7.046
     GLY     N  6799   6.296  10.187   7.098
     GLY    HN  6800   6.245  10.195   7.010
     DAL     N  6801   5.875  10.203   7.366
     DAL    HN  6802   5.849  10.297   7.385
     DAL    CA  6803   5.940  10.133   7.477
     DAL    HA  6804   5.888  10.039   7.489
     DAL    CB  6805   5.913  10.227   7.603
     DAL   HB1  6806   5.948  10.186   7.700
     DAL   HB2  6807   5.963  10.324   7.586
     DAL   HB3  6808   5.804  10.237   7.620
     DAL     C  6809   6.089  10.123   7.461
     DAL     O  6810   6.150  10.178   7.370
     DAL     N  6811   6.162  10.049   7.547
     DAL    HN  6812   6.262  10.055   7.544
     DAL    CA  6813   6.114   9.956   7.644
     DAL    HA  6814   6.018   9.991   7.679
     DAL    CB  6815   6.204   9.941   7.764
     DAL   HB1  6816   6.222  10.045   7.798
     DAL   HB2  6817   6.160   9.884   7.849
     DAL   HB3  6818   6.298   9.896   7.727
     DAL     C  6819   6.087   9.821   7.575
     DAL   OC1  6820   5.968   9.792   7.557
     DAL   OC2  6821   6.183   9.747   7.544
     NAG    C1  6822   6.778  10.574   6.388
     NAG    H1  6823   6.826  10.599   6.485
     NAG    C5  6824   6.637  10.399   6.500
     NAG    H5  6825   6.673  10.422   6.602
     NAG    O5  6826   6.648  10.517   6.413
     NAG    C2  6827   6.862  10.463   6.327
     NAG    H2  6828   6.812  10.437   6.231
     NAG    NC  6829   6.997  10.513   6.329
     NAG    HN  6830   7.054  10.509   6.411
     NAG    CM  6831   7.048  10.561   6.217
     NAG    OM  6832   7.019  10.531   6.101
     NAG    CC  6833   7.155  10.664   6.243
     NAG   HC1  6834   7.158  10.746   6.168
     NAG   HC2  6835   7.158  10.722   6.338
     NAG   HC3  6836   7.253  10.613   6.232
     NAG    C3  6837   6.865  10.343   6.410
     NAG    H3  6838   6.910  10.354   6.511
     NAG    O3  6839   6.936  10.239   6.338
     NAG   HO3  6840   6.923  10.155   6.384
     NAG    C4  6841   6.721  10.291   6.431
     NAG    H4  6842   6.681  10.272   6.329
     NAG    O4  6843   6.716  10.171   6.512
     NAG    C6  6844   6.500  10.348   6.517
     NAG   H61  6845   6.495  10.258   6.582
     NAG   H62  6846   6.450  10.315   6.424
     NAG    O6  6847   6.408  10.442   6.570
     NAG   HO6  6848   6.379  10.502   6.500
     NAM    C1  6849   6.698  11.090   6.327
     NAM    H1  6850   6.769  11.120   6.247
     NAM    C5  6851   6.822  10.906   6.393
     NAM    H5  6852   6.896  10.936   6.316
     NAM    O5  6853   6.747  11.019   6.437
     NAM    C2  6854   6.588  11.000   6.269
     NAM    H2  6855   6.511  10.977   6.345
     NAM    NC  6856   6.532  11.064   6.155
     NAM    HN  6857   6.579  11.067   6.067
     NAM    CM  6858   6.417  11.132   6.144
     NAM    OM  6859   6.369  11.211   6.224
     NAM    CC  6860   6.359  11.114   6.009
     NAM   HC1  6861   6.249  11.107   6.022
     NAM   HC2  6862   6.388  11.185   5.929
     NAM   HC3  6863   6.387  11.014   5.970
     NAM    C3  6864   6.655  10.875   6.216
     NAM    H3  6865   6.728  10.915   6.142
     NAM    O3  6866   6.564  10.786   6.153
     NAM    CA  6867   6.464  10.725   6.238
     NAM    HA  6868   6.474  10.740   6.344
     NAM     C  6869   6.467  10.580   6.192
     NAM     O  6870   6.390  10.498   6.241
     NAM    CB  6871   6.329  10.786   6.203
     NAM   HB1  6872   6.241  10.737   6.251
     NAM   HB2  6873   6.302  10.794   6.096
     NAM   HB3  6874   6.329  10.889   6.246
     NAM    C4  6875   6.730  10.807   6.329
     NAM    H4  6876   6.658  10.783   6.411
     NAM    O4  6877   6.788  10.679   6.294
     NAM    C6  6878   6.896  10.849   6.511
     NAM   H61  6879   6.966  10.774   6.468
     NAM   H62  6880   6.836  10.787   6.581
     NAM    O6  6881   6.960  10.954   6.586
     NAM   HO6  6882   6.894  10.986   6.649
     ALA     N  6883   6.562  10.541   6.097
     ALA    HN  6884   6.627  10.607   6.063
     ALA    CA  6885   6.577  10.406   6.043
     ALA    HA  6886   6.610  10.334   6.117
     ALA    CB  6887   6.691  10.428   5.934
     ALA   HB1  6888   6.663  10.487   5.845
     ALA   HB2  6889   6.705  10.329   5.885
     ALA   HB3  6890   6.790  10.460   5.975
     ALA     C  6891   6.456  10.357   5.972
     ALA     O  6892   6.370  10.430   5.918
     GLN     N  6893   6.429  10.225   5.972
     GLN    HN  6894   6.343  10.194   5.932
     GLN    CA  6895   6.510  10.118   6.028
     GLN    HA  6896   6.472  10.031   5.975
     GLN    CD  6897   6.665  10.106   6.032
     GLN   OE1  6898   6.737  10.141   6.124
     GLN   NE2  6899   6.722  10.040   5.929
     GLN  HE21  6900   6.807   9.992   5.950
     GLN  HE22  6901   6.657  10.013   5.858
     GLN    CB  6902   6.448  10.096   6.166
     GLN   HB1  6903   6.476  10.184   6.228
     GLN   HB2  6904   6.501  10.007   6.207
     GLN    CG  6905   6.293  10.078   6.178
     GLN   HG1  6906   6.260   9.990   6.118
     GLN   HG2  6907   6.231  10.158   6.132
     GLN     C  6908   6.250  10.061   6.315
     GLN     O  6909   6.249  10.162   6.387
     LYS     N  6910   6.220   9.944   6.367
     LYS    HN  6911   6.194   9.939   6.463
     LYS    CA  6912   6.241   9.808   6.314
     LYS    HA  6913   6.260   9.812   6.208
     LYS    CB  6914   6.115   9.720   6.337
     LYS   HB1  6915   6.135   9.621   6.290
     LYS   HB2  6916   6.093   9.711   6.446
     LYS    CG  6917   5.980   9.778   6.279
     LYS   HG1  6918   5.956   9.876   6.324
     LYS   HG2  6919   6.006   9.804   6.174
     LYS    CD  6920   5.859   9.687   6.291
     LYS   HD1  6921   5.846   9.655   6.396
     LYS   HD2  6922   5.772   9.752   6.262
     LYS    CE  6923   5.851   9.558   6.215
     LYS   HE1  6924   5.939   9.491   6.226
     LYS   HE2  6925   5.754   9.508   6.238
     LYS    NZ  6926   5.844   9.588   6.066
     LYS   HZ1  6927   5.785   9.518   6.016
     LYS     C  6928   6.356   9.744   6.373
     LYS     O  6929   6.398   9.771   6.485
     GLY     C  6930   7.055  10.056   7.151
     GLY     O  6931   7.154  10.005   7.202
     GLY    CA  6932   7.058  10.131   7.018
     GLY   HA1  6933   7.147  10.102   6.961
     GLY   HA2  6934   7.059  10.239   7.036
     GLY     N  6935   6.940  10.098   6.940
     GLY    HN  6936   6.874  10.033   6.980
     GLY     C  6937   6.917   9.971   6.904
     GLY     O  6938   6.999   9.888   6.941
     GLY    CA  6939   6.793   9.937   6.822
     GLY   HA1  6940   6.770   9.830   6.833
     GLY   HA2  6941   6.810   9.960   6.717
     GLY     N  6942   6.680  10.014   6.869
     GLY    HN  6943   6.695  10.078   6.947
     GLY     C  6944   6.638  10.001   6.996
     GLY     O  6945   6.701   9.923   7.067
     GLY    CA  6946   6.519  10.082   7.045
     GLY   HA1  6947   6.521  10.089   7.155
     GLY   HA2  6948   6.426  10.035   7.013
     GLY     N  6949   6.524  10.216   6.991
     GLY    HN  6950   6.602  10.240   6.930
     GLY     C  6951   6.629  10.295   7.017
     GLY     O  6952   6.717  10.247   7.088
     GLY    CA  6953   6.635  10.437   6.960
     GLY   HA1  6954   6.738  10.472   6.960
     GLY   HA2  6955   6.573  10.504   7.020
     GLY     N  6956   6.585  10.437   6.824
     GLY    HN  6957   6.555  10.348   6.785
     GLY     C  6958   6.646  10.362   6.730
     GLY     O  6959   6.743  10.296   6.767
     GLY    CA  6960   6.594  10.362   6.587
     GLY   HA1  6961   6.629  10.272   6.535
     GLY   HA2  6962   6.629  10.451   6.535
     GLY     N  6963   6.449  10.362   6.587
     GLY    HN  6964   6.398  10.370   6.499
     DAL     N  6965   6.420   9.643   6.315
     DAL    HN  6966   6.498   9.600   6.361
     DAL    CA  6967   6.408   9.588   6.187
     DAL    HA  6968   6.305   9.561   6.174
     DAL    CB  6969   6.483   9.448   6.184
     DAL   HB1  6970   6.486   9.403   6.083
     DAL   HB2  6971   6.588   9.458   6.221
     DAL   HB3  6972   6.431   9.382   6.257
     DAL     C  6973   6.441   9.687   6.073
     DAL     O  6974   6.529   9.769   6.094
     DAL     N  6975   6.381   9.666   5.956
     DAL    HN  6976   6.408   9.723   5.878
     DAL    CA  6977   6.293   9.558   5.926
     DAL    HA  6978   6.315   9.466   5.977
     DAL    CB  6979   6.318   9.524   5.779
     DAL   HB1  6980   6.262   9.436   5.741
     DAL   HB2  6981   6.269   9.602   5.717
     DAL   HB3  6982   6.425   9.532   5.751
     DAL     C  6983   6.144   9.593   5.949
     DAL   OC1  6984   6.113   9.701   5.999
     DAL   OC2  6985   6.060   9.502   5.924
     NAG    C1  6986   6.688  11.617   6.404
     NAG    H1  6987   6.578  11.620   6.388
     NAG    C5  6988   6.699  11.418   6.270
     NAG    H5  6989   6.590  11.425   6.248
     NAG    O5  6990   6.757  11.542   6.302
     NAG    C2  6991   6.710  11.535   6.530
     NAG    H2  6992   6.812  11.539   6.574
     NAG    NC  6993   6.628  11.605   6.626
     NAG    HN  6994   6.530  11.584   6.620
     NAG    CM  6995   6.666  11.671   6.742
     NAG    OM  6996   6.783  11.674   6.782
     NAG    CC  6997   6.548  11.749   6.815
     NAG   HC1  6998   6.540  11.704   6.916
     NAG   HC2  6999   6.570  11.858   6.813
     NAG   HC3  7000   6.453  11.740   6.757
     NAG    C3  7001   6.669  11.387   6.520
     NAG    H3  7002   6.558  11.376   6.520
     NAG    O3  7003   6.714  11.312   6.631
     NAG   HO3  7004   6.806  11.302   6.605
     NAG    C4  7005   6.714  11.326   6.387
     NAG    H4  7006   6.819  11.292   6.379
     NAG    O4  7007   6.631  11.211   6.363
     NAG    C6  7008   6.758  11.376   6.140
     NAG   H61  7009   6.769  11.467   6.077
     NAG   H62  7010   6.697  11.303   6.082
     NAG    O6  7011   6.895  11.335   6.147
     NAG   HO6  7012   6.957  11.403   6.120
     NAM    C1  7013   6.766  12.138   6.323
     NAM    H1  7014   6.821  12.151   6.418
     NAM    C5  7015   6.650  11.954   6.414
     NAM    H5  7016   6.711  11.988   6.500
     NAM    O5  7017   6.642  12.070   6.326
     NAM    C2  7018   6.857  12.050   6.245
     NAM    H2  7019   6.841  12.042   6.135
     NAM    NC  7020   6.987  12.111   6.245
     NAM    HN  7021   7.020  12.141   6.334
     NAM    CM  7022   7.084  12.120   6.148
     NAM    OM  7023   7.070  12.077   6.030
     NAM    CC  7024   7.207  12.213   6.180
     NAM   HC1  7025   7.296  12.149   6.202
     NAM   HC2  7026   7.242  12.271   6.091
     NAM   HC3  7027   7.190  12.278   6.268
     NAM    C3  7028   6.860  11.910   6.300
     NAM    H3  7029   6.911  11.932   6.397
     NAM    O3  7030   6.948  11.819   6.223
     NAM    CA  7031   6.888  11.763   6.101
     NAM    HA  7032   6.847  11.684   6.162
     NAM     C  7033   7.006  11.688   6.053
     NAM     O  7034   7.033  11.570   6.087
     NAM    CB  7035   6.795  11.831   5.992
     NAM   HB1  7036   6.758  11.753   5.923
     NAM   HB2  7037   6.854  11.907   5.937
     NAM   HB3  7038   6.709  11.880   6.041
     NAM    C4  7039   6.727  11.845   6.335
     NAM    H4  7040   6.664  11.812   6.250
     NAM    O4  7041   6.759  11.736   6.422
     NAM    C6  7042   6.517  11.913   6.469
     NAM   H61  7043   6.537  11.830   6.541
     NAM   H62  7044   6.446  11.882   6.390
     NAM    O6  7045   6.451  12.017   6.543
     NAM   HO6  7046   6.424  12.084   6.480
     ALA     N  7047   7.091  11.748   5.971
     ALA    HN  7048   7.069  11.840   5.940
     ALA    CA  7049   7.218  11.691   5.925
     ALA    HA  7050   7.263  11.631   6.003
     ALA    CB  7051   7.305  11.814   5.900
     ALA   HB1  7052   7.413  11.790   5.912
     ALA   HB2  7053   7.290  11.896   5.972
     ALA   HB3  7054   7.284  11.855   5.799
     ALA     C  7055   7.209  11.600   5.799
     ALA     O  7056   7.110  11.604   5.729
     GLN     N  7057   7.308  11.521   5.766
     GLN    HN  7058   7.294  11.458   5.691
     GLN    CA  7059   7.442  11.533   5.807
     GLN    HA  7060   7.477  11.635   5.799
     GLN    CD  7061   7.463  11.487   5.960
     GLN   OE1  7062   7.513  11.564   6.040
     GLN   NE2  7063   7.422  11.361   5.989
     GLN  HE21  7064   7.447  11.321   6.077
     GLN  HE22  7065   7.363  11.313   5.924
     GLN    CB  7066   7.541  11.461   5.710
     GLN   HB1  7067   7.515  11.353   5.710
     GLN   HB2  7068   7.647  11.464   5.742
     GLN    CG  7069   7.523  11.523   5.572
     GLN   HG1  7070   7.557  11.628   5.583
     GLN   HG2  7071   7.414  11.522   5.549
     GLN     C  7072   7.610  11.459   5.473
     GLN     O  7073   7.689  11.377   5.513
     LYS     N  7074   7.595  11.492   5.342
     LYS    HN  7075   7.665  11.461   5.279
     LYS    CA  7076   7.489  11.563   5.278
     LYS    HA  7077   7.396  11.564   5.334
     LYS    CB  7078   7.445  11.495   5.149
     LYS   HB1  7079   7.362  11.548   5.099
     LYS   HB2  7080   7.531  11.496   5.078
     LYS    CG  7081   7.413  11.345   5.168
     LYS   HG1  7082   7.488  11.288   5.227
     LYS   HG2  7083   7.323  11.341   5.233
     LYS    CD  7084   7.392  11.265   5.037
     LYS   HD1  7085   7.491  11.261   4.987
     LYS   HD2  7086   7.351  11.165   5.061
     LYS    CE  7087   7.298  11.336   4.943
     LYS   HE1  7088   7.331  11.439   4.921
     LYS   HE2  7089   7.303  11.276   4.850
     LYS    NZ  7090   7.165  11.349   5.002
     LYS   HZ1  7091   7.127  11.263   5.045
     LYS     C  7092   7.533  11.710   5.254
     LYS     O  7093   7.654  11.730   5.234
     GLY     C  7094   8.495  11.271   6.277
     GLY     O  7095   8.594  11.220   6.328
     GLY    CA  7096   8.498  11.346   6.144
     GLY   HA1  7097   8.587  11.317   6.087
     GLY   HA2  7098   8.499  11.454   6.162
     GLY     N  7099   8.380  11.313   6.066
     GLY    HN  7100   8.314  11.248   6.106
     GLY     C  7101   8.357  11.186   6.030
     GLY     O  7102   8.439  11.103   6.067
     GLY    CA  7103   8.233  11.152   5.948
     GLY   HA1  7104   8.210  11.045   5.959
     GLY   HA2  7105   8.250  11.175   5.843
     GLY     N  7106   8.120  11.229   5.995
     GLY    HN  7107   8.135  11.293   6.073
     GLY     C  7108   8.078  11.216   6.122
     GLY     O  7109   8.141  11.138   6.193
     GLY    CA  7110   7.959  11.297   6.171
     GLY   HA1  7111   7.961  11.304   6.281
     GLY   HA2  7112   7.866  11.250   6.139
     GLY     N  7113   7.964  11.431   6.117
     GLY    HN  7114   8.042  11.455   6.056
     GLY     C  7115   8.069  11.510   6.143
     GLY     O  7116   8.157  11.462   6.214
     GLY    CA  7117   8.075  11.652   6.086
     GLY   HA1  7118   8.178  11.687   6.086
     GLY   HA2  7119   8.013  11.719   6.146
     GLY     N  7120   8.025  11.652   5.950
     GLY    HN  7121   7.995  11.563   5.911
     GLY     C  7122   8.086  11.577   5.856
     GLY     O  7123   8.183  11.511   5.893
     GLY    CA  7124   8.034  11.577   5.713
     GLY   HA1  7125   8.069  11.487   5.661
     GLY   HA2  7126   8.069  11.666   5.661
     GLY     N  7127   7.889  11.577   5.713
     GLY    HN  7128   7.838  11.585   5.625
     DAL     N  7129   7.444  11.806   5.237
     DAL    HN  7130   7.483  11.890   5.200
     DAL    CA  7131   7.299  11.793   5.260
     DAL    HA  7132   7.258  11.721   5.190
     DAL    CB  7133   7.239  11.925   5.220
     DAL   HB1  7134   7.287  11.952   5.124
     DAL   HB2  7135   7.129  11.915   5.215
     DAL   HB3  7136   7.264  12.002   5.296
     DAL     C  7137   7.258  11.749   5.406
     DAL     O  7138   7.334  11.778   5.501
     DAL     N  7139   7.142  11.694   5.439
     DAL    HN  7140   7.134  11.678   5.537
     DAL    CA  7141   7.027  11.669   5.350
     DAL    HA  7142   7.008  11.753   5.285
     DAL    CB  7143   6.895  11.654   5.429
     DAL   HB1  7144   6.865  11.738   5.495
     DAL   HB2  7145   6.803  11.641   5.369
     DAL   HB3  7146   6.896  11.564   5.495
     DAL     C  7147   7.045  11.545   5.257
     DAL   OC1  7148   7.028  11.429   5.299
     DAL   OC2  7149   7.080  11.563   5.137
     NAG    C1  7150   6.737  12.664   6.336
     NAG    H1  7151   6.642  12.678   6.281
     NAG    C5  7152   6.804  12.481   6.201
     NAG    H5  7153   6.718  12.489   6.131
     NAG    O5  7154   6.842  12.610   6.254
     NAG    C2  7155   6.719  12.573   6.457
     NAG    H2  7156   6.814  12.573   6.515
     NAG    NC  7157   6.616  12.632   6.537
     NAG    HN  7158   6.522  12.611   6.514
     NAG    CM  7159   6.632  12.702   6.656
     NAG    OM  7160   6.738  12.698   6.720
     NAG    CC  7161   6.524  12.793   6.692
     NAG   HC1  7162   6.500  12.771   6.798
     NAG   HC2  7163   6.559  12.898   6.686
     NAG   HC3  7164   6.431  12.764   6.639
     NAG    C3  7165   6.678  12.436   6.406
     NAG    H3  7166   6.582  12.438   6.350
     NAG    O3  7167   6.659  12.346   6.511
     NAG   HO3  7168   6.592  12.280   6.491
     NAG    C4  7169   6.784  12.381   6.317
     NAG    H4  7170   6.882  12.363   6.366
     NAG    O4  7171   6.752  12.258   6.247
     NAG    C6  7172   6.928  12.442   6.114
     NAG   H61  7173   6.928  12.336   6.083
     NAG   H62  7174   7.021  12.465   6.171
     NAG    O6  7175   6.944  12.515   5.990
     NAG   HO6  7176   6.863  12.519   5.939
     NAM    C1  7177   6.829  13.194   6.296
     NAM    H1  7178   6.853  13.206   6.403
     NAM    C5  7179   6.685  13.006   6.348
     NAM    H5  7180   6.704  13.031   6.454
     NAM    O5  7181   6.702  13.127   6.272
     NAM    C2  7182   6.934  13.102   6.230
     NAM    H2  7183   6.908  13.101   6.122
     NAM    NC  7184   7.057  13.153   6.286
     NAM    HN  7185   7.064  13.180   6.382
     NAM    CM  7186   7.170  13.166   6.218
     NAM    OM  7187   7.172  13.151   6.097
     NAM    CC  7188   7.293  13.182   6.299
     NAM   HC1  7189   7.315  13.289   6.321
     NAM   HC2  7190   7.284  13.134   6.399
     NAM   HC3  7191   7.387  13.147   6.253
     NAM    C3  7192   6.925  12.962   6.287
     NAM    H3  7193   6.944  12.980   6.395
     NAM    O3  7194   7.028  12.861   6.251
     NAM    CA  7195   7.051  12.817   6.120
     NAM    HA  7196   7.013  12.720   6.150
     NAM     C  7197   7.200  12.812   6.095
     NAM     O  7198   7.277  12.755   6.172
     NAM    CB  7199   6.969  12.857   5.991
     NAM   HB1  7200   6.865  12.821   6.006
     NAM   HB2  7201   7.001  12.799   5.902
     NAM   HB3  7202   6.994  12.962   5.963
     NAM    C4  7203   6.785  12.900   6.295
     NAM    H4  7204   6.755  12.857   6.198
     NAM    O4  7205   6.779  12.790   6.390
     NAM    C6  7206   6.532  12.965   6.350
     NAM   H61  7207   6.473  13.045   6.400
     NAM   H62  7208   6.527  12.860   6.385
     NAM    O6  7209   6.479  12.957   6.218
     NAM   HO6  7210   6.463  13.049   6.195
     ALA     N  7211   7.241  12.884   5.993
     ALA    HN  7212   7.169  12.947   5.965
     ALA    CA  7213   7.368  12.882   5.926
     ALA    HA  7214   7.441  12.918   5.997
     ALA    CB  7215   7.350  12.972   5.804
     ALA   HB1  7216   7.285  12.928   5.725
     ALA   HB2  7217   7.446  13.005   5.759
     ALA   HB3  7218   7.292  13.058   5.845
     ALA     C  7219   7.416  12.738   5.889
     ALA     O  7220   7.344  12.637   5.902
     GLN     N  7221   7.540  12.724   5.836
     GLN    HN  7222   7.551  12.636   5.789
     GLN    CA  7223   7.644  12.822   5.837
     GLN    HA  7224   7.607  12.922   5.820
     GLN    CD  7225   7.714  12.833   5.983
     GLN   OE1  7226   7.713  12.930   6.055
     GLN   NE2  7227   7.771  12.721   6.027
     GLN  HE21  7228   7.814  12.717   6.118
     GLN  HE22  7229   7.770  12.645   5.963
     GLN    CB  7230   7.745  12.805   5.720
     GLN   HB1  7231   7.791  12.705   5.716
     GLN   HB2  7232   7.824  12.883   5.720
     GLN    CG  7233   7.680  12.823   5.579
     GLN   HG1  7234   7.605  12.741   5.578
     GLN   HG2  7235   7.764  12.801   5.510
     GLN     C  7236   7.619  12.958   5.541
     GLN     O  7237   7.505  12.974   5.487
     LYS     N  7238   7.685  13.067   5.564
     LYS    HN  7239   7.769  13.062   5.617
     LYS    CA  7240   7.643  13.201   5.523
     LYS    HA  7241   7.594  13.211   5.427
     LYS    CB  7242   7.765  13.293   5.504
     LYS   HB1  7243   7.826  13.294   5.596
     LYS   HB2  7244   7.831  13.238   5.434
     LYS    CG  7245   7.738  13.428   5.448
     LYS   HG1  7246   7.680  13.412   5.355
     LYS   HG2  7247   7.684   0.041   5.517
     LYS    CD  7248   7.875   0.036   5.404
     LYS   HD1  7249   7.922   0.084   5.493
     LYS   HD2  7250   7.945  13.407   5.388
     LYS    CE  7251   7.865   0.123   5.278
     LYS   HE1  7252   7.847   0.061   5.188
     LYS   HE2  7253   7.788   0.203   5.286
     LYS    NZ  7254   7.993   0.189   5.256
     LYS   HZ1  7255   7.979   0.266   5.187
     LYS   HZ2  7256   8.066   0.121   5.226
     LYS   HZ3  7257   8.031   0.241   5.338
     LYS     C  7258   7.553  13.271   5.625
     LYS     O  7259   7.451  13.323   5.593
     DAL     N  7260   7.580  13.281   5.757
     DAL    HN  7261   7.497  13.318   5.797
     DAL    CA  7262   7.708  13.248   5.834
     DAL    HA  7263   7.755  13.165   5.783
     DAL    CB  7264   7.669  13.218   5.980
     DAL   HB1  7265   7.600  13.131   5.982
     DAL   HB2  7266   7.765  13.195   6.031
     DAL   HB3  7267   7.618  13.303   6.032
     DAL     C  7268   7.800  13.374   5.843
     DAL     O  7269   7.765   0.030   5.851
     DAL     N  7270   7.933  13.360   5.830
     DAL    HN  7271   7.985  13.445   5.822
     DAL    CA  7272   8.003  13.237   5.832
     DAL    HA  7273   7.958  13.164   5.898
     DAL    CB  7274   8.136  13.254   5.885
     DAL   HB1  7275   8.203  13.325   5.832
     DAL   HB2  7276   8.131  13.296   5.988
     DAL   HB3  7277   8.195  13.162   5.903
     DAL     C  7278   8.016  13.171   5.688
     DAL   OC1  7279   8.088  13.233   5.604
     DAL   OC2  7280   7.963  13.064   5.663
     NAG    C1  7281   8.526   0.265   6.290
     NAG    H1  7282   8.567   0.260   6.187
     NAG    C5  7283   8.693   0.099   6.327
     NAG    H5  7284   8.738   0.113   6.227
     NAG    O5  7285   8.627   0.214   6.384
     NAG    C2  7286   8.415   0.163   6.299
     NAG    H2  7287   8.379   0.173   6.403
     NAG    NC  7288   8.315   0.216   6.206
     NAG    HN  7289   8.335   0.255   6.117
     NAG    CM  7290   8.190   0.253   6.236
     NAG    OM  7291   8.136   0.239   6.346
     NAG    CC  7292   8.114   0.323   6.122
     NAG   HC1  7293   8.089   0.429   6.139
     NAG   HC2  7294   8.166   0.316   6.024
     NAG   HC3  7295   8.015   0.273   6.124
     NAG    C3  7296   8.467   0.029   6.262
     NAG    H3  7297   8.494   0.036   6.154
     NAG    O3  7298   8.365  13.383   6.297
     NAG   HO3  7299   8.397  13.299   6.264
     NAG    C4  7300   8.593  13.450   6.346
     NAG    H4  7301   8.569  13.437   6.454
     NAG    O4  7302   8.651  13.329   6.290
     NAG    C6  7303   8.825   0.060   6.405
     NAG   H61  7304   8.879  13.446   6.336
     NAG   H62  7305   8.814   0.018   6.507
     NAG    O6  7306   8.907   0.176   6.425
     NAG   HO6  7307   8.903   0.241   6.355
     NAM    C1  7308   8.650   0.766   6.333
     NAM    H1  7309   8.629   0.758   6.442
     NAM    C5  7310   8.463   0.628   6.320
     NAM    H5  7311   8.458   0.630   6.431
     NAM    O5  7312   8.528   0.744   6.269
     NAM    C2  7313   8.742   0.658   6.288
     NAM    H2  7314   8.751   0.663   6.177
     NAM    NC  7315   8.878   0.666   6.340
     NAM    HN  7316   8.895   0.582   6.390
     NAM    CM  7317   8.984   0.744   6.301
     NAM    OM  7318   8.985   0.813   6.200
     NAM    CC  7319   9.106   0.727   6.384
     NAM   HC1  7320   9.083   0.702   6.490
     NAM   HC2  7321   9.169   0.640   6.356
     NAM   HC3  7322   9.164   0.822   6.379
     NAM    C3  7323   8.692   0.519   6.311
     NAM    H3  7324   8.701   0.514   6.422
     NAM    O3  7325   8.782   0.413   6.268
     NAM    CA  7326   8.823   0.396   6.135
     NAM    HA  7327   8.796   0.296   6.165
     NAM     C  7328   8.973   0.409   6.120
     NAM     O  7329   9.048   0.374   6.210
     NAM    CB  7330   8.743   0.437   6.006
     NAM   HB1  7331   8.737   0.548   5.998
     NAM   HB2  7332   8.637   0.407   6.024
     NAM   HB3  7333   8.784   0.400   5.910
     NAM    C4  7334   8.549   0.502   6.273
     NAM    H4  7335   8.539   0.518   6.164
     NAM    O4  7336   8.483   0.396   6.332
     NAM    C6  7337   8.318   0.626   6.269
     NAM   H61  7338   8.265   0.714   6.309
     NAM   H62  7339   8.271   0.536   6.316
     NAM    O6  7340   8.299   0.611   6.131
     NAM   HO6  7341   8.298   0.702   6.100
     ALA     N  7342   9.026   0.441   6.001
     ALA    HN  7343   8.965   0.467   5.926
     ALA    CA  7344   9.169   0.444   5.976
     ALA    HA  7345   9.210   0.534   6.019
     ALA    CB  7346   9.181   0.464   5.827
     ALA   HB1  7347   9.141   0.377   5.771
     ALA   HB2  7348   9.285   0.486   5.795
     ALA   HB3  7349   9.136   0.560   5.795
     ALA     C  7350   9.262   0.326   6.012
     ALA     O  7351   9.215   0.212   6.022
     GLN     N  7352   9.396   0.344   6.030
     GLN    HN  7353   9.445   0.261   6.056
     GLN    CA  7354   9.482   0.460   5.992
     GLN    HA  7355   9.456   0.485   5.891
     GLN    CD  7356   9.473   0.583   6.086
     GLN   OE1  7357   9.453   0.695   6.029
     GLN   NE2  7358   9.481   0.561   6.219
     GLN  HE21  7359   9.466   0.638   6.280
     GLN  HE22  7360   9.472   0.469   6.257
     GLN    CB  7361   9.633   0.411   6.001
     GLN   HB1  7362   9.635   0.375   6.105
     GLN   HB2  7363   9.703   0.496   5.988
     GLN    CG  7364   9.686   0.303   5.901
     GLN   HG1  7365   9.676   0.333   5.794
     GLN   HG2  7366   9.628   0.210   5.919
     GLN     C  7367   9.841   0.273   5.911
     GLN     O  7368   9.916   0.311   5.822
     LYS     N  7369   9.887   0.204   6.017
     LYS    HN  7370   9.984   0.182   6.015
     LYS    CA  7371   9.821   0.141   6.128
     LYS    HA  7372   9.722   0.184   6.138
     LYS    CB  7373   9.888   0.179   6.261
     LYS   HB1  7374   9.846   0.117   6.343
     LYS   HB2  7375   9.994   0.150   6.249
     LYS    CG  7376   9.888   0.326   6.294
     LYS   HG1  7377   9.942   0.388   6.220
     LYS   HG2  7378   9.783   0.359   6.280
     LYS    CD  7379   9.935   0.361   6.435
     LYS   HD1  7380  10.043   0.349   6.458
     LYS   HD2  7381   9.914   0.469   6.442
     LYS    CE  7382   9.851   0.297   6.545
     LYS   HE1  7383   9.857   0.187   6.538
     LYS   HE2  7384   9.900   0.315   6.643
     LYS    NZ  7385   9.714   0.336   6.552
     LYS   HZ1  7386   9.669   0.278   6.625
     LYS   HZ2  7387   9.656   0.335   6.465
     LYS   HZ3  7388   9.702   0.432   6.590
     LYS     C  7389   9.823  13.441   6.109
     LYS     O  7390   9.915  13.393   6.043
     DAL     N  7391   9.726  13.364   6.162
     DAL    HN  7392   9.741  13.266   6.154
     DAL    CA  7393   9.605  13.391   6.235
     DAL    HA  7394   9.633   0.011   6.306
     DAL    CB  7395   9.555  13.260   6.304
     DAL   HB1  7396   9.625  13.234   6.386
     DAL   HB2  7397   9.454  13.281   6.345
     DAL   HB3  7398   9.554  13.177   6.230
     DAL     C  7399   9.497  13.453   6.141
     DAL     O  7400   9.496  13.447   6.019
     DAL     N  7401   9.399   0.072   6.205
     DAL    HN  7402   9.332   0.117   6.147
     DAL    CA  7403   9.375   0.099   6.345
     DAL    HA  7404   9.357   0.005   6.394
     DAL    CB  7405   9.247   0.176   6.355
     DAL   HB1  7406   9.166   0.119   6.305
     DAL   HB2  7407   9.218   0.211   6.456
     DAL   HB3  7408   9.261   0.268   6.293
     DAL     C  7409   9.483   0.183   6.414
     DAL   OC1  7410   9.496   0.160   6.537
     DAL   OC2  7411   9.540   0.275   6.353
     NAG    C1  7412   8.583   1.284   6.411
     NAG    H1  7413   8.624   1.328   6.317
     NAG    C5  7414   8.738   1.111   6.398
     NAG    H5  7415   8.773   1.150   6.300
     NAG    O5  7416   8.680   1.211   6.483
     NAG    C2  7417   8.472   1.192   6.378
     NAG    H2  7418   8.441   1.149   6.476
     NAG    NC  7419   8.379   1.265   6.297
     NAG    HN  7420   8.383   1.248   6.198
     NAG    CM  7421   8.256   1.298   6.335
     NAG    OM  7422   8.212   1.296   6.453
     NAG    CC  7423   8.166   1.348   6.227
     NAG   HC1  7424   8.152   1.264   6.156
     NAG   HC2  7425   8.069   1.385   6.268
     NAG   HC3  7426   8.207   1.434   6.169
     NAG    C3  7427   8.521   1.072   6.297
     NAG    H3  7428   8.545   1.112   6.196
     NAG    O3  7429   8.409   0.986   6.283
     NAG   HO3  7430   8.440   0.897   6.262
     NAG    C4  7431   8.639   1.001   6.370
     NAG    H4  7432   8.613   0.957   6.469
     NAG    O4  7433   8.696   0.895   6.299
     NAG    C6  7434   8.871   1.067   6.460
     NAG   H61  7435   8.930   1.158   6.484
     NAG   H62  7436   8.931   1.016   6.382
     NAG    O6  7437   8.852   0.986   6.577
     NAG   HO6  7438   8.802   1.033   6.643
     NAM    C1  7439   8.684   1.789   6.547
     NAM    H1  7440   8.580   1.815   6.575
     NAM    C5  7441   8.606   1.621   6.393
     NAM    H5  7442   8.501   1.649   6.416
     NAM    O5  7443   8.696   1.732   6.412
     NAM    C2  7444   8.725   1.682   6.647
     NAM    H2  7445   8.825   1.641   6.620
     NAM    NC  7446   8.714   1.722   6.785
     NAM    HN  7447   8.653   1.663   6.839
     NAM    CM  7448   8.806   1.769   6.864
     NAM    OM  7449   8.926   1.774   6.837
     NAM    CC  7450   8.765   1.819   6.997
     NAM   HC1  7451   8.680   1.890   6.986
     NAM   HC2  7452   8.752   1.746   7.080
     NAM   HC3  7453   8.851   1.879   7.034
     NAM    C3  7454   8.620   1.571   6.638
     NAM    H3  7455   8.521   1.620   6.638
     NAM    O3  7456   8.611   1.480   6.751
     NAM    CA  7457   8.705   1.372   6.767
     NAM    HA  7458   8.765   1.386   6.679
     NAM     C  7459   8.656   1.228   6.779
     NAM     O  7460   8.719   1.124   6.794
     NAM    CB  7461   8.800   1.411   6.876
     NAM   HB1  7462   8.885   1.342   6.860
     NAM   HB2  7463   8.759   1.388   6.977
     NAM   HB3  7464   8.837   1.515   6.864
     NAM    C4  7465   8.628   1.511   6.500
     NAM    H4  7466   8.729   1.465   6.492
     NAM    O4  7467   8.533   1.396   6.489
     NAM    C6  7468   8.613   1.575   6.249
     NAM   H61  7469   8.584   1.660   6.184
     NAM   H62  7470   8.542   1.494   6.222
     NAM    O6  7471   8.746   1.540   6.206
     NAM   HO6  7472   8.813   1.589   6.254
     ALA     N  7473   8.517   1.213   6.778
     ALA    HN  7474   8.457   1.289   6.754
     ALA    CA  7475   8.449   1.087   6.788
     ALA    HA  7476   8.502   1.028   6.714
     ALA    CB  7477   8.295   1.106   6.758
     ALA   HB1  7478   8.273   1.154   6.660
     ALA   HB2  7479   8.248   1.156   6.846
     ALA   HB3  7480   8.241   1.009   6.761
     ALA     C  7481   8.463   1.013   6.917
     ALA     O  7482   8.458   1.081   7.021
     GLN     N  7483   8.476   0.877   6.928
     GLN    HN  7484   8.475   0.844   7.022
     GLN    CA  7485   8.494   0.771   6.840
     GLN    HA  7486   8.458   0.687   6.897
     GLN    CD  7487   8.404   0.777   6.714
     GLN   OE1  7488   8.440   0.817   6.605
     GLN   NE2  7489   8.283   0.713   6.730
     GLN  HE21  7490   8.245   0.688   6.641
     GLN  HE22  7491   8.262   0.666   6.815
     GLN    CB  7492   8.638   0.752   6.789
     GLN   HB1  7493   8.679   0.840   6.735
     GLN   HB2  7494   8.649   0.660   6.729
     GLN    CG  7495   8.740   0.738   6.911
     GLN   HG1  7496   8.724   0.646   6.970
     GLN   HG2  7497   8.726   0.827   6.977
     GLN     C  7498   8.874   0.733   6.852
     GLN     O  7499   8.942   0.837   6.858
     LYS     N  7500   8.927   0.628   6.786
     LYS    HN  7501   9.016   0.619   6.741
     LYS    CA  7502   8.866   0.492   6.800
     LYS    HA  7503   8.772   0.485   6.853
     LYS    CB  7504   8.968   0.396   6.866
     LYS   HB1  7505   8.908   0.304   6.887
     LYS   HB2  7506   9.046   0.369   6.792
     LYS    CG  7507   9.058   0.450   6.984
     LYS   HG1  7508   9.139   0.375   6.998
     LYS   HG2  7509   9.105   0.547   6.959
     LYS    CD  7510   8.988   0.479   7.117
     LYS   HD1  7511   8.923   0.569   7.120
     LYS   HD2  7512   8.905   0.409   7.140
     LYS    CE  7513   9.078   0.478   7.245
     LYS   HE1  7514   9.005   0.465   7.327
     LYS   HE2  7515   9.149   0.393   7.238
     LYS    NZ  7516   9.141   0.602   7.251
     LYS   HZ1  7517   9.211   0.598   7.175
     LYS     C  7518   8.834   0.444   6.660
     LYS     O  7519   8.893   0.477   6.557
     GLY     C  7520   9.748   0.731   7.622
     GLY     O  7521   9.847   0.680   7.673
     GLY    CA  7522   9.751   0.806   7.489
     GLY   HA1  7523   9.840   0.777   7.432
     GLY   HA2  7524   9.752   0.914   7.507
     GLY     N  7525   9.633   0.773   7.411
     GLY    HN  7526   9.567   0.708   7.451
     GLY     C  7527   9.610   0.646   7.375
     GLY     O  7528   9.692   0.563   7.412
     GLY    CA  7529   9.486   0.612   7.293
     GLY   HA1  7530   9.463   0.505   7.304
     GLY   HA2  7531   9.503   0.635   7.188
     GLY     N  7532   9.373   0.689   7.340
     GLY    HN  7533   9.388   0.753   7.418
     GLY     C  7534   9.331   0.676   7.467
     GLY     O  7535   9.394   0.598   7.538
     GLY    CA  7536   9.212   0.757   7.516
     GLY   HA1  7537   9.214   0.764   7.626
     GLY   HA2  7538   9.119   0.710   7.484
     GLY     N  7539   9.217   0.891   7.462
     GLY    HN  7540   9.295   0.915   7.401
     GLY     C  7541   9.322   0.970   7.488
     GLY     O  7542   9.410   0.922   7.559
     GLY    CA  7543   9.328   1.112   7.431
     GLY   HA1  7544   9.431   1.147   7.431
     GLY   HA2  7545   9.266   1.179   7.491
     GLY     N  7546   9.278   1.112   7.295
     GLY    HN  7547   9.248   1.023   7.256
     GLY     C  7548   9.339   1.037   7.201
     GLY     O  7549   9.436   0.971   7.238
     GLY    CA  7550   9.287   1.037   7.058
     GLY   HA1  7551   9.322   0.947   7.006
     GLY   HA2  7552   9.322   1.126   7.006
     GLY     N  7553   9.142   1.037   7.058
     GLY   HN1  7554   9.091   1.045   6.970
     GLY   HN2  7555   9.072   1.035   7.148
     GLY   HN3  7556   9.057   1.087   7.048
     DAL     N  7557   8.739   0.347   6.646
     DAL    HN  7558   8.723   0.319   6.551
     DAL    CA  7559   8.641   0.298   6.745
     DAL    HA  7560   8.695   0.289   6.838
     DAL    CB  7561   8.596   0.155   6.702
     DAL   HB1  7562   8.540   0.101   6.782
     DAL   HB2  7563   8.526   0.164   6.617
     DAL   HB3  7564   8.674   0.083   6.671
     DAL     C  7565   8.524   0.401   6.766
     DAL     O  7566   8.457   0.437   6.674
     DAL     N  7567   8.494   0.440   6.895
     DAL    HN  7568   8.418   0.499   6.920
     DAL    CA  7569   8.558   0.393   7.016
     DAL    HA  7570   8.662   0.419   7.004
     DAL    CB  7571   8.526   0.247   7.057
     DAL   HB1  7572   8.610   0.180   7.029
     DAL   HB2  7573   8.501   0.227   7.164
     DAL   HB3  7574   8.440   0.209   6.999
     DAL     C  7575   8.515   0.480   7.136
     DAL   OC1  7576   8.610   0.542   7.193
     DAL   OC2  7577   8.398   0.484   7.173
     NAG    C1  7578   8.839   2.310   6.503
     NAG    H1  7579   8.939   2.305   6.551
     NAG    C5  7580   8.750   2.131   6.643
     NAG    H5  7581   8.851   2.135   6.691
     NAG    O5  7582   8.739   2.266   6.596
     NAG    C2  7583   8.845   2.207   6.386
     NAG    H2  7584   8.747   2.215   6.334
     NAG    NC  7585   8.968   2.248   6.316
     NAG    HN  7586   9.058   2.247   6.359
     NAG    CM  7587   8.967   2.258   6.184
     NAG    OM  7588   8.858   2.250   6.125
     NAG    CC  7589   9.097   2.274   6.107
     NAG   HC1  7590   9.155   2.354   6.157
     NAG   HC2  7591   9.158   2.181   6.106
     NAG   HC3  7592   9.067   2.299   6.003
     NAG    C3  7593   8.864   2.068   6.436
     NAG    H3  7594   8.961   2.064   6.490
     NAG    O3  7595   8.880   1.982   6.323
     NAG   HO3  7596   8.818   1.986   6.249
     NAG    C4  7597   8.748   2.024   6.526
     NAG    H4  7598   8.660   2.029   6.459
     NAG    O4  7599   8.779   1.891   6.571
     NAG    C6  7600   8.649   2.104   6.753
     NAG   H61  7601   8.669   2.188   6.823
     NAG   H62  7602   8.672   2.003   6.794
     NAG    O6  7603   8.507   2.098   6.714
     NAG   HO6  7604   8.492   2.165   6.647
     NAM    C1  7605   8.784   2.832   6.583
     NAM    H1  7606   8.674   2.838   6.571
     NAM    C5  7607   8.814   2.658   6.430
     NAM    H5  7608   8.703   2.654   6.428
     NAM    O5  7609   8.852   2.790   6.471
     NAM    C2  7610   8.835   2.728   6.685
     NAM    H2  7611   8.944   2.750   6.684
     NAM    NC  7612   8.754   2.746   6.801
     NAM    HN  7613   8.686   2.673   6.813
     NAM    CM  7614   8.769   2.834   6.901
     NAM    OM  7615   8.880   2.880   6.942
     NAM    CC  7616   8.637   2.864   6.978
     NAM   HC1  7617   8.544   2.840   6.922
     NAM   HC2  7618   8.634   2.816   7.078
     NAM   HC3  7619   8.635   2.973   7.000
     NAM    C3  7620   8.811   2.584   6.653
     NAM    H3  7621   8.700   2.581   6.641
     NAM    O3  7622   8.847   2.498   6.765
     NAM    CA  7623   8.983   2.492   6.801
     NAM    HA  7624   9.045   2.519   6.717
     NAM     C  7625   9.016   2.346   6.838
     NAM     O  7626   9.089   2.280   6.765
     NAM    CB  7627   9.043   2.597   6.905
     NAM   HB1  7628   9.076   2.699   6.875
     NAM   HB2  7629   9.143   2.571   6.945
     NAM   HB3  7630   8.975   2.613   6.992
     NAM    C4  7631   8.865   2.550   6.516
     NAM    H4  7632   8.976   2.542   6.512
     NAM    O4  7633   8.810   2.438   6.454
     NAM    C6  7634   8.867   2.647   6.281
     NAM   H61  7635   8.860   2.541   6.248
     NAM   H62  7636   8.974   2.675   6.289
     NAM    O6  7637   8.783   2.727   6.197
     NAM   HO6  7638   8.699   2.686   6.173
     ALA     N  7639   8.970   2.293   6.953
     ALA    HN  7640   8.992   2.199   6.976
     ALA    CA  7641   8.880   2.355   7.054
     ALA    HA  7642   8.842   2.449   7.018
     ALA    CB  7643   8.970   2.369   7.174
     ALA   HB1  7644   8.913   2.394   7.266
     ALA   HB2  7645   9.052   2.443   7.169
     ALA   HB3  7646   9.023   2.273   7.191
     ALA     C  7647   8.769   2.254   7.078
     ALA     O  7648   8.777   2.137   7.048
     GLN     N  7649   8.648   2.289   7.125
     GLN    HN  7650   8.589   2.210   7.142
     GLN    CA  7651   8.586   2.414   7.164
     GLN    HA  7652   8.484   2.402   7.198
     GLN    CD  7653   8.656   2.489   7.278
     GLN   OE1  7654   8.727   2.586   7.258
     GLN   NE2  7655   8.618   2.446   7.401
     GLN  HE21  7656   8.664   2.470   7.487
     GLN  HE22  7657   8.556   2.368   7.398
     GLN    CB  7658   8.545   2.517   7.050
     GLN   HB1  7659   8.637   2.569   7.013
     GLN   HB2  7660   8.473   2.583   7.103
     GLN    CG  7661   8.480   2.451   6.927
     GLN   HG1  7662   8.399   2.380   6.952
     GLN   HG2  7663   8.563   2.405   6.868
     GLN     C  7664   8.425   2.564   6.842
     GLN     O  7665   8.493   2.630   6.769
     LYS     N  7666   8.295   2.591   6.856
     LYS    HN  7667   8.270   2.670   6.802
     LYS    CA  7668   8.190   2.535   6.941
     LYS    HA  7669   8.193   2.427   6.935
     LYS    CB  7670   8.050   2.575   6.886
     LYS   HB1  7671   7.963   2.556   6.952
     LYS   HB2  7672   8.058   2.686   6.882
     LYS    CG  7673   8.031   2.523   6.737
     LYS   HG1  7674   8.117   2.539   6.669
     LYS   HG2  7675   8.022   2.413   6.737
     LYS    CD  7676   7.912   2.584   6.672
     LYS   HD1  7677   7.927   2.689   6.637
     LYS   HD2  7678   7.903   2.532   6.574
     LYS    CE  7679   7.770   2.571   6.732
     LYS   HE1  7680   7.771   2.617   6.833
     LYS   HE2  7681   7.703   2.627   6.663
     LYS    NZ  7682   7.722   2.432   6.749
     LYS   HZ1  7683   7.626   2.442   6.788
     LYS     C  7684   8.194   2.593   7.084
     LYS     O  7685   8.262   2.688   7.099
     GLY     C  7686   9.299   2.524   7.533
     GLY     O  7687   9.398   2.473   7.584
     GLY    CA  7688   9.302   2.599   7.400
     GLY   HA1  7689   9.391   2.570   7.343
     GLY   HA2  7690   9.303   2.707   7.418
     GLY     N  7691   9.184   2.566   7.322
     GLY    HN  7692   9.118   2.501   7.362
     GLY     C  7693   9.161   2.439   7.286
     GLY     O  7694   9.243   2.356   7.323
     GLY    CA  7695   9.037   2.405   7.204
     GLY   HA1  7696   9.014   2.298   7.215
     GLY   HA2  7697   9.054   2.428   7.099
     GLY     N  7698   8.924   2.482   7.251
     GLY    HN  7699   8.939   2.546   7.329
     GLY     C  7700   8.882   2.469   7.378
     GLY     O  7701   8.945   2.391   7.449
     GLY    CA  7702   8.763   2.550   7.427
     GLY   HA1  7703   8.765   2.557   7.537
     GLY   HA2  7704   8.670   2.503   7.395
     GLY     N  7705   8.768   2.684   7.373
     GLY    HN  7706   8.846   2.708   7.312
     GLY     C  7707   8.873   2.763   7.399
     GLY     O  7708   8.961   2.715   7.470
     GLY    CA  7709   8.879   2.905   7.342
     GLY   HA1  7710   8.982   2.940   7.342
     GLY   HA2  7711   8.817   2.972   7.402
     GLY     N  7712   8.829   2.905   7.206
     GLY    HN  7713   8.799   2.816   7.167
     GLY     C  7714   8.890   2.830   7.112
     GLY     O  7715   8.987   2.764   7.149
     GLY    CA  7716   8.838   2.830   6.969
     GLY   HA1  7717   8.873   2.740   6.917
     GLY   HA2  7718   8.873   2.919   6.917
     GLY     N  7719   8.693   2.830   6.969
     GLY    HN  7720   8.642   2.838   6.881
     DAL     N  7721   8.114   2.542   7.187
     DAL    HN  7722   8.108   2.578   7.279
     DAL    CA  7723   8.052   2.408   7.184
     DAL    HA  7724   7.961   2.414   7.125
     DAL    CB  7725   8.015   2.379   7.329
     DAL   HB1  7726   7.943   2.295   7.333
     DAL   HB2  7727   8.105   2.350   7.388
     DAL   HB3  7728   7.957   2.461   7.378
     DAL     C  7729   8.136   2.286   7.138
     DAL     O  7730   8.260   2.278   7.146
     DAL     N  7731   8.075   2.176   7.089
     DAL    HN  7732   8.143   2.103   7.077
     DAL    CA  7733   7.932   2.155   7.082
     DAL    HA  7734   7.883   2.187   7.172
     DAL    CB  7735   7.908   2.004   7.059
     DAL   HB1  7736   7.799   1.982   7.054
     DAL   HB2  7737   7.960   1.969   6.967
     DAL   HB3  7738   7.957   1.939   7.135
     DAL     C  7739   7.873   2.236   6.961
     DAL   OC1  7740   7.778   2.313   6.987
     DAL   OC2  7741   7.906   2.224   6.840
     NAG    C1  7742   8.795   3.361   6.510
     NAG    H1  7743   8.852   3.410   6.592
     NAG    C5  7744   8.729   3.169   6.631
     NAG    H5  7745   8.798   3.207   6.709
     NAG    O5  7746   8.685   3.279   6.557
     NAG    C2  7747   8.883   3.277   6.415
     NAG    H2  7748   8.813   3.258   6.332
     NAG    NC  7749   8.996   3.352   6.365
     NAG    HN  7750   9.083   3.340   6.412
     NAG    CM  7751   9.005   3.403   6.237
     NAG    OM  7752   8.906   3.412   6.165
     NAG    CC  7753   9.145   3.437   6.188
     NAG   HC1  7754   9.136   3.489   6.090
     NAG   HC2  7755   9.208   3.481   6.268
     NAG   HC3  7756   9.190   3.341   6.155
     NAG    C3  7757   8.923   3.149   6.487
     NAG    H3  7758   8.990   3.158   6.575
     NAG    O3  7759   8.999   3.061   6.405
     NAG   HO3  7760   8.943   3.038   6.331
     NAG    C4  7761   8.804   3.077   6.544
     NAG    H4  7762   8.743   3.050   6.456
     NAG    O4  7763   8.846   2.959   6.615
     NAG    C6  7764   8.610   3.111   6.698
     NAG   H61  7765   8.559   3.189   6.759
     NAG   H62  7766   8.637   3.026   6.764
     NAG    O6  7767   8.517   3.066   6.599
     NAG   HO6  7768   8.431   3.057   6.640
     NAM    C1  7769   8.598   3.861   6.456
     NAM    H1  7770   8.636   3.872   6.352
     NAM    C5  7771   8.791   3.706   6.475
     NAM    H5  7772   8.805   3.728   6.367
     NAM    O5  7773   8.712   3.812   6.537
     NAM    C2  7774   8.497   3.748   6.465
     NAM    H2  7775   8.483   3.732   6.574
     NAM    NC  7776   8.367   3.775   6.410
     NAM    HN  7777   8.355   3.728   6.323
     NAM    CM  7778   8.266   3.835   6.476
     NAM    OM  7779   8.255   3.832   6.599
     NAM    CC  7780   8.154   3.877   6.380
     NAM   HC1  7781   8.146   3.807   6.294
     NAM   HC2  7782   8.059   3.886   6.437
     NAM   HC3  7783   8.186   3.976   6.342
     NAM    C3  7784   8.563   3.617   6.416
     NAM    H3  7785   8.585   3.635   6.309
     NAM    O3  7786   8.463   3.513   6.403
     NAM    CA  7787   8.399   3.461   6.516
     NAM    HA  7788   8.418   3.357   6.492
     NAM     C  7789   8.244   3.478   6.507
     NAM     O  7790   8.190   3.529   6.408
     NAM    CB  7791   8.449   3.465   6.660
     NAM   HB1  7792   8.445   3.573   6.686
     NAM   HB2  7793   8.557   3.440   6.657
     NAM   HB3  7794   8.401   3.396   6.732
     NAM    C4  7795   8.696   3.586   6.487
     NAM    H4  7796   8.686   3.574   6.597
     NAM    O4  7797   8.744   3.466   6.426
     NAM    C6  7798   8.932   3.704   6.533
     NAM   H61  7799   8.988   3.614   6.498
     NAM   H62  7800   8.924   3.700   6.643
     NAM    O6  7801   9.010   3.816   6.500
     NAM   HO6  7802   9.055   3.787   6.420
     ALA     N  7803   8.170   3.458   6.624
     ALA    HN  7804   8.208   3.433   6.713
     ALA    CA  7805   8.021   3.478   6.633
     ALA    HA  7806   8.012   3.582   6.608
     ALA    CB  7807   7.963   3.455   6.773
     ALA   HB1  7808   7.860   3.497   6.777
     ALA   HB2  7809   8.024   3.516   6.843
     ALA   HB3  7810   7.967   3.350   6.809
     ALA     C  7811   7.936   3.395   6.532
     ALA     O  7812   7.961   3.273   6.498
     GLN     N  7813   7.821   3.451   6.483
     GLN    HN  7814   7.768   3.391   6.423
     GLN    CA  7815   7.753   3.573   6.518
     GLN    HA  7816   7.790   3.606   6.613
     GLN    CD  7817   7.786   3.676   6.412
     GLN   OE1  7818   7.777   3.641   6.293
     GLN   NE2  7819   7.812   3.802   6.450
     GLN  HE21  7820   7.826   3.872   6.380
     GLN  HE22  7821   7.785   3.828   6.543
     GLN    CB  7822   7.592   3.561   6.535
     GLN   HB1  7823   7.548   3.547   6.433
     GLN   HB2  7824   7.537   3.654   6.559
     GLN    CG  7825   7.545   3.448   6.632
     GLN   HG1  7826   7.583   3.474   6.733
     GLN   HG2  7827   7.589   3.348   6.610
     GLN     C  7828   7.395   3.426   6.630
     GLN     O  7829   7.348   3.346   6.550
     LYS     N  7830   7.318   3.486   6.726
     LYS    HN  7831   7.221   3.466   6.737
     LYS    CA  7832   7.351   3.599   6.815
     LYS    HA  7833   7.455   3.598   6.846
     LYS    CB  7834   7.271   3.585   6.945
     LYS   HB1  7835   7.289   3.674   7.009
     LYS   HB2  7836   7.161   3.582   6.925
     LYS    CG  7837   7.301   3.462   7.031
     LYS   HG1  7838   7.273   3.374   6.970
     LYS   HG2  7839   7.410   3.446   7.043
     LYS    CD  7840   7.236   3.462   7.172
     LYS   HD1  7841   7.201   3.565   7.193
     LYS   HD2  7842   7.141   3.406   7.166
     LYS    CE  7843   7.318   3.410   7.285
     LYS   HE1  7844   7.261   3.421   7.380
     LYS   HE2  7845   7.352   3.307   7.264
     LYS    NZ  7846   7.433   3.506   7.295
     LYS   HZ1  7847   7.430   3.585   7.363
     LYS   HZ2  7848   7.457   3.560   7.209
     LYS   HZ3  7849   7.519   3.454   7.320
     LYS     C  7850   7.307   3.731   6.747
     LYS     O  7851   7.221   3.731   6.653
     DAL     N  7852   7.358   3.847   6.776
     DAL    HN  7853   7.329   3.929   6.728
     DAL    CA  7854   7.473   3.880   6.858
     DAL    HA  7855   7.456   3.836   6.955
     DAL    CB  7856   7.467   4.033   6.871
     DAL   HB1  7857   7.487   4.091   6.778
     DAL   HB2  7858   7.363   4.058   6.903
     DAL   HB3  7859   7.530   4.070   6.955
     DAL     C  7860   7.603   3.831   6.803
     DAL     O  7861   7.634   3.856   6.686
     DAL     N  7862   7.692   3.767   6.877
     DAL    HN  7863   7.779   3.744   6.834
     DAL    CA  7864   7.693   3.771   7.022
     DAL    HA  7865   7.664   3.872   7.046
     DAL    CB  7866   7.839   3.763   7.074
     DAL   HB1  7867   7.885   3.662   7.070
     DAL   HB2  7868   7.899   3.833   7.011
     DAL   HB3  7869   7.842   3.789   7.182
     DAL     C  7870   7.606   3.670   7.090
     DAL   OC1  7871   7.643   3.552   7.089
     DAL   OC2  7872   7.502   3.707   7.152
     NAG    C1  7873   8.630   4.384   6.465
     NAG    H1  7874   8.655   4.416   6.568
     NAG    C5  7875   8.486   4.209   6.519
     NAG    H5  7876   8.515   4.216   6.626
     NAG    O5  7877   8.501   4.331   6.450
     NAG    C2  7878   8.732   4.277   6.416
     NAG    H2  7879   8.725   4.263   6.306
     NAG    NC  7880   8.865   4.324   6.454
     NAG    HN  7881   8.881   4.319   6.552
     NAG    CM  7882   8.968   4.376   6.387
     NAG    OM  7883   8.977   4.372   6.264
     NAG    CC  7884   9.063   4.459   6.477
     NAG   HC1  7885   9.124   4.510   6.399
     NAG   HC2  7886   9.000   4.537   6.525
     NAG   HC3  7887   9.123   4.408   6.555
     NAG    C3  7888   8.709   4.141   6.484
     NAG    H3  7889   8.728   4.145   6.593
     NAG    O3  7890   8.803   4.043   6.436
     NAG   HO3  7891   8.812   3.970   6.499
     NAG    C4  7892   8.572   4.099   6.458
     NAG    H4  7893   8.541   4.098   6.351
     NAG    O4  7894   8.541   3.973   6.517
     NAG    C6  7895   8.336   4.183   6.506
     NAG   H61  7896   8.311   4.088   6.558
     NAG   H62  7897   8.312   4.175   6.398
     NAG    O6  7898   8.254   4.288   6.570
     NAG   HO6  7899   8.288   4.326   6.651
     NAM    C1  7900   8.624   4.919   6.379
     NAM    H1  7901   8.709   4.912   6.307
     NAM    C5  7902   8.707   4.715   6.470
     NAM    H5  7903   8.788   4.718   6.393
     NAM    O5  7904   8.655   4.849   6.494
     NAM    C2  7905   8.506   4.845   6.320
     NAM    H2  7906   8.422   4.875   6.386
     NAM    NC  7907   8.480   4.905   6.190
     NAM    HN  7908   8.544   4.893   6.115
     NAM    CM  7909   8.360   4.948   6.139
     NAM    OM  7910   8.258   4.970   6.207
     NAM    CC  7911   8.357   4.968   5.992
     NAM   HC1  7912   8.284   4.894   5.953
     NAM   HC2  7913   8.332   5.073   5.969
     NAM   HC3  7914   8.451   4.932   5.945
     NAM    C3  7915   8.533   4.695   6.292
     NAM    H3  7916   8.607   4.693   6.208
     NAM    O3  7917   8.413   4.627   6.242
     NAM    CA  7918   8.310   4.596   6.332
     NAM    HA  7919   8.333   4.508   6.389
     NAM     C  7920   8.220   4.547   6.217
     NAM     O  7921   8.222   4.424   6.193
     NAM    CB  7922   8.232   4.696   6.417
     NAM   HB1  7923   8.135   4.654   6.453
     NAM   HB2  7924   8.200   4.783   6.355
     NAM   HB3  7925   8.287   4.727   6.508
     NAM    C4  7926   8.596   4.624   6.417
     NAM    H4  7927   8.519   4.605   6.494
     NAM    O4  7928   8.651   4.493   6.375
     NAM    C6  7929   8.771   4.668   6.603
     NAM   H61  7930   8.780   4.557   6.608
     NAM   H62  7931   8.702   4.704   6.682
     NAM    O6  7932   8.898   4.723   6.628
     NAM   HO6  7933   8.892   4.809   6.671
     ALA     N  7934   8.152   4.635   6.138
     ALA    HN  7935   8.154   4.733   6.155
     ALA    CA  7936   8.087   4.589   6.013
     ALA    HA  7937   8.167   4.544   5.957
     ALA    CB  7938   8.038   4.709   5.939
     ALA   HB1  7939   7.987   4.671   5.848
     ALA   HB2  7940   8.114   4.781   5.905
     ALA   HB3  7941   7.965   4.758   6.007
     ALA     C  7942   7.976   4.481   6.036
     ALA     O  7943   7.893   4.495   6.124
     GLN     N  7944   7.965   4.373   5.953
     GLN    HN  7945   7.908   4.299   5.987
     GLN    CA  7946   8.054   4.335   5.847
     GLN    HA  7947   7.992   4.254   5.810
     GLN    CD  7948   8.067   4.430   5.724
     GLN   OE1  7949   8.169   4.501   5.711
     GLN   NE2  7950   7.952   4.443   5.644
     GLN  HE21  7951   7.954   4.529   5.594
     GLN  HE22  7952   7.867   4.390   5.652
     GLN    CB  7953   8.181   4.276   5.902
     GLN   HB1  7954   8.233   4.366   5.941
     GLN   HB2  7955   8.247   4.245   5.818
     GLN    CG  7956   8.170   4.146   5.989
     GLN   HG1  7957   8.112   4.071   5.929
     GLN   HG2  7958   8.117   4.178   6.081
     GLN     C  7959   8.299   4.091   6.033
     GLN     O  7960   8.348   4.135   6.136
     LYS     N  7961   8.370   3.996   5.964
     LYS    HN  7962   8.459   3.969   6.001
     LYS    CA  7963   8.328   3.928   5.842
     LYS    HA  7964   8.220   3.931   5.843
     LYS    CB  7965   8.370   3.784   5.863
     LYS   HB1  7966   8.362   3.725   5.770
     LYS   HB2  7967   8.475   3.797   5.898
     LYS    CG  7968   8.297   3.711   5.981
     LYS   HG1  7969   8.330   3.606   5.995
     LYS   HG2  7970   8.326   3.757   6.078
     LYS    CD  7971   8.142   3.705   5.964
     LYS   HD1  7972   8.106   3.805   5.997
     LYS   HD2  7973   8.114   3.685   5.858
     LYS    CE  7974   8.075   3.597   6.050
     LYS   HE1  7975   8.114   3.495   6.028
     LYS   HE2  7976   8.093   3.616   6.158
     LYS    NZ  7977   7.924   3.598   6.045
     LYS   HZ1  7978   7.896   3.501   6.072
     LYS   HZ2  7979   7.897   3.624   5.948
     LYS   HZ3  7980   7.890   3.664   6.117
     LYS     C  7981   8.382   3.999   5.713
     LYS     O  7982   8.486   4.058   5.728
     DAL     N  7983   8.316   3.993   5.600
     DAL    HN  7984   8.360   4.033   5.520
     DAL    CA  7985   8.187   3.928   5.564
     DAL    HA  7986   8.176   3.838   5.623
     DAL    CB  7987   8.197   3.892   5.413
     DAL   HB1  7988   8.285   3.829   5.389
     DAL   HB2  7989   8.099   3.855   5.376
     DAL   HB3  7990   8.225   3.976   5.345
     DAL     C  7991   8.069   4.018   5.589
     DAL     O  7992   8.086   4.139   5.596
     NAG    C1  7993   8.785   5.420   6.409
     NAG    H1  7994   8.749   5.458   6.508
     NAG    C5  7995   8.600   5.294   6.366
     NAG    H5  7996   8.563   5.327   6.465
     NAG    O5  7997   8.689   5.390   6.315
     NAG    C2  7998   8.864   5.287   6.433
     NAG    H2  7999   8.914   5.268   6.336
     NAG    NC  8000   8.994   5.309   6.497
     NAG    HN  8001   9.082   5.296   6.451
     NAG    CM  8002   8.995   5.337   6.632
     NAG    OM  8003   8.906   5.316   6.714
     NAG    CC  8004   9.125   5.403   6.672
     NAG   HC1  8005   9.209   5.365   6.610
     NAG   HC2  8006   9.112   5.513   6.665
     NAG   HC3  8007   9.149   5.378   6.778
     NAG    C3  8008   8.778   5.178   6.482
     NAG    H3  8009   8.732   5.213   6.577
     NAG    O3  8010   8.853   5.058   6.512
     NAG   HO3  8011   8.799   4.989   6.552
     NAG    C4  8012   8.669   5.160   6.380
     NAG    H4  8013   8.724   5.151   6.283
     NAG    O4  8014   8.579   5.049   6.399
     NAG    C6  8015   8.490   5.283   6.267
     NAG   H61  8016   8.415   5.215   6.312
     NAG   H62  8017   8.529   5.246   6.169
     NAG    O6  8018   8.419   5.404   6.233
     NAG   HO6  8019   8.352   5.380   6.168
     NAM    C1  8020   8.877   5.938   6.303
     NAM    H1  8021   8.988   5.944   6.305
     NAM    C5  8022   8.865   5.749   6.447
     NAM    H5  8023   8.976   5.758   6.455
     NAM    O5  8024   8.811   5.879   6.418
     NAM    C2  8025   8.822   5.852   6.196
     NAM    H2  8026   8.713   5.846   6.212
     NAM    NC  8027   8.890   5.901   6.081
     NAM    HN  8028   8.967   5.839   6.067
     NAM    CM  8029   8.845   5.993   5.994
     NAM    OM  8030   8.744   6.060   6.016
     NAM    CC  8031   8.923   6.015   5.864
     NAM   HC1  8032   8.920   5.929   5.794
     NAM   HC2  8033   8.883   6.109   5.819
     NAM   HC3  8034   9.031   6.037   5.875
     NAM    C3  8035   8.873   5.704   6.209
     NAM    H3  8036   8.984   5.707   6.211
     NAM    O3  8037   8.836   5.623   6.093
     NAM    CA  8038   8.697   5.583   6.075
     NAM    HA  8039   8.635   5.589   6.163
     NAM     C  8040   8.692   5.442   6.018
     NAM     O  8041   8.585   5.397   5.969
     NAM    CB  8042   8.644   5.677   5.965
     NAM   HB1  8043   8.534   5.660   5.957
     NAM   HB2  8044   8.703   5.677   5.871
     NAM   HB3  8045   8.637   5.778   6.010
     NAM    C4  8046   8.829   5.650   6.334
     NAM    H4  8047   8.718   5.655   6.328
     NAM    O4  8048   8.880   5.515   6.353
     NAM    C6  8049   8.802   5.715   6.579
     NAM   H61  8050   8.813   5.800   6.649
     NAM   H62  8051   8.851   5.630   6.632
     NAM    O6  8052   8.664   5.677   6.573
     NAM   HO6  8053   8.640   5.638   6.657
     ALA     N  8054   8.802   5.367   6.028
     ALA    HN  8055   8.886   5.415   6.053
     ALA    CA  8056   8.818   5.247   5.953
     ALA    HA  8057   8.726   5.190   5.948
     ALA    CB  8058   8.913   5.155   6.035
     ALA   HB1  8059   9.014   5.200   6.038
     ALA   HB2  8060   8.938   5.058   5.989
     ALA   HB3  8061   8.874   5.136   6.137
     ALA     C  8062   8.865   5.282   5.809
     ALA     O  8063   8.890   5.399   5.774
     GLN     N  8064   8.892   5.191   5.717
     GLN    HN  8065   8.944   5.226   5.639
     GLN    CA  8066   8.855   5.051   5.708
     GLN    HA  8067   8.800   5.016   5.795
     GLN    CD  8068   8.741   5.026   5.598
     GLN   OE1  8069   8.715   5.113   5.515
     GLN   NE2  8070   8.690   4.903   5.591
     GLN  HE21  8071   8.613   4.895   5.529
     GLN  HE22  8072   8.710   4.827   5.653
     GLN    CB  8073   8.977   4.957   5.678
     GLN   HB1  8074   8.958   4.848   5.667
     GLN   HB2  8075   9.042   4.960   5.768
     GLN    CG  8076   9.064   5.001   5.560
     GLN   HG1  8077   9.164   4.957   5.577
     GLN   HG2  8078   9.070   5.112   5.560
     GLN     C  8079   9.004   4.948   5.432
     GLN     O  8080   8.928   5.020   5.370
     LYS     N  8081   9.034   4.837   5.372
     LYS    HN  8082   8.983   4.825   5.287
     LYS    CA  8083   9.160   4.762   5.387
     LYS    HA  8084   9.158   4.692   5.305
     LYS    CB  8085   9.143   4.669   5.507
     LYS   HB1  8086   9.230   4.602   5.519
     LYS   HB2  8087   9.144   4.734   5.597
     LYS    CG  8088   9.021   4.577   5.504
     LYS   HG1  8089   9.029   4.503   5.587
     LYS   HG2  8090   8.930   4.637   5.521
     LYS    CD  8091   9.011   4.486   5.373
     LYS   HD1  8092   8.992   4.556   5.288
     LYS   HD2  8093   9.110   4.435   5.369
     LYS    CE  8094   8.889   4.385   5.368
     LYS   HE1  8095   8.884   4.332   5.270
     LYS   HE2  8096   8.901   4.309   5.449
     LYS    NZ  8097   8.759   4.446   5.396
     LYS   HZ1  8098   8.739   4.540   5.357
     LYS   HZ2  8099   8.746   4.448   5.500
     LYS   HZ3  8100   8.688   4.377   5.364
     LYS     C  8101   9.299   4.828   5.390
     LYS     O  8102   9.320   4.949   5.402
     DAL     N  8103   9.410   4.754   5.389
     DAL    HN  8104   9.496   4.801   5.409
     DAL    CA  8105   9.425   4.610   5.354
     DAL    HA  8106   9.327   4.575   5.326
     DAL    CB  8107   9.478   4.520   5.465
     DAL   HB1  8108   9.403   4.491   5.541
     DAL   HB2  8109   9.511   4.428   5.413
     DAL   HB3  8110   9.553   4.577   5.523
     DAL     C  8111   9.526   4.611   5.235
     DAL     O  8112   9.636   4.668   5.239
     NAG    C1  8113   8.791   6.454   6.410
     NAG    H1  8114   8.706   6.468   6.339
     NAG    C5  8115   8.906   6.288   6.271
     NAG    H5  8116   8.821   6.301   6.201
     NAG    O5  8117   8.918   6.404   6.357
     NAG    C2  8118   8.756   6.353   6.519
     NAG    H2  8119   8.845   6.351   6.585
     NAG    NC  8120   8.639   6.371   6.596
     NAG    HN  8121   8.547   6.367   6.558
     NAG    CM  8122   8.650   6.439   6.719
     NAG    OM  8123   8.755   6.467   6.777
     NAG    CC  8124   8.513   6.464   6.786
     NAG   HC1  8125   8.532   6.517   6.881
     NAG   HC2  8126   8.440   6.517   6.721
     NAG   HC3  8127   8.472   6.364   6.811
     NAG    C3  8128   8.750   6.212   6.448
     NAG    H3  8129   8.668   6.213   6.373
     NAG    O3  8130   8.713   6.109   6.534
     NAG   HO3  8131   8.682   6.036   6.479
     NAG    C4  8132   8.875   6.178   6.371
     NAG    H4  8133   8.959   6.156   6.441
     NAG    O4  8134   8.832   6.069   6.287
     NAG    C6  8135   9.033   6.265   6.193
     NAG   H61  8136   9.023   6.175   6.128
     NAG   H62  8137   9.122   6.244   6.256
     NAG    O6  8138   9.060   6.381   6.107
     NAG   HO6  8139   9.155   6.374   6.097
     NAM    C1  8140   8.849   6.976   6.393
     NAM    H1  8141   8.819   6.998   6.497
     NAM    C5  8142   8.720   6.775   6.410
     NAM    H5  8143   8.710   6.806   6.516
     NAM    O5  8144   8.748   6.898   6.332
     NAM    C2  8145   8.977   6.894   6.377
     NAM    H2  8146   8.993   6.888   6.267
     NAM    NC  8147   9.089   6.947   6.437
     NAM    HN  8148   9.110   6.900   6.522
     NAM    CM  8149   9.171   7.044   6.382
     NAM    OM  8150   9.136   7.134   6.309
     NAM    CC  8151   9.307   7.023   6.439
     NAM   HC1  8152   9.383   7.095   6.403
     NAM   HC2  8153   9.298   7.036   6.549
     NAM   HC3  8154   9.345   6.922   6.410
     NAM    C3  8155   8.962   6.752   6.441
     NAM    H3  8156   8.936   6.782   6.545
     NAM    O3  8157   9.079   6.673   6.444
     NAM    CA  8158   9.132   6.608   6.333
     NAM    HA  8159   9.046   6.581   6.274
     NAM     C  8160   9.221   6.490   6.379
     NAM     O  8161   9.286   6.431   6.292
     NAM    CB  8162   9.226   6.711   6.266
     NAM   HB1  8163   9.311   6.742   6.330
     NAM   HB2  8164   9.172   6.799   6.226
     NAM   HB3  8165   9.273   6.660   6.178
     NAM    C4  8166   8.838   6.684   6.397
     NAM    H4  8167   8.864   6.661   6.291
     NAM    O4  8168   8.821   6.573   6.479
     NAM    C6  8169   8.591   6.713   6.351
     NAM   H61  8170   8.504   6.782   6.358
     NAM   H62  8171   8.554   6.627   6.411
     NAM    O6  8172   8.607   6.676   6.216
     NAM   HO6  8173   8.593   6.755   6.163
     ALA     N  8174   9.228   6.457   6.504
     ALA    HN  8175   9.175   6.507   6.573
     ALA    CA  8176   9.283   6.324   6.538
     ALA    HA  8177   9.244   6.245   6.476
     ALA    CB  8178   9.250   6.292   6.681
     ALA   HB1  8179   9.273   6.374   6.752
     ALA   HB2  8180   9.309   6.202   6.711
     ALA   HB3  8181   9.142   6.271   6.688
     ALA     C  8182   9.436   6.309   6.522
     ALA     O  8183   9.482   6.212   6.469
     GLN     N  8184   9.522   6.400   6.563
     GLN    HN  8185   9.615   6.384   6.531
     GLN    CA  8186   9.507   6.523   6.639
     GLN    HA  8187   9.404   6.525   6.669
     GLN    CD  8188   9.585   6.534   6.779
     GLN   OE1  8189   9.553   6.625   6.857
     GLN   NE2  8190   9.668   6.435   6.818
     GLN  HE21  8191   9.680   6.425   6.917
     GLN  HE22  8192   9.712   6.374   6.753
     GLN    CB  8193   9.533   6.642   6.546
     GLN   HB1  8194   9.494   6.734   6.594
     GLN   HB2  8195   9.466   6.635   6.458
     GLN    CG  8196   9.683   6.653   6.508
     GLN   HG1  8197   9.727   6.565   6.455
     GLN   HG2  8198   9.737   6.658   6.604
     GLN     C  8199   9.705   6.777   6.421
     GLN     O  8200   9.663   6.785   6.305
     LYS     N  8201   9.770   6.883   6.470
     LYS    HN  8202   9.771   6.964   6.411
     LYS    CA  8203   9.850   6.895   6.588
     LYS    HA  8204   9.828   6.820   6.662
     LYS    CB  8205   9.826   7.038   6.655
     LYS   HB1  8206   9.899   7.058   6.737
     LYS   HB2  8207   9.849   7.104   6.568
     LYS    CG  8208   9.681   7.064   6.698
     LYS   HG1  8209   9.680   7.157   6.759
     LYS   HG2  8210   9.612   7.071   6.611
     LYS    CD  8211   9.638   6.958   6.800
     LYS   HD1  8212   9.605   6.875   6.734
     LYS   HD2  8213   9.729   6.934   6.857
     LYS    CE  8214   9.516   6.992   6.887
     LYS   HE1  8215   9.532   7.074   6.960
     LYS   HE2  8216   9.436   7.023   6.817
     LYS    NZ  8217   9.475   6.871   6.960
     LYS   HZ1  8218   9.441   6.794   6.900
     LYS     C  8219   9.994   6.879   6.556
     LYS     O  8220  10.035   6.901   6.441
     GLY     C  8221  10.469   6.679   7.069
     GLY     O  8222  10.568   6.628   7.120
     GLY    CA  8223  10.472   6.754   6.936
     GLY   HA1  8224  10.561   6.725   6.879
     GLY   HA2  8225  10.473   6.862   6.954
     GLY     N  8226  10.354   6.721   6.858
     GLY    HN  8227  10.288   6.656   6.898
     GLY     C  8228  10.331   6.594   6.822
     GLY     O  8229  10.413   6.511   6.859
     GLY    CA  8230  10.207   6.560   6.740
     GLY   HA1  8231  10.184   6.453   6.751
     GLY   HA2  8232  10.224   6.583   6.635
     GLY     N  8233  10.094   6.637   6.787
     GLY    HN  8234  10.109   6.701   6.865
     GLY     C  8235  10.052   6.624   6.914
     GLY     O  8236  10.115   6.546   6.985
     GLY    CA  8237   9.933   6.705   6.963
     GLY   HA1  8238   9.935   6.712   7.073
     GLY   HA2  8239   9.840   6.658   6.931
     GLY     N  8240   9.938   6.839   6.909
     GLY    HN  8241  10.016   6.863   6.848
     GLY     C  8242  10.043   6.918   6.935
     GLY     O  8243  10.131   6.870   7.006
     GLY    CA  8244  10.049   7.060   6.878
     GLY   HA1  8245  10.152   7.095   6.878
     GLY   HA2  8246   9.987   7.127   6.938
     GLY     N  8247   9.999   7.060   6.742
     GLY    HN  8248   9.969   6.971   6.703
     GLY     C  8249  10.060   6.985   6.648
     GLY     O  8250  10.157   6.919   6.685
     GLY    CA  8251  10.008   6.985   6.505
     GLY   HA1  8252  10.043   6.895   6.453
     GLY   HA2  8253  10.043   7.074   6.453
     GLY     N  8254   9.863   6.985   6.505
     GLY   HN1  8255   9.812   6.993   6.417
     GLY   HN2  8256   9.793   6.983   6.595
     GLY   HN3  8257   9.778   7.035   6.495
     DAL     N  8258  10.081   6.859   6.654
     DAL    HN  8259  10.177   6.854   6.628
     DAL    CA  8260  10.049   6.834   6.799
     DAL    HA  8261   9.979   6.907   6.837
     DAL    CB  8262  10.193   6.817   6.863
     DAL   HB1  8263  10.199   6.787   6.969
     DAL   HB2  8264  10.251   6.736   6.812
     DAL   HB3  8265  10.253   6.910   6.859
     DAL     C  8266   9.974   6.703   6.840
     DAL     O  8267   9.956   6.621   6.752
     DAL     N  8268   9.928   6.683   6.960
     DAL    HN  8269   9.880   6.596   6.968
     DAL    CA  8270   9.925   6.770   7.081
     DAL    HA  8271   9.982   6.859   7.057
     DAL    CB  8272   9.996   6.699   7.199
     DAL   HB1  8273  10.099   6.680   7.163
     DAL   HB2  8274  10.003   6.765   7.287
     DAL   HB3  8275   9.960   6.601   7.239
     DAL     C  8276   9.776   6.817   7.099
     DAL   OC1  8277   9.751   6.939   7.108
     DAL   OC2  8278   9.690   6.729   7.100
     NAG    C1  8279   8.675   7.480   6.304
     NAG    H1  8280   8.751   7.514   6.230
     NAG    C5  8281   8.843   7.342   6.387
     NAG    H5  8282   8.912   7.370   6.305
     NAG    O5  8283   8.745   7.438   6.417
     NAG    C2  8284   8.592   7.360   6.243
     NAG    H2  8285   8.518   7.327   6.319
     NAG    NC  8286   8.523   7.387   6.119
     NAG    HN  8287   8.568   7.410   6.033
     NAG    CM  8288   8.386   7.390   6.100
     NAG    OM  8289   8.306   7.388   6.191
     NAG    CC  8290   8.339   7.396   5.951
     NAG   HC1  8291   8.364   7.496   5.910
     NAG   HC2  8292   8.394   7.312   5.902
     NAG   HC3  8293   8.229   7.379   5.947
     NAG    C3  8294   8.691   7.249   6.227
     NAG    H3  8295   8.757   7.282   6.144
     NAG    O3  8296   8.634   7.135   6.173
     NAG   HO3  8297   8.705   7.071   6.168
     NAG    C4  8298   8.769   7.218   6.347
     NAG    H4  8299   8.703   7.198   6.434
     NAG    O4  8300   8.868   7.103   6.327
     NAG    C6  8301   8.918   7.323   6.519
     NAG   H61  8302   8.984   7.234   6.510
     NAG   H62  8303   8.846   7.310   6.602
     NAG    O6  8304   8.998   7.437   6.559
     NAG   HO6  8305   8.954   7.507   6.609
     NAM    C1  8306   8.653   7.995   6.407
     NAM    H1  8307   8.549   8.019   6.376
     NAM    C5  8308   8.648   7.815   6.250
     NAM    H5  8309   8.550   7.853   6.213
     NAM    O5  8310   8.724   7.929   6.303
     NAM    C2  8311   8.646   7.903   6.524
     NAM    H2  8312   8.749   7.877   6.557
     NAM    NC  8313   8.579   7.967   6.638
     NAM    HN  8314   8.487   7.933   6.660
     NAM    CM  8315   8.632   8.044   6.732
     NAM    OM  8316   8.755   8.078   6.742
     NAM    CC  8317   8.532   8.097   6.827
     NAM   HC1  8318   8.510   8.021   6.906
     NAM   HC2  8319   8.578   8.186   6.874
     NAM   HC3  8320   8.434   8.124   6.781
     NAM    C3  8321   8.571   7.779   6.485
     NAM    H3  8322   8.477   7.815   6.438
     NAM    O3  8323   8.527   7.690   6.590
     NAM    CA  8324   8.622   7.613   6.656
     NAM    HA  8325   8.714   7.590   6.603
     NAM     C  8326   8.568   7.477   6.672
     NAM     O  8327   8.628   7.398   6.741
     NAM    CB  8328   8.661   7.679   6.787
     NAM   HB1  8329   8.734   7.631   6.855
     NAM   HB2  8330   8.571   7.692   6.851
     NAM   HB3  8331   8.712   7.776   6.769
     NAM    C4  8332   8.645   7.719   6.367
     NAM    H4  8333   8.749   7.700   6.398
     NAM    O4  8334   8.594   7.591   6.327
     NAM    C6  8335   8.715   7.773   6.117
     NAM   H61  8336   8.652   7.692   6.076
     NAM   H62  8337   8.811   7.722   6.139
     NAM    O6  8338   8.710   7.879   6.017
     NAM   HO6  8339   8.793   7.926   6.030
     ALA     N  8340   8.444   7.449   6.614
     ALA    HN  8341   8.388   7.518   6.569
     ALA    CA  8342   8.379   7.316   6.631
     ALA    HA  8343   8.444   7.239   6.592
     ALA    CB  8344   8.246   7.308   6.551
     ALA   HB1  8345   8.271   7.291   6.444
     ALA   HB2  8346   8.197   7.408   6.557
     ALA   HB3  8347   8.177   7.226   6.578
     ALA     C  8348   8.352   7.294   6.781
     ALA     O  8349   8.349   7.391   6.859
     GLN     N  8350   8.329   7.171   6.837
     GLN    HN  8351   8.321   7.168   6.937
     GLN    CA  8352   8.341   7.045   6.770
     GLN    HA  8353   8.303   7.052   6.669
     GLN    CD  8354   8.493   7.004   6.750
     GLN   OE1  8355   8.529   6.957   6.642
     GLN   NE2  8356   8.576   7.014   6.855
     GLN  HE21  8357   8.672   6.990   6.842
     GLN  HE22  8358   8.537   7.028   6.946
     GLN    CB  8359   8.265   6.932   6.848
     GLN   HB1  8360   8.158   6.964   6.847
     GLN   HB2  8361   8.291   6.926   6.956
     GLN    CG  8362   8.272   6.794   6.780
     GLN   HG1  8363   8.371   6.746   6.760
     GLN   HG2  8364   8.229   6.802   6.678
     GLN     C  8365   8.195   6.693   6.858
     GLN     O  8366   8.252   6.642   6.952
     LYS     N  8367   8.072   6.653   6.837
     LYS    HN  8368   8.033   6.580   6.893
     LYS    CA  8369   7.970   6.722   6.762
     LYS    HA  8370   7.998   6.826   6.760
     LYS    CB  8371   7.834   6.723   6.832
     LYS   HB1  8372   7.848   6.811   6.898
     LYS   HB2  8373   7.749   6.762   6.773
     LYS    CG  8374   7.799   6.606   6.923
     LYS   HG1  8375   7.860   6.600   7.015
     LYS   HG2  8376   7.697   6.626   6.963
     LYS    CD  8377   7.799   6.479   6.842
     LYS   HD1  8378   7.736   6.496   6.752
     LYS   HD2  8379   7.904   6.458   6.812
     LYS    CE  8380   7.742   6.358   6.922
     LYS   HE1  8381   7.642   6.401   6.944
     LYS   HE2  8382   7.737   6.260   6.870
     LYS    NZ  8383   7.814   6.337   7.043
     LYS   HZ1  8384   7.913   6.334   7.012
     LYS   HZ2  8385   7.774   6.248   7.079
     LYS   HZ3  8386   7.807   6.418   7.108
     LYS     C  8387   7.953   6.686   6.616
     LYS     O  8388   8.020   6.594   6.557
     DAL     N  8389   7.875   6.770   6.539
     DAL    HN  8390   7.852   6.731   6.450
     DAL    CA  8391   7.843   6.905   6.558
     DAL    HA  8392   7.786   6.908   6.650
     DAL    CB  8393   7.743   6.946   6.440
     DAL   HB1  8394   7.658   6.874   6.436
     DAL   HB2  8395   7.709   7.050   6.456
     DAL   HB3  8396   7.793   6.947   6.341
     DAL     C  8397   7.963   6.999   6.569
     DAL     O  8398   8.075   6.976   6.523
     NAG    C1  8399   8.765   8.499   6.372
     NAG    H1  8400   8.803   8.494   6.476
     NAG    C5  8401   8.624   8.328   6.436
     NAG    H5  8402   8.650   8.338   6.543
     NAG    O5  8403   8.634   8.443   6.359
     NAG    C2  8404   8.862   8.408   6.287
     NAG    H2  8405   8.814   8.406   6.187
     NAG    NC  8406   9.002   8.448   6.305
     NAG    HN  8407   9.057   8.443   6.388
     NAG    CM  8408   9.067   8.496   6.201
     NAG    OM  8409   9.013   8.529   6.093
     NAG    CC  8410   9.211   8.510   6.235
     NAG   HC1  8411   9.259   8.416   6.272
     NAG   HC2  8412   9.263   8.547   6.144
     NAG   HC3  8413   9.221   8.580   6.320
     NAG    C3  8414   8.851   8.264   6.345
     NAG    H3  8415   8.910   8.262   6.439
     NAG    O3  8416   8.917   8.176   6.255
     NAG   HO3  8417   9.006   8.174   6.289
     NAG    C4  8418   8.712   8.221   6.369
     NAG    H4  8419   8.673   8.199   6.268
     NAG    O4  8420   8.722   8.108   6.450
     NAG    C6  8421   8.479   8.289   6.447
     NAG   H61  8422   8.464   8.197   6.507
     NAG   H62  8423   8.434   8.265   6.349
     NAG    O6  8424   8.398   8.387   6.515
     NAG   HO6  8425   8.436   8.398   6.602
     NAM    C1  8426   8.668   9.017   6.434
     NAM    H1  8427   8.596   9.016   6.350
     NAM    C5  8428   8.809   8.862   6.320
     NAM    H5  8429   8.745   8.860   6.230
     NAM    O5  8430   8.805   8.991   6.390
     NAM    C2  8431   8.635   8.914   6.536
     NAM    H2  8432   8.699   8.931   6.626
     NAM    NC  8433   8.499   8.927   6.573
     NAM    HN  8434   8.443   8.847   6.552
     NAM    CM  8435   8.435   8.970   6.685
     NAM    OM  8436   8.495   8.979   6.790
     NAM    CC  8437   8.293   9.019   6.687
     NAM   HC1  8438   8.253   8.964   6.774
     NAM   HC2  8439   8.279   9.129   6.682
     NAM   HC3  8440   8.234   8.974   6.604
     NAM    C3  8441   8.636   8.780   6.480
     NAM    H3  8442   8.564   8.772   6.396
     NAM    O3  8443   8.609   8.672   6.574
     NAM    CA  8444   8.693   8.638   6.681
     NAM    HA  8445   8.749   8.554   6.643
     NAM     C  8446   8.582   8.577   6.765
     NAM     O  8447   8.545   8.457   6.754
     NAM    CB  8448   8.768   8.735   6.769
     NAM   HB1  8449   8.795   8.678   6.861
     NAM   HB2  8450   8.725   8.830   6.806
     NAM   HB3  8451   8.864   8.770   6.725
     NAM    C4  8452   8.772   8.750   6.419
     NAM    H4  8453   8.856   8.741   6.491
     NAM    O4  8454   8.767   8.634   6.328
     NAM    C6  8455   8.952   8.854   6.268
     NAM   H61  8456   8.976   8.925   6.186
     NAM   H62  8457   8.973   8.750   6.235
     NAM    O6  8458   9.048   8.880   6.374
     NAM   HO6  8459   9.040   8.965   6.417
     ALA     N  8460   8.523   8.656   6.858
     ALA    HN  8461   8.559   8.746   6.879
     ALA    CA  8462   8.389   8.628   6.914
     ALA    HA  8463   8.322   8.607   6.832
     ALA    CB  8464   8.342   8.743   6.997
     ALA   HB1  8465   8.391   8.732   7.096
     ALA   HB2  8466   8.233   8.755   7.015
     ALA   HB3  8467   8.380   8.839   6.955
     ALA     C  8468   8.410   8.495   7.003
     ALA     O  8469   8.517   8.471   7.061
     GLN     N  8470   8.315   8.408   7.020
     GLN    HN  8471   8.336   8.322   7.066
     GLN    CA  8472   8.176   8.425   6.972
     GLN    HA  8473   8.155   8.530   6.983
     GLN    CD  8474   8.147   8.409   6.816
     GLN   OE1  8475   8.074   8.485   6.754
     GLN   NE2  8476   8.217   8.315   6.755
     GLN  HE21  8477   8.200   8.300   6.657
     GLN  HE22  8478   8.262   8.240   6.803
     GLN    CB  8479   8.067   8.353   7.057
     GLN   HB1  8480   8.083   8.244   7.039
     GLN   HB2  8481   7.974   8.389   7.007
     GLN    CG  8482   8.073   8.402   7.203
     GLN   HG1  8483   8.064   8.511   7.221
     GLN   HG2  8484   8.172   8.373   7.246
     GLN     C  8485   7.976   8.322   7.290
     GLN     O  8486   7.990   8.197   7.300
     LYS     N  8487   7.869   8.375   7.359
     LYS    HN  8488   7.798   8.329   7.412
     LYS    CA  8489   7.821   8.509   7.341
     LYS    HA  8490   7.893   8.585   7.367
     LYS    CB  8491   7.700   8.538   7.444
     LYS   HB1  8492   7.674   8.642   7.415
     LYS   HB2  8493   7.608   8.478   7.432
     LYS    CG  8494   7.739   8.534   7.594
     LYS   HG1  8495   7.651   8.555   7.657
     LYS   HG2  8496   7.805   8.450   7.625
     LYS    CD  8497   7.825   8.659   7.625
     LYS   HD1  8498   7.925   8.646   7.579
     LYS   HD2  8499   7.779   8.753   7.588
     LYS    CE  8500   7.841   8.672   7.776
     LYS   HE1  8501   7.745   8.679   7.831
     LYS   HE2  8502   7.900   8.584   7.811
     LYS    NZ  8503   7.918   8.798   7.805
     LYS   HZ1  8504   7.877   8.877   7.750
     LYS   HZ2  8505   8.010   8.767   7.768
     LYS   HZ3  8506   7.921   8.827   7.905
     LYS     C  8507   7.758   8.534   7.203
     LYS     O  8508   7.733   8.434   7.133
     DAL     N  8509   7.741   8.659   7.146
     DAL    HN  8510   7.700   8.654   7.055
     DAL    CA  8511   7.777   8.791   7.189
     DAL    HA  8512   7.750   8.800   7.294
     DAL    CB  8513   7.705   8.897   7.109
     DAL   HB1  8514   7.737   8.904   7.003
     DAL   HB2  8515   7.595   8.884   7.113
     DAL   HB3  8516   7.737   8.988   7.165
     DAL     C  8517   7.934   8.812   7.186
     DAL     O  8518   7.999   8.742   7.114
     NAG    C1  8519   8.625   9.550   6.396
     NAG    H1  8520   8.632   9.569   6.505
     NAG    C5  8521   8.531   9.335   6.437
     NAG    H5  8522   8.529   9.385   6.536
     NAG    O5  8523   8.526   9.458   6.362
     NAG    C2  8524   8.751   9.480   6.345
     NAG    H2  8525   8.751   9.466   6.235
     NAG    NC  8526   8.862   9.565   6.379
     NAG    HN  8527   8.890   9.542   6.472
     NAG    CM  8528   8.940   9.644   6.299
     NAG    OM  8529   8.910   9.708   6.199
     NAG    CC  8530   9.083   9.660   6.342
     NAG   HC1  8531   9.106   9.636   6.448
     NAG   HC2  8532   9.163   9.613   6.281
     NAG   HC3  8533   9.100   9.769   6.333
     NAG    C3  8534   8.774   9.348   6.416
     NAG    H3  8535   8.790   9.373   6.523
     NAG    O3  8536   8.885   9.263   6.380
     NAG   HO3  8537   8.883   9.178   6.424
     NAG    C4  8538   8.653   9.260   6.409
     NAG    H4  8539   8.651   9.224   6.304
     NAG    O4  8540   8.652   9.145   6.494
     NAG    C6  8541   8.414   9.257   6.398
     NAG   H61  8542   8.324   9.307   6.441
     NAG   H62  8543   8.422   9.158   6.448
     NAG    O6  8544   8.393   9.237   6.251
     NAG   HO6  8545   8.416   9.323   6.214
     NAM    C1  8546   8.474  10.061   6.335
     NAM    H1  8547   8.526  10.067   6.237
     NAM    C5  8548   8.636   9.893   6.381
     NAM    H5  8549   8.677   9.897   6.278
     NAM    O5  8550   8.576  10.016   6.425
     NAM    C2  8551   8.366   9.954   6.355
     NAM    H2  8552   8.337   9.967   6.462
     NAM    NC  8553   8.252   9.962   6.256
     NAM    HN  8554   8.281   9.934   6.164
     NAM    CM  8555   8.118   9.975   6.268
     NAM    OM  8556   8.060  10.000   6.372
     NAM    CC  8557   8.045   9.955   6.137
     NAM   HC1  8558   8.050   9.854   6.093
     NAM   HC2  8559   7.936   9.979   6.145
     NAM   HC3  8560   8.086  10.025   6.061
     NAM    C3  8561   8.409   9.810   6.321
     NAM    H3  8562   8.433   9.825   6.213
     NAM    O3  8563   8.307   9.703   6.313
     NAM    CA  8564   8.249   9.646   6.432
     NAM    HA  8565   8.317   9.562   6.443
     NAM     C  8566   8.125   9.591   6.369
     NAM     O  8567   8.123   9.475   6.326
     NAM    CB  8568   8.236   9.747   6.549
     NAM   HB1  8569   8.183   9.701   6.635
     NAM   HB2  8570   8.174   9.829   6.506
     NAM   HB3  8571   8.327   9.801   6.583
     NAM    C4  8572   8.538   9.778   6.393
     NAM    H4  8573   8.518   9.762   6.501
     NAM    O4  8574   8.614   9.671   6.330
     NAM    C6  8575   8.751   9.892   6.484
     NAM   H61  8576   8.796   9.993   6.489
     NAM   H62  8577   8.823   9.820   6.440
     NAM    O6  8578   8.714   9.849   6.613
     NAM   HO6  8579   8.732   9.755   6.613
     ALA     N  8580   8.012   9.658   6.365
     ALA    HN  8581   8.007   9.755   6.390
     ALA    CA  8582   7.887   9.591   6.344
     ALA    HA  8583   7.877   9.530   6.255
     ALA    CB  8584   7.782   9.698   6.327
     ALA   HB1  8585   7.683   9.664   6.288
     ALA   HB2  8586   7.816   9.780   6.261
     ALA   HB3  8587   7.767   9.755   6.421
     ALA     C  8588   7.845   9.507   6.462
     ALA     O  8589   7.899   9.526   6.568
     GLN     N  8590   7.757   9.409   6.449
     GLN    HN  8591   7.728   9.358   6.529
     GLN    CA  8592   7.678   9.370   6.326
     GLN    HA  8593   7.634   9.454   6.274
     GLN    CD  8594   7.771   9.311   6.218
     GLN   OE1  8595   7.760   9.332   6.098
     GLN   NE2  8596   7.864   9.230   6.258
     GLN  HE21  8597   7.851   9.190   6.349
     GLN  HE22  8598   7.916   9.182   6.188
     GLN    CB  8599   7.572   9.269   6.366
     GLN   HB1  8600   7.614   9.178   6.414
     GLN   HB2  8601   7.503   9.227   6.289
     GLN    CG  8602   7.475   9.330   6.469
     GLN   HG1  8603   7.428   9.419   6.422
     GLN   HG2  8604   7.524   9.378   6.557
     GLN     C  8605   7.370   9.238   6.514
     GLN     O  8606   7.360   9.129   6.457
     LYS     N  8607   7.291   9.273   6.617
     LYS    HN  8608   7.232   9.197   6.640
     LYS    CA  8609   7.280   9.392   6.696
     LYS    HA  8610   7.380   9.418   6.727
     LYS    CB  8611   7.185   9.372   6.808
     LYS   HB1  8612   7.151   9.467   6.856
     LYS   HB2  8613   7.098   9.321   6.762
     LYS    CG  8614   7.249   9.280   6.915
     LYS   HG1  8615   7.266   9.177   6.879
     LYS   HG2  8616   7.350   9.318   6.940
     LYS    CD  8617   7.175   9.277   7.047
     LYS   HD1  8618   7.067   9.259   7.033
     LYS   HD2  8619   7.229   9.198   7.103
     LYS    CE  8620   7.179   9.403   7.138
     LYS   HE1  8621   7.150   9.489   7.075
     LYS   HE2  8622   7.121   9.404   7.233
     LYS    NZ  8623   7.319   9.424   7.185
     LYS   HZ1  8624   7.367   9.334   7.207
     LYS   HZ2  8625   7.317   9.483   7.271
     LYS   HZ3  8626   7.370   9.484   7.117
     LYS     C  8627   7.231   9.508   6.610
     LYS     O  8628   7.147   9.496   6.522
     DAL     N  8629   7.269   9.640   6.629
     DAL    HN  8630   7.218   9.697   6.564
     DAL    CA  8631   7.374   9.690   6.706
     DAL    HA  8632   7.354   9.662   6.809
     DAL    CB  8633   7.372   9.846   6.694
     DAL   HB1  8634   7.352   9.878   6.590
     DAL   HB2  8635   7.298   9.896   6.761
     DAL   HB3  8636   7.467   9.897   6.721
     DAL     C  8637   7.523   9.637   6.681
     DAL     O  8638   7.572   9.592   6.576
     NAG    C1  8639   8.502  10.589   6.385
     NAG    H1  8640   8.444  10.602   6.480
     NAG    C5  8641   8.360  10.396   6.317
     NAG    H5  8642   8.305  10.412   6.412
     NAG    O5  8643   8.422  10.526   6.284
     NAG    C2  8644   8.616  10.495   6.407
     NAG    H2  8645   8.664  10.480   6.308
     NAG    NC  8646   8.695  10.545   6.518
     NAG    HN  8647   8.635  10.560   6.596
     NAG    CM  8648   8.820  10.580   6.544
     NAG    OM  8649   8.910  10.561   6.461
     NAG    CC  8650   8.837  10.637   6.678
     NAG   HC1  8651   8.904  10.578   6.744
     NAG   HC2  8652   8.881  10.740   6.678
     NAG   HC3  8653   8.743  10.644   6.737
     NAG    C3  8654   8.564  10.362   6.456
     NAG    H3  8655   8.500  10.375   6.545
     NAG    O3  8656   8.675  10.275   6.493
     NAG   HO3  8657   8.708  10.241   6.409
     NAG    C4  8658   8.475  10.301   6.346
     NAG    H4  8659   8.531  10.301   6.250
     NAG    O4  8660   8.418  10.179   6.368
     NAG    C6  8661   8.261  10.357   6.207
     NAG   H61  8662   8.254  10.248   6.183
     NAG   H62  8663   8.270  10.409   6.110
     NAG    O6  8664   8.133  10.396   6.243
     NAG   HO6  8665   8.099  10.349   6.320
     NAM    C1  8666   8.426  11.096   6.315
     NAM    H1  8667   8.511  11.102   6.244
     NAM    C5  8668   8.551  10.931   6.424
     NAM    H5  8669   8.632  10.929   6.349
     NAM    O5  8670   8.472  11.052   6.436
     NAM    C2  8671   8.329  10.998   6.264
     NAM    H2  8672   8.247  10.976   6.336
     NAM    NC  8673   8.298  11.050   6.137
     NAM    HN  8674   8.364  11.016   6.071
     NAM    CM  8675   8.187  11.115   6.108
     NAM    OM  8676   8.087  11.134   6.181
     NAM    CC  8677   8.176  11.143   5.968
     NAM   HC1  8678   8.252  11.220   5.943
     NAM   HC2  8679   8.207  11.059   5.903
     NAM   HC3  8680   8.078  11.189   5.944
     NAM    C3  8681   8.402  10.869   6.245
     NAM    H3  8682   8.497  10.890   6.191
     NAM    O3  8683   8.323  10.770   6.163
     NAM    CA  8684   8.197  10.729   6.213
     NAM    HA  8685   8.222  10.635   6.166
     NAM     C  8686   8.078  10.794   6.130
     NAM     O  8687   8.087  10.811   6.005
     NAM    CB  8688   8.161  10.696   6.357
     NAM   HB1  8689   8.055  10.670   6.375
     NAM   HB2  8690   8.192  10.785   6.416
     NAM   HB3  8691   8.225  10.616   6.400
     NAM    C4  8692   8.460  10.824   6.375
     NAM    H4  8693   8.389  10.807   6.459
     NAM    O4  8694   8.548  10.714   6.349
     NAM    C6  8695   8.604  10.902   6.563
     NAM   H61  8696   8.667  10.810   6.567
     NAM   H62  8697   8.519  10.888   6.632
     NAM    O6  8698   8.682  11.011   6.617
     NAM   HO6  8699   8.626  11.077   6.658
     ALA     N  8700   7.967  10.832   6.192
     ALA    HN  8701   7.938  10.792   6.279
     ALA    CA  8702   7.859  10.893   6.114
     ALA    HA  8703   7.903  10.972   6.054
     ALA    CB  8704   7.751  10.959   6.206
     ALA   HB1  8705   7.796  11.038   6.269
     ALA   HB2  8706   7.706  10.884   6.275
     ALA   HB3  8707   7.665  10.994   6.144
     ALA     C  8708   7.794  10.804   6.009
     ALA     O  8709   7.784  10.684   6.019
     GLN     N  8710   7.736  10.851   5.897
     GLN    HN  8711   7.699  10.785   5.832
     GLN    CA  8712   7.737  10.988   5.837
     GLN    HA  8713   7.760  11.066   5.909
     GLN    CD  8714   7.854  10.993   5.725
     GLN   OE1  8715   7.890  10.898   5.656
     GLN   NE2  8716   7.904  11.118   5.696
     GLN  HE21  8717   7.980  11.123   5.631
     GLN  HE22  8718   7.884  11.196   5.754
     GLN    CB  8719   7.599  11.018   5.771
     GLN   HB1  8720   7.577  10.930   5.707
     GLN   HB2  8721   7.594  11.108   5.707
     GLN    CG  8722   7.495  11.025   5.885
     GLN   HG1  8723   7.520  11.100   5.963
     GLN   HG2  8724   7.499  10.923   5.929
     GLN     C  8725   7.362  11.051   5.832
     GLN     O  8726   7.318  11.161   5.828
     LYS     N  8727   7.294  10.945   5.773
     LYS    HN  8728   7.203  10.964   5.736
     LYS    CA  8729   7.317  10.803   5.769
     LYS    HA  8730   7.416  10.775   5.801
     LYS    CB  8731   7.300  10.755   5.623
     LYS   HB1  8732   7.369  10.805   5.552
     LYS   HB2  8733   7.319  10.648   5.601
     LYS    CG  8734   7.157  10.791   5.561
     LYS   HG1  8735   7.077  10.748   5.625
     LYS   HG2  8736   7.130  10.898   5.566
     LYS    CD  8737   7.134  10.743   5.422
     LYS   HD1  8738   7.217  10.773   5.355
     LYS   HD2  8739   7.142  10.632   5.414
     LYS    CE  8740   7.005  10.797   5.355
     LYS   HE1  8741   6.985  10.906   5.369
     LYS   HE2  8742   7.011  10.782   5.245
     LYS    NZ  8743   6.888  10.724   5.403
     LYS   HZ1  8744   6.906  10.626   5.436
     LYS   HZ2  8745   6.818  10.712   5.327
     LYS   HZ3  8746   6.857  10.780   5.484
     LYS     C  8747   7.216  10.730   5.867
     LYS     O  8748   7.121  10.793   5.909
     DAL     N  8749   7.223  10.598   5.886
     DAL    HN  8750   7.145  10.551   5.928
     DAL    CA  8751   7.338  10.518   5.864
     DAL    HA  8752   7.365  10.526   5.760
     DAL    CB  8753   7.297  10.380   5.912
     DAL   HB1  8754   7.388  10.318   5.920
     DAL   HB2  8755   7.251  10.374   6.013
     DAL   HB3  8756   7.220  10.339   5.844
     DAL     C  8757   7.456  10.564   5.943
     DAL     O  8758   7.443  10.626   6.045
     DAL     N  8759   7.585  10.526   5.906
     DAL    HN  8760   7.662  10.570   5.952
     DAL    CA  8761   7.614  10.451   5.786
     DAL    HA  8762   7.536  10.381   5.761
     DAL    CB  8763   7.753  10.388   5.823
     DAL   HB1  8764   7.743  10.369   5.932
     DAL   HB2  8765   7.770  10.289   5.776
     DAL   HB3  8766   7.843  10.453   5.824
     DAL     C  8767   7.625  10.537   5.662
     DAL   OC1  8768   7.650  10.661   5.673
     DAL   OC2  8769   7.593  10.485   5.553
     NAG    C1  8770   8.507  11.615   6.390
     NAG    H1  8771   8.404  11.641   6.423
     NAG    C5  8772   8.416  11.446   6.247
     NAG    H5  8773   8.311  11.472   6.272
     NAG    O5  8774   8.501  11.562   6.260
     NAG    C2  8775   8.551  11.511   6.481
     NAG    H2  8776   8.653  11.483   6.445
     NAG    NC  8777   8.567  11.569   6.614
     NAG    HN  8778   8.481  11.593   6.657
     NAG    CM  8779   8.679  11.615   6.678
     NAG    OM  8780   8.793  11.604   6.628
     NAG    CC  8781   8.670  11.675   6.818
     NAG   HC1  8782   8.641  11.597   6.891
     NAG   HC2  8783   8.769  11.716   6.849
     NAG   HC3  8784   8.603  11.763   6.818
     NAG    C3  8785   8.461  11.397   6.476
     NAG    H3  8786   8.357  11.428   6.500
     NAG    O3  8787   8.504  11.298   6.571
     NAG   HO3  8788   8.464  11.219   6.533
     NAG    C4  8789   8.458  11.336   6.338
     NAG    H4  8790   8.560  11.297   6.317
     NAG    O4  8791   8.366  11.231   6.334
     NAG    C6  8792   8.409  11.415   6.104
     NAG   H61  8793   8.351  11.493   6.050
     NAG   H62  8794   8.370  11.313   6.086
     NAG    O6  8795   8.535  11.417   6.044
     NAG   HO6  8796   8.525  11.421   5.949
     NAM    C1  8797   8.609  12.152   6.318
     NAM    H1  8798   8.706  12.144   6.371
     NAM    C5  8799   8.536  11.964   6.453
     NAM    H5  8800   8.640  11.964   6.493
     NAM    O5  8801   8.504  12.095   6.397
     NAM    C2  8802   8.605  12.057   6.197
     NAM    H2  8803   8.502  12.064   6.158
     NAM    NC  8804   8.699  12.089   6.096
     NAM    HN  8805   8.786  12.042   6.111
     NAM    CM  8806   8.663  12.150   5.986
     NAM    OM  8807   8.553  12.190   5.964
     NAM    CC  8808   8.777  12.170   5.890
     NAM   HC1  8809   8.752  12.178   5.781
     NAM   HC2  8810   8.832  12.259   5.926
     NAM   HC3  8811   8.833  12.074   5.890
     NAM    C3  8812   8.628  11.909   6.237
     NAM    H3  8813   8.736  11.913   6.266
     NAM    O3  8814   8.643  11.809   6.136
     NAM    CA  8815   8.543  11.785   6.038
     NAM    HA  8816   8.564  11.679   6.042
     NAM     C  8817   8.593  11.833   5.903
     NAM     O  8818   8.705  11.801   5.857
     NAM    CB  8819   8.390  11.799   6.058
     NAM   HB1  8820   8.340  11.781   5.960
     NAM   HB2  8821   8.369  11.907   6.076
     NAM   HB3  8822   8.357  11.730   6.138
     NAM    C4  8823   8.537  11.857   6.348
     NAM    H4  8824   8.432  11.844   6.312
     NAM    O4  8825   8.592  11.730   6.393
     NAM    C6  8826   8.455  11.929   6.574
     NAM   H61  8827   8.497  11.840   6.626
     NAM   H62  8828   8.348  11.910   6.550
     NAM    O6  8829   8.447  12.038   6.669
     NAM   HO6  8830   8.537  12.062   6.694
     ALA     N  8831   8.516  11.920   5.834
     ALA    HN  8832   8.428  11.960   5.858
     ALA    CA  8833   8.543  11.946   5.690
     ALA    HA  8834   8.643  11.988   5.694
     ALA    CB  8835   8.447  12.060   5.644
     ALA   HB1  8836   8.455  12.149   5.709
     ALA   HB2  8837   8.343  12.022   5.650
     ALA   HB3  8838   8.476  12.089   5.541
     ALA     C  8839   8.538  11.816   5.605
     ALA     O  8840   8.454  11.729   5.628
     GLN     N  8841   8.621  11.788   5.507
     GLN    HN  8842   8.604  11.703   5.457
     GLN    CA  8843   8.731  11.865   5.453
     GLN    HA  8844   8.706  11.970   5.454
     GLN    CD  8845   8.858  11.858   5.538
     GLN   OE1  8846   8.908  11.749   5.555
     GLN   NE2  8847   8.898  11.971   5.600
     GLN  HE21  8848   8.983  11.965   5.653
     GLN  HE22  8849   8.850  12.058   5.589
     GLN    CB  8850   8.763  11.836   5.304
     GLN   HB1  8851   8.798  11.731   5.299
     GLN   HB2  8852   8.853  11.895   5.278
     GLN    CG  8853   8.638  11.845   5.217
     GLN   HG1  8854   8.613  11.953   5.216
     GLN   HG2  8855   8.549  11.794   5.260
     GLN     C  8856   8.646  11.811   5.070
     GLN     O  8857   8.613  11.698   5.031
     LYS     N  8858   8.681  11.908   4.984
     LYS    HN  8859   8.661  11.883   4.890
     LYS    CA  8860   8.735  12.039   5.003
     LYS    HA  8861   8.669  12.086   5.074
     LYS    CB  8862   8.743  12.119   4.869
     LYS   HB1  8863   8.797  12.216   4.879
     LYS   HB2  8864   8.803  12.057   4.800
     LYS    CG  8865   8.604  12.138   4.795
     LYS   HG1  8866   8.562  12.041   4.759
     LYS   HG2  8867   8.533  12.173   4.873
     LYS    CD  8868   8.616  12.227   4.671
     LYS   HD1  8869   8.689  12.310   4.679
     LYS   HD2  8870   8.663  12.157   4.598
     LYS    CE  8871   8.480  12.265   4.617
     LYS   HE1  8872   8.495  12.321   4.523
     LYS   HE2  8873   8.433  12.165   4.601
     LYS    NZ  8874   8.409  12.352   4.709
     LYS   HZ1  8875   8.477  12.422   4.743
     LYS   HZ2  8876   8.385  12.299   4.795
     LYS   HZ3  8877   8.328  12.403   4.668
     LYS     C  8878   8.870  12.058   5.069
     LYS     O  8879   8.953  11.968   5.071
     DAL     N  8880   8.901  12.174   5.130
     DAL    HN  8881   8.994  12.168   5.163
     DAL    CA  8882   8.823  12.298   5.161
     DAL    HA  8883   8.780  12.319   5.063
     DAL    CB  8884   8.905  12.410   5.229
     DAL   HB1  8885   8.860  12.506   5.196
     DAL   HB2  8886   8.909  12.411   5.340
     DAL   HB3  8887   9.008  12.421   5.187
     DAL     C  8888   8.701  12.263   5.239
     DAL     O  8889   8.704  12.174   5.327
     NAG    C1  8890   8.547  12.679   6.387
     NAG    H1  8891   8.466  12.687   6.311
     NAG    C5  8892   8.648  12.510   6.254
     NAG    H5  8893   8.568  12.522   6.177
     NAG    O5  8894   8.668  12.633   6.327
     NAG    C2  8895   8.510  12.590   6.497
     NAG    H2  8896   8.594  12.577   6.568
     NAG    NC  8897   8.397  12.629   6.580
     NAG    HN  8898   8.314  12.578   6.559
     NAG    CM  8899   8.406  12.675   6.711
     NAG    OM  8900   8.498  12.738   6.762
     NAG    CC  8901   8.292  12.622   6.797
     NAG   HC1  8902   8.282  12.514   6.774
     NAG   HC2  8903   8.312  12.624   6.907
     NAG   HC3  8904   8.198  12.678   6.781
     NAG    C3  8905   8.494  12.449   6.433
     NAG    H3  8906   8.398  12.445   6.377
     NAG    O3  8907   8.475  12.357   6.538
     NAG   HO3  8908   8.463  12.274   6.491
     NAG    C4  8909   8.608  12.401   6.351
     NAG    H4  8910   8.697  12.364   6.407
     NAG    O4  8911   8.574  12.281   6.271
     NAG    C6  8912   8.768  12.476   6.166
     NAG   H61  8913   8.769  12.544   6.078
     NAG   H62  8914   8.764  12.371   6.130
     NAG    O6  8915   8.891  12.484   6.233
     NAG   HO6  8916   8.923  12.403   6.273
     NAM    C1  8917   8.627  13.209   6.359
     NAM    H1  8918   8.636  13.229   6.468
     NAM    C5  8919   8.476  13.025   6.386
     NAM    H5  8920   8.488  13.056   6.492
     NAM    O5  8921   8.503  13.149   6.309
     NAM    C2  8922   8.736  13.113   6.313
     NAM    H2  8923   8.723  13.107   6.203
     NAM    NC  8924   8.868  13.160   6.347
     NAM    HN  8925   8.882  13.116   6.436
     NAM    CM  8926   8.967  13.224   6.281
     NAM    OM  8927   8.963  13.273   6.170
     NAM    CC  8928   9.088  13.219   6.361
     NAM   HC1  8929   9.166  13.282   6.313
     NAM   HC2  8930   9.064  13.256   6.464
     NAM   HC3  8931   9.129  13.117   6.354
     NAM    C3  8932   8.720  12.979   6.381
     NAM    H3  8933   8.720  13.002   6.489
     NAM    O3  8934   8.823  12.884   6.358
     NAM    CA  8935   8.867  12.853   6.225
     NAM    HA  8936   8.865  12.753   6.266
     NAM     C  8937   9.014  12.880   6.193
     NAM     O  8938   9.103  12.818   6.251
     NAM    CB  8939   8.785  12.852   6.098
     NAM   HB1  8940   8.748  12.951   6.065
     NAM   HB2  8941   8.701  12.779   6.108
     NAM   HB3  8942   8.839  12.799   6.017
     NAM    C4  8943   8.584  12.918   6.354
     NAM    H4  8944   8.564  12.883   6.250
     NAM    O4  8945   8.571  12.801   6.447
     NAM    C6  8946   8.330  12.979   6.359
     NAM   H61  8947   8.271  13.068   6.390
     NAM   H62  8948   8.290  12.911   6.437
     NAM    O6  8949   8.309  12.941   6.215
     NAM   HO6  8950   8.337  13.017   6.162
     ALA     N  8951   9.053  12.971   6.095
     ALA    HN  8952   8.988  13.025   6.042
     ALA    CA  8953   9.192  12.978   6.056
     ALA    HA  8954   9.262  12.956   6.135
     ALA    CB  8955   9.223  13.124   6.025
     ALA   HB1  8956   9.232  13.180   6.121
     ALA   HB2  8957   9.133  13.167   5.976
     ALA   HB3  8958   9.316  13.135   5.964
     ALA     C  8959   9.220  12.900   5.933
     ALA     O  8960   9.132  12.872   5.854
     GLN     N  8961   9.339  12.848   5.896
     GLN    HN  8962   9.337  12.803   5.807
     GLN    CA  8963   9.465  12.850   5.956
     GLN    HA  8964   9.476  12.944   6.008
     GLN    CD  8965   9.456  12.745   6.069
     GLN   OE1  8966   9.395  12.769   6.173
     GLN   NE2  8967   9.526  12.635   6.056
     GLN  HE21  8968   9.503  12.563   6.122
     GLN  HE22  8969   9.568  12.615   5.967
     GLN    CB  8970   9.586  12.838   5.850
     GLN   HB1  8971   9.588  12.741   5.797
     GLN   HB2  8972   9.685  12.849   5.900
     GLN    CG  8973   9.582  12.945   5.735
     GLN   HG1  8974   9.595  13.046   5.779
     GLN   HG2  8975   9.485  12.936   5.681
     GLN     C  8976   9.686  12.923   5.637
     GLN     O  8977   9.671  12.850   5.539
     LYS     N  8978   9.808  12.973   5.648
     LYS    HN  8979   9.874  12.943   5.579
     LYS    CA  8980   9.858  13.059   5.754
     LYS    HA  8981   9.771  13.107   5.796
     LYS    CB  8982   9.947  13.173   5.696
     LYS   HB1  8983   9.891  13.214   5.609
     LYS   HB2  8984   9.955  13.250   5.776
     LYS    CG  8985  10.095  13.139   5.640
     LYS   HG1  8986  10.157  13.111   5.728
     LYS   HG2  8987  10.091  13.037   5.596
     LYS    CD  8988  10.165  13.248   5.564
     LYS   HD1  8989  10.109  13.235   5.469
     LYS   HD2  8990  10.133  13.341   5.617
     LYS    CE  8991  10.312  13.238   5.553
     LYS   HE1  8992  10.350  13.318   5.486
     LYS   HE2  8993  10.354  13.256   5.655
     LYS    NZ  8994  10.355  13.103   5.509
     LYS   HZ1  8995  10.427  13.121   5.436
     LYS   HZ2  8996  10.283  13.046   5.460
     LYS   HZ3  8997  10.387  13.047   5.590
     LYS     C  8998   9.936  12.980   5.865
     LYS     O  8999   9.945  13.030   5.980
     DAL     N  9000   9.987  12.850   5.846
     DAL    HN  9001   9.997  12.816   5.939
     DAL    CA  9002  10.017  12.766   5.733
     DAL    HA  9003   9.998  12.821   5.642
     DAL    CB  9004   9.930  12.638   5.731
     DAL   HB1  9005   9.957  12.561   5.655
     DAL   HB2  9006   9.941  12.586   5.828
     DAL   HB3  9007   9.823  12.668   5.736
     DAL     C  9008  10.169  12.744   5.725
     DAL     O  9009  10.241  12.750   5.820
     DAL     N  9010  10.225  12.731   5.602
     DAL    HN  9011  10.325  12.733   5.596
     DAL    CA  9012  10.157  12.718   5.481
     DAL    HA  9013  10.068  12.656   5.483
     DAL    CB  9014  10.249  12.645   5.386
     DAL   HB1  9015  10.273  12.542   5.419
     DAL   HB2  9016  10.214  12.652   5.281
     DAL   HB3  9017  10.345  12.700   5.391
     DAL     C  9018  10.125  12.851   5.410
     DAL   OC1  9019  10.210  12.940   5.376
     DAL   OC2  9020  10.003  12.871   5.391
     NAG    C1  9021  10.766   0.200   6.240
     NAG    H1  9022  10.687   0.204   6.162
     NAG    C5  9023  10.890   0.016   6.132
     NAG    H5  9024  10.818   0.028   6.049
     NAG    O5  9025  10.893   0.150   6.188
     NAG    C2  9026  10.717   0.107   6.346
     NAG    H2  9027  10.787   0.096   6.431
     NAG    NC  9028  10.587   0.146   6.379
     NAG    HN  9029  10.516   0.134   6.309
     NAG    CM  9030  10.549   0.200   6.497
     NAG    OM  9031  10.624   0.203   6.598
     NAG    CC  9032  10.410   0.266   6.481
     NAG   HC1  9033  10.418   0.350   6.410
     NAG   HC2  9034  10.333   0.195   6.445
     NAG   HC3  9035  10.370   0.292   6.581
     NAG    C3  9036  10.704  13.426   6.284
     NAG    H3  9037  10.628  13.432   6.204
     NAG    O3  9038  10.644  13.338   6.386
     NAG   HO3  9039  10.557  13.301   6.369
     NAG    C4  9040  10.838  13.375   6.227
     NAG    H4  9041  10.917  13.363   6.304
     NAG    O4  9042  10.843  13.248   6.155
     NAG    C6  9043  11.030  13.449   6.084
     NAG   H61  9044  11.038  13.341   6.062
     NAG   H62  9045  11.104   0.014   6.164
     NAG    O6  9046  11.060   0.070   5.961
     NAG   HO6  9047  11.153   0.068   5.935
     NAM    C1  9048  10.862   0.716   6.240
     NAM    H1  9049  10.847   0.704   6.349
     NAM    C5  9050  10.707   0.537   6.236
     NAM    H5  9051  10.688   0.552   6.344
     NAM    O5  9052  10.744   0.661   6.182
     NAM    C2  9053  10.981   0.624   6.207
     NAM    H2  9054  10.998   0.617   6.097
     NAM    NC  9055  11.089   0.673   6.293
     NAM    HN  9056  11.071   0.663   6.390
     NAM    CM  9057  11.209   0.737   6.265
     NAM    OM  9058  11.249   0.762   6.150
     NAM    CC  9059  11.286   0.785   6.382
     NAM   HC1  9060  11.238   0.756   6.478
     NAM   HC2  9061  11.388   0.743   6.370
     NAM   HC3  9062  11.282   0.896   6.383
     NAM    C3  9063  10.952   0.489   6.264
     NAM    H3  9064  10.963   0.492   6.375
     NAM    O3  9065  11.069   0.401   6.244
     NAM    CA  9066  11.121   0.369   6.111
     NAM    HA  9067  11.100   0.268   6.143
     NAM     C  9068  11.275   0.383   6.120
     NAM     O  9069  11.331   0.388   6.229
     NAM    CB  9070  11.065   0.403   5.971
     NAM   HB1  9071  11.091   0.507   5.942
     NAM   HB2  9072  10.958   0.378   5.956
     NAM   HB3  9073  11.104   0.333   5.894
     NAM    C4  9074  10.816   0.433   6.219
     NAM    H4  9075  10.815   0.419   6.109
     NAM    O4  9076  10.777   0.318   6.299
     NAM    C6  9077  10.581   0.489   6.170
     NAM   H61  9078  10.557   0.388   6.210
     NAM   H62  9079  10.600   0.481   6.061
     NAM    O6  9080  10.471   0.576   6.201
     NAM   HO6  9081  10.443   0.585   6.292
     ALA     N  9082  11.346   0.383   6.004
     ALA    HN  9083  11.312   0.393   5.911
     ALA    CA  9084  11.494   0.409   6.022
     ALA    HA  9085  11.502   0.476   6.106
     ALA    CB  9086  11.538   0.488   5.897
     ALA   HB1  9087  11.632   0.543   5.920
     ALA   HB2  9088  11.479   0.582   5.886
     ALA   HB3  9089  11.556   0.434   5.802
     ALA     C  9090  11.584   0.293   6.058
     ALA     O  9091  11.551   0.172   6.040
     GLN     N  9092  11.702   0.309   6.114
     GLN    HN  9093  11.757   0.229   6.134
     GLN    CA  9094  11.757   0.435   6.173
     GLN    HA  9095  11.749   0.516   6.102
     GLN    CD  9096  11.699   0.488   6.311
     GLN   OE1  9097  11.650   0.601   6.318
     GLN   NE2  9098  11.690   0.403   6.410
     GLN  HE21  9099  11.668   0.446   6.497
     GLN  HE22  9100  11.739   0.316   6.401
     GLN    CB  9101  11.914   0.435   6.180
     GLN   HB1  9102  11.950   0.393   6.083
     GLN   HB2  9103  11.941   0.371   6.266
     GLN    CG  9104  11.990   0.566   6.217
     GLN   HG1  9105  12.099   0.549   6.214
     GLN   HG2  9106  11.959   0.595   6.320
     GLN     C  9107  11.956   0.680   6.122
     GLN     O  9108  11.931   0.658   6.003
     LYS     N  9109  11.961   0.809   6.168
     LYS    HN  9110  11.948   0.877   6.096
     LYS    CA  9111  11.987   0.857   6.302
     LYS    HA  9112  11.998   0.780   6.376
     LYS    CB  9113  11.878   0.958   6.347
     LYS   HB1  9114  11.912   1.003   6.443
     LYS   HB2  9115  11.882   1.034   6.266
     LYS    CG  9116  11.738   0.896   6.372
     LYS   HG1  9117  11.708   0.857   6.273
     LYS   HG2  9118  11.739   0.815   6.448
     LYS    CD  9119  11.640   1.000   6.405
     LYS   HD1  9120  11.640   1.075   6.323
     LYS   HD2  9121  11.543   0.947   6.403
     LYS    CE  9122  11.658   1.066   6.539
     LYS   HE1  9123  11.753   1.123   6.549
     LYS   HE2  9124  11.582   1.145   6.555
     LYS    NZ  9125  11.655   0.966   6.642
     LYS   HZ1  9126  11.616   0.876   6.608
     LYS   HZ2  9127  11.594   0.994   6.721
     LYS   HZ3  9128  11.750   0.955   6.683
     LYS     C  9129  12.128   0.921   6.297
     LYS     O  9130  12.151   0.988   6.190
     DAL     N  9131  12.218   0.905   6.393
     DAL    HN  9132  12.310   0.935   6.369
     DAL    CA  9133  12.207   0.849   6.527
     DAL    HA  9134  12.127   0.904   6.576
     DAL    CB  9135  12.337   0.872   6.609
     DAL   HB1  9136  12.303   0.862   6.714
     DAL   HB2  9137  12.413   0.796   6.582
     DAL   HB3  9138  12.377   0.973   6.585
     DAL     C  9139  12.166   0.704   6.533
     DAL     O  9140  12.201   0.620   6.450
     DAL     N  9141  12.098   0.658   6.639
     DAL    HN  9142  12.066   0.564   6.654
     DAL    CA  9143  12.054   0.740   6.754
     DAL    HA  9144  12.138   0.807   6.767
     DAL    CB  9145  12.047   0.663   6.886
     DAL   HB1  9146  12.151   0.658   6.924
     DAL   HB2  9147  11.989   0.717   6.964
     DAL   HB3  9148  12.002   0.562   6.871
     DAL     C  9149  11.923   0.812   6.730
     DAL   OC1  9150  11.829   0.736   6.695
     DAL   OC2  9151  11.917   0.939   6.729
     NAG    C1  9152  10.754   1.214   6.301
     NAG    H1  9153  10.745   1.260   6.200
     NAG    C5  9154  10.929   1.073   6.232
     NAG    H5  9155  10.900   1.096   6.127
     NAG    O5  9156  10.887   1.168   6.328
     NAG    C2  9157  10.648   1.096   6.303
     NAG    H2  9158  10.629   1.082   6.412
     NAG    NC  9159  10.522   1.155   6.260
     NAG    HN  9160  10.488   1.116   6.175
     NAG    CM  9161  10.436   1.235   6.327
     NAG    OM  9162  10.425   1.260   6.447
     NAG    CC  9163  10.326   1.292   6.237
     NAG   HC1  9164  10.312   1.393   6.280
     NAG   HC2  9165  10.355   1.303   6.131
     NAG   HC3  9166  10.227   1.242   6.237
     NAG    C3  9167  10.700   0.966   6.246
     NAG    H3  9168  10.683   0.968   6.136
     NAG    O3  9169  10.611   0.865   6.285
     NAG   HO3  9170  10.622   0.785   6.234
     NAG    C4  9171  10.845   0.949   6.275
     NAG    H4  9172  10.864   0.932   6.383
     NAG    O4  9173  10.891   0.844   6.192
     NAG    C6  9174  11.078   1.041   6.226
     NAG   H61  9175  11.104   0.980   6.136
     NAG   H62  9176  11.120   0.989   6.315
     NAG    O6  9177  11.139   1.166   6.201
     NAG   HO6  9178  11.093   1.210   6.129
     NAM    C1  9179  10.832   1.702   6.478
     NAM    H1  9180  10.734   1.719   6.527
     NAM    C5  9181  10.724   1.552   6.325
     NAM    H5  9182  10.628   1.560   6.380
     NAM    O5  9183  10.804   1.669   6.342
     NAM    C2  9184  10.906   1.593   6.550
     NAM    H2  9185  11.014   1.580   6.528
     NAM    NC  9186  10.908   1.644   6.682
     NAM    HN  9187  10.818   1.670   6.717
     NAM    CM  9188  11.006   1.689   6.767
     NAM    OM  9189  11.121   1.715   6.742
     NAM    CC  9190  10.958   1.711   6.915
     NAM   HC1  9191  10.906   1.804   6.946
     NAM   HC2  9192  10.891   1.629   6.949
     NAM   HC3  9193  11.048   1.700   6.980
     NAM    C3  9194  10.813   1.472   6.545
     NAM    H3  9195  10.723   1.502   6.603
     NAM    O3  9196  10.853   1.367   6.638
     NAM    CA  9197  10.967   1.290   6.604
     NAM    HA  9198  10.994   1.298   6.500
     NAM     C  9199  10.954   1.147   6.628
     NAM     O  9200  11.046   1.067   6.596
     NAM    CB  9201  11.090   1.340   6.683
     NAM   HB1  9202  11.131   1.430   6.634
     NAM   HB2  9203  11.177   1.271   6.677
     NAM   HB3  9204  11.063   1.365   6.788
     NAM    C4  9205  10.784   1.428   6.402
     NAM    H4  9206  10.880   1.407   6.350
     NAM    O4  9207  10.706   1.304   6.394
     NAM    C6  9208  10.696   1.541   6.172
     NAM   H61  9209  10.649   1.638   6.142
     NAM   H62  9210  10.629   1.457   6.146
     NAM    O6  9211  10.821   1.531   6.095
     NAM   HO6  9212  10.836   1.617   6.054
     ALA     N  9213  10.838   1.105   6.696
     ALA    HN  9214  10.754   1.158   6.701
     ALA    CA  9215  10.836   0.969   6.750
     ALA    HA  9216  10.850   0.898   6.670
     ALA    CB  9217  10.699   0.957   6.822
     ALA   HB1  9218  10.624   0.989   6.745
     ALA   HB2  9219  10.692   1.022   6.912
     ALA   HB3  9220  10.680   0.850   6.844
     ALA     C  9221  10.952   0.937   6.848
     ALA     O  9222  11.012   1.028   6.911
     GLN     N  9223  10.989   0.814   6.868
     GLN    HN  9224  11.054   0.807   6.942
     GLN    CA  9225  10.944   0.689   6.801
     GLN    HA  9226  10.841   0.698   6.768
     GLN    CD  9227  11.036   0.654   6.677
     GLN   OE1  9228  11.007   0.683   6.562
     GLN   NE2  9229  11.144   0.578   6.696
     GLN  HE21  9230  11.176   0.564   6.789
     GLN  HE22  9231  11.198   0.549   6.616
     GLN    CB  9232  10.943   0.577   6.905
     GLN   HB1  9233  11.050   0.557   6.927
     GLN   HB2  9234  10.894   0.489   6.858
     GLN    CG  9235  10.861   0.603   7.036
     GLN   HG1  9236  10.753   0.619   7.014
     GLN   HG2  9237  10.901   0.699   7.074
     GLN     C  9238  10.858   0.493   7.131
     GLN     O  9239  10.756   0.434   7.145
     LYS     N  9240  10.972   0.461   7.203
     LYS    HN  9241  10.952   0.393   7.273
     LYS    CA  9242  11.106   0.526   7.220
     LYS    HA  9243  11.143   0.559   7.124
     LYS    CB  9244  11.198   0.425   7.285
     LYS   HB1  9245  11.301   0.468   7.284
     LYS   HB2  9246  11.176   0.412   7.393
     LYS    CG  9247  11.214   0.280   7.226
     LYS   HG1  9248  11.114   0.238   7.200
     LYS   HG2  9249  11.276   0.289   7.134
     LYS    CD  9250  11.297   0.192   7.325
     LYS   HD1  9251  11.245   0.187   7.423
     LYS   HD2  9252  11.300   0.086   7.294
     LYS    CE  9253  11.445   0.221   7.341
     LYS   HE1  9254  11.462   0.320   7.388
     LYS   HE2  9255  11.489   0.150   7.414
     LYS    NZ  9256  11.507   0.214   7.211
     LYS   HZ1  9257  11.455   0.160   7.138
     LYS   HZ2  9258  11.597   0.163   7.226
     LYS   HZ3  9259  11.529   0.311   7.183
     LYS     C  9260  11.093   0.638   7.325
     LYS     O  9261  10.990   0.652   7.389
     DAL     N  9262  11.197   0.729   7.339
     DAL    HN  9263  11.184   0.792   7.415
     DAL    CA  9264  11.321   0.763   7.263
     DAL    HA  9265  11.385   0.687   7.304
     DAL    CB  9266  11.377   0.906   7.300
     DAL   HB1  9267  11.326   0.986   7.242
     DAL   HB2  9268  11.371   0.919   7.410
     DAL   HB3  9269  11.485   0.918   7.277
     DAL     C  9270  11.322   0.744   7.111
     DAL     O  9271  11.222   0.752   7.038
     DAL     N  9272  11.426   0.708   7.049
     DAL    HN  9273  11.419   0.712   6.950
     DAL    CA  9274  11.552   0.674   7.102
     DAL    HA  9275  11.585   0.745   7.177
     DAL    CB  9276  11.666   0.704   6.994
     DAL   HB1  9277  11.764   0.659   7.022
     DAL   HB2  9278  11.634   0.661   6.897
     DAL   HB3  9279  11.676   0.814   6.994
     DAL     C  9280  11.563   0.523   7.149
     DAL   OC1  9281  11.518   0.436   7.077
     DAL   OC2  9282  11.625   0.499   7.254
     NAG    C1  9283  10.850   2.225   6.395
     NAG    H1  9284  10.956   2.254   6.409
     NAG    C5  9285  10.870   2.044   6.550
     NAG    H5  9286  10.979   2.066   6.541
     NAG    O5  9287  10.799   2.160   6.514
     NAG    C2  9288  10.826   2.139   6.277
     NAG    H2  9289  10.718   2.114   6.270
     NAG    NC  9290  10.913   2.198   6.177
     NAG    HN  9291  11.012   2.204   6.191
     NAG    CM  9292  10.870   2.236   6.056
     NAG    OM  9293  10.753   2.242   6.012
     NAG    CC  9294  10.978   2.288   5.974
     NAG   HC1  9295  11.017   2.383   6.017
     NAG   HC2  9296  11.065   2.220   5.957
     NAG   HC3  9297  10.936   2.323   5.878
     NAG    C3  9298  10.878   1.995   6.301
     NAG    H3  9299  10.988   2.010   6.291
     NAG    O3  9300  10.838   1.896   6.208
     NAG   HO3  9301  10.865   1.809   6.238
     NAG    C4  9302  10.844   1.941   6.444
     NAG    H4  9303  10.733   1.933   6.443
     NAG    O4  9304  10.910   1.816   6.475
     NAG    C6  9305  10.837   2.009   6.685
     NAG   H61  9306  10.891   2.080   6.751
     NAG   H62  9307  10.878   1.912   6.721
     NAG    O6  9308  10.691   1.994   6.709
     NAG   HO6  9309  10.673   1.992   6.803
     NAM    C1  9310  10.723   2.730   6.520
     NAM    H1  9311  10.639   2.736   6.448
     NAM    C5  9312  10.834   2.575   6.381
     NAM    H5  9313  10.749   2.566   6.310
     NAM    O5  9314  10.848   2.699   6.455
     NAM    C2  9315  10.696   2.625   6.629
     NAM    H2  9316  10.778   2.619   6.703
     NAM    NC  9317  10.570   2.632   6.707
     NAM    HN  9318  10.514   2.550   6.697
     NAM    CM  9319  10.539   2.724   6.799
     NAM    OM  9320  10.624   2.788   6.862
     NAM    CC  9321  10.393   2.739   6.832
     NAM   HC1  9322  10.386   2.837   6.885
     NAM   HC2  9323  10.337   2.752   6.737
     NAM   HC3  9324  10.349   2.655   6.889
     NAM    C3  9325  10.680   2.484   6.563
     NAM    H3  9326  10.602   2.501   6.486
     NAM    O3  9327  10.630   2.382   6.654
     NAM    CA  9328  10.704   2.349   6.772
     NAM    HA  9329  10.690   2.250   6.732
     NAM     C  9330  10.608   2.364   6.893
     NAM     O  9331  10.495   2.315   6.896
     NAM    CB  9332  10.856   2.343   6.791
     NAM   HB1  9333  10.913   2.311   6.702
     NAM   HB2  9334  10.881   2.273   6.874
     NAM   HB3  9335  10.895   2.441   6.826
     NAM    C4  9336  10.799   2.456   6.475
     NAM    H4  9337  10.892   2.432   6.531
     NAM    O4  9338  10.767   2.342   6.393
     NAM    C6  9339  10.957   2.551   6.305
     NAM   H61  9340  10.959   2.448   6.263
     NAM   H62  9341  11.039   2.557   6.379
     NAM    O6  9342  10.962   2.655   6.214
     NAM   HO6  9343  10.943   2.738   6.258
     ALA     N  9344  10.661   2.431   6.994
     ALA    HN  9345  10.752   2.470   6.987
     ALA    CA  9346  10.600   2.438   7.125
     ALA    HA  9347  10.509   2.380   7.129
     ALA    CB  9348  10.570   2.579   7.161
     ALA   HB1  9349  10.490   2.607   7.089
     ALA   HB2  9350  10.661   2.639   7.140
     ALA   HB3  9351  10.530   2.595   7.263
     ALA     C  9352  10.700   2.384   7.222
     ALA     O  9353  10.823   2.381   7.206
     GLN     N  9354  10.661   2.328   7.335
     GLN    HN  9355  10.739   2.291   7.386
     GLN    CA  9356  10.527   2.313   7.389
     GLN    HA  9357  10.463   2.396   7.364
     GLN    CD  9358  10.460   2.199   7.314
     GLN   OE1  9359  10.509   2.136   7.222
     GLN   NE2  9360  10.330   2.173   7.358
     GLN  HE21  9361  10.288   2.082   7.348
     GLN  HE22  9362  10.283   2.242   7.412
     GLN    CB  9363  10.521   2.288   7.542
     GLN   HB1  9364  10.582   2.199   7.567
     GLN   HB2  9365  10.422   2.261   7.584
     GLN    CG  9366  10.589   2.413   7.617
     GLN   HG1  9367  10.688   2.423   7.568
     GLN   HG2  9368  10.609   2.389   7.724
     GLN     C  9369  10.528   2.550   7.595
     GLN     O  9370  10.567   2.616   7.498
     LYS     N  9371  10.432   2.595   7.685
     LYS    HN  9372  10.393   2.683   7.658
     LYS    CA  9373  10.390   2.547   7.814
     LYS    HA  9374  10.387   2.440   7.799
     LYS    CB  9375  10.258   2.610   7.844
     LYS   HB1  9376  10.233   2.602   7.952
     LYS   HB2  9377  10.263   2.721   7.838
     LYS    CG  9378  10.146   2.554   7.751
     LYS   HG1  9379  10.181   2.568   7.646
     LYS   HG2  9380  10.137   2.448   7.784
     LYS    CD  9381  10.017   2.633   7.788
     LYS   HD1  9382  10.004   2.630   7.898
     LYS   HD2  9383  10.008   2.737   7.750
     LYS    CE  9384   9.899   2.560   7.720
     LYS   HE1  9385   9.812   2.629   7.711
     LYS   HE2  9386   9.926   2.523   7.619
     LYS    NZ  9387   9.852   2.453   7.802
     LYS   HZ1  9388   9.778   2.396   7.756
     LYS   HZ2  9389   9.804   2.503   7.880
     LYS   HZ3  9390   9.931   2.397   7.840
     LYS     C  9391  10.496   2.567   7.920
     LYS     O  9392  10.597   2.632   7.900
     DAL     N  9393  10.478   2.506   8.039
     DAL    HN  9394  10.535   2.533   8.116
     DAL    CA  9395  10.387   2.404   8.087
     DAL    HA  9396  10.286   2.441   8.083
     DAL    CB  9397  10.417   2.372   8.234
     DAL   HB1  9398  10.349   2.295   8.278
     DAL   HB2  9399  10.522   2.343   8.257
     DAL   HB3  9400  10.392   2.467   8.285
     DAL     C  9401  10.389   2.277   8.002
     DAL     O  9402  10.476   2.253   7.919
     NAG    C1  9403  10.731   3.262   6.442
     NAG    H1  9404  10.802   3.294   6.522
     NAG    C5  9405  10.634   3.080   6.575
     NAG    H5  9406  10.688   3.118   6.664
     NAG    O5  9407  10.615   3.191   6.487
     NAG    C2  9408  10.810   3.166   6.354
     NAG    H2  9409  10.752   3.154   6.260
     NAG    NC  9410  10.943   3.207   6.320
     NAG    HN  9411  11.023   3.185   6.375
     NAG    CM  9412  10.985   3.275   6.210
     NAG    OM  9413  10.914   3.292   6.110
     NAG    CC  9414  11.116   3.335   6.220
     NAG   HC1  9415  11.195   3.260   6.196
     NAG   HC2  9416  11.119   3.428   6.160
     NAG   HC3  9417  11.126   3.371   6.325
     NAG    C3  9418  10.839   3.033   6.424
     NAG    H3  9419  10.900   3.060   6.513
     NAG    O3  9420  10.908   2.933   6.349
     NAG   HO3  9421  10.860   2.922   6.267
     NAG    C4  9422  10.713   2.975   6.491
     NAG    H4  9423  10.639   2.943   6.416
     NAG    O4  9424  10.736   2.858   6.580
     NAG    C6  9425  10.492   3.042   6.610
     NAG   H61  9426  10.452   3.128   6.668
     NAG   H62  9427  10.486   2.950   6.673
     NAG    O6  9428  10.408   3.012   6.496
     NAG   HO6  9429  10.405   2.918   6.481
     NAM    C1  9430  10.566   3.767   6.450
     NAM    H1  9431  10.585   3.801   6.346
     NAM    C5  9432  10.745   3.605   6.436
     NAM    H5  9433  10.739   3.636   6.330
     NAM    O5  9434  10.684   3.718   6.507
     NAM    C2  9435  10.457   3.664   6.454
     NAM    H2  9436  10.452   3.641   6.563
     NAM    NC  9437  10.338   3.718   6.396
     NAM    HN  9438  10.340   3.739   6.299
     NAM    CM  9439  10.229   3.731   6.464
     NAM    OM  9440  10.226   3.712   6.588
     NAM    CC  9441  10.098   3.758   6.394
     NAM   HC1  9442  10.122   3.819   6.304
     NAM   HC2  9443  10.064   3.663   6.347
     NAM   HC3  9444  10.023   3.794   6.467
     NAM    C3  9445  10.505   3.531   6.390
     NAM    H3  9446  10.525   3.544   6.282
     NAM    O3  9447  10.398   3.431   6.400
     NAM    CA  9448  10.352   3.380   6.533
     NAM    HA  9449  10.394   3.281   6.523
     NAM     C  9450  10.208   3.364   6.518
     NAM     O  9451  10.152   3.365   6.407
     NAM    CB  9452  10.388   3.425   6.677
     NAM   HB1  9453  10.345   3.354   6.751
     NAM   HB2  9454  10.337   3.523   6.694
     NAM   HB3  9455  10.496   3.438   6.697
     NAM    C4  9456  10.643   3.486   6.444
     NAM    H4  9457  10.621   3.461   6.550
     NAM    O4  9458  10.693   3.374   6.362
     NAM    C6  9459  10.881   3.582   6.492
     NAM   H61  9460  10.916   3.482   6.456
     NAM   H62  9461  10.873   3.575   6.603
     NAM    O6  9462  10.978   3.680   6.453
     NAM   HO6  9463  10.935   3.761   6.483
     ALA     N  9464  10.132   3.357   6.626
     ALA    HN  9465  10.176   3.333   6.712
     ALA    CA  9466   9.992   3.368   6.617
     ALA    HA  9467   9.964   3.450   6.553
     ALA    CB  9468   9.943   3.414   6.760
     ALA   HB1  9469   9.995   3.506   6.795
     ALA   HB2  9470   9.971   3.328   6.824
     ALA   HB3  9471   9.834   3.435   6.751
     ALA     C  9472   9.927   3.227   6.574
     ALA     O  9473   9.990   3.125   6.596
     GLN     N  9474   9.805   3.229   6.511
     GLN    HN  9475   9.775   3.137   6.488
     GLN    CA  9476   9.733   3.343   6.478
     GLN    HA  9477   9.718   3.391   6.574
     GLN    CD  9478   9.794   3.456   6.382
     GLN   OE1  9479   9.788   3.574   6.409
     GLN   NE2  9480   9.839   3.408   6.261
     GLN  HE21  9481   9.875   3.479   6.201
     GLN  HE22  9482   9.849   3.308   6.261
     GLN    CB  9483   9.600   3.294   6.412
     GLN   HB1  9484   9.614   3.251   6.310
     GLN   HB2  9485   9.537   3.384   6.396
     GLN    CG  9486   9.505   3.217   6.503
     GLN   HG1  9487   9.491   3.276   6.596
     GLN   HG2  9488   9.546   3.121   6.541
     GLN     C  9489   9.365   3.195   6.459
     GLN     O  9490   9.274   3.269   6.504
     LYS     N  9491   9.340   3.093   6.373
     LYS    HN  9492   9.242   3.079   6.362
     LYS    CA  9493   9.428   2.983   6.330
     LYS    HA  9494   9.526   3.029   6.326
     LYS    CB  9495   9.381   2.917   6.205
     LYS   HB1  9496   9.369   3.000   6.132
     LYS   HB2  9497   9.466   2.854   6.172
     LYS    CG  9498   9.256   2.834   6.221
     LYS   HG1  9499   9.289   2.749   6.285
     LYS   HG2  9500   9.181   2.895   6.275
     LYS    CD  9501   9.191   2.779   6.090
     LYS   HD1  9502   9.089   2.749   6.122
     LYS   HD2  9503   9.171   2.851   6.008
     LYS    CE  9504   9.274   2.667   6.027
     LYS   HE1  9505   9.368   2.703   5.979
     LYS   HE2  9506   9.286   2.593   6.108
     LYS    NZ  9507   9.195   2.597   5.920
     LYS   HZ1  9508   9.247   2.509   5.899
     LYS   HZ2  9509   9.197   2.654   5.833
     LYS   HZ3  9510   9.098   2.581   5.955
     LYS     C  9511   9.449   2.875   6.444
     LYS     O  9512   9.381   2.875   6.548
     DAL     N  9513   9.534   2.775   6.425
     DAL    HN  9514   9.544   2.703   6.494
     DAL    CA  9515   9.649   2.763   6.333
     DAL    HA  9516   9.609   2.756   6.233
     DAL    CB  9517   9.723   2.634   6.376
     DAL   HB1  9518   9.773   2.653   6.473
     DAL   HB2  9519   9.653   2.549   6.392
     DAL   HB3  9520   9.790   2.611   6.291
     DAL     C  9521   9.733   2.894   6.330
     DAL     O  9522   9.735   2.969   6.424
     DAL     N  9523   9.811   2.919   6.219
     DAL    HN  9524   9.858   3.006   6.209
     DAL    CA  9525   9.830   2.842   6.106
     DAL    HA  9526   9.827   2.738   6.135
     DAL    CB  9527   9.964   2.871   6.035
     DAL   HB1  9528   9.980   2.975   6.000
     DAL   HB2  9529  10.056   2.848   6.093
     DAL   HB3  9530   9.963   2.799   5.950
     DAL     C  9531   9.709   2.870   6.009
     DAL   OC1  9532   9.693   2.988   5.956
     DAL   OC2  9533   9.633   2.777   5.976
     NAG    C1  9534  10.605   4.306   6.512
     NAG    H1  9535  10.519   4.321   6.581
     NAG    C5  9536  10.508   4.103   6.418
     NAG    H5  9537  10.422   4.131   6.482
     NAG    O5  9538  10.566   4.230   6.392
     NAG    C2  9539  10.714   4.215   6.582
     NAG    H2  9540  10.805   4.197   6.521
     NAG    NC  9541  10.745   4.287   6.710
     NAG    HN  9542  10.665   4.296   6.769
     NAG    CM  9543  10.864   4.322   6.760
     NAG    OM  9544  10.970   4.310   6.699
     NAG    CC  9545  10.857   4.362   6.903
     NAG   HC1  9546  10.757   4.400   6.934
     NAG   HC2  9547  10.864   4.274   6.970
     NAG   HC3  9548  10.931   4.441   6.928
     NAG    C3  9549  10.649   4.073   6.614
     NAG    H3  9550  10.557   4.094   6.673
     NAG    O3  9551  10.741   3.992   6.695
     NAG   HO3  9552  10.811   3.976   6.632
     NAG    C4  9553  10.599   4.003   6.488
     NAG    H4  9554  10.687   3.979   6.424
     NAG    O4  9555  10.524   3.881   6.520
     NAG    C6  9556  10.449   4.054   6.285
     NAG   H61  9557  10.379   4.132   6.247
     NAG   H62  9558  10.389   3.962   6.299
     NAG    O6  9559  10.560   4.032   6.194
     NAG   HO6  9560  10.530   4.023   6.103
     NAM    C1  9561  10.581   4.809   6.359
     NAM    H1  9562  10.658   4.779   6.285
     NAM    C5  9563  10.685   4.653   6.502
     NAM    H5  9564  10.764   4.653   6.424
     NAM    O5  9565  10.618   4.786   6.494
     NAM    C2  9566  10.459   4.715   6.323
     NAM    H2  9567  10.382   4.743   6.398
     NAM    NC  9568  10.412   4.728   6.187
     NAM    HN  9569  10.462   4.686   6.112
     NAM    CM  9570  10.298   4.789   6.145
     NAM    OM  9571  10.199   4.831   6.205
     NAM    CC  9572  10.306   4.762   5.991
     NAM   HC1  9573  10.297   4.652   5.974
     NAM   HC2  9574  10.221   4.812   5.939
     NAM   HC3  9575  10.406   4.785   5.948
     NAM    C3  9576  10.508   4.564   6.346
     NAM    H3  9577  10.575   4.543   6.259
     NAM    O3  9578  10.399   4.471   6.331
     NAM    CA  9579  10.285   4.458   6.420
     NAM    HA  9580  10.325   4.393   6.497
     NAM     C  9581  10.180   4.384   6.334
     NAM     O  9582  10.116   4.292   6.377
     NAM    CB  9583  10.206   4.577   6.487
     NAM   HB1  9584  10.274   4.642   6.545
     NAM   HB2  9585  10.128   4.536   6.555
     NAM   HB3  9586  10.152   4.633   6.407
     NAM    C4  9587  10.590   4.540   6.477
     NAM    H4  9588  10.518   4.522   6.559
     NAM    O4  9589  10.671   4.424   6.484
     NAM    C6  9590  10.733   4.657   6.642
     NAM   H61  9591  10.791   4.751   6.657
     NAM   H62  9592  10.798   4.567   6.654
     NAM    O6  9593  10.630   4.654   6.739
     NAM   HO6  9594  10.598   4.742   6.760
     ALA     N  9595  10.161   4.425   6.208
     ALA    HN  9596  10.217   4.506   6.191
     ALA    CA  9597  10.062   4.372   6.111
     ALA    HA  9598  10.061   4.264   6.119
     ALA    CB  9599  10.090   4.437   5.984
     ALA   HB1  9600  10.048   4.382   5.897
     ALA   HB2  9601  10.198   4.438   5.955
     ALA   HB3  9602  10.041   4.535   5.973
     ALA     C  9603   9.911   4.403   6.152
     ALA     O  9604   9.889   4.504   6.215
     GLN     N  9605   9.805   4.337   6.106
     GLN    HN  9606   9.719   4.383   6.127
     GLN    CA  9607   9.785   4.213   6.026
     GLN    HA  9608   9.680   4.191   6.021
     GLN    CD  9609   9.850   4.231   5.887
     GLN   OE1  9610   9.948   4.170   5.851
     GLN   NE2  9611   9.787   4.320   5.806
     GLN  HE21  9612   9.820   4.323   5.711
     GLN  HE22  9613   9.723   4.387   5.842
     GLN    CB  9614   9.838   4.087   6.093
     GLN   HB1  9615   9.945   4.104   6.120
     GLN   HB2  9616   9.844   4.000   6.025
     GLN    CG  9617   9.769   4.042   6.226
     GLN   HG1  9618   9.661   4.059   6.212
     GLN   HG2  9619   9.809   4.103   6.310
     GLN     C  9620   9.798   3.895   6.262
     GLN     O  9621   9.850   3.817   6.182
     LYS     N  9622   9.772   3.854   6.388
     LYS    HN  9623   9.791   3.760   6.416
     LYS    CA  9624   9.699   3.931   6.487
     LYS    HA  9625   9.752   4.024   6.497
     LYS    CB  9626   9.690   3.875   6.635
     LYS   HB1  9627   9.649   3.961   6.692
     LYS   HB2  9628   9.623   3.787   6.646
     LYS    CG  9629   9.828   3.836   6.699
     LYS   HG1  9630   9.871   3.753   6.638
     LYS   HG2  9631   9.899   3.921   6.688
     LYS    CD  9632   9.819   3.792   6.841
     LYS   HD1  9633   9.753   3.703   6.848
     LYS   HD2  9634   9.919   3.755   6.871
     LYS    CE  9635   9.760   3.897   6.932
     LYS   HE1  9636   9.655   3.930   6.916
     LYS   HE2  9637   9.767   3.852   7.034
     LYS    NZ  9638   9.838   4.028   6.934
     LYS   HZ1  9639   9.832   4.081   6.845
     LYS   HZ2  9640   9.936   4.002   6.959
     LYS   HZ3  9641   9.798   4.086   7.010
     LYS     C  9642   9.552   3.954   6.453
     LYS     O  9643   9.492   3.873   6.380
     DAL     N  9644   9.479   4.063   6.495
     DAL    HN  9645   9.381   4.053   6.482
     DAL    CA  9646   9.515   4.201   6.549
     DAL    HA  9647   9.562   4.178   6.643
     DAL    CB  9648   9.378   4.280   6.569
     DAL   HB1  9649   9.396   4.384   6.602
     DAL   HB2  9650   9.325   4.286   6.472
     DAL   HB3  9651   9.315   4.231   6.647
     DAL     C  9652   9.603   4.281   6.446
     DAL     O  9653   9.573   4.286   6.326
     DAL     N  9654   9.713   4.339   6.487
     DAL    HN  9655   9.778   4.370   6.418
     DAL    CA  9656   9.744   4.384   6.619
     DAL    HA  9657   9.662   4.434   6.668
     DAL    CB  9658   9.852   4.493   6.602
     DAL   HB1  9659   9.801   4.580   6.557
     DAL   HB2  9660   9.899   4.517   6.699
     DAL   HB3  9661   9.934   4.452   6.540
     DAL     C  9662   9.791   4.271   6.720
     DAL   OC1  9663   9.828   4.162   6.684
     DAL   OC2  9664   9.793   4.301   6.843
     NAG    C1  9665  10.682   5.322   6.359
     NAG    H1  9666  10.582   5.355   6.395
     NAG    C5  9667  10.575   5.145   6.242
     NAG    H5  9668  10.478   5.179   6.284
     NAG    O5  9669  10.661   5.257   6.230
     NAG    C2  9670  10.752   5.224   6.451
     NAG    H2  9671  10.852   5.195   6.411
     NAG    NC  9672  10.797   5.265   6.587
     NAG    HN  9673  10.775   5.205   6.664
     NAG    CM  9674  10.904   5.340   6.625
     NAG    OM  9675  11.010   5.349   6.564
     NAG    CC  9676  10.875   5.422   6.747
     NAG   HC1  9677  10.889   5.367   6.842
     NAG   HC2  9678  10.945   5.508   6.755
     NAG   HC3  9679  10.772   5.463   6.738
     NAG    C3  9680  10.675   5.087   6.466
     NAG    H3  9681  10.583   5.095   6.527
     NAG    O3  9682  10.758   4.989   6.530
     NAG   HO3  9683  10.694   4.922   6.557
     NAG    C4  9684  10.630   5.037   6.335
     NAG    H4  9685  10.716   4.984   6.288
     NAG    O4  9686  10.528   4.936   6.340
     NAG    C6  9687  10.552   5.095   6.102
     NAG   H61  9688  10.480   5.010   6.104
     NAG   H62  9689  10.651   5.058   6.068
     NAG    O6  9690  10.493   5.193   6.010
     NAG   HO6  9691  10.561   5.256   5.984
     NAM    C1  9692  10.742   5.847   6.286
     NAM    H1  9693  10.841   5.860   6.334
     NAM    C5  9694  10.699   5.661   6.427
     NAM    H5  9695  10.799   5.676   6.474
     NAM    O5  9696  10.653   5.782   6.371
     NAM    C2  9697  10.766   5.758   6.164
     NAM    H2  9698  10.667   5.738   6.118
     NAM    NC  9699  10.881   5.803   6.091
     NAM    HN  9700  10.963   5.746   6.099
     NAM    CM  9701  10.873   5.887   5.987
     NAM    OM  9702  10.779   5.966   5.963
     NAM    CC  9703  11.001   5.892   5.911
     NAM   HC1  9704  10.985   5.955   5.821
     NAM   HC2  9705  11.079   5.937   5.976
     NAM   HC3  9706  11.033   5.792   5.875
     NAM    C3  9707  10.825   5.628   6.216
     NAM    H3  9708  10.916   5.647   6.276
     NAM    O3  9709  10.875   5.534   6.118
     NAM    CA  9710  10.788   5.462   6.038
     NAM    HA  9711  10.683   5.457   6.060
     NAM     C  9712  10.847   5.325   6.024
     NAM     O  9713  10.806   5.253   5.936
     NAM    CB  9714  10.792   5.550   5.904
     NAM   HB1  9715  10.751   5.490   5.821
     NAM   HB2  9716  10.895   5.576   5.869
     NAM   HB3  9717  10.729   5.641   5.912
     NAM    C4  9718  10.723   5.558   6.310
     NAM    H4  9719  10.626   5.545   6.259
     NAM    O4  9720  10.772   5.428   6.350
     NAM    C6  9721  10.606   5.607   6.539
     NAM   H61  9722  10.634   5.507   6.578
     NAM   H62  9723  10.505   5.601   6.494
     NAM    O6  9724  10.612   5.691   6.647
     NAM   HO6  9725  10.548   5.762   6.635
     ALA     N  9726  10.939   5.275   6.109
     ALA    HN  9727  10.953   5.322   6.196
     ALA    CA  9728  11.011   5.147   6.093
     ALA    HA  9729  10.931   5.076   6.110
     ALA    CB  9730  11.102   5.129   6.213
     ALA   HB1  9731  11.040   5.137   6.305
     ALA   HB2  9732  11.184   5.204   6.217
     ALA   HB3  9733  11.159   5.034   6.205
     ALA     C  9734  11.082   5.117   5.960
     ALA     O  9735  11.151   5.201   5.902
     GLN     N  9736  11.075   4.991   5.904
     GLN    HN  9737  11.140   4.987   5.828
     GLN    CA  9738  11.012   4.863   5.947
     GLN    HA  9739  11.033   4.802   5.860
     GLN    CD  9740  11.068   4.792   6.070
     GLN   OE1  9741  11.011   4.776   6.176
     GLN   NE2  9742  11.193   4.747   6.054
     GLN  HE21  9743  11.243   4.693   6.123
     GLN  HE22  9744  11.229   4.744   5.961
     GLN    CB  9745  10.852   4.862   5.932
     GLN   HB1  9746  10.806   4.921   6.014
     GLN   HB2  9747  10.822   4.757   5.955
     GLN    CG  9748  10.801   4.904   5.794
     GLN   HG1  9749  10.853   4.834   5.725
     GLN   HG2  9750  10.833   5.006   5.765
     GLN     C  9751  10.653   4.895   5.780
     GLN     O  9752  10.586   4.995   5.785
     LYS     N  9753  10.587   4.777   5.761
     LYS    HN  9754  10.488   4.787   5.757
     LYS    CA  9755  10.645   4.640   5.755
     LYS    HA  9756  10.750   4.639   5.728
     LYS    CB  9757  10.565   4.577   5.638
     LYS   HB1  9758  10.598   4.473   5.619
     LYS   HB2  9759  10.457   4.574   5.663
     LYS    CG  9760  10.587   4.644   5.500
     LYS   HG1  9761  10.557   4.575   5.419
     LYS   HG2  9762  10.518   4.730   5.492
     LYS    CD  9763  10.742   4.672   5.473
     LYS   HD1  9764  10.754   4.774   5.515
     LYS   HD2  9765  10.801   4.598   5.531
     LYS    CE  9766  10.791   4.664   5.328
     LYS   HE1  9767  10.731   4.725   5.257
     LYS   HE2  9768  10.895   4.702   5.322
     LYS    NZ  9769  10.790   4.529   5.274
     LYS   HZ1  9770  10.847   4.533   5.187
     LYS     C  9771  10.634   4.561   5.884
     LYS     O  9772  10.580   4.613   5.981
     GLY     C  9773  11.392   4.889   6.549
     GLY     O  9774  11.491   4.838   6.600
     GLY    CA  9775  11.395   4.964   6.416
     GLY   HA1  9776  11.484   4.935   6.359
     GLY   HA2  9777  11.396   5.072   6.434
     GLY     N  9778  11.277   4.931   6.338
     GLY    HN  9779  11.211   4.866   6.378
     GLY     C  9780  11.254   4.804   6.302
     GLY     O  9781  11.336   4.721   6.339
     GLY    CA  9782  11.130   4.770   6.220
     GLY   HA1  9783  11.107   4.663   6.231
     GLY   HA2  9784  11.147   4.793   6.115
     GLY     N  9785  11.017   4.847   6.267
     GLY    HN  9786  11.032   4.911   6.345
     GLY     C  9787  10.975   4.834   6.394
     GLY     O  9788  11.038   4.756   6.465
     GLY    CA  9789  10.856   4.915   6.443
     GLY   HA1  9790  10.858   4.922   6.553
     GLY   HA2  9791  10.763   4.868   6.411
     GLY     N  9792  10.861   5.049   6.389
     GLY    HN  9793  10.939   5.073   6.328
     GLY     C  9794  10.966   5.128   6.415
     GLY     O  9795  11.054   5.080   6.486
     GLY    CA  9796  10.972   5.270   6.358
     GLY   HA1  9797  11.075   5.305   6.358
     GLY   HA2  9798  10.910   5.337   6.418
     GLY     N  9799  10.922   5.270   6.222
     GLY    HN  9800  10.892   5.181   6.183
     GLY     C  9801  10.983   5.195   6.128
     GLY     O  9802  11.080   5.129   6.165
     GLY    CA  9803  10.931   5.195   5.985
     GLY   HA1  9804  10.966   5.105   5.933
     GLY   HA2  9805  10.966   5.284   5.933
     GLY     N  9806  10.786   5.195   5.985
     GLY    HN  9807  10.735   5.203   5.897
     DAL     N  9808  10.668   4.428   5.881
     DAL    HN  9809  10.635   4.376   5.959
     DAL    CA  9810  10.781   4.364   5.811
     DAL    HA  9811  10.751   4.352   5.708
     DAL    CB  9812  10.792   4.222   5.860
     DAL   HB1  9813  10.699   4.168   5.834
     DAL   HB2  9814  10.875   4.170   5.808
     DAL   HB3  9815  10.802   4.218   5.970
     DAL     C  9816  10.912   4.442   5.797
     DAL     O  9817  10.950   4.516   5.884
     DAL     N  9818  10.993   4.427   5.696
     DAL    HN  9819  11.077   4.481   5.703
     DAL    CA  9820  10.996   4.325   5.594
     DAL    HA  9821  10.914   4.255   5.600
     DAL    CB  9822  11.126   4.245   5.604
     DAL   HB1  9823  11.136   4.179   5.515
     DAL   HB2  9824  11.210   4.317   5.601
     DAL   HB3  9825  11.120   4.194   5.703
     DAL     C  9826  10.982   4.384   5.450
     DAL   OC1  9827  11.049   4.483   5.421
     DAL   OC2  9828  10.914   4.323   5.369
     NAG    C1  9829  10.636   6.368   6.336
     NAG    H1  9830  10.634   6.383   6.226
     NAG    C5  9831  10.784   6.181   6.309
     NAG    H5  9832  10.781   6.213   6.202
     NAG    O5  9833  10.754   6.297   6.388
     NAG    C2  9834  10.525   6.270   6.387
     NAG    H2  9835  10.554   6.249   6.492
     NAG    NC  9836  10.392   6.327   6.416
     NAG    HN  9837  10.371   6.333   6.513
     NAG    CM  9838  10.297   6.351   6.323
     NAG    OM  9839  10.309   6.323   6.206
     NAG    CC  9840  10.169   6.409   6.380
     NAG   HC1  9841  10.104   6.459   6.305
     NAG   HC2  9842  10.107   6.326   6.417
     NAG   HC3  9843  10.189   6.488   6.456
     NAG    C3  9844  10.535   6.130   6.324
     NAG    H3  9845  10.510   6.144   6.216
     NAG    O3  9846  10.442   6.034   6.379
     NAG   HO3  9847  10.448   5.968   6.310
     NAG    C4  9848  10.680   6.077   6.335
     NAG    H4  9849  10.684   6.039   6.440
     NAG    O4  9850  10.688   5.968   6.240
     NAG    C6  9851  10.928   6.136   6.320
     NAG   H61  9852  10.996   6.223   6.305
     NAG   H62  9853  10.952   6.052   6.250
     NAG    O6  9854  10.954   6.085   6.448
     NAG   HO6  9855  10.997   5.999   6.447
     NAM    C1  9856  10.696   6.885   6.320
     NAM    H1  9857  10.755   6.893   6.414
     NAM    C5  9858  10.563   6.720   6.413
     NAM    H5  9859  10.635   6.724   6.498
     NAM    O5  9860  10.567   6.848   6.347
     NAM    C2  9861  10.763   6.790   6.219
     NAM    H2  9862  10.708   6.809   6.124
     NAM    NC  9863  10.907   6.822   6.226
     NAM    HN  9864  10.958   6.756   6.281
     NAM    CM  9865  10.986   6.890   6.142
     NAM    OM  9866  10.952   6.940   6.036
     NAM    CC  9867  11.138   6.891   6.165
     NAM   HC1  9868  11.186   6.879   6.065
     NAM   HC2  9869  11.167   6.981   6.224
     NAM   HC3  9870  11.164   6.801   6.224
     NAM    C3  9871  10.757   6.647   6.268
     NAM    H3  9872  10.813   6.649   6.364
     NAM    O3  9873  10.830   6.546   6.196
     NAM    CA  9874  10.791   6.508   6.063
     NAM    HA  9875  10.755   6.406   6.062
     NAM     C  9876  10.946   6.486   6.022
     NAM     O  9877  11.015   6.415   6.093
     NAM    CB  9878  10.737   6.614   5.964
     NAM   HB1  9879  10.781   6.716   5.966
     NAM   HB2  9880  10.627   6.626   5.977
     NAM   HB3  9881  10.740   6.581   5.858
     NAM    C4  9882  10.618   6.602   6.318
     NAM    H4  9883  10.557   6.595   6.226
     NAM    O4  9884  10.620   6.492   6.407
     NAM    C6  9885  10.424   6.695   6.462
     NAM   H61  9886  10.409   6.601   6.520
     NAM   H62  9887  10.363   6.679   6.370
     NAM    O6  9888  10.369   6.804   6.534
     NAM   HO6  9889  10.385   6.882   6.481
     ALA     N  9890  11.004   6.535   5.912
     ALA    HN  9891  10.954   6.614   5.877
     ALA    CA  9892  11.142   6.518   5.871
     ALA    HA  9893  11.203   6.493   5.956
     ALA    CB  9894  11.198   6.647   5.811
     ALA   HB1  9895  11.288   6.630   5.749
     ALA   HB2  9896  11.226   6.719   5.891
     ALA   HB3  9897  11.114   6.688   5.752
     ALA     C  9898  11.154   6.406   5.770
     ALA     O  9899  11.053   6.378   5.704
     GLN     N  9900  11.270   6.343   5.747
     GLN    HN  9901  11.277   6.270   5.680
     GLN    CA  9902  11.396   6.362   5.824
     GLN    HA  9903  11.401   6.468   5.845
     GLN    CD  9904  11.390   6.278   5.957
     GLN   OE1  9905  11.410   6.334   6.068
     GLN   NE2  9906  11.367   6.143   5.947
     GLN  HE21  9907  11.387   6.090   6.030
     GLN  HE22  9908  11.360   6.097   5.859
     GLN    CB  9909  11.526   6.323   5.748
     GLN   HB1  9910  11.527   6.212   5.743
     GLN   HB2  9911  11.619   6.356   5.799
     GLN    CG  9912  11.542   6.386   5.610
     GLN   HG1  9913  11.552   6.497   5.619
     GLN   HG2  9914  11.457   6.356   5.545
     GLN     C  9915  11.674   6.344   5.536
     GLN     O  9916  11.770   6.423   5.535
     LYS     N  9917  11.679   6.225   5.471
     LYS    HN  9918  11.769   6.206   5.432
     LYS    CA  9919  11.577   6.117   5.440
     LYS    HA  9920  11.544   6.071   5.533
     LYS    CB  9921  11.648   6.008   5.356
     LYS   HB1  9922  11.583   5.924   5.322
     LYS   HB2  9923  11.700   6.053   5.269
     LYS    CG  9924  11.749   5.918   5.432
     LYS   HG1  9925  11.825   5.991   5.467
     LYS   HG2  9926  11.690   5.886   5.521
     LYS    CD  9927  11.798   5.805   5.344
     LYS   HD1  9928  11.721   5.728   5.318
     LYS   HD2  9929  11.844   5.857   5.258
     LYS    CE  9930  11.923   5.738   5.405
     LYS   HE1  9931  11.952   5.652   5.341
     LYS   HE2  9932  12.005   5.812   5.416
     LYS    NZ  9933  11.900   5.698   5.547
     LYS   HZ1  9934  11.799   5.682   5.563
     LYS     C  9935  11.446   6.146   5.378
     LYS     O  9936  11.425   6.254   5.336
     GLY     C  9937  12.576   6.317   6.299
     GLY     O  9938  12.675   6.266   6.350
     GLY    CA  9939  12.579   6.392   6.166
     GLY   HA1  9940  12.668   6.363   6.109
     GLY   HA2  9941  12.580   6.500   6.184
     GLY     N  9942  12.461   6.359   6.088
     GLY    HN  9943  12.395   6.294   6.128
     GLY     C  9944  12.438   6.232   6.052
     GLY     O  9945  12.520   6.149   6.089
     GLY    CA  9946  12.314   6.198   5.970
     GLY   HA1  9947  12.291   6.091   5.981
     GLY   HA2  9948  12.331   6.221   5.865
     GLY     N  9949  12.201   6.275   6.017
     GLY    HN  9950  12.216   6.339   6.095
     GLY     C  9951  12.159   6.262   6.144
     GLY     O  9952  12.222   6.184   6.215
     GLY    CA  9953  12.040   6.343   6.193
     GLY   HA1  9954  12.042   6.350   6.303
     GLY   HA2  9955  11.947   6.296   6.161
     GLY     N  9956  12.045   6.477   6.139
     GLY    HN  9957  12.123   6.501   6.078
     GLY     C  9958  12.150   6.556   6.165
     GLY     O  9959  12.238   6.508   6.236
     GLY    CA  9960  12.156   6.698   6.108
     GLY   HA1  9961  12.259   6.733   6.108
     GLY   HA2  9962  12.094   6.765   6.168
     GLY     N  9963  12.106   6.698   5.972
     GLY    HN  9964  12.076   6.609   5.933
     GLY     C  9965  12.167   6.623   5.878
     GLY     O  9966  12.264   6.557   5.915
     GLY    CA  9967  12.115   6.623   5.735
     GLY   HA1  9968  12.150   6.533   5.683
     GLY   HA2  9969  12.150   6.712   5.683
     GLY     N  9970  11.970   6.623   5.735
     GLY    HN  9971  11.919   6.631   5.647
     DAL     N  9972  11.346   6.056   5.388
     DAL    HN  9973  11.263   6.083   5.340
     DAL    CA  9974  11.335   5.940   5.475
     DAL    HA  9975  11.413   5.869   5.452
     DAL    CB  9976  11.207   5.871   5.427
     DAL   HB1  9977  11.222   5.831   5.324
     DAL   HB2  9978  11.191   5.780   5.487
     DAL   HB3  9979  11.114   5.928   5.449
     DAL     C  9980  11.336   5.956   5.631
     DAL     O  9981  11.318   6.064   5.677
     DAL     N  9982  11.347   5.845   5.708
     DAL    HN  9983  11.335   5.848   5.807
     DAL    CA  9984  11.395   5.714   5.657
     DAL    HA  9985  11.401   5.704   5.549
     DAL    CB  9986  11.308   5.603   5.711
     DAL   HB1  9987  11.320   5.606   5.821
     DAL   HB2  9988  11.207   5.621   5.671
     DAL   HB3  9989  11.345   5.503   5.678
     DAL     C  9990  11.542   5.693   5.714
     DAL   OC1  9991  11.558   5.713   5.837
     DAL   OC2  9992  11.635   5.659   5.636
     NAG    C1  9993  10.644   7.409   6.354
     NAG    H1  9994  10.662   7.424   6.245
     NAG    C5  9995  10.784   7.226   6.324
     NAG    H5  9996  10.796   7.266   6.221
     NAG    O5  9997  10.755   7.337   6.409
     NAG    C2  9998  10.523   7.314   6.366
     NAG    H2  9999  10.520   7.283   6.472
     NAG    NC 10000  10.408   7.368   6.292
     NAG    HN 10001  10.386   7.321   6.207
     NAG    CM 10002  10.292   7.425   6.331
     NAG    OM 10003  10.256   7.423   6.446
     NAG    CC 10004  10.201   7.478   6.221
     NAG   HC1 10005  10.201   7.589   6.216
     NAG   HC2 10006  10.234   7.436   6.123
     NAG   HC3 10007  10.100   7.435   6.237
     NAG    C3 10008  10.546   7.190   6.288
     NAG    H3 10009  10.543   7.203   6.178
     NAG    O3 10010  10.433   7.102   6.315
     NAG   HO3 10011  10.428   7.064   6.227
     NAG    C4 10012  10.675   7.124   6.333
     NAG    H4 10013  10.667   7.100   6.441
     NAG    O4 10014  10.702   7.005   6.249
     NAG    C6 10015  10.928   7.178   6.371
     NAG   H61 10016  10.946   7.069   6.357
     NAG   H62 10017  10.928   7.186   6.482
     NAG    O6 10018  11.028   7.253   6.308
     NAG   HO6 10019  11.040   7.216   6.220
     NAM    C1 10020  10.708   7.937   6.405
     NAM    H1 10021  10.622   7.935   6.475
     NAM    C5 10022  10.600   7.751   6.303
     NAM    H5 10023  10.506   7.764   6.360
     NAM    O5 10024  10.666   7.877   6.281
     NAM    C2 10025  10.824   7.850   6.458
     NAM    H2 10026  10.903   7.856   6.381
     NAM    NC 10027  10.870   7.890   6.589
     NAM    HN 10028  10.839   7.841   6.669
     NAM    CM 10029  10.974   7.971   6.606
     NAM    OM 10030  11.069   7.980   6.530
     NAM    CC 10031  10.977   8.040   6.747
     NAM   HC1 10032  10.982   7.963   6.828
     NAM   HC2 10033  11.058   8.116   6.753
     NAM   HC3 10034  10.881   8.095   6.758
     NAM    C3 10035  10.773   7.705   6.484
     NAM    H3 10036  10.690   7.715   6.557
     NAM    O3 10037  10.866   7.618   6.558
     NAM    CA 10038  10.974   7.562   6.482
     NAM    HA 10039  10.913   7.491   6.428
     NAM     C 10040  11.059   7.480   6.581
     NAM     O 10041  11.016   7.469   6.697
     NAM    CB 10042  11.062   7.656   6.390
     NAM   HB1 10043  10.987   7.681   6.311
     NAM   HB2 10044  11.151   7.609   6.344
     NAM   HB3 10045  11.087   7.744   6.453
     NAM    C4 10046  10.696   7.645   6.369
     NAM    H4 10047  10.777   7.615   6.299
     NAM    O4 10048  10.628   7.529   6.424
     NAM    C6 10049  10.544   7.696   6.168
     NAM   H61 10050  10.494   7.781   6.117
     NAM   H62 10051  10.470   7.617   6.194
     NAM    O6 10052  10.646   7.644   6.087
     NAM   HO6 10053  10.716   7.710   6.090
     ALA     N 10054  11.170   7.418   6.551
     ALA    HN 10055  11.207   7.442   6.461
     ALA    CA 10056  11.254   7.326   6.627
     ALA    HA 10057  11.303   7.390   6.699
     ALA    CB 10058  11.342   7.245   6.532
     ALA   HB1 10059  11.405   7.173   6.588
     ALA   HB2 10060  11.419   7.307   6.482
     ALA   HB3 10061  11.277   7.201   6.454
     ALA     C 10062  11.183   7.214   6.709
     ALA     O 10063  11.073   7.169   6.685
     GLN     N 10064  11.234   7.161   6.820
     GLN    HN 10065  11.202   7.069   6.843
     GLN    CA 10066  11.356   7.207   6.892
     GLN    HA 10067  11.425   7.205   6.809
     GLN    CD 10068  11.338   7.349   6.950
     GLN   OE1 10069  11.413   7.442   6.922
     GLN   NE2 10070  11.235   7.370   7.034
     GLN  HE21 10071  11.233   7.457   7.083
     GLN  HE22 10072  11.171   7.297   7.056
     GLN    CB 10073  11.408   7.112   7.008
     GLN   HB1 10074  11.338   7.108   7.094
     GLN   HB2 10075  11.507   7.154   7.035
     GLN    CG 10076  11.446   6.969   6.951
     GLN   HG1 10077  11.514   6.986   6.865
     GLN   HG2 10078  11.350   6.928   6.912
     GLN     C 10079  11.510   6.900   7.059
     GLN     O 10080  11.629   6.924   7.083
     LYS     N 10081  11.436   6.819   7.143
     LYS    HN 10082  11.488   6.774   7.215
     LYS    CA 10083  11.293   6.774   7.139
     LYS    HA 10084  11.227   6.855   7.111
     LYS    CB 10085  11.241   6.726   7.277
     LYS   HB1 10086  11.135   6.693   7.266
     LYS   HB2 10087  11.302   6.639   7.309
     LYS    CG 10088  11.244   6.842   7.376
     LYS   HG1 10089  11.349   6.878   7.375
     LYS   HG2 10090  11.181   6.928   7.347
     LYS    CD 10091  11.200   6.821   7.517
     LYS   HD1 10092  11.234   6.721   7.550
     LYS   HD2 10093  11.247   6.899   7.582
     LYS    CE 10094  11.049   6.824   7.537
     LYS   HE1 10095  10.992   6.749   7.479
     LYS   HE2 10096  11.029   6.804   7.645
     LYS    NZ 10097  10.983   6.957   7.505
     LYS   HZ1 10098  10.983   6.957   7.401
     LYS     C 10099  11.282   6.667   7.040
     LYS     O 10100  11.378   6.602   7.001
     GLY     C 10101  12.435   6.818   7.847
     GLY     O 10102  12.534   6.767   7.898
     GLY    CA 10103  12.438   6.893   7.714
     GLY   HA1 10104  12.527   6.864   7.657
     GLY   HA2 10105  12.439   7.001   7.732
     GLY     N 10106  12.320   6.860   7.636
     GLY    HN 10107  12.254   6.795   7.676
     GLY     C 10108  12.297   6.733   7.600
     GLY     O 10109  12.379   6.650   7.637
     GLY    CA 10110  12.173   6.699   7.518
     GLY   HA1 10111  12.150   6.592   7.529
     GLY   HA2 10112  12.190   6.722   7.413
     GLY     N 10113  12.060   6.776   7.565
     GLY    HN 10114  12.075   6.840   7.643
     GLY     C 10115  12.018   6.763   7.692
     GLY     O 10116  12.081   6.685   7.763
     GLY    CA 10117  11.899   6.844   7.741
     GLY   HA1 10118  11.901   6.851   7.851
     GLY   HA2 10119  11.806   6.797   7.709
     GLY     N 10120  11.904   6.978   7.687
     GLY    HN 10121  11.982   7.002   7.626
     GLY     C 10122  12.009   7.057   7.713
     GLY     O 10123  12.097   7.009   7.784
     GLY    CA 10124  12.015   7.199   7.656
     GLY   HA1 10125  12.118   7.234   7.656
     GLY   HA2 10126  11.953   7.266   7.716
     GLY     N 10127  11.965   7.199   7.520
     GLY    HN 10128  11.935   7.110   7.481
     GLY     C 10129  12.026   7.124   7.426
     GLY     O 10130  12.123   7.058   7.463
     GLY    CA 10131  11.974   7.124   7.283
     GLY   HA1 10132  12.009   7.034   7.231
     GLY   HA2 10133  12.009   7.213   7.231
     GLY     N 10134  11.829   7.124   7.283
     GLY    HN 10135  11.778   7.132   7.195
     DAL     N 10136  11.163   6.640   6.977
     DAL    HN 10137  11.174   6.563   6.914
     DAL    CA 10138  11.031   6.696   6.965
     DAL    HA 10139  10.985   6.695   7.062
     DAL    CB 10140  10.952   6.603   6.865
     DAL   HB1 10141  10.853   6.651   6.848
     DAL   HB2 10142  11.003   6.606   6.766
     DAL   HB3 10143  10.933   6.500   6.901
     DAL     C 10144  11.038   6.840   6.916
     DAL     O 10145  11.124   6.874   6.835
     DAL     N 10146  10.947   6.929   6.961
     DAL    HN 10147  10.944   7.023   6.929
     DAL    CA 10148  10.826   6.903   7.037
     DAL    HA 10149  10.778   6.816   6.994
     DAL    CB 10150  10.724   7.013   7.017
     DAL   HB1 10151  10.633   6.984   7.074
     DAL   HB2 10152  10.754   7.111   7.059
     DAL   HB3 10153  10.694   7.034   6.912
     DAL     C 10154  10.851   6.884   7.188
     DAL   OC1 10155  10.911   6.970   7.257
     DAL   OC2 10156  10.824   6.767   7.228
     NAG    C1 10157  10.642   8.454   6.305
     NAG    H1 10158  10.743   8.488   6.339
     NAG    C5 10159  10.663   8.279   6.463
     NAG    H5 10160  10.761   8.318   6.497
     NAG    O5 10161  10.583   8.392   6.421
     NAG    C2 10162  10.639   8.360   6.184
     NAG    H2 10163  10.533   8.328   6.178
     NAG    NC 10164  10.687   8.447   6.074
     NAG    HN 10165  10.781   8.456   6.044
     NAG    CM 10166  10.629   8.482   5.959
     NAG    OM 10167  10.534   8.424   5.907
     NAG    CC 10168  10.686   8.604   5.900
     NAG   HC1 10169  10.611   8.664   5.844
     NAG   HC2 10170  10.728   8.677   5.972
     NAG   HC3 10171  10.765   8.566   5.831
     NAG    C3 10172  10.716   8.235   6.213
     NAG    H3 10173  10.822   8.267   6.222
     NAG    O3 10174  10.709   8.144   6.097
     NAG   HO3 10175  10.616   8.123   6.082
     NAG    C4 10176  10.669   8.173   6.341
     NAG    H4 10177  10.567   8.132   6.324
     NAG    O4 10178  10.754   8.071   6.399
     NAG    C6 10179  10.608   8.203   6.584
     NAG   H61 10180  10.688   8.135   6.617
     NAG   H62 10181  10.516   8.148   6.555
     NAG    O6 10182  10.567   8.287   6.696
     NAG   HO6 10183  10.477   8.317   6.678
     NAM    C1 10184  10.514   8.970   6.323
     NAM    H1 10185  10.484   8.981   6.216
     NAM    C5 10186  10.643   8.780   6.246
     NAM    H5 10187  10.603   8.777   6.142
     NAM    O5 10188  10.642   8.907   6.320
     NAM    C2 10189  10.404   8.877   6.382
     NAM    H2 10190  10.433   8.863   6.488
     NAM    NC 10191  10.278   8.917   6.333
     NAM    HN 10192  10.240   8.899   6.243
     NAM    CM 10193  10.184   8.978   6.408
     NAM    OM 10194  10.216   9.019   6.519
     NAM    CC 10195  10.042   8.975   6.362
     NAM   HC1 10196   9.992   9.057   6.418
     NAM   HC2 10197  10.037   9.003   6.255
     NAM   HC3 10198   9.995   8.876   6.382
     NAM    C3 10199  10.417   8.740   6.325
     NAM    H3 10200  10.402   8.743   6.215
     NAM    O3 10201  10.323   8.646   6.375
     NAM    CA 10202  10.331   8.599   6.506
     NAM    HA 10203  10.417   8.617   6.569
     NAM     C 10204  10.313   8.450   6.509
     NAM     O 10205  10.332   8.392   6.612
     NAM    CB 10206  10.216   8.676   6.571
     NAM   HB1 10207  10.125   8.671   6.507
     NAM   HB2 10208  10.242   8.782   6.588
     NAM   HB3 10209  10.191   8.635   6.672
     NAM    C4 10210  10.559   8.683   6.326
     NAM    H4 10211  10.588   8.680   6.433
     NAM    O4 10212  10.557   8.558   6.267
     NAM    C6 10213  10.780   8.736   6.241
     NAM   H61 10214  10.779   8.636   6.194
     NAM   H62 10215  10.826   8.724   6.341
     NAM    O6 10216  10.863   8.821   6.166
     NAM   HO6 10217  10.929   8.845   6.232
     ALA     N 10218  10.264   8.390   6.400
     ALA    HN 10219  10.256   8.448   6.319
     ALA    CA 10220  10.229   8.251   6.398
     ALA    HA 10221  10.307   8.188   6.436
     ALA    CB 10222  10.193   8.220   6.252
     ALA   HB1 10223  10.113   8.282   6.204
     ALA   HB2 10224  10.154   8.117   6.242
     ALA   HB3 10225  10.289   8.227   6.197
     ALA     C 10226  10.104   8.229   6.494
     ALA     O 10227  10.016   8.312   6.515
     GLN     N 10228  10.073   8.108   6.546
     GLN    HN 10229   9.993   8.112   6.605
     GLN    CA 10230  10.149   7.981   6.544
     GLN    HA 10231  10.073   7.910   6.573
     GLN    CD 10232  10.196   7.926   6.405
     GLN   OE1 10233  10.312   7.949   6.361
     GLN   NE2 10234  10.108   7.858   6.330
     GLN  HE21 10235  10.015   7.854   6.366
     GLN  HE22 10236  10.139   7.842   6.237
     GLN    CB 10237  10.272   7.981   6.643
     GLN   HB1 10238  10.238   8.025   6.739
     GLN   HB2 10239  10.349   8.054   6.608
     GLN    CG 10240  10.349   7.850   6.662
     GLN   HG1 10241  10.407   7.824   6.571
     GLN   HG2 10242  10.290   7.757   6.678
     GLN     C 10243  10.449   7.867   6.774
     GLN     O 10244  10.565   7.908   6.744
     LYS     N 10245  10.415   7.828   6.900
     LYS    HN 10246  10.491   7.819   6.964
     LYS    CA 10247  10.290   7.799   6.957
     LYS    HA 10248  10.220   7.845   6.889
     LYS    CB 10249  10.263   7.884   7.075
     LYS   HB1 10250  10.159   7.861   7.108
     LYS   HB2 10251  10.326   7.855   7.162
     LYS    CG 10252  10.276   8.031   7.046
     LYS   HG1 10253  10.377   8.051   7.004
     LYS   HG2 10254  10.211   8.063   6.962
     LYS    CD 10255  10.252   8.131   7.162
     LYS   HD1 10256  10.234   8.235   7.127
     LYS   HD2 10257  10.157   8.095   7.207
     LYS    CE 10258  10.364   8.109   7.273
     LYS   HE1 10259  10.344   8.179   7.358
     LYS   HE2 10260  10.375   8.008   7.320
     LYS    NZ 10261  10.490   8.142   7.211
     LYS   HZ1 10262  10.537   8.056   7.175
     LYS   HZ2 10263  10.564   8.177   7.275
     LYS   HZ3 10264  10.480   8.204   7.128
     LYS     C 10265  10.244   7.651   6.968
     LYS     O 10266  10.126   7.618   6.951
     DAL     N 10267  10.334   7.553   7.011
     DAL    HN 10268  10.294   7.462   7.010
     DAL    CA 10269  10.460   7.560   7.091
     DAL    HA 10270  10.521   7.637   7.045
     DAL    CB 10271  10.528   7.419   7.081
     DAL   HB1 10272  10.550   7.401   6.974
     DAL   HB2 10273  10.629   7.430   7.126
     DAL   HB3 10274  10.472   7.340   7.135
     DAL     C 10275  10.454   7.600   7.235
     DAL     O 10276  10.365   7.572   7.309
     DAL     N 10277  10.553   7.672   7.291
     DAL    HN 10278  10.535   7.688   7.388
     DAL    CA 10279  10.687   7.712   7.240
     DAL    HA 10280  10.715   7.654   7.154
     DAL    CB 10281  10.797   7.709   7.346
     DAL   HB1 10282  10.829   7.603   7.350
     DAL   HB2 10283  10.891   7.765   7.328
     DAL   HB3 10284  10.762   7.745   7.446
     DAL     C 10285  10.670   7.856   7.194
     DAL   OC1 10286  10.729   7.952   7.259
     DAL   OC2 10287  10.601   7.885   7.092
     NAG    C1 10288  10.689   9.489   6.357
     NAG    H1 10289  10.701   9.478   6.467
     NAG    C5 10290  10.503   9.327   6.369
     NAG    H5 10291  10.514   9.324   6.480
     NAG    O5 10292  10.561   9.444   6.308
     NAG    C2 10293  10.777   9.380   6.285
     NAG    H2 10294  10.758   9.398   6.177
     NAG    NC 10295  10.913   9.388   6.335
     NAG    HN 10296  10.931   9.382   6.433
     NAG    CM 10297  11.015   9.442   6.269
     NAG    OM 10298  11.017   9.522   6.176
     NAG    CC 10299  11.136   9.405   6.344
     NAG   HC1 10300  11.133   9.426   6.453
     NAG   HC2 10301  11.148   9.295   6.350
     NAG   HC3 10302  11.230   9.447   6.303
     NAG    C3 10303  10.729   9.240   6.328
     NAG    H3 10304  10.762   9.238   6.434
     NAG    O3 10305  10.798   9.143   6.255
     NAG   HO3 10306  10.799   9.056   6.295
     NAG    C4 10307  10.578   9.209   6.315
     NAG    H4 10308  10.557   9.189   6.208
     NAG    O4 10309  10.536   9.092   6.397
     NAG    C6 10310  10.350   9.325   6.352
     NAG   H61 10311  10.305   9.422   6.381
     NAG   H62 10312  10.301   9.254   6.422
     NAG    O6 10313  10.307   9.285   6.224
     NAG   HO6 10314  10.349   9.200   6.208
     NAM    C1 10315  10.659  10.013   6.412
     NAM    H1 10316  10.655  10.033   6.303
     NAM    C5 10317  10.799   9.833   6.366
     NAM    H5 10318  10.781   9.849   6.258
     NAM    O5 10319  10.777   9.947   6.451
     NAM    C2 10320  10.546   9.928   6.465
     NAM    H2 10321  10.579   9.914   6.570
     NAM    NC 10322  10.420  10.003   6.439
     NAM    HN 10323  10.381   9.996   6.348
     NAM    CM 10324  10.338  10.054   6.534
     NAM    OM 10325  10.353  10.037   6.650
     NAM    CC 10326  10.228  10.130   6.473
     NAM   HC1 10327  10.160  10.056   6.426
     NAM   HC2 10328  10.182  10.194   6.551
     NAM   HC3 10329  10.273  10.195   6.395
     NAM    C3 10330  10.559   9.789   6.400
     NAM    H3 10331  10.523   9.801   6.296
     NAM    O3 10332  10.460   9.695   6.446
     NAM    CA 10333  10.455   9.652   6.580
     NAM    HA 10334  10.484   9.548   6.578
     NAM     C 10335  10.304   9.656   6.589
     NAM     O 10336  10.231   9.574   6.532
     NAM    CB 10337  10.523   9.707   6.704
     NAM   HB1 10338  10.482   9.663   6.797
     NAM   HB2 10339  10.508   9.817   6.706
     NAM   HB3 10340  10.633   9.692   6.697
     NAM    C4 10341  10.700   9.729   6.400
     NAM    H4 10342  10.717   9.695   6.504
     NAM    O4 10343  10.712   9.622   6.303
     NAM    C6 10344  10.937   9.777   6.388
     NAM   H61 10345  10.945   9.694   6.315
     NAM   H62 10346  10.956   9.742   6.492
     NAM    O6 10347  11.042   9.868   6.352
     NAM   HO6 10348  11.060   9.918   6.431
     ALA     N 10349  10.250   9.760   6.662
     ALA    HN 10350  10.309   9.826   6.707
     ALA    CA 10351  10.108   9.771   6.686
     ALA    HA 10352  10.057   9.751   6.593
     ALA    CB 10353  10.071   9.907   6.752
     ALA   HB1 10354  10.067   9.975   6.664
     ALA   HB2 10355  10.149   9.942   6.823
     ALA   HB3 10356   9.966   9.903   6.788
     ALA     C 10357  10.055   9.654   6.781
     ALA     O 10358  10.116   9.574   6.857
     GLN     N 10359   9.920   9.634   6.782
     GLN    HN 10360   9.888   9.561   6.841
     GLN    CA 10361   9.813   9.697   6.709
     GLN    HA 10362   9.831   9.801   6.685
     GLN    CD 10363   9.806   9.646   6.565
     GLN   OE1 10364   9.846   9.718   6.476
     GLN   NE2 10365   9.753   9.527   6.544
     GLN  HE21 10366   9.760   9.483   6.454
     GLN  HE22 10367   9.738   9.472   6.625
     GLN    CB 10368   9.676   9.677   6.783
     GLN   HB1 10369   9.646   9.570   6.784
     GLN   HB2 10370   9.587   9.716   6.728
     GLN    CG 10371   9.670   9.734   6.922
     GLN   HG1 10372   9.667   9.844   6.914
     GLN   HG2 10373   9.756   9.716   6.991
     GLN     C 10374   9.543   9.710   7.001
     GLN     O 10375   9.456   9.797   6.994
     LYS     N 10376   9.536   9.602   7.075
     LYS    HN 10377   9.455   9.606   7.133
     LYS    CA 10378   9.628   9.490   7.092
     LYS    HA 10379   9.639   9.439   6.997
     LYS    CB 10380   9.561   9.391   7.187
     LYS   HB1 10381   9.618   9.296   7.180
     LYS   HB2 10382   9.552   9.421   7.294
     LYS    CG 10383   9.414   9.350   7.148
     LYS   HG1 10384   9.347   9.436   7.129
     LYS   HG2 10385   9.426   9.289   7.056
     LYS    CD 10386   9.349   9.281   7.271
     LYS   HD1 10387   9.339   9.359   7.350
     LYS   HD2 10388   9.246   9.251   7.244
     LYS    CE 10389   9.425   9.161   7.325
     LYS   HE1 10390   9.532   9.190   7.335
     LYS   HE2 10391   9.382   9.123   7.420
     LYS    NZ 10392   9.418   9.051   7.224
     LYS   HZ1 10393   9.428   8.957   7.266
     LYS     C 10394   9.771   9.520   7.147
     LYS     O 10395   9.798   9.627   7.206
     GLY     C 10396  10.262   9.691   7.758
     GLY     O 10397  10.361   9.640   7.809
     GLY    CA 10398  10.265   9.766   7.625
     GLY   HA1 10399  10.354   9.737   7.568
     GLY   HA2 10400  10.266   9.874   7.643
     GLY     N 10401  10.147   9.733   7.547
     GLY    HN 10402  10.081   9.668   7.587
     GLY     C 10403  10.124   9.606   7.511
     GLY     O 10404  10.206   9.523   7.548
     GLY    CA 10405  10.000   9.572   7.429
     GLY   HA1 10406   9.977   9.465   7.440
     GLY   HA2 10407  10.017   9.595   7.324
     GLY     N 10408   9.887   9.649   7.476
     GLY    HN 10409   9.902   9.713   7.554
     GLY     C 10410   9.845   9.636   7.603
     GLY     O 10411   9.908   9.558   7.674
     GLY    CA 10412   9.726   9.717   7.652
     GLY   HA1 10413   9.728   9.724   7.762
     GLY   HA2 10414   9.633   9.670   7.620
     GLY     N 10415   9.731   9.851   7.598
     GLY    HN 10416   9.809   9.875   7.537
     GLY     C 10417   9.836   9.930   7.624
     GLY     O 10418   9.924   9.882   7.695
     GLY    CA 10419   9.842  10.072   7.567
     GLY   HA1 10420   9.945  10.107   7.567
     GLY   HA2 10421   9.780  10.139   7.627
     GLY     N 10422   9.792  10.072   7.431
     GLY    HN 10423   9.762   9.983   7.392
     GLY     C 10424   9.853   9.997   7.337
     GLY     O 10425   9.950   9.931   7.374
     GLY    CA 10426   9.801   9.997   7.194
     GLY   HA1 10427   9.836   9.907   7.142
     GLY   HA2 10428   9.836  10.086   7.142
     GLY     N 10429   9.656   9.997   7.194
     GLY    HN 10430   9.605  10.005   7.106
     DAL     N 10431   9.875   9.433   7.140
     DAL    HN 10432   9.966   9.469   7.162
     DAL    CA 10433   9.879   9.296   7.075
     DAL    HA 10434   9.808   9.234   7.129
     DAL    CB 10435  10.015   9.237   7.107
     DAL   HB1 10436  10.023   9.130   7.076
     DAL   HB2 10437  10.101   9.290   7.061
     DAL   HB3 10438  10.030   9.232   7.217
     DAL     C 10439   9.850   9.292   6.923
     DAL     O 10440   9.883   9.383   6.846
     DAL     N 10441   9.792   9.184   6.873
     DAL    HN 10442   9.771   9.183   6.776
     DAL    CA 10443   9.777   9.054   6.928
     DAL    HA 10444   9.868   9.020   6.975
     DAL    CB 10445   9.750   8.957   6.812
     DAL   HB1 10446   9.739   8.850   6.840
     DAL   HB2 10447   9.648   8.978   6.773
     DAL   HB3 10448   9.812   8.976   6.722
     DAL     C 10449   9.663   9.044   7.030
     DAL   OC1 10450   9.550   9.087   6.988
     DAL   OC2 10451   9.675   9.002   7.147
     NAG    C1 10452  10.745  10.534   6.331
     NAG    H1 10453  10.806  10.547   6.423
     NAG    C5 10454  10.617  10.378   6.473
     NAG    H5 10455  10.694  10.396   6.552
     NAG    O5 10456  10.617  10.487   6.379
     NAG    C2 10457  10.805  10.415   6.256
     NAG    H2 10458  10.745  10.396   6.165
     NAG    NC 10459  10.949  10.436   6.246
     NAG    HN 10460  10.998  10.441   6.333
     NAG    CM 10461  11.023  10.440   6.130
     NAG    OM 10462  10.975  10.414   6.018
     NAG    CC 10463  11.168  10.487   6.131
     NAG   HC1 10464  11.185  10.564   6.053
     NAG   HC2 10465  11.196  10.523   6.233
     NAG   HC3 10466  11.231  10.397   6.118
     NAG    C3 10467  10.800  10.293   6.352
     NAG    H3 10468  10.851  10.321   6.446
     NAG    O3 10469  10.875  10.178   6.304
     NAG   HO3 10470  10.959  10.178   6.350
     NAG    C4 10471  10.664  10.253   6.399
     NAG    H4 10472  10.610  10.246   6.302
     NAG    O4 10473  10.659  10.138   6.482
     NAG    C6 10474  10.485  10.360   6.546
     NAG   H61 10475  10.483  10.258   6.591
     NAG   H62 10476  10.404  10.375   6.471
     NAG    O6 10477  10.471  10.463   6.648
     NAG   HO6 10478  10.440  10.545   6.609
     NAM    C1 10479  10.650  11.055   6.252
     NAM    H1 10480  10.722  11.072   6.170
     NAM    C5 10481  10.790  10.872   6.336
     NAM    H5 10482  10.857  10.896   6.251
     NAM    O5 10483  10.725  11.004   6.363
     NAM    C2 10484  10.543  10.954   6.193
     NAM    H2 10485  10.462  10.951   6.269
     NAM    NC 10486  10.503  11.015   6.067
     NAM    HN 10487  10.553  10.978   5.989
     NAM    CM 10488  10.386  11.082   6.052
     NAM    OM 10489  10.314  11.105   6.152
     NAM    CC 10490  10.351  11.134   5.913
     NAM   HC1 10491  10.257  11.190   5.931
     NAM   HC2 10492  10.435  11.200   5.883
     NAM   HC3 10493  10.327  11.056   5.838
     NAM    C3 10494  10.604  10.827   6.173
     NAM    H3 10495  10.685  10.840   6.097
     NAM    O3 10496  10.525  10.732   6.100
     NAM    CA 10497  10.420  10.675   6.169
     NAM    HA 10498  10.416  10.681   6.277
     NAM     C 10499  10.404  10.518   6.139
     NAM     O 10500  10.342  10.453   6.222
     NAM    CB 10501  10.295  10.739   6.118
     NAM   HB1 10502  10.203  10.704   6.169
     NAM   HB2 10503  10.267  10.733   6.011
     NAM   HB3 10504  10.301  10.845   6.152
     NAM    C4 10505  10.687  10.767   6.292
     NAM    H4 10506  10.615  10.750   6.375
     NAM    O4 10507  10.745  10.643   6.242
     NAM    C6 10508  10.879  10.826   6.448
     NAM   H61 10509  10.943  10.915   6.468
     NAM   H62 10510  10.949  10.747   6.412
     NAM    O6 10511  10.812  10.785   6.566
     NAM   HO6 10512  10.743  10.845   6.597
     ALA     N 10513  10.454  10.457   6.029
     ALA    HN 10514  10.507  10.511   5.964
     ALA    CA 10515  10.437  10.321   5.988
     ALA    HA 10516  10.395  10.263   6.069
     ALA    CB 10517  10.572  10.257   5.935
     ALA   HB1 10518  10.616  10.328   5.862
     ALA   HB2 10519  10.546  10.161   5.887
     ALA   HB3 10520  10.654  10.244   6.009
     ALA     C 10521  10.331  10.319   5.874
     ALA     O 10522  10.352  10.384   5.775
     GLN     N 10523  10.211  10.242   5.882
     GLN    HN 10524  10.154  10.255   5.801
     GLN    CA 10525  10.163  10.148   5.985
     GLN    HA 10526  10.084  10.087   5.945
     GLN    CD 10527  10.274  10.043   6.036
     GLN   OE1 10528  10.322  10.027   6.152
     GLN   NE2 10529  10.311   9.963   5.933
     GLN  HE21 10530  10.375   9.891   5.959
     GLN  HE22 10531  10.296   9.993   5.838
     GLN    CB 10532  10.126  10.224   6.117
     GLN   HB1 10533  10.212  10.275   6.164
     GLN   HB2 10534  10.092  10.141   6.182
     GLN    CG 10535  10.025  10.343   6.106
     GLN   HG1 10536   9.938  10.303   6.049
     GLN   HG2 10537  10.067  10.428   6.048
     GLN     C 10538   9.971  10.409   6.236
     GLN     O 10539  10.051  10.485   6.294
     LYS     N 10540   9.844  10.394   6.279
     LYS    HN 10541   9.816  10.441   6.362
     LYS    CA 10542   9.746  10.300   6.217
     LYS    HA 10543   9.732  10.328   6.114
     LYS    CB 10544   9.608  10.306   6.292
     LYS   HB1 10545   9.532  10.238   6.247
     LYS   HB2 10546   9.621  10.267   6.396
     LYS    CG 10547   9.555  10.452   6.300
     LYS   HG1 10548   9.628  10.527   6.338
     LYS   HG2 10549   9.528  10.489   6.199
     LYS    CD 10550   9.439  10.471   6.394
     LYS   HD1 10551   9.469  10.434   6.494
     LYS   HD2 10552   9.402  10.576   6.398
     LYS    CE 10553   9.316  10.393   6.348
     LYS   HE1 10554   9.336  10.283   6.344
     LYS   HE2 10555   9.235  10.408   6.423
     LYS    NZ 10556   9.282  10.442   6.217
     LYS   HZ1 10557   9.280  10.545   6.223
     LYS   HZ2 10558   9.192  10.408   6.176
     LYS   HZ3 10559   9.346  10.424   6.137
     LYS     C 10560   9.794  10.154   6.214
     LYS     O 10561   9.882  10.121   6.292
     DAL     N 10562   9.735  10.048   6.141
     DAL    HN 10563   9.752   9.953   6.167
     DAL    CA 10564   9.653  10.063   6.017
     DAL    HA 10565   9.563  10.109   6.055
     DAL    CB 10566   9.638   9.926   5.955
     DAL   HB1 10567   9.740   9.884   5.942
     DAL   HB2 10568   9.601   9.848   6.025
     DAL   HB3 10569   9.588   9.931   5.856
     DAL     C 10570   9.705  10.151   5.907
     DAL     O 10571   9.827  10.147   5.891
     DAL     N 10572   9.628  10.231   5.829
     DAL    HN 10573   9.671  10.294   5.764
     DAL    CA 10574   9.484  10.228   5.839
     DAL    HA 10575   9.457  10.123   5.829
     DAL    CB 10576   9.415  10.292   5.719
     DAL   HB1 10577   9.443  10.398   5.703
     DAL   HB2 10578   9.437  10.234   5.627
     DAL   HB3 10579   9.304  10.288   5.726
     DAL     C 10580   9.424  10.292   5.964
     DAL   OC1 10581   9.457  10.409   5.992
     DAL   OC2 10582   9.343  10.233   6.044
     NAG    C1 10583  10.720  11.560   6.379
     NAG    H1 10584  10.615  11.590   6.358
     NAG    C5 10585  10.682  11.384   6.225
     NAG    H5 10586  10.581  11.429   6.218
     NAG    O5 10587  10.778  11.488   6.266
     NAG    C2 10588  10.733  11.463   6.490
     NAG    H2 10589  10.841  11.446   6.507
     NAG    NC 10590  10.678  11.512   6.619
     NAG    HN 10591  10.588  11.553   6.633
     NAG    CM 10592  10.750  11.516   6.735
     NAG    OM 10593  10.866  11.480   6.763
     NAG    CC 10594  10.670  11.595   6.837
     NAG   HC1 10595  10.653  11.698   6.798
     NAG   HC2 10596  10.572  11.552   6.868
     NAG   HC3 10597  10.731  11.601   6.930
     NAG    C3 10598  10.662  11.336   6.466
     NAG    H3 10599  10.555  11.366   6.476
     NAG    O3 10600  10.693  11.233   6.563
     NAG   HO3 10601  10.629  11.162   6.558
     NAG    C4 10602  10.686  11.279   6.332
     NAG    H4 10603  10.787  11.232   6.328
     NAG    O4 10604  10.587  11.179   6.290
     NAG    C6 10605  10.724  11.337   6.082
     NAG   H61 10606  10.710  11.412   6.001
     NAG   H62 10607  10.659  11.254   6.049
     NAG    O6 10608  10.859  11.284   6.087
     NAG   HO6 10609  10.899  11.288   6.000
     NAM    C1 10610  10.843  12.069   6.277
     NAM    H1 10611  10.925  12.068   6.352
     NAM    C5 10612  10.751  11.918   6.425
     NAM    H5 10613  10.847  11.933   6.480
     NAM    O5 10614  10.726  12.024   6.337
     NAM    C2 10615  10.877  11.963   6.167
     NAM    H2 10616  10.791  11.969   6.097
     NAM    NC 10617  10.999  11.988   6.090
     NAM    HN 10618  11.065  11.914   6.100
     NAM    CM 10619  11.022  12.054   5.972
     NAM    OM 10620  10.942  12.079   5.885
     NAM    CC 10621  11.162  12.095   5.954
     NAM   HC1 10622  11.208  12.084   6.055
     NAM   HC2 10623  11.216  12.022   5.892
     NAM   HC3 10624  11.163  12.201   5.920
     NAM    C3 10625  10.884  11.823   6.227
     NAM    H3 10626  10.979  11.821   6.284
     NAM    O3 10627  10.907  11.716   6.133
     NAM    CA 10628  10.827  11.708   6.015
     NAM    HA 10629  10.840  11.609   6.054
     NAM     C 10630  10.899  11.706   5.876
     NAM     O 10631  11.005  11.649   5.870
     NAM    CB 10632  10.673  11.713   6.004
     NAM   HB1 10633  10.624  11.689   6.100
     NAM   HB2 10634  10.643  11.644   5.921
     NAM   HB3 10635  10.632  11.814   5.983
     NAM    C4 10636  10.769  11.793   6.327
     NAM    H4 10637  10.672  11.791   6.273
     NAM    O4 10638  10.792  11.677   6.413
     NAM    C6 10639  10.630  11.905   6.512
     NAM   H61 10640  10.623  11.991   6.581
     NAM   H62 10641  10.650  11.818   6.578
     NAM    O6 10642  10.502  11.902   6.439
     NAM   HO6 10643  10.467  11.990   6.427
     ALA     N 10644  10.839  11.753   5.771
     ALA    HN 10645  10.749  11.792   5.786
     ALA    CA 10646  10.897  11.728   5.641
     ALA    HA 10647  11.003  11.707   5.648
     ALA    CB 10648  10.866  11.841   5.542
     ALA   HB1 10649  10.909  11.938   5.574
     ALA   HB2 10650  10.761  11.870   5.563
     ALA   HB3 10651  10.895  11.817   5.437
     ALA     C 10652  10.827  11.608   5.572
     ALA     O 10653  10.710  11.576   5.594
     GLN     N 10654  10.892  11.546   5.473
     GLN    HN 10655  10.841  11.472   5.430
     GLN    CA 10656  11.029  11.565   5.448
     GLN    HA 10657  11.065  11.664   5.473
     GLN    CD 10658  11.121  11.467   5.535
     GLN   OE1 10659  11.103  11.342   5.541
     GLN   NE2 10660  11.220  11.527   5.611
     GLN  HE21 10661  11.276  11.481   5.680
     GLN  HE22 10662  11.243  11.622   5.589
     GLN    CB 10663  11.062  11.538   5.304
     GLN   HB1 10664  11.034  11.431   5.294
     GLN   HB2 10665  11.171  11.545   5.280
     GLN    CG 10666  10.979  11.624   5.192
     GLN   HG1 10667  11.002  11.729   5.223
     GLN   HG2 10668  10.870  11.602   5.201
     GLN     C 10669  11.025  11.601   5.047
     GLN     O 10670  11.091  11.691   4.990
     LYS     N 10671  10.994  11.493   4.980
     LYS    HN 10672  11.035  11.485   4.890
     LYS    CA 10673  10.914  11.377   5.021
     LYS    HA 10674  10.901  11.376   5.128
     LYS    CB 10675  10.978  11.239   4.986
     LYS   HB1 10676  10.922  11.156   5.033
     LYS   HB2 10677  10.992  11.212   4.879
     LYS    CG 10678  11.114  11.233   5.050
     LYS   HG1 10679  11.179  11.310   5.004
     LYS   HG2 10680  11.123  11.278   5.151
     LYS    CD 10681  11.195  11.097   5.041
     LYS   HD1 10682  11.302  11.113   5.070
     LYS   HD2 10683  11.148  11.037   5.122
     LYS    CE 10684  11.185  11.032   4.907
     LYS   HE1 10685  11.246  10.939   4.908
     LYS   HE2 10686  11.079  11.007   4.888
     LYS    NZ 10687  11.245  11.113   4.798
     LYS   HZ1 10688  11.331  11.164   4.825
     LYS   HZ2 10689  11.184  11.187   4.757
     LYS   HZ3 10690  11.258  11.048   4.718
     LYS     C 10691  10.769  11.381   4.969
     LYS     O 10692  10.678  11.353   5.042
     DAL     N 10693  10.740  11.405   4.844
     DAL    HN 10694  10.644  11.380   4.830
     DAL    CA 10695  10.813  11.459   4.731
     DAL    HA 10696  10.917  11.439   4.752
     DAL    CB 10697  10.788  11.614   4.729
     DAL   HB1 10698  10.825  11.656   4.824
     DAL   HB2 10699  10.843  11.661   4.644
     DAL   HB3 10700  10.678  11.624   4.735
     DAL     C 10701  10.786  11.395   4.600
     DAL     O 10702  10.676  11.348   4.576
     NAG    C1 10703  10.767  12.600   6.256
     NAG    H1 10704  10.709  12.597   6.161
     NAG    C5 10705  10.883  12.406   6.176
     NAG    H5 10706  10.817  12.413   6.087
     NAG    O5 10707  10.892  12.541   6.236
     NAG    C2 10708  10.695  12.512   6.363
     NAG    H2 10709  10.754  12.518   6.457
     NAG    NC 10710  10.554  12.547   6.387
     NAG    HN 10711  10.482  12.491   6.345
     NAG    CM 10712  10.517  12.634   6.486
     NAG    OM 10713  10.584  12.648   6.587
     NAG    CC 10714  10.394  12.711   6.453
     NAG   HC1 10715  10.425  12.808   6.409
     NAG   HC2 10716  10.323  12.655   6.389
     NAG   HC3 10717  10.337  12.726   6.547
     NAG    C3 10718  10.693  12.360   6.329
     NAG    H3 10719  10.619  12.345   6.248
     NAG    O3 10720  10.659  12.277   6.438
     NAG   HO3 10721  10.619  12.195   6.408
     NAG    C4 10722  10.832  12.312   6.275
     NAG    H4 10723  10.902  12.300   6.359
     NAG    O4 10724  10.822  12.184   6.206
     NAG    C6 10725  11.024  12.372   6.125
     NAG   H61 10726  11.037  12.263   6.141
     NAG   H62 10727  11.098  12.424   6.190
     NAG    O6 10728  11.040  12.416   5.987
     NAG   HO6 10729  11.132  12.415   5.961
     NAM    C1 10730  10.838  13.119   6.215
     NAM    H1 10731  10.831  13.120   6.326
     NAM    C5 10732  10.696  12.934   6.227
     NAM    H5 10733  10.673  12.949   6.335
     NAM    O5 10734  10.727  13.057   6.159
     NAM    C2 10735  10.960  13.040   6.192
     NAM    H2 10736  10.982  13.052   6.084
     NAM    NC 10737  11.071  13.100   6.260
     NAM    HN 10738  11.091  13.087   6.356
     NAM    CM 10739  11.184  13.149   6.215
     NAM    OM 10740  11.231  13.127   6.103
     NAM    CC 10741  11.259  13.213   6.328
     NAM   HC1 10742  11.347  13.270   6.289
     NAM   HC2 10743  11.201  13.290   6.384
     NAM   HC3 10744  11.292  13.135   6.400
     NAM    C3 10745  10.947  12.908   6.255
     NAM    H3 10746  10.934  12.922   6.365
     NAM    O3 10747  11.063  12.823   6.243
     NAM    CA 10748  11.097  12.756   6.126
     NAM    HA 10749  11.052  12.658   6.118
     NAM     C 10750  11.244  12.729   6.170
     NAM     O 10751  11.279  12.630   6.234
     NAM    CB 10752  11.087  12.817   5.990
     NAM   HB1 10753  10.980  12.832   5.964
     NAM   HB2 10754  11.126  12.760   5.903
     NAM   HB3 10755  11.146  12.910   6.004
     NAM    C4 10756  10.814  12.840   6.211
     NAM    H4 10757  10.829  12.805   6.107
     NAM    O4 10758  10.782  12.730   6.307
     NAM    C6 10759  10.577  12.867   6.161
     NAM   H61 10760  10.563  12.761   6.191
     NAM   H62 10761  10.590  12.871   6.050
     NAM    O6 10762  10.455  12.934   6.191
     NAM   HO6 10763  10.388  12.886   6.143
     ALA     N 10764  11.337  12.814   6.126
     ALA    HN 10765  11.317  12.894   6.071
     ALA    CA 10766  11.480  12.798   6.141
     ALA    HA 10767  11.501  12.736   6.227
     ALA    CB 10768  11.552  12.935   6.167
     ALA   HB1 10769  11.582  12.979   6.070
     ALA   HB2 10770  11.647  12.917   6.222
     ALA   HB3 10771  11.487  13.007   6.222
     ALA     C 10772  11.546  12.724   6.022
     ALA     O 10773  11.488  12.714   5.913
     GLN     N 10774  11.671  12.676   6.026
     GLN    HN 10775  11.703  12.639   5.940
     GLN    CA 10776  11.762  12.652   6.138
     GLN    HA 10777  11.735  12.710   6.225
     GLN    CD 10778  11.760  12.501   6.172
     GLN   OE1 10779  11.747  12.412   6.083
     GLN   NE2 10780  11.790  12.470   6.305
     GLN  HE21 10781  11.798  12.373   6.327
     GLN  HE22 10782  11.804  12.538   6.376
     GLN    CB 10783  11.908  12.682   6.093
     GLN   HB1 10784  11.945  12.603   6.024
     GLN   HB2 10785  11.976  12.672   6.180
     GLN    CG 10786  11.928  12.827   6.040
     GLN   HG1 10787  11.870  12.888   6.112
     GLN   HG2 10788  11.886  12.837   5.937
     GLN     C 10789  12.068  12.881   6.045
     GLN     O 10790  12.103  12.948   6.139
     LYS     N 10791  12.154  12.862   5.950
     LYS    HN 10792  12.236  12.918   5.964
     LYS    CA 10793  12.139  12.779   5.833
     LYS    HA 10794  12.062  12.704   5.846
     LYS    CB 10795  12.270  12.714   5.771
     LYS   HB1 10796  12.245  12.656   5.679
     LYS   HB2 10797  12.337  12.798   5.744
     LYS    CG 10798  12.343  12.629   5.874
     LYS   HG1 10799  12.373  12.693   5.960
     LYS   HG2 10800  12.281  12.542   5.902
     LYS    CD 10801  12.482  12.581   5.838
     LYS   HD1 10802  12.558  12.662   5.835
     LYS   HD2 10803  12.520  12.516   5.920
     LYS    CE 10804  12.498  12.502   5.705
     LYS   HE1 10805  12.470  12.562   5.616
     LYS   HE2 10806  12.604  12.476   5.683
     LYS    NZ 10807  12.431  12.372   5.705
     LYS   HZ1 10808  12.445  12.309   5.786
     LYS     C 10809  12.082  12.871   5.730
     LYS     O 10810  12.109  12.991   5.739
     GLY     C 10811  12.909  12.842   6.903
     GLY     O 10812  13.008  12.791   6.954
     GLY    CA 10813  12.912  12.917   6.770
     GLY   HA1 10814  13.001  12.888   6.713
     GLY   HA2 10815  12.913  13.025   6.788
     GLY     N 10816  12.794  12.884   6.692
     GLY    HN 10817  12.728  12.819   6.732
     GLY     C 10818  12.771  12.757   6.656
     GLY     O 10819  12.853  12.674   6.693
     GLY    CA 10820  12.647  12.723   6.574
     GLY   HA1 10821  12.624  12.616   6.585
     GLY   HA2 10822  12.664  12.746   6.469
     GLY     N 10823  12.534  12.800   6.621
     GLY    HN 10824  12.549  12.864   6.699
     GLY     C 10825  12.492  12.787   6.748
     GLY     O 10826  12.555  12.709   6.819
     GLY    CA 10827  12.373  12.868   6.797
     GLY   HA1 10828  12.375  12.875   6.907
     GLY   HA2 10829  12.280  12.821   6.765
     GLY     N 10830  12.378  13.002   6.743
     GLY    HN 10831  12.456  13.026   6.682
     GLY     C 10832  12.483  13.081   6.769
     GLY     O 10833  12.571  13.033   6.840
     GLY    CA 10834  12.489  13.223   6.712
     GLY   HA1 10835  12.592  13.258   6.712
     GLY   HA2 10836  12.427  13.290   6.772
     GLY     N 10837  12.439  13.223   6.576
     GLY    HN 10838  12.409  13.134   6.537
     GLY     C 10839  12.500  13.148   6.482
     GLY     O 10840  12.597  13.082   6.519
     GLY    CA 10841  12.448  13.148   6.339
     GLY   HA1 10842  12.483  13.058   6.287
     GLY   HA2 10843  12.483  13.237   6.287
     GLY     N 10844  12.303  13.148   6.339
     GLY   HN1 10845  12.252  13.156   6.251
     GLY   HN2 10846  12.233  13.146   6.429
     GLY   HN3 10847  12.218  13.198   6.329
     DAL     N 10848  12.011  12.825   5.622
     DAL    HN 10849  11.983  12.902   5.565
     DAL    CA 10850  11.976  12.696   5.577
     DAL    HA 10851  12.069  12.642   5.570
     DAL    CB 10852  11.903  12.704   5.446
     DAL   HB1 10853  11.800  12.746   5.452
     DAL   HB2 10854  11.964  12.749   5.365
     DAL   HB3 10855  11.882  12.599   5.417
     DAL     C 10856  11.888  12.618   5.680
     DAL     O 10857  11.816  12.667   5.765
     DAL     N 10858  11.900  12.486   5.684
     DAL    HN 10859  11.842  12.447   5.755
     DAL    CA 10860  11.974  12.401   5.589
     DAL    HA 10861  11.961  12.433   5.487
     DAL    CB 10862  11.900  12.263   5.602
     DAL   HB1 10863  11.896  12.238   5.710
     DAL   HB2 10864  11.792  12.265   5.575
     DAL   HB3 10865  11.950  12.184   5.542
     DAL     C 10866  12.130  12.381   5.619
     DAL   OC1 10867  12.163  12.341   5.733
     DAL   OC2 10868  12.218  12.405   5.535
     NAG    C1 10869  12.635   0.226   6.342
     NAG    H1 10870  12.613   0.264   6.239
     NAG    C5 10871  12.794   0.069   6.248
     NAG    H5 10872  12.759   0.116   6.153
     NAG    O5 10873  12.765   0.165   6.353
     NAG    C2 10874  12.547   0.119   6.394
     NAG    H2 10875  12.562   0.089   6.500
     NAG    NC 10876  12.418   0.173   6.360
     NAG    HN 10877  12.387   0.197   6.268
     NAG    CM 10878  12.316   0.189   6.446
     NAG    OM 10879  12.322   0.170   6.572
     NAG    CC 10880  12.192   0.239   6.374
     NAG   HC1 10881  12.210   0.342   6.335
     NAG   HC2 10882  12.171   0.170   6.290
     NAG   HC3 10883  12.111   0.239   6.450
     NAG    C3 10884  12.559  13.451   6.307
     NAG    H3 10885  12.527   0.032   6.207
     NAG    O3 10886  12.468  13.347   6.342
     NAG   HO3 10887  12.482  13.329   6.436
     NAG    C4 10888  12.708  13.407   6.290
     NAG    H4 10889  12.736  13.383   6.395
     NAG    O4 10890  12.731  13.298   6.201
     NAG    C6 10891  12.935   0.030   6.245
     NAG   H61 10892  12.951  13.404   6.171
     NAG   H62 10893  12.974  13.449   6.343
     NAG    O6 10894  13.022   0.134   6.203
     NAG   HO6 10895  13.097   0.147   6.262
     NAM    C1 10896  12.733   0.743   6.420
     NAM    H1 10897  12.668   0.763   6.508
     NAM    C5 10898  12.592   0.563   6.354
     NAM    H5 10899  12.538   0.592   6.447
     NAM    O5 10900  12.661   0.679   6.310
     NAM    C2 10901  12.846   0.641   6.451
     NAM    H2 10902  12.901   0.643   6.354
     NAM    NC 10903  12.910   0.704   6.561
     NAM    HN 10904  12.852   0.714   6.641
     NAM    CM 10905  13.037   0.717   6.609
     NAM    OM 10906  13.128   0.677   6.538
     NAM    CC 10907  13.057   0.778   6.749
     NAM   HC1 10908  13.008   0.878   6.749
     NAM   HC2 10909  13.007   0.707   6.817
     NAM   HC3 10910  13.165   0.789   6.774
     NAM    C3 10911  12.787   0.509   6.485
     NAM    H3 10912  12.730   0.523   6.579
     NAM    O3 10913  12.885   0.419   6.532
     NAM    CA 10914  12.977   0.357   6.446
     NAM    HA 10915  12.933   0.258   6.442
     NAM     C 10916  13.082   0.327   6.553
     NAM     O 10917  13.067   0.229   6.632
     NAM    CB 10918  13.038   0.422   6.319
     NAM   HB1 10919  12.954   0.432   6.247
     NAM   HB2 10920  13.120   0.364   6.272
     NAM   HB3 10921  13.072   0.522   6.356
     NAM    C4 10922  12.695   0.451   6.379
     NAM    H4 10923  12.748   0.435   6.283
     NAM    O4 10924  12.627   0.333   6.433
     NAM    C6 10925  12.487   0.519   6.253
     NAM   H61 10926  12.445   0.422   6.287
     NAM   H62 10927  12.537   0.511   6.154
     NAM    O6 10928  12.383   0.616   6.238
     NAM   HO6 10929  12.332   0.623   6.319
     ALA     N 10930  13.185   0.408   6.572
     ALA    HN 10931  13.193   0.493   6.520
     ALA    CA 10932  13.295   0.383   6.660
     ALA    HA 10933  13.294   0.282   6.699
     ALA    CB 10934  13.297   0.475   6.783
     ALA   HB1 10935  13.313   0.582   6.758
     ALA   HB2 10936  13.384   0.464   6.851
     ALA   HB3 10937  13.200   0.461   6.835
     ALA     C 10938  13.418   0.391   6.567
     ALA     O 10939  13.421   0.463   6.475
     GLN     N 10940   0.075   0.315   6.576
     GLN    HN 10941   0.143   0.333   6.506
     GLN    CA 10942   0.095   0.200   6.664
     GLN    HA 10943   0.201   0.176   6.660
     GLN    CD 10944   0.076   0.232   6.816
     GLN   OE1 10945  13.449   0.166   6.882
     GLN   NE2 10946   0.155   0.321   6.877
     GLN  HE21 10947   0.125   0.352   6.967
     GLN  HE22 10948   0.215   0.377   6.820
     GLN    CB 10949   0.017   0.069   6.616
     GLN   HB1 10950  13.367   0.103   6.604
     GLN   HB2 10951   0.030   0.001   6.703
     GLN    CG 10952   0.073   0.025   6.479
     GLN   HG1 10953   0.178  13.449   6.500
     GLN   HG2 10954   0.077   0.110   6.408
     GLN     C 10955  13.451  13.358   6.438
     GLN     O 10956  13.442  13.262   6.515
     LYS     N 10957  13.401  13.351   6.316
     LYS    HN 10958  13.360  13.261   6.303
     LYS    CA 10959  13.396  13.434   6.192
     LYS    HA 10960  13.326  13.391   6.121
     LYS    CB 10961   0.075  13.418   6.117
     LYS   HB1 10962   0.085   0.029   6.028
     LYS   HB2 10963   0.165  13.440   6.178
     LYS    CG 10964   0.078  13.278   6.054
     LYS   HG1 10965   0.030  13.213   6.131
     LYS   HG2 10966   0.020  13.285   5.960
     LYS    CD 10967   0.228  13.235   6.033
     LYS   HD1 10968   0.272  13.312   5.965
     LYS   HD2 10969   0.272  13.227   6.134
     LYS    CE 10970   0.225  13.097   5.964
     LYS   HE1 10971   0.326  13.051   5.958
     LYS   HE2 10972   0.164  13.032   6.030
     LYS    NZ 10973   0.180  13.106   5.822
     LYS   HZ1 10974   0.206  13.024   5.764
     LYS   HZ2 10975   0.212  13.193   5.776
     LYS   HZ3 10976   0.076  13.103   5.831
     LYS     C 10977  13.338   0.120   6.204
     LYS     O 10978  13.295   0.165   6.312
     DAL     N 10979  13.307   0.203   6.101
     DAL    HN 10980  13.262   0.288   6.128
     DAL    CA 10981  13.342   0.197   5.955
     DAL    HA 10982  13.445   0.224   5.942
     DAL    CB 10983  13.257   0.309   5.893
     DAL   HB1 10984  13.282   0.404   5.945
     DAL   HB2 10985  13.275   0.318   5.784
     DAL   HB3 10986  13.148   0.289   5.900
     DAL     C 10987  13.304   0.069   5.879
     DAL     O 10988  13.219  13.451   5.923
     DAL     N 10989  13.365   0.033   5.763
     DAL    HN 10990  13.335  13.403   5.720
     DAL    CA 10991   0.007   0.101   5.683
     DAL    HA 10992   0.036   0.182   5.749
     DAL    CB 10993  13.407   0.147   5.545
     DAL   HB1 10994  13.354   0.063   5.495
     DAL   HB2 10995  13.333   0.227   5.568
     DAL   HB3 10996   0.036   0.188   5.487
     DAL     C 10997   0.130   0.007   5.673
     DAL   OC1 10998   0.228   0.035   5.740
     DAL   OC2 10999   0.125  13.358   5.598
     NAG    C1 11000  12.729   1.271   6.389
     NAG    H1 11001  12.763   1.291   6.285
     NAG    C5 11002  12.857   1.078   6.396
     NAG    H5 11003  12.873   1.099   6.288
     NAG    O5 11004  12.821   1.201   6.472
     NAG    C2 11005  12.605   1.189   6.382
     NAG    H2 11006  12.563   1.179   6.484
     NAG    NC 11007  12.502   1.261   6.306
     NAG    HN 11008  12.512   1.243   6.208
     NAG    CM 11009  12.383   1.299   6.350
     NAG    OM 11010  12.328   1.276   6.457
     NAG    CC 11011  12.296   1.361   6.236
     NAG   HC1 11012  12.193   1.373   6.277
     NAG   HC2 11013  12.341   1.450   6.186
     NAG   HC3 11014  12.293   1.282   6.158
     NAG    C3 11015  12.633   1.054   6.327
     NAG    H3 11016  12.665   1.068   6.222
     NAG    O3 11017  12.517   0.970   6.326
     NAG   HO3 11018  12.512   0.910   6.251
     NAG    C4 11019  12.735   0.985   6.414
     NAG    H4 11020  12.708   0.979   6.521
     NAG    O4 11021  12.788   0.862   6.372
     NAG    C6 11022  12.987   1.028   6.446
     NAG   H61 11023  13.019   0.931   6.402
     NAG   H62 11024  12.976   1.002   6.553
     NAG    O6 11025  13.085   1.127   6.433
     NAG   HO6 11026  13.160   1.084   6.475
     NAM    C1 11027  12.813   1.787   6.484
     NAM    H1 11028  12.722   1.785   6.548
     NAM    C5 11029  12.720   1.609   6.361
     NAM    H5 11030  12.622   1.643   6.400
     NAM    O5 11031  12.803   1.724   6.355
     NAM    C2 11032  12.907   1.689   6.573
     NAM    H2 11033  12.995   1.679   6.506
     NAM    NC 11034  12.912   1.735   6.707
     NAM    HN 11035  12.823   1.756   6.747
     NAM    CM 11036  13.027   1.759   6.779
     NAM    OM 11037  13.142   1.737   6.752
     NAM    CC 11038  12.999   1.808   6.917
     NAM   HC1 11039  13.089   1.859   6.960
     NAM   HC2 11040  12.920   1.887   6.917
     NAM   HC3 11041  12.960   1.729   6.984
     NAM    C3 11042  12.831   1.559   6.583
     NAM    H3 11043  12.738   1.571   6.642
     NAM    O3 11044  12.900   1.459   6.664
     NAM    CA 11045  13.018   1.395   6.619
     NAM    HA 11046  12.991   1.300   6.575
     NAM     C 11047  13.089   1.349   6.743
     NAM     O 11048  13.111   1.230   6.767
     NAM    CB 11049  13.128   1.449   6.528
     NAM   HB1 11050  13.096   1.469   6.423
     NAM   HB2 11051  13.221   1.390   6.511
     NAM   HB3 11052  13.155   1.549   6.569
     NAM    C4 11053  12.787   1.500   6.440
     NAM    H4 11054  12.874   1.475   6.376
     NAM    O4 11055  12.697   1.391   6.453
     NAM    C6 11056  12.687   1.579   6.212
     NAM   H61 11057  12.657   1.673   6.160
     NAM   H62 11058  12.605   1.505   6.205
     NAM    O6 11059  12.797   1.518   6.135
     NAM   HO6 11060  12.873   1.575   6.130
     ALA     N 11061  13.133   1.445   6.832
     ALA    HN 11062  13.125   1.542   6.812
     ALA    CA 11063  13.198   1.399   6.954
     ALA    HA 11064  13.225   1.296   6.942
     ALA    CB 11065  13.094   1.422   7.069
     ALA   HB1 11066  12.991   1.395   7.037
     ALA   HB2 11067  13.098   1.527   7.103
     ALA   HB3 11068  13.125   1.354   7.152
     ALA     C 11069  13.327   1.470   6.991
     ALA     O 11070  13.352   1.579   6.942
     GLN     N 11071  13.416   1.403   7.070
     GLN    HN 11072   0.049   1.447   7.076
     GLN    CA 11073  13.403   1.275   7.136
     GLN    HA 11074  13.302   1.242   7.154
     GLN    CD 11075   0.019   1.157   7.066
     GLN   OE1 11076   0.066   1.153   6.956
     GLN   NE2 11077   0.017   1.044   7.143
     GLN  HE21 11078   0.055   0.959   7.108
     GLN  HE22 11079   0.017   1.053   7.243
     GLN    CB 11080  13.450   1.288   7.281
     GLN   HB1 11081   0.104   1.269   7.282
     GLN   HB2 11082  13.404   1.206   7.339
     GLN    CG 11083  13.413   1.422   7.355
     GLN   HG1 11084  13.315   1.469   7.332
     GLN   HG2 11085   0.029   1.504   7.329
     GLN     C 11086  13.430   1.415   7.504
     GLN     O 11087   0.080   1.429   7.565
     LYS     N 11088  13.316   1.393   7.572
     LYS    HN 11089  13.325   1.393   7.672
     LYS    CA 11090  13.182   1.370   7.520
     LYS    HA 11091  13.166   1.447   7.446
     LYS    CB 11092  13.070   1.392   7.619
     LYS   HB1 11093  12.971   1.369   7.573
     LYS   HB2 11094  13.076   1.322   7.706
     LYS    CG 11095  13.067   1.536   7.671
     LYS   HG1 11096  13.164   1.571   7.712
     LYS   HG2 11097  13.043   1.601   7.585
     LYS    CD 11098  12.959   1.561   7.776
     LYS   HD1 11099  12.977   1.668   7.798
     LYS   HD2 11100  12.860   1.539   7.730
     LYS    CE 11101  12.963   1.481   7.902
     LYS   HE1 11102  12.891   1.520   7.976
     LYS   HE2 11103  12.943   1.376   7.872
     LYS    NZ 11104  13.097   1.483   7.963
     LYS   HZ1 11105  13.172   1.442   7.904
     LYS   HZ2 11106  13.116   1.450   8.059
     LYS   HZ3 11107  13.123   1.583   7.973
     LYS     C 11108  13.160   1.234   7.454
     LYS     O 11109  13.096   1.224   7.350
     DAL     N 11110  13.204   1.120   7.504
     DAL    HN 11111  13.161   1.044   7.455
     DAL    CA 11112  13.297   1.093   7.608
     DAL    HA 11113  13.368   1.172   7.621
     DAL    CB 11114  13.381   0.969   7.573
     DAL   HB1 11115  13.441   0.956   7.665
     DAL   HB2 11116  13.308   0.885   7.563
     DAL   HB3 11117  13.439   0.981   7.478
     DAL     C 11118  13.217   1.071   7.739
     DAL     O 11119  13.102   1.019   7.737
     NAG    C1 11120  12.814   2.304   6.405
     NAG    H1 11121  12.916   2.302   6.360
     NAG    C5 11122  12.906   2.141   6.546
     NAG    H5 11123  12.996   2.136   6.481
     NAG    O5 11124  12.835   2.267   6.539
     NAG    C2 11125  12.723   2.212   6.325
     NAG    H2 11126  12.627   2.210   6.381
     NAG    NC 11127  12.713   2.240   6.183
     NAG    HN 11128  12.785   2.231   6.115
     NAG    CM 11129  12.603   2.257   6.105
     NAG    OM 11130  12.497   2.229   6.161
     NAG    CC 11131  12.622   2.298   5.967
     NAG   HC1 11132  12.542   2.367   5.931
     NAG   HC2 11133  12.701   2.377   5.961
     NAG   HC3 11134  12.642   2.216   5.896
     NAG    C3 11135  12.779   2.073   6.340
     NAG    H3 11136  12.876   2.065   6.288
     NAG    O3 11137  12.692   1.974   6.286
     NAG   HO3 11138  12.610   1.977   6.336
     NAG    C4 11139  12.819   2.033   6.485
     NAG    H4 11140  12.729   2.019   6.549
     NAG    O4 11141  12.889   1.906   6.485
     NAG    C6 11142  12.952   2.109   6.688
     NAG   H61 11143  12.964   1.999   6.696
     NAG   H62 11144  12.877   2.155   6.757
     NAG    O6 11145  13.068   2.196   6.715
     NAG   HO6 11146  13.076   2.210   6.809
     NAM    C1 11147  12.766   2.835   6.458
     NAM    H1 11148  12.655   2.832   6.448
     NAM    C5 11149  12.773   2.650   6.305
     NAM    H5 11150  12.662   2.655   6.308
     NAM    O5 11151  12.826   2.778   6.341
     NAM    C2 11152  12.801   2.745   6.575
     NAM    H2 11153  12.911   2.755   6.586
     NAM    NC 11154  12.745   2.776   6.702
     NAM    HN 11155  12.692   2.699   6.738
     NAM    CM 11156  12.767   2.888   6.774
     NAM    OM 11157  12.840   2.984   6.753
     NAM    CC 11158  12.700   2.878   6.908
     NAM   HC1 11159  12.590   2.881   6.893
     NAM   HC2 11160  12.726   2.781   6.956
     NAM   HC3 11161  12.744   2.955   6.975
     NAM    C3 11162  12.765   2.606   6.549
     NAM    H3 11163  12.654   2.603   6.537
     NAM    O3 11164  12.790   2.521   6.664
     NAM    CA 11165  12.922   2.515   6.723
     NAM    HA 11166  12.886   2.413   6.719
     NAM     C 11167  12.919   2.549   6.866
     NAM     O 11168  12.854   2.477   6.943
     NAM    CB 11169  13.063   2.511   6.653
     NAM   HB1 11170  13.058   2.444   6.565
     NAM   HB2 11171  13.138   2.478   6.728
     NAM   HB3 11172  13.096   2.609   6.612
     NAM    C4 11173  12.815   2.553   6.414
     NAM    H4 11174  12.925   2.542   6.416
     NAM    O4 11175  12.746   2.430   6.394
     NAM    C6 11176  12.822   2.617   6.168
     NAM   H61 11177  12.760   2.679   6.100
     NAM   H62 11178  12.799   2.510   6.150
     NAM    O6 11179  12.957   2.644   6.144
     NAM   HO6 11180  12.977   2.728   6.187
     ALA     N 11181  12.986   2.661   6.907
     ALA    HN 11182  13.049   2.706   6.843
     ALA    CA 11183  12.979   2.707   7.043
     ALA    HA 11184  12.877   2.713   7.077
     ALA    CB 11185  13.038   2.847   7.046
     ALA   HB1 11186  13.142   2.853   7.009
     ALA   HB2 11187  13.029   2.891   7.147
     ALA   HB3 11188  12.977   2.911   6.978
     ALA     C 11189  13.059   2.609   7.136
     ALA     O 11190  13.165   2.558   7.115
     GLN     N 11191  13.008   2.594   7.261
     GLN    HN 11192  13.067   2.547   7.325
     GLN    CA 11193  12.899   2.656   7.322
     GLN    HA 11194  12.870   2.746   7.270
     GLN    CD 11195  12.777   2.563   7.313
     GLN   OE1 11196  12.779   2.467   7.394
     GLN   NE2 11197  12.677   2.584   7.222
     GLN  HE21 11198  12.688   2.650   7.148
     GLN  HE22 11199  12.606   2.514   7.212
     GLN    CB 11200  12.930   2.705   7.465
     GLN   HB1 11201  12.961   2.623   7.534
     GLN   HB2 11202  12.839   2.752   7.508
     GLN    CG 11203  13.047   2.815   7.468
     GLN   HG1 11204  13.016   2.899   7.403
     GLN   HG2 11205  13.142   2.771   7.430
     GLN     C 11206  13.067   2.880   7.599
     GLN     O 11207  13.029   2.995   7.625
     LYS     N 11208  13.139   2.810   7.692
     LYS    HN 11209  13.159   2.863   7.774
     LYS    CA 11210  13.214   2.689   7.669
     LYS    HA 11211  13.170   2.621   7.598
     LYS    CB 11212  13.206   2.598   7.796
     LYS   HB1 11213  13.232   2.656   7.887
     LYS   HB2 11214  13.097   2.584   7.806
     LYS    CG 11215  13.303   2.475   7.802
     LYS   HG1 11216  13.282   2.412   7.713
     LYS   HG2 11217  13.409   2.506   7.812
     LYS    CD 11218  13.262   2.387   7.925
     LYS   HD1 11219  13.188   2.442   7.987
     LYS   HD2 11220  13.213   2.295   7.886
     LYS    CE 11221  13.373   2.356   8.030
     LYS   HE1 11222  13.326   2.335   8.128
     LYS   HE2 11223  13.438   2.272   7.997
     LYS    NZ 11224   0.003   2.474   8.051
     LYS   HZ1 11225   0.067   2.444   8.128
     LYS   HZ2 11226  13.408   2.564   8.068
     LYS   HZ3 11227   0.067   2.485   7.970
     LYS     C 11228  13.366   2.700   7.631
     LYS     O 11229  13.411   2.617   7.549
     DAL     N 11230  13.451   2.792   7.692
     DAL    HN 11231   0.089   2.798   7.657
     DAL    CA 11232  13.422   2.882   7.804
     DAL    HA 11233  13.350   2.835   7.870
     DAL    CB 11234  13.379   3.018   7.759
     DAL   HB1 11235  13.449   3.067   7.687
     DAL   HB2 11236  13.288   3.008   7.696
     DAL   HB3 11237  13.379   3.089   7.845
     DAL     C 11238   0.105   2.902   7.882
     DAL     O 11239   0.205   2.909   7.816
     DAL     N 11240   0.110   2.911   8.016
     DAL    HN 11241   0.198   2.912   8.063
     DAL    CA 11242   0.001   2.902   8.108
     DAL    HA 11243  13.362   2.931   8.064
     DAL    CB 11244   0.038   3.000   8.224
     DAL   HB1 11245  13.428   3.002   8.314
     DAL   HB2 11246   0.141   2.981   8.262
     DAL   HB3 11247   0.031   3.102   8.181
     DAL     C 11248  13.449   2.759   8.164
     DAL   OC1 11249   0.099   2.708   8.212
     DAL   OC2 11250  13.337   2.698   8.165
     NAG    C1 11251  12.805   3.355   6.360
     NAG    H1 11252  12.908   3.367   6.400
     NAG    C5 11253  12.726   3.181   6.508
     NAG    H5 11254  12.812   3.197   6.577
     NAG    O5 11255  12.703   3.312   6.454
     NAG    C2 11256  12.798   3.257   6.248
     NAG    H2 11257  12.695   3.249   6.207
     NAG    NC 11258  12.875   3.311   6.138
     NAG    HN 11259  12.966   3.278   6.115
     NAG    CM 11260  12.848   3.371   6.024
     NAG    OM 11261  12.735   3.395   5.982
     NAG    CC 11262  12.961   3.418   5.943
     NAG   HC1 11263  13.048   3.434   6.010
     NAG   HC2 11264  13.002   3.343   5.873
     NAG   HC3 11265  12.952   3.523   5.907
     NAG    C3 11266  12.852   3.124   6.301
     NAG    H3 11267  12.945   3.136   6.362
     NAG    O3 11268  12.858   3.027   6.195
     NAG   HO3 11269  12.877   2.940   6.230
     NAG    C4 11270  12.755   3.074   6.410
     NAG    H4 11271  12.661   3.033   6.367
     NAG    O4 11272  12.819   2.968   6.480
     NAG    C6 11273  12.607   3.148   6.600
     NAG   H61 11274  12.595   3.241   6.660
     NAG   H62 11275  12.617   3.055   6.659
     NAG    O6 11276  12.485   3.134   6.525
     NAG   HO6 11277  12.434   3.058   6.556
     NAM    C1 11278  12.705   3.882   6.393
     NAM    H1 11279  12.632   3.867   6.311
     NAM    C5 11280  12.830   3.712   6.290
     NAM    H5 11281  12.757   3.722   6.207
     NAM    O5 11282  12.837   3.842   6.351
     NAM    C2 11283  12.669   3.801   6.508
     NAM    H2 11284  12.736   3.828   6.593
     NAM    NC 11285  12.538   3.845   6.558
     NAM    HN 11286  12.472   3.885   6.495
     NAM    CM 11287  12.491   3.861   6.686
     NAM    OM 11288  12.570   3.863   6.782
     NAM    CC 11289  12.347   3.874   6.715
     NAM   HC1 11290  12.326   3.814   6.806
     NAM   HC2 11291  12.325   3.978   6.747
     NAM   HC3 11292  12.280   3.857   6.629
     NAM    C3 11293  12.677   3.653   6.468
     NAM    H3 11294  12.581   3.641   6.414
     NAM    O3 11295  12.646   3.566   6.577
     NAM    CA 11296  12.745   3.541   6.682
     NAM    HA 11297  12.785   3.461   6.622
     NAM     C 11298  12.653   3.481   6.795
     NAM     O 11299  12.531   3.505   6.801
     NAM    CB 11300  12.849   3.643   6.731
     NAM   HB1 11301  12.929   3.584   6.781
     NAM   HB2 11302  12.799   3.712   6.803
     NAM   HB3 11303  12.895   3.702   6.650
     NAM    C4 11304  12.790   3.601   6.385
     NAM    H4 11305  12.879   3.588   6.451
     NAM    O4 11306  12.758   3.480   6.310
     NAM    C6 11307  12.963   3.687   6.212
     NAM   H61 11308  12.961   3.586   6.165
     NAM   H62 11309  13.044   3.681   6.288
     NAM    O6 11310  12.988   3.779   6.107
     NAM   HO6 11311  13.020   3.858   6.150
     ALA     N 11312  12.710   3.407   6.888
     ALA    HN 11313  12.805   3.374   6.887
     ALA    CA 11314  12.641   3.373   7.009
     ALA    HA 11315  12.571   3.449   7.039
     ALA    CB 11316  12.746   3.355   7.119
     ALA   HB1 11317  12.788   3.456   7.141
     ALA   HB2 11318  12.830   3.287   7.094
     ALA   HB3 11319  12.709   3.309   7.214
     ALA     C 11320  12.548   3.252   7.002
     ALA     O 11321  12.558   3.161   6.916
     GLN     N 11322  12.457   3.235   7.094
     GLN    HN 11323  12.412   3.146   7.100
     GLN    CA 11324  12.415   3.330   7.200
     GLN    HA 11325  12.498   3.380   7.247
     GLN    CD 11326  12.317   3.432   7.139
     GLN   OE1 11327  12.353   3.551   7.125
     GLN   NE2 11328  12.197   3.392   7.112
     GLN  HE21 11329  12.135   3.460   7.073
     GLN  HE22 11330  12.163   3.302   7.136
     GLN    CB 11331  12.345   3.257   7.322
     GLN   HB1 11332  12.255   3.214   7.274
     GLN   HB2 11333  12.326   3.336   7.398
     GLN    CG 11334  12.412   3.140   7.396
     GLN   HG1 11335  12.416   3.053   7.327
     GLN   HG2 11336  12.349   3.113   7.484
     GLN     C 11337  12.550   3.160   7.441
     GLN     O 11338  12.640   3.108   7.379
     LYS     N 11339  12.582   3.232   7.549
     LYS    HN 11340  12.679   3.250   7.565
     LYS    CA 11341  12.497   3.294   7.653
     LYS    HA 11342  12.416   3.335   7.594
     LYS    CB 11343  12.567   3.419   7.715
     LYS   HB1 11344  12.511   3.439   7.810
     LYS   HB2 11345  12.669   3.392   7.750
     LYS    CG 11346  12.578   3.556   7.636
     LYS   HG1 11347  12.642   3.621   7.700
     LYS   HG2 11348  12.642   3.541   7.546
     LYS    CD 11349  12.444   3.636   7.614
     LYS   HD1 11350  12.377   3.567   7.559
     LYS   HD2 11351  12.393   3.648   7.712
     LYS    CE 11352  12.467   3.778   7.547
     LYS   HE1 11353  12.506   3.849   7.623
     LYS   HE2 11354  12.538   3.762   7.463
     LYS    NZ 11355  12.341   3.840   7.508
     LYS   HZ1 11356  12.280   3.853   7.592
     LYS     C 11357  12.434   3.198   7.748
     LYS     O 11358  12.310   3.186   7.750
     GLY     C 11359  13.446   3.002   8.143
     GLY     O 11360  13.545   2.951   8.194
     GLY    CA 11361  13.449   3.077   8.010
     GLY   HA1 11362  13.538   3.048   7.953
     GLY   HA2 11363  13.450   3.185   8.028
     GLY     N 11364  13.331   3.044   7.932
     GLY    HN 11365  13.265   2.979   7.972
     GLY     C 11366  13.308   2.917   7.896
     GLY     O 11367  13.390   2.834   7.933
     GLY    CA 11368  13.184   2.883   7.814
     GLY   HA1 11369  13.161   2.776   7.825
     GLY   HA2 11370  13.201   2.906   7.709
     GLY     N 11371  13.071   2.960   7.861
     GLY    HN 11372  13.086   3.024   7.939
     GLY     C 11373  13.029   2.947   7.988
     GLY     O 11374  13.092   2.869   8.059
     GLY    CA 11375  12.910   3.028   8.037
     GLY   HA1 11376  12.912   3.035   8.147
     GLY   HA2 11377  12.817   2.981   8.005
     GLY     N 11378  12.915   3.162   7.983
     GLY    HN 11379  12.993   3.186   7.922
     GLY     C 11380  13.020   3.241   8.009
     GLY     O 11381  13.108   3.193   8.080
     GLY    CA 11382  13.026   3.383   7.952
     GLY   HA1 11383  13.129   3.418   7.952
     GLY   HA2 11384  12.964   3.450   8.012
     GLY     N 11385  12.976   3.383   7.816
     GLY    HN 11386  12.946   3.294   7.777
     GLY     C 11387  13.037   3.308   7.722
     GLY     O 11388  13.134   3.242   7.759
     GLY    CA 11389  12.985   3.308   7.579
     GLY   HA1 11390  13.020   3.218   7.527
     GLY   HA2 11391  13.020   3.397   7.527
     GLY     N 11392  12.840   3.308   7.579
     GLY    HN 11393  12.789   3.316   7.491
     DAL     N 11394  12.513   3.113   7.819
     DAL    HN 11395  12.470   3.041   7.872
     DAL    CA 11396  12.665   3.103   7.818
     DAL    HA 11397  12.714   3.185   7.767
     DAL    CB 11398  12.708   2.981   7.745
     DAL   HB1 11399  12.817   2.973   7.764
     DAL   HB2 11400  12.658   2.887   7.774
     DAL   HB3 11401  12.699   2.987   7.634
     DAL     C 11402  12.704   3.078   7.964
     DAL     O 11403  12.637   3.003   8.042
     DAL     N 11404  12.806   3.151   8.019
     DAL    HN 11405  12.824   3.137   8.116
     DAL    CA 11406  12.896   3.246   7.950
     DAL    HA 11407  12.892   3.247   7.842
     DAL    CB 11408  13.041   3.211   7.986
     DAL   HB1 11409  13.102   3.234   7.896
     DAL   HB2 11410  13.091   3.278   8.059
     DAL   HB3 11411  13.048   3.103   8.009
     DAL     C 11412  12.868   3.390   8.008
     DAL   OC1 11413  12.829   3.476   7.922
     DAL   OC2 11414  12.890   3.422   8.125
     NAG    C1 11415  12.725   4.399   6.282
     NAG    H1 11416  12.791   4.431   6.365
     NAG    C5 11417  12.633   4.235   6.433
     NAG    H5 11418  12.710   4.275   6.502
     NAG    O5 11419  12.609   4.342   6.342
     NAG    C2 11420  12.803   4.291   6.208
     NAG    H2 11421  12.745   4.259   6.119
     NAG    NC 11422  12.941   4.326   6.168
     NAG    HN 11423  13.013   4.286   6.224
     NAG    CM 11424  12.982   4.410   6.072
     NAG    OM 11425  12.904   4.470   5.998
     NAG    CC 11426  13.130   4.421   6.063
     NAG   HC1 11427  13.174   4.320   6.047
     NAG   HC2 11428  13.167   4.479   5.975
     NAG   HC3 11429  13.157   4.473   6.158
     NAG    C3 11430  12.828   4.170   6.296
     NAG    H3 11431  12.894   4.195   6.381
     NAG    O3 11432  12.889   4.063   6.219
     NAG   HO3 11433  12.901   3.992   6.283
     NAG    C4 11434  12.695   4.127   6.357
     NAG    H4 11435  12.635   4.095   6.269
     NAG    O4 11436  12.713   4.013   6.441
     NAG    C6 11437  12.503   4.197   6.512
     NAG   H61 11438  12.462   4.294   6.547
     NAG   H62 11439  12.529   4.141   6.604
     NAG    O6 11440  12.403   4.133   6.428
     NAG   HO6 11441  12.314   4.147   6.462
     NAM    C1 11442  12.602   4.917   6.192
     NAM    H1 11443  12.599   4.901   6.082
     NAM    C5 11444  12.753   4.738   6.214
     NAM    H5 11445  12.763   4.737   6.104
     NAM    O5 11446  12.720   4.865   6.262
     NAM    C2 11447  12.487   4.832   6.247
     NAM    H2 11448  12.493   4.851   6.357
     NAM    NC 11449  12.372   4.857   6.171
     NAM    HN 11450  12.360   4.812   6.083
     NAM    CM 11451  12.251   4.907   6.207
     NAM    OM 11452  12.222   4.930   6.322
     NAM    CC 11453  12.145   4.937   6.100
     NAM   HC1 11454  12.061   5.005   6.127
     NAM   HC2 11455  12.184   4.984   6.007
     NAM   HC3 11456  12.096   4.842   6.067
     NAM    C3 11457  12.512   4.679   6.223
     NAM    H3 11458  12.513   4.667   6.113
     NAM    O3 11459  12.399   4.599   6.270
     NAM    CA 11460  12.380   4.590   6.408
     NAM    HA 11461  12.434   4.500   6.434
     NAM     C 11462  12.235   4.551   6.403
     NAM     O 11463  12.209   4.433   6.410
     NAM    CB 11464  12.396   4.691   6.526
     NAM   HB1 11465  12.499   4.733   6.529
     NAM   HB2 11466  12.394   4.630   6.619
     NAM   HB3 11467  12.336   4.783   6.542
     NAM    C4 11468  12.649   4.637   6.265
     NAM    H4 11469  12.663   4.625   6.375
     NAM    O4 11470  12.689   4.511   6.201
     NAM    C6 11471  12.895   4.712   6.265
     NAM   H61 11472  12.923   4.611   6.229
     NAM   H62 11473  12.882   4.723   6.375
     NAM    O6 11474  12.990   4.805   6.209
     NAM   HO6 11475  12.984   4.814   6.113
     ALA     N 11476  12.138   4.646   6.395
     ALA    HN 11477  12.170   4.741   6.391
     ALA    CA 11478  11.994   4.626   6.380
     ALA    HA 11479  11.980   4.530   6.331
     ALA    CB 11480  11.932   4.740   6.298
     ALA   HB1 11481  11.968   4.735   6.192
     ALA   HB2 11482  11.951   4.841   6.340
     ALA   HB3 11483  11.822   4.736   6.293
     ALA     C 11484  11.927   4.637   6.512
     ALA     O 11485  11.968   4.704   6.606
     GLN     N 11486  11.811   4.574   6.533
     GLN    HN 11487  11.774   4.569   6.625
     GLN    CA 11488  11.757   4.463   6.454
     GLN    HA 11489  11.799   4.464   6.354
     GLN    CD 11490  11.803   4.325   6.517
     GLN   OE1 11491  11.908   4.311   6.582
     GLN   NE2 11492  11.716   4.222   6.498
     GLN  HE21 11493  11.746   4.131   6.527
     GLN  HE22 11494  11.628   4.233   6.451
     GLN    CB 11495  11.603   4.467   6.437
     GLN   HB1 11496  11.549   4.478   6.533
     GLN   HB2 11497  11.567   4.376   6.385
     GLN    CG 11498  11.581   4.583   6.342
     GLN   HG1 11499  11.620   4.554   6.242
     GLN   HG2 11500  11.631   4.674   6.381
     GLN     C 11501  11.438   4.619   6.310
     GLN     O 11502  11.379   4.613   6.201
     LYS     N 11503  11.361   4.669   6.408
     LYS    HN 11504  11.262   4.678   6.396
     LYS    CA 11505  11.393   4.744   6.531
     LYS    HA 11506  11.498   4.730   6.555
     LYS    CB 11507  11.306   4.693   6.650
     LYS   HB1 11508  11.323   4.756   6.740
     LYS   HB2 11509  11.200   4.708   6.619
     LYS    CG 11510  11.324   4.543   6.693
     LYS   HG1 11511  11.295   4.473   6.612
     LYS   HG2 11512  11.425   4.520   6.735
     LYS    CD 11513  11.221   4.513   6.798
     LYS   HD1 11514  11.124   4.546   6.756
     LYS   HD2 11515  11.212   4.402   6.806
     LYS    CE 11516  11.254   4.555   6.938
     LYS   HE1 11517  11.292   4.659   6.943
     LYS   HE2 11518  11.157   4.539   6.991
     LYS    NZ 11519  11.360   4.474   7.005
     LYS   HZ1 11520  11.344   4.373   6.988
     LYS   HZ2 11521  11.354   4.495   7.106
     LYS   HZ3 11522  11.450   4.513   6.970
     LYS     C 11523  11.369   4.890   6.508
     LYS     O 11524  11.294   4.932   6.418
     DAL     N 11525  11.411   4.979   6.592
     DAL    HN 11526  11.376   5.072   6.588
     DAL    CA 11527  11.510   4.965   6.698
     DAL    HA 11528  11.476   4.886   6.763
     DAL    CB 11529  11.513   5.098   6.781
     DAL   HB1 11530  11.580   5.172   6.731
     DAL   HB2 11531  11.410   5.131   6.806
     DAL   HB3 11532  11.568   5.080   6.875
     DAL     C 11533  11.651   4.941   6.647
     DAL     O 11534  11.685   4.961   6.527
     DAL     N 11535  11.734   4.867   6.728
     DAL    HN 11536  11.810   4.836   6.672
     DAL    CA 11537  11.717   4.823   6.863
     DAL    HA 11538  11.647   4.881   6.922
     DAL    CB 11539  11.854   4.844   6.930
     DAL   HB1 11540  11.895   4.947   6.924
     DAL   HB2 11541  11.853   4.822   7.039
     DAL   HB3 11542  11.923   4.781   6.870
     DAL     C 11543  11.676   4.679   6.864
     DAL   OC1 11544  11.571   4.652   6.935
     DAL   OC2 11545  11.747   4.583   6.805
     NAG    C1 11546  12.730   5.426   6.180
     NAG    H1 11547  12.706   5.460   6.283
     NAG    C5 11548  12.544   5.276   6.191
     NAG    H5 11549  12.546   5.304   6.299
     NAG    O5 11550  12.604   5.384   6.116
     NAG    C2 11551  12.833   5.316   6.180
     NAG    H2 11552  12.861   5.297   6.074
     NAG    NC 11553  12.966   5.353   6.220
     NAG    HN 11554  13.045   5.329   6.164
     NAG    CM 11555  12.988   5.381   6.350
     NAG    OM 11556  12.918   5.345   6.444
     NAG    CC 11557  13.117   5.460   6.380
     NAG   HC1 11558  13.114   5.561   6.334
     NAG   HC2 11559  13.132   5.473   6.489
     NAG   HC3 11560  13.196   5.398   6.332
     NAG    C3 11561  12.778   5.185   6.237
     NAG    H3 11562  12.766   5.186   6.347
     NAG    O3 11563  12.861   5.075   6.204
     NAG   HO3 11564  12.824   4.999   6.249
     NAG    C4 11565  12.637   5.161   6.178
     NAG    H4 11566  12.647   5.141   6.069
     NAG    O4 11567  12.561   5.046   6.223
     NAG    C6 11568  12.407   5.252   6.142
     NAG   H61 11569  12.350   5.346   6.151
     NAG   H62 11570  12.354   5.172   6.197
     NAG    O6 11571  12.414   5.222   6.000
     NAG   HO6 11572  12.339   5.249   5.946
     NAM    C1 11573  12.719   5.932   6.076
     NAM    H1 11574  12.821   5.944   6.035
     NAM    C5 11575  12.778   5.756   6.213
     NAM    H5 11576  12.881   5.770   6.172
     NAM    O5 11577  12.712   5.882   6.209
     NAM    C2 11578  12.626   5.850   5.984
     NAM    H2 11579  12.525   5.847   6.031
     NAM    NC 11580  12.611   5.884   5.838
     NAM    HN 11581  12.680   5.840   5.781
     NAM    CM 11582  12.491   5.919   5.784
     NAM    OM 11583  12.388   5.918   5.853
     NAM    CC 11584  12.513   5.979   5.651
     NAM   HC1 11585  12.619   5.981   5.620
     NAM   HC2 11586  12.464   5.910   5.578
     NAM   HC3 11587  12.473   6.082   5.648
     NAM    C3 11588  12.688   5.713   5.981
     NAM    H3 11589  12.792   5.731   5.948
     NAM    O3 11590  12.633   5.619   5.887
     NAM    CA 11591  12.509   5.556   5.901
     NAM    HA 11592  12.556   5.467   5.939
     NAM     C 11593  12.456   5.533   5.755
     NAM     O 11594  12.385   5.613   5.693
     NAM    CB 11595  12.400   5.613   5.988
     NAM   HB1 11596  12.428   5.617   6.096
     NAM   HB2 11597  12.309   5.551   5.982
     NAM   HB3 11598  12.369   5.713   5.952
     NAM    C4 11599  12.706   5.653   6.120
     NAM    H4 11600  12.609   5.630   6.170
     NAM    O4 11601  12.783   5.534   6.114
     NAM    C6 11602  12.795   5.727   6.364
     NAM   H61 11603  12.824   5.821   6.416
     NAM   H62 11604  12.868   5.647   6.386
     NAM    O6 11605  12.668   5.684   6.417
     NAM   HO6 11606  12.602   5.754   6.417
     ALA     N 11607  12.499   5.421   5.699
     ALA    HN 11608  12.551   5.345   5.737
     ALA    CA 11609  12.495   5.383   5.557
     ALA    HA 11610  12.472   5.474   5.502
     ALA    CB 11611  12.398   5.266   5.521
     ALA   HB1 11612  12.412   5.168   5.570
     ALA   HB2 11613  12.400   5.254   5.411
     ALA   HB3 11614  12.296   5.301   5.547
     ALA     C 11615  12.638   5.359   5.521
     ALA     O 11616  12.715   5.297   5.597
     GLN     N 11617  12.694   5.399   5.402
     GLN    HN 11618  12.788   5.369   5.388
     GLN    CA 11619  12.642   5.461   5.283
     GLN    HA 11620  12.725   5.451   5.215
     GLN    CD 11621  12.521   5.383   5.208
     GLN   OE1 11622  12.405   5.423   5.200
     GLN   NE2 11623  12.557   5.266   5.160
     GLN  HE21 11624  12.478   5.221   5.119
     GLN  HE22 11625  12.652   5.236   5.160
     GLN    CB 11626  12.607   5.612   5.291
     GLN   HB1 11627  12.528   5.622   5.367
     GLN   HB2 11628  12.560   5.655   5.200
     GLN    CG 11629  12.735   5.702   5.312
     GLN   HG1 11630  12.822   5.664   5.254
     GLN   HG2 11631  12.767   5.686   5.418
     GLN     C 11632  12.703   5.841   5.296
     GLN     O 11633  12.694   5.914   5.389
     LYS     N 11634  12.694   5.902   5.175
     LYS    HN 11635  12.672   5.999   5.182
     LYS    CA 11636  12.738   5.855   5.052
     LYS    HA 11637  12.810   5.776   5.069
     LYS    CB 11638  12.807   5.959   4.968
     LYS   HB1 11639  12.826   5.924   4.864
     LYS   HB2 11640  12.726   6.035   4.962
     LYS    CG 11641  12.940   6.005   5.019
     LYS   HG1 11642  12.976   6.088   4.954
     LYS   HG2 11643  12.938   6.053   5.119
     LYS    CD 11644  13.044   5.895   5.036
     LYS   HD1 11645  13.010   5.808   5.098
     LYS   HD2 11646  13.060   5.854   4.934
     LYS    CE 11647  13.186   5.947   5.086
     LYS   HE1 11648  13.228   6.008   5.003
     LYS   HE2 11649  13.180   6.003   5.182
     LYS    NZ 11650  13.275   5.836   5.115
     LYS   HZ1 11651  13.339   5.864   5.191
     LYS   HZ2 11652  13.327   5.808   5.029
     LYS   HZ3 11653  13.226   5.755   5.158
     LYS     C 11654  12.629   5.775   4.978
     LYS     O 11655  12.508   5.797   4.989
     DAL     N 11656  12.660   5.679   4.889
     DAL    HN 11657  12.571   5.650   4.853
     DAL    CA 11658  12.786   5.615   4.854
     DAL    HA 11659  12.862   5.681   4.892
     DAL    CB 11660  12.798   5.596   4.702
     DAL   HB1 11661  12.892   5.550   4.664
     DAL   HB2 11662  12.720   5.529   4.662
     DAL   HB3 11663  12.793   5.695   4.651
     DAL     C 11664  12.798   5.482   4.931
     DAL     O 11665  12.708   5.400   4.925
     NAG    C1 11666  12.784   6.434   6.197
     NAG    H1 11667  12.685   6.476   6.167
     NAG    C5 11668  12.749   6.263   6.033
     NAG    H5 11669  12.642   6.291   6.019
     NAG    O5 11670  12.834   6.370   6.082
     NAG    C2 11671  12.767   6.334   6.306
     NAG    H2 11672  12.869   6.296   6.327
     NAG    NC 11673  12.686   6.406   6.399
     NAG    HN 11674  12.597   6.424   6.358
     NAG    CM 11675  12.719   6.440   6.528
     NAG    OM 11676  12.805   6.374   6.584
     NAG    CC 11677  12.650   6.560   6.590
     NAG   HC1 11678  12.720   6.646   6.598
     NAG   HC2 11679  12.569   6.587   6.519
     NAG   HC3 11680  12.601   6.544   6.688
     NAG    C3 11681  12.682   6.217   6.259
     NAG    H3 11682  12.583   6.258   6.232
     NAG    O3 11683  12.664   6.117   6.353
     NAG   HO3 11684  12.624   6.038   6.316
     NAG    C4 11685  12.742   6.158   6.139
     NAG    H4 11686  12.842   6.113   6.152
     NAG    O4 11687  12.657   6.059   6.078
     NAG    C6 11688  12.816   6.227   5.902
     NAG   H61 11689  12.779   6.133   5.855
     NAG   H62 11690  12.922   6.205   5.927
     NAG    O6 11691  12.806   6.326   5.804
     NAG   HO6 11692  12.859   6.402   5.827
     NAM    C1 11693  12.907   6.967   6.187
     NAM    H1 11694  12.914   6.966   6.298
     NAM    C5 11695  12.757   6.776   6.199
     NAM    H5 11696  12.765   6.778   6.309
     NAM    O5 11697  12.788   6.905   6.139
     NAM    C2 11698  13.021   6.885   6.133
     NAM    H2 11699  13.028   6.888   6.023
     NAM    NC 11700  13.144   6.927   6.200
     NAM    HN 11701  13.166   6.878   6.284
     NAM    CM 11702  13.242   7.010   6.160
     NAM    OM 11703  13.260   7.060   6.049
     NAM    CC 11704  13.340   7.042   6.268
     NAM   HC1 11705  13.401   6.951   6.286
     NAM   HC2 11706  13.412   7.123   6.242
     NAM   HC3 11707  13.300   7.060   6.370
     NAM    C3 11708  12.998   6.734   6.175
     NAM    H3 11709  13.025   6.732   6.282
     NAM    O3 11710  13.102   6.654   6.125
     NAM    CA 11711  13.119   6.632   5.982
     NAM    HA 11712  13.051   6.677   5.912
     NAM     C 11713  13.119   6.483   5.965
     NAM     O 11714  13.065   6.430   5.873
     NAM    CB 11715  13.267   6.677   5.971
     NAM   HB1 11716  13.281   6.785   5.988
     NAM   HB2 11717  13.306   6.645   5.871
     NAM   HB3 11718  13.331   6.625   6.045
     NAM    C4 11719  12.863   6.667   6.155
     NAM    H4 11720  12.846   6.640   6.048
     NAM    O4 11721  12.862   6.549   6.239
     NAM    C6 11722  12.612   6.745   6.174
     NAM   H61 11723  12.552   6.838   6.158
     NAM   H62 11724  12.562   6.687   6.254
     NAM    O6 11725  12.593   6.682   6.046
     NAM   HO6 11726  12.567   6.753   5.987
     ALA     N 11727  13.179   6.405   6.061
     ALA    HN 11728  13.222   6.444   6.142
     ALA    CA 11729  13.191   6.265   6.041
     ALA    HA 11730  13.104   6.220   5.995
     ALA    CB 11731  13.214   6.201   6.175
     ALA   HB1 11732  13.308   6.244   6.217
     ALA   HB2 11733  13.212   6.092   6.157
     ALA   HB3 11734  13.141   6.231   6.253
     ALA     C 11735  13.308   6.246   5.942
     ALA     O 11736  13.379   6.342   5.919
     GLN     N 11737  13.329   6.129   5.877
     GLN    HN 11738  13.405   6.139   5.813
     GLN    CA 11739  13.264   5.999   5.888
     GLN    HA 11740  13.247   5.975   5.992
     GLN    CD 11741  13.127   6.002   5.824
     GLN   OE1 11742  13.027   5.959   5.882
     GLN   NE2 11743  13.122   6.049   5.696
     GLN  HE21 11744  13.034   6.064   5.651
     GLN  HE22 11745  13.207   6.064   5.645
     GLN    CB 11746  13.343   5.882   5.830
     GLN   HB1 11747  13.349   5.892   5.720
     GLN   HB2 11748  13.299   5.782   5.852
     GLN    CG 11749   0.036   5.875   5.884
     GLN   HG1 11750   0.022   5.900   5.992
     GLN   HG2 11751   0.105   5.955   5.852
     GLN     C 11752   0.088   5.734   5.876
     GLN     O 11753   0.093   5.664   5.975
     LYS     N 11754   0.128   5.683   5.756
     LYS    HN 11755   0.153   5.587   5.757
     LYS    CA 11756   0.162   5.767   5.635
     LYS    HA 11757   0.087   5.843   5.622
     LYS    CB 11758   0.171   5.679   5.511
     LYS   HB1 11759   0.177   5.748   5.425
     LYS   HB2 11760   0.261   5.616   5.503
     LYS    CG 11761   0.051   5.580   5.492
     LYS   HG1 11762   0.069   5.509   5.409
     LYS   HG2 11763   0.049   5.509   5.578
     LYS    CD 11764  13.368   5.645   5.464
     LYS   HD1 11765  13.372   5.738   5.525
     LYS   HD2 11766  13.358   5.674   5.357
     LYS    CE 11767  13.258   5.552   5.507
     LYS   HE1 11768  13.285   5.447   5.486
     LYS   HE2 11769  13.241   5.562   5.617
     LYS    NZ 11770  13.130   5.584   5.450
     LYS   HZ1 11771  13.121   5.527   5.364
     LYS     C 11772   0.302   5.829   5.651
     LYS     O 11773   0.379   5.774   5.736
     GLY     C 11774   0.899   5.558   6.739
     GLY     O 11775   0.998   5.507   6.790
     GLY    CA 11776   0.902   5.633   6.606
     GLY   HA1 11777   0.991   5.604   6.549
     GLY   HA2 11778   0.903   5.741   6.624
     GLY     N 11779   0.784   5.600   6.528
     GLY    HN 11780   0.718   5.535   6.568
     GLY     C 11781   0.761   5.473   6.492
     GLY     O 11782   0.843   5.390   6.529
     GLY    CA 11783   0.637   5.439   6.410
     GLY   HA1 11784   0.614   5.332   6.421
     GLY   HA2 11785   0.654   5.462   6.305
     GLY     N 11786   0.524   5.516   6.457
     GLY    HN 11787   0.539   5.580   6.535
     GLY     C 11788   0.482   5.503   6.584
     GLY     O 11789   0.545   5.425   6.655
     GLY    CA 11790   0.363   5.584   6.633
     GLY   HA1 11791   0.365   5.591   6.743
     GLY   HA2 11792   0.270   5.537   6.601
     GLY     N 11793   0.368   5.718   6.579
     GLY    HN 11794   0.446   5.742   6.518
     GLY     C 11795   0.473   5.797   6.605
     GLY     O 11796   0.561   5.749   6.676
     GLY    CA 11797   0.479   5.939   6.548
     GLY   HA1 11798   0.582   5.974   6.548
     GLY   HA2 11799   0.417   6.006   6.608
     GLY     N 11800   0.429   5.939   6.412
     GLY    HN 11801   0.399   5.850   6.373
     GLY     C 11802   0.490   5.864   6.318
     GLY     O 11803   0.587   5.798   6.355
     GLY    CA 11804   0.438   5.864   6.175
     GLY   HA1 11805   0.473   5.774   6.123
     GLY   HA2 11806   0.473   5.953   6.123
     GLY     N 11807   0.293   5.864   6.175
     GLY    HN 11808   0.242   5.872   6.087
     DAL     N 11809   0.344   5.927   5.571
     DAL    HN 11810   0.436   5.958   5.593
     DAL    CA 11811   0.277   6.025   5.491
     DAL    HA 11812   0.218   5.965   5.423
     DAL    CB 11813   0.379   6.113   5.409
     DAL   HB1 11814   0.451   6.045   5.359
     DAL   HB2 11815   0.331   6.184   5.338
     DAL   HB3 11816   0.437   6.179   5.477
     DAL     C 11817   0.190   6.112   5.584
     DAL     O 11818   0.212   6.128   5.705
     DAL     N 11819   0.086   6.173   5.531
     DAL    HN 11820   0.033   6.238   5.585
     DAL    CA 11821   0.037   6.162   5.401
     DAL    HA 11822   0.121   6.142   5.337
     DAL    CB 11823  13.421   6.293   5.359
     DAL   HB1 11824   0.032   6.382   5.366
     DAL   HB2 11825  13.368   6.284   5.263
     DAL   HB3 11826  13.340   6.303   5.434
     DAL     C 11827  13.396   6.037   5.397
     DAL   OC1 11828  13.425   5.937   5.327
     DAL   OC2 11829  13.289   6.041   5.466
     NAG    C1 11830  12.746   7.466   6.213
     NAG    H1 11831  12.827   7.499   6.144
     NAG    C5 11832  12.905   7.296   6.263
     NAG    H5 11833  12.969   7.342   6.185
     NAG    O5 11834  12.817   7.400   6.315
     NAG    C2 11835  12.656   7.362   6.152
     NAG    H2 11836  12.591   7.317   6.231
     NAG    NC 11837  12.599   7.432   6.035
     NAG    HN 11838  12.666   7.450   5.963
     NAG    CM 11839  12.468   7.438   6.012
     NAG    OM 11840  12.376   7.388   6.080
     NAG    CC 11841  12.434   7.519   5.884
     NAG   HC1 11842  12.512   7.593   5.857
     NAG   HC2 11843  12.431   7.440   5.805
     NAG   HC3 11844  12.336   7.570   5.895
     NAG    C3 11845  12.736   7.245   6.096
     NAG    H3 11846  12.791   7.290   6.011
     NAG    O3 11847  12.652   7.145   6.038
     NAG   HO3 11848  12.579   7.123   6.097
     NAG    C4 11849  12.825   7.181   6.200
     NAG    H4 11850  12.761   7.132   6.277
     NAG    O4 11851  12.914   7.093   6.131
     NAG    C6 11852  13.006   7.245   6.366
     NAG   H61 11853  13.063   7.330   6.410
     NAG   H62 11854  13.078   7.176   6.317
     NAG    O6 11855  12.944   7.180   6.471
     NAG   HO6 11856  12.898   7.249   6.520
     NAM    C1 11857  12.735   7.985   6.339
     NAM    H1 11858  12.626   8.001   6.327
     NAM    C5 11859  12.712   7.797   6.191
     NAM    H5 11860  12.602   7.803   6.178
     NAM    O5 11861  12.777   7.918   6.217
     NAM    C2 11862  12.759   7.884   6.454
     NAM    H2 11863  12.869   7.869   6.459
     NAM    NC 11864  12.710   7.946   6.572
     NAM    HN 11865  12.613   7.954   6.592
     NAM    CM 11866  12.774   7.984   6.684
     NAM    OM 11867  12.892   7.964   6.687
     NAM    CC 11868  12.702   8.054   6.791
     NAM   HC1 11869  12.782   8.096   6.856
     NAM   HC2 11870  12.648   8.142   6.750
     NAM   HC3 11871  12.635   7.983   6.843
     NAM    C3 11872  12.677   7.760   6.425
     NAM    H3 11873  12.571   7.788   6.405
     NAM    O3 11874  12.658   7.664   6.534
     NAM    CA 11875  12.775   7.597   6.594
     NAM    HA 11876  12.876   7.620   6.563
     NAM     C 11877  12.742   7.441   6.604
     NAM     O 11878  12.826   7.359   6.623
     NAM    CB 11879  12.752   7.651   6.734
     NAM   HB1 11880  12.770   7.760   6.747
     NAM   HB2 11881  12.830   7.614   6.804
     NAM   HB3 11882  12.653   7.619   6.775
     NAM    C4 11883  12.734   7.690   6.301
     NAM    H4 11884  12.843   7.673   6.320
     NAM    O4 11885  12.665   7.575   6.261
     NAM    C6 11886  12.774   7.753   6.057
     NAM   H61 11887  12.770   7.837   5.984
     NAM   H62 11888  12.722   7.661   6.023
     NAM    O6 11889  12.917   7.720   6.078
     NAM   HO6 11890  12.965   7.794   6.117
     ALA     N 11891  12.615   7.404   6.592
     ALA    HN 11892  12.552   7.479   6.575
     ALA    CA 11893  12.560   7.275   6.638
     ALA    HA 11894  12.594   7.204   6.565
     ALA    CB 11895  12.412   7.277   6.622
     ALA   HB1 11896  12.352   7.195   6.666
     ALA   HB2 11897  12.390   7.293   6.514
     ALA   HB3 11898  12.373   7.372   6.665
     ALA     C 11899  12.585   7.243   6.788
     ALA     O 11900  12.594   7.339   6.864
     GLN     N 11901  12.604   7.115   6.835
     GLN    HN 11902  12.605   7.118   6.934
     GLN    CA 11903  12.619   6.991   6.750
     GLN    HA 11904  12.567   7.013   6.657
     GLN    CD 11905  12.766   6.949   6.729
     GLN   OE1 11906  12.841   6.942   6.825
     GLN   NE2 11907  12.806   6.921   6.603
     GLN  HE21 11908  12.901   6.895   6.590
     GLN  HE22 11909  12.743   6.927   6.525
     GLN    CB 11910  12.537   6.874   6.811
     GLN   HB1 11911  12.586   6.835   6.902
     GLN   HB2 11912  12.539   6.791   6.737
     GLN    CG 11913  12.383   6.903   6.837
     GLN   HG1 11914  12.335   6.915   6.737
     GLN   HG2 11915  12.381   7.001   6.889
     GLN     C 11916  12.313   6.808   6.924
     GLN     O 11917  12.350   6.797   7.043
     LYS     N 11918  12.216   6.727   6.877
     LYS    HN 11919  12.164   6.674   6.944
     LYS    CA 11920  12.169   6.702   6.741
     LYS    HA 11921  12.156   6.796   6.690
     LYS    CB 11922  12.027   6.631   6.739
     LYS   HB1 11923  11.993   6.611   6.635
     LYS   HB2 11924  12.052   6.541   6.799
     LYS    CG 11925  11.911   6.705   6.811
     LYS   HG1 11926  11.955   6.733   6.909
     LYS   HG2 11927  11.870   6.799   6.769
     LYS    CD 11928  11.802   6.597   6.824
     LYS   HD1 11929  11.730   6.595   6.738
     LYS   HD2 11930  11.843   6.494   6.832
     LYS    CE 11931  11.714   6.625   6.944
     LYS   HE1 11932  11.641   6.708   6.934
     LYS   HE2 11933  11.648   6.537   6.958
     LYS    NZ 11934  11.797   6.640   7.063
     LYS   HZ1 11935  11.865   6.561   7.073
     LYS   HZ2 11936  11.742   6.632   7.151
     LYS   HZ3 11937  11.854   6.726   7.073
     LYS     C 11938  12.254   6.611   6.651
     LYS     O 11939  12.302   6.650   6.542
     DAL     N 11940  12.287   6.482   6.680
     DAL    HN 11941  12.347   6.437   6.615
     DAL    CA 11942  12.267   6.398   6.798
     DAL    HA 11943  12.245   6.465   6.880
     DAL    CB 11944  12.397   6.321   6.815
     DAL   HB1 11945  12.484   6.389   6.817
     DAL   HB2 11946  12.398   6.250   6.901
     DAL   HB3 11947  12.409   6.249   6.732
     DAL     C 11948  12.154   6.291   6.787
     DAL     O 11949  12.100   6.261   6.682
     NAG    C1 11950  12.742   8.519   6.342
     NAG    H1 11951  12.829   8.533   6.275
     NAG    C5 11952  12.836   8.323   6.442
     NAG    H5 11953  12.918   8.335   6.368
     NAG    O5 11954  12.771   8.453   6.466
     NAG    C2 11955  12.633   8.430   6.273
     NAG    H2 11956  12.547   8.428   6.342
     NAG    NC 11957  12.602   8.501   6.147
     NAG    HN 11958  12.674   8.534   6.086
     NAG    CM 11959  12.477   8.535   6.104
     NAG    OM 11960  12.368   8.513   6.161
     NAG    CC 11961  12.464   8.595   5.960
     NAG   HC1 11962  12.570   8.611   5.934
     NAG   HC2 11963  12.429   8.512   5.895
     NAG   HC3 11964  12.389   8.676   5.949
     NAG    C3 11965  12.681   8.292   6.246
     NAG    H3 11966  12.775   8.308   6.188
     NAG    O3 11967  12.586   8.206   6.182
     NAG   HO3 11968  12.611   8.197   6.090
     NAG    C4 11969  12.733   8.226   6.377
     NAG    H4 11970  12.648   8.222   6.448
     NAG    O4 11971  12.804   8.102   6.367
     NAG    C6 11972  12.889   8.266   6.568
     NAG   H61 11973  12.932   8.165   6.551
     NAG   H62 11974  12.816   8.259   6.651
     NAG    O6 11975  12.994   8.350   6.622
     NAG   HO6 11976  13.069   8.357   6.562
     NAM    C1 11977  12.741   9.033   6.470
     NAM    H1 11978  12.634   9.035   6.440
     NAM    C5 11979  12.770   8.856   6.313
     NAM    H5 11980  12.667   8.875   6.276
     NAM    O5 11981  12.820   8.984   6.357
     NAM    C2 11982  12.759   8.938   6.586
     NAM    H2 11983  12.869   8.932   6.601
     NAM    NC 11984  12.681   8.983   6.702
     NAM    HN 11985  12.585   8.958   6.692
     NAM    CM 11986  12.700   9.064   6.809
     NAM    OM 11987  12.801   9.134   6.818
     NAM    CC 11988  12.605   9.081   6.919
     NAM   HC1 11989  12.647   9.145   7.000
     NAM   HC2 11990  12.501   9.111   6.892
     NAM   HC3 11991  12.574   8.984   6.964
     NAM    C3 11992  12.706   8.802   6.552
     NAM    H3 11993  12.598   8.821   6.531
     NAM    O3 11994  12.703   8.711   6.665
     NAM    CA 11995  12.827   8.649   6.708
     NAM    HA 11996  12.849   8.547   6.677
     NAM     C 11997  12.780   8.621   6.860
     NAM     O 11998  12.735   8.509   6.892
     NAM    CB 11999  12.961   8.721   6.714
     NAM   HB1 12000  13.012   8.741   6.617
     NAM   HB2 12001  13.042   8.679   6.777
     NAM   HB3 12002  12.955   8.824   6.756
     NAM    C4 12003  12.769   8.743   6.423
     NAM    H4 12004  12.867   8.705   6.458
     NAM    O4 12005  12.678   8.639   6.369
     NAM    C6 12006  12.840   8.815   6.192
     NAM   H61 12007  12.846   8.904   6.127
     NAM   H62 12008  12.795   8.730   6.136
     NAM    O6 12009  12.978   8.782   6.213
     NAM   HO6 12010  13.028   8.860   6.239
     ALA     N 12011  12.787   8.716   6.958
     ALA    HN 12012  12.810   8.809   6.930
     ALA    CA 12013  12.775   8.691   7.100
     ALA    HA 12014  12.683   8.637   7.118
     ALA    CB 12015  12.771   8.821   7.174
     ALA   HB1 12016  12.751   8.814   7.283
     ALA   HB2 12017  12.692   8.888   7.136
     ALA   HB3 12018  12.864   8.881   7.171
     ALA     C 12019  12.889   8.598   7.150
     ALA     O 12020  12.987   8.573   7.083
     GLN     N 12021  12.871   8.517   7.252
     GLN    HN 12022  12.947   8.460   7.281
     GLN    CA 12023  12.749   8.516   7.335
     GLN    HA 12024  12.708   8.616   7.335
     GLN    CD 12025  12.649   8.412   7.279
     GLN   OE1 12026  12.682   8.303   7.240
     GLN   NE2 12027  12.519   8.458   7.274
     GLN  HE21 12028  12.445   8.396   7.246
     GLN  HE22 12029  12.504   8.553   7.299
     GLN    CB 12030  12.778   8.482   7.485
     GLN   HB1 12031  12.820   8.379   7.482
     GLN   HB2 12032  12.682   8.492   7.538
     GLN    CG 12033  12.880   8.590   7.547
     GLN   HG1 12034  12.827   8.684   7.574
     GLN   HG2 12035  12.952   8.622   7.469
     GLN     C 12036  12.945   8.548   7.673
     GLN     O 12037  13.045   8.476   7.673
     LYS     N 12038  12.895   8.583   7.795
     LYS    HN 12039  12.939   8.541   7.875
     LYS    CA 12040  12.790   8.676   7.831
     LYS    HA 12041  12.817   8.763   7.773
     LYS    CB 12042  12.809   8.728   7.974
     LYS   HB1 12043  12.718   8.777   8.015
     LYS   HB2 12044  12.821   8.643   8.044
     LYS    CG 12045  12.932   8.820   7.985
     LYS   HG1 12046  13.022   8.784   7.930
     LYS   HG2 12047  12.905   8.919   7.941
     LYS    CD 12048  12.966   8.841   8.135
     LYS   HD1 12049  12.971   8.741   8.183
     LYS   HD2 12050  13.069   8.884   8.140
     LYS    CE 12051  12.867   8.929   8.219
     LYS   HE1 12052  12.762   8.897   8.206
     LYS   HE2 12053  12.887   8.927   8.329
     LYS    NZ 12054  12.881   9.072   8.179
     LYS   HZ1 12055  12.892   9.083   8.076
     LYS   HZ2 12056  12.964   9.116   8.223
     LYS   HZ3 12057  12.806   9.130   8.221
     LYS     C 12058  12.650   8.642   7.797
     LYS     O 12059  12.620   8.525   7.768
     DAL     N 12060  12.551   8.737   7.790
     DAL    HN 12061  12.460   8.696   7.781
     DAL    CA 12062  12.540   8.878   7.775
     DAL    HA 12063  12.564   8.923   7.870
     DAL    CB 12064  12.395   8.909   7.741
     DAL   HB1 12065  12.371   9.017   7.748
     DAL   HB2 12066  12.353   8.879   7.643
     DAL   HB3 12067  12.328   8.862   7.817
     DAL     C 12068  12.623   8.932   7.658
     DAL     O 12069  12.657   8.866   7.560
     DAL     N 12070  12.669   9.060   7.664
     DAL    HN 12071  12.736   9.089   7.596
     DAL    CA 12072  12.652   9.161   7.759
     DAL    HA 12073  12.549   9.153   7.789
     DAL    CB 12074  12.673   9.295   7.684
     DAL   HB1 12075  12.623   9.382   7.732
     DAL   HB2 12076  12.780   9.312   7.664
     DAL   HB3 12077  12.616   9.277   7.590
     DAL     C 12078  12.743   9.153   7.883
     DAL   OC1 12079  12.680   9.167   7.994
     DAL   OC2 12080  12.866   9.129   7.884
     NAG    C1 12081  12.772   9.555   6.395
     NAG    H1 12082  12.833   9.588   6.482
     NAG    C5 12083  12.676   9.371   6.518
     NAG    H5 12084  12.745   9.397   6.601
     NAG    O5 12085  12.657   9.487   6.441
     NAG    C2 12086  12.832   9.452   6.300
     NAG    H2 12087  12.770   9.420   6.213
     NAG    NC 12088  12.959   9.506   6.252
     NAG    HN 12089  13.035   9.495   6.316
     NAG    CM 12090  13.000   9.541   6.131
     NAG    OM 12091  12.922   9.580   6.045
     NAG    CC 12092  13.152   9.525   6.113
     NAG   HC1 12093  13.198   9.622   6.086
     NAG   HC2 12094  13.206   9.497   6.206
     NAG   HC3 12095  13.167   9.447   6.036
     NAG    C3 12096  12.866   9.322   6.363
     NAG    H3 12097  12.942   9.330   6.444
     NAG    O3 12098  12.918   9.223   6.277
     NAG   HO3 12099  12.911   9.131   6.303
     NAG    C4 12100  12.746   9.264   6.429
     NAG    H4 12101  12.683   9.232   6.343
     NAG    O4 12102  12.788   9.153   6.516
     NAG    C6 12103  12.542   9.320   6.569
     NAG   H61 12104  12.491   9.399   6.628
     NAG   H62 12105  12.573   9.253   6.652
     NAG    O6 12106  12.454   9.267   6.471
     NAG   HO6 12107  12.422   9.336   6.411
     NAM    C1 12108  12.660  10.061   6.413
     NAM    H1 12109  12.683  10.080   6.306
     NAM    C5 12110  12.816   9.883   6.409
     NAM    H5 12111  12.838   9.902   6.302
     NAM    O5 12112  12.776  10.004   6.471
     NAM    C2 12113  12.544   9.971   6.438
     NAM    H2 12114  12.554   9.959   6.548
     NAM    NC 12115  12.423  10.019   6.383
     NAM    HN 12116  12.405  10.006   6.286
     NAM    CM 12117  12.315  10.055   6.468
     NAM    OM 12118  12.329  10.049   6.593
     NAM    CC 12119  12.181  10.094   6.409
     NAM   HC1 12120  12.137  10.173   6.472
     NAM   HC2 12121  12.200  10.140   6.309
     NAM   HC3 12122  12.114  10.006   6.401
     NAM    C3 12123  12.567   9.838   6.381
     NAM    H3 12124  12.591   9.862   6.276
     NAM    O3 12125  12.459   9.743   6.361
     NAM    CA 12126  12.379   9.692   6.467
     NAM    HA 12127  12.375   9.587   6.442
     NAM     C 12128  12.230   9.735   6.446
     NAM     O 12129  12.189   9.769   6.334
     NAM    CB 12130  12.423   9.716   6.614
     NAM   HB1 12131  12.527   9.684   6.635
     NAM   HB2 12132  12.364   9.664   6.693
     NAM   HB3 12133  12.407   9.823   6.639
     NAM    C4 12134  12.698   9.777   6.417
     NAM    H4 12135  12.692   9.736   6.520
     NAM    O4 12136  12.734   9.668   6.325
     NAM    C6 12137  12.945   9.833   6.467
     NAM   H61 12138  13.031   9.904   6.464
     NAM   H62 12139  12.964   9.744   6.404
     NAM    O6 12140  12.918   9.791   6.601
     NAM   HO6 12141  12.918   9.869   6.657
     ALA     N 12142  12.146   9.717   6.553
     ALA    HN 12143  12.193   9.691   6.636
     ALA    CA 12144  12.016   9.775   6.559
     ALA    HA 12145  11.991   9.816   6.462
     ALA    CB 12146  12.013   9.891   6.661
     ALA   HB1 12147  12.049   9.983   6.611
     ALA   HB2 12148  12.059   9.873   6.761
     ALA   HB3 12149  11.910   9.915   6.696
     ALA     C 12150  11.913   9.664   6.597
     ALA     O 12151  11.938   9.586   6.687
     GLN     N 12152  11.794   9.660   6.533
     GLN    HN 12153  11.727   9.606   6.584
     GLN    CA 12154  11.749   9.745   6.419
     GLN    HA 12155  11.644   9.723   6.410
     GLN    CD 12156  11.745   9.895   6.446
     GLN   OE1 12157  11.668   9.939   6.537
     GLN   NE2 12158  11.806   9.988   6.365
     GLN  HE21 12159  11.785  10.085   6.378
     GLN  HE22 12160  11.839   9.952   6.278
     GLN    CB 12161  11.815   9.712   6.283
     GLN   HB1 12162  11.917   9.758   6.285
     GLN   HB2 12163  11.752   9.766   6.209
     GLN    CG 12164  11.801   9.562   6.245
     GLN   HG1 12165  11.693   9.542   6.260
     GLN   HG2 12166  11.849   9.487   6.313
     GLN     C 12167  11.833   9.534   6.100
     GLN     O 12168  11.740   9.519   6.022
     LYS     N 12169  11.960   9.512   6.058
     LYS    HN 12170  11.970   9.490   5.961
     LYS    CA 12171  12.079   9.520   6.137
     LYS    HA 12172  12.066   9.585   6.223
     LYS    CB 12173  12.190   9.586   6.051
     LYS   HB1 12174  12.198   9.524   5.959
     LYS   HB2 12175  12.175   9.694   6.029
     LYS    CG 12176  12.329   9.564   6.111
     LYS   HG1 12177  12.336   9.647   6.185
     LYS   HG2 12178  12.339   9.466   6.162
     LYS    CD 12179  12.447   9.585   6.016
     LYS   HD1 12180  12.538   9.541   6.063
     LYS   HD2 12181  12.421   9.521   5.929
     LYS    CE 12182  12.461   9.728   5.957
     LYS   HE1 12183  12.364   9.764   5.918
     LYS   HE2 12184  12.497   9.790   6.041
     LYS    NZ 12185  12.561   9.718   5.851
     LYS   HZ1 12186  12.576   9.810   5.805
     LYS   HZ2 12187  12.539   9.654   5.772
     LYS   HZ3 12188  12.649   9.685   5.895
     LYS     C 12189  12.115   9.392   6.218
     LYS     O 12190  12.143   9.412   6.334
     DAL     N 12191  12.131   9.272   6.162
     DAL    HN 12192  12.144   9.194   6.222
     DAL    CA 12193  12.141   9.228   6.020
     DAL    HA 12194  12.062   9.277   5.964
     DAL    CB 12195  12.115   9.071   6.002
     DAL   HB1 12196  12.011   9.056   6.036
     DAL   HB2 12197  12.132   9.036   5.898
     DAL   HB3 12198  12.194   9.017   6.059
     DAL     C 12199  12.274   9.256   5.964
     DAL     O 12200  12.378   9.247   6.034
     DAL     N 12201  12.287   9.291   5.834
     DAL    HN 12202  12.376   9.328   5.809
     DAL    CA 12203  12.186   9.300   5.733
     DAL    HA 12204  12.106   9.232   5.756
     DAL    CB 12205  12.242   9.254   5.596
     DAL   HB1 12206  12.163   9.254   5.518
     DAL   HB2 12207  12.317   9.326   5.554
     DAL   HB3 12208  12.283   9.151   5.596
     DAL     C 12209  12.129   9.441   5.732
     DAL   OC1 12210  12.204   9.541   5.702
     DAL   OC2 12211  12.014   9.461   5.780
     NAG    C1 12212  12.692  10.590   6.461
     NAG    H1 12213  12.617  10.589   6.544
     NAG    C5 12214  12.584  10.397   6.374
     NAG    H5 12215  12.497  10.408   6.443
     NAG    O5 12216  12.645  10.523   6.346
     NAG    C2 12217  12.807  10.497   6.503
     NAG    H2 12218  12.876  10.484   6.417
     NAG    NC 12219  12.891  10.542   6.612
     NAG    HN 12220  12.850  10.538   6.703
     NAG    CM 12221  13.011  10.606   6.592
     NAG    OM 12222  13.077  10.628   6.494
     NAG    CC 12223  13.073  10.672   6.714
     NAG   HC1 12224  13.161  10.733   6.687
     NAG   HC2 12225  13.000  10.731   6.773
     NAG   HC3 12226  13.112  10.591   6.780
     NAG    C3 12227  12.770  10.356   6.544
     NAG    H3 12228  12.707  10.372   6.634
     NAG    O3 12229  12.881  10.267   6.580
     NAG   HO3 12230  12.851  10.176   6.587
     NAG    C4 12231  12.686  10.296   6.434
     NAG    H4 12232  12.751  10.271   6.347
     NAG    O4 12233  12.621  10.178   6.479
     NAG    C6 12234  12.529  10.354   6.245
     NAG   H61 12235  12.454  10.427   6.208
     NAG   H62 12236  12.466  10.265   6.266
     NAG    O6 12237  12.626  10.341   6.137
     NAG   HO6 12238  12.637  10.250   6.111
     NAM    C1 12239  12.617  11.106   6.348
     NAM    H1 12240  12.695  11.100   6.270
     NAM    C5 12241  12.732  10.934   6.472
     NAM    H5 12242  12.806  10.942   6.389
     NAM    O5 12243  12.669  11.065   6.470
     NAM    C2 12244  12.511  11.005   6.315
     NAM    H2 12245  12.432  11.008   6.393
     NAM    NC 12246  12.458  11.033   6.182
     NAM    HN 12247  12.513  11.000   6.106
     NAM    CM 12248  12.329  11.068   6.148
     NAM    OM 12249  12.233  11.066   6.222
     NAM    CC 12250  12.311  11.083   5.998
     NAM   HC1 12251  12.410  11.085   5.947
     NAM   HC2 12252  12.238  11.005   5.970
     NAM   HC3 12253  12.273  11.186   5.979
     NAM    C3 12254  12.570  10.861   6.300
     NAM    H3 12255  12.655  10.861   6.228
     NAM    O3 12256  12.481  10.755   6.254
     NAM    CA 12257  12.358  10.719   6.308
     NAM    HA 12258  12.382  10.623   6.352
     NAM     C 12259  12.277  10.690   6.186
     NAM     O 12260  12.326  10.642   6.087
     NAM    CB 12261  12.283  10.793   6.412
     NAM   HB1 12262  12.348  10.812   6.500
     NAM   HB2 12263  12.202  10.730   6.455
     NAM   HB3 12264  12.251  10.893   6.377
     NAM    C4 12265  12.643  10.824   6.432
     NAM    H4 12266  12.563  10.812   6.508
     NAM    O4 12267  12.733  10.716   6.429
     NAM    C6 12268  12.800  10.912   6.600
     NAM   H61 12269  12.865  10.822   6.592
     NAM   H62 12270  12.727  10.903   6.683
     NAM    O6 12271  12.887  11.020   6.632
     NAM   HO6 12272  12.839  11.090   6.677
     ALA     N 12273  12.141  10.707   6.197
     ALA    HN 12274  12.099  10.749   6.277
     ALA    CA 12275  12.042  10.689   6.096
     ALA    HA 12276  12.088  10.680   5.999
     ALA    CB 12277  11.950  10.812   6.079
     ALA   HB1 12278  12.010  10.897   6.040
     ALA   HB2 12279  11.916  10.860   6.173
     ALA   HB3 12280  11.869  10.792   6.006
     ALA     C 12281  11.952  10.571   6.130
     ALA     O 12282  11.928  10.540   6.250
     GLN     N 12283  11.893  10.496   6.039
     GLN    HN 12284  11.826  10.428   6.068
     GLN    CA 12285  11.915  10.490   5.897
     GLN    HA 12286  11.838  10.420   5.868
     GLN    CD 12287  11.893  10.631   5.819
     GLN   OE1 12288  11.994  10.685   5.772
     GLN   NE2 12289  11.770  10.675   5.791
     GLN  HE21 12290  11.768  10.759   5.738
     GLN  HE22 12291  11.689  10.629   5.829
     GLN    CB 12292  12.058  10.433   5.853
     GLN   HB1 12293  12.134  10.507   5.884
     GLN   HB2 12294  12.067  10.432   5.743
     GLN    CG 12295  12.080  10.286   5.906
     GLN   HG1 12296  12.013  10.204   5.869
     GLN   HG2 12297  12.077  10.281   6.017
     GLN     C 12298  12.222  10.242   5.872
     GLN     O 12299  12.309  10.268   5.947
     LYS     N 12300  12.247  10.166   5.764
     LYS    HN 12301  12.332  10.116   5.748
     LYS    CA 12302  12.154  10.135   5.662
     LYS    HA 12303  12.057  10.108   5.704
     LYS    CB 12304  12.198  10.004   5.602
     LYS   HB1 12305  12.131   9.968   5.522
     LYS   HB2 12306  12.297  10.010   5.553
     LYS    CG 12307  12.201   9.877   5.703
     LYS   HG1 12308  12.237   9.788   5.646
     LYS   HG2 12309  12.268   9.908   5.785
     LYS    CD 12310  12.062   9.849   5.770
     LYS   HD1 12311  12.066   9.774   5.851
     LYS   HD2 12312  12.033   9.945   5.817
     LYS    CE 12313  11.947   9.804   5.676
     LYS   HE1 12314  11.859   9.800   5.743
     LYS   HE2 12315  11.918   9.887   5.608
     LYS    NZ 12316  11.972   9.673   5.604
     LYS   HZ1 12317  12.037   9.685   5.524
     LYS     C 12318  12.136  10.235   5.547
     LYS     O 12319  12.024  10.244   5.503
     GLY     C 12320  13.115  10.162   6.711
     GLY     O 12321  13.214  10.111   6.762
     GLY    CA 12322  13.118  10.237   6.578
     GLY   HA1 12323  13.207  10.208   6.521
     GLY   HA2 12324  13.119  10.345   6.596
     GLY     N 12325  13.000  10.204   6.500
     GLY    HN 12326  12.934  10.139   6.540
     GLY     C 12327  12.977  10.077   6.464
     GLY     O 12328  13.059   9.994   6.501
     GLY    CA 12329  12.853  10.043   6.382
     GLY   HA1 12330  12.830   9.936   6.393
     GLY   HA2 12331  12.870  10.066   6.277
     GLY     N 12332  12.740  10.120   6.429
     GLY    HN 12333  12.755  10.184   6.507
     GLY     C 12334  12.698  10.107   6.556
     GLY     O 12335  12.761  10.029   6.627
     GLY    CA 12336  12.579  10.188   6.605
     GLY   HA1 12337  12.581  10.195   6.715
     GLY   HA2 12338  12.486  10.141   6.573
     GLY     N 12339  12.584  10.322   6.551
     GLY    HN 12340  12.662  10.346   6.490
     GLY     C 12341  12.689  10.401   6.577
     GLY     O 12342  12.777  10.353   6.648
     GLY    CA 12343  12.695  10.543   6.520
     GLY   HA1 12344  12.798  10.578   6.520
     GLY   HA2 12345  12.633  10.610   6.580
     GLY     N 12346  12.645  10.543   6.384
     GLY    HN 12347  12.615  10.454   6.345
     GLY     C 12348  12.706  10.468   6.290
     GLY     O 12349  12.803  10.402   6.327
     GLY    CA 12350  12.654  10.468   6.147
     GLY   HA1 12351  12.689  10.378   6.095
     GLY   HA2 12352  12.689  10.557   6.095
     GLY     N 12353  12.509  10.468   6.147
     GLY    HN 12354  12.458  10.476   6.059
     DAL     N 12355  12.238  10.315   5.506
     DAL    HN 12356  12.217  10.385   5.439
     DAL    CA 12357  12.378  10.318   5.524
     DAL    HA 12358  12.389  10.316   5.631
     DAL    CB 12359  12.442  10.446   5.468
     DAL   HB1 12360  12.417  10.457   5.361
     DAL   HB2 12361  12.395  10.532   5.522
     DAL   HB3 12362  12.552  10.442   5.486
     DAL     C 12363  12.447  10.192   5.470
     DAL     O 12364  12.408  10.140   5.366
     DAL     N 12365  12.555  10.135   5.527
     DAL    HN 12366  12.606  10.068   5.474
     DAL    CA 12367  12.610  10.147   5.662
     DAL    HA 12368  12.560  10.223   5.720
     DAL    CB 12369  12.765  10.172   5.673
     DAL   HB1 12370  12.798  10.254   5.605
     DAL   HB2 12371  12.786  10.199   5.778
     DAL   HB3 12372  12.815  10.083   5.629
     DAL     C 12373  12.592  10.006   5.733
     DAL   OC1 12374  12.644   9.904   5.685
     DAL   OC2 12375  12.526  10.007   5.841
     NAG    C1 12376  12.678  11.620   6.349
     NAG    H1 12377  12.583  11.646   6.399
     NAG    C5 12378  12.584  11.435   6.234
     NAG    H5 12379  12.485  11.461   6.276
     NAG    O5 12380  12.664  11.553   6.218
     NAG    C2 12381  12.764  11.530   6.449
     NAG    H2 12382  12.858  11.510   6.394
     NAG    NC 12383  12.786  11.589   6.583
     NAG    HN 12384  12.715  11.635   6.635
     NAG    CM 12385  12.903  11.597   6.649
     NAG    OM 12386  13.020  11.579   6.608
     NAG    CC 12387  12.881  11.635   6.794
     NAG   HC1 12388  12.814  11.558   6.838
     NAG   HC2 12389  12.979  11.636   6.847
     NAG   HC3 12390  12.847  11.741   6.793
     NAG    C3 12391  12.687  11.400   6.467
     NAG    H3 12392  12.591  11.407   6.523
     NAG    O3 12393  12.772  11.313   6.544
     NAG   HO3 12394  12.708  11.255   6.587
     NAG    C4 12395  12.660  11.337   6.333
     NAG    H4 12396  12.755  11.301   6.288
     NAG    O4 12397  12.562  11.236   6.348
     NAG    C6 12398  12.559  11.383   6.093
     NAG   H61 12399  12.531  11.276   6.104
     NAG   H62 12400  12.647  11.397   6.027
     NAG    O6 12401  12.457  11.462   6.041
     NAG   HO6 12402  12.494  11.547   6.017
     NAM    C1 12403  12.709  12.132   6.220
     NAM    H1 12404  12.791  12.157   6.291
     NAM    C5 12405  12.634  11.956   6.359
     NAM    H5 12406  12.723  11.981   6.422
     NAM    O5 12407  12.597  12.077   6.298
     NAM    C2 12408  12.750  12.033   6.117
     NAM    H2 12409  12.665  12.005   6.052
     NAM    NC 12410  12.869  12.086   6.052
     NAM    HN 12411  12.960  12.052   6.074
     NAM    CM 12412  12.867  12.141   5.925
     NAM    OM 12413  12.765  12.136   5.858
     NAM    CC 12414  12.995  12.211   5.892
     NAM   HC1 12415  13.059  12.144   5.831
     NAM   HC2 12416  12.965  12.298   5.829
     NAM   HC3 12417  13.054  12.244   5.980
     NAM    C3 12418  12.799  11.903   6.193
     NAM    H3 12419  12.875  11.937   6.266
     NAM    O3 12420  12.874  11.804   6.118
     NAM    CA 12421  12.816  11.731   6.016
     NAM    HA 12422  12.712  11.704   6.026
     NAM     C 12423  12.874  11.593   6.003
     NAM     O 12424  12.824  11.514   5.925
     NAM    CB 12425  12.835  11.801   5.873
     NAM   HB1 12426  12.941  11.829   5.852
     NAM   HB2 12427  12.779  11.896   5.880
     NAM   HB3 12428  12.796  11.740   5.788
     NAM    C4 12429  12.682  11.846   6.267
     NAM    H4 12430  12.608  11.810   6.193
     NAM    O4 12431  12.741  11.742   6.342
     NAM    C6 12432  12.524  11.921   6.457
     NAM   H61 12433  12.495  12.007   6.521
     NAM   H62 12434  12.552  11.833   6.519
     NAM    O6 12435  12.406  11.879   6.392
     NAM   HO6 12436  12.338  11.924   6.443
     ALA     N 12437  12.979  11.556   6.082
     ALA    HN 12438  13.000  11.617   6.159
     ALA    CA 12439  13.041  11.423   6.087
     ALA    HA 12440  12.960  11.354   6.110
     ALA    CB 12441  13.149  11.408   6.194
     ALA   HB1 12442  13.205  11.312   6.207
     ALA   HB2 12443  13.111  11.437   6.295
     ALA   HB3 12444  13.233  11.478   6.174
     ALA     C 12445  13.092  11.386   5.953
     ALA     O 12446  13.163  11.468   5.891
     GLN     N 12447  13.072  11.261   5.899
     GLN    HN 12448  13.102  11.259   5.804
     GLN    CA 12449  12.985  11.155   5.945
     GLN    HA 12450  12.992  11.073   5.875
     GLN    CD 12451  13.021  11.097   6.085
     GLN   OE1 12452  12.933  11.104   6.176
     GLN   NE2 12453  13.151  11.054   6.101
     GLN  HE21 12454  13.196  11.047   6.190
     GLN  HE22 12455  13.203  11.031   6.018
     GLN    CB 12456  12.836  11.203   5.935
     GLN   HB1 12457  12.810  11.289   5.999
     GLN   HB2 12458  12.779  11.122   5.986
     GLN    CG 12459  12.797  11.224   5.790
     GLN   HG1 12460  12.840  11.141   5.730
     GLN   HG2 12461  12.848  11.314   5.748
     GLN     C 12462  12.652  11.238   5.765
     GLN     O 12463  12.603  11.349   5.761
     LYS     N 12464  12.585  11.128   5.732
     LYS    HN 12465  12.486  11.131   5.740
     LYS    CA 12466  12.635  10.989   5.724
     LYS    HA 12467  12.722  10.988   5.660
     LYS    CB 12468  12.523  10.911   5.631
     LYS   HB1 12469  12.559  10.806   5.630
     LYS   HB2 12470  12.423  10.914   5.679
     LYS    CG 12471  12.511  10.978   5.488
     LYS   HG1 12472  12.458  11.074   5.504
     LYS   HG2 12473  12.610  11.006   5.447
     LYS    CD 12474  12.422  10.896   5.389
     LYS   HD1 12475  12.431  10.943   5.289
     LYS   HD2 12476  12.472  10.796   5.386
     LYS    CE 12477  12.271  10.881   5.426
     LYS   HE1 12478  12.266  10.790   5.490
     LYS   HE2 12479  12.231  10.970   5.479
     LYS    NZ 12480  12.167  10.856   5.321
     LYS   HZ1 12481  12.194  10.765   5.279
     LYS   HZ2 12482  12.152  10.917   5.238
     LYS   HZ3 12483  12.076  10.841   5.370
     LYS     C 12484  12.664  10.910   5.851
     LYS     O 12485  12.620  10.951   5.961
     DAL     N 12486  12.736  10.797   5.854
     DAL    HN 12487  12.739  10.751   5.943
     DAL    CA 12488  12.822  10.735   5.755
     DAL    HA 12489  12.788  10.771   5.660
     DAL    CB 12490  12.821  10.581   5.782
     DAL   HB1 12491  12.827  10.555   5.889
     DAL   HB2 12492  12.730  10.527   5.748
     DAL   HB3 12493  12.905  10.527   5.734
     DAL     C 12494  12.967  10.787   5.794
     DAL     O 12495  12.989  10.830   5.907
     DAL     N 12496  13.063  10.791   5.702
     DAL    HN 12497  13.147  10.840   5.724
     DAL    CA 12498  13.047  10.751   5.567
     DAL    HA 12499  12.997  10.656   5.556
     DAL    CB 12500  13.188  10.744   5.508
     DAL   HB1 12501  13.245  10.661   5.556
     DAL   HB2 12502  13.181  10.724   5.399
     DAL   HB3 12503  13.238  10.843   5.517
     DAL     C 12504  12.961  10.856   5.486
     DAL   OC1 12505  12.926  10.820   5.372
     DAL   OC2 12506  12.927  10.963   5.530
     NAG    C1 12507  12.618  12.649   6.252
     NAG    H1 12508  12.588  12.665   6.146
     NAG    C5 12509  12.767  12.476   6.185
     NAG    H5 12510  12.738  12.479   6.078
     NAG    O5 12511  12.751  12.600   6.259
     NAG    C2 12512  12.526  12.550   6.322
     NAG    H2 12513  12.574  12.525   6.419
     NAG    NC 12514  12.399  12.607   6.327
     NAG    HN 12515  12.328  12.591   6.259
     NAG    CM 12516  12.353  12.677   6.431
     NAG    OM 12517  12.413  12.703   6.532
     NAG    CC 12518  12.202  12.708   6.417
     NAG   HC1 12519  12.189  12.759   6.319
     NAG   HC2 12520  12.141  12.617   6.434
     NAG   HC3 12521  12.178  12.776   6.503
     NAG    C3 12522  12.529  12.418   6.243
     NAG    H3 12523  12.498  12.455   6.143
     NAG    O3 12524  12.443  12.316   6.292
     NAG   HO3 12525  12.459  12.236   6.241
     NAG    C4 12526  12.669  12.366   6.240
     NAG    H4 12527  12.690  12.344   6.347
     NAG    O4 12528  12.676  12.248   6.151
     NAG    C6 12529  12.910  12.430   6.196
     NAG   H61 12530  12.983  12.508   6.165
     NAG   H62 12531  12.934  12.346   6.127
     NAG    O6 12532  12.943  12.389   6.329
     NAG   HO6 12533  12.948  12.462   6.392
     NAM    C1 12534  12.698  13.172   6.245
     NAM    H1 12535  12.638  13.174   6.338
     NAM    C5 12536  12.558  12.982   6.198
     NAM    H5 12537  12.502  13.018   6.287
     NAM    O5 12538  12.611  13.105   6.148
     NAM    C2 12539  12.828  13.094   6.257
     NAM    H2 12540  12.876  13.074   6.159
     NAM    NC 12541  12.918  13.137   6.357
     NAM    HN 12542  12.879  13.130   6.449
     NAM    CM 12543  13.045  13.177   6.358
     NAM    OM 12544  13.106  13.193   6.247
     NAM    CC 12545  13.120  13.185   6.490
     NAM   HC1 12546  13.125  13.291   6.524
     NAM   HC2 12547  13.065  13.125   6.566
     NAM   HC3 12548  13.220  13.148   6.460
     NAM    C3 12549  12.779  12.960   6.314
     NAM    H3 12550  12.734  12.987   6.412
     NAM    O3 12551  12.888  12.877   6.362
     NAM    CA 12552  12.983  12.815   6.278
     NAM    HA 12553  12.948  12.713   6.280
     NAM     C 12554  13.106  12.825   6.376
     NAM     O 12555  13.099  12.773   6.492
     NAM    CB 12556  13.026  12.846   6.130
     NAM   HB1 12557  12.936  12.868   6.069
     NAM   HB2 12558  13.089  12.766   6.086
     NAM   HB3 12559  13.070  12.948   6.119
     NAM    C4 12560  12.670  12.881   6.232
     NAM    H4 12561  12.707  12.841   6.135
     NAM    O4 12562  12.616  12.774   6.317
     NAM    C6 12563  12.465  12.932   6.092
     NAM   H61 12564  12.388  13.004   6.058
     NAM   H62 12565  12.403  12.856   6.145
     NAM    O6 12566  12.537  12.882   5.974
     NAM   HO6 12567  12.522  12.941   5.900
     ALA     N 12568  13.220  12.878   6.335
     ALA    HN 12569  13.238  12.912   6.243
     ALA    CA 12570  13.337  12.879   6.423
     ALA    HA 12571  13.310  12.914   6.522
     ALA    CB 12572  13.435  12.972   6.355
     ALA   HB1 12573  13.387  13.070   6.333
     ALA   HB2 12574   0.004  12.928   6.256
     ALA   HB3 12575   0.071  12.990   6.416
     ALA     C 12576  13.404  12.744   6.432
     ALA     O 12577  13.395  12.656   6.345
     GLN     N 12578   0.030  12.729   6.534
     GLN    HN 12579   0.081  12.647   6.509
     GLN    CA 12580   0.052  12.808   6.651
     GLN    HA 12581   0.073  12.911   6.626
     GLN    CD 12582  13.374  12.809   6.733
     GLN   OE1 12583  13.345  12.913   6.794
     GLN   NE2 12584  13.300  12.700   6.744
     GLN  HE21 12585  13.212  12.706   6.790
     GLN  HE22 12586  13.335  12.606   6.738
     GLN    CB 12587   0.167  12.759   6.746
     GLN   HB1 12588   0.131  12.666   6.794
     GLN   HB2 12589   0.169  12.835   6.828
     GLN    CG 12590   0.305  12.727   6.672
     GLN   HG1 12591   0.344  12.829   6.650
     GLN   HG2 12592   0.287  12.677   6.575
     GLN     C 12593   0.422  12.656   6.736
     GLN     O 12594   0.516  12.727   6.774
     LYS     N 12595   0.418  12.529   6.771
     LYS    HN 12596   0.502  12.483   6.798
     LYS    CA 12597   0.318  12.428   6.742
     LYS    HA 12598   0.223  12.466   6.708
     LYS    CB 12599   0.291  12.340   6.867
     LYS   HB1 12600   0.262  12.238   6.835
     LYS   HB2 12601   0.385  12.312   6.920
     LYS    CG 12602   0.211  12.412   6.979
     LYS   HG1 12603   0.266  12.508   6.992
     LYS   HG2 12604   0.112  12.438   6.937
     LYS    CD 12605   0.181  12.345   7.119
     LYS   HD1 12606   0.282  12.335   7.166
     LYS   HD2 12607   0.130  12.414   7.190
     LYS    CE 12608   0.093  12.226   7.104
     LYS   HE1 12609   0.143  12.144   7.049
     LYS   HE2 12610   0.076  12.182   7.205
     LYS    NZ 12611  13.412  12.253   7.061
     LYS   HZ1 12612  13.401  12.354   7.086
     LYS   HZ2 12613  13.342  12.189   7.103
     LYS   HZ3 12614  13.408  12.255   6.957
     LYS     C 12615   0.385  12.342   6.634
     LYS     O 12616   0.506  12.326   6.622
     DAL     N 12617   0.311  12.274   6.545
     DAL    HN 12618   0.372  12.223   6.485
     DAL    CA 12619   0.175  12.267   6.515
     DAL    HA 12620   0.137  12.228   6.608
     DAL    CB 12621   0.149  12.166   6.405
     DAL   HB1 12622   0.205  12.073   6.429
     DAL   HB2 12623   0.041  12.150   6.390
     DAL   HB3 12624   0.199  12.190   6.309
     DAL     C 12625   0.108  12.396   6.490
     DAL     O 12626   0.163  12.495   6.441
     DAL     N 12627  13.433  12.408   6.521
     DAL    HN 12628  13.389  12.494   6.497
     DAL    CA 12629  13.343  12.311   6.580
     DAL    HA 12630  13.334  12.217   6.527
     DAL    CB 12631  13.196  12.362   6.569
     DAL   HB1 12632  13.134  12.282   6.616
     DAL   HB2 12633  13.190  12.452   6.634
     DAL   HB3 12634  13.156  12.384   6.467
     DAL     C 12635  13.376  12.293   6.729
     DAL   OC1 12636  13.385  12.181   6.781
     DAL   OC2 12637  13.378  12.400   6.801
   13.491580000000001        13.491580000000001        12.597009999999999     
