;;
;; Charmm FF generated by Rakesh Vaiwala
;;
;;
;;
;; Corresponance:
;; multiscalesimu@gmail.com
;;
;; Charmm36 FF in GROMACS format
;;

[ defaults ]
;nbfunc comb-rule gen-pairs fudgeLJ fudgeQQ
1     2         yes     1.0     1.0


[ atomtypes ]
;name  at.num  mass charge  ptype  sigma(nm)        espilon(kJ/mol)
  CC3162     6    12.0110      0.000     A    3.56359487256E-01    1.338900E-01
    HCA1     1     1.0080      0.000     A    2.38760856462E-01    1.882800E-01
  CC3163     6    12.0110      0.000     A    3.56359487256E-01    1.338900E-01
  OC3C61     8    15.9994      0.000     A    2.93996576986E-01    4.184000E-01
  CC3161     6    12.0110      0.000     A    3.56359487256E-01    1.338900E-01
     NH1     7    14.0070      0.000     A    3.29632525712E-01    8.368000E-01
       H     1     1.0080      0.000     A    4.00013524450E-02    1.924600E-01
      CC     6    12.0110      0.000     A    3.56359487256E-01    2.928800E-01
       O     8    15.9990      0.000     A    3.02905564168E-01    5.020800E-01
     CT3     6    12.0110      0.000     A    3.63486677001E-01    3.263500E-01
     HA3     1     1.0080      0.000     A    2.38760856462E-01    1.004200E-01
   OC311     8    15.9994      0.000     A    3.14487247504E-01    8.037500E-01
    HCP1     1     1.0080      0.000     A    4.00013524450E-02    1.924600E-01
   OC301     8    15.9994      0.000     A    2.93996576986E-01    4.184000E-01
   CC321     6    12.0110      0.000     A    3.58141284692E-01    2.343000E-01
    HCA2     1     1.0080      0.000     A    2.38760856462E-01    1.464400E-01
     CT1     6    12.0110      0.000     A    3.56359487256E-01    1.338900E-01
     HB1     1     1.0080      0.000     A    2.35197261589E-01    9.205000E-02
       C     6    12.0110      0.000     A    3.56359487256E-01    4.602400E-01
     NH2     7    14.0070      0.000     A    3.29632525712E-01    8.368000E-01
     CT2     6    12.0110      0.000     A    3.58141284692E-01    2.343000E-01
     HA2     1     1.0080      0.000     A    2.38760856462E-01    1.422600E-01
     NH3     7    14.0070      0.000     A    3.29632525712E-01    8.368000E-01
      HC     1     1.0080      0.000     A    4.00013524450E-02    1.924600E-01
    CTD1     6    12.0110      0.000     A    3.56359487256E-01    1.338900E-01
      OC     8    15.9990      0.000     A    3.02905564168E-01    5.020800E-01
     HB2     1     1.0080      0.000     A    2.38760856462E-01    1.171500E-01
      OT     8    15.9994     -0.834     A    3.15057422683E-01    6.363864E-01
      HT     1     1.0080      0.417     A    4.00013524445E-02    1.924640E-01
     POT    19    39.0983      1.000     A    3.14264522824E-01    3.640100E-01
     SOD    11    22.9898      1.000     A    2.51367073323E-01    1.962300E-01
     CLA    17    35.4500     -1.000     A    4.04468018036E-01    6.276000E-01

[ pairtypes ]
;i  j   func sigma1-4(nm) epsilon1-4(kJ/mol)
 CC3162    HCA1     1  2.88651184677E-01  8.87560431750E-02
 CC3162       H     1  1.89271432669E-01  8.97368027070E-02
 CC3162      CC     1  3.47450500075E-01  1.10698234855E-01
 CC3162   OC311     1  3.26514380198E-01  1.83381431383E-01
 CC3162  CC3161     1  3.38541512893E-01  4.18400000000E-02
 CC3162   CC321     1  3.38541512893E-01  4.18400000000E-02
 CC3162  CC3163     1  3.38541512893E-01  4.18400000000E-02
   HCA1  CC3163     1  2.88651184677E-01  8.87560431750E-02
   HCA1     NH1     1  2.57469729543E-01  3.96929091904E-01
   HCA1  CC3161     1  2.88651184677E-01  8.87560431750E-02
 CC3163  CC3161     1  3.38541512893E-01  4.18400000000E-02
 CC3163   OC311     1  3.26514380198E-01  1.83381431383E-01
 CC3163    HCP1     1  1.89271432669E-01  8.97368027070E-02
 CC3163   OC301     1  3.16269044940E-01  1.32309697301E-01
 OC3C61     NH1     1  2.85087589805E-01  5.91706954497E-01
 OC3C61  CC3161     1  3.16269044940E-01  1.32309697301E-01
 CC3161       O     1  2.93996576986E-01  1.44938011577E-01
 CC3161     CT3     1  3.38541512893E-01  4.18400000000E-02
 CC3161    HCP1     1  1.89271432669E-01  8.97368027070E-02
 CC3161   OC301     1  3.16269044940E-01  1.32309697301E-01
 CC3161  CC3161     1  3.38541512893E-01  4.18400000000E-02
    NH1     HA3     1  2.57469729543E-01  2.89876023155E-01
    NH1   OC311     1  2.95332925064E-01  8.20106692766E-01
    NH1  CC3161     1  3.07360057758E-01  1.87114168357E-01
    NH1   OC301     1  2.85087589805E-01  5.91706954497E-01
      H       O     1  1.44726496762E-01  3.10857403193E-01
      H     CT3     1  1.89271432669E-01  8.97368027070E-02
      H  CC3161     1  1.89271432669E-01  8.97368027070E-02
     CC  CC3161     1  3.47450500075E-01  1.10698234855E-01
      O     HA3     1  2.44106248770E-01  2.24537002029E-01
 CC3161   CC321     1  3.38541512893E-01  4.18400000000E-02
 CC3161    HCA2     1  2.88651184677E-01  7.82754725310E-02
 CC3161   OC311     1  3.26514380198E-01  1.83381431383E-01
   HCA1   CC321     1  2.88651184677E-01  8.87560431750E-02
  OC301   CC321     1  3.16269044940E-01  1.32309697301E-01
 CC3161     CT1     1  3.38541512893E-01  4.18400000000E-02
 CC3161     HB1     1  2.86869387241E-01  6.20587489400E-02
 CC3161       C     1  3.47450500075E-01  1.38767581228E-01
   HCA1     CT1     1  2.88651184677E-01  8.87560431750E-02
  OC311       O     1  2.81969444291E-01  6.35251912639E-01
    CT1       H     1  1.89271432669E-01  8.97368027070E-02
    CT1     CT1     1  3.38541512893E-01  4.18400000000E-02
    HB1       O     1  2.42324451334E-01  2.14977812437E-01
    HB1     NH1     1  2.55687932106E-01  2.77535162457E-01
      C     CT3     1  3.47450500075E-01  1.38767581228E-01
      O     CT3     1  2.93996576986E-01  1.44938011577E-01
      O     CT1     1  2.93996576986E-01  1.44938011577E-01
    CT3     NH1     1  3.07360057758E-01  1.87114168357E-01
    NH1       O     1  2.62815121851E-01  6.48182492821E-01
    NH1     NH1     1  2.76178602624E-01  8.36800000000E-01
      C     CT2     1  3.47450500075E-01  1.38767581228E-01
    NH1     NH2     1  3.02905564168E-01  8.36800000000E-01
    NH1     HA2     1  2.57469729543E-01  3.45021478752E-01
    NH1     CT2     1  3.07360057758E-01  1.87114168357E-01
      H     CT2     1  1.89271432669E-01  8.97368027070E-02
    CT1     HA2     1  2.88651184677E-01  7.71491480190E-02
    CT1       C     1  3.47450500075E-01  1.38767581228E-01
    HB1     CT2     1  2.86869387241E-01  6.20587489400E-02
     CC     CT2     1  3.47450500075E-01  1.10698234855E-01
      O     CT2     1  2.93996576986E-01  1.44938011577E-01
    NH2     CT2     1  3.34087019303E-01  1.87114168357E-01
    CT2     CT1     1  3.38541512893E-01  4.18400000000E-02
    HA2       O     1  2.44106248770E-01  2.67252488258E-01
    CT1    CTD1     1  3.38541512893E-01  4.18400000000E-02
    CT2     HA2     1  2.88651184677E-01  7.71491480190E-02
    CT2     CT2     1  3.38541512893E-01  4.18400000000E-02
    CT2     NH3     1  3.34087019303E-01  1.87114168357E-01
    CT2      HC     1  1.89271432669E-01  8.97368027070E-02
      O    CTD1     1  2.93996576986E-01  1.44938011577E-01
   CTD1       H     1  1.89271432669E-01  8.97368027070E-02
   CTD1    CTD1     1  3.38541512893E-01  4.18400000000E-02
    NH1      OC     1  2.89542083396E-01  6.48182492821E-01
    CT3      OC     1  3.20723538531E-01  1.44938011577E-01
    NH1     HB2     1  2.57469729543E-01  3.13101890125E-01
      O     HB2     1  2.44106248770E-01  2.42527681224E-01
    CT2    CTD1     1  3.38541512893E-01  4.18400000000E-02
    NH1     NH3     1  3.02905564168E-01  8.36800000000E-01
      O     NH3     1  2.89542083396E-01  6.48182492821E-01

[ bondtypes ]
;i   j    func    b0(nm)    Kb(kJ/mol nm2)
 CC3162    HCA1     1  1.111000E-01  2.585712E+05
 CC3162  OC3C61     1  1.425000E-01  3.012480E+05
 CC3162  CC3161     1  1.480000E-01  1.861880E+05
 CC3162   OC301     1  1.395000E-01  3.012480E+05
 CC3163    HCA1     1  1.111000E-01  2.585712E+05
 CC3163  OC3C61     1  1.425000E-01  3.012480E+05
 CC3163  CC3161     1  1.500000E-01  1.861880E+05
 CC3163   CC321     1  1.490000E-01  1.861880E+05
 CC3161    HCA1     1  1.111000E-01  2.585712E+05
 CC3161     NH1     1  1.421500E-01  2.399172E+05
 CC3161  CC3161     1  1.480000E-01  1.861880E+05
    NH1       H     1  9.970000E-02  3.681920E+05
    NH1      CC     1  1.370000E-01  3.563379E+05
     CC       O     1  1.230000E-01  5.439200E+05
     CC     CT3     1  1.522000E-01  1.673600E+05
    CT3     HA3     1  1.111000E-01  2.694496E+05
 CC3161   OC311     1  1.410000E-01  3.430880E+05
  OC311    HCP1     1  9.600000E-02  4.560560E+05
 CC3161   OC301     1  1.415000E-01  3.012480E+05
  CC321    HCA2     1  1.111000E-01  2.585712E+05
  CC321   OC311     1  1.420000E-01  3.581504E+05
  OC311     CT1     1  1.390000E-01  2.547286E+05
    CT1     HB1     1  1.080000E-01  2.761440E+05
    CT1       C     1  1.490000E-01  2.092000E+05
    CT1     CT3     1  1.538000E-01  1.861880E+05
      C       O     1  1.230000E-01  5.188160E+05
      C     NH1     1  1.345000E-01  3.096160E+05 ;;3.096160E+05
    NH1     CT1     1  1.430000E-01  2.677760E+05
    CT1      CC     1  1.522000E-01  1.673600E+05
    CT1     CT2     1  1.538000E-01  1.861880E+05
     CC     NH2     1  1.360000E-01  3.598240E+05
    NH2       H     1  1.000000E-01  4.016640E+05
    CT2     HA2     1  1.111000E-01  2.585712E+05
    CT2     CT2     1  1.530000E-01  1.861880E+05
    CT2       C     1  1.490000E-01  2.092000E+05
    CT2     NH3     1  1.480000E-01  1.673600E+05
    NH3      HC     1  1.040000E-01  3.372304E+05
    NH1    CTD1     1  1.430000E-01  2.677760E+05
   CTD1     HB1     1  1.080000E-01  2.761440E+05
   CTD1     CT3     1  1.538000E-01  1.861880E+05
   CTD1       C     1  1.490000E-01  2.092000E+05
   CTD1      CC     1  1.522000E-01  1.673600E+05
     CC      OC     1  1.260000E-01  4.393200E+05
    CT2     NH1     1  1.430000E-01  2.677760E+05
    CT2     HB2     1  1.080000E-01  2.761440E+05
     HT      HT     1  1.513900E-01  0.000000E+00
     HT      OT     1  9.572000E-02  3.765600E+05

[ angletypes ]
;i    j    k     func    theta(degree)       ktheta(kJ/mol rad2)  r13(nm)   kub(kJ/mol nm2)
 CC3162  OC3C61  CC3163     5  1.0970000E+02  7.9496000E+02  0.0000000E+00  0.0000000E+00
 CC3162  CC3161    HCA1     5  1.1010000E+02  2.8869600E+02  2.1790000E-01  1.8853100E+04
 CC3162  CC3161     NH1     5  1.0287100E+02  1.1913522E+02  0.0000000E+00  0.0000000E+00
 CC3162  CC3161  CC3161     5  1.1100000E+02  4.4643280E+02  2.5610000E-01  6.6944000E+03
 CC3162   OC301  CC3161     5  1.0920000E+02  4.1840000E+02  0.0000000E+00  0.0000000E+00
   HCA1  CC3162  OC3C61     5  1.0950000E+02  3.7656000E+02  0.0000000E+00  0.0000000E+00
   HCA1  CC3162  CC3161     5  1.1010000E+02  2.8869600E+02  2.1790000E-01  1.8853100E+04
   HCA1  CC3162   OC301     5  1.0950000E+02  5.0208000E+02  0.0000000E+00  0.0000000E+00
 CC3163  CC3161  CC3161     5  1.1100000E+02  4.4643280E+02  2.5610000E-01  6.6944000E+03
 CC3163  CC3161    HCA1     5  1.1010000E+02  2.8869600E+02  2.1790000E-01  1.8853100E+04
 CC3163  CC3161   OC301     5  1.0900000E+02  3.7656000E+02  0.0000000E+00  0.0000000E+00
 CC3163   CC321    HCA2     5  1.1010000E+02  2.7974224E+02  2.1790000E-01  1.8853100E+04
 CC3163   CC321   OC311     5  1.1010000E+02  6.3345760E+02  0.0000000E+00  0.0000000E+00
   HCA1  CC3163  OC3C61     5  1.0950000E+02  3.7656000E+02  0.0000000E+00  0.0000000E+00
   HCA1  CC3163  CC3161     5  1.1010000E+02  2.8869600E+02  2.1790000E-01  1.8853100E+04
   HCA1  CC3163   CC321     5  1.1010000E+02  2.8869600E+02  2.1790000E-01  1.8853100E+04
 OC3C61  CC3162  CC3161     5  1.0600000E+02  3.7656000E+02  0.0000000E+00  0.0000000E+00
 OC3C61  CC3162   OC301     5  1.1200000E+02  7.5312000E+02  0.0000000E+00  0.0000000E+00
 OC3C61  CC3163  CC3161     5  1.1000000E+02  3.7656000E+02  0.0000000E+00  0.0000000E+00
 OC3C61  CC3163   CC321     5  1.0900000E+02  3.7656000E+02  0.0000000E+00  0.0000000E+00
 CC3161  CC3162   OC301     5  1.0500000E+02  3.7656000E+02  0.0000000E+00  0.0000000E+00
 CC3161     NH1       H     5  1.1582400E+02  1.9083224E+02  0.0000000E+00  0.0000000E+00
 CC3161     NH1      CC     5  1.1971500E+02  1.5731840E+02  0.0000000E+00  0.0000000E+00
 CC3161  CC3161    HCA1     5  1.1010000E+02  2.8869600E+02  2.1790000E-01  1.8853100E+04
 CC3161  CC3161   OC311     5  1.1010000E+02  6.3345760E+02  0.0000000E+00  0.0000000E+00
 CC3161  CC3161  CC3161     5  1.1100000E+02  4.4643280E+02  2.5610000E-01  6.6944000E+03
   HCA1  CC3161     NH1     5  1.1194000E+02  4.8735232E+01  0.0000000E+00  0.0000000E+00
    NH1  CC3161  CC3161     5  1.0823700E+02  8.7403760E+01  0.0000000E+00  0.0000000E+00
    NH1      CC       O     5  1.2573500E+02  3.6329672E+02  0.0000000E+00  0.0000000E+00
    NH1      CC     CT3     5  1.1668100E+02  3.6749746E+02  0.0000000E+00  0.0000000E+00
      H     NH1      CC     5  1.2075100E+02  1.8383659E+02  0.0000000E+00  0.0000000E+00
     CC     CT3     HA3     5  1.0950000E+02  2.7614400E+02  2.1630000E-01  2.5104000E+04
      O      CC     CT3     5  1.2100000E+02  1.2552000E+02  2.4400000E-01  4.1840000E+04
    HA3     CT3     HA3     5  1.0840000E+02  2.9706400E+02  1.8020000E-01  4.5187200E+03
 CC3161   OC311    HCP1     5  1.0900000E+02  4.1840000E+02  0.0000000E+00  0.0000000E+00
 CC3161  CC3161   OC301     5  1.0900000E+02  3.7656000E+02  0.0000000E+00  0.0000000E+00
   HCA1  CC3161   OC311     5  1.0889000E+02  4.6024000E+02  0.0000000E+00  0.0000000E+00
 CC3161  CC3163   CC321     5  1.1350000E+02  4.8827280E+02  2.5610000E-01  9.3386900E+03
   HCA1  CC3161   OC301     5  1.0950000E+02  5.0208000E+02  0.0000000E+00  0.0000000E+00
  CC321   OC311    HCP1     5  1.0900000E+02  4.1840000E+02  0.0000000E+00  0.0000000E+00
   HCA2   CC321    HCA2     5  1.0900000E+02  2.9706400E+02  1.8020000E-01  4.5187200E+03
   HCA2   CC321   OC311     5  1.0889000E+02  4.6024000E+02  0.0000000E+00  0.0000000E+00
 CC3161   OC311     CT1     5  1.0985000E+02  5.9752541E+02  0.0000000E+00  0.0000000E+00
  OC311     CT1     HB1     5  9.9570000E+01  6.2642848E+01  0.0000000E+00  0.0000000E+00
  OC311     CT1       C     5  8.7280000E+01  1.0996389E+02  0.0000000E+00  0.0000000E+00
  OC311     CT1     CT3     5  1.0768000E+02  1.7744344E+02  0.0000000E+00  0.0000000E+00
    CT1       C       O     5  1.2100000E+02  6.6944000E+02  0.0000000E+00  0.0000000E+00
    CT1       C     NH1     5  1.1650000E+02  6.6944000E+02  0.0000000E+00  0.0000000E+00
    CT1     CT3     HA3     5  1.1010000E+02  2.7974224E+02  2.1790000E-01  1.8853100E+04
    HB1     CT1       C     5  1.0950000E+02  4.1840000E+02  0.0000000E+00  0.0000000E+00
    HB1     CT1     CT3     5  1.1100000E+02  2.9288000E+02  0.0000000E+00  0.0000000E+00
      C     CT1     CT3     5  1.0800000E+02  4.3513600E+02  0.0000000E+00  0.0000000E+00
      C     NH1       H     5  1.2300000E+02  2.8451200E+02  0.0000000E+00  0.0000000E+00
      C     NH1     CT1     5  1.2000000E+02  4.1840000E+02  0.0000000E+00  0.0000000E+00
      O       C     NH1     5  1.2250000E+02  6.6944000E+02  0.0000000E+00  0.0000000E+00
    NH1     CT1     HB1     5  1.0800000E+02  4.0166400E+02  0.0000000E+00  0.0000000E+00
    NH1     CT1     CT3     5  1.1350000E+02  5.8576000E+02  0.0000000E+00  0.0000000E+00
    NH1     CT1       C     5  1.0700000E+02  4.1840000E+02  0.0000000E+00  0.0000000E+00
      H     NH1     CT1     5  1.1700000E+02  2.9288000E+02  0.0000000E+00  0.0000000E+00
    NH1     CT1      CC     5  1.0700000E+02  4.1840000E+02  0.0000000E+00  0.0000000E+00
    NH1     CT1     CT2     5  1.1350000E+02  5.8576000E+02  0.0000000E+00  0.0000000E+00
    CT1      CC       O     5  1.2100000E+02  1.2552000E+02  2.4400000E-01  4.1840000E+04
    CT1      CC     NH2     5  1.1650000E+02  4.1840000E+02  2.4500000E-01  4.1840000E+04
    CT1     CT2     HA2     5  1.1010000E+02  2.2175200E+02  2.1790000E-01  1.8853100E+04
    CT1     CT2     CT2     5  1.1350000E+02  4.8827280E+02  2.5610000E-01  9.3386900E+03
    HB1     CT1      CC     5  1.0950000E+02  4.1840000E+02  0.0000000E+00  0.0000000E+00
    HB1     CT1     CT2     5  1.1100000E+02  2.9288000E+02  0.0000000E+00  0.0000000E+00
     CC     CT1     CT2     5  1.0800000E+02  4.3513600E+02  0.0000000E+00  0.0000000E+00
     CC     NH2       H     5  1.2000000E+02  4.1840000E+02  0.0000000E+00  0.0000000E+00
      O      CC     NH2     5  1.2250000E+02  6.2760000E+02  2.3700000E-01  4.1840000E+04
      H     NH2       H     5  1.2000000E+02  1.9246400E+02  0.0000000E+00  0.0000000E+00
    CT2     CT2     HA2     5  1.1010000E+02  2.2175200E+02  2.1790000E-01  1.8853100E+04
    CT2     CT2       C     5  1.0800000E+02  4.3513600E+02  0.0000000E+00  0.0000000E+00
    HA2     CT2     HA2     5  1.0900000E+02  2.9706400E+02  1.8020000E-01  4.5187200E+03
    CT2       C       O     5  1.2100000E+02  6.6944000E+02  0.0000000E+00  0.0000000E+00
    CT2       C     NH1     5  1.1650000E+02  6.6944000E+02  0.0000000E+00  0.0000000E+00
    HA2     CT2       C     5  1.0950000E+02  2.7614400E+02  2.1630000E-01  2.5104000E+04
    CT2     CT1       C     5  1.0800000E+02  4.3513600E+02  0.0000000E+00  0.0000000E+00
    CT2     CT2     CT2     5  1.1360000E+02  4.8827280E+02  2.5610000E-01  9.3386900E+03
    CT2     CT2     NH3     5  1.1000000E+02  5.6651360E+02  0.0000000E+00  0.0000000E+00
    CT2     NH3      HC     5  1.0950000E+02  2.5104000E+02  2.0740000E-01  1.6736000E+04
    HA2     CT2     NH3     5  1.0750000E+02  3.7656000E+02  2.1010000E-01  2.9288000E+04
     HC     NH3      HC     5  1.0950000E+02  3.6819200E+02  0.0000000E+00  0.0000000E+00
      C     NH1    CTD1     5  1.2000000E+02  4.1840000E+02  0.0000000E+00  0.0000000E+00
    NH1    CTD1     HB1     5  1.0800000E+02  4.0166400E+02  0.0000000E+00  0.0000000E+00
    NH1    CTD1     CT3     5  1.1350000E+02  5.8576000E+02  0.0000000E+00  0.0000000E+00
    NH1    CTD1       C     5  1.0700000E+02  4.1840000E+02  0.0000000E+00  0.0000000E+00
      H     NH1    CTD1     5  1.1700000E+02  2.9288000E+02  0.0000000E+00  0.0000000E+00
   CTD1     CT3     HA3     5  1.1010000E+02  2.7974224E+02  2.1790000E-01  1.8853100E+04
   CTD1       C       O     5  1.2100000E+02  6.6944000E+02  0.0000000E+00  0.0000000E+00
   CTD1       C     NH1     5  1.1650000E+02  6.6944000E+02  0.0000000E+00  0.0000000E+00
    HB1    CTD1     CT3     5  1.1100000E+02  2.9288000E+02  0.0000000E+00  0.0000000E+00
    HB1    CTD1       C     5  1.0950000E+02  4.1840000E+02  0.0000000E+00  0.0000000E+00
    CT3    CTD1       C     5  1.0800000E+02  4.3513600E+02  0.0000000E+00  0.0000000E+00
    NH1    CTD1      CC     5  1.0700000E+02  4.1840000E+02  0.0000000E+00  0.0000000E+00
   CTD1      CC      OC     5  1.1800000E+02  3.3472000E+02  2.3880000E-01  4.1840000E+04
    HB1    CTD1      CC     5  1.0950000E+02  4.1840000E+02  0.0000000E+00  0.0000000E+00
    CT3    CTD1      CC     5  1.0800000E+02  4.3513600E+02  0.0000000E+00  0.0000000E+00
     OC      CC      OC     5  1.2400000E+02  8.3680000E+02  2.2250000E-01  5.8576000E+04
    CT2     CT2     NH1     5  1.1350000E+02  5.8576000E+02  0.0000000E+00  0.0000000E+00
    CT2     NH1       H     5  1.1700000E+02  2.9288000E+02  0.0000000E+00  0.0000000E+00
    CT2     NH1       C     5  1.2000000E+02  4.1840000E+02  0.0000000E+00  0.0000000E+00
    HA2     CT2     NH1     5  1.0950000E+02  4.3095200E+02  0.0000000E+00  0.0000000E+00
      C     CT2     HB2     5  1.0950000E+02  4.1840000E+02  0.0000000E+00  0.0000000E+00
      C     CT2     NH1     5  1.0700000E+02  4.1840000E+02  0.0000000E+00  0.0000000E+00
    HB2     CT2     HB2     5  1.1500000E+02  3.0124800E+02  0.0000000E+00  0.0000000E+00
    HB2     CT2     NH1     5  1.0800000E+02  4.0166400E+02  0.0000000E+00  0.0000000E+00
      C     CT2     NH3     5  1.1000000E+02  3.6568160E+02  0.0000000E+00  0.0000000E+00
    HB2     CT2     NH3     5  1.0750000E+02  4.3095200E+02  0.0000000E+00  0.0000000E+00
     HT      OT      HT     5  1.0452000E+02  4.6024000E+02  0.0000000E+00  0.0000000E+00

[ dihedraltypes ]
;i    j     k     l     func   phi(degree)        kphi(kJ/mol)     mul
 CC3162  OC3C61  CC3163    HCA1     9  0.000000E+00  1.188256E+00     3
 CC3162  OC3C61  CC3163  CC3161     9  0.000000E+00  8.368000E-01     3
 CC3162  OC3C61  CC3163   CC321     9  0.000000E+00  8.368000E-01     3
 CC3162  CC3161     NH1       H     9  1.800000E+02  4.560600E+00     1
 CC3162  CC3161     NH1      CC     9  0.000000E+00  6.987300E+00     1
 CC3162  CC3161  CC3161    HCA1     9  0.000000E+00  8.368000E-01     3
 CC3162  CC3161  CC3161   OC311     9  0.000000E+00  8.368000E-01     3
 CC3162  CC3161  CC3161  CC3161     9  1.800000E+02  7.949600E-01     3
 CC3162   OC301  CC3161  CC3163     9  1.800000E+02  1.046000E+00     2
 CC3162   OC301  CC3161  CC3163     9  1.800000E+02  5.439200E-01     1
 CC3162   OC301  CC3161  CC3163     9  1.800000E+02  2.510400E-01     3
 CC3162   OC301  CC3161  CC3161     9  1.800000E+02  1.046000E+00     2
 CC3162   OC301  CC3161  CC3161     9  1.800000E+02  5.439200E-01     1
 CC3162   OC301  CC3161  CC3161     9  1.800000E+02  2.510400E-01     3
 CC3162   OC301  CC3161    HCA1     9  0.000000E+00  1.188256E+00     3
   HCA1  CC3162  OC3C61  CC3163     9  0.000000E+00  1.188256E+00     3
   HCA1  CC3162  CC3161    HCA1     9  0.000000E+00  8.368000E-01     3
   HCA1  CC3162  CC3161     NH1     9  0.000000E+00  1.255200E+01     3
   HCA1  CC3162  CC3161  CC3161     9  0.000000E+00  8.368000E-01     3
   HCA1  CC3162   OC301  CC3161     9  0.000000E+00  1.188256E+00     3
 CC3163  OC3C61  CC3162  CC3161     9  0.000000E+00  8.368000E-01     3
 CC3163  OC3C61  CC3162   OC301     9  1.800000E+02  1.715440E+00     1
 CC3163  OC3C61  CC3162   OC301     9  0.000000E+00  3.723760E+00     2
 CC3163  OC3C61  CC3162   OC301     9  0.000000E+00  2.092000E-01     3
 CC3163  CC3161  CC3161  CC3161     9  1.800000E+02  7.949600E-01     3
 CC3163  CC3161  CC3161    HCA1     9  0.000000E+00  8.368000E-01     3
 CC3163  CC3161  CC3161   OC311     9  0.000000E+00  8.368000E-01     3
 CC3163   CC321   OC311    HCP1     9  0.000000E+00  2.594080E+00     2
 CC3163   CC321   OC311    HCP1     9  0.000000E+00  1.213360E+00     1
 CC3163   CC321   OC311    HCP1     9  0.000000E+00  2.092000E-01     3
   HCA1  CC3163  CC3161  CC3161     9  0.000000E+00  8.368000E-01     3
   HCA1  CC3163  CC3161    HCA1     9  0.000000E+00  8.368000E-01     3
   HCA1  CC3163  CC3161   OC301     9  0.000000E+00  8.368000E-01     3
   HCA1  CC3163   CC321    HCA2     9  0.000000E+00  8.368000E-01     3
   HCA1  CC3163   CC321   OC311     9  0.000000E+00  5.857600E-01     3
 OC3C61  CC3162  CC3161    HCA1     9  0.000000E+00  8.368000E-01     3
 OC3C61  CC3162  CC3161     NH1     9  1.800000E+02  9.455800E+00     3
 OC3C61  CC3162  CC3161  CC3161     9  1.800000E+02  1.297040E+00     3
 OC3C61  CC3162   OC301  CC3161     9  1.800000E+02  5.313680E+00     3
 OC3C61  CC3162   OC301  CC3161     9  1.800000E+02  2.092000E-01     1
 OC3C61  CC3162   OC301  CC3161     9  0.000000E+00  3.807440E+00     2
 OC3C61  CC3163  CC3161  CC3161     9  1.800000E+02  1.297040E+00     3
 OC3C61  CC3163  CC3161    HCA1     9  0.000000E+00  8.368000E-01     3
 OC3C61  CC3163  CC3161   OC301     9  1.800000E+02  5.690240E+00     1
 OC3C61  CC3163  CC3161   OC301     9  0.000000E+00  6.694400E-01     2
 OC3C61  CC3163  CC3161   OC301     9  0.000000E+00  4.225840E+00     3
 OC3C61  CC3163   CC321    HCA2     9  0.000000E+00  8.368000E-01     3
 OC3C61  CC3163   CC321   OC311     9  1.800000E+02  3.138000E+00     1
 OC3C61  CC3163   CC321   OC311     9  0.000000E+00  7.112800E-01     2
 OC3C61  CC3163   CC321   OC311     9  1.800000E+02  1.046000E+00     3
 CC3161  CC3162   OC301  CC3161     9  1.800000E+02  2.761440E+00     2
 CC3161  CC3162   OC301  CC3161     9  1.800000E+02  1.715440E+00     1
 CC3161  CC3162   OC301  CC3161     9  0.000000E+00  6.694400E+00     3
 CC3161     NH1      CC       O     9  1.800000E+02  9.414000E+00     2
 CC3161     NH1      CC     CT3     9  0.000000E+00  1.046000E+00     2
 CC3161     NH1      CC     CT3     9  0.000000E+00  1.179900E+01     1
 CC3161  CC3161   OC311    HCP1     9  0.000000E+00  2.594080E+00     2
 CC3161  CC3161   OC311    HCP1     9  0.000000E+00  1.213360E+00     1
 CC3161  CC3161   OC311    HCP1     9  0.000000E+00  2.092000E-01     3
 CC3161  CC3161  CC3161    HCA1     9  0.000000E+00  8.368000E-01     3
 CC3161  CC3161  CC3161   OC301     9  0.000000E+00  8.368000E-01     3
   HCA1  CC3161  CC3162   OC301     9  0.000000E+00  8.368000E-01     3
   HCA1  CC3161     NH1       H     9  1.800000E+02  5.020800E+00     1
   HCA1  CC3161     NH1      CC     9  0.000000E+00  3.012500E+00     1
   HCA1  CC3161  CC3161    HCA1     9  0.000000E+00  8.368000E-01     3
   HCA1  CC3161  CC3161   OC311     9  0.000000E+00  5.857600E-01     3
    NH1  CC3161  CC3162   OC301     9  0.000000E+00  2.845100E+00     3
    NH1  CC3161  CC3161    HCA1     9  1.800000E+02  6.987300E+00     3
    NH1  CC3161  CC3161   OC311     9  0.000000E+00  3.096200E+00     3
    NH1  CC3161  CC3161  CC3161     9  0.000000E+00  5.020800E+00     3
    NH1      CC     CT3     HA3     9  0.000000E+00  0.000000E+00     3
      H     NH1  CC3161  CC3161     9  1.800000E+02  9.916100E+00     1
      H     NH1      CC       O     9  0.000000E+00  3.891100E+00     2
      H     NH1      CC     CT3     9  1.800000E+02  2.259400E+00     2
     CC     NH1  CC3161  CC3161     9  0.000000E+00  2.803300E+00     1
      O      CC     CT3     HA3     9  1.800000E+02  0.000000E+00     3
 CC3161  CC3161  CC3162   OC301     9  0.000000E+00  8.368000E-01     3
 CC3161  CC3161  CC3163   CC321     9  0.000000E+00  8.368000E-01     3
   HCA1  CC3161   OC311    HCP1     9  0.000000E+00  7.531200E-01     3
   HCA1  CC3161  CC3161   OC301     9  0.000000E+00  8.368000E-01     3
  OC311  CC3161  CC3161   OC301     9  1.800000E+02  1.108760E+01     1
  OC311  CC3161  CC3161   OC301     9  0.000000E+00  0.000000E+00     2
  OC311  CC3161  CC3161   OC301     9  1.800000E+02  5.439200E-01     3
 CC3161  CC3163   CC321    HCA2     9  0.000000E+00  8.368000E-01     3
 CC3161  CC3163   CC321   OC311     9  0.000000E+00  8.368000E-01     3
   HCA1  CC3161  CC3163   CC321     9  0.000000E+00  8.368000E-01     3
  OC301  CC3161  CC3163   CC321     9  0.000000E+00  8.368000E-01     3
   HCA2   CC321   OC311    HCP1     9  0.000000E+00  7.531200E-01     3
 CC3161  CC3161   OC311     CT1     9  0.000000E+00  1.079500E+01     1
 CC3161  CC3161   OC311     CT1     9  0.000000E+00  1.129700E+01     3
 CC3161   OC311     CT1     HB1     9  1.800000E+02  1.196600E+01     3
 CC3161   OC311     CT1       C     9  1.800000E+02  1.966500E+00     3
 CC3161   OC311     CT1     CT3     9  1.800000E+02  4.393200E+00     1
 CC3161   OC311     CT1     CT3     9  0.000000E+00  1.133900E+01     3
   HCA1  CC3161   OC311     CT1     9  0.000000E+00  1.506200E+00     3
  OC311     CT1       C       O     9  0.000000E+00  1.129700E+00     1
  OC311     CT1       C       O     9  1.800000E+02  5.146300E+00     2
  OC311     CT1       C     NH1     9  0.000000E+00  2.510400E+00     1
  OC311     CT1     CT3     HA3     9  0.000000E+00  8.368000E-01     3
    CT1       C     NH1       H     9  1.800000E+02  1.046000E+01     2
    CT1       C     NH1     CT1     9  0.000000E+00  6.694400E+00     1
    CT1       C     NH1     CT1     9  1.800000E+02  1.046000E+01     2
    HB1     CT1       C       O     9  0.000000E+00  0.000000E+00     1
    HB1     CT1       C     NH1     9  0.000000E+00  0.000000E+00     1
    HB1     CT1     CT3     HA3     9  0.000000E+00  8.368000E-01     3
      C     CT1     CT3     HA3     9  0.000000E+00  8.368000E-01     3
      C     NH1     CT1     HB1     9  0.000000E+00  0.000000E+00     1
      C     NH1     CT1     CT3     9  0.000000E+00  7.531200E+00     1
      C     NH1     CT1       C     9  1.800000E+02  8.368000E-01     1
      O       C     CT1     CT3     9  0.000000E+00  5.857600E+00     1
      O       C     NH1       H     9  1.800000E+02  1.046000E+01     2
      O       C     NH1     CT1     9  1.800000E+02  1.046000E+01     2
    CT3     CT1       C     NH1     9  0.000000E+00  0.000000E+00     1
    NH1     CT1     CT3     HA3     9  0.000000E+00  8.368000E-01     3
    NH1     CT1       C       O     9  0.000000E+00  0.000000E+00     1
    NH1     CT1       C     NH1     9  0.000000E+00  2.510400E+00     1
      H     NH1     CT1     HB1     9  0.000000E+00  0.000000E+00     1
      H     NH1     CT1     CT3     9  0.000000E+00  0.000000E+00     1
      H     NH1     CT1       C     9  0.000000E+00  0.000000E+00     1
      C     NH1     CT1      CC     9  1.800000E+02  8.368000E-01     1
      C     NH1     CT1     CT2     9  0.000000E+00  7.531200E+00     1
    NH1     CT1      CC       O     9  1.800000E+02  2.092000E-01     6
    NH1     CT1      CC     NH2     9  1.800000E+02  2.092000E-01     6
    NH1     CT1     CT2     HA2     9  0.000000E+00  8.368000E-01     3
    NH1     CT1     CT2     CT2     9  1.800000E+02  3.681920E+00     1
    NH1     CT1     CT2     CT2     9  1.800000E+02  0.000000E+00     2
    NH1     CT1     CT2     CT2     9  0.000000E+00  7.949600E+00     3
      H     NH1     CT1      CC     9  0.000000E+00  0.000000E+00     1
      H     NH1     CT1     CT2     9  0.000000E+00  0.000000E+00     1
    CT1      CC     NH2       H     9  1.800000E+02  5.857600E+00     2
    CT1     CT2     CT2     HA2     9  0.000000E+00  7.949600E-01     3
    CT1     CT2     CT2       C     9  0.000000E+00  7.949600E-01     3
    HB1     CT1      CC       O     9  1.800000E+02  2.092000E-01     6
    HB1     CT1      CC     NH2     9  1.800000E+02  2.092000E-01     6
    HB1     CT1     CT2     HA2     9  0.000000E+00  8.368000E-01     3
    HB1     CT1     CT2     CT2     9  0.000000E+00  8.368000E-01     3
     CC     CT1     CT2     HA2     9  0.000000E+00  8.368000E-01     3
     CC     CT1     CT2     CT2     9  0.000000E+00  8.368000E-01     3
      O      CC     CT1     CT2     9  1.800000E+02  2.092000E-01     6
      O      CC     NH2       H     9  1.800000E+02  5.857600E+00     2
    NH2      CC     CT1     CT2     9  1.800000E+02  2.092000E-01     6
    CT2     CT2       C       O     9  0.000000E+00  5.857600E+00     1
    CT2     CT2       C     NH1     9  0.000000E+00  0.000000E+00     1
    HA2     CT2     CT2     HA2     9  0.000000E+00  7.949600E-01     3
    HA2     CT2     CT2       C     9  0.000000E+00  7.949600E-01     3
    CT2       C     NH1       H     9  1.800000E+02  1.046000E+01     2
    CT2       C     NH1     CT1     9  0.000000E+00  6.694400E+00     1
    CT2       C     NH1     CT1     9  1.800000E+02  1.046000E+01     2
    HA2     CT2       C       O     9  1.800000E+02  0.000000E+00     3
    HA2     CT2       C     NH1     9  0.000000E+00  0.000000E+00     3
    CT1     CT2     CT2     CT2     9  1.800000E+02  2.635920E+00     1
    CT1     CT2     CT2     CT2     9  0.000000E+00  4.184000E-02     2
    CT1     CT2     CT2     CT2     9  0.000000E+00  6.276000E-01     3
    CT1       C     NH1    CTD1     9  0.000000E+00  6.694400E+00     1
    CT1       C     NH1    CTD1     9  1.800000E+02  1.046000E+01     2
    CT2     CT1       C       O     9  0.000000E+00  5.857600E+00     1
    CT2     CT1       C     NH1     9  0.000000E+00  0.000000E+00     1
    CT2     CT2     CT2     HA2     9  0.000000E+00  7.949600E-01     3
    CT2     CT2     CT2     CT2     9  1.800000E+02  4.184000E-01     2
    CT2     CT2     CT2     CT2     9  0.000000E+00  6.276000E-01     4
    CT2     CT2     CT2     CT2     9  1.800000E+02  4.184000E-01     6
    HA2     CT2     CT1       C     9  0.000000E+00  8.368000E-01     3
    CT2     CT2     CT1       C     9  1.800000E+02  1.464400E+00     1
    CT2     CT2     CT1       C     9  1.800000E+02  1.757280E+00     2
    CT2     CT2     CT1       C     9  1.800000E+02  7.991440E+00     3
    CT2     CT2     CT2     NH3     9  0.000000E+00  7.949600E-01     3
    CT2     CT2     NH3      HC     9  0.000000E+00  4.184000E-01     3
    HA2     CT2     CT2     NH3     9  0.000000E+00  7.949600E-01     3
    HA2     CT2     NH3      HC     9  0.000000E+00  4.184000E-01     3
      C     NH1    CTD1     HB1     9  0.000000E+00  0.000000E+00     1
      C     NH1    CTD1     CT3     9  0.000000E+00  7.531200E+00     1
      C     NH1    CTD1       C     9  1.800000E+02  8.368000E-01     1
      O       C     NH1    CTD1     9  1.800000E+02  1.046000E+01     2
    NH1    CTD1     CT3     HA3     9  0.000000E+00  8.368000E-01     3
    NH1    CTD1       C       O     9  0.000000E+00  0.000000E+00     1
    NH1    CTD1       C     NH1     9  0.000000E+00  2.510400E+00     1
      H     NH1    CTD1     HB1     9  0.000000E+00  0.000000E+00     1
      H     NH1    CTD1     CT3     9  0.000000E+00  0.000000E+00     1
      H     NH1    CTD1       C     9  0.000000E+00  0.000000E+00     1
   CTD1       C     NH1       H     9  1.800000E+02  1.046000E+01     2
   CTD1       C     NH1    CTD1     9  0.000000E+00  6.694400E+00     1
   CTD1       C     NH1    CTD1     9  1.800000E+02  1.046000E+01     2
    HB1    CTD1     CT3     HA3     9  0.000000E+00  8.368000E-01     3
    HB1    CTD1       C       O     9  0.000000E+00  0.000000E+00     1
    HB1    CTD1       C     NH1     9  0.000000E+00  0.000000E+00     1
    CT3    CTD1       C       O     9  0.000000E+00  5.857600E+00     1
    CT3    CTD1       C     NH1     9  0.000000E+00  0.000000E+00     1
    HA3     CT3    CTD1       C     9  0.000000E+00  8.368000E-01     3
      C     NH1    CTD1      CC     9  1.800000E+02  8.368000E-01     1
    NH1    CTD1      CC      OC     9  1.800000E+02  2.092000E-01     6
      H     NH1    CTD1      CC     9  0.000000E+00  0.000000E+00     1
    HB1    CTD1      CC      OC     9  1.800000E+02  2.092000E-01     6
    CT3    CTD1      CC      OC     9  1.800000E+02  2.092000E-01     6
    HA3     CT3    CTD1      CC     9  0.000000E+00  8.368000E-01     3
    CT2     CT2     CT2     NH1     9  0.000000E+00  7.949600E-01     3
    CT2     CT2     NH1       H     9  0.000000E+00  0.000000E+00     1
    CT2     CT2     NH1       C     9  0.000000E+00  7.531200E+00     1
    HA2     CT2     CT2     NH1     9  0.000000E+00  7.949600E-01     3
    CT2     NH1       C       O     9  1.800000E+02  1.046000E+01     2
    CT2     NH1       C     CT2     9  0.000000E+00  6.694400E+00     1
    CT2     NH1       C     CT2     9  1.800000E+02  1.046000E+01     2
    HA2     CT2     NH1       H     9  0.000000E+00  0.000000E+00     3
    HA2     CT2     NH1       C     9  0.000000E+00  0.000000E+00     3
    NH1       C     CT2     HB2     9  0.000000E+00  0.000000E+00     1
    NH1       C     CT2     NH1     9  0.000000E+00  2.510400E+00     1
      C     CT2     NH1       H     9  0.000000E+00  0.000000E+00     1
      C     CT2     NH1       C     9  1.800000E+02  8.368000E-01     1
      O       C     CT2     HB2     9  0.000000E+00  0.000000E+00     1
      O       C     CT2     NH1     9  0.000000E+00  0.000000E+00     1
    HB2     CT2     NH1       H     9  0.000000E+00  0.000000E+00     1
    HB2     CT2     NH1       C     9  0.000000E+00  0.000000E+00     1
    CT2     NH1       C    CTD1     9  0.000000E+00  6.694400E+00     1
    CT2     NH1       C    CTD1     9  1.800000E+02  1.046000E+01     2
    NH1       C     CT2     NH3     9  0.000000E+00  4.184000E+00     1
      C     CT2     NH3      HC     9  0.000000E+00  4.184000E-01     3
      O       C     CT2     NH3     9  0.000000E+00  0.000000E+00     1
    HB2     CT2     NH3      HC     9  0.000000E+00  4.184000E-01     3

[ dihedraltypes ]
;i      j     k    l    func   zeta(degree)      kzeta(kJ/mol rad2)
    NH1      CC       H  CC3161     2  0.000000E+00  1.673600E+02
     CC     CT3     NH1       O     2  0.000000E+00  1.004160E+03
     CC     NH2     CT1       O     2  0.000000E+00  3.765600E+02
     CC     CT1     NH2       O     2  0.000000E+00  3.765600E+02
    NH2      CC       H       H     2  0.000000E+00  3.347200E+01
     CC    CTD1      OC      OC     2  0.000000E+00  8.033280E+02
      C     CT1     NH1       O     2  0.000000E+00  1.004160E+03
    NH1       C     CT1       H     2  0.000000E+00  1.673600E+02
      C     CT2     NH1       O     2  0.000000E+00  1.004160E+03
    NH1       C    CTD1       H     2  0.000000E+00  1.673600E+02
      C    CTD1     NH1       O     2  0.000000E+00  1.004160E+03

#include "cmap.itp"
