LeftNAG-NAMP
132    
    0NAG    C1     1  -0.033  -0.115   0.078
    0NAG    H1     2  -0.024  -0.106   0.189
    0NAG    C5     3   0.084  -0.322   0.092
    0NAG    H5     4   0.092  -0.313   0.203
    0NAG    O5     5   0.078  -0.193   0.031
    0NAG    C2     6  -0.161  -0.184   0.041
    0NAG    H2     7  -0.162  -0.194  -0.071
    0NAG    NC     8  -0.276  -0.105   0.083
    0NAG    HN     9  -0.272  -0.062   0.173
    0NAG    CM    10  -0.388  -0.085   0.009
    0NAG    OM    11  -0.403  -0.133  -0.103
    0NAG    CC    12  -0.496   0.001   0.072
    0NAG   HC1    13  -0.499  -0.020   0.181
    0NAG   HC2    14  -0.593  -0.023   0.026
    0NAG   HC3    15  -0.471   0.107   0.055
    0NAG    C3    16  -0.162  -0.322   0.103
    0NAG    H3    17  -0.159  -0.311   0.213
    0NAG    O3    18  -0.283  -0.388   0.071
    0NAG   HO3    19  -0.279  -0.419  -0.021
    0NAG    C4    20  -0.042  -0.399   0.056
    0NAG    H4    21  -0.053  -0.400  -0.054
    0NAG    O4    22  -0.038  -0.528   0.112
    0NAG   HO4    23  -0.069  -0.594   0.047
    0NAG    C6    24   0.211  -0.391   0.044
    0NAG   H61    25   0.219  -0.490   0.091
    0NAG   H62    26   0.210  -0.405  -0.066
    0NAG    O6    27   0.327  -0.316   0.080
    0NAG   HO6    28   0.328  -0.233   0.030
    0NAM    C1    29   0.008   0.412   0.034
    0NAM    H1    30  -0.005   0.415  -0.076
    0NAM    C5    31  -0.112   0.208   0.042
    0NAM    H5    32  -0.125   0.219  -0.068
    0NAM    O5    33  -0.096   0.339   0.100
    0NAM    C2    34   0.139   0.344   0.074
    0NAM    H2    35   0.138   0.341   0.185
    0NAM    NC    36   0.250   0.421   0.020
    0NAM    HN    37   0.245   0.459  -0.072
    0NAM    CM    38   0.352   0.472   0.092
    0NAM    OM    39   0.353   0.471   0.215
    0NAM    CC    40   0.467   0.531   0.015
    0NAM   HC1    41   0.463   0.501  -0.092
    0NAM   HC2    42   0.563   0.498   0.059
    0NAM   HC3    43   0.463   0.642   0.022
    0NAM    C3    44   0.136   0.201   0.021
    0NAM    H3    45   0.132   0.210  -0.090
    0NAM    O3    46   0.252   0.122   0.049
    0NAM    CA    47   0.271   0.072   0.182
    0NAM    HA    48   0.184   0.042   0.238
    0NAM     C    49   0.366  -0.051   0.182
    0NAM     O    50   0.370  -0.129   0.275
    0NAM    CB    51   0.335   0.182   0.269
    0NAM   HB1    52   0.259   0.237   0.326
    0NAM   HB2    53   0.411   0.144   0.340
    0NAM   HB3    54   0.389   0.250   0.200
    0NAM    C4    55   0.012   0.127   0.064
    0NAM    H4    56   0.014   0.110   0.174
    0NAM    O4    57   0.000   0.000   0.000
    0NAM    C6    58  -0.231   0.138   0.105
    0NAM   H61    59  -0.257   0.051   0.040
    0NAM   H62    60  -0.204   0.095   0.204
    0NAM    O6    61  -0.343   0.223   0.123
    0NAM   HO6    62  -0.340   0.292   0.056
    0ALA     N    63   0.477  -0.041   0.092
    0ALA    HN    64   0.471  -0.114   0.024
    0ALA    CA    65   0.603  -0.053   0.170
    0ALA    HA    66   0.605   0.035   0.240
    0ALA    CB    67   0.615  -0.182   0.250
    0ALA   HB1    68   0.534  -0.191   0.323
    0ALA   HB2    69   0.613  -0.271   0.186
    0ALA   HB3    70   0.710  -0.185   0.306
    0ALA     C    71   0.720  -0.043   0.073
    0ALA     O    72   0.743  -0.108  -0.027
    0GLN     N    73   0.818   0.057   0.104
    0GLN    HN    74   0.838   0.141   0.055
    0GLN    CA    75   0.880   0.005   0.228
    0GLN    HA    76   0.981   0.050   0.248
    0GLN    CD    77   0.901  -0.145   0.207
    0GLN   OE1    78   1.008  -0.176   0.130
    0GLN   NE2    79   0.837  -0.240   0.249
    0GLN  HE21    80   0.842  -0.235   0.254
    0GLN  HE22    81   0.844  -0.232   0.270
    0GLN    CB    82   0.791   0.030   0.350
    0GLN   HB1    83   0.685   0.005   0.327
    0GLN   HB2    84   0.820  -0.040   0.432
    0GLN    CG    85   0.802   0.174   0.400
    0GLN   HG1    86   0.908   0.199   0.422
    0GLN   HG2    87   0.769   0.245   0.322
    0GLN     C    88   0.721   0.192   0.525
    0GLN     O    89   0.753   0.169   0.641
    0LYS     N    90   0.606   0.148   0.512
    0LYS    HN    91   0.574   0.068   0.599
    0LYS    CA    92   0.597   0.306   0.452
    0LYS    HA    93   0.483   0.384   0.459
    0LYS    CB    94   0.597   0.387   0.608
    0LYS   HB1    95   0.607   0.489   0.574
    0LYS   HB2    96   0.695   0.341   0.616
    0LYS    CG    97   0.570   0.387   0.762
    0LYS   HG1    98   0.576   0.271   0.782
    0LYS   HG2    99   0.483   0.415   0.732
    0LYS    CD   100   0.620   0.532   0.847
    0LYS   HD1   101   0.681   0.593   0.769
    0LYS   HD2   102   0.722   0.499   0.883
    0LYS    CE   103   0.630   0.654   0.949
    0LYS   HE1   104   0.704   0.717   0.904
    0LYS   HE2   105   0.604   0.710   0.994
    0LYS    NZ   106   0.506   0.735   1.012
    0LYS   HZ1   107   0.489   0.820   1.007
    0LYS   HZ2   108   0.417   0.707   1.032
    0LYS   HZ3   109   0.480   0.728   1.110
    0LYS     C   110   0.601   0.410   0.325
    0LYS     O   111   0.658   0.385   0.261
    0DAL     N   112   0.568   0.517   0.289
    0DAL    HN   113   0.611   0.575   0.293
    0DAL    CA   114   0.485   0.612   0.376
    0DAL    HA   115   0.446   0.551   0.475
    0DAL    CB   116   0.549   0.707   0.465
    0DAL   HB1   117   0.545   0.807   0.432
    0DAL   HB2   118   0.672   0.777   0.509
    0DAL   HB3   119   0.561   0.714   0.567
    0DAL     C   120   0.444   0.656   0.251
    0DAL     O   121   0.485   0.777   0.165
    0DAL     N   122   0.316   0.725   0.306
    0DAL    HN   123   0.359   0.783   0.310
    0DAL    CA   124   0.292   0.727   0.442
    0DAL    HA   125   0.283   0.585   0.485
    0DAL    CB   126   0.337   0.868   0.515
    0DAL   HB1   127   0.417   0.901   0.479
    0DAL   HB2   128   0.427   0.802   0.499
    0DAL   HB3   129   0.388   0.803   0.624
    0DAL     C   130   0.162   0.805   0.465
    0DAL   OC1   131   0.071   0.780   0.543
    0DAL   OC2   132   0.146   0.915   0.394
     10.0  10.0   10.0
