glycan chain in water
 1051
    1NAG     C1    1   5.468   1.535   5.295
    1NAG     H1    2   5.477   1.544   5.406
    1NAG     C5    3   5.585   1.328   5.309
    1NAG     H5    4   5.593   1.337   5.420
    1NAG     O5    5   5.579   1.457   5.248
    1NAG     C2    6   5.340   1.466   5.258
    1NAG     H2    7   5.339   1.456   5.146
    1NAG     NC    8   5.225   1.545   5.300
    1NAG     HN    9   5.229   1.588   5.390
    1NAG     CM   10   5.113   1.565   5.226
    1NAG     OM   11   5.098   1.517   5.114
    1NAG     CC   12   5.005   1.651   5.289
    1NAG    HC1   13   5.002   1.630   5.398
    1NAG    HC2   14   4.908   1.627   5.243
    1NAG    HC3   15   5.030   1.757   5.272
    1NAG     C3   16   5.339   1.328   5.320
    1NAG     H3   17   5.342   1.339   5.430
    1NAG     O3   18   5.218   1.262   5.288
    1NAG    HO3   19   5.222   1.231   5.196
    1NAG     C4   20   5.459   1.251   5.273
    1NAG     H4   21   5.448   1.250   5.163
    1NAG     O4   22   5.463   1.122   5.329
    1NAG    HO4   23   5.432   1.056   5.264
    1NAG     C6   24   5.712   1.259   5.261
    1NAG    H61   25   5.720   1.160   5.308
    1NAG    H62   26   5.711   1.245   5.151
    1NAG     O6   27   5.828   1.334   5.297
    1NAG    HO6   28   5.829   1.417   5.247
    2NAM     C1   29   5.509   2.062   5.251
    2NAM     H1   30   5.496   2.065   5.141
    2NAM     C5   31   5.389   1.858   5.259
    2NAM     H5   32   5.376   1.869   5.149
    2NAM     O5   33   5.405   1.989   5.317
    2NAM     C2   34   5.640   1.994   5.291
    2NAM     H2   35   5.639   1.991   5.402
    2NAM     NC   36   5.751   2.071   5.237
    2NAM     HN   37   5.746   2.109   5.145
    2NAM     CM   38   5.853   2.122   5.309
    2NAM     OM   39   5.854   2.121   5.432
    2NAM     CC   40   5.968   2.181   5.232
    2NAM    HC1   41   5.964   2.151   5.125
    2NAM    HC2   42   6.064   2.148   5.276
    2NAM    HC3   43   5.964   2.292   5.239
    2NAM     C3   44   5.637   1.851   5.238
    2NAM     H3   45   5.633   1.860   5.127
    2NAM     O3   46   5.753   1.772   5.266
    2NAM     CA   47   5.772   1.722   5.399
    2NAM     HA   48   5.685   1.692   5.455
    2NAM      C   49   5.867   1.599   5.399
    2NAM      O   50   5.871   1.521   5.492
    2NAM     CB   51   5.836   1.832   5.486
    2NAM    HB1   52   5.760   1.887   5.543
    2NAM    HB2   53   5.912   1.794   5.557
    2NAM    HB3   54   5.890   1.900   5.417
    2NAM     C4   55   5.513   1.777   5.281
    2NAM     H4   56   5.515   1.760   5.391
    2NAM     O4   57   5.501   1.650   5.217
    2NAM     C6   58   5.270   1.788   5.322
    2NAM    H61   59   5.244   1.701   5.257
    2NAM    H62   60   5.297   1.745   5.421
    2NAM     O6   61   5.158   1.873   5.340
    2NAM    HO6   62   5.161   1.942   5.273
    3ALA      N   63   5.978   1.609   5.309
    3ALA     HN   64   5.972   1.536   5.241
    3ALA     CA   65   6.104   1.597   5.387
    3ALA     HA   66   6.106   1.685   5.457
    3ALA     CB   67   6.116   1.468   5.467
    3ALA    HB1   68   6.035   1.459   5.540
    3ALA    HB2   69   6.114   1.379   5.403
    3ALA    HB3   70   6.211   1.465   5.523
    3ALA      C   71   6.221   1.607   5.290
    3ALA      O   72   6.244   1.542   5.190
    4GLN      N   73   6.319   1.707   5.321
    4GLN     HN   74   6.339   1.791   5.272
    4GLN     CA   75   6.381   1.655   5.445
    4GLN     HA   76   6.482   1.700   5.465
    4GLN     CD   77   6.402   1.505   5.424
    4GLN    OE1   78   6.509   1.474   5.347
    4GLN    NE2   79   6.338   1.410   5.466
    4GLN   HE21   80   6.343   1.415   5.504
    4GLN   HE22   81   6.345   1.417   5.564
    4GLN     CB   82   6.292   1.680   5.567
    4GLN    HB1   83   6.186   1.655   5.544
    4GLN    HB2   84   6.321   1.610   5.649
    4GLN     CG   85   6.303   1.824   5.617
    4GLN    HG1   86   6.409   1.849   5.639
    4GLN    HG2   87   6.270   1.895   5.539
    4GLN      C   88   6.222   1.842   5.742
    4GLN      O   89   6.254   1.819   5.858
    5LYS      N   90   6.107   1.798   5.729
    5LYS     HN   91   6.075   1.718   5.816
    5LYS     CA   92   6.098   1.956   5.669
    5LYS     HA   93   5.984   2.034   5.676
    5LYS     CB   94   6.098   2.037   5.825
    5LYS    HB1   95   6.108   2.139   5.791
    5LYS    HB2   96   6.196   1.991   5.833
    5LYS     CG   97   6.071   2.037   5.979
    5LYS    HG1   98   6.077   1.921   5.999
    5LYS    HG2   99   5.984   2.065   5.949
    5LYS     CD  100   6.121   2.182   6.064
    5LYS    HD1  101   6.182   2.243   5.986
    5LYS    HD2  102   6.223   2.149   6.100
    5LYS     CE  103   6.131   2.304   6.166
    5LYS    HE1  104   6.205   2.367   6.121
    5LYS    HE2  105   6.043   2.215   6.284
    5LYS     NZ  106   6.007   2.385   6.229
    5LYS    HZ1  107   5.990   2.470   6.224
    5LYS    HZ2  108   5.918   2.357   6.249
    5LYS    HZ3  109   5.981   2.378   6.327
    5LYS      C  110   6.102   2.060   5.542
    5LYS      O  111   6.159   2.035   5.478
    6DAL      N  112   6.069   2.167   5.506
    6DAL     HN  113   6.112   2.225   5.510
    6DAL     CA  114   5.986   2.262   5.593
    6DAL     HA  115   5.947   2.201   5.692
    6DAL     CB  116   6.050   2.357   5.682
    6DAL    HB1  117   6.046   2.457   5.649
    6DAL    HB2  118   6.173   2.427   5.726
    6DAL    HB3  119   6.062   2.364   5.784
    6DAL      C  120   5.945   2.306   5.468
    6DAL      O  121   5.986   2.427   5.382
    6DAL      N  122   5.817   2.375   5.523
    6DAL     HN  123   5.860   2.433   5.527
    6DAL     CA  124   5.793   2.377   5.659
    6DAL     HA  125   5.784   2.235   5.702
    6DAL     CB  126   5.838   2.518   5.732
    6DAL    HB1  127   5.918   2.551   5.696
    6DAL    HB2  128   5.928   2.452   5.716
    6DAL    HB3  129   5.889   2.453   5.841
    6DAL      C  130   5.663   2.455   5.682
    6DAL    OC1  131   5.572   2.430   5.760
    6DAL    OC2  132   5.647   2.565   5.611
    7NAG     C1  133   5.433   2.575   5.295
    7NAG     H1  134   5.424   2.584   5.406
    7NAG     C5  135   5.316   2.368   5.309
    7NAG     H5  136   5.308   2.377   5.420
    7NAG     O5  137   5.322   2.497   5.248
    7NAG     C2  138   5.561   2.506   5.258
    7NAG     H2  139   5.562   2.496   5.146
    7NAG     NC  140   5.676   2.585   5.300
    7NAG     HN  141   5.672   2.628   5.390
    7NAG     CM  142   5.788   2.565   5.226
    7NAG     OM  143   5.803   2.557   5.114
    7NAG     CC  144   5.896   2.611   5.289
    7NAG    HC1  145   5.899   2.670   5.398
    7NAG    HC2  146   5.993   2.667   5.243
    7NAG    HC3  147   5.900   2.717   5.272
    7NAG     C3  148   5.562   2.368   5.320
    7NAG     H3  149   5.559   2.379   5.430
    7NAG     O3  150   5.683   2.302   5.288
    7NAG    HO3  151   5.679   2.271   5.196
    7NAG     C4  152   5.442   2.291   5.273
    7NAG     H4  153   5.453   2.290   5.163
    7NAG     O4  154   5.438   2.162   5.329
    7NAG     C6  155   5.189   2.299   5.261
    7NAG    H61  156   5.181   2.200   5.308
    7NAG    H62  157   5.190   2.285   5.151
    7NAG     O6  158   5.073   2.374   5.297
    7NAG    HO6  159   5.072   2.457   5.247
    8NAM     C1  160   5.517   3.102   5.251
    8NAM     H1  161   5.530   3.105   5.141
    8NAM     C5  162   5.637   2.898   5.259
    8NAM     H5  163   5.650   2.909   5.149
    8NAM     O5  164   5.621   3.029   5.317
    8NAM     C2  165   5.386   3.034   5.291
    8NAM     H2  166   5.387   3.031   5.402
    8NAM     NC  167   5.275   3.111   5.237
    8NAM     HN  168   5.280   3.149   5.145
    8NAM     CM  169   5.173   3.162   5.309
    8NAM     OM  170   5.172   3.161   5.432
    8NAM     CC  171   5.058   3.221   5.232
    8NAM    HC1  172   5.062   3.191   5.125
    8NAM    HC2  173   4.962   3.188   5.276
    8NAM    HC3  174   5.062   3.332   5.239
    8NAM     C3  175   5.389   2.891   5.238
    8NAM     H3  176   5.393   2.900   5.127
    8NAM     O3  177   5.273   2.812   5.266
    8NAM     CA  178   5.254   2.762   5.399
    8NAM     HA  179   5.341   2.732   5.455
    8NAM      C  180   5.159   2.639   5.399
    8NAM      O  181   5.155   2.561   5.492
    8NAM     CB  182   5.190   2.872   5.486
    8NAM    HB1  183   5.266   2.927   5.543
    8NAM    HB2  184   5.114   2.834   5.557
    8NAM    HB3  185   5.136   2.940   5.417
    8NAM     C4  186   5.513   2.817   5.281
    8NAM     H4  187   5.511   2.800   5.391
    8NAM     O4  188   5.525   2.690   5.217
    8NAM     C6  189   5.756   2.828   5.322
    8NAM    H61  190   5.782   2.741   5.257
    8NAM    H62  191   5.729   2.785   5.421
    8NAM     O6  192   5.868   2.913   5.340
    8NAM    HO6  193   5.865   2.982   5.273
    9ALA      N  194   5.048   2.649   5.309
    9ALA     HN  195   5.054   2.576   5.241
    9ALA     CA  196   4.922   2.637   5.387
    9ALA     HA  197   4.920   2.725   5.457
    9ALA     CB  198   4.910   2.508   5.467
    9ALA    HB1  199   4.991   2.499   5.540
    9ALA    HB2  200   4.912   2.419   5.403
    9ALA    HB3  201   4.815   2.505   5.523
    9ALA      C  202   4.805   2.647   5.290
    9ALA      O  203   4.782   2.582   5.190
   10GLN      N  204   4.707   2.747   5.321
   10GLN     HN  205   4.687   2.831   5.272
   10GLN     CA  206   4.645   2.695   5.445
   10GLN     HA  207   4.544   2.740   5.465
   10GLN     CD  208   4.624   2.545   5.424
   10GLN    OE1  209   4.517   2.514   5.347
   10GLN    NE2  210   4.688   2.450   5.466
   10GLN   HE21  211   4.693   2.455   5.504
   10GLN   HE22  212   4.698   2.457   5.564
   10GLN     CB  213   4.734   2.720   5.567
   10GLN    HB1  214   4.840   2.695   5.544
   10GLN    HB2  215   4.705   2.650   5.649
   10GLN     CG  216   4.723   2.864   5.617
   10GLN    HG1  217   4.617   2.889   5.639
   10GLN    HG2  218   4.756   2.935   5.539
   10GLN      C  219   4.804   2.882   5.742
   10GLN      O  220   4.772   2.859   5.858
   11LYS      N  221   4.919   2.838   5.729
   11LYS     HN  222   4.951   2.758   5.816
   11LYS     CA  223   4.928   2.996   5.669
   11LYS     HA  224   5.042   3.074   5.676
   11LYS     CB  225   4.928   3.077   5.825
   11LYS    HB1  226   4.918   3.179   5.791
   11LYS    HB2  227   4.830   3.031   5.833
   11LYS     CG  228   4.955   3.077   5.979
   11LYS    HG1  229   4.949   2.961   5.999
   11LYS    HG2  230   5.042   3.105   5.949
   11LYS     CD  231   4.905   3.222   6.064
   11LYS    HD1  232   4.844   3.283   5.986
   11LYS    HD2  233   4.803   3.189   6.100
   11LYS     CE  234   4.895   3.344   6.166
   11LYS    HE1  235   4.821   3.407   6.121
   11LYS    HE2  236   4.983   3.255   6.284
   11LYS     NZ  237   5.019   3.425   6.229
   11LYS    HZ1  238   5.036   3.510   6.224
   11LYS    HZ2  239   5.108   3.397   6.249
   11LYS    HZ3  240   5.045   3.418   6.327
   11LYS      C  241   4.924   3.100   5.542
   11LYS      O  242   4.867   3.075   5.478
   12DAL      N  243   4.957   3.207   5.506
   12DAL     HN  244   4.914   3.265   5.510
   12DAL     CA  245   5.040   3.302   5.593
   12DAL     HA  246   5.079   3.241   5.692
   12DAL     CB  247   4.976   3.397   5.682
   12DAL    HB1  248   4.980   3.497   5.649
   12DAL    HB2  249   4.853   3.467   5.726
   12DAL    HB3  250   4.964   3.404   5.784
   12DAL      C  251   5.081   3.346   5.468
   12DAL      O  252   5.040   3.467   5.382
   12DAL      N  253   5.209   3.415   5.523
   12DAL     HN  254   5.166   3.473   5.527
   12DAL     CA  255   5.233   3.417   5.659
   12DAL     HA  256   5.242   3.275   5.702
   12DAL     CB  257   5.188   3.558   5.732
   12DAL    HB1  258   5.108   3.591   5.696
   12DAL    HB2  259   5.098   3.492   5.716
   12DAL    HB3  260   5.137   3.493   5.841
   12DAL      C  261   5.363   3.495   5.682
   12DAL    OC1  262   5.454   3.470   5.760
   12DAL    OC2  263   5.379   3.605   5.611
   13NAG     C1  264   5.468   3.615   5.295
   13NAG     H1  265   5.477   3.624   5.406
   13NAG     C5  266   5.585   3.408   5.309
   13NAG     H5  267   5.593   3.417   5.420
   13NAG     O5  268   5.579   3.537   5.248
   13NAG     C2  269   5.340   3.546   5.258
   13NAG     H2  270   5.339   3.536   5.146
   13NAG     NC  271   5.225   3.625   5.300
   13NAG     HN  272   5.229   3.668   5.390
   13NAG     CM  273   5.113   3.605   5.226
   13NAG     OM  274   5.098   3.597   5.114
   13NAG     CC  275   5.005   3.651   5.289
   13NAG    HC1  276   5.002   3.710   5.398
   13NAG    HC2  277   4.908   3.707   5.243
   13NAG    HC3  278   5.030   3.757   5.272
   13NAG     C3  279   5.339   3.408   5.320
   13NAG     H3  280   5.342   3.419   5.430
   13NAG     O3  281   5.218   3.342   5.288
   13NAG    HO3  282   5.222   3.311   5.196
   13NAG     C4  283   5.459   3.331   5.273
   13NAG     H4  284   5.448   3.330   5.163
   13NAG     O4  285   5.463   3.202   5.329
   13NAG     C6  286   5.712   3.339   5.261
   13NAG    H61  287   5.720   3.240   5.308
   13NAG    H62  288   5.711   3.325   5.151
   13NAG     O6  289   5.828   3.414   5.297
   13NAG    HO6  290   5.829   3.497   5.247
   14NAM     C1  291   5.509   4.142   5.251
   14NAM     H1  292   5.496   4.145   5.141
   14NAM     C5  293   5.389   3.938   5.259
   14NAM     H5  294   5.376   3.949   5.149
   14NAM     O5  295   5.405   4.069   5.317
   14NAM     C2  296   5.640   4.074   5.291
   14NAM     H2  297   5.639   4.071   5.402
   14NAM     NC  298   5.751   4.151   5.237
   14NAM     HN  299   5.746   4.189   5.145
   14NAM     CM  300   5.853   4.202   5.309
   14NAM     OM  301   5.854   4.201   5.432
   14NAM     CC  302   5.968   4.261   5.232
   14NAM    HC1  303   5.964   4.231   5.125
   14NAM    HC2  304   6.064   4.228   5.276
   14NAM    HC3  305   5.964   4.372   5.239
   14NAM     C3  306   5.637   3.931   5.238
   14NAM     H3  307   5.633   3.940   5.127
   14NAM     O3  308   5.753   3.852   5.266
   14NAM     CA  309   5.772   3.802   5.399
   14NAM     HA  310   5.685   3.772   5.455
   14NAM      C  311   5.867   3.679   5.399
   14NAM      O  312   5.871   3.601   5.492
   14NAM     CB  313   5.836   3.912   5.486
   14NAM    HB1  314   5.760   3.967   5.543
   14NAM    HB2  315   5.912   3.874   5.557
   14NAM    HB3  316   5.890   3.980   5.417
   14NAM     C4  317   5.513   3.857   5.281
   14NAM     H4  318   5.515   3.840   5.391
   14NAM     O4  319   5.501   3.730   5.217
   14NAM     C6  320   5.270   3.868   5.322
   14NAM    H61  321   5.244   3.781   5.257
   14NAM    H62  322   5.297   3.825   5.421
   14NAM     O6  323   5.158   3.953   5.340
   14NAM    HO6  324   5.161   4.022   5.273
   15ALA      N  325   5.978   3.689   5.309
   15ALA     HN  326   5.972   3.616   5.241
   15ALA     CA  327   6.104   3.677   5.387
   15ALA     HA  328   6.106   3.765   5.457
   15ALA     CB  329   6.116   3.548   5.467
   15ALA    HB1  330   6.035   3.539   5.540
   15ALA    HB2  331   6.114   3.459   5.403
   15ALA    HB3  332   6.211   3.545   5.523
   15ALA      C  333   6.221   3.687   5.290
   15ALA      O  334   6.244   3.622   5.190
   16GLN      N  335   6.319   3.787   5.321
   16GLN     HN  336   6.339   3.871   5.272
   16GLN     CA  337   6.381   3.735   5.445
   16GLN     HA  338   6.482   3.780   5.465
   16GLN     CD  339   6.402   3.585   5.424
   16GLN    OE1  340   6.509   3.554   5.347
   16GLN    NE2  341   6.338   3.490   5.466
   16GLN   HE21  342   6.343   3.495   5.504
   16GLN   HE22  343   6.345   3.497   5.564
   16GLN     CB  344   6.292   3.760   5.567
   16GLN    HB1  345   6.186   3.735   5.544
   16GLN    HB2  346   6.321   3.690   5.649
   16GLN     CG  347   6.303   3.904   5.617
   16GLN    HG1  348   6.409   3.929   5.639
   16GLN    HG2  349   6.270   3.975   5.539
   16GLN      C  350   6.222   3.922   5.742
   16GLN      O  351   6.254   3.899   5.858
   17LYS      N  352   6.107   3.878   5.729
   17LYS     HN  353   6.075   3.798   5.816
   17LYS     CA  354   6.098   4.036   5.669
   17LYS     HA  355   5.984   4.114   5.676
   17LYS     CB  356   6.098   4.117   5.825
   17LYS    HB1  357   6.108   4.219   5.791
   17LYS    HB2  358   6.196   4.071   5.833
   17LYS     CG  359   6.071   4.117   5.979
   17LYS    HG1  360   6.077   4.001   5.999
   17LYS    HG2  361   5.984   4.145   5.949
   17LYS     CD  362   6.121   4.262   6.064
   17LYS    HD1  363   6.182   4.323   5.986
   17LYS    HD2  364   6.223   4.229   6.100
   17LYS     CE  365   6.131   4.384   6.166
   17LYS    HE1  366   6.205   4.447   6.121
   17LYS    HE2  367   6.043   4.295   6.284
   17LYS     NZ  368   6.007   4.465   6.229
   17LYS    HZ1  369   5.990   4.550   6.224
   17LYS    HZ2  370   5.918   4.437   6.249
   17LYS    HZ3  371   5.981   4.458   6.327
   17LYS      C  372   6.102   4.140   5.542
   17LYS      O  373   6.159   4.115   5.478
   18DAL      N  374   6.069   4.247   5.506
   18DAL     HN  375   6.112   4.305   5.510
   18DAL     CA  376   5.986   4.342   5.593
   18DAL     HA  377   5.947   4.281   5.692
   18DAL     CB  378   6.050   4.437   5.682
   18DAL    HB1  379   6.046   4.537   5.649
   18DAL    HB2  380   6.173   4.507   5.726
   18DAL    HB3  381   6.062   4.444   5.784
   18DAL      C  382   5.945   4.386   5.468
   18DAL      O  383   5.986   4.507   5.382
   18DAL      N  384   5.817   4.455   5.523
   18DAL     HN  385   5.860   4.513   5.527
   18DAL     CA  386   5.793   4.457   5.659
   18DAL     HA  387   5.784   4.315   5.702
   18DAL     CB  388   5.838   4.598   5.732
   18DAL    HB1  389   5.918   4.631   5.696
   18DAL    HB2  390   5.928   4.532   5.716
   18DAL    HB3  391   5.889   4.533   5.841
   18DAL      C  392   5.663   4.535   5.682
   18DAL    OC1  393   5.572   4.510   5.760
   18DAL    OC2  394   5.647   4.645   5.611
   19NAG     C1  395   5.433   4.655   5.295
   19NAG     H1  396   5.424   4.664   5.406
   19NAG     C5  397   5.316   4.448   5.309
   19NAG     H5  398   5.308   4.457   5.420
   19NAG     O5  399   5.322   4.577   5.248
   19NAG     C2  400   5.561   4.586   5.258
   19NAG     H2  401   5.562   4.576   5.146
   19NAG     NC  402   5.676   4.665   5.300
   19NAG     HN  403   5.672   4.708   5.390
   19NAG     CM  404   5.788   4.645   5.226
   19NAG     OM  405   5.803   4.637   5.114
   19NAG     CC  406   5.896   4.691   5.289
   19NAG    HC1  407   5.899   4.750   5.398
   19NAG    HC2  408   5.993   4.747   5.243
   19NAG    HC3  409   5.900   4.797   5.272
   19NAG     C3  410   5.562   4.448   5.320
   19NAG     H3  411   5.559   4.459   5.430
   19NAG     O3  412   5.683   4.382   5.288
   19NAG    HO3  413   5.679   4.351   5.196
   19NAG     C4  414   5.442   4.371   5.273
   19NAG     H4  415   5.453   4.370   5.163
   19NAG     O4  416   5.438   4.242   5.329
   19NAG     C6  417   5.189   4.379   5.261
   19NAG    H61  418   5.181   4.280   5.308
   19NAG    H62  419   5.190   4.365   5.151
   19NAG     O6  420   5.073   4.454   5.297
   19NAG    HO6  421   5.072   4.537   5.247
   20NAM     C1  422   5.517   5.182   5.251
   20NAM     H1  423   5.530   5.185   5.141
   20NAM     C5  424   5.637   4.978   5.259
   20NAM     H5  425   5.650   4.989   5.149
   20NAM     O5  426   5.621   5.109   5.317
   20NAM     C2  427   5.386   5.114   5.291
   20NAM     H2  428   5.387   5.111   5.402
   20NAM     NC  429   5.275   5.191   5.237
   20NAM     HN  430   5.280   5.229   5.145
   20NAM     CM  431   5.173   5.242   5.309
   20NAM     OM  432   5.172   5.241   5.432
   20NAM     CC  433   5.058   5.301   5.232
   20NAM    HC1  434   5.062   5.271   5.125
   20NAM    HC2  435   4.962   5.268   5.276
   20NAM    HC3  436   5.062   5.412   5.239
   20NAM     C3  437   5.389   4.971   5.238
   20NAM     H3  438   5.393   4.980   5.127
   20NAM     O3  439   5.273   4.892   5.266
   20NAM     CA  440   5.254   4.842   5.399
   20NAM     HA  441   5.341   4.812   5.455
   20NAM      C  442   5.159   4.719   5.399
   20NAM      O  443   5.155   4.641   5.492
   20NAM     CB  444   5.190   4.952   5.486
   20NAM    HB1  445   5.266   5.007   5.543
   20NAM    HB2  446   5.114   4.914   5.557
   20NAM    HB3  447   5.136   5.020   5.417
   20NAM     C4  448   5.513   4.897   5.281
   20NAM     H4  449   5.511   4.880   5.391
   20NAM     O4  450   5.525   4.770   5.217
   20NAM     C6  451   5.756   4.908   5.322
   20NAM    H61  452   5.782   4.821   5.257
   20NAM    H62  453   5.729   4.865   5.421
   20NAM     O6  454   5.868   4.993   5.340
   20NAM    HO6  455   5.865   5.062   5.273
   21ALA      N  456   5.048   4.729   5.309
   21ALA     HN  457   5.054   4.656   5.241
   21ALA     CA  458   4.922   4.717   5.387
   21ALA     HA  459   4.920   4.805   5.457
   21ALA     CB  460   4.910   4.588   5.467
   21ALA    HB1  461   4.991   4.579   5.540
   21ALA    HB2  462   4.912   4.499   5.403
   21ALA    HB3  463   4.815   4.585   5.523
   21ALA      C  464   4.805   4.727   5.290
   21ALA      O  465   4.782   4.662   5.190
   22GLN      N  466   4.707   4.827   5.321
   22GLN     HN  467   4.687   4.911   5.272
   22GLN     CA  468   4.645   4.775   5.445
   22GLN     HA  469   4.544   4.820   5.465
   22GLN     CD  470   4.624   4.625   5.424
   22GLN    OE1  471   4.517   4.594   5.347
   22GLN    NE2  472   4.688   4.530   5.466
   22GLN   HE21  473   4.693   4.535   5.504
   22GLN   HE22  474   4.698   4.537   5.564
   22GLN     CB  475   4.734   4.800   5.567
   22GLN    HB1  476   4.840   4.775   5.544
   22GLN    HB2  477   4.705   4.730   5.649
   22GLN     CG  478   4.723   4.944   5.617
   22GLN    HG1  479   4.617   4.969   5.639
   22GLN    HG2  480   4.756   5.015   5.539
   22GLN      C  481   4.804   4.962   5.742
   22GLN      O  482   4.772   4.939   5.858
   23LYS      N  483   4.919   4.918   5.729
   23LYS     HN  484   4.951   4.838   5.816
   23LYS     CA  485   4.928   5.076   5.669
   23LYS     HA  486   5.042   5.154   5.676
   23LYS     CB  487   4.928   5.157   5.825
   23LYS    HB1  488   4.918   5.259   5.791
   23LYS    HB2  489   4.830   5.111   5.833
   23LYS     CG  490   4.955   5.157   5.979
   23LYS    HG1  491   4.949   5.041   5.999
   23LYS    HG2  492   5.042   5.185   5.949
   23LYS     CD  493   4.905   5.302   6.064
   23LYS    HD1  494   4.844   5.363   5.986
   23LYS    HD2  495   4.803   5.269   6.100
   23LYS     CE  496   4.895   5.424   6.166
   23LYS    HE1  497   4.821   5.487   6.121
   23LYS    HE2  498   4.983   5.335   6.284
   23LYS     NZ  499   5.019   5.505   6.229
   23LYS    HZ1  500   5.036   5.590   6.224
   23LYS    HZ2  501   5.108   5.477   6.249
   23LYS    HZ3  502   5.045   5.498   6.327
   23LYS      C  503   4.924   5.180   5.542
   23LYS      O  504   4.867   5.155   5.478
   24DAL      N  505   4.957   5.287   5.506
   24DAL     HN  506   4.914   5.345   5.510
   24DAL     CA  507   5.040   5.382   5.593
   24DAL     HA  508   5.079   5.321   5.692
   24DAL     CB  509   4.976   5.477   5.682
   24DAL    HB1  510   4.980   5.577   5.649
   24DAL    HB2  511   4.853   5.547   5.726
   24DAL    HB3  512   4.964   5.484   5.784
   24DAL      C  513   5.081   5.426   5.468
   24DAL      O  514   5.040   5.547   5.382
   24DAL      N  515   5.209   5.495   5.523
   24DAL     HN  516   5.166   5.553   5.527
   24DAL     CA  517   5.233   5.497   5.659
   24DAL     HA  518   5.242   5.355   5.702
   24DAL     CB  519   5.188   5.638   5.732
   24DAL    HB1  520   5.108   5.671   5.696
   24DAL    HB2  521   5.098   5.572   5.716
   24DAL    HB3  522   5.137   5.573   5.841
   24DAL      C  523   5.363   5.575   5.682
   24DAL    OC1  524   5.454   5.550   5.760
   24DAL    OC2  525   5.379   5.685   5.611
   25NAG     C1  526   5.468   5.695   5.295
   25NAG     H1  527   5.477   5.704   5.406
   25NAG     C5  528   5.585   5.488   5.309
   25NAG     H5  529   5.593   5.497   5.420
   25NAG     O5  530   5.579   5.617   5.248
   25NAG     C2  531   5.340   5.626   5.258
   25NAG     H2  532   5.339   5.616   5.146
   25NAG     NC  533   5.225   5.705   5.300
   25NAG     HN  534   5.229   5.748   5.390
   25NAG     CM  535   5.113   5.685   5.226
   25NAG     OM  536   5.098   5.677   5.114
   25NAG     CC  537   5.005   5.731   5.289
   25NAG    HC1  538   5.002   5.790   5.398
   25NAG    HC2  539   4.908   5.787   5.243
   25NAG    HC3  540   5.030   5.837   5.272
   25NAG     C3  541   5.339   5.488   5.320
   25NAG     H3  542   5.342   5.499   5.430
   25NAG     O3  543   5.218   5.422   5.288
   25NAG    HO3  544   5.222   5.391   5.196
   25NAG     C4  545   5.459   5.411   5.273
   25NAG     H4  546   5.448   5.410   5.163
   25NAG     O4  547   5.463   5.282   5.329
   25NAG     C6  548   5.712   5.419   5.261
   25NAG    H61  549   5.720   5.320   5.308
   25NAG    H62  550   5.711   5.405   5.151
   25NAG     O6  551   5.828   5.494   5.297
   25NAG    HO6  552   5.829   5.577   5.247
   26NAM     C1  553   5.509   6.222   5.251
   26NAM     H1  554   5.496   6.225   5.141
   26NAM     C5  555   5.389   6.018   5.259
   26NAM     H5  556   5.376   6.029   5.149
   26NAM     O5  557   5.405   6.149   5.317
   26NAM     C2  558   5.640   6.154   5.291
   26NAM     H2  559   5.639   6.151   5.402
   26NAM     NC  560   5.751   6.231   5.237
   26NAM     HN  561   5.746   6.269   5.145
   26NAM     CM  562   5.853   6.282   5.309
   26NAM     OM  563   5.854   6.281   5.432
   26NAM     CC  564   5.968   6.341   5.232
   26NAM    HC1  565   5.964   6.311   5.125
   26NAM    HC2  566   6.064   6.308   5.276
   26NAM    HC3  567   5.964   6.452   5.239
   26NAM     C3  568   5.637   6.011   5.238
   26NAM     H3  569   5.633   6.020   5.127
   26NAM     O3  570   5.753   5.932   5.266
   26NAM     CA  571   5.772   5.882   5.399
   26NAM     HA  572   5.685   5.852   5.455
   26NAM      C  573   5.867   5.759   5.399
   26NAM      O  574   5.871   5.681   5.492
   26NAM     CB  575   5.836   5.992   5.486
   26NAM    HB1  576   5.760   6.047   5.543
   26NAM    HB2  577   5.912   5.954   5.557
   26NAM    HB3  578   5.890   6.060   5.417
   26NAM     C4  579   5.513   5.937   5.281
   26NAM     H4  580   5.515   5.920   5.391
   26NAM     O4  581   5.501   5.810   5.217
   26NAM     C6  582   5.270   5.948   5.322
   26NAM    H61  583   5.244   5.861   5.257
   26NAM    H62  584   5.297   5.905   5.421
   26NAM     O6  585   5.158   6.033   5.340
   26NAM    HO6  586   5.161   6.102   5.273
   27ALA      N  587   5.978   5.769   5.309
   27ALA     HN  588   5.972   5.696   5.241
   27ALA     CA  589   6.104   5.757   5.387
   27ALA     HA  590   6.106   5.845   5.457
   27ALA     CB  591   6.116   5.628   5.467
   27ALA    HB1  592   6.035   5.619   5.540
   27ALA    HB2  593   6.114   5.539   5.403
   27ALA    HB3  594   6.211   5.625   5.523
   27ALA      C  595   6.221   5.767   5.290
   27ALA      O  596   6.244   5.702   5.190
   28GLN      N  597   6.319   5.867   5.321
   28GLN     HN  598   6.339   5.951   5.272
   28GLN     CA  599   6.381   5.815   5.445
   28GLN     HA  600   6.482   5.860   5.465
   28GLN     CD  601   6.402   5.665   5.424
   28GLN    OE1  602   6.509   5.634   5.347
   28GLN    NE2  603   6.338   5.570   5.466
   28GLN   HE21  604   6.343   5.575   5.504
   28GLN   HE22  605   6.345   5.577   5.564
   28GLN     CB  606   6.292   5.840   5.567
   28GLN    HB1  607   6.186   5.815   5.544
   28GLN    HB2  608   6.321   5.770   5.649
   28GLN     CG  609   6.303   5.984   5.617
   28GLN    HG1  610   6.409   6.009   5.639
   28GLN    HG2  611   6.270   6.055   5.539
   28GLN      C  612   6.222   6.002   5.742
   28GLN      O  613   6.254   5.979   5.858
   29LYS      N  614   6.107   5.958   5.729
   29LYS     HN  615   6.075   5.878   5.816
   29LYS     CA  616   6.098   6.116   5.669
   29LYS     HA  617   5.984   6.194   5.676
   29LYS     CB  618   6.098   6.197   5.825
   29LYS    HB1  619   6.108   6.299   5.791
   29LYS    HB2  620   6.196   6.151   5.833
   29LYS     CG  621   6.071   6.197   5.979
   29LYS    HG1  622   6.077   6.081   5.999
   29LYS    HG2  623   5.984   6.225   5.949
   29LYS     CD  624   6.121   6.342   6.064
   29LYS    HD1  625   6.182   6.403   5.986
   29LYS    HD2  626   6.223   6.309   6.100
   29LYS     CE  627   6.131   6.464   6.166
   29LYS    HE1  628   6.205   6.527   6.121
   29LYS    HE2  629   6.043   6.375   6.284
   29LYS     NZ  630   6.007   6.545   6.229
   29LYS    HZ1  631   5.990   6.630   6.224
   29LYS    HZ2  632   5.918   6.517   6.249
   29LYS    HZ3  633   5.981   6.538   6.327
   29LYS      C  634   6.102   6.220   5.542
   29LYS      O  635   6.159   6.195   5.478
   30DAL      N  636   6.069   6.327   5.506
   30DAL     HN  637   6.112   6.385   5.510
   30DAL     CA  638   5.986   6.422   5.593
   30DAL     HA  639   5.947   6.361   5.692
   30DAL     CB  640   6.050   6.517   5.682
   30DAL    HB1  641   6.046   6.617   5.649
   30DAL    HB2  642   6.173   6.587   5.726
   30DAL    HB3  643   6.062   6.524   5.784
   30DAL      C  644   5.945   6.466   5.468
   30DAL      O  645   5.986   6.587   5.382
   30DAL      N  646   5.817   6.535   5.523
   30DAL     HN  647   5.860   6.593   5.527
   30DAL     CA  648   5.793   6.537   5.659
   30DAL     HA  649   5.784   6.395   5.702
   30DAL     CB  650   5.838   6.678   5.732
   30DAL    HB1  651   5.918   6.711   5.696
   30DAL    HB2  652   5.928   6.612   5.716
   30DAL    HB3  653   5.889   6.613   5.841
   30DAL      C  654   5.663   6.615   5.682
   30DAL    OC1  655   5.572   6.590   5.760
   30DAL    OC2  656   5.647   6.725   5.611
   31NAG     C1  657   5.433   6.735   5.295
   31NAG     H1  658   5.424   6.744   5.406
   31NAG     C5  659   5.316   6.528   5.309
   31NAG     H5  660   5.308   6.537   5.420
   31NAG     O5  661   5.322   6.657   5.248
   31NAG     C2  662   5.561   6.666   5.258
   31NAG     H2  663   5.562   6.656   5.146
   31NAG     NC  664   5.676   6.745   5.300
   31NAG     HN  665   5.672   6.788   5.390
   31NAG     CM  666   5.788   6.725   5.226
   31NAG     OM  667   5.803   6.717   5.114
   31NAG     CC  668   5.896   6.771   5.289
   31NAG    HC1  669   5.899   6.830   5.398
   31NAG    HC2  670   5.993   6.827   5.243
   31NAG    HC3  671   5.900   6.877   5.272
   31NAG     C3  672   5.562   6.528   5.320
   31NAG     H3  673   5.559   6.539   5.430
   31NAG     O3  674   5.683   6.462   5.288
   31NAG    HO3  675   5.679   6.431   5.196
   31NAG     C4  676   5.442   6.451   5.273
   31NAG     H4  677   5.453   6.450   5.163
   31NAG     O4  678   5.438   6.322   5.329
   31NAG     C6  679   5.189   6.459   5.261
   31NAG    H61  680   5.181   6.360   5.308
   31NAG    H62  681   5.190   6.445   5.151
   31NAG     O6  682   5.073   6.534   5.297
   31NAG    HO6  683   5.072   6.617   5.247
   32NAM     C1  684   5.517   7.262   5.251
   32NAM     H1  685   5.530   7.265   5.141
   32NAM     C5  686   5.637   7.058   5.259
   32NAM     H5  687   5.650   7.069   5.149
   32NAM     O5  688   5.621   7.189   5.317
   32NAM     C2  689   5.386   7.194   5.291
   32NAM     H2  690   5.387   7.191   5.402
   32NAM     NC  691   5.275   7.271   5.237
   32NAM     HN  692   5.280   7.309   5.145
   32NAM     CM  693   5.173   7.322   5.309
   32NAM     OM  694   5.172   7.321   5.432
   32NAM     CC  695   5.058   7.381   5.232
   32NAM    HC1  696   5.062   7.351   5.125
   32NAM    HC2  697   4.962   7.348   5.276
   32NAM    HC3  698   5.062   7.492   5.239
   32NAM     C3  699   5.389   7.051   5.238
   32NAM     H3  700   5.393   7.060   5.127
   32NAM     O3  701   5.273   6.972   5.266
   32NAM     CA  702   5.254   6.922   5.399
   32NAM     HA  703   5.341   6.892   5.455
   32NAM      C  704   5.159   6.799   5.399
   32NAM      O  705   5.155   6.721   5.492
   32NAM     CB  706   5.190   7.032   5.486
   32NAM    HB1  707   5.266   7.087   5.543
   32NAM    HB2  708   5.114   6.994   5.557
   32NAM    HB3  709   5.136   7.100   5.417
   32NAM     C4  710   5.513   6.977   5.281
   32NAM     H4  711   5.511   6.960   5.391
   32NAM     O4  712   5.525   6.850   5.217
   32NAM     C6  713   5.756   6.988   5.322
   32NAM    H61  714   5.782   6.901   5.257
   32NAM    H62  715   5.729   6.945   5.421
   32NAM     O6  716   5.868   7.073   5.340
   32NAM    HO6  717   5.865   7.142   5.273
   33ALA      N  718   5.048   6.809   5.309
   33ALA     HN  719   5.054   6.736   5.241
   33ALA     CA  720   4.922   6.797   5.387
   33ALA     HA  721   4.920   6.885   5.457
   33ALA     CB  722   4.910   6.668   5.467
   33ALA    HB1  723   4.991   6.659   5.540
   33ALA    HB2  724   4.912   6.579   5.403
   33ALA    HB3  725   4.815   6.665   5.523
   33ALA      C  726   4.805   6.807   5.290
   33ALA      O  727   4.782   6.742   5.190
   34GLN      N  728   4.707   6.907   5.321
   34GLN     HN  729   4.687   6.991   5.272
   34GLN     CA  730   4.645   6.855   5.445
   34GLN     HA  731   4.544   6.900   5.465
   34GLN     CD  732   4.624   6.705   5.424
   34GLN    OE1  733   4.517   6.674   5.347
   34GLN    NE2  734   4.688   6.610   5.466
   34GLN   HE21  735   4.693   6.615   5.504
   34GLN   HE22  736   4.698   6.617   5.564
   34GLN     CB  737   4.734   6.880   5.567
   34GLN    HB1  738   4.840   6.855   5.544
   34GLN    HB2  739   4.705   6.810   5.649
   34GLN     CG  740   4.723   7.024   5.617
   34GLN    HG1  741   4.617   7.049   5.639
   34GLN    HG2  742   4.756   7.095   5.539
   34GLN      C  743   4.804   7.042   5.742
   34GLN      O  744   4.772   7.019   5.858
   35LYS      N  745   4.919   6.998   5.729
   35LYS     HN  746   4.951   6.918   5.816
   35LYS     CA  747   4.928   7.156   5.669
   35LYS     HA  748   5.042   7.234   5.676
   35LYS     CB  749   4.928   7.237   5.825
   35LYS    HB1  750   4.918   7.339   5.791
   35LYS    HB2  751   4.830   7.191   5.833
   35LYS     CG  752   4.955   7.237   5.979
   35LYS    HG1  753   4.949   7.121   5.999
   35LYS    HG2  754   5.042   7.265   5.949
   35LYS     CD  755   4.905   7.382   6.064
   35LYS    HD1  756   4.844   7.443   5.986
   35LYS    HD2  757   4.803   7.349   6.100
   35LYS     CE  758   4.895   7.504   6.166
   35LYS    HE1  759   4.821   7.567   6.121
   35LYS    HE2  760   4.983   7.415   6.284
   35LYS     NZ  761   5.019   7.585   6.229
   35LYS    HZ1  762   5.036   7.670   6.224
   35LYS    HZ2  763   5.108   7.557   6.249
   35LYS    HZ3  764   5.045   7.578   6.327
   35LYS      C  765   4.924   7.260   5.542
   35LYS      O  766   4.867   7.235   5.478
   36DAL      N  767   4.957   7.367   5.506
   36DAL     HN  768   4.914   7.425   5.510
   36DAL     CA  769   5.040   7.462   5.593
   36DAL     HA  770   5.079   7.401   5.692
   36DAL     CB  771   4.976   7.557   5.682
   36DAL    HB1  772   4.980   7.657   5.649
   36DAL    HB2  773   4.853   7.627   5.726
   36DAL    HB3  774   4.964   7.564   5.784
   36DAL      C  775   5.081   7.506   5.468
   36DAL      O  776   5.040   7.627   5.382
   36DAL      N  777   5.209   7.575   5.523
   36DAL     HN  778   5.166   7.633   5.527
   36DAL     CA  779   5.233   7.577   5.659
   36DAL     HA  780   5.242   7.435   5.702
   36DAL     CB  781   5.188   7.718   5.732
   36DAL    HB1  782   5.108   7.751   5.696
   36DAL    HB2  783   5.098   7.652   5.716
   36DAL    HB3  784   5.137   7.653   5.841
   36DAL      C  785   5.363   7.655   5.682
   36DAL    OC1  786   5.454   7.630   5.760
   36DAL    OC2  787   5.379   7.765   5.611
   37NAG     C1  788   5.468   7.775   5.295
   37NAG     H1  789   5.477   7.784   5.406
   37NAG     C5  790   5.585   7.568   5.309
   37NAG     H5  791   5.593   7.577   5.420
   37NAG     O5  792   5.579   7.697   5.248
   37NAG     C2  793   5.340   7.706   5.258
   37NAG     H2  794   5.339   7.696   5.146
   37NAG     NC  795   5.225   7.785   5.300
   37NAG     HN  796   5.229   7.828   5.390
   37NAG     CM  797   5.113   7.765   5.226
   37NAG     OM  798   5.098   7.757   5.114
   37NAG     CC  799   5.005   7.811   5.289
   37NAG    HC1  800   5.002   7.870   5.398
   37NAG    HC2  801   4.908   7.867   5.243
   37NAG    HC3  802   5.030   7.917   5.272
   37NAG     C3  803   5.339   7.568   5.320
   37NAG     H3  804   5.342   7.579   5.430
   37NAG     O3  805   5.218   7.502   5.288
   37NAG    HO3  806   5.222   7.471   5.196
   37NAG     C4  807   5.459   7.491   5.273
   37NAG     H4  808   5.448   7.490   5.163
   37NAG     O4  809   5.463   7.362   5.329
   37NAG     C6  810   5.712   7.499   5.261
   37NAG    H61  811   5.720   7.400   5.308
   37NAG    H62  812   5.711   7.485   5.151
   37NAG     O6  813   5.828   7.574   5.297
   37NAG    HO6  814   5.829   7.657   5.247
   38NAM     C1  815   5.509   8.302   5.251
   38NAM     H1  816   5.496   8.305   5.141
   38NAM     C5  817   5.389   8.098   5.259
   38NAM     H5  818   5.376   8.109   5.149
   38NAM     O5  819   5.405   8.229   5.317
   38NAM     C2  820   5.640   8.234   5.291
   38NAM     H2  821   5.639   8.231   5.402
   38NAM     NC  822   5.751   8.311   5.237
   38NAM     HN  823   5.746   8.349   5.145
   38NAM     CM  824   5.853   8.362   5.309
   38NAM     OM  825   5.854   8.361   5.432
   38NAM     CC  826   5.968   8.421   5.232
   38NAM    HC1  827   5.964   8.391   5.125
   38NAM    HC2  828   6.064   8.388   5.276
   38NAM    HC3  829   5.964   8.532   5.239
   38NAM     C3  830   5.637   8.091   5.238
   38NAM     H3  831   5.633   8.100   5.127
   38NAM     O3  832   5.753   8.012   5.266
   38NAM     CA  833   5.772   7.962   5.399
   38NAM     HA  834   5.685   7.932   5.455
   38NAM      C  835   5.867   7.839   5.399
   38NAM      O  836   5.871   7.761   5.492
   38NAM     CB  837   5.836   8.072   5.486
   38NAM    HB1  838   5.760   8.127   5.543
   38NAM    HB2  839   5.912   8.034   5.557
   38NAM    HB3  840   5.890   8.140   5.417
   38NAM     C4  841   5.513   8.017   5.281
   38NAM     H4  842   5.515   8.000   5.391
   38NAM     O4  843   5.501   7.890   5.217
   38NAM     C6  844   5.270   8.028   5.322
   38NAM    H61  845   5.244   7.941   5.257
   38NAM    H62  846   5.297   7.985   5.421
   38NAM     O6  847   5.158   8.113   5.340
   38NAM    HO6  848   5.161   8.182   5.273
   39ALA      N  849   5.978   7.849   5.309
   39ALA     HN  850   5.972   7.776   5.241
   39ALA     CA  851   6.104   7.837   5.387
   39ALA     HA  852   6.106   7.925   5.457
   39ALA     CB  853   6.116   7.708   5.467
   39ALA    HB1  854   6.035   7.699   5.540
   39ALA    HB2  855   6.114   7.619   5.403
   39ALA    HB3  856   6.211   7.705   5.523
   39ALA      C  857   6.221   7.847   5.290
   39ALA      O  858   6.244   7.782   5.190
   40GLN      N  859   6.319   7.947   5.321
   40GLN     HN  860   6.339   8.031   5.272
   40GLN     CA  861   6.381   7.895   5.445
   40GLN     HA  862   6.482   7.940   5.465
   40GLN     CD  863   6.402   7.745   5.424
   40GLN    OE1  864   6.509   7.714   5.347
   40GLN    NE2  865   6.338   7.650   5.466
   40GLN   HE21  866   6.343   7.655   5.504
   40GLN   HE22  867   6.345   7.657   5.564
   40GLN     CB  868   6.292   7.920   5.567
   40GLN    HB1  869   6.186   7.895   5.544
   40GLN    HB2  870   6.321   7.850   5.649
   40GLN     CG  871   6.303   8.064   5.617
   40GLN    HG1  872   6.409   8.089   5.639
   40GLN    HG2  873   6.270   8.135   5.539
   40GLN      C  874   6.222   8.082   5.742
   40GLN      O  875   6.254   8.059   5.858
   41LYS      N  876   6.107   8.038   5.729
   41LYS     HN  877   6.075   7.958   5.816
   41LYS     CA  878   6.098   8.196   5.669
   41LYS     HA  879   5.984   8.274   5.676
   41LYS     CB  880   6.098   8.277   5.825
   41LYS    HB1  881   6.108   8.379   5.791
   41LYS    HB2  882   6.196   8.231   5.833
   41LYS     CG  883   6.071   8.277   5.979
   41LYS    HG1  884   6.077   8.161   5.999
   41LYS    HG2  885   5.984   8.305   5.949
   41LYS     CD  886   6.121   8.422   6.064
   41LYS    HD1  887   6.182   8.483   5.986
   41LYS    HD2  888   6.223   8.389   6.100
   41LYS     CE  889   6.131   8.544   6.166
   41LYS    HE1  890   6.205   8.607   6.121
   41LYS    HE2  891   6.043   8.455   6.284
   41LYS     NZ  892   6.007   8.625   6.229
   41LYS    HZ1  893   5.990   8.710   6.224
   41LYS    HZ2  894   5.918   8.597   6.249
   41LYS    HZ3  895   5.981   8.618   6.327
   41LYS      C  896   6.102   8.300   5.542
   41LYS      O  897   6.159   8.275   5.478
   42DAL      N  898   6.069   8.407   5.506
   42DAL     HN  899   6.112   8.465   5.510
   42DAL     CA  900   5.986   8.502   5.593
   42DAL     HA  901   5.947   8.441   5.692
   42DAL     CB  902   6.050   8.597   5.682
   42DAL    HB1  903   6.046   8.697   5.649
   42DAL    HB2  904   6.173   8.667   5.726
   42DAL    HB3  905   6.062   8.604   5.784
   42DAL      C  906   5.945   8.546   5.468
   42DAL      O  907   5.986   8.667   5.382
   42DAL      N  908   5.817   8.615   5.523
   42DAL     HN  909   5.860   8.673   5.527
   42DAL     CA  910   5.793   8.617   5.659
   42DAL     HA  911   5.784   8.475   5.702
   42DAL     CB  912   5.838   8.758   5.732
   42DAL    HB1  913   5.918   8.791   5.696
   42DAL    HB2  914   5.928   8.692   5.716
   42DAL    HB3  915   5.889   8.693   5.841
   42DAL      C  916   5.663   8.695   5.682
   42DAL    OC1  917   5.572   8.670   5.760
   42DAL    OC2  918   5.647   8.805   5.611
   43NAG     C1  919   5.433   8.815   5.295
   43NAG     H1  920   5.424   8.824   5.406
   43NAG     C5  921   5.316   8.608   5.309
   43NAG     H5  922   5.308   8.617   5.420
   43NAG     O5  923   5.322   8.737   5.248
   43NAG     C2  924   5.561   8.746   5.258
   43NAG     H2  925   5.562   8.736   5.146
   43NAG     NC  926   5.676   8.825   5.300
   43NAG     HN  927   5.672   8.868   5.390
   43NAG     CM  928   5.788   8.805   5.226
   43NAG     OM  929   5.803   8.797   5.114
   43NAG     CC  930   5.896   8.851   5.289
   43NAG    HC1  931   5.899   8.910   5.398
   43NAG    HC2  932   5.993   8.907   5.243
   43NAG    HC3  933   5.900   8.957   5.272
   43NAG     C3  934   5.562   8.608   5.320
   43NAG     H3  935   5.559   8.619   5.430
   43NAG     O3  936   5.683   8.542   5.288
   43NAG    HO3  937   5.679   8.511   5.196
   43NAG     C4  938   5.442   8.531   5.273
   43NAG     H4  939   5.453   8.530   5.163
   43NAG     O4  940   5.438   8.402   5.329
   43NAG     C6  941   5.189   8.539   5.261
   43NAG    H61  942   5.181   8.440   5.308
   43NAG    H62  943   5.190   8.525   5.151
   43NAG     O6  944   5.073   8.614   5.297
   43NAG    HO6  945   5.072   8.697   5.247
   44NAM     C1  946   5.517   9.342   5.251
   44NAM     H1  947   5.530   9.345   5.141
   44NAM     O1  948   5.519   9.474   5.300
   44NAM    HO1  949   5.502   9.472   5.374
   44NAM     C5  950   5.637   9.138   5.259
   44NAM     H5  951   5.650   9.149   5.149
   44NAM     O5  952   5.621   9.269   5.317
   44NAM     C2  953   5.386   9.274   5.291
   44NAM     H2  954   5.387   9.271   5.402
   44NAM     NC  955   5.275   9.351   5.237
   44NAM     HN  956   5.280   9.389   5.145
   44NAM     CM  957   5.173   9.402   5.309
   44NAM     OM  958   5.172   9.401   5.432
   44NAM     CC  959   5.058   9.461   5.232
   44NAM    HC1  960   5.062   9.431   5.125
   44NAM    HC2  961   4.962   9.428   5.276
   44NAM    HC3  962   5.062   9.572   5.239
   44NAM     C3  963   5.389   9.131   5.238
   44NAM     H3  964   5.393   9.140   5.127
   44NAM     O3  965   5.273   9.052   5.266
   44NAM     CA  966   5.254   9.002   5.399
   44NAM     HA  967   5.341   8.972   5.455
   44NAM      C  968   5.159   8.879   5.399
   44NAM      O  969   5.155   8.801   5.492
   44NAM     CB  970   5.190   9.112   5.486
   44NAM    HB1  971   5.266   9.167   5.543
   44NAM    HB2  972   5.114   9.074   5.557
   44NAM    HB3  973   5.136   9.180   5.417
   44NAM     C4  974   5.513   9.057   5.281
   44NAM     H4  975   5.511   9.040   5.391
   44NAM     O4  976   5.525   8.930   5.217
   44NAM     C6  977   5.756   9.068   5.322
   44NAM    H61  978   5.782   8.981   5.257
   44NAM    H62  979   5.729   9.025   5.421
   44NAM     O6  980   5.868   9.153   5.340
   44NAM    HO6  981   5.865   9.222   5.273
   45ALA      N  982   5.048   8.889   5.309
   45ALA     HN  983   5.054   8.816   5.241
   45ALA     CA  984   4.922   8.877   5.387
   45ALA     HA  985   4.920   8.965   5.457
   45ALA     CB  986   4.910   8.748   5.467
   45ALA    HB1  987   4.991   8.739   5.540
   45ALA    HB2  988   4.912   8.659   5.403
   45ALA    HB3  989   4.815   8.745   5.523
   45ALA      C  990   4.805   8.887   5.290
   45ALA      O  991   4.782   8.822   5.190
   46GLN      N  992   4.707   8.987   5.321
   46GLN     HN  993   4.687   9.071   5.272
   46GLN     CA  994   4.645   8.935   5.445
   46GLN     HA  995   4.544   8.980   5.465
   46GLN     CD  996   4.624   8.785   5.424
   46GLN    OE1  997   4.517   8.754   5.347
   46GLN    NE2  998   4.688   8.690   5.466
   46GLN   HE21  999   4.693   8.695   5.504
   46GLN   HE22 1000   4.698   8.697   5.564
   46GLN     CB 1001   4.734   8.960   5.567
   46GLN    HB1 1002   4.840   8.935   5.544
   46GLN    HB2 1003   4.705   8.890   5.649
   46GLN     CG 1004   4.723   9.104   5.617
   46GLN    HG1 1005   4.617   9.129   5.639
   46GLN    HG2 1006   4.756   9.175   5.539
   46GLN      C 1007   4.804   9.122   5.742
   46GLN      O 1008   4.772   9.099   5.858
   47LYS      N 1009   4.919   9.078   5.729
   47LYS     HN 1010   4.951   8.998   5.816
   47LYS     CA 1011   4.928   9.236   5.669
   47LYS     HA 1012   5.042   9.314   5.676
   47LYS     CB 1013   4.928   9.317   5.825
   47LYS    HB1 1014   4.918   9.419   5.791
   47LYS    HB2 1015   4.830   9.271   5.833
   47LYS     CG 1016   4.955   9.317   5.979
   47LYS    HG1 1017   4.949   9.201   5.999
   47LYS    HG2 1018   5.042   9.345   5.949
   47LYS     CD 1019   4.905   9.462   6.064
   47LYS    HD1 1020   4.844   9.523   5.986
   47LYS    HD2 1021   4.803   9.429   6.100
   47LYS     CE 1022   4.895   9.584   6.166
   47LYS    HE1 1023   4.821   9.647   6.121
   47LYS    HE2 1024   4.983   9.495   6.284
   47LYS     NZ 1025   5.019   9.665   6.229
   47LYS    HZ1 1026   5.036   9.750   6.224
   47LYS    HZ2 1027   5.108   9.637   6.249
   47LYS    HZ3 1028   5.045   9.658   6.327
   47LYS      C 1029   4.924   9.340   5.542
   47LYS      O 1030   4.867   9.315   5.478
   48DAL      N 1031   4.957   9.447   5.506
   48DAL     HN 1032   4.914   9.505   5.510
   48DAL     CA 1033   5.040   9.542   5.593
   48DAL     HA 1034   5.079   9.481   5.692
   48DAL     CB 1035   4.976   9.637   5.682
   48DAL    HB1 1036   4.980   9.737   5.649
   48DAL    HB2 1037   4.853   9.707   5.726
   48DAL    HB3 1038   4.964   9.644   5.784
   48DAL      C 1039   5.081   9.586   5.468
   48DAL      O 1040   5.040   9.707   5.382
   48DAL      N 1041   5.209   9.655   5.523
   48DAL     HN 1042   5.166   9.713   5.527
   48DAL     CA 1043   5.233   9.657   5.659
   48DAL     HA 1044   5.242   9.515   5.702
   48DAL     CB 1045   5.188   9.798   5.732
   48DAL    HB1 1046   5.108   9.831   5.696
   48DAL    HB2 1047   5.098   9.732   5.716
   48DAL    HB3 1048   5.137   9.733   5.841
   48DAL      C 1049   5.363   9.735   5.682
   48DAL    OC1 1050   5.454   9.710   5.760
   48DAL    OC2 1051   5.379   9.845   5.611
  11.00000  11.00000  11.00000
