glycan in water
129823
    1NAG     C1    1   4.974   1.895   2.519  0.0482  0.1660 -0.6782
    1NAG     H1    2   4.904   1.972   2.559 -0.0391 -0.4839  0.4506
    1NAG     C5    3   4.870   1.732   2.662  0.7395 -0.7013 -0.9930
    1NAG     H5    4   4.810   1.809   2.715  1.9157  0.3277 -1.1122
    1NAG     O5    5   4.995   1.791   2.622  0.1352  0.6113  0.0063
    1NAG     C2    6   4.905   1.842   2.390  0.2943 -1.2039  0.1241
    1NAG     H2    7   4.970   1.763   2.347  2.3003 -0.2993  1.3086
    1NAG     NC    8   4.888   1.939   2.281 -0.0202  0.2174 -0.4764
    1NAG     HN    9   4.969   1.931   2.223  0.1672  1.6966 -0.4627
    1NAG     CM   10   4.800   2.037   2.264  0.4551 -0.6894  0.2938
    1NAG     OM   11   4.728   2.076   2.359 -0.6267 -0.2135 -0.0736
    1NAG     CC   12   4.780   2.096   2.126 -0.2631  0.1472 -0.0959
    1NAG    HC1   13   4.672   2.125   2.120 -0.5042 -0.8929 -1.1307
    1NAG    HC2   14   4.813   2.028   2.044  1.8734  0.4157  0.4942
    1NAG    HC3   15   4.842   2.188   2.120  1.1352 -0.7347  0.3828
    1NAG     C3   16   4.775   1.775   2.435 -0.1744  0.0058 -0.2500
    1NAG     H3   17   4.729   1.858   2.493  2.4444 -0.2669  2.4568
    1NAG     O3   18   4.703   1.729   2.322 -0.6679  0.1417 -0.0482
    1NAG    HO3   19   4.624   1.782   2.333 -1.2351 -1.0282  1.9871
    1NAG     C4   20   4.799   1.671   2.543 -0.3679  0.3273  0.5577
    1NAG     H4   21   4.866   1.599   2.493 -0.6612  0.8785 -0.6540
    1NAG     O4   22   4.679   1.611   2.586 -0.7120  0.0781 -0.4818
    1NAG    HO4   23   4.678   1.528   2.537 -0.1391 -0.0672 -0.2601
    1NAG     C6   24   4.915   1.632   2.766  0.3169  0.4358  0.3069
    1NAG    H61   25   4.978   1.688   2.838  1.3491  2.0449 -1.7558
    1NAG    H62   26   4.822   1.585   2.805  0.2162 -0.7399 -1.2363
    1NAG     O6   27   4.978   1.518   2.713 -0.3265  0.3693  0.0968
    1NAG    HO6   28   5.069   1.539   2.689 -0.4226 -0.0573 -0.6967
    2NAM     C1   29   5.336   2.253   2.656  0.2762 -0.2914 -0.7934
    2NAM     H1   30   5.366   2.297   2.559  1.2400  0.7400 -0.0635
    2NAM     C5   31   5.126   2.191   2.584 -0.2262 -0.2575 -0.2998
    2NAM     H5   32   5.162   2.228   2.486 -0.4025  0.6976 -0.0148
    2NAM     O5   33   5.196   2.266   2.683 -0.6194 -0.2185 -0.9581
    2NAM     C2   34   5.382   2.112   2.653 -0.0334  0.4252  0.6511
    2NAM     H2   35   5.375   2.059   2.751 -1.1237 -1.6656 -0.4643
    2NAM     NC   36   5.512   2.119   2.585 -0.8574  0.2952 -0.1521
    2NAM     HN   37   5.530   2.105   2.488 -0.0002  0.3756 -0.0189
    2NAM     CM   38   5.633   2.135   2.645 -0.1352 -1.2217  0.0782
    2NAM     OM   39   5.650   2.114   2.761 -0.0307  0.0618  0.5174
    2NAM     CC   40   5.752   2.178   2.558  0.4186 -0.0467  0.2584
    2NAM    HC1   41   5.827   2.097   2.549  0.3533 -0.2740  1.5357
    2NAM    HC2   42   5.805   2.264   2.603  0.3513  0.2263 -0.1779
    2NAM    HC3   43   5.709   2.209   2.460  0.3670 -2.5695 -0.6031
    2NAM     C3   44   5.298   2.025   2.567 -0.5094 -0.0443 -0.0269
    2NAM     H3   45   5.300   2.072   2.466 -0.4372 -0.3239 -0.1565
    2NAM     O3   46   5.353   1.888   2.549 -0.2142 -0.8855  0.0741
    2NAM     CA   47   5.336   1.797   2.655  0.0186 -0.2571 -0.3161
    2NAM     HA   48   5.265   1.825   2.731 -2.9121 -1.9800 -2.2297
    2NAM      C   49   5.288   1.659   2.599 -0.3267  0.1164 -0.3245
    2NAM      O   50   5.249   1.574   2.682 -0.2495  0.1771 -0.1572
    2NAM     CB   51   5.480   1.786   2.715 -0.1883 -0.0840 -0.4908
    2NAM    HB1   52   5.500   1.879   2.773 -1.8560 -1.1781  1.9798
    2NAM    HB2   53   5.490   1.706   2.791 -1.1047  1.6464  1.5682
    2NAM    HB3   54   5.555   1.769   2.634 -0.2495 -0.1545 -0.5321
    2NAM     C4   55   5.154   2.038   2.588 -0.0834  1.1246  0.4081
    2NAM     H4   56   5.125   2.005   2.690  1.4497  1.4161  0.9614
    2NAM     O4   57   5.090   1.958   2.485  0.6418  0.2938 -0.0111
    2NAM     C6   58   4.978   2.228   2.595  0.0318  0.3897  0.4699
    2NAM    H61   59   4.962   2.337   2.579  0.2794  0.1623 -1.6294
    2NAM    H62   60   4.921   2.174   2.517  1.4303 -2.0609  1.0280
    2NAM     O6   61   4.932   2.184   2.726 -0.7507  0.0257  0.3954
    2NAM    HO6   62   4.977   2.239   2.792 -2.8352  1.5347  0.6710
    3ALA      N   63   5.285   1.640   2.466  0.0257  0.1784 -0.0204
    3ALA     HN   64   5.296   1.721   2.408  1.6824 -0.1480 -0.2203
    3ALA     CA   65   5.256   1.518   2.388 -0.0082 -0.7461 -0.0384
    3ALA     HA   66   5.148   1.510   2.391 -0.1759  0.9218 -0.5990
    3ALA     CB   67   5.307   1.538   2.246  0.5955 -0.4630  0.1044
    3ALA    HB1   68   5.225   1.557   2.173  2.4260 -0.3976 -2.0423
    3ALA    HB2   69   5.362   1.635   2.241 -0.1271 -0.0985 -2.1793
    3ALA    HB3   70   5.366   1.454   2.204 -2.1423 -2.0828 -0.7381
    3ALA      C   71   5.316   1.386   2.436  0.0689  0.4493  0.7192
    3ALA      O   72   5.410   1.371   2.514 -0.0321 -0.2367  0.4296
    4GLN      N   73   5.273   1.269   2.394 -0.5968  0.6769 -0.3454
    4GLN     HN   74   5.327   1.190   2.423  1.0688  2.1747  0.8026
    4GLN     CA   75   5.161   1.244   2.310 -0.0295 -0.3339  0.2186
    4GLN     HA   76   5.192   1.289   2.217  1.0027 -0.6080  0.4239
    4GLN     CD   77   5.018   1.297   2.352  0.2583 -0.1414  0.7522
    4GLN    OE1   78   4.971   1.390   2.284  0.0747 -0.5396 -0.8852
    4GLN    NE2   79   4.946   1.240   2.448 -1.1338 -0.3300 -0.0567
    4GLN   HE21   80   4.862   1.290   2.468 -0.8058  0.5028 -0.7163
    4GLN   HE22   81   4.973   1.148   2.479  1.6624  0.8059  1.2056
    4GLN     CB   82   5.156   1.092   2.275 -0.8578  0.7283  0.5919
    4GLN    HB1   83   5.125   1.031   2.362 -1.3269  1.7192  1.1409
    4GLN    HB2   84   5.076   1.082   2.200  0.0110  1.1809 -0.4243
    4GLN     CG   85   5.286   1.021   2.214  0.3947  0.1045  0.4443
    4GLN    HG1   86   5.306   1.053   2.110 -0.3261  0.4202  0.3949
    4GLN    HG2   87   5.376   1.044   2.276 -0.9803  0.5195  2.3870
    4GLN      C   88   5.266   0.875   2.199  0.2059  1.0131  0.9931
    4GLN      O   89   5.221   0.821   2.097 -0.0299 -0.2317  0.2923
    5LYS      N   90   5.311   0.792   2.293 -0.5624 -0.3740 -0.2083
    5LYS     HN   91   5.277   0.700   2.275  2.1212 -1.1401 -2.0761
    5LYS     CA   92   5.393   0.824   2.416  0.5606 -0.3565 -0.3301
    5LYS     HA   93   5.413   0.732   2.469 -3.0445 -0.3133  1.3981
    5LYS     CB   94   5.540   0.869   2.381 -0.5689  0.0742  0.6120
    5LYS    HB1   95   5.601   0.877   2.473  2.5157 -2.4566 -1.0147
    5LYS    HB2   96   5.546   0.965   2.326  0.1637 -0.5414 -0.4367
    5LYS     CG   97   5.619   0.766   2.290  0.3884 -0.6774 -0.8944
    5LYS    HG1   98   5.720   0.811   2.291 -0.0575  0.4532  2.3698
    5LYS    HG2   99   5.595   0.757   2.181  1.5355 -2.9039 -1.0155
    5LYS     CD  100   5.625   0.620   2.356 -0.2221  0.3574 -0.6420
    5LYS    HD1  101   5.524   0.579   2.338 -1.0899  2.1664 -0.1248
    5LYS    HD2  102   5.640   0.628   2.466 -0.6734 -1.6739 -0.3896
    5LYS     CE  103   5.726   0.536   2.275 -1.2557  0.2057 -0.3456
    5LYS    HE1  104   5.820   0.592   2.259 -0.7333 -0.3343  0.7457
    5LYS    HE2  105   5.691   0.505   2.174  0.3926 -1.3393 -0.4988
    5LYS     NZ  106   5.768   0.420   2.347  0.0812 -0.0441  0.0000
    5LYS    HZ1  107   5.694   0.351   2.372  1.2486 -0.9058  1.1493
    5LYS    HZ2  108   5.839   0.373   2.287  0.8397  1.6586 -0.5078
    5LYS    HZ3  109   5.816   0.444   2.435  0.2660  1.2061 -0.4231
    5LYS      C  110   5.333   0.919   2.508 -0.4143  0.4932 -0.1555
    5LYS      O  111   5.372   1.031   2.525 -0.2109 -0.6108 -0.3926
    6DAL      N  112   5.234   0.869   2.593  0.5565  0.2171  0.1232
    6DAL     HN  113   5.196   0.931   2.661  1.3712 -0.4309  1.2215
    6DAL     CA  114   5.161   0.749   2.602 -0.1422 -0.0352  0.4752
    6DAL     HA  115   5.235   0.670   2.599 -0.0446  0.0196  1.3780
    6DAL     CB  116   5.083   0.725   2.734 -0.7469  0.4304 -0.8411
    6DAL    HB1  117   4.997   0.790   2.762 -0.8244  0.1101 -0.3240
    6DAL    HB2  118   5.154   0.733   2.820 -0.6390 -1.7870 -0.6515
    6DAL    HB3  119   5.042   0.622   2.741 -3.4150  1.4567  0.0688
    6DAL      C  120   5.067   0.731   2.485  0.6503 -0.2253  0.1633
    6DAL      O  121   5.013   0.829   2.434 -0.1411  0.1623 -0.5296
    7DAL      N  122   5.042   0.611   2.436 -0.1948 -0.1614  0.3432
    7DAL     HN  123   4.965   0.612   2.373  0.7291  2.7904 -0.8881
    7DAL     CA  124   5.106   0.480   2.457  0.0374 -0.3562 -0.5785
    7DAL     HA  125   5.121   0.476   2.564 -0.6710  0.8747 -0.4102
    7DAL     CB  126   5.017   0.361   2.424 -0.4186 -0.4720  0.0815
    7DAL    HB1  127   4.985   0.372   2.318 -1.3425 -1.3829  0.2520
    7DAL    HB2  128   4.919   0.367   2.475 -0.7054  1.3789 -0.6268
    7DAL    HB3  129   5.056   0.259   2.445 -0.0347  0.1141  2.6007
    7DAL      C  130   5.244   0.467   2.393 -0.0058 -0.1175  0.0509
    7DAL    OC1  131   5.329   0.395   2.449  0.3708 -0.1382 -0.8083
    7DAL    OC2  132   5.261   0.523   2.282  0.1608  0.5005  0.6769
    8NAG     C1  133   5.453   2.689   2.932 -0.2153  0.8439  0.6305
    8NAG     H1  134   5.533   2.659   3.003 -1.1497  0.2488  1.4558
    8NAG     C5  135   5.361   2.482   2.946 -0.3733  0.7142  0.4583
    8NAG     H5  136   5.443   2.442   3.010  0.6743  0.1917 -1.1505
    8NAG     O5  137   5.333   2.615   2.961 -0.0664  0.2065  0.0341
    8NAG     C2  138   5.504   2.672   2.784 -0.1884 -0.5732 -0.6675
    8NAG     H2  139   5.425   2.720   2.722 -1.1191 -0.8200  0.3030
    8NAG     NC  140   5.631   2.751   2.781  0.0552 -0.0416 -0.1816
    8NAG     HN  141   5.680   2.756   2.868 -1.4407  2.1653  0.6064
    8NAG     CM  142   5.688   2.810   2.677  0.3745 -0.2191  0.2395
    8NAG     OM  143   5.628   2.840   2.571  0.0535  0.4893 -0.1077
    8NAG     CC  144   5.832   2.842   2.705  0.4735 -0.5016  0.4469
    8NAG    HC1  145   5.881   2.783   2.786  0.4559  0.0692  0.8827
    8NAG    HC2  146   5.880   2.828   2.606 -0.8069  0.8503 -0.4165
    8NAG    HC3  147   5.835   2.945   2.745 -1.7190 -0.4467  0.6041
    8NAG     C3  148   5.512   2.530   2.747 -0.0564 -0.3970 -0.9093
    8NAG     H3  149   5.605   2.489   2.792 -0.7483  2.5617  3.8616
    8NAG     O3  150   5.534   2.510   2.606 -0.1970 -0.3344  0.3912
    8NAG    HO3  151   5.629   2.506   2.596 -0.2470 -0.4933 -0.0278
    8NAG     C4  152   5.388   2.454   2.795 -0.4351  0.3137  0.3161
    8NAG     H4  153   5.299   2.494   2.741  0.1874  2.1761  0.5843
    8NAG     O4  154   5.398   2.310   2.772  0.1333  0.6304  0.0299
    8NAG     C6  155   5.232   2.407   2.995  0.0772 -1.2656  0.6649
    8NAG    H61  156   5.247   2.307   2.949  1.8610 -0.8812  0.3346
    8NAG    H62  157   5.147   2.456   2.943  1.0558  0.9481  1.0214
    8NAG     O6  158   5.206   2.399   3.133  0.0475 -0.0360 -0.0540
    8NAG    HO6  159   5.142   2.469   3.147 -0.2787 -0.5427  1.0491
    9NAM     C1  160   5.407   3.150   3.226 -0.4336 -0.4388 -0.6007
    9NAM     H1  161   5.430   3.217   3.140 -0.0508 -1.0866 -1.0202
    9NAM     C5  162   5.535   2.973   3.104  0.1236  0.2019 -0.7787
    9NAM     H5  163   5.555   3.055   3.031 -0.1881 -1.3287 -2.6535
    9NAM     O5  164   5.507   3.048   3.233 -0.0856  0.2138 -0.4548
    9NAM     C2  165   5.278   3.082   3.190 -0.3910  0.2238  0.5585
    9NAM     H2  166   5.255   3.019   3.279  1.5257  2.1795  2.5565
    9NAM     NC  167   5.186   3.179   3.137 -0.0314  0.2094 -1.3026
    9NAM     HN  168   5.135   3.174   3.051 -1.8373  1.6840 -0.3922
    9NAM     CM  169   5.119   3.265   3.218 -0.0912 -0.4988  0.2550
    9NAM     OM  170   5.072   3.223   3.319  0.7445 -0.1208 -0.3088
    9NAM     CC  171   5.120   3.402   3.181 -0.3919  0.3337 -0.3780
    9NAM    HC1  172   5.216   3.439   3.139  2.4574 -1.4302  3.8247
    9NAM    HC2  173   5.046   3.420   3.101  0.4872 -0.5965 -1.4183
    9NAM    HC3  174   5.089   3.470   3.264 -3.4824 -0.1680 -0.9839
    9NAM     C3  175   5.287   3.003   3.061  0.2505  0.0841 -0.0289
    9NAM     H3  176   5.310   3.077   2.981  0.2049  0.5901  0.4221
    9NAM     O3  177   5.165   2.944   3.009 -0.1033 -0.3352 -0.6012
    9NAM     CA  178   5.095   2.860   3.105  0.3406  0.4490  0.8628
    9NAM     HA  179   5.162   2.839   3.186 -0.8490  1.8600  2.2632
    9NAM      C  180   5.048   2.730   3.036  0.5431  0.2012  0.5370
    9NAM      O  181   5.037   2.626   3.103 -0.1152  0.2903 -0.5186
    9NAM     CB  182   4.969   2.929   3.169 -0.4050  0.6784 -0.5715
    9NAM    HB1  183   4.895   2.858   3.212  0.3088 -0.1742 -0.7192
    9NAM    HB2  184   4.904   2.979   3.094 -3.3074 -1.6005  0.2722
    9NAM    HB3  185   5.006   3.003   3.243  3.5639 -1.1046 -0.5326
    9NAM     C4  186   5.404   2.899   3.064 -0.4208 -0.3446 -0.0347
    9NAM     H4  187   5.386   2.830   3.150  0.5352  2.1485  2.3388
    9NAM     O4  188   5.425   2.825   2.946 -0.6336 -0.5994  0.4310
    9NAM     C6  189   5.669   2.899   3.123 -0.8957  0.0471 -0.6061
    9NAM    H61  190   5.651   2.796   3.162  1.2814  0.1803  0.8887
    9NAM    H62  191   5.733   2.948   3.199 -1.5460 -1.5214  1.0437
    9NAM     O6  192   5.741   2.906   3.001 -0.4628  0.1022  0.6941
    9NAM    HO6  193   5.760   2.996   2.974  1.7256 -0.6540 -0.5843
   10ALA      N  194   5.017   2.738   2.904  0.2029  0.6254 -0.0342
   10ALA     HN  195   5.026   2.826   2.858  0.3388  0.8334  0.3782
   10ALA     CA  196   4.913   2.661   2.841 -0.6427 -0.5259  0.2060
   10ALA     HA  197   4.925   2.559   2.877  2.3942  0.3610  2.0389
   10ALA     CB  198   4.950   2.649   2.690  0.0094  0.0939 -0.3255
   10ALA    HB1  199   4.876   2.593   2.630  0.5227  1.7275 -2.6312
   10ALA    HB2  200   5.050   2.606   2.668 -0.9945 -3.4158  1.3498
   10ALA    HB3  201   4.944   2.749   2.641 -1.4744  0.6567  0.9324
   10ALA      C  202   4.775   2.723   2.849 -0.7401  0.2181 -1.0155
   10ALA      O  203   4.759   2.839   2.888 -0.4680 -0.5495  0.4410
   11GLN      N  204   4.670   2.649   2.820 -0.5709  0.3094 -0.0670
   11GLN     HN  205   4.576   2.684   2.817 -1.8449 -2.7787 -0.3134
   11GLN     CA  206   4.676   2.500   2.812 -0.0619  0.3628 -0.5975
   11GLN     HA  207   4.755   2.463   2.749  1.0967 -1.8309  1.9550
   11GLN     CD  208   4.694   2.428   2.949  0.1289 -0.3210 -0.4312
   11GLN    OE1  209   4.791   2.350   2.962  0.0085 -0.4314 -0.1430
   11GLN    NE2  210   4.612   2.451   3.054  0.3947 -0.2282  0.1466
   11GLN   HE21  211   4.538   2.518   3.058  1.3729  0.8057  1.6682
   11GLN   HE22  212   4.644   2.401   3.134  1.7270 -0.5000 -0.5294
   11GLN     CB  213   4.532   2.449   2.772 -1.1328  0.1449 -0.3658
   11GLN    HB1  214   4.459   2.472   2.852 -1.6116 -2.0629 -0.0901
   11GLN    HB2  215   4.541   2.338   2.768 -1.3703  0.1202 -0.2331
   11GLN     CG  216   4.483   2.505   2.636 -0.1015 -0.0092  0.0355
   11GLN    HG1  217   4.547   2.476   2.551 -0.8564 -0.3304 -0.4341
   11GLN    HG2  218   4.487   2.615   2.644  1.7822 -0.0984  0.7563
   11GLN      C  219   4.344   2.451   2.607  0.9316  0.7562  0.2378
   11GLN      O  220   4.339   2.348   2.538  0.3082  0.0793 -0.4930
   12LYS      N  221   4.240   2.516   2.656 -0.1171  0.2242  0.2625
   12LYS     HN  222   4.157   2.464   2.634  1.1131 -2.1686  0.9362
   12LYS     CA  223   4.220   2.627   2.737  0.6564 -0.0372 -0.1754
   12LYS     HA  224   4.307   2.638   2.799  0.1472  0.5595  0.4441
   12LYS     CB  225   4.109   2.585   2.832  0.5984  0.7336 -0.3048
   12LYS    HB1  226   4.072   2.671   2.892  0.1851  0.7929 -0.6384
   12LYS    HB2  227   4.018   2.552   2.777 -1.0621 -0.8354  3.1061
   12LYS     CG  228   4.151   2.466   2.919  0.3649 -0.8046 -0.3826
   12LYS    HG1  229   4.169   2.380   2.850 -0.2030 -0.4321 -1.0126
   12LYS    HG2  230   4.250   2.485   2.965  1.0673  0.2931 -2.2170
   12LYS     CD  231   4.041   2.419   3.019 -0.3467 -0.7328  0.1198
   12LYS    HD1  232   3.940   2.414   2.974 -0.0740 -0.7514 -0.4974
   12LYS    HD2  233   4.069   2.318   3.057  1.4637 -0.6689 -0.9616
   12LYS     CE  234   4.017   2.505   3.145 -0.0790  0.7800 -0.3403
   12LYS    HE1  235   3.972   2.606   3.129 -0.1072  1.2163  2.0710
   12LYS    HE2  236   3.952   2.456   3.220  0.0462 -0.8047 -1.2365
   12LYS     NZ  237   4.150   2.534   3.215  0.8234  0.5286  0.1568
   12LYS    HZ1  238   4.225   2.470   3.181 -0.8963  0.0737 -3.2017
   12LYS    HZ2  239   4.133   2.525   3.317 -2.0040  0.0075 -0.2762
   12LYS    HZ3  240   4.176   2.633   3.197  0.9677  0.5470  0.4636
   12LYS      C  241   4.178   2.745   2.654 -0.1648 -0.1762  0.3847
   12LYS      O  242   4.148   2.738   2.538  0.0092  0.0954  0.4861
   13DAL      N  243   4.197   2.873   2.701  0.3082 -0.1279  0.2248
   13DAL     HN  244   4.168   2.949   2.644  0.3736 -0.9069 -0.8890
   13DAL     CA  245   4.260   2.918   2.824  0.2318  0.4796  0.9861
   13DAL     HA  246   4.225   2.843   2.893  1.3217 -2.0365 -0.9943
   13DAL     CB  247   4.212   3.067   2.842  0.3151  0.1983 -0.2885
   13DAL    HB1  248   4.269   3.130   2.770  0.2853 -1.0501 -1.4508
   13DAL    HB2  249   4.105   3.073   2.815 -0.0128 -2.3810  0.1704
   13DAL    HB3  250   4.233   3.100   2.946  0.6749 -0.7884 -0.0406
   13DAL      C  251   4.408   2.903   2.810  0.3019  0.4274 -0.1905
   13DAL      O  252   4.464   2.900   2.700  0.3931 -0.3839 -0.1989
   14DAL      N  253   4.486   2.891   2.922  0.8811  0.1639 -0.4167
   14DAL     HN  254   4.584   2.882   2.912  1.3009  3.7844 -0.5084
   14DAL     CA  255   4.439   2.898   3.062  0.9089  0.1455  0.5381
   14DAL     HA  256   4.362   2.974   3.066 -0.8131 -1.4634 -0.3743
   14DAL     CB  257   4.556   2.916   3.161  0.1762 -0.0822  0.3129
   14DAL    HB1  258   4.612   3.010   3.141  0.1568 -0.2522 -0.5620
   14DAL    HB2  259   4.530   2.904   3.269 -0.9178 -0.4663  0.0145
   14DAL    HB3  260   4.634   2.842   3.133 -0.7414 -0.4197 -1.5130
   14DAL      C  261   4.360   2.767   3.103  0.3688  0.3294 -0.1029
   14DAL    OC1  262   4.410   2.649   3.086 -0.3319  0.4319 -0.0730
   14DAL    OC2  263   4.249   2.777   3.167  0.0454  0.0092 -0.0496
   15NAG     C1  264   5.642   3.483   3.552 -0.9648  0.0626 -0.4754
   15NAG     H1  265   5.553   3.538   3.588 -1.0098 -0.4956  0.2886
   15NAG     C5  266   5.506   3.289   3.548  0.1693 -0.0402 -0.1029
   15NAG     H5  267   5.417   3.347   3.579  0.7434 -0.6236  2.9132
   15NAG     O5  268   5.629   3.348   3.594 -0.0988  0.3134  0.1559
   15NAG     C2  269   5.662   3.477   3.406 -0.8999 -0.3428  0.4476
   15NAG     H2  270   5.760   3.427   3.389  0.2587  0.6981  3.3354
   15NAG     NC  271   5.654   3.617   3.362  0.5545 -0.2794 -0.3370
   15NAG     HN  272   5.576   3.671   3.392  0.5662 -0.3634 -0.1546
   15NAG     CM  273   5.747   3.677   3.288 -0.0799 -0.2162  0.3396
   15NAG     OM  274   5.864   3.645   3.302  0.2713  0.0663 -0.0728
   15NAG     CC  275   5.707   3.781   3.189  0.2740 -0.2134  1.1390
   15NAG    HC1  276   5.708   3.726   3.092 -0.6610  2.3358 -0.4153
   15NAG    HC2  277   5.786   3.858   3.178  0.8683 -0.8905  0.5665
   15NAG    HC3  278   5.604   3.822   3.201 -0.0223 -0.7384  0.5064
   15NAG     C3  279   5.561   3.405   3.329  0.2654  0.7767  0.5809
   15NAG     H3  280   5.471   3.470   3.321 -1.7612 -1.9420 -0.1873
   15NAG     O3  281   5.608   3.378   3.196 -0.3216 -0.5372  0.0115
   15NAG    HO3  282   5.566   3.431   3.127 -0.6897 -1.7176 -0.6998
   15NAG     C4  283   5.518   3.275   3.391 -0.1944  0.4265  0.5534
   15NAG     H4  284   5.596   3.196   3.380  0.2556  0.6129  2.1053
   15NAG     O4  285   5.390   3.218   3.349 -0.4093 -0.0980 -0.8222
   15NAG     C6  286   5.482   3.154   3.613 -0.3299  0.3383 -0.0199
   15NAG    H61  287   5.383   3.118   3.579 -0.6065  0.0490  1.0568
   15NAG    H62  288   5.559   3.083   3.576  2.8779  2.1396  2.5689
   15NAG     O6  289   5.476   3.147   3.754 -0.3592  0.6708  0.0665
   15NAG    HO6  290   5.565   3.136   3.789 -0.9321  1.2132  1.8429
   16NAM     C1  291   5.894   3.745   3.946  0.2413  0.2173 -0.0786
   16NAM     H1  292   5.962   3.792   3.872 -0.4841  0.5106 -0.5765
   16NAM     C5  293   5.737   3.738   3.768 -0.0509  0.4179  0.5517
   16NAM     H5  294   5.811   3.796   3.709 -0.2559 -0.6776 -0.8347
   16NAM     O5  295   5.756   3.759   3.911 -0.1739  0.3385 -0.6382
   16NAM     C2  296   5.929   3.601   3.940 -0.0220  0.7351  0.3832
   16NAM     H2  297   5.858   3.551   4.009  0.2483  1.3342  1.1052
   16NAM     NC  298   6.068   3.600   3.961  0.0164 -0.7616 -0.1736
   16NAM     HN  299   6.127   3.592   3.882 -0.3733  0.5862 -0.6230
   16NAM     CM  300   6.134   3.561   4.072 -0.0758  0.3530  0.1285
   16NAM     OM  301   6.082   3.511   4.168 -0.0508 -0.2151 -0.2905
   16NAM     CC  302   6.284   3.599   4.080 -0.7173 -0.0754  0.0214
   16NAM    HC1  303   6.311   3.636   4.181  0.3913 -2.8693  0.8571
   16NAM    HC2  304   6.295   3.675   3.999  0.8206 -2.2079 -1.9320
   16NAM    HC3  305   6.340   3.511   4.042 -0.2762  0.3691 -0.3820
   16NAM     C3  306   5.897   3.553   3.797 -0.1693 -0.5390  0.5594
   16NAM     H3  307   5.970   3.606   3.732 -2.5396  2.6330  0.2791
   16NAM     O3  308   5.929   3.416   3.777  0.1770  0.0454  0.3167
   16NAM     CA  309   5.849   3.312   3.842 -0.9069 -0.5214  0.3055
   16NAM     HA  310   5.752   3.344   3.875  0.3851  1.7246  2.1812
   16NAM      C  311   5.826   3.187   3.760  0.4586 -0.0309  0.2031
   16NAM      O  312   5.735   3.110   3.799  0.0758 -0.2602  0.1989
   16NAM     CB  313   5.941   3.255   3.956  0.2530  0.0460 -0.3483
   16NAM    HB1  314   5.895   3.168   4.009 -0.8645 -0.2465 -1.7356
   16NAM    HB2  315   6.037   3.229   3.907 -0.1609 -1.4224 -0.4310
   16NAM    HB3  316   5.951   3.328   4.039 -0.0704 -1.1193  0.7627
   16NAM     C4  317   5.760   3.592   3.751 -0.4266 -0.3203  0.1617
   16NAM     H4  318   5.678   3.546   3.810 -0.8259 -0.8650 -0.8081
   16NAM     O4  319   5.753   3.547   3.611 -0.1366  0.1426 -0.1313
   16NAM     C6  320   5.602   3.789   3.733  0.5698  0.3472  0.3871
   16NAM    H61  321   5.603   3.895   3.765  1.0727  0.2962  0.5421
   16NAM    H62  322   5.583   3.790   3.623  0.7285 -2.7215  0.2405
   16NAM     O6  323   5.492   3.724   3.787 -0.1612  0.5122 -0.2663
   16NAM    HO6  324   5.418   3.783   3.772 -1.0130 -0.1493  1.0784
   17ALA      N  325   5.905   3.165   3.649 -0.0090 -0.3344  0.0252
   17ALA     HN  326   5.976   3.233   3.632 -0.9077  0.9596  1.3052
   17ALA     CA  327   5.910   3.045   3.571 -0.2521 -0.0116  0.2638
   17ALA     HA  328   5.807   3.020   3.550 -0.0549  0.8757 -2.0715
   17ALA     CB  329   5.993   3.064   3.435 -0.4333  0.1323  0.5555
   17ALA    HB1  330   5.980   2.981   3.363  0.8895 -0.4562  0.9699
   17ALA    HB2  331   5.974   3.163   3.388 -1.5958 -1.1648 -1.8340
   17ALA    HB3  332   6.103   3.075   3.452  0.0459 -2.4202 -0.4879
   17ALA      C  333   5.982   2.926   3.636  0.0021  0.0587  0.2383
   17ALA      O  334   6.088   2.943   3.698  0.4960 -0.0252  0.5830
   18GLN      N  335   5.938   2.798   3.631 -0.9803 -0.4249 -0.4910
   18GLN     HN  336   5.984   2.730   3.686 -0.6095  1.4741  1.7021
   18GLN     CA  337   5.817   2.744   3.581 -0.2295  0.4350 -0.5562
   18GLN     HA  338   5.823   2.636   3.572 -2.1388  0.2057  0.3760
   18GLN     CD  339   5.773   2.791   3.436  0.5567  0.7643  0.1234
   18GLN    OE1  340   5.673   2.859   3.421 -0.3937  0.4986 -0.2991
   18GLN    NE2  341   5.849   2.746   3.333  0.5857  0.3528  0.3127
   18GLN   HE21  342   5.834   2.792   3.246  0.2550 -1.6543 -0.7645
   18GLN   HE22  343   5.927   2.683   3.342  0.4060  0.2587  1.3397
   18GLN     CB  344   5.709   2.751   3.687  0.0138 -0.2213  0.1389
   18GLN    HB1  345   5.690   2.857   3.714  0.9584  0.5439 -1.9591
   18GLN    HB2  346   5.611   2.709   3.655 -0.5245  0.3337  1.0295
   18GLN     CG  347   5.757   2.676   3.819 -0.1420 -0.6706  1.0010
   18GLN    HG1  348   5.800   2.575   3.801  2.3134 -0.0433  2.8989
   18GLN    HG2  349   5.839   2.733   3.867 -0.9446  1.6163 -0.1739
   18GLN      C  350   5.656   2.682   3.924 -0.2102  0.4212  0.8356
   18GLN      O  351   5.663   2.769   4.006 -0.5660 -0.3876 -0.0923
   19LYS      N  352   5.557   2.590   3.933 -0.3761  0.3318 -0.0717
   19LYS     HN  353   5.502   2.600   4.015  1.7128  0.9937  1.3194
   19LYS     CA  354   5.513   2.476   3.856  1.2777 -0.3149  0.1141
   19LYS     HA  355   5.475   2.407   3.930  0.4768  0.2964  0.2797
   19LYS     CB  356   5.387   2.523   3.777 -0.6314  0.1845  0.0492
   19LYS    HB1  357   5.355   2.443   3.707  3.2913 -0.4533 -1.2609
   19LYS    HB2  358   5.428   2.614   3.729 -0.6070 -0.3201 -0.9108
   19LYS     CG  359   5.273   2.552   3.872 -0.1866  0.1027  0.2843
   19LYS    HG1  360   5.193   2.608   3.819  2.1608  0.9758 -2.5858
   19LYS    HG2  361   5.305   2.627   3.947  0.3429  1.1890 -0.9975
   19LYS     CD  362   5.203   2.430   3.932  0.7516 -0.3607  0.1131
   19LYS    HD1  363   5.267   2.343   3.957 -1.5202 -1.8632  0.9319
   19LYS    HD2  364   5.133   2.394   3.855  1.3188 -2.9893  0.7379
   19LYS     CE  365   5.116   2.475   4.048  0.1595 -0.0111  0.0016
   19LYS    HE1  366   5.051   2.559   4.016 -0.4981 -1.2056 -1.9496
   19LYS    HE2  367   5.171   2.517   4.135  0.2553  1.0387 -0.5636
   19LYS     NZ  368   5.043   2.360   4.107 -0.2607  0.4472  0.2711
   19LYS    HZ1  369   4.961   2.339   4.047  0.1751 -0.6734  0.0346
   19LYS    HZ2  370   5.102   2.275   4.118  0.6470  0.9663 -0.4834
   19LYS    HZ3  371   4.987   2.388   4.191 -0.3499  0.3927  0.2297
   19LYS      C  372   5.612   2.394   3.773 -0.1660 -0.1427 -0.0830
   19LYS      O  373   5.621   2.409   3.651  0.0211  0.3037 -1.0237
   20DAL      N  374   5.704   2.311   3.835  0.3189 -0.4285 -1.0428
   20DAL     HN  375   5.786   2.307   3.779  0.8414 -0.2601 -0.3051
   20DAL     CA  376   5.710   2.296   3.980  1.0917 -0.2334  0.5482
   20DAL     HA  377   5.621   2.330   4.031 -0.2538 -2.6766 -0.0113
   20DAL     CB  378   5.713   2.144   4.020  0.6366  0.0303 -0.2443
   20DAL    HB1  379   5.621   2.093   3.982  0.1024  1.2746 -0.6869
   20DAL    HB2  380   5.713   2.137   4.131 -1.0722 -2.5715 -0.3092
   20DAL    HB3  381   5.806   2.098   3.983 -0.9905 -2.4184 -1.5494
   20DAL      C  382   5.826   2.377   4.029 -0.9774  0.3544 -0.1463
   20DAL      O  383   5.919   2.414   3.946 -0.2883 -0.1838  0.3074
   21DAL      N  384   5.852   2.427   4.154  0.2158 -0.3451  0.8929
   21DAL     HN  385   5.936   2.481   4.160  0.1600 -0.2876  1.1416
   21DAL     CA  386   5.768   2.413   4.269 -0.1699  0.2164  0.0335
   21DAL     HA  387   5.673   2.372   4.236  1.3286 -2.6088 -1.1235
   21DAL     CB  388   5.832   2.315   4.373  0.2021 -0.6476 -0.2280
   21DAL    HB1  389   5.917   2.359   4.429  0.0527  0.2310 -0.6808
   21DAL    HB2  390   5.869   2.222   4.326 -1.9002 -1.4922 -0.3211
   21DAL    HB3  391   5.754   2.279   4.445  1.5957 -0.4319  1.4546
   21DAL      C  392   5.733   2.554   4.327 -0.6474  0.4457  0.9092
   21DAL    OC1  393   5.621   2.604   4.330  0.0173 -0.6222 -0.0466
   21DAL    OC2  394   5.834   2.619   4.368 -0.6822 -0.2186  0.4926
   22NAG     C1  395   6.013   4.155   4.265  0.1242  0.3824 -0.1898
   22NAG     H1  396   6.049   4.101   4.355  0.3552 -1.6660 -1.4476
   22NAG     C5  397   5.868   3.983   4.215  0.8156  0.1810 -0.9891
   22NAG     H5  398   5.893   3.923   4.305  3.2651  0.3761 -1.4849
   22NAG     O5  399   5.878   4.124   4.244  0.5089  0.5552 -0.3916
   22NAG     C2  400   6.096   4.115   4.144 -0.1750  0.3762 -0.2818
   22NAG     H2  401   6.082   4.184   4.059 -0.5318  1.1622  0.4042
   22NAG     NC  402   6.231   4.155   4.182  0.3185 -0.0038 -0.6532
   22NAG     HN  403   6.279   4.105   4.254 -2.0176 -2.2854 -0.5719
   22NAG     CM  404   6.317   4.250   4.137 -0.5718 -0.3028 -0.2453
   22NAG     OM  405   6.287   4.315   4.036  0.1853  0.0823 -0.1762
   22NAG     CC  406   6.450   4.278   4.205 -0.5247  0.5591 -0.2755
   22NAG    HC1  407   6.460   4.387   4.224 -1.8354  0.7149 -0.3830
   22NAG    HC2  408   6.458   4.227   4.303  0.2795  1.1056 -0.0437
   22NAG    HC3  409   6.531   4.231   4.146 -1.4734 -1.8949  0.2835
   22NAG     C3  410   6.081   3.968   4.109 -0.0219  0.2978  0.1475
   22NAG     H3  411   6.123   3.905   4.190  1.6957 -1.8985 -2.2892
   22NAG     O3  412   6.156   3.937   3.985  0.6029 -0.1369  0.1617
   22NAG    HO3  413   6.247   3.909   3.999 -0.1392 -2.6775  0.3295
   22NAG     C4  414   5.932   3.927   4.096 -0.3352 -0.6985  0.1462
   22NAG     H4  415   5.893   3.970   4.001 -1.4200 -1.0619  0.4037
   22NAG     O4  416   5.922   3.788   4.077 -0.5511 -0.2288 -0.1513
   22NAG     C6  417   5.715   3.961   4.204 -0.4165 -0.3647 -0.3128
   22NAG    H61  418   5.669   4.032   4.131  2.0590  2.8510  1.0206
   22NAG    H62  419   5.679   3.989   4.305  1.9317 -2.0618  1.1049
   22NAG     O6  420   5.670   3.824   4.184 -0.0155 -0.4483 -0.2911
   22NAG    HO6  421   5.706   3.780   4.107 -3.2804 -1.9069 -1.1681
   23NAM     C1  422   5.944   4.629   4.487  0.1716 -0.6843  0.1635
   23NAM     H1  423   5.962   4.667   4.384 -0.6390 -0.1749  0.1988
   23NAM     C5  424   6.093   4.458   4.436 -0.2148  0.6012 -0.3992
   23NAM     H5  425   6.118   4.514   4.344  0.5574  1.2965  0.2196
   23NAM     O5  426   6.051   4.549   4.538 -0.6397 -0.5060  0.0340
   23NAM     C2  427   5.824   4.533   4.486 -0.5646 -0.1299 -0.1074
   23NAM     H2  428   5.833   4.501   4.592  2.6345 -1.9488 -0.7805
   23NAM     NC  429   5.723   4.606   4.423 -0.3265 -0.4598  0.2777
   23NAM     HN  430   5.718   4.630   4.326 -1.3037  4.9560  1.3582
   23NAM     CM  431   5.615   4.652   4.494 -0.2054  0.2499 -0.5614
   23NAM     OM  432   5.605   4.619   4.614  0.1084  0.3361  0.1779
   23NAM     CC  433   5.517   4.739   4.415 -0.7485  0.1652  0.0521
   23NAM    HC1  434   5.427   4.763   4.475  0.1157  1.8854  0.7194
   23NAM    HC2  435   5.554   4.836   4.376 -3.2534  1.3223  0.3975
   23NAM    HC3  436   5.487   4.681   4.325  1.5908  0.0053 -0.7099
   23NAM     C3  437   5.846   4.411   4.398  0.1873 -0.5863  1.0665
   23NAM     H3  438   5.841   4.450   4.294 -1.9896  1.0344  1.7005
   23NAM     O3  439   5.732   4.324   4.404 -0.1972  0.0866  0.0748
   23NAM     CA  440   5.706   4.251   4.526 -0.5079  0.3678 -0.1080
   23NAM     HA  441   5.739   4.150   4.507  1.0180  1.1017 -1.6402
   23NAM      C  442   5.558   4.240   4.496 -0.2308 -0.4617 -0.4870
   23NAM      O  443   5.508   4.137   4.462  0.3476  0.4922  0.4729
   23NAM     CB  444   5.729   4.287   4.674 -0.0069 -0.1843 -0.5819
   23NAM    HB1  445   5.681   4.216   4.745 -1.8836  1.0926 -0.5138
   23NAM    HB2  446   5.688   4.384   4.708  0.7758 -0.4600  1.3060
   23NAM    HB3  447   5.838   4.291   4.694 -0.2324  0.3479  0.6102
   23NAM     C4  448   5.978   4.351   4.412 -0.2427  0.7170 -0.5019
   23NAM     H4  449   5.986   4.276   4.494 -2.0479 -1.4824 -2.1763
   23NAM     O4  450   6.027   4.291   4.286 -0.5638  0.1846 -0.4473
   23NAM     C6  451   6.215   4.397   4.502 -0.0208  0.5924 -0.1687
   23NAM    H61  452   6.239   4.297   4.461 -0.3687  0.5929 -0.3802
   23NAM    H62  453   6.178   4.376   4.604 -3.1431 -0.5710 -1.4082
   23NAM     O6  454   6.330   4.476   4.510 -0.0589  0.0521 -0.6006
   23NAM    HO6  455   6.317   4.549   4.571  1.8272 -1.0375  1.2553
   24ALA      N  456   5.478   4.345   4.517  0.6311 -0.6869 -0.0928
   24ALA     HN  457   5.526   4.426   4.550  1.2605 -1.2561  0.4239
   24ALA     CA  458   5.337   4.333   4.492 -0.3978 -0.2266  1.1152
   24ALA     HA  459   5.316   4.262   4.413 -1.9281  1.2403  0.0984
   24ALA     CB  460   5.291   4.465   4.426  0.0187 -0.3332  0.0521
   24ALA    HB1  461   5.187   4.455   4.389 -0.3711 -2.8036  1.5616
   24ALA    HB2  462   5.369   4.488   4.350  1.3080  1.8452  1.9160
   24ALA    HB3  463   5.292   4.542   4.506  1.9492 -2.0599  1.8228
   24ALA      C  464   5.255   4.300   4.623  0.3908  1.1382 -0.3035
   24ALA      O  465   5.299   4.308   4.733 -0.2340  0.5093  0.0982
   25GLN      N  466   5.126   4.261   4.619  0.3538  0.5272 -0.2394
   25GLN     HN  467   5.079   4.241   4.704  1.5566 -1.6352 -0.0104
   25GLN     CA  468   5.053   4.223   4.500  0.8201  1.3394 -0.0321
   25GLN     HA  469   5.100   4.264   4.412 -1.1514  2.7699 -0.4883
   25GLN     CD  470   5.051   4.068   4.490  1.1112 -0.2359  0.3099
   25GLN    OE1  471   5.114   4.010   4.403 -0.0887  0.1644 -0.1161
   25GLN    NE2  472   4.991   4.003   4.589 -0.3863  0.0894 -0.5628
   25GLN   HE21  473   4.972   4.061   4.668 -1.7317  0.1795 -0.9401
   25GLN   HE22  474   4.983   3.903   4.587  0.5370 -0.1455  2.0914
   25GLN     CB  475   4.909   4.276   4.504  1.0316 -0.6354 -0.1248
   25GLN    HB1  476   4.859   4.250   4.600  0.8472 -0.8554 -0.2806
   25GLN    HB2  477   4.841   4.249   4.421  1.9464  0.0306 -1.1189
   25GLN     CG  478   4.903   4.432   4.496 -0.5943 -0.0458 -0.1975
   25GLN    HG1  479   4.963   4.464   4.408 -2.2218 -1.4052 -1.8895
   25GLN    HG2  480   4.949   4.483   4.583 -0.9724  1.7060 -0.9716
   25GLN      C  481   4.768   4.488   4.471  0.1428  0.0958 -0.6454
   25GLN      O  482   4.720   4.497   4.357  0.1128 -0.2464 -0.7063
   26LYS      N  483   4.694   4.518   4.580  0.1319 -0.2957 -0.1632
   26LYS     HN  484   4.608   4.561   4.554  1.4533  1.1889 -2.3845
   26LYS     CA  485   4.738   4.531   4.719 -0.0144 -0.1417  0.0252
   26LYS     HA  486   4.814   4.455   4.731 -0.8893 -1.4058 -1.8732
   26LYS     CB  487   4.619   4.512   4.811  0.2370 -0.7161  0.4372
   26LYS    HB1  488   4.652   4.492   4.915  1.0999  4.1569  1.3308
   26LYS    HB2  489   4.561   4.606   4.812  0.0988 -0.8033  0.5905
   26LYS     CG  490   4.517   4.401   4.771 -0.0103  0.1780  0.1533
   26LYS    HG1  491   4.476   4.421   4.670  0.6409  1.3320  0.0960
   26LYS    HG2  492   4.550   4.295   4.768 -0.7519 -0.0452 -0.5601
   26LYS     CD  493   4.398   4.391   4.869  0.2281 -0.2354 -0.0813
   26LYS    HD1  494   4.353   4.493   4.871  0.3481 -0.1971  0.8831
   26LYS    HD2  495   4.323   4.320   4.826  0.8963 -1.2819  0.4339
   26LYS     CE  496   4.432   4.350   5.011 -0.0849  0.3829 -0.5848
   26LYS    HE1  497   4.480   4.437   5.060  1.6707 -0.9507  0.1464
   26LYS    HE2  498   4.341   4.308   5.060 -0.8117  0.5578 -1.7539
   26LYS     NZ  499   4.534   4.241   5.020  0.3214 -0.3924  0.5530
   26LYS    HZ1  500   4.624   4.271   4.978  1.3375 -0.3684  2.6360
   26LYS    HZ2  501   4.516   4.146   4.981  1.2117 -0.3895  0.1053
   26LYS    HZ3  502   4.555   4.233   5.121  0.2627  0.3067  0.6280
   26LYS      C  503   4.800   4.670   4.738  0.2084 -0.5695  0.4183
   26LYS      O  504   4.771   4.762   4.665 -0.2030  0.0423  0.1439
   27DAL      N  505   4.871   4.691   4.852  0.0694 -0.6544  0.0773
   27DAL     HN  506   4.898   4.787   4.860 -1.3805 -0.3562  1.9961
   27DAL     CA  507   4.928   4.595   4.941  0.0697  0.8941  0.0494
   27DAL     HA  508   4.864   4.508   4.940 -0.0740  0.9447 -3.0587
   27DAL     CB  509   4.944   4.648   5.087 -0.3895 -0.0985  0.1432
   27DAL    HB1  510   4.852   4.694   5.128  0.1504 -1.9989  3.8810
   27DAL    HB2  511   4.985   4.575   5.160 -0.7557 -0.3236  0.1247
   27DAL    HB3  512   5.025   4.724   5.081 -1.0033  0.7597  2.0590
   27DAL      C  513   5.064   4.542   4.884  1.4325  0.5824  0.8290
   27DAL      O  514   5.131   4.608   4.805 -0.5510  0.5782 -0.0292
   28DAL      N  515   5.110   4.414   4.918  0.6146  0.1678  0.2115
   28DAL     HN  516   5.200   4.383   4.888  0.2212 -0.5190 -0.3078
   28DAL     CA  517   5.028   4.319   4.988 -0.8755 -0.2374 -0.5003
   28DAL     HA  518   4.987   4.373   5.073 -1.2030  1.1077 -1.4754
   28DAL     CB  519   5.129   4.212   5.035  0.4676  0.1920  0.3989
   28DAL    HB1  520   5.198   4.248   5.114 -0.0828 -0.4744  1.2000
   28DAL    HB2  521   5.078   4.121   5.073 -2.7158  1.9713  0.8177
   28DAL    HB3  522   5.198   4.191   4.950 -0.4183  1.4387 -0.6763
   28DAL      C  523   4.917   4.251   4.907 -0.6941 -0.6833  0.1179
   28DAL    OC1  524   4.951   4.177   4.813  0.3168 -0.5215  1.1479
   28DAL    OC2  525   4.800   4.275   4.937  0.6602 -0.4924 -0.0124
   29NAG     C1  526   5.981   5.129   4.582 -0.2000 -0.1139  0.1345
   29NAG     H1  527   5.871   5.135   4.599 -0.4892 -1.5166 -1.0264
   29NAG     C5  528   5.981   4.930   4.681 -1.0959  0.0684  0.0831
   29NAG     H5  529   5.878   4.952   4.718 -1.1943 -0.7684  0.3464
   29NAG     O5  530   6.051   5.053   4.673 -0.0113  0.1207  0.5276
   29NAG     C2  531   5.988   5.077   4.439  0.0210 -0.3265 -0.3611
   29NAG     H2  532   6.094   5.074   4.404 -0.2195  0.8130 -1.2222
   29NAG     NC  533   5.904   5.163   4.361 -0.0026  0.3249  0.4102
   29NAG     HN  534   5.807   5.159   4.382  0.2773 -0.1977  1.7076
   29NAG     CM  535   5.930   5.227   4.242 -0.1147 -0.4697 -0.9464
   29NAG     OM  536   6.042   5.215   4.186  0.4828 -0.0281 -0.0671
   29NAG     CC  537   5.819   5.307   4.192  0.4974  0.2810  0.6729
   29NAG    HC1  538   5.854   5.401   4.145 -0.9696  0.3922 -0.2904
   29NAG    HC2  539   5.762   5.345   4.280 -0.0051 -0.7120  0.7991
   29NAG    HC3  540   5.754   5.251   4.121  0.0179  0.2457  1.1268
   29NAG     C3  541   5.932   4.941   4.438 -0.6392 -0.6622 -0.1376
   29NAG     H3  542   5.823   4.951   4.455 -0.2964 -0.0371  1.8967
   29NAG     O3  543   5.953   4.886   4.311  0.2850  0.3473  0.1437
   29NAG    HO3  544   6.039   4.854   4.285  0.2806  1.1499 -0.9623
   29NAG     C4  545   5.990   4.856   4.552 -0.2713 -0.3335 -0.4792
   29NAG     H4  546   6.088   4.806   4.534 -1.3160 -1.6779 -2.9902
   29NAG     O4  547   5.911   4.738   4.571 -0.1840  0.1146  0.0181
   29NAG     C6  548   6.049   4.853   4.792 -0.5380 -0.2004 -1.0514
   29NAG    H61  549   6.010   4.750   4.807  0.0663 -0.2007  0.5957
   29NAG    H62  550   6.152   4.823   4.766 -1.1185 -2.0130 -1.3926
   29NAG     O6  551   6.039   4.916   4.918  0.6162 -0.6847  0.1773
   29NAG    HO6  552   6.099   4.989   4.931 -0.3660 -0.1843  2.5457
   30NAM     C1  553   5.973   5.640   4.704  0.3584 -0.6894 -0.0791
   30NAM     H1  554   5.995   5.680   4.603 -0.0998  0.2251  0.1670
   30NAM     C5  555   5.898   5.438   4.614  0.1550  0.6577 -0.1554
   30NAM     H5  556   5.925   5.478   4.513 -0.6612 -2.7441 -1.8672
   30NAM     O5  557   5.870   5.543   4.702  0.6217  0.6409 -0.1335
   30NAM     C2  558   6.097   5.572   4.768  0.0741 -0.0826  0.1538
   30NAM     H2  559   6.077   5.537   4.871  4.0080 -0.1388  1.0786
   30NAM     NC  560   6.206   5.673   4.755 -0.9460  0.4571  0.2160
   30NAM     HN  561   6.240   5.689   4.663  0.9249 -0.1819  0.7501
   30NAM     CM  562   6.252   5.751   4.859  0.0875  0.2548 -0.2111
   30NAM     OM  563   6.207   5.744   4.973  0.1740  0.3077  0.0871
   30NAM     CC  564   6.367   5.848   4.815 -0.5008 -0.3841  0.1895
   30NAM    HC1  565   6.322   5.926   4.750 -0.3015 -1.6569 -1.5362
   30NAM    HC2  566   6.442   5.787   4.761 -1.4497  0.0804 -1.7119
   30NAM    HC3  567   6.416   5.885   4.908  3.3174 -1.3643 -1.2314
   30NAM     C3  568   6.132   5.454   4.687 -0.8582  0.2738  0.0274
   30NAM     H3  569   6.177   5.486   4.590 -1.4288 -1.6394 -0.9228
   30NAM     O3  570   6.251   5.396   4.757 -0.2373 -0.0619  0.7373
   30NAM     CA  571   6.231   5.326   4.877  0.2174  0.8480 -0.3499
   30NAM     HA  572   6.127   5.332   4.907  0.2311  1.9550 -0.4501
   30NAM      C  573   6.276   5.177   4.855 -0.0778  0.1667  0.4505
   30NAM      O  574   6.249   5.087   4.930  0.3954  0.1635 -0.5497
   30NAM     CB  575   6.322   5.390   4.980  0.4238  0.5240 -0.4538
   30NAM    HB1  576   6.285   5.493   4.998 -0.2397  0.1971  0.0974
   30NAM    HB2  577   6.315   5.344   5.081 -1.3307  1.9878  0.1359
   30NAM    HB3  578   6.426   5.373   4.945  0.4548 -1.8549  0.6241
   30NAM     C4  579   6.014   5.358   4.667 -0.1078 -0.7885 -0.1851
   30NAM     H4  580   5.973   5.314   4.760 -1.3756 -0.0053 -0.3528
   30NAM     O4  581   6.050   5.252   4.575 -0.2516  0.1514 -0.0796
   30NAM     C6  582   5.754   5.379   4.618 -0.3317 -0.1394  0.2405
   30NAM    H61  583   5.679   5.461   4.616 -0.2266 -0.0274  0.5870
   30NAM    H62  584   5.750   5.323   4.523 -1.0755 -1.1143  0.8270
   30NAM     O6  585   5.721   5.297   4.725  0.3726  0.3012 -0.1249
   30NAM    HO6  586   5.710   5.347   4.807  2.3158  3.2921 -1.5043
   31ALA      N  587   6.346   5.153   4.748 -0.3569  0.7796 -0.3787
   31ALA     HN  588   6.369   5.226   4.684  0.3672 -1.6510 -3.1169
   31ALA     CA  589   6.410   5.024   4.708  0.9737  0.8957 -0.1360
   31ALA     HA  590   6.355   4.940   4.748 -1.2207  1.2570 -2.1886
   31ALA     CB  591   6.420   5.015   4.550 -0.1339  0.1352 -0.8460
   31ALA    HB1  592   6.476   4.924   4.520  0.3895 -0.5221  1.8312
   31ALA    HB2  593   6.313   5.010   4.521  0.0385  1.3243 -1.7673
   31ALA    HB3  594   6.459   5.115   4.521  1.5938  0.1074  1.1798
   31ALA      C  595   6.551   5.021   4.771 -0.3506 -0.1960 -0.6401
   31ALA      O  596   6.626   5.125   4.778 -0.0543  0.4785  0.3862
   32GLN      N  597   6.604   4.907   4.828 -0.9373 -0.1191 -0.6726
   32GLN     HN  598   6.693   4.921   4.869 -0.7018 -0.5247 -1.0410
   32GLN     CA  599   6.545   4.777   4.834 -0.0257  0.1339  0.1696
   32GLN     HA  600   6.624   4.714   4.871 -1.0240 -0.2699  1.6911
   32GLN     CD  601   6.511   4.717   4.698  0.2451 -0.4806  0.6160
   32GLN    OE1  602   6.399   4.671   4.660 -0.2406 -0.6671 -0.6376
   32GLN    NE2  603   6.611   4.722   4.600  0.5604 -1.1755 -0.0694
   32GLN   HE21  604   6.579   4.694   4.510 -5.1841 -2.2713  1.8721
   32GLN   HE22  605   6.702   4.745   4.633  0.9255 -1.9788 -0.4886
   32GLN     CB  606   6.436   4.778   4.941  1.2532  0.6863  0.3079
   32GLN    HB1  607   6.352   4.846   4.916  0.9803 -0.2474 -1.4238
   32GLN    HB2  608   6.392   4.677   4.956  0.7885  1.0444  1.4218
   32GLN     CG  609   6.485   4.818   5.077 -0.6840  0.6023 -0.0816
   32GLN    HG1  610   6.509   4.926   5.062 -0.0753  0.9162  2.6708
   32GLN    HG2  611   6.413   4.832   5.160 -2.0338 -0.2441 -1.0711
   32GLN      C  612   6.596   4.729   5.129  0.2623  0.0149 -0.0995
   32GLN      O  613   6.608   4.608   5.093 -0.5355 -0.0482 -0.3113
   33LYS      N  614   6.688   4.784   5.198 -0.1819  0.1410 -0.0785
   33LYS     HN  615   6.757   4.724   5.239 -0.5773 -0.7955 -0.7664
   33LYS     CA  616   6.717   4.927   5.235  0.5221 -0.0619  0.2182
   33LYS     HA  617   6.622   4.961   5.273 -0.9687 -2.8704 -0.7087
   33LYS     CB  618   6.824   4.937   5.344  0.2671  0.3115  0.2041
   33LYS    HB1  619   6.850   5.045   5.351 -1.1077  0.5381  3.4014
   33LYS    HB2  620   6.916   4.886   5.307  0.2852 -0.2155  0.9432
   33LYS     CG  621   6.785   4.888   5.480  0.8472 -0.4259 -0.0206
   33LYS    HG1  622   6.866   4.877   5.555  0.0125  2.9547  1.5827
   33LYS    HG2  623   6.731   4.791   5.472  1.8168 -0.8199 -2.8796
   33LYS     CD  624   6.672   4.981   5.545 -0.6796 -0.1488 -0.1186
   33LYS    HD1  625   6.576   4.974   5.489 -0.4364 -0.6938 -0.4731
   33LYS    HD2  626   6.709   5.084   5.527  1.3315 -0.8720 -0.3723
   33LYS     CE  627   6.644   4.951   5.697  0.3756  0.0071  0.7062
   33LYS    HE1  628   6.737   4.979   5.750  0.8267  1.9083 -0.9393
   33LYS    HE2  629   6.616   4.843   5.695  0.2802  0.0368  0.1433
   33LYS     NZ  630   6.526   5.027   5.744 -0.5196  0.6236 -0.2290
   33LYS    HZ1  631   6.537   5.130   5.748  1.9435  0.5481 -2.1427
   33LYS    HZ2  632   6.451   5.007   5.675 -0.8710  0.8967  0.0749
   33LYS    HZ3  633   6.498   4.986   5.835 -0.3383 -2.1660 -1.3155
   33LYS      C  634   6.759   5.000   5.105 -0.6205  0.1993 -0.6586
   33LYS      O  635   6.801   4.951   5.005 -0.0522 -0.2034  0.3945
   34DAL      N  636   6.739   5.131   5.101  0.3501 -0.0240 -0.4159
   34DAL     HN  637   6.756   5.166   5.009 -1.0328 -0.8263 -1.0028
   34DAL     CA  638   6.697   5.222   5.203 -0.9479 -0.5165  0.1937
   34DAL     HA  639   6.751   5.202   5.294 -2.9313 -0.7670  1.3454
   34DAL     CB  640   6.736   5.362   5.161 -0.5410  0.2597 -0.0257
   34DAL    HB1  641   6.844   5.357   5.135 -0.2933  1.6942  0.5998
   34DAL    HB2  642   6.724   5.428   5.250  1.4431  0.7630 -0.0758
   34DAL    HB3  643   6.680   5.406   5.076 -0.7924  2.4076  1.1621
   34DAL      C  644   6.547   5.205   5.225 -0.3394 -0.3211 -0.1415
   34DAL      O  645   6.475   5.133   5.156 -0.1217  0.0972 -0.1073
   35DAL      N  646   6.488   5.279   5.319  0.0040  0.1514 -0.2449
   35DAL     HN  647   6.389   5.271   5.321  0.0963 -0.9531  1.0171
   35DAL     CA  648   6.555   5.356   5.425  0.8772  0.2572  0.0012
   35DAL     HA  649   6.660   5.333   5.428  0.4981 -1.4726  1.4012
   35DAL     CB  650   6.528   5.504   5.406  0.1421 -0.1734  0.2377
   35DAL    HB1  651   6.546   5.529   5.299  0.6701  1.2466  0.6285
   35DAL    HB2  652   6.608   5.562   5.457 -1.1551 -1.4515  4.0535
   35DAL    HB3  653   6.423   5.531   5.430 -0.4222  1.1394 -3.2002
   35DAL      C  654   6.504   5.320   5.568  0.2595  0.6115 -0.2969
   35DAL    OC1  655   6.384   5.325   5.596  0.1247  0.1565  0.6384
   35DAL    OC2  656   6.588   5.288   5.658  0.0407 -0.2535 -0.6492
   36NAG     C1  657   5.706   6.095   4.786 -0.7570  0.9837 -0.2364
   36NAG     H1  658   5.759   6.103   4.883 -1.3418  0.3129  0.1505
   36NAG     C5  659   5.736   5.864   4.832  0.7747  0.6475  0.6005
   36NAG     H5  660   5.767   5.884   4.937  2.9920  1.9069 -0.2181
   36NAG     O5  661   5.650   5.966   4.786  0.4248  0.1711  0.1615
   36NAG     C2  662   5.815   6.089   4.681 -0.2923 -0.2259  0.7255
   36NAG     H2  663   5.755   6.062   4.592 -0.1103  0.2896  0.4421
   36NAG     NC  664   5.900   6.210   4.696 -0.2058  0.6177 -0.0084
   36NAG     HN  665   5.963   6.210   4.773 -0.5642 -1.5063  0.3370
   36NAG     CM  666   5.877   6.322   4.627 -0.0692 -0.1113  0.0723
   36NAG     OM  667   5.831   6.319   4.507  0.0321 -0.0006  0.0447
   36NAG     CC  668   5.912   6.450   4.704 -0.5256  0.0740 -0.5058
   36NAG    HC1  669   5.831   6.523   4.681 -2.2852 -2.1781 -1.8735
   36NAG    HC2  670   5.901   6.427   4.812  0.0474  2.1174  0.0284
   36NAG    HC3  671   6.013   6.491   4.682 -0.6562 -0.1527 -1.5789
   36NAG     C3  672   5.918   5.983   4.708  0.3505  0.1146  0.2193
   36NAG     H3  673   5.982   6.005   4.797  2.2278 -1.2030 -0.7459
   36NAG     O3  674   6.022   5.973   4.613  0.0817 -0.5446  0.4276
   36NAG    HO3  675   6.087   5.911   4.647  0.3669 -0.1840  0.5506
   36NAG     C4  676   5.857   5.849   4.735  0.5906  0.9981  0.1779
   36NAG     H4  677   5.807   5.804   4.646  2.3528 -0.1236 -0.2897
   36NAG     O4  678   5.949   5.752   4.789 -0.2327  0.0022 -0.2347
   36NAG     C6  679   5.643   5.737   4.827  0.0159  0.5746  0.2905
   36NAG    H61  680   5.636   5.715   4.719 -0.6305 -0.7980  0.5988
   36NAG    H62  681   5.543   5.761   4.868 -1.0754  0.2838 -2.0218
   36NAG     O6  682   5.703   5.625   4.892 -0.4802 -0.3941  0.2169
   36NAG    HO6  683   5.792   5.609   4.858 -0.5647 -0.2322 -0.0887
   37NAM     C1  684   5.301   6.359   4.987 -0.3114  0.7384  0.1203
   37NAM     H1  685   5.336   6.463   4.971  1.9581  0.1900  1.0862
   37NAM     C5  686   5.526   6.288   4.962 -0.4972  0.4682 -0.3236
   37NAM     H5  687   5.535   6.394   4.930  2.7986  0.8125  1.2839
   37NAM     O5  688   5.402   6.278   5.036 -0.4177 -0.7844 -0.5270
   37NAM     C2  689   5.269   6.288   4.856  0.7571  0.0151 -0.1776
   37NAM     H2  690   5.232   6.185   4.877  1.0891 -0.5075 -2.0121
   37NAM     NC  691   5.184   6.383   4.785  0.2731  0.2913  0.0749
   37NAM     HN  692   5.223   6.418   4.701  1.5854 -0.3656  0.3868
   37NAM     CM  693   5.053   6.408   4.803  0.1291 -0.0567 -0.2790
   37NAM     OM  694   4.972   6.351   4.877  0.1900  0.6514 -0.2898
   37NAM     CC  695   4.998   6.518   4.716 -0.0127  0.8817 -0.0974
   37NAM    HC1  696   5.015   6.478   4.614  0.2566 -1.0883  0.6821
   37NAM    HC2  697   4.888   6.528   4.726 -0.3065 -2.0176  0.4647
   37NAM    HC3  698   5.050   6.610   4.752 -0.5815  0.2531  2.5431
   37NAM     C3  699   5.392   6.267   4.763 -0.6387 -0.1426  0.2920
   37NAM     H3  700   5.438   6.364   4.732  3.7537 -2.0394  0.0684
   37NAM     O3  701   5.355   6.203   4.636  0.1023 -0.5569 -0.5279
   37NAM     CA  702   5.330   6.062   4.644 -0.4034 -0.4224 -0.3734
   37NAM     HA  703   5.353   6.024   4.742 -2.3514  1.5836  0.9507
   37NAM      C  704   5.426   5.991   4.547  0.1022  0.2102  0.1896
   37NAM      O  705   5.426   5.870   4.543 -0.4361  0.1527  0.2008
   37NAM     CB  706   5.187   6.053   4.609 -0.1830  0.2059  0.4704
   37NAM    HB1  707   5.132   6.104   4.691  1.8040  0.8272  1.4842
   37NAM    HB2  708   5.158   5.946   4.601 -0.7033  0.3820 -0.0184
   37NAM    HB3  709   5.158   6.107   4.517 -0.2623  1.4731  1.2116
   37NAM     C4  710   5.506   6.198   4.841  0.3997 -0.0894  1.0510
   37NAM     H4  711   5.483   6.094   4.872 -0.4343 -0.3056 -0.1799
   37NAM     O4  712   5.614   6.199   4.751  0.0472  0.0904 -0.0579
   37NAM     C6  713   5.653   6.274   5.041  0.2160 -0.2182  0.2272
   37NAM    H61  714   5.743   6.291   4.978  0.1341  0.1257  0.2029
   37NAM    H62  715   5.653   6.167   5.073 -1.3527 -0.0596  0.8548
   37NAM     O6  716   5.657   6.359   5.150 -0.9359 -0.1585 -0.5485
   37NAM    HO6  717   5.612   6.441   5.130  1.1329  1.0454 -0.5988
   38ALA      N  718   5.504   6.060   4.466 -0.1861 -0.7064  0.0582
   38ALA     HN  719   5.502   6.159   4.477 -4.0066 -0.3483 -2.1301
   38ALA     CA  720   5.583   6.005   4.362  0.0967 -0.7564 -0.4062
   38ALA     HA  721   5.643   5.928   4.408 -0.5733 -0.7223  0.5522
   38ALA     CB  722   5.679   6.109   4.307 -0.0598  0.2859 -0.4368
   38ALA    HB1  723   5.625   6.197   4.266 -2.0472 -0.3231  0.7386
   38ALA    HB2  724   5.749   6.060   4.237  0.9891 -0.2756  0.9554
   38ALA    HB3  725   5.745   6.142   4.390  1.8326 -1.0747 -1.3438
   38ALA      C  726   5.504   5.941   4.248 -0.0041  0.5013  0.0592
   38ALA      O  727   5.394   5.988   4.222  0.3085 -0.7078  0.1120
   39GLN      N  728   5.554   5.843   4.169  0.7685  0.6654 -0.1011
   39GLN     HN  729   5.497   5.811   4.094  1.4986 -1.8251  0.3152
   39GLN     CA  730   5.687   5.784   4.187  0.8070  0.5662  0.2944
   39GLN     HA  731   5.755   5.847   4.241  0.8796 -0.1505  1.0711
   39GLN     CD  732   5.668   5.652   4.270 -0.0948 -0.0444 -0.2597
   39GLN    OE1  733   5.744   5.622   4.359  0.3841 -0.0955 -0.0913
   39GLN    NE2  734   5.569   5.562   4.254  0.2432 -0.4420 -0.7434
   39GLN   HE21  735   5.569   5.485   4.318  0.1850  1.2807  1.4053
   39GLN   HE22  736   5.493   5.585   4.193 -1.7146 -0.4688  1.5702
   39GLN     CB  737   5.758   5.748   4.051  0.6528 -0.9772 -0.1395
   39GLN    HB1  738   5.691   5.680   3.994 -0.5324  1.5464 -1.9891
   39GLN    HB2  739   5.855   5.696   4.066  1.1786 -0.2944 -1.0553
   39GLN     CG  740   5.777   5.882   3.972  0.0077 -0.5425 -0.9112
   39GLN    HG1  741   5.865   5.934   4.016 -1.0813  0.2550  0.3809
   39GLN    HG2  742   5.689   5.949   3.973  0.3992 -0.0004  0.8208
   39GLN      C  743   5.814   5.858   3.827  0.2906  0.2721  0.1151
   39GLN      O  744   5.929   5.820   3.799 -0.0230 -0.0704 -0.2713
   40LYS      N  745   5.732   5.885   3.731  0.5252  0.9843 -0.0022
   40LYS     HN  746   5.767   5.877   3.638 -1.0720  0.0315 -0.5641
   40LYS     CA  747   5.589   5.933   3.740 -0.2655 -0.1841  0.0109
   40LYS     HA  748   5.549   5.925   3.640 -3.8342  0.4354  1.2481
   40LYS     CB  749   5.587   6.087   3.768  0.0709 -0.7484 -0.4215
   40LYS    HB1  750   5.481   6.119   3.767  0.6650  1.4159 -0.0953
   40LYS    HB2  751   5.633   6.101   3.868  1.3047 -0.8172 -0.9603
   40LYS     CG  752   5.661   6.162   3.659 -0.2582  0.0502  0.2776
   40LYS    HG1  753   5.694   6.267   3.677  0.2598 -0.1291  0.3827
   40LYS    HG2  754   5.752   6.103   3.634 -0.7732 -1.5663  1.9782
   40LYS     CD  755   5.577   6.159   3.532 -0.3435 -0.0890  0.0581
   40LYS    HD1  756   5.522   6.065   3.512 -1.0331 -0.1600  1.9975
   40LYS    HD2  757   5.492   6.216   3.576 -0.6529  0.3550 -1.1013
   40LYS     CE  758   5.645   6.220   3.409 -0.1346 -0.0728  0.3479
   40LYS    HE1  759   5.579   6.242   3.323 -1.6539  2.2006  1.9856
   40LYS    HE2  760   5.687   6.319   3.435  0.7036  0.4092 -2.4723
   40LYS     NZ  761   5.750   6.128   3.357  0.1443 -0.3050  0.5242
   40LYS    HZ1  762   5.774   6.154   3.259 -0.5238 -2.6621 -0.3393
   40LYS    HZ2  763   5.704   6.035   3.363 -1.3073  0.4394  1.7618
   40LYS    HZ3  764   5.829   6.123   3.424 -0.9020 -0.5372  1.7740
   40LYS      C  765   5.482   5.849   3.809 -0.2808  0.2275  0.4498
   40LYS      O  766   5.399   5.907   3.879 -0.0258  0.6031  0.5426
   41DAL      N  767   5.478   5.714   3.803 -0.3875 -0.3961  0.1247
   41DAL     HN  768   5.421   5.673   3.874 -0.5191  1.6601  1.3150
   41DAL     CA  769   5.513   5.638   3.678  0.2758 -0.1941 -0.0845
   41DAL     HA  770   5.502   5.705   3.594  2.3164 -2.0721 -1.9463
   41DAL     CB  771   5.404   5.528   3.649 -0.1494  0.0372  0.4474
   41DAL    HB1  772   5.304   5.573   3.632 -0.1243 -0.1224 -0.1487
   41DAL    HB2  773   5.437   5.475   3.557  2.0641 -1.0787  1.8091
   41DAL    HB3  774   5.407   5.458   3.735  2.2089  0.6110  0.8856
   41DAL      C  775   5.659   5.589   3.689 -0.4420  0.2520  0.0346
   41DAL      O  776   5.700   5.542   3.798 -0.0708 -0.8324 -0.2261
   42DAL      N  777   5.747   5.589   3.577  0.3382  0.4802 -0.7186
   42DAL     HN  778   5.823   5.524   3.583  0.4174  0.7090  1.8438
   42DAL     CA  779   5.717   5.645   3.450 -0.6959 -0.5591 -0.4910
   42DAL     HA  780   5.617   5.613   3.427 -0.6045 -0.9691 -0.3278
   42DAL     CB  781   5.811   5.579   3.341  0.2964 -0.2257 -0.0526
   42DAL    HB1  782   5.820   5.472   3.368  0.1037  0.0198  1.0565
   42DAL    HB2  783   5.771   5.578   3.238  1.1590 -1.8567 -0.4045
   42DAL    HB3  784   5.912   5.625   3.334 -0.3871  1.3098 -0.2249
   42DAL      C  785   5.741   5.800   3.444  0.3915 -0.1047 -0.3103
   42DAL    OC1  786   5.654   5.879   3.401  0.6809 -0.0330 -0.2732
   42DAL    OC2  787   5.842   5.844   3.495 -0.9933 -0.9868  0.3240
   43NAG     C1  788   5.046   6.537   5.421 -0.0650  0.9253 -0.2482
   43NAG     H1  789   4.947   6.508   5.381  0.8496 -3.0508 -0.0357
   43NAG     C5  790   5.121   6.343   5.305 -0.1454  0.1097  0.2641
   43NAG     H5  791   5.018   6.308   5.281 -0.0846  0.1232 -0.0209
   43NAG     O5  792   5.118   6.417   5.432 -0.2139  0.5366  0.0709
   43NAG     C2  793   5.106   6.630   5.319  0.1700  0.0831 -0.3034
   43NAG     H2  794   5.210   6.644   5.356 -0.1906 -0.4037  0.9370
   43NAG     NC  795   5.013   6.751   5.327  0.1871 -0.2735  0.5236
   43NAG     HN  796   4.915   6.734   5.329  0.3334 -1.1205  0.8056
   43NAG     CM  797   5.049   6.882   5.324  0.0354 -0.3667  0.5325
   43NAG     OM  798   5.166   6.920   5.325  0.4787 -0.1937 -0.1488
   43NAG     CC  799   4.933   6.979   5.310  0.0887  0.1692 -0.0554
   43NAG    HC1  800   4.968   7.084   5.309 -2.5086  1.1298  0.7419
   43NAG    HC2  801   4.869   6.983   5.401 -1.1185  0.3539 -0.8872
   43NAG    HC3  802   4.881   6.954   5.216 -0.1423  0.3753  0.0153
   43NAG     C3  803   5.107   6.560   5.185 -0.3901 -0.2842  0.0556
   43NAG     H3  804   5.004   6.540   5.150 -1.1490  0.9791  1.4613
   43NAG     O3  805   5.175   6.645   5.087  0.2282 -0.0964 -0.2340
   43NAG    HO3  806   5.120   6.714   5.050 -1.4752 -0.7256  1.0085
   43NAG     C4  807   5.186   6.428   5.200 -0.2119 -0.2920 -0.1661
   43NAG     H4  808   5.290   6.443   5.236 -0.9225 -2.4642  3.1806
   43NAG     O4  809   5.187   6.358   5.075 -0.8104 -0.4348 -0.3238
   43NAG     C6  810   5.211   6.220   5.316 -0.1869 -0.0575  0.4882
   43NAG    H61  811   5.228   6.171   5.218 -1.5329 -0.8223  0.6083
   43NAG    H62  812   5.308   6.255   5.359  0.5285 -0.9948 -0.3108
   43NAG     O6  813   5.145   6.129   5.402  0.4764 -0.5469 -0.6834
   43NAG    HO6  814   5.153   6.161   5.492 -0.5033 -0.1891 -0.7136
   44NAM     C1  815   4.790   6.637   5.866 -0.5678 -0.1805  1.6761
   44NAM     H1  816   4.810   6.744   5.844  1.2390 -0.9245 -0.5888
   44NAM     C5  817   4.804   6.619   5.626 -0.5573  0.0789 -0.1634
   44NAM     H5  818   4.821   6.729   5.620  0.8963 -0.1884 -1.5154
   44NAM     O5  819   4.728   6.587   5.745 -0.1133 -0.6410 -0.2841
   44NAM     C2  820   4.921   6.575   5.896  0.3245 -0.2134  0.5287
   44NAM     H2  821   4.902   6.468   5.918  1.4942 -0.6731 -0.5802
   44NAM     NC  822   4.999   6.636   6.006  0.8256 -0.3533 -0.1841
   44NAM     HN  823   5.065   6.709   5.992  0.9500 -0.2585  0.7766
   44NAM     CM  824   4.982   6.604   6.139  0.6064 -1.3107  0.2504
   44NAM     OM  825   4.908   6.514   6.182  0.0569 -0.2296  0.3772
   44NAM     CC  826   5.069   6.690   6.229 -0.3396  0.2435  0.6590
   44NAM    HC1  827   5.053   6.668   6.337 -0.4747 -1.0170  0.4078
   44NAM    HC2  828   5.064   6.800   6.214  0.5734  0.3258  0.8917
   44NAM    HC3  829   5.172   6.665   6.195 -0.5745  0.4386 -0.2273
   44NAM     C3  830   5.016   6.590   5.771  1.0447  0.1954 -0.2873
   44NAM     H3  831   5.043   6.697   5.766 -0.7398  0.7682  1.2730
   44NAM     O3  832   5.140   6.520   5.793  0.5287  0.4792 -0.0076
   44NAM     CA  833   5.131   6.379   5.812  0.4879 -0.5735 -0.0934
   44NAM     HA  834   5.032   6.338   5.797  0.3253 -0.0587 -0.4437
   44NAM      C  835   5.222   6.312   5.718 -0.5291  0.7492  0.1264
   44NAM      O  836   5.190   6.210   5.661  0.0099  0.4615  0.1701
   44NAM     CB  837   5.161   6.329   5.950  0.6169  0.3914 -0.1557
   44NAM    HB1  838   5.262   6.360   5.986  1.9966 -0.6629 -2.8459
   44NAM    HB2  839   5.083   6.368   6.019 -0.8339 -2.7636  0.1708
   44NAM    HB3  840   5.162   6.218   5.955 -0.2461  0.4126  0.8023
   44NAM     C4  841   4.947   6.558   5.638 -0.5528  0.0826  0.2187
   44NAM     H4  842   4.942   6.448   5.629  0.6902  0.1551 -2.2148
   44NAM     O4  843   5.039   6.607   5.541  0.1822  0.3909 -0.4141
   44NAM     C6  844   4.719   6.569   5.516  0.3677 -0.1442  0.4444
   44NAM    H61  845   4.746   6.467   5.481 -1.3614  0.5967 -3.6318
   44NAM    H62  846   4.611   6.569   5.545 -0.1044  1.0023 -1.2098
   44NAM     O6  847   4.729   6.657   5.406 -0.4342 -0.4927  0.3017
   44NAM    HO6  848   4.667   6.728   5.423 -1.0004 -0.6595 -1.0017
   45ALA      N  849   5.350   6.365   5.696 -0.3686  0.3704 -0.0164
   45ALA     HN  850   5.383   6.448   5.740 -1.9925  0.3841  1.2793
   45ALA     CA  851   5.444   6.308   5.603  0.9234  0.4630 -0.4620
   45ALA     HA  852   5.392   6.230   5.551  0.5328  0.2040  0.3006
   45ALA     CB  853   5.486   6.415   5.497 -0.3708  0.5509  0.5468
   45ALA    HB1  854   5.518   6.507   5.551  2.0814  0.4574 -0.5979
   45ALA    HB2  855   5.569   6.386   5.429 -1.0671  4.4831 -2.3494
   45ALA    HB3  856   5.399   6.440   5.432  0.1406  2.9465  0.6901
   45ALA      C  857   5.563   6.249   5.678 -0.5104 -0.2350  0.5133
   45ALA      O  858   5.602   6.317   5.773 -0.3011  0.1640  0.4423
   46GLN      N  859   5.621   6.129   5.654  0.7488 -0.3398  0.3741
   46GLN     HN  860   5.688   6.111   5.726  0.3938  0.5810  0.9540
   46GLN     CA  861   5.578   6.013   5.572 -0.3342 -0.5068  0.1437
   46GLN     HA  862   5.674   5.963   5.575  0.5121  1.0478  2.1423
   46GLN     CD  863   5.547   6.043   5.421 -0.3923  0.5125 -0.1366
   46GLN    OE1  864   5.449   5.986   5.370  0.0549  0.4340 -0.3966
   46GLN    NE2  865   5.635   6.116   5.349 -0.8003  0.4238 -0.1871
   46GLN   HE21  866   5.611   6.144   5.256  2.6757 -0.8536 -1.6181
   46GLN   HE22  867   5.706   6.166   5.398  1.0906 -1.3003 -1.0417
   46GLN     CB  868   5.465   5.933   5.643  0.1369  1.0014  0.3983
   46GLN    HB1  869   5.376   5.998   5.663 -0.8793 -0.9131  2.5163
   46GLN    HB2  870   5.425   5.850   5.581 -1.4119  1.9845  0.0079
   46GLN     CG  871   5.517   5.876   5.777 -0.0262  0.3251  0.4197
   46GLN    HG1  872   5.610   5.816   5.765  0.3102  1.1226 -1.2197
   46GLN    HG2  873   5.530   5.952   5.857 -2.3305  1.5141 -0.2511
   46GLN      C  874   5.409   5.792   5.835 -0.9510 -0.1406  0.5232
   46GLN      O  875   5.320   5.844   5.898  0.5480 -0.2115  0.4170
   47LYS      N  876   5.412   5.660   5.829  0.5424  0.6379  0.3001
   47LYS     HN  877   5.338   5.621   5.883  0.6962  0.0189  0.0705
   47LYS     CA  878   5.494   5.559   5.768 -0.0494  0.4861  0.0734
   47LYS     HA  879   5.432   5.471   5.761  2.5269 -1.3957 -0.3669
   47LYS     CB  880   5.527   5.578   5.616  1.1281 -0.5283 -0.7134
   47LYS    HB1  881   5.600   5.505   5.574  0.1441 -0.5685 -2.4505
   47LYS    HB2  882   5.579   5.676   5.603  2.0951 -0.9716 -0.3065
   47LYS     CG  883   5.406   5.572   5.524  0.4527 -0.0246  0.3783
   47LYS    HG1  884   5.331   5.637   5.573  0.7822 -1.3585  2.8039
   47LYS    HG2  885   5.362   5.470   5.524  2.7889 -1.0991  0.8103
   47LYS     CD  886   5.440   5.615   5.386 -0.8497 -0.2097  0.9684
   47LYS    HD1  887   5.488   5.715   5.383 -3.4291  1.1452  1.1935
   47LYS    HD2  888   5.345   5.631   5.330  0.9839  2.5067 -1.6433
   47LYS     CE  889   5.528   5.506   5.314 -0.6934 -0.1503 -0.3186
   47LYS    HE1  890   5.481   5.405   5.322  1.2743 -1.2778 -2.0078
   47LYS    HE2  891   5.629   5.499   5.359 -1.1183 -0.2828  0.6260
   47LYS     NZ  892   5.541   5.542   5.174 -0.9958  0.4128 -0.2196
   47LYS    HZ1  893   5.603   5.624   5.167 -2.2555  1.4166 -0.0276
   47LYS    HZ2  894   5.580   5.458   5.126 -1.6111  0.9811 -1.7501
   47LYS    HZ3  895   5.445   5.558   5.137 -1.9255 -1.0472  1.3948
   47LYS      C  896   5.613   5.520   5.852 -0.5468 -0.3123  0.8148
   47LYS      O  897   5.690   5.612   5.893 -0.2287  0.1864  0.1224
   48DAL      N  898   5.635   5.393   5.888  0.5825 -0.5648 -0.4909
   48DAL     HN  899   5.721   5.395   5.939  0.8762  1.0436 -0.9901
   48DAL     CA  900   5.573   5.270   5.846  0.5080  0.3041 -1.1937
   48DAL     HA  901   5.574   5.272   5.738  1.9192  0.9890 -1.1798
   48DAL     CB  902   5.663   5.158   5.902  0.2175 -0.4627 -0.1138
   48DAL    HB1  903   5.628   5.117   5.999 -3.6255  2.0482 -0.2009
   48DAL    HB2  904   5.765   5.202   5.903 -0.0052  0.0930  1.5987
   48DAL    HB3  905   5.680   5.071   5.836  1.4432  0.3438 -0.9166
   48DAL      C  906   5.429   5.251   5.905  0.1298  0.4922 -0.1086
   48DAL      O  907   5.398   5.315   5.999  0.5595  0.0046  0.2180
   49DAL      N  908   5.343   5.162   5.850  0.1332 -0.7838  0.4503
   49DAL     HN  909   5.254   5.154   5.892 -0.4169  0.2304 -0.4638
   49DAL     CA  910   5.360   5.094   5.726  0.1203  0.7803  0.5716
   49DAL     HA  911   5.458   5.049   5.734 -1.0752 -2.0974  0.2713
   49DAL     CB  912   5.246   4.987   5.713 -0.5067  0.1630 -0.1668
   49DAL    HB1  913   5.261   4.945   5.611  1.2686  0.3380 -0.0195
   49DAL    HB2  914   5.142   5.023   5.722 -0.3400  1.3273 -2.1401
   49DAL    HB3  915   5.262   4.896   5.775 -0.5025  1.1165  1.2756
   49DAL      C  916   5.356   5.186   5.598 -0.2706 -0.4661  0.4446
   49DAL    OC1  917   5.460   5.177   5.523  0.3884  0.1774  0.6790
   49DAL    OC2  918   5.260   5.269   5.586  1.1834  0.5800  0.3787
   50NAG     C1  919   4.368   6.810   6.124 -0.5546 -0.3148 -0.2152
   50NAG     H1  920   4.367   6.759   6.223  0.9556  1.4414  0.7722
   50NAG     C5  921   4.466   6.612   6.010 -0.1620 -0.7708 -0.3835
   50NAG     H5  922   4.484   6.560   6.107  0.1042 -2.3068 -1.2335
   50NAG     O5  923   4.354   6.705   6.027 -0.6313  0.3004 -0.2008
   50NAG     C2  924   4.498   6.886   6.109  0.3005  0.1080 -0.1982
   50NAG     H2  925   4.491   6.941   6.013  0.4744 -2.6878 -1.9122
   50NAG     NC  926   4.518   6.971   6.222  0.0340  0.3142  0.1545
   50NAG     HN  927   4.595   6.953   6.283 -0.3773  1.0819  0.9181
   50NAG     CM  928   4.456   7.087   6.262  0.1816 -0.5813 -0.3162
   50NAG     OM  929   4.380   7.138   6.180 -0.4678  1.0647  0.2760
   50NAG     CC  930   4.492   7.152   6.388  0.4624  0.4798  0.5183
   50NAG    HC1  931   4.516   7.260   6.376 -0.8870  0.8030  0.5085
   50NAG    HC2  932   4.405   7.141   6.457  0.4755 -0.1539  0.4360
   50NAG    HC3  933   4.580   7.119   6.447 -0.1609 -0.6036  0.8748
   50NAG     C3  934   4.612   6.791   6.095  0.1283  0.6393 -0.1721
   50NAG     H3  935   4.632   6.740   6.192  2.0753 -1.3653 -1.5366
   50NAG     O3  936   4.729   6.875   6.071  0.4908  0.0080  0.2893
   50NAG    HO3  937   4.768   6.902   6.155 -1.0675 -0.6084  1.2769
   50NAG     C4  938   4.593   6.692   5.982 -0.2079 -0.2902 -0.6209
   50NAG     H4  939   4.585   6.748   5.887  2.3094  0.6797 -0.3217
   50NAG     O4  940   4.708   6.618   5.981 -0.0557 -0.4463 -0.7454
   50NAG     C6  941   4.444   6.507   5.902 -0.1788  0.1226  0.3848
   50NAG    H61  942   4.541   6.458   5.877 -0.2478 -0.6754  1.5798
   50NAG    H62  943   4.401   6.557   5.813 -1.4802 -2.9314 -0.8457
   50NAG     O6  944   4.353   6.400   5.938  0.3150  0.2057  0.2098
   50NAG    HO6  945   4.342   6.349   5.857 -0.6967  0.5779  0.1028
   51NAM     C1  946   3.867   6.962   6.194  0.2110 -0.7001  0.5039
   51NAM     H1  947   3.907   7.063   6.170 -0.1932 -0.6625 -0.0108
   51NAM     O1  948   3.732   6.983   6.232  0.1304  0.0855  0.1095
   51NAM    HO1  949   3.703   7.054   6.175  0.1412  0.2099  0.2584
   51NAM     C5  950   4.081   6.923   6.272  0.9161 -0.1882 -0.1215
   51NAM     H5  951   4.106   7.028   6.248 -0.6240  0.2569  0.1095
   51NAM     O5  952   3.942   6.908   6.301 -0.0593  0.1584 -0.5601
   51NAM     C2  953   3.885   6.875   6.067 -0.9449  0.5680  0.0029
   51NAM     H2  954   3.853   6.775   6.103 -2.1923 -0.0605 -2.6293
   51NAM     NC  955   3.799   6.922   5.964 -0.4393 -0.1646 -0.3979
   51NAM     HN  956   3.805   7.019   5.941 -1.0804  0.0265  0.2250
   51NAM     CM  957   3.701   6.854   5.900 -0.1430  0.1942 -0.5839
   51NAM     OM  958   3.662   6.740   5.905  0.8124 -0.2172 -0.3247
   51NAM     CC  959   3.643   6.938   5.789 -0.2002 -0.2229 -0.7997
   51NAM    HC1  960   3.533   6.946   5.804  0.1795  0.5778  2.2204
   51NAM    HC2  961   3.690   7.039   5.783 -0.5237 -0.0347 -0.3200
   51NAM    HC3  962   3.658   6.885   5.693  1.3466 -1.9398  0.3220
   51NAM     C3  963   4.032   6.871   6.031 -0.4779  0.7164  0.0998
   51NAM     H3  964   4.053   6.978   6.008 -3.8892  1.9690  1.9962
   51NAM     O3  965   4.059   6.793   5.913  0.7199 -0.0746  0.6446
   51NAM     CA  966   4.057   6.645   5.927 -0.2498 -0.2645  0.1238
   51NAM     HA  967   4.163   6.646   5.950 -0.1918 -0.5693 -0.1213
   51NAM      C  968   4.041   6.609   5.783 -0.8610  0.4766  0.5816
   51NAM      O  969   4.137   6.590   5.711  0.3065 -0.2106 -0.0504
   51NAM     CB  970   3.966   6.547   6.008  0.3077  0.2678  0.8911
   51NAM    HB1  971   3.976   6.562   6.118 -0.0151 -1.3803  1.1679
   51NAM    HB2  972   3.997   6.441   6.001 -2.2726 -0.4590 -3.1917
   51NAM    HB3  973   3.860   6.550   5.975  0.5101 -1.0464  0.0657
   51NAM     C4  974   4.129   6.842   6.147 -0.7597  1.2738 -0.0466
   51NAM     H4  975   4.142   6.734   6.170 -1.1477  1.4640  1.0897
   51NAM     O4  976   4.257   6.894   6.103  0.5644 -0.1708 -0.4529
   51NAM     C6  977   4.144   6.892   6.409  0.3297 -0.0758  0.7044
   51NAM    H61  978   4.255   6.887   6.402  0.2539 -0.9177 -0.0860
   51NAM    H62  979   4.104   6.792   6.438 -1.6176 -0.0901 -1.7860
   51NAM     O6  980   4.114   6.999   6.500 -0.1727 -0.1083  0.4144
   51NAM    HO6  981   4.023   7.028   6.489 -1.0626 -1.8780  2.3951
   52ALA      N  982   3.923   6.590   5.732  0.6725 -0.5614 -0.0755
   52ALA     HN  983   3.844   6.601   5.792 -0.0247 -0.3767 -1.0075
   52ALA     CA  984   3.894   6.534   5.597 -0.1072  0.3681 -0.4862
   52ALA     HA  985   3.958   6.585   5.527 -0.2064  3.2408  1.3648
   52ALA     CB  986   3.746   6.562   5.583 -0.5221  0.7646 -0.3514
   52ALA    HB1  987   3.718   6.669   5.583 -0.4712  0.7788 -1.1495
   52ALA    HB2  988   3.697   6.529   5.678 -1.0298 -1.2747 -1.2616
   52ALA    HB3  989   3.703   6.511   5.494 -0.6920 -0.5984  0.4777
   52ALA      C  990   3.935   6.387   5.593 -0.0946 -0.1128  0.1723
   52ALA      O  991   3.938   6.309   5.687 -0.4286  0.4663 -0.1580
   53GLN      N  992   3.996   6.337   5.479  0.1471 -0.4795 -0.8680
   53GLN     HN  993   4.002   6.238   5.486 -0.6196 -0.5104 -0.6024
   53GLN     CA  994   4.015   6.394   5.346 -0.0888  0.6218 -0.1288
   53GLN     HA  995   4.027   6.312   5.276 -1.5676  1.2541 -1.1592
   53GLN     CD  996   3.891   6.457   5.276 -0.6320  0.8076  0.1237
   53GLN    OE1  997   3.883   6.578   5.267  0.4638  0.2101 -0.0720
   53GLN    NE2  998   3.791   6.377   5.242 -0.2926  0.2093  0.1254
   53GLN   HE21  999   3.800   6.278   5.251  0.5735  0.1980 -0.7185
   53GLN   HE22 1000   3.721   6.423   5.187  0.1441 -0.8813 -1.4271
   53GLN     CB 1001   4.152   6.483   5.336  0.3239  0.2780 -1.0516
   53GLN    HB1 1002   4.138   6.573   5.400 -0.1686 -0.7288  0.3145
   53GLN    HB2 1003   4.159   6.497   5.226  0.0404  0.8241 -1.0033
   53GLN     CG 1004   4.272   6.400   5.391 -0.9704 -0.5378  0.2470
   53GLN    HG1 1005   4.238   6.295   5.386 -3.9565  0.4115 -1.5204
   53GLN    HG2 1006   4.301   6.434   5.493  0.5498  0.6929 -0.5439
   53GLN      C 1007   4.394   6.413   5.314 -0.0977 -0.1469 -0.1057
   53GLN      O 1008   4.435   6.523   5.280 -0.1689 -0.2817 -0.5032
   54LYS      N 1009   4.474   6.305   5.296 -1.0177 -0.1442  0.5568
   54LYS     HN 1010   4.560   6.320   5.248 -1.5910  1.9515  0.1081
   54LYS     CA 1011   4.445   6.167   5.321 -0.3361 -0.5446 -0.5026
   54LYS     HA 1012   4.405   6.161   5.421 -3.6505  0.6295 -1.6162
   54LYS     CB 1013   4.586   6.100   5.327 -0.2762 -0.0799  0.1176
   54LYS    HB1 1014   4.583   5.990   5.337  0.0766 -0.1611 -0.6346
   54LYS    HB2 1015   4.635   6.127   5.231 -0.4456  1.6351  0.4697
   54LYS     CG 1016   4.670   6.137   5.448  0.8351  0.0902  0.2694
   54LYS    HG1 1017   4.663   6.247   5.460 -1.2497  0.5491 -3.7092
   54LYS    HG2 1018   4.605   6.090   5.525 -0.4041 -1.2442 -1.5159
   54LYS     CD 1019   4.818   6.104   5.442  0.2768 -0.2183 -0.2558
   54LYS    HD1 1020   4.866   6.103   5.342  1.7729 -1.1802  0.4296
   54LYS    HD2 1021   4.875   6.186   5.490 -0.7151  1.2759 -1.5546
   54LYS     CE 1022   4.848   5.963   5.504 -0.3940 -0.7327  0.8627
   54LYS    HE1 1023   4.792   5.895   5.437 -1.5377  0.6701  0.3466
   54LYS    HE2 1024   4.958   5.959   5.492 -0.6171 -0.0072 -2.4591
   54LYS     NZ 1025   4.809   5.954   5.641 -0.4184  0.3929  0.0922
   54LYS    HZ1 1026   4.707   5.934   5.642 -0.2764 -0.3392  1.0374
   54LYS    HZ2 1027   4.827   6.040   5.696 -2.0924  1.6419 -1.2273
   54LYS    HZ3 1028   4.847   5.866   5.681  0.6961  0.4430 -0.8077
   54LYS      C 1029   4.340   6.103   5.232 -0.5601 -0.9683 -0.7808
   54LYS      O 1030   4.312   6.168   5.134  0.2516  0.6931  0.5622
   55DAL      N 1031   4.270   5.994   5.259 -0.1615  0.4242 -0.3086
   55DAL     HN 1032   4.198   5.987   5.192  0.1289  2.6593 -0.9553
   55DAL     CA 1033   4.271   5.909   5.379 -0.6898  0.0976  0.0041
   55DAL     HA 1034   4.372   5.900   5.415 -0.5149 -1.5694 -0.8324
   55DAL     CB 1035   4.203   5.772   5.341  0.3793  0.4131 -0.0330
   55DAL    HB1 1036   4.255   5.720   5.257  2.4173  0.5638  1.0589
   55DAL    HB2 1037   4.215   5.698   5.423  1.5499  1.1114  0.4581
   55DAL    HB3 1038   4.096   5.780   5.314  0.0268 -2.6318  0.0880
   55DAL      C 1039   4.202   5.978   5.495 -1.0931 -0.0996 -0.8814
   55DAL      O 1040   4.108   6.049   5.479 -0.2713  0.1262  0.2146
   56DAL      N 1041   4.250   5.959   5.621 -0.3851 -0.5008 -0.4458
   56DAL     HN 1042   4.217   6.025   5.688  3.1650  0.3271  0.6797
   56DAL     CA 1043   4.327   5.855   5.679 -0.2914  0.3058 -0.1565
   56DAL     HA 1044   4.293   5.768   5.626 -0.2211 -0.9908  1.8412
   56DAL     CB 1045   4.278   5.830   5.819  0.0765  0.8251 -0.0872
   56DAL    HB1 1046   4.312   5.732   5.859 -1.0665  0.5010  0.1511
   56DAL    HB2 1047   4.312   5.900   5.898  1.6295  1.8389 -1.5940
   56DAL    HB3 1048   4.167   5.838   5.827  0.0288  2.7582 -1.7420
   56DAL      C 1049   4.479   5.890   5.666  0.0588  0.3975 -0.2605
   56DAL    OC1 1050   4.534   5.965   5.745  0.3016 -0.3762 -0.1792
   56DAL    OC2 1051   4.547   5.835   5.577  0.1764  0.1131  0.2715
   57TIP3   OH2 1052   0.701   3.815   5.872 -0.5299  0.1115 -0.6473
   57TIP3    H1 1053   0.703   3.734   5.923 -0.8506  0.7170  0.3759
   57TIP3    H2 1054   0.650   3.794   5.794 -1.0030 -0.5499 -0.1737
   58TIP3   OH2 1055   7.075   7.604   0.075  0.1427 -0.2177 -0.6561
   58TIP3    H1 1056   7.033   7.599   0.161  2.2558  0.8899  0.5069
   58TIP3    H2 1057   7.006   7.636   0.017 -1.0989 -0.1564  0.7848
   59TIP3   OH2 1058   7.986   0.774   5.534  0.3836  0.4036  0.0602
   59TIP3    H1 1059   8.014   0.859   5.569 -1.7349  1.4593 -0.6478
   59TIP3    H2 1060   7.920   0.743   5.596  0.3262 -0.1781 -0.2859
   60TIP3   OH2 1061   9.477   8.484   0.932 -0.2546  0.0868  0.7942
   60TIP3    H1 1062   9.480   8.567   0.980  2.4071  0.1657  0.6338
   60TIP3    H2 1063   9.463   8.418   1.000  1.5568  0.3707  1.5069
   61TIP3   OH2 1064   1.110   2.245   8.422  0.5734  0.4641  0.5587
   61TIP3    H1 1065   1.037   2.199   8.464  0.2753  0.4820  0.0696
   61TIP3    H2 1066   1.122   2.324   8.476  0.1211  0.5452  0.5471
   62TIP3   OH2 1067   4.913   3.500   9.120 -0.4759  0.2553 -0.1236
   62TIP3    H1 1068   4.997   3.520   9.077 -0.1786  0.4925  0.5562
   62TIP3    H2 1069   4.879   3.424   9.071  1.2747 -1.3835  1.0511
   63TIP3   OH2 1070   5.146   6.162   0.159 -0.3344  0.2004  0.7546
   63TIP3    H1 1071   5.058   6.200   0.154  0.4292  2.1496  1.2387
   63TIP3    H2 1072   5.205   6.238   0.158  1.2817 -0.9742  2.0134
   64TIP3   OH2 1073   9.609   7.557   7.504 -0.4479 -0.6697  0.4187
   64TIP3    H1 1074   9.613   7.474   7.458 -0.3624 -0.4786  0.0777
   64TIP3    H2 1075   9.693   7.564   7.549  0.2151 -0.0393 -0.8423
   65TIP3   OH2 1076   3.046   3.051   8.760 -0.5437 -0.3501 -0.5624
   65TIP3    H1 1077   3.068   3.142   8.740 -0.1710 -0.6128 -1.4182
   65TIP3    H2 1078   3.131   3.008   8.772 -0.6462 -0.8788 -1.5885
   66TIP3   OH2 1079   8.542   5.528   1.318  0.0786  0.3698  0.6359
   66TIP3    H1 1080   8.589   5.611   1.322 -0.3897  0.5961  2.1421
   66TIP3    H2 1081   8.588   5.471   1.380  0.0074 -0.3036  0.0925
   67TIP3   OH2 1082  10.199   6.134  10.510 -0.2316  0.1662  0.4544
   67TIP3    H1 1083  10.182   6.183  10.430 -2.2038 -0.2402  0.5751
   67TIP3    H2 1084  10.136   6.062  10.508  0.0425 -0.1602  2.1063
   68TIP3   OH2 1085   2.752   9.303   4.922 -0.4803 -0.9538 -0.1091
   68TIP3    H1 1086   2.680   9.360   4.947  0.7750  0.7903 -0.3166
   68TIP3    H2 1087   2.739   9.223   4.973 -2.6184 -0.7478 -0.2706
   69TIP3   OH2 1088   9.063   3.076   3.015 -0.1543 -0.4571 -0.4707
   69TIP3    H1 1089   9.135   3.026   3.053  1.3782  1.5594 -0.5409
   69TIP3    H2 1090   9.075   3.165   3.050 -1.0944  0.5076 -2.4414
   70TIP3   OH2 1091   0.921   4.407   8.109 -0.3056 -0.2754 -0.1702
   70TIP3    H1 1092   0.883   4.389   8.024 -1.8396  1.7853 -0.0030
   70TIP3    H2 1093   0.847   4.422   8.167  0.7138 -0.5425  1.2709
   71TIP3   OH2 1094   4.431   2.929   1.291 -0.2007 -0.0542 -0.0054
   71TIP3    H1 1095   4.408   2.858   1.351 -0.0721 -0.7934 -0.8230
   71TIP3    H2 1096   4.434   3.007   1.347  0.3575 -0.7976  1.0296
   72TIP3   OH2 1097   1.714   6.447  10.798  0.0336 -0.1146  0.0739
   72TIP3    H1 1098   1.673   6.436  10.713 -1.3539 -1.3871  0.8655
   72TIP3    H2 1099   1.647   6.488  10.853  0.4867 -0.4126  0.8740
   73TIP3   OH2 1100   9.294   6.711   3.931  0.1678  0.0922  0.0514
   73TIP3    H1 1101   9.277   6.634   3.985 -0.6676 -0.0532 -0.3938
   73TIP3    H2 1102   9.211   6.727   3.885  0.4425  1.0229 -0.1544
   74TIP3   OH2 1103   0.996   4.824   9.450  0.0182 -0.1961  0.1683
   74TIP3    H1 1104   0.928   4.875   9.406  0.9380 -0.0661 -1.1939
   74TIP3    H2 1105   1.067   4.818   9.385  0.7350 -1.5258  1.0148
   75TIP3   OH2 1106   7.886   1.889   2.192 -0.2875  0.3386  0.2241
   75TIP3    H1 1107   7.820   1.906   2.259 -1.6708 -0.0717 -0.9755
   75TIP3    H2 1108   7.893   1.972   2.144 -0.8594  0.0458 -0.3965
   76TIP3   OH2 1109   7.616  10.722   4.407 -0.4664 -0.1575  0.2517
   76TIP3    H1 1110   7.703  10.688   4.386 -0.1813  0.3378  0.6225
   76TIP3    H2 1111   7.629  10.816   4.420 -1.6524  0.7135 -3.3949
   77TIP3   OH2 1112   7.235  10.258   8.840  0.0611 -0.2570  0.6457
   77TIP3    H1 1113   7.272  10.336   8.799  0.0044  0.5408  2.0390
   77TIP3    H2 1114   7.181  10.292   8.911 -1.8793 -1.4724 -0.1724
   78TIP3   OH2 1115   4.411  10.590   8.691  0.0768 -0.3792 -1.0163
   78TIP3    H1 1116   4.434  10.575   8.783 -0.1245 -0.1608 -0.9307
   78TIP3    H2 1117   4.398  10.502   8.656 -1.1856 -0.4255 -0.4881
   79TIP3   OH2 1118   4.118   4.115   2.803  0.6130  0.4890  0.2726
   79TIP3    H1 1119   4.195   4.088   2.753  0.1156 -0.0617 -0.2210
   79TIP3    H2 1120   4.084   4.033   2.840  0.9962  0.8959  1.5616
   80TIP3   OH2 1121   2.882   0.466   6.843 -0.5185 -0.3137 -0.0150
   80TIP3    H1 1122   2.965   0.421   6.826  0.3000  1.2566 -0.3610
   80TIP3    H2 1123   2.819   0.420   6.788  0.4513 -0.5085 -1.0028
   81TIP3   OH2 1124   7.242   2.555  10.862 -0.2600 -0.3882  0.1012
   81TIP3    H1 1125   7.333   2.578  10.842 -0.3059 -1.6446 -1.7469
   81TIP3    H2 1126   7.240   2.545  10.957  1.7947 -1.3680  0.0898
   82TIP3   OH2 1127   7.312   3.772   3.789  0.5425  0.4129  0.1753
   82TIP3    H1 1128   7.258   3.694   3.773  0.6986  0.3479 -0.0342
   82TIP3    H2 1129   7.398   3.737   3.811  0.2830  0.4872  1.4071
   83TIP3   OH2 1130   0.633   3.502   0.103  0.8319  0.0248  0.1863
   83TIP3    H1 1131   0.549   3.511   0.058  1.5271 -0.2131 -1.2085
   83TIP3    H2 1132   0.623   3.553   0.183 -0.6589 -0.0631  0.0801
   84TIP3   OH2 1133   8.499   8.166   9.077  0.0415  0.7766 -0.1544
   84TIP3    H1 1134   8.589   8.144   9.053 -0.4586 -0.9406 -0.5550
   84TIP3    H2 1135   8.480   8.113   9.154 -0.8336  0.6574 -0.4379
   85TIP3   OH2 1136   1.695   5.777   9.149 -0.1419  1.0069  0.3112
   85TIP3    H1 1137   1.677   5.870   9.164  2.8141  1.8252 -0.6483
   85TIP3    H2 1138   1.728   5.745   9.233 -1.4896  0.6915  0.7422
   86TIP3   OH2 1139   1.430   9.348   7.416  0.6345  0.0855  0.2866
   86TIP3    H1 1140   1.355   9.325   7.471  1.1812 -0.5911  0.7670
   86TIP3    H2 1141   1.499   9.370   7.479  0.7858  0.8995 -0.1532
   87TIP3   OH2 1142  10.463   7.412   8.875 -0.0136  0.2477 -0.5417
   87TIP3    H1 1143  10.374   7.435   8.900  0.4140  0.7102  0.6659
   87TIP3    H2 1144  10.494   7.485   8.822 -0.6434 -0.3324 -1.7319
   88TIP3   OH2 1145   9.061   7.580   5.539  0.2312  0.1454  0.6345
   88TIP3    H1 1146   9.098   7.637   5.605  0.4207 -1.2761  1.8101
   88TIP3    H2 1147   8.983   7.542   5.581  0.3683 -0.7951  0.0673
   89TIP3   OH2 1148   4.534   8.868   5.441  0.8368  0.1862 -0.5603
   89TIP3    H1 1149   4.502   8.957   5.429  2.4740  0.9835  0.6363
   89TIP3    H2 1150   4.577   8.869   5.527 -0.4349 -2.1755  0.1794
   90TIP3   OH2 1151   7.198   6.916   8.314 -0.0689  0.2816  0.3329
   90TIP3    H1 1152   7.204   6.972   8.391  0.2463  0.6219  0.0653
   90TIP3    H2 1153   7.287   6.884   8.300  0.2259  1.5296 -0.8423
   91TIP3   OH2 1154   0.668   6.540   9.560 -0.5282 -0.8281 -0.6658
   91TIP3    H1 1155   0.694   6.544   9.468 -1.6140  1.3772 -0.9418
   91TIP3    H2 1156   0.635   6.628   9.579 -3.4027 -2.1195  0.9196
   92TIP3   OH2 1157   0.031   1.245   7.946 -0.2678 -0.4195 -0.0293
   92TIP3    H1 1158   0.031   1.294   7.863 -2.1014 -1.2475 -0.5744
   92TIP3    H2 1159   0.101   1.180   7.936  0.4103  0.3490 -0.3757
   93TIP3   OH2 1160   7.144   1.406   2.996  0.3904  0.1371  1.0012
   93TIP3    H1 1161   7.075   1.469   3.013 -0.5876 -1.2101  2.3143
   93TIP3    H2 1162   7.098   1.323   2.981  1.6493 -0.4070 -0.1520
   94TIP3   OH2 1163   1.902   7.822   7.453  0.3598 -0.3805  0.4423
   94TIP3    H1 1164   1.997   7.824   7.440  0.3155 -0.2849  0.1223
   94TIP3    H2 1165   1.872   7.750   7.398  0.2480 -0.4277  0.5648
   95TIP3   OH2 1166   0.645   5.647   8.891 -0.6054  0.9677 -0.4003
   95TIP3    H1 1167   0.716   5.695   8.848  0.1881  0.7617  0.6200
   95TIP3    H2 1168   0.624   5.700   8.968  0.3199 -0.2836  0.7747
   96TIP3   OH2 1169   4.507   1.327  10.556  0.1531  0.0424 -0.3202
   96TIP3    H1 1170   4.595   1.348  10.524 -0.1125  0.0583 -1.0757
   96TIP3    H2 1171   4.452   1.396  10.519 -0.2286 -0.1685 -0.1468
   97TIP3   OH2 1172   5.270   4.436   1.810  0.3286 -0.4700 -0.0723
   97TIP3    H1 1173   5.251   4.529   1.824 -0.7272 -0.8450  1.2503
   97TIP3    H2 1174   5.342   4.417   1.871  0.6514 -0.4926 -0.4554
   98TIP3   OH2 1175   6.839   1.808   8.069  0.2393  0.8914  0.2069
   98TIP3    H1 1176   6.914   1.862   8.093  0.9330 -0.5964  1.6665
   98TIP3    H2 1177   6.834   1.743   8.139 -1.0575 -0.3955 -1.0083
   99TIP3   OH2 1178   8.853   9.168   5.776  0.7127 -0.0694  0.3708
   99TIP3    H1 1179   8.773   9.155   5.828 -0.9367  1.4674 -1.5951
   99TIP3    H2 1180   8.885   9.079   5.760  0.4077 -0.6558  2.5891
  100TIP3   OH2 1181   3.774   5.025   4.752  0.0818 -0.3832  0.4319
  100TIP3    H1 1182   3.743   4.957   4.693 -1.6626  0.3651  0.4242
  100TIP3    H2 1183   3.823   5.085   4.696  2.3251 -1.9600  0.5699
  101TIP3   OH2 1184   5.576   8.148   3.061  0.1397 -0.3840  0.2759
  101TIP3    H1 1185   5.546   8.060   3.042  1.4612 -0.1647 -3.6906
  101TIP3    H2 1186   5.641   8.167   2.993  0.6894  3.2848  1.5768
  102TIP3   OH2 1187   3.576   1.851   8.385  0.5973 -0.3288  0.5665
  102TIP3    H1 1188   3.598   1.835   8.477  0.0655 -1.1291  0.5647
  102TIP3    H2 1189   3.550   1.944   8.383 -1.6464 -0.8485  1.7154
  103TIP3   OH2 1190   1.451   5.289   8.678  0.7203 -0.1155  0.5126
  103TIP3    H1 1191   1.495   5.277   8.762  0.5707 -1.0553  0.4582
  103TIP3    H2 1192   1.471   5.380   8.654  2.0932 -0.3147  0.7963
  104TIP3   OH2 1193   9.366   4.799   4.178  0.6381  0.5986  0.0745
  104TIP3    H1 1194   9.339   4.851   4.103  1.9260  1.1214 -0.0571
  104TIP3    H2 1195   9.288   4.791   4.232 -0.0955  0.8915 -0.9310
  105TIP3   OH2 1196   4.625   3.608  10.542  0.1783  0.6995 -0.2190
  105TIP3    H1 1197   4.694   3.606  10.475  1.0992 -2.2863  0.6396
  105TIP3    H2 1198   4.668   3.575  10.621 -1.9177  0.0267  0.7079
  106TIP3   OH2 1199   7.021   6.027   9.329  0.0156  0.8392 -0.0622
  106TIP3    H1 1200   6.952   5.962   9.346  1.7826 -1.6486 -1.7364
  106TIP3    H2 1201   6.995   6.069   9.247 -0.3428  1.1686  0.2143
  107TIP3   OH2 1202   9.665   5.862   4.353 -0.1325 -0.6088  0.4519
  107TIP3    H1 1203   9.604   5.792   4.329 -0.7395  0.2488 -0.5534
  107TIP3    H2 1204   9.710   5.884   4.272 -1.2037  1.3666  0.3475
  108TIP3   OH2 1205   9.451   6.237   9.032  0.3291  0.4891  0.1130
  108TIP3    H1 1206   9.513   6.165   9.047 -1.2894 -0.9501  0.1818
  108TIP3    H2 1207   9.413   6.219   8.946 -0.9797  0.5459  0.6503
  109TIP3   OH2 1208   4.449   1.517   9.874 -0.1862  1.1075  0.3364
  109TIP3    H1 1209   4.540   1.507   9.846  0.2377 -0.8295  2.1382
  109TIP3    H2 1210   4.398   1.510   9.794  1.1901  0.7699 -0.5479
  110TIP3   OH2 1211   0.635   0.174   2.520 -0.2074 -0.3033  0.3278
  110TIP3    H1 1212   0.551   0.132   2.500 -1.1380  0.4568  2.3834
  110TIP3    H2 1213   0.632   0.257   2.472 -1.2087  0.2859  1.3620
  111TIP3   OH2 1214   8.643   5.617   1.618  0.3055 -0.1716 -0.1966
  111TIP3    H1 1215   8.691   5.623   1.701 -0.7050  0.6592  0.3498
  111TIP3    H2 1216   8.654   5.703   1.577 -1.2912  0.3041  0.2926
  112TIP3   OH2 1217   7.818   3.820   4.215 -0.0348 -0.0319 -0.4244
  112TIP3    H1 1218   7.891   3.881   4.205  0.0151 -0.1015 -0.4911
  112TIP3    H2 1219   7.756   3.865   4.272 -0.6683  0.6873 -1.6402
  113TIP3   OH2 1220   3.719   6.452   9.500 -0.2374 -0.1829 -0.8026
  113TIP3    H1 1221   3.686   6.541   9.489 -2.4664 -0.7553  0.5830
  113TIP3    H2 1222   3.646   6.403   9.538  2.0025 -1.7103  2.0545
  114TIP3   OH2 1223   2.440   3.320   5.114 -0.3006 -0.3299 -0.0621
  114TIP3    H1 1224   2.401   3.303   5.200 -1.5657 -0.1827 -0.5872
  114TIP3    H2 1225   2.384   3.273   5.053  1.5131 -1.7837 -0.6970
  115TIP3   OH2 1226   2.180   1.366   4.261 -0.0846 -0.4951 -0.4869
  115TIP3    H1 1227   2.221   1.353   4.346 -1.0950  0.0848  0.1208
  115TIP3    H2 1228   2.086   1.368   4.280 -0.2785  1.3436 -1.3407
  116TIP3   OH2 1229   3.684   9.219   5.092 -0.0238 -0.0029 -0.5028
  116TIP3    H1 1230   3.686   9.302   5.140 -4.2976 -0.6755  1.2496
  116TIP3    H2 1231   3.690   9.152   5.160 -0.3507 -1.0849 -1.5191
  117TIP3   OH2 1232   9.784   0.688   7.285  0.1565 -0.0537 -1.0691
  117TIP3    H1 1233   9.853   0.695   7.220  0.3475 -0.6490 -0.9295
  117TIP3    H2 1234   9.704   0.676   7.233  0.2754 -0.2825 -1.1980
  118TIP3   OH2 1235   7.435   3.556  10.009 -0.2020 -0.1252  0.5178
  118TIP3    H1 1236   7.481   3.510   9.939 -0.3890 -1.3000  1.1434
  118TIP3    H2 1237   7.456   3.648   9.994  2.1114 -0.5725  0.5976
  119TIP3   OH2 1238   0.356   2.231   2.744  0.2795 -0.6523  0.4089
  119TIP3    H1 1239   0.363   2.291   2.670  0.4413 -1.0997  0.0558
  119TIP3    H2 1240   0.445   2.199   2.758 -0.1263 -2.5068 -0.8519
  120TIP3   OH2 1241   1.279   8.409   1.224 -0.4417  0.6353 -0.1469
  120TIP3    H1 1242   1.298   8.429   1.132 -0.1331  1.1857  0.0268
  120TIP3    H2 1243   1.358   8.437   1.271 -0.9382  1.1959  0.3798
  121TIP3   OH2 1244   7.499  10.123   3.910 -0.0492 -0.1380 -0.4206
  121TIP3    H1 1245   7.456  10.042   3.939  0.1913 -0.4396 -0.9029
  121TIP3    H2 1246   7.563  10.095   3.844  1.3528  0.2190  0.7262
  122TIP3   OH2 1247   7.854   8.326   3.330 -0.1159  0.0428 -0.2749
  122TIP3    H1 1248   7.801   8.381   3.389 -0.4727 -1.5588  0.9729
  122TIP3    H2 1249   7.860   8.377   3.250 -1.7740  1.2222  0.2734
  123TIP3   OH2 1250   9.627   3.315   3.347 -0.0555  0.2450  0.0334
  123TIP3    H1 1251   9.710   3.337   3.390  0.2098 -0.7190  0.0385
  123TIP3    H2 1252   9.568   3.386   3.372  0.8451  1.1058 -0.2110
  124TIP3   OH2 1253   5.577  10.615   6.835  0.3315 -0.4471 -0.1570
  124TIP3    H1 1254   5.551  10.610   6.743 -0.5163 -0.0818  0.0450
  124TIP3    H2 1255   5.556  10.529   6.871 -0.0271 -0.3553 -0.1415
  125TIP3   OH2 1256   2.431   3.609   3.167 -0.3391  0.1333 -0.4029
  125TIP3    H1 1257   2.515   3.567   3.152 -0.6025  0.2862 -2.4978
  125TIP3    H2 1258   2.387   3.606   3.082 -3.0239 -1.1777  0.8967
  126TIP3   OH2 1259   2.255   2.242   0.491  0.4478  0.0566 -0.5454
  126TIP3    H1 1260   2.247   2.326   0.446  1.4438  0.4266 -0.0610
  126TIP3    H2 1261   2.318   2.259   0.562 -2.5055  0.0857  2.3104
  127TIP3   OH2 1262   8.045   6.346   1.888  0.2667 -0.3545 -0.2435
  127TIP3    H1 1263   8.061   6.438   1.864  0.7927 -0.0818  1.0605
  127TIP3    H2 1264   8.106   6.296   1.834 -0.5126 -0.0326 -1.4950
  128TIP3   OH2 1265   9.862   1.435   4.166  0.6656  0.8167  0.3136
  128TIP3    H1 1266   9.846   1.395   4.252 -1.2654  0.2104 -0.2773
  128TIP3    H2 1267   9.777   1.470   4.140  1.1383  0.7149 -1.4836
  129TIP3   OH2 1268   5.683   1.616  10.890  0.3819  0.0246 -0.0787
  129TIP3    H1 1269   5.613   1.557  10.862  0.5519 -1.3131  2.1390
  129TIP3    H2 1270   5.650   1.659  10.968  3.0654 -3.1290  3.1178
  130TIP3   OH2 1271   7.296   8.611   8.197 -0.2593 -0.2902  0.3910
  130TIP3    H1 1272   7.236   8.612   8.272  1.1416 -1.2678  1.5668
  130TIP3    H2 1273   7.298   8.702   8.167 -2.4194 -0.2420  0.2028
  131TIP3   OH2 1274   9.923   3.234   4.368  0.4323 -0.1246 -0.3531
  131TIP3    H1 1275   9.950   3.143   4.353 -0.2104 -0.2287 -0.9254
  131TIP3    H2 1276   9.964   3.283   4.297 -0.4920 -0.2153 -0.9642
  132TIP3   OH2 1277   2.850   5.264   4.057  0.5702  0.0346  0.2459
  132TIP3    H1 1278   2.920   5.293   3.998  0.3505 -2.9006 -1.6691
  132TIP3    H2 1279   2.770   5.278   4.008  0.0439  0.6180  1.2413
  133TIP3   OH2 1280   1.918   0.860   6.766  0.3106 -0.3411  0.5193
  133TIP3    H1 1281   1.832   0.844   6.805  0.5425 -1.1132  0.7334
  133TIP3    H2 1282   1.906   0.842   6.673  0.0993  0.1407  0.4497
  134TIP3   OH2 1283   7.271  10.807   9.448 -0.2904 -0.2944 -0.1704
  134TIP3    H1 1284   7.207  10.867   9.487 -2.8643 -2.0198 -1.4479
  134TIP3    H2 1285   7.270  10.829   9.355  0.7400 -0.5873 -0.2557
  135TIP3   OH2 1286   5.416   6.792   6.951 -0.0518 -0.6352 -0.3892
  135TIP3    H1 1287   5.363   6.805   6.872 -1.9425 -0.0300  0.8895
  135TIP3    H2 1288   5.423   6.880   6.989  0.2166 -1.0258  0.4740
  136TIP3   OH2 1289  10.094   1.896   0.404  0.0785  0.3278 -0.3112
  136TIP3    H1 1290  10.043   1.821   0.373  1.4137 -1.0097  0.5934
  136TIP3    H2 1291  10.034   1.942   0.464 -0.5022 -0.4610 -0.2758
  137TIP3   OH2 1292   3.614   4.447   4.647 -0.3890 -0.0165 -0.1239
  137TIP3    H1 1293   3.565   4.458   4.565  2.5120  0.7663 -1.9170
  137TIP3    H2 1294   3.651   4.534   4.664  0.7033 -0.6631  0.8883
  138TIP3   OH2 1295   7.270   2.461   7.875  0.0346  0.5172 -0.0812
  138TIP3    H1 1296   7.219   2.542   7.884 -1.9741 -0.7220  0.4566
  138TIP3    H2 1297   7.208   2.392   7.898  1.1789 -1.3207 -2.1122
  139TIP3   OH2 1298   4.697   2.122   3.199  0.6850 -0.3843 -0.3803
  139TIP3    H1 1299   4.762   2.053   3.210  0.0089 -0.9983 -0.1810
  139TIP3    H2 1300   4.717   2.185   3.268  2.3709  0.4992 -1.5930
  140TIP3   OH2 1301   3.600   9.240   7.016  0.2035 -0.0996  0.1918
  140TIP3    H1 1302   3.632   9.182   7.085  0.3566 -1.2741 -0.8411
  140TIP3    H2 1303   3.505   9.224   7.013  0.2719 -0.4134 -0.2140
  141TIP3   OH2 1304   2.467   5.661   9.927 -0.0358 -0.2853 -0.2933
  141TIP3    H1 1305   2.456   5.728   9.994 -1.7430 -1.6424  0.8992
  141TIP3    H2 1306   2.544   5.611   9.955 -0.3693 -0.4603  0.3320
  142TIP3   OH2 1307   2.379   2.714   3.353  0.3206 -0.3310  0.5041
  142TIP3    H1 1308   2.299   2.762   3.376  0.4107 -0.5928  1.4269
  142TIP3    H2 1309   2.415   2.687   3.437  1.2881 -0.3793  0.0876
  143TIP3   OH2 1310   7.615   9.833   8.768 -0.1924 -0.0418 -0.0316
  143TIP3    H1 1311   7.659   9.908   8.726  0.3781  0.5293  1.5148
  143TIP3    H2 1312   7.547   9.873   8.823  0.5450 -0.5923  1.3154
  144TIP3   OH2 1313   2.560   3.629   8.433  0.1861 -0.1440  0.0697
  144TIP3    H1 1314   2.596   3.675   8.357  1.5265 -1.1062  0.0977
  144TIP3    H2 1315   2.488   3.577   8.398  0.2548  0.0609 -0.3833
  145TIP3   OH2 1316   6.194   5.015  10.026  0.1174  1.0554  0.5142
  145TIP3    H1 1317   6.113   4.964  10.026  0.6477  0.0384 -2.1648
  145TIP3    H2 1318   6.261   4.955  10.060  0.1811  1.0321  0.3505
  146TIP3   OH2 1319   9.241   4.346   6.380 -0.5214  0.0325 -0.2513
  146TIP3    H1 1320   9.212   4.345   6.289 -0.5812  0.7202 -0.2448
  146TIP3    H2 1321   9.210   4.263   6.416 -3.3271  1.0954  0.0051
  147TIP3   OH2 1322   4.903   2.367   6.328 -0.3711 -0.0702  0.1069
  147TIP3    H1 1323   4.964   2.326   6.389 -0.4449 -2.4287 -1.2801
  147TIP3    H2 1324   4.834   2.302   6.316 -2.3640  1.8978  0.4223
  148TIP3   OH2 1325   3.913   7.483   9.356 -0.5703 -0.2278  0.5509
  148TIP3    H1 1326   3.960   7.495   9.438 -0.7243 -0.6125  0.6953
  148TIP3    H2 1327   3.821   7.485   9.381 -0.6575  0.9561  0.2152
  149TIP3   OH2 1328   9.412   1.422   9.333 -0.7637  0.6412  0.6877
  149TIP3    H1 1329   9.339   1.367   9.306  0.5208 -0.7605 -0.1070
  149TIP3    H2 1330   9.451   1.375   9.407  0.3747  0.4423 -0.0149
  150TIP3   OH2 1331   7.498   5.733   8.318 -0.1377 -0.2534  0.2141
  150TIP3    H1 1332   7.537   5.645   8.325 -1.2934 -0.7677  0.5410
  150TIP3    H2 1333   7.439   5.738   8.393  0.6427  1.2007  0.7543
  151TIP3   OH2 1334   8.828   7.721   6.313  0.3488  0.2610  0.2897
  151TIP3    H1 1335   8.853   7.694   6.225  0.1603  1.4430 -0.1438
  151TIP3    H2 1336   8.851   7.814   6.317  2.3758 -0.2446  2.2316
  152TIP3   OH2 1337   4.386   3.909   6.302  0.1776 -0.6405  0.0017
  152TIP3    H1 1338   4.375   3.872   6.390  0.2023  0.6379  0.5733
  152TIP3    H2 1339   4.414   3.999   6.318 -1.1747  0.0470 -1.3033
  153TIP3   OH2 1340   2.374   4.192   8.008  0.9255  0.2193 -0.0339
  153TIP3    H1 1341   2.366   4.205   7.914  1.3254  0.9313  0.0310
  153TIP3    H2 1342   2.286   4.167   8.036  0.4206  1.5630 -0.3530
  154TIP3   OH2 1343   3.124   4.502  10.458 -0.7094  0.0258 -0.2100
  154TIP3    H1 1344   3.111   4.435  10.525  0.4799 -1.1227 -1.0875
  154TIP3    H2 1345   3.118   4.585  10.507 -0.4882 -0.7548  1.2086
  155TIP3   OH2 1346   9.624   2.190   2.217 -0.0348 -0.1816  0.5004
  155TIP3    H1 1347   9.699   2.165   2.162 -0.7246  0.0835 -0.5957
  155TIP3    H2 1348   9.564   2.116   2.211 -1.3523  0.9258 -1.4224
  156TIP3   OH2 1349   3.613   1.137   9.363 -0.5920 -0.2525 -1.1031
  156TIP3    H1 1350   3.663   1.080   9.306  0.9027 -0.6807  0.5394
  156TIP3    H2 1351   3.599   1.085   9.443 -0.1226  1.2594  0.0157
  157TIP3   OH2 1352   6.376  10.062  10.581  0.1823  0.1704 -0.4171
  157TIP3    H1 1353   6.325   9.996  10.534  1.5734 -0.7741 -0.6806
  157TIP3    H2 1354   6.421  10.013  10.651  1.5506  0.7366 -0.8570
  158TIP3   OH2 1355   2.111   8.492   0.759 -0.3572 -0.0696 -0.3093
  158TIP3    H1 1356   2.106   8.413   0.706 -2.1051 -0.9836  1.1140
  158TIP3    H2 1357   2.024   8.501   0.797  1.2495 -0.7438  4.1202
  159TIP3   OH2 1358   9.288   0.628   2.521 -0.5309 -0.2146 -0.1029
  159TIP3    H1 1359   9.220   0.564   2.498  1.2339 -2.9730  1.7258
  159TIP3    H2 1360   9.261   0.663   2.606 -1.2419  1.1820 -0.8746
  160TIP3   OH2 1361   1.864   4.197   6.430  0.6027 -0.8773 -0.3118
  160TIP3    H1 1362   1.903   4.145   6.360  1.7310 -0.3531 -0.0903
  160TIP3    H2 1363   1.851   4.284   6.393 -1.3184 -1.2867 -0.6914
  161TIP3   OH2 1364   4.904   8.613   6.889 -0.0702  0.1917  0.1089
  161TIP3    H1 1365   4.863   8.632   6.974  0.5093 -2.2259  1.0215
  161TIP3    H2 1366   4.998   8.627   6.905 -0.1470  2.3363 -0.9748
  162TIP3   OH2 1367   9.625   5.299   9.072 -0.1717 -0.4205  0.3964
  162TIP3    H1 1368   9.656   5.209   9.074  0.1408 -0.4033 -1.3912
  162TIP3    H2 1369   9.660   5.334   8.990 -2.8264  0.3691 -0.5199
  163TIP3   OH2 1370   9.716   7.953   3.770  0.1821 -0.0247 -0.4111
  163TIP3    H1 1371   9.738   7.876   3.822  0.3280 -0.2053 -0.7369
  163TIP3    H2 1372   9.691   8.020   3.835 -1.0448 -0.6942 -0.1674
  164TIP3   OH2 1373   0.205   3.115   7.098 -0.4932 -0.6211 -0.1845
  164TIP3    H1 1374   0.287   3.092   7.143 -1.0781  0.5576  1.5904
  164TIP3    H2 1375   0.205   3.211   7.096 -0.7745 -0.6292 -2.2718
  165TIP3   OH2 1376  10.673   9.213   6.927  0.7668 -0.0440 -0.3256
  165TIP3    H1 1377  10.600   9.157   6.902 -0.9165  0.8983  2.1122
  165TIP3    H2 1378  10.675   9.281   6.859 -1.1099  0.2733 -0.1195
  166TIP3   OH2 1379  10.784  10.598   3.719 -0.1236  0.2644 -0.1470
  166TIP3    H1 1380  10.817  10.679   3.679 -0.7086  1.1642  1.1427
  166TIP3    H2 1381  10.755  10.624   3.806  0.4871 -1.5136  0.6403
  167TIP3   OH2 1382  10.108   8.031   4.024 -0.1016 -0.5302 -0.3275
  167TIP3    H1 1383  10.129   7.960   3.964  0.2800  1.3333 -2.5457
  167TIP3    H2 1384  10.062   7.989   4.097  1.0515 -3.1386 -1.0016
  168TIP3   OH2 1385  10.248   7.269   8.568 -0.1981 -0.3094  0.0097
  168TIP3    H1 1386  10.179   7.301   8.511 -0.5965  0.5142  0.9258
  168TIP3    H2 1387  10.280   7.190   8.525 -0.5029  0.2668 -1.3236
  169TIP3   OH2 1388   7.209   7.223   1.320  0.1691 -0.3642  0.7599
  169TIP3    H1 1389   7.225   7.169   1.397  1.3892 -1.3929 -0.1806
  169TIP3    H2 1390   7.214   7.163   1.246  2.1844  1.0990 -0.3854
  170TIP3   OH2 1391   0.558   9.982   5.793  0.2110 -0.1970 -0.1004
  170TIP3    H1 1392   0.502  10.014   5.863 -0.3304 -0.7909 -0.2560
  170TIP3    H2 1393   0.502   9.924   5.741  0.2722  1.0867 -1.6962
  171TIP3   OH2 1394   8.440  10.622   1.649  0.8321 -0.2865  0.4206
  171TIP3    H1 1395   8.462  10.553   1.711  0.2485 -0.4871  0.4137
  171TIP3    H2 1396   8.345  10.613   1.636  0.5083  1.3511  1.4147
  172TIP3   OH2 1397   3.340   3.449  10.257 -0.3213  0.2551  0.1839
  172TIP3    H1 1398   3.247   3.473  10.263 -0.0453  1.3993  0.1110
  172TIP3    H2 1399   3.340   3.367  10.207 -1.2854  0.2612  0.1448
  173TIP3   OH2 1400   9.242   5.361   0.424  0.0233  0.2732 -0.5229
  173TIP3    H1 1401   9.207   5.403   0.346 -0.7618 -1.6112 -1.2367
  173TIP3    H2 1402   9.296   5.289   0.390 -1.0947 -1.1745  0.6414
  174TIP3   OH2 1403   6.053   2.834   1.483  0.8786 -0.0000 -0.1682
  174TIP3    H1 1404   5.964   2.800   1.495  0.7265  0.6160  0.4950
  174TIP3    H2 1405   6.084   2.791   1.403  0.6080 -1.5114  0.5084
  175TIP3   OH2 1406  10.880   0.421  10.739  0.0232  0.3555  0.3200
  175TIP3    H1 1407  10.876   0.414  10.834  1.8876  0.3635  0.4357
  175TIP3    H2 1408  10.829   0.500  10.719  0.6657  1.0976  1.4572
  176TIP3   OH2 1409   9.067   4.816  10.758 -0.5335  0.0141 -0.3506
  176TIP3    H1 1410   9.072   4.821  10.663 -1.5657  1.3991 -0.3499
  176TIP3    H2 1411   9.070   4.722  10.777  0.6377 -0.2461 -1.6670
  177TIP3   OH2 1412   3.545   6.269   9.189 -0.3784  1.0435 -0.0508
  177TIP3    H1 1413   3.463   6.293   9.147 -0.8393 -2.4331 -1.5392
  177TIP3    H2 1414   3.520   6.217   9.265  0.3204 -0.5551 -0.8423
  178TIP3   OH2 1415   7.829   7.244   7.633  0.2958 -0.1510 -0.0897
  178TIP3    H1 1416   7.890   7.221   7.704  1.1185  1.0519 -0.3710
  178TIP3    H2 1417   7.835   7.339   7.627 -0.0603 -0.2046 -1.5308
  179TIP3   OH2 1418  10.410   7.599   1.785 -0.8384 -0.4937 -0.0386
  179TIP3    H1 1419  10.504   7.614   1.801 -0.8976 -0.1343 -0.0145
  179TIP3    H2 1420  10.404   7.507   1.761 -0.3625 -0.3134 -0.8799
  180TIP3   OH2 1421  10.751   4.964  10.216 -0.4583  0.0195  0.3895
  180TIP3    H1 1422  10.676   4.904  10.212 -0.9798  0.7303 -3.1025
  180TIP3    H2 1423  10.774   4.981  10.125  1.7560  2.6036  1.2885
  181TIP3   OH2 1424   0.968  10.186   9.564 -0.0446  0.3675 -0.1396
  181TIP3    H1 1425   0.879  10.205   9.593  0.4326 -0.0122  1.6936
  181TIP3    H2 1426   1.024  10.235   9.624  1.0166  2.4778 -2.6773
  182TIP3   OH2 1427   8.943   2.819   6.757 -0.1804  0.2737 -0.0980
  182TIP3    H1 1428   8.852   2.803   6.784 -0.5540 -0.9659 -1.8759
  182TIP3    H2 1429   8.991   2.743   6.790 -0.2194 -0.1119 -0.8832
  183TIP3   OH2 1430   4.079   1.769   4.052  0.4063  0.3390  0.2934
  183TIP3    H1 1431   4.032   1.844   4.089  0.1395  0.0963  0.4532
  183TIP3    H2 1432   4.025   1.742   3.977  0.3137  0.0856  0.4507
  184TIP3   OH2 1433   8.945   6.164   8.617  0.0818 -0.1911  0.2321
  184TIP3    H1 1434   8.853   6.161   8.592 -0.1584 -0.8786  1.1589
  184TIP3    H2 1435   8.967   6.257   8.612 -0.1430 -0.2020 -1.7315
  185TIP3   OH2 1436   2.408   2.019   3.985 -0.6273 -0.5258  0.4380
  185TIP3    H1 1437   2.353   1.949   3.949 -1.8434  0.7937 -0.3668
  185TIP3    H2 1438   2.354   2.098   3.977  0.2168  0.3099  2.4936
  186TIP3   OH2 1439   9.026   1.886   8.991  0.3273  0.6433 -0.1970
  186TIP3    H1 1440   8.941   1.929   9.003 -1.0219 -1.1112 -2.5416
  186TIP3    H2 1441   9.004   1.794   8.978  2.6747  0.0437 -0.3842
  187TIP3   OH2 1442   5.507   9.065  10.618  0.3480 -0.3874  0.2373
  187TIP3    H1 1443   5.542   9.102  10.699  1.4571 -0.3886 -0.2217
  187TIP3    H2 1444   5.569   9.092  10.551 -0.8272  0.0590 -0.7101
  188TIP3   OH2 1445   2.547   8.988   6.420 -0.3367 -0.4056  0.4064
  188TIP3    H1 1446   2.585   9.066   6.461  4.7962 -2.5166  0.3782
  188TIP3    H2 1447   2.523   8.932   6.494  1.5437 -1.0335  0.6068
  189TIP3   OH2 1448   1.310   8.213   3.113 -0.0024 -0.1117  0.3774
  189TIP3    H1 1449   1.322   8.183   3.203  1.1840  0.0207  0.2854
  189TIP3    H2 1450   1.297   8.133   3.062 -0.2362 -0.2195  0.6096
  190TIP3   OH2 1451   7.837   6.154   3.465 -0.9014 -0.8568 -0.1301
  190TIP3    H1 1452   7.863   6.062   3.467 -0.9913 -0.8890 -0.4243
  190TIP3    H2 1453   7.883   6.191   3.389 -1.2134 -0.7660 -0.2776
  191TIP3   OH2 1454   4.459   0.268  10.333 -0.1633  0.3443  0.2725
  191TIP3    H1 1455   4.365   0.254  10.324 -0.5905  3.5812 -2.0372
  191TIP3    H2 1456   4.499   0.189  10.299 -1.9623 -1.1980  1.4943
  192TIP3   OH2 1457   5.084   9.521   3.079  0.0642  0.2792  0.6934
  192TIP3    H1 1458   5.170   9.557   3.100 -0.2633  2.0223 -0.6897
  192TIP3    H2 1459   5.100   9.429   3.060  1.5763  0.5296  0.6764
  193TIP3   OH2 1460   1.306   2.787   5.151  0.9463  0.0942  0.4040
  193TIP3    H1 1461   1.339   2.846   5.219  1.2831  0.2858  0.0799
  193TIP3    H2 1462   1.217   2.766   5.179  1.1832 -0.0724  1.0579
  194TIP3   OH2 1463   3.947   9.431   9.924 -0.2024 -0.5357  0.0268
  194TIP3    H1 1464   4.005   9.402   9.994  0.8951 -2.1205 -1.4492
  194TIP3    H2 1465   3.941   9.356   9.865 -1.7436  0.4584 -1.1724
  195TIP3   OH2 1466   8.187   7.954   6.588 -0.6201  0.2650  0.0891
  195TIP3    H1 1467   8.281   7.946   6.571 -0.4640  0.1394  0.9769
  195TIP3    H2 1468   8.180   8.029   6.647 -0.9195 -0.6211  1.2241
  196TIP3   OH2 1469   8.745   9.490   3.658 -0.7021 -0.2223 -0.3010
  196TIP3    H1 1470   8.831   9.528   3.671 -1.5408  2.1215 -1.0029
  196TIP3    H2 1471   8.760   9.412   3.605  0.9902 -0.0232 -0.1430
  197TIP3   OH2 1472   9.346   0.013   4.664 -0.6798  0.0431 -0.3462
  197TIP3    H1 1473   9.390  -0.066   4.696  1.0240  1.9815  2.5689
  197TIP3    H2 1474   9.394   0.036   4.584  2.8704  1.1377  1.8248
  198TIP3   OH2 1475   8.793   8.810  10.563  0.4457  0.0660  0.1242
  198TIP3    H1 1476   8.856   8.870  10.603 -0.8994  0.8178  1.1840
  198TIP3    H2 1477   8.733   8.866  10.515 -0.5058 -0.4623  0.6670
  199TIP3   OH2 1478   4.178   8.090   9.215 -0.1189  0.0086 -0.2473
  199TIP3    H1 1479   4.237   8.104   9.289  1.3080 -0.9232 -1.1563
  199TIP3    H2 1480   4.133   8.009   9.234 -0.1877  0.0781 -0.1186
  200TIP3   OH2 1481   9.245   7.580   0.577  0.6408  0.3343  0.6400
  200TIP3    H1 1482   9.334   7.544   0.575 -0.1542 -1.8393  1.3389
  200TIP3    H2 1483   9.245   7.638   0.653  1.7712  1.3184 -0.0733
  201TIP3   OH2 1484   1.164   6.780   1.374  0.4556 -0.1766 -0.4514
  201TIP3    H1 1485   1.238   6.826   1.335  0.3791 -0.7086 -1.2744
  201TIP3    H2 1486   1.204   6.714   1.430  0.5965 -0.0703 -0.4264
  202TIP3   OH2 1487   4.859  10.549  10.140  0.6693 -0.2429  0.3429
  202TIP3    H1 1488   4.937  10.600  10.121  2.1633 -2.4165  0.2677
  202TIP3    H2 1489   4.849  10.491  10.065  0.3061 -1.5011  1.3088
  203TIP3   OH2 1490   0.055   1.075   2.551 -0.3313 -0.2548 -0.4606
  203TIP3    H1 1491   0.034   1.128   2.629 -0.8782 -1.2898  0.1150
  203TIP3    H2 1492   0.141   1.038   2.571 -0.7652 -1.0615 -0.0312
  204TIP3   OH2 1493   9.549   3.913   8.932 -0.4515  0.1754  0.4419
  204TIP3    H1 1494   9.635   3.908   8.890 -1.3509  0.1820 -1.5125
  204TIP3    H2 1495   9.550   3.996   8.979 -0.0803  1.2096 -1.2888
  205TIP3   OH2 1496   0.506  10.782  10.882  0.3971  0.2603  0.4598
  205TIP3    H1 1497   0.470  10.868  10.861  0.7958  0.6075  1.1754
  205TIP3    H2 1498   0.516  10.739  10.797 -4.7403 -1.1740  0.2131
  206TIP3   OH2 1499   9.717   8.111   8.781  0.2799 -0.6070  0.6292
  206TIP3    H1 1500   9.768   8.127   8.701 -0.7713  1.1946  0.2537
  206TIP3    H2 1501   9.634   8.155   8.765 -0.4365 -1.3111  2.2352
  207TIP3   OH2 1502   7.430   9.297   6.024  0.7600  0.0223 -0.1482
  207TIP3    H1 1503   7.488   9.243   5.970  0.4944 -1.1723  0.7165
  207TIP3    H2 1504   7.395   9.237   6.089 -1.1013  0.8152 -0.3440
  208TIP3   OH2 1505   5.752   8.841   4.139  1.0117 -0.2531 -0.2207
  208TIP3    H1 1506   5.737   8.837   4.045  2.5105 -0.5114 -0.4753
  208TIP3    H2 1507   5.828   8.784   4.154  0.9655 -0.0052  1.1023
  209TIP3   OH2 1508   8.771   6.457   7.322  0.5684 -0.1891 -0.3373
  209TIP3    H1 1509   8.712   6.524   7.358  1.6469 -0.2647  1.6958
  209TIP3    H2 1510   8.785   6.396   7.394 -0.0592 -2.4529 -2.0185
  210TIP3   OH2 1511   8.421   3.552   8.557  0.2078 -0.0361 -0.9197
  210TIP3    H1 1512   8.483   3.622   8.577 -0.1275  0.2211 -0.7630
  210TIP3    H2 1513   8.335   3.593   8.566 -0.0199 -0.7129  0.1570
  211TIP3   OH2 1514   4.734   4.093   8.638  0.2726 -0.0757  0.3742
  211TIP3    H1 1515   4.686   4.153   8.696  0.2244 -1.2792  1.6195
  211TIP3    H2 1516   4.667   4.038   8.599  0.1343  1.5868 -2.0002
  212TIP3   OH2 1517   3.557   9.844   3.040 -0.0591  0.1784  0.1546
  212TIP3    H1 1518   3.573   9.914   2.976 -0.3948 -0.6928 -0.9041
  212TIP3    H2 1519   3.552   9.890   3.124 -0.5215  1.4637 -0.5446
  213TIP3   OH2 1520   1.672   3.638   3.600 -0.3069 -0.2751  0.0923
  213TIP3    H1 1521   1.698   3.545   3.599 -0.6351 -0.3601 -0.7991
  213TIP3    H2 1522   1.588   3.640   3.556 -0.6680  0.3533  0.7986
  214TIP3   OH2 1523   6.209   0.904   3.984  0.2714  0.1928  0.4606
  214TIP3    H1 1524   6.297   0.928   4.014  0.9448 -1.2990 -0.2311
  214TIP3    H2 1525   6.224   0.841   3.913 -1.3125  1.5769 -1.1994
  215TIP3   OH2 1526   8.205   9.776   4.669  0.0116 -0.1599 -0.0961
  215TIP3    H1 1527   8.244   9.700   4.713 -0.6010  0.1351  1.0020
  215TIP3    H2 1528   8.155   9.820   4.738  1.6459  2.1592 -0.2847
  216TIP3   OH2 1529   0.090   9.126   2.008 -0.3893 -0.2032  0.1245
  216TIP3    H1 1530   0.176   9.124   2.050 -0.4814  0.3682  0.3496
  216TIP3    H2 1531   0.085   9.213   1.969 -1.3099  0.1668  1.0506
  217TIP3   OH2 1532   4.788   5.439   4.889  0.1997 -0.1802 -0.0963
  217TIP3    H1 1533   4.697   5.461   4.906 -0.3049 -0.8944 -1.7407
  217TIP3    H2 1534   4.836   5.478   4.963 -1.2261  1.6107 -0.0354
  218TIP3   OH2 1535   2.935   2.577  10.017 -0.2096 -0.2591  0.3074
  218TIP3    H1 1536   3.005   2.573   9.952  0.8239  0.3015  1.3488
  218TIP3    H2 1537   2.855   2.587   9.965  0.6945  1.3925 -0.8653
  219TIP3   OH2 1538   0.291   6.547   2.561  0.3958  0.0881 -0.6025
  219TIP3    H1 1539   0.300   6.516   2.651  0.7789 -0.9846 -0.9954
  219TIP3    H2 1540   0.330   6.635   2.562  1.0108 -0.1828  0.1330
  220TIP3   OH2 1541   9.916   8.607   0.571 -0.7267  0.2712  0.3144
  220TIP3    H1 1542   9.945   8.661   0.644 -2.2070 -0.1139  1.2449
  220TIP3    H2 1543   9.987   8.544   0.558  0.3841  1.5246  0.1444
  221TIP3   OH2 1544   2.121   5.364   6.031 -0.5428  0.3781  0.2800
  221TIP3    H1 1545   2.129   5.410   5.948 -2.3587  0.2807  0.0106
  221TIP3    H2 1546   2.124   5.271   6.008 -0.5996  0.3531  0.3710
  222TIP3   OH2 1547   2.161   5.710   4.250 -0.3173  0.2334  0.0639
  222TIP3    H1 1548   2.221   5.784   4.240  0.9881 -0.6802  0.8326
  222TIP3    H2 1549   2.218   5.634   4.261 -1.6237 -0.8977 -0.6129
  223TIP3   OH2 1550   3.259   5.858   4.912  0.1171  0.5696  0.0327
  223TIP3    H1 1551   3.328   5.918   4.939  2.6785 -1.9648 -0.4003
  223TIP3    H2 1552   3.260   5.860   4.817  1.5586 -1.3972 -0.0580
  224TIP3   OH2 1553  10.809  10.219   6.527  0.0900  0.1551 -0.2616
  224TIP3    H1 1554  10.862  10.176   6.460 -0.0405  1.5081 -1.2595
  224TIP3    H2 1555  10.720  10.220   6.490  0.0800  1.2267 -0.2285
  225TIP3   OH2 1556   7.298   3.991   5.406 -0.2075 -0.6546  0.3080
  225TIP3    H1 1557   7.290   4.084   5.387  0.7567 -0.5369  0.3914
  225TIP3    H2 1558   7.356   3.987   5.483  1.1539 -1.3598 -0.7010
  226TIP3   OH2 1559   8.121   3.905   2.573 -0.2299  0.0567 -0.3994
  226TIP3    H1 1560   8.050   3.943   2.624 -0.5047  1.6559 -1.8611
  226TIP3    H2 1561   8.200   3.944   2.611 -0.2528 -0.5060  0.2303
  227TIP3   OH2 1562   3.733   1.825   5.931  0.2726  0.0848 -0.3063
  227TIP3    H1 1563   3.699   1.738   5.952  2.7229 -0.9966 -0.4786
  227TIP3    H2 1564   3.809   1.836   5.988  2.6397  0.2027 -3.2383
  228TIP3   OH2 1565   5.543   1.254   3.180  0.3254 -0.4270 -0.0608
  228TIP3    H1 1566   5.617   1.296   3.223  2.1761 -2.7319 -0.7680
  228TIP3    H2 1567   5.559   1.268   3.086 -1.1275  0.5343 -0.2001
  229TIP3   OH2 1568   8.562  10.624   3.533  0.1431  0.8369  0.4058
  229TIP3    H1 1569   8.550  10.590   3.445 -1.2442  1.2255  0.4153
  229TIP3    H2 1570   8.657  10.621   3.548  0.2209 -1.3858 -0.2062
  230TIP3   OH2 1571   1.098   1.697   2.642  0.3627  0.0086 -0.3418
  230TIP3    H1 1572   1.142   1.617   2.671 -0.2153 -0.3493 -0.4325
  230TIP3    H2 1573   1.147   1.726   2.565 -0.0179 -0.8209 -0.9136
  231TIP3   OH2 1574   3.314  10.700   3.151  0.6618 -0.4158  0.8553
  231TIP3    H1 1575   3.259  10.641   3.204  0.5621  1.0436  2.4449
  231TIP3    H2 1576   3.263  10.714   3.071  0.2183 -1.6260  0.8924
  232TIP3   OH2 1577   6.118   4.124   4.851  0.0504 -0.3510 -0.9249
  232TIP3    H1 1578   6.178   4.063   4.893  0.0224 -0.8579 -1.6044
  232TIP3    H2 1579   6.173   4.198   4.823 -0.1024  0.5412  0.9798
  233TIP3   OH2 1580   3.364   5.292   2.958  0.2931  0.4327  0.0698
  233TIP3    H1 1581   3.298   5.290   3.027  1.0732  1.7434  0.8895
  233TIP3    H2 1582   3.381   5.386   2.945  0.9570  0.1571 -1.1369
  234TIP3   OH2 1583   6.901   5.561   1.640  0.0111 -0.2100  0.6144
  234TIP3    H1 1584   6.965   5.556   1.712  0.6111 -0.1617  0.0979
  234TIP3    H2 1585   6.855   5.478   1.644  3.1534 -2.3069 -1.7420
  235TIP3   OH2 1586   1.733   4.463   0.004 -0.7496  0.0496  0.1316
  235TIP3    H1 1587   1.816   4.429   0.037 -0.7243  0.0860  0.1065
  235TIP3    H2 1588   1.759   4.523  -0.066 -0.8290 -0.4791 -0.3578
  236TIP3   OH2 1589   5.802   6.528   1.236 -0.0916  0.4456  0.5300
  236TIP3    H1 1590   5.748   6.578   1.297 -1.4398  0.4045 -0.5728
  236TIP3    H2 1591   5.740   6.492   1.173  1.2824  0.9787 -1.2317
  237TIP3   OH2 1592   9.652  10.598   4.962 -0.5603  0.1087  0.0552
  237TIP3    H1 1593   9.745  10.586   4.979 -0.4798  1.3054  0.5562
  237TIP3    H2 1594   9.612  10.598   5.049 -0.5909  2.8267  0.1130
  238TIP3   OH2 1595   7.813   0.822   6.518  0.1740 -0.1994  0.2543
  238TIP3    H1 1596   7.769   0.738   6.508 -0.6180  0.2581 -0.1985
  238TIP3    H2 1597   7.863   0.814   6.599 -0.7113 -0.7484  0.7566
  239TIP3   OH2 1598   1.980  10.573  10.851 -0.4812 -0.5338 -0.7261
  239TIP3    H1 1599   1.951  10.585  10.761  0.0435  1.2292 -0.6990
  239TIP3    H2 1600   1.915  10.618  10.904 -0.5331 -1.1554 -0.2460
  240TIP3   OH2 1601   6.941   9.375   2.491  0.3162 -0.2891  0.1831
  240TIP3    H1 1602   6.875   9.432   2.531 -1.1902 -1.1395 -0.9734
  240TIP3    H2 1603   7.013   9.374   2.553 -0.1619  1.8035  0.8461
  241TIP3   OH2 1604   6.449   4.711   9.844  0.1876  0.2189 -0.6721
  241TIP3    H1 1605   6.364   4.683   9.879 -0.1776  0.9207 -0.9880
  241TIP3    H2 1606   6.475   4.784   9.901  1.0129 -0.5709 -0.0119
  242TIP3   OH2 1607   8.051   5.190  10.666 -0.1588 -1.0325 -0.2514
  242TIP3    H1 1608   8.138   5.149  10.672 -0.7928 -2.3586  0.3885
  242TIP3    H2 1609   8.069   5.283  10.657  1.3667 -1.4570 -2.1913
  243TIP3   OH2 1610   6.611   5.336   2.378  0.1895 -0.4659 -0.3660
  243TIP3    H1 1611   6.546   5.371   2.317  1.8304  2.5590 -0.5511
  243TIP3    H2 1612   6.560   5.306   2.453 -1.4939  1.0276 -0.8503
  244TIP3   OH2 1613   0.620   2.521  10.160  0.5334  0.0714  0.3463
  244TIP3    H1 1614   0.685   2.458  10.191  0.5189 -0.5465 -0.8249
  244TIP3    H2 1615   0.670   2.589  10.117  0.4059 -1.0588 -1.7257
  245TIP3   OH2 1616   8.394   3.365   3.380  0.0348 -0.2804 -0.4512
  245TIP3    H1 1617   8.401   3.275   3.347 -0.4951 -1.0687  1.4014
  245TIP3    H2 1618   8.478   3.405   3.361  1.2315 -2.0136  0.8725
  246TIP3   OH2 1619  10.288   5.446   9.549 -0.9220 -0.0421 -0.3813
  246TIP3    H1 1620  10.208   5.400   9.576  0.2358 -0.6916  2.2528
  246TIP3    H2 1621  10.306   5.507   9.620  1.6254 -0.8646 -0.2219
  247TIP3   OH2 1622   2.969   7.456   8.697  0.2578  0.3526  0.6364
  247TIP3    H1 1623   2.946   7.542   8.661  0.7499  0.3247  0.2568
  247TIP3    H2 1624   3.060   7.442   8.670  0.5637  0.2324  1.6990
  248TIP3   OH2 1625   2.856   4.044   5.815  0.3520  0.4566  0.0711
  248TIP3    H1 1626   2.764   4.021   5.798  0.3879  0.6707 -0.4198
  248TIP3    H2 1627   2.856   4.074   5.906 -0.2021  1.1337 -0.1411
  249TIP3   OH2 1628   5.670   5.915   7.986 -0.0113 -0.0084  0.3833
  249TIP3    H1 1629   5.745   5.972   7.973  2.1235 -2.2065  2.0727
  249TIP3    H2 1630   5.636   5.900   7.897  0.8267  1.8849 -0.3199
  250TIP3   OH2 1631  10.456   9.558   4.358  0.5311 -0.9695 -0.0286
  250TIP3    H1 1632  10.431   9.547   4.450  0.0384 -0.3528 -0.0818
  250TIP3    H2 1633  10.439   9.651   4.340  0.3640 -1.1486 -0.8181
  251TIP3   OH2 1634   8.471   5.913   6.757 -0.1054 -0.1442 -0.0604
  251TIP3    H1 1635   8.446   5.827   6.724 -0.1971  0.1870 -0.9040
  251TIP3    H2 1636   8.389   5.956   6.777 -0.0742 -0.1527  0.0854
  252TIP3   OH2 1637   0.437   9.671   4.400  0.4751  0.2619 -0.3854
  252TIP3    H1 1638   0.368   9.715   4.449 -0.7375 -1.3341 -0.5801
  252TIP3    H2 1639   0.515   9.683   4.454 -0.8728 -1.7918  2.2930
  253TIP3   OH2 1640   6.114   9.177   1.028 -0.2982  0.5775  0.1219
  253TIP3    H1 1641   6.208   9.193   1.034 -0.2266  0.7671 -1.2817
  253TIP3    H2 1642   6.075   9.265   1.025 -0.3815  0.5090 -1.0560
  254TIP3   OH2 1643   6.133   2.676   2.090 -0.3655 -0.2153 -0.3228
  254TIP3    H1 1644   6.097   2.663   2.002  0.2290 -0.2676 -0.5609
  254TIP3    H2 1645   6.142   2.771   2.098 -1.9508 -0.0857  0.3096
  255TIP3   OH2 1646   8.306   5.059   6.856  0.3581  0.4604  0.6258
  255TIP3    H1 1647   8.341   5.044   6.943 -0.3085 -0.2482  0.7760
  255TIP3    H2 1648   8.359   5.004   6.798 -0.6442 -0.8395  0.8901
  256TIP3   OH2 1649   5.049   7.720   8.736  0.1252  0.5860 -0.1755
  256TIP3    H1 1650   5.029   7.802   8.782  0.8360 -0.1596  1.5452
  256TIP3    H2 1651   4.981   7.659   8.764 -0.4339  0.5619 -1.4954
  257TIP3   OH2 1652   0.467   1.187   3.142  0.7750  0.3576  0.0122
  257TIP3    H1 1653   0.377   1.154   3.140  0.2157  1.8052 -0.6011
  257TIP3    H2 1654   0.479   1.219   3.231  0.1196  1.5294 -0.2937
  258TIP3   OH2 1655   8.354   1.658   4.546 -0.9620  0.0227 -0.4949
  258TIP3    H1 1656   8.445   1.666   4.518 -1.0302  0.3440 -0.6287
  258TIP3    H2 1657   8.356   1.594   4.617 -0.4694  0.8632  0.2711
  259TIP3   OH2 1658   0.144   0.327   5.730 -0.3962  0.3418 -0.2097
  259TIP3    H1 1659   0.087   0.252   5.718 -0.1348 -0.0572  0.9564
  259TIP3    H2 1660   0.208   0.321   5.658 -1.3452  0.3768 -1.0765
  260TIP3   OH2 1661   2.182   7.606   2.899  0.1806  0.3596  0.1094
  260TIP3    H1 1662   2.250   7.605   2.966  2.7209 -1.5503 -2.2822
  260TIP3    H2 1663   2.212   7.670   2.835  0.1961 -1.0399 -1.3465
  261TIP3   OH2 1664   8.502   9.214   9.553 -0.3119  0.1751  0.1431
  261TIP3    H1 1665   8.490   9.163   9.472 -2.3864 -0.9210  1.0775
  261TIP3    H2 1666   8.492   9.305   9.525  0.6488 -0.0595 -1.0838
  262TIP3   OH2 1667   7.223   7.295   4.077 -0.3814 -0.1238 -0.3691
  262TIP3    H1 1668   7.313   7.289   4.110 -1.0045  0.8627  1.6676
  262TIP3    H2 1669   7.169   7.296   4.156 -2.1980 -0.6934 -1.5591
  263TIP3   OH2 1670   3.985   7.338   0.544  0.6775 -0.0896 -0.3914
  263TIP3    H1 1671   3.891   7.355   0.551  0.3396 -1.8500 -0.1937
  263TIP3    H2 1672   4.007   7.290   0.623  1.6208 -0.2478 -0.7330
  264TIP3   OH2 1673   2.414   6.242   6.954  0.2994 -0.1013 -0.5872
  264TIP3    H1 1674   2.373   6.264   6.870  0.9572  0.0553 -0.8724
  264TIP3    H2 1675   2.505   6.222   6.932  0.6473  0.5859  0.1765
  265TIP3   OH2 1676   4.873  10.681   3.861  0.5317 -0.5088  0.2631
  265TIP3    H1 1677   4.901  10.631   3.785 -0.6835 -0.2834 -0.3503
  265TIP3    H2 1678   4.950  10.734   3.884  0.4697  0.4961 -1.6866
  266TIP3   OH2 1679   3.164   9.923   9.518  0.0071 -0.4504 -0.0980
  266TIP3    H1 1680   3.247   9.904   9.562  0.5493  0.2841 -0.7729
  266TIP3    H2 1681   3.098   9.906   9.585  0.7648 -0.0331  0.7887
  267TIP3   OH2 1682   2.407   8.940   8.197 -0.1312 -0.4124  0.3985
  267TIP3    H1 1683   2.483   8.940   8.139 -0.6079  0.2088 -0.2364
  267TIP3    H2 1684   2.357   9.018   8.173 -1.0186 -0.8534  0.7423
  268TIP3   OH2 1685   9.738   5.116   2.156  0.4649 -0.1662 -0.2867
  268TIP3    H1 1686   9.683   5.094   2.081  0.9946 -2.2750 -0.1394
  268TIP3    H2 1687   9.801   5.179   2.122 -0.0725 -0.1462 -1.2957
  269TIP3   OH2 1688   3.474   6.664   2.275 -0.0301 -0.1487  0.2377
  269TIP3    H1 1689   3.406   6.675   2.209 -0.3504  1.6323  0.8114
  269TIP3    H2 1690   3.446   6.589   2.327 -0.3771 -0.8274 -0.8966
  270TIP3   OH2 1691   2.102   6.308   6.105 -0.4563 -0.6261  0.3496
  270TIP3    H1 1692   2.184   6.333   6.063 -0.7682  0.7823  0.5532
  270TIP3    H2 1693   2.125   6.291   6.196 -0.6389  1.4564  0.8311
  271TIP3   OH2 1694   5.667   2.960   0.277  0.0797  0.0284 -0.2726
  271TIP3    H1 1695   5.736   2.961   0.343  0.5460  0.7991 -0.7484
  271TIP3    H2 1696   5.611   3.035   0.299  0.4581  0.5317 -0.9550
  272TIP3   OH2 1697   8.881   7.351  10.504 -0.4269 -0.0754  0.6753
  272TIP3    H1 1698   8.953   7.350  10.441  0.9038  0.4546  2.1027
  272TIP3    H2 1699   8.805   7.378  10.453  0.7655  1.1713 -0.5604
  273TIP3   OH2 1700   9.040   3.387   4.140  0.8661 -0.2786  0.0019
  273TIP3    H1 1701   8.986   3.388   4.061  0.7518 -0.7196  0.0686
  273TIP3    H2 1702   9.096   3.464   4.132 -0.6716  0.9484  0.5788
  274TIP3   OH2 1703   8.066   7.905   7.416  0.3921  0.2714  0.2780
  274TIP3    H1 1704   8.110   7.820   7.415 -0.1523 -0.0477  1.7464
  274TIP3    H2 1705   7.984   7.890   7.461 -0.4516  1.2537 -0.8600
  275TIP3   OH2 1706   4.223   7.533   3.155  0.1515 -0.7224  0.4354
  275TIP3    H1 1707   4.145   7.537   3.211  0.2060  1.5816  0.4137
  275TIP3    H2 1708   4.289   7.489   3.209 -0.2292  0.1628  1.6657
  276TIP3   OH2 1709   4.425   6.354   1.358 -0.1231 -0.1026 -0.7878
  276TIP3    H1 1710   4.427   6.337   1.452  1.3687  0.0481 -0.7694
  276TIP3    H2 1711   4.332   6.365   1.337 -0.3573  3.3352  1.3173
  277TIP3   OH2 1712   2.571   4.992   0.576  0.1120  0.2653 -0.3044
  277TIP3    H1 1713   2.566   5.071   0.629 -0.1244  0.4527 -0.6059
  277TIP3    H2 1714   2.665   4.974   0.568  0.1545  0.3204  0.0463
  278TIP3   OH2 1715   1.582   6.219   4.150  0.0656 -0.2099 -0.2520
  278TIP3    H1 1716   1.675   6.223   4.171  0.3687 -0.0239 -1.5839
  278TIP3    H2 1717   1.540   6.192   4.232  1.2487  0.0278  0.4451
  279TIP3   OH2 1718   5.897   2.590   0.412  0.8136 -0.5022 -0.6936
  279TIP3    H1 1719   5.833   2.554   0.351 -1.6464  0.0165  1.4347
  279TIP3    H2 1720   5.958   2.517   0.427  0.3641 -1.2492 -2.2242
  280TIP3   OH2 1721   0.381   3.676  10.904  0.1499 -0.8219 -0.5469
  280TIP3    H1 1722   0.338   3.600  10.865 -1.5942  0.9273 -2.2536
  280TIP3    H2 1723   0.337   3.689  10.988 -0.7417 -0.7222 -1.0206
  281TIP3   OH2 1724   4.902   8.504   2.285 -0.5024  0.1430 -0.4090
  281TIP3    H1 1725   4.969   8.436   2.288 -0.6556  0.0328  0.9642
  281TIP3    H2 1726   4.949   8.582   2.254 -0.0043 -0.2216 -0.5808
  282TIP3   OH2 1727   3.680   2.904   7.458 -0.6466 -1.0853  0.3383
  282TIP3    H1 1728   3.635   2.920   7.374 -0.1118  0.2350  0.2734
  282TIP3    H2 1729   3.611   2.871   7.516 -1.5783  0.2514  0.0437
  283TIP3   OH2 1730   3.829   3.860   8.799  0.1269 -0.2098 -0.1851
  283TIP3    H1 1731   3.762   3.797   8.772  0.3672 -0.8268  0.6089
  283TIP3    H2 1732   3.845   3.913   8.721 -1.2264 -0.0884 -0.4163
  284TIP3   OH2 1733   3.489   9.723   0.960 -0.0617  0.1620 -0.1016
  284TIP3    H1 1734   3.414   9.690   1.009 -0.0878 -0.3120 -0.4504
  284TIP3    H2 1735   3.460   9.806   0.923 -1.1872 -0.9999 -2.0360
  285TIP3   OH2 1736   3.973   3.921   9.570 -0.2659 -0.5882 -0.1652
  285TIP3    H1 1737   3.907   3.872   9.522  1.0521 -1.7048 -0.9043
  285TIP3    H2 1738   4.007   3.859   9.635  1.2020 -0.6102 -0.9046
  286TIP3   OH2 1739   2.108   3.164   9.118  0.3220 -0.4246 -0.1520
  286TIP3    H1 1740   2.095   3.183   9.025  0.9150 -1.2696 -0.4125
  286TIP3    H2 1741   2.115   3.069   9.123  0.6830 -0.3612  0.7092
  287TIP3   OH2 1742   3.542   0.638   6.722  0.0400 -0.1808  0.1029
  287TIP3    H1 1743   3.623   0.591   6.746  0.7314 -0.0491 -1.8368
  287TIP3    H2 1744   3.552   0.724   6.762  1.3492  0.1711 -0.9075
  288TIP3   OH2 1745   6.310   1.400   9.001  0.2114  0.5217  0.2544
  288TIP3    H1 1746   6.219   1.421   9.020 -0.4530 -0.6344 -1.4054
  288TIP3    H2 1747   6.310   1.305   8.990  1.3984  0.6365 -0.8599
  289TIP3   OH2 1748   9.506   7.618   7.815 -0.7058  0.4819 -0.0137
  289TIP3    H1 1749   9.538   7.570   7.739 -1.3837  0.7514 -0.4787
  289TIP3    H2 1750   9.414   7.636   7.795 -0.6347  1.3981  0.4317
  290TIP3   OH2 1751   7.272   8.638   6.119 -0.3385  0.2079 -0.1088
  290TIP3    H1 1752   7.233   8.609   6.036 -1.4731  0.0587  0.4593
  290TIP3    H2 1753   7.290   8.557   6.167  1.5123  0.2202 -0.6961
  291TIP3   OH2 1754   9.840   5.788   8.594  0.6708  0.4871  0.0391
  291TIP3    H1 1755   9.858   5.705   8.550  0.0189  0.6637 -0.5862
  291TIP3    H2 1756   9.772   5.829   8.541 -0.3352  0.6018  1.3835
  292TIP3   OH2 1757   5.654   1.761   0.607 -0.9443 -0.3250  0.2532
  292TIP3    H1 1758   5.597   1.724   0.675 -2.9686  0.0231 -1.1537
  292TIP3    H2 1759   5.624   1.852   0.598 -0.5660 -0.3074 -0.9415
  293TIP3   OH2 1760   1.970   0.999   0.611 -0.1550 -0.1812  0.1818
  293TIP3    H1 1761   1.945   0.910   0.636 -1.0760  0.0466  0.0849
  293TIP3    H2 1762   2.042   0.987   0.548  0.8083 -0.8104  1.3529
  294TIP3   OH2 1763   4.171   1.644   2.268 -0.0497 -0.2809  0.1337
  294TIP3    H1 1764   4.205   1.676   2.184 -0.3536 -0.4382 -0.0521
  294TIP3    H2 1765   4.248   1.636   2.323 -0.0927  2.0319  0.6191
  295TIP3   OH2 1766   2.110   3.226   8.854  0.1979 -0.6717  0.4242
  295TIP3    H1 1767   2.166   3.295   8.818 -1.6606  1.1029  0.6860
  295TIP3    H2 1768   2.032   3.228   8.798  0.3083 -2.9900  0.1231
  296TIP3   OH2 1769   5.828   9.292   3.582  0.7046  0.0921  0.0971
  296TIP3    H1 1770   5.807   9.248   3.664  0.0946 -0.0315 -0.1176
  296TIP3    H2 1771   5.761   9.361   3.575 -0.1972 -0.8550 -1.0328
  297TIP3   OH2 1772   0.391   2.309   7.621  0.4181  0.0242 -0.0229
  297TIP3    H1 1773   0.377   2.217   7.646  0.8244 -0.0233  0.0400
  297TIP3    H2 1774   0.341   2.359   7.685  1.0180 -0.1184  0.5733
  298TIP3   OH2 1775   3.393   7.170   5.122 -0.0767  0.7518  0.5791
  298TIP3    H1 1776   3.419   7.247   5.173  0.1385 -0.2758  2.0778
  298TIP3    H2 1777   3.298   7.165   5.133 -0.0336  0.5455  0.8766
  299TIP3   OH2 1778   1.412   4.873   7.881  0.0435 -0.1578 -0.8316
  299TIP3    H1 1779   1.361   4.948   7.849  0.2718 -0.2321 -1.3746
  299TIP3    H2 1780   1.470   4.911   7.947 -1.2467 -0.2021  0.3578
  300TIP3   OH2 1781   8.713   4.913   4.002  0.2941 -0.2626  0.1407
  300TIP3    H1 1782   8.713   5.007   4.019  0.7141  0.3546 -2.7008
  300TIP3    H2 1783   8.800   4.884   4.028  1.5625  0.9746 -2.3309
  301TIP3   OH2 1784   7.205   1.695   1.424  0.3168  0.3652  0.3150
  301TIP3    H1 1785   7.114   1.706   1.449  0.3898 -0.2896  0.9173
  301TIP3    H2 1786   7.235   1.620   1.476  0.8005 -0.3270 -0.9231
  302TIP3   OH2 1787   1.531   4.526   3.119 -0.1076 -0.3997  0.0754
  302TIP3    H1 1788   1.524   4.435   3.089 -0.7338 -0.4869  0.4628
  302TIP3    H2 1789   1.442   4.549   3.147 -0.9296  1.5819 -3.4814
  303TIP3   OH2 1790  10.242   1.513  10.323  0.0453  0.4036 -0.3747
  303TIP3    H1 1791  10.292   1.511  10.241  1.3940 -2.5238  0.3905
  303TIP3    H2 1792  10.217   1.422  10.338 -2.3593  1.2221  1.2561
  304TIP3   OH2 1793   8.039   9.780   1.034  0.0411  0.8020  0.2206
  304TIP3    H1 1794   7.969   9.717   1.019 -0.5528  1.3054  0.7755
  304TIP3    H2 1795   8.000   9.865   1.012  0.1792  1.1857  1.3777
  305TIP3   OH2 1796   1.492   7.550   2.008 -0.3694  0.1621 -1.0238
  305TIP3    H1 1797   1.488   7.462   2.047  1.2650  0.3238 -0.4136
  305TIP3    H2 1798   1.553   7.598   2.063 -0.4451  1.3851 -1.9622
  306TIP3   OH2 1799   9.338   1.657   4.553 -0.1052 -0.0485  0.1555
  306TIP3    H1 1800   9.258   1.605   4.557 -0.7069  0.6959 -1.3204
  306TIP3    H2 1801   9.384   1.625   4.476  0.5100  0.2350  0.3970
  307TIP3   OH2 1802   0.609   1.053   5.541  0.3605  0.1979  0.0482
  307TIP3    H1 1803   0.625   1.041   5.635  0.4333 -0.2895 -0.0244
  307TIP3    H2 1804   0.679   1.003   5.498  1.3898  1.8241 -0.2784
  308TIP3   OH2 1805  10.310   1.322   4.564 -0.1097 -0.0902  0.6620
  308TIP3    H1 1806  10.297   1.336   4.658 -0.5897  1.2022  0.4331
  308TIP3    H2 1807  10.405   1.324   4.552  0.0153 -1.5379  1.2810
  309TIP3   OH2 1808   1.638   4.218   9.106 -0.5999  0.6141 -0.1711
  309TIP3    H1 1809   1.660   4.176   9.189 -0.0152  1.4181  0.0923
  309TIP3    H2 1810   1.665   4.310   9.118 -1.5880  1.0006 -0.8307
  310TIP3   OH2 1811   1.768   7.240   2.160 -0.7777  0.1281  0.5253
  310TIP3    H1 1812   1.817   7.208   2.236 -0.7653 -0.2887  0.3482
  310TIP3    H2 1813   1.681   7.260   2.194 -1.2402 -1.4820  0.3792
  311TIP3   OH2 1814   7.401   4.415   5.641 -0.3149 -0.1099  0.5988
  311TIP3    H1 1815   7.373   4.504   5.664  0.8526  0.5574 -0.4319
  311TIP3    H2 1816   7.369   4.402   5.551 -0.9784 -0.9697  0.9421
  312TIP3   OH2 1817   3.492   4.156   6.224 -0.2945  0.5671 -1.2365
  312TIP3    H1 1818   3.472   4.177   6.315  1.3505 -0.2424 -0.6610
  312TIP3    H2 1819   3.440   4.219   6.174 -0.2554  1.8698  0.2768
  313TIP3   OH2 1820   7.438   1.304   1.219  0.5728 -0.4142 -0.2594
  313TIP3    H1 1821   7.356   1.263   1.246 -0.3279 -0.5404 -2.9253
  313TIP3    H2 1822   7.505   1.262   1.273 -0.8395 -2.0378  0.3174
  314TIP3   OH2 1823  10.776   2.898   7.717  0.0705 -0.3106 -0.7883
  314TIP3    H1 1824  10.829   2.972   7.746  0.6855 -1.0645  0.0689
  314TIP3    H2 1825  10.730   2.930   7.640 -1.2373  1.6196  0.6915
  315TIP3   OH2 1826   8.550   1.908   3.387  0.5525 -0.4351 -0.0068
  315TIP3    H1 1827   8.550   1.997   3.423 -1.7732 -0.9185  1.3150
  315TIP3    H2 1828   8.562   1.921   3.293 -2.2308  1.5093 -0.1946
  316TIP3   OH2 1829   3.195  10.665  10.122 -0.8382 -0.3060 -0.0854
  316TIP3    H1 1830   3.263  10.728  10.145 -1.9831  0.4482  1.4138
  316TIP3    H2 1831   3.118  10.719  10.102 -2.4884 -1.1453  3.2746
  317TIP3   OH2 1832   0.174   6.573   5.897  0.0271  0.0868 -0.3664
  317TIP3    H1 1833   0.204   6.609   5.981 -0.7901 -0.0700  0.0059
  317TIP3    H2 1834   0.081   6.597   5.893 -1.0134 -3.2150  0.6410
  318TIP3   OH2 1835   4.070   6.341   0.965  0.0963  0.1091 -0.5749
  318TIP3    H1 1836   4.160   6.337   0.998  0.2007 -1.0166 -0.9395
  318TIP3    H2 1837   4.021   6.383   1.035  0.7487 -0.0620  0.0016
  319TIP3   OH2 1838   7.723   5.226   8.831  0.0863  0.1662 -0.2146
  319TIP3    H1 1839   7.701   5.259   8.919  1.7793  2.6099 -0.5955
  319TIP3    H2 1840   7.705   5.133   8.835  1.6824 -0.1455  3.2949
  320TIP3   OH2 1841   1.927  10.679   5.153 -0.1716  0.1837 -0.4921
  320TIP3    H1 1842   1.861  10.610   5.145 -1.4419  1.1775  0.9045
  320TIP3    H2 1843   1.935  10.715   5.065 -1.7357  0.2313 -0.6314
  321TIP3   OH2 1844   5.061   1.636   5.061  0.2159 -0.5943 -0.1148
  321TIP3    H1 1845   5.068   1.714   5.115  1.2334 -1.1425  0.5796
  321TIP3    H2 1846   5.079   1.666   4.972  0.2753  0.0073  0.1007
  322TIP3   OH2 1847   5.755   0.126  10.869  0.0132 -0.1424 -0.2001
  322TIP3    H1 1848   5.739   0.037  10.838 -0.7791 -0.3735  0.7919
  322TIP3    H2 1849   5.820   0.161  10.809  0.8532 -1.6281 -0.2073
  323TIP3   OH2 1850   3.639   8.261   1.071  0.1713  0.3224  0.1361
  323TIP3    H1 1851   3.594   8.222   0.996  0.2138 -0.0552  0.3034
  323TIP3    H2 1852   3.647   8.189   1.134  0.5929  0.5039  0.2929
  324TIP3   OH2 1853   8.661   6.085   6.743  0.0554 -0.3822 -0.1956
  324TIP3    H1 1854   8.700   6.098   6.656  0.0589  0.3389 -0.0878
  324TIP3    H2 1855   8.608   6.006   6.733  1.0452 -1.0314 -0.5146
  325TIP3   OH2 1856   0.594   3.038  10.038 -0.0623  0.7769 -0.1119
  325TIP3    H1 1857   0.603   3.056  10.131 -0.9410  2.0651 -0.2573
  325TIP3    H2 1858   0.499   3.034  10.023  0.0695  0.3787 -0.9159
  326TIP3   OH2 1859   2.487   3.673   9.679  0.6439 -0.1137  0.4718
  326TIP3    H1 1860   2.559   3.695   9.737  0.5224  0.4081  0.4286
  326TIP3    H2 1861   2.527   3.667   9.592  0.4191  1.5268  0.2268
  327TIP3   OH2 1862  10.635   7.602   6.151 -0.0090 -0.1603  0.0882
  327TIP3    H1 1863  10.646   7.551   6.071  0.4420 -0.1527  0.1419
  327TIP3    H2 1864  10.689   7.557   6.216 -2.4782 -1.7931  1.1618
  328TIP3   OH2 1865   0.537   7.413   4.465  0.0296 -0.1215  0.5176
  328TIP3    H1 1866   0.458   7.431   4.414 -1.9278 -0.8671  3.0802
  328TIP3    H2 1867   0.553   7.319   4.452  0.5653  0.0467 -0.0686
  329TIP3   OH2 1868   4.986   5.823   0.665 -0.3473 -0.9908 -0.2598
  329TIP3    H1 1869   4.997   5.774   0.746  1.2426 -1.3480 -0.6534
  329TIP3    H2 1870   4.898   5.802   0.635 -0.6590 -1.4703  0.9646
  330TIP3   OH2 1871   1.390   3.646   6.399 -0.6056 -0.5985 -0.6674
  330TIP3    H1 1872   1.298   3.624   6.415 -0.1961 -1.0625  1.2413
  330TIP3    H2 1873   1.425   3.670   6.485  0.7279  0.9140 -1.5836
  331TIP3   OH2 1874   6.207   5.543   4.301  0.2927  0.6157  0.0548
  331TIP3    H1 1875   6.283   5.586   4.264  0.1266  2.1130  1.3438
  331TIP3    H2 1876   6.238   5.456   4.326  1.7169  1.3507  0.9641
  332TIP3   OH2 1877   4.500   6.378   0.458  0.1807 -0.1268  0.3962
  332TIP3    H1 1878   4.406   6.366   0.444 -0.1111  0.9552  1.3442
  332TIP3    H2 1879   4.536   6.289   0.451 -0.9996 -0.6497  0.6913
  333TIP3   OH2 1880   0.594   7.570   1.088  0.5164 -0.0152  0.1062
  333TIP3    H1 1881   0.596   7.485   1.133 -0.3954  0.3727  0.9290
  333TIP3    H2 1882   0.504   7.579   1.057  0.3752  1.0002  0.7510
  334TIP3   OH2 1883   9.965   6.206   2.984 -0.4740 -0.2601  0.2702
  334TIP3    H1 1884  10.036   6.145   2.966  1.1648  1.9290 -1.0786
  334TIP3    H2 1885   9.940   6.240   2.899 -0.0025  2.3242  1.0757
  335TIP3   OH2 1886  10.045  10.582  10.182  0.1588  0.2281  0.7242
  335TIP3    H1 1887  10.098  10.613  10.109 -0.8285  2.9125  1.0453
  335TIP3    H2 1888   9.974  10.534  10.141  0.5924  0.1510  0.0449
  336TIP3   OH2 1889   1.876   8.036   5.950 -0.0458  0.1778 -0.4045
  336TIP3    H1 1890   1.969   8.021   5.932 -0.7184 -2.7396 -2.2283
  336TIP3    H2 1891   1.849   8.102   5.886  0.5770  0.3777 -0.4677
  337TIP3   OH2 1892   4.377   7.804   0.835 -0.2268 -0.3229 -0.2052
  337TIP3    H1 1893   4.340   7.870   0.894 -2.8868 -2.1151  0.3063
  337TIP3    H2 1894   4.350   7.832   0.748  0.6346  0.4197 -0.2546
  338TIP3   OH2 1895   4.111   3.064   6.352  0.7104  0.5286 -0.2057
  338TIP3    H1 1896   4.018   3.041   6.344  0.5745  0.1612  1.8781
  338TIP3    H2 1897   4.144   3.062   6.262 -0.7338 -1.8087 -0.7712
  339TIP3   OH2 1898   1.630   9.713   3.478  0.1156  0.3141 -0.1425
  339TIP3    H1 1899   1.538   9.739   3.476  0.2293  0.7850  0.3214
  339TIP3    H2 1900   1.631   9.634   3.531 -0.1108 -0.0902 -0.7365
  340TIP3   OH2 1901   7.545  10.380   2.909 -0.5473 -0.1969  0.2829
  340TIP3    H1 1902   7.482  10.451   2.901  1.3203  1.7768  1.7198
  340TIP3    H2 1903   7.495  10.307   2.945 -2.1397  1.0633  0.7331
  341TIP3   OH2 1904   1.921   5.313   6.210  0.5259  0.4412 -0.1408
  341TIP3    H1 1905   2.007   5.317   6.168 -0.2866 -0.4708 -2.0311
  341TIP3    H2 1906   1.876   5.392   6.179  0.4659  0.5981  0.3429
  342TIP3   OH2 1907   3.900   7.187   5.066  0.6645 -0.3682 -0.4666
  342TIP3    H1 1908   3.821   7.149   5.028  1.5128 -0.4066 -2.3083
  342TIP3    H2 1909   3.915   7.267   5.015 -0.3891  1.8726  2.4952
  343TIP3   OH2 1910   5.977   8.158   1.631  0.1862  0.1420  0.5666
  343TIP3    H1 1911   5.899   8.207   1.654 -0.0093 -0.7858  1.9898
  343TIP3    H2 1912   6.048   8.199   1.680  0.2147 -0.2874  0.8969
  344TIP3   OH2 1913   2.286   6.210   8.857 -0.4041 -0.0305 -0.5082
  344TIP3    H1 1914   2.333   6.234   8.777 -2.6049  0.6089 -1.6827
  344TIP3    H2 1915   2.300   6.284   8.916  1.2766 -0.5284 -0.2096
  345TIP3   OH2 1916   6.818   3.925   8.170  0.2700 -0.6212 -0.0741
  345TIP3    H1 1917   6.767   3.893   8.245 -0.7867  0.3461 -0.3541
  345TIP3    H2 1918   6.762   3.992   8.130  1.2089 -0.4836 -1.1954
  346TIP3   OH2 1919   8.917   0.026   6.218 -0.6416  0.1649 -0.3949
  346TIP3    H1 1920   9.008   0.002   6.236 -0.8028 -0.4454 -0.3638
  346TIP3    H2 1921   8.914   0.121   6.232 -0.0869  0.1418 -0.0725
  347TIP3   OH2 1922   6.870   3.360   2.692 -0.1035 -0.5675 -0.1160
  347TIP3    H1 1923   6.913   3.396   2.769 -3.1196  2.5656  0.3494
  347TIP3    H2 1924   6.902   3.414   2.620 -1.0236 -0.1378 -0.2134
  348TIP3   OH2 1925   0.464  10.197   4.038  0.9638  0.0489 -0.4061
  348TIP3    H1 1926   0.491  10.133   4.104 -0.2909  0.0127  0.0998
  348TIP3    H2 1927   0.413  10.262   4.087  0.1236  0.0935 -1.3026
  349TIP3   OH2 1928   4.744   8.962   5.207 -0.1934  0.0456 -0.2091
  349TIP3    H1 1929   4.728   8.950   5.113 -2.7244 -2.2242  0.3746
  349TIP3    H2 1930   4.681   8.904   5.249  0.9826  0.8563  2.9335
  350TIP3   OH2 1931   5.557   5.648   8.239 -0.9131  0.3370  0.7979
  350TIP3    H1 1932   5.566   5.569   8.292 -0.1473 -0.2992 -0.2451
  350TIP3    H2 1933   5.499   5.705   8.290 -0.6827 -0.4909  2.0192
  351TIP3   OH2 1934   9.646   6.935   0.965 -0.6063 -0.2772 -0.0207
  351TIP3    H1 1935   9.614   7.017   1.002  3.4433  2.3393 -1.6279
  351TIP3    H2 1936   9.654   6.952   0.871 -1.5866 -3.3167 -0.7603
  352TIP3   OH2 1937   6.268   4.544   8.233  0.2576 -0.6184  0.9387
  352TIP3    H1 1938   6.217   4.471   8.197  0.6516 -0.6895  0.5124
  352TIP3    H2 1939   6.224   4.566   8.315 -0.3900 -0.7535  0.6354
  353TIP3   OH2 1940   1.867   3.825   4.837 -0.0242 -0.3603  0.7117
  353TIP3    H1 1941   1.810   3.792   4.906 -0.3755  1.7419  1.4965
  353TIP3    H2 1942   1.956   3.811   4.869 -0.1824  0.2642  1.4459
  354TIP3   OH2 1943   5.501   0.637   8.554  0.0776 -0.1206  0.3124
  354TIP3    H1 1944   5.527   0.545   8.563  2.6690  0.3490 -1.4392
  354TIP3    H2 1945   5.424   0.634   8.497 -2.3357 -1.3328  3.2717
  355TIP3   OH2 1946   9.977   5.846   7.296 -0.0088  0.0071  0.0104
  355TIP3    H1 1947  10.033   5.887   7.231  0.1977 -0.7971 -0.3206
  355TIP3    H2 1948  10.035   5.792   7.348  0.0535  1.5621  1.6753
  356TIP3   OH2 1949   6.647   3.849   9.846  0.1152  0.5935 -0.1753
  356TIP3    H1 1950   6.600   3.931   9.833  0.2837  0.7115 -0.0412
  356TIP3    H2 1951   6.598   3.784   9.795 -2.2992 -0.0474  2.6775
  357TIP3   OH2 1952   8.796   2.893   3.548  0.3446  0.0217  0.1808
  357TIP3    H1 1953   8.774   2.865   3.637  1.5071 -0.5147  0.3157
  357TIP3    H2 1954   8.719   2.943   3.520 -0.7918 -1.2625  0.8303
  358TIP3   OH2 1955   3.601   8.779   1.261  0.1296 -0.2546  0.2614
  358TIP3    H1 1956   3.646   8.696   1.248  1.5166  0.8831 -3.0942
  358TIP3    H2 1957   3.670   8.843   1.274 -0.8592  0.6247  1.4842
  359TIP3   OH2 1958   3.882   3.644   6.114 -0.4914  0.5786  0.1043
  359TIP3    H1 1959   3.954   3.583   6.128 -0.5368  0.4769 -0.1153
  359TIP3    H2 1960   3.925   3.730   6.107 -0.3974  0.5251  0.0263
  360TIP3   OH2 1961   9.407   6.168   4.605  0.1024 -0.2443 -0.1824
  360TIP3    H1 1962   9.344   6.154   4.534  1.9047 -0.7335 -1.7587
  360TIP3    H2 1963   9.440   6.257   4.591  0.1909 -0.2024  0.2807
  361TIP3   OH2 1964   6.128   9.315   8.058 -0.3514  0.2299  0.1782
  361TIP3    H1 1965   6.187   9.363   8.116 -0.1848  1.8048 -1.1999
  361TIP3    H2 1966   6.177   9.235   8.035  0.6142  0.7807  0.2710
  362TIP3   OH2 1967   0.185   7.867   0.231 -0.3755 -0.0881 -0.1465
  362TIP3    H1 1968   0.252   7.936   0.230  1.4962 -1.8392 -1.3174
  362TIP3    H2 1969   0.131   7.885   0.154 -1.7709  1.7031  1.1451
  363TIP3   OH2 1970   0.293   4.074   4.033  0.1281  0.1148 -0.1093
  363TIP3    H1 1971   0.329   4.121   4.108 -0.9313 -0.9822  1.1421
  363TIP3    H2 1972   0.198   4.084   4.042 -0.0307 -0.4292 -1.0439
  364TIP3   OH2 1973   8.605   9.710   0.935  0.4231 -0.0773 -0.0417
  364TIP3    H1 1974   8.595   9.646   0.865  1.3520 -1.1497  0.7778
  364TIP3    H2 1975   8.607   9.795   0.890 -1.4290 -0.5516 -1.0880
  365TIP3   OH2 1976   2.494   9.710   5.797 -0.6409 -0.4887 -0.1177
  365TIP3    H1 1977   2.424   9.681   5.856 -0.4415 -1.4244 -0.3327
  365TIP3    H2 1978   2.561   9.745   5.855 -2.2065  2.6043  0.0155
  366TIP3   OH2 1979   0.527   7.413   7.562 -0.0081 -0.1987 -0.2887
  366TIP3    H1 1980   0.562   7.367   7.638  1.0073 -0.8626 -1.1284
  366TIP3    H2 1981   0.559   7.503   7.572 -0.6087 -0.0633  0.5005
  367TIP3   OH2 1982   6.156   6.571   2.333  0.0077 -0.0492  0.1453
  367TIP3    H1 1983   6.169   6.561   2.239 -0.4489 -0.2735  0.1001
  367TIP3    H2 1984   6.063   6.550   2.347 -0.4784  2.0388  0.3639
  368TIP3   OH2 1985  10.277   7.107   1.679 -0.1391 -0.0811 -0.1387
  368TIP3    H1 1986  10.210   7.175   1.685 -0.7250 -0.5753 -0.9316
  368TIP3    H2 1987  10.230   7.029   1.648  1.0095 -0.1212 -1.8901
  369TIP3   OH2 1988   4.955   1.592   8.992  0.2953  0.1244 -0.1974
  369TIP3    H1 1989   4.940   1.683   8.966  0.5082  0.3210  0.3510
  369TIP3    H2 1990   4.897   1.579   9.067  1.2628  0.2396  0.5954
  370TIP3   OH2 1991   9.616   5.669   1.187  0.1876 -0.7708 -0.0124
  370TIP3    H1 1992   9.558   5.697   1.117  1.8349  0.4048 -0.9769
  370TIP3    H2 1993   9.664   5.749   1.212  1.5983 -1.7503  0.5271
  371TIP3   OH2 1994   4.048   9.440   4.630 -0.4013  0.6392  0.8466
  371TIP3    H1 1995   4.035   9.471   4.541  0.1097  2.2042  1.2717
  371TIP3    H2 1996   4.117   9.374   4.623 -1.0151  0.0774 -0.0225
  372TIP3   OH2 1997   5.426   3.765  10.897 -0.2974 -0.1812  0.4642
  372TIP3    H1 1998   5.343   3.754  10.851 -0.7218  0.6084  1.0229
  372TIP3    H2 1999   5.488   3.712  10.847 -1.2371 -1.1861  0.3190
  373TIP3   OH2 2000   2.042   8.406   4.785  0.7904  0.2839 -0.5751
  373TIP3    H1 2001   2.087   8.402   4.701 -1.2781 -2.6492 -1.7173
  373TIP3    H2 2002   2.091   8.346   4.842  0.2335 -0.4329 -0.8287
  374TIP3   OH2 2003   8.970   5.416   4.012  0.2201  0.0577  0.1085
  374TIP3    H1 2004   8.992   5.383   4.099  2.4109 -0.6627 -0.6636
  374TIP3    H2 2005   8.981   5.341   3.954  0.9622  1.0424 -1.0856
  375TIP3   OH2 2006   9.646   9.825   9.890  0.3130  0.0471  0.7000
  375TIP3    H1 2007   9.716   9.847   9.951 -0.0194  0.4164  0.9587
  375TIP3    H2 2008   9.684   9.838   9.803  1.3035 -2.0514  0.7637
  376TIP3   OH2 2009   1.935  10.120   8.898 -0.0743 -0.0295  0.2727
  376TIP3    H1 2010   1.929  10.074   8.982 -0.8361  0.2223  0.3709
  376TIP3    H2 2011   1.866  10.081   8.845 -0.8363  1.0704  0.4069
  377TIP3   OH2 2012   0.693   4.290   1.345  0.0346  0.3124 -0.4128
  377TIP3    H1 2013   0.652   4.358   1.398 -0.8172  1.8992 -2.9305
  377TIP3    H2 2014   0.624   4.260   1.286  1.5451  0.6366 -2.4643
  378TIP3   OH2 2015   6.770   6.668   9.817  0.1002  0.2402  0.1355
  378TIP3    H1 2016   6.851   6.618   9.825  0.3386  0.4039 -1.1234
  378TIP3    H2 2017   6.753   6.673   9.723 -0.0888  2.2252  0.2298
  379TIP3   OH2 2018   5.989   2.587   4.889  0.1500  0.3419 -0.2125
  379TIP3    H1 2019   5.950   2.508   4.852 -0.9051  0.8045 -0.1326
  379TIP3    H2 2020   5.915   2.647   4.903  0.8625  1.1778  0.1486
  380TIP3   OH2 2021   5.166   8.133  10.376 -0.0265 -0.0123  0.5554
  380TIP3    H1 2022   5.170   8.177  10.291  1.0947 -0.4297  0.3769
  380TIP3    H2 2023   5.093   8.072  10.368 -0.6734  0.7819  0.3029
  381TIP3   OH2 2024   5.113   0.561   4.414  0.3081  0.0934  0.0805
  381TIP3    H1 2025   5.176   0.632   4.404 -0.6500  1.0323  0.5818
  381TIP3    H2 2026   5.146   0.510   4.488  1.5828 -0.6440 -0.9546
  382TIP3   OH2 2027   3.767   8.208   6.244  0.1682 -0.1168  0.2299
  382TIP3    H1 2028   3.854   8.173   6.266  0.3679 -0.7980 -1.5528
  382TIP3    H2 2029   3.706   8.149   6.287  0.5551 -1.3335 -0.8498
  383TIP3   OH2 2030   7.100   3.475   5.992  0.2436 -0.1663  0.1078
  383TIP3    H1 2031   7.046   3.536   6.042 -0.3145  1.8494 -2.6562
  383TIP3    H2 2032   7.183   3.472   6.039 -0.9429 -0.2562  2.3289
  384TIP3   OH2 2033   1.624   3.355   4.584 -0.0773  0.1051 -0.1739
  384TIP3    H1 2034   1.681   3.279   4.591  2.9016  2.1694 -0.0320
  384TIP3    H2 2035   1.641   3.391   4.497 -1.7895  0.4025 -0.4258
  385TIP3   OH2 2036   2.284  10.894   3.378  0.2523 -0.1040 -0.2564
  385TIP3    H1 2037   2.328  10.977   3.395 -0.6538  0.0350  1.5883
  385TIP3    H2 2038   2.244  10.905   3.292  1.2940  0.8465 -0.6463
  386TIP3   OH2 2039   1.238   1.283   5.659  0.2486 -0.4233 -0.5748
  386TIP3    H1 2040   1.286   1.343   5.603 -2.5091  0.0090 -2.6899
  386TIP3    H2 2041   1.200   1.219   5.600 -2.4419 -0.2277  0.7839
  387TIP3   OH2 2042   2.875   8.096   9.992  0.0104  0.2385 -0.5816
  387TIP3    H1 2043   2.892   8.040   9.916  2.0548 -0.5755  0.3894
  387TIP3    H2 2044   2.947   8.077  10.052 -1.5683  0.7990  1.6136
  388TIP3   OH2 2045   7.547   2.207  10.705  0.1267 -0.0837  0.6237
  388TIP3    H1 2046   7.487   2.274  10.672  1.7191  0.9805 -0.1992
  388TIP3    H2 2047   7.547   2.220  10.800  1.7556  2.3148  0.3628
  389TIP3   OH2 2048   0.079   9.433   1.547  0.6963  0.1014  0.1907
  389TIP3    H1 2049  -0.007   9.404   1.515  1.1083 -1.4395  0.4076
  389TIP3    H2 2050   0.102   9.370   1.614  0.9652  1.8625  1.8322
  390TIP3   OH2 2051   8.486   1.327   5.144  0.4384 -0.4146  0.8513
  390TIP3    H1 2052   8.447   1.405   5.106 -1.7040 -0.9226  1.8647
  390TIP3    H2 2053   8.512   1.273   5.069  0.2702  0.4559  0.1548
  391TIP3   OH2 2054  10.599   1.547   9.073  0.3280  0.2554 -0.0588
  391TIP3    H1 2055  10.634   1.626   9.032  0.8819  0.3279  0.5394
  391TIP3    H2 2056  10.514   1.534   9.032 -0.7479  2.3848  1.3122
  392TIP3   OH2 2057   6.218   8.508   3.015  0.2486  0.5585  0.2079
  392TIP3    H1 2058   6.156   8.561   2.965 -0.2781 -0.7070 -0.5213
  392TIP3    H2 2059   6.272   8.466   2.948  0.1844 -0.3843  0.7424
  393TIP3   OH2 2060   3.958   9.952   3.579  0.2274 -0.0444  0.0678
  393TIP3    H1 2061   3.974   9.930   3.671  2.2375 -1.6820 -0.5977
  393TIP3    H2 2062   3.935   9.868   3.538  2.0509  0.0950 -1.3912
  394TIP3   OH2 2063   1.169   9.828   3.290 -0.1096 -0.1368  0.3623
  394TIP3    H1 2064   1.126   9.790   3.213  0.0550 -0.7792  0.5840
  394TIP3    H2 2065   1.102   9.829   3.358 -0.9408  2.4750 -0.3789
  395TIP3   OH2 2066   9.454   4.853   9.100  0.2409 -0.0879 -0.6516
  395TIP3    H1 2067   9.448   4.789   9.172  1.4402 -0.0079 -0.4634
  395TIP3    H2 2068   9.364   4.881   9.086 -0.2170 -1.2989 -0.2593
  396TIP3   OH2 2069   3.174   8.352   1.414  0.1226 -0.1067  0.7261
  396TIP3    H1 2070   3.153   8.446   1.420 -0.5219 -0.1791 -0.2865
  396TIP3    H2 2071   3.232   8.346   1.339 -0.9254 -0.6953 -0.0503
  397TIP3   OH2 2072   5.974   2.542   1.816  0.2506 -0.0222  0.0481
  397TIP3    H1 2073   6.014   2.511   1.735 -0.0120 -0.4492  0.0780
  397TIP3    H2 2074   5.956   2.635   1.800  0.8747  0.0744 -0.1094
  398TIP3   OH2 2075   4.287   5.307   0.652 -0.1478 -0.1830 -0.1841
  398TIP3    H1 2076   4.283   5.400   0.628 -0.2711  0.2362  1.3811
  398TIP3    H2 2077   4.289   5.307   0.747 -1.4172 -1.8515 -0.1265
  399TIP3   OH2 2078   2.005   1.537   7.107 -0.1933 -0.4181 -0.7135
  399TIP3    H1 2079   1.921   1.557   7.146  0.2447  0.1479 -0.0277
  399TIP3    H2 2080   2.063   1.608   7.137 -0.1005  0.7498 -3.3012
  400TIP3   OH2 2081  10.248   3.126   1.917 -0.0887 -0.0143  0.0838
  400TIP3    H1 2082  10.306   3.148   1.844 -2.2256  1.4138 -1.2847
  400TIP3    H2 2083  10.216   3.038   1.896  0.5252 -0.2581  0.1485
  401TIP3   OH2 2084   2.170   4.232   4.019  0.2450 -0.6918  0.1463
  401TIP3    H1 2085   2.140   4.242   3.929 -1.4860 -0.1572  0.7395
  401TIP3    H2 2086   2.233   4.160   4.016  0.3424 -0.5719 -1.4980
  402TIP3   OH2 2087   0.123   4.347   3.942 -0.1249  0.3679  0.4871
  402TIP3    H1 2088   0.051   4.285   3.956 -0.1064  0.4701  1.0670
  402TIP3    H2 2089   0.196   4.292   3.913  0.0314  0.0427  1.4555
  403TIP3   OH2 2090   2.753   0.816   0.418 -0.2047 -0.1162  0.2072
  403TIP3    H1 2091   2.797   0.799   0.335  0.3171 -0.4891  0.5566
  403TIP3    H2 2092   2.795   0.895   0.452  1.9497 -1.7738  1.6961
  404TIP3   OH2 2093   5.696   5.788   1.150  0.6238 -0.0872  0.3209
  404TIP3    H1 2094   5.761   5.838   1.101  0.6009  0.5991  0.9682
  404TIP3    H2 2095   5.746   5.744   1.219  0.4570  0.1389  0.5890
  405TIP3   OH2 2096   5.558   1.082   6.256  0.4842  0.2020 -0.0623
  405TIP3    H1 2097   5.607   1.155   6.219  0.2136  1.1302  1.3250
  405TIP3    H2 2098   5.507   1.121   6.327 -0.3314 -1.1909  0.1555
  406TIP3   OH2 2099   4.455   3.235   7.638  0.0997 -0.0137  0.3188
  406TIP3    H1 2100   4.477   3.147   7.607 -0.5583  0.5798 -2.0420
  406TIP3    H2 2101   4.511   3.293   7.587  0.0257  0.9879  1.3462
  407TIP3   OH2 2102   1.164   2.432  10.454 -0.2616  0.5220  0.1233
  407TIP3    H1 2103   1.179   2.342  10.427 -0.4420  0.7128 -0.6305
  407TIP3    H2 2104   1.251   2.467  10.472  0.0577  0.9471 -2.0408
  408TIP3   OH2 2105   7.095   4.174   0.256 -0.6144  0.4631 -0.0445
  408TIP3    H1 2106   7.066   4.257   0.219 -0.1844  0.6364  0.0058
  408TIP3    H2 2107   7.085   4.184   0.350 -2.9428 -0.4319 -0.1214
  409TIP3   OH2 2108   0.040   8.959   2.991 -0.5150  0.1914 -0.2002
  409TIP3    H1 2109   0.134   8.940   2.998 -0.1369  1.9989  0.3388
  409TIP3    H2 2110   0.032   9.048   3.025 -2.0562  1.0821 -2.6819
  410TIP3   OH2 2111  10.386   6.105   0.888 -0.0381 -0.6214  0.1034
  410TIP3    H1 2112  10.341   6.131   0.969 -2.4405 -0.5475 -1.1721
  410TIP3    H2 2113  10.327   6.041   0.848  0.9233 -0.3809 -1.7783
  411TIP3   OH2 2114   0.237   7.481   3.149 -0.3564 -0.1838  0.6176
  411TIP3    H1 2115   0.149   7.493   3.187 -0.2675 -0.4335  0.9027
  411TIP3    H2 2116   0.252   7.387   3.152 -0.8394 -0.3673 -1.1619
  412TIP3   OH2 2117   8.481   6.988   0.386  0.7182 -0.0932  0.3792
  412TIP3    H1 2118   8.567   7.030   0.382  0.4499  0.5349  0.9660
  412TIP3    H2 2119   8.423   7.047   0.338  0.3320  0.2261  1.2260
  413TIP3   OH2 2120   1.141   6.768   8.127  0.4282  0.4101  0.4322
  413TIP3    H1 2121   1.218   6.824   8.121  0.0219  0.9294 -0.0600
  413TIP3    H2 2122   1.159   6.710   8.201  2.8147 -1.7952 -1.6698
  414TIP3   OH2 2123   1.423   0.473   9.122 -0.4538  0.5652  0.5141
  414TIP3    H1 2124   1.502   0.470   9.176 -1.6254  1.8041  2.4056
  414TIP3    H2 2125   1.357   0.427   9.173 -0.5198 -2.3837 -1.9956
  415TIP3   OH2 2126   6.333   5.686   5.662 -0.2088  0.1849  0.1493
  415TIP3    H1 2127   6.416   5.640   5.650 -0.1993  0.6456 -1.8995
  415TIP3    H2 2128   6.302   5.704   5.573 -2.6982 -0.2831  0.8413
  416TIP3   OH2 2129   6.586   0.500   1.832 -0.2976 -0.6068  0.0614
  416TIP3    H1 2130   6.648   0.449   1.779  0.1742 -0.4571  0.4639
  416TIP3    H2 2131   6.500   0.466   1.807 -0.0351 -1.0742 -0.2300
  417TIP3   OH2 2132   5.754   2.884   7.628  0.8061  0.0190  0.2902
  417TIP3    H1 2133   5.801   2.805   7.653  1.5897  0.3948  0.0180
  417TIP3    H2 2134   5.669   2.853   7.598  0.9019 -0.6690  0.7107
  418TIP3   OH2 2135   2.615   4.281   5.903  0.0438  0.8129  0.1529
  418TIP3    H1 2136   2.700   4.301   5.863  0.7847 -0.7226  0.8653
  418TIP3    H2 2137   2.551   4.306   5.836  1.1294  0.5479 -1.0345
  419TIP3   OH2 2138   7.763   1.132   7.812  0.5545  0.3630  0.8004
  419TIP3    H1 2139   7.824   1.073   7.857 -0.8896 -0.1668  2.1766
  419TIP3    H2 2140   7.750   1.205   7.872  0.1141  0.6426  0.3766
  420TIP3   OH2 2141   6.237   3.852   1.741 -0.0111  0.7751 -0.7627
  420TIP3    H1 2142   6.220   3.800   1.662 -1.4443 -0.7842  0.4949
  420TIP3    H2 2143   6.262   3.938   1.708 -1.6384  0.5087 -2.9070
  421TIP3   OH2 2144   2.009   9.880   5.024 -1.0099  0.0922 -0.1959
  421TIP3    H1 2145   2.048   9.824   5.092 -0.0652 -0.8579 -1.4636
  421TIP3    H2 2146   1.932   9.832   4.995 -0.9441  0.0832 -0.3574
  422TIP3   OH2 2147   0.417  10.266   4.762 -0.4657  0.4386  0.7857
  422TIP3    H1 2148   0.463  10.337   4.718 -1.6545  0.6114 -0.2207
  422TIP3    H2 2149   0.399  10.202   4.693 -2.2099  0.6323  1.0342
  423TIP3   OH2 2150  10.817   6.933   0.203  0.5134  0.1918  0.3159
  423TIP3    H1 2151  10.902   6.923   0.159  0.1130 -1.0813 -0.1984
  423TIP3    H2 2152  10.824   6.880   0.282 -0.1051 -0.6582 -0.1866
  424TIP3   OH2 2153   8.178   9.723   3.072  0.1514  0.1315 -0.1623
  424TIP3    H1 2154   8.136   9.649   3.116 -0.3291 -0.3971 -1.4493
  424TIP3    H2 2155   8.105   9.775   3.038  0.5055 -0.2905 -1.6178
  425TIP3   OH2 2156   8.821   2.832   9.775  0.1325  0.3662  0.0911
  425TIP3    H1 2157   8.905   2.879   9.773  0.5278 -0.2936  0.8035
  425TIP3    H2 2158   8.763   2.886   9.721  0.7987  1.2460  0.2175
  426TIP3   OH2 2159   4.781   8.194   3.664  0.2009  0.1795 -0.8783
  426TIP3    H1 2160   4.834   8.115   3.678  0.9622  0.7748 -0.3236
  426TIP3    H2 2161   4.780   8.206   3.569 -0.4324 -0.8308 -1.0123
  427TIP3   OH2 2162   0.735   7.378   0.547 -0.2127  0.5993  0.4606
  427TIP3    H1 2163   0.692   7.401   0.464 -1.8379  1.6734  1.5414
  427TIP3    H2 2164   0.666   7.339   0.600  1.2386 -1.8674  0.6911
  428TIP3   OH2 2165  10.176   4.520   2.217  0.6686 -0.1095 -0.1311
  428TIP3    H1 2166  10.142   4.445   2.168  0.1795 -1.4765  2.1498
  428TIP3    H2 2167  10.141   4.597   2.171 -2.1897 -1.3705 -0.2560
  429TIP3   OH2 2168   2.933  10.302   0.788  0.3520 -0.2599  0.5038
  429TIP3    H1 2169   2.969  10.371   0.732 -0.6783  0.6498  0.9202
  429TIP3    H2 2170   2.941  10.222   0.736  0.8529  0.3015 -0.3078
  430TIP3   OH2 2171   8.603   8.228   7.130 -0.0345  0.4820  0.4918
  430TIP3    H1 2172   8.682   8.190   7.094 -0.8028 -0.3943 -0.3046
  430TIP3    H2 2173   8.557   8.155   7.172  0.0196  1.1559  1.7913
  431TIP3   OH2 2174   5.271   5.165   9.584 -0.4090 -0.2501 -1.3038
  431TIP3    H1 2175   5.286   5.085   9.534  0.2612 -0.4886 -0.7335
  431TIP3    H2 2176   5.186   5.152   9.626  1.2184 -2.3173  1.7719
  432TIP3   OH2 2177   6.658   1.051   5.899 -0.1351 -0.7473  0.0583
  432TIP3    H1 2178   6.739   1.003   5.915 -0.2435 -1.5991 -1.7653
  432TIP3    H2 2179   6.671   1.094   5.815 -1.8408 -1.5505 -0.6759
  433TIP3   OH2 2180   4.995   5.524   5.129  0.0561  0.3623 -0.3098
  433TIP3    H1 2181   4.939   5.516   5.207 -0.4322 -0.8484 -0.7579
  433TIP3    H2 2182   5.021   5.616   5.128 -1.6327  0.8894  0.1236
  434TIP3   OH2 2183  10.441   8.011   8.303 -0.3640 -0.2396 -0.0822
  434TIP3    H1 2184  10.436   7.934   8.246 -0.6724 -0.9715  0.9126
  434TIP3    H2 2185  10.522   8.001   8.351  0.6153  1.1078 -1.3689
  435TIP3   OH2 2186   7.509   4.069   0.324 -0.4192  0.2305  0.4526
  435TIP3    H1 2187   7.437   4.006   0.320 -0.4849  0.2932  0.6128
  435TIP3    H2 2188   7.495   4.126   0.248  0.6108 -0.9615 -0.6576
  436TIP3   OH2 2189   1.915   4.221   4.157 -0.5391 -0.0256  0.2790
  436TIP3    H1 2190   1.994   4.243   4.109 -0.4203  0.2145  0.5823
  436TIP3    H2 2191   1.935   4.139   4.201 -1.0807 -0.9230 -1.0832
  437TIP3   OH2 2192   5.354   2.374   6.017 -0.4346  0.2610 -0.3747
  437TIP3    H1 2193   5.283   2.433   6.041 -0.7785  1.1566 -3.1887
  437TIP3    H2 2194   5.430   2.432   6.008  0.4308 -0.5137  1.4525
  438TIP3   OH2 2195   0.484   0.785   4.615 -0.2129  0.4249 -0.5830
  438TIP3    H1 2196   0.548   0.738   4.561 -0.1273  0.1081 -0.2077
  438TIP3    H2 2197   0.489   0.743   4.701  0.3499  1.5601 -0.0427
  439TIP3   OH2 2198   2.332   3.654   1.095  0.6876 -0.1809  0.0663
  439TIP3    H1 2199   2.421   3.639   1.129  1.4796 -3.0616 -2.8039
  439TIP3    H2 2200   2.297   3.566   1.081 -2.4099  0.8804  0.3772
  440TIP3   OH2 2201   1.366   6.178   4.748  0.2345  0.1388 -0.3860
  440TIP3    H1 2202   1.285   6.218   4.715  0.4601  1.1512  0.2353
  440TIP3    H2 2203   1.355   6.178   4.843  0.9593  0.2580 -0.3013
  441TIP3   OH2 2204   4.188   3.764   1.095 -0.2067 -0.7911 -0.6632
  441TIP3    H1 2205   4.284   3.758   1.096 -0.0029  1.1328 -2.0466
  441TIP3    H2 2206   4.163   3.765   1.187  1.3022  0.7225 -0.2088
  442TIP3   OH2 2207   9.071   4.826   9.652  0.2865 -0.2492 -0.3634
  442TIP3    H1 2208   9.055   4.897   9.590  1.0200  1.0058  0.8247
  442TIP3    H2 2209   9.070   4.869   9.738  0.8495 -1.6623  0.3829
  443TIP3   OH2 2210   4.446   8.334   6.174  0.5330  0.6390 -0.0016
  443TIP3    H1 2211   4.523   8.358   6.123  0.3029 -0.2355 -0.7809
  443TIP3    H2 2212   4.480   8.278   6.243  0.6210  0.3866 -0.2482
  444TIP3   OH2 2213   6.402   2.072  10.079 -0.6966 -0.1101  0.5411
  444TIP3    H1 2214   6.331   2.137  10.081 -0.7320 -0.0655 -0.9968
  444TIP3    H2 2215   6.402   2.034  10.167 -2.6304 -0.1202  0.5697
  445TIP3   OH2 2216   6.246   7.758   4.375 -0.1336  0.3105  0.3483
  445TIP3    H1 2217   6.230   7.817   4.301  0.1060 -2.5305 -2.1834
  445TIP3    H2 2218   6.159   7.735   4.407 -0.4029 -0.3720 -0.7939
  446TIP3   OH2 2219   2.315   9.340   3.994  0.3724 -0.7766 -0.1742
  446TIP3    H1 2220   2.272   9.420   4.024  2.7527  0.2190  0.8185
  446TIP3    H2 2221   2.313   9.346   3.898 -0.7787 -0.3220 -0.1424
  447TIP3   OH2 2222  10.387   6.525   0.955  0.6977  0.1531 -0.0708
  447TIP3    H1 2223  10.450   6.588   0.921  0.9125 -0.1412 -0.2137
  447TIP3    H2 2224  10.305   6.575   0.964  1.7850  1.6285  3.6636
  448TIP3   OH2 2225   7.975   5.658  10.517 -0.4403  0.2495  0.3834
  448TIP3    H1 2226   7.996   5.646  10.609 -0.9367  0.1380  0.4843
  448TIP3    H2 2227   7.881   5.672  10.515 -0.4996 -0.1526 -0.1395
  449TIP3   OH2 2228   0.062   3.847   8.768 -0.0102 -0.2407  0.1978
  449TIP3    H1 2229   0.104   3.899   8.836  1.0599 -0.4107 -0.3075
  449TIP3    H2 2230   0.008   3.784   8.815 -3.8071  3.0853  0.8766
  450TIP3   OH2 2231   6.907   2.015   0.822 -0.3705  0.0366 -0.0379
  450TIP3    H1 2232   6.874   2.065   0.896 -0.7749 -0.9720  0.4864
  450TIP3    H2 2233   6.995   1.988   0.849 -0.1841  0.3821 -0.2866
  451TIP3   OH2 2234   7.785   6.570   1.989  0.2770  0.4417 -0.3603
  451TIP3    H1 2235   7.789   6.500   2.054  0.4469  1.0718  0.3081
  451TIP3    H2 2236   7.874   6.574   1.954  0.9640  2.0397  1.4370
  452TIP3   OH2 2237   8.411   7.865   7.903 -0.2098 -0.0980 -0.4674
  452TIP3    H1 2238   8.463   7.877   7.983  0.7379  1.8379 -1.3100
  452TIP3    H2 2239   8.413   7.771   7.886  2.1030 -0.1964  0.1463
  453TIP3   OH2 2240   6.801   2.014   9.839  0.2366  0.2113  0.0345
  453TIP3    H1 2241   6.746   2.063   9.900  1.1435  1.3398 -0.0014
  453TIP3    H2 2242   6.882   1.996   9.888 -0.1057 -1.3631  0.0682
  454TIP3   OH2 2243  10.734  10.038  10.870  0.2685  0.4041  0.3706
  454TIP3    H1 2244  10.701  10.127  10.856  1.7110  0.7772 -0.8519
  454TIP3    H2 2245  10.758  10.036  10.963  0.0498  1.2272  0.4600
  455TIP3   OH2 2246   5.880   0.618   3.471  0.2205  0.2079 -0.0407
  455TIP3    H1 2247   5.958   0.566   3.490  0.2891  0.7446  1.2255
  455TIP3    H2 2248   5.910   0.683   3.407  0.8147  0.3818  0.3997
  456TIP3   OH2 2249   4.009   7.965   6.897  0.1531 -0.5816 -0.2751
  456TIP3    H1 2250   4.019   8.022   6.821  1.1601 -0.4790 -0.0910
  456TIP3    H2 2251   3.927   7.919   6.883  0.0170 -0.0999 -1.1106
  457TIP3   OH2 2252  10.687   7.544   1.039 -0.3704 -1.1229 -0.2167
  457TIP3    H1 2253  10.681   7.628   0.994  2.8712 -1.2200 -1.0778
  457TIP3    H2 2254  10.700   7.480   0.969 -0.3106 -1.9880  0.5619
  458TIP3   OH2 2255   2.677   1.738   1.759  0.3452  0.0437 -0.1325
  458TIP3    H1 2256   2.698   1.794   1.834  1.9383  0.0310 -0.5338
  458TIP3    H2 2257   2.607   1.784   1.713  0.0022  0.5157  0.8469
  459TIP3   OH2 2258   1.107   7.530   2.776  0.4050 -0.1233  0.0983
  459TIP3    H1 2259   1.184   7.484   2.809  0.1423 -0.4922  0.2130
  459TIP3    H2 2260   1.037   7.464   2.780  0.2866 -0.0698 -0.8421
  460TIP3   OH2 2261   9.961   4.769   1.033 -1.0862  0.1539 -0.5434
  460TIP3    H1 2262  10.010   4.793   0.954 -3.3335  1.6314 -1.5862
  460TIP3    H2 2263   9.961   4.673   1.033  0.3249  0.1242 -1.4133
  461TIP3   OH2 2264   7.977   4.636   3.791  0.0854 -0.0215  0.3271
  461TIP3    H1 2265   8.057   4.654   3.840  0.4472 -1.3828  0.2778
  461TIP3    H2 2266   7.912   4.695   3.829  1.0563  0.9806  0.4875
  462TIP3   OH2 2267   7.330   0.754   5.882 -0.1618 -0.1069 -0.1206
  462TIP3    H1 2268   7.362   0.836   5.920  0.0932  0.4018 -1.3742
  462TIP3    H2 2269   7.240   0.774   5.855  0.2533  0.1257 -1.4164
  463TIP3   OH2 2270   5.948   6.933   4.129  0.5920  0.0404 -0.0507
  463TIP3    H1 2271   6.028   6.984   4.120  0.4728  0.2771  0.1930
  463TIP3    H2 2272   5.878   6.997   4.117  0.4377 -0.2442 -0.7032
  464TIP3   OH2 2273   2.135   2.458   1.919 -0.0922  0.0923  0.6526
  464TIP3    H1 2274   2.085   2.378   1.934  0.3343  0.3381  4.2597
  464TIP3    H2 2275   2.069   2.524   1.897 -0.8786 -0.4746  1.2452
  465TIP3   OH2 2276   6.911   7.541   0.602  0.1959 -0.3715  0.2161
  465TIP3    H1 2277   6.970   7.577   0.667 -0.6103  0.5268  0.4803
  465TIP3    H2 2278   6.826   7.580   0.622  0.1355  0.8277 -2.0414
  466TIP3   OH2 2279   2.434   3.007  10.433 -0.3147  0.2023  0.1746
  466TIP3    H1 2280   2.507   2.971  10.382 -1.0727  0.1962 -0.9348
  466TIP3    H2 2281   2.439   3.101  10.418  0.4818  0.3927  1.4933
  467TIP3   OH2 2282   0.780   9.185   2.520  0.2387  0.2435 -0.1083
  467TIP3    H1 2283   0.707   9.184   2.582  0.1632  0.1204 -0.1978
  467TIP3    H2 2284   0.744   9.143   2.441  1.2111 -2.3639  0.7371
  468TIP3   OH2 2285   7.533   0.648   3.771 -0.2095  0.1124 -0.3009
  468TIP3    H1 2286   7.451   0.622   3.729  0.3070 -2.8476  0.2544
  468TIP3    H2 2287   7.595   0.580   3.745  1.0155  0.0580  2.4216
  469TIP3   OH2 2288  10.847   7.039   1.489 -0.1341 -0.3659  0.4723
  469TIP3    H1 2289  10.875   7.019   1.579 -1.1256  0.4805  0.9962
  469TIP3    H2 2290  10.778   7.105   1.500 -2.4930 -2.4633 -0.6801
  470TIP3   OH2 2291   1.928   9.797   0.160  1.0176 -0.4601 -0.1596
  470TIP3    H1 2292   1.888   9.711   0.148  0.5869 -0.1644 -0.8563
  470TIP3    H2 2293   1.907   9.821   0.250 -1.6833  0.3394 -0.9232
  471TIP3   OH2 2294   4.300   1.726   4.840 -0.4287 -0.0133 -0.2727
  471TIP3    H1 2295   4.240   1.777   4.895  0.7109  1.0436  0.0412
  471TIP3    H2 2296   4.244   1.689   4.772 -1.8700 -1.3241  1.5260
  472TIP3   OH2 2297   6.188   3.345   5.866  0.7659  0.0105  0.2550
  472TIP3    H1 2298   6.255   3.371   5.930 -0.0061  0.6555  0.8214
  472TIP3    H2 2299   6.237   3.330   5.785  1.7059 -0.3531  0.8678
  473TIP3   OH2 2300   3.015   6.140   8.631 -0.3812  0.1694 -0.0923
  473TIP3    H1 2301   3.102   6.178   8.640  0.3835 -0.9542 -2.1647
  473TIP3    H2 2302   2.980   6.138   8.720  0.6890  2.9003  0.4963
  474TIP3   OH2 2303   2.972   8.837   4.805 -0.1985  0.2082 -0.3240
  474TIP3    H1 2304   3.012   8.835   4.891 -0.9434  3.1816  0.2085
  474TIP3    H2 2305   2.878   8.830   4.822 -0.2622 -1.2824 -1.1127
  475TIP3   OH2 2306  10.142  10.638   7.019  0.2251  0.0643  0.3462
  475TIP3    H1 2307  10.176  10.659   7.106  3.4679 -0.9017 -0.5528
  475TIP3    H2 2308  10.110  10.548   7.027  0.2825  0.0672  0.6100
  476TIP3   OH2 2309   6.610   5.089   8.191  0.1732 -0.2358 -0.2673
  476TIP3    H1 2310   6.650   5.095   8.278 -0.7748  0.4619  0.1396
  476TIP3    H2 2311   6.516   5.089   8.208 -0.0249 -1.6033 -1.2187
  477TIP3   OH2 2312   1.216   3.028   6.734  0.0069  0.3310 -0.0014
  477TIP3    H1 2313   1.241   3.119   6.750  0.8013  0.2809 -0.8966
  477TIP3    H2 2314   1.154   3.008   6.804  0.1585  1.4206  0.4662
  478TIP3   OH2 2315   2.485   9.221   1.059  0.4391 -0.3043 -0.5410
  478TIP3    H1 2316   2.561   9.232   1.002  0.7733  2.0591  0.2479
  478TIP3    H2 2317   2.410   9.216   1.000  0.9074  0.7389 -1.2381
  479TIP3   OH2 2318   5.974   1.216   8.700  1.0620 -0.1240  0.2000
  479TIP3    H1 2319   5.890   1.172   8.692  0.8412  0.5419 -1.5892
  479TIP3    H2 2320   6.038   1.145   8.710  0.3095 -0.6222  1.8079
  480TIP3   OH2 2321   3.980   6.573   9.006 -0.1803  0.0848 -0.8273
  480TIP3    H1 2322   3.889   6.548   8.987 -0.5702  0.8448 -0.0418
  480TIP3    H2 2323   3.976   6.668   9.020  0.5723 -0.0114  0.0998
  481TIP3   OH2 2324   7.309   4.857   1.776  0.2653 -0.2293  0.5858
  481TIP3    H1 2325   7.360   4.938   1.765 -0.2840  0.0971  0.3840
  481TIP3    H2 2326   7.371   4.795   1.815  1.2628 -0.3116 -1.0379
  482TIP3   OH2 2327   1.648   6.668   7.043  0.4031  0.1530 -0.0818
  482TIP3    H1 2328   1.707   6.674   6.968  0.0912  1.6724 -0.2386
  482TIP3    H2 2329   1.601   6.752   7.043  0.8623  0.4551  2.1862
  483TIP3   OH2 2330   5.374   4.914   4.066 -0.1599  1.0082 -0.5133
  483TIP3    H1 2331   5.369   4.980   4.134  0.6552  0.6451 -0.0913
  483TIP3    H2 2332   5.456   4.932   4.021 -0.2488  0.6810 -0.8113
  484TIP3   OH2 2333   3.274   1.461   1.704 -0.2145  0.2017 -0.2632
  484TIP3    H1 2334   3.225   1.384   1.676 -0.5725  0.2071  0.3170
  484TIP3    H2 2335   3.343   1.426   1.760  0.1238  0.2370 -0.6584
  485TIP3   OH2 2336   5.051   8.507   5.709 -0.3508  0.3894  0.3881
  485TIP3    H1 2337   5.134   8.515   5.756  0.4353  2.9368 -1.2296
  485TIP3    H2 2338   5.076   8.469   5.624 -0.9463  0.5680  0.1318
  486TIP3   OH2 2339   6.626   3.273   3.025 -0.2008 -0.3217 -0.2590
  486TIP3    H1 2340   6.535   3.246   3.014 -0.0680 -1.1489  0.5029
  486TIP3    H2 2341   6.669   3.195   3.060  0.7476  0.1416 -0.3714
  487TIP3   OH2 2342   4.699   8.146   7.269 -0.1892 -0.1887  0.7891
  487TIP3    H1 2343   4.630   8.079   7.269 -0.6402  0.1866 -1.4486
  487TIP3    H2 2344   4.774   8.103   7.309 -0.5861 -1.9336 -0.2321
  488TIP3   OH2 2345   5.790   6.344   7.668  1.3653 -0.2082  0.2682
  488TIP3    H1 2346   5.876   6.345   7.626  0.7815 -0.7021 -0.9702
  488TIP3    H2 2347   5.728   6.327   7.597  0.0839  1.5011  0.8935
  489TIP3   OH2 2348   7.451   0.554   7.253 -0.1651 -0.1760 -0.0171
  489TIP3    H1 2349   7.436   0.459   7.251 -1.9411  0.0952 -1.1198
  489TIP3    H2 2350   7.399   0.585   7.327 -2.3472  0.3030 -1.6489
  490TIP3   OH2 2351   3.613   8.153   5.731  0.2892  0.1804 -0.3163
  490TIP3    H1 2352   3.601   8.184   5.821 -0.4865 -0.8854 -0.0292
  490TIP3    H2 2353   3.605   8.232   5.677 -0.5888  0.6491  0.4608
  491TIP3   OH2 2354   9.089   4.352   5.871 -0.5474  0.2757 -0.2233
  491TIP3    H1 2355   9.016   4.338   5.811 -2.3800  0.9036  1.7540
  491TIP3    H2 2356   9.104   4.446   5.868 -0.0012  0.1893 -0.3666
  492TIP3   OH2 2357   1.084   7.482   0.275 -0.1124  0.2507 -0.4814
  492TIP3    H1 2358   1.021   7.451   0.340 -0.5993  0.1516 -0.9905
  492TIP3    H2 2359   1.108   7.570   0.304  0.8032 -0.3346  0.6315
  493TIP3   OH2 2360   0.293   5.523   6.560 -0.1722  0.5066  0.8211
  493TIP3    H1 2361   0.342   5.603   6.574  1.2007 -0.1829  0.1304
  493TIP3    H2 2362   0.330   5.461   6.623  1.8471 -0.8342 -1.5396
  494TIP3   OH2 2363   8.787   4.299   2.206  0.8157  0.0190 -0.2491
  494TIP3    H1 2364   8.769   4.393   2.207 -1.5555 -0.3692  0.6250
  494TIP3    H2 2365   8.765   4.269   2.294  3.5829 -1.0882  0.1773
  495TIP3   OH2 2366  10.261   3.608  10.717  0.4567 -0.2934 -0.2407
  495TIP3    H1 2367  10.275   3.527  10.766 -0.4962  0.0452  0.6073
  495TIP3    H2 2368  10.339   3.660  10.734  0.5070 -0.5199  0.2319
  496TIP3   OH2 2369   8.126   9.675   4.310  0.2614 -0.0812 -0.6459
  496TIP3    H1 2370   8.124   9.762   4.350  1.4199 -0.9389  1.4913
  496TIP3    H2 2371   8.049   9.630   4.345  0.1305 -0.1848 -1.0637
  497TIP3   OH2 2372   2.714   8.201   7.493  0.7397 -0.1103  0.0195
  497TIP3    H1 2373   2.676   8.275   7.445  0.4404  0.0346  0.4710
  497TIP3    H2 2374   2.807   8.202   7.469  0.6491  0.1303 -0.3361
  498TIP3   OH2 2375   9.786   8.684   9.871  0.4077  0.1241 -0.7316
  498TIP3    H1 2376   9.696   8.654   9.883  0.0631  1.4162  0.2194
  498TIP3    H2 2377   9.840   8.611   9.901 -0.3412 -0.3897 -0.6108
  499TIP3   OH2 2378   0.966   4.836   1.152 -0.2549 -0.2263  0.9888
  499TIP3    H1 2379   1.034   4.841   1.220  0.1200 -0.0798  0.6120
  499TIP3    H2 2380   0.931   4.924   1.146 -0.0881 -0.1704  0.7987
  500TIP3   OH2 2381   3.282   7.855   9.274  0.5364 -0.2960 -0.2174
  500TIP3    H1 2382   3.220   7.890   9.338  0.9971 -1.3492  0.8491
  500TIP3    H2 2383   3.261   7.899   9.192  0.0142  1.1925  0.6927
  501TIP3   OH2 2384   3.087   8.008   6.574  0.3383 -0.2480  0.1263
  501TIP3    H1 2385   3.135   7.943   6.523  1.3468  1.0539 -0.6414
  501TIP3    H2 2386   3.131   8.091   6.554 -1.2917  0.7628  0.5964
  502TIP3   OH2 2387   3.201   8.278   2.754 -0.1105 -0.3645 -0.8683
  502TIP3    H1 2388   3.155   8.221   2.816  0.0518  0.3810 -0.0352
  502TIP3    H2 2389   3.152   8.360   2.755  0.1525 -0.1941 -1.4043
  503TIP3   OH2 2390   5.035   7.103   2.501 -0.0666  0.0498 -0.2202
  503TIP3    H1 2391   5.129   7.096   2.484 -0.1127 -1.6663  0.0391
  503TIP3    H2 2392   5.029   7.140   2.589  0.4923 -2.3009  0.8976
  504TIP3   OH2 2393   4.942   4.515   8.849 -0.6779  0.0457  0.5704
  504TIP3    H1 2394   4.988   4.580   8.796 -0.6375 -2.2861 -2.5774
  504TIP3    H2 2395   5.010   4.471   8.899  0.3600 -1.5840 -2.0377
  505TIP3   OH2 2396  10.015   0.288   1.722  0.6973  0.4330  0.2293
  505TIP3    H1 2397  10.059   0.373   1.716  0.2755  0.8642  2.4999
  505TIP3    H2 2398  10.045   0.252   1.805 -1.0502 -0.5208  0.4789
  506TIP3   OH2 2399   8.723   7.549   7.343  0.5632 -0.0640 -0.0835
  506TIP3    H1 2400   8.765   7.465   7.359 -0.7762 -0.4962  1.3087
  506TIP3    H2 2401   8.791   7.614   7.362  0.8924 -0.7655  1.2182
  507TIP3   OH2 2402   8.552   1.493   9.298 -0.0777 -0.7646  0.4690
  507TIP3    H1 2403   8.486   1.560   9.285 -0.1993 -0.6275  1.7084
  507TIP3    H2 2404   8.628   1.539   9.333  0.2529 -1.1018  0.2131
  508TIP3   OH2 2405   0.604   7.977   9.495  0.1472 -0.9740 -0.1765
  508TIP3    H1 2406   0.628   7.949   9.583  0.2416 -3.5542 -0.9309
  508TIP3    H2 2407   0.509   7.963   9.491  0.0531 -0.3417 -0.3435
  509TIP3   OH2 2408   8.448  10.620   3.774  0.2156  0.3545  0.3321
  509TIP3    H1 2409   8.490  10.600   3.690 -0.5339 -1.9449  0.4408
  509TIP3    H2 2410   8.499  10.571   3.838 -0.8795 -0.1500  0.8404
  510TIP3   OH2 2411   0.657  10.277   6.032 -0.2255 -0.0149 -0.2258
  510TIP3    H1 2412   0.603  10.295   5.955  1.6702  0.3297 -1.5237
  510TIP3    H2 2413   0.737  10.327   6.018  1.6784 -2.7477  0.1713
  511TIP3   OH2 2414   1.261   3.965   7.100 -0.4400 -0.1680 -0.5557
  511TIP3    H1 2415   1.229   3.875   7.104 -0.9831  0.0099 -0.7976
  511TIP3    H2 2416   1.183   4.017   7.079  0.1721  0.1743 -2.1053
  512TIP3   OH2 2417   3.579   0.676   1.587 -0.0336 -0.2649  0.6007
  512TIP3    H1 2418   3.526   0.751   1.561  0.4720 -0.2727 -0.5136
  512TIP3    H2 2419   3.515   0.608   1.611 -0.5328 -0.1660 -0.4083
  513TIP3   OH2 2420   7.455   3.340   9.273 -0.0109 -0.1786  0.3462
  513TIP3    H1 2421   7.512   3.285   9.220  1.1768  1.5404 -0.2687
  513TIP3    H2 2422   7.478   3.429   9.247 -1.8608  0.6155  1.2786
  514TIP3   OH2 2423   7.576   8.988   3.375  0.2235  0.0617  0.2154
  514TIP3    H1 2424   7.650   9.034   3.413  0.4181  0.1962 -0.3202
  514TIP3    H2 2425   7.507   9.054   3.370  0.0922 -0.0396  0.6276
  515TIP3   OH2 2426   5.729   2.710   9.340  0.5370 -0.5909 -0.1037
  515TIP3    H1 2427   5.660   2.721   9.275 -0.2215  1.7878  0.9868
  515TIP3    H2 2428   5.688   2.659   9.410  1.2088 -2.7297 -1.1767
  516TIP3   OH2 2429   1.201   2.343   7.493 -0.0474 -0.5158  0.0415
  516TIP3    H1 2430   1.215   2.437   7.480 -1.5370 -0.4244 -1.2716
  516TIP3    H2 2431   1.158   2.314   7.412 -0.4348 -2.1557  0.7904
  517TIP3   OH2 2432   4.124   0.523   3.550  0.0478  0.2703  0.4610
  517TIP3    H1 2433   4.101   0.527   3.643 -1.2513 -1.1622  0.2346
  517TIP3    H2 2434   4.218   0.506   3.550  0.0344  0.1307  1.5150
  518TIP3   OH2 2435   1.435   3.329   1.387  0.4059  0.3348  0.0827
  518TIP3    H1 2436   1.439   3.233   1.393 -0.5024  0.3395  1.1370
  518TIP3    H2 2437   1.416   3.357   1.477 -0.5111  1.4302 -0.4315
  519TIP3   OH2 2438   6.586   8.470  10.431  0.4572  0.0330 -0.7741
  519TIP3    H1 2439   6.674   8.435  10.440  1.1408  1.7495 -0.3323
  519TIP3    H2 2440   6.530   8.393  10.420  2.0457 -1.0667 -1.5428
  520TIP3   OH2 2441   4.378   6.326   2.432  0.4558  0.0055 -0.5997
  520TIP3    H1 2442   4.460   6.370   2.411  0.3429  0.6640  0.2771
  520TIP3    H2 2443   4.395   6.281   2.515  0.0303 -0.1510 -0.5924
  521TIP3   OH2 2444  10.140   0.837   8.433 -0.4922 -0.0584  0.5499
  521TIP3    H1 2445  10.235   0.830   8.435 -0.5241 -0.4743  0.5858
  521TIP3    H2 2446  10.109   0.751   8.461 -0.8780  0.0379  0.4200
  522TIP3   OH2 2447   1.779   7.690   3.213 -0.0359 -0.2593 -0.1511
  522TIP3    H1 2448   1.785   7.663   3.305 -0.1616 -2.2226 -0.6616
  522TIP3    H2 2449   1.865   7.669   3.176  0.0864  0.7146 -0.4501
  523TIP3   OH2 2450   9.765   0.137   2.866  0.0171  0.3901 -0.3142
  523TIP3    H1 2451   9.857   0.115   2.848  0.3046  0.1467  1.3592
  523TIP3    H2 2452   9.718   0.056   2.847 -0.0468  0.8400 -2.3071
  524TIP3   OH2 2453   6.557   8.272   7.954  0.3955 -0.0581  0.4610
  524TIP3    H1 2454   6.486   8.324   7.917 -0.7490  0.4853  3.1524
  524TIP3    H2 2455   6.512   8.203   8.004  1.8057 -0.7398  0.8235
  525TIP3   OH2 2456   8.294   2.372   8.411 -0.4732  0.5489  0.1502
  525TIP3    H1 2457   8.271   2.436   8.479  0.1708 -0.5682  1.4832
  525TIP3    H2 2458   8.389   2.364   8.418 -0.1546  1.7501 -2.1676
  526TIP3   OH2 2459   9.583   9.084   1.345  0.2580  0.0264 -0.1237
  526TIP3    H1 2460   9.634   9.004   1.336  1.3828  0.6502  0.3553
  526TIP3    H2 2461   9.626   9.131   1.417 -1.1388  0.4958  0.4375
  527TIP3   OH2 2462   3.626   3.422   7.401 -0.6700 -0.4675  0.3061
  527TIP3    H1 2463   3.689   3.407   7.471 -0.7458 -1.1988  0.2211
  527TIP3    H2 2464   3.556   3.359   7.418 -2.0360  1.1734  1.1542
  528TIP3   OH2 2465   4.398   7.964   1.329  0.3529 -0.3878  0.2261
  528TIP3    H1 2466   4.481   7.929   1.296 -0.1960 -0.5527 -1.0161
  528TIP3    H2 2467   4.412   8.059   1.333  0.3401 -0.3364 -0.7702
  529TIP3   OH2 2468   5.435   9.342   4.285 -0.4261  0.1157 -0.0393
  529TIP3    H1 2469   5.468   9.253   4.299  0.8576  0.7725  1.3354
  529TIP3    H2 2470   5.344   9.338   4.314 -0.1372 -0.5554  0.8323
  530TIP3   OH2 2471   3.794   0.736   4.910 -0.1493 -0.2931  0.5787
  530TIP3    H1 2472   3.827   0.758   4.997 -1.7428  1.2400  0.8453
  530TIP3    H2 2473   3.869   0.696   4.865  1.7545  2.0497  1.4678
  531TIP3   OH2 2474   4.362   8.176   7.091  0.8077 -0.2564 -0.3777
  531TIP3    H1 2475   4.354   8.202   7.183 -0.5869  0.9649 -0.7844
  531TIP3    H2 2476   4.294   8.110   7.079  0.2431  0.3748 -0.7584
  532TIP3   OH2 2477   8.513   9.272  10.547  0.0040  0.0897  0.0044
  532TIP3    H1 2478   8.435   9.225  10.576 -0.1198 -0.4387 -1.1282
  532TIP3    H2 2479   8.581   9.204  10.540  0.5226  0.5109  0.7893
  533TIP3   OH2 2480   7.548   6.264   3.485  0.5663  0.1539 -0.2526
  533TIP3    H1 2481   7.611   6.192   3.487  0.7142  0.2952  0.4221
  533TIP3    H2 2482   7.546   6.296   3.575 -0.3540  0.2532 -0.2982
  534TIP3   OH2 2483   3.258   9.276   7.568 -0.5697  0.0403  0.1727
  534TIP3    H1 2484   3.213   9.331   7.503  0.1849 -0.4006 -0.7443
  534TIP3    H2 2485   3.300   9.338   7.627 -0.1891  0.4572 -0.5269
  535TIP3   OH2 2486   9.475   1.566   6.465 -0.6782  0.4638  0.0920
  535TIP3    H1 2487   9.500   1.584   6.556  0.4998 -1.0947  0.1257
  535TIP3    H2 2488   9.510   1.640   6.416 -0.2209  0.7164  0.7741
  536TIP3   OH2 2489  10.744   8.709   9.107 -0.3684  0.1033 -0.8985
  536TIP3    H1 2490  10.694   8.757   9.173 -0.7925 -1.4357 -0.0406
  536TIP3    H2 2491  10.801   8.651   9.158  1.2118  0.7152 -1.8808
  537TIP3   OH2 2492   3.364   6.881   5.175 -0.0783  0.9980 -0.0567
  537TIP3    H1 2493   3.374   6.976   5.168  0.0303  1.0086  0.2640
  537TIP3    H2 2494   3.430   6.854   5.238 -0.1592  0.7172 -0.0915
  538TIP3   OH2 2495   5.255   6.444   8.942  0.1115 -0.1046  1.1179
  538TIP3    H1 2496   5.247   6.454   9.037 -2.4161 -0.8473  1.0559
  538TIP3    H2 2497   5.180   6.490   8.907  1.1740  0.4002 -0.5830
  539TIP3   OH2 2498   6.017   0.168   9.877  0.0499  0.0324  0.3867
  539TIP3    H1 2499   6.024   0.073   9.869  0.0658  0.2155 -3.0147
  539TIP3    H2 2500   5.925   0.184   9.897 -0.3633 -0.6427 -0.9148
  540TIP3   OH2 2501  10.314   5.479   4.171  0.7744  0.2852  0.0907
  540TIP3    H1 2502  10.249   5.530   4.122 -0.6540 -0.2112  1.3943
  540TIP3    H2 2503  10.384   5.463   4.108 -0.8357 -0.0789 -1.7174
  541TIP3   OH2 2504   1.402   5.931   3.203  0.2134 -0.0587  0.7945
  541TIP3    H1 2505   1.410   5.838   3.223 -0.6974 -0.1687  0.7207
  541TIP3    H2 2506   1.490   5.959   3.181  0.3487 -1.1260 -0.0930
  542TIP3   OH2 2507   5.495   1.510   6.134  0.7598 -0.5965  0.5801
  542TIP3    H1 2508   5.512   1.601   6.110 -0.4258 -0.6563 -0.6090
  542TIP3    H2 2509   5.399   1.504   6.141  0.8812 -1.4059  2.1647
  543TIP3   OH2 2510   0.298   0.367   5.512  0.0629 -0.1579  0.3644
  543TIP3    H1 2511   0.357   0.437   5.542  0.2133 -0.1955  0.1533
  543TIP3    H2 2512   0.344   0.325   5.440 -0.7958  0.7039 -0.7251
  544TIP3   OH2 2513   6.721   9.352  10.195  0.0620  0.2259  0.0774
  544TIP3    H1 2514   6.667   9.379  10.269  1.0397  0.6499  0.6510
  544TIP3    H2 2515   6.805   9.328  10.234  0.5161  0.2268 -0.8743
  545TIP3   OH2 2516   5.650   4.639   5.464 -0.2770 -0.6651 -0.0190
  545TIP3    H1 2517   5.616   4.649   5.375 -1.6174 -1.5310  0.3776
  545TIP3    H2 2518   5.739   4.675   5.459 -0.9363  0.9586 -1.2742
  546TIP3   OH2 2519   8.858   2.797   9.349  0.0568  0.0564  0.3915
  546TIP3    H1 2520   8.815   2.727   9.299 -0.2575  0.9040 -0.5705
  546TIP3    H2 2521   8.885   2.756   9.431  0.0678 -1.2374 -0.2470
  547TIP3   OH2 2522   8.933   9.506   9.815 -0.5969  0.1025 -0.0627
  547TIP3    H1 2523   8.964   9.416   9.822 -0.2065  0.0368 -2.0566
  547TIP3    H2 2524   8.973   9.552   9.889  1.2262 -0.8151 -0.4292
  548TIP3   OH2 2525   2.363   7.824   1.670 -0.2174  0.5358  0.6137
  548TIP3    H1 2526   2.376   7.818   1.575 -0.1139  1.5462  0.5517
  548TIP3    H2 2527   2.450   7.836   1.706 -0.0918 -1.3294  0.9856
  549TIP3   OH2 2528   4.976   7.980   3.026 -0.3068  0.3667 -0.1262
  549TIP3    H1 2529   4.908   8.023   3.077 -0.7701  0.4020 -0.7684
  549TIP3    H2 2530   4.984   8.032   2.946  1.0414  0.8308  0.2787
  550TIP3   OH2 2531   5.127  10.017   8.006  0.1239 -0.0285 -0.7064
  550TIP3    H1 2532   5.065  10.089   7.998 -0.2192 -0.4616 -2.3234
  550TIP3    H2 2533   5.199  10.040   7.948  0.7775 -0.2347  0.0085
  551TIP3   OH2 2534   9.972   5.152   7.696  0.0268 -0.0310 -0.2742
  551TIP3    H1 2535   9.928   5.182   7.616  0.0451 -0.8915 -0.6223
  551TIP3    H2 2536   9.938   5.063   7.710 -0.3138  0.2659  0.9340
  552TIP3   OH2 2537   0.198  10.295   8.262 -0.4534 -0.0597  0.5530
  552TIP3    H1 2538   0.206  10.357   8.189  0.4880 -1.3715 -0.5013
  552TIP3    H2 2539   0.243  10.216   8.231  1.4233 -0.1331  3.1373
  553TIP3   OH2 2540   0.382   0.298   0.929 -0.2711  0.5861 -0.2172
  553TIP3    H1 2541   0.294   0.292   0.891 -0.1938 -1.6346 -0.1968
  553TIP3    H2 2542   0.440   0.278   0.855  0.0747 -0.2714  0.2812
  554TIP3   OH2 2543  10.627   1.801   9.820 -0.4669  0.2972  0.2050
  554TIP3    H1 2544  10.701   1.786   9.761 -1.0882  0.9227 -0.7643
  554TIP3    H2 2545  10.562   1.736   9.794  0.2097 -1.1601  1.9524
  555TIP3   OH2 2546   4.610   5.130  10.335  0.1637 -0.2339  0.1502
  555TIP3    H1 2547   4.615   5.068  10.408  1.0625  0.0975  0.3886
  555TIP3    H2 2548   4.575   5.080  10.262 -2.0196 -0.2474  1.1485
  556TIP3   OH2 2549   4.295   4.926   8.003  0.2764  0.7392 -0.1360
  556TIP3    H1 2550   4.332   4.941   8.090 -1.1606  1.0008  0.4612
  556TIP3    H2 2551   4.370   4.904   7.948  1.1092 -0.3791  1.3781
  557TIP3   OH2 2552   6.647   2.286   3.773 -0.1688 -0.1146 -0.1391
  557TIP3    H1 2553   6.559   2.309   3.804 -0.4519 -2.0524  0.6204
  557TIP3    H2 2554   6.654   2.329   3.687 -0.8568  2.1464  0.8674
  558TIP3   OH2 2555   8.794   8.195   1.921 -0.0603 -0.9687  0.2993
  558TIP3    H1 2556   8.758   8.159   1.841 -2.8344  1.2382  0.4291
  558TIP3    H2 2557   8.826   8.282   1.897  1.3703 -1.2152  1.1346
  559TIP3   OH2 2558   1.353   3.879   4.416 -0.0791 -0.6569 -0.1468
  559TIP3    H1 2559   1.389   3.955   4.369  0.1274  1.3187  2.8995
  559TIP3    H2 2560   1.430   3.829   4.442 -0.1189 -1.0738 -0.8092
  560TIP3   OH2 2561   6.116   9.662   4.769 -0.6221 -0.3129  0.0544
  560TIP3    H1 2562   6.028   9.679   4.735 -0.8358  0.2076  0.8486
  560TIP3    H2 2563   6.124   9.720   4.845  0.5353 -0.0974 -0.2148
  561TIP3   OH2 2564   6.921   8.717   9.081 -0.1487  0.1606  0.0483
  561TIP3    H1 2565   6.904   8.638   9.131 -1.6527  1.4918  1.7819
  561TIP3    H2 2566   6.980   8.769   9.136  1.3245  0.0173 -1.3374
  562TIP3   OH2 2567   4.535  10.289   2.394 -0.1625 -0.1356 -0.3290
  562TIP3    H1 2568   4.483  10.213   2.366  0.0140 -1.2029  1.9741
  562TIP3    H2 2569   4.624  10.254   2.404  0.5818  1.1335 -2.0594
  563TIP3   OH2 2570   2.612   4.117   7.056  0.1854  0.2659  0.1079
  563TIP3    H1 2571   2.600   4.052   7.125 -1.3751  1.3538  0.8964
  563TIP3    H2 2572   2.533   4.111   7.003  0.0890  1.3946  0.0970
  564TIP3   OH2 2573   3.581   7.026   5.369 -0.0895  0.0607 -0.9266
  564TIP3    H1 2574   3.649   6.960   5.363 -0.6842 -0.7535  0.7891
  564TIP3    H2 2575   3.621   7.106   5.334  2.1395 -0.0945  1.0557
  565TIP3   OH2 2576  10.629   7.372  10.304 -1.2203 -0.2035  0.0834
  565TIP3    H1 2577  10.707   7.323  10.278  0.4215  1.1208  2.1804
  565TIP3    H2 2578  10.569   7.306  10.338 -0.0890 -1.0408  0.5146
  566TIP3   OH2 2579   3.235   7.837   8.456 -0.0594  0.2770  0.1546
  566TIP3    H1 2580   3.330   7.847   8.456  0.2470 -1.5745 -2.5278
  566TIP3    H2 2581   3.202   7.927   8.449  1.5097  0.9088  0.5105
  567TIP3   OH2 2582   8.936   6.107   9.737 -0.1610 -0.6793 -0.3733
  567TIP3    H1 2583   8.996   6.034   9.723  0.5231 -0.4382  1.0731
  567TIP3    H2 2584   8.932   6.117   9.832 -1.2163  0.3735 -0.5049
  568TIP3   OH2 2585   4.069   3.426   0.483 -0.4943 -0.4633  0.6460
  568TIP3    H1 2586   3.975   3.430   0.499 -0.8372  1.3822 -1.3406
  568TIP3    H2 2587   4.109   3.449   0.567 -1.8491 -0.0502  1.2038
  569TIP3   OH2 2588  10.790   7.102   1.808 -0.1399 -0.2348  0.5157
  569TIP3    H1 2589  10.770   7.195   1.822 -0.0899 -0.3485  1.3611
  569TIP3    H2 2590  10.782   7.062   1.894 -0.2222 -1.0359  0.1437
  570TIP3   OH2 2591   9.937  10.520   4.433 -0.3740 -0.4071 -0.5043
  570TIP3    H1 2592  10.020  10.563   4.411 -0.7216  0.4892 -0.0892
  570TIP3    H2 2593   9.878  10.546   4.363 -1.7862  3.3073  1.8058
  571TIP3   OH2 2594   4.350   9.950   4.982 -0.3801  0.6776 -0.4178
  571TIP3    H1 2595   4.434   9.961   4.936 -0.5241 -2.0527 -1.5369
  571TIP3    H2 2596   4.372   9.902   5.061 -0.8761 -0.0749 -0.7294
  572TIP3   OH2 2597   9.646   2.355   9.781 -0.0401  0.1659 -0.6567
  572TIP3    H1 2598   9.643   2.345   9.876 -0.5634  2.6193 -0.3408
  572TIP3    H2 2599   9.554   2.357   9.755  0.0688  1.0219 -0.9985
  573TIP3   OH2 2600  10.207   1.966   2.103 -0.3687 -0.3425  0.3455
  573TIP3    H1 2601  10.195   1.961   2.198 -1.3130  0.7952  0.3153
  573TIP3    H2 2602  10.163   2.048   2.078  1.1444  0.1395 -0.8807
  574TIP3   OH2 2603   0.441   1.055   4.486  0.7372  0.3617 -0.1486
  574TIP3    H1 2604   0.515   1.037   4.429  1.3043 -0.0194  0.6841
  574TIP3    H2 2605   0.398   0.970   4.498 -0.3214  0.7066 -1.2541
  575TIP3   OH2 2606   6.356   9.390   0.504 -0.0048  0.0211 -0.0369
  575TIP3    H1 2607   6.295   9.464   0.500 -0.3053 -0.1668  0.8086
  575TIP3    H2 2608   6.391   9.383   0.415 -0.7545  0.5172 -0.3820
  576TIP3   OH2 2609   2.915   7.861   7.466 -0.1506 -0.4217 -0.1804
  576TIP3    H1 2610   2.888   7.828   7.551 -0.1735  0.2148  0.0670
  576TIP3    H2 2611   2.926   7.955   7.479 -0.6846 -0.2298 -1.0107
  577TIP3   OH2 2612   3.021   1.870   0.280  0.3820 -0.4850 -0.2022
  577TIP3    H1 2613   3.107   1.834   0.303  0.0023 -2.2964 -1.4170
  577TIP3    H2 2614   2.962   1.835   0.347  0.4042 -0.0970  0.0238
  578TIP3   OH2 2615   1.893   5.975   7.981 -0.0884 -0.3071 -0.0050
  578TIP3    H1 2616   1.916   5.882   7.980 -0.7843 -0.4868  0.2006
  578TIP3    H2 2617   1.897   6.002   7.889 -1.9594 -1.0699 -0.3401
  579TIP3   OH2 2618   1.217   8.926   2.833 -0.7232 -0.0010  0.0721
  579TIP3    H1 2619   1.248   8.841   2.863 -0.3978  0.7597  2.0567
  579TIP3    H2 2620   1.221   8.921   2.738  0.2770 -1.8314  0.1690
  580TIP3   OH2 2621   3.958   8.308   1.944 -0.0682  0.3868  0.1302
  580TIP3    H1 2622   3.989   8.219   1.926  1.8920  0.9822  0.3579
  580TIP3    H2 2623   3.947   8.347   1.858 -0.0612  0.2044  0.0461
  581TIP3   OH2 2624   2.112   8.293   5.936  0.1506  0.0634 -0.0870
  581TIP3    H1 2625   2.192   8.344   5.952 -1.1458  1.7150  1.4553
  581TIP3    H2 2626   2.144   8.203   5.924  2.5373  1.1310 -3.1554
  582TIP3   OH2 2627   2.955   0.858   7.468  0.1837  0.0133 -0.9163
  582TIP3    H1 2628   2.902   0.922   7.515  0.0163 -1.4682  1.0589
  582TIP3    H2 2629   2.898   0.825   7.398 -0.8868 -0.2801  0.0688
  583TIP3   OH2 2630   4.311   5.723  10.448  0.3104 -0.1945 -0.5634
  583TIP3    H1 2631   4.224   5.736  10.410 -0.5326  0.4190  1.4114
  583TIP3    H2 2632   4.368   5.779  10.396 -0.5854 -0.1569 -1.5427
  584TIP3   OH2 2633   2.427   5.914  10.059 -0.1883 -0.5345  0.0815
  584TIP3    H1 2634   2.457   5.972   9.989  0.0699  0.7968  1.2387
  584TIP3    H2 2635   2.489   5.930  10.131 -1.6546 -0.2883  1.3399
  585TIP3   OH2 2636   1.446   7.801  10.196 -0.0016 -0.0704 -0.2739
  585TIP3    H1 2637   1.355   7.826  10.211  0.1541  0.2630  0.1231
  585TIP3    H2 2638   1.480   7.781  10.283  0.6172  0.9019 -0.2787
  586TIP3   OH2 2639   8.893   1.506   3.531 -0.1581 -0.1228 -0.4306
  586TIP3    H1 2640   8.797   1.496   3.535 -0.1331 -0.1789  0.0906
  586TIP3    H2 2641   8.909   1.590   3.575  0.1584 -0.8718  0.9358
  587TIP3   OH2 2642   0.540   2.655   6.492  0.2042 -0.1717 -0.0606
  587TIP3    H1 2643   0.511   2.703   6.414  0.6110 -0.2018 -0.2351
  587TIP3    H2 2644   0.473   2.589   6.505 -0.0529  0.0637 -0.1744
  588TIP3   OH2 2645   1.275   2.994   1.759  0.2779  0.6445  0.2203
  588TIP3    H1 2646   1.267   2.998   1.854 -0.9745 -1.6017  0.2709
  588TIP3    H2 2647   1.203   3.049   1.727 -1.3915 -1.1930  0.6407
  589TIP3   OH2 2648   1.269   6.173   9.565 -0.4956 -0.2321  0.2442
  589TIP3    H1 2649   1.350   6.187   9.515 -1.3754  2.0870 -0.6950
  589TIP3    H2 2650   1.299   6.158   9.655  1.0575 -2.8347 -0.6087
  590TIP3   OH2 2651  10.124   0.258   1.237 -0.4220  0.1279  0.1580
  590TIP3    H1 2652  10.059   0.326   1.251  1.2561  2.2403 -1.6891
  590TIP3    H2 2653  10.086   0.202   1.169 -0.1589  1.6565 -1.3012
  591TIP3   OH2 2654   6.062  10.495   9.681 -0.3928  0.5703 -0.5301
  591TIP3    H1 2655   6.048  10.454   9.596 -0.5553 -0.4757 -0.0103
  591TIP3    H2 2656   6.093  10.424   9.737 -2.5051  0.6974  0.8979
  592TIP3   OH2 2657   5.706   2.309   0.591  0.5337 -0.2203  0.1836
  592TIP3    H1 2658   5.659   2.239   0.636 -0.8737 -0.4599 -1.5344
  592TIP3    H2 2659   5.638   2.358   0.545  1.7407  0.8051 -0.5963
  593TIP3   OH2 2660   6.407   9.672   6.631 -0.0235  0.3696 -0.9581
  593TIP3    H1 2661   6.353   9.748   6.612 -0.5147  0.2266 -0.1463
  593TIP3    H2 2662   6.436   9.683   6.721 -0.7914 -0.8121 -0.5422
  594TIP3   OH2 2663   6.117   2.116  10.480 -0.6402  0.1476  0.0007
  594TIP3    H1 2664   6.185   2.079  10.537 -0.3059 -1.0267 -1.1114
  594TIP3    H2 2665   6.037   2.114  10.533 -0.3871 -1.1588  0.3777
  595TIP3   OH2 2666  10.611  10.713   2.534 -0.7144  0.0607  0.3685
  595TIP3    H1 2667  10.566  10.788   2.494  1.9358  1.5699 -0.0473
  595TIP3    H2 2668  10.661  10.752   2.605  1.5947 -1.0878 -0.5480
  596TIP3   OH2 2669   3.674   2.855   7.046 -0.1370 -0.4389 -0.1492
  596TIP3    H1 2670   3.696   2.928   6.989 -1.0239  1.0352  1.3153
  596TIP3    H2 2671   3.616   2.800   6.992  0.8206 -0.2949 -1.3825
  597TIP3   OH2 2672   0.306   8.775   1.735  0.1913  0.0589 -0.1606
  597TIP3    H1 2673   0.278   8.866   1.732  0.0077 -0.0073 -0.6161
  597TIP3    H2 2674   0.363   8.765   1.658  0.9109  0.0108  0.3671
  598TIP3   OH2 2675  10.170   0.054   9.305 -0.4133 -0.6844  0.2789
  598TIP3    H1 2676  10.212   0.043   9.220 -0.6684 -3.4501  0.4313
  598TIP3    H2 2677  10.237   0.029   9.369 -0.0283  1.9012  1.0484
  599TIP3   OH2 2678   9.511  10.259   0.780  0.0436 -0.2177 -0.7057
  599TIP3    H1 2679   9.501  10.353   0.792  0.2633 -0.2889  0.1516
  599TIP3    H2 2680   9.603  10.247   0.757  0.0354 -0.2281 -0.7326
  600TIP3   OH2 2681   5.248   2.689  10.102  0.2193 -0.5617 -0.5930
  600TIP3    H1 2682   5.340   2.698  10.076 -0.3910 -0.0768 -2.7959
  600TIP3    H2 2683   5.236   2.755  10.170  0.9956  0.9723 -1.8644
  601TIP3   OH2 2684   3.396   4.089   0.283  0.0935  0.1282  0.4272
  601TIP3    H1 2685   3.302   4.070   0.291  0.1544 -0.7497 -0.6802
  601TIP3    H2 2686   3.400   4.167   0.228  0.0139  0.0081  0.2498
  602TIP3   OH2 2687   9.206   1.741  10.642  0.2701  0.3449  0.3916
  602TIP3    H1 2688   9.201   1.734  10.547  0.4545  1.1027  0.3243
  602TIP3    H2 2689   9.139   1.679  10.674  1.0781 -0.8627 -0.1901
  603TIP3   OH2 2690   0.745   8.001   8.544  0.1806  0.1239  0.2501
  603TIP3    H1 2691   0.708   7.929   8.492 -2.3138 -0.8254  3.0652
  603TIP3    H2 2692   0.788   7.959   8.618  1.4069  1.4921  0.3727
  604TIP3   OH2 2693   4.297   2.529   4.460 -0.1344  0.0383 -0.2606
  604TIP3    H1 2694   4.318   2.599   4.522 -0.5179 -0.3102  0.2695
  604TIP3    H2 2695   4.248   2.573   4.390  0.1705  0.4094 -0.2429
  605TIP3   OH2 2696   8.460   5.390  10.812  0.0759  0.6705  0.0450
  605TIP3    H1 2697   8.519   5.402  10.886 -1.8450  0.0865  1.7833
  605TIP3    H2 2698   8.427   5.478  10.792 -0.3254  0.6843  0.7376
  606TIP3   OH2 2699  10.089   9.926   7.272  0.3722  0.3041 -0.0586
  606TIP3    H1 2700  10.021   9.994   7.265  0.9859  0.8678 -0.7902
  606TIP3    H2 2701  10.075   9.871   7.194  1.4107  1.0627 -0.8030
  607TIP3   OH2 2702   0.494   7.275   2.968  0.3328 -0.3350 -0.8408
  607TIP3    H1 2703   0.469   7.194   3.012 -2.0504  0.7020 -0.1164
  607TIP3    H2 2704   0.553   7.318   3.030  0.1117 -0.6627 -0.3974
  608TIP3   OH2 2705   9.923   2.365   5.505  0.7508  0.2626  0.0248
  608TIP3    H1 2706   9.893   2.451   5.477 -0.4249  0.1022  0.7243
  608TIP3    H2 2707   9.849   2.328   5.553  2.2659  0.0885  2.3666
  609TIP3   OH2 2708   3.740   7.284  10.214  0.1685 -0.9279  0.4470
  609TIP3    H1 2709   3.787   7.347  10.269  0.4243 -0.8345  0.1260
  609TIP3    H2 2710   3.738   7.324  10.127 -1.1005 -0.6159  0.5954
  610TIP3   OH2 2711   5.874   6.569   6.199  0.7022 -0.3627 -0.3208
  610TIP3    H1 2712   5.861   6.657   6.234  0.6340 -0.6285  0.3368
  610TIP3    H2 2713   5.961   6.543   6.229 -0.4211 -1.6587  2.0413
  611TIP3   OH2 2714   6.000   9.882   2.889 -0.2534 -0.0807  0.5142
  611TIP3    H1 2715   6.019   9.789   2.901 -0.0659  0.0295  1.0673
  611TIP3    H2 2716   6.085   9.923   2.877 -0.2929  0.1012  0.8398
  612TIP3   OH2 2717   7.274   4.401   0.627 -0.8931  0.4550 -0.2875
  612TIP3    H1 2718   7.243   4.325   0.578 -1.5777 -0.3971  1.3977
  612TIP3    H2 2719   7.199   4.428   0.681  0.4340 -0.0220  1.9287
  613TIP3   OH2 2720   7.128   7.032   8.051 -0.3912 -0.1160 -0.3164
  613TIP3    H1 2721   7.059   7.096   8.068 -0.3859 -0.5026  1.2959
  613TIP3    H2 2722   7.125   6.973   8.126 -0.1164 -1.7775 -1.5503
  614TIP3   OH2 2723   6.125   1.936   2.995 -0.2562 -0.3763  0.1514
  614TIP3    H1 2724   6.079   2.001   2.942 -0.3556  0.4242  1.2010
  614TIP3    H2 2725   6.171   1.881   2.931 -2.0395 -0.7371 -0.8846
  615TIP3   OH2 2726   6.746   7.432   0.144  0.1576 -0.4401  0.2137
  615TIP3    H1 2727   6.809   7.417   0.215  0.6727 -0.0448 -0.1460
  615TIP3    H2 2728   6.764   7.362   0.081  0.2658 -0.2982  0.0881
  616TIP3   OH2 2729   5.480   8.128   3.957  0.8744 -0.4618  0.1064
  616TIP3    H1 2730   5.476   8.217   3.923 -1.6692 -0.6278 -0.1907
  616TIP3    H2 2731   5.398   8.088   3.929  0.9902 -2.2271  2.0796
  617TIP3   OH2 2732   2.028   7.142   1.766 -0.1116 -0.1183  0.3563
  617TIP3    H1 2733   2.083   7.090   1.823  1.6526 -0.4769 -1.5558
  617TIP3    H2 2734   2.065   7.230   1.769  0.2188 -0.2167 -0.4668
  618TIP3   OH2 2735   6.529   8.639   4.991  0.2442  0.2269 -0.4462
  618TIP3    H1 2736   6.585   8.561   4.981 -0.1841 -0.0482 -0.7626
  618TIP3    H2 2737   6.587   8.712   4.973  0.2244 -0.1117 -2.1078
  619TIP3   OH2 2738   3.246   4.864  10.225 -0.8061 -0.4909 -0.7822
  619TIP3    H1 2739   3.265   4.932  10.290  0.0268  0.3728 -1.8924
  619TIP3    H2 2740   3.153   4.875  10.205 -0.9050 -0.3131 -0.2404
  620TIP3   OH2 2741   2.769   4.790   0.340  0.2914  0.9195  0.1905
  620TIP3    H1 2742   2.764   4.856   0.410  0.6041 -0.4671  1.5652
  620TIP3    H2 2743   2.844   4.818   0.288  0.5835  1.5246  0.9032
  621TIP3   OH2 2744   4.235   1.790   2.533 -0.7513  0.3101 -0.1465
  621TIP3    H1 2745   4.257   1.697   2.541  3.9090  1.2452  0.8142
  621TIP3    H2 2746   4.235   1.822   2.623 -2.0572  1.3615 -0.4830
  622TIP3   OH2 2747   6.718   7.036   1.906 -0.0471  0.3430  0.8555
  622TIP3    H1 2748   6.691   7.103   1.968  1.1817  0.5109  1.2387
  622TIP3    H2 2749   6.686   7.066   1.821  3.9741  3.7005  0.2069
  623TIP3   OH2 2750   0.399   1.191   2.706  0.0857 -0.7421  0.5520
  623TIP3    H1 2751   0.333   1.144   2.758 -2.1966  1.3723 -0.2006
  623TIP3    H2 2752   0.453   1.236   2.770 -2.9323  2.1606  1.3589
  624TIP3   OH2 2753   4.209   9.338   6.580 -0.0081  0.7909 -0.2038
  624TIP3    H1 2754   4.299   9.328   6.549  2.1200 -2.4377  5.4779
  624TIP3    H2 2755   4.213   9.414   6.639 -0.8677  0.3866  0.3926
  625TIP3   OH2 2756   0.196   8.054   5.469 -0.2702 -0.0249  0.0736
  625TIP3    H1 2757   0.128   7.987   5.468  0.2276 -0.5425  0.1607
  625TIP3    H2 2758   0.175   8.109   5.544 -0.2804 -0.5141  0.4350
  626TIP3   OH2 2759   9.528   0.737   4.288  0.0615 -0.1053  0.3044
  626TIP3    H1 2760   9.529   0.719   4.195  1.4973  2.7257 -0.3415
  626TIP3    H2 2761   9.459   0.680   4.323  0.2017 -1.9996 -2.2562
  627TIP3   OH2 2762  10.363   9.701   7.975  0.1584  0.6032 -0.0263
  627TIP3    H1 2763  10.317   9.617   7.977  0.0357  0.6894  1.9319
  627TIP3    H2 2764  10.301   9.763   8.014  1.3197  1.0312  1.1899
  628TIP3   OH2 2765   4.936   5.431   5.891  0.1825  0.5041 -1.2076
  628TIP3    H1 2766   5.013   5.388   5.854  1.3298  0.6942  0.8151
  628TIP3    H2 2767   4.952   5.525   5.876 -0.0557  0.5059 -1.4707
  629TIP3   OH2 2768   1.019   2.078   5.623  0.2389 -0.0160  0.3800
  629TIP3    H1 2769   0.931   2.076   5.584 -0.2841  1.5334  1.4059
  629TIP3    H2 2770   1.076   2.108   5.552  0.1935 -2.1437 -0.6489
  630TIP3   OH2 2771   4.710   2.060   3.539  0.5846  0.4002 -0.4194
  630TIP3    H1 2772   4.616   2.046   3.545  0.4488  1.7792  1.9342
  630TIP3    H2 2773   4.736   2.016   3.458 -1.8402 -1.1758 -0.4435
  631TIP3   OH2 2774   4.490   4.038   1.130  0.2905  0.0397  0.2636
  631TIP3    H1 2775   4.478   4.111   1.190 -2.9238  1.4091 -1.8080
  631TIP3    H2 2776   4.436   3.968   1.167  1.7339 -0.6369  1.1584
  632TIP3   OH2 2777   1.781   0.305   1.424 -0.0023 -0.2281  0.4995
  632TIP3    H1 2778   1.860   0.329   1.473  0.8671 -1.8687 -0.0186
  632TIP3    H2 2779   1.709   0.343   1.475  1.0651  0.8161  1.2954
  633TIP3   OH2 2780   9.949   5.567   6.699  0.3476  0.0596 -0.2237
  633TIP3    H1 2781   9.867   5.545   6.655  1.4248 -1.1458 -1.7421
  633TIP3    H2 2782   9.994   5.483   6.710  0.6513  0.4665  2.1914
  634TIP3   OH2 2783   0.468   8.134   3.792  0.1970  0.0147 -0.8376
  634TIP3    H1 2784   0.441   8.213   3.839 -0.7666  0.2506 -1.7579
  634TIP3    H2 2785   0.535   8.163   3.730  1.7395 -0.3572  0.5648
  635TIP3   OH2 2786   4.005   9.668   8.591  0.1537 -0.2300  0.4342
  635TIP3    H1 2787   4.024   9.595   8.649 -0.8669 -0.4715  0.4829
  635TIP3    H2 2788   3.925   9.642   8.544 -1.5463  1.7141  2.0159
  636TIP3   OH2 2789   5.179   6.293   8.375  0.1941  0.1352 -0.0147
  636TIP3    H1 2790   5.181   6.247   8.291  0.7406  0.8913 -0.4394
  636TIP3    H2 2791   5.087   6.312   8.390 -0.1139 -1.7014  0.5262
  637TIP3   OH2 2792   1.259   9.659   5.034  0.7173 -0.0903 -0.5707
  637TIP3    H1 2793   1.258   9.673   5.129  0.9707  1.2793 -0.7503
  637TIP3    H2 2794   1.294   9.571   5.024 -1.4311 -1.1807  0.6813
  638TIP3   OH2 2795  10.672   1.336   1.167  0.4372  0.3648 -0.4898
  638TIP3    H1 2796  10.691   1.383   1.086  2.0728 -0.9177 -0.9044
  638TIP3    H2 2797  10.652   1.246   1.138 -0.1881  0.1854  0.4544
  639TIP3   OH2 2798   0.720   0.496   3.738 -0.6444  0.1880 -0.2980
  639TIP3    H1 2799   0.668   0.576   3.731 -0.3608  0.4324  0.3500
  639TIP3    H2 2800   0.805   0.525   3.769 -0.7227 -0.4245  0.5333
  640TIP3   OH2 2801   9.886   2.063   2.432  0.0845  0.1175 -0.3020
  640TIP3    H1 2802   9.930   1.979   2.425  1.0257  0.2592  2.4612
  640TIP3    H2 2803   9.793   2.041   2.442  0.2421 -0.5616 -0.2744
  641TIP3   OH2 2804   5.080   1.833   9.452  0.1180 -0.4538  0.1943
  641TIP3    H1 2805   5.102   1.771   9.383  0.2800  0.2014 -0.3575
  641TIP3    H2 2806   5.121   1.915   9.424 -2.2278  0.5960 -0.4504
  642TIP3   OH2 2807   5.303   5.550   4.974  0.0559 -0.8566  0.0638
  642TIP3    H1 2808   5.343   5.558   4.887  0.1832  0.6368  0.2459
  642TIP3    H2 2809   5.214   5.583   4.962  0.7414  1.4946  0.9515
  643TIP3   OH2 2810   2.094   0.318   0.669  0.6847  0.1884  0.6011
  643TIP3    H1 2811   2.172   0.370   0.690  1.5796  0.1391 -2.2272
  643TIP3    H2 2812   2.128   0.242   0.621 -1.0896  0.5573 -1.3908
  644TIP3   OH2 2813   9.128   2.953   3.371  0.3632 -0.2151  0.1241
  644TIP3    H1 2814   9.164   3.037   3.399 -2.1129  0.9718  0.0693
  644TIP3    H2 2815   9.183   2.927   3.297  1.5946  1.0038  0.5659
  645TIP3   OH2 2816   1.306   7.160   1.749  0.4260  0.6689  0.0608
  645TIP3    H1 2817   1.231   7.101   1.749 -0.4065  1.6793 -0.2572
  645TIP3    H2 2818   1.290   7.219   1.823 -0.0033  1.9750 -1.0452
  646TIP3   OH2 2819   2.833   8.999   6.513  0.2348 -0.0397  0.0448
  646TIP3    H1 2820   2.775   9.052   6.567  0.0516 -0.0283 -0.1604
  646TIP3    H2 2821   2.831   8.912   6.553 -0.2485 -0.1439 -0.2002
  647TIP3   OH2 2822   2.839   4.556   6.510  0.4581 -0.6721  0.4143
  647TIP3    H1 2823   2.829   4.513   6.595 -1.1410 -2.0338 -0.4183
  647TIP3    H2 2824   2.860   4.486   6.449 -0.5413 -0.0749 -0.6782
  648TIP3   OH2 2825   6.405   6.798   4.456  0.4173  0.2627  0.2261
  648TIP3    H1 2826   6.319   6.802   4.498  0.7689 -2.3493  1.4123
  648TIP3    H2 2827   6.467   6.793   4.529  1.4204  0.1095 -0.6115
  649TIP3   OH2 2828   7.843   0.462   3.769  0.6711 -0.6767 -0.5094
  649TIP3    H1 2829   7.878   0.506   3.691  2.2685 -1.0458 -0.0492
  649TIP3    H2 2830   7.792   0.389   3.734 -0.2271  0.2653 -1.2347
  650TIP3   OH2 2831   9.535   4.135   9.083  0.1717  0.4699  1.0220
  650TIP3    H1 2832   9.578   4.195   9.144  1.4880 -0.5243  1.1180
  650TIP3    H2 2833   9.460   4.102   9.132 -0.9827  2.4770  0.7350
  651TIP3   OH2 2834   3.552   8.128   0.824 -0.3861  0.4689 -0.2461
  651TIP3    H1 2835   3.478   8.073   0.850 -1.3314  1.6052 -0.4422
  651TIP3    H2 2836   3.553   8.125   0.729 -0.0415  0.2841 -0.2381
  652TIP3   OH2 2837   1.969   3.122   8.213 -0.5203  0.1735 -0.5563
  652TIP3    H1 2838   2.043   3.076   8.252 -2.1908 -0.2356  2.4459
  652TIP3    H2 2839   1.985   3.119   8.119  3.0208 -0.2276 -0.0649
  653TIP3   OH2 2840   0.834   8.364   3.435 -0.1504  0.4440 -0.1677
  653TIP3    H1 2841   0.890   8.429   3.477 -0.7566  0.3385  0.8370
  653TIP3    H2 2842   0.895   8.295   3.408  0.2890  0.6455  0.2886
  654TIP3   OH2 2843   1.708   2.865   7.984  0.4404  0.2168  0.4362
  654TIP3    H1 2844   1.655   2.816   8.047  0.1909 -1.1739 -0.8282
  654TIP3    H2 2845   1.721   2.805   7.911  0.1392  2.0306 -1.1694
  655TIP3   OH2 2846   7.231   5.856   8.087 -0.2901  0.2869 -0.8036
  655TIP3    H1 2847   7.142   5.845   8.051 -0.4362 -1.8751  0.1130
  655TIP3    H2 2848   7.229   5.810   8.170  1.7982 -0.0219 -0.8868
  656TIP3   OH2 2849   9.786   2.961   3.552 -0.8036 -0.2920  0.1831
  656TIP3    H1 2850   9.782   2.909   3.632 -2.8003 -0.8848 -0.2538
  656TIP3    H2 2851   9.829   3.042   3.579 -0.8108 -0.7564  1.6951
  657TIP3   OH2 2852  10.437   9.158   3.983 -0.2837 -1.0080 -0.7449
  657TIP3    H1 2853  10.474   9.210   4.054  0.5356 -0.3635 -1.6029
  657TIP3    H2 2854  10.512   9.139   3.927 -1.2990  0.9252 -2.9278
  658TIP3   OH2 2855   0.104   6.785   2.699 -0.0223 -0.2536  0.2229
  658TIP3    H1 2856   0.050   6.778   2.778  0.3721  0.0156  0.5185
  658TIP3    H2 2857   0.134   6.875   2.698 -1.3172  0.2120 -1.1015
  659TIP3   OH2 2858   2.078   9.221   7.600  0.4457  0.3826 -0.0612
  659TIP3    H1 2859   2.029   9.190   7.524  1.4262  0.5885 -0.7968
  659TIP3    H2 2860   2.159   9.171   7.599  0.2445  0.0093  1.1722
  660TIP3   OH2 2861   7.816   5.191   6.545  0.4824 -0.3186  0.0802
  660TIP3    H1 2862   7.871   5.127   6.499 -0.2512 -0.7413 -0.2179
  660TIP3    H2 2863   7.793   5.148   6.627  0.4705 -0.2054  0.1360
  661TIP3   OH2 2864   2.440   3.889   3.355  0.2849  0.2936  0.5154
  661TIP3    H1 2865   2.344   3.894   3.357  0.2604  0.5898 -0.6222
  661TIP3    H2 2866   2.469   3.961   3.411 -0.1616  0.5885  0.3782
  662TIP3   OH2 2867   0.355   4.969   8.792  0.5340 -0.1854 -0.3643
  662TIP3    H1 2868   0.271   4.951   8.836  0.3163  2.3651  0.4549
  662TIP3    H2 2869   0.413   4.899   8.821 -0.7349 -0.7925  0.8345
  663TIP3   OH2 2870   4.190   5.212  10.834 -0.7087 -0.3699  0.4804
  663TIP3    H1 2871   4.164   5.164  10.756  1.2185 -2.5623  1.0670
  663TIP3    H2 2872   4.230   5.292  10.801 -1.2166 -0.5846 -0.6907
  664TIP3   OH2 2873   7.672   6.717   0.757  0.2277  0.0648 -0.0176
  664TIP3    H1 2874   7.689   6.700   0.664 -1.6600 -0.7839 -0.2494
  664TIP3    H2 2875   7.579   6.697   0.768  0.3272  0.5457  1.9848
  665TIP3   OH2 2876   1.447   2.124   7.219  0.1249  0.3778  0.3654
  665TIP3    H1 2877   1.454   2.060   7.148  1.4849  2.5711 -1.5902
  665TIP3    H2 2878   1.380   2.186   7.189 -0.7905  0.2431  1.9918
  666TIP3   OH2 2879   5.776   7.239   0.617 -0.0718  0.1202  0.3122
  666TIP3    H1 2880   5.859   7.210   0.579 -0.1312 -2.1503  1.6691
  666TIP3    H2 2881   5.719   7.254   0.542  1.4766  1.5905 -0.6403
  667TIP3   OH2 2882   8.392   0.979   8.086  0.2321  0.2587 -0.2302
  667TIP3    H1 2883   8.430   0.983   7.999  0.9538 -0.7912  0.0014
  667TIP3    H2 2884   8.468   0.971   8.144 -0.2945 -1.4291  0.2879
  668TIP3   OH2 2885   6.347   6.673   9.487  0.0287 -0.1408  0.4151
  668TIP3    H1 2886   6.352   6.681   9.582  0.7312  0.6891  0.3208
  668TIP3    H2 2887   6.418   6.728   9.454 -0.5319  0.0047 -0.6015
  669TIP3   OH2 2888   0.321   6.429   6.304 -0.0272 -0.0525  0.5267
  669TIP3    H1 2889   0.248   6.383   6.263 -0.8747  0.0038  1.9094
  669TIP3    H2 2890   0.347   6.372   6.377  0.6289  0.4280  0.6764
  670TIP3   OH2 2891   2.461   3.064   9.392  0.6594  0.5405 -0.5949
  670TIP3    H1 2892   2.501   3.010   9.324 -1.0632 -0.1150 -1.1349
  670TIP3    H2 2893   2.407   3.004   9.443  0.7272  1.2965  0.4061
  671TIP3   OH2 2894   4.143   3.307   2.022  0.2480 -0.0893  0.0858
  671TIP3    H1 2895   4.055   3.323   2.055 -0.2934 -2.1282 -0.2167
  671TIP3    H2 2896   4.156   3.212   2.033  1.9877 -0.0128 -0.8843
  672TIP3   OH2 2897   8.416   1.119  10.890 -0.5148  0.1492 -0.2840
  672TIP3    H1 2898   8.374   1.143  10.973 -0.3239  0.7141 -0.3419
  672TIP3    H2 2899   8.405   1.197  10.835  1.1091  0.5397 -0.1015
  673TIP3   OH2 2900   1.726   9.180   0.674 -0.0397 -0.4765  0.0276
  673TIP3    H1 2901   1.709   9.113   0.740  1.4724 -2.4153 -1.4684
  673TIP3    H2 2902   1.657   9.167   0.608 -2.9180  2.8420  2.0005
  674TIP3   OH2 2903   4.535   3.589   0.175  0.3797 -0.1840 -0.3205
  674TIP3    H1 2904   4.502   3.677   0.160  1.9600  0.1991 -1.9057
  674TIP3    H2 2905   4.623   3.601   0.209  0.4716 -1.1535 -0.1827
  675TIP3   OH2 2906   6.599   3.159   1.740  0.2102  0.4912  0.3097
  675TIP3    H1 2907   6.609   3.097   1.813 -1.4543  0.3559  0.4658
  675TIP3    H2 2908   6.516   3.134   1.699  0.1981  1.7494 -0.4811
  676TIP3   OH2 2909   8.854   3.484   9.243 -0.1653  0.1122 -0.0988
  676TIP3    H1 2910   8.779   3.438   9.206 -0.4025  0.9373 -0.6621
  676TIP3    H2 2911   8.920   3.416   9.255 -1.4770 -0.9057  1.7842
  677TIP3   OH2 2912   8.648   7.468  10.397  0.1043  0.3858 -0.1744
  677TIP3    H1 2913   8.586   7.453  10.468  0.8056  0.6586  0.5149
  677TIP3    H2 2914   8.637   7.392  10.339  0.3250 -0.4409  0.8277
  678TIP3   OH2 2915   7.259   7.929   2.567  0.2464  0.3610  0.8234
  678TIP3    H1 2916   7.258   7.850   2.620  2.0563  0.0258  0.4327
  678TIP3    H2 2917   7.326   7.913   2.501  0.4149  2.0662  0.5188
  679TIP3   OH2 2918   1.807  10.139   3.580 -0.0469 -0.5282 -0.3414
  679TIP3    H1 2919   1.833  10.129   3.672  2.4259 -0.5404 -0.9857
  679TIP3    H2 2920   1.812  10.051   3.543  3.2427 -0.0005 -1.4539
  680TIP3   OH2 2921   2.039   5.591   5.143 -0.1381 -0.6955 -0.3558
  680TIP3    H1 2922   2.090   5.618   5.067 -0.5916 -0.3839 -0.5524
  680TIP3    H2 2923   2.067   5.500   5.159  0.8742 -0.3541 -0.1171
  681TIP3   OH2 2924   9.122   3.016   6.657  0.0162 -0.1959  0.0996
  681TIP3    H1 2925   9.172   2.949   6.611  1.8854  1.1357  0.0429
  681TIP3    H2 2926   9.065   2.968   6.717  1.2562 -1.8204  0.0399
  682TIP3   OH2 2927   7.277  10.712   2.311 -0.5051 -0.1614  0.0144
  682TIP3    H1 2928   7.294  10.754   2.396  1.3912 -0.2068 -0.3062
  682TIP3    H2 2929   7.255  10.785   2.253 -1.4501 -0.0937  0.4288
  683TIP3   OH2 2930   0.868   7.179   4.485  0.0673 -0.0872 -0.2712
  683TIP3    H1 2931   0.853   7.152   4.395  0.1657 -1.4170  0.0877
  683TIP3    H2 2932   0.952   7.223   4.483  0.0351 -0.0422 -0.8392
  684TIP3   OH2 2933   8.820   6.404   0.107 -0.0998 -0.1324 -0.1155
  684TIP3    H1 2934   8.855   6.488   0.077 -0.4874  0.3685  0.8066
  684TIP3    H2 2935   8.897   6.350   0.123  0.2272  0.6224  0.9135
  685TIP3   OH2 2936   4.531  10.773   8.337 -0.0218  0.2771 -0.3808
  685TIP3    H1 2937   4.506  10.787   8.245  0.4403  0.4180 -0.4869
  685TIP3    H2 2938   4.620  10.807   8.343 -0.5165  1.5218  0.4464
  686TIP3   OH2 2939   9.112   8.200   4.871 -0.4348 -0.2329  0.5228
  686TIP3    H1 2940   9.064   8.122   4.900 -2.4566  0.1225 -1.5916
  686TIP3    H2 2941   9.169   8.168   4.801 -1.1287  0.1208 -0.2181
  687TIP3   OH2 2942  10.489   4.922   4.609  0.0258 -0.0179  0.2027
  687TIP3    H1 2943  10.429   4.996   4.623 -1.7414 -1.7825  2.8172
  687TIP3    H2 2944  10.485   4.906   4.515 -1.8918  1.3256 -0.0120
  688TIP3   OH2 2945   3.223   7.142   7.802 -0.5867 -0.1213 -0.0236
  688TIP3    H1 2946   3.228   7.152   7.707 -0.9248  0.2286 -0.0056
  688TIP3    H2 2947   3.156   7.075   7.816 -0.5242 -0.1858 -0.0292
  689TIP3   OH2 2948   4.254   2.545   5.188  0.1643 -0.7039  0.6171
  689TIP3    H1 2949   4.193   2.618   5.176 -2.5296 -2.6936  1.3688
  689TIP3    H2 2950   4.284   2.555   5.278  1.3593  0.5145  0.1205
  690TIP3   OH2 2951   4.416   4.557   2.834 -0.1512  0.2771  0.6002
  690TIP3    H1 2952   4.444   4.488   2.774 -0.3424  0.6544  0.0770
  690TIP3    H2 2953   4.497   4.585   2.877  0.0717  0.4031  0.1017
  691TIP3   OH2 2954   3.377   6.011   1.822  0.5764 -0.4179  0.2554
  691TIP3    H1 2955   3.355   5.926   1.860 -2.7251  0.5988  0.9271
  691TIP3    H2 2956   3.390   6.068   1.897  0.2610  0.2286 -0.1774
  692TIP3   OH2 2957   8.258   0.643   0.880  0.1095  0.4103 -0.0434
  692TIP3    H1 2958   8.290   0.705   0.946  0.2559 -0.0020  0.2776
  692TIP3    H2 2959   8.243   0.562   0.929  4.8395 -1.4898 -1.2552
  693TIP3   OH2 2960   0.876   2.469  10.544  0.2373 -0.2276 -0.5575
  693TIP3    H1 2961   0.967   2.496  10.534  0.4380  0.7131  2.7800
  693TIP3    H2 2962   0.879   2.374  10.555  1.2337  0.0439  2.2960
  694TIP3   OH2 2963   7.760   6.794   6.890  0.2956 -0.8739 -0.0110
  694TIP3    H1 2964   7.788   6.879   6.923 -1.7860  0.3386 -1.2060
  694TIP3    H2 2965   7.809   6.731   6.942  2.3430  1.0337  0.5092
  695TIP3   OH2 2966   7.853   9.757   7.587  0.0442 -0.0947 -0.0978
  695TIP3    H1 2967   7.872   9.740   7.680  1.0150  2.3117  0.2344
  695TIP3    H2 2968   7.900   9.839   7.569 -0.8278 -0.0745 -2.5029
  696TIP3   OH2 2969  10.714   6.302  10.216  0.2230  0.0089  0.6401
  696TIP3    H1 2970  10.772   6.232  10.246  1.1383  0.1134 -0.8022
  696TIP3    H2 2971  10.772   6.375  10.196 -0.6638  1.0095  1.5312
  697TIP3   OH2 2972   2.131   9.922   1.825 -0.0149 -0.2348 -0.5425
  697TIP3    H1 2973   2.183  10.003   1.832 -0.0661  0.0021 -2.5162
  697TIP3    H2 2974   2.191   9.853   1.854  0.7176  0.2806 -0.7961
  698TIP3   OH2 2975   5.021   4.518   8.438 -0.2822 -0.6373  0.4533
  698TIP3    H1 2976   5.037   4.581   8.508 -1.8483 -1.0782  1.2534
  698TIP3    H2 2977   5.101   4.465   8.435  1.0957  1.3482 -0.2691
  699TIP3   OH2 2978  10.039  10.450   1.228 -0.2065  0.0576 -0.1387
  699TIP3    H1 2979  10.025  10.536   1.189 -1.5301  0.7940  1.8330
  699TIP3    H2 2980  10.134  10.444   1.239  0.1166  0.2696 -2.3547
  700TIP3   OH2 2981   1.038   4.389   0.654  0.0378 -0.1438  0.5019
  700TIP3    H1 2982   1.094   4.344   0.592  1.6206  2.2028  0.1040
  700TIP3    H2 2983   1.005   4.466   0.606  0.9979  1.5210  2.3752
  701TIP3   OH2 2984   7.621   3.990   3.018 -0.4399 -0.0859  0.0308
  701TIP3    H1 2985   7.635   4.075   3.060 -0.7193 -0.1950  0.3408
  701TIP3    H2 2986   7.534   3.963   3.046 -0.3603 -0.4671 -0.0855
  702TIP3   OH2 2987   7.075   1.397   0.963 -0.7502  0.3504  0.2388
  702TIP3    H1 2988   7.103   1.486   0.986 -1.3436  0.1913  1.6637
  702TIP3    H2 2989   7.137   1.369   0.896  1.8647  0.4290  2.4536
  703TIP3   OH2 2990   6.555   0.661   6.696  0.2350 -0.7606  0.2587
  703TIP3    H1 2991   6.622   0.722   6.726  0.5525 -0.5952 -0.7299
  703TIP3    H2 2992   6.482   0.717   6.668  0.8103 -0.7431 -1.3485
  704TIP3   OH2 2993   7.865   7.915   2.314 -0.3671  0.4366 -0.3576
  704TIP3    H1 2994   7.960   7.916   2.300 -0.1954  2.4257  0.5514
  704TIP3    H2 2995   7.854   7.947   2.403 -1.8423 -1.7697  0.3195
  705TIP3   OH2 2996   8.440  10.159   5.089  0.8303 -0.5398  0.4892
  705TIP3    H1 2997   8.503  10.093   5.061  1.5396 -0.8089  2.5516
  705TIP3    H2 2998   8.449  10.163   5.184 -2.4288 -0.7465  0.9254
  706TIP3   OH2 2999   1.115   4.799   7.580 -0.0854  0.3936 -0.6271
  706TIP3    H1 3000   1.056   4.840   7.517  0.1606  1.2149 -0.3337
  706TIP3    H2 3001   1.147   4.720   7.536 -2.4621 -0.8464 -0.2992
  707TIP3   OH2 3002  10.738   4.153   0.948 -0.0019  0.2709 -0.0586
  707TIP3    H1 3003  10.715   4.218   0.882 -1.4605 -0.1979 -0.0377
  707TIP3    H2 3004  10.831   4.169   0.966 -0.7252  3.6676  1.4154
  708TIP3   OH2 3005   4.664   6.500   2.712  0.1649  0.0662 -0.0395
  708TIP3    H1 3006   4.576   6.499   2.750  0.9565 -1.4837  1.8898
  708TIP3    H2 3007   4.654   6.458   2.626 -1.1157  0.8277 -0.2934
  709TIP3   OH2 3008   0.773   1.574   2.919  0.0703 -0.2252  0.1429
  709TIP3    H1 3009   0.691   1.550   2.875 -0.6457  0.8521  0.8338
  709TIP3    H2 3010   0.775   1.518   2.997 -0.2423  0.0599  0.3585
  710TIP3   OH2 3011   0.391   9.701   6.261  0.3685  0.2202 -0.7756
  710TIP3    H1 3012   0.404   9.789   6.297  1.5848 -0.4533  0.5448
  710TIP3    H2 3013   0.465   9.689   6.201  1.6741 -0.7567  0.9122
  711TIP3   OH2 3014  10.271   2.616   1.582 -0.4076 -0.0835 -0.6948
  711TIP3    H1 3015  10.279   2.620   1.677  1.6206  1.8068 -0.8757
  711TIP3    H2 3016  10.353   2.577   1.552  0.2226  1.9319 -1.7627
  712TIP3   OH2 3017   5.392   6.736   1.026 -0.2191 -0.0855  0.2366
  712TIP3    H1 3018   5.366   6.654   1.068 -0.9906 -1.0041 -1.8989
  712TIP3    H2 3019   5.352   6.804   1.079 -0.0936 -1.1148  1.6968
  713TIP3   OH2 3020   4.771   1.912   1.683 -0.1776  0.2687  0.2222
  713TIP3    H1 3021   4.851   1.886   1.730 -0.4245 -1.3614 -0.2182
  713TIP3    H2 3022   4.700   1.878   1.737 -0.4996 -0.3749 -0.5906
  714TIP3   OH2 3023   3.958   0.740  10.605 -0.5718 -0.0204  0.4438
  714TIP3    H1 3024   3.977   0.809  10.542  0.6796 -0.9680 -0.2622
  714TIP3    H2 3025   4.038   0.731  10.656 -0.3404 -1.6171 -0.1469
  715TIP3   OH2 3026   9.452   4.771   0.054  0.3965 -0.0041 -0.2351
  715TIP3    H1 3027   9.518   4.767   0.123  0.7224  0.3244 -0.5249
  715TIP3    H2 3028   9.386   4.707   0.080  1.4655 -1.3008 -0.6021
  716TIP3   OH2 3029   9.509   8.048   0.378  0.3411 -0.5177 -0.0875
  716TIP3    H1 3030   9.559   7.983   0.428 -1.7184 -1.4607  0.8720
  716TIP3    H2 3031   9.521   8.129   0.427 -0.3912 -1.1021  1.1301
  717TIP3   OH2 3032   3.114   3.613   4.990  0.2452  0.5343 -0.4555
  717TIP3    H1 3033   3.172   3.589   5.062 -0.2070  0.9669  0.0599
  717TIP3    H2 3034   3.172   3.619   4.914  0.8280  0.6615 -0.0109
  718TIP3   OH2 3035   2.214  10.145   3.767  0.3491  0.1209  0.3730
  718TIP3    H1 3036   2.273  10.125   3.840 -0.1791  1.0457  1.0825
  718TIP3    H2 3037   2.272  10.165   3.694  0.8888 -1.2757  0.3893
  719TIP3   OH2 3038   6.415   6.473   3.576  0.4143  0.3748  0.2720
  719TIP3    H1 3039   6.476   6.400   3.592  0.1541 -0.0540 -0.6672
  719TIP3    H2 3040   6.437   6.504   3.488 -1.0923 -0.1451 -0.3023
  720TIP3   OH2 3041   1.477   0.138   4.147 -0.8768  0.3170 -0.2411
  720TIP3    H1 3042   1.476   0.103   4.236 -0.0610 -0.8075 -0.6541
  720TIP3    H2 3043   1.412   0.086   4.100  0.1199 -0.4655 -0.7813
  721TIP3   OH2 3044   6.608   8.025   1.733  0.1668  0.1730  0.1963
  721TIP3    H1 3045   6.557   8.105   1.717 -2.2220 -0.9447  1.7283
  721TIP3    H2 3046   6.699   8.056   1.737  0.0740  1.9858 -4.7649
  722TIP3   OH2 3047   2.358   5.192   3.524  0.2534 -0.2152 -0.5178
  722TIP3    H1 3048   2.282   5.171   3.579  0.7581 -0.5171  0.0824
  722TIP3    H2 3049   2.432   5.155   3.572  0.8362  0.5135 -0.8523
  723TIP3   OH2 3050   1.116   1.196   2.310 -0.1658 -0.0151 -0.1142
  723TIP3    H1 3051   1.073   1.113   2.330  0.1189 -0.0772  0.2547
  723TIP3    H2 3052   1.155   1.182   2.224 -3.1106  0.9300 -1.7394
  724TIP3   OH2 3053   2.403   9.531   3.432  0.2377 -1.0654 -0.1023
  724TIP3    H1 3054   2.374   9.524   3.523 -0.5890  0.1799 -0.2451
  724TIP3    H2 3055   2.442   9.618   3.426 -1.0187 -0.5656 -1.2799
  725TIP3   OH2 3056   5.589   7.578   6.832 -0.1193  0.2822 -0.1616
  725TIP3    H1 3057   5.533   7.639   6.879 -0.9972 -0.1665 -0.6040
  725TIP3    H2 3058   5.649   7.544   6.898 -1.8672 -0.9849  0.8668
  726TIP3   OH2 3059   6.764   0.621  10.335  0.7824 -0.0508  0.2181
  726TIP3    H1 3060   6.686   0.644  10.386  1.4454  1.0336  0.7952
  726TIP3    H2 3061   6.766   0.685  10.264  0.2135 -1.1608 -0.8308
  727TIP3   OH2 3062   3.447   2.823   4.430 -0.5371 -0.2518  0.0996
  727TIP3    H1 3063   3.447   2.755   4.497 -2.0215 -0.6105 -0.2138
  727TIP3    H2 3064   3.477   2.778   4.350 -0.8090 -0.3564  0.0559
  728TIP3   OH2 3065  10.533   9.129   1.158  0.3321 -0.1259 -0.6319
  728TIP3    H1 3066  10.494   9.084   1.083  0.4276 -0.5403 -0.4383
  728TIP3    H2 3067  10.469   9.197   1.181  0.2828 -0.0236 -1.0593
  729TIP3   OH2 3068   7.869   5.361   5.908  0.1745  0.7509 -0.5311
  729TIP3    H1 3069   7.914   5.413   5.841 -0.8410  2.3968  0.0164
  729TIP3    H2 3070   7.786   5.338   5.868  0.7179 -0.7319 -0.8644
  730TIP3   OH2 3071   1.609   0.745   9.053 -0.0835 -0.4493 -0.1210
  730TIP3    H1 3072   1.568   0.667   9.015  0.3483 -0.7637  0.0502
  730TIP3    H2 3073   1.640   0.795   8.978  0.6666 -1.0134 -0.2020
  731TIP3   OH2 3074   0.095   8.264  10.737 -0.3827  0.3596 -0.3988
  731TIP3    H1 3075   0.151   8.326  10.692 -0.5687  1.0461  0.2977
  731TIP3    H2 3076   0.128   8.178  10.710  2.4505  0.6624  1.6732
  732TIP3   OH2 3077   7.768   8.288   2.049 -0.0295 -0.3348  0.5368
  732TIP3    H1 3078   7.676   8.309   2.066 -0.4586 -1.7084 -0.0042
  732TIP3    H2 3079   7.769   8.194   2.035  0.9560  0.0576 -2.6269
  733TIP3   OH2 3080   7.135   5.095   3.336 -0.5053  0.0347 -0.0014
  733TIP3    H1 3081   7.150   5.157   3.408  1.0247  2.6813 -2.3756
  733TIP3    H2 3082   7.102   5.016   3.379  1.3556  1.0278  3.7111
  734TIP3   OH2 3083   3.195   2.889   4.376 -0.1704  0.2086 -0.2373
  734TIP3    H1 3084   3.281   2.858   4.405  0.0339  0.2407 -0.8060
  734TIP3    H2 3085   3.208   2.915   4.285 -0.7860  0.2032 -0.3305
  735TIP3   OH2 3086   8.846   1.217   4.208 -0.0554 -0.0784  0.2566
  735TIP3    H1 3087   8.864   1.136   4.256  2.7528 -0.1217 -0.7134
  735TIP3    H2 3088   8.861   1.194   4.116  3.0935  1.9722  0.1009
  736TIP3   OH2 3089   2.045   4.065   5.101 -0.5533  0.7651  0.5705
  736TIP3    H1 3090   2.091   3.988   5.069 -1.6973 -0.0864  0.9074
  736TIP3    H2 3091   2.098   4.096   5.174  0.1854  0.6132  0.1129
  737TIP3   OH2 3092   6.955   4.855   7.378 -0.4890 -0.2782  0.3188
  737TIP3    H1 3093   6.939   4.950   7.372  0.3977 -0.1345  0.2017
  737TIP3    H2 3094   6.922   4.821   7.295 -0.9864 -0.0990  0.4379
  738TIP3   OH2 3095   1.174   3.829   6.749 -0.0097 -0.0512  0.0922
  738TIP3    H1 3096   1.134   3.806   6.665  1.3095 -0.0688 -0.5603
  738TIP3    H2 3097   1.268   3.816   6.735  0.2820  0.4976  1.3983
  739TIP3   OH2 3098   4.988   8.000   7.114  0.6043  0.4096 -0.1075
  739TIP3    H1 3099   4.948   7.930   7.166  0.0527  0.5687 -0.3114
  739TIP3    H2 3100   4.950   7.990   7.027  0.2031  1.2017 -0.0408
  740TIP3   OH2 3101   1.960   9.173   3.606 -0.0092  0.2587 -0.0320
  740TIP3    H1 3102   1.995   9.211   3.687  0.0642 -1.2200  0.6576
  740TIP3    H2 3103   2.021   9.103   3.584 -1.1322 -0.7024 -0.2115
  741TIP3   OH2 3104   9.494  10.479   5.495 -0.0702 -0.0922  0.5711
  741TIP3    H1 3105   9.452  10.487   5.581  0.2254  1.4730  0.5977
  741TIP3    H2 3106   9.580  10.441   5.514 -0.0261  0.1974  0.9506
  742TIP3   OH2 3107   5.776   9.974   0.767  0.1434  0.2806  0.3772
  742TIP3    H1 3108   5.864   9.971   0.804  0.4971  1.4129 -0.3090
  742TIP3    H2 3109   5.726  10.028   0.829  0.2734  0.7197  0.0984
  743TIP3   OH2 3110  10.166   8.206   1.776 -0.0827  0.0659 -0.5364
  743TIP3    H1 3111  10.143   8.188   1.685 -3.9078  1.2560  0.0345
  743TIP3    H2 3112  10.144   8.298   1.790  0.3318 -0.0920  1.6244
  744TIP3   OH2 3113   3.695   0.467   5.324 -0.4895  0.8465  0.4976
  744TIP3    H1 3114   3.777   0.503   5.358  1.3851 -0.8287 -2.0204
  744TIP3    H2 3115   3.716   0.378   5.298 -3.0380  0.4678 -0.5288
  745TIP3   OH2 3116   1.835   7.653   4.151 -0.4741  0.0292  0.0139
  745TIP3    H1 3117   1.802   7.565   4.165 -1.7611  0.0940 -2.1095
  745TIP3    H2 3118   1.795   7.706   4.219 -2.9554 -0.3415 -1.0582
  746TIP3   OH2 3119   9.030   4.777   0.218  0.0176 -0.4576  0.0726
  746TIP3    H1 3120   9.021   4.710   0.151  0.6907 -1.2024  0.7156
  746TIP3    H2 3121   8.959   4.839   0.199 -1.2432 -1.8570  0.0632
  747TIP3   OH2 3122   3.660   1.156   7.660  0.0844  0.4859 -0.6324
  747TIP3    H1 3123   3.702   1.242   7.666  1.4714 -0.1497 -0.8516
  747TIP3    H2 3124   3.724   1.096   7.697 -1.4148 -0.3052  0.7827
  748TIP3   OH2 3125   1.085   7.061   1.101 -0.2040  0.2431 -0.9962
  748TIP3    H1 3126   1.062   7.051   1.008 -0.2410 -2.4978 -0.7634
  748TIP3    H2 3127   1.005   7.039   1.148  1.0328 -3.3760 -0.3010
  749TIP3   OH2 3128   4.424   2.676   4.670  0.2465  0.0083  0.3221
  749TIP3    H1 3129   4.510   2.640   4.649  0.4871 -0.8765  2.5070
  749TIP3    H2 3130   4.422   2.761   4.627  1.3651 -0.8186 -1.4814
  750TIP3   OH2 3131   1.249   9.500   7.131 -0.4661  0.3320  0.5847
  750TIP3    H1 3132   1.262   9.593   7.112 -1.7473  0.2292 -1.0689
  750TIP3    H2 3133   1.338   9.466   7.147  0.0234  1.8011  1.1564
  751TIP3   OH2 3134   3.555   1.106   0.362  0.2592  0.0389  0.3849
  751TIP3    H1 3135   3.465   1.077   0.347  0.3336 -0.3031  0.6135
  751TIP3    H2 3136   3.558   1.129   0.455  0.3716  0.1800  0.3469
  752TIP3   OH2 3137   3.665   5.458   1.434  0.8152 -1.1871  0.1180
  752TIP3    H1 3138   3.724   5.475   1.360  1.6229 -0.7276  0.8444
  752TIP3    H2 3139   3.677   5.365   1.453  1.1118 -1.1562  0.0882
  753TIP3   OH2 3140   1.232   4.829   0.649 -0.3832  0.3163 -0.3415
  753TIP3    H1 3141   1.214   4.780   0.569  1.0702 -0.5383 -0.1920
  753TIP3    H2 3142   1.235   4.920   0.621 -2.6477  0.3299 -0.7145
  754TIP3   OH2 3143  10.720   0.996   1.242 -0.0599  0.1068 -0.5735
  754TIP3    H1 3144  10.753   1.027   1.326  0.1929  1.1675 -1.0466
  754TIP3    H2 3145  10.795   1.006   1.183 -0.7451  1.0339 -1.3072
  755TIP3   OH2 3146   0.066   7.480  10.608  0.4466 -0.0336 -0.4746
  755TIP3    H1 3147  -0.023   7.502  10.638 -0.6480 -2.5866 -1.5003
  755TIP3    H2 3148   0.106   7.438  10.684  0.2249 -0.1877 -0.4386
  756TIP3   OH2 3149   7.537   8.294   8.930  0.5592  0.1526 -0.2749
  756TIP3    H1 3150   7.583   8.224   8.883 -1.8267 -2.0308  0.4274
  756TIP3    H2 3151   7.461   8.314   8.876  1.1022  2.1627 -0.3669
  757TIP3   OH2 3152   4.793   2.561   7.770 -0.0036 -0.1570 -0.2081
  757TIP3    H1 3153   4.721   2.528   7.824 -0.2408 -0.3307 -0.6309
  757TIP3    H2 3154   4.870   2.512   7.799 -0.5388 -1.8707 -1.5623
  758TIP3   OH2 3155   8.323   4.548   9.449 -0.7716 -0.4313  0.4850
  758TIP3    H1 3156   8.255   4.505   9.502 -0.2544 -0.6728  0.9584
  758TIP3    H2 3157   8.394   4.484   9.445 -0.5757 -0.1826 -0.0245
  759TIP3   OH2 3158   2.645   0.860   9.079  0.8480 -0.6283 -0.5860
  759TIP3    H1 3159   2.641   0.768   9.053  1.4463 -0.4137 -1.4903
  759TIP3    H2 3160   2.737   0.875   9.102  1.2249  0.2233 -2.4268
  760TIP3   OH2 3161   6.383   4.359   1.694  0.7924  0.6146 -0.1922
  760TIP3    H1 3162   6.444   4.334   1.624 -1.0360 -1.1207 -1.2714
  760TIP3    H2 3163   6.298   4.360   1.651 -0.5198 -1.3345  2.1688
  761TIP3   OH2 3164   9.141   9.218   5.767  0.5705 -0.0253 -0.3325
  761TIP3    H1 3165   9.050   9.236   5.746  0.0317 -0.6898  1.2852
  761TIP3    H2 3166   9.191   9.287   5.722 -0.6795  0.1611 -1.4869
  762TIP3   OH2 3167   7.900   1.344   7.683 -0.5189  0.2698 -0.2880
  762TIP3    H1 3168   7.851   1.270   7.719 -1.8661  1.8180  1.2518
  762TIP3    H2 3169   7.906   1.407   7.756  1.5539  1.2323 -1.2019
  763TIP3   OH2 3170   7.575   6.073  10.630  0.0258 -0.0303 -0.1680
  763TIP3    H1 3171   7.513   6.045  10.696 -0.8322  0.0402 -0.9316
  763TIP3    H2 3172   7.656   6.026  10.652 -1.0019 -2.1407 -0.6521
  764TIP3   OH2 3173   1.597   6.464   2.253 -0.5196  0.0703  0.2953
  764TIP3    H1 3174   1.681   6.493   2.289  0.6041  1.1405 -2.8232
  764TIP3    H2 3175   1.615   6.379   2.214 -0.5064  0.7629 -1.3195
  765TIP3   OH2 3176   9.006   3.292   1.575  0.0060 -0.4605  0.6253
  765TIP3    H1 3177   8.958   3.367   1.611  0.9057  1.1164 -1.2712
  765TIP3    H2 3178   9.088   3.291   1.623 -0.0994 -0.3632  0.8080
  766TIP3   OH2 3179   0.474   0.245   2.863  0.1410  0.0898 -0.0064
  766TIP3    H1 3180   0.425   0.255   2.781  0.3749  1.0842 -0.0398
  766TIP3    H2 3181   0.407   0.232   2.930 -0.0520 -0.7724 -0.3473
  767TIP3   OH2 3182   9.588   8.121   7.861 -0.2965 -0.0301 -0.1003
  767TIP3    H1 3183   9.599   8.030   7.833  0.7837  0.7816 -2.5633
  767TIP3    H2 3184   9.493   8.136   7.856 -0.5281 -1.0954  0.7019
  768TIP3   OH2 3185   5.808   8.613   7.782 -0.0924 -0.1239  0.4661
  768TIP3    H1 3186   5.719   8.585   7.760 -0.0162 -0.0828  0.0975
  768TIP3    H2 3187   5.797   8.671   7.858 -0.4681  0.5847 -0.1225
  769TIP3   OH2 3188   6.167   7.565   2.930  0.3232  0.0624  0.1178
  769TIP3    H1 3189   6.214   7.515   2.997  0.0294  1.0428  1.0792
  769TIP3    H2 3190   6.075   7.542   2.945  0.1922  0.8303  0.5282
  770TIP3   OH2 3191   6.743   6.216   6.206  0.0821  0.0773 -0.0721
  770TIP3    H1 3192   6.821   6.208   6.152  0.5662 -0.7829  0.7316
  770TIP3    H2 3193   6.694   6.288   6.166  1.0661  0.3435 -0.8439
  771TIP3   OH2 3194   0.291   3.063   3.420 -0.4972 -0.2375 -0.2345
  771TIP3    H1 3195   0.279   3.147   3.374  1.4702 -0.9847 -2.2711
  771TIP3    H2 3196   0.370   3.075   3.472 -1.0402 -0.3730  0.6317
  772TIP3   OH2 3197   2.362   6.483   7.082  0.2330 -1.2776 -0.4523
  772TIP3    H1 3198   2.379   6.540   7.007  2.9802 -1.3863 -0.0328
  772TIP3    H2 3199   2.394   6.397   7.053 -0.1739 -1.6837  0.2919
  773TIP3   OH2 3200   7.401   1.270   8.237  0.2245 -0.4056  0.6594
  773TIP3    H1 3201   7.328   1.299   8.293  1.2203  3.2342  0.3350
  773TIP3    H2 3202   7.474   1.256   8.298  0.0208 -1.3794  0.7014
  774TIP3   OH2 3203   6.257   1.539   2.163  0.4430 -0.2512  0.2184
  774TIP3    H1 3204   6.234   1.584   2.244 -1.1880 -1.2422  0.3362
  774TIP3    H2 3205   6.290   1.454   2.191  0.6745 -0.2797 -0.1325
  775TIP3   OH2 3206   0.798   0.478   6.169  0.8530 -0.2788  0.0657
  775TIP3    H1 3207   0.710   0.488   6.132  0.3763 -0.4771  1.1318
  775TIP3    H2 3208   0.785   0.472   6.263  1.9899 -0.6119  0.2209
  776TIP3   OH2 3209   7.041   6.400   3.120  0.3616 -0.4542 -0.2317
  776TIP3    H1 3210   7.082   6.487   3.125  1.0870 -0.4828 -3.3369
  776TIP3    H2 3211   7.097   6.345   3.175  1.3276  0.5825 -0.1236
  777TIP3   OH2 3212   9.811   4.199   2.573 -0.3608 -0.2651 -0.4081
  777TIP3    H1 3213   9.779   4.267   2.633 -0.7441 -0.9145  0.1425
  777TIP3    H2 3214   9.803   4.238   2.486 -0.3201  0.4920 -0.0782
  778TIP3   OH2 3215   0.715   1.710   3.312  0.5892  0.1002 -0.3938
  778TIP3    H1 3216   0.669   1.732   3.231  0.5484  0.6397 -0.2267
  778TIP3    H2 3217   0.718   1.614   3.312 -0.1188  0.0710 -0.6407
  779TIP3   OH2 3218   5.597  10.281  10.609 -1.0077  0.2626 -0.3048
  779TIP3    H1 3219   5.647  10.253  10.532 -0.0339  0.6011  0.1871
  779TIP3    H2 3220   5.515  10.232  10.603 -1.0679  0.5057 -1.7080
  780TIP3   OH2 3221   4.810   3.547   5.525  0.0763  0.7477  0.0602
  780TIP3    H1 3222   4.721   3.556   5.491 -0.6396  0.1263  1.6682
  780TIP3    H2 3223   4.803   3.571   5.618  1.0470 -1.6784  0.8393
  781TIP3   OH2 3224   9.690   0.585   1.360  0.1700 -0.3697 -0.0781
  781TIP3    H1 3225   9.614   0.605   1.305 -2.7375 -2.6210  2.7385
  781TIP3    H2 3226   9.734   0.669   1.372 -1.9592  1.1016 -1.6932
  782TIP3   OH2 3227   9.665   8.934   4.471 -0.4562  0.2533  0.5844
  782TIP3    H1 3228   9.583   8.940   4.421 -1.0573  0.6604  1.6007
  782TIP3    H2 3229   9.720   9.003   4.434 -0.7919  0.3805  0.3128
  783TIP3   OH2 3230   4.812   4.929  10.907  0.2326 -0.1286 -0.0610
  783TIP3    H1 3231   4.902   4.951  10.932  0.2673  0.6854 -0.8236
  783TIP3    H2 3232   4.794   4.987  10.832 -1.9949  1.9422  1.9274
  784TIP3   OH2 3233   7.145   1.927   8.204  0.2137 -0.1193  0.4581
  784TIP3    H1 3234   7.200   2.001   8.231  0.0557  0.7619 -1.4270
  784TIP3    H2 3235   7.074   1.925   8.268  0.5416  1.0118  0.8835
  785TIP3   OH2 3236   3.090   2.005   9.874  0.2883  0.2480  0.1269
  785TIP3    H1 3237   3.063   1.913   9.867  1.2643 -0.1393  1.1569
  785TIP3    H2 3238   3.162   2.004   9.937 -1.1144  2.0041  1.8520
  786TIP3   OH2 3239   2.906   8.921   0.133 -0.9144 -0.4648 -0.8001
  786TIP3    H1 3240   2.879   9.005   0.171  0.0248 -0.4303 -0.1798
  786TIP3    H2 3241   2.861   8.855   0.186 -0.2429 -0.3899 -0.1055
  787TIP3   OH2 3242   7.693  10.300   1.726 -0.3162 -0.3011  0.1856
  787TIP3    H1 3243   7.772  10.257   1.694 -1.0931 -1.8327  0.2009
  787TIP3    H2 3244   7.668  10.250   1.803  0.0953  1.7623  1.7283
  788TIP3   OH2 3245  10.773   6.556   3.301  0.3805  0.4971 -0.2651
  788TIP3    H1 3246  10.794   6.465   3.283  2.7431  0.8316  0.5002
  788TIP3    H2 3247  10.702   6.552   3.366  2.0793 -0.8749  1.6170
  789TIP3   OH2 3248   9.311   2.067   0.817  0.1637 -0.4846 -0.0331
  789TIP3    H1 3249   9.354   2.122   0.882 -1.1605  1.9551 -1.0780
  789TIP3    H2 3250   9.355   2.088   0.735 -1.3229  0.1783 -0.6984
  790TIP3   OH2 3251   3.172   0.362   7.203 -0.5579  0.6803 -0.6265
  790TIP3    H1 3252   3.141   0.353   7.293  0.0781  1.2387 -0.3437
  790TIP3    H2 3253   3.136   0.446   7.175  1.8506  2.0946  0.2154
  791TIP3   OH2 3254   7.746   4.173   0.910  0.0055 -0.2693  0.2739
  791TIP3    H1 3255   7.727   4.266   0.924  0.5447 -0.2041  0.6040
  791TIP3    H2 3256   7.729   4.133   0.995  2.7468  0.0334  1.0586
  792TIP3   OH2 3257   9.500   2.017   3.953 -0.2911  0.3158  0.2465
  792TIP3    H1 3258   9.551   2.089   3.990  0.8991 -0.5987  0.4216
  792TIP3    H2 3259   9.414   2.056   3.934  0.3620  1.8028  0.2197
  793TIP3   OH2 3260   6.970   1.616   7.290  0.6497 -0.9313  0.5292
  793TIP3    H1 3261   6.911   1.661   7.230  1.9023  0.9406  0.6335
  793TIP3    H2 3262   6.965   1.524   7.263 -0.0412 -0.3870 -1.3941
  794TIP3   OH2 3263   8.154   0.372   8.206 -0.0913 -0.0614 -0.4670
  794TIP3    H1 3264   8.129   0.463   8.221 -0.2262  0.0891 -1.4898
  794TIP3    H2 3265   8.173   0.337   8.293 -0.2063  0.8924 -0.0461
  795TIP3   OH2 3266   5.068   5.556  10.177 -0.2581 -0.7388 -0.1960
  795TIP3    H1 3267   5.006   5.610  10.227 -1.1688 -1.7706 -0.1448
  795TIP3    H2 3268   5.151   5.603  10.182 -1.0996  0.8553 -0.5161
  796TIP3   OH2 3269   1.838   4.844   7.727  0.3348 -0.0680  0.4253
  796TIP3    H1 3270   1.859   4.791   7.804 -0.8775 -0.9758  0.1597
  796TIP3    H2 3271   1.848   4.934   7.757 -0.5021 -0.3876  1.7930
  797TIP3   OH2 3272   7.089   6.812   4.296  0.4282  0.1059 -0.3853
  797TIP3    H1 3273   7.011   6.775   4.255 -0.3035  1.4729 -0.2893
  797TIP3    H2 3274   7.108   6.754   4.369 -0.8283  0.0495 -0.0831
  798TIP3   OH2 3275   3.016   9.950   2.835  0.2992 -0.0610 -0.1760
  798TIP3    H1 3276   2.974   9.884   2.780 -1.8014  1.3452 -0.3249
  798TIP3    H2 3277   3.053   9.899   2.908 -1.4231 -1.4003 -0.1825
  799TIP3   OH2 3278   0.467   4.932   5.190 -0.3544 -1.0676  0.6683
  799TIP3    H1 3279   0.444   4.845   5.156  1.5057 -1.6247  0.6904
  799TIP3    H2 3280   0.543   4.958   5.137 -1.6103  1.1291 -0.1868
  800TIP3   OH2 3281   7.114  10.149   2.064 -0.1973  0.1249 -0.1517
  800TIP3    H1 3282   7.067  10.078   2.109 -1.7334  0.4166 -1.2154
  800TIP3    H2 3283   7.080  10.148   1.975  0.1369  1.8478 -0.3408
  801TIP3   OH2 3284  10.046   0.535   6.247 -0.0263  0.8344 -0.2750
  801TIP3    H1 3285   9.996   0.454   6.239 -1.8612  1.9132 -0.5269
  801TIP3    H2 3286  10.054   0.567   6.157  0.4737  1.0386 -0.1560
  802TIP3   OH2 3287   8.554   7.546   5.152  0.8700 -0.0728 -0.3660
  802TIP3    H1 3288   8.647   7.535   5.173  0.8050 -2.8840 -1.1428
  802TIP3    H2 3289   8.549   7.534   5.057 -0.1840  1.0659 -0.4770
  803TIP3   OH2 3290  10.380   3.440   9.870 -0.1146  0.2476 -0.0917
  803TIP3    H1 3291  10.301   3.459   9.922  0.8707  1.2056  1.1141
  803TIP3    H2 3292  10.451   3.479   9.920  0.8813  1.3699 -2.2791
  804TIP3   OH2 3293   1.409  10.137   4.481 -0.4031  0.8672  0.2242
  804TIP3    H1 3294   1.489  10.094   4.511 -0.1826  0.9429 -0.2412
  804TIP3    H2 3295   1.341  10.105   4.540 -0.0787  0.5878  0.4516
  805TIP3   OH2 3296   4.165   9.773   4.653 -0.1501  0.5811 -0.1236
  805TIP3    H1 3297   4.075   9.756   4.626  0.3222  0.6921 -1.8626
  805TIP3    H2 3298   4.215   9.775   4.571  1.7910 -1.4986  0.9046
  806TIP3   OH2 3299   5.422   8.053  10.476  0.0922 -0.0127 -0.5383
  806TIP3    H1 3300   5.329   8.031  10.473  0.1843 -0.3444 -1.3495
  806TIP3    H2 3301   5.432   8.122  10.410  0.1384  1.1805  0.6892
  807TIP3   OH2 3302   3.856   6.828   9.761 -0.0922  0.8825  0.0031
  807TIP3    H1 3303   3.915   6.760   9.730  0.2494  1.2994 -0.2773
  807TIP3    H2 3304   3.882   6.842   9.852  1.0479  1.8886 -0.4569
  808TIP3   OH2 3305   3.083   9.464   1.911 -0.0737 -0.0494  0.4167
  808TIP3    H1 3306   3.171   9.452   1.877  0.0823 -0.0917  0.8312
  808TIP3    H2 3307   3.074   9.398   1.980  0.0176  0.7596  1.2246
  809TIP3   OH2 3308   5.096   2.854   7.110 -0.3764 -0.1330  0.4490
  809TIP3    H1 3309   5.081   2.836   7.203  1.1367 -2.6937  0.2946
  809TIP3    H2 3310   5.032   2.800   7.064 -0.0633 -0.1296 -0.0062
  810TIP3   OH2 3311   6.012   2.914   4.810  0.0485  0.4664 -0.0218
  810TIP3    H1 3312   6.077   2.848   4.786 -0.0021  0.5976 -0.5360
  810TIP3    H2 3313   5.971   2.937   4.727  0.2111  1.3030  0.1273
  811TIP3   OH2 3314   8.727   2.216   7.228 -0.1538 -0.1068  0.9623
  811TIP3    H1 3315   8.671   2.294   7.224  0.3101  0.1794 -1.2727
  811TIP3    H2 3316   8.798   2.241   7.286 -0.1307  1.0771  0.4656
  812TIP3   OH2 3317   8.329   2.403   5.524 -0.2803 -0.3194 -0.1216
  812TIP3    H1 3318   8.423   2.403   5.509  0.0164 -1.8273  1.4648
  812TIP3    H2 3319   8.290   2.383   5.438  0.7174  1.6306 -1.0988
  813TIP3   OH2 3320  10.222   3.683   2.782  1.0236 -0.5543  0.0593
  813TIP3    H1 3321  10.138   3.675   2.827  0.4556  0.9564 -0.6290
  813TIP3    H2 3322  10.286   3.654   2.846 -0.1259 -3.9024 -0.1375
  814TIP3   OH2 3323   9.055   1.814   8.383  0.0985  0.0790 -0.2400
  814TIP3    H1 3324   9.017   1.842   8.466  0.8116 -0.5489  0.3160
  814TIP3    H2 3325   9.118   1.746   8.408 -0.3284 -0.7523 -1.3849
  815TIP3   OH2 3326   8.556   1.953   6.470 -0.0930  0.0285  0.0107
  815TIP3    H1 3327   8.584   2.041   6.444  0.5853 -0.2669 -0.2865
  815TIP3    H2 3328   8.572   1.899   6.392  0.4890 -0.5577  0.5197
  816TIP3   OH2 3329   9.512   0.426   8.912 -0.1963 -0.1345  0.3333
  816TIP3    H1 3330   9.516   0.519   8.937  1.1547 -0.3475  0.9912
  816TIP3    H2 3331   9.505   0.379   8.995 -1.0183 -0.6425 -0.0029
  817TIP3   OH2 3332   0.085   6.286   6.287 -0.2225 -0.2080  0.0202
  817TIP3    H1 3333   0.056   6.371   6.320  1.4898 -0.0145  1.1669
  817TIP3    H2 3334   0.073   6.226   6.360 -1.5398 -1.0268 -0.8221
  818TIP3   OH2 3335   8.191   0.655   7.260  0.0909 -0.1720  0.6323
  818TIP3    H1 3336   8.176   0.582   7.200  1.2190 -0.4954  0.7173
  818TIP3    H2 3337   8.134   0.637   7.334 -0.6635 -0.2331  0.0483
  819TIP3   OH2 3338   6.178   3.904   8.967  0.0421  0.2421  0.3580
  819TIP3    H1 3339   6.166   3.968   9.037  0.3700 -0.0945  0.7252
  819TIP3    H2 3340   6.265   3.923   8.932  0.1428 -0.0076  0.4725
  820TIP3   OH2 3341   4.809   7.410   5.908 -0.3043  0.7979 -0.1927
  820TIP3    H1 3342   4.757   7.490   5.919 -1.1029  0.1569  0.8488
  820TIP3    H2 3343   4.805   7.367   5.993  0.0700 -0.3847 -0.7527
  821TIP3   OH2 3344   7.678   4.592   8.355 -0.1638 -0.3027 -0.3513
  821TIP3    H1 3345   7.628   4.666   8.320  1.3065  0.5008 -0.8326
  821TIP3    H2 3346   7.748   4.579   8.292  1.8719  0.4032  1.6212
  822TIP3   OH2 3347   1.718   3.069   0.105  0.1291 -0.0500  0.6515
  822TIP3    H1 3348   1.674   3.129   0.045  0.3844  0.4585  0.9680
  822TIP3    H2 3349   1.682   3.090   0.191 -1.5638 -1.9802  0.4782
  823TIP3   OH2 3350   8.003   3.207  10.905 -0.0854  0.6730  0.0482
  823TIP3    H1 3351   7.965   3.288  10.871  0.0126  0.1554 -1.3584
  823TIP3    H2 3352   8.050   3.169  10.831 -1.2770 -1.3720  0.2243
  824TIP3   OH2 3353   4.740   2.018   0.411 -0.3083  0.7143  0.1602
  824TIP3    H1 3354   4.702   2.044   0.328  0.2572 -0.9157 -0.6455
  824TIP3    H2 3355   4.671   1.970   0.456 -0.7693  1.9967  0.8732
  825TIP3   OH2 3356   2.327   0.631   5.440 -0.2229 -0.3233  0.1573
  825TIP3    H1 3357   2.412   0.671   5.424 -1.0210  1.9580  1.1167
  825TIP3    H2 3358   2.344   0.564   5.506  0.5305  1.9852  2.4952
  826TIP3   OH2 3359   6.371   9.791   5.818 -0.0607 -0.0780  0.5252
  826TIP3    H1 3360   6.324   9.748   5.889 -0.3702 -1.7140 -0.6073
  826TIP3    H2 3361   6.307   9.799   5.748  0.5405  0.4064  0.0166
  827TIP3   OH2 3362   1.951   8.872   1.278  0.2460 -0.8491 -0.4681
  827TIP3    H1 3363   2.023   8.833   1.328 -1.0019 -2.2136  0.3085
  827TIP3    H2 3364   1.887   8.897   1.344 -1.2480 -2.2958 -1.3122
  828TIP3   OH2 3365   9.203   3.078   7.254 -0.1656 -0.4951  0.3702
  828TIP3    H1 3366   9.287   3.074   7.208 -1.3567 -1.1926 -1.9463
  828TIP3    H2 3367   9.221   3.043   7.341  2.1338  0.3738  0.3126
  829TIP3   OH2 3368   8.928   0.257  10.389 -0.0348  0.0069  0.3913
  829TIP3    H1 3369   8.835   0.240  10.377 -0.3601  0.8364  1.5220
  829TIP3    H2 3370   8.950   0.319  10.320  0.0924 -1.4173 -0.9005
  830TIP3   OH2 3371   2.649   1.285   7.092 -0.3990 -0.1027  0.0416
  830TIP3    H1 3372   2.604   1.327   7.018  0.4300  0.2627 -0.2663
  830TIP3    H2 3373   2.600   1.204   7.106 -2.7510  1.4324  1.3663
  831TIP3   OH2 3374   4.392   8.021  10.038  0.1827 -1.0032  0.2296
  831TIP3    H1 3375   4.334   8.000  10.111 -0.2982 -1.5150 -0.2807
  831TIP3    H2 3376   4.370   7.956   9.971 -0.5539  0.4238 -0.9996
  832TIP3   OH2 3377   6.562   5.948   7.269  0.1698 -0.9271  0.0764
  832TIP3    H1 3378   6.606   5.867   7.245 -0.3780 -0.9225 -0.9936
  832TIP3    H2 3379   6.581   6.008   7.197  1.6268  0.3380  1.4365
  833TIP3   OH2 3380   6.871   8.938   7.921 -0.2505  0.0063  0.5086
  833TIP3    H1 3381   6.949   8.946   7.976  0.3255  1.5270 -0.4941
  833TIP3    H2 3382   6.808   8.998   7.960 -0.8817 -1.0795  1.2033
  834TIP3   OH2 3383   6.700   0.564   8.351 -0.4385 -0.2935  0.1246
  834TIP3    H1 3384   6.723   0.645   8.306  0.1405  0.9287  2.4384
  834TIP3    H2 3385   6.610   0.546   8.323 -1.6068  2.6826  1.5016
  835TIP3   OH2 3386   5.662   7.843   5.108 -0.0279  0.6419 -0.1094
  835TIP3    H1 3387   5.755   7.830   5.127 -0.3153 -0.5559  0.5812
  835TIP3    H2 3388   5.637   7.919   5.161  0.7178  1.4561 -0.8977
  836TIP3   OH2 3389   5.233   1.626   8.947  0.1781 -0.1193  0.0616
  836TIP3    H1 3390   5.259   1.601   9.035 -0.3311 -3.2630 -0.5539
  836TIP3    H2 3391   5.146   1.586   8.936 -0.4277  1.4680 -1.3789
  837TIP3   OH2 3392   4.853   1.131   5.375 -0.4298  0.4911  0.6562
  837TIP3    H1 3393   4.811   1.164   5.296 -1.1109  0.3031  0.9377
  837TIP3    H2 3394   4.919   1.069   5.343  0.1467  1.3241  0.1848
  838TIP3   OH2 3395   1.310   9.229   9.663  0.4913 -0.4488 -0.1607
  838TIP3    H1 3396   1.379   9.163   9.667  2.0973  1.0903 -0.8434
  838TIP3    H2 3397   1.289   9.235   9.570 -0.4057 -0.7169  0.0154
  839TIP3   OH2 3398   6.695   0.220   1.470  0.2258  0.0868 -0.4151
  839TIP3    H1 3399   6.655   0.210   1.383 -0.3305  0.4089 -0.2066
  839TIP3    H2 3400   6.775   0.168   1.466  0.0596 -0.1351 -1.0273
  840TIP3   OH2 3401   6.769   0.587   3.360 -0.6219 -0.5664 -0.4697
  840TIP3    H1 3402   6.725   0.537   3.292  0.7067 -2.4002 -0.0447
  840TIP3    H2 3403   6.756   0.536   3.440 -0.8308  0.7533  0.3713
  841TIP3   OH2 3404   3.644   4.126   8.951 -0.2050  0.3985  0.0086
  841TIP3    H1 3405   3.663   4.140   9.044  0.5551  0.3896 -0.1430
  841TIP3    H2 3406   3.656   4.032   8.938 -0.6343  0.3476 -0.0296
  842TIP3   OH2 3407   6.516   1.266  10.265 -0.1890  0.6317  0.1590
  842TIP3    H1 3408   6.468   1.349  10.259 -0.6384  0.3205 -0.7907
  842TIP3    H2 3409   6.452   1.201  10.236 -0.0716 -0.1457  1.5801
  843TIP3   OH2 3410  10.156   6.662   1.893 -0.3707  0.0125 -0.0464
  843TIP3    H1 3411  10.218   6.730   1.920 -0.7758  0.7565 -0.9450
  843TIP3    H2 3412  10.211   6.590   1.864  0.1169  0.8774 -1.3738
  844TIP3   OH2 3413   7.269   0.290   5.636 -0.2230  0.0436  0.3788
  844TIP3    H1 3414   7.231   0.366   5.680 -0.9378  0.2974 -0.6556
  844TIP3    H2 3415   7.217   0.279   5.557 -0.1616 -1.5492  0.5178
  845TIP3   OH2 3416   8.043   8.322   6.983  0.0784  0.9032 -0.3920
  845TIP3    H1 3417   7.989   8.246   7.005 -0.0407  1.2540  0.5782
  845TIP3    H2 3418   8.129   8.300   7.017  0.1509  1.0278 -0.4957
  846TIP3   OH2 3419  10.536   2.186   4.481 -0.2497 -0.5173  0.5032
  846TIP3    H1 3420  10.608   2.126   4.503  0.4998  0.4040  0.5957
  846TIP3    H2 3421  10.470   2.170   4.549  0.2151 -0.7738  0.9011
  847TIP3   OH2 3422   0.541   8.332   7.818  0.3607 -0.3809  0.4770
  847TIP3    H1 3423   0.620   8.388   7.820 -0.1157  0.4413 -1.4219
  847TIP3    H2 3424   0.547   8.286   7.735 -0.7056 -1.0470  0.7557
  848TIP3   OH2 3425   1.514   6.847  10.124  0.2524  0.1020  0.0908
  848TIP3    H1 3426   1.493   6.815  10.037  1.8646 -1.3822  0.1935
  848TIP3    H2 3427   1.476   6.783  10.184  0.6625  0.1478  0.4109
  849TIP3   OH2 3428   3.129   9.053   1.093 -0.2892  0.1037 -0.4425
  849TIP3    H1 3429   3.066   8.985   1.072 -0.4347  1.0101 -3.3683
  849TIP3    H2 3430   3.147   9.096   1.009  3.2164  0.7520  0.4973
  850TIP3   OH2 3431   6.524   5.220   3.816 -0.0948 -0.3022  0.0540
  850TIP3    H1 3432   6.494   5.182   3.899 -0.6331 -1.3313 -0.5882
  850TIP3    H2 3433   6.452   5.278   3.790 -0.0484 -0.1919  0.1718
  851TIP3   OH2 3434  10.040   7.799   5.257 -0.2794  0.0467  0.4035
  851TIP3    H1 3435   9.970   7.763   5.203  1.6506  0.2014 -2.4322
  851TIP3    H2 3436  10.006   7.883   5.288 -1.4423 -0.0059 -0.6664
  852TIP3   OH2 3437   5.563   7.370  10.542  0.0900 -0.4614 -0.1940
  852TIP3    H1 3438   5.614   7.290  10.528  1.0599  0.2975 -1.2142
  852TIP3    H2 3439   5.540   7.399  10.453 -1.1284 -0.1539  0.2087
  853TIP3   OH2 3440   8.119   9.930   0.326 -0.1273 -0.9269 -0.3767
  853TIP3    H1 3441   8.136   9.959   0.236  1.0113  0.5301  0.2659
  853TIP3    H2 3442   8.093  10.010   0.372  1.3704 -1.2189  1.0623
  854TIP3   OH2 3443   3.925   2.878   3.370 -0.5451  0.3356 -0.2210
  854TIP3    H1 3444   3.989   2.945   3.394  0.7532 -0.2567 -1.8057
  854TIP3    H2 3445   3.855   2.926   3.326 -0.1045  0.7787 -0.4514
  855TIP3   OH2 3446   8.692   2.861   2.751 -0.0831 -0.3379 -0.0328
  855TIP3    H1 3447   8.707   2.819   2.836  1.8657  2.1332  0.9537
  855TIP3    H2 3448   8.597   2.869   2.745 -0.2522 -0.3005  2.0548
  856TIP3   OH2 3449   1.357   8.165   2.850 -0.0678  0.4859 -0.6944
  856TIP3    H1 3450   1.379   8.133   2.763 -0.1790 -0.2322 -0.4668
  856TIP3    H2 3451   1.298   8.239   2.835 -0.0576  0.3894 -1.2259
  857TIP3   OH2 3452   0.254   7.755   8.824 -0.4429 -0.2133 -0.5903
  857TIP3    H1 3453   0.347   7.737   8.809  0.0994  1.0524  0.9492
  857TIP3    H2 3454   0.211   7.730   8.742  1.2201 -1.0123 -1.2669
  858TIP3   OH2 3455   4.854   0.010  10.261 -0.3801  0.6785 -0.1846
  858TIP3    H1 3456   4.916  -0.017  10.193 -0.5940 -1.8577  0.5202
  858TIP3    H2 3457   4.909   0.037  10.334 -0.1491  1.2857 -0.5708
  859TIP3   OH2 3458   6.250   0.285   2.682  0.0379 -0.0531 -0.0411
  859TIP3    H1 3459   6.315   0.353   2.666  1.4221 -1.6901 -1.8305
  859TIP3    H2 3460   6.174   0.332   2.716  1.1953  2.2737 -0.4741
  860TIP3   OH2 3461   5.638  10.596   4.826 -0.3216 -1.0849  0.0186
  860TIP3    H1 3462   5.720  10.614   4.871 -0.7429 -3.1491  1.7801
  860TIP3    H2 3463   5.573  10.649   4.871 -0.2879 -0.9481 -0.0913
  861TIP3   OH2 3464   9.669   9.314   4.654 -0.1514  0.2902 -0.1234
  861TIP3    H1 3465   9.647   9.376   4.724 -0.0990 -0.7447  0.8390
  861TIP3    H2 3466   9.678   9.230   4.699  0.6868 -0.2515 -1.2729
  862TIP3   OH2 3467   7.513   1.966   0.349 -0.2737 -0.7384  0.4837
  862TIP3    H1 3468   7.518   2.062   0.355 -1.4604 -0.6130 -0.2077
  862TIP3    H2 3469   7.489   1.950   0.258 -1.7838 -1.6213  1.0125
  863TIP3   OH2 3470   0.579   1.808   7.553  0.0926  0.1138  0.1573
  863TIP3    H1 3471   0.602   1.731   7.605 -0.7537  0.6560  1.3796
  863TIP3    H2 3472   0.644   1.874   7.577  0.6489 -0.1052 -0.6821
  864TIP3   OH2 3473   2.521   4.715   7.206  0.3179  0.1825  0.0903
  864TIP3    H1 3474   2.449   4.652   7.207  0.6151 -0.1881 -1.1273
  864TIP3    H2 3475   2.575   4.691   7.281  0.6961 -1.3318 -0.6466
  865TIP3   OH2 3476   9.038  10.105   6.603  0.2170  0.4473 -0.2795
  865TIP3    H1 3477   9.124  10.110   6.562  0.9672  2.0785  1.3463
  865TIP3    H2 3478   8.987  10.173   6.560  0.0387  0.1098 -0.6012
  866TIP3   OH2 3479   9.351   1.592  10.063 -0.2150 -0.0041  0.1094
  866TIP3    H1 3480   9.416   1.564   9.999  0.4774  1.0219  0.3405
  866TIP3    H2 3481   9.400   1.641  10.129 -0.9526 -0.8433  1.3237
  867TIP3   OH2 3482   8.787   2.782   3.803 -0.0565  0.0345 -0.1006
  867TIP3    H1 3483   8.858   2.738   3.849 -0.7260  0.2506  1.2128
  867TIP3    H2 3484   8.734   2.820   3.873 -1.3117  0.1083 -1.0501
  868TIP3   OH2 3485   3.625   1.181   5.737  0.2648 -0.5649  0.0368
  868TIP3    H1 3486   3.547   1.237   5.745  0.9239  0.1923  1.5397
  868TIP3    H2 3487   3.692   1.226   5.788  0.9165 -2.5753  1.0423
  869TIP3   OH2 3488   0.482   2.153   7.372 -0.1694 -0.2028  0.2376
  869TIP3    H1 3489   0.518   2.217   7.310  3.0376 -1.1150  0.9801
  869TIP3    H2 3490   0.475   2.200   7.455 -2.1167  0.3273 -0.1679
  870TIP3   OH2 3491   1.154   1.707  10.137  0.0448  0.0088  0.2901
  870TIP3    H1 3492   1.068   1.669  10.155  0.0883 -0.4680 -0.4530
  870TIP3    H2 3493   1.153   1.792  10.181 -0.5099 -0.3332  0.9503
  871TIP3   OH2 3494   2.820   7.325   6.974  0.0706 -0.2170 -0.1507
  871TIP3    H1 3495   2.847   7.365   7.056  0.8874 -1.0291 -0.0060
  871TIP3    H2 3496   2.849   7.385   6.906 -0.8051  0.5662  0.1528
  872TIP3   OH2 3497   6.473   7.315  10.812  0.7260  0.3022  0.1826
  872TIP3    H1 3498   6.565   7.310  10.836  0.9225  0.6190 -0.4793
  872TIP3    H2 3499   6.432   7.364  10.883  1.3350  1.4019 -0.1981
  873TIP3   OH2 3500   0.084   4.209   1.018 -0.3651 -0.0788 -0.2279
  873TIP3    H1 3501   0.139   4.251   1.084  0.0750  0.8918 -1.1744
  873TIP3    H2 3502   0.131   4.222   0.936 -1.6366  0.1114 -0.9622
  874TIP3   OH2 3503   0.702   3.352   0.593  0.2198 -0.4295  0.2354
  874TIP3    H1 3504   0.765   3.344   0.521 -0.1388 -1.6684  0.0475
  874TIP3    H2 3505   0.726   3.435   0.636  1.5768 -0.5630 -0.2098
  875TIP3   OH2 3506   1.128   3.525   6.447 -0.5247  0.1066  0.3059
  875TIP3    H1 3507   1.045   3.573   6.457  0.6201  2.1721  0.4198
  875TIP3    H2 3508   1.114   3.444   6.496 -1.9043  1.1801  1.8195
  876TIP3   OH2 3509   5.228   9.210   9.573  0.0075 -0.2059  0.4520
  876TIP3    H1 3510   5.313   9.166   9.566  0.2670  0.5675 -2.1280
  876TIP3    H2 3511   5.167   9.150   9.529 -0.4568  0.0820  0.6975
  877TIP3   OH2 3512   5.682   3.671   1.576  0.3780 -0.2596  0.4534
  877TIP3    H1 3513   5.729   3.589   1.561 -2.3203 -2.4488  2.7879
  877TIP3    H2 3514   5.607   3.668   1.517 -0.4799 -0.1988  1.4923
  878TIP3   OH2 3515   4.314   4.762   7.102 -0.2344  0.3204  0.1052
  878TIP3    H1 3516   4.259   4.686   7.083  1.5034 -0.7878 -0.7401
  878TIP3    H2 3517   4.327   4.804   7.017 -2.4088  2.5444  0.7485
  879TIP3   OH2 3518  10.902   6.611   1.833 -0.8128 -0.2839 -0.7564
  879TIP3    H1 3519  10.991   6.619   1.865 -0.9405 -0.9117 -0.2091
  879TIP3    H2 3520  10.885   6.692   1.785 -0.2376  0.1911 -0.1593
  880TIP3   OH2 3521   7.302   2.925   6.221 -0.4646  0.4861 -0.7215
  880TIP3    H1 3522   7.296   2.843   6.271 -0.0222  0.6481 -0.3860
  880TIP3    H2 3523   7.352   2.983   6.279 -0.2686  0.7976 -1.2025
  881TIP3   OH2 3524   9.380  10.381   9.363 -0.7932  0.0577  0.2118
  881TIP3    H1 3525   9.419  10.391   9.450 -0.3108 -0.0705  0.0099
  881TIP3    H2 3526   9.292  10.347   9.381 -0.5257 -0.4327  0.6304
  882TIP3   OH2 3527   6.736   8.321   1.256 -0.7989 -0.5586  0.0499
  882TIP3    H1 3528   6.783   8.258   1.200 -1.8859 -0.3996 -1.0902
  882TIP3    H2 3529   6.784   8.321   1.338  0.1564 -1.7006 -0.4848
  883TIP3   OH2 3530   4.883   7.211   7.627 -0.4113 -0.4160 -0.2574
  883TIP3    H1 3531   4.809   7.229   7.570 -0.9888 -0.8484  0.3386
  883TIP3    H2 3532   4.959   7.247   7.581 -1.3479  2.9503  0.4889
  884TIP3   OH2 3533   7.795   2.417   9.399  0.1764 -0.1005  0.1293
  884TIP3    H1 3534   7.862   2.391   9.336 -0.5875  1.8555 -1.5947
  884TIP3    H2 3535   7.842   2.473   9.461  0.5645 -0.5507  0.2525
  885TIP3   OH2 3536   4.915   0.320   5.248 -0.6766 -0.2016  0.1716
  885TIP3    H1 3537   4.885   0.329   5.339  1.3348 -0.2907  0.8886
  885TIP3    H2 3538   4.864   0.385   5.200 -1.6214  0.0031  1.3971
  886TIP3   OH2 3539   6.890   8.585   3.578  0.0829 -0.2183 -0.2778
  886TIP3    H1 3540   6.873   8.544   3.663 -0.5067 -0.2698 -0.4123
  886TIP3    H2 3541   6.803   8.613   3.548  0.2163 -0.6346 -1.0857
  887TIP3   OH2 3542   4.018   5.482   5.247  0.2089 -0.6340 -0.1051
  887TIP3    H1 3543   4.019   5.491   5.342  0.0794 -1.5662 -0.0010
  887TIP3    H2 3544   3.977   5.396   5.232  1.0453 -0.8947 -0.9612
  888TIP3   OH2 3545   2.869   5.254   1.195 -0.1369  0.2925 -0.1462
  888TIP3    H1 3546   2.843   5.278   1.106  0.5803 -2.7313 -1.2790
  888TIP3    H2 3547   2.956   5.290   1.206 -0.9293  2.2484  0.0790
  889TIP3   OH2 3548   0.881   1.089   6.465 -0.2176  0.2445 -0.1156
  889TIP3    H1 3549   0.886   1.056   6.554 -0.7968 -0.2465 -0.2570
  889TIP3    H2 3550   0.818   1.161   6.469 -0.1452  0.3078 -0.1068
  890TIP3   OH2 3551   4.558   8.228  10.142  0.2075 -0.3401 -0.5181
  890TIP3    H1 3552   4.505   8.150  10.158  1.4266 -0.7508  1.8195
  890TIP3    H2 3553   4.590   8.216  10.052 -0.5635 -1.9376 -0.6220
  891TIP3   OH2 3554   2.061   0.738   9.347  0.2872  0.2009 -0.1606
  891TIP3    H1 3555   2.144   0.704   9.381  0.4309  0.1124 -0.5949
  891TIP3    H2 3556   2.070   0.833   9.354 -0.4537  0.1718  1.8667
  892TIP3   OH2 3557   1.544   9.208   1.909  0.2521 -0.8557 -0.0971
  892TIP3    H1 3558   1.620   9.180   1.858  1.2955 -0.4604  1.2008
  892TIP3    H2 3559   1.484   9.132   1.906  1.7997 -2.1811  0.9995
  893TIP3   OH2 3560   7.524   8.632   0.191 -0.5076 -0.2949  0.1258
  893TIP3    H1 3561   7.519   8.636   0.096  0.6654 -2.5905 -0.0968
  893TIP3    H2 3562   7.610   8.667   0.212 -0.7054  0.0682  0.3366
  894TIP3   OH2 3563   6.388  10.097   0.234 -0.8264  0.2795  0.0745
  894TIP3    H1 3564   6.480  10.119   0.221 -0.7372  0.3491  0.7669
  894TIP3    H2 3565   6.347  10.114   0.149 -0.1205 -0.1992 -0.3702
  895TIP3   OH2 3566  10.179   8.750   6.407  0.5713 -0.3227  0.0714
  895TIP3    H1 3567  10.169   8.824   6.347  0.2366 -0.1157  0.3789
  895TIP3    H2 3568  10.192   8.789   6.493 -1.3126 -0.5809  0.5342
  896TIP3   OH2 3569   1.243   9.294   2.144 -0.2160  0.6608  0.5514
  896TIP3    H1 3570   1.184   9.345   2.199 -1.1514  0.7596 -0.5225
  896TIP3    H2 3571   1.327   9.340   2.151 -0.8639  1.9395  0.1597
  897TIP3   OH2 3572   4.204   1.335   8.618 -0.4008 -0.0349  0.1689
  897TIP3    H1 3573   4.283   1.284   8.597 -0.0488  0.6743 -0.2447
  897TIP3    H2 3574   4.204   1.407   8.556 -1.0585  0.3145  0.5608
  898TIP3   OH2 3575  10.751   2.093   3.996  0.4377  0.1921  0.1376
  898TIP3    H1 3576  10.821   2.032   3.975 -0.8050 -1.8420  1.5732
  898TIP3    H2 3577  10.694   2.092   3.920  0.5898 -0.1808  0.0298
  899TIP3   OH2 3578   8.548   1.156   8.453 -0.2183 -0.4022 -0.0378
  899TIP3    H1 3579   8.568   1.108   8.372 -0.4368  0.9555 -0.9183
  899TIP3    H2 3580   8.457   1.184   8.442 -0.2513 -0.2152  0.6974
  900TIP3   OH2 3581   9.296   2.878   8.311 -0.6467  0.1165 -0.2116
  900TIP3    H1 3582   9.365   2.846   8.369 -1.2144 -0.1986  0.2905
  900TIP3    H2 3583   9.313   2.972   8.304  0.4949 -0.1089 -0.9906
  901TIP3   OH2 3584   4.444   7.524   6.833  0.0492  0.5460 -0.3062
  901TIP3    H1 3585   4.512   7.586   6.862 -0.1409  1.6962 -2.1611
  901TIP3    H2 3586   4.364   7.554   6.877  0.2817  0.5917  0.0959
  902TIP3   OH2 3587   9.118   2.008   7.283 -0.2617 -0.0390 -0.6797
  902TIP3    H1 3588   9.069   2.074   7.236 -2.6615 -0.5027  0.9729
  902TIP3    H2 3589   9.181   2.057   7.335  0.7344  0.6146 -2.4309
  903TIP3   OH2 3590   0.568   3.809   7.516  0.5094  0.5620  0.0586
  903TIP3    H1 3591   0.608   3.886   7.476 -0.2776  0.6905 -0.5324
  903TIP3    H2 3592   0.578   3.821   7.610  0.1992  1.5098 -0.0230
  904TIP3   OH2 3593   4.043   4.032   1.331  0.1070  0.8147  0.8556
  904TIP3    H1 3594   4.011   4.077   1.253  1.2355  0.3431  0.0913
  904TIP3    H2 3595   4.127   4.074   1.349  3.0429 -3.0897 -1.9937
  905TIP3   OH2 3596   3.639   8.973   8.294 -0.0672  0.0372  0.6833
  905TIP3    H1 3597   3.566   8.962   8.355 -1.0043  0.4463 -0.3424
  905TIP3    H2 3598   3.664   8.883   8.271 -1.9719 -0.1626 -0.9323
  906TIP3   OH2 3599   2.637   6.078   8.697 -0.3255 -0.0458  0.1039
  906TIP3    H1 3600   2.614   6.011   8.762 -0.5794 -0.1713 -0.1121
  906TIP3    H2 3601   2.710   6.125   8.737  0.1554 -0.7408  0.0670
  907TIP3   OH2 3602   4.596  10.743   1.274 -0.3640  0.3996 -0.2873
  907TIP3    H1 3603   4.536  10.800   1.323 -0.3597  0.3594 -0.2344
  907TIP3    H2 3604   4.594  10.660   1.322  1.7429  1.1544  1.2828
  908TIP3   OH2 3605   1.958  10.051   9.610  0.4980 -0.0203  0.1176
  908TIP3    H1 3606   1.981  10.036   9.518  0.2106  0.1997  0.0080
  908TIP3    H2 3607   2.004  10.132   9.633 -1.8087  1.6365 -0.7317
  909TIP3   OH2 3608  10.371   5.505   4.622 -0.0160 -0.0090  0.0627
  909TIP3    H1 3609  10.308   5.447   4.579  1.0047 -0.7315 -0.4970
  909TIP3    H2 3610  10.324   5.537   4.700 -0.7130 -1.3418  0.2257
  910TIP3   OH2 3611   6.737   1.013   4.055  0.3885 -0.2881  0.1329
  910TIP3    H1 3612   6.737   1.107   4.040 -1.9651 -0.5568 -2.5010
  910TIP3    H2 3613   6.826   0.985   4.035  0.8577  1.2832 -0.0371
  911TIP3   OH2 3614   5.599   3.363  10.480  0.3149 -0.0345 -0.1767
  911TIP3    H1 3615   5.546   3.338  10.556  1.1267  0.9461  0.7353
  911TIP3    H2 3616   5.544   3.425  10.432  1.3763  2.9116  2.0441
  912TIP3   OH2 3617   0.764  10.904   5.891  0.1768 -0.2821 -0.6088
  912TIP3    H1 3618   0.706  10.975   5.863  0.3224 -0.2073 -0.7254
  912TIP3    H2 3619   0.829  10.898   5.821 -0.0999 -0.8352 -0.8225
  913TIP3   OH2 3620   8.481   2.798   2.408 -0.2827  0.3643  0.2794
  913TIP3    H1 3621   8.544   2.868   2.426  0.3114  0.0814 -0.6159
  913TIP3    H2 3622   8.464   2.805   2.314  0.3319 -1.1347  0.0344
  914TIP3   OH2 3623   7.742   3.742   7.786  0.2055  0.4703 -0.3713
  914TIP3    H1 3624   7.797   3.810   7.824  1.8831 -1.4634  0.8713
  914TIP3    H2 3625   7.712   3.690   7.862 -2.4076  0.7274 -1.1158
  915TIP3   OH2 3626   1.992   9.927   2.534  0.2405  0.3132  0.7167
  915TIP3    H1 3627   1.941   9.862   2.486 -0.5206  1.0793  0.4628
  915TIP3    H2 3628   1.975  10.009   2.489 -0.2270  1.0030  2.0686
  916TIP3   OH2 3629   9.731   0.561  10.715  0.1224 -0.2891 -0.3898
  916TIP3    H1 3630   9.784   0.633  10.680  0.3810 -0.2509  0.0697
  916TIP3    H2 3631   9.723   0.581  10.808 -0.8113 -0.2343 -0.4792
  917TIP3   OH2 3632   5.203   4.606  10.534  0.2908  0.1572 -0.6887
  917TIP3    H1 3633   5.240   4.593  10.622  0.8319  0.4532 -0.8707
  917TIP3    H2 3634   5.278   4.604  10.475 -0.0722 -0.0601 -1.1533
  918TIP3   OH2 3635  10.134   0.120   3.981 -0.6784  0.6164  0.2533
  918TIP3    H1 3636  10.175   0.121   4.068  0.1799  0.0691 -0.1287
  918TIP3    H2 3637  10.206   0.138   3.921 -1.0179 -0.2205 -0.4258
  919TIP3   OH2 3638   6.657   8.469   8.364  0.4539  0.2833  0.1641
  919TIP3    H1 3639   6.605   8.549   8.370  0.6514  0.7253 -2.7823
  919TIP3    H2 3640   6.728   8.481   8.427  1.1578  2.9796 -1.0259
  920TIP3   OH2 3641   8.803   9.339   3.963  0.0204  0.6256 -0.6075
  920TIP3    H1 3642   8.776   9.283   4.036  0.6407  0.1408 -0.7399
  920TIP3    H2 3643   8.765   9.424   3.983 -3.1680 -0.4095 -1.6925
  921TIP3   OH2 3644   1.281   0.740   3.854  0.4426 -0.0453  0.1223
  921TIP3    H1 3645   1.261   0.726   3.947  0.1162 -0.7329 -0.0456
  921TIP3    H2 3646   1.328   0.662   3.828  0.6720  0.2207 -0.2557
  922TIP3   OH2 3647   1.461   6.534   7.208  0.6535 -0.5582 -0.2476
  922TIP3    H1 3648   1.438   6.599   7.274  0.8903 -1.7326  1.0525
  922TIP3    H2 3649   1.526   6.577   7.154  0.0576  0.6265 -0.0606
  923TIP3   OH2 3650   4.711   4.414   5.170  0.0094 -0.1162  0.2682
  923TIP3    H1 3651   4.723   4.362   5.250  0.8181 -0.1613  0.1277
  923TIP3    H2 3652   4.755   4.364   5.102  1.2390  0.9615  0.2180
  924TIP3   OH2 3653   2.556   0.053   7.920 -0.3312  0.1345 -0.3766
  924TIP3    H1 3654   2.527   0.107   7.993  0.3856 -0.3839  0.3058
  924TIP3    H2 3655   2.603   0.113   7.862  1.3755  0.0940  0.8912
  925TIP3   OH2 3656   7.287   2.171   8.303  0.3740 -0.2324 -0.6153
  925TIP3    H1 3657   7.243   2.214   8.376  0.5969  1.5973 -1.5045
  925TIP3    H2 3658   7.380   2.182   8.323  0.4401 -1.1978 -0.3655
  926TIP3   OH2 3659   9.471   4.147   7.668  0.1087  0.2179  0.3489
  926TIP3    H1 3660   9.405   4.083   7.693 -0.2490  0.3331 -0.2984
  926TIP3    H2 3661   9.427   4.204   7.605  0.3354  1.2527  1.0941
  927TIP3   OH2 3662   3.799   8.885   8.877 -0.2221 -0.1346 -0.1685
  927TIP3    H1 3663   3.772   8.899   8.786 -1.5252 -2.2111 -0.1841
  927TIP3    H2 3664   3.753   8.805   8.903  1.5515 -0.6196  1.7498
  928TIP3   OH2 3665   1.231   8.619   2.812  0.0433 -0.2911 -0.5339
  928TIP3    H1 3666   1.144   8.637   2.846  0.7224  0.9147  0.6256
  928TIP3    H2 3667   1.227   8.647   2.720 -1.0065 -1.0409 -0.7415
  929TIP3   OH2 3668   9.665  10.350   6.957  0.2870  0.3221  0.0318
  929TIP3    H1 3669   9.653  10.258   6.933  1.9616  0.4390 -1.4598
  929TIP3    H2 3670   9.748  10.375   6.916  0.3177  2.2635  1.1505
  930TIP3   OH2 3671   6.687   7.072   6.188 -0.1616  0.3998 -0.0805
  930TIP3    H1 3672   6.616   7.110   6.138  0.5866 -0.2819 -1.7196
  930TIP3    H2 3673   6.764   7.125   6.164  0.6505 -1.3110 -1.4723
  931TIP3   OH2 3674   9.628   2.331   4.359  0.1956 -0.3638  0.2123
  931TIP3    H1 3675   9.669   2.378   4.432  1.3151 -0.8164 -0.0995
  931TIP3    H2 3676   9.645   2.387   4.282 -4.0098  1.9635  0.6602
  932TIP3   OH2 3677   6.117   6.455   6.315  0.0935  0.0091  0.1031
  932TIP3    H1 3678   6.130   6.422   6.404 -0.7997  0.4055  0.3908
  932TIP3    H2 3679   6.206   6.459   6.278  0.3091 -2.0929  0.2582
  933TIP3   OH2 3680   3.420   5.773   1.419  0.8433  0.5496 -0.1578
  933TIP3    H1 3681   3.434   5.743   1.329 -2.3301 -1.9085  0.0135
  933TIP3    H2 3682   3.506   5.766   1.460  1.6332 -2.0693 -1.9895
  934TIP3   OH2 3683   6.292  10.467   2.249 -0.2884 -0.0387 -0.0363
  934TIP3    H1 3684   6.234  10.458   2.173 -1.1775 -0.0400  0.6248
  934TIP3    H2 3685   6.299  10.562   2.262 -3.0280  0.0225  1.9688
  935TIP3   OH2 3686   2.544   3.730   5.516 -0.6820  0.1742  0.5245
  935TIP3    H1 3687   2.487   3.661   5.482  0.1249  0.0617 -0.6267
  935TIP3    H2 3688   2.564   3.785   5.441  0.1808  0.6044  1.0462
  936TIP3   OH2 3689   7.971   1.076   1.161  0.1974 -0.0854 -0.2201
  936TIP3    H1 3690   8.003   1.114   1.080 -1.2910 -0.3475 -0.9611
  936TIP3    H2 3691   7.876   1.088   1.158  0.1081 -0.0504  1.5135
  937TIP3   OH2 3692   7.183   4.655   8.354 -0.0773  0.1340  0.2860
  937TIP3    H1 3693   7.124   4.607   8.412 -1.0858  1.9148  0.8242
  937TIP3    H2 3694   7.126   4.715   8.306  0.9368 -0.2537 -1.4903
  938TIP3   OH2 3695   5.456   6.570   6.253  0.2732  0.2415  0.2299
  938TIP3    H1 3696   5.427   6.601   6.168  1.1627 -1.8367 -0.9086
  938TIP3    H2 3697   5.516   6.638   6.285  2.8364 -0.5079 -2.5345
  939TIP3   OH2 3698   3.484   2.728   9.243  0.7119 -0.2819  0.1448
  939TIP3    H1 3699   3.555   2.763   9.188  0.7063 -0.5523 -0.0426
  939TIP3    H2 3700   3.504   2.759   9.331  1.1803 -0.5206  0.1296
  940TIP3   OH2 3701   1.024   5.169   9.131  0.3407 -0.1062  0.6096
  940TIP3    H1 3702   0.957   5.135   9.072  0.6453  0.2111  0.0703
  940TIP3    H2 3703   1.107   5.152   9.086  0.5110  1.1991  0.3761
  941TIP3   OH2 3704   7.472   0.351   9.498 -0.1733  0.0498  0.8286
  941TIP3    H1 3705   7.496   0.273   9.449 -1.1925 -0.7072  1.4984
  941TIP3    H2 3706   7.515   0.342   9.583 -1.0258 -0.2663  1.2472
  942TIP3   OH2 3707   2.797   9.959   5.099  0.2713 -0.2677  0.2124
  942TIP3    H1 3708   2.882   9.944   5.139  0.2630 -0.6911  0.0707
  942TIP3    H2 3709   2.776  10.050   5.122  1.7352  0.5862 -1.5724
  943TIP3   OH2 3710   9.607   2.059   9.334  0.3815 -0.0373  0.1236
  943TIP3    H1 3711   9.615   2.139   9.386  2.4905 -1.1175  1.5918
  943TIP3    H2 3712   9.544   2.005   9.382  2.0259 -0.8694  1.4224
  944TIP3   OH2 3713   0.953   1.859   8.349 -0.0491 -0.1621 -0.4528
  944TIP3    H1 3714   0.859   1.847   8.365 -0.3619  1.7017 -0.7008
  944TIP3    H2 3715   0.992   1.775   8.374 -1.7343 -0.8635 -0.0200
  945TIP3   OH2 3716   1.944   8.672   3.362  0.5769 -0.0350 -0.0549
  945TIP3    H1 3717   1.996   8.752   3.355  0.0928  0.5109  2.0143
  945TIP3    H2 3718   1.988   8.621   3.430 -0.4793 -0.4396  0.3426
  946TIP3   OH2 3719   9.571  10.604  10.241 -0.1359  0.1370  0.2943
  946TIP3    H1 3720   9.507  10.603  10.170  0.3756  1.4842 -0.2219
  946TIP3    H2 3721   9.519  10.596  10.321 -0.6636 -2.2428 -0.2200
  947TIP3   OH2 3722   6.235   7.577   7.736 -0.1740  0.0056  0.0271
  947TIP3    H1 3723   6.313   7.569   7.792  0.1523 -0.9812 -0.5400
  947TIP3    H2 3724   6.161   7.567   7.795  0.1372  0.5524  0.5146
  948TIP3   OH2 3725   7.918   1.670   1.279 -0.1880  0.2796  0.4677
  948TIP3    H1 3726   7.863   1.717   1.217  1.3119 -0.8517 -1.8879
  948TIP3    H2 3727   7.894   1.578   1.268  1.7021 -0.1925 -0.2813
  949TIP3   OH2 3728   9.921   3.293   8.310 -0.1462 -0.1993 -0.3553
  949TIP3    H1 3729   9.962   3.284   8.224  1.6922 -0.2449  0.4772
  949TIP3    H2 3730   9.834   3.329   8.291  0.1124 -0.4477 -2.2368
  950TIP3   OH2 3731  10.399   5.296   7.935  0.2727 -0.4346  0.2229
  950TIP3    H1 3732  10.362   5.254   7.857 -1.8995  2.5289 -0.4990
  950TIP3    H2 3733  10.362   5.248   8.008 -0.1340 -1.3338 -0.5509
  951TIP3   OH2 3734   6.786   5.838   9.343 -0.1626 -0.1537  0.2696
  951TIP3    H1 3735   6.825   5.820   9.258  0.9324  1.6468  0.3337
  951TIP3    H2 3736   6.695   5.860   9.324  0.0790  0.2614 -0.4448
  952TIP3   OH2 3737   3.891   2.796   9.050  0.1368  0.1382  0.2667
  952TIP3    H1 3738   3.799   2.817   9.061 -0.8091 -3.9747  2.2238
  952TIP3    H2 3739   3.900   2.774   8.958 -1.2197 -0.6376  0.2950
  953TIP3   OH2 3740   4.531   8.054   5.599  0.3929 -0.4745  0.1494
  953TIP3    H1 3741   4.622   8.023   5.597  0.9432  1.0468 -1.7605
  953TIP3    H2 3742   4.512   8.077   5.508 -1.2592  1.0276  0.8212
  954TIP3   OH2 3743   8.142   1.892  10.391 -0.8668 -0.0343  0.8413
  954TIP3    H1 3744   8.115   1.933  10.308  0.2703 -0.1413  0.3997
  954TIP3    H2 3745   8.134   1.961  10.456 -2.0726 -0.0324  0.7177
  955TIP3   OH2 3746   1.357   7.662   0.790  0.0202  0.5105 -0.4260
  955TIP3    H1 3747   1.271   7.624   0.806 -0.1590  0.3720 -1.6609
  955TIP3    H2 3748   1.411   7.629   0.862 -0.1956 -1.8802 -1.2547
  956TIP3   OH2 3749   0.050   7.415   4.370 -0.3068  0.3968  0.4624
  956TIP3    H1 3750   0.043   7.468   4.450  0.6856  0.7227  0.3515
  956TIP3    H2 3751   0.102   7.469   4.310 -0.5952 -0.0662 -0.2151
  957TIP3   OH2 3752   2.967   3.589   5.807  0.1817 -0.2501 -0.6625
  957TIP3    H1 3753   2.943   3.497   5.801  0.2722 -0.2231 -1.6048
  957TIP3    H2 3754   2.887   3.634   5.834  0.6029 -0.8065  1.7968
  958TIP3   OH2 3755   4.786   4.329  10.385 -0.1406  0.0388  0.5013
  958TIP3    H1 3756   4.723   4.399  10.369  0.7159  0.9008  0.8016
  958TIP3    H2 3757   4.853   4.341  10.318  0.9194  0.6206  1.6241
  959TIP3   OH2 3758   7.708   1.227   8.655 -0.1131 -0.1838  0.7836
  959TIP3    H1 3759   7.641   1.190   8.711 -0.6211  0.2621  0.4761
  959TIP3    H2 3760   7.772   1.156   8.643 -1.8481 -1.5453 -1.1290
  960TIP3   OH2 3761   6.226  10.588   9.206 -0.5232  0.0163  0.2696
  960TIP3    H1 3762   6.321  10.579   9.218 -0.6533 -0.0461  1.3148
  960TIP3    H2 3763   6.214  10.584   9.111  0.8436  3.4261 -0.1674
  961TIP3   OH2 3764   7.159  10.485   4.168  0.1100  0.1288 -0.7301
  961TIP3    H1 3765   7.252  10.506   4.164  0.0048  0.4116 -2.5659
  961TIP3    H2 3766   7.115  10.567   4.145 -0.6989  0.4520  1.6738
  962TIP3   OH2 3767   7.798   6.489  10.360  0.3904 -0.2716 -0.1198
  962TIP3    H1 3768   7.865   6.526  10.302  2.4888 -3.4001  0.0807
  962TIP3    H2 3769   7.760   6.417  10.309 -1.2930  0.0482  0.6150
  963TIP3   OH2 3770   8.345  10.317   0.197  0.1431 -0.2754  0.3641
  963TIP3    H1 3771   8.416  10.293   0.257  1.2694  0.6669 -0.5196
  963TIP3    H2 3772   8.287  10.372   0.249  1.5189  1.1765  0.4398
  964TIP3   OH2 3773   8.456   5.163   3.862  0.1245  0.6797 -0.4109
  964TIP3    H1 3774   8.464   5.090   3.800  0.0789 -0.5039  0.9090
  964TIP3    H2 3775   8.546   5.181   3.889 -0.0492 -0.9209  1.4537
  965TIP3   OH2 3776   7.506   6.621  10.068 -0.4497  0.2126  0.3253
  965TIP3    H1 3777   7.545   6.610  10.154 -1.0123 -1.0596  0.4550
  965TIP3    H2 3778   7.471   6.710  10.068 -0.7681  0.1074  1.5552
  966TIP3   OH2 3779   7.158   4.653   2.611  0.1983  0.1464  0.0293
  966TIP3    H1 3780   7.107   4.705   2.673  0.2377 -1.1658  1.2064
  966TIP3    H2 3781   7.118   4.672   2.526 -1.9330 -0.3913  0.8389
  967TIP3   OH2 3782   9.630  10.850   9.681  0.7538  0.6915 -0.0464
  967TIP3    H1 3783   9.644  10.944   9.685  0.9860  0.6721 -0.3929
  967TIP3    H2 3784   9.716  10.813   9.659  0.0485  0.6585 -3.3158
  968TIP3   OH2 3785  10.654   7.236   1.453  0.2393  0.1449  0.9043
  968TIP3    H1 3786  10.652   7.289   1.373  1.8812  0.4232  1.0029
  968TIP3    H2 3787  10.568   7.195   1.457 -0.9845  2.4951  0.6217
  969TIP3   OH2 3788   2.894   2.737   5.065 -0.1846 -0.5115 -0.1897
  969TIP3    H1 3789   2.956   2.808   5.085 -1.2244  0.5883 -0.7082
  969TIP3    H2 3790   2.924   2.701   4.982 -0.0911 -0.1460 -0.3164
  970TIP3   OH2 3791   1.734   9.375   3.944 -0.3627  0.0718  0.0019
  970TIP3    H1 3792   1.716   9.458   3.988 -0.5661  0.5357 -0.9457
  970TIP3    H2 3793   1.661   9.318   3.970 -0.7763  0.5133 -0.1780
  971TIP3   OH2 3794   7.953   0.629   7.390 -0.0948  0.2992 -0.2146
  971TIP3    H1 3795   7.961   0.680   7.470  1.9796  3.1537 -2.0162
  971TIP3    H2 3796   7.866   0.652   7.355 -0.9303 -0.8218  1.0431
  972TIP3   OH2 3797   9.282   5.355  10.302  0.0878  0.3959  0.5723
  972TIP3    H1 3798   9.232   5.340  10.222 -0.1993 -2.1877  1.1583
  972TIP3    H2 3799   9.350   5.417  10.276 -0.7963  0.6579 -1.3183
  973TIP3   OH2 3800   7.020   7.255   0.577  0.5928 -0.4761  0.0607
  973TIP3    H1 3801   6.981   7.186   0.524  1.0990  0.1994 -1.2531
  973TIP3    H2 3802   6.948   7.314   0.598 -0.0234 -1.8280  1.9705
  974TIP3   OH2 3803   9.567   7.452   0.190 -0.2127 -0.0116  0.5286
  974TIP3    H1 3804   9.585   7.466   0.097  0.6197 -0.0883  0.6696
  974TIP3    H2 3805   9.480   7.488   0.204 -0.4709 -0.2795 -0.3473
  975TIP3   OH2 3806   0.568   8.697   0.670  0.3432 -0.1295 -0.4637
  975TIP3    H1 3807   0.648   8.662   0.709  0.7291 -0.8864 -1.8624
  975TIP3    H2 3808   0.499   8.672   0.731  1.1809  0.8599  0.9659
  976TIP3   OH2 3809   9.942   5.222   0.917  1.0840 -0.4914 -0.8027
  976TIP3    H1 3810  10.008   5.152   0.914  1.2578 -0.2955 -1.6835
  976TIP3    H2 3811   9.917   5.236   0.826 -0.8674 -1.2087 -0.4395
  977TIP3   OH2 3812   0.916   2.404   7.873  0.0508 -0.0570  0.0447
  977TIP3    H1 3813   0.822   2.420   7.877 -0.1686 -1.1114 -0.6223
  977TIP3    H2 3814   0.954   2.489   7.852 -0.8633  0.1464 -0.8847
  978TIP3   OH2 3815   6.747   8.791   1.663 -0.3906 -0.0984 -0.3086
  978TIP3    H1 3816   6.817   8.853   1.645  0.6420 -1.0660  0.2210
  978TIP3    H2 3817   6.714   8.765   1.577  0.3171 -0.0830 -0.5890
  979TIP3   OH2 3818   6.305   1.228   2.962  0.2243  0.4015  0.2564
  979TIP3    H1 3819   6.254   1.304   2.936  0.0736  0.2151 -0.0060
  979TIP3    H2 3820   6.290   1.164   2.892 -2.5824 -1.2504  2.1497
  980TIP3   OH2 3821   2.314   2.287   3.178 -0.2175  0.0652 -0.2305
  980TIP3    H1 3822   2.232   2.239   3.167 -0.5482  1.0437 -2.5821
  980TIP3    H2 3823   2.382   2.226   3.148 -0.3359  0.0577 -0.4858
  981TIP3   OH2 3824   4.979   9.365   8.247  0.5073  0.0635 -0.1216
  981TIP3    H1 3825   4.958   9.443   8.298  0.3927  1.0299 -1.5714
  981TIP3    H2 3826   4.905   9.354   8.188  1.9040  0.8077 -2.1546
  982TIP3   OH2 3827  10.893   6.969   5.434 -0.2465  0.3665 -0.5085
  982TIP3    H1 3828  10.832   7.028   5.478 -1.9801 -1.9306  0.3805
  982TIP3    H2 3829  10.839   6.896   5.404  2.2229 -3.5721  3.3404
  983TIP3   OH2 3830   0.366   8.860   7.334  0.1125  0.1706  0.0650
  983TIP3    H1 3831   0.308   8.831   7.405  0.5902 -0.1797  0.3187
  983TIP3    H2 3832   0.345   8.953   7.322 -0.8607 -0.0693 -0.1997
  984TIP3   OH2 3833   4.091   2.342   1.951  0.4677  0.5688 -0.0702
  984TIP3    H1 3834   4.038   2.374   1.878  1.3682 -0.0400 -1.0185
  984TIP3    H2 3835   4.038   2.274   1.992 -0.3337  1.3940  0.2907
  985TIP3   OH2 3836   4.527   2.430   4.257 -0.0472 -0.9370  0.5981
  985TIP3    H1 3837   4.468   2.368   4.298 -0.0778 -0.8486  0.6888
  985TIP3    H2 3838   4.578   2.466   4.330 -1.8854  1.1651  0.9518
  986TIP3   OH2 3839   1.049   4.990   1.441  0.3842  0.3567  0.2724
  986TIP3    H1 3840   1.014   5.078   1.427  1.0789  0.4923 -0.6878
  986TIP3    H2 3841   1.014   4.964   1.527 -0.6570  1.1593  0.1203
  987TIP3   OH2 3842   9.799   4.547   3.949  0.4909 -0.0406 -0.4831
  987TIP3    H1 3843   9.806   4.452   3.946 -1.6256 -0.2126 -1.7933
  987TIP3    H2 3844   9.886   4.579   3.928  0.4462 -1.7207 -3.7779
  988TIP3   OH2 3845   8.145   7.945   0.275  0.0118  0.0851  0.5847
  988TIP3    H1 3846   8.184   8.032   0.271 -0.4613  0.2840  0.1996
  988TIP3    H2 3847   8.190   7.902   0.348  0.0418  0.7559  0.9718
  989TIP3   OH2 3848   2.275   6.288   0.700  0.3929  0.0365  0.3697
  989TIP3    H1 3849   2.269   6.211   0.756  1.7781  0.0275  0.5247
  989TIP3    H2 3850   2.184   6.315   0.687  0.0074 -0.2665  2.1695
  990TIP3   OH2 3851   1.813   0.370   2.714  0.2290  0.2723 -0.0002
  990TIP3    H1 3852   1.743   0.343   2.655  0.1344  0.9934 -0.2287
  990TIP3    H2 3853   1.778   0.446   2.761  0.9804  0.8919 -0.4027
  991TIP3   OH2 3854   6.469   4.799   7.497 -0.1915 -0.0791  0.4713
  991TIP3    H1 3855   6.518   4.726   7.536  0.2204  0.3696  0.8107
  991TIP3    H2 3856   6.507   4.877   7.537  0.5577  0.4322 -1.1551
  992TIP3   OH2 3857   7.394   4.312   5.069  0.0492  0.6809  0.6189
  992TIP3    H1 3858   7.467   4.255   5.094  0.8436  1.5473  0.3238
  992TIP3    H2 3859   7.406   4.391   5.122  0.1405  1.4005 -0.4453
  993TIP3   OH2 3860   2.332   0.161   4.111 -0.4089 -0.5378  0.2685
  993TIP3    H1 3861   2.240   0.180   4.131 -0.1972 -0.3665  1.1118
  993TIP3    H2 3862   2.337   0.066   4.112 -1.1401 -0.6764 -2.4519
  994TIP3   OH2 3863   0.883   8.732   6.076  0.3946  0.0373 -0.2632
  994TIP3    H1 3864   0.829   8.678   6.019 -2.4333  4.6574 -2.6327
  994TIP3    H2 3865   0.961   8.752   6.025  0.0480  0.4922 -0.6200
  995TIP3   OH2 3866   8.980   2.118   4.394 -0.5407 -0.1904  0.3924
  995TIP3    H1 3867   9.023   2.074   4.468  3.4121 -0.4186 -1.7724
  995TIP3    H2 3868   8.969   2.049   4.328 -4.0147  0.0009  0.5929
  996TIP3   OH2 3869   8.922   2.121   2.937  0.2944  0.0283 -0.7907
  996TIP3    H1 3870   8.884   2.132   3.024  0.3029 -0.2136 -0.7564
  996TIP3    H2 3871   8.995   2.183   2.935 -0.8560  1.4252 -1.3077
  997TIP3   OH2 3872   2.177   6.201   6.381 -0.0342 -0.4125  0.0496
  997TIP3    H1 3873   2.258   6.249   6.398  1.0909 -2.5678  1.2727
  997TIP3    H2 3874   2.205   6.109   6.378 -2.2852 -1.1219 -0.6610
  998TIP3   OH2 3875   1.976   9.464   6.796 -0.3304  0.0182  0.6024
  998TIP3    H1 3876   1.985   9.476   6.701  0.8638 -0.3118  0.6471
  998TIP3    H2 3877   1.958   9.371   6.807  0.1007 -0.0544  0.7195
  999TIP3   OH2 3878   4.953  10.236   3.861  0.5933 -0.3928 -0.4516
  999TIP3    H1 3879   4.882  10.195   3.911  0.8150  0.2233  0.4137
  999TIP3    H2 3880   4.920  10.241   3.772 -0.7520  0.4860  0.0536
 1000TIP3   OH2 3881   4.456   0.353   8.581 -0.3497  0.0598  0.0493
 1000TIP3    H1 3882   4.456   0.326   8.672 -1.4101  2.4425  0.8392
 1000TIP3    H2 3883   4.548   0.346   8.554 -0.4754 -4.1138  0.0671
 1001TIP3   OH2 3884   5.183   9.171   8.301  0.5563 -0.0360  0.9997
 1001TIP3    H1 3885   5.202   9.256   8.341  1.3935  0.3689 -0.2165
 1001TIP3    H2 3886   5.096   9.182   8.262  0.9999  0.5636  0.1303
 1002TIP3   OH2 3887  10.621   4.469   4.356 -0.2042  0.1289  0.4727
 1002TIP3    H1 3888  10.660   4.429   4.434 -1.8145 -0.5769  0.9587
 1002TIP3    H2 3889  10.693   4.517   4.315  1.5005 -2.1502  0.6077
 1003TIP3   OH2 3890   6.856   6.783   1.103  0.1787 -0.5018 -0.0622
 1003TIP3    H1 3891   6.908   6.832   1.167 -0.3509  1.0446 -0.7835
 1003TIP3    H2 3892   6.769   6.779   1.142  0.1095 -0.4774 -0.2170
 1004TIP3   OH2 3893  10.098   4.635   4.725  0.1381 -0.0493 -0.1116
 1004TIP3    H1 3894  10.192   4.653   4.733  0.3379 -1.5554  1.7666
 1004TIP3    H2 3895  10.069   4.690   4.652  2.4100  0.6565 -0.5697
 1005TIP3   OH2 3896   1.761   9.007   5.992  0.4836 -0.5449 -0.0318
 1005TIP3    H1 3897   1.714   9.051   5.922  2.3134 -0.5895 -1.3663
 1005TIP3    H2 3898   1.813   9.076   6.033 -1.4543 -0.2645  2.1678
 1006TIP3   OH2 3899   1.520   6.215  10.872  0.0920  0.2808 -0.0481
 1006TIP3    H1 3900   1.613   6.196  10.888  0.0123 -0.1096 -0.0234
 1006TIP3    H2 3901   1.505   6.187  10.781 -0.3129 -0.9385  0.3699
 1007TIP3   OH2 3902   0.641   2.730   6.780 -0.4119 -0.5060  0.2180
 1007TIP3    H1 3903   0.576   2.790   6.815  1.0159  0.7856  0.7662
 1007TIP3    H2 3904   0.618   2.719   6.688 -1.7592 -0.6016  0.5504
 1008TIP3   OH2 3905   2.007   6.399   2.070 -0.3412 -0.5027 -0.1420
 1008TIP3    H1 3906   2.004   6.488   2.036  0.0589 -1.3071 -2.4892
 1008TIP3    H2 3907   2.070   6.402   2.142 -1.9839  1.5082  1.3104
 1009TIP3   OH2 3908   3.843   2.135   5.641 -0.2672 -0.5559  0.1187
 1009TIP3    H1 3909   3.794   2.210   5.606  0.1907  0.0921  0.8260
 1009TIP3    H2 3910   3.873   2.088   5.564 -1.0249 -0.3264 -0.3328
 1010TIP3   OH2 3911   7.985   5.077   0.425  0.3917  0.1105 -0.2775
 1010TIP3    H1 3912   7.950   5.044   0.342  2.0647 -0.6301 -0.7267
 1010TIP3    H2 3913   7.946   5.019   0.491  0.7979 -0.7507 -0.7695
 1011TIP3   OH2 3914   5.190   8.992   3.251 -0.0962 -0.3783 -0.3483
 1011TIP3    H1 3915   5.124   8.982   3.183 -0.0698 -0.7739 -0.3164
 1011TIP3    H2 3916   5.146   8.965   3.331  0.2321 -1.0667 -0.3924
 1012TIP3   OH2 3917   9.386   7.508   9.073 -0.2447 -0.2365  0.4076
 1012TIP3    H1 3918   9.304   7.502   9.024  0.2626 -1.8150 -0.3075
 1012TIP3    H2 3919   9.397   7.422   9.113  1.7767 -0.5779 -0.7340
 1013TIP3   OH2 3920   3.411   9.422  10.136 -0.3826  0.4826  0.0317
 1013TIP3    H1 3921   3.353   9.380  10.072  1.9485 -0.5519 -1.5335
 1013TIP3    H2 3922   3.440   9.350  10.192 -0.4019  0.9492  0.6545
 1014TIP3   OH2 3923   5.935   6.245   0.593  0.1832 -0.4174 -0.5199
 1014TIP3    H1 3924   6.026   6.243   0.564  0.0219  1.5437 -1.3172
 1014TIP3    H2 3925   5.895   6.168   0.552  1.1899 -0.5794 -1.2313
 1015TIP3   OH2 3926   0.709   7.013   0.772  0.8012  0.2201 -0.5168
 1015TIP3    H1 3927   0.699   6.999   0.866 -1.2985 -0.5495 -0.8068
 1015TIP3    H2 3928   0.804   7.006   0.757  1.0007 -2.0664  1.1904
 1016TIP3   OH2 3929  10.072   6.313   8.250 -0.2068  0.0416  0.1435
 1016TIP3    H1 3930  10.005   6.295   8.185  1.3974  0.8519 -1.8375
 1016TIP3    H2 3931  10.051   6.400   8.284 -1.5238 -0.7251  1.3943
 1017TIP3   OH2 3932   4.389   3.991   0.440  0.2914 -0.1185 -0.1342
 1017TIP3    H1 3933   4.367   4.074   0.398  0.1537  0.3912  0.9345
 1017TIP3    H2 3934   4.319   3.977   0.503  0.6722 -0.7204  0.1620
 1018TIP3   OH2 3935   6.513   1.355   5.909 -0.3394  0.3290 -0.4959
 1018TIP3    H1 3936   6.483   1.279   5.960  2.2013 -0.0577  0.5755
 1018TIP3    H2 3937   6.524   1.424   5.974 -0.3322  0.8846 -1.0812
 1019TIP3   OH2 3938   3.596   0.394   8.396  0.2326  0.1949 -0.0975
 1019TIP3    H1 3939   3.588   0.483   8.360 -0.4641 -0.1580 -0.8401
 1019TIP3    H2 3940   3.637   0.407   8.482  1.7763  1.0811 -0.9152
 1020TIP3   OH2 3941   8.252   3.061  10.171  0.6122 -0.4176  0.0603
 1020TIP3    H1 3942   8.282   3.144  10.208  2.6025 -1.4207  0.8299
 1020TIP3    H2 3943   8.215   3.013  10.246 -0.2034 -0.3845 -0.3094
 1021TIP3   OH2 3944   0.817   1.479   9.946  0.0535 -0.5235  0.0155
 1021TIP3    H1 3945   0.790   1.490  10.037 -1.9212  0.6515 -0.6641
 1021TIP3    H2 3946   0.913   1.475   9.950  0.0152 -0.4991  2.1225
 1022TIP3   OH2 3947   8.669   8.565   3.446  0.4208 -0.5720 -0.5858
 1022TIP3    H1 3948   8.612   8.599   3.378  0.6875  0.2879 -0.3892
 1022TIP3    H2 3949   8.727   8.504   3.401 -1.5655 -2.6224 -0.5549
 1023TIP3   OH2 3950   0.328   1.079   5.032 -0.0558 -0.2291  0.5583
 1023TIP3    H1 3951   0.257   1.049   5.089 -0.0114  2.2872  2.0691
 1023TIP3    H2 3952   0.378   0.999   5.014 -2.2356 -1.7679  0.8690
 1024TIP3   OH2 3953   6.080   0.569   1.813  0.1686  0.3432  0.4543
 1024TIP3    H1 3954   6.069   0.573   1.718 -0.8465  2.2216  0.6046
 1024TIP3    H2 3955   6.162   0.520   1.825 -0.5192 -1.3770 -1.2834
 1025TIP3   OH2 3956   9.061   4.303   1.582  0.1202 -0.1430  0.0312
 1025TIP3    H1 3957   9.103   4.218   1.569  0.6552  0.2501 -0.9555
 1025TIP3    H2 3958   8.970   4.282   1.603  0.0444 -0.9555 -1.0150
 1026TIP3   OH2 3959   1.053   5.544   8.154 -0.4258 -0.2596  0.0226
 1026TIP3    H1 3960   1.140   5.560   8.118 -0.8014  0.9532 -0.3953
 1026TIP3    H2 3961   1.035   5.452   8.133 -0.7960  0.4404 -3.3452
 1027TIP3   OH2 3962   1.599   8.504   2.540  0.0362  0.3012 -0.2601
 1027TIP3    H1 3963   1.531   8.570   2.525  0.5833  0.7454 -0.8454
 1027TIP3    H2 3964   1.552   8.421   2.542 -0.2996  0.3350 -3.0474
 1028TIP3   OH2 3965   9.518   6.132   7.210  0.4556  0.6010 -0.0743
 1028TIP3    H1 3966   9.502   6.213   7.161 -1.3543  0.4552  0.2049
 1028TIP3    H2 3967   9.443   6.125   7.270  2.3464  0.5510  2.4458
 1029TIP3   OH2 3968   8.422   0.786   2.817  0.1864  0.2005 -0.0578
 1029TIP3    H1 3969   8.447   0.876   2.838 -1.9554  0.4437  1.9036
 1029TIP3    H2 3970   8.398   0.789   2.724 -1.4060  2.1335  0.3339
 1030TIP3   OH2 3971   3.069   1.425   5.587 -0.0010  0.3491 -0.1760
 1030TIP3    H1 3972   3.161   1.442   5.571  0.4785 -2.8808 -1.7372
 1030TIP3    H2 3973   3.057   1.440   5.681  2.2767  0.2778  0.1619
 1031TIP3   OH2 3974   9.340   0.388   7.993  0.4216  0.3036 -0.0083
 1031TIP3    H1 3975   9.336   0.368   8.087  3.0092  0.1054  0.1369
 1031TIP3    H2 3976   9.381   0.474   7.988  1.9543 -0.4394 -0.9555
 1032TIP3   OH2 3977   9.488   5.563   2.730  0.2337  0.5935 -0.1211
 1032TIP3    H1 3978   9.569   5.581   2.684 -0.9412  0.7270 -2.2596
 1032TIP3    H2 3979   9.427   5.632   2.701 -0.8103  0.1929  1.0049
 1033TIP3   OH2 3980   6.340   3.113   4.708 -0.6832  0.0069  0.0146
 1033TIP3    H1 3981   6.293   3.070   4.780  0.2251 -0.1599  0.5140
 1033TIP3    H2 3982   6.393   3.044   4.669  0.6019  0.5974  0.6653
 1034TIP3   OH2 3983   4.202   9.510   6.783  0.2207  0.0615 -0.1213
 1034TIP3    H1 3984   4.275   9.564   6.754  1.0723 -1.0172 -0.0566
 1034TIP3    H2 3985   4.148   9.569   6.835  0.8907  0.9525 -0.4091
 1035TIP3   OH2 3986   8.383   9.748  10.425 -0.2519 -0.0604 -0.1539
 1035TIP3    H1 3987   8.389   9.708  10.338 -0.4767 -1.7096  0.5459
 1035TIP3    H2 3988   8.454   9.813  10.426 -1.3671  1.3109 -2.1742
 1036TIP3   OH2 3989   1.871  10.566   9.146  0.0512  0.3479  0.7052
 1036TIP3    H1 3990   1.928  10.519   9.085  0.0233  1.4332 -0.2044
 1036TIP3    H2 3991   1.811  10.500   9.180 -0.7285 -0.1133 -1.3975
 1037TIP3   OH2 3992   8.601   1.533   7.095  0.3627 -0.4194  0.0475
 1037TIP3    H1 3993   8.632   1.488   7.016 -1.2709  0.3580 -1.0995
 1037TIP3    H2 3994   8.513   1.563   7.072  0.1329  0.4746  1.9334
 1038TIP3   OH2 3995   9.909   6.308   5.448  0.2815  0.2524  0.7773
 1038TIP3    H1 3996   9.874   6.326   5.360  0.2681  0.5091  0.8324
 1038TIP3    H2 3997   9.877   6.381   5.501 -4.1121 -2.4238  2.2939
 1039TIP3   OH2 3998  10.616   9.534   1.118 -0.0041 -0.3443  0.2648
 1039TIP3    H1 3999  10.607   9.630   1.116  1.6175 -0.1657 -1.4303
 1039TIP3    H2 4000  10.542   9.503   1.066  0.7549  0.1774 -1.1930
 1040TIP3   OH2 4001  10.037   4.372   3.301  0.4696  0.3548  0.2000
 1040TIP3    H1 4002   9.963   4.429   3.277  0.1051  0.3020  1.1365
 1040TIP3    H2 4003  10.048   4.387   3.395 -1.4682 -3.1594  1.1716
 1041TIP3   OH2 4004   1.050  10.740   5.168 -0.2933  0.7505  0.9708
 1041TIP3    H1 4005   1.116  10.703   5.110 -0.2030 -1.4531  2.3801
 1041TIP3    H2 4006   0.967  10.715   5.127 -0.3195  2.4160 -0.1108
 1042TIP3   OH2 4007   3.801   1.316   5.908 -0.1639  0.2657  0.0584
 1042TIP3    H1 4008   3.764   1.301   5.995 -0.4893 -1.2122 -0.3057
 1042TIP3    H2 4009   3.834   1.406   5.911  0.9406 -0.1441  2.1050
 1043TIP3   OH2 4010   4.932   7.397   0.238 -0.0307  0.9711  0.0431
 1043TIP3    H1 4011   4.969   7.472   0.285 -2.2951  3.5869 -1.9924
 1043TIP3    H2 4012   4.844   7.387   0.272  0.0666 -0.4959 -0.0642
 1044TIP3   OH2 4013   0.632   9.260  10.107  0.0368  0.1705  0.1481
 1044TIP3    H1 4014   0.686   9.213  10.044  1.2825  1.1572  0.4303
 1044TIP3    H2 4015   0.622   9.198  10.180  0.2967 -0.2412 -0.1609
 1045TIP3   OH2 4016  10.095   4.596   9.906 -0.5833  0.0329  0.1189
 1045TIP3    H1 4017  10.107   4.518   9.960  2.0529  0.7687  0.6885
 1045TIP3    H2 4018  10.124   4.570   9.819 -2.0703 -0.2900 -0.3176
 1046TIP3   OH2 4019   2.320   5.012   7.485  0.3589 -0.0465 -0.6032
 1046TIP3    H1 4020   2.293   5.100   7.461 -1.3122 -0.2761  0.2337
 1046TIP3    H2 4021   2.395   5.025   7.544 -0.5247  0.9036  0.3706
 1047TIP3   OH2 4022   3.422   0.955   2.404 -0.3381 -0.8809 -0.0138
 1047TIP3    H1 4023   3.355   1.014   2.439 -0.7524  1.0231 -3.5605
 1047TIP3    H2 4024   3.495   0.962   2.467 -1.0752  2.0330  0.6709
 1048TIP3   OH2 4025   8.392   1.161   5.575 -0.2884  0.5230 -0.0866
 1048TIP3    H1 4026   8.441   1.206   5.506  0.2537 -0.1483 -0.1481
 1048TIP3    H2 4027   8.421   1.204   5.656 -1.2536  1.6061 -0.2991
 1049TIP3   OH2 4028   9.250   0.937   7.788 -0.0400  0.1172  0.4022
 1049TIP3    H1 4029   9.219   0.885   7.862 -0.6070 -0.5584 -0.2905
 1049TIP3    H2 4030   9.330   0.892   7.760 -0.2847 -0.1276  0.0853
 1050TIP3   OH2 4031   0.190   2.416   9.453 -0.1275 -0.5022  0.3238
 1050TIP3    H1 4032   0.141   2.486   9.496 -1.8856 -1.8997  0.7275
 1050TIP3    H2 4033   0.269   2.458   9.420  0.6358  0.9627  3.6089
 1051TIP3   OH2 4034   0.332   3.195   0.975 -0.1265 -0.1867 -0.4995
 1051TIP3    H1 4035   0.358   3.190   0.883 -0.8084 -0.1176 -0.7026
 1051TIP3    H2 4036   0.348   3.107   1.009 -1.4251 -0.6927 -1.1265
 1052TIP3   OH2 4037   4.815   8.287   8.105 -0.1741  0.1130 -0.0277
 1052TIP3    H1 4038   4.824   8.338   8.024  1.9744  1.9850  1.2990
 1052TIP3    H2 4039   4.722   8.295   8.128 -0.3567  1.4440 -1.1020
 1053TIP3   OH2 4040   7.452   1.496   9.021 -0.0631 -0.1436 -0.2336
 1053TIP3    H1 4041   7.416   1.408   9.019 -1.1518  0.2871 -0.1106
 1053TIP3    H2 4042   7.385   1.551   8.981  0.2006  0.7684  0.5334
 1054TIP3   OH2 4043   6.152   4.614   8.483 -0.0060  0.0898 -0.1261
 1054TIP3    H1 4044   6.099   4.694   8.487  0.1833  0.1841  0.5769
 1054TIP3    H2 4045   6.126   4.564   8.560  1.7971  0.7049  0.9320
 1055TIP3   OH2 4046   0.942   7.229   1.282 -0.0154  0.7983  0.0576
 1055TIP3    H1 4047   0.930   7.251   1.190 -0.9164  1.7317  0.3738
 1055TIP3    H2 4048   0.869   7.170   1.302  0.7422 -0.2085 -0.0568
 1056TIP3   OH2 4049   7.841   4.921   0.616  0.1708  0.7591  0.1894
 1056TIP3    H1 4050   7.780   4.955   0.681  1.1739 -1.6422  2.5599
 1056TIP3    H2 4051   7.811   4.832   0.598  1.2389  0.5970 -0.9262
 1057TIP3   OH2 4052   0.211  10.211   4.326 -0.1991  0.5191 -0.0107
 1057TIP3    H1 4053   0.177  10.153   4.258 -0.5127 -0.0755  0.6409
 1057TIP3    H2 4054   0.150  10.286   4.326 -1.5003 -0.4915  1.0781
 1058TIP3   OH2 4055  10.255  10.561   0.156  0.0632 -0.7079  0.4365
 1058TIP3    H1 4056  10.248  10.485   0.214 -1.6590 -1.1410 -0.2701
 1058TIP3    H2 4057  10.232  10.527   0.069 -0.0811  0.4810 -0.0089
 1059TIP3   OH2 4058   3.272   3.421   2.532 -0.4571 -0.1957  0.9255
 1059TIP3    H1 4059   3.278   3.501   2.584 -1.3160  0.2804  0.3027
 1059TIP3    H2 4060   3.255   3.451   2.443  1.6048 -0.9657  0.2131
 1060TIP3   OH2 4061   2.905   3.584   4.206  0.3817  0.3728  0.5685
 1060TIP3    H1 4062   2.823   3.619   4.169  0.0738 -0.0599  0.8303
 1060TIP3    H2 4063   2.903   3.610   4.298 -0.1401 -0.8192  0.9149
 1061TIP3   OH2 4064   5.830   0.407   9.709 -0.3248 -0.6096  0.3448
 1061TIP3    H1 4065   5.814   0.325   9.756  0.3859 -0.8806  0.1249
 1061TIP3    H2 4066   5.865   0.466   9.775 -2.6484  0.1792  0.9697
 1062TIP3   OH2 4067   0.453   9.558   8.950 -0.8483 -0.1410  0.0181
 1062TIP3    H1 4068   0.525   9.619   8.958 -1.6020  0.8684 -0.6142
 1062TIP3    H2 4069   0.470   9.512   8.868 -0.5235 -0.4576  0.2609
 1063TIP3   OH2 4070   3.383   3.037   4.010  0.1962 -0.1427  0.2074
 1063TIP3    H1 4071   3.379   3.131   3.996 -0.5877 -0.1184  0.5508
 1063TIP3    H2 4072   3.456   3.025   4.071  0.1458  0.2622  0.3499
 1064TIP3   OH2 4073   0.016   5.266   3.190  0.3078  0.8153  0.2596
 1064TIP3    H1 4074  -0.007   5.317   3.267 -1.3639  0.9429 -0.2885
 1064TIP3    H2 4075  -0.023   5.313   3.117  2.6859  1.2403 -0.8332
 1065TIP3   OH2 4076   6.443   0.420   0.177 -0.0197  0.9875  0.7623
 1065TIP3    H1 4077   6.439   0.473   0.098  1.5883  1.0013  0.6559
 1065TIP3    H2 4078   6.530   0.380   0.174 -0.2589  0.3278  2.0983
 1066TIP3   OH2 4079   1.432   0.446   3.534 -0.3544 -0.0348 -0.5155
 1066TIP3    H1 4080   1.511   0.468   3.485 -0.1361 -0.3580 -0.3116
 1066TIP3    H2 4081   1.361   0.458   3.471  0.0527 -2.0740 -1.4402
 1067TIP3   OH2 4082   3.219   8.969   2.815  0.0291  0.2125 -0.0076
 1067TIP3    H1 4083   3.135   8.930   2.840 -0.6233  1.9590  0.7013
 1067TIP3    H2 4084   3.209   8.990   2.723 -0.9575  1.8802  0.4466
 1068TIP3   OH2 4085   1.738   2.000  10.271  0.4508  0.5135 -0.1569
 1068TIP3    H1 4086   1.663   1.976  10.325 -0.2016 -0.7798 -1.5567
 1068TIP3    H2 4087   1.733   2.096  10.264 -0.8966  0.4727  0.0199
 1069TIP3   OH2 4088  10.410   8.520   2.228 -0.4036 -0.0293  0.0648
 1069TIP3    H1 4089  10.348   8.447   2.229 -0.9049  0.3897  0.0391
 1069TIP3    H2 4090  10.413   8.550   2.318  0.9392 -1.0110  0.3762
 1070TIP3   OH2 4091   9.586   4.210   6.052 -0.0079 -0.2108  0.3345
 1070TIP3    H1 4092   9.535   4.182   5.976  0.0580  1.4595 -0.3667
 1070TIP3    H2 4093   9.664   4.251   6.015 -0.9430  2.5529  1.1361
 1071TIP3   OH2 4094   0.463   0.867   1.114  0.0060 -0.2499  0.4088
 1071TIP3    H1 4095   0.535   0.917   1.075  0.1279 -1.5005 -1.0770
 1071TIP3    H2 4096   0.499   0.836   1.198  0.6647  0.3769  0.3715
 1072TIP3   OH2 4097   2.255   6.192   4.874 -0.1164 -0.1498 -0.8249
 1072TIP3    H1 4098   2.272   6.250   4.800  1.1362  1.3834  0.5802
 1072TIP3    H2 4099   2.210   6.248   4.938  0.7092 -0.8219  0.3917
 1073TIP3   OH2 4100   4.662  10.669   8.613  0.6184 -0.0320 -0.0401
 1073TIP3    H1 4101   4.567  10.663   8.605  0.7119  0.1750 -1.5687
 1073TIP3    H2 4102   4.677  10.690   8.706 -0.8284  0.1550  0.1738
 1074TIP3   OH2 4103   6.575  10.185   2.353 -0.7649  0.0546 -0.2802
 1074TIP3    H1 4104   6.604  10.215   2.267  1.0601  1.3316  0.7009
 1074TIP3    H2 4105   6.552  10.265   2.400 -2.2966 -0.6605  0.2720
 1075TIP3   OH2 4106   1.929   2.558   8.923  0.1535  0.0194 -0.4103
 1075TIP3    H1 4107   1.986   2.485   8.898  1.3148  0.2177  1.4560
 1075TIP3    H2 4108   1.840   2.526   8.904  0.5884 -2.0911  0.7462
 1076TIP3   OH2 4109  10.611   8.256   3.961  0.3450 -0.2569 -0.2355
 1076TIP3    H1 4110  10.530   8.210   3.982 -0.4956  1.4772  0.6113
 1076TIP3    H2 4111  10.677   8.217   4.019 -0.1432 -0.9273 -0.1208
 1077TIP3   OH2 4112   6.445   1.066   3.479  0.4621  0.3415  0.2076
 1077TIP3    H1 4113   6.403   1.152   3.470 -2.6059 -1.0261  0.2771
 1077TIP3    H2 4114   6.440   1.028   3.392  1.5246  0.0902  0.2489
 1078TIP3   OH2 4115  10.352   1.402   5.129 -0.0388  0.2449 -0.1765
 1078TIP3    H1 4116  10.360   1.318   5.176 -0.0015  1.0310  1.2777
 1078TIP3    H2 4117  10.303   1.458   5.189 -0.2627  1.2096 -1.2334
 1079TIP3   OH2 4118   8.373   6.640   7.154  0.4446 -0.0920  0.8251
 1079TIP3    H1 4119   8.282   6.631   7.126  0.0445 -0.9013  2.2745
 1079TIP3    H2 4120   8.421   6.577   7.100  0.7659  2.4672 -2.1933
 1080TIP3   OH2 4121  10.820   5.868  10.171 -0.3449  0.5660 -0.7725
 1080TIP3    H1 4122  10.777   5.855  10.086 -0.3993  2.0519 -1.0085
 1080TIP3    H2 4123  10.806   5.786  10.218 -0.8185 -0.0776 -1.9794
 1081TIP3   OH2 4124   8.774   9.123   4.211  0.0233  0.3083  0.0500
 1081TIP3    H1 4125   8.757   9.189   4.278  0.0757 -1.0585  1.4627
 1081TIP3    H2 4126   8.699   9.064   4.216  0.0745  0.1289 -1.0556
 1082TIP3   OH2 4127   8.802   0.717   6.961 -0.4389  0.0061 -0.3332
 1082TIP3    H1 4128   8.870   0.663   7.000 -0.5850  1.2496  1.7455
 1082TIP3    H2 4129   8.720   0.679   6.993 -0.5877  0.6660  0.0793
 1083TIP3   OH2 4130   9.380   3.755   8.155 -0.5680 -0.1859  0.3469
 1083TIP3    H1 4131   9.349   3.676   8.200 -1.2961 -0.3682 -0.4336
 1083TIP3    H2 4132   9.330   3.756   8.073 -0.3876  0.9593  0.2423
 1084TIP3   OH2 4133   3.269   9.824   7.141 -0.6154 -0.2256  0.3915
 1084TIP3    H1 4134   3.283   9.918   7.146 -0.3191 -0.2933  0.8339
 1084TIP3    H2 4135   3.357   9.786   7.138 -0.7117 -0.4148 -1.4214
 1085TIP3   OH2 4136   9.844   9.307   0.574  0.5591  0.4199 -0.2419
 1085TIP3    H1 4137   9.902   9.366   0.622 -0.9474  1.6443  0.1328
 1085TIP3    H2 4138   9.778   9.363   0.534 -0.0271 -0.8684 -1.1780
 1086TIP3   OH2 4139   0.055   8.586   9.267  0.0235  0.2147 -0.1474
 1086TIP3    H1 4140   0.094   8.533   9.337 -3.4015 -1.2981  0.8399
 1086TIP3    H2 4141   0.099   8.558   9.188  0.4050 -1.9588  0.7710
 1087TIP3   OH2 4142   5.915   4.260   4.979  0.0313 -0.5735 -0.2391
 1087TIP3    H1 4143   5.833   4.227   4.944 -0.0478  0.3696 -1.0004
 1087TIP3    H2 4144   5.980   4.195   4.954  0.3129  0.9230 -3.9149
 1088TIP3   OH2 4145   8.804   0.942   9.537  0.4448 -0.2378  0.3473
 1088TIP3    H1 4146   8.728   0.928   9.480  0.3851 -1.1082  0.6308
 1088TIP3    H2 4147   8.839   0.854   9.553  1.1668  0.1054  0.6912
 1089TIP3   OH2 4148   3.136   7.382   6.969  0.4669 -0.2931  0.1128
 1089TIP3    H1 4149   3.100   7.378   7.058  1.0569  1.1508  0.4476
 1089TIP3    H2 4150   3.213   7.325   6.972  1.4183  0.9825  1.0193
 1090TIP3   OH2 4151   5.642   4.863   0.254 -0.8370 -0.2707 -0.7711
 1090TIP3    H1 4152   5.737   4.867   0.268 -0.9657 -1.2120  0.5295
 1090TIP3    H2 4153   5.631   4.795   0.187 -0.6025 -0.3583 -0.7226
 1091TIP3   OH2 4154   9.882   0.518   8.746 -0.0263 -0.0907 -0.6600
 1091TIP3    H1 4155   9.915   0.475   8.825 -3.5550 -1.5504  0.2481
 1091TIP3    H2 4156   9.834   0.594   8.779 -0.4778 -0.0068 -1.4901
 1092TIP3   OH2 4157   0.916   0.214   7.054  0.3870 -0.2208 -0.2018
 1092TIP3    H1 4158   0.998   0.264   7.049 -0.2810  0.9738  0.3644
 1092TIP3    H2 4159   0.888   0.224   7.145 -1.6014  1.3981 -0.9429
 1093TIP3   OH2 4160   9.337   2.776   2.539 -0.6854  0.0083 -0.1646
 1093TIP3    H1 4161   9.396   2.791   2.466 -0.0373 -0.4678  0.2482
 1093TIP3    H2 4162   9.266   2.839   2.526 -0.5824 -0.0792 -1.1947
 1094TIP3   OH2 4163   1.539   6.490   4.957 -0.1766  0.5645 -0.5813
 1094TIP3    H1 4164   1.492   6.415   4.993  1.1879 -0.3699 -0.6743
 1094TIP3    H2 4165   1.491   6.512   4.877 -1.9624  1.3124  0.6445
 1095TIP3   OH2 4166   0.092  10.417   1.448 -0.2040  0.0912 -0.2054
 1095TIP3    H1 4167   0.044  10.357   1.391  2.3602 -1.4449 -0.8925
 1095TIP3    H2 4168   0.151  10.362   1.498 -0.1255  1.7532  1.6661
 1096TIP3   OH2 4169   3.665   6.987   0.303 -0.5858 -0.3903 -0.1479
 1096TIP3    H1 4170   3.600   6.957   0.239 -0.5351  1.4165 -1.1221
 1096TIP3    H2 4171   3.747   6.947   0.274 -0.3977  1.0714 -1.7835
 1097TIP3   OH2 4172   2.299   6.368   2.435 -0.4198 -0.0110 -0.0747
 1097TIP3    H1 4173   2.339   6.404   2.514  0.9313  0.1156 -0.7841
 1097TIP3    H2 4174   2.322   6.275   2.438  1.6061  0.3888 -1.4060
 1098TIP3   OH2 4175   0.717   9.729   1.191 -0.4752 -0.0856 -0.1261
 1098TIP3    H1 4176   0.678   9.781   1.120 -1.0108  0.9553  0.8940
 1098TIP3    H2 4177   0.648   9.724   1.257 -0.2396 -1.6768  0.0272
 1099TIP3   OH2 4178   7.015   0.927   3.515  0.1548  1.0470 -0.8015
 1099TIP3    H1 4179   7.084   0.870   3.481  0.9332  0.5207  1.5003
 1099TIP3    H2 4180   7.050   1.015   3.506  1.4428  0.7460  0.9015
 1100TIP3   OH2 4181   3.214   4.277   0.918  0.6078 -0.1915  0.9653
 1100TIP3    H1 4182   3.303   4.271   0.952  0.7635 -1.3298  0.4230
 1100TIP3    H2 4183   3.188   4.368   0.932  3.4438  1.4574 -2.7321
 1101TIP3   OH2 4184   0.997   5.723   3.014  0.8535 -0.2049  0.4294
 1101TIP3    H1 4185   0.941   5.654   2.977  2.5353 -0.8271 -1.0998
 1101TIP3    H2 4186   0.953   5.805   2.991 -0.3268 -0.6945  0.8404
 1102TIP3   OH2 4187   5.341   9.929   4.352 -0.1037  0.2012  0.7514
 1102TIP3    H1 4188   5.422   9.959   4.393  0.0269  2.4733 -0.9691
 1102TIP3    H2 4189   5.370   9.871   4.281  0.1215  1.5922 -0.3335
 1103TIP3   OH2 4190   3.314   4.639   5.911  0.4041  0.6220  0.5051
 1103TIP3    H1 4191   3.283   4.589   5.836  0.0210  0.5334  0.7196
 1103TIP3    H2 4192   3.387   4.691   5.878 -0.2935  1.2190 -0.1180
 1104TIP3   OH2 4193   1.211   9.465   2.875  0.6778 -0.5953  0.2942
 1104TIP3    H1 4194   1.230   9.461   2.969  1.3394 -0.2079  0.1862
 1104TIP3    H2 4195   1.223   9.375   2.845  1.9560 -0.4484  0.3192
 1105TIP3   OH2 4196   1.811   3.740   5.650 -0.3274 -0.4151 -0.2165
 1105TIP3    H1 4197   1.760   3.788   5.586 -2.1588 -0.0139  1.4487
 1105TIP3    H2 4198   1.750   3.722   5.721  1.5409 -1.0453  1.3269
 1106TIP3   OH2 4199   9.352   7.244   9.238 -0.0220  0.3905 -0.1586
 1106TIP3    H1 4200   9.333   7.175   9.173  0.3033 -0.7892  0.9586
 1106TIP3    H2 4201   9.431   7.214   9.282  1.5161  2.6536 -1.1769
 1107TIP3   OH2 4202   0.115   5.022   1.314 -0.1775 -0.2185  0.1582
 1107TIP3    H1 4203   0.189   5.034   1.373 -0.0299 -1.1955  0.1868
 1107TIP3    H2 4204   0.068   5.105   1.318  1.6909  0.9616 -0.9699
 1108TIP3   OH2 4205   4.255   5.613   9.439 -0.3835 -0.1436  0.2968
 1108TIP3    H1 4206   4.279   5.600   9.347 -0.8630 -1.9794  0.3853
 1108TIP3    H2 4207   4.190   5.545   9.457  0.6680 -0.6994  2.3417
 1109TIP3   OH2 4208   8.356   9.367   7.859  0.1070  0.0275  0.1280
 1109TIP3    H1 4209   8.450   9.387   7.863  0.0221  0.6812 -0.8666
 1109TIP3    H2 4210   8.351   9.273   7.874  1.0622 -0.2701 -1.2481
 1110TIP3   OH2 4211   0.210   0.719   1.645  0.0558 -0.0907 -0.0818
 1110TIP3    H1 4212   0.220   0.654   1.575  0.6287  2.4786 -2.5318
 1110TIP3    H2 4213   0.121   0.753   1.633  0.3890  0.8232  0.0101
 1111TIP3   OH2 4214   7.494   8.120   6.923  0.2239  0.1081  0.0054
 1111TIP3    H1 4215   7.545   8.039   6.928  0.8132  0.5243  1.2148
 1111TIP3    H2 4216   7.474   8.130   6.830  1.9008 -0.3428 -0.4382
 1112TIP3   OH2 4217   0.352   3.594   7.415 -0.5568 -0.0816  0.4085
 1112TIP3    H1 4218   0.421   3.627   7.472 -0.5692  0.9544 -0.1589
 1112TIP3    H2 4219   0.384   3.610   7.326 -0.9748 -0.7625  0.1252
 1113TIP3   OH2 4220   7.329   8.288   1.046 -0.2181 -0.1466 -0.2953
 1113TIP3    H1 4221   7.306   8.208   0.999  1.4448 -1.5884  1.1671
 1113TIP3    H2 4222   7.386   8.337   0.986  1.0494 -1.4597 -0.2175
 1114TIP3   OH2 4223   6.395  10.426   2.510  0.8424  0.7372 -0.2622
 1114TIP3    H1 4224   6.337  10.365   2.555  0.7177  1.4253  0.5182
 1114TIP3    H2 4225   6.359  10.432   2.421  0.6852 -0.0837 -0.2617
 1115TIP3   OH2 4226   7.334   4.065   9.658  0.2166 -0.0883  0.4227
 1115TIP3    H1 4227   7.409   4.116   9.691  0.5284 -0.1166 -0.2271
 1115TIP3    H2 4228   7.278   4.131   9.617  0.3249 -0.1825  0.1201
 1116TIP3   OH2 4229   2.757   8.985   3.500 -0.4135  0.0325  0.2740
 1116TIP3    H1 4230   2.739   8.936   3.580  0.6221 -0.2885  0.3307
 1116TIP3    H2 4231   2.809   9.060   3.528  1.4585 -0.9966 -0.2519
 1117TIP3   OH2 4232   5.768   6.041   6.137  0.4295  0.2009 -0.1600
 1117TIP3    H1 4233   5.777   5.946   6.143  1.1407  0.2928  0.4018
 1117TIP3    H2 4234   5.784   6.072   6.226 -0.8109  0.7794 -0.1201
 1118TIP3   OH2 4235   1.903  10.492   3.252  0.1683 -0.3195  0.2250
 1118TIP3    H1 4236   1.888  10.435   3.327 -1.0640  1.6445  1.5355
 1118TIP3    H2 4237   1.973  10.551   3.280  0.6361 -0.4141 -0.6987
 1119TIP3   OH2 4238   4.919   8.073   5.262  0.0655 -0.5420 -0.8902
 1119TIP3    H1 4239   4.917   8.035   5.350  2.9219 -0.5504 -0.7315
 1119TIP3    H2 4240   4.827   8.085   5.239 -0.8357 -2.7874  1.0997
 1120TIP3   OH2 4241   1.347   3.712   5.255 -0.2088 -0.1140 -0.2324
 1120TIP3    H1 4242   1.303   3.762   5.187 -1.0126  1.2349  1.2083
 1120TIP3    H2 4243   1.322   3.755   5.337  0.9271 -1.5048  0.9131
 1121TIP3   OH2 4244   6.809   5.177   6.406  0.2041  0.3681 -0.1985
 1121TIP3    H1 4245   6.814   5.179   6.310 -0.2735  3.0854 -0.2566
 1121TIP3    H2 4246   6.737   5.236   6.427 -1.2756 -1.9996  1.8280
 1122TIP3   OH2 4247   3.928   5.510   8.271  0.0542 -0.1268  0.0269
 1122TIP3    H1 4248   3.980   5.505   8.190  1.3387  0.9878  0.7274
 1122TIP3    H2 4249   3.838   5.521   8.242  0.2357 -1.6419 -1.2447
 1123TIP3   OH2 4250   9.602   0.978   1.750 -0.2869  0.6809 -0.4802
 1123TIP3    H1 4251   9.550   1.044   1.703  3.9097  1.6736 -4.3575
 1123TIP3    H2 4252   9.582   0.896   1.705 -1.7047  0.1337  1.0372
 1124TIP3   OH2 4253   4.866   2.212   6.027  0.2057  0.4606  0.6083
 1124TIP3    H1 4254   4.940   2.182   6.080  0.1057  0.1850  0.5955
 1124TIP3    H2 4255   4.903   2.276   5.967  0.6840 -0.6273 -0.2772
 1125TIP3   OH2 4256   2.486   5.290   2.698  0.5185 -0.5008 -0.3197
 1125TIP3    H1 4257   2.514   5.350   2.767  1.4707 -0.6503 -0.5686
 1125TIP3    H2 4258   2.472   5.206   2.742 -0.2428 -0.2541 -0.0741
 1126TIP3   OH2 4259   7.751   1.788   7.521  0.3729 -0.3577 -0.7643
 1126TIP3    H1 4260   7.765   1.717   7.584  1.1867  0.3123 -0.1479
 1126TIP3    H2 4261   7.794   1.864   7.562 -1.1048  0.6807 -1.0554
 1127TIP3   OH2 4262   0.453   7.689   5.572 -0.4823 -0.2310  0.0329
 1127TIP3    H1 4263   0.386   7.727   5.630  0.0207  1.9219 -0.6857
 1127TIP3    H2 4264   0.532   7.688   5.624 -0.3428  0.4063 -0.1535
 1128TIP3   OH2 4265   2.235   6.454   8.476 -0.2319 -0.2757 -0.3520
 1128TIP3    H1 4266   2.250   6.403   8.396  2.1734  0.5820 -0.5385
 1128TIP3    H2 4267   2.301   6.422   8.537 -0.0676  1.1164  0.2362
 1129TIP3   OH2 4268   8.989   8.770   6.012 -0.1110 -0.1709  0.2366
 1129TIP3    H1 4269   9.016   8.695   6.064  0.3688 -0.2319 -0.0941
 1129TIP3    H2 4270   8.915   8.738   5.960  0.4890 -0.5920 -0.3616
 1130TIP3   OH2 4271  10.439   6.050   6.997 -0.2579  0.6938 -0.2950
 1130TIP3    H1 4272  10.455   6.058   6.903 -0.2797  0.7639 -0.2924
 1130TIP3    H2 4273  10.523   6.021   7.033 -1.3134 -3.8238 -0.8976
 1131TIP3   OH2 4274   4.617   7.594   2.615 -0.3119  0.0105 -0.4993
 1131TIP3    H1 4275   4.597   7.602   2.522 -2.7733 -0.1907 -0.0705
 1131TIP3    H2 4276   4.614   7.500   2.633  0.4740  0.0240 -0.2724
 1132TIP3   OH2 4277   4.348   8.795   4.174  0.2771  0.4166 -0.3637
 1132TIP3    H1 4278   4.270   8.811   4.121 -0.0159  1.8282  0.4252
 1132TIP3    H2 4279   4.314   8.773   4.261  0.7528 -1.2660 -0.5768
 1133TIP3   OH2 4280   5.531   7.535   6.576 -0.1189 -0.1015  0.2866
 1133TIP3    H1 4281   5.533   7.535   6.672 -2.0839  1.9910  0.4141
 1133TIP3    H2 4282   5.615   7.574   6.551  0.0386  0.1973  1.2143
 1134TIP3   OH2 4283   9.307   6.932   2.785  0.0288  0.0663  0.5036
 1134TIP3    H1 4284   9.245   6.948   2.714 -1.5580  0.8069  1.9652
 1134TIP3    H2 4285   9.277   6.850   2.824 -1.0973  1.2151  2.2006
 1135TIP3   OH2 4286   8.095   1.054  10.710  0.0499  0.4574 -0.3858
 1135TIP3    H1 4287   8.185   1.065  10.680 -0.7994 -0.0092 -3.4842
 1135TIP3    H2 4288   8.066   0.973  10.667 -1.7357  0.4071  0.8201
 1136TIP3   OH2 4289   4.564   4.774  10.895 -0.3422  1.6210 -0.2501
 1136TIP3    H1 4290   4.628   4.737  10.834 -0.7911  1.0013 -0.3492
 1136TIP3    H2 4291   4.564   4.868  10.875 -0.4314  1.4330 -1.1513
 1137TIP3   OH2 4292   2.882   3.169   4.318 -0.0772  0.4485 -0.2237
 1137TIP3    H1 4293   2.931   3.193   4.396 -1.9669  2.8013  0.3497
 1137TIP3    H2 4294   2.905   3.235   4.253  0.6800 -0.8855 -1.3866
 1138TIP3   OH2 4295   8.531   8.333   9.414 -0.1343 -0.6330  0.6126
 1138TIP3    H1 4296   8.615   8.319   9.371 -0.6392 -1.1072 -0.2375
 1138TIP3    H2 4297   8.504   8.421   9.386 -0.4768 -0.9540 -0.0567
 1139TIP3   OH2 4298   7.144   7.418   9.727 -0.1008 -0.7719 -0.1558
 1139TIP3    H1 4299   7.166   7.330   9.697  2.4602  0.5636 -2.5985
 1139TIP3    H2 4300   7.193   7.430   9.808  0.3224 -1.2441 -0.3446
 1140TIP3   OH2 4301  10.609   5.169   8.706 -0.2198  0.0681 -0.1721
 1140TIP3    H1 4302  10.695   5.139   8.677  0.2648  0.8811  0.3670
 1140TIP3    H2 4303  10.559   5.089   8.721  1.1730 -0.5257  1.7067
 1141TIP3   OH2 4304   3.661   7.794   8.096  0.3260 -0.2588  0.4712
 1141TIP3    H1 4305   3.607   7.799   8.018  3.3211  1.5556 -1.6765
 1141TIP3    H2 4306   3.648   7.878   8.140  2.0765  0.6717 -0.6667
 1142TIP3   OH2 4307   7.227   9.181   0.989  0.0785  0.4003 -0.0076
 1142TIP3    H1 4308   7.211   9.248   1.055 -2.6232 -0.3086  0.1881
 1142TIP3    H2 4309   7.204   9.099   1.032  3.0993 -0.7345 -0.3099
 1143TIP3   OH2 4310   2.199   8.536   9.383 -0.0406  0.0019 -1.0410
 1143TIP3    H1 4311   2.161   8.449   9.391  0.7143 -0.1969  0.9112
 1143TIP3    H2 4312   2.261   8.542   9.456  1.7671  1.2609 -2.6097
 1144TIP3   OH2 4313  10.797   4.140   3.689 -0.3479 -0.1893  0.0528
 1144TIP3    H1 4314  10.750   4.068   3.731  0.0011 -0.3120  0.2316
 1144TIP3    H2 4315  10.871   4.098   3.645 -1.6794 -0.3270 -2.2244
 1145TIP3   OH2 4316   8.554  10.504   7.238 -0.3266 -0.0704  0.2617
 1145TIP3    H1 4317   8.600  10.420   7.235 -1.2655 -0.6522  1.3178
 1145TIP3    H2 4318   8.618  10.568   7.207  0.0739 -1.2923 -1.6354
 1146TIP3   OH2 4319   6.016   7.753   3.315 -0.3093  0.0019  0.2834
 1146TIP3    H1 4320   6.108   7.747   3.293  0.0487 -2.5244  2.0167
 1146TIP3    H2 4321   5.992   7.843   3.295  2.0348  0.2276 -1.9081
 1147TIP3   OH2 4322   0.290   5.085   6.634 -0.4651  0.3489 -0.0452
 1147TIP3    H1 4323   0.352   5.015   6.615  0.3026  0.9025  0.3498
 1147TIP3    H2 4324   0.307   5.151   6.567 -1.8079 -0.1994 -0.9737
 1148TIP3   OH2 4325   1.420  10.622   9.116 -0.1781  0.5633  0.2706
 1148TIP3    H1 4326   1.405  10.534   9.152  0.8671  0.8337  1.4051
 1148TIP3    H2 4327   1.504  10.649   9.152 -0.1043  1.7245 -0.7054
 1149TIP3   OH2 4328   3.054  10.597   5.195  0.8935 -0.1823  0.1106
 1149TIP3    H1 4329   3.026  10.527   5.137  3.1539 -2.5681  1.6764
 1149TIP3    H2 4330   3.095  10.661   5.137 -1.6543  0.1990 -1.4138
 1150TIP3   OH2 4331   2.751   6.909   4.622 -0.0282 -0.2693 -0.1331
 1150TIP3    H1 4332   2.729   6.855   4.698 -0.7884 -0.6254 -0.5914
 1150TIP3    H2 4333   2.719   6.858   4.547 -2.6187  1.6606 -0.4823
 1151TIP3   OH2 4334   9.955   1.361   3.154 -0.3170 -0.3200  0.5211
 1151TIP3    H1 4335   9.885   1.297   3.148 -0.8396  0.2882 -0.0502
 1151TIP3    H2 4336   9.916   1.435   3.202 -0.2941  0.3046 -0.4061
 1152TIP3   OH2 4337   4.409   1.036   9.274  0.4773  0.1268  0.4428
 1152TIP3    H1 4338   4.354   1.046   9.351  1.0206 -0.5777  0.9379
 1152TIP3    H2 4339   4.357   0.984   9.213  0.3285  0.0576  0.6296
 1153TIP3   OH2 4340   2.917   6.184   7.910  0.4522 -0.4526  0.2714
 1153TIP3    H1 4341   2.900   6.253   7.973 -0.2534 -0.3669  0.0011
 1153TIP3    H2 4342   2.998   6.142   7.940  1.6706  1.3731 -0.3367
 1154TIP3   OH2 4343   8.581   9.395   5.241  0.2522 -0.5594 -0.0499
 1154TIP3    H1 4344   8.561   9.468   5.183 -0.7829 -0.8152 -0.0316
 1154TIP3    H2 4345   8.665   9.362   5.210  0.2757  0.0445 -0.6495
 1155TIP3   OH2 4346   3.775  10.583   9.637 -0.5239  0.0901 -0.4922
 1155TIP3    H1 4347   3.814  10.496   9.632 -1.7980 -0.4713 -1.5442
 1155TIP3    H2 4348   3.681  10.567   9.626 -0.9381  1.4804  0.7048
 1156TIP3   OH2 4349   8.337   1.239   8.233  0.0319 -0.4143 -0.4705
 1156TIP3    H1 4350   8.311   1.254   8.324 -0.7772  2.6111 -1.0938
 1156TIP3    H2 4351   8.274   1.176   8.200 -2.4768  1.7336 -0.0682
 1157TIP3   OH2 4352   1.566   1.064   1.190  0.1443  0.5256  0.5608
 1157TIP3    H1 4353   1.572   1.024   1.103 -2.4256 -0.2463  0.6640
 1157TIP3    H2 4354   1.626   1.139   1.186  3.8564 -2.2044 -0.2105
 1158TIP3   OH2 4355   2.327  10.664   0.748  0.2688 -0.2628 -0.2316
 1158TIP3    H1 4356   2.248  10.686   0.698  0.7981 -0.4514 -1.1723
 1158TIP3    H2 4357   2.377  10.746   0.750  0.1451 -0.1971  0.1855
 1159TIP3   OH2 4358  10.489  10.236   1.228 -0.1106 -0.2759  0.5182
 1159TIP3    H1 4359  10.507  10.191   1.145  3.0816 -0.2786  1.1101
 1159TIP3    H2 4360  10.448  10.169   1.283 -0.3743 -0.8669 -0.3658
 1160TIP3   OH2 4361   9.776   3.445   4.822 -0.4526 -0.0090 -0.8558
 1160TIP3    H1 4362   9.841   3.392   4.868 -1.4030 -0.1751  0.3889
 1160TIP3    H2 4363   9.763   3.401   4.738 -0.1974 -0.9598 -0.4146
 1161TIP3   OH2 4364  10.296   7.723   2.548  0.2875 -0.2611  0.1238
 1161TIP3    H1 4365  10.207   7.750   2.524  0.6242  0.8498  0.0783
 1161TIP3    H2 4366  10.311   7.643   2.497  0.1713  0.8351 -1.7023
 1162TIP3   OH2 4367   4.936   1.377   7.228  0.0619  0.0266 -0.2412
 1162TIP3    H1 4368   5.030   1.378   7.212 -0.0359 -1.7909 -1.0816
 1162TIP3    H2 4369   4.908   1.288   7.207 -2.0514  0.8418 -1.2439
 1163TIP3   OH2 4370   2.677   6.851   0.683  0.2029 -0.2328  0.2326
 1163TIP3    H1 4371   2.641   6.814   0.603  0.2904  0.6962 -0.2485
 1163TIP3    H2 4372   2.683   6.777   0.744  2.4928 -1.5238 -1.4129
 1164TIP3   OH2 4373  10.592  10.710   8.201 -0.5831  0.5528  0.2923
 1164TIP3    H1 4374  10.546  10.789   8.171 -1.5638 -0.1322 -0.0459
 1164TIP3    H2 4375  10.539  10.677   8.274 -0.0025  0.3751  0.6441
 1165TIP3   OH2 4376   7.252   1.483   1.573 -0.5771 -0.0062 -0.3393
 1165TIP3    H1 4377   7.288   1.434   1.647 -0.4999 -0.0281 -0.3907
 1165TIP3    H2 4378   7.159   1.461   1.572 -0.3620 -0.9296 -0.9562
 1166TIP3   OH2 4379   8.556   0.611  10.708  0.0767 -1.5225 -0.5268
 1166TIP3    H1 4380   8.492   0.541  10.700  0.3665 -1.8805  0.1423
 1166TIP3    H2 4381   8.505   0.688  10.735 -0.0669 -1.8282  0.0909
 1167TIP3   OH2 4382   7.990   2.650   6.475  0.1612 -0.0738 -1.1557
 1167TIP3    H1 4383   8.015   2.558   6.467 -1.0226 -0.8450  2.1391
 1167TIP3    H2 4384   8.065   2.699   6.442  1.4806 -2.2283 -1.5356
 1168TIP3   OH2 4385   7.729   7.766   3.840  0.2104 -0.5181  0.1374
 1168TIP3    H1 4386   7.792   7.710   3.796  0.8203  0.3094 -0.0622
 1168TIP3    H2 4387   7.711   7.836   3.778  0.2760  0.0829  0.7814
 1169TIP3   OH2 4388   5.996   8.223   9.367 -0.5823 -0.1668  0.2055
 1169TIP3    H1 4389   6.017   8.237   9.275 -0.8347 -0.6738  0.0664
 1169TIP3    H2 4390   6.048   8.288   9.414  0.8223 -0.9770 -0.1725
 1170TIP3   OH2 4391  10.609   7.764   4.576 -0.1860 -0.3406  0.7699
 1170TIP3    H1 4392  10.633   7.687   4.626  0.3511 -0.9664 -0.4191
 1170TIP3    H2 4393  10.688   7.818   4.574  0.9387 -1.8714 -2.1687
 1171TIP3   OH2 4394   2.136  10.546   1.310 -0.1417  0.2548  0.5695
 1171TIP3    H1 4395   2.177  10.481   1.366  0.1752 -0.4115 -0.3996
 1171TIP3    H2 4396   2.054  10.568   1.353  1.4754  2.1289  2.9386
 1172TIP3   OH2 4397   9.892   2.246   3.744 -0.6686  0.6478 -0.1459
 1172TIP3    H1 4398   9.903   2.313   3.676 -1.7682 -0.5427 -1.5749
 1172TIP3    H2 4399   9.841   2.177   3.701  0.9746 -1.4272  1.0319
 1173TIP3   OH2 4400   5.853   9.876   8.828 -0.1133 -0.2044 -0.3868
 1173TIP3    H1 4401   5.776   9.821   8.817 -0.7339  0.4681  0.5050
 1173TIP3    H2 4402   5.820   9.966   8.820  0.6852  0.0768 -0.6257
 1174TIP3   OH2 4403   0.277   1.760   2.215  0.0058 -0.1640  0.3655
 1174TIP3    H1 4404   0.289   1.852   2.193  0.3018 -0.0813  0.8549
 1174TIP3    H2 4405   0.366   1.726   2.224 -0.1014 -0.2393  1.2313
 1175TIP3   OH2 4406   8.648   3.773  10.551  0.2064  0.2909  0.1787
 1175TIP3    H1 4407   8.595   3.815  10.619 -0.0797  1.8893 -0.9672
 1175TIP3    H2 4408   8.736   3.767  10.590  0.2119  1.8218  0.4675
 1176TIP3   OH2 4409   4.188   9.197   7.788  0.2396  0.4125  0.0404
 1176TIP3    H1 4410   4.263   9.193   7.848  1.3761 -0.4123 -1.3763
 1176TIP3    H2 4411   4.222   9.242   7.710 -1.1625  1.3330 -0.0735
 1177TIP3   OH2 4412   0.623   7.790   4.344 -0.0562 -0.5791  0.0922
 1177TIP3    H1 4413   0.543   7.739   4.332  0.3636 -0.9956 -1.1118
 1177TIP3    H2 4414   0.594   7.881   4.338 -0.3735 -0.7308 -0.9623
 1178TIP3   OH2 4415   0.924   0.477   9.105 -0.4320  0.0900  0.6193
 1178TIP3    H1 4416   0.980   0.429   9.166  1.5135  1.6546  0.1839
 1178TIP3    H2 4417   0.846   0.422   9.096  0.6626 -1.8123  1.8887
 1179TIP3   OH2 4418   8.039  10.369   4.807  0.0040 -0.2876  0.0210
 1179TIP3    H1 4419   8.029  10.405   4.719  0.8312 -0.6308 -0.2232
 1179TIP3    H2 4420   8.134  10.368   4.821 -0.0561 -1.5299  0.3698
 1180TIP3   OH2 4421   1.899  10.596   9.967 -0.0084  0.4917 -0.5815
 1180TIP3    H1 4422   1.953  10.670   9.993 -0.1125  0.7216 -1.0183
 1180TIP3    H2 4423   1.962  10.526   9.948  0.1401  0.7610 -1.0962
 1181TIP3   OH2 4424   7.213   5.530   5.596  0.2439 -0.3478 -0.8248
 1181TIP3    H1 4425   7.227   5.605   5.539  0.0087 -0.7127 -1.3742
 1181TIP3    H2 4426   7.242   5.559   5.683 -2.1704  1.2277 -0.4667
 1182TIP3   OH2 4427   9.194   4.115   2.966 -0.5768 -0.2599 -0.5873
 1182TIP3    H1 4428   9.244   4.191   2.935 -1.9531  0.6011 -0.7971
 1182TIP3    H2 4429   9.190   4.057   2.890  0.8558 -0.7702 -0.2984
 1183TIP3   OH2 4430  10.741   7.284   7.583 -0.6727  0.1864  0.2011
 1183TIP3    H1 4431  10.735   7.380   7.592  3.2935  0.9323 -2.4373
 1183TIP3    H2 4432  10.701   7.266   7.498 -0.8942 -0.4599  0.4393
 1184TIP3   OH2 4433   9.977   2.067   6.502 -0.2380  0.7223  0.1238
 1184TIP3    H1 4434   9.882   2.081   6.502 -0.1617  1.2387  0.6233
 1184TIP3    H2 4435   9.989   1.990   6.557 -0.3397  0.8216  0.2851
 1185TIP3   OH2 4436   0.718  10.425   1.957  0.5000  0.2409 -0.0884
 1185TIP3    H1 4437   0.761  10.404   2.039  0.3767  2.9135  0.7577
 1185TIP3    H2 4438   0.627  10.442   1.981  0.2749  0.2304 -0.9017
 1186TIP3   OH2 4439   6.061   2.103   5.854  0.1127 -0.4720 -0.4222
 1186TIP3    H1 4440   6.060   2.035   5.786  2.3513  0.0930 -1.1046
 1186TIP3    H2 4441   6.128   2.164   5.825 -2.1991  2.4183 -0.1395
 1187TIP3   OH2 4442   9.354   6.714   8.762 -0.4879 -0.1908  0.2809
 1187TIP3    H1 4443   9.443   6.694   8.789 -0.4437  0.1759  0.4198
 1187TIP3    H2 4444   9.365   6.760   8.678 -0.3808  1.9216  1.3810
 1188TIP3   OH2 4445   0.906   4.704   0.928 -0.2762 -0.2212  0.2985
 1188TIP3    H1 4446   0.992   4.685   0.890 -1.0893 -1.9208 -0.7934
 1188TIP3    H2 4447   0.925   4.759   1.004  1.5073  2.4079 -1.8775
 1189TIP3   OH2 4448   9.804   7.966   6.638  0.8765  0.3438 -0.6989
 1189TIP3    H1 4449   9.737   8.035   6.639  0.5598  0.0490 -1.0775
 1189TIP3    H2 4450   9.796   7.926   6.552  1.0069 -0.2176 -0.4568
 1190TIP3   OH2 4451   3.023  10.477   7.857  0.7293  0.1465 -0.4925
 1190TIP3    H1 4452   3.117  10.463   7.855  0.8413  0.8975 -0.5732
 1190TIP3    H2 4453   2.998  10.464   7.949  0.9648  0.3209 -0.4051
 1191TIP3   OH2 4454   0.750   0.737   5.950  0.7870 -0.1533 -0.0921
 1191TIP3    H1 4455   0.779   0.647   5.944  1.6577  0.1306 -0.2394
 1191TIP3    H2 4456   0.775   0.764   6.039  2.7141  0.6650 -0.8355
 1192TIP3   OH2 4457  10.377   0.415   3.497  0.4557 -0.2793  0.1540
 1192TIP3    H1 4458  10.420   0.474   3.559 -0.0543  0.0288  0.2231
 1192TIP3    H2 4459  10.345   0.343   3.550  0.7680 -0.4467  0.1201
 1193TIP3   OH2 4460   7.071   6.345   5.846  0.4125 -0.3517  0.3330
 1193TIP3    H1 4461   7.149   6.333   5.901 -0.7789 -4.3869  1.4351
 1193TIP3    H2 4462   7.101   6.324   5.758  1.0977  0.6625  0.3056
 1194TIP3   OH2 4463   0.798   5.261   1.701 -0.1930  0.2242  0.2200
 1194TIP3    H1 4464   0.802   5.310   1.783  0.8192  0.1311  0.2448
 1194TIP3    H2 4465   0.857   5.309   1.642  0.7142 -0.8653  0.2059
 1195TIP3   OH2 4466   0.088   2.124   6.669  0.0109  0.1124  0.7592
 1195TIP3    H1 4467   0.078   2.031   6.648  1.7782  0.2808 -1.1312
 1195TIP3    H2 4468   0.095   2.126   6.765 -1.9023 -1.4563  1.0062
 1196TIP3   OH2 4469   9.604   7.065   4.384 -0.0633  0.2728 -0.9416
 1196TIP3    H1 4470   9.542   7.134   4.359 -0.5698  0.9309  1.7448
 1196TIP3    H2 4471   9.551   7.003   4.435  1.2416  0.2524  0.4502
 1197TIP3   OH2 4472   3.792   3.591   1.579 -0.6853 -0.5251 -0.3168
 1197TIP3    H1 4473   3.851   3.615   1.508  0.1564  1.3458  0.9287
 1197TIP3    H2 4474   3.704   3.609   1.544 -0.3064  0.0364 -1.0163
 1198TIP3   OH2 4475   3.636   4.544   2.629 -0.1068 -0.7248 -0.2057
 1198TIP3    H1 4476   3.613   4.534   2.537  0.0401  0.1048 -0.3317
 1198TIP3    H2 4477   3.724   4.579   2.628  0.0738 -1.1566  0.2605
 1199TIP3   OH2 4478   3.320   1.148  10.480  0.4925  0.5482  0.0224
 1199TIP3    H1 4479   3.395   1.094  10.454 -1.1674 -1.0972 -1.5655
 1199TIP3    H2 4480   3.338   1.170  10.571  3.1210  0.6118 -0.4164
 1200TIP3   OH2 4481   5.146   0.447   8.626 -0.0337 -0.1781 -0.2745
 1200TIP3    H1 4482   5.115   0.391   8.697 -0.1587  0.7605  0.4166
 1200TIP3    H2 4483   5.197   0.515   8.669 -2.4953  2.0973 -0.7558
 1201TIP3   OH2 4484   0.809   2.385  10.289 -0.2245 -0.6562  0.0384
 1201TIP3    H1 4485   0.753   2.368  10.365  1.4173  0.4688  1.6204
 1201TIP3    H2 4486   0.886   2.429  10.326  0.5415  0.1812 -2.3371
 1202TIP3   OH2 4487   7.632   4.661   0.208  0.4187 -0.0521  0.2748
 1202TIP3    H1 4488   7.601   4.603   0.277 -0.0209  0.0609  0.1767
 1202TIP3    H2 4489   7.704   4.710   0.248  0.6565 -0.5162  0.4209
 1203TIP3   OH2 4490  10.524   0.286   0.006  0.1135 -0.0473 -0.1882
 1203TIP3    H1 4491  10.497   0.286  -0.086  0.3932 -0.5154 -0.2750
 1203TIP3    H2 4492  10.472   0.356   0.047 -2.2159 -1.7347 -0.0580
 1204TIP3   OH2 4493   8.265   6.364   1.360  0.3946  0.2376  0.1442
 1204TIP3    H1 4494   8.191   6.421   1.381 -0.5304 -1.2837  1.1460
 1204TIP3    H2 4495   8.318   6.363   1.440  0.7167  0.1323 -0.0653
 1205TIP3   OH2 4496   6.914   4.892   2.051 -0.3420 -0.4868 -0.6921
 1205TIP3    H1 4497   6.879   4.981   2.040 -2.3737 -1.1362  0.0909
 1205TIP3    H2 4498   6.907   4.853   1.964 -2.1012 -0.7409 -0.4737
 1206TIP3   OH2 4499   2.025  10.001   5.379 -0.3900  0.0354  0.3140
 1206TIP3    H1 4500   1.982  10.083   5.403 -1.0485 -0.1156 -0.3439
 1206TIP3    H2 4501   2.119  10.020   5.390 -0.4048  1.4363 -1.4907
 1207TIP3   OH2 4502   9.253   6.726   1.630  0.2530  0.5899 -0.6916
 1207TIP3    H1 4503   9.311   6.679   1.690 -2.3134 -1.6387  0.2790
 1207TIP3    H2 4504   9.231   6.807   1.677  0.1247 -0.0364  0.3729
 1208TIP3   OH2 4505   0.765   0.621  10.613  0.4194 -0.7080 -0.2657
 1208TIP3    H1 4506   0.806   0.702  10.582  0.1777 -0.6034 -0.3111
 1208TIP3    H2 4507   0.806   0.553  10.560  0.2549 -0.5629 -0.5811
 1209TIP3   OH2 4508   6.739  10.410   3.077  0.0378 -0.0219 -0.1041
 1209TIP3    H1 4509   6.803  10.478   3.100 -1.3736  1.1077  0.7308
 1209TIP3    H2 4510   6.658  10.439   3.120 -0.7364 -2.0229 -0.1066
 1210TIP3   OH2 4511   1.750   5.862   3.440 -0.0313  0.0326 -0.5050
 1210TIP3    H1 4512   1.770   5.915   3.363  2.3951  0.3079  0.2384
 1210TIP3    H2 4513   1.661   5.886   3.463 -0.5476  0.5180 -2.7320
 1211TIP3   OH2 4514  10.462  10.289   0.819 -0.1689 -0.2442 -0.8722
 1211TIP3    H1 4515  10.450  10.377   0.782 -0.6451  0.0021 -0.1518
 1211TIP3    H2 4516  10.554  10.287   0.846 -0.1767  0.0696 -0.8163
 1212TIP3   OH2 4517   4.721   7.092   6.655  0.5705  0.0052  0.6346
 1212TIP3    H1 4518   4.652   7.158   6.661 -0.1590  0.0382 -4.1961
 1212TIP3    H2 4519   4.788   7.122   6.717 -1.5223  2.8262  1.7717
 1213TIP3   OH2 4520  10.036   1.986   3.266  0.1507  0.2200 -0.2330
 1213TIP3    H1 4521   9.978   1.994   3.190  0.3406  1.5435 -0.2598
 1213TIP3    H2 4522  10.116   1.946   3.231  0.1681  0.6487 -0.6922
 1214TIP3   OH2 4523  10.521   7.540   5.673 -0.2795  0.1279 -0.0029
 1214TIP3    H1 4524  10.598   7.552   5.617  1.9780 -0.6127  2.6582
 1214TIP3    H2 4525  10.518   7.619   5.727  0.9367 -1.3182  2.3526
 1215TIP3   OH2 4526   2.230   5.456   1.556 -0.2440  0.3027  1.0303
 1215TIP3    H1 4527   2.259   5.369   1.585 -0.6972 -0.2750 -0.1978
 1215TIP3    H2 4528   2.163   5.481   1.620 -0.2721 -0.3421  1.2605
 1216TIP3   OH2 4529   4.028  10.142   8.154  0.3649  0.4575 -0.3637
 1216TIP3    H1 4530   4.068  10.065   8.113 -0.7298 -1.2425  1.6130
 1216TIP3    H2 4531   3.934  10.128   8.146  0.1365  0.9120  1.1775
 1217TIP3   OH2 4532   7.195   1.615  10.193 -0.1555 -0.4301 -0.2283
 1217TIP3    H1 4533   7.194   1.520  10.204 -1.0865 -0.8861 -3.2636
 1217TIP3    H2 4534   7.120   1.646  10.244  0.7253 -1.1578  1.5795
 1218TIP3   OH2 4535   4.386   6.214   1.595 -0.2287 -0.3903 -0.0941
 1218TIP3    H1 4536   4.356   6.220   1.686  1.6519 -1.2021  0.6327
 1218TIP3    H2 4537   4.377   6.121   1.573  0.5488 -0.4346 -0.2662
 1219TIP3   OH2 4538   9.079   0.988   3.694 -0.5973  0.4067 -0.3088
 1219TIP3    H1 4539   9.130   0.953   3.768 -0.2278  1.2772 -0.1348
 1219TIP3    H2 4540   9.017   0.919   3.673 -0.1796 -0.1745  0.3060
 1220TIP3   OH2 4541   9.610   7.190   5.790  0.5279  0.4544  0.4691
 1220TIP3    H1 4542   9.673   7.248   5.747  0.0107  0.0435 -0.8870
 1220TIP3    H2 4543   9.606   7.113   5.734 -1.7294  0.7648  0.1115
 1221TIP3   OH2 4544   0.813   7.571   8.826  0.3838  0.1594  0.0111
 1221TIP3    H1 4545   0.742   7.533   8.774  2.0236  0.0817 -2.3339
 1221TIP3    H2 4546   0.814   7.519   8.906 -1.0088 -1.0454 -0.7011
 1222TIP3   OH2 4547   2.116   5.084   5.940 -0.2168  0.1534  0.9161
 1222TIP3    H1 4548   2.168   5.036   6.004  1.9682  2.5347  1.1022
 1222TIP3    H2 4549   2.159   5.066   5.856 -0.6547  0.1555  0.6867
 1223TIP3   OH2 4550   3.525   7.237   9.046 -0.2329 -0.7438 -0.1093
 1223TIP3    H1 4551   3.611   7.273   9.028 -0.1322 -0.9867 -0.1237
 1223TIP3    H2 4552   3.521   7.229   9.141 -0.8968  0.8610  0.0210
 1224TIP3   OH2 4553   7.346   9.903   4.660  0.5487 -0.5285 -0.4808
 1224TIP3    H1 4554   7.411   9.863   4.718  1.1799 -0.8816 -1.4208
 1224TIP3    H2 4555   7.396   9.935   4.586 -0.3809 -1.1573 -1.4106
 1225TIP3   OH2 4556   9.110   2.040   3.158 -0.7481 -0.2050 -0.3306
 1225TIP3    H1 4557   9.049   1.976   3.195  0.0672 -0.5583  0.4305
 1225TIP3    H2 4558   9.149   1.995   3.083 -0.0145 -0.7039  0.3318
 1226TIP3   OH2 4559   1.817   2.619   9.157 -0.1639 -0.2070 -0.0855
 1226TIP3    H1 4560   1.854   2.632   9.070  2.5324 -0.5442  0.8982
 1226TIP3    H2 4561   1.857   2.538   9.188  0.2528  0.7422  2.0434
 1227TIP3   OH2 4562   5.179   4.593   5.662 -0.4273 -0.1410  0.3254
 1227TIP3    H1 4563   5.122   4.667   5.641  0.2168  0.6076  1.1410
 1227TIP3    H2 4564   5.263   4.633   5.685 -0.2065 -1.0910  1.2703
 1228TIP3   OH2 4565  10.050   6.680  10.810  0.3984  0.1195 -0.2401
 1228TIP3    H1 4566  10.041   6.754  10.870  0.1426 -0.8620  0.9650
 1228TIP3    H2 4567  10.122   6.629  10.846 -0.7787 -1.3129  0.1723
 1229TIP3   OH2 4568   4.174   2.755   2.048  0.1604 -0.2294 -0.4135
 1229TIP3    H1 4569   4.174   2.704   2.128 -1.0109  0.7277  0.2390
 1229TIP3    H2 4570   4.095   2.726   2.001 -1.6729  2.2359  0.8892
 1230TIP3   OH2 4571   9.585   0.319   7.643  0.5125 -0.7167  0.1962
 1230TIP3    H1 4572   9.647   0.340   7.574  0.6450  0.7853  0.7368
 1230TIP3    H2 4573   9.515   0.383   7.633  0.5028 -0.5161  1.3845
 1231TIP3   OH2 4574  10.283   2.773   8.525  0.3045  0.0118  0.2027
 1231TIP3    H1 4575  10.297   2.847   8.465  0.0908  0.5408  0.7908
 1231TIP3    H2 4576  10.336   2.702   8.489 -2.1386 -0.6815 -2.3662
 1232TIP3   OH2 4577  10.576   6.404   7.881 -0.0928 -0.1672  0.3289
 1232TIP3    H1 4578  10.498   6.445   7.918 -0.4914 -0.2637 -0.4049
 1232TIP3    H2 4579  10.546   6.361   7.802  0.5894 -0.7186  0.3586
 1233TIP3   OH2 4580  10.685   1.553   2.267 -0.3424  0.4101  0.5884
 1233TIP3    H1 4581  10.728   1.636   2.286  1.0460 -0.3114  0.6923
 1233TIP3    H2 4582  10.749   1.502   2.218 -2.1731  0.4213 -2.0521
 1234TIP3   OH2 4583   1.972   2.618   0.951  0.0943 -0.3418  0.6423
 1234TIP3    H1 4584   1.965   2.523   0.960  3.3416 -0.7490  0.1927
 1234TIP3    H2 4585   2.007   2.631   0.863  3.6531  0.8286  2.0129
 1235TIP3   OH2 4586   2.563   0.896   3.649  0.0362 -0.0771 -0.6322
 1235TIP3    H1 4587   2.556   0.931   3.738  1.8487 -0.9218 -0.1219
 1235TIP3    H2 4588   2.478   0.915   3.609 -0.0756  2.2561  0.5538
 1236TIP3   OH2 4589   2.739   4.139   7.821 -0.2097  0.5520  0.0427
 1236TIP3    H1 4590   2.700   4.219   7.786  0.8710  1.1655  0.1958
 1236TIP3    H2 4591   2.803   4.169   7.885  0.8525 -0.3877 -0.5373
 1237TIP3   OH2 4592   7.186   4.962   6.714 -0.3122 -0.1851  0.1850
 1237TIP3    H1 4593   7.252   4.940   6.649 -0.1524  0.0168  0.2778
 1237TIP3    H2 4594   7.231   4.954   6.798 -0.1489  0.8402  0.2078
 1238TIP3   OH2 4595   3.997   0.788   9.961 -0.1374 -0.6568 -0.4801
 1238TIP3    H1 4596   4.025   0.761  10.049 -0.6418 -0.9694 -0.4098
 1238TIP3    H2 4597   3.938   0.862   9.976 -0.3152 -0.7847 -0.5491
 1239TIP3   OH2 4598   8.929  10.412   3.259 -0.2437  0.7314  0.2803
 1239TIP3    H1 4599   8.886  10.423   3.175 -1.7394  1.8847  1.1563
 1239TIP3    H2 4600   8.861  10.381   3.318  0.3016  1.7759  1.5093
 1240TIP3   OH2 4601   7.892   8.711   3.271  0.2870 -0.2014 -0.0029
 1240TIP3    H1 4602   7.933   8.625   3.262 -0.9095 -0.8117  0.1887
 1240TIP3    H2 4603   7.921   8.759   3.194  2.1338 -0.2547  0.6071
 1241TIP3   OH2 4604   4.924   5.972   8.947 -0.5062 -0.3819 -0.0185
 1241TIP3    H1 4605   4.859   6.015   9.003 -1.5010 -0.4344 -1.0860
 1241TIP3    H2 4606   5.008   6.011   8.972 -1.2949  1.8625 -0.6011
 1242TIP3   OH2 4607   1.417   5.260   5.335  0.4381 -0.8840  0.7754
 1242TIP3    H1 4608   1.502   5.282   5.299  0.3066 -0.7922  0.5174
 1242TIP3    H2 4609   1.417   5.164   5.340  0.2677 -0.9329  0.0420
 1243TIP3   OH2 4610   8.789   2.820   7.234 -0.4713 -0.8369 -0.2630
 1243TIP3    H1 4611   8.726   2.891   7.232 -1.7200 -1.8955 -0.1723
 1243TIP3    H2 4612   8.868   2.856   7.193 -1.4387  0.2419 -1.2655
 1244TIP3   OH2 4613   5.863   6.381   0.155 -0.9740 -0.2220 -0.2307
 1244TIP3    H1 4614   5.846   6.418   0.068  0.5996  1.8061  0.2499
 1244TIP3    H2 4615   5.792   6.415   0.209  0.8611  2.9699  0.3804
 1245TIP3   OH2 4616   6.880   6.021   3.405 -0.7511 -0.0540 -0.2093
 1245TIP3    H1 4617   6.929   6.092   3.365  0.4926 -1.1187 -0.6509
 1245TIP3    H2 4618   6.879   5.952   3.338  0.0857 -1.3059  1.0159
 1246TIP3   OH2 4619   3.129   5.049   0.950  0.1432  0.0686  0.2409
 1246TIP3    H1 4620   3.203   5.078   1.003  0.2187  1.0582 -0.3938
 1246TIP3    H2 4621   3.085   4.984   1.005 -0.9762  2.4920  2.4519
 1247TIP3   OH2 4622   7.858   7.553   1.645  0.2805  0.3570  0.1794
 1247TIP3    H1 4623   7.813   7.576   1.563  1.5856  1.2594 -0.3101
 1247TIP3    H2 4624   7.823   7.614   1.709  0.7586  1.0192 -0.1848
 1248TIP3   OH2 4625   9.360   5.391   3.976  0.2710 -0.1798 -0.0996
 1248TIP3    H1 4626   9.306   5.352   3.908  0.2552 -0.5794  0.1352
 1248TIP3    H2 4627   9.306   5.462   4.012 -0.2974 -0.8551  0.4352
 1249TIP3   OH2 4628   7.904   1.288   2.777  0.3671  0.8701 -0.3134
 1249TIP3    H1 4629   7.814   1.320   2.782 -0.1507 -0.4223 -0.8267
 1249TIP3    H2 4630   7.914   1.233   2.855  0.8165  1.2478 -0.1016
 1250TIP3   OH2 4631  10.720   0.197  10.578  0.7122 -0.2961  0.1087
 1250TIP3    H1 4632  10.636   0.241  10.570  2.2517  2.7005 -1.6122
 1250TIP3    H2 4633  10.772   0.255  10.634  1.7035 -2.0527  1.1057
 1251TIP3   OH2 4634   8.604   8.061  10.590 -0.0777 -0.1648  0.0234
 1251TIP3    H1 4635   8.593   8.098  10.503 -0.2984 -2.0813 -0.8240
 1251TIP3    H2 4636   8.538   7.991  10.595  0.1494 -0.3075  1.6027
 1252TIP3   OH2 4637   0.338   0.132   3.613 -0.2902  0.0458 -0.2897
 1252TIP3    H1 4638   0.328   0.178   3.530  0.3063 -1.0905 -1.0099
 1252TIP3    H2 4639   0.427   0.098   3.611 -0.2575  0.0358  0.8333
 1253TIP3   OH2 4640   6.800  10.386  10.697  0.0993 -0.1327 -0.2225
 1253TIP3    H1 4641   6.737  10.316  10.680 -0.7308  0.4351  0.4389
 1253TIP3    H2 4642   6.858  10.350  10.764  0.2833 -0.5423 -0.5975
 1254TIP3   OH2 4643   9.339   4.345   1.393 -0.0781 -0.3945 -0.1148
 1254TIP3    H1 4644   9.352   4.435   1.422  0.8782 -0.7601  0.6245
 1254TIP3    H2 4645   9.314   4.297   1.472 -0.1405 -0.8749 -0.4186
 1255TIP3   OH2 4646   4.818   0.295   9.528  0.3839  0.3150 -0.3729
 1255TIP3    H1 4647   4.762   0.223   9.496 -1.0549  1.2375 -0.0490
 1255TIP3    H2 4648   4.878   0.312   9.456  1.1254 -1.5405 -0.2622
 1256TIP3   OH2 4649   5.527   4.421   7.384 -0.5371 -0.0813 -0.0741
 1256TIP3    H1 4650   5.544   4.501   7.333 -0.5507 -0.1920 -0.2521
 1256TIP3    H2 4651   5.473   4.367   7.327  1.1704 -1.1194 -0.7872
 1257TIP3   OH2 4652   9.419   2.726   0.621 -0.3673  0.6590 -0.1214
 1257TIP3    H1 4653   9.366   2.799   0.588  0.0597  1.1296  0.2312
 1257TIP3    H2 4654   9.460   2.689   0.543 -0.1059  1.1801 -0.2333
 1258TIP3   OH2 4655   9.525   7.450   6.612 -0.0742 -0.4245 -0.2197
 1258TIP3    H1 4656   9.581   7.403   6.550 -0.0148 -0.6189 -0.0197
 1258TIP3    H2 4657   9.437   7.416   6.597  0.0523 -0.9981  0.2961
 1259TIP3   OH2 4658   2.320   8.808   3.380 -0.1086 -0.1607  0.2503
 1259TIP3    H1 4659   2.387   8.875   3.365 -1.1318  0.5806 -1.2715
 1259TIP3    H2 4660   2.287   8.787   3.293 -0.5784 -1.8833  0.8015
 1260TIP3   OH2 4661   3.373   6.885  10.347  0.2691 -0.0042 -0.1852
 1260TIP3    H1 4662   3.279   6.869  10.351 -0.1138  1.8831 -0.7559
 1260TIP3    H2 4663   3.413   6.806  10.385 -1.5014 -1.0774 -0.4706
 1261TIP3   OH2 4664   9.764  10.039   0.200 -0.4279 -0.1717 -0.4105
 1261TIP3    H1 4665   9.772   9.974   0.269  0.8671  0.7141  0.3105
 1261TIP3    H2 4666   9.669  10.051   0.189 -0.6584 -1.0588  0.4941
 1262TIP3   OH2 4667   7.883   8.169   9.918  0.7191 -0.4033 -0.5349
 1262TIP3    H1 4668   7.868   8.179   9.824  0.4104  0.4699 -0.3971
 1262TIP3    H2 4669   7.797   8.183   9.958  0.9916 -0.0300 -0.0711
 1263TIP3   OH2 4670   7.741   2.305   3.924 -0.3244 -0.5870  0.0678
 1263TIP3    H1 4671   7.714   2.349   3.844 -0.2583  0.6997  0.7312
 1263TIP3    H2 4672   7.761   2.215   3.896 -0.2573 -0.1568 -1.3533
 1264TIP3   OH2 4673   3.804   3.555   5.387 -0.0471  0.3647  0.5481
 1264TIP3    H1 4674   3.711   3.557   5.410  0.4006  2.5952  2.6333
 1264TIP3    H2 4675   3.839   3.481   5.438 -0.4257  0.4193  0.8959
 1265TIP3   OH2 4676  10.124   3.090   6.504  0.2405  0.3135  0.0490
 1265TIP3    H1 4677  10.211   3.098   6.542  0.2357  0.4139  0.0390
 1265TIP3    H2 4678  10.123   3.003   6.464 -0.3476 -0.5301  1.8073
 1266TIP3   OH2 4679   6.046   5.351   0.390  0.0748  0.3433 -0.3086
 1266TIP3    H1 4680   6.053   5.313   0.302 -1.4630 -0.9665  0.0901
 1266TIP3    H2 4681   5.980   5.298   0.434  0.8230  0.9536  1.6662
 1267TIP3   OH2 4682   8.386   4.358   6.656  0.6075  0.0876  0.5503
 1267TIP3    H1 4683   8.300   4.316   6.661 -0.2985  1.6675 -0.7094
 1267TIP3    H2 4684   8.432   4.328   6.735 -0.9799 -1.0295  1.1019
 1268TIP3   OH2 4685   6.773   9.748   6.973  0.1477  0.2726  0.5514
 1268TIP3    H1 4686   6.783   9.843   6.976 -0.3610  0.3274  3.4412
 1268TIP3    H2 4687   6.816   9.716   7.052 -1.4298 -1.6715  0.7254
 1269TIP3   OH2 4688   4.518   9.807   7.694  0.1615  0.5880 -0.5771
 1269TIP3    H1 4689   4.494   9.785   7.784  3.2089 -0.1901  0.1389
 1269TIP3    H2 4690   4.522   9.903   7.693  1.7908  0.5707  0.6558
 1270TIP3   OH2 4691   9.515   9.362  10.354 -0.2020  0.5818  0.2217
 1270TIP3    H1 4692   9.476   9.275  10.347 -0.3341  0.7098 -0.7311
 1270TIP3    H2 4693   9.533   9.388  10.264 -0.5283  1.7123  0.4633
 1271TIP3   OH2 4694  10.827  10.143   6.199  0.4714 -0.3101  0.3922
 1271TIP3    H1 4695  10.747  10.168   6.152  0.1074 -0.1684  1.0825
 1271TIP3    H2 4696  10.803  10.065   6.248  1.4143 -1.6922 -1.2140
 1272TIP3   OH2 4697   6.271   7.080   2.129 -0.8392  0.1863 -0.1241
 1272TIP3    H1 4698   6.252   7.090   2.036  0.2411  1.0325 -0.2766
 1272TIP3    H2 4699   6.239   7.161   2.169  0.5796  0.7619 -0.0963
 1273TIP3   OH2 4700   0.129   6.491  10.341  0.0260 -0.3547 -0.4951
 1273TIP3    H1 4701   0.137   6.576  10.383  0.7804 -0.4938 -0.3538
 1273TIP3    H2 4702   0.149   6.427  10.410  1.5925 -0.5763 -1.1182
 1274TIP3   OH2 4703  10.029   9.715   9.884 -0.0031 -0.0355 -0.4373
 1274TIP3    H1 4704  10.041   9.773   9.809  1.7259 -1.3728 -1.2718
 1274TIP3    H2 4705   9.995   9.772   9.953  1.7574  2.0126 -1.1384
 1275TIP3   OH2 4706   8.964   2.280   8.712 -0.2150 -0.4589 -0.2173
 1275TIP3    H1 4707   8.868   2.283   8.710 -0.2569 -1.5623 -1.1741
 1275TIP3    H2 4708   8.984   2.197   8.756  0.3334  0.2713  0.9487
 1276TIP3   OH2 4709   2.434   0.857   9.910 -0.1373 -0.0983  0.8667
 1276TIP3    H1 4710   2.450   0.903   9.827  0.2644  2.2834  2.1849
 1276TIP3    H2 4711   2.516   0.813   9.929 -0.4385 -1.2197 -0.2858
 1277TIP3   OH2 4712   3.769   5.115   9.452  0.0742 -0.1345  0.0253
 1277TIP3    H1 4713   3.841   5.148   9.398  0.7405 -0.2102  0.8464
 1277TIP3    H2 4714   3.691   5.155   9.415  0.5178 -0.1810 -0.9908
 1278TIP3   OH2 4715   1.464   0.527   3.794 -0.5069  0.2325  0.4406
 1278TIP3    H1 4716   1.449   0.494   3.706 -2.0790  0.8550  0.4464
 1278TIP3    H2 4717   1.444   0.453   3.852  0.5067 -0.1702  0.2925
 1279TIP3   OH2 4718   4.179   5.435   3.692  0.1432  0.0308  0.0879
 1279TIP3    H1 4719   4.231   5.439   3.772 -0.4681 -2.6828  0.7204
 1279TIP3    H2 4720   4.236   5.474   3.625  1.7008  0.0274  1.3479
 1280TIP3   OH2 4721   2.677   6.014   3.222 -0.3589  0.1492 -0.6138
 1280TIP3    H1 4722   2.644   6.055   3.302  0.4229  2.4792 -1.4042
 1280TIP3    H2 4723   2.622   5.937   3.211 -2.2287  1.1891  0.7706
 1281TIP3   OH2 4724   8.022   2.659   0.506 -0.8482 -0.2260 -0.4292
 1281TIP3    H1 4725   8.034   2.572   0.544 -0.5425  0.0014 -0.0090
 1281TIP3    H2 4726   8.110   2.692   0.492 -0.9502  0.7301  1.0413
 1282TIP3   OH2 4727   3.707   2.147   6.374 -0.2134 -0.2676  0.1103
 1282TIP3    H1 4728   3.753   2.161   6.457 -1.2353 -0.7754  0.7874
 1282TIP3    H2 4729   3.687   2.234   6.342  1.4336 -0.0234 -0.3396
 1283TIP3   OH2 4730   4.575   0.315   8.061  0.1841  0.0882 -0.0228
 1283TIP3    H1 4731   4.493   0.266   8.062 -1.2438  2.3296  1.0059
 1283TIP3    H2 4732   4.565   0.377   7.989  1.9474 -0.9796 -1.2964
 1284TIP3   OH2 4733   7.961   7.870   8.667  0.4495  0.1803 -0.6999
 1284TIP3    H1 4734   7.928   7.857   8.578 -0.1297  0.9039 -0.6026
 1284TIP3    H2 4735   8.051   7.837   8.664  0.9236  1.4984 -1.9328
 1285TIP3   OH2 4736  10.839   4.600   4.980 -0.0606  0.3161  0.3716
 1285TIP3    H1 4737  10.866   4.659   4.909  1.1160  0.4329  0.8914
 1285TIP3    H2 4738  10.751   4.630   5.004 -0.8177 -0.2033 -1.5159
 1286TIP3   OH2 4739   5.543   3.856   7.697  0.6124  0.4203  0.6557
 1286TIP3    H1 4740   5.567   3.943   7.727 -0.7665  1.3468 -0.7834
 1286TIP3    H2 4741   5.553   3.860   7.602  0.6512 -1.0546  0.5738
 1287TIP3   OH2 4742   4.464   1.717   7.764 -0.1098  0.4103 -0.3712
 1287TIP3    H1 4743   4.422   1.802   7.776 -3.1393 -1.0884  0.5952
 1287TIP3    H2 4744   4.416   1.677   7.692  1.5005 -0.3799 -1.0366
 1288TIP3   OH2 4745   6.348  10.126   1.420  0.1269 -0.1588  0.2488
 1288TIP3    H1 4746   6.413  10.178   1.373 -0.8778  1.4844  0.5543
 1288TIP3    H2 4747   6.264  10.151   1.380 -0.5278 -0.4615  1.3642
 1289TIP3   OH2 4748   0.467   3.427   7.967  0.0305 -0.4956  0.3284
 1289TIP3    H1 4749   0.376   3.399   7.967 -0.0440 -0.4292  2.4009
 1289TIP3    H2 4750   0.492   3.428   8.060  2.3197 -1.1264 -0.1944
 1290TIP3   OH2 4751  10.505   0.252   2.904  0.3479  0.7365 -0.2688
 1290TIP3    H1 4752  10.480   0.334   2.945  0.0244 -0.3574  1.8661
 1290TIP3    H2 4753  10.590   0.271   2.863  0.1542  2.1852 -0.0510
 1291TIP3   OH2 4754   9.211   5.796   3.731  0.2867  0.1276  0.9253
 1291TIP3    H1 4755   9.126   5.828   3.760  0.4833 -0.4707  2.2663
 1291TIP3    H2 4756   9.196   5.705   3.707  0.6742 -0.1996  1.8795
 1292TIP3   OH2 4757   9.546   6.507   5.443  0.7296  0.1406  0.2851
 1292TIP3    H1 4758   9.560   6.596   5.475 -1.2404  1.1824 -1.5025
 1292TIP3    H2 4759   9.467   6.478   5.488  1.4196 -0.7891  0.9345
 1293TIP3   OH2 4760   7.335  10.022  10.258  0.2433  0.1784  0.0960
 1293TIP3    H1 4761   7.425  10.036  10.288  0.1732  0.1867  0.3060
 1293TIP3    H2 4762   7.343  10.010  10.164  0.5091 -0.1917  0.1617
 1294TIP3   OH2 4763   4.128   3.560  10.800  0.1324 -0.2731  0.0876
 1294TIP3    H1 4764   4.203   3.546  10.858  0.5688  1.1737 -0.0957
 1294TIP3    H2 4765   4.072   3.484  10.815  1.7782 -1.5751 -0.0060
 1295TIP3   OH2 4766   9.282   0.403   6.824 -0.0082 -0.4781 -0.4809
 1295TIP3    H1 4767   9.355   0.342   6.835  0.0636 -0.5721 -1.3431
 1295TIP3    H2 4768   9.297   0.443   6.738 -0.1294  0.6592  0.0184
 1296TIP3   OH2 4769   4.211   2.551   7.230 -0.6727  0.4988 -0.1123
 1296TIP3    H1 4770   4.287   2.556   7.288  0.3015 -0.5612 -1.2467
 1296TIP3    H2 4771   4.183   2.459   7.235 -0.8592  0.5044 -0.9578
 1297TIP3   OH2 4772   4.905  10.578   6.524  0.0631 -0.0793  0.7276
 1297TIP3    H1 4773   4.973  10.525   6.483 -0.7790  1.4315 -2.9558
 1297TIP3    H2 4774   4.949  10.622   6.596  2.4764 -0.6069 -0.3300
 1298TIP3   OH2 4775   3.415  10.480   1.252 -0.3680 -0.4492  0.2454
 1298TIP3    H1 4776   3.482  10.469   1.185 -0.5498 -0.0979  0.0047
 1298TIP3    H2 4777   3.332  10.474   1.205 -0.4898  0.8255  0.2719
 1299TIP3   OH2 4778   2.527   4.997   1.858 -0.4900  0.0791 -0.4275
 1299TIP3    H1 4779   2.450   4.946   1.831 -0.0993 -0.9203  0.2724
 1299TIP3    H2 4780   2.519   5.080   1.811 -1.5054 -0.3700 -1.0786
 1300TIP3   OH2 4781   2.564   9.049   9.178  0.0547 -0.1791 -0.3342
 1300TIP3    H1 4782   2.646   9.017   9.216 -0.2927  0.1171  0.7045
 1300TIP3    H2 4783   2.582   9.055   9.084  1.1696 -0.2702 -0.1444
 1301TIP3   OH2 4784   6.480   3.169   3.616 -0.4464  0.1111 -0.6303
 1301TIP3    H1 4785   6.505   3.245   3.562  1.5764 -0.1444 -0.1483
 1301TIP3    H2 4786   6.461   3.205   3.702  1.9553  0.0068  0.0137
 1302TIP3   OH2 4787   9.285   5.762   3.263  0.6036  0.0178  0.2222
 1302TIP3    H1 4788   9.331   5.693   3.313  3.0883  0.2340 -1.5416
 1302TIP3    H2 4789   9.347   5.835   3.261 -1.9265  2.4119  1.9552
 1303TIP3   OH2 4790   8.265   1.177   5.258 -0.6718 -0.0006  0.3080
 1303TIP3    H1 4791   8.328   1.241   5.225 -0.3216 -0.5314 -0.0690
 1303TIP3    H2 4792   8.247   1.205   5.348  0.4975 -0.1260  0.6007
 1304TIP3   OH2 4793   1.332   0.873   1.446  0.2546  0.5643  0.4371
 1304TIP3    H1 4794   1.326   0.952   1.500 -0.0345  0.4062  0.6381
 1304TIP3    H2 4795   1.372   0.807   1.504 -0.6183  0.2206  0.6591
 1305TIP3   OH2 4796   6.247   4.669   1.588 -0.1572  0.2973 -0.0759
 1305TIP3    H1 4797   6.298   4.697   1.664  0.7484 -0.4069 -0.3904
 1305TIP3    H2 4798   6.187   4.740   1.571  0.8164  1.2231  0.2472
 1306TIP3   OH2 4799   1.487   5.022   8.136  0.0764  0.6419 -0.1605
 1306TIP3    H1 4800   1.442   5.095   8.179 -0.6674  0.3395 -0.4157
 1306TIP3    H2 4801   1.480   4.949   8.197 -0.0563  0.5063 -0.3365
 1307TIP3   OH2 4802   2.181  10.733   1.071 -1.0462  0.2736  0.4831
 1307TIP3    H1 4803   2.169  10.710   1.163  0.1783  2.8352  1.3753
 1307TIP3    H2 4804   2.269  10.702   1.050 -2.1229 -2.3647 -0.6243
 1308TIP3   OH2 4805   5.794   0.428   1.899  0.4459  0.5757 -0.1427
 1308TIP3    H1 4806   5.834   0.468   1.821  0.7153  1.0138  0.2178
 1308TIP3    H2 4807   5.729   0.368   1.864 -1.6171  2.9623 -0.7007
 1309TIP3   OH2 4808   7.249   5.896   3.312 -0.4027  0.1625  0.5019
 1309TIP3    H1 4809   7.209   5.915   3.226  0.9619  0.6518 -0.0489
 1309TIP3    H2 4810   7.220   5.969   3.367  0.7771  1.2436 -0.2591
 1310TIP3   OH2 4811   2.144   0.738   4.215  0.4752 -0.2543 -0.5074
 1310TIP3    H1 4812   2.206   0.794   4.169  1.6527 -1.0029  0.1264
 1310TIP3    H2 4813   2.180   0.650   4.205  1.2683 -0.3670  2.5335
 1311TIP3   OH2 4814   4.499   8.839  10.345 -0.3260  0.0157  0.0341
 1311TIP3    H1 4815   4.497   8.881  10.431 -2.0431 -1.9474  1.0627
 1311TIP3    H2 4816   4.512   8.911  10.284  3.1860  1.2568  1.9796
 1312TIP3   OH2 4817   5.002  10.135   5.213  0.5149 -0.1830  0.3138
 1312TIP3    H1 4818   5.040  10.047   5.208  1.5415  0.3026 -0.7601
 1312TIP3    H2 4819   5.058  10.182   5.275  0.5132 -0.0071  0.1807
 1313TIP3   OH2 4820   1.998   9.983   9.982 -0.3183 -0.2447 -0.3991
 1313TIP3    H1 4821   2.048   9.977  10.064 -0.7265  3.0909  0.2160
 1313TIP3    H2 4822   2.064   9.978   9.913  0.2881 -0.8569  0.2115
 1314TIP3   OH2 4823   6.557   0.750   1.240 -0.0636 -0.3503  0.8130
 1314TIP3    H1 4824   6.571   0.843   1.221  1.7050 -0.6645  0.4456
 1314TIP3    H2 4825   6.598   0.737   1.326  0.6852 -1.0257  0.3545
 1315TIP3   OH2 4826   7.161   1.646   1.029  0.2260  0.2843 -0.1357
 1315TIP3    H1 4827   7.247   1.618   1.063 -1.0744 -1.5700  1.8914
 1315TIP3    H2 4828   7.129   1.708   1.094 -1.4211 -1.7340  1.0807
 1316TIP3   OH2 4829   4.834   0.120   1.760  0.4500 -0.1968 -0.5620
 1316TIP3    H1 4830   4.835   0.185   1.830  0.5079 -0.0561 -0.6942
 1316TIP3    H2 4831   4.801   0.041   1.802  1.5505 -0.4296 -0.1087
 1317TIP3   OH2 4832   3.746   4.181   2.918  0.0488 -0.4303 -0.6322
 1317TIP3    H1 4833   3.741   4.265   2.963 -0.1180 -1.3104  1.1030
 1317TIP3    H2 4834   3.748   4.203   2.825  0.7634  1.5096 -0.2112
 1318TIP3   OH2 4835   3.473   0.482   1.029  0.4493 -0.3611  0.5519
 1318TIP3    H1 4836   3.439   0.467   1.118 -0.5683  0.4810  0.3270
 1318TIP3    H2 4837   3.565   0.501   1.042  0.2568  0.0262  1.4727
 1319TIP3   OH2 4838   3.877   4.211   5.963  0.3902 -0.5611  0.4570
 1319TIP3    H1 4839   3.839   4.294   5.935  1.1678 -0.2475  0.2856
 1319TIP3    H2 4840   3.819   4.144   5.927  0.4115 -0.1206 -0.4403
 1320TIP3   OH2 4841   5.351   2.795   4.874  0.6494  0.2819 -0.1643
 1320TIP3    H1 4842   5.404   2.808   4.795 -0.7734  1.0709 -1.0368
 1320TIP3    H2 4843   5.386   2.857   4.937 -1.2605  3.3016 -1.8275
 1321TIP3   OH2 4844   8.013   0.607   2.612  0.1541 -0.1563  0.3215
 1321TIP3    H1 4845   8.106   0.607   2.590  0.1662  2.4826  0.0437
 1321TIP3    H2 4846   7.974   0.541   2.555  1.9302 -1.8888  1.0134
 1322TIP3   OH2 4847   2.984   7.387   0.414  0.2284 -0.3049 -0.0085
 1322TIP3    H1 4848   2.999   7.474   0.450  1.8626 -0.3264 -0.5673
 1322TIP3    H2 4849   2.945   7.338   0.487  0.7380  0.4636  0.7977
 1323TIP3   OH2 4850   2.763  10.086   7.593 -0.1192 -0.4200  0.3382
 1323TIP3    H1 4851   2.766  10.176   7.561  4.1759 -0.4577  0.0787
 1323TIP3    H2 4852   2.795  10.091   7.683 -0.9292 -1.6142  0.7212
 1324TIP3   OH2 4853   4.329  10.816   8.530  0.5729 -0.3351 -0.1152
 1324TIP3    H1 4854   4.368  10.742   8.577 -0.2174 -0.5728  0.1932
 1324TIP3    H2 4855   4.403  10.870   8.504  1.2043 -1.4547 -0.7270
 1325TIP3   OH2 4856   9.480   7.705   8.452  0.0238 -0.3311  0.1285
 1325TIP3    H1 4857   9.398   7.654   8.454 -1.3516  1.5408 -2.5212
 1325TIP3    H2 4858   9.460   7.783   8.504  0.4920 -0.2930  0.2528
 1326TIP3   OH2 4859  10.764   1.521   4.825 -0.1986  0.2788  0.3244
 1326TIP3    H1 4860  10.830   1.483   4.767 -1.6251 -1.2423 -0.3835
 1326TIP3    H2 4861  10.804   1.518   4.912  0.5690 -0.8607 -0.0476
 1327TIP3   OH2 4862   5.658   4.753   7.886  0.2920 -0.1203  0.2358
 1327TIP3    H1 4863   5.722   4.684   7.869 -1.0290 -1.4846  0.5879
 1327TIP3    H2 4864   5.623   4.775   7.800 -1.2803 -1.9425  0.3417
 1328TIP3   OH2 4865  10.144   7.426   0.715 -0.3873 -0.3068 -0.7098
 1328TIP3    H1 4866  10.120   7.457   0.803  1.3031 -1.1292  0.0977
 1328TIP3    H2 4867  10.145   7.505   0.661  0.7454  0.6027  0.5659
 1329TIP3   OH2 4868   2.781   2.950   2.139 -0.2933 -0.1940  0.4842
 1329TIP3    H1 4869   2.694   2.930   2.107 -0.3903 -0.5281  0.9485
 1329TIP3    H2 4870   2.798   3.040   2.109 -0.7688 -0.1496  0.3489
 1330TIP3   OH2 4871   5.902   2.691   5.125 -0.2733  0.0674 -0.0366
 1330TIP3    H1 4872   5.830   2.730   5.075 -1.1207  0.8062  1.6891
 1330TIP3    H2 4873   5.892   2.596   5.110 -1.5857  0.1605  0.1176
 1331TIP3   OH2 4874   1.360   7.093  10.699 -0.1951  0.1550  0.1267
 1331TIP3    H1 4875   1.397   7.130  10.779  1.3741  0.4664 -0.6822
 1331TIP3    H2 4876   1.364   6.998  10.712 -0.1893  0.2107  0.5260
 1332TIP3   OH2 4877   8.505   3.081   8.688  0.2759 -0.2685 -0.0906
 1332TIP3    H1 4878   8.502   3.172   8.657  1.2744  0.0727  0.7425
 1332TIP3    H2 4879   8.445   3.080   8.762 -0.7207 -0.6234 -0.8945
 1333TIP3   OH2 4880   5.868   7.873   2.013  0.1473  0.5298 -0.0385
 1333TIP3    H1 4881   5.944   7.928   1.994  0.5051  0.0009 -0.1723
 1333TIP3    H2 4882   5.863   7.870   2.109  1.1064 -0.5102 -0.0048
 1334TIP3   OH2 4883   0.788   3.417   1.672 -0.1159  0.0116  0.2324
 1334TIP3    H1 4884   0.817   3.326   1.667  0.1671  0.1278 -0.2930
 1334TIP3    H2 4885   0.856   3.467   1.628 -1.3784  0.2406 -1.5607
 1335TIP3   OH2 4886   4.138  10.201  10.069  0.0427  0.5320 -0.2630
 1335TIP3    H1 4887   4.176  10.113  10.065 -1.0479 -0.0613  1.4159
 1335TIP3    H2 4888   4.214  10.260  10.065  0.9535 -0.5397  0.5181
 1336TIP3   OH2 4889   0.932  10.134   4.485  0.0542  0.1139 -0.3556
 1336TIP3    H1 4890   0.969  10.181   4.411  0.3171 -1.4562 -1.2785
 1336TIP3    H2 4891   0.865  10.192   4.520 -0.5708  0.6262 -2.2726
 1337TIP3   OH2 4892   7.839   9.412   2.157 -0.4916 -0.5527  0.3234
 1337TIP3    H1 4893   7.752   9.384   2.184 -1.8593 -1.4937 -4.1672
 1337TIP3    H2 4894   7.873   9.338   2.106  0.9501  1.4522 -1.8147
 1338TIP3   OH2 4895   8.665   4.493   1.367  0.3737  0.2160  0.1294
 1338TIP3    H1 4896   8.743   4.469   1.317 -0.5845 -1.8549 -0.4714
 1338TIP3    H2 4897   8.603   4.524   1.302  0.5407  1.4933  0.5616
 1339TIP3   OH2 4898   1.114   2.916   0.639 -0.5884  0.2914  0.0494
 1339TIP3    H1 4899   1.066   2.911   0.722  1.2688  2.9404  1.4238
 1339TIP3    H2 4900   1.085   2.998   0.599  1.2068  0.9038 -0.0786
 1340TIP3   OH2 4901   5.874   1.527   6.401 -0.3560  0.4522  0.2587
 1340TIP3    H1 4902   5.909   1.602   6.448 -0.8113  0.3401  0.7950
 1340TIP3    H2 4903   5.885   1.549   6.308 -0.2650  1.0705  0.4127
 1341TIP3   OH2 4904   6.937   1.626   4.610 -0.4421 -0.4817 -0.0225
 1341TIP3    H1 4905   6.923   1.555   4.547  1.8639  1.1131 -2.6017
 1341TIP3    H2 4906   7.013   1.598   4.660  1.1853  0.4618 -1.8009
 1342TIP3   OH2 4907   0.018   0.789   0.310  0.6150 -0.1731  0.3970
 1342TIP3    H1 4908  -0.048   0.802   0.378 -1.0173 -1.0145 -0.9453
 1342TIP3    H2 4909   0.031   0.694   0.307  0.1192 -0.2108 -0.9374
 1343TIP3   OH2 4910   3.196   9.113   4.814  0.0879  0.5104  0.3381
 1343TIP3    H1 4911   3.246   9.034   4.796 -0.3863  0.6218 -1.6595
 1343TIP3    H2 4912   3.207   9.127   4.908 -0.1836 -2.1751  0.8513
 1344TIP3   OH2 4913   9.498   1.482   5.582 -0.8577 -0.4831  0.2763
 1344TIP3    H1 4914   9.554   1.533   5.641 -0.6709 -1.8147  1.2780
 1344TIP3    H2 4915   9.523   1.512   5.495  1.2221 -0.8059  0.7120
 1345TIP3   OH2 4916   7.551   3.014   8.033  0.0325 -0.6807 -0.1340
 1345TIP3    H1 4917   7.625   3.004   8.093 -0.4201 -0.1985  0.5107
 1345TIP3    H2 4918   7.513   2.926   8.027 -0.2609 -0.6239  0.7344
 1346TIP3   OH2 4919   3.625   2.262   7.841 -0.1314  0.0458  0.6087
 1346TIP3    H1 4920   3.570   2.199   7.795  0.6245 -0.6821  0.6904
 1346TIP3    H2 4921   3.714   2.229   7.830  0.3972  1.6347 -0.2135
 1347TIP3   OH2 4922   3.620   4.288   3.716  0.2832 -0.1368  0.0905
 1347TIP3    H1 4923   3.538   4.239   3.717  0.5724 -0.6399  2.1134
 1347TIP3    H2 4924   3.593   4.380   3.709 -0.5519 -0.1948  2.0666
 1348TIP3   OH2 4925   1.328   2.473   0.024 -0.6680 -0.3248  0.1703
 1348TIP3    H1 4926   1.331   2.517   0.109 -0.3493 -0.2808  0.1390
 1348TIP3    H2 4927   1.264   2.523  -0.027 -0.0712  0.3036  0.0251
 1349TIP3   OH2 4928   5.872  10.703   7.445 -0.0566 -0.0331 -0.7403
 1349TIP3    H1 4929   5.793  10.671   7.489 -0.0882 -1.3199 -1.6949
 1349TIP3    H2 4930   5.839  10.766   7.381 -0.1621  0.5570 -0.1152
 1350TIP3   OH2 4931   6.911   4.456  10.208 -0.2731 -0.4013  0.0016
 1350TIP3    H1 4932   6.900   4.473  10.302 -1.0908 -0.1657 -0.1239
 1350TIP3    H2 4933   6.997   4.490  10.187 -0.3291  0.0959  0.5485
 1351TIP3   OH2 4934   2.231   9.541   4.134  0.3497 -0.1190  0.1085
 1351TIP3    H1 4935   2.186   9.531   4.218 -1.3728 -1.1931 -0.8766
 1351TIP3    H2 4936   2.185   9.613   4.091 -1.4115 -2.0115 -1.4142
 1352TIP3   OH2 4937   6.519   2.113   7.412 -0.1940  0.3148  0.0756
 1352TIP3    H1 4938   6.542   2.068   7.330 -0.8238  0.1665 -0.0293
 1352TIP3    H2 4939   6.443   2.167   7.389 -0.9054 -0.3676  0.7518
 1353TIP3   OH2 4940   0.264   3.721   2.714  0.4865 -0.0104 -0.2512
 1353TIP3    H1 4941   0.267   3.633   2.751  0.8794 -0.0832 -0.4487
 1353TIP3    H2 4942   0.339   3.725   2.655 -0.2416  0.0264 -1.2100
 1354TIP3   OH2 4943   8.993   2.420  10.654 -0.3458 -0.3302  0.5099
 1354TIP3    H1 4944   9.017   2.336  10.615 -0.0819 -0.3499  0.7133
 1354TIP3    H2 4945   9.055   2.482  10.615 -0.0051 -0.3683  0.9813
 1355TIP3   OH2 4946   0.966   9.894   6.105  0.6753 -0.4030  0.0565
 1355TIP3    H1 4947   0.880   9.912   6.067  1.2299 -1.0195 -1.5290
 1355TIP3    H2 4948   0.957   9.921   6.197 -1.0521 -0.0009 -0.1982
 1356TIP3   OH2 4949  10.601   2.859   8.813 -0.0078 -0.2012 -0.6273
 1356TIP3    H1 4950  10.628   2.817   8.731 -0.7134 -0.0683 -0.9387
 1356TIP3    H2 4951  10.510   2.830   8.825 -0.7535  1.7400 -1.2023
 1357TIP3   OH2 4952   1.274   2.165   1.994 -0.3144 -0.1905 -0.2191
 1357TIP3    H1 4953   1.280   2.173   2.089  0.9455 -0.2956 -0.2697
 1357TIP3    H2 4954   1.187   2.128   1.978  0.7567 -3.7384  1.1429
 1358TIP3   OH2 4955   2.909   4.017  10.875  0.2888 -0.2212  0.1245
 1358TIP3    H1 4956   2.842   4.059  10.930  0.8374  0.4054  0.3271
 1358TIP3    H2 4957   2.967   3.973  10.937 -0.2523 -1.2662 -0.0814
 1359TIP3   OH2 4958   6.568   0.159   3.799 -0.0474 -0.4059 -0.6182
 1359TIP3    H1 4959   6.483   0.140   3.839 -0.3133 -0.1962 -1.0767
 1359TIP3    H2 4960   6.551   0.159   3.705  0.3284  0.2777 -0.6928
 1360TIP3   OH2 4961   9.051  10.571   6.523  0.1899  0.1527  0.0170
 1360TIP3    H1 4962   9.051  10.626   6.601  0.7643 -0.9440  0.8222
 1360TIP3    H2 4963   8.970  10.520   6.530  0.9586 -1.0082  0.6968
 1361TIP3   OH2 4964  10.100   1.262   0.146 -0.1858 -0.0504 -0.4449
 1361TIP3    H1 4965  10.020   1.258   0.200 -0.3194 -0.0146 -0.6404
 1361TIP3    H2 4966  10.159   1.199   0.187 -0.1371  0.2641 -0.0148
 1362TIP3   OH2 4967   1.860   3.980   9.028 -0.0699 -0.1970  0.1359
 1362TIP3    H1 4968   1.800   3.998   9.100  0.0831  1.0428 -0.0247
 1362TIP3    H2 4969   1.820   4.025   8.953  0.4367 -0.3847 -0.2505
 1363TIP3   OH2 4970   3.185   4.988   4.679  0.2630 -0.0564  0.0385
 1363TIP3    H1 4971   3.093   5.012   4.670 -0.0650 -0.6329  1.5549
 1363TIP3    H2 4972   3.184   4.906   4.727  1.5038 -1.3386 -1.9442
 1364TIP3   OH2 4973  10.624   3.496   3.489 -0.4019 -0.0286 -0.2195
 1364TIP3    H1 4974  10.544   3.448   3.471  0.6893 -2.1290  0.2604
 1364TIP3    H2 4975  10.620   3.516   3.583  0.1050 -1.1096  0.0471
 1365TIP3   OH2 4976   6.800   9.068   3.227 -0.1163  0.1462 -0.1393
 1365TIP3    H1 4977   6.802   9.063   3.322 -0.5137 -2.3757 -0.1970
 1365TIP3    H2 4978   6.888   9.096   3.202  0.4226 -0.5384  0.9308
 1366TIP3   OH2 4979   3.536   1.980   2.456 -0.2455 -0.1219 -0.5666
 1366TIP3    H1 4980   3.613   2.033   2.473  0.2859 -0.7734 -0.8895
 1366TIP3    H2 4981   3.543   1.906   2.517 -0.8206  0.0181 -0.3223
 1367TIP3   OH2 4982  10.392   8.270   9.066 -0.4543 -0.2001 -0.0535
 1367TIP3    H1 4983  10.339   8.331   9.014  2.0802  0.5367 -1.9788
 1367TIP3    H2 4984  10.381   8.186   9.022 -1.5092 -0.5127  0.7539
 1368TIP3   OH2 4985   2.038   2.271   5.885  0.3450 -0.2021 -0.0073
 1368TIP3    H1 4986   2.067   2.324   5.959 -0.5693 -0.9071  0.8875
 1368TIP3    H2 4987   1.943   2.277   5.886  0.3475  0.8818 -1.9960
 1369TIP3   OH2 4988   7.835   2.038   0.319 -0.0808 -0.0549  0.0187
 1369TIP3    H1 4989   7.795   2.121   0.343 -1.2857 -0.3806 -0.7746
 1369TIP3    H2 4990   7.908   2.061   0.262 -0.6485  0.4448 -0.5115
 1370TIP3   OH2 4991   2.578   1.454   1.755  0.4933 -0.0444 -0.3711
 1370TIP3    H1 4992   2.616   1.405   1.682  1.5546 -0.3294  0.3515
 1370TIP3    H2 4993   2.640   1.526   1.770  0.2107  0.0934  0.1593
 1371TIP3   OH2 4994   8.175   0.858   2.115  0.4467  0.3724 -0.3723
 1371TIP3    H1 4995   8.159   0.950   2.137 -0.4777 -0.2213  1.6358
 1371TIP3    H2 4996   8.105   0.836   2.053 -0.4561  0.5274  0.5746
 1372TIP3   OH2 4997   9.937   1.852  10.280  0.1243  0.5155 -0.4372
 1372TIP3    H1 4998   9.916   1.939  10.315 -1.0353  0.1521 -0.1917
 1372TIP3    H2 4999   9.916   1.792  10.351  0.4146 -0.0181 -0.7933
 1373TIP3   OH2 5000  10.603   1.148   6.743  0.0192 -0.8184 -0.4141
 1373TIP3    H1 5001  10.612   1.072   6.685  2.0185 -1.7239  0.9471
 1373TIP3    H2 5002  10.668   1.211   6.710  0.0239 -0.6764 -0.1373
 1374TIP3   OH2 5003   1.302   3.324   0.200 -0.3984  0.0216  0.0207
 1374TIP3    H1 5004   1.275   3.359   0.285 -1.8610 -1.5362  0.2598
 1374TIP3    H2 5005   1.275   3.232   0.203  1.3913 -0.6081 -1.3583
 1375TIP3   OH2 5006   3.971   8.272   9.269  0.7855 -0.0780 -0.5759
 1375TIP3    H1 5007   4.041   8.213   9.239  1.3557  0.6924 -0.7845
 1375TIP3    H2 5008   4.006   8.360   9.256  0.2471  0.3065  0.4591
 1376TIP3   OH2 5009   7.214   8.106   6.967 -0.5097  0.0528  0.4408
 1376TIP3    H1 5010   7.308   8.120   6.955 -0.2473  0.3229  2.4818
 1376TIP3    H2 5011   7.207   8.025   7.017 -1.4047 -0.1901 -0.0415
 1377TIP3   OH2 5012   6.171   9.678   5.982 -0.4729  0.5692 -0.2376
 1377TIP3    H1 5013   6.175   9.649   6.073 -1.8586 -1.8437 -0.8491
 1377TIP3    H2 5014   6.098   9.739   5.980 -2.8731 -2.0714 -0.2425
 1378TIP3   OH2 5015   3.163   2.479   9.827 -0.0206  0.0546  0.1494
 1378TIP3    H1 5016   3.246   2.434   9.814  0.4233  0.9167 -0.0498
 1378TIP3    H2 5017   3.181   2.570   9.805 -0.5917  0.5625  1.6582
 1379TIP3   OH2 5018   1.794   2.234   4.606  0.3881  0.0832 -1.1040
 1379TIP3    H1 5019   1.873   2.264   4.651  0.1260 -0.8861  0.0633
 1379TIP3    H2 5020   1.826   2.175   4.538  0.6874 -0.1925 -0.7274
 1380TIP3   OH2 5021   1.509   9.481   5.329  0.1087 -0.2090 -0.0286
 1380TIP3    H1 5022   1.576   9.477   5.261  1.5033  0.9591  1.2098
 1380TIP3    H2 5023   1.458   9.401   5.317  1.8467 -1.2507 -0.9044
 1381TIP3   OH2 5024   3.697   0.804  10.168 -0.2478  0.3364 -0.0909
 1381TIP3    H1 5025   3.696   0.709  10.182  0.5622  0.3643  0.2088
 1381TIP3    H2 5026   3.633   0.819  10.099 -0.4015 -0.4301 -0.1207
 1382TIP3   OH2 5027  10.632   1.005   0.719 -0.1157  0.0151  0.3997
 1382TIP3    H1 5028  10.571   0.937   0.745 -1.7308  1.2091 -0.1225
 1382TIP3    H2 5029  10.657   1.048   0.801  1.1728 -1.3355  0.7753
 1383TIP3   OH2 5030   6.416   6.131   2.259  0.2133 -0.2631 -0.1716
 1383TIP3    H1 5031   6.414   6.119   2.164 -0.7241  0.8077 -0.3067
 1383TIP3    H2 5032   6.338   6.184   2.279  0.6116 -0.1205  1.1407
 1384TIP3   OH2 5033   1.551   0.376   9.646  0.2483  0.8331 -0.0867
 1384TIP3    H1 5034   1.582   0.427   9.571  0.0267  1.3035  0.1366
 1384TIP3    H2 5035   1.456   0.379   9.638  0.2389  0.1145 -0.2908
 1385TIP3   OH2 5036   8.274  10.210   6.130 -0.2149  0.2651  0.3559
 1385TIP3    H1 5037   8.324  10.209   6.048  0.4852  0.5479  0.7709
 1385TIP3    H2 5038   8.195  10.260   6.109  0.3983  1.1528  0.0940
 1386TIP3   OH2 5039  10.653   3.135   0.268 -0.1905  0.2120 -0.4001
 1386TIP3    H1 5040  10.698   3.059   0.231 -2.1603 -0.6655 -1.1244
 1386TIP3    H2 5041  10.656   3.121   0.363  0.1004 -0.3967 -0.4937
 1387TIP3   OH2 5042   5.491   6.940   3.142  0.4149  0.1463 -0.0886
 1387TIP3    H1 5043   5.532   6.867   3.097 -0.0276  0.0811 -0.3962
 1387TIP3    H2 5044   5.556   7.009   3.142  2.4325 -1.4256  3.6451
 1388TIP3   OH2 5045   8.842   7.903   9.903  0.4108  0.6027  0.0945
 1388TIP3    H1 5046   8.752   7.874   9.922 -0.1949  3.0939  1.4867
 1388TIP3    H2 5047   8.897   7.832   9.936 -0.9940 -0.7936 -0.3878
 1389TIP3   OH2 5048   2.270   7.218  10.407 -0.3731 -0.2176  0.1218
 1389TIP3    H1 5049   2.188   7.170  10.396 -1.1192  1.1294 -0.4822
 1389TIP3    H2 5050   2.243   7.308  10.422  0.9994  0.6609 -2.1660
 1390TIP3   OH2 5051   6.666   1.319   0.075 -0.5767 -0.4912  0.0403
 1390TIP3    H1 5052   6.705   1.351  -0.007 -2.0235  0.7582 -0.1951
 1390TIP3    H2 5053   6.710   1.235   0.091  2.0745  0.7319 -0.2864
 1391TIP3   OH2 5054   4.019   2.537   8.189  0.1809 -0.0510  0.5423
 1391TIP3    H1 5055   3.982   2.624   8.173  0.8042 -0.1533 -1.9492
 1391TIP3    H2 5056   3.957   2.477   8.148  0.9442 -0.5635  0.1018
 1392TIP3   OH2 5057   1.319   7.480   0.457  0.2425  0.4288  0.1663
 1392TIP3    H1 5058   1.301   7.424   0.533  1.6485 -0.6264 -0.2264
 1392TIP3    H2 5059   1.281   7.433   0.383  0.2100  0.6928  0.0135
 1393TIP3   OH2 5060   1.094   7.692   8.893 -0.0692 -0.0552 -0.1825
 1393TIP3    H1 5061   1.049   7.680   8.977 -2.0257 -0.9342 -1.2813
 1393TIP3    H2 5062   1.048   7.634   8.833  2.0185 -0.3183 -1.6429
 1394TIP3   OH2 5063   2.307   0.267   7.175 -0.2385  0.5692  0.0954
 1394TIP3    H1 5064   2.312   0.362   7.188 -2.4470  0.5042  2.0527
 1394TIP3    H2 5065   2.368   0.231   7.240  0.9015  0.6047 -0.9153
 1395TIP3   OH2 5066   4.464   9.125   5.851  0.0222  0.8600 -0.9310
 1395TIP3    H1 5067   4.406   9.077   5.792  2.0259 -0.9775 -1.5423
 1395TIP3    H2 5068   4.514   9.183   5.794 -1.2221  2.5288 -0.3935
 1396TIP3   OH2 5069   5.899  10.147  10.594 -0.0954  0.4089 -0.5242
 1396TIP3    H1 5070   5.805  10.147  10.574 -0.0996 -1.4038 -0.6753
 1396TIP3    H2 5071   5.916  10.235  10.627 -2.7026 -0.2310  3.3143
 1397TIP3   OH2 5072   6.051   3.837   7.527 -0.3218 -0.1214  0.4462
 1397TIP3    H1 5073   6.128   3.782   7.544 -0.8396 -1.0849 -0.2209
 1397TIP3    H2 5074   5.978   3.789   7.565 -1.2305 -1.4108 -2.5782
 1398TIP3   OH2 5075   0.085   7.417   5.477  0.5329 -0.9327  0.4817
 1398TIP3    H1 5076   0.094   7.412   5.382  2.2276 -0.9061  0.5976
 1398TIP3    H2 5077   0.061   7.328   5.503 -0.3240 -0.8466  0.0082
 1399TIP3   OH2 5078   3.289   7.017   5.919 -0.0508 -0.0997  0.4164
 1399TIP3    H1 5079   3.327   7.077   5.855  2.0624 -0.2893  1.4284
 1399TIP3    H2 5080   3.299   6.930   5.880 -0.9496 -0.0312 -0.0030
 1400TIP3   OH2 5081   1.268   2.585   0.943 -0.3403 -0.5868  0.2985
 1400TIP3    H1 5082   1.204   2.654   0.957  0.0335  0.0593 -1.0132
 1400TIP3    H2 5083   1.328   2.592   1.018 -1.9052 -1.3930  1.6957
 1401TIP3   OH2 5084  10.698   5.894   0.331 -0.2194  0.3565  0.0514
 1401TIP3    H1 5085  10.702   5.957   0.404 -1.0595  0.1033  0.3178
 1401TIP3    H2 5086  10.675   5.947   0.255 -0.4766  0.4398  0.1876
 1402TIP3   OH2 5087   4.986   5.094   3.386 -0.2200 -0.4418 -0.1522
 1402TIP3    H1 5088   5.067   5.043   3.389  0.5286  0.7548  0.9224
 1402TIP3    H2 5089   4.948   5.082   3.473 -0.9745 -0.6204 -0.4992
 1403TIP3   OH2 5090  10.229  10.004   7.671  0.0619 -0.7765  0.7135
 1403TIP3    H1 5091  10.324  10.005   7.674  0.0463  0.5242  1.7715
 1403TIP3    H2 5092  10.207   9.934   7.610  1.6861 -1.2029  0.5875
 1404TIP3   OH2 5093   4.184   4.175  10.396  0.5414 -0.0650 -0.4142
 1404TIP3    H1 5094   4.189   4.149  10.488 -0.7546 -3.3935 -1.1456
 1404TIP3    H2 5095   4.271   4.155  10.361 -0.0570 -2.6124 -0.6628
 1405TIP3   OH2 5096   5.958   5.963   7.025 -0.1399 -0.4128  0.1364
 1405TIP3    H1 5097   5.988   5.960   6.934  0.9046 -1.5184  0.4907
 1405TIP3    H2 5098   6.012   6.033   7.064  0.9532 -1.3669  0.3974
 1406TIP3   OH2 5099   8.865  10.377   4.907  1.1987  0.0259 -0.7001
 1406TIP3    H1 5100   8.785  10.407   4.950 -0.0285 -3.1550 -0.5338
 1406TIP3    H2 5101   8.843  10.375   4.814  1.8459  1.1626 -0.8976
 1407TIP3   OH2 5102   8.425   6.825   6.443 -0.2276  0.0648 -0.1494
 1407TIP3    H1 5103   8.417   6.802   6.536  0.3635  0.3347 -0.0269
 1407TIP3    H2 5104   8.334   6.838   6.414 -0.5267 -1.4716  0.0035
 1408TIP3   OH2 5105   0.184   7.851   4.952 -0.2703  0.1262  0.5211
 1408TIP3    H1 5106   0.257   7.880   4.896  0.8309 -1.0860  1.2604
 1408TIP3    H2 5107   0.112   7.909   4.929  0.9432  1.4340 -0.2041
 1409TIP3   OH2 5108   2.422   8.029   3.230  0.2240 -0.3935 -1.1335
 1409TIP3    H1 5109   2.482   8.102   3.244 -1.4837  0.6073  1.9790
 1409TIP3    H2 5110   2.451   7.962   3.292 -1.0346 -0.3999 -0.5231
 1410TIP3   OH2 5111   0.289   4.534   0.371  0.6894  0.6381 -0.1069
 1410TIP3    H1 5112   0.346   4.607   0.396  1.0075  0.3375  0.0609
 1410TIP3    H2 5113   0.343   4.482   0.312  0.4958  0.4836 -0.1476
 1411TIP3   OH2 5114   0.104   8.987   8.283 -0.4693  0.0498 -0.4569
 1411TIP3    H1 5115   0.143   8.900   8.270  0.7340  0.3139  1.0958
 1411TIP3    H2 5116   0.108   9.027   8.197  5.4652  1.0885 -0.1531
 1412TIP3   OH2 5117   3.707   6.221   4.667 -0.5879  0.0452 -0.3026
 1412TIP3    H1 5118   3.612   6.227   4.676 -0.7780 -0.2016 -1.7798
 1412TIP3    H2 5119   3.741   6.230   4.756 -1.9311  1.3618  0.1280
 1413TIP3   OH2 5120   5.299   2.657   9.697  0.5498  0.2952  0.7258
 1413TIP3    H1 5121   5.380   2.686   9.740  0.5539  0.4381  0.6225
 1413TIP3    H2 5122   5.313   2.678   9.605  1.8394 -2.7601  0.0822
 1414TIP3   OH2 5123   1.247   2.060   8.978 -0.5311  0.0595 -0.2628
 1414TIP3    H1 5124   1.337   2.067   8.946  0.9448  3.1416  3.7133
 1414TIP3    H2 5125   1.255   2.022   9.066 -3.1223  0.3320  0.1811
 1415TIP3   OH2 5126   0.638  10.607   8.277  0.4961 -0.0925  0.5915
 1415TIP3    H1 5127   0.729  10.579   8.270  0.2622 -0.7892  0.2608
 1415TIP3    H2 5128   0.598  10.546   8.339  0.1959  0.0709  0.5650
 1416TIP3   OH2 5129   7.372   2.466   5.594 -0.1751  0.0900  0.0007
 1416TIP3    H1 5130   7.379   2.482   5.688 -0.4255  0.0749  0.0222
 1416TIP3    H2 5131   7.343   2.375   5.587  0.8514 -0.2469 -0.1160
 1417TIP3   OH2 5132   0.945   0.747   4.368  0.1735 -0.3933 -0.0300
 1417TIP3    H1 5133   0.938   0.655   4.395 -0.6334 -0.7138 -1.2762
 1417TIP3    H2 5134   0.955   0.744   4.273  1.7510  0.7639  0.0622
 1418TIP3   OH2 5135   2.324   5.180   7.058  0.7701 -0.5667  0.1779
 1418TIP3    H1 5136   2.359   5.106   7.108  1.5889  0.4124  1.1127
 1418TIP3    H2 5137   2.391   5.197   6.992  1.2446  0.1616  0.8206
 1419TIP3   OH2 5138   4.866   2.255   6.957  0.4718  0.4976  0.0551
 1419TIP3    H1 5139   4.852   2.282   6.866  1.8031 -0.3432 -0.4083
 1419TIP3    H2 5140   4.949   2.209   6.957  0.2109 -0.0366  1.6067
 1420TIP3   OH2 5141   9.711   3.116   2.996  0.7466 -0.7327 -0.8610
 1420TIP3    H1 5142   9.785   3.097   3.054  1.8686 -2.0924 -2.6149
 1420TIP3    H2 5143   9.719   3.209   2.976  1.3648 -0.6340 -0.2005
 1421TIP3   OH2 5144   4.869   9.158   4.322 -0.0127 -0.6234  0.1711
 1421TIP3    H1 5145   4.787   9.113   4.343 -0.5509  0.7413  1.1218
 1421TIP3    H2 5146   4.842   9.239   4.279  0.5849  1.3519  3.2060
 1422TIP3   OH2 5147  10.908   1.705   0.946  0.1976  0.7216  0.6622
 1422TIP3    H1 5148  10.917   1.787   0.897 -0.1017 -0.0393 -0.7209
 1422TIP3    H2 5149  10.989   1.697   0.995  1.6018  0.3587 -1.5817
 1423TIP3   OH2 5150  10.826   4.687   6.261  0.0198  0.3750  0.3485
 1423TIP3    H1 5151  10.873   4.674   6.344  1.1705  0.7592 -0.2188
 1423TIP3    H2 5152  10.841   4.779   6.240 -1.8021  0.7590  0.6086
 1424TIP3   OH2 5153   3.808   1.210   0.118  0.2621  0.1714 -0.2827
 1424TIP3    H1 5154   3.759   1.270   0.061  1.0004  0.4252 -0.6610
 1424TIP3    H2 5155   3.896   1.246   0.120  0.4013 -0.2053  0.5100
 1425TIP3   OH2 5156   4.214   4.651   4.108 -0.1326  0.0084  0.3190
 1425TIP3    H1 5157   4.298   4.654   4.154  0.6635 -0.5600 -1.0230
 1425TIP3    H2 5158   4.149   4.632   4.176  0.6873  1.3564  1.5343
 1426TIP3   OH2 5159   6.904   7.493   3.550  0.4791 -0.3040 -0.1847
 1426TIP3    H1 5160   6.964   7.561   3.580  0.7089 -0.3160 -0.6172
 1426TIP3    H2 5161   6.951   7.448   3.480  1.0730 -2.0950  1.2796
 1427TIP3   OH2 5162   4.235   3.473  10.273 -0.3313 -0.2797 -0.7729
 1427TIP3    H1 5163   4.168   3.429  10.219 -0.7164 -1.4965  0.6063
 1427TIP3    H2 5164   4.190   3.550  10.308 -0.8838 -0.8345 -0.2322
 1428TIP3   OH2 5165   0.709   0.358  10.780 -0.0500  0.0742  0.4929
 1428TIP3    H1 5166   0.783   0.415  10.800  0.1048 -0.1090  0.4434
 1428TIP3    H2 5167   0.632   0.416  10.785  0.2385  0.6256 -1.0047
 1429TIP3   OH2 5168   9.425   2.077   7.412 -0.2277  0.2263  0.2213
 1429TIP3    H1 5169   9.403   2.171   7.409  0.8963  0.5665  1.6280
 1429TIP3    H2 5170   9.391   2.048   7.497  1.2368 -0.1276  0.7183
 1430TIP3   OH2 5171   0.183   3.419   9.503  0.2282  0.0258 -0.2416
 1430TIP3    H1 5172   0.149   3.333   9.529  0.4658 -0.0747 -0.2661
 1430TIP3    H2 5173   0.123   3.448   9.434 -0.9551  0.6973  1.0311
 1431TIP3   OH2 5174   9.813   8.870   8.301  0.9292 -0.0606  0.0315
 1431TIP3    H1 5175   9.894   8.914   8.276  1.4233 -0.7315  0.4006
 1431TIP3    H2 5176   9.777   8.837   8.219  0.7688  0.6579 -0.1951
 1432TIP3   OH2 5177   7.167   6.457   0.238  0.0435  0.2500  0.0624
 1432TIP3    H1 5178   7.071   6.456   0.232  0.0403  0.9220 -0.0323
 1432TIP3    H2 5179   7.190   6.550   0.238  0.7786  0.1048 -1.3650
 1433TIP3   OH2 5180   6.221   7.348   0.917 -0.2653  0.3450 -0.6652
 1433TIP3    H1 5181   6.260   7.278   0.865  1.3720  0.2454  0.6309
 1433TIP3    H2 5182   6.189   7.411   0.852 -0.9055 -1.1331 -1.8241
 1434TIP3   OH2 5183   0.230   8.241   2.896  0.6389 -0.3212  0.4855
 1434TIP3    H1 5184   0.187   8.284   2.970  0.1136 -0.8594  0.5029
 1434TIP3    H2 5185   0.162   8.186   2.858  1.1683 -0.7733  0.1761
 1435TIP3   OH2 5186   8.708   3.577   6.264  0.2019 -0.3463 -0.6598
 1435TIP3    H1 5187   8.624   3.557   6.306 -1.0233  2.0220 -1.7493
 1435TIP3    H2 5188   8.764   3.607   6.335  0.1986 -2.0562  0.1025
 1436TIP3   OH2 5189   6.702   2.993   3.647  0.2158 -0.0625  0.0902
 1436TIP3    H1 5190   6.646   3.069   3.662  1.0428  0.8340 -1.1765
 1436TIP3    H2 5191   6.743   3.010   3.562  0.9852 -1.5752  0.1327
 1437TIP3   OH2 5192   6.191   2.174   5.108 -0.0992  0.3857 -0.2303
 1437TIP3    H1 5193   6.150   2.257   5.133  0.6187  0.6340  0.1686
 1437TIP3    H2 5194   6.121   2.123   5.067 -0.5122  1.2494 -0.6167
 1438TIP3   OH2 5195   2.748   9.428   7.775 -0.3643 -0.0267  0.0786
 1438TIP3    H1 5196   2.696   9.417   7.855 -0.6512  0.7657  0.0040
 1438TIP3    H2 5197   2.775   9.520   7.776  1.3856 -0.5021  0.3175
 1439TIP3   OH2 5198   9.851   4.627   4.296 -0.1536 -0.4483 -0.2058
 1439TIP3    H1 5199   9.760   4.626   4.267  0.2758 -0.1373 -1.6377
 1439TIP3    H2 5200   9.897   4.680   4.231  0.9579 -0.0991  0.8083
 1440TIP3   OH2 5201   6.425   5.126  10.370  0.8163  0.2104  0.0783
 1440TIP3    H1 5202   6.423   5.170  10.285  0.1221  1.6954  0.8143
 1440TIP3    H2 5203   6.352   5.064  10.367  0.2829  0.8347 -0.1363
 1441TIP3   OH2 5204  10.541   7.586   4.363 -0.1825  0.0488  0.4454
 1441TIP3    H1 5205  10.578   7.668   4.398 -0.6676  0.9906 -1.1448
 1441TIP3    H2 5206  10.607   7.556   4.300 -0.6872  0.0444 -0.0862
 1442TIP3   OH2 5207  10.888   3.929   5.290 -0.6562  0.0386 -0.5325
 1442TIP3    H1 5208  10.950   3.876   5.241 -1.8654 -1.0577 -0.9257
 1442TIP3    H2 5209  10.817   3.869   5.312 -1.9907  1.4466 -0.8290
 1443TIP3   OH2 5210   5.513   7.159   9.317  0.3418 -0.2818 -0.0682
 1443TIP3    H1 5211   5.583   7.202   9.268  0.2794  0.5695  0.5630
 1443TIP3    H2 5212   5.437   7.163   9.260  0.5460 -0.2711 -0.3397
 1444TIP3   OH2 5213   4.863   0.840   5.646  0.2086 -0.5798  0.0319
 1444TIP3    H1 5214   4.874   0.920   5.697  1.7686 -1.3328  0.9514
 1444TIP3    H2 5215   4.776   0.809   5.668  0.6913 -0.6791  1.9653
 1445TIP3   OH2 5216   3.396   7.422   6.591  0.6041  0.1031 -0.2624
 1445TIP3    H1 5217   3.334   7.462   6.530 -0.4271 -0.4689  0.3895
 1445TIP3    H2 5218   3.478   7.419   6.542 -0.5511 -1.7463 -2.2337
 1446TIP3   OH2 5219   8.942   9.711   5.092  0.1145  0.9672 -0.6683
 1446TIP3    H1 5220   9.019   9.766   5.097  0.7424  0.0106  0.8404
 1446TIP3    H2 5221   8.960   9.637   5.150 -1.5990  0.2947 -0.8989
 1447TIP3   OH2 5222   8.643   2.978   1.354  0.0624 -0.8026  0.2324
 1447TIP3    H1 5223   8.580   3.038   1.394  0.3238  0.1454 -0.7358
 1447TIP3    H2 5224   8.676   3.026   1.278  2.2652 -1.1047  0.9532
 1448TIP3   OH2 5225   4.577   8.235   7.913  0.2195 -0.1038  0.1757
 1448TIP3    H1 5226   4.482   8.240   7.905 -0.0634  2.7150  3.0420
 1448TIP3    H2 5227   4.608   8.324   7.895  1.9423 -0.2857  1.8230
 1449TIP3   OH2 5228   5.456   8.460   6.539  0.2176  0.1214 -0.2685
 1449TIP3    H1 5229   5.486   8.544   6.504  0.9124 -0.7079 -1.7984
 1449TIP3    H2 5230   5.532   8.426   6.586 -0.1546  0.4569  0.5919
 1450TIP3   OH2 5231   2.691   1.203   5.482  0.7895 -0.3099  0.2441
 1450TIP3    H1 5232   2.747   1.277   5.458 -0.9557  0.6587 -1.0309
 1450TIP3    H2 5233   2.670   1.217   5.574  1.2121  0.2669  0.2561
 1451TIP3   OH2 5234   5.959   7.684   2.239  0.6807  0.0511  0.1176
 1451TIP3    H1 5235   5.950   7.767   2.284  2.2970  0.1205  0.3575
 1451TIP3    H2 5236   5.876   7.639   2.253 -0.0963  1.4947  0.2247
 1452TIP3   OH2 5237   0.477   2.626   4.060 -0.3224 -0.1633  0.2170
 1452TIP3    H1 5238   0.477   2.579   3.977 -1.2228 -1.5083  0.9394
 1452TIP3    H2 5239   0.569   2.646   4.076 -0.2177  0.9431 -1.5285
 1453TIP3   OH2 5240  10.774  10.779   5.680  0.1741 -0.1910 -0.1734
 1453TIP3    H1 5241  10.826  10.849   5.641  0.0093  0.0771  0.0920
 1453TIP3    H2 5242  10.828  10.747   5.752  0.0320 -0.0089  0.0127
 1454TIP3   OH2 5243   8.037   7.316   7.347 -0.2735  0.3506  0.3902
 1454TIP3    H1 5244   8.097   7.247   7.320  1.7710  2.4272 -0.7674
 1454TIP3    H2 5245   8.062   7.336   7.437 -0.8199 -0.3567  0.7016
 1455TIP3   OH2 5246   2.857   7.178   7.571  0.0641  0.4117 -0.1033
 1455TIP3    H1 5247   2.769   7.174   7.535 -0.1895  0.5361  0.4787
 1455TIP3    H2 5248   2.890   7.088   7.567 -0.1334  0.3456 -0.2198
 1456TIP3   OH2 5249   7.507   2.256   0.746 -0.4151  0.3111  0.3996
 1456TIP3    H1 5250   7.413   2.268   0.736 -0.3772 -1.0116 -2.3913
 1456TIP3    H2 5251   7.530   2.189   0.682  2.3604  0.1505  1.4112
 1457TIP3   OH2 5252   6.396   9.174   9.791 -0.9457  0.1713 -0.2824
 1457TIP3    H1 5253   6.443   9.231   9.852 -2.1564  0.7650  0.1143
 1457TIP3    H2 5254   6.446   9.182   9.709 -0.0775  0.4097  0.2564
 1458TIP3   OH2 5255   5.310   3.706   9.065 -0.1693  0.0244 -0.0159
 1458TIP3    H1 5256   5.357   3.790   9.059 -0.2138  0.0676  0.2357
 1458TIP3    H2 5257   5.247   3.709   8.993 -0.0485  0.1298 -0.1199
 1459TIP3   OH2 5258   5.552   6.459   0.637 -0.0158 -0.9125  0.2483
 1459TIP3    H1 5259   5.643   6.479   0.614  1.0188 -4.7319  0.3353
 1459TIP3    H2 5260   5.548   6.475   0.732  0.1805  0.4213  0.0467
 1460TIP3   OH2 5261  10.731  10.410   4.894 -0.1829 -0.1491  0.1469
 1460TIP3    H1 5262  10.774  10.464   4.828 -0.2784 -0.5751 -0.2672
 1460TIP3    H2 5263  10.690  10.339   4.845 -1.2392  0.1653  0.5467
 1461TIP3   OH2 5264   6.297   3.910   9.332  0.4065  0.6782  0.0712
 1461TIP3    H1 5265   6.222   3.938   9.280  0.1951 -0.5091 -0.2966
 1461TIP3    H2 5266   6.277   3.941   9.421  0.0259  1.3499 -0.2451
 1462TIP3   OH2 5267   4.192   1.126   3.642  0.4407 -0.1552  0.0664
 1462TIP3    H1 5268   4.205   1.032   3.629  3.1548  0.3171 -1.5039
 1462TIP3    H2 5269   4.109   1.145   3.597 -0.0128 -1.7251  0.1792
 1463TIP3   OH2 5270   8.889   2.465   6.394 -0.4037  0.3990 -0.8419
 1463TIP3    H1 5271   8.966   2.523   6.397 -0.2152  0.0928  0.9309
 1463TIP3    H2 5272   8.898   2.419   6.310  1.9006 -0.3500 -0.2563
 1464TIP3   OH2 5273   7.089   9.878   5.568 -0.1756  0.2920  0.6237
 1464TIP3    H1 5274   7.147   9.840   5.634  0.9175  0.5014 -0.1853
 1464TIP3    H2 5275   7.018   9.815   5.559 -0.5873  0.4724  2.3019
 1465TIP3   OH2 5276   2.646   2.255   9.450 -0.3642 -0.4737  0.5892
 1465TIP3    H1 5277   2.634   2.299   9.365 -0.3795  0.6909  1.1715
 1465TIP3    H2 5278   2.714   2.190   9.433 -1.0881 -0.9673 -0.5558
 1466TIP3   OH2 5279   3.880   4.630   6.015 -0.0013 -0.9440 -0.1788
 1466TIP3    H1 5280   3.854   4.550   5.969 -1.0257 -0.5277 -0.3648
 1466TIP3    H2 5281   3.806   4.690   6.002  0.3719 -0.2667  0.6838
 1467TIP3   OH2 5282   1.193   6.525   8.281  0.0269  0.2646  0.1827
 1467TIP3    H1 5283   1.273   6.551   8.326  0.2229 -0.3382  0.2004
 1467TIP3    H2 5284   1.223   6.493   8.196  0.1174 -2.3073  1.0939
 1468TIP3   OH2 5285   3.897  10.778   3.748 -0.0968  0.1972  0.2066
 1468TIP3    H1 5286   3.950  10.730   3.811  1.4501  0.5876 -0.7434
 1468TIP3    H2 5287   3.856  10.848   3.799 -0.7402 -0.8746  1.1963
 1469TIP3   OH2 5288  10.328   1.162   6.003 -0.4588 -0.1330  0.2254
 1469TIP3    H1 5289  10.241   1.173   5.966  0.3833  0.4992 -1.6971
 1469TIP3    H2 5290  10.360   1.251   6.018  0.2735 -0.3143 -0.1848
 1470TIP3   OH2 5291   1.199   7.582   4.415  0.8560 -0.0294 -0.5060
 1470TIP3    H1 5292   1.251   7.662   4.411  1.7886 -0.5436  0.5672
 1470TIP3    H2 5293   1.141   7.595   4.490 -0.7691  0.6273 -1.8192
 1471TIP3   OH2 5294   1.644   8.425   8.113  0.1744 -0.1941  0.1802
 1471TIP3    H1 5295   1.707   8.494   8.091  1.4272 -1.7522 -1.3367
 1471TIP3    H2 5296   1.672   8.394   8.200 -0.0875  0.8245  0.6431
 1472TIP3   OH2 5297   9.144   0.819   9.089 -0.3729  0.2249  0.0492
 1472TIP3    H1 5298   9.149   0.912   9.112 -0.5127  0.5656 -1.2260
 1472TIP3    H2 5299   9.052   0.805   9.067 -0.3861 -0.2658  0.4094
 1473TIP3   OH2 5300   7.057   7.820   5.405 -0.1954 -0.3464 -0.2850
 1473TIP3    H1 5301   7.078   7.742   5.353 -2.1348 -0.9231 -0.2618
 1473TIP3    H2 5302   7.035   7.785   5.492 -1.9047  0.1063 -0.5028
 1474TIP3   OH2 5303   9.543   0.253   9.135 -0.0836 -0.2740  0.4915
 1474TIP3    H1 5304   9.632   0.278   9.162 -1.0507  4.2675  0.1999
 1474TIP3    H2 5305   9.492   0.258   9.215 -0.7989  1.5183 -0.0350
 1475TIP3   OH2 5306   6.593   6.546   5.014  0.6596 -0.2918  0.2220
 1475TIP3    H1 5307   6.670   6.588   4.975 -0.1766  0.1957 -0.9890
 1475TIP3    H2 5308   6.623   6.512   5.097  2.6914 -1.7916 -1.0417
 1476TIP3   OH2 5309   1.762   8.985   6.474 -0.0392 -0.1814 -0.2010
 1476TIP3    H1 5310   1.792   9.072   6.497 -0.4859 -0.2646  0.7338
 1476TIP3    H2 5311   1.724   8.950   6.555 -0.4430 -0.9924 -0.7233
 1477TIP3   OH2 5312  10.296   9.630   0.205 -0.5065  0.0420 -0.0914
 1477TIP3    H1 5313  10.263   9.560   0.149 -0.4226 -0.2221  0.1894
 1477TIP3    H2 5314  10.312   9.588   0.290 -0.2635  0.3562  0.0200
 1478TIP3   OH2 5315   6.887   4.680   2.247 -0.0366  0.5855  0.0659
 1478TIP3    H1 5316   6.976   4.663   2.277  0.0745 -0.1829 -0.6671
 1478TIP3    H2 5317   6.898   4.731   2.167 -0.2598  0.6344  0.0670
 1479TIP3   OH2 5318   8.874   8.105   4.341 -0.1834  0.3068  0.4223
 1479TIP3    H1 5319   8.833   8.020   4.359  0.3895 -0.2811 -0.9451
 1479TIP3    H2 5320   8.812   8.150   4.284 -0.4945  0.8459  1.1572
 1480TIP3   OH2 5321   5.908   0.071   2.541 -0.2707 -0.4257 -0.0368
 1480TIP3    H1 5322   5.958   0.022   2.476 -1.6668  0.1298 -1.6171
 1480TIP3    H2 5323   5.921   0.163   2.517  0.6640 -0.0915  1.6263
 1481TIP3   OH2 5324   1.606   9.129   1.412 -0.8009  0.2923 -0.2311
 1481TIP3    H1 5325   1.600   9.039   1.379 -1.6198 -0.0612  0.8410
 1481TIP3    H2 5326   1.646   9.178   1.340  0.6902 -1.1296 -0.4388
 1482TIP3   OH2 5327   3.970   7.698   5.486 -0.2677  0.1014 -0.8641
 1482TIP3    H1 5328   4.028   7.762   5.527  0.0064 -0.8113  0.2447
 1482TIP3    H2 5329   3.882   7.725   5.511 -0.3237  1.2769 -2.2392
 1483TIP3   OH2 5330   3.184   1.581   6.357  1.1654  0.5438  0.0728
 1483TIP3    H1 5331   3.118   1.548   6.418  0.5873  3.1123  0.9676
 1483TIP3    H2 5332   3.235   1.642   6.410  3.6223 -0.5559 -0.8906
 1484TIP3   OH2 5333  10.601   4.200   8.479 -0.4015 -0.4202  0.5784
 1484TIP3    H1 5334  10.519   4.176   8.438  0.1197 -0.8852 -0.2161
 1484TIP3    H2 5335  10.658   4.225   8.406  0.4532 -1.0118  1.0267
 1485TIP3   OH2 5336   6.744   3.016   3.098 -0.0449 -0.1285  0.2314
 1485TIP3    H1 5337   6.834   3.038   3.071 -0.5113  0.2012 -1.1371
 1485TIP3    H2 5338   6.702   2.984   3.018 -1.2555  0.0581  0.7699
 1486TIP3   OH2 5339   6.189   1.936   0.478 -0.0011  0.8206 -0.3482
 1486TIP3    H1 5340   6.098   1.958   0.456 -0.6986 -1.5696 -0.1575
 1486TIP3    H2 5341   6.236   1.948   0.395 -1.6462 -3.2389 -2.1751
 1487TIP3   OH2 5342   5.489   3.174   4.192  0.0931 -0.0665  0.2454
 1487TIP3    H1 5343   5.489   3.085   4.155 -0.9201 -0.9835  2.2510
 1487TIP3    H2 5344   5.398   3.187   4.220  0.8240  0.4369  2.5375
 1488TIP3   OH2 5345   3.827  10.159   5.221  0.2610  0.3797  0.4009
 1488TIP3    H1 5346   3.796  10.077   5.261  0.7806  0.1699  0.3812
 1488TIP3    H2 5347   3.905  10.181   5.271 -0.0834  1.0653  0.6427
 1489TIP3   OH2 5348   7.466   6.271   2.088 -0.6687 -0.0105  0.1543
 1489TIP3    H1 5349   7.501   6.358   2.108 -1.9934  0.3500  1.0160
 1489TIP3    H2 5350   7.436   6.277   1.998 -0.6676  0.3968  0.1809
 1490TIP3   OH2 5351   5.860   4.880   5.652  0.5687  0.0646 -0.0756
 1490TIP3    H1 5352   5.874   4.839   5.566  0.3358  0.8547 -0.4984
 1490TIP3    H2 5353   5.787   4.832   5.689  1.3290 -0.9690  0.1326
 1491TIP3   OH2 5354   9.808   6.013   2.776 -0.7483 -0.3418  0.2121
 1491TIP3    H1 5355   9.712   6.014   2.775 -0.7681 -0.2912 -1.6487
 1491TIP3    H2 5356   9.833   6.102   2.752 -0.2901 -0.8768 -1.4003
 1492TIP3   OH2 5357   0.246   7.586   8.248  0.1387 -0.4454 -0.0987
 1492TIP3    H1 5358   0.212   7.545   8.169 -0.7165 -1.9928  1.0201
 1492TIP3    H2 5359   0.183   7.655   8.269 -0.1482 -0.6686 -0.2297
 1493TIP3   OH2 5360   9.344   5.141   1.594 -0.6055 -0.6301  0.0091
 1493TIP3    H1 5361   9.274   5.206   1.588 -1.5757 -1.7117 -1.3655
 1493TIP3    H2 5362   9.425   5.191   1.596 -1.2186  0.6645 -2.7544
 1494TIP3   OH2 5363   7.521   0.729   6.612 -0.1110  0.4660  0.2445
 1494TIP3    H1 5364   7.501   0.804   6.555  3.4077  2.1357  0.9131
 1494TIP3    H2 5365   7.489   0.756   6.698 -1.0267  0.0817  0.0384
 1495TIP3   OH2 5366   6.554   2.079   1.245 -0.4122 -0.4009 -0.1811
 1495TIP3    H1 5367   6.468   2.095   1.284  0.5682  0.1321  1.9007
 1495TIP3    H2 5368   6.535   2.024   1.169 -2.7135  0.9032 -0.6431
 1496TIP3   OH2 5369   6.801   2.429   9.617 -0.5442 -0.0566  0.2980
 1496TIP3    H1 5370   6.787   2.443   9.523 -1.7922  0.2589  0.5194
 1496TIP3    H2 5371   6.782   2.336   9.631 -1.1818  0.0859  0.3809
 1497TIP3   OH2 5372   6.731   3.362   3.286 -0.0913  0.2502  0.3318
 1497TIP3    H1 5373   6.660   3.372   3.349  0.1318  1.4163  0.4111
 1497TIP3    H2 5374   6.688   3.326   3.208 -0.5760 -0.0662  0.7370
 1498TIP3   OH2 5375   9.294   3.227   5.053  0.5010 -0.8459  0.0578
 1498TIP3    H1 5376   9.215   3.176   5.069  1.1044 -1.3424  1.7497
 1498TIP3    H2 5377   9.318   3.261   5.140  1.8594 -0.3013 -0.5044
 1499TIP3   OH2 5378   4.044   2.508   7.603 -0.4807  0.5918 -0.0239
 1499TIP3    H1 5379   3.992   2.574   7.558 -1.7212  1.3710  2.3982
 1499TIP3    H2 5380   4.050   2.540   7.693 -1.6285 -2.8468  1.4195
 1500TIP3   OH2 5381   8.749   9.963   5.289 -0.2494 -0.2316 -0.3766
 1500TIP3    H1 5382   8.740   9.990   5.197  0.0196 -1.3853 -0.7559
 1500TIP3    H2 5383   8.681  10.013   5.335 -1.1290 -0.4550 -1.3827
 1501TIP3   OH2 5384   9.214   2.722   6.156 -0.3245 -0.0748 -0.1011
 1501TIP3    H1 5385   9.164   2.683   6.084 -0.1129 -2.5221  0.9835
 1501TIP3    H2 5386   9.287   2.766   6.113 -0.8125 -0.5411 -1.4614
 1502TIP3   OH2 5387   1.214   1.795   0.876 -0.1388 -0.2257  0.3326
 1502TIP3    H1 5388   1.170   1.840   0.948  1.4599 -0.5294  1.5712
 1502TIP3    H2 5389   1.307   1.818   0.886  0.1214 -0.1068 -1.7926
 1503TIP3   OH2 5390   9.046   9.400   0.384 -0.9780  0.4668  0.3820
 1503TIP3    H1 5391   9.042   9.373   0.476  2.0629  1.9443  1.0625
 1503TIP3    H2 5392   9.116   9.348   0.347 -0.9744  1.1722 -0.6291
 1504TIP3   OH2 5393   1.640  10.643   4.295  1.1850  0.4010 -1.0474
 1504TIP3    H1 5394   1.610  10.656   4.385  0.8489  4.0393 -1.5418
 1504TIP3    H2 5395   1.617  10.553   4.275  0.3697 -0.2273  2.1671
 1505TIP3   OH2 5396   7.464   6.721   3.784 -0.4307  0.1679 -0.5139
 1505TIP3    H1 5397   7.532   6.680   3.837 -1.7286 -1.0887  0.2879
 1505TIP3    H2 5398   7.432   6.650   3.728 -1.1462  0.6853 -0.7822
 1506TIP3   OH2 5399   5.784   7.053   4.438 -0.2263 -0.0009  0.0155
 1506TIP3    H1 5400   5.841   7.128   4.421  0.4517 -0.8201 -1.4979
 1506TIP3    H2 5401   5.731   7.044   4.359 -0.2497 -1.1429  0.1390
 1507TIP3   OH2 5402   3.110   7.790   3.889  0.2058 -0.3686 -0.4408
 1507TIP3    H1 5403   3.035   7.846   3.906 -0.5928 -2.0522  2.0693
 1507TIP3    H2 5404   3.077   7.701   3.900  2.2466 -1.2216 -0.7081
 1508TIP3   OH2 5405   2.311   3.155   0.325 -0.2896  0.5267  0.9059
 1508TIP3    H1 5406   2.343   3.232   0.277 -2.6248  1.1494  0.2260
 1508TIP3    H2 5407   2.273   3.191   0.405 -1.6700  0.1411  0.4372
 1509TIP3   OH2 5408   5.451   7.182  10.243  0.1783 -0.0728  0.3803
 1509TIP3    H1 5409   5.510   7.166  10.169 -1.2600  1.1915 -1.1149
 1509TIP3    H2 5410   5.454   7.277  10.256  0.3767 -0.2668  1.9602
 1510TIP3   OH2 5411   3.902   1.911   8.557 -0.5210 -0.2111  0.2107
 1510TIP3    H1 5412   3.937   1.916   8.645  0.5075 -1.3541 -0.1091
 1510TIP3    H2 5413   3.809   1.892   8.569 -0.5287  0.3278  1.0446
 1511TIP3   OH2 5414  10.074   6.807  10.392 -0.2259 -0.2582  0.0788
 1511TIP3    H1 5415  10.127   6.873  10.436  0.9995 -0.7386 -0.6227
 1511TIP3    H2 5416  10.089   6.727  10.442 -1.3460 -0.1345  0.6514
 1512TIP3   OH2 5417  10.876   9.964   6.746  0.1479  0.2819  0.1097
 1512TIP3    H1 5418  10.881   9.897   6.678  0.6650 -1.4317  1.7336
 1512TIP3    H2 5419  10.783   9.971   6.767  0.2115 -1.1570  1.0184
 1513TIP3   OH2 5420   1.938   3.334   1.152  0.5120  0.4771 -1.0127
 1513TIP3    H1 5421   1.860   3.313   1.204  1.3666  0.6371  0.3932
 1513TIP3    H2 5422   1.951   3.257   1.096  0.6784 -0.5835  0.4259
 1514TIP3   OH2 5423   3.109   2.685   3.546  0.0921  0.0651  0.1727
 1514TIP3    H1 5424   3.018   2.689   3.577 -0.1957 -0.0006 -0.6418
 1514TIP3    H2 5425   3.150   2.618   3.600 -0.6712 -0.7823 -0.2665
 1515TIP3   OH2 5426   4.645   6.971  10.670 -0.2843 -0.0674  0.0814
 1515TIP3    H1 5427   4.709   6.963  10.600 -0.3955  0.8164 -0.1316
 1515TIP3    H2 5428   4.690   6.939  10.748  0.1886 -0.0895 -0.2008
 1516TIP3   OH2 5429   6.601   7.972   6.990 -0.3712 -0.6128  0.4774
 1516TIP3    H1 5430   6.506   7.963   6.992 -0.6387  1.3591  2.9994
 1516TIP3    H2 5431   6.622   8.014   7.074  2.5333  0.5888 -0.7327
 1517TIP3   OH2 5432   0.781   4.017   3.241  0.3724  0.1960  0.3584
 1517TIP3    H1 5433   0.708   4.072   3.212  0.1667  0.0205  0.5502
 1517TIP3    H2 5434   0.854   4.044   3.184 -0.2711 -0.8203 -1.0035
 1518TIP3   OH2 5435   0.995  10.308   8.390  0.3843  0.2739 -0.3151
 1518TIP3    H1 5436   1.057  10.374   8.424  0.3958  0.0116  0.1748
 1518TIP3    H2 5437   0.955  10.351   8.314 -0.6140  1.3885  0.7923
 1519TIP3   OH2 5438   0.246   1.570   3.948 -0.0344  0.1479  0.0081
 1519TIP3    H1 5439   0.199   1.627   3.888  0.2010 -1.4112 -1.7350
 1519TIP3    H2 5440   0.230   1.608   4.035 -2.9742  0.7036 -0.6818
 1520TIP3   OH2 5441   2.931   1.770   7.900 -0.3460  0.2754  0.6728
 1520TIP3    H1 5442   2.971   1.826   7.966  0.8088  1.9513 -1.3072
 1520TIP3    H2 5443   2.993   1.698   7.888 -1.1885 -0.7582  2.2785
 1521TIP3   OH2 5444   2.774   4.191   4.895  0.2380 -0.2326 -0.3693
 1521TIP3    H1 5445   2.843   4.222   4.837 -1.4446 -0.6168 -2.6891
 1521TIP3    H2 5446   2.809   4.110   4.933  1.4781  0.1757 -0.6041
 1522TIP3   OH2 5447   9.693   9.082   5.445 -0.2852 -0.4422  0.0577
 1522TIP3    H1 5448   9.675   9.170   5.478 -0.0517 -0.5661  0.5343
 1522TIP3    H2 5449   9.630   9.069   5.375 -0.5491 -0.0242  0.2136
 1523TIP3   OH2 5450   7.549   6.583   8.627  0.4059 -0.2760  0.1144
 1523TIP3    H1 5451   7.555   6.575   8.722  1.2633 -0.2915  0.0662
 1523TIP3    H2 5452   7.635   6.558   8.595  0.0384 -0.5517 -0.6911
 1524TIP3   OH2 5453   3.214   6.733  10.066 -0.3975 -0.0999 -0.1088
 1524TIP3    H1 5454   3.146   6.790  10.032 -0.5899 -0.7597 -0.8522
 1524TIP3    H2 5455   3.190   6.717  10.157 -1.4163 -0.5890 -0.4546
 1525TIP3   OH2 5456   0.699   5.000   5.056  0.2899 -0.3243  0.0096
 1525TIP3    H1 5457   0.777   5.012   5.001  1.0247 -1.4840  0.7342
 1525TIP3    H2 5458   0.698   4.906   5.074 -1.5649 -0.4009 -0.3553
 1526TIP3   OH2 5459   8.854   3.513   1.922  0.4256 -0.2480 -0.1138
 1526TIP3    H1 5460   8.943   3.481   1.933  0.0912 -1.3653 -0.5386
 1526TIP3    H2 5461   8.799   3.447   1.964 -0.3581 -0.8371 -1.9917
 1527TIP3   OH2 5462   0.131   8.897   6.642  0.2330  0.5127 -0.0788
 1527TIP3    H1 5463   0.095   8.976   6.602 -1.7749 -1.0006 -1.4352
 1527TIP3    H2 5464   0.091   8.894   6.729 -0.2062  0.6578 -0.2745
 1528TIP3   OH2 5465   0.318   5.628  10.828  0.1567  0.9290 -0.1616
 1528TIP3    H1 5466   0.411   5.604  10.822 -0.1302 -1.0440  1.9250
 1528TIP3    H2 5467   0.314   5.690  10.901 -0.2397  0.2338  0.4298
 1529TIP3   OH2 5468   0.288  10.205   1.595  0.2662  0.2970 -0.5316
 1529TIP3    H1 5469   0.368  10.210   1.543 -0.0660 -2.3649 -1.4139
 1529TIP3    H2 5470   0.297  10.125   1.647 -0.7653  1.2672  1.2590
 1530TIP3   OH2 5471   3.347   2.880   4.801 -0.3408 -0.1095 -0.3153
 1530TIP3    H1 5472   3.378   2.801   4.757  1.2940 -0.0438  0.6390
 1530TIP3    H2 5473   3.410   2.948   4.777 -1.0898  0.6511 -0.2143
 1531TIP3   OH2 5474   0.346   1.794   8.671 -0.0124 -0.1574  0.0055
 1531TIP3    H1 5475   0.277   1.857   8.692 -0.7073 -0.8325 -0.2348
 1531TIP3    H2 5476   0.361   1.745   8.751 -1.7368 -1.8394 -0.6420
 1532TIP3   OH2 5477   9.405   5.935   1.953 -0.4952 -0.3380  0.3986
 1532TIP3    H1 5478   9.385   6.015   2.003 -0.6033 -0.5651  0.7193
 1532TIP3    H2 5479   9.426   5.967   1.865  0.7969  0.1509  0.8694
 1533TIP3   OH2 5480   8.589   4.283   4.154  0.0775  0.4881 -0.3168
 1533TIP3    H1 5481   8.598   4.188   4.152 -0.6309  0.4197 -0.5011
 1533TIP3    H2 5482   8.523   4.300   4.221 -0.2944  0.8043 -0.7569
 1534TIP3   OH2 5483  10.727   5.142   5.668  0.0295  0.5769 -0.1930
 1534TIP3    H1 5484  10.724   5.075   5.601 -1.5455 -1.2147  1.5476
 1534TIP3    H2 5485  10.651   5.198   5.650 -0.4925 -0.0040  0.1244
 1535TIP3   OH2 5486   0.832   6.556   1.955  0.3226  0.0060 -0.1497
 1535TIP3    H1 5487   0.753   6.542   1.903 -0.4041  2.1122  0.3146
 1535TIP3    H2 5488   0.804   6.542   2.046  0.6199  0.2453 -0.0205
 1536TIP3   OH2 5489  10.572   4.411   3.051 -0.6898  0.0811 -0.4494
 1536TIP3    H1 5490  10.590   4.364   3.132  1.5887 -0.0603 -0.9614
 1536TIP3    H2 5491  10.645   4.389   2.993  0.1294  3.5544 -0.9929
 1537TIP3   OH2 5492   2.105   7.563   9.585 -0.1364  0.0523  0.2854
 1537TIP3    H1 5493   2.165   7.519   9.524 -1.6648  0.1289 -1.3384
 1537TIP3    H2 5494   2.028   7.506   9.588 -0.7582  0.9044  0.8185
 1538TIP3   OH2 5495   4.601   9.225   4.527  0.7627  0.0197 -0.7827
 1538TIP3    H1 5496   4.616   9.319   4.537  0.5408  0.1534 -1.6711
 1538TIP3    H2 5497   4.654   9.185   4.597 -1.1917  0.9148  1.3289
 1539TIP3   OH2 5498   2.050   8.457   7.985 -0.3190 -0.1714 -0.2792
 1539TIP3    H1 5499   2.142   8.477   8.005  0.4506 -2.9821 -0.5493
 1539TIP3    H2 5500   2.016   8.537   7.946  1.3207  1.7453  1.9299
 1540TIP3   OH2 5501   7.142   8.966   7.055  0.0978  0.0887 -0.3667
 1540TIP3    H1 5502   7.145   8.966   7.151 -0.6253  2.3835 -0.2766
 1540TIP3    H2 5503   7.227   9.003   7.029  0.0018  0.1533 -0.5868
 1541TIP3   OH2 5504   9.945  10.180   3.327 -0.1151 -0.1351 -0.0193
 1541TIP3    H1 5505   9.981  10.269   3.324 -0.9194  0.1829 -0.9397
 1541TIP3    H2 5506   9.850  10.193   3.326 -0.2891 -0.9603  1.8659
 1542TIP3   OH2 5507   6.069   8.329   9.131 -0.1858 -0.1040 -0.4697
 1542TIP3    H1 5508   6.088   8.423   9.139 -0.6989 -0.0932  0.8731
 1542TIP3    H2 5509   6.148   8.292   9.093  0.8170  0.6003  0.8352
 1543TIP3   OH2 5510   6.440   8.235   4.044  0.8864 -0.5487  0.4549
 1543TIP3    H1 5511   6.516   8.214   3.991 -1.7719 -2.6643 -2.9483
 1543TIP3    H2 5512   6.390   8.298   3.991  0.2524  0.9137  2.6376
 1544TIP3   OH2 5513   2.589   0.056   1.307  0.7545 -0.2429 -0.4323
 1544TIP3    H1 5514   2.613   0.001   1.232  0.1404 -1.1286 -0.0039
 1544TIP3    H2 5515   2.671   0.074   1.352  1.2350  0.8896 -1.6833
 1545TIP3   OH2 5516   3.635  10.885   2.598  0.0531  0.4488 -0.1797
 1545TIP3    H1 5517   3.593  10.931   2.671 -0.0703  0.4402 -0.2444
 1545TIP3    H2 5518   3.723  10.922   2.594  0.2016  0.1491  0.2401
 1546TIP3   OH2 5519   9.692   6.278   4.868 -0.2512  0.5700 -0.3753
 1546TIP3    H1 5520   9.617   6.247   4.919 -1.3163  1.9965 -1.0161
 1546TIP3    H2 5521   9.728   6.199   4.828 -1.8559 -0.0674 -0.6317
 1547TIP3   OH2 5522   1.687   5.360   0.976 -0.4202 -0.0764  0.2606
 1547TIP3    H1 5523   1.695   5.390   1.067 -2.0393  3.2622 -0.5392
 1547TIP3    H2 5524   1.775   5.330   0.953  0.5894  1.1006  2.2684
 1548TIP3   OH2 5525  10.697  10.050   1.719  0.1419 -0.3110 -0.6267
 1548TIP3    H1 5526  10.641  10.127   1.715  0.0205 -0.3290  0.3406
 1548TIP3    H2 5527  10.736  10.054   1.807  1.5972 -0.3386 -1.2297
 1549TIP3   OH2 5528   3.904   1.947   4.485  0.2143 -0.8138 -0.1402
 1549TIP3    H1 5529   3.850   1.886   4.534  1.8758 -1.8556  0.4844
 1549TIP3    H2 5530   3.867   1.945   4.396 -1.4935 -0.5456  0.5405
 1550TIP3   OH2 5531   3.848   3.690   3.508 -0.0024  0.1825  0.3593
 1550TIP3    H1 5532   3.862   3.783   3.489  1.7140 -0.2043 -0.4627
 1550TIP3    H2 5533   3.765   3.669   3.464 -0.3817  1.2969  0.5007
 1551TIP3   OH2 5534   7.323   4.739   4.945  0.1182  0.1606 -0.1866
 1551TIP3    H1 5535   7.320   4.806   5.013  0.6462  0.4350 -0.4338
 1551TIP3    H2 5536   7.407   4.752   4.901  0.0889 -0.4606 -0.4407
 1552TIP3   OH2 5537   4.158   7.587   1.308 -0.1397 -0.1942  0.3704
 1552TIP3    H1 5538   4.092   7.620   1.370 -0.3985 -0.6151  0.3260
 1552TIP3    H2 5539   4.137   7.629   1.225 -1.4654 -1.6393 -0.0864
 1553TIP3   OH2 5540   8.621   3.739   5.250 -0.2523 -0.2771 -0.5314
 1553TIP3    H1 5541   8.636   3.645   5.242 -1.2795 -0.4728 -0.3426
 1553TIP3    H2 5542   8.631   3.772   5.161  0.3933 -0.5112 -0.5529
 1554TIP3   OH2 5543   9.575   3.922   4.278 -0.1095  0.2269  0.3648
 1554TIP3    H1 5544   9.524   3.984   4.332 -0.3775  0.4965 -0.1889
 1554TIP3    H2 5545   9.567   3.839   4.324  0.5362  0.6630  1.3086
 1555TIP3   OH2 5546   4.235   7.837   6.066  0.0374 -0.4259  0.0848
 1555TIP3    H1 5547   4.209   7.929   6.061 -1.2586 -0.7257  0.8978
 1555TIP3    H2 5548   4.329   7.840   6.084  0.0740  0.7328 -0.2250
 1556TIP3   OH2 5549   4.076   6.731   3.919  0.5650  0.1493 -0.1547
 1556TIP3    H1 5550   4.093   6.770   4.005 -2.0028 -0.2753  0.6362
 1556TIP3    H2 5551   4.071   6.805   3.859  1.4112  0.5285  0.2262
 1557TIP3   OH2 5552   2.455   0.859   6.924  0.2193 -0.3914  0.2903
 1557TIP3    H1 5553   2.480   0.878   6.833  0.8895 -0.8386  0.3789
 1557TIP3    H2 5554   2.478   0.939   6.972 -1.4759  0.4160 -0.1600
 1558TIP3   OH2 5555   9.996   3.586   2.921  0.5450 -0.4902  0.1765
 1558TIP3    H1 5556   9.954   3.501   2.930 -0.5648  0.1059  0.8970
 1558TIP3    H2 5557  10.059   3.590   2.994  0.9446 -0.8664 -0.1392
 1559TIP3   OH2 5558   1.138   7.281   3.372  0.2312  0.0478 -0.1678
 1559TIP3    H1 5559   1.166   7.312   3.285 -0.3477  0.4396 -0.2273
 1559TIP3    H2 5560   1.098   7.358   3.412  1.3605  0.1284  0.8387
 1560TIP3   OH2 5561   1.127   6.965   0.590  0.1693 -0.2026  0.1433
 1560TIP3    H1 5562   1.077   7.019   0.529  0.4434 -1.3363 -1.1365
 1560TIP3    H2 5563   1.216   6.963   0.554 -0.0961 -2.4200 -0.5223
 1561TIP3   OH2 5564   7.304   1.983   9.918 -0.0205 -0.2683 -0.3651
 1561TIP3    H1 5565   7.250   2.053   9.956 -0.4487 -0.1473 -1.1730
 1561TIP3    H2 5566   7.241   1.914   9.898  0.3150 -0.6386 -0.1493
 1562TIP3   OH2 5567   5.405   7.612   2.880 -0.0615  0.1148  0.0650
 1562TIP3    H1 5568   5.395   7.529   2.927 -0.5354 -0.9196 -1.7919
 1562TIP3    H2 5569   5.481   7.598   2.823 -1.0966  0.3535 -1.4167
 1563TIP3   OH2 5570   4.761   4.978   3.243 -0.3704  0.5645 -0.4045
 1563TIP3    H1 5571   4.772   4.960   3.150  2.1821 -0.1943 -0.0281
 1563TIP3    H2 5572   4.834   5.037   3.265 -1.1018  0.9818  1.0514
 1564TIP3   OH2 5573   0.165  10.616   0.981 -0.4680 -0.0210 -0.2556
 1564TIP3    H1 5574   0.227  10.544   0.972 -1.3639 -0.9032  0.3048
 1564TIP3    H2 5575   0.190  10.660   1.063 -1.7593 -1.6372  1.0920
 1565TIP3   OH2 5576   4.707   5.438   5.174  0.2249  0.5233  0.1840
 1565TIP3    H1 5577   4.716   5.510   5.235  0.4214  1.2288 -0.6633
 1565TIP3    H2 5578   4.614   5.435   5.153 -0.1248 -0.7326  1.6923
 1566TIP3   OH2 5579   5.058   4.434   9.692  0.0171  0.3580 -0.0394
 1566TIP3    H1 5580   4.966   4.410   9.701 -0.3069  2.1327  2.2270
 1566TIP3    H2 5581   5.088   4.385   9.615 -2.0807 -2.3173  0.7099
 1567TIP3   OH2 5582   6.912   2.194   7.135 -0.2343  0.2206  0.4123
 1567TIP3    H1 5583   6.853   2.269   7.136  1.0777  1.3012 -0.4960
 1567TIP3    H2 5584   6.888   2.144   7.213 -0.5562  2.0297  1.5322
 1568TIP3   OH2 5585   1.060   1.782   4.722  0.3426  0.4035 -0.0622
 1568TIP3    H1 5586   1.137   1.756   4.773 -0.5473  0.1749  1.2121
 1568TIP3    H2 5587   1.080   1.756   4.633  1.1456 -1.0191  0.5005
 1569TIP3   OH2 5588   6.654   1.829   9.695  0.3279  0.0323  0.5731
 1569TIP3    H1 5589   6.581   1.831   9.757 -0.7930  1.6983 -0.6998
 1569TIP3    H2 5590   6.717   1.892   9.729  0.2071  0.1483  0.5816
 1570TIP3   OH2 5591   6.456   8.727   7.742  0.3828 -0.1287  0.6000
 1570TIP3    H1 5592   6.480   8.765   7.657 -1.1428  0.9447  0.6297
 1570TIP3    H2 5593   6.517   8.766   7.804  0.0004  0.8968  0.3437
 1571TIP3   OH2 5594  10.864   7.593   5.213  0.3584 -0.0338 -0.0184
 1571TIP3    H1 5595  10.949   7.632   5.192  0.4665 -0.4605 -0.4009
 1571TIP3    H2 5596  10.855   7.603   5.307 -0.2561  2.1980 -0.2652
 1572TIP3   OH2 5597   5.018   1.184   4.436 -0.5827 -0.4423  1.0574
 1572TIP3    H1 5598   5.061   1.244   4.375 -0.9391 -0.5016  0.7434
 1572TIP3    H2 5599   5.022   1.228   4.521  0.7715 -0.7718  1.1885
 1573TIP3   OH2 5600   8.521   6.358   4.049 -0.3245  0.2773  0.2256
 1573TIP3    H1 5601   8.444   6.387   4.098 -0.5651 -1.3541  0.8789
 1573TIP3    H2 5602   8.488   6.332   3.964 -0.4849 -0.3372  0.4748
 1574TIP3   OH2 5603   5.896   5.557   5.471  0.1941 -0.3802  0.4154
 1574TIP3    H1 5604   5.852   5.473   5.453  0.2344 -0.1858 -0.6061
 1574TIP3    H2 5605   5.978   5.531   5.512  0.6774 -0.9121 -0.8242
 1575TIP3   OH2 5606   6.442   9.372   2.189 -0.1845  0.2479 -0.2984
 1575TIP3    H1 5607   6.416   9.409   2.105  1.9160  3.8322  0.4001
 1575TIP3    H2 5608   6.378   9.404   2.252 -1.5072 -2.0732 -0.3550
 1576TIP3   OH2 5609  10.388   7.428   5.284 -0.7184  0.1044 -0.2893
 1576TIP3    H1 5610  10.309   7.476   5.306 -0.6452 -0.4115  1.2448
 1576TIP3    H2 5611  10.435   7.485   5.224 -2.4527  0.2210 -1.6026
 1577TIP3   OH2 5612   0.474   1.878   7.301 -0.1029  0.1480 -0.2086
 1577TIP3    H1 5613   0.463   1.973   7.311 -1.4073 -0.0964  0.8396
 1577TIP3    H2 5614   0.523   1.852   7.379 -0.9603 -0.2276  0.2140
 1578TIP3   OH2 5615   3.081   4.737   8.707 -0.0509  0.0714 -0.2734
 1578TIP3    H1 5616   3.027   4.813   8.730  0.3159  0.3545 -0.3338
 1578TIP3    H2 5617   3.021   4.663   8.710 -0.2316  0.2365  0.6481
 1579TIP3   OH2 5618   5.278   9.457  10.077 -0.0220 -0.3815 -0.1104
 1579TIP3    H1 5619   5.317   9.382  10.032 -0.4203 -1.1715  0.8308
 1579TIP3    H2 5620   5.256   9.518  10.006  0.3547 -1.1178 -0.8883
 1580TIP3   OH2 5621   5.318   1.705   6.961 -0.1121 -0.2006  0.9902
 1580TIP3    H1 5622   5.378   1.769   6.922  0.4467 -0.3330  1.6203
 1580TIP3    H2 5623   5.230   1.740   6.942  0.1824  0.5870  1.0471
 1581TIP3   OH2 5624   4.617   4.410   6.294 -0.1957  0.2869  0.1861
 1581TIP3    H1 5625   4.528   4.433   6.321 -0.0204  0.8915  0.2544
 1581TIP3    H2 5626   4.671   4.426   6.371  0.2384  1.5925 -0.3688
 1582TIP3   OH2 5627   1.031   5.538  10.477 -0.2964 -0.1125  0.0046
 1582TIP3    H1 5628   1.119   5.501  10.491  0.0353  0.8295  0.4814
 1582TIP3    H2 5629   1.034   5.572  10.388 -0.1190  0.0558  0.0721
 1583TIP3   OH2 5630   4.860   1.892   3.293 -0.0896 -0.3743  0.1174
 1583TIP3    H1 5631   4.949   1.871   3.318 -0.2386 -2.7418 -1.0513
 1583TIP3    H2 5632   4.813   1.809   3.296 -2.1200  0.6896  0.1187
 1584TIP3   OH2 5633   2.116  10.317   7.265  0.1272  0.0980 -0.0922
 1584TIP3    H1 5634   2.190  10.374   7.245 -0.0074  0.3317  0.0784
 1584TIP3    H2 5635   2.055  10.330   7.192  0.8827 -1.1843 -0.9941
 1585TIP3   OH2 5636   3.443   9.254   2.704 -0.3277  0.2847  0.2815
 1585TIP3    H1 5637   3.478   9.206   2.628  1.4959  1.2602  0.4426
 1585TIP3    H2 5638   3.359   9.287   2.674 -0.3656 -0.6928 -0.7726
 1586TIP3   OH2 5639   1.033   7.969   5.339 -0.4543  0.5754  0.3041
 1586TIP3    H1 5640   1.120   7.997   5.312  0.7068 -1.3218  1.8110
 1586TIP3    H2 5641   1.012   7.896   5.281 -1.3595  1.4283 -0.4741
 1587TIP3   OH2 5642   7.821   4.428  10.279  0.4559 -0.4487  0.1525
 1587TIP3    H1 5643   7.843   4.485  10.353  0.6268  0.3310 -0.4863
 1587TIP3    H2 5644   7.881   4.455  10.210  0.0088 -0.8823 -0.4107
 1588TIP3   OH2 5645   3.500   5.729   7.211 -0.2215 -0.2134 -0.0143
 1588TIP3    H1 5646   3.452   5.796   7.161  0.4567  1.3702  1.3497
 1588TIP3    H2 5647   3.558   5.688   7.146  0.1410  1.3089 -0.7042
 1589TIP3   OH2 5648   8.279   4.050  10.600 -0.1596 -0.4434  0.6443
 1589TIP3    H1 5649   8.253   3.991  10.529 -3.8731  1.7067 -0.0485
 1589TIP3    H2 5650   8.235   4.016  10.678 -0.9493  0.4013  0.5912
 1590TIP3   OH2 5651   3.219   2.572   9.469 -0.2612 -0.4788  0.0208
 1590TIP3    H1 5652   3.283   2.512   9.507  0.2532  0.0132 -0.0630
 1590TIP3    H2 5653   3.184   2.525   9.393  0.3185 -0.5684 -0.1925
 1591TIP3   OH2 5654   0.514   2.798   7.253 -0.3001 -0.2948  0.0501
 1591TIP3    H1 5655   0.425   2.767   7.271  0.1454 -0.3237  2.5935
 1591TIP3    H2 5656   0.569   2.720   7.266  0.3538  0.3859  1.6139
 1592TIP3   OH2 5657   8.171   3.832   1.396 -0.8764 -0.0627 -0.5240
 1592TIP3    H1 5658   8.092   3.788   1.427  0.8445 -1.2339  2.5623
 1592TIP3    H2 5659   8.179   3.909   1.453 -0.7535  1.1642 -2.1094
 1593TIP3   OH2 5660   8.649   6.187   7.666 -0.4697  0.4169  0.0362
 1593TIP3    H1 5661   8.596   6.236   7.728 -0.0801  0.3515  0.4294
 1593TIP3    H2 5662   8.691   6.255   7.612 -1.2072  0.4588 -0.4980
 1594TIP3   OH2 5663  10.091   8.379   4.053  0.5428  0.1180  0.2119
 1594TIP3    H1 5664  10.078   8.369   4.147 -0.9156  0.7856  0.1035
 1594TIP3    H2 5665  10.179   8.345   4.037  0.3540 -1.1176  1.6283
 1595TIP3   OH2 5666   2.393  10.640   5.269 -0.8737  0.1186 -0.5139
 1595TIP3    H1 5667   2.307  10.680   5.279 -0.7908  0.3489 -0.7071
 1595TIP3    H2 5668   2.405  10.633   5.174 -0.9076 -0.4129 -0.4848
 1596TIP3   OH2 5669   6.324  10.516   7.926  0.1111 -0.7623  0.2152
 1596TIP3    H1 5670   6.277  10.574   7.867 -1.1764 -0.6628  1.3027
 1596TIP3    H2 5671   6.360  10.448   7.868  0.6972  0.4675 -0.9264
 1597TIP3   OH2 5672   3.703   1.612   1.882 -0.0906 -0.6279 -0.1431
 1597TIP3    H1 5673   3.616   1.647   1.866 -0.0373 -1.4642 -2.7741
 1597TIP3    H2 5674   3.688   1.528   1.926 -0.5299 -0.1668  0.5907
 1598TIP3   OH2 5675   2.596   2.748   2.945 -0.4519 -0.0254  0.0675
 1598TIP3    H1 5676   2.544   2.819   2.985 -0.3916 -0.6873  1.3751
 1598TIP3    H2 5677   2.610   2.686   3.016  1.7763 -0.0851 -0.3515
 1599TIP3   OH2 5678   8.299   9.590   2.085 -0.3006  0.4629 -0.1857
 1599TIP3    H1 5679   8.217   9.618   2.044 -0.0040 -0.0399 -1.1592
 1599TIP3    H2 5680   8.329   9.516   2.031  0.8470  0.7043  0.0844
 1600TIP3   OH2 5681   1.233   2.634   4.923 -0.2826  0.4076 -0.2988
 1600TIP3    H1 5682   1.255   2.673   5.008 -0.5324  0.4086 -0.2347
 1600TIP3    H2 5683   1.294   2.675   4.862  0.7269 -0.4948  0.0784
 1601TIP3   OH2 5684   4.830  10.743   2.938 -0.0974 -0.4388  0.6494
 1601TIP3    H1 5685   4.846  10.750   3.032  0.3242 -0.7408  0.6032
 1601TIP3    H2 5686   4.861  10.825   2.902 -3.2820  1.1415  1.1396
 1602TIP3   OH2 5687   1.715   0.526   2.055 -0.4316 -0.3691  0.4378
 1602TIP3    H1 5688   1.799   0.480   2.057 -0.2668 -0.0659  0.6092
 1602TIP3    H2 5689   1.714   0.570   1.970 -0.6191 -0.7386  0.2455
 1603TIP3   OH2 5690   0.742   6.438   6.876 -0.5659  0.2995 -0.1614
 1603TIP3    H1 5691   0.755   6.532   6.863  1.4510  0.1762  0.7291
 1603TIP3    H2 5692   0.688   6.433   6.954  1.0219  0.7242  1.0132
 1604TIP3   OH2 5693   9.497   5.709   5.750  0.2552  0.1254 -0.4052
 1604TIP3    H1 5694   9.506   5.779   5.685  0.5190  1.7431  1.2959
 1604TIP3    H2 5695   9.568   5.725   5.812 -1.0012 -0.3386  1.2096
 1605TIP3   OH2 5696   6.983   8.054   5.694 -0.4636 -0.2414  0.1542
 1605TIP3    H1 5697   6.891   8.026   5.700 -0.5199 -0.5457 -1.5886
 1605TIP3    H2 5698   7.027   8.008   5.765 -1.5939 -0.3466  0.8142
 1606TIP3   OH2 5699   5.194   3.747   6.022  0.1303 -0.0130  0.1077
 1606TIP3    H1 5700   5.269   3.724   6.077  3.2008  0.5993 -3.4298
 1606TIP3    H2 5701   5.204   3.841   6.004 -0.4345 -0.2693 -1.8306
 1607TIP3   OH2 5702   0.654  10.253  10.533 -0.4622 -0.6800  0.0295
 1607TIP3    H1 5703   0.588  10.194  10.569 -1.1970 -0.4326 -0.8772
 1607TIP3    H2 5704   0.607  10.335  10.518  0.0861 -0.4652 -0.5186
 1608TIP3   OH2 5705   3.758   9.243   4.441  0.4206  0.3421  0.1347
 1608TIP3    H1 5706   3.829   9.306   4.433  2.7644 -2.1700 -0.2725
 1608TIP3    H2 5707   3.765   9.189   4.363 -1.8228 -0.1560  0.2181
 1609TIP3   OH2 5708   2.507   7.798   0.495  0.2769 -0.4537 -0.0017
 1609TIP3    H1 5709   2.570   7.741   0.452  0.3235  1.2452 -2.3217
 1609TIP3    H2 5710   2.423   7.776   0.454 -0.1568 -0.5790  0.9147
 1610TIP3   OH2 5711   2.548   4.132   8.786 -0.3811 -0.4583  0.2218
 1610TIP3    H1 5712   2.615   4.073   8.822 -0.3324  0.2632  1.3426
 1610TIP3    H2 5713   2.465   4.091   8.809 -0.3448 -0.4437  0.3751
 1611TIP3   OH2 5714   8.719   4.280   8.039 -0.3387  0.1625  0.1306
 1611TIP3    H1 5715   8.644   4.327   8.076 -0.8484  0.0209 -0.6789
 1611TIP3    H2 5716   8.745   4.333   7.964  0.1215  0.0004  0.1768
 1612TIP3   OH2 5717   7.400   2.943   0.370 -0.4346  0.4814  0.1578
 1612TIP3    H1 5718   7.435   2.959   0.283  1.1894  0.2142  0.7227
 1612TIP3    H2 5719   7.305   2.934   0.357 -0.1642 -0.1648 -1.6425
 1613TIP3   OH2 5720   3.754   1.436   7.698 -0.1138  0.2149 -0.3620
 1613TIP3    H1 5721   3.840   1.446   7.658  0.7511  0.1701  1.4017
 1613TIP3    H2 5722   3.772   1.419   7.790 -2.0417  1.7476  0.3662
 1614TIP3   OH2 5723   8.380   1.183   0.522  0.5784 -0.5641 -0.6575
 1614TIP3    H1 5724   8.455   1.147   0.474  0.0328 -0.7464 -1.3848
 1614TIP3    H2 5725   8.336   1.239   0.459 -1.6177 -2.7881 -1.2535
 1615TIP3   OH2 5726   0.714   1.587   8.672  0.0098 -0.3951  0.1916
 1615TIP3    H1 5727   0.651   1.626   8.611 -0.3044  0.0634  0.8036
 1615TIP3    H2 5728   0.799   1.600   8.631 -0.0737  1.0729  0.4543
 1616TIP3   OH2 5729   9.646   2.276   1.466  0.2923  0.0297 -0.6232
 1616TIP3    H1 5730   9.553   2.285   1.447 -0.0827  0.6257  1.2134
 1616TIP3    H2 5731   9.650   2.264   1.561  2.0772 -0.3386 -0.6972
 1617TIP3   OH2 5732   3.221   7.861  10.534 -0.3832 -0.7440 -0.0313
 1617TIP3    H1 5733   3.312   7.836  10.551 -0.2432 -0.3723 -0.2106
 1617TIP3    H2 5734   3.202   7.928  10.599 -0.9348 -1.6888  0.7977
 1618TIP3   OH2 5735   4.921   9.652   0.230 -0.3823  0.1731  0.1440
 1618TIP3    H1 5736   4.921   9.569   0.277 -0.3062 -1.3523 -2.3220
 1618TIP3    H2 5737   4.838   9.652   0.180  0.6398  0.4277 -1.6599
 1619TIP3   OH2 5738   4.805   9.817  10.227  0.3136 -0.3378  0.4989
 1619TIP3    H1 5739   4.735   9.800  10.290 -0.2466 -1.5777 -0.4179
 1619TIP3    H2 5740   4.883   9.830  10.281 -0.6086  1.2372  1.5516
 1620TIP3   OH2 5741   5.369   9.772   1.688 -0.4207  0.0562 -1.1992
 1620TIP3    H1 5742   5.465   9.768   1.691 -0.3549  1.7634 -0.2682
 1620TIP3    H2 5743   5.341   9.683   1.711  0.9171 -0.3607 -1.0812
 1621TIP3   OH2 5744   6.598   3.027   7.765  0.3568  0.1021 -0.1387
 1621TIP3    H1 5745   6.540   2.962   7.804  0.2708  0.4001  0.2458
 1621TIP3    H2 5746   6.547   3.109   7.768  1.4245  0.7455  1.8178
 1622TIP3   OH2 5747   3.454   4.931   3.293  0.3374 -0.2262  0.1227
 1622TIP3    H1 5748   3.504   4.863   3.338 -0.0923  0.4192  1.6392
 1622TIP3    H2 5749   3.518   4.977   3.238  1.6332  1.0537  2.5452
 1623TIP3   OH2 5750   0.342   7.080   0.709  0.4668  0.3260 -0.1508
 1623TIP3    H1 5751   0.251   7.052   0.715  0.5899  0.2183  2.2461
 1623TIP3    H2 5752   0.379   7.027   0.638 -0.7444 -1.4210  0.4617
 1624TIP3   OH2 5753   4.356   3.848   6.661 -0.2838 -0.3188 -0.1759
 1624TIP3    H1 5754   4.310   3.795   6.726 -0.5257 -0.3168 -0.3457
 1624TIP3    H2 5755   4.421   3.897   6.711 -0.8680  0.1326  0.1448
 1625TIP3   OH2 5756   1.080   7.086  10.109 -0.2800 -0.0792  0.3986
 1625TIP3    H1 5757   1.115   7.052  10.191 -1.4052 -0.1930  0.8617
 1625TIP3    H2 5758   1.154   7.087  10.049  1.0572  1.8383  1.9536
 1626TIP3   OH2 5759   6.909   6.879   2.424  0.5946  0.1714  0.0272
 1626TIP3    H1 5760   6.954   6.922   2.351 -0.4989 -0.0747 -0.8054
 1626TIP3    H2 5761   6.965   6.898   2.500 -0.6401  4.5846  0.0981
 1627TIP3   OH2 5762   5.528   2.751   6.448 -0.8934  0.0320 -0.4428
 1627TIP3    H1 5763   5.565   2.837   6.467 -2.6451  0.8873 -0.7294
 1627TIP3    H2 5764   5.498   2.719   6.533 -0.1022 -0.3758 -0.3120
 1628TIP3   OH2 5765   4.985   1.278   4.958 -0.8301 -0.4703 -0.1529
 1628TIP3    H1 5766   4.923   1.299   5.027  2.0247  0.3698  2.4031
 1628TIP3    H2 5767   4.958   1.332   4.884 -2.4314  0.7607  1.2412
 1629TIP3   OH2 5768  10.040   8.678   4.042 -0.4205 -0.4108  0.2160
 1629TIP3    H1 5769  10.021   8.608   4.105 -0.4464 -0.6061 -0.0092
 1629TIP3    H2 5770  10.051   8.756   4.096  0.8085 -0.8149  0.5842
 1630TIP3   OH2 5771   5.435   5.954   6.141 -0.2247 -0.5224 -0.0156
 1630TIP3    H1 5772   5.489   6.009   6.084 -0.8533  0.0357 -0.0820
 1630TIP3    H2 5773   5.470   5.866   6.129  0.5905 -0.1954 -0.1502
 1631TIP3   OH2 5774   1.341   9.123   6.740 -0.2025  0.1198 -0.5723
 1631TIP3    H1 5775   1.263   9.075   6.710 -0.5147 -1.2337  2.1280
 1631TIP3    H2 5776   1.305   9.199   6.787  0.1798  0.4491 -0.8094
 1632TIP3   OH2 5777   3.650   1.900   0.768  0.3172 -0.1148  0.1035
 1632TIP3    H1 5778   3.567   1.878   0.726  0.0979 -1.9415  1.3697
 1632TIP3    H2 5779   3.632   1.981   0.815  0.1161  1.0846 -1.9161
 1633TIP3   OH2 5780   1.931   9.197   1.550 -0.0384 -0.2073  0.5079
 1633TIP3    H1 5781   1.981   9.223   1.628 -1.1806 -0.7419  1.4618
 1633TIP3    H2 5782   1.954   9.262   1.484 -0.4472  1.3825  1.8624
 1634TIP3   OH2 5783   1.367   0.531   7.430 -0.2405  0.2631  0.5420
 1634TIP3    H1 5784   1.442   0.487   7.390  0.3380  2.2123 -0.6544
 1634TIP3    H2 5785   1.397   0.553   7.519 -0.2867 -1.0720  0.9022
 1635TIP3   OH2 5786   2.537   0.874   7.795 -0.2311 -0.4590  0.0877
 1635TIP3    H1 5787   2.458   0.928   7.799  0.1444  0.1177 -0.0690
 1635TIP3    H2 5788   2.527   0.822   7.715 -0.0844  0.2137 -0.3789
 1636TIP3   OH2 5789   0.354   1.569   6.847 -0.5933 -0.1397 -0.0765
 1636TIP3    H1 5790   0.399   1.502   6.795  0.2059 -0.7675  1.3573
 1636TIP3    H2 5791   0.419   1.639   6.858  0.3471 -1.3070  2.4985
 1637TIP3   OH2 5792   1.950   7.781   2.588 -0.2528 -1.1298 -0.1754
 1637TIP3    H1 5793   2.039   7.798   2.620 -0.6478 -0.7646  0.7728
 1637TIP3    H2 5794   1.911   7.723   2.654 -1.3821  0.3634  0.5460
 1638TIP3   OH2 5795   8.754   8.391   7.413 -0.2303 -0.2592  0.5826
 1638TIP3    H1 5796   8.700   8.346   7.478 -0.7127 -1.4642 -0.6076
 1638TIP3    H2 5797   8.693   8.419   7.345  0.3629  0.3021  0.2610
 1639TIP3   OH2 5798   4.727   2.834   4.410 -0.2399  0.2686  0.2958
 1639TIP3    H1 5799   4.701   2.926   4.405  1.7889  0.9904  1.6092
 1639TIP3    H2 5800   4.801   2.827   4.350  0.1719 -0.2819  0.8553
 1640TIP3   OH2 5801   0.769   7.639   2.392  0.1860 -0.0307  0.0942
 1640TIP3    H1 5802   0.776   7.716   2.336  1.4009 -0.0006  0.2601
 1640TIP3    H2 5803   0.713   7.667   2.464 -1.2543 -0.0142 -0.9777
 1641TIP3   OH2 5804   7.798   6.771   5.855 -0.2132 -0.4404 -0.6493
 1641TIP3    H1 5805   7.730   6.757   5.789 -0.1655 -0.2961 -0.7296
 1641TIP3    H2 5806   7.751   6.806   5.931 -0.5291 -2.2281  0.0145
 1642TIP3   OH2 5807   7.931   2.294   3.219 -0.4398  0.4093  0.3761
 1642TIP3    H1 5808   7.955   2.386   3.206  1.9452 -0.4042 -1.5325
 1642TIP3    H2 5809   7.916   2.259   3.131 -1.5943 -1.0145  1.0787
 1643TIP3   OH2 5810   2.513   0.861   5.297 -0.1961 -0.5098  0.1357
 1643TIP3    H1 5811   2.483   0.819   5.216  0.6850 -1.1027  0.0964
 1643TIP3    H2 5812   2.605   0.835   5.304  0.3804  1.4068  0.1496
 1644TIP3   OH2 5813   9.813  10.604   3.347 -0.1566  0.4846 -0.2246
 1644TIP3    H1 5814   9.786  10.512   3.356  2.2918 -0.1586  1.6427
 1644TIP3    H2 5815   9.807  10.639   3.436 -0.4188  1.9638 -0.8065
 1645TIP3   OH2 5816   2.709   7.665   4.352  0.4745  0.9081  0.0452
 1645TIP3    H1 5817   2.728   7.716   4.273 -0.7113  0.2846 -0.6874
 1645TIP3    H2 5818   2.763   7.586   4.343  1.8363  1.7326  0.8650
 1646TIP3   OH2 5819   6.323   8.190   5.252 -0.2224  0.1353 -0.1677
 1646TIP3    H1 5820   6.231   8.166   5.266 -0.6369  1.3320 -0.6926
 1646TIP3    H2 5821   6.340   8.258   5.316  0.6892 -0.8966  0.7385
 1647TIP3   OH2 5822   3.720   8.308   6.811 -0.0095  0.5364 -0.1155
 1647TIP3    H1 5823   3.700   8.262   6.730 -1.9027  0.1535  0.5113
 1647TIP3    H2 5824   3.745   8.396   6.783  2.2831 -0.4062 -1.2438
 1648TIP3   OH2 5825  10.687   9.778   5.382 -0.2530 -0.0086 -0.0295
 1648TIP3    H1 5826  10.775   9.808   5.403  0.1300  0.0454 -1.6029
 1648TIP3    H2 5827  10.630   9.853   5.399  0.1018  0.1940  0.2635
 1649TIP3   OH2 5828   7.853   0.996   5.411  0.5207 -0.1250  0.0504
 1649TIP3    H1 5829   7.927   1.018   5.468  1.0653  1.1472 -1.0788
 1649TIP3    H2 5830   7.881   1.026   5.324 -0.7279 -1.0088 -0.6745
 1650TIP3   OH2 5831   6.480   5.348   3.447  0.0513 -0.2008 -0.0251
 1650TIP3    H1 5832   6.463   5.292   3.371  0.8622  0.2573 -0.5539
 1650TIP3    H2 5833   6.404   5.406   3.451  0.3145  0.2192 -0.9006
 1651TIP3   OH2 5834   2.077   5.194   2.471 -0.5480 -0.8432 -0.0507
 1651TIP3    H1 5835   2.134   5.250   2.523 -0.8413 -0.8641  0.2985
 1651TIP3    H2 5836   2.131   5.167   2.397 -0.1608 -0.7294  0.1856
 1652TIP3   OH2 5837   2.976   9.006   7.951 -0.5467  0.1772  0.6211
 1652TIP3    H1 5838   2.945   8.940   7.888  0.2543 -0.9481  1.3676
 1652TIP3    H2 5839   3.053   9.044   7.909 -0.8812  0.4889  0.2840
 1653TIP3   OH2 5840   5.981   7.406   3.134 -0.0899 -0.0049  0.3829
 1653TIP3    H1 5841   5.922   7.369   3.200 -0.1493 -1.2689 -0.3603
 1653TIP3    H2 5842   5.927   7.415   3.056  0.8561 -1.9596 -0.5570
 1654TIP3   OH2 5843   2.901   1.579   1.675  0.0578 -0.2594  0.1609
 1654TIP3    H1 5844   2.818   1.618   1.703  0.7264  1.0016  0.4761
 1654TIP3    H2 5845   2.911   1.502   1.731  0.2754  0.9501  1.8750
 1655TIP3   OH2 5846   4.085   1.714   4.378  0.0167 -0.0314  0.0632
 1655TIP3    H1 5847   4.030   1.721   4.300  3.1658  0.8890 -2.2601
 1655TIP3    H2 5848   4.083   1.802   4.417  0.4969  0.2505 -0.5328
 1656TIP3   OH2 5849   7.542   2.272   9.820 -0.8897 -0.0730 -0.2282
 1656TIP3    H1 5850   7.537   2.326   9.898 -0.6354  0.1879 -0.3920
 1656TIP3    H2 5851   7.590   2.194   9.847  0.0702  0.4589 -0.3723
 1657TIP3   OH2 5852  10.179   3.557   3.519  0.9146 -0.0020  0.2717
 1657TIP3    H1 5853  10.244   3.596   3.460  0.4840 -0.1369 -0.2960
 1657TIP3    H2 5854  10.136   3.489   3.467  0.4945 -0.0916  0.7242
 1658TIP3   OH2 5855   8.240   2.606   8.972 -0.3730  0.2431 -0.0584
 1658TIP3    H1 5856   8.298   2.530   8.976 -2.6749 -1.8584 -2.8909
 1658TIP3    H2 5857   8.164   2.582   9.025 -0.8942  0.7749 -0.5508
 1659TIP3   OH2 5858   3.319   7.100   4.857 -0.8633 -0.4925 -0.0441
 1659TIP3    H1 5859   3.290   7.180   4.813  0.8508 -0.9079 -2.0951
 1659TIP3    H2 5860   3.348   7.129   4.943 -4.4397  0.3515  1.0465
 1660TIP3   OH2 5861   4.881   9.037   8.173  0.3872 -0.1968  0.1365
 1660TIP3    H1 5862   4.974   9.032   8.150  1.4156  1.0744  3.4171
 1660TIP3    H2 5863   4.880   9.057   8.267 -3.2229  0.2839  0.1567
 1661TIP3   OH2 5864   4.796   1.610   4.796  0.3232 -0.2345  0.1612
 1661TIP3    H1 5865   4.700   1.611   4.798  0.2969  0.9271  2.9667
 1661TIP3    H2 5866   4.819   1.520   4.776 -1.3474 -0.6714  0.0640
 1662TIP3   OH2 5867   4.909   7.193   3.964 -0.3490 -0.8112 -0.4254
 1662TIP3    H1 5868   4.875   7.233   4.044  0.4470 -0.6198 -0.1817
 1662TIP3    H2 5869   4.914   7.100   3.985  2.8987 -0.4558  0.9280
 1663TIP3   OH2 5870   9.383   7.729   7.122 -0.0334  0.3845 -0.5360
 1663TIP3    H1 5871   9.362   7.644   7.084 -0.5254  1.3999 -2.7067
 1663TIP3    H2 5872   9.300   7.775   7.126  0.4318  1.2634 -0.7470
 1664TIP3   OH2 5873  10.409   3.757   5.824  1.1780 -0.3822  0.1377
 1664TIP3    H1 5874  10.363   3.678   5.794 -1.7968  1.3980 -0.3839
 1664TIP3    H2 5875  10.417   3.746   5.918 -0.3786 -0.7855  0.2534
 1665TIP3   OH2 5876   2.382   2.726   1.595  0.2909  0.7301  0.4750
 1665TIP3    H1 5877   2.342   2.737   1.509 -0.4018 -0.4950  0.6168
 1665TIP3    H2 5878   2.459   2.782   1.593  0.7557  0.0812 -1.2579
 1666TIP3   OH2 5879   2.409   6.587   9.724  0.5991  0.2985  0.2242
 1666TIP3    H1 5880   2.321   6.609   9.755  0.0926  0.1818 -1.0649
 1666TIP3    H2 5881   2.431   6.506   9.769 -0.3420 -0.1681 -0.1282
 1667TIP3   OH2 5882   7.326   9.964   8.409 -0.6700  0.0219  0.5285
 1667TIP3    H1 5883   7.313   9.986   8.317 -1.0415 -1.6851  0.1317
 1667TIP3    H2 5884   7.381  10.034   8.443 -1.8840  1.5696 -0.5510
 1668TIP3   OH2 5885   7.887   7.027   7.001 -0.3188  0.0082 -0.2330
 1668TIP3    H1 5886   7.960   7.088   7.004  0.7943 -1.2716 -0.6913
 1668TIP3    H2 5887   7.856   7.023   7.092 -1.3766  2.3102 -0.4103
 1669TIP3   OH2 5888   2.579   9.983   1.903 -0.3916  0.1460 -0.2700
 1669TIP3    H1 5889   2.557   9.891   1.913  0.8146 -0.2872 -1.2369
 1669TIP3    H2 5890   2.653   9.997   1.962  0.5411  0.0276 -1.3749
 1670TIP3   OH2 5891   8.950   7.989   4.655 -0.4775 -0.1574 -1.1879
 1670TIP3    H1 5892   9.007   7.963   4.727  0.9985  0.1733 -2.1842
 1670TIP3    H2 5893   9.010   8.020   4.587 -1.9168  2.2046 -1.5229
 1671TIP3   OH2 5894   9.744   6.834   5.834  0.2599 -1.1111  0.5747
 1671TIP3    H1 5895   9.771   6.915   5.789 -0.6672 -0.0735  1.8128
 1671TIP3    H2 5896   9.751   6.856   5.927  0.7498 -2.7423  0.9494
 1672TIP3   OH2 5897   7.489   8.501   9.942  0.0186  0.2265 -0.4383
 1672TIP3    H1 5898   7.452   8.516   9.855 -1.2444 -1.1650 -0.1916
 1672TIP3    H2 5899   7.416   8.467   9.994  0.7544  1.0099  1.1733
 1673TIP3   OH2 5900   8.208   8.258   6.404  0.3567  0.5848 -0.3905
 1673TIP3    H1 5901   8.150   8.335   6.407 -0.2699  0.0916  0.6543
 1673TIP3    H2 5902   8.292   8.293   6.375 -0.6848  1.1697 -3.0759
 1674TIP3   OH2 5903   2.605   4.648   4.460  0.6000 -0.0321  0.0559
 1674TIP3    H1 5904   2.581   4.730   4.415  0.5012 -0.0556  0.0651
 1674TIP3    H2 5905   2.655   4.599   4.395  0.0008 -0.3004 -0.2102
 1675TIP3   OH2 5906   7.785  10.594   7.929  0.1501 -0.3486 -0.0669
 1675TIP3    H1 5907   7.814  10.558   7.845 -1.0800  0.5056 -0.8879
 1675TIP3    H2 5908   7.847  10.664   7.948  1.8326 -2.0089  0.9449
 1676TIP3   OH2 5909   7.977   8.354   4.626  0.3056 -0.5759  0.5649
 1676TIP3    H1 5910   7.962   8.377   4.535 -1.9337 -3.1283  0.1439
 1676TIP3    H2 5911   8.066   8.317   4.627  1.0490  1.0910 -0.1521
 1677TIP3   OH2 5912   7.528   8.024   6.127  0.4426  0.5569  0.2084
 1677TIP3    H1 5913   7.468   8.094   6.100 -0.3749  0.4441  1.5880
 1677TIP3    H2 5914   7.587   8.012   6.053 -0.8449  1.1212 -0.9499
 1678TIP3   OH2 5915   8.296   8.367  10.871  0.1254  0.1246  0.1679
 1678TIP3    H1 5916   8.260   8.376  10.783 -0.3231 -1.0073  0.2243
 1678TIP3    H2 5917   8.227   8.325  10.921  0.0749  1.4580  1.2794
 1679TIP3   OH2 5918   0.562  10.717   1.382  0.1807 -0.1460 -0.2895
 1679TIP3    H1 5919   0.527  10.767   1.456 -2.2286 -0.9001 -0.8299
 1679TIP3    H2 5920   0.557  10.626   1.410 -2.3540 -0.5976 -1.8613
 1680TIP3   OH2 5921   0.673   1.177   0.257  0.0702 -0.1377 -0.3518
 1680TIP3    H1 5922   0.592   1.175   0.205 -0.3367 -1.4772  0.2990
 1680TIP3    H2 5923   0.649   1.225   0.336  0.5163  1.3270 -1.0576
 1681TIP3   OH2 5924   0.569   4.562   8.142 -0.2636  0.6079  0.4648
 1681TIP3    H1 5925   0.499   4.502   8.116  1.2286 -1.0469  0.0295
 1681TIP3    H2 5926   0.572   4.555   8.238 -0.0329 -0.1189  0.4099
 1682TIP3   OH2 5927   4.426   6.889   2.792 -0.0280 -0.1461 -0.6204
 1682TIP3    H1 5928   4.351   6.855   2.744 -0.2614  0.7192 -0.8885
 1682TIP3    H2 5929   4.462   6.958   2.735  0.1764  0.3365  0.0793
 1683TIP3   OH2 5930   7.704   0.113  10.451 -0.5584  0.3280 -0.3132
 1683TIP3    H1 5931   7.637   0.141  10.514 -0.2835 -1.7284  0.9913
 1683TIP3    H2 5932   7.749   0.041  10.495  1.3696  0.5134 -1.8771
 1684TIP3   OH2 5933   9.953   5.749   1.745 -0.1789  0.0777 -0.2066
 1684TIP3    H1 5934   9.859   5.764   1.754 -0.2821 -0.9055  0.4809
 1684TIP3    H2 5935   9.994   5.831   1.771 -0.8020  0.0081  1.0480
 1685TIP3   OH2 5936   8.836   0.785  10.275 -0.3857  0.2488 -0.0438
 1685TIP3    H1 5937   8.852   0.852  10.342 -0.8919  0.6668 -0.3391
 1685TIP3    H2 5938   8.768   0.730  10.313 -1.9323  1.4872 -0.8856
 1686TIP3   OH2 5939   9.114   8.441   4.660 -0.4469  0.3814  1.0248
 1686TIP3    H1 5940   9.152   8.353   4.653 -0.0128  0.5446  1.2588
 1686TIP3    H2 5941   9.189   8.500   4.651 -0.9055  0.7777 -0.5108
 1687TIP3   OH2 5942   0.040   5.465  10.014 -0.8030 -1.0497 -0.2075
 1687TIP3    H1 5943   0.028   5.543   9.959 -1.9683 -0.1579  1.2380
 1687TIP3    H2 5944   0.132   5.441  10.001 -0.2959  0.8071 -0.3778
 1688TIP3   OH2 5945   5.861   8.683   4.927 -0.3750 -0.3744 -0.3888
 1688TIP3    H1 5946   5.831   8.596   4.953 -0.3474  0.4247  2.6954
 1688TIP3    H2 5947   5.787   8.720   4.878 -0.7212 -1.7826 -0.9913
 1689TIP3   OH2 5948   6.791   2.164   8.691  0.1551 -0.7289  0.3551
 1689TIP3    H1 5949   6.714   2.154   8.635 -0.0025 -1.3144  0.6663
 1689TIP3    H2 5950   6.812   2.075   8.720 -0.6926 -0.3237  2.4334
 1690TIP3   OH2 5951   0.667   6.880   7.742  0.8385  0.5178 -0.0031
 1690TIP3    H1 5952   0.599   6.865   7.807  0.1141  2.8383 -0.1433
 1690TIP3    H2 5953   0.749   6.879   7.791  0.6693 -1.4204  0.3050
 1691TIP3   OH2 5954   9.935   0.632   0.136  0.1732  0.1329 -0.5102
 1691TIP3    H1 5955   9.873   0.685   0.187 -1.2833 -0.7140 -1.3113
 1691TIP3    H2 5956   9.965   0.691   0.066  0.2717  0.5621 -0.1083
 1692TIP3   OH2 5957   3.161   9.200   2.954  0.4020  0.0308  0.0037
 1692TIP3    H1 5958   3.183   9.124   2.900  0.3597  0.1025 -0.1145
 1692TIP3    H2 5959   3.149   9.272   2.892  0.6116  0.1742  0.1288
 1693TIP3   OH2 5960   8.338   0.383   4.627  0.0569 -0.1401 -0.4475
 1693TIP3    H1 5961   8.426   0.365   4.594  0.0611 -0.9807 -0.0203
 1693TIP3    H2 5962   8.340   0.354   4.719 -0.2916  1.0440 -0.0372
 1694TIP3   OH2 5963   3.382   5.345   2.230 -0.4314  0.2353 -0.5025
 1694TIP3    H1 5964   3.358   5.428   2.189 -2.0132  1.0382  1.8235
 1694TIP3    H2 5965   3.299   5.299   2.241 -0.1812  0.1994  1.9091
 1695TIP3   OH2 5966   1.396   5.076   4.957  0.2730  0.1169  0.2670
 1695TIP3    H1 5967   1.480   5.075   5.002 -0.2087 -1.9954  1.2813
 1695TIP3    H2 5968   1.333   5.099   5.025 -0.0050  1.5997 -0.4618
 1696TIP3   OH2 5969   2.631   5.415   8.632 -0.1309  0.2468  0.2093
 1696TIP3    H1 5970   2.551   5.431   8.582  1.0237  0.4720 -1.6737
 1696TIP3    H2 5971   2.645   5.496   8.682  0.0116  1.0471 -1.0738
 1697TIP3   OH2 5972   4.370   3.980   9.448 -0.3048  0.5525 -0.2125
 1697TIP3    H1 5973   4.377   3.885   9.441  1.3463  0.6315  0.0461
 1697TIP3    H2 5974   4.318   3.995   9.527  0.7512 -0.1320  0.6312
 1698TIP3   OH2 5975   9.711   4.067   3.754  0.3072 -0.1144 -0.0145
 1698TIP3    H1 5976   9.653   4.012   3.701  0.7710 -0.5057 -0.1310
 1698TIP3    H2 5977   9.685   4.048   3.845  0.8777 -1.0277 -0.0215
 1699TIP3   OH2 5978   2.915  10.772   5.734  0.4196 -0.0296  0.7301
 1699TIP3    H1 5979   2.890  10.690   5.775 -0.4131 -0.4970 -0.6303
 1699TIP3    H2 5980   2.921  10.834   5.806 -0.5861 -0.8951  1.6021
 1700TIP3   OH2 5981  10.127   1.701  10.904 -0.1589  0.0283 -0.0294
 1700TIP3    H1 5982  10.178   1.777  10.875  2.1088 -1.9984 -1.6627
 1700TIP3    H2 5983  10.098   1.659  10.823 -0.1097 -1.6427  0.7751
 1701TIP3   OH2 5984   9.071   3.870   5.783  0.2030 -0.8060  0.2631
 1701TIP3    H1 5985   9.101   3.949   5.739 -0.5808 -0.3000  0.6013
 1701TIP3    H2 5986   9.097   3.798   5.726  0.2467 -0.2471 -0.4300
 1702TIP3   OH2 5987   8.409   2.196   9.587 -0.9063 -0.2265 -0.0311
 1702TIP3    H1 5988   8.424   2.287   9.611  0.4331 -0.8128  1.5821
 1702TIP3    H2 5989   8.446   2.188   9.499 -0.7606  0.7082 -0.0635
 1703TIP3   OH2 5990  10.094   0.823   0.464  0.6473 -0.1524 -0.0653
 1703TIP3    H1 5991  10.038   0.796   0.536  0.1387  1.1363  0.0573
 1703TIP3    H2 5992  10.166   0.760   0.464 -0.2884 -1.2550  0.3914
 1704TIP3   OH2 5993   9.353   2.718   9.224 -0.2094 -0.5667  0.2914
 1704TIP3    H1 5994   9.349   2.768   9.143 -2.2592  0.7592  1.1124
 1704TIP3    H2 5995   9.289   2.648   9.212  1.1739 -1.8279 -0.0686
 1705TIP3   OH2 5996  10.573   7.855  10.180 -0.0783  1.0360 -0.0669
 1705TIP3    H1 5997  10.548   7.944  10.156  0.6904  1.2843  0.0349
 1705TIP3    H2 5998  10.650   7.866  10.236 -0.1166  0.3172  0.1363
 1706TIP3   OH2 5999   7.839   2.739   6.891  0.3274 -0.1601 -0.2675
 1706TIP3    H1 6000   7.778   2.700   6.953  0.1593  0.4903 -0.0172
 1706TIP3    H2 6001   7.889   2.665   6.856  0.7494 -0.4915  0.9925
 1707TIP3   OH2 6002   3.675   5.708   6.314  0.1619 -0.1686 -0.4347
 1707TIP3    H1 6003   3.594   5.658   6.324 -0.1457  0.3181 -0.4379
 1707TIP3    H2 6004   3.740   5.659   6.363 -0.2353 -0.3380 -0.0701
 1708TIP3   OH2 6005  10.749   9.853  10.245  0.3065  0.4022  0.0221
 1708TIP3    H1 6006  10.842   9.867  10.264  0.5399 -0.3968 -0.5096
 1708TIP3    H2 6007  10.725   9.926  10.188  1.2853 -0.7851 -1.9962
 1709TIP3   OH2 6008   9.431   2.527  10.261 -0.0395  0.7349  0.6067
 1709TIP3    H1 6009   9.358   2.578  10.295 -0.3086  1.8488 -1.4927
 1709TIP3    H2 6010   9.405   2.503  10.173  0.6210 -2.0446  1.0536
 1710TIP3   OH2 6011   3.234   0.110   9.034  0.4774 -0.1459  0.1833
 1710TIP3    H1 6012   3.253   0.127   8.941  1.3998  0.4062  0.4588
 1710TIP3    H2 6013   3.220   0.015   9.038  0.0605 -0.1272 -0.5778
 1711TIP3   OH2 6014   1.455   4.797   7.306  0.0100  0.2830 -0.9399
 1711TIP3    H1 6015   1.538   4.811   7.352 -1.0057 -0.9660  1.4057
 1711TIP3    H2 6016   1.414   4.883   7.306  0.0612  0.3226  0.4700
 1712TIP3   OH2 6017   6.970   8.761   7.347  0.3025  0.2884 -0.6125
 1712TIP3    H1 6018   6.878   8.782   7.331  0.2666  0.1028 -0.6496
 1712TIP3    H2 6019   7.017   8.844   7.334 -0.1712  1.0659  2.1069
 1713TIP3   OH2 6020   1.668   0.736   3.383  0.1634 -0.1136  0.8480
 1713TIP3    H1 6021   1.706   0.649   3.386  0.4641  0.0145  0.8197
 1713TIP3    H2 6022   1.599   0.735   3.449  0.5025 -0.2148  1.2027
 1714TIP3   OH2 6023   3.444   3.571  10.858 -0.0680  0.0309  0.2894
 1714TIP3    H1 6024   3.421   3.644  10.916 -0.0114 -0.2794  0.7052
 1714TIP3    H2 6025   3.362   3.549  10.813 -0.1844  0.0722  0.4789
 1715TIP3   OH2 6026   6.353   8.524  10.802 -0.3918 -0.0442  0.5027
 1715TIP3    H1 6027   6.378   8.435  10.777 -1.2359 -0.2179  0.2627
 1715TIP3    H2 6028   6.337   8.518  10.896  4.4724  0.9772  1.6983
 1716TIP3   OH2 6029   2.403   2.338   6.274  0.3500 -0.0020 -0.1937
 1716TIP3    H1 6030   2.449   2.308   6.352 -0.1950 -1.1223 -0.2873
 1716TIP3    H2 6031   2.318   2.368   6.306  0.0994 -0.5262 -0.3509
 1717TIP3   OH2 6032   5.413   0.193   1.542  0.0987 -0.1212  0.5249
 1717TIP3    H1 6033   5.391   0.200   1.635  0.9590 -0.0380  0.7288
 1717TIP3    H2 6034   5.333   0.161   1.501 -0.2581 -0.2539  1.3104
 1718TIP3   OH2 6035   6.542   1.510   5.659 -0.2264  0.0092  0.5083
 1718TIP3    H1 6036   6.596   1.431   5.665  1.3932  0.8916 -1.2778
 1718TIP3    H2 6037   6.577   1.568   5.728  0.4390  0.1742  0.0461
 1719TIP3   OH2 6038   7.485   3.323   6.278 -0.1492  0.1653  0.0565
 1719TIP3    H1 6039   7.541   3.349   6.352 -0.8653  0.0743  0.6436
 1719TIP3    H2 6040   7.454   3.235   6.302 -0.1994  0.0398 -0.4668
 1720TIP3   OH2 6041   5.673   7.286   6.367  0.6043 -0.3175  0.2668
 1720TIP3    H1 6042   5.728   7.231   6.310  0.2922 -1.3764  0.9468
 1720TIP3    H2 6043   5.596   7.231   6.385  0.1198  0.4864  0.7057
 1721TIP3   OH2 6044   4.114   9.611   5.508  0.0380 -0.5492 -0.4048
 1721TIP3    H1 6045   4.087   9.609   5.416 -2.1047 -0.5196  0.1636
 1721TIP3    H2 6046   4.116   9.519   5.534 -1.0319 -0.5009 -0.0784
 1722TIP3   OH2 6047   9.665   3.624   8.014  0.6509  0.5203 -0.1852
 1722TIP3    H1 6048   9.608   3.638   7.938  1.2380 -0.0668 -0.7490
 1722TIP3    H2 6049   9.671   3.710   8.055 -2.6894  0.1460  1.4146
 1723TIP3   OH2 6050   4.215   6.301   6.654  0.3213  0.2432  0.4030
 1723TIP3    H1 6051   4.146   6.360   6.684  0.5072  0.4651  0.3879
 1723TIP3    H2 6052   4.279   6.300   6.725 -0.1035 -0.6345  0.7971
 1724TIP3   OH2 6053   6.604   5.789   8.098  0.1870  0.0879 -0.4153
 1724TIP3    H1 6054   6.575   5.698   8.107  2.5211 -0.9547 -2.2027
 1724TIP3    H2 6055   6.597   5.807   8.004  0.4004  1.5325 -0.1764
 1725TIP3   OH2 6056   9.854   9.796   6.769  0.3256  0.3182 -0.1711
 1725TIP3    H1 6057   9.761   9.816   6.778  0.1218 -0.8230  0.4073
 1725TIP3    H2 6058   9.899   9.876   6.797 -0.4630  0.2910  1.2623
 1726TIP3   OH2 6059   6.752   7.566   2.246  0.1688 -0.1312  0.1454
 1726TIP3    H1 6060   6.676   7.526   2.287  1.4875 -1.4475  1.4191
 1726TIP3    H2 6061   6.822   7.560   2.311  1.1267  2.0031 -0.5719
 1727TIP3   OH2 6062   6.388   8.642   7.359  0.4829  0.3259  0.1233
 1727TIP3    H1 6063   6.432   8.640   7.274  1.9243 -0.9135  0.8526
 1727TIP3    H2 6064   6.353   8.554   7.370  0.7213  0.3312  1.0146
 1728TIP3   OH2 6065   7.113  10.713   8.706 -0.2249  0.2533 -0.1438
 1728TIP3    H1 6066   7.183  10.708   8.771 -0.5289  2.2773  0.3805
 1728TIP3    H2 6067   7.038  10.670   8.748  0.0601  0.0525  0.1599
 1729TIP3   OH2 6068   0.151   0.904   9.690  0.2989  0.0181 -0.3180
 1729TIP3    H1 6069   0.101   0.925   9.769 -0.8592 -0.3805 -0.9157
 1729TIP3    H2 6070   0.235   0.948   9.702 -0.4517  1.3270  0.3928
 1730TIP3   OH2 6071  10.859   7.164   3.868  0.3602 -0.5212 -0.1408
 1730TIP3    H1 6072  10.855   7.073   3.895  2.4102 -0.0568  2.0885
 1730TIP3    H2 6073  10.843   7.162   3.773  0.0116 -3.1130 -0.0995
 1731TIP3   OH2 6074   9.807   3.150   7.270  0.1155 -0.0723  0.4917
 1731TIP3    H1 6075   9.872   3.192   7.214 -0.0104 -1.6890 -0.9593
 1731TIP3    H2 6076   9.851   3.072   7.304  0.0822  0.7194  2.4592
 1732TIP3   OH2 6077   3.060   9.197   4.572  0.5609 -0.4657  0.7678
 1732TIP3    H1 6078   3.072   9.132   4.641  1.2676  0.4939  1.5804
 1732TIP3    H2 6079   3.135   9.186   4.514  0.0182 -1.2069  0.1934
 1733TIP3   OH2 6080   4.066   7.959   0.830  0.2324  0.0792  0.4191
 1733TIP3    H1 6081   4.003   8.028   0.854  1.3652  1.1413  0.4628
 1733TIP3    H2 6082   4.138   7.970   0.892 -0.1544 -2.1035  1.3522
 1734TIP3   OH2 6083   8.239   1.581   7.863 -0.1405 -0.3708  0.4179
 1734TIP3    H1 6084   8.300   1.528   7.915 -0.6570 -0.4501  0.9561
 1734TIP3    H2 6085   8.196   1.519   7.805  2.1320  0.0189 -1.8773
 1735TIP3   OH2 6086   0.295   2.796   3.346  0.3446 -0.0873 -0.0626
 1735TIP3    H1 6087   0.296   2.891   3.341 -0.0344 -0.0942 -0.3590
 1735TIP3    H2 6088   0.207   2.771   3.316  0.8181 -0.5784 -1.1396
 1736TIP3   OH2 6089   9.146   1.781   5.628  0.2067  0.2987 -0.4176
 1736TIP3    H1 6090   9.093   1.817   5.700 -0.6560 -0.0739 -0.8582
 1736TIP3    H2 6091   9.162   1.690   5.653 -0.6787 -0.0330 -1.0036
 1737TIP3   OH2 6092   7.008   3.236   9.882 -0.1933  0.7107 -0.2307
 1737TIP3    H1 6093   6.935   3.178   9.858  0.6346 -0.5864  0.2944
 1737TIP3    H2 6094   7.061   3.242   9.803  0.2977 -0.1572  0.0184
 1738TIP3   OH2 6095   1.820   6.050   8.267 -0.2167  0.7854  0.1196
 1738TIP3    H1 6096   1.828   6.045   8.172 -2.4429  1.2658 -0.1499
 1738TIP3    H2 6097   1.746   6.110   8.282 -0.5100  0.0172  2.1177
 1739TIP3   OH2 6098   0.889   1.257  10.563  0.4871 -0.3483  0.4429
 1739TIP3    H1 6099   0.799   1.239  10.588  1.1093  0.7115  3.9703
 1739TIP3    H2 6100   0.889   1.249  10.467 -4.2597  3.3347 -0.2534
 1740TIP3   OH2 6101   3.095   4.721   6.745 -0.2708 -0.1911  0.0808
 1740TIP3    H1 6102   3.123   4.635   6.712 -0.7830 -0.5065  0.4560
 1740TIP3    H2 6103   3.022   4.746   6.688  0.2987  0.3095 -0.4508
 1741TIP3   OH2 6104   8.292   5.029   8.136  0.2637  0.0080 -0.1429
 1741TIP3    H1 6105   8.351   5.022   8.211  1.8536  0.0402 -1.3222
 1741TIP3    H2 6106   8.324   4.963   8.074 -1.8229 -0.9293 -0.2962
 1742TIP3   OH2 6107   6.046   5.121   7.664  0.2620 -0.1218  0.1926
 1742TIP3    H1 6108   6.015   5.047   7.716 -1.1263 -0.3720 -0.9241
 1742TIP3    H2 6109   5.971   5.146   7.610  1.4608  0.4681 -1.2911
 1743TIP3   OH2 6110   8.655   8.105   1.676  0.2939  0.3856 -0.1682
 1743TIP3    H1 6111   8.583   8.168   1.682 -1.9316 -2.1076  1.9608
 1743TIP3    H2 6112   8.622   8.038   1.615  0.4297 -1.1363  1.3550
 1744TIP3   OH2 6113   6.248   3.137   7.801  0.0782  0.4696  0.4354
 1744TIP3    H1 6114   6.243   3.090   7.884 -0.8751 -0.1387  0.0498
 1744TIP3    H2 6115   6.157   3.148   7.774  0.3761 -1.4089 -1.6526
 1745TIP3   OH2 6116   0.278   0.717  10.212 -0.2393 -0.3410  0.0739
 1745TIP3    H1 6117   0.270   0.654  10.283 -3.9072 -0.0639  0.0577
 1745TIP3    H2 6118   0.245   0.672  10.135  0.9466  0.3369 -0.8766
 1746TIP3   OH2 6119   9.805   7.029   8.696  0.0907  0.2015 -0.7491
 1746TIP3    H1 6120   9.791   6.937   8.673  1.1460 -0.4998  1.1619
 1746TIP3    H2 6121   9.888   7.052   8.654 -0.0015  0.1781 -0.9455
 1747TIP3   OH2 6122   9.858   5.799   2.629 -0.1674 -0.2790  0.0155
 1747TIP3    H1 6123   9.826   5.880   2.670 -0.5931 -0.3353 -0.2014
 1747TIP3    H2 6124   9.914   5.759   2.696 -0.8320 -0.3532  0.5419
 1748TIP3   OH2 6125   4.723   5.097   4.941  0.0919 -0.2656 -0.3118
 1748TIP3    H1 6126   4.729   5.154   5.017 -0.3977  0.3010 -0.6876
 1748TIP3    H2 6127   4.792   5.130   4.882 -1.1288  0.9035 -1.1430
 1749TIP3   OH2 6128   1.395   9.144   1.228  0.3109  0.0019  0.2197
 1749TIP3    H1 6129   1.430   9.128   1.315 -1.4837 -0.3630  0.9123
 1749TIP3    H2 6130   1.457   9.101   1.168  0.4494 -1.5781  1.4479
 1750TIP3   OH2 6131   2.960   2.594   0.451  0.1543  0.4717 -0.3637
 1750TIP3    H1 6132   3.041   2.551   0.479  2.2436  2.9035 -2.1435
 1750TIP3    H2 6133   2.926   2.636   0.530 -0.1373 -1.5693  0.6694
 1751TIP3   OH2 6134   7.933   5.024   8.132 -0.0725  0.5090 -0.2738
 1751TIP3    H1 6135   7.995   5.035   8.061  1.1043  2.1780  0.9294
 1751TIP3    H2 6136   7.981   4.975   8.199 -0.3376  1.0465  0.3198
 1752TIP3   OH2 6137   4.185   7.461  10.879  0.0703 -0.3469  0.0376
 1752TIP3    H1 6138   4.114   7.469  10.942 -1.0296  0.9914 -1.3096
 1752TIP3    H2 6139   4.149   7.495  10.797  2.5562  1.3953 -0.4528
 1753TIP3   OH2 6140   6.946   7.301   6.046  0.1863 -0.4394  0.5656
 1753TIP3    H1 6141   6.905   7.332   6.127 -1.2696 -0.1844 -0.2271
 1753TIP3    H2 6142   7.025   7.354   6.038  0.0433 -0.0558  1.5164
 1754TIP3   OH2 6143   1.713   8.936   7.407 -0.0184  0.4002 -0.4763
 1754TIP3    H1 6144   1.656   8.927   7.484  0.8599  0.2140  0.1729
 1754TIP3    H2 6145   1.722   8.848   7.373  0.0370  0.3980 -0.4555
 1755TIP3   OH2 6146   6.912   4.958   4.074  0.8105  0.2334 -0.4491
 1755TIP3    H1 6147   6.845   4.929   4.011  2.7833 -4.0597 -0.9356
 1755TIP3    H2 6148   6.918   5.053   4.060 -3.4277  0.5096 -1.9561
 1756TIP3   OH2 6149   8.420   2.548   1.657 -0.4968 -0.4304  0.4443
 1756TIP3    H1 6150   8.437   2.462   1.618 -1.1642 -0.1264 -0.5317
 1756TIP3    H2 6151   8.325   2.553   1.664 -0.4847  0.4424  0.0168
 1757TIP3   OH2 6152  10.331   3.475   7.368  0.5342 -0.0599 -0.1163
 1757TIP3    H1 6153  10.335   3.515   7.282  1.3510  0.6513  0.2433
 1757TIP3    H2 6154  10.383   3.532   7.425 -0.2898 -0.3056  0.9391
 1758TIP3   OH2 6155  10.426   4.018   6.901 -0.0407 -0.5661 -0.3220
 1758TIP3    H1 6156  10.429   4.085   6.970  0.0929  0.3161 -1.1687
 1758TIP3    H2 6157  10.518   4.001   6.880 -0.0946  0.1405 -1.1916
 1759TIP3   OH2 6158   2.738   5.298   6.585  0.4094  0.1124 -0.2012
 1759TIP3    H1 6159   2.666   5.336   6.535  0.0410 -1.2134 -0.7259
 1759TIP3    H2 6160   2.798   5.265   6.519  0.8682  0.0532  0.2390
 1760TIP3   OH2 6161  10.513  10.520   1.994  0.5881 -0.6496 -0.1236
 1760TIP3    H1 6162  10.537  10.478   2.077 -2.0446  0.6230  1.4112
 1760TIP3    H2 6163  10.594  10.562   1.965  1.0884  1.2750  3.3777
 1761TIP3   OH2 6164   5.380  10.665   1.491 -0.1094 -0.3709 -0.5255
 1761TIP3    H1 6165   5.380  10.569   1.488  1.1779 -0.4271  0.4602
 1761TIP3    H2 6166   5.472  10.690   1.480 -0.6766  0.9071 -3.3138
 1762TIP3   OH2 6167   2.444   9.067   5.898 -0.3177 -0.5022  0.5778
 1762TIP3    H1 6168   2.419   9.093   5.987  1.7125  2.9779  0.3024
 1762TIP3    H2 6169   2.414   9.139   5.843 -0.1430 -1.8621 -1.3678
 1763TIP3   OH2 6170   3.243   4.158   8.192 -0.9343  0.0675 -0.4214
 1763TIP3    H1 6171   3.334   4.129   8.204 -0.5821  1.5176  0.7018
 1763TIP3    H2 6172   3.222   4.133   8.101  1.3636  1.6964 -1.4933
 1764TIP3   OH2 6173   4.827   4.085   7.928  0.2037 -0.5791  0.4617
 1764TIP3    H1 6174   4.859   4.174   7.942  1.7334 -0.4613 -2.8378
 1764TIP3    H2 6175   4.737   4.097   7.897  0.1239 -0.2206  0.8335
 1765TIP3   OH2 6176   4.301   2.370   9.198 -0.5483  0.2505  0.0024
 1765TIP3    H1 6177   4.362   2.431   9.240  1.0459 -0.4430 -1.1968
 1765TIP3    H2 6178   4.307   2.390   9.105  0.3333 -1.9557 -0.4776
 1766TIP3   OH2 6179  10.856   8.016   4.864  0.2692 -0.1341  0.2936
 1766TIP3    H1 6180  10.764   8.033   4.846  0.8077  3.4014  0.1966
 1766TIP3    H2 6181  10.903   8.055   4.790  1.9028 -1.2916  0.6506
 1767TIP3   OH2 6182   1.574   5.417   6.279  0.4110  0.5019  0.3298
 1767TIP3    H1 6183   1.640   5.442   6.345 -1.5999  1.6010  2.0387
 1767TIP3    H2 6184   1.614   5.441   6.196  2.3057  0.8153  1.2732
 1768TIP3   OH2 6185   0.844   1.266   9.312  0.4608 -0.2361 -0.1757
 1768TIP3    H1 6186   0.932   1.303   9.305  0.4921 -0.1928  0.3741
 1768TIP3    H2 6187   0.847   1.212   9.392  0.8770 -2.7083 -1.7636
 1769TIP3   OH2 6188   4.455   1.382   8.971 -0.4742  0.3946  0.1052
 1769TIP3    H1 6189   4.491   1.306   9.018 -0.9273  1.4857  2.3214
 1769TIP3    H2 6190   4.506   1.456   9.002 -1.5852  1.3333 -0.2479
 1770TIP3   OH2 6191   0.062   8.886  10.872 -0.0670 -0.2674  0.0609
 1770TIP3    H1 6192  -0.007   8.943  10.837  0.7093  1.4311  1.1561
 1770TIP3    H2 6193   0.039   8.874  10.964 -0.5652 -2.3376 -0.3009
 1771TIP3   OH2 6194   7.264   4.192   9.976  0.0923 -0.5963 -0.2986
 1771TIP3    H1 6195   7.300   4.104   9.993 -2.3522 -1.5515  0.4885
 1771TIP3    H2 6196   7.232   4.221  10.062 -0.2962  0.5048 -0.7974
 1772TIP3   OH2 6197   2.592   1.507   5.208 -0.6146  0.2416  0.1486
 1772TIP3    H1 6198   2.649   1.507   5.285  0.6551  0.9018 -0.7547
 1772TIP3    H2 6199   2.645   1.465   5.140 -1.8908 -0.7729 -0.2711
 1773TIP3   OH2 6200   6.622   8.532   5.296  0.1062  0.4333 -0.0669
 1773TIP3    H1 6201   6.642   8.519   5.204  2.0651 -0.7124  0.4574
 1773TIP3    H2 6202   6.676   8.607   5.322  1.0309 -0.4079  0.5356
 1774TIP3   OH2 6203  10.111   8.159   7.831  0.0014  0.1079 -0.2165
 1774TIP3    H1 6204  10.182   8.119   7.879 -0.8888 -0.7021  0.4510
 1774TIP3    H2 6205  10.084   8.093   7.767 -0.4920  0.2015 -0.1135
 1775TIP3   OH2 6206  10.809   1.809   1.946  0.7677 -0.1665 -0.2951
 1775TIP3    H1 6207  10.866   1.840   1.875  0.4550  2.2831  0.4183
 1775TIP3    H2 6208  10.726   1.853   1.930  0.4027 -0.3405  1.0574
 1776TIP3   OH2 6209   3.745   0.211   7.156 -0.2057  0.1721  0.1924
 1776TIP3    H1 6210   3.682   0.244   7.220 -0.0966  0.4142  0.1771
 1776TIP3    H2 6211   3.807   0.283   7.144  0.6939 -0.4427  1.0090
 1777TIP3   OH2 6212   3.420   8.480   1.757 -0.0477 -0.3260 -0.2509
 1777TIP3    H1 6213   3.494   8.465   1.816  1.4338 -1.5088 -2.2805
 1777TIP3    H2 6214   3.437   8.567   1.720  2.0283 -1.6628 -2.8057
 1778TIP3   OH2 6215   7.461   7.947   7.900  0.1236  0.4540 -0.1124
 1778TIP3    H1 6216   7.386   7.977   7.849  0.8534  2.6185 -0.0088
 1778TIP3    H2 6217   7.485   8.023   7.953  1.9872 -0.4061  0.3330
 1779TIP3   OH2 6218   8.250   2.413   9.882  0.2052  0.2664  0.2863
 1779TIP3    H1 6219   8.334   2.448   9.851  0.8622 -0.9184  0.6623
 1779TIP3    H2 6220   8.257   2.319   9.867 -1.0603  0.1495  0.3539
 1780TIP3   OH2 6221  10.884   9.791   0.030  0.2890  0.5306 -0.5349
 1780TIP3    H1 6222  10.960   9.806   0.087  0.9639  1.8397 -1.6907
 1780TIP3    H2 6223  10.824   9.863   0.052 -0.8131 -0.6868  0.6060
 1781TIP3   OH2 6224   4.760   9.861   7.205  0.1345  0.2165 -0.0939
 1781TIP3    H1 6225   4.708   9.840   7.128 -0.6789 -1.4314  0.8378
 1781TIP3    H2 6226   4.850   9.842   7.179 -0.1419 -0.4322 -0.6155
 1782TIP3   OH2 6227   0.169   6.485   1.121  0.3780  0.4160 -0.8251
 1782TIP3    H1 6228   0.123   6.407   1.152  1.3660  0.3995  0.7434
 1782TIP3    H2 6229   0.102   6.539   1.080 -1.1079  0.4533  1.4848
 1783TIP3   OH2 6230   8.718   0.182   1.445 -0.2417 -0.0156 -0.0626
 1783TIP3    H1 6231   8.656   0.174   1.517 -0.2898  1.9255  0.1596
 1783TIP3    H2 6232   8.789   0.121   1.468  0.2548  1.3020  2.2046
 1784TIP3   OH2 6233  10.133   9.812   9.372  0.2817  0.0259 -0.2530
 1784TIP3    H1 6234  10.080   9.735   9.393 -0.3582 -0.3450 -2.9199
 1784TIP3    H2 6235  10.221   9.790   9.403 -0.6116 -0.1565  2.4294
 1785TIP3   OH2 6236   5.821   8.852   5.815  0.4177 -0.0800 -0.1311
 1785TIP3    H1 6237   5.792   8.870   5.726  1.2462 -0.6999 -0.5404
 1785TIP3    H2 6238   5.745   8.872   5.869 -0.4838 -0.7835 -1.0874
 1786TIP3   OH2 6239   9.394   3.235   8.991  0.1450 -1.0029 -0.0946
 1786TIP3    H1 6240   9.309   3.278   8.987  0.3139 -0.3726  2.2029
 1786TIP3    H2 6241   9.405   3.210   9.082  2.6608 -0.5997 -0.2154
 1787TIP3   OH2 6242   5.465   9.111   8.867 -0.2282  0.1600  0.2819
 1787TIP3    H1 6243   5.428   9.200   8.867 -0.9697  0.0548 -3.7888
 1787TIP3    H2 6244   5.559   9.125   8.860 -0.4847  0.9174 -4.0685
 1788TIP3   OH2 6245   8.941   9.302   7.611 -0.0005  0.4391  0.5064
 1788TIP3    H1 6246   8.926   9.387   7.569  0.1301 -0.5474 -1.7002
 1788TIP3    H2 6247   9.002   9.257   7.553 -0.6782 -1.4629  1.1739
 1789TIP3   OH2 6248   2.162   1.730   8.566  0.5726 -0.1512 -0.2873
 1789TIP3    H1 6249   2.153   1.639   8.537  2.6486 -0.1266 -1.1748
 1789TIP3    H2 6250   2.240   1.730   8.622  0.0486  0.9216  0.4747
 1790TIP3   OH2 6251  10.821  10.741   3.114  0.2205 -0.0087  0.9292
 1790TIP3    H1 6252  10.906  10.707   3.088 -0.9317 -1.9597 -0.5716
 1790TIP3    H2 6253  10.762  10.665   3.109 -1.8128  1.4888  0.8475
 1791TIP3   OH2 6254   9.849   1.285   1.031 -0.4401 -0.2430  0.5236
 1791TIP3    H1 6255   9.874   1.368   0.991 -2.1399 -0.1852 -0.5499
 1791TIP3    H2 6256   9.775   1.307   1.087  0.5545 -0.6880  2.0637
 1792TIP3   OH2 6257   3.748   9.349   1.086 -1.2495  0.2443 -0.5599
 1792TIP3    H1 6258   3.668   9.299   1.098 -1.7158  0.9358 -0.7211
 1792TIP3    H2 6259   3.727   9.411   1.016 -0.7524  0.7998 -0.2278
 1793TIP3   OH2 6260   4.348   8.469   9.984 -0.0926 -0.2698  0.3420
 1793TIP3    H1 6261   4.432   8.490   9.942 -0.1777  0.4573  0.5323
 1793TIP3    H2 6262   4.367   8.468  10.077 -0.0394 -1.2883  0.3288
 1794TIP3   OH2 6263   7.922   7.853   7.665  0.7365 -0.5301  0.0581
 1794TIP3    H1 6264   7.892   7.845   7.755 -2.1924 -1.0529 -0.8461
 1794TIP3    H2 6265   7.919   7.947   7.647 -0.1033 -0.5391  0.1039
 1795TIP3   OH2 6266   2.240   8.105   8.067  0.4799  0.3979  0.0281
 1795TIP3    H1 6267   2.246   8.019   8.109 -1.9135  0.8359  1.4698
 1795TIP3    H2 6268   2.175   8.093   7.998 -1.0064  1.3330  1.2083
 1796TIP3   OH2 6269   7.690   7.974   5.034  0.3782  0.2262 -0.4271
 1796TIP3    H1 6270   7.620   7.989   4.971 -0.4069  0.8822  0.5741
 1796TIP3    H2 6271   7.745   7.907   4.993 -0.5986 -0.0041 -1.4057
 1797TIP3   OH2 6272   6.738  10.392   3.887  0.3678 -0.1934  0.3320
 1797TIP3    H1 6273   6.646  10.389   3.858  0.1922  0.3495  0.8116
 1797TIP3    H2 6274   6.756  10.485   3.897  1.5515 -0.1859 -1.5413
 1798TIP3   OH2 6275   8.174   0.602   0.627 -0.3810 -0.2694 -0.4126
 1798TIP3    H1 6276   8.216   0.518   0.609 -0.3047 -0.6510  1.3587
 1798TIP3    H2 6277   8.208   0.627   0.713 -1.4431  0.9166 -0.3197
 1799TIP3   OH2 6278   4.135   1.244   7.815 -0.0574  0.8542 -0.4155
 1799TIP3    H1 6279   4.069   1.234   7.883  0.8609 -1.1076  0.2440
 1799TIP3    H2 6280   4.085   1.242   7.733 -0.8718 -0.1753  0.0891
 1800TIP3   OH2 6281   7.176   2.671   9.203 -0.3285  0.2116  0.2902
 1800TIP3    H1 6282   7.087   2.637   9.200  0.0934 -0.8767 -0.1927
 1800TIP3    H2 6283   7.178   2.738   9.134 -0.5251 -0.3887 -0.3020
 1801TIP3   OH2 6284   4.418   3.254   2.162 -0.3268 -0.2219 -0.8347
 1801TIP3    H1 6285   4.359   3.326   2.140 -1.1770 -1.3259 -2.3137
 1801TIP3    H2 6286   4.360   3.183   2.190  0.3522 -1.0051 -1.3780
 1802TIP3   OH2 6287   2.880   3.032   0.545  0.1620 -0.3166  0.2828
 1802TIP3    H1 6288   2.906   3.102   0.604  1.2799 -1.3125  1.0416
 1802TIP3    H2 6289   2.806   3.067   0.496  0.8775  1.4821  0.4199
 1803TIP3   OH2 6290   0.453  10.536   4.950  0.4126 -0.0991 -0.0682
 1803TIP3    H1 6291   0.450  10.631   4.964  1.2908 -0.1621  0.5980
 1803TIP3    H2 6292   0.490  10.526   4.863  1.4088  0.1587  0.3079
 1804TIP3   OH2 6293   8.982   3.763   2.379  0.1926  0.7972 -0.2123
 1804TIP3    H1 6294   8.911   3.715   2.422  1.0508  1.1182  1.6754
 1804TIP3    H2 6295   9.022   3.698   2.320 -1.7233  0.6671 -1.4405
 1805TIP3   OH2 6296   5.236   9.572   0.450  0.0991  0.1202  0.3431
 1805TIP3    H1 6297   5.317   9.597   0.494  0.7792 -0.5286 -0.4849
 1805TIP3    H2 6298   5.178   9.543   0.520  0.9296 -0.3088  0.8635
 1806TIP3   OH2 6299   0.196   5.789   9.092  0.2444  0.0059 -0.7319
 1806TIP3    H1 6300   0.238   5.802   9.007 -2.2239  1.5220 -1.8340
 1806TIP3    H2 6301   0.139   5.714   9.079 -0.5075  0.5393 -0.6033
 1807TIP3   OH2 6302   1.006   3.823   7.916 -0.5837 -0.2486  0.3011
 1807TIP3    H1 6303   0.912   3.802   7.921 -0.3131 -1.4461  0.8003
 1807TIP3    H2 6304   1.048   3.756   7.970  0.4787  0.9030  0.9641
 1808TIP3   OH2 6305   6.294   9.718   8.308  0.6819  0.2831 -0.1583
 1808TIP3    H1 6306   6.211   9.762   8.290  0.1104 -1.2824 -1.6122
 1808TIP3    H2 6307   6.357   9.764   8.253  0.7714  1.3105  0.7551
 1809TIP3   OH2 6308   6.090   8.155   4.267  0.5532  0.1034  0.0080
 1809TIP3    H1 6309   6.023   8.161   4.198  0.8013 -0.4869 -0.2905
 1809TIP3    H2 6310   6.042   8.166   4.349 -0.2874 -2.5267 -0.0504
 1810TIP3   OH2 6311   9.145   8.364   2.658  0.2337 -0.0188  0.4357
 1810TIP3    H1 6312   9.212   8.324   2.713 -0.1082 -0.9063  0.2091
 1810TIP3    H2 6313   9.099   8.291   2.617 -0.0604  0.6105 -0.3910
 1811TIP3   OH2 6314   1.555   5.887   0.114  0.0987 -0.4750 -0.5218
 1811TIP3    H1 6315   1.536   5.800   0.080 -1.5847 -0.2188 -0.3406
 1811TIP3    H2 6316   1.469   5.925   0.133  0.7953  1.1211 -0.3284
 1812TIP3   OH2 6317   3.236   7.226   3.755 -0.3274 -0.5955  0.4552
 1812TIP3    H1 6318   3.161   7.257   3.805  0.9844 -0.3877  2.4057
 1812TIP3    H2 6319   3.202   7.152   3.704 -2.2857  0.7497 -0.2891
 1813TIP3   OH2 6320  10.360   5.459   1.387  0.1742  0.1089  0.5872
 1813TIP3    H1 6321  10.268   5.447   1.363 -0.2815  0.1754  2.1615
 1813TIP3    H2 6322  10.388   5.372   1.417  0.8359 -0.0705 -0.5289
 1814TIP3   OH2 6323   1.429   1.145   6.040 -0.1360  0.3760 -0.1627
 1814TIP3    H1 6324   1.435   1.134   6.135  0.6000  1.6231 -0.0458
 1814TIP3    H2 6325   1.335   1.145   6.022 -0.2832  0.2045  0.5649
 1815TIP3   OH2 6326   5.332   3.193  10.298 -0.1550  0.7226  0.4737
 1815TIP3    H1 6327   5.405   3.243  10.333  0.6152 -0.5848  0.8224
 1815TIP3    H2 6328   5.373   3.118  10.254 -1.2445  0.5126 -0.2313
 1816TIP3   OH2 6329   5.703   2.163   1.833 -0.3819 -0.4934  0.0022
 1816TIP3    H1 6330   5.716   2.153   1.739  2.0346  0.2774  0.1879
 1816TIP3    H2 6331   5.732   2.079   1.869 -2.9385 -1.4591  0.0253
 1817TIP3   OH2 6332   8.317   7.512   9.255 -0.5797 -0.3723  0.5715
 1817TIP3    H1 6333   8.347   7.443   9.195  0.5723 -0.1239  0.8272
 1817TIP3    H2 6334   8.259   7.467   9.316  0.7272 -1.3065  1.1879
 1818TIP3   OH2 6335   1.789   0.214   3.276  0.2949  0.0616  0.1943
 1818TIP3    H1 6336   1.825   0.145   3.220 -0.0266 -0.5459  0.7174
 1818TIP3    H2 6337   1.819   0.191   3.364  0.7674  0.9834  0.2879
 1819TIP3   OH2 6338   0.292   5.636   7.625  0.0653  0.1775  0.0061
 1819TIP3    H1 6339   0.365   5.654   7.685 -1.2779  0.4441  1.6438
 1819TIP3    H2 6340   0.318   5.677   7.543  2.9225 -1.9879 -0.3072
 1820TIP3   OH2 6341   7.554  10.410   9.146 -0.6745  0.1087 -0.0031
 1820TIP3    H1 6342   7.529  10.461   9.069 -0.7289 -1.6978 -1.2684
 1820TIP3    H2 6343   7.478  10.412   9.203 -1.9062 -1.1559 -1.5073
 1821TIP3   OH2 6344  10.161   5.638   2.989  1.4564  0.3267  0.2806
 1821TIP3    H1 6345  10.095   5.699   2.956  0.7475 -0.5255  0.0657
 1821TIP3    H2 6346  10.158   5.648   3.084  1.7261  1.0079  0.2190
 1822TIP3   OH2 6347  10.046   2.950   2.381 -0.4199  0.2741  0.1193
 1822TIP3    H1 6348  10.033   3.022   2.443 -0.5931  1.6610 -1.4534
 1822TIP3    H2 6349  10.107   2.985   2.316  0.8581 -1.6164  0.2047
 1823TIP3   OH2 6350   7.531   4.216   5.950  0.7983  0.6166  0.0216
 1823TIP3    H1 6351   7.559   4.126   5.937 -0.6360  0.0903  0.3483
 1823TIP3    H2 6352   7.576   4.244   6.030 -0.4832 -0.6176  1.2305
 1824TIP3   OH2 6353   1.835   0.773   5.668  0.3826 -0.3255 -0.0158
 1824TIP3    H1 6354   1.929   0.787   5.666  0.5041 -0.2461  2.7215
 1824TIP3    H2 6355   1.823   0.699   5.728 -1.3653  0.8790  1.2159
 1825TIP3   OH2 6356   7.100   6.471  10.152 -0.1632 -1.0833 -0.2715
 1825TIP3    H1 6357   7.107   6.375  10.158  0.9169 -0.9195  1.8808
 1825TIP3    H2 6358   7.184   6.499  10.114  0.6315 -0.8579  1.5544
 1826TIP3   OH2 6359   7.248   3.182   9.262 -0.0409  0.4148 -0.5854
 1826TIP3    H1 6360   7.296   3.105   9.230 -1.0586 -0.4176 -0.1503
 1826TIP3    H2 6361   7.310   3.254   9.251 -0.0205  0.0713 -3.7175
 1827TIP3   OH2 6362   2.071   8.305   1.518 -0.2466 -0.4287  0.2495
 1827TIP3    H1 6363   2.099   8.251   1.444  0.3015 -1.4387  1.1527
 1827TIP3    H2 6364   2.099   8.255   1.595 -1.7071  0.0883  1.1599
 1828TIP3   OH2 6365   2.500   9.642   8.307  1.2813  0.0542 -0.0112
 1828TIP3    H1 6366   2.434   9.643   8.376 -1.2910 -1.0814 -2.2593
 1828TIP3    H2 6367   2.546   9.558   8.318 -0.6322 -1.1719 -0.8877
 1829TIP3   OH2 6368   5.596   6.748   4.495  0.9898  0.6051 -0.4615
 1829TIP3    H1 6369   5.616   6.694   4.571  3.2179 -0.2382 -1.5745
 1829TIP3    H2 6370   5.585   6.836   4.531 -1.0777 -0.2172  1.1694
 1830TIP3   OH2 6371   7.206   0.137   4.338 -0.1835  0.3141 -0.0804
 1830TIP3    H1 6372   7.160   0.221   4.337  0.0278  0.4557  0.8694
 1830TIP3    H2 6373   7.236   0.128   4.428  1.1412 -0.0561 -0.5318
 1831TIP3   OH2 6374   2.695   8.001   0.494 -0.2104  0.7904  0.2249
 1831TIP3    H1 6375   2.647   8.084   0.506  0.8950  1.7450 -1.5658
 1831TIP3    H2 6376   2.634   7.934   0.524 -1.2766  2.2195  1.4028
 1832TIP3   OH2 6377   0.125   5.441   4.319 -0.2843 -0.3339 -0.2488
 1832TIP3    H1 6378   0.195   5.424   4.257 -0.2713  2.6695 -1.2556
 1832TIP3    H2 6379   0.054   5.476   4.265 -0.7146  1.2459  1.2540
 1833TIP3   OH2 6380   1.853   0.350   7.243  0.2046 -0.3396 -0.2273
 1833TIP3    H1 6381   1.843   0.308   7.158  1.6278 -1.5940  0.2048
 1833TIP3    H2 6382   1.922   0.302   7.287  1.8866  2.3701  0.3444
 1834TIP3   OH2 6383   8.709   8.869   7.655 -0.0430  0.0976 -0.7787
 1834TIP3    H1 6384   8.779   8.904   7.711 -0.1845 -1.5138  0.4701
 1834TIP3    H2 6385   8.754   8.824   7.584  0.1493  0.9928 -1.2371
 1835TIP3   OH2 6386   8.140  10.588   0.130  0.3231  0.2051 -0.5502
 1835TIP3    H1 6387   8.181  10.584   0.216  0.2415 -1.4517 -0.5612
 1835TIP3    H2 6388   8.163  10.674   0.096  0.5808  0.7813  1.0133
 1836TIP3   OH2 6389   3.730   3.873   9.908 -0.0897 -0.3271  0.4017
 1836TIP3    H1 6390   3.810   3.890   9.957 -0.3733  0.1459  0.7151
 1836TIP3    H2 6391   3.749   3.794   9.857  0.5071 -0.3251  0.6127
 1837TIP3   OH2 6392   8.668  10.785   7.457  0.3184  0.2671 -0.4852
 1837TIP3    H1 6393   8.750  10.751   7.495  2.2338  2.5025 -2.2775
 1837TIP3    H2 6394   8.663  10.743   7.371  0.1402  0.9057 -0.7895
 1838TIP3   OH2 6395  10.336   6.711   0.260  0.3317  0.0594 -0.1575
 1838TIP3    H1 6396  10.267   6.733   0.323  0.4016  1.8320 -0.6663
 1838TIP3    H2 6397  10.290   6.660   0.193  0.5227 -3.1839  1.9369
 1839TIP3   OH2 6398   0.560   2.284   8.081  0.8421 -0.0200 -0.5806
 1839TIP3    H1 6399   0.577   2.199   8.042 -2.0278 -0.6619 -0.6825
 1839TIP3    H2 6400   0.631   2.297   8.144  1.1757 -2.6384 -0.3376
 1840TIP3   OH2 6401  10.624   9.085   7.700  0.2730 -0.0970  0.5670
 1840TIP3    H1 6402  10.631   8.990   7.707  1.4519  0.0051  1.0398
 1840TIP3    H2 6403  10.532   9.104   7.721 -0.2391 -1.1986 -0.5692
 1841TIP3   OH2 6404   1.392   8.355   9.958  0.3793 -0.2980 -0.6722
 1841TIP3    H1 6405   1.348   8.352  10.042  0.8974 -1.6671 -0.4293
 1841TIP3    H2 6406   1.431   8.268   9.948 -2.7840 -1.6127 -3.9899
 1842TIP3   OH2 6407   6.996   5.489   6.688 -0.3616 -0.2348  0.6398
 1842TIP3    H1 6408   6.911   5.451   6.666 -0.8256  0.1661  1.6663
 1842TIP3    H2 6409   7.028   5.437   6.762  0.0522 -0.0614  0.5896
 1843TIP3   OH2 6410   5.480   0.931   2.905  0.7212 -0.1772  0.1652
 1843TIP3    H1 6411   5.486   0.998   2.837 -0.8580  0.2258  0.3742
 1843TIP3    H2 6412   5.560   0.942   2.957  0.6838  1.2840 -0.0458
 1844TIP3   OH2 6413   7.809   3.519   9.127 -0.1048  0.2037  0.2742
 1844TIP3    H1 6414   7.744   3.450   9.139 -2.2996  2.3116  1.5103
 1844TIP3    H2 6415   7.790   3.555   9.040  0.8876 -0.5543 -0.2750
 1845TIP3   OH2 6416   5.965  10.749   2.675 -0.0962  0.2003 -0.0027
 1845TIP3    H1 6417   5.914  10.819   2.634 -0.4196 -0.2115 -0.3149
 1845TIP3    H2 6418   5.994  10.695   2.602 -1.5245 -1.1183  0.3397
 1846TIP3   OH2 6419   7.828   1.415   5.200 -0.8383  0.3366  0.3859
 1846TIP3    H1 6420   7.762   1.435   5.267 -2.2837 -2.8337  0.0972
 1846TIP3    H2 6421   7.778   1.414   5.118  0.0345  0.0539 -0.1502
 1847TIP3   OH2 6422   3.838   7.930   4.408  0.6942 -0.0318 -0.3027
 1847TIP3    H1 6423   3.912   7.987   4.386  1.0880 -0.0137  0.9871
 1847TIP3    H2 6424   3.865   7.885   4.488 -0.5568 -0.2948 -0.0082
 1848TIP3   OH2 6425   0.218   2.785   2.713 -0.0234  0.0935 -0.1564
 1848TIP3    H1 6426   0.197   2.840   2.637 -1.4491  0.0962  0.2196
 1848TIP3    H2 6427   0.185   2.698   2.690 -0.6331  0.1361  0.5245
 1849TIP3   OH2 6428   4.354   6.970  10.353 -0.1008  1.0124  0.3453
 1849TIP3    H1 6429   4.369   6.884  10.392 -0.0222  0.2919 -1.1691
 1849TIP3    H2 6430   4.379   6.959  10.261 -1.1268  2.3566 -0.1364
 1850TIP3   OH2 6431   3.136  10.050   0.826 -0.0489 -0.2403 -0.3728
 1850TIP3    H1 6432   3.097  10.114   0.886  2.3725  0.6777  0.3480
 1850TIP3    H2 6433   3.121   9.966   0.868  0.7681  0.3106  1.0843
 1851TIP3   OH2 6434   0.963   7.906   4.991  0.3766  1.2509 -0.0414
 1851TIP3    H1 6435   0.876   7.891   4.953 -0.5253 -0.1869  2.4343
 1851TIP3    H2 6436   0.962   7.999   5.015 -1.0055  0.9842  1.0892
 1852TIP3   OH2 6437   2.820   0.967   6.378 -0.4264 -0.3577 -0.0111
 1852TIP3    H1 6438   2.764   0.900   6.339 -0.3097  0.4212 -1.5560
 1852TIP3    H2 6439   2.906   0.953   6.339 -0.5716  1.1388 -0.9633
 1853TIP3   OH2 6440   2.218   7.798   6.676 -0.1105 -0.0936  0.6932
 1853TIP3    H1 6441   2.142   7.855   6.675 -0.7336 -0.9129  0.0965
 1853TIP3    H2 6442   2.200   7.735   6.746  0.9268  0.8654  1.8830
 1854TIP3   OH2 6443   7.237   6.603   3.165 -0.4174 -0.0475  0.6771
 1854TIP3    H1 6444   7.235   6.694   3.193  0.4963 -0.0257  0.7104
 1854TIP3    H2 6445   7.301   6.562   3.224  1.5029 -0.0211 -1.2735
 1855TIP3   OH2 6446   2.151   3.938   2.598  0.1233  0.0693 -0.5308
 1855TIP3    H1 6447   2.227   3.996   2.590  1.0850 -1.0754  0.0682
 1855TIP3    H2 6448   2.185   3.860   2.641 -1.3979 -0.4796 -0.2758
 1856TIP3   OH2 6449   8.395   2.361  10.834 -0.4763 -0.2272  0.4109
 1856TIP3    H1 6450   8.303   2.334  10.835 -1.1115  1.6725 -1.0314
 1856TIP3    H2 6451   8.393   2.456  10.845  1.2985 -0.1132  0.1394
 1857TIP3   OH2 6452   3.539  10.493   3.672  0.3513 -0.1319 -0.3913
 1857TIP3    H1 6453   3.471  10.552   3.703  1.2349  0.3321  0.7217
 1857TIP3    H2 6454   3.497  10.442   3.603 -1.1655  0.0304  0.3755
 1858TIP3   OH2 6455   6.119   2.929   1.062  0.1936 -0.2371  0.0105
 1858TIP3    H1 6456   6.075   2.993   1.006  0.3504  1.2258  1.4885
 1858TIP3    H2 6457   6.172   2.876   1.001 -1.3786 -0.2194 -1.4579
 1859TIP3   OH2 6458   8.980  10.549   4.155 -0.3358  0.5278 -0.2433
 1859TIP3    H1 6459   8.903  10.494   4.140 -0.2584  0.7729 -1.6304
 1859TIP3    H2 6460   8.945  10.634   4.180 -0.4614  0.0303  1.4117
 1860TIP3   OH2 6461   6.054   7.530   4.832  0.2303 -0.1461 -0.1012
 1860TIP3    H1 6462   6.069   7.453   4.887 -1.4835 -0.1746  0.3903
 1860TIP3    H2 6463   6.021   7.495   4.750 -0.3575  0.0396  0.0506
 1861TIP3   OH2 6464   5.401   9.809   8.111  0.6661 -0.2528 -0.3917
 1861TIP3    H1 6465   5.471   9.860   8.152  0.5885 -0.1259 -0.4189
 1861TIP3    H2 6466   5.412   9.824   8.017  0.8576 -0.5590 -0.4213
 1862TIP3   OH2 6467  10.116   5.256   8.739  0.8542 -0.2035 -0.1896
 1862TIP3    H1 6468  10.090   5.249   8.830 -2.4015  0.0661 -0.9829
 1862TIP3    H2 6469  10.143   5.347   8.727 -1.1654  0.4590 -0.0003
 1863TIP3   OH2 6470   7.667   3.954   3.369 -0.8170 -0.1926 -0.2483
 1863TIP3    H1 6471   7.593   3.994   3.323 -1.1272  1.0195  1.2406
 1863TIP3    H2 6472   7.630   3.922   3.451  0.3045  0.5341  0.5713
 1864TIP3   OH2 6473   4.457   0.586   2.004 -0.6338 -0.0476 -0.2211
 1864TIP3    H1 6474   4.373   0.577   1.957 -0.5715 -0.2581 -0.2957
 1864TIP3    H2 6475   4.495   0.666   1.970 -1.0620  0.3512  0.2188
 1865TIP3   OH2 6476   1.427   9.907  10.003 -0.2175 -0.1008 -0.2977
 1865TIP3    H1 6477   1.389   9.969   9.941 -1.3672 -1.0651 -0.5909
 1865TIP3    H2 6478   1.492   9.958  10.051  0.9827  0.5977 -2.5269
 1866TIP3   OH2 6479   0.240   9.496   0.597  0.3347  0.2247  0.0073
 1866TIP3    H1 6480   0.241   9.586   0.629 -3.4831 -0.1433  1.8149
 1866TIP3    H2 6481   0.239   9.443   0.677 -2.1087 -1.0810 -0.7774
 1867TIP3   OH2 6482   8.820   8.394   5.108  0.3903  0.0264  0.2909
 1867TIP3    H1 6483   8.880   8.411   5.036 -0.4127 -1.1215 -0.6755
 1867TIP3    H2 6484   8.743   8.448   5.089  0.5814  0.5291  0.8716
 1868TIP3   OH2 6485   4.553   6.919   9.725  0.6585 -0.1053 -0.2702
 1868TIP3    H1 6486   4.464   6.890   9.748  0.8427 -0.2217  0.3183
 1868TIP3    H2 6487   4.609   6.847   9.753  1.1726  0.9629  1.6377
 1869TIP3   OH2 6488   2.124   9.193   5.788 -0.0118 -0.2912  0.2248
 1869TIP3    H1 6489   2.140   9.141   5.866  1.3679 -1.5046 -0.7978
 1869TIP3    H2 6490   2.059   9.144   5.739  0.1654 -0.2738 -0.0305
 1870TIP3   OH2 6491   4.601   5.868   2.775 -0.0289 -0.4299 -0.7015
 1870TIP3    H1 6492   4.592   5.918   2.693  0.8969  0.6384 -0.1707
 1870TIP3    H2 6493   4.633   5.783   2.747  1.9852  0.4735 -1.3530
 1871TIP3   OH2 6494   6.691   3.571   3.898  0.5472  0.1648 -0.0491
 1871TIP3    H1 6495   6.677   3.483   3.934  0.0614  0.2666  0.0221
 1871TIP3    H2 6496   6.664   3.564   3.807  0.7007  0.1892 -0.0959
 1872TIP3   OH2 6497   9.232   9.726   3.976  0.5010 -0.4162 -0.5534
 1872TIP3    H1 6498   9.148   9.737   4.020  0.8816 -1.9773  0.6605
 1872TIP3    H2 6499   9.216   9.658   3.911  0.8091 -0.6853 -0.3513
 1873TIP3   OH2 6500   3.964   3.348   6.448  0.1645  0.0670  0.0369
 1873TIP3    H1 6501   3.961   3.341   6.544 -0.6066  0.0328  0.0170
 1873TIP3    H2 6502   3.943   3.260   6.418  0.4572  0.0667 -0.1692
 1874TIP3   OH2 6503   9.361   0.269  10.437 -0.0613 -0.3001  0.3127
 1874TIP3    H1 6504   9.403   0.334  10.493  1.7036  0.3554 -1.6575
 1874TIP3    H2 6505   9.377   0.299  10.348 -0.1766 -2.8070 -0.6517
 1875TIP3   OH2 6506   8.086   4.881   1.789  0.3126 -0.2816 -0.4254
 1875TIP3    H1 6507   8.024   4.936   1.837  0.0248 -1.3946  0.5124
 1875TIP3    H2 6508   8.169   4.927   1.796 -0.0466  0.3457 -0.1917
 1876TIP3   OH2 6509   4.249   8.438   5.749  0.2703 -0.2193 -0.4456
 1876TIP3    H1 6510   4.173   8.411   5.698 -0.3825 -1.0091  0.8956
 1876TIP3    H2 6511   4.236   8.398   5.835  1.8207  0.2680  0.0509
 1877TIP3   OH2 6512   2.886   8.935   5.365  0.2661  0.0354  0.0003
 1877TIP3    H1 6513   2.957   8.997   5.349  1.0590 -1.0314 -0.7249
 1877TIP3    H2 6514   2.920   8.851   5.334 -0.1501 -1.1058  2.3851
 1878TIP3   OH2 6515   7.420   8.222   5.983 -0.1273  0.5066  0.0939
 1878TIP3    H1 6516   7.388   8.283   5.917 -1.1635  1.1177  1.1037
 1878TIP3    H2 6517   7.509   8.252   6.003  0.7846 -0.5754 -2.0141
 1879TIP3   OH2 6518   6.777   1.185  10.099 -0.4449  0.7533  0.1264
 1879TIP3    H1 6519   6.716   1.190  10.026  0.0309 -0.3492 -0.3771
 1879TIP3    H2 6520   6.743   1.114  10.154  1.2265 -1.0948 -1.0535
 1880TIP3   OH2 6521   5.450   7.786   3.324 -0.2156  0.2736 -0.0727
 1880TIP3    H1 6522   5.428   7.852   3.258  0.0721  1.9647  1.4262
 1880TIP3    H2 6523   5.540   7.807   3.350  0.7261 -2.1604 -1.1390
 1881TIP3   OH2 6524   8.887   8.102  10.083  0.1703 -0.4015 -0.4732
 1881TIP3    H1 6525   8.978   8.080  10.101 -0.0711 -1.8993 -0.9275
 1881TIP3    H2 6526   8.862   8.043  10.012 -1.0355  0.2826 -0.6382
 1882TIP3   OH2 6527   8.762   5.706   4.217 -0.0384 -0.7689  0.1814
 1882TIP3    H1 6528   8.764   5.666   4.130 -0.0774 -1.4229  0.4782
 1882TIP3    H2 6529   8.853   5.726   4.237 -0.0990 -0.0004 -0.2890
 1883TIP3   OH2 6530   9.532   5.373   6.826 -0.1101  0.6145 -0.1562
 1883TIP3    H1 6531   9.466   5.435   6.858  0.2165  0.7831  0.1977
 1883TIP3    H2 6532   9.481   5.306   6.779 -0.4596  1.1705 -0.5845
 1884TIP3   OH2 6533  10.213   8.299   0.504 -0.0755 -0.1553 -0.4308
 1884TIP3    H1 6534  10.119   8.311   0.521  0.1643  0.1540  0.8145
 1884TIP3    H2 6535  10.254   8.372   0.551  0.7581  0.0405 -1.4399
 1885TIP3   OH2 6536   3.157   8.514   1.064  0.2213  0.4780  0.5357
 1885TIP3    H1 6537   3.139   8.514   0.970 -2.2944 -1.5282  0.8955
 1885TIP3    H2 6538   3.154   8.606   1.089 -0.5677  0.9527 -1.1179
 1886TIP3   OH2 6539   5.328   3.273   6.537 -0.8341 -0.9406  0.3735
 1886TIP3    H1 6540   5.266   3.297   6.469 -0.6806 -1.6058 -0.0080
 1886TIP3    H2 6541   5.303   3.326   6.613 -1.4681 -0.7479  0.0294
 1887TIP3   OH2 6542   8.056   5.525   5.766 -0.5911  0.4932  0.0869
 1887TIP3    H1 6543   8.127   5.510   5.705 -0.7765 -0.7888  0.1655
 1887TIP3    H2 6544   8.000   5.590   5.722  1.0534  2.2372  0.4239
 1888TIP3   OH2 6545   8.618   4.155   5.540 -0.0060 -0.5517 -0.2771
 1888TIP3    H1 6546   8.636   4.073   5.584 -1.1941 -0.6539  0.0676
 1888TIP3    H2 6547   8.641   4.140   5.448 -1.6632 -1.8070 -0.5342
 1889TIP3   OH2 6548   7.323   5.223   3.189  0.5275 -0.1650  0.8113
 1889TIP3    H1 6549   7.249   5.191   3.241  0.4893 -0.9957  0.2711
 1889TIP3    H2 6550   7.373   5.144   3.168  0.6545  0.1816 -0.2348
 1890TIP3   OH2 6551   5.726  10.497  10.736  0.1445 -0.2859  0.2244
 1890TIP3    H1 6552   5.679  10.437  10.677  0.4273  0.0322 -0.3260
 1890TIP3    H2 6553   5.677  10.492  10.819 -0.7196 -0.1498 -0.2647
 1891TIP3   OH2 6554   0.688   5.852   2.907  0.2603 -0.6360 -0.4765
 1891TIP3    H1 6555   0.695   5.789   2.979 -1.7896 -2.0225 -1.3979
 1891TIP3    H2 6556   0.779   5.874   2.887  0.9357  0.3250  2.8916
 1892TIP3   OH2 6557  10.186   6.412   9.239  0.0603  0.1624  0.6194
 1892TIP3    H1 6558  10.213   6.503   9.249  0.1055  0.3910 -1.2468
 1892TIP3    H2 6559  10.091   6.415   9.229 -0.1403 -0.1757  2.2126
 1893TIP3   OH2 6560   0.582   5.750   0.856 -0.1777  0.0282 -0.4368
 1893TIP3    H1 6561   0.557   5.793   0.938  2.3894 -0.3260  0.6271
 1893TIP3    H2 6562   0.626   5.818   0.806 -0.3208 -0.1723 -0.8391
 1894TIP3   OH2 6563   9.030   3.440   5.189  0.3395 -0.0711  0.5558
 1894TIP3    H1 6564   9.027   3.403   5.277  0.0175 -0.5043  0.3676
 1894TIP3    H2 6565   8.982   3.377   5.135 -0.8591  0.9841  0.3453
 1895TIP3   OH2 6566   3.501   5.326   8.882  0.7083 -0.0506  0.7186
 1895TIP3    H1 6567   3.534   5.241   8.853  0.2507 -0.0371  0.1519
 1895TIP3    H2 6568   3.408   5.312   8.899  0.7269  0.2276  1.0680
 1896TIP3   OH2 6569   5.975   6.165   0.247  0.1039  0.1812  0.3696
 1896TIP3    H1 6570   5.935   6.248   0.221  0.9859  1.4296  2.6759
 1896TIP3    H2 6571   5.914   6.129   0.312  1.1187  0.5245  1.5434
 1897TIP3   OH2 6572   8.393   2.455   3.744  0.1520  0.8721 -0.4036
 1897TIP3    H1 6573   8.476   2.497   3.764  0.8333 -0.5802 -0.0893
 1897TIP3    H2 6574   8.381   2.389   3.812  0.0037 -0.6728 -1.8403
 1898TIP3   OH2 6575   1.897   8.251   1.038 -0.4514 -0.5265  0.3012
 1898TIP3    H1 6576   1.889   8.256   0.943 -1.8547 -0.9232  0.3689
 1898TIP3    H2 6577   1.943   8.169   1.054 -1.3322 -1.1006 -0.0211
 1899TIP3   OH2 6578   9.769   6.000  10.572  0.7835  0.6993 -0.3343
 1899TIP3    H1 6579   9.736   6.076  10.619 -1.9847  1.0128 -2.5318
 1899TIP3    H2 6580   9.730   5.925  10.617 -0.2603  0.8861 -0.8997
 1900TIP3   OH2 6581   9.989   7.483   2.141 -0.1715  0.1462  0.2508
 1900TIP3    H1 6582  10.047   7.559   2.140 -1.3875  1.1058  0.6049
 1900TIP3    H2 6583  10.027   7.425   2.207  0.9430  0.2821 -0.2410
 1901TIP3   OH2 6584  10.377   4.310   1.438  0.0751  0.5408 -0.0057
 1901TIP3    H1 6585  10.369   4.357   1.521 -0.4939  0.5054 -0.0374
 1901TIP3    H2 6586  10.469   4.320   1.414  0.8644 -1.5732  1.8709
 1902TIP3   OH2 6587   6.252   2.325   1.243  0.3927 -0.7048 -0.2476
 1902TIP3    H1 6588   6.170   2.371   1.259 -0.0064 -1.6415  0.4991
 1902TIP3    H2 6589   6.320   2.387   1.269 -0.0239  0.4584 -1.8390
 1903TIP3   OH2 6590   3.192   8.726   1.734 -0.0410  0.2763  0.0925
 1903TIP3    H1 6591   3.109   8.682   1.716 -0.2172  0.0505  1.3538
 1903TIP3    H2 6592   3.178   8.817   1.707 -1.0289  0.4561  1.1055
 1904TIP3   OH2 6593   6.434   5.741   5.134 -1.0101  0.1962 -0.0185
 1904TIP3    H1 6594   6.497   5.680   5.097 -2.5953 -1.9687  0.6670
 1904TIP3    H2 6595   6.370   5.756   5.064 -1.5273 -0.2888  0.3374
 1905TIP3   OH2 6596   4.632   2.355   8.488  0.5498  0.3645 -0.1319
 1905TIP3    H1 6597   4.708   2.378   8.542  0.1534  0.4260  0.4064
 1905TIP3    H2 6598   4.630   2.259   8.490 -0.1178  0.3951  0.8865
 1906TIP3   OH2 6599  10.236   8.057   5.964  0.0208 -0.2389 -0.1500
 1906TIP3    H1 6600  10.278   8.142   5.953 -0.0272 -0.3678 -1.4997
 1906TIP3    H2 6601  10.306   7.993   5.957  0.1300 -0.3204  1.3324
 1907TIP3   OH2 6602   0.774   3.313   3.777 -0.6915  0.2538 -0.1007
 1907TIP3    H1 6603   0.820   3.383   3.824  0.7846  0.0475 -1.1839
 1907TIP3    H2 6604   0.704   3.359   3.730  0.0783  0.9695 -0.5703
 1908TIP3   OH2 6605   8.281   6.109   7.323 -0.5484 -0.5023  0.1787
 1908TIP3    H1 6606   8.344   6.181   7.328  1.1120 -1.8484 -0.5388
 1908TIP3    H2 6607   8.320   6.039   7.375  0.2144 -2.5250 -2.8959
 1909TIP3   OH2 6608   6.068   6.238   4.956  0.0186  0.3317  0.4705
 1909TIP3    H1 6609   6.105   6.308   5.009 -0.0134  1.0996 -0.5087
 1909TIP3    H2 6610   6.042   6.171   5.020  0.0113  1.2170  1.4121
 1910TIP3   OH2 6611   0.697   3.991  10.748  0.2710  0.1855 -0.1391
 1910TIP3    H1 6612   0.701   3.909  10.796  1.3991 -0.9023 -1.9477
 1910TIP3    H2 6613   0.648   4.050  10.805  1.5023 -0.9832  2.2894
 1911TIP3   OH2 6614   0.279  10.159   0.443 -0.6884 -0.0385  0.6877
 1911TIP3    H1 6615   0.309  10.188   0.357 -1.2294 -1.3073  0.0416
 1911TIP3    H2 6616   0.301  10.231   0.502 -1.4420  1.4096 -0.7170
 1912TIP3   OH2 6617   2.962   7.452   1.030  0.3370 -0.1111 -0.1889
 1912TIP3    H1 6618   2.885   7.499   1.064 -0.0476 -0.4453 -0.5894
 1912TIP3    H2 6619   3.023   7.522   1.005 -0.1633  0.1838 -0.6230
 1913TIP3   OH2 6620  10.649   2.278   7.278  0.0144  0.0407 -0.2548
 1913TIP3    H1 6621  10.682   2.357   7.236  1.3454 -0.5767 -0.4435
 1913TIP3    H2 6622  10.567   2.259   7.232 -1.2623  2.2415  0.9646
 1914TIP3   OH2 6623   1.324   6.874   9.697 -0.8893 -0.1325 -0.7576
 1914TIP3    H1 6624   1.283   6.810   9.638  1.2661  0.2617 -2.8136
 1914TIP3    H2 6625   1.265   6.950   9.693 -2.0601 -0.9936 -0.4166
 1915TIP3   OH2 6626   5.646   3.969  10.308 -0.2009 -0.5910  0.4824
 1915TIP3    H1 6627   5.586   4.032  10.348  1.1834  0.5020  0.9301
 1915TIP3    H2 6628   5.590   3.912  10.255 -1.5554  0.7210  0.4443
 1916TIP3   OH2 6629   6.612   7.654   8.961  0.8753  0.1471  0.5487
 1916TIP3    H1 6630   6.565   7.619   8.885  2.4555 -0.2828 -0.2591
 1916TIP3    H2 6631   6.657   7.578   8.998  2.1560  0.8056  0.3854
 1917TIP3   OH2 6632   1.751   3.799   1.870 -0.7587 -0.2565  0.2149
 1917TIP3    H1 6633   1.779   3.735   1.805  0.7965  0.2932  0.2833
 1917TIP3    H2 6634   1.656   3.805   1.859 -0.6971 -1.1646 -1.0702
 1918TIP3   OH2 6635   5.379   8.500   4.569 -0.1342  0.2909  0.4952
 1918TIP3    H1 6636   5.399   8.416   4.528 -1.2245  0.1817  0.1584
 1918TIP3    H2 6637   5.361   8.478   4.660 -1.6674 -0.0442  0.1394
 1919TIP3   OH2 6638   8.446   7.059   7.798 -0.0663  0.4951 -0.2541
 1919TIP3    H1 6639   8.433   7.127   7.733  0.4855  0.5460 -0.3179
 1919TIP3    H2 6640   8.538   7.033   7.788 -0.1685  0.0046  0.0189
 1920TIP3   OH2 6641  10.153   2.968   5.026 -0.0546  0.1800  0.4605
 1920TIP3    H1 6642  10.150   3.012   5.111 -0.2863 -0.3961  0.7507
 1920TIP3    H2 6643  10.241   2.988   4.993 -0.3435  1.3314  0.3252
 1921TIP3   OH2 6644   3.311   0.253   0.942  0.0131  0.3580  0.0555
 1921TIP3    H1 6645   3.227   0.224   0.977  0.2353  1.0704  1.2262
 1921TIP3    H2 6646   3.301   0.348   0.932  0.2145  0.2728 -1.1429
 1922TIP3   OH2 6647   6.635   7.372   3.458  0.2388 -0.3205 -0.0223
 1922TIP3    H1 6648   6.637   7.277   3.473 -0.0814 -0.5776 -1.3940
 1922TIP3    H2 6649   6.727   7.399   3.462  0.2961 -0.6284  0.7392
 1923TIP3   OH2 6650   6.424   8.683   8.320  0.1365 -0.5849  0.3225
 1923TIP3    H1 6651   6.474   8.762   8.340  0.5396 -0.8542  0.3774
 1923TIP3    H2 6652   6.454   8.657   8.233 -0.1649 -0.5488  0.2063
 1924TIP3   OH2 6653   6.360   8.814   1.621  0.5175  0.0011  0.3856
 1924TIP3    H1 6654   6.314   8.836   1.702  0.6988 -0.0831  0.5133
 1924TIP3    H2 6655   6.429   8.753   1.649 -0.2093 -1.0286 -0.0065
 1925TIP3   OH2 6656   9.349   3.223   2.445  0.1864  0.1337 -0.0174
 1925TIP3    H1 6657   9.316   3.286   2.381 -0.0154 -0.1820 -0.2267
 1925TIP3    H2 6658   9.296   3.238   2.523 -0.2941 -0.2081 -0.2750
 1926TIP3   OH2 6659   5.737   2.684   8.746  0.0564  0.5149  0.1172
 1926TIP3    H1 6660   5.832   2.692   8.739 -0.0936  1.3418 -1.5227
 1926TIP3    H2 6661   5.704   2.721   8.664 -1.6496 -0.4898  0.3027
 1927TIP3   OH2 6662   9.821   0.496  10.344 -0.2121 -0.4532 -0.2297
 1927TIP3    H1 6663   9.741   0.514  10.394  0.7922 -1.2402  1.7926
 1927TIP3    H2 6664   9.892   0.509  10.407  1.3336  0.7784 -2.1133
 1928TIP3   OH2 6665   0.609  10.227   9.884  0.3043 -0.0541  0.3588
 1928TIP3    H1 6666   0.579  10.170   9.813  0.8491  0.3919 -0.2363
 1928TIP3    H2 6667   0.684  10.274   9.848 -0.8557  1.9437  0.4277
 1929TIP3   OH2 6668   1.463   6.310   1.529 -0.2098 -0.6035 -0.8881
 1929TIP3    H1 6669   1.498   6.397   1.550 -0.1324 -0.6643 -0.7610
 1929TIP3    H2 6670   1.541   6.253   1.526 -0.3222 -0.8044 -0.2781
 1930TIP3   OH2 6671   3.309   7.273   9.503  0.1250 -0.0716  0.4207
 1930TIP3    H1 6672   3.276   7.183   9.497 -0.4911  0.1783 -0.0362
 1930TIP3    H2 6673   3.257   7.312   9.574  1.0300 -0.3323  1.2513
 1931TIP3   OH2 6674   4.755   2.773   1.979  0.0850  0.4625 -0.1919
 1931TIP3    H1 6675   4.661   2.752   1.978  0.0390  0.6465  0.0484
 1931TIP3    H2 6676   4.782   2.766   1.888  0.0678 -0.6280 -0.1271
 1932TIP3   OH2 6677   0.137  10.907   3.288  0.1649 -0.0386  0.1385
 1932TIP3    H1 6678   0.045  10.925   3.303 -0.2531 -2.1128  0.3600
 1932TIP3    H2 6679   0.156  10.829   3.341  2.0595  0.3749  0.1606
 1933TIP3   OH2 6680   7.275   8.792   9.530 -0.3431  0.2673 -0.3106
 1933TIP3    H1 6681   7.320   8.843   9.598 -1.1216  0.1432  0.3145
 1933TIP3    H2 6682   7.335   8.794   9.455 -0.1814  1.7630 -0.1698
 1934TIP3   OH2 6683   5.465   8.615   2.133  0.0935 -0.8853 -0.0813
 1934TIP3    H1 6684   5.429   8.545   2.188 -0.2634 -0.4924  0.1910
 1934TIP3    H2 6685   5.558   8.618   2.156 -0.1017 -0.5452  0.7111
 1935TIP3   OH2 6686   2.252   8.031   2.841 -0.2311  0.0457 -0.6135
 1935TIP3    H1 6687   2.348   8.034   2.831 -0.3229 -0.2174 -1.6687
 1935TIP3    H2 6688   2.236   8.069   2.928  0.8752 -0.5533 -0.1187
 1936TIP3   OH2 6689   1.713  10.236   9.187  0.0977  0.0662  0.5939
 1936TIP3    H1 6690   1.717  10.142   9.171 -2.1295 -0.2691  1.6607
 1936TIP3    H2 6691   1.681  10.273   9.105  2.8787  0.2241 -0.5348
 1937TIP3   OH2 6692   6.535  10.542   5.265  0.2743  0.6329 -0.4235
 1937TIP3    H1 6693   6.530  10.613   5.201  2.6712 -0.6401 -2.2129
 1937TIP3    H2 6694   6.582  10.579   5.339  0.6280  1.2062 -0.9255
 1938TIP3   OH2 6695   0.199   2.165   9.874 -0.2334  0.0971  0.3237
 1938TIP3    H1 6696   0.178   2.183   9.782 -0.2872 -1.9599 -0.1026
 1938TIP3    H2 6697   0.116   2.177   9.920 -1.0194 -1.9962 -0.4303
 1939TIP3   OH2 6698   8.891   9.965   2.384 -0.1017  0.5026  0.8458
 1939TIP3    H1 6699   8.938   9.903   2.440  0.4879  0.5125  0.3720
 1939TIP3    H2 6700   8.916   9.940   2.295 -0.8358  0.6449  0.5945
 1940TIP3   OH2 6701   0.148   5.472   9.098  0.7336  0.1801 -0.3374
 1940TIP3    H1 6702   0.202   5.392   9.100  0.7401  0.2031  1.3734
 1940TIP3    H2 6703   0.076   5.450   9.039  1.9296 -0.2767 -1.7125
 1941TIP3   OH2 6704   8.143   8.674   2.698  0.2758  0.0437  0.6014
 1941TIP3    H1 6705   8.202   8.744   2.667 -0.6130  0.8736  0.7479
 1941TIP3    H2 6706   8.168   8.660   2.789 -1.8816  2.7877  1.7777
 1942TIP3   OH2 6707   8.001  10.271   1.290  0.4700  0.0353  0.3257
 1942TIP3    H1 6708   7.953  10.338   1.241  1.0598 -0.6706 -1.2927
 1942TIP3    H2 6709   7.939  10.200   1.301 -0.1291  0.7613  1.9687
 1943TIP3   OH2 6710   9.152   0.739   3.402 -0.0169 -0.4158  0.1451
 1943TIP3    H1 6711   9.216   0.692   3.455  0.5692  2.3339  2.1004
 1943TIP3    H2 6712   9.091   0.671   3.372  2.2455 -2.7468  0.4222
 1944TIP3   OH2 6713   3.814   2.206   8.253 -0.7246  0.1438 -0.1515
 1944TIP3    H1 6714   3.861   2.230   8.333 -0.3222 -1.3658  0.0848
 1944TIP3    H2 6715   3.733   2.257   8.257 -0.3227  0.7433  0.7695
 1945TIP3   OH2 6716   6.167   4.116   2.795  0.4023  0.6556 -0.8344
 1945TIP3    H1 6717   6.229   4.090   2.727  1.1726 -1.3480  0.5629
 1945TIP3    H2 6718   6.088   4.064   2.777  0.5744  0.1916 -0.2712
 1946TIP3   OH2 6719   4.082   9.586   2.443 -0.4278  0.6592  0.0913
 1946TIP3    H1 6720   4.102   9.549   2.528 -1.5341  0.1838  0.1716
 1946TIP3    H2 6721   4.120   9.525   2.380 -0.3614  0.5500  0.2389
 1947TIP3   OH2 6722   6.042   5.053   2.297 -0.5402 -0.4843  0.2711
 1947TIP3    H1 6723   6.116   5.001   2.327 -1.1156 -1.5431 -0.0761
 1947TIP3    H2 6724   6.071   5.088   2.212  0.4066  1.0338  1.1762
 1948TIP3   OH2 6725   4.936   7.487  10.857  0.0104 -0.3079 -0.2633
 1948TIP3    H1 6726   4.942   7.445  10.943 -0.6040 -0.7146 -0.4081
 1948TIP3    H2 6727   5.020   7.469  10.815  0.0923 -0.6158  0.0318
 1949TIP3   OH2 6728   3.032   1.664   3.426 -0.4797  0.3265  0.1361
 1949TIP3    H1 6729   3.092   1.606   3.380 -0.9125 -0.1356  0.1528
 1949TIP3    H2 6730   3.018   1.622   3.511 -0.5966  0.5817  0.2450
 1950TIP3   OH2 6731   5.177   3.734  10.727 -0.1192  0.7457  0.0441
 1950TIP3    H1 6732   5.175   3.796  10.654 -1.1506 -0.6094 -1.1189
 1950TIP3    H2 6733   5.088   3.701  10.733  0.6838 -1.7193 -0.3489
 1951TIP3   OH2 6734   3.438  10.657   6.583  0.1975  0.2501  0.3304
 1951TIP3    H1 6735   3.426  10.725   6.648 -0.3309  0.5098 -0.0285
 1951TIP3    H2 6736   3.471  10.703   6.506  0.2225  0.0450  0.2184
 1952TIP3   OH2 6737   4.201   3.705   7.748  0.2509  0.2243 -0.2569
 1952TIP3    H1 6738   4.111   3.733   7.729  0.1754  0.5184  0.4997
 1952TIP3    H2 6739   4.199   3.610   7.737  0.5531  0.4517 -3.0457
 1953TIP3   OH2 6740   3.673   4.091   9.236 -0.0759  0.0255 -0.0986
 1953TIP3    H1 6741   3.613   4.165   9.239 -1.2796 -0.8574 -1.2748
 1953TIP3    H2 6742   3.725   4.099   9.315  0.5940  2.7382 -0.7219
 1954TIP3   OH2 6743   9.506  10.234   4.029 -0.0697  0.2153 -0.1027
 1954TIP3    H1 6744   9.435  10.190   3.982 -0.0428 -0.0020  0.0584
 1954TIP3    H2 6745   9.575  10.167   4.036  0.0119  0.3167  0.0528
 1955TIP3   OH2 6746  10.899   2.904   7.108 -0.5807  0.3967  0.4664
 1955TIP3    H1 6747  10.984   2.948   7.108 -0.7790  0.7961  1.5777
 1955TIP3    H2 6748  10.891   2.867   7.196 -0.9074 -0.9264 -0.0937
 1956TIP3   OH2 6749   0.954   3.379   0.859 -0.0356 -0.5674 -0.5413
 1956TIP3    H1 6750   0.982   3.415   0.943  0.0151 -1.1586 -0.2981
 1956TIP3    H2 6751   0.985   3.443   0.794  1.0824 -0.7493 -0.2109
 1957TIP3   OH2 6752   6.939   0.723   6.886 -0.5960 -0.6059 -0.0833
 1957TIP3    H1 6753   6.968   0.642   6.844  1.9039  0.3993 -0.5086
 1957TIP3    H2 6754   7.002   0.788   6.857 -1.5066  1.1385  1.6258
 1958TIP3   OH2 6755   1.801   2.912   5.095  0.7042  0.0505 -0.1437
 1958TIP3    H1 6756   1.873   2.927   5.156 -1.8060  1.7215  2.7251
 1958TIP3    H2 6757   1.830   2.952   5.013  3.3501 -0.1459  0.6142
 1959TIP3   OH2 6758   9.838   8.954   2.918  0.5121 -0.3941 -0.0696
 1959TIP3    H1 6759   9.929   8.945   2.946  1.0436  0.2337 -1.4903
 1959TIP3    H2 6760   9.789   8.898   2.978  1.8113 -0.6330  0.8147
 1960TIP3   OH2 6761   6.354   1.333   7.295  0.0027 -0.1836 -0.5351
 1960TIP3    H1 6762   6.263   1.348   7.320 -1.1607 -3.9201 -1.8111
 1960TIP3    H2 6763   6.391   1.285   7.369  0.3382 -0.4079 -0.8476
 1961TIP3   OH2 6764   9.660   4.946   1.528 -0.1973 -0.1283 -0.4758
 1961TIP3    H1 6765   9.735   5.004   1.518  0.8105 -1.4128 -0.6426
 1961TIP3    H2 6766   9.601   4.992   1.587  0.6471  0.9787 -0.4752
 1962TIP3   OH2 6767   9.081   1.537   0.304  0.1210 -0.0954 -0.1203
 1962TIP3    H1 6768   9.151   1.487   0.346 -0.1090 -2.8096 -2.6305
 1962TIP3    H2 6769   9.122   1.621   0.283  1.8596 -0.6973  0.6200
 1963TIP3   OH2 6770   7.983   9.808   2.850  0.1092 -0.6553  0.0448
 1963TIP3    H1 6771   7.921   9.737   2.862 -0.2520 -0.5112 -0.8763
 1963TIP3    H2 6772   8.017   9.796   2.761  2.1786 -1.3319  0.8625
 1964TIP3   OH2 6773   7.079   6.623   6.858  0.2975 -0.5474  0.0118
 1964TIP3    H1 6774   7.174   6.630   6.867  0.3436 -0.7345 -0.3008
 1964TIP3    H2 6775   7.063   6.640   6.765  0.0211 -0.4754  0.0720
 1965TIP3   OH2 6776   5.539   0.393   6.053 -0.6954  0.3982  0.2730
 1965TIP3    H1 6777   5.609   0.414   6.114  0.7316 -0.4996 -0.9707
 1965TIP3    H2 6778   5.479   0.338   6.103  0.7500 -0.8311  0.7655
 1966TIP3   OH2 6779   6.082   2.613   8.437 -0.6080  0.0501 -0.7284
 1966TIP3    H1 6780   6.119   2.581   8.355  0.0051  1.3894 -0.9983
 1966TIP3    H2 6781   5.998   2.652   8.413 -1.1363 -0.9131 -0.4737
 1967TIP3   OH2 6782  10.249   9.473   7.679  0.1268 -0.6592  0.2851
 1967TIP3    H1 6783  10.157   9.501   7.679  0.1404 -0.6001 -0.0313
 1967TIP3    H2 6784  10.292   9.533   7.618  0.7393  0.4363  1.7329
 1968TIP3   OH2 6785   3.193   4.334   3.244 -0.5634  0.0839  0.7253
 1968TIP3    H1 6786   3.165   4.348   3.154 -1.1744  1.0173  1.0392
 1968TIP3    H2 6787   3.167   4.414   3.290  1.1375  0.3003  1.4034
 1969TIP3   OH2 6788   6.886   0.330   7.172  0.3722  0.2169 -0.0941
 1969TIP3    H1 6789   6.822   0.262   7.194  0.4089  0.3902  0.5572
 1969TIP3    H2 6790   6.853   0.368   7.090  0.7231 -1.0392 -0.8354
 1970TIP3   OH2 6791   0.537   7.959   2.738 -0.6978  0.2410 -0.4833
 1970TIP3    H1 6792   0.539   7.880   2.683  2.3322  0.9026 -1.5425
 1970TIP3    H2 6793   0.468   8.013   2.700 -0.7229 -0.6031 -1.7165
 1971TIP3   OH2 6794   3.561   8.464   3.460  0.0365 -0.1366 -0.2093
 1971TIP3    H1 6795   3.494   8.427   3.517 -0.8252  1.7481  0.0738
 1971TIP3    H2 6796   3.612   8.388   3.432 -1.4018 -1.4817  0.5985
 1972TIP3   OH2 6797   7.109   1.731   8.462  0.5643 -0.3722  0.3551
 1972TIP3    H1 6798   7.088   1.679   8.540 -0.2511 -1.3176 -0.4641
 1972TIP3    H2 6799   7.082   1.676   8.388 -1.8167  1.7949 -0.5375
 1973TIP3   OH2 6800  10.545   7.176   2.240  0.5412  0.4124 -0.1090
 1973TIP3    H1 6801  10.527   7.269   2.224 -0.2830  0.8763  2.8684
 1973TIP3    H2 6802  10.584   7.174   2.327 -1.5058 -2.1883  0.8894
 1974TIP3   OH2 6803   6.101   5.504   8.165 -0.1294 -0.1914  0.0540
 1974TIP3    H1 6804   6.011   5.523   8.142 -0.8526  0.1081  2.7814
 1974TIP3    H2 6805   6.111   5.539   8.254  2.3907 -1.0369  0.1821
 1975TIP3   OH2 6806   6.730   4.161   8.967 -0.4168  0.1760  0.1762
 1975TIP3    H1 6807   6.822   4.184   8.981  0.1188  0.1346 -2.7602
 1975TIP3    H2 6808   6.729   4.065   8.965 -0.7475  0.1386  1.1957
 1976TIP3   OH2 6809   1.767   0.504   5.071 -0.1087 -0.5361  0.0692
 1976TIP3    H1 6810   1.773   0.523   5.165  1.2268 -1.8690  0.2867
 1976TIP3    H2 6811   1.673   0.487   5.057 -0.5698  1.1541  0.8226
 1977TIP3   OH2 6812   9.314   7.567   9.672  0.2306 -0.1555 -0.3932
 1977TIP3    H1 6813   9.230   7.589   9.712  1.6521  2.3651  1.4954
 1977TIP3    H2 6814   9.305   7.594   9.581 -0.5412  1.6215  0.1743
 1978TIP3   OH2 6815   2.798   4.111   5.563  1.3639  0.1153  0.4794
 1978TIP3    H1 6816   2.708   4.085   5.542  1.1219  0.2776  1.2772
 1978TIP3    H2 6817   2.811   4.081   5.653  2.6435 -1.3049 -0.1331
 1979TIP3   OH2 6818   8.516   3.571   1.016 -0.4053  0.0636  0.5204
 1979TIP3    H1 6819   8.540   3.619   1.095 -2.1374 -0.8367  1.6686
 1979TIP3    H2 6820   8.425   3.544   1.031 -0.1683 -1.7891 -0.9469
 1980TIP3   OH2 6821   4.372   3.676   2.884 -0.8626 -0.0857 -0.0572
 1980TIP3    H1 6822   4.380   3.596   2.833 -1.1250  0.1590 -0.4960
 1980TIP3    H2 6823   4.348   3.743   2.820 -0.1540  0.4513  0.2181
 1981TIP3   OH2 6824   3.776   3.006   6.647  0.1733  0.1815 -0.3202
 1981TIP3    H1 6825   3.864   2.975   6.668  0.0640  0.2803  0.3001
 1981TIP3    H2 6826   3.743   3.044   6.728 -0.6312 -0.2930 -0.4095
 1982TIP3   OH2 6827   6.632   4.685   2.318 -0.5703 -0.0243  0.1993
 1982TIP3    H1 6828   6.721   4.677   2.284 -0.7600 -0.9694 -0.0880
 1982TIP3    H2 6829   6.643   4.729   2.403  0.1665 -0.1544  0.1739
 1983TIP3   OH2 6830   6.762   6.598   6.267  0.0154 -0.1943  0.0152
 1983TIP3    H1 6831   6.762   6.587   6.362 -1.0995 -0.0288  0.0528
 1983TIP3    H2 6832   6.706   6.527   6.234 -0.7537  0.5756 -0.3865
 1984TIP3   OH2 6833   2.111   1.882   7.900  0.8811  0.0493  0.0750
 1984TIP3    H1 6834   2.194   1.863   7.856  0.8756 -0.9630  0.4604
 1984TIP3    H2 6835   2.124   1.968   7.939  2.0408 -0.3971  0.7385
 1985TIP3   OH2 6836  10.048   7.060   7.369  0.3218  0.7516 -0.3492
 1985TIP3    H1 6837  10.006   7.127   7.316 -0.0227  0.8228  0.0123
 1985TIP3    H2 6838   9.976   7.013   7.411  0.5080 -0.5639 -1.4557
 1986TIP3   OH2 6839   5.482   5.877   5.129  0.0885 -0.8291  0.3693
 1986TIP3    H1 6840   5.577   5.872   5.126  0.1578  0.3490  0.0172
 1986TIP3    H2 6841   5.461   5.898   5.220  0.3898  2.0134 -0.1338
 1987TIP3   OH2 6842   2.972   0.198   7.989 -0.2240  0.3755 -0.4980
 1987TIP3    H1 6843   2.988   0.105   7.975  0.1305  0.5685 -1.5234
 1987TIP3    H2 6844   3.047   0.241   7.947 -0.6883  1.1360 -0.5674
 1988TIP3   OH2 6845  10.449  10.192   3.714 -0.1361 -1.0713 -0.2518
 1988TIP3    H1 6846  10.498  10.274   3.718  2.2427 -2.3975 -0.3636
 1988TIP3    H2 6847  10.446  10.169   3.621 -0.0929 -1.5081 -0.1489
 1989TIP3   OH2 6848   9.602   1.428   8.417  0.5096  0.1382 -0.2741
 1989TIP3    H1 6849   9.561   1.381   8.490 -0.2409 -1.6226 -1.7550
 1989TIP3    H2 6850   9.529   1.454   8.361  1.1189  0.9257 -0.7278
 1990TIP3   OH2 6851   5.686   5.241   8.674 -0.4209 -0.0532 -0.4398
 1990TIP3    H1 6852   5.727   5.232   8.588  0.3004 -0.6067 -0.0427
 1990TIP3    H2 6853   5.655   5.332   8.675 -1.2432 -0.2939 -1.6264
 1991TIP3   OH2 6854   0.057   4.005   8.251  0.1489  0.5112 -0.2558
 1991TIP3    H1 6855   0.042   3.959   8.334  1.4362 -0.6365 -0.6160
 1991TIP3    H2 6856   0.063   3.935   8.186  1.5749  1.2063 -0.9208
 1992TIP3   OH2 6857   5.043   8.967   4.439  0.7833  0.0675  0.2602
 1992TIP3    H1 6858   4.975   9.016   4.393  0.4306  1.4279  2.1076
 1992TIP3    H2 6859   5.019   8.875   4.426  0.0672  0.4465 -1.2599
 1993TIP3   OH2 6860   4.666   6.682   9.786 -0.4552  0.2821 -0.2610
 1993TIP3    H1 6861   4.723   6.692   9.862 -0.1828  1.6080 -0.6069
 1993TIP3    H2 6862   4.692   6.599   9.747 -0.1157 -0.0746  0.6926
 1994TIP3   OH2 6863   6.534   5.404   0.716  0.1451 -0.0825  0.1238
 1994TIP3    H1 6864   6.576   5.374   0.635  0.9720 -2.3792  1.3179
 1994TIP3    H2 6865   6.583   5.483   0.740 -0.0577  0.5879 -1.5236
 1995TIP3   OH2 6866   3.969   0.167  10.233 -0.3957  0.0504  0.2592
 1995TIP3    H1 6867   3.900   0.122  10.186  0.8543 -1.4049 -0.2546
 1995TIP3    H2 6868   3.949   0.151  10.326  1.0969 -3.4898  0.1351
 1996TIP3   OH2 6869  10.505   8.021   3.042  0.1103 -0.6751 -0.1828
 1996TIP3    H1 6870  10.518   8.040   3.135  0.8612 -2.5891  0.1480
 1996TIP3    H2 6871  10.411   8.034   3.029  0.2244  1.0589  0.4622
 1997TIP3   OH2 6872  10.032   0.598   8.537 -0.3037 -0.3229 -0.1270
 1997TIP3    H1 6873  10.084   0.518   8.521 -0.5830 -0.5698  0.1923
 1997TIP3    H2 6874   9.963   0.570   8.597  0.6946  0.5717  1.5154
 1998TIP3   OH2 6875   4.940   4.970   5.099 -0.6803 -0.6857  0.1183
 1998TIP3    H1 6876   4.930   5.027   5.175 -0.2432 -1.6463  0.9169
 1998TIP3    H2 6877   4.853   4.966   5.060 -0.4889  1.4656 -0.6683
 1999TIP3   OH2 6878  10.353   6.325   9.028 -0.2023  0.2071 -0.1647
 1999TIP3    H1 6879  10.319   6.340   9.117  0.4672  1.2344 -0.0585
 1999TIP3    H2 6880  10.442   6.293   9.042  0.0570  0.7887 -0.4643
 2000TIP3   OH2 6881   1.045   6.184   2.171  0.2105 -0.9318 -0.5946
 2000TIP3    H1 6882   1.080   6.268   2.200  0.2254 -1.2475  0.3418
 2000TIP3    H2 6883   1.100   6.160   2.097 -0.7521  0.5837 -1.8429
 2001TIP3   OH2 6884   9.939   5.792   1.258  0.3979  0.2418 -0.6003
 2001TIP3    H1 6885   9.913   5.713   1.306  1.1753  0.8924  0.9895
 2001TIP3    H2 6886  10.034   5.782   1.247  0.2952  0.3248 -1.6230
 2002TIP3   OH2 6887   9.467   1.891   3.691  0.4625 -0.1184 -0.3327
 2002TIP3    H1 6888   9.520   1.955   3.643  0.9882  1.1542  1.8269
 2002TIP3    H2 6889   9.463   1.924   3.781 -1.1180 -1.9933  0.3811
 2003TIP3   OH2 6890   6.796   8.988  10.845 -0.2798  0.4921  0.2954
 2003TIP3    H1 6891   6.859   8.950  10.906 -1.3213  0.3800  1.3643
 2003TIP3    H2 6892   6.848   9.035  10.781  0.8553  1.0305  1.5771
 2004TIP3   OH2 6893   3.641   9.483   6.936 -0.0009  0.2660 -0.2868
 2004TIP3    H1 6894   3.621   9.393   6.962 -0.6372  0.4819 -0.0051
 2004TIP3    H2 6895   3.723   9.476   6.887 -0.3670 -0.5427 -0.8046
 2005TIP3   OH2 6896   5.060   9.254   0.569 -0.0033  0.0133 -0.4719
 2005TIP3    H1 6897   5.105   9.321   0.621 -0.6540 -1.8261  2.7226
 2005TIP3    H2 6898   5.130   9.194   0.542  0.2998  0.8328 -1.5854
 2006TIP3   OH2 6899   9.129  10.781   5.618  0.3987 -0.0394 -0.1107
 2006TIP3    H1 6900   9.056  10.773   5.679 -0.1174  2.9147 -0.2244
 2006TIP3    H2 6901   9.205  10.798   5.673  0.2795  0.6952 -0.1615
 2007TIP3   OH2 6902   1.974   5.586   6.519  0.5351  0.3493  0.8745
 2007TIP3    H1 6903   1.900   5.551   6.469  1.0952  0.8733 -0.3538
 2007TIP3    H2 6904   1.934   5.622   6.598 -0.5769  0.8631  0.1100
 2008TIP3   OH2 6905   9.817   0.356   6.335  0.2475 -0.3402 -0.7735
 2008TIP3    H1 6906   9.750   0.330   6.398  0.8751 -1.4174 -0.5251
 2008TIP3    H2 6907   9.856   0.273   6.306  1.1129  0.2373 -1.3001
 2009TIP3   OH2 6908  10.036   1.344   9.418 -0.0771  0.3008  0.3204
 2009TIP3    H1 6909  10.015   1.424   9.465 -0.3389  0.2565  0.2838
 2009TIP3    H2 6910   9.998   1.274   9.471 -1.8075  0.3697 -0.7538
 2010TIP3   OH2 6911   4.742   8.921   9.346  0.1063 -0.2977  0.4309
 2010TIP3    H1 6912   4.662   8.931   9.294  0.0053  0.6249  0.7448
 2010TIP3    H2 6913   4.813   8.937   9.284  0.0370 -0.7081  0.2435
 2011TIP3   OH2 6914   2.104   1.079   0.168 -0.1988  0.1832 -0.4012
 2011TIP3    H1 6915   2.089   0.993   0.129 -0.4360 -0.1380  0.3766
 2011TIP3    H2 6916   2.111   1.062   0.262 -2.4823  1.2827  0.0329
 2012TIP3   OH2 6917   5.540  10.599   2.020  0.2067 -0.3181 -0.1723
 2012TIP3    H1 6918   5.624  10.622   1.980 -0.5113 -1.0458 -2.2512
 2012TIP3    H2 6919   5.491  10.555   1.949 -1.0852 -1.9092  1.6089
 2013TIP3   OH2 6920   9.577   8.881   5.617 -0.2672 -0.2899 -0.1313
 2013TIP3    H1 6921   9.489   8.863   5.585 -1.3969  2.8077  0.9163
 2013TIP3    H2 6922   9.619   8.929   5.546 -0.5872  1.0786  0.5859
 2014TIP3   OH2 6923   1.634   9.091   4.620  0.3176 -0.1111 -0.2254
 2014TIP3    H1 6924   1.647   9.138   4.702 -0.0091  0.1092 -0.2972
 2014TIP3    H2 6925   1.717   9.100   4.574 -0.1992  1.7141 -0.9052
 2015TIP3   OH2 6926   8.070   9.461   2.541  0.1230 -0.0042 -0.1269
 2015TIP3    H1 6927   8.109   9.463   2.454  1.0665  1.9574  0.2801
 2015TIP3    H2 6928   8.128   9.405   2.592 -0.3295 -1.0091 -0.6970
 2016TIP3   OH2 6929   3.046   5.955   5.558  0.6154 -0.0752  0.2727
 2016TIP3    H1 6930   3.083   5.985   5.641  2.3565  0.3465 -0.6008
 2016TIP3    H2 6931   3.122   5.940   5.502 -0.4081 -2.2018 -0.6578
 2017TIP3   OH2 6932   2.597   6.298   0.459  0.1902 -0.5109 -0.1304
 2017TIP3    H1 6933   2.536   6.330   0.392 -0.7179 -1.2480  0.3265
 2017TIP3    H2 6934   2.679   6.345   0.441  0.0359 -0.8416 -1.8877
 2018TIP3   OH2 6935   8.886   0.017   1.591  0.3258  0.5933  0.1373
 2018TIP3    H1 6936   8.964   0.056   1.551 -0.2884  1.6709 -0.0650
 2018TIP3    H2 6937   8.883  -0.072   1.557  2.1686  0.1099  1.1529
 2019TIP3   OH2 6938   9.523   8.515   9.819  0.2049 -0.0338 -0.1875
 2019TIP3    H1 6939   9.558   8.512   9.730  2.1137  0.0527  0.5064
 2019TIP3    H2 6940   9.542   8.429   9.856 -1.5803 -0.4651 -0.1725
 2020TIP3   OH2 6941   3.798   7.756   5.236  0.0517  0.0074 -0.1791
 2020TIP3    H1 6942   3.782   7.798   5.320 -0.0426  0.7730 -0.5706
 2020TIP3    H2 6943   3.890   7.727   5.240 -0.3759 -1.3134  0.7477
 2021TIP3   OH2 6944   5.318   3.825   9.416  0.0393  0.0481 -0.1687
 2021TIP3    H1 6945   5.402   3.807   9.374 -0.7024  1.6637 -2.5328
 2021TIP3    H2 6946   5.271   3.741   9.413 -0.1520  0.1682 -3.1587
 2022TIP3   OH2 6947   4.387   2.011   5.484  0.0996  0.1859 -0.1898
 2022TIP3    H1 6948   4.450   2.067   5.439  0.3742 -0.9008 -1.1955
 2022TIP3    H2 6949   4.330   2.073   5.531  1.5263  1.2083  0.2693
 2023TIP3   OH2 6950   5.527   4.472   1.035 -0.6643 -0.3603  0.0984
 2023TIP3    H1 6951   5.605   4.459   1.088 -0.5935 -0.0265  0.0790
 2023TIP3    H2 6952   5.557   4.459   0.945 -0.3548  0.9479 -0.0067
 2024TIP3   OH2 6953   9.812   8.084   7.202 -0.2861  0.2804 -0.2364
 2024TIP3    H1 6954   9.900   8.104   7.234 -0.7782  0.4958  1.0522
 2024TIP3    H2 6955   9.762   8.164   7.218 -1.6626 -1.0207  2.6804
 2025TIP3   OH2 6956   3.343   1.241  10.767 -0.0349 -0.3663 -0.4158
 2025TIP3    H1 6957   3.347   1.283  10.853  2.8298 -1.1650 -0.0636
 2025TIP3    H2 6958   3.335   1.314  10.705  0.8853  0.4394  0.3787
 2026TIP3   OH2 6959   2.247   2.147  10.739 -0.2052  0.2389 -0.2240
 2026TIP3    H1 6960   2.198   2.066  10.745 -2.9801  1.8986  1.8427
 2026TIP3    H2 6961   2.299   2.149  10.820 -0.3509  0.6031 -0.1361
 2027TIP3   OH2 6962   4.492   5.093   3.282  0.4608 -0.5540  0.2434
 2027TIP3    H1 6963   4.587   5.090   3.272  0.8219  0.9687  2.5539
 2027TIP3    H2 6964   4.460   5.131   3.200  1.8466 -0.6857 -0.3886
 2028TIP3   OH2 6965  10.477   4.043   0.591  0.4929 -0.3583  0.5109
 2028TIP3    H1 6966  10.496   3.960   0.548  2.5927  0.6924 -0.8344
 2028TIP3    H2 6967  10.515   4.035   0.678 -0.9822 -1.4155  1.0884
 2029TIP3   OH2 6968   6.172   0.320  10.043  0.2592 -0.4815 -0.4936
 2029TIP3    H1 6969   6.121   0.261   9.987 -2.3036  1.0445  0.0297
 2029TIP3    H2 6970   6.109   0.351  10.108  1.5258  2.5690 -0.5576
 2030TIP3   OH2 6971   7.267   9.677   5.052  0.3588  0.1095  0.0714
 2030TIP3    H1 6972   7.318   9.596   5.054  0.9017  0.4315 -0.6748
 2030TIP3    H2 6973   7.194   9.660   5.113 -0.8303 -1.8045 -1.7484
 2031TIP3   OH2 6974   0.046   8.262   1.186 -0.4790 -0.0516 -0.0305
 2031TIP3    H1 6975   0.050   8.314   1.266 -1.4234  0.1767 -0.1166
 2031TIP3    H2 6976   0.092   8.181   1.207 -1.8157 -0.5225  1.1579
 2032TIP3   OH2 6977   4.291   0.274   5.354 -0.5713 -0.3067 -0.4020
 2032TIP3    H1 6978   4.377   0.236   5.334 -0.5904  0.1947 -1.4977
 2032TIP3    H2 6979   4.304   0.368   5.345 -1.2181 -0.2215 -0.4881
 2033TIP3   OH2 6980   3.923   8.602   8.689  0.0326 -0.0390  0.2345
 2033TIP3    H1 6981   3.965   8.669   8.635  2.1556 -1.7733 -0.4233
 2033TIP3    H2 6982   3.889   8.538   8.626 -1.5580  0.1267  0.8627
 2034TIP3   OH2 6983   1.755   8.658   9.022 -0.1290 -0.5024  0.7653
 2034TIP3    H1 6984   1.723   8.675   9.111 -0.3005  1.2796  0.4061
 2034TIP3    H2 6985   1.833   8.712   9.013 -0.8718  0.4217 -0.5930
 2035TIP3   OH2 6986   6.648   7.117  10.405 -0.0743  0.2420 -0.2301
 2035TIP3    H1 6987   6.739   7.115  10.435  0.1094 -1.7132 -0.7864
 2035TIP3    H2 6988   6.597   7.097  10.484  0.1879 -1.4251 -0.4443
 2036TIP3   OH2 6989   9.746   2.554   8.711  0.3405 -0.1705  0.4571
 2036TIP3    H1 6990   9.810   2.573   8.779  0.0244 -0.3814  0.8174
 2036TIP3    H2 6991   9.746   2.459   8.704  0.5248 -0.1391  0.0100
 2037TIP3   OH2 6992   2.903   5.814   3.847 -0.2332  0.2428 -0.2957
 2037TIP3    H1 6993   2.862   5.787   3.930  0.0009 -0.8762 -0.5252
 2037TIP3    H2 6994   2.994   5.832   3.870 -0.6740  2.2220  0.1132
 2038TIP3   OH2 6995   5.598   1.763   8.887 -0.1515 -0.1862 -0.1358
 2038TIP3    H1 6996   5.518   1.722   8.854  0.2609 -1.3490  0.2645
 2038TIP3    H2 6997   5.651   1.778   8.809 -0.4800 -0.0160 -0.3294
 2039TIP3   OH2 6998  10.888   1.775   8.001 -0.3043 -0.0695 -0.4240
 2039TIP3    H1 6999  10.920   1.839   8.064 -0.1616 -1.2047  0.6972
 2039TIP3    H2 7000  10.906   1.814   7.916 -2.1848  2.3541  0.1833
 2040TIP3   OH2 7001   3.417   6.748   6.699 -0.3398  0.0450 -0.5427
 2040TIP3    H1 7002   3.345   6.687   6.711 -0.2991  0.2548  0.8737
 2040TIP3    H2 7003   3.423   6.795   6.782  1.6904 -0.2372 -0.4905
 2041TIP3   OH2 7004   1.459   2.849   2.117  0.1976 -0.1297  0.4188
 2041TIP3    H1 7005   1.499   2.932   2.092 -0.4072  0.0073 -0.1330
 2041TIP3    H2 7006   1.369   2.873   2.142  0.2732 -0.5045  1.0649
 2042TIP3   OH2 7007   7.330   0.030   6.039 -0.1954 -0.0959 -0.0605
 2042TIP3    H1 7008   7.244   0.072   6.047 -0.4330 -0.2676 -1.4714
 2042TIP3    H2 7009   7.393   0.101   6.050 -0.5748  0.4561 -1.2865
 2043TIP3   OH2 7010   7.521   3.919   0.026  0.7314 -1.0271  0.1192
 2043TIP3    H1 7011   7.511   3.957  -0.062 -0.6948  1.4369  1.2270
 2043TIP3    H2 7012   7.609   3.944   0.053 -0.0497  1.4021  0.6785
 2044TIP3   OH2 7013   8.800   8.812   0.786  0.1088  0.0246 -0.5138
 2044TIP3    H1 7014   8.839   8.892   0.751 -0.6607  0.5143 -0.2610
 2044TIP3    H2 7015   8.843   8.741   0.736  2.0154  0.4631  0.4148
 2045TIP3   OH2 7016   8.695   9.558   7.044 -0.3896  0.2624 -0.3464
 2045TIP3    H1 7017   8.746   9.624   6.997 -1.0019  0.5572 -0.6093
 2045TIP3    H2 7018   8.701   9.479   6.990  0.4011  0.0756  0.0054
 2046TIP3   OH2 7019   1.657   5.466  10.706  0.0927  0.2526  0.0850
 2046TIP3    H1 7020   1.717   5.392  10.698 -1.3616 -1.0848  0.8086
 2046TIP3    H2 7021   1.572   5.425  10.726 -1.0202  2.0565 -0.6937
 2047TIP3   OH2 7022   2.370   4.975   2.659  0.1755 -0.0321  0.0895
 2047TIP3    H1 7023   2.308   5.045   2.639 -0.3332 -0.5821 -0.2878
 2047TIP3    H2 7024   2.402   4.997   2.747 -0.4670  0.3265  0.2467
 2048TIP3   OH2 7025   5.899   9.709   1.079 -0.2038 -0.3177  0.8820
 2048TIP3    H1 7026   5.907   9.804   1.079 -0.1841 -0.3202  0.4835
 2048TIP3    H2 7027   5.821   9.691   1.133 -0.7087 -0.0323  0.2627
 2049TIP3   OH2 7028   5.290   3.941   6.713  0.0192 -0.2484  0.6671
 2049TIP3    H1 7029   5.206   3.985   6.722 -0.0701  0.1509 -1.4707
 2049TIP3    H2 7030   5.344   4.003   6.663 -0.3647 -2.7023 -3.1934
 2050TIP3   OH2 7031   1.878   7.836   8.787  0.6887  0.2147  0.5265
 2050TIP3    H1 7032   1.790   7.813   8.757 -1.3210  2.4405  4.0167
 2050TIP3    H2 7033   1.924   7.861   8.707 -2.6341  1.2450 -1.2885
 2051TIP3   OH2 7034   0.581   1.583   5.942 -0.2185 -0.2374 -0.3381
 2051TIP3    H1 7035   0.606   1.527   6.015  1.9776 -1.4178 -1.8977
 2051TIP3    H2 7036   0.662   1.626   5.916 -1.1704  0.9879 -1.4254
 2052TIP3   OH2 7037   4.172   3.637   6.363  0.7521  0.3524  0.6793
 2052TIP3    H1 7038   4.098   3.577   6.352  1.7188 -1.0203  1.4531
 2052TIP3    H2 7039   4.196   3.662   6.273 -0.4510  0.6135  0.4032
 2053TIP3   OH2 7040   9.814   7.666   4.483 -0.5929 -0.0171  0.1361
 2053TIP3    H1 7041   9.830   7.612   4.560  0.1179  0.6035  0.4341
 2053TIP3    H2 7042   9.876   7.635   4.418  1.2890  1.7501  0.9772
 2054TIP3   OH2 7043   5.008   4.647   4.114 -0.7042 -0.6451  0.8051
 2054TIP3    H1 7044   5.093   4.609   4.093 -0.6758  0.1501 -0.6764
 2054TIP3    H2 7045   4.954   4.572   4.141  0.6544 -1.0529  2.5462
 2055TIP3   OH2 7046   3.633  10.643   5.379 -0.4604  0.2416  0.0722
 2055TIP3    H1 7047   3.726  10.643   5.356 -0.7386  0.9574 -1.1390
 2055TIP3    H2 7048   3.598  10.564   5.338 -0.5466  0.4064 -0.1719
 2056TIP3   OH2 7049   5.802   0.952   9.693 -0.3200  0.1823  0.1172
 2056TIP3    H1 7050   5.732   0.888   9.680  0.2881 -0.3949 -0.3857
 2056TIP3    H2 7051   5.770   1.032   9.652 -1.0223  0.1598  0.6083
 2057TIP3   OH2 7052   9.338   8.018   6.398  0.2328  0.0363  0.1343
 2057TIP3    H1 7053   9.432   8.013   6.418 -0.0163  0.2888  1.4451
 2057TIP3    H2 7054   9.298   7.952   6.455 -0.5058  0.6998  0.3928
 2058TIP3   OH2 7055   8.362   8.864   2.679 -0.2032  0.1754 -0.3369
 2058TIP3    H1 7056   8.379   8.880   2.772  3.6612 -1.5705 -0.5386
 2058TIP3    H2 7057   8.406   8.935   2.634  2.9084 -1.8481 -0.8041
 2059TIP3   OH2 7058   8.203   8.532   8.218  0.0428  0.4810  0.3805
 2059TIP3    H1 7059   8.143   8.487   8.277 -1.6962  1.4268 -0.5726
 2059TIP3    H2 7060   8.248   8.462   8.171  1.2854 -0.2774  2.5830
 2060TIP3   OH2 7061   3.930   3.362   5.607  0.5108  0.0692 -0.8146
 2060TIP3    H1 7062   3.881   3.335   5.684 -1.6212  3.7382 -0.6784
 2060TIP3    H2 7063   4.021   3.335   5.626 -0.1098 -0.0977  2.4475
 2061TIP3   OH2 7064   1.806   2.324  10.167  0.4530 -0.1693 -0.0734
 2061TIP3    H1 7065   1.716   2.319  10.135  0.1998  0.9630  0.4069
 2061TIP3    H2 7066   1.855   2.263  10.112 -0.1792  0.8694 -1.8872
 2062TIP3   OH2 7067   2.529   8.626  10.280 -0.1117 -0.2662  0.1810
 2062TIP3    H1 7068   2.501   8.628  10.371 -1.8807 -2.2363 -0.2488
 2062TIP3    H2 7069   2.448   8.620  10.230  0.8424  0.5292 -1.5413
 2063TIP3   OH2 7070   2.287   9.617   0.643  0.5362  0.5410 -0.0771
 2063TIP3    H1 7071   2.304   9.611   0.549 -0.3376  0.1645 -0.2255
 2063TIP3    H2 7072   2.213   9.677   0.650  0.2610  0.1671  0.3139
 2064TIP3   OH2 7073   1.372   3.983  10.029  0.0456 -0.1424  0.7069
 2064TIP3    H1 7074   1.348   4.056  10.087  0.4595 -0.8431  1.7947
 2064TIP3    H2 7075   1.319   3.996   9.951  0.4527  1.5868  0.6757
 2065TIP3   OH2 7076   3.058   2.642   4.108 -0.0533 -0.2960  0.0058
 2065TIP3    H1 7077   2.966   2.623   4.124  0.0064 -1.7879 -1.1443
 2065TIP3    H2 7078   3.066   2.737   4.117 -1.4426 -0.2780  1.2977
 2066TIP3   OH2 7079   6.693   1.856   7.481  0.0181  0.1871  0.6589
 2066TIP3    H1 7080   6.718   1.778   7.530 -1.5645 -0.3297  0.7014
 2066TIP3    H2 7081   6.662   1.822   7.396 -0.2196  0.8031  0.4931
 2067TIP3   OH2 7082   5.449   7.942   1.473  0.2982 -0.2597  0.3479
 2067TIP3    H1 7083   5.491   8.002   1.535  0.5880  0.6239 -0.6724
 2067TIP3    H2 7084   5.412   7.999   1.406 -1.1526 -1.1228  0.3784
 2068TIP3   OH2 7085   6.558   0.066  10.836 -0.2229 -0.3919 -0.0568
 2068TIP3    H1 7086   6.627  -0.000  10.831  2.6234  2.3771 -0.8923
 2068TIP3    H2 7087   6.547   0.096  10.746 -3.3185 -1.3305 -0.1148
 2069TIP3   OH2 7088   4.646  10.349   7.327 -0.3708 -0.7388  0.6673
 2069TIP3    H1 7089   4.680  10.422   7.379  1.4655 -0.5892 -0.6296
 2069TIP3    H2 7090   4.559  10.378   7.299  1.3078  2.2919 -2.0855
 2070TIP3   OH2 7091   9.340  10.763   6.803  0.2060 -0.2430 -0.4575
 2070TIP3    H1 7092   9.263  10.797   6.758 -0.8303 -1.5338  0.2548
 2070TIP3    H2 7093   9.356  10.677   6.763 -1.2652 -1.8321  2.0212
 2071TIP3   OH2 7094   5.092   3.277   0.568  0.6872  0.1510 -0.4204
 2071TIP3    H1 7095   5.097   3.184   0.589  1.6684  0.5236  1.2489
 2071TIP3    H2 7096   5.146   3.287   0.490 -0.3037 -0.8184 -1.2566
 2072TIP3   OH2 7097   2.315   6.939  10.472  0.0644  0.7553 -0.3197
 2072TIP3    H1 7098   2.236   6.961  10.521 -0.6333  1.6368 -1.7752
 2072TIP3    H2 7099   2.369   7.017  10.476  0.9470  0.1170  0.7654
 2073TIP3   OH2 7100   2.236   5.499   4.661  0.8532 -0.3351 -0.0954
 2073TIP3    H1 7101   2.318   5.539   4.689  1.3700 -2.9995  2.8313
 2073TIP3    H2 7102   2.260   5.411   4.634 -0.9792 -1.1566  0.7298
 2074TIP3   OH2 7103   4.006   2.944   1.293 -0.2503 -0.5290  0.3554
 2074TIP3    H1 7104   4.087   2.990   1.269 -1.0538  0.3726 -0.7661
 2074TIP3    H2 7105   3.974   2.907   1.211 -1.6064  0.1911  0.5247
 2075TIP3   OH2 7106   2.933   1.219   1.619 -0.1464  0.0576  0.0458
 2075TIP3    H1 7107   2.918   1.241   1.711  2.9804 -0.9717  0.9017
 2075TIP3    H2 7108   2.944   1.124   1.618  0.7692  0.1517 -1.2480
 2076TIP3   OH2 7109   3.806   7.989   0.167  0.2655 -0.5762  0.1933
 2076TIP3    H1 7110   3.865   8.010   0.240  0.4881 -1.3992  0.2631
 2076TIP3    H2 7111   3.831   7.900   0.141 -0.2409 -0.5301 -0.4737
 2077TIP3   OH2 7112   6.688   8.492   2.434  0.0362 -0.4084 -0.5128
 2077TIP3    H1 7113   6.665   8.531   2.350  1.3445  1.1841 -0.1828
 2077TIP3    H2 7114   6.635   8.412   2.439 -0.3165 -0.3635 -2.6788
 2078TIP3   OH2 7115   1.186   0.978   5.319  0.2285  0.0716 -0.0714
 2078TIP3    H1 7116   1.195   0.933   5.235  0.7531  0.9521 -0.5060
 2078TIP3    H2 7117   1.103   1.025   5.311 -0.0235 -0.3340  0.1466
 2079TIP3   OH2 7118   0.657   7.500   7.142 -0.0823 -0.0489 -0.2514
 2079TIP3    H1 7119   0.683   7.493   7.233 -1.0798  0.7758  0.1166
 2079TIP3    H2 7120   0.580   7.443   7.135  0.9955 -1.4777 -1.0186
 2080TIP3   OH2 7121  10.375   8.508   1.851  0.5708 -0.3259 -0.5035
 2080TIP3    H1 7122  10.416   8.437   1.899 -2.7021 -1.3953  1.0106
 2080TIP3    H2 7123  10.402   8.495   1.760  3.2650 -0.9824  0.2969
 2081TIP3   OH2 7124  10.128   6.666   0.988 -0.2884  0.4154 -0.1215
 2081TIP3    H1 7125  10.077   6.659   0.907  0.6788  0.4844 -0.7597
 2081TIP3    H2 7126  10.102   6.750   1.026 -2.1654 -0.4740  0.6620
 2082TIP3   OH2 7127   0.598   0.101   5.453 -0.2224  0.3765 -0.1925
 2082TIP3    H1 7128   0.539   0.147   5.393 -0.1017  0.0316 -0.5806
 2082TIP3    H2 7129   0.654   0.048   5.396  1.5779  1.9222  0.0325
 2083TIP3   OH2 7130   2.795  10.776  10.816 -0.0046 -0.1723  0.1050
 2083TIP3    H1 7131   2.711  10.805  10.781  0.0603  0.5037  0.4864
 2083TIP3    H2 7132   2.824  10.849  10.871 -0.0269 -1.1394  1.4418
 2084TIP3   OH2 7133   3.286   5.298   0.551  0.1678  0.2353 -0.6250
 2084TIP3    H1 7134   3.301   5.272   0.642 -0.5770  0.4291 -0.4404
 2084TIP3    H2 7135   3.338   5.377   0.539  1.2265 -0.4591 -0.7318
 2085TIP3   OH2 7136   0.194   5.144   3.001 -0.1294 -0.2224  0.0766
 2085TIP3    H1 7137   0.152   5.207   3.060 -0.8622 -0.1701 -0.4971
 2085TIP3    H2 7138   0.184   5.181   2.914  0.7248 -0.4300 -0.1222
 2086TIP3   OH2 7139   3.083   2.787   8.357 -0.1462  0.0943 -0.6661
 2086TIP3    H1 7140   3.129   2.709   8.390 -0.5336  0.2031  0.1605
 2086TIP3    H2 7141   3.134   2.861   8.390 -1.5628  0.2560  1.3786
 2087TIP3   OH2 7142   7.739   0.503   9.279 -0.2132 -0.3003 -0.1044
 2087TIP3    H1 7143   7.722   0.438   9.347  0.7404  2.6130  3.2099
 2087TIP3    H2 7144   7.667   0.566   9.287  1.7327  1.9668  0.7993
 2088TIP3   OH2 7145   5.888   4.770   2.792 -0.1449 -0.1483 -0.3828
 2088TIP3    H1 7146   5.827   4.795   2.862  0.3161  0.0330 -0.0387
 2088TIP3    H2 7147   5.843   4.700   2.746 -0.4783 -0.2414  0.0690
 2089TIP3   OH2 7148   2.044  10.025   0.336 -0.0195  0.0318 -0.0053
 2089TIP3    H1 7149   2.004  10.069   0.410  0.6010  0.6421 -0.0231
 2089TIP3    H2 7150   2.122  10.077   0.316 -0.1963 -0.1025 -1.1097
 2090TIP3   OH2 7151   6.130   3.885   1.318  0.6162 -0.0463  0.3185
 2090TIP3    H1 7152   6.057   3.940   1.346  0.5210 -0.6413  1.2598
 2090TIP3    H2 7153   6.174   3.937   1.251 -0.3843  0.5220  0.0721
 2091TIP3   OH2 7154   2.175   5.476  10.237 -0.5474  0.2546 -0.1969
 2091TIP3    H1 7155   2.152   5.567  10.260 -0.0469  0.2150  0.4655
 2091TIP3    H2 7156   2.154   5.426  10.315 -1.4264 -0.3181 -0.7739
 2092TIP3   OH2 7157   7.182   3.508   4.153 -0.5222  0.2763  0.3096
 2092TIP3    H1 7158   7.174   3.508   4.057  0.7303  0.1768  0.1946
 2092TIP3    H2 7159   7.130   3.432   4.181 -0.2708 -0.1538 -0.3541
 2093TIP3   OH2 7160   3.196  10.899   5.509  0.3830 -0.1023  0.2495
 2093TIP3    H1 7161   3.281  10.877   5.547  1.7374 -0.0266 -2.4906
 2093TIP3    H2 7162   3.141  10.823   5.527  1.3178 -0.5516  1.2967
 2094TIP3   OH2 7163   5.755   1.405   5.112 -0.0826  0.0489 -0.1116
 2094TIP3    H1 7164   5.744   1.311   5.128  4.0370 -0.7619 -0.8817
 2094TIP3    H2 7165   5.749   1.445   5.199  0.4165 -1.2802  0.5619
 2095TIP3   OH2 7166   7.075   3.702   5.268 -0.1528 -0.2724  0.5174
 2095TIP3    H1 7167   7.135   3.639   5.308 -0.1194 -1.0530 -0.7158
 2095TIP3    H2 7168   7.046   3.757   5.341 -0.3174 -1.8126  1.6648
 2096TIP3   OH2 7169   8.685   4.104   2.441  0.5923 -0.0052  0.1951
 2096TIP3    H1 7170   8.688   4.036   2.508  1.8232  0.5102  0.6995
 2096TIP3    H2 7171   8.635   4.175   2.482  0.9328  0.1217  0.3979
 2097TIP3   OH2 7172   0.049   0.041   5.538 -0.6908 -0.0788 -0.9559
 2097TIP3    H1 7173   0.067   0.101   5.465  0.8393 -0.5463 -1.0035
 2097TIP3    H2 7174   0.133   0.034   5.583 -0.9293 -1.9322 -0.7550
 2098TIP3   OH2 7175  10.350   0.765   7.211 -0.1999  0.2395  0.2654
 2098TIP3    H1 7176  10.319   0.817   7.285 -2.7957 -0.2476 -0.3540
 2098TIP3    H2 7177  10.374   0.681   7.249  0.6358  0.7044  0.8057
 2099TIP3   OH2 7178   7.237   7.384   5.613 -0.1049 -0.1105  0.1886
 2099TIP3    H1 7179   7.321   7.404   5.653 -0.0324 -1.1732  0.5832
 2099TIP3    H2 7180   7.257   7.317   5.547 -0.1206  1.9661 -2.0871
 2100TIP3   OH2 7181   7.030   2.412   7.330 -0.2797 -0.1239 -0.5726
 2100TIP3    H1 7182   6.971   2.482   7.303  2.5892  2.4431 -0.7891
 2100TIP3    H2 7183   7.098   2.411   7.262 -0.1593 -3.1833 -0.5494
 2101TIP3   OH2 7184  10.872   4.318   9.162  0.0925 -0.2434 -0.1425
 2101TIP3    H1 7185  10.958   4.352   9.139 -0.3015 -0.7235 -2.5385
 2101TIP3    H2 7186  10.885   4.224   9.172  0.0829 -0.1500  0.8591
 2102TIP3   OH2 7187   7.221   4.723   3.505  0.7212 -0.8617  0.1661
 2102TIP3    H1 7188   7.253   4.809   3.534  3.4494 -1.3655 -1.0153
 2102TIP3    H2 7189   7.226   4.668   3.583 -0.5474 -0.1211  0.8022
 2103TIP3   OH2 7190   9.231   5.600   5.910 -0.4308 -0.2873 -0.0734
 2103TIP3    H1 7191   9.307   5.657   5.920  0.1757 -0.9716 -0.7482
 2103TIP3    H2 7192   9.159   5.651   5.948  0.0203  1.0723 -0.9764
 2104TIP3   OH2 7193   1.033   1.982   0.414 -0.5149 -0.5556  0.5342
 2104TIP3    H1 7194   1.061   1.965   0.324 -3.0438 -1.7641 -0.1172
 2104TIP3    H2 7195   0.972   2.056   0.407 -1.7943 -1.5262  1.0029
 2105TIP3   OH2 7196   6.135   3.841   3.639 -0.5741 -0.1609  0.0273
 2105TIP3    H1 7197   6.209   3.844   3.699  0.3331  0.2045 -1.0744
 2105TIP3    H2 7198   6.088   3.922   3.655 -0.3889 -0.1082  0.3111
 2106TIP3   OH2 7199   5.805   1.336   4.696  0.5187  1.0133  0.0458
 2106TIP3    H1 7200   5.819   1.347   4.602 -1.0890 -1.9099 -0.6769
 2106TIP3    H2 7201   5.717   1.371   4.711  0.6772  1.2577  0.4224
 2107TIP3   OH2 7202   9.809   4.409   3.468  0.4425 -0.3315 -0.7464
 2107TIP3    H1 7203   9.833   4.397   3.560  2.5976  2.1755 -0.8705
 2107TIP3    H2 7204   9.713   4.409   3.469  0.3146  2.3958  2.0416
 2108TIP3   OH2 7205   7.841   4.913   9.687  0.0364  0.2636 -0.3986
 2108TIP3    H1 7206   7.887   4.833   9.661  1.2162  0.6613  0.3689
 2108TIP3    H2 7207   7.750   4.885   9.699  0.0593 -0.5597 -1.8887
 2109TIP3   OH2 7208   0.174   0.111   4.539 -0.4284  0.3907 -0.1663
 2109TIP3    H1 7209   0.167   0.204   4.518 -0.0787  0.8144  1.4376
 2109TIP3    H2 7210   0.083   0.081   4.544 -0.5537  0.7436 -0.2792
 2110TIP3   OH2 7211   0.921   5.514   4.910 -0.8115 -0.0278  0.1840
 2110TIP3    H1 7212   0.850   5.539   4.851 -0.6757 -1.1730 -0.5037
 2110TIP3    H2 7213   1.000   5.524   4.858 -0.5139  0.6519  0.7520
 2111TIP3   OH2 7214   3.664   6.189   0.804 -0.3869  0.2456  0.3496
 2111TIP3    H1 7215   3.759   6.175   0.803 -0.4486 -0.2195  0.4842
 2111TIP3    H2 7216   3.651   6.266   0.859 -0.1028  0.1730  0.5209
 2112TIP3   OH2 7217   2.340   3.247   5.378 -0.4223  0.7999  0.7798
 2112TIP3    H1 7218   2.388   3.165   5.370  0.0803  1.2441 -1.9828
 2112TIP3    H2 7219   2.285   3.236   5.456 -0.2355 -2.0721  0.6110
 2113TIP3   OH2 7220  10.456   3.737   0.920  1.1001  0.0531 -0.0019
 2113TIP3    H1 7221  10.514   3.801   0.878  0.5442  0.4925 -0.1083
 2113TIP3    H2 7222  10.388   3.789   0.961  0.0846 -0.5085 -0.9343
 2114TIP3   OH2 7223   4.228   6.872   0.730 -0.4688 -0.1898 -0.6534
 2114TIP3    H1 7224   4.323   6.869   0.720 -0.4738  0.3563 -0.8709
 2114TIP3    H2 7225   4.215   6.887   0.824 -0.3366 -0.1521 -0.6399
 2115TIP3   OH2 7226   1.968   3.248   0.078  0.1180 -0.0034 -0.1594
 2115TIP3    H1 7227   1.906   3.178   0.057 -1.5427  1.2189  0.4857
 2115TIP3    H2 7228   2.010   3.268  -0.005 -0.5735 -0.6585 -0.6822
 2116TIP3   OH2 7229   5.705   5.553   1.005 -0.0961  0.5895 -0.0446
 2116TIP3    H1 7230   5.746   5.635   1.033 -1.6546  0.8521  1.6564
 2116TIP3    H2 7231   5.749   5.531   0.923  0.3181  3.1563 -0.5887
 2117TIP3   OH2 7232  10.022   6.600   2.324  0.3185  0.1901 -0.0514
 2117TIP3    H1 7233   9.935   6.600   2.364 -0.3883 -0.6164 -1.5161
 2117TIP3    H2 7234  10.033   6.688   2.289 -0.2245  0.0937 -0.4834
 2118TIP3   OH2 7235   7.369   5.664   6.882  0.1219 -0.5582 -0.2685
 2118TIP3    H1 7236   7.455   5.648   6.922  0.6000 -1.2143 -1.4989
 2118TIP3    H2 7237   7.353   5.587   6.828 -0.9831 -0.1736 -0.5124
 2119TIP3   OH2 7238   5.070   3.916   9.475 -0.2661 -0.2752 -0.2919
 2119TIP3    H1 7239   5.007   3.930   9.405 -2.5373 -2.9593  0.9727
 2119TIP3    H2 7240   5.154   3.905   9.431 -1.1398  0.7134 -2.3214
 2120TIP3   OH2 7241   8.325   3.587   4.688 -0.3568 -0.0190  0.0376
 2120TIP3    H1 7242   8.327   3.651   4.616  1.3325  0.5937  0.5976
 2120TIP3    H2 7243   8.383   3.517   4.659 -1.1324 -0.6730  0.0269
 2121TIP3   OH2 7244   4.507   6.019   7.148  0.0667 -0.1515  0.0687
 2121TIP3    H1 7245   4.555   5.957   7.203  0.5626 -0.6407 -0.8819
 2121TIP3    H2 7246   4.415   6.003   7.168  0.0683 -2.3810 -1.2985
 2122TIP3   OH2 7247   1.676   8.319   4.210 -0.6445 -0.1546  0.9390
 2122TIP3    H1 7248   1.716   8.246   4.162 -1.8499  0.4161 -1.0328
 2122TIP3    H2 7249   1.707   8.398   4.164  1.4303  0.7406  3.6191
 2123TIP3   OH2 7250   1.952   0.230   9.123 -0.3905  0.3365  0.4199
 2123TIP3    H1 7251   1.940   0.219   9.217 -0.5777  0.7782  0.4502
 2123TIP3    H2 7252   1.929   0.322   9.106  1.1098  0.7105  0.1910
 2124TIP3   OH2 7253  10.805   3.844   6.662 -0.3076  0.6582  0.0245
 2124TIP3    H1 7254  10.742   3.772   6.662  0.9091 -0.4420 -0.2063
 2124TIP3    H2 7255  10.827   3.857   6.570  0.5784  0.3317  0.1848
 2125TIP3   OH2 7256   7.646   2.766   2.512  0.0714 -0.4908  0.2445
 2125TIP3    H1 7257   7.722   2.798   2.560  0.0082 -1.5482  1.0908
 2125TIP3    H2 7258   7.676   2.759   2.421  0.4362  0.7581  0.2565
 2126TIP3   OH2 7259   6.347   0.790   7.984 -0.2536 -0.1433  0.2099
 2126TIP3    H1 7260   6.421   0.852   7.983  0.4542 -0.9791 -0.3153
 2126TIP3    H2 7261   6.333   0.767   7.892 -2.4820  1.4924  0.0622
 2127TIP3   OH2 7262   8.329   8.858   5.241 -0.0964  0.3601  0.1969
 2127TIP3    H1 7263   8.384   8.891   5.171 -0.2879  1.5593  0.5879
 2127TIP3    H2 7264   8.268   8.799   5.198  0.8365 -0.2030 -0.3847
 2128TIP3   OH2 7265   4.000   8.309   7.931 -0.2528 -0.5631 -0.6260
 2128TIP3    H1 7266   3.955   8.226   7.946 -0.5157 -0.9563 -3.1239
 2128TIP3    H2 7267   4.031   8.336   8.018  0.5787 -3.6669  0.1480
 2129TIP3   OH2 7268   8.268   3.481   8.940 -0.7305  0.3709 -0.0438
 2129TIP3    H1 7269   8.363   3.491   8.942 -0.7547  0.5187  0.7642
 2129TIP3    H2 7270   8.248   3.429   9.018 -1.0262 -2.3161 -1.7852
 2130TIP3   OH2 7271   2.146   5.729  10.333  0.4900  0.1204 -0.7589
 2130TIP3    H1 7272   2.152   5.807  10.279  0.2549  1.1166  0.5963
 2130TIP3    H2 7273   2.126   5.762  10.421 -1.1199 -1.5436 -0.4372
 2131TIP3   OH2 7274   5.681   5.345   1.163  0.0704  0.4290  0.1921
 2131TIP3    H1 7275   5.703   5.425   1.115  1.7981 -0.5501 -0.7415
 2131TIP3    H2 7276   5.756   5.287   1.150 -0.8805 -1.1496  1.3153
 2132TIP3   OH2 7277   2.693  10.706   0.383  0.2829 -0.1339 -0.0806
 2132TIP3    H1 7278   2.628  10.775   0.393  1.6479  1.3326 -0.8943
 2132TIP3    H2 7279   2.675  10.668   0.297  1.8766  1.8934 -1.4186
 2133TIP3   OH2 7280  10.907   6.112   0.573  0.3601 -0.6882  0.3170
 2133TIP3    H1 7281  10.858   6.179   0.525  1.9512  1.0347  0.9646
 2133TIP3    H2 7282  10.976   6.085   0.513 -0.0643 -1.4879  0.1889
 2134TIP3   OH2 7283   9.980   1.954   5.410 -0.1974 -0.1990  0.3305
 2134TIP3    H1 7284   9.934   1.882   5.452 -0.6972 -0.8736 -1.3231
 2134TIP3    H2 7285  10.002   1.922   5.323  0.5854  1.2452 -0.0424
 2135TIP3   OH2 7286   0.748   5.635   8.387  0.4236 -0.0595 -0.7646
 2135TIP3    H1 7287   0.726   5.577   8.315  0.3774 -0.8436 -0.1275
 2135TIP3    H2 7288   0.668   5.687   8.401  0.0857 -0.6089 -0.6188
 2136TIP3   OH2 7289   0.980   6.424   5.951  0.2906  0.1363 -0.4605
 2136TIP3    H1 7290   0.990   6.432   5.856  0.4841 -0.0385 -0.4567
 2136TIP3    H2 7291   0.956   6.512   5.980  0.4839  0.2520 -0.6405
 2137TIP3   OH2 7292   0.655   2.041   9.851 -0.2908 -0.6931  0.5809
 2137TIP3    H1 7293   0.661   1.948   9.832 -0.3290 -0.6688  0.4513
 2137TIP3    H2 7294   0.639   2.082   9.766  1.8093 -0.3690  0.2715
 2138TIP3   OH2 7295   7.633   1.502   8.660 -0.0811  0.0699 -0.2536
 2138TIP3    H1 7296   7.670   1.521   8.573 -0.9298 -1.3409 -0.9518
 2138TIP3    H2 7297   7.598   1.414   8.652  0.0655 -0.1880  1.6303
 2139TIP3   OH2 7298   4.934   6.559   7.920 -0.0450 -0.3637 -0.2020
 2139TIP3    H1 7299   4.878   6.530   7.847  1.7968 -0.0943 -1.8102
 2139TIP3    H2 7300   4.979   6.480   7.949  0.6133 -0.1570 -0.6374
 2140TIP3   OH2 7301   3.460   6.707   5.445 -0.1415  0.0627  0.0486
 2140TIP3    H1 7302   3.396   6.636   5.443  0.9401 -0.9333 -0.6068
 2140TIP3    H2 7303   3.531   6.677   5.388  1.0731  0.9620  1.0243
 2141TIP3   OH2 7304   3.301   4.016  10.865 -0.0817 -0.3792  0.4033
 2141TIP3    H1 7305   3.250   4.070  10.925  0.0264 -1.0849  1.1473
 2141TIP3    H2 7306   3.372   4.073  10.835 -2.0481  1.0905 -1.7619
 2142TIP3   OH2 7307   2.159   9.176   8.443  0.1803 -0.0179  0.0376
 2142TIP3    H1 7308   2.247   9.198   8.473  0.5396  1.6186 -1.9946
 2142TIP3    H2 7309   2.173   9.122   8.365 -0.4566  2.3646 -1.8648
 2143TIP3   OH2 7310   4.339   0.675   6.509  0.0617  0.1478 -0.5992
 2143TIP3    H1 7311   4.398   0.736   6.464  0.7858 -0.0117  0.0930
 2143TIP3    H2 7312   4.253   0.691   6.471  0.2781  1.4596 -0.5900
 2144TIP3   OH2 7313  10.007   9.254   3.447 -0.3244 -0.4182 -0.0809
 2144TIP3    H1 7314   9.936   9.224   3.391  0.4579 -0.6603 -0.9618
 2144TIP3    H2 7315   9.963   9.295   3.521 -1.3802 -0.8125 -0.4746
 2145TIP3   OH2 7316   4.268   2.251   6.628 -0.0971  0.1541 -0.5281
 2145TIP3    H1 7317   4.295   2.256   6.537 -0.5468  0.2280 -0.6590
 2145TIP3    H2 7318   4.241   2.159   6.640  1.0354 -0.1516 -0.1556
 2146TIP3   OH2 7319   9.346   8.539  10.407  0.0434  0.0269  0.4777
 2146TIP3    H1 7320   9.353   8.553  10.502 -0.8943 -0.0452  0.5663
 2146TIP3    H2 7321   9.258   8.570  10.385  0.4540  0.5617 -0.4668
 2147TIP3   OH2 7322   0.943   4.540  10.091 -0.0852 -0.4166 -0.3871
 2147TIP3    H1 7323   0.998   4.605  10.047 -0.7252 -0.2562 -0.9746
 2147TIP3    H2 7324   0.975   4.456  10.061 -0.6096 -0.3065 -1.3060
 2148TIP3   OH2 7325  10.855   5.677   0.583 -0.0006 -0.0206  0.2913
 2148TIP3    H1 7326  10.794   5.751   0.589 -1.6246 -1.1775 -1.1226
 2148TIP3    H2 7327  10.850   5.650   0.491  1.1383 -1.4244  0.6222
 2149TIP3   OH2 7328   6.215   0.521   0.296  0.1263 -0.4693 -0.3513
 2149TIP3    H1 7329   6.159   0.446   0.279 -0.6642  0.5423 -2.7076
 2149TIP3    H2 7330   6.302   0.494   0.266  0.1934 -0.9681  0.2932
 2150TIP3   OH2 7331   2.665   7.605   3.890  0.1834 -0.5489 -0.2401
 2150TIP3    H1 7332   2.736   7.637   3.834  0.9990  0.1133  1.1017
 2150TIP3    H2 7333   2.670   7.660   3.969 -1.7179 -0.6146 -0.0276
 2151TIP3   OH2 7334   7.899   4.310   4.686 -0.1555 -0.1896 -0.3294
 2151TIP3    H1 7335   7.975   4.348   4.730  0.6490 -1.2519 -0.7425
 2151TIP3    H2 7336   7.826   4.365   4.713  0.3562 -0.5410  2.0133
 2152TIP3   OH2 7337   8.507   4.084   7.671  0.6835 -0.0736  0.0690
 2152TIP3    H1 7338   8.423   4.049   7.644  0.5285  0.4074 -0.0828
 2152TIP3    H2 7339   8.564   4.073   7.595  0.0138  2.0815 -0.8367
 2153TIP3   OH2 7340   9.894   9.452  10.171 -0.7988 -0.0017 -0.0697
 2153TIP3    H1 7341   9.942   9.385  10.220 -0.3062  0.0894 -0.4183
 2153TIP3    H2 7342   9.870   9.517  10.237 -3.7988 -1.8597  0.8439
 2154TIP3   OH2 7343   7.112   6.663   1.747 -0.0569 -0.6694 -0.4718
 2154TIP3    H1 7344   7.047   6.669   1.676  0.1108  0.4803 -0.5504
 2154TIP3    H2 7345   7.134   6.754   1.766  1.2965 -1.0359 -0.2200
 2155TIP3   OH2 7346   8.863   3.052   6.374 -0.0922  0.2841  0.7251
 2155TIP3    H1 7347   8.938   3.059   6.314 -0.3644  0.1737  0.3695
 2155TIP3    H2 7348   8.867   2.962   6.407 -1.3815 -0.5133 -1.0651
 2156TIP3   OH2 7349   0.843   6.658   0.412  0.1183  0.2837  0.1169
 2156TIP3    H1 7350   0.902   6.654   0.487  0.1841 -0.8578  0.0230
 2156TIP3    H2 7351   0.882   6.723   0.354 -1.2412  3.1031  2.1213
 2157TIP3   OH2 7352   4.739   3.745   4.329  0.0752 -0.1527 -0.1595
 2157TIP3    H1 7353   4.676   3.673   4.323  1.3818 -1.4784  1.1758
 2157TIP3    H2 7354   4.766   3.746   4.421  1.9655  0.3885 -0.6714
 2158TIP3   OH2 7355   6.894   3.485   7.719 -0.6995 -0.0362  0.0271
 2158TIP3    H1 7356   6.839   3.430   7.774 -0.4062 -1.1770 -0.7896
 2158TIP3    H2 7357   6.927   3.426   7.651  1.7880  0.5198  0.6574
 2159TIP3   OH2 7358   6.475   2.967   3.421 -0.5590 -0.4279  0.0170
 2159TIP3    H1 7359   6.483   3.029   3.494 -0.5042 -1.0115  0.5206
 2159TIP3    H2 7360   6.394   2.992   3.377  1.7833  3.1515 -2.8208
 2160TIP3   OH2 7361  10.655   6.247   5.053  0.0864 -0.2788  0.3087
 2160TIP3    H1 7362  10.577   6.207   5.014  0.4592 -0.8290  0.1007
 2160TIP3    H2 7363  10.645   6.341   5.037  0.0945 -0.4653 -0.8854
 2161TIP3   OH2 7364   3.439   2.080   0.632  0.0832  0.5523 -0.2509
 2161TIP3    H1 7365   3.523   2.119   0.608  0.5940 -0.3909 -0.0668
 2161TIP3    H2 7366   3.386   2.086   0.553  0.8172 -0.1016 -0.8100
 2162TIP3   OH2 7367   0.268   3.642  10.228  0.3640  0.4361 -0.4822
 2162TIP3    H1 7368   0.360   3.638  10.205  0.5318  1.4861 -0.0475
 2162TIP3    H2 7369   0.260   3.719  10.285 -0.5434 -0.4239  0.6047
 2163TIP3   OH2 7370   9.749   3.761   2.323  0.1778 -0.6492  0.5162
 2163TIP3    H1 7371   9.721   3.797   2.239 -0.5644 -0.2880  0.9065
 2163TIP3    H2 7372   9.769   3.837   2.376  1.4865 -0.8955  0.4008
 2164TIP3   OH2 7373  10.463   0.947  10.334 -0.1901  0.5978  1.0675
 2164TIP3    H1 7374  10.417   1.023  10.371 -2.1262  0.7950 -1.5000
 2164TIP3    H2 7375  10.532   0.985  10.280 -1.9254  0.6974 -1.2074
 2165TIP3   OH2 7376   2.626   3.590  10.673  0.2891 -0.2701 -0.0306
 2165TIP3    H1 7377   2.662   3.642  10.745  0.5522  0.5395 -0.7357
 2165TIP3    H2 7378   2.703   3.563  10.622  0.0641 -0.3791 -0.3146
 2166TIP3   OH2 7379   3.694   3.150   3.488 -0.4328  0.1685  0.1637
 2166TIP3    H1 7380   3.755   3.138   3.416 -0.3480 -1.8238  0.4979
 2166TIP3    H2 7381   3.613   3.109   3.458 -1.1745  1.4854  0.2898
 2167TIP3   OH2 7382   0.608   4.192   3.164 -0.0440 -0.1462 -0.3166
 2167TIP3    H1 7383   0.602   4.277   3.209 -1.6137 -1.0768  1.3506
 2167TIP3    H2 7384   0.595   4.213   3.071 -0.2185  1.4536  0.0399
 2168TIP3   OH2 7385   6.129   8.001   8.192 -0.1017 -0.7372 -0.7278
 2168TIP3    H1 7386   6.098   7.911   8.201 -1.0966 -0.3493 -0.0096
 2168TIP3    H2 7387   6.184   8.000   8.114  0.4628 -2.1028 -0.3431
 2169TIP3   OH2 7388   9.650   8.093   1.581 -0.4828 -0.2652 -0.4108
 2169TIP3    H1 7389   9.644   8.080   1.486  0.4640 -0.4318 -0.4608
 2169TIP3    H2 7390   9.586   8.161   1.600 -0.7309 -0.2764 -1.1646
 2170TIP3   OH2 7391   5.474   2.662   7.042  0.3181  0.1984 -0.4935
 2170TIP3    H1 7392   5.414   2.606   6.992 -0.3985  1.8661 -1.6080
 2170TIP3    H2 7393   5.540   2.602   7.076 -1.2303 -1.5281 -0.3411
 2171TIP3   OH2 7394   5.975   8.647   7.520  0.0069 -0.4206 -0.2202
 2171TIP3    H1 7395   5.929   8.640   7.604  1.2788  0.5576  0.5874
 2171TIP3    H2 7396   6.050   8.589   7.529  0.9665  0.8029 -0.0837
 2172TIP3   OH2 7397   5.903   8.808   2.692 -0.0126 -0.0881 -0.3155
 2172TIP3    H1 7398   5.963   8.862   2.639  0.1123  1.5854  1.4314
 2172TIP3    H2 7399   5.960   8.762   2.753 -0.4258  1.8334  1.6420
 2173TIP3   OH2 7400   7.212   8.422   3.658  0.0408 -0.2287  0.7939
 2173TIP3    H1 7401   7.124   8.413   3.693 -1.0562  1.1378 -1.3613
 2173TIP3    H2 7402   7.202   8.481   3.583  2.6779 -0.5985  0.0396
 2174TIP3   OH2 7403   1.812   4.455   6.320 -0.3157  0.4224  0.0115
 2174TIP3    H1 7404   1.721   4.443   6.349 -0.4331 -0.2621 -0.6100
 2174TIP3    H2 7405   1.806   4.519   6.249 -0.0743  1.7940  1.1718
 2175TIP3   OH2 7406   4.602   2.917   5.348  0.1980  0.3307 -0.0949
 2175TIP3    H1 7407   4.574   2.922   5.257  0.4013  0.2458 -0.1615
 2175TIP3    H2 7408   4.628   2.826   5.361  0.4285  0.4052 -0.0294
 2176TIP3   OH2 7409  10.764   2.930   9.026  0.2199  1.3086 -0.4760
 2176TIP3    H1 7410  10.836   2.945   8.964  1.6325  0.8039  1.0010
 2176TIP3    H2 7411  10.696   2.886   8.973  2.0182 -0.5942 -1.3397
 2177TIP3   OH2 7412   0.131  10.455   5.428 -0.3612 -1.1471  0.1380
 2177TIP3    H1 7413   0.116  10.368   5.393 -1.0934 -1.0215  0.1297
 2177TIP3    H2 7414   0.077  10.513   5.374 -1.0160 -0.8749  1.0645
 2178TIP3   OH2 7415   7.911  10.352   8.041 -0.4818 -0.7268 -0.1139
 2178TIP3    H1 7416   7.965  10.357   8.120  1.9345 -0.9288 -1.6491
 2178TIP3    H2 7417   7.864  10.435   8.039  1.1217  0.2440  0.3930
 2179TIP3   OH2 7418  10.487   0.881   1.139  0.2064  0.2395 -0.6242
 2179TIP3    H1 7419  10.579   0.904   1.150  0.6241 -0.4967 -2.2837
 2179TIP3    H2 7420  10.448   0.897   1.225  1.7572  1.0637 -0.0309
 2180TIP3   OH2 7421   9.320   6.118   4.862 -0.0905  0.0657 -0.0195
 2180TIP3    H1 7422   9.336   6.120   4.767  0.6016  2.5060  0.0760
 2180TIP3    H2 7423   9.225   6.107   4.870 -0.1423 -0.3096 -0.9852
 2181TIP3   OH2 7424   7.266   0.618   3.684 -0.4022  0.1541 -0.6044
 2181TIP3    H1 7425   7.175   0.589   3.673 -0.8153  1.4966 -0.9618
 2181TIP3    H2 7426   7.259   0.711   3.706  0.8800  0.1770 -0.2195
 2182TIP3   OH2 7427   8.361   0.483   9.645 -0.6302  0.5177  0.2087
 2182TIP3    H1 7428   8.384   0.571   9.673 -0.1878  0.5555 -0.2506
 2182TIP3    H2 7429   8.297   0.495   9.575  0.2355  0.5288 -0.6087
 2183TIP3   OH2 7430   2.744   1.164   1.851  0.1826 -0.2018  0.4694
 2183TIP3    H1 7431   2.651   1.181   1.867 -0.6405  2.1440 -4.8559
 2183TIP3    H2 7432   2.786   1.249   1.864  1.0576 -0.5222 -0.1933
 2184TIP3   OH2 7433   8.992   9.700   2.451  0.7067 -0.3750  0.1130
 2184TIP3    H1 7434   9.082   9.724   2.430  1.5559 -2.3444  1.2260
 2184TIP3    H2 7435   8.952   9.679   2.367  1.7069 -0.7392 -0.2833
 2185TIP3   OH2 7436   6.953   4.776   5.784  0.5706 -1.1198 -0.3406
 2185TIP3    H1 7437   6.979   4.847   5.843  1.4610 -0.8800 -1.0024
 2185TIP3    H2 7438   6.902   4.717   5.839  1.8705 -1.2052  0.8317
 2186TIP3   OH2 7439   8.267   9.064   5.453 -0.0536  0.2219  0.9176
 2186TIP3    H1 7440   8.296   8.991   5.398 -2.0988 -1.1996  1.6315
 2186TIP3    H2 7441   8.340   9.078   5.514  1.7397  1.0135 -1.2397
 2187TIP3   OH2 7442   9.640   4.830   4.098  0.0608 -0.0115  0.1891
 2187TIP3    H1 7443   9.651   4.744   4.138 -1.0000 -1.0905 -1.6878
 2187TIP3    H2 7444   9.545   4.845   4.100  0.3012  1.6342  1.4208
 2188TIP3   OH2 7445   0.330   4.236   2.427 -0.5108 -0.3106 -0.3106
 2188TIP3    H1 7446   0.386   4.176   2.378 -1.5432 -1.4597 -0.1487
 2188TIP3    H2 7447   0.243   4.227   2.387 -0.3382  2.5911 -1.5684
 2189TIP3   OH2 7448   3.682   2.679   5.834 -0.1571  0.2726  0.5136
 2189TIP3    H1 7449   3.642   2.710   5.753 -0.1456 -0.4567  0.2243
 2189TIP3    H2 7450   3.738   2.752   5.862  0.5709  0.1894 -0.6370
 2190TIP3   OH2 7451   2.563   0.602   9.048 -0.5302  0.6882 -0.0190
 2190TIP3    H1 7452   2.528   0.631   8.964 -0.1921 -0.9463 -0.7471
 2190TIP3    H2 7453   2.488   0.568   9.095 -0.4481  0.0814 -0.3241
 2191TIP3   OH2 7454   1.823   6.696   0.513 -0.2422 -0.2999 -0.5263
 2191TIP3    H1 7455   1.785   6.672   0.429 -0.4832 -0.7499 -0.2929
 2191TIP3    H2 7456   1.791   6.629   0.574  2.9969 -2.3123 -0.8008
 2192TIP3   OH2 7457   8.260   6.692   3.426  0.2348 -0.2369 -0.1730
 2192TIP3    H1 7458   8.284   6.764   3.368  1.6538 -0.1039  0.5460
 2192TIP3    H2 7459   8.270   6.728   3.515  1.5778 -1.4659  0.2182
 2193TIP3   OH2 7460   7.145   3.128   5.438  0.0109 -0.0272 -0.1137
 2193TIP3    H1 7461   7.185   3.206   5.477 -1.5625  0.6273  0.2725
 2193TIP3    H2 7462   7.213   3.061   5.444  1.4487  1.3205 -0.5423
 2194TIP3   OH2 7463   7.801   2.073  10.688 -0.1833 -0.5423  0.3798
 2194TIP3    H1 7464   7.723   2.126  10.674  0.1894  0.0221  0.4062
 2194TIP3    H2 7465   7.862   2.102  10.621 -0.0348 -1.0623  0.2864
 2195TIP3   OH2 7466   1.114   9.569   0.248 -0.4404  0.0051  0.2636
 2195TIP3    H1 7467   1.095   9.504   0.316 -3.1410  0.1368 -0.2432
 2195TIP3    H2 7468   1.122   9.518   0.168  0.0110  0.0991  0.2441
 2196TIP3   OH2 7469   9.910   9.243   8.077  0.0336  0.6974  0.3435
 2196TIP3    H1 7470   9.940   9.276   8.162  0.9958 -0.9248  0.6855
 2196TIP3    H2 7471   9.943   9.153   8.074 -3.5570 -0.7950  0.1012
 2197TIP3   OH2 7472   0.177   3.343   3.570 -0.1815 -0.7648  0.0012
 2197TIP3    H1 7473   0.222   3.318   3.650 -0.8995 -2.9034 -0.1784
 2197TIP3    H2 7474   0.247   3.354   3.505  0.3172 -0.1541  0.6283
 2198TIP3   OH2 7475  10.772   9.332   7.674  0.2038  0.8389  0.6318
 2198TIP3    H1 7476  10.775   9.387   7.596  2.4182 -0.5124 -0.3335
 2198TIP3    H2 7477  10.699   9.273   7.659  0.2595  0.9608 -0.1479
 2199TIP3   OH2 7478   0.461   2.678   4.519  0.0972 -0.1974  0.1778
 2199TIP3    H1 7479   0.440   2.765   4.553 -1.3171  0.2234 -1.6551
 2199TIP3    H2 7480   0.391   2.658   4.458  2.0676 -1.2409 -1.9048
 2200TIP3   OH2 7481   3.181   5.699   4.159  0.1955  0.2683  0.9378
 2200TIP3    H1 7482   3.232   5.624   4.187  0.6472  0.9052  1.8824
 2200TIP3    H2 7483   3.203   5.710   4.066 -3.5827 -3.6906 -0.7680
 2201TIP3   OH2 7484   7.296   9.120   3.079 -0.0841 -0.5016  0.1872
 2201TIP3    H1 7485   7.372   9.150   3.030 -1.4257  1.4830 -0.8598
 2201TIP3    H2 7486   7.252   9.058   3.020 -0.8801  0.7271 -0.5720
 2202TIP3   OH2 7487   5.880   2.307   4.996  0.0611  0.0098 -0.1707
 2202TIP3    H1 7488   5.847   2.218   5.011  0.4256 -0.3535 -1.4666
 2202TIP3    H2 7489   5.803   2.356   4.965  0.4064 -0.4948 -1.8750
 2203TIP3   OH2 7490   8.168  10.738   9.711  0.4331  0.0518 -0.6867
 2203TIP3    H1 7491   8.166  10.642   9.721  2.1251  0.0667  0.1990
 2203TIP3    H2 7492   8.233  10.753   9.641  0.0255  0.5497 -0.9626
 2204TIP3   OH2 7493  10.358   8.094   7.545  0.5028  0.5583  0.0742
 2204TIP3    H1 7494  10.410   8.124   7.470  2.0514 -1.2710  0.3212
 2204TIP3    H2 7495  10.371   7.999   7.545 -1.3236  0.2770  1.3372
 2205TIP3   OH2 7496   2.594   2.135   5.914  0.7507  0.4379  0.0958
 2205TIP3    H1 7497   2.556   2.212   5.956  0.6048  0.1418  0.5179
 2205TIP3    H2 7498   2.685   2.135   5.941  0.6275  0.1790  0.5219
 2206TIP3   OH2 7499   0.141   9.766   2.221  0.2125 -0.0569  0.5615
 2206TIP3    H1 7500   0.080   9.780   2.149  0.5719 -0.6132  0.1372
 2206TIP3    H2 7501   0.086   9.758   2.298 -0.1892  0.3706  0.3260
 2207TIP3   OH2 7502   3.182   5.370   7.938  0.7315  0.5680  0.3721
 2207TIP3    H1 7503   3.201   5.361   8.031  1.5650 -1.0323  0.0858
 2207TIP3    H2 7504   3.232   5.300   7.896 -0.5700  0.4914 -1.1616
 2208TIP3   OH2 7505   1.162   3.613  10.179 -0.1892  0.2891  0.2855
 2208TIP3    H1 7506   1.209   3.651  10.253 -1.5867  1.5352  0.5810
 2208TIP3    H2 7507   1.142   3.524  10.207  1.7340 -0.1850  0.2475
 2209TIP3   OH2 7508   0.644   3.270   1.119  0.3704  0.1426 -0.3594
 2209TIP3    H1 7509   0.719   3.301   1.171 -0.1151  1.2042 -0.2537
 2209TIP3    H2 7510   0.591   3.349   1.106 -1.3186 -0.7880  0.5380
 2210TIP3   OH2 7511   0.698   5.068   2.945 -0.3945 -0.0626 -0.1642
 2210TIP3    H1 7512   0.678   5.147   2.896  0.9598  1.1363  1.1295
 2210TIP3    H2 7513   0.615   5.044   2.986 -1.1970 -0.2681 -1.8174
 2211TIP3   OH2 7514   7.009   9.419   5.577 -0.1610 -0.1983  0.4316
 2211TIP3    H1 7515   7.066   9.497   5.582 -0.2302  0.0474 -1.5043
 2211TIP3    H2 7516   6.924   9.449   5.608 -0.3274  0.7104 -0.7972
 2212TIP3   OH2 7517   7.007   5.088   6.978 -0.4172 -0.2945 -0.1848
 2212TIP3    H1 7518   7.071   5.018   6.969 -0.7707 -0.4464 -1.9029
 2212TIP3    H2 7519   6.922   5.044   6.977 -0.5998 -0.0271  1.2687
 2213TIP3   OH2 7520   1.724   4.069   9.335  0.6902  0.2549  0.0680
 2213TIP3    H1 7521   1.726   3.976   9.316 -1.0325  0.4112 -1.2127
 2213TIP3    H2 7522   1.693   4.075   9.426  0.3547 -0.4252  0.0013
 2214TIP3   OH2 7523   3.827   1.975   9.906 -0.3082  0.3766 -0.3544
 2214TIP3    H1 7524   3.897   1.978   9.972 -0.1290 -0.4494 -0.4917
 2214TIP3    H2 7525   3.871   1.996   9.824 -0.7335  2.4945 -0.0914
 2215TIP3   OH2 7526   0.989   8.218   6.455 -0.1004  0.7391  0.0666
 2215TIP3    H1 7527   0.945   8.301   6.472 -0.4053  0.5404  0.2473
 2215TIP3    H2 7528   0.919   8.157   6.432  0.2779  0.9453 -1.7778
 2216TIP3   OH2 7529  10.468   0.633  10.658 -0.3197 -0.0768  0.2385
 2216TIP3    H1 7530  10.381   0.615  10.623  0.5671  0.8141 -2.6491
 2216TIP3    H2 7531  10.452   0.694  10.730 -2.1085 -0.5344  0.2806
 2217TIP3   OH2 7532   8.805   2.082   5.864  0.2386  0.2021 -0.2491
 2217TIP3    H1 7533   8.712   2.104   5.861  0.3374  0.5593 -0.8648
 2217TIP3    H2 7534   8.844   2.151   5.917  0.1251 -0.0486  0.1608
 2218TIP3   OH2 7535   1.103   2.478   1.984  0.1811  0.2169 -0.0281
 2218TIP3    H1 7536   1.170   2.463   2.050  0.6355 -0.8810 -0.7270
 2218TIP3    H2 7537   1.026   2.504   2.035  0.0799 -2.0392  1.0753
 2219TIP3   OH2 7538  10.829   2.355   4.040  0.2845  0.4952 -0.1636
 2219TIP3    H1 7539  10.773   2.279   4.057 -1.9177  2.2680  0.8767
 2219TIP3    H2 7540  10.891   2.323   3.975  0.4416 -2.6366  1.3077
 2220TIP3   OH2 7541   6.544   9.600   7.017  0.6342  0.5688  0.3735
 2220TIP3    H1 7542   6.638   9.613   7.006  0.8859  1.1819  2.6768
 2220TIP3    H2 7543   6.504   9.670   6.965  1.3919 -0.0772 -1.1388
 2221TIP3   OH2 7544   3.459   1.598  10.822 -0.1036  0.2305 -0.2395
 2221TIP3    H1 7545   3.467   1.600  10.726  1.1638 -1.6751 -0.2308
 2221TIP3    H2 7546   3.393   1.531  10.839  1.2297 -0.9952  0.2389
 2222TIP3   OH2 7547  10.481   8.148   4.496 -0.2084 -0.0998 -0.2670
 2222TIP3    H1 7548  10.443   8.066   4.463 -1.0259  0.6585 -1.2951
 2222TIP3    H2 7549  10.555   8.165   4.438 -0.1769 -0.0010 -0.1983
 2223TIP3   OH2 7550  10.894   2.120   6.922  0.4541 -0.2340  0.8735
 2223TIP3    H1 7551  10.872   2.176   6.996 -2.2306 -0.2381  0.1707
 2223TIP3    H2 7552  10.821   2.130   6.861  1.6546 -1.7027 -0.9261
 2224TIP3   OH2 7553   9.511   7.906   9.606 -0.3175  0.0570 -0.8910
 2224TIP3    H1 7554   9.489   7.812   9.606 -0.8822  0.1783 -1.6537
 2224TIP3    H2 7555   9.567   7.917   9.683  0.7238 -1.1319 -1.4321
 2225TIP3   OH2 7556   1.943   2.308   1.016  0.2128 -0.8387  0.1906
 2225TIP3    H1 7557   1.878   2.294   1.084 -0.9565 -1.2849 -0.9643
 2225TIP3    H2 7558   1.898   2.284   0.935  1.5106 -0.2119 -0.7548
 2226TIP3   OH2 7559   3.965   9.037   7.713  0.3471  0.0739  0.4140
 2226TIP3    H1 7560   3.902   9.109   7.711 -0.5402 -0.6738 -0.0906
 2226TIP3    H2 7561   4.050   9.079   7.716 -0.1258  1.1539 -0.4329
 2227TIP3   OH2 7562   4.737   6.767   2.702 -0.5374 -0.2186 -0.1441
 2227TIP3    H1 7563   4.767   6.728   2.620  1.0828 -0.5699  0.5661
 2227TIP3    H2 7564   4.701   6.693   2.752  0.2566 -0.3871  0.2063
 2228TIP3   OH2 7565   4.658   9.469   9.415  0.1687  0.2441 -0.1222
 2228TIP3    H1 7566   4.578   9.517   9.393  0.6608  1.9974  1.6523
 2228TIP3    H2 7567   4.721   9.496   9.348  0.3585  1.9397  0.6927
 2229TIP3   OH2 7568   3.289   8.674   2.753 -0.3011  0.3283  0.1833
 2229TIP3    H1 7569   3.304   8.641   2.665 -2.0785 -0.6465  0.2043
 2229TIP3    H2 7570   3.283   8.769   2.742 -1.3441  0.1530 -0.8927
 2230TIP3   OH2 7571   7.186   8.584   9.991  0.4094 -0.4892 -0.5706
 2230TIP3    H1 7572   7.133   8.507  10.012 -0.0120 -0.2160 -0.6144
 2230TIP3    H2 7573   7.141   8.625   9.917 -0.9957  1.3594  1.2050
 2231TIP3   OH2 7574   7.551   9.742   2.909  0.0003  0.1916 -0.1923
 2231TIP3    H1 7575   7.584   9.754   2.998  2.1568  0.7976 -0.9906
 2231TIP3    H2 7576   7.568   9.651   2.888  1.3381  0.5184 -0.6237
 2232TIP3   OH2 7577   2.052  10.621   4.545  0.4056 -0.2412 -0.3624
 2232TIP3    H1 7578   2.138  10.603   4.507  0.3154 -1.0877 -0.1713
 2232TIP3    H2 7579   2.050  10.571   4.627 -0.1397  0.0396 -0.1980
 2233TIP3   OH2 7580   7.484  10.595   3.342  0.9445 -0.1179 -0.1126
 2233TIP3    H1 7581   7.556  10.551   3.388 -0.9072 -1.8684  1.3469
 2233TIP3    H2 7582   7.444  10.651   3.408 -1.4789 -2.3167  0.4674
 2234TIP3   OH2 7583  10.383   9.709   5.443  0.2987  0.1613  0.0728
 2234TIP3    H1 7584  10.427   9.794   5.437 -1.2424  0.9509 -0.5246
 2234TIP3    H2 7585  10.437   9.658   5.505  2.3586  0.8471 -1.0686
 2235TIP3   OH2 7586   3.940   5.940   9.538 -0.3284  0.2345 -0.0269
 2235TIP3    H1 7587   4.027   5.902   9.552  0.3861  2.1455  1.1324
 2235TIP3    H2 7588   3.882   5.887   9.592 -0.2108 -1.9501 -1.8850
 2236TIP3   OH2 7589   5.743   9.447   1.419 -0.1502 -0.4295 -0.5507
 2236TIP3    H1 7590   5.688   9.469   1.344  0.0682 -0.4837 -0.7259
 2236TIP3    H2 7591   5.804   9.382   1.386  2.0851  1.8614 -1.2034
 2237TIP3   OH2 7592   8.576   0.070   5.612 -0.0645 -0.7632  0.4587
 2237TIP3    H1 7593   8.577   0.066   5.708  0.0463  0.1236  0.4987
 2237TIP3    H2 7594   8.486   0.049   5.588 -0.3985  0.2049  0.8209
 2238TIP3   OH2 7595   6.078   2.394   0.441 -0.2912 -0.2971 -0.1885
 2238TIP3    H1 7596   6.169   2.370   0.425  0.0251  0.1519  0.8249
 2238TIP3    H2 7597   6.034   2.312   0.459 -0.5083 -0.7423 -2.4205
 2239TIP3   OH2 7598   2.295   2.126   7.195  0.0615  0.4596  0.5554
 2239TIP3    H1 7599   2.228   2.140   7.262 -0.0528 -0.0226  0.5437
 2239TIP3    H2 7600   2.374   2.105   7.244  0.2333  1.1190  0.5729
 2240TIP3   OH2 7601   7.190   6.303   7.156  0.0712  0.4852 -0.6242
 2240TIP3    H1 7602   7.138   6.380   7.133 -2.4655 -0.9914 -0.2230
 2240TIP3    H2 7603   7.199   6.254   7.074  0.9224  0.7395 -0.6977
 2241TIP3   OH2 7604   3.124  10.126   5.879  0.4202  0.0243  0.1591
 2241TIP3    H1 7605   3.042  10.114   5.928  0.4805 -0.0976  0.2293
 2241TIP3    H2 7606   3.141  10.220   5.885 -0.2096  0.2003 -0.6473
 2242TIP3   OH2 7607   5.604   2.642   8.046 -0.2064 -0.8605  0.2707
 2242TIP3    H1 7608   5.697   2.662   8.033 -0.2420 -1.2673 -0.6913
 2242TIP3    H2 7609   5.558   2.717   8.011 -0.2440 -0.0996  1.8531
 2243TIP3   OH2 7610   3.158   4.054   2.969  0.2088 -0.2677  0.6618
 2243TIP3    H1 7611   3.068   4.027   2.985  0.1764 -0.2707  0.4722
 2243TIP3    H2 7612   3.155   4.105   2.888  0.7946 -2.6805 -1.0029
 2244TIP3   OH2 7613   7.137   0.270   1.819 -0.9558 -0.0848 -0.2539
 2244TIP3    H1 7614   7.160   0.322   1.896 -4.0347 -0.3768  1.0118
 2244TIP3    H2 7615   7.131   0.334   1.748  1.8965  0.1876 -0.3883
 2245TIP3   OH2 7616  10.304   3.715   1.730 -0.6943 -0.3327 -0.9560
 2245TIP3    H1 7617  10.345   3.655   1.668  0.0178 -1.2342  0.3341
 2245TIP3    H2 7618  10.266   3.659   1.798 -0.3853  0.6381  0.0699
 2246TIP3   OH2 7619   8.567   5.657   4.956 -0.0726  0.0589 -0.7289
 2246TIP3    H1 7620   8.477   5.635   4.983 -0.5872  2.2928 -0.4261
 2246TIP3    H2 7621   8.563   5.661   4.861 -0.1542 -0.3275 -0.7459
 2247TIP3   OH2 7622   0.320   5.160   8.599 -0.2528  0.9175 -0.5021
 2247TIP3    H1 7623   0.320   5.111   8.516 -0.0586 -0.1889  0.1218
 2247TIP3    H2 7624   0.339   5.093   8.666 -1.6472  1.5543  0.5807
 2248TIP3   OH2 7625   0.073   0.184   1.983  0.0951 -0.0617 -0.0573
 2248TIP3    H1 7626   0.156   0.147   1.953  0.2293  0.6977 -0.6341
 2248TIP3    H2 7627   0.040   0.234   1.908 -0.6638  0.0190  0.3185
 2249TIP3   OH2 7628   0.131   3.321   1.085  0.0388  0.0467  0.1980
 2249TIP3    H1 7629   0.206   3.276   1.046  1.4033  1.2842  1.2625
 2249TIP3    H2 7630   0.118   3.398   1.030 -0.5878 -0.2624 -0.0923
 2250TIP3   OH2 7631   7.838   2.193   2.954  0.2069  0.2570  0.5348
 2250TIP3    H1 7632   7.744   2.208   2.943 -0.0053 -1.5197 -0.5072
 2250TIP3    H2 7633   7.878   2.241   2.882 -0.0914 -0.5013 -0.1580
 2251TIP3   OH2 7634   6.746   8.773   6.591 -0.0592 -0.0701  0.2702
 2251TIP3    H1 7635   6.673   8.811   6.640 -2.6185 -1.4888 -2.0892
 2251TIP3    H2 7636   6.790   8.848   6.552 -0.7425  0.8077  1.1334
 2252TIP3   OH2 7637   2.707   9.137   0.235 -0.1039 -0.2724 -0.2536
 2252TIP3    H1 7638   2.621   9.104   0.206  0.4744 -0.0919 -2.3685
 2252TIP3    H2 7639   2.689   9.179   0.319 -1.9038 -1.0560 -0.1803
 2253TIP3   OH2 7640   0.222   5.978   4.016  0.2247  0.0780  0.0366
 2253TIP3    H1 7641   0.306   6.018   4.041  0.9908 -1.2214 -0.4147
 2253TIP3    H2 7642   0.239   5.884   4.013 -0.4140 -0.0321 -3.1366
 2254TIP3   OH2 7643   8.557   9.207   3.551  0.0959  0.1901 -0.3793
 2254TIP3    H1 7644   8.533   9.127   3.504 -0.4808 -0.5192  1.0560
 2254TIP3    H2 7645   8.475   9.255   3.559  0.0955  0.0895  0.2686
 2255TIP3   OH2 7646   3.331   2.617   7.745 -0.6306 -0.1554  0.5355
 2255TIP3    H1 7647   3.249   2.637   7.790 -1.8964 -0.7623 -1.3613
 2255TIP3    H2 7648   3.310   2.541   7.691  0.9940  0.1167 -0.5343
 2256TIP3   OH2 7649   3.859   9.434   6.806 -0.3707 -0.3509 -0.4030
 2256TIP3    H1 7650   3.933   9.429   6.866 -0.5206 -2.1679 -0.3186
 2256TIP3    H2 7651   3.897   9.457   6.721 -0.3195  4.0793  0.5575
 2257TIP3   OH2 7652   2.422   0.282   7.701  0.2046  0.4000 -0.8409
 2257TIP3    H1 7653   2.349   0.293   7.639  0.9262  1.0442 -1.5936
 2257TIP3    H2 7654   2.404   0.345   7.771 -0.5352 -0.2271 -0.4404
 2258TIP3   OH2 7655   7.713   8.686   7.005 -0.0007 -0.3278  0.0175
 2258TIP3    H1 7656   7.721   8.663   6.912  0.9091  0.5602 -0.1368
 2258TIP3    H2 7657   7.724   8.602   7.051 -1.6816 -0.9876 -0.6860
 2259TIP3   OH2 7658   9.635   2.510   5.979  0.1423  0.2640  0.3541
 2259TIP3    H1 7659   9.685   2.547   6.052  0.0524  0.3699  0.3621
 2259TIP3    H2 7660   9.695   2.446   5.940  0.2032  0.2304  0.4989
 2260TIP3   OH2 7661   3.173   7.629   0.947  0.3105  0.2008 -0.5386
 2260TIP3    H1 7662   3.134   7.589   0.868 -0.2940  0.7443 -0.5250
 2260TIP3    H2 7663   3.263   7.648   0.922  0.3892 -0.4799 -0.7927
 2261TIP3   OH2 7664   2.128   3.664   7.248 -0.0370 -0.5257 -0.2119
 2261TIP3    H1 7665   2.078   3.595   7.206  0.3759  0.5398 -2.6865
 2261TIP3    H2 7666   2.095   3.745   7.208 -1.4954  0.9698  3.5727
 2262TIP3   OH2 7667   1.196   8.959   5.234 -0.0233  0.4819 -0.0818
 2262TIP3    H1 7668   1.131   9.000   5.291 -0.9238  1.7317 -1.9257
 2262TIP3    H2 7669   1.150   8.886   5.192  1.0797 -1.4567  1.8532
 2263TIP3   OH2 7670   9.856   2.569   6.652 -0.0036 -0.0682 -0.4126
 2263TIP3    H1 7671   9.948   2.579   6.627  0.0874 -1.7226 -0.8729
 2263TIP3    H2 7672   9.858   2.556   6.747  0.2253  0.1219 -0.3901
 2264TIP3   OH2 7673   0.045   4.365   3.542 -0.1831 -0.6655  0.0476
 2264TIP3    H1 7674   0.048   4.285   3.595  0.3171 -0.7323 -0.0755
 2264TIP3    H2 7675  -0.012   4.342   3.468 -0.6341 -0.6688  0.3918
 2265TIP3   OH2 7676   2.118   3.107   6.183  0.1611  0.1238  0.2000
 2265TIP3    H1 7677   2.152   3.057   6.257 -0.8690 -0.0386  0.5842
 2265TIP3    H2 7678   2.112   3.045   6.111 -0.0355 -0.0276  0.3477
 2266TIP3   OH2 7679   2.689   5.210   8.150  0.2748 -0.4536 -0.3017
 2266TIP3    H1 7680   2.753   5.154   8.193  0.4812 -1.1253 -1.4230
 2266TIP3    H2 7681   2.661   5.159   8.073 -1.5925 -0.1905  0.1435
 2267TIP3   OH2 7682   5.741   4.550   5.781 -0.0823 -0.1881  0.1451
 2267TIP3    H1 7683   5.654   4.547   5.742 -0.3287 -0.0277  0.6704
 2267TIP3    H2 7684   5.800   4.518   5.713 -0.3865  0.9726 -0.6790
 2268TIP3   OH2 7685   1.744   2.271   5.859  0.2320  0.1272  0.3408
 2268TIP3    H1 7686   1.742   2.355   5.814 -1.3436  1.1887  2.2531
 2268TIP3    H2 7687   1.696   2.286   5.940  1.0405 -2.2874  1.3454
 2269TIP3   OH2 7688   8.468   0.523   0.473 -0.1353  0.3375 -0.0688
 2269TIP3    H1 7689   8.442   0.602   0.427  0.5014  0.6429  0.0899
 2269TIP3    H2 7690   8.462   0.453   0.408  0.9408  0.7947 -0.6661
 2270TIP3   OH2 7691   6.532   1.472   4.041  0.0341  0.3023  0.6171
 2270TIP3    H1 7692   6.467   1.496   3.975 -1.1104 -0.4679  1.4151
 2270TIP3    H2 7693   6.599   1.540   4.034  0.3370 -0.1488 -1.8139
 2271TIP3   OH2 7694   9.211   5.308   2.565  0.8170  0.2018  0.1944
 2271TIP3    H1 7695   9.257   5.311   2.481  0.6577  0.1340  0.1047
 2271TIP3    H2 7696   9.188   5.216   2.576  1.6061  0.0533  0.7286
 2272TIP3   OH2 7697   1.781  10.417   3.500 -0.5136 -0.3112 -0.0302
 2272TIP3    H1 7698   1.776  10.322   3.499 -0.5206 -0.3079 -0.3765
 2272TIP3    H2 7699   1.830  10.438   3.580  1.2513 -0.6903 -0.9663
 2273TIP3   OH2 7700   5.447   7.671   0.719 -1.0069  0.1269  0.0456
 2273TIP3    H1 7701   5.375   7.730   0.741 -1.5393 -0.3219 -0.4462
 2273TIP3    H2 7702   5.459   7.682   0.625 -0.1760  0.4685  0.1853
 2274TIP3   OH2 7703   2.814   8.986   1.427 -0.2259 -0.0777 -0.4135
 2274TIP3    H1 7704   2.784   9.041   1.355  0.5383 -0.3465 -0.9547
 2274TIP3    H2 7705   2.783   8.898   1.406 -0.2048 -0.1163 -0.2883
 2275TIP3   OH2 7706   4.975   9.480  10.286  0.4079 -0.2813 -0.6863
 2275TIP3    H1 7707   4.888   9.505  10.317  0.9349  0.2295  0.4714
 2275TIP3    H2 7708   4.981   9.516  10.198  0.3471  1.8833  0.1489
 2276TIP3   OH2 7709   6.211   2.231   9.163  0.4373  0.0990 -0.4607
 2276TIP3    H1 7710   6.181   2.249   9.253 -1.6832 -0.1526 -1.0589
 2276TIP3    H2 7711   6.257   2.147   9.170  1.6575  0.8171  0.6242
 2277TIP3   OH2 7712   8.765   7.403   2.984  0.3374  0.2363  0.4972
 2277TIP3    H1 7713   8.783   7.456   2.906  0.1343 -0.3757  0.0147
 2277TIP3    H2 7714   8.809   7.449   3.055  2.4420 -0.3114 -0.3468
 2278TIP3   OH2 7715   0.915   0.418   8.477 -0.0032  0.2004 -0.0413
 2278TIP3    H1 7716   0.881   0.431   8.565 -2.9199  4.2544 -1.4783
 2278TIP3    H2 7717   0.851   0.361   8.433  1.5176 -1.9375  0.3223
 2279TIP3   OH2 7718   2.046   5.774   1.160  0.0522  0.5020  0.2403
 2279TIP3    H1 7719   2.034   5.819   1.244 -0.8473 -0.5351  0.6769
 2279TIP3    H2 7720   2.141   5.770   1.149  0.2054 -0.0020  1.5722
 2280TIP3   OH2 7721   0.281   9.601   3.336  0.2268  0.3549 -0.6859
 2280TIP3    H1 7722   0.335   9.655   3.278  3.2382 -0.3339  1.2258
 2280TIP3    H2 7723   0.273   9.517   3.290  3.1433 -0.4139 -0.0313
 2281TIP3   OH2 7724   1.932   0.275   7.704  0.1457  0.2142 -0.7624
 2281TIP3    H1 7725   1.868   0.288   7.634  1.1397  0.4015 -1.6420
 2281TIP3    H2 7726   1.925   0.354   7.758 -1.5316 -0.4775  0.1357
 2282TIP3   OH2 7727   4.429   4.244   1.807 -0.2718 -0.3004 -0.4428
 2282TIP3    H1 7728   4.357   4.207   1.859 -0.0433 -0.6646 -0.3763
 2282TIP3    H2 7729   4.423   4.199   1.723  0.4921 -1.0905 -0.0912
 2283TIP3   OH2 7730   1.206  10.268   5.700 -0.4244 -0.5672 -0.2987
 2283TIP3    H1 7731   1.155  10.200   5.744 -0.5288 -1.2244 -1.4124
 2283TIP3    H2 7732   1.265  10.221   5.642  0.6772  0.2384  0.1314
 2284TIP3   OH2 7733   1.040   5.356   2.545  0.1767  0.7134 -0.2959
 2284TIP3    H1 7734   1.135   5.347   2.557 -0.3417 -3.5549  2.3409
 2284TIP3    H2 7735   1.012   5.412   2.618  0.6220  2.4717 -1.4142
 2285TIP3   OH2 7736   9.197   1.440   9.750  0.3442  0.0326  0.9892
 2285TIP3    H1 7737   9.189   1.349   9.724  0.2114  0.5195 -0.8059
 2285TIP3    H2 7738   9.239   1.437   9.836 -0.1849 -1.7247  1.2194
 2286TIP3   OH2 7739  10.486   5.800   8.226  0.3602 -0.4135 -0.3876
 2286TIP3    H1 7740  10.514   5.710   8.241  4.2047  0.8556  1.1835
 2286TIP3    H2 7741  10.544   5.834   8.158  1.1702  1.7006  1.2285
 2287TIP3   OH2 7742   3.675   7.379   2.952  0.4744  0.7108 -0.4668
 2287TIP3    H1 7743   3.595   7.430   2.946  0.1375  0.0754 -1.5791
 2287TIP3    H2 7744   3.728   7.409   2.878  1.2213  1.0365  0.1857
 2288TIP3   OH2 7745   6.530   0.197   2.551 -0.2999 -0.6933  0.5281
 2288TIP3    H1 7746   6.590   0.131   2.588 -0.4609 -0.8149  0.5728
 2288TIP3    H2 7747   6.473   0.221   2.625 -1.2365 -1.6224  0.1341
 2289TIP3   OH2 7748   6.195   5.986   9.673  0.2111 -0.3322 -0.0361
 2289TIP3    H1 7749   6.251   5.913   9.646 -0.8483 -0.8586 -0.8655
 2289TIP3    H2 7750   6.161   5.960   9.759  0.7296 -0.2955  0.1810
 2290TIP3   OH2 7751   8.113   9.116   2.709 -0.6474  0.2971 -0.8662
 2290TIP3    H1 7752   8.165   9.194   2.687  1.6036 -1.5248 -2.4859
 2290TIP3    H2 7753   8.161   9.075   2.781 -3.0741  1.4367  1.6257
 2291TIP3   OH2 7754   4.972   7.440   0.896  0.4408 -0.0915  0.2267
 2291TIP3    H1 7755   5.021   7.372   0.850  1.9880  2.0831 -1.5813
 2291TIP3    H2 7756   4.882   7.430   0.865  0.9075 -0.4579 -1.0723
 2292TIP3   OH2 7757   5.409   6.531   6.772  0.1015 -0.0761  0.3626
 2292TIP3    H1 7758   5.433   6.552   6.682 -1.3593 -0.6287 -0.1995
 2292TIP3    H2 7759   5.477   6.571   6.826  0.4708  1.1165 -0.9355
 2293TIP3   OH2 7760  10.453   0.652  10.339 -0.0161 -0.0639 -0.1671
 2293TIP3    H1 7761  10.430   0.743  10.321  3.8629  1.1436  0.2655
 2293TIP3    H2 7762  10.492   0.653  10.426  2.1144 -1.6776 -1.0130
 2294TIP3   OH2 7763   9.352   8.278   2.851 -0.0409 -0.2936 -0.8784
 2294TIP3    H1 7764   9.417   8.262   2.782  0.6439  1.3270 -0.6602
 2294TIP3    H2 7765   9.395   8.247   2.931 -0.8992 -2.3275 -1.1350
 2295TIP3   OH2 7766   4.131   3.446   2.656 -0.0735 -0.5651  0.3977
 2295TIP3    H1 7767   4.104   3.493   2.577 -1.3503 -0.4597  0.8603
 2295TIP3    H2 7768   4.061   3.466   2.720  0.0499 -2.0156  1.0159
 2296TIP3   OH2 7769   5.832   7.187   5.611 -0.0316 -0.1764  0.0953
 2296TIP3    H1 7770   5.831   7.273   5.569  2.1866 -1.0567 -2.0353
 2296TIP3    H2 7771   5.812   7.126   5.541  0.3119 -1.5250  1.1239
 2297TIP3   OH2 7772   6.112   1.470   9.713  0.1892  0.2855 -0.1463
 2297TIP3    H1 7773   6.202   1.443   9.727  0.3356  1.4512  1.4932
 2297TIP3    H2 7774   6.116   1.566   9.704 -1.0603  0.6630  2.3687
 2298TIP3   OH2 7775   9.119   4.603   9.134  0.1253  0.2618  0.1481
 2298TIP3    H1 7776   9.202   4.566   9.164 -0.6522  0.5128  2.8969
 2298TIP3    H2 7777   9.057   4.531   9.139  0.0611  0.1442 -1.6321
 2299TIP3   OH2 7778   0.862   7.445   2.194  0.3074 -0.3826 -0.2357
 2299TIP3    H1 7779   0.801   7.448   2.268 -1.3428  0.1973 -1.5574
 2299TIP3    H2 7780   0.865   7.535   2.163 -0.0709 -0.8492 -1.6764
 2300TIP3   OH2 7781   5.294  10.641   3.052  0.4292 -0.7007  0.5451
 2300TIP3    H1 7782   5.278  10.653   3.146  1.3775 -0.7733  0.7288
 2300TIP3    H2 7783   5.389  10.649   3.043  0.3096 -0.2813 -0.4772
 2301TIP3   OH2 7784   0.334   9.973   3.546 -0.5766  0.1960 -0.0732
 2301TIP3    H1 7785   0.332   9.982   3.451 -0.2571  1.7977  0.0381
 2301TIP3    H2 7786   0.416  10.015   3.573 -0.7402 -0.0934  0.9161
 2302TIP3   OH2 7787   9.579   9.735   5.947 -0.7795 -0.6586  0.7228
 2302TIP3    H1 7788   9.660   9.698   5.981 -0.6347 -0.3921  0.6740
 2302TIP3    H2 7789   9.513   9.666   5.959 -0.8789 -0.3532  2.1535
 2303TIP3   OH2 7790   4.834   2.339   4.899  0.3590 -0.0532 -0.5210
 2303TIP3    H1 7791   4.847   2.372   4.988  0.5431  1.8873 -1.2243
 2303TIP3    H2 7792   4.741   2.355   4.881  0.8960  2.2180 -1.6308
 2304TIP3   OH2 7793   4.103   4.449   3.143  0.3009  0.0804 -0.1903
 2304TIP3    H1 7794   4.194   4.423   3.157  0.1411 -0.7170 -0.5917
 2304TIP3    H2 7795   4.051   4.376   3.176 -0.1576 -0.0466 -1.1443
 2305TIP3   OH2 7796   8.085   9.019   2.237  0.5926 -0.1143 -0.0387
 2305TIP3    H1 7797   8.059   9.028   2.328 -0.6380  0.4567 -0.4387
 2305TIP3    H2 7798   8.003   9.010   2.188  1.2161 -0.1363 -1.1264
 2306TIP3   OH2 7799   0.707   9.979   8.275 -0.5364  0.3047 -0.0769
 2306TIP3    H1 7800   0.759   9.931   8.339  0.2891  0.2312 -0.7841
 2306TIP3    H2 7801   0.771  10.009   8.210 -1.4353 -0.2541 -1.2596
 2307TIP3   OH2 7802   6.083  10.819   6.028  0.4060 -0.2289 -0.4039
 2307TIP3    H1 7803   6.049  10.870   5.955  1.1503 -0.5091 -0.9522
 2307TIP3    H2 7804   6.031  10.848   6.103 -1.4973 -1.1200 -1.3254
 2308TIP3   OH2 7805   6.704  10.050   5.489 -0.0363  0.4874  0.1357
 2308TIP3    H1 7806   6.655   9.968   5.499  1.0374 -0.2666 -0.6264
 2308TIP3    H2 7807   6.730  10.051   5.397  1.8984  0.5492  0.6349
 2309TIP3   OH2 7808   3.279  10.546   6.197  0.4346 -0.6191 -0.2426
 2309TIP3    H1 7809   3.205  10.518   6.252 -0.4193 -3.3333 -2.5137
 2309TIP3    H2 7810   3.240  10.559   6.110  1.7920  3.1680 -0.4433
 2310TIP3   OH2 7811   5.162   1.441   3.296  0.9936 -0.5177  0.4093
 2310TIP3    H1 7812   5.252   1.474   3.297  1.5145 -1.8694 -0.2562
 2310TIP3    H2 7813   5.170   1.349   3.321 -0.1642 -0.7459 -0.0178
 2311TIP3   OH2 7814   5.273   8.882   9.071 -0.2207 -0.2542 -0.2841
 2311TIP3    H1 7815   5.235   8.890   9.158 -1.0794  1.0256 -0.7495
 2311TIP3    H2 7816   5.233   8.952   9.020  1.5466  0.1057 -1.2679
 2312TIP3   OH2 7817   5.953  10.777   1.653  0.2276 -0.2453 -0.4462
 2312TIP3    H1 7818   5.874  10.742   1.612  1.0497 -1.8478 -0.7519
 2312TIP3    H2 7819   5.938  10.872   1.657 -1.5718 -0.4720 -0.7467
 2313TIP3   OH2 7820   8.500   7.293   2.891  0.4260  0.4025 -0.7704
 2313TIP3    H1 7821   8.577   7.337   2.928  0.7672  1.2099 -2.3300
 2313TIP3    H2 7822   8.438   7.289   2.964  1.5115  0.7736  0.2174
 2314TIP3   OH2 7823   6.382  10.538   7.132 -0.5795 -0.0590 -0.7293
 2314TIP3    H1 7824   6.357  10.614   7.185  0.3087 -0.8885  0.9549
 2314TIP3    H2 7825   6.365  10.566   7.042 -3.0470  1.0605 -0.0020
 2315TIP3   OH2 7826   3.597   5.551  10.793  0.3014  0.7429 -0.1645
 2315TIP3    H1 7827   3.670   5.592  10.746  1.2832 -1.9255 -1.1626
 2315TIP3    H2 7828   3.628   5.544  10.884 -0.3496  3.0890  0.3060
 2316TIP3   OH2 7829   2.598   1.127   9.839  0.2581  0.0260 -0.1550
 2316TIP3    H1 7830   2.597   1.218   9.810  1.6090  0.4724  1.1178
 2316TIP3    H2 7831   2.590   1.077   9.758 -0.5649  1.2541 -0.8762
 2317TIP3   OH2 7832   7.706   1.367   7.970 -0.0300  0.1633 -0.0033
 2317TIP3    H1 7833   7.693   1.461   7.984 -1.2316 -0.1188  0.9523
 2317TIP3    H2 7834   7.715   1.331   8.058  0.4774 -0.6146 -0.3663
 2318TIP3   OH2 7835   1.715   5.116   2.847  0.2759  0.0332 -0.0982
 2318TIP3    H1 7836   1.800   5.159   2.837  0.7655 -0.9493 -0.2890
 2318TIP3    H2 7837   1.681   5.109   2.758 -0.3688  1.1040  0.0450
 2319TIP3   OH2 7838   8.812   2.524   9.499 -0.1408 -0.5915 -0.0959
 2319TIP3    H1 7839   8.897   2.566   9.491  0.0507 -1.0518 -0.5474
 2319TIP3    H2 7840   8.771   2.537   9.414 -0.5119 -0.3968  0.1113
 2320TIP3   OH2 7841   5.253  10.115   9.472 -0.4070 -0.1169  0.0793
 2320TIP3    H1 7842   5.328  10.173   9.470  0.3373 -1.0735 -1.8511
 2320TIP3    H2 7843   5.290  10.029   9.492 -0.7768 -0.8233 -2.0836
 2321TIP3   OH2 7844  10.425   2.547   7.455 -0.5211 -0.0974 -0.3023
 2321TIP3    H1 7845  10.457   2.459   7.474 -1.7676 -0.6764 -0.7796
 2321TIP3    H2 7846  10.361   2.535   7.385 -0.9586  1.1430 -0.1437
 2322TIP3   OH2 7847   1.061   3.758   5.184  0.5135 -0.0110  0.0734
 2322TIP3    H1 7848   1.088   3.773   5.275 -0.6953 -2.3787  0.8847
 2322TIP3    H2 7849   1.034   3.667   5.181 -2.8572  0.9015 -1.8057
 2323TIP3   OH2 7850   1.441   1.044   5.236 -0.1714 -0.1353 -0.1576
 2323TIP3    H1 7851   1.354   1.007   5.245  0.8285 -2.0158  3.1720
 2323TIP3    H2 7852   1.498   0.969   5.219  1.0830  0.7737 -0.1168
 2324TIP3   OH2 7853   1.577   0.591   6.202 -0.0928 -0.2114  0.2759
 2324TIP3    H1 7854   1.488   0.577   6.169 -0.6616  1.2466  1.1039
 2324TIP3    H2 7855   1.625   0.628   6.127 -0.6143  0.4398  0.2517
 2325TIP3   OH2 7856   1.789   5.889   4.824 -0.6441  0.3421 -0.4415
 2325TIP3    H1 7857   1.809   5.839   4.744  1.2180  2.5625 -1.4961
 2325TIP3    H2 7858   1.725   5.954   4.796  0.1052  1.2081 -0.2013
 2326TIP3   OH2 7859  10.266   6.163   8.828  0.1247  0.1500 -0.3921
 2326TIP3    H1 7860  10.303   6.220   8.896 -1.2507  0.8148 -0.1498
 2326TIP3    H2 7861  10.178   6.198   8.814 -0.6470 -1.7368 -0.4920
 2327TIP3   OH2 7862  10.561   4.795  10.046  0.2441  0.0737 -0.0341
 2327TIP3    H1 7863  10.649   4.764  10.067  1.2842  2.7262 -0.1379
 2327TIP3    H2 7864  10.504   4.721  10.067  2.4517 -1.6535  0.2164
 2328TIP3   OH2 7865   5.510   8.814   8.337 -0.2354 -0.3171 -0.2359
 2328TIP3    H1 7866   5.590   8.778   8.374 -0.5030  1.2035  2.0111
 2328TIP3    H2 7867   5.442   8.751   8.360  0.2052 -1.4582 -1.8842
 2329TIP3   OH2 7868   5.294   4.573  10.778 -0.3679  0.8547  0.0825
 2329TIP3    H1 7869   5.361   4.564  10.845  1.3601 -1.5876 -1.7636
 2329TIP3    H2 7870   5.211   4.559  10.824  0.7727 -1.1568  1.6686
 2330TIP3   OH2 7871   1.695  10.837   5.958  0.4331 -0.3963  0.3630
 2330TIP3    H1 7872   1.686  10.760   5.901  1.3358  0.1215 -0.5054
 2330TIP3    H2 7873   1.639  10.903   5.918  0.4459 -0.2845  0.5317
 2331TIP3   OH2 7874   6.059   7.166   5.002  0.1036 -0.1825 -0.7201
 2331TIP3    H1 7875   5.969   7.136   4.995 -0.6029  1.5815  0.1008
 2331TIP3    H2 7876   6.058   7.230   5.074  1.4001  1.8925 -2.3945
 2332TIP3   OH2 7877   6.250   2.598   7.570 -0.3299 -0.5207 -0.6222
 2332TIP3    H1 7878   6.306   2.529   7.606  0.0014 -1.5437 -2.9447
 2332TIP3    H2 7879   6.309   2.651   7.515 -0.9446  0.5936 -0.2548
 2333TIP3   OH2 7880   4.436   9.993   8.429 -0.1999 -0.6532  0.1332
 2333TIP3    H1 7881   4.343   9.998   8.448 -0.0271  1.0112  0.6811
 2333TIP3    H2 7882   4.478   9.983   8.514  0.2034  0.2228  0.0452
 2334TIP3   OH2 7883   5.531   9.253   6.948 -0.2098  0.2444  0.2875
 2334TIP3    H1 7884   5.531   9.322   7.014 -1.3474 -0.0489  0.6115
 2334TIP3    H2 7885   5.495   9.176   6.993 -2.8949  0.5422 -1.1612
 2335TIP3   OH2 7886   4.080   0.005   8.786 -0.1959 -0.1162  0.4445
 2335TIP3    H1 7887   4.011   0.026   8.848  0.1771  1.2346  0.4290
 2335TIP3    H2 7888   4.037   0.005   8.700 -0.3859 -0.3632  0.5393
 2336TIP3   OH2 7889   3.179  10.463  10.306 -0.0206 -0.6457 -0.4328
 2336TIP3    H1 7890   3.205  10.537  10.251 -1.2349  0.0429 -0.0944
 2336TIP3    H2 7891   3.242  10.463  10.378 -0.5374  0.6223  0.0500
 2337TIP3   OH2 7892   2.982  10.816   2.758 -0.1369  0.4064  0.2347
 2337TIP3    H1 7893   3.020  10.889   2.709  0.1484 -0.2416 -0.5297
 2337TIP3    H2 7894   2.961  10.853   2.844  1.5244  0.9782  0.4256
 2338TIP3   OH2 7895   0.058   1.229   3.634 -0.1424  0.3139 -0.2198
 2338TIP3    H1 7896   0.081   1.314   3.595  1.4868  0.8041  1.6408
 2338TIP3    H2 7897   0.051   1.247   3.728 -2.1819 -1.1697 -0.0257
 2339TIP3   OH2 7898   9.090   7.459   6.843 -0.4579  0.6899 -0.4884
 2339TIP3    H1 7899   9.047   7.382   6.804 -1.4540  0.4818  0.9524
 2339TIP3    H2 7900   9.023   7.527   6.842  0.2577  1.4136 -1.2619
 2340TIP3   OH2 7901   6.947   4.392   6.937 -0.3117  0.4036 -0.3224
 2340TIP3    H1 7902   7.013   4.366   7.001 -0.7141  0.5778  0.1678
 2340TIP3    H2 7903   6.964   4.335   6.861 -0.9477 -1.0393  0.5836
 2341TIP3   OH2 7904   3.563   3.169   8.717 -0.1255  0.1395  0.8418
 2341TIP3    H1 7905   3.525   3.202   8.635 -0.6882 -1.7306  0.3078
 2341TIP3    H2 7906   3.623   3.238   8.744 -0.1562  0.9518 -0.9902
 2342TIP3   OH2 7907   4.879   7.761   1.211 -0.1366 -0.3172 -0.5562
 2342TIP3    H1 7908   4.904   7.675   1.244 -0.2035 -0.1055  0.0457
 2342TIP3    H2 7909   4.784   7.766   1.225 -0.0615  0.0386 -0.1610
 2343TIP3   OH2 7910   6.239   2.251   9.509 -0.8550  0.0542  0.4905
 2343TIP3    H1 7911   6.235   2.238   9.604 -0.0959  0.7353  0.6321
 2343TIP3    H2 7912   6.329   2.279   9.493 -0.2239 -2.4243 -0.7571
 2344TIP3   OH2 7913  10.387   7.926   3.554  0.0968  0.3589  0.3054
 2344TIP3    H1 7914  10.333   7.947   3.630 -0.5615 -0.8165  0.1893
 2344TIP3    H2 7915  10.455   7.993   3.553  0.6485 -0.0910  2.4505
 2345TIP3   OH2 7916   4.044   2.019   4.837 -0.2657  0.5517 -0.6612
 2345TIP3    H1 7917   4.011   2.066   4.760  1.5889  1.1834 -1.1353
 2345TIP3    H2 7918   4.138   2.037   4.837  0.8340 -3.8763 -1.4155
 2346TIP3   OH2 7919   4.413   8.064   0.388  0.4502 -0.4893  0.3732
 2346TIP3    H1 7920   4.353   8.004   0.344 -3.4845  2.2925  1.4161
 2346TIP3    H2 7921   4.449   8.013   0.460 -2.1588 -1.8893  0.8114
 2347TIP3   OH2 7922   6.427   3.729   3.484  0.0984  0.9515 -0.4217
 2347TIP3    H1 7923   6.517   3.730   3.516 -0.3307 -2.9439  1.4716
 2347TIP3    H2 7924   6.384   3.802   3.529  1.9401  1.9787 -0.2524
 2348TIP3   OH2 7925   6.359   1.494   0.045 -0.4370 -0.0634  0.5687
 2348TIP3    H1 7926   6.266   1.500   0.026 -0.3301  0.8318  0.3076
 2348TIP3    H2 7927   6.371   1.549   0.123 -0.3634 -1.3329  1.4991
 2349TIP3   OH2 7928   4.372  10.170   0.368 -0.2885 -0.6929  0.7608
 2349TIP3    H1 7929   4.392  10.170   0.275  0.5240 -1.3236  0.9264
 2349TIP3    H2 7930   4.453  10.196   0.411 -0.1477 -2.0465  1.3783
 2350TIP3   OH2 7931   4.668   7.888  10.583 -0.5298  0.1728  0.1320
 2350TIP3    H1 7932   4.697   7.806  10.623 -3.6094 -0.4588  1.3642
 2350TIP3    H2 7933   4.686   7.955  10.649 -1.1171 -0.0949  0.5735
 2351TIP3   OH2 7934   3.312   8.009   3.922 -0.2742  0.2125 -0.2089
 2351TIP3    H1 7935   3.286   8.099   3.944 -0.9403  0.7514 -2.9027
 2351TIP3    H2 7936   3.229   7.962   3.917  0.0802 -0.6249  1.2806
 2352TIP3   OH2 7937   7.021   0.088   0.473 -0.1646 -0.9469  0.0819
 2352TIP3    H1 7938   6.937   0.045   0.489 -1.0871 -0.2257 -2.3526
 2352TIP3    H2 7939   7.078   0.017   0.442  0.1067 -1.3891  1.5019
 2353TIP3   OH2 7940   7.606   3.304   0.523 -0.3102 -0.2753 -0.1871
 2353TIP3    H1 7941   7.679   3.281   0.581 -0.3824  0.4353  0.1985
 2353TIP3    H2 7942   7.529   3.304   0.580 -0.6631 -1.2814 -0.6472
 2354TIP3   OH2 7943   5.207   5.211   8.318  0.2732  0.5958  0.0117
 2354TIP3    H1 7944   5.299   5.216   8.344  1.1926 -1.0472 -2.4971
 2354TIP3    H2 7945   5.173   5.133   8.363  0.7147  0.0375 -0.6054
 2355TIP3   OH2 7946   2.237   5.799   7.027 -0.3894 -0.2186  0.3258
 2355TIP3    H1 7947   2.285   5.862   6.973 -0.2909 -0.0999  0.5500
 2355TIP3    H2 7948   2.242   5.717   6.977  0.3922 -0.3090  0.5277
 2356TIP3   OH2 7949   2.504   2.890   0.698 -0.8324  0.6005 -0.0648
 2356TIP3    H1 7950   2.475   2.981   0.699 -0.0714  0.9771 -2.6152
 2356TIP3    H2 7951   2.591   2.892   0.737 -0.4307  1.1862 -0.9396
 2357TIP3   OH2 7952   3.908   1.262   9.091 -0.6678  0.6726 -0.6167
 2357TIP3    H1 7953   3.928   1.206   9.017  0.8532  2.2424 -1.4665
 2357TIP3    H2 7954   3.880   1.345   9.053 -1.2209  1.0658  0.5735
 2358TIP3   OH2 7955   8.856   1.317   4.926 -0.2801  0.3954 -0.2663
 2358TIP3    H1 7956   8.833   1.358   4.843 -2.0438 -0.5230 -0.2665
 2358TIP3    H2 7957   8.773   1.295   4.966  0.5676 -1.2064  0.7256
 2359TIP3   OH2 7958   5.591   6.690  10.570 -0.2103  0.1936 -0.0921
 2359TIP3    H1 7959   5.508   6.729  10.597 -0.1200 -0.4675  1.2044
 2359TIP3    H2 7960   5.566   6.605  10.534 -0.0862 -0.1210  0.5478
 2360TIP3   OH2 7961   6.453   5.636   8.526  0.9023 -0.2157 -0.2123
 2360TIP3    H1 7962   6.511   5.658   8.598 -1.7355  0.7712  1.7919
 2360TIP3    H2 7963   6.399   5.714   8.514  0.1664 -0.9725 -2.1353
 2361TIP3   OH2 7964   0.749   3.060   8.233  0.3238  0.1851  0.2061
 2361TIP3    H1 7965   0.724   2.986   8.177  0.6652  0.4242 -0.2785
 2361TIP3    H2 7966   0.741   3.136   8.176 -1.6856  0.7540  1.1803
 2362TIP3   OH2 7967   7.162   5.260   5.852 -0.2003 -0.2670 -0.2004
 2362TIP3    H1 7968   7.242   5.283   5.899  0.1528  0.2148 -1.0219
 2362TIP3    H2 7969   7.129   5.183   5.898 -0.3959  0.7344  1.4508
 2363TIP3   OH2 7970   7.094   8.544   9.455 -0.0796 -0.3881  0.2520
 2363TIP3    H1 7971   7.151   8.619   9.437  0.2049 -0.2998  1.4812
 2363TIP3    H2 7972   7.012   8.582   9.486 -0.8851 -0.5153 -1.5380
 2364TIP3   OH2 7973   8.294   2.923   0.067 -0.0032  0.3887 -0.0551
 2364TIP3    H1 7974   8.241   2.939   0.145  0.4874 -0.1531  0.3936
 2364TIP3    H2 7975   8.354   2.998   0.063  0.1207  0.3051  0.2149
 2365TIP3   OH2 7976   4.379   8.152   3.157  0.4183  0.2193  0.0761
 2365TIP3    H1 7977   4.438   8.224   3.134  0.6531  0.7827  2.2164
 2365TIP3    H2 7978   4.436   8.075   3.159  0.5019  0.2528 -0.5717
 2366TIP3   OH2 7979   0.738   9.376   1.544 -0.1639 -0.3868 -0.4701
 2366TIP3    H1 7980   0.678   9.443   1.576 -0.5730 -0.1325 -1.7096
 2366TIP3    H2 7981   0.710   9.360   1.453  1.0614 -0.9346 -0.7716
 2367TIP3   OH2 7982   7.039   2.202  10.876 -0.0550  0.0399 -0.8661
 2367TIP3    H1 7983   7.021   2.289  10.842 -2.5791 -0.1423 -0.2132
 2367TIP3    H2 7984   7.122   2.210  10.921 -0.7257  2.4009  0.0702
 2368TIP3   OH2 7985   6.263   0.154   5.147  0.0561 -0.4264  0.1043
 2368TIP3    H1 7986   6.319   0.165   5.224  0.9994  0.2642 -0.6668
 2368TIP3    H2 7987   6.316   0.184   5.073 -1.2458  0.0646 -0.6744
 2369TIP3   OH2 7988   3.745  10.322   0.878  0.2130  0.7116 -0.3558
 2369TIP3    H1 7989   3.776  10.265   0.808  0.2070 -0.8554  0.8727
 2369TIP3    H2 7990   3.825  10.347   0.926  0.0549  0.4781  0.0313
 2370TIP3   OH2 7991   8.103   3.205  10.526  0.4033 -0.1067 -0.3349
 2370TIP3    H1 7992   8.172   3.211  10.593 -0.1370 -0.5516  0.2718
 2370TIP3    H2 7993   8.071   3.116  10.532  0.0942 -0.0417 -0.9493
 2371TIP3   OH2 7994   4.949   4.083   8.439  0.0595 -0.5360 -0.2569
 2371TIP3    H1 7995   4.935   4.153   8.376  2.1909 -0.8361 -1.1531
 2371TIP3    H2 7996   4.878   4.093   8.503 -0.3044  1.7472 -0.9458
 2372TIP3   OH2 7997   4.642   9.368  10.655 -0.3928  0.2625 -0.3306
 2372TIP3    H1 7998   4.710   9.348  10.719 -0.6124  0.7582  0.0610
 2372TIP3    H2 7999   4.689   9.402  10.579 -0.2544  1.5687  0.3139
 2373TIP3   OH2 8000   1.551   6.269   6.958 -0.3735  0.2301  0.1861
 2373TIP3    H1 8001   1.456   6.277   6.967 -0.2976  0.3107  0.9702
 2373TIP3    H2 8002   1.582   6.359   6.946 -0.2471  0.3884  1.5598
 2374TIP3   OH2 8003   9.173   3.587   4.548  0.8143  0.5260  0.1968
 2374TIP3    H1 8004   9.258   3.547   4.530 -0.0876 -2.4162  1.7588
 2374TIP3    H2 8005   9.172   3.601   4.643 -0.8197 -0.6118  0.3898
 2375TIP3   OH2 8006   2.073   3.163   0.929  0.2523  0.0237 -0.3675
 2375TIP3    H1 8007   2.071   3.079   0.883 -1.8874 -0.6307  0.8207
 2375TIP3    H2 8008   2.057   3.228   0.860 -2.5120 -0.9042 -0.7161
 2376TIP3   OH2 8009   6.469   8.720   6.359 -0.4415  0.0159  0.0518
 2376TIP3    H1 8010   6.540   8.770   6.400 -1.1223  1.3653 -0.3525
 2376TIP3    H2 8011   6.433   8.667   6.430  0.0483  0.4051  0.6012
 2377TIP3   OH2 8012   3.541   3.821   8.151  0.2605  0.0803  0.9321
 2377TIP3    H1 8013   3.449   3.796   8.136  0.9083 -2.8034  1.2449
 2377TIP3    H2 8014   3.538   3.880   8.226 -1.2926 -0.5287  1.3860
 2378TIP3   OH2 8015   4.183   3.145   1.536  0.1971  0.0839 -0.2013
 2378TIP3    H1 8016   4.144   3.058   1.531 -0.4571  0.3172  0.6338
 2378TIP3    H2 8017   4.131   3.191   1.601  0.2578  1.2512 -0.9428
 2379TIP3   OH2 8018   7.978   8.222   4.197  0.3352 -0.4483  0.5772
 2379TIP3    H1 8019   8.069   8.194   4.190  0.8205  0.8631  1.2646
 2379TIP3    H2 8020   7.962   8.271   4.117 -0.0820 -1.4451  0.0246
 2380TIP3   OH2 8021  10.703   9.944  10.607 -0.2385  0.0053  0.0991
 2380TIP3    H1 8022  10.697  10.000  10.684  0.6174  1.5714 -0.8962
 2380TIP3    H2 8023  10.648   9.869  10.627 -0.0028  0.3287  2.2366
 2381TIP3   OH2 8024   3.517   3.448  10.617 -0.1225 -0.7326 -0.6679
 2381TIP3    H1 8025   3.514   3.498  10.699  0.9189 -2.0563  0.2193
 2381TIP3    H2 8026   3.597   3.477  10.574 -0.9107  0.3107 -1.4829
 2382TIP3   OH2 8027   1.247   8.192   3.500  0.1113  0.0908  0.1678
 2382TIP3    H1 8028   1.223   8.234   3.582  1.1970  1.9252 -0.4002
 2382TIP3    H2 8029   1.187   8.227   3.435 -0.5209 -1.0979  0.0691
 2383TIP3   OH2 8030   4.626   4.076   2.502  0.1798 -0.8117 -0.2221
 2383TIP3    H1 8031   4.692   4.021   2.544  2.1447  1.3412 -0.2680
 2383TIP3    H2 8032   4.675   4.125   2.436 -1.8550 -0.4209 -1.5200
 2384TIP3   OH2 8033   2.831   0.928   6.736 -0.2105  0.1635  0.3927
 2384TIP3    H1 8034   2.822   0.845   6.783 -1.7332 -0.2376 -0.5625
 2384TIP3    H2 8035   2.757   0.980   6.766 -0.3998  0.4288 -0.5307
 2385TIP3   OH2 8036   3.232   3.330   0.551  0.1906  0.2018 -0.3398
 2385TIP3    H1 8037   3.149   3.378   0.558  0.8736  1.5683 -1.2082
 2385TIP3    H2 8038   3.219   3.270   0.477 -0.0356  0.3688 -0.4357
 2386TIP3   OH2 8039   3.508   6.148   3.737  0.1224 -0.5063  0.5590
 2386TIP3    H1 8040   3.568   6.222   3.745 -1.5983  0.7439  3.5115
 2386TIP3    H2 8041   3.464   6.162   3.653  2.5457 -0.4594 -0.7985
 2387TIP3   OH2 8042   0.267   7.446   8.974  0.0242  0.1780  0.2237
 2387TIP3    H1 8043   0.195   7.385   8.959 -1.4583  1.7711  0.5822
 2387TIP3    H2 8044   0.300   7.468   8.887 -2.0615  1.8616 -0.2037
 2388TIP3   OH2 8045   9.397   9.988   4.519 -0.6650 -0.0214 -0.5755
 2388TIP3    H1 8046   9.450   9.933   4.462  1.0998  0.5102  0.4740
 2388TIP3    H2 8047   9.434   9.975   4.606 -1.5307  1.2429  0.0148
 2389TIP3   OH2 8048   4.291   2.128   4.867  0.2414 -0.6070  0.2396
 2389TIP3    H1 8049   4.329   2.110   4.953  0.6832 -0.5084  0.0685
 2389TIP3    H2 8050   4.331   2.211   4.840  0.2855 -0.7580 -0.1634
 2390TIP3   OH2 8051   9.182  10.783  10.318  0.3773 -0.0388 -0.3596
 2390TIP3    H1 8052   9.092  10.803  10.344  0.0600  0.1195 -1.5166
 2390TIP3    H2 8053   9.237  10.829  10.383 -0.3274 -1.8249  1.6200
 2391TIP3   OH2 8054   8.877   4.005   4.781 -0.3352 -0.0511 -0.0272
 2391TIP3    H1 8055   8.968   4.024   4.805 -0.5256 -0.7710  1.3852
 2391TIP3    H2 8056   8.833   4.090   4.787  0.0375  0.1262  0.3275
 2392TIP3   OH2 8057   0.740   8.463   1.165 -0.1447 -0.0292  0.4850
 2392TIP3    H1 8058   0.736   8.371   1.192 -1.6574  0.4262  1.9916
 2392TIP3    H2 8059   0.834   8.482   1.160  0.2144 -1.7795 -0.4284
 2393TIP3   OH2 8060   1.377   1.205   6.410 -0.4426 -0.0405 -0.2027
 2393TIP3    H1 8061   1.294   1.248   6.390 -0.7096 -0.5325 -0.1495
 2393TIP3    H2 8062   1.442   1.254   6.360 -0.7876  0.2257 -0.3927
 2394TIP3   OH2 8063   5.584   5.044   2.785 -0.4402  0.4260  0.1878
 2394TIP3    H1 8064   5.646   5.075   2.719 -0.9981 -2.4374 -1.8933
 2394TIP3    H2 8065   5.638   5.015   2.858  0.5679 -0.3010 -0.8185
 2395TIP3   OH2 8066   9.561  10.679   1.617 -0.6296  0.2513  0.4031
 2395TIP3    H1 8067   9.530  10.757   1.573 -1.2960  0.6849  1.5843
 2395TIP3    H2 8068   9.483  10.624   1.627 -0.6300  0.4333  1.5487
 2396TIP3   OH2 8069  10.877   7.368   3.436 -0.3186  0.8882  0.2715
 2396TIP3    H1 8070  10.783   7.378   3.421 -0.0014  1.2506 -1.7707
 2396TIP3    H2 8071  10.918   7.393   3.353  1.8311  4.0024  2.0422
 2397TIP3   OH2 8072   3.664   6.911   1.880 -0.0440 -0.1180  0.1595
 2397TIP3    H1 8073   3.588   6.968   1.871 -1.5481 -1.6369  2.1696
 2397TIP3    H2 8074   3.726   6.942   1.814 -2.2134  1.4684 -1.2602
 2398TIP3   OH2 8075   1.956   9.638  10.333  0.0470 -0.2706  0.3030
 2398TIP3    H1 8076   1.878   9.652  10.279  1.8441 -1.3222 -2.7900
 2398TIP3    H2 8077   1.986   9.550  10.310  2.5527  0.3798  0.8104
 2399TIP3   OH2 8078   5.584   4.534   3.469 -0.2852  0.2367 -0.3134
 2399TIP3    H1 8079   5.545   4.513   3.384  0.7383  0.0859 -0.7597
 2399TIP3    H2 8080   5.668   4.575   3.448  0.0729  0.0258  0.6232
 2400TIP3   OH2 8081   9.771   7.693  10.068  0.1107 -0.9207 -0.1144
 2400TIP3    H1 8082   9.864   7.683  10.046  0.1546 -1.0857  0.1430
 2400TIP3    H2 8083   9.770   7.707  10.163 -0.1197 -0.8074 -0.1339
 2401TIP3   OH2 8084   4.288   8.673   1.666  0.2705 -0.3981  0.2928
 2401TIP3    H1 8085   4.325   8.651   1.580 -1.8565  0.4157 -0.9045
 2401TIP3    H2 8086   4.361   8.714   1.713  0.8620  1.6939 -2.1696
 2402TIP3   OH2 8087   5.826   0.924   0.361  0.4026  0.7576  0.3582
 2402TIP3    H1 8088   5.762   0.971   0.414 -0.8247  0.9091 -1.2003
 2402TIP3    H2 8089   5.776   0.855   0.317  1.0182  1.6618 -1.8813
 2403TIP3   OH2 8090   4.798   0.658   3.860  0.4164 -0.3660  0.1136
 2403TIP3    H1 8091   4.781   0.621   3.773 -1.6785 -1.4019  0.8960
 2403TIP3    H2 8092   4.805   0.581   3.917  0.4342  0.3338  1.0637
 2404TIP3   OH2 8093   2.046   5.315   7.515  0.4352 -0.3850 -0.6138
 2404TIP3    H1 8094   2.136   5.339   7.490  0.3637 -0.8816 -1.4014
 2404TIP3    H2 8095   2.057   5.251   7.585  0.6505  0.8995  0.5587
 2405TIP3   OH2 8096   2.821   2.385   3.712  0.7584  0.4063  0.3686
 2405TIP3    H1 8097   2.797   2.295   3.688 -0.5365  0.7637  0.2379
 2405TIP3    H2 8098   2.858   2.377   3.800  1.3997 -0.3487  0.0477
 2406TIP3   OH2 8099   7.290   5.059  10.121  0.4743  0.3996  0.3529
 2406TIP3    H1 8100   7.359   5.107  10.166 -0.6308  0.6304  1.8823
 2406TIP3    H2 8101   7.293   5.090  10.031  1.1341  1.7784  0.8316
 2407TIP3   OH2 8102  10.027   7.058   9.098  0.7019 -0.8977 -0.4053
 2407TIP3    H1 8103   9.938   7.021   9.096  0.1868  0.3014 -0.9782
 2407TIP3    H2 8104  10.049   7.062   9.191 -0.1966 -0.4103 -0.2008
 2408TIP3   OH2 8105   5.386   6.843   4.167  0.1167 -0.1253 -0.5056
 2408TIP3    H1 8106   5.441   6.921   4.164 -1.6903  1.1833 -2.5394
 2408TIP3    H2 8107   5.449   6.770   4.161  1.9411  0.9986  2.6307
 2409TIP3   OH2 8108   3.100   8.663   8.635  0.0285  0.4399  0.5976
 2409TIP3    H1 8109   3.137   8.702   8.555 -0.0068  0.7911  0.7488
 2409TIP3    H2 8110   3.029   8.608   8.604 -1.2329  2.0426  0.5027
 2410TIP3   OH2 8111   3.794   0.314   4.213  0.5122 -0.9417  0.7024
 2410TIP3    H1 8112   3.831   0.400   4.195 -2.4761  0.0878 -1.0651
 2410TIP3    H2 8113   3.777   0.315   4.308 -1.5161  1.3535  0.3903
 2411TIP3   OH2 8114   8.217   9.912   4.420  0.3609  0.2453 -0.1195
 2411TIP3    H1 8115   8.241   9.862   4.498  1.2233  0.2235 -0.3873
 2411TIP3    H2 8116   8.164   9.985   4.454 -1.1157 -0.9422  0.2511
 2412TIP3   OH2 8117   6.488   0.056  10.553  0.1311 -0.6788 -0.0309
 2412TIP3    H1 8118   6.439   0.064  10.471  1.5889  3.0141 -0.7604
 2412TIP3    H2 8119   6.571   0.016  10.528  0.5687  0.4306 -0.4138
 2413TIP3   OH2 8120   1.149   7.078   5.315  0.0999 -0.1862  0.4199
 2413TIP3    H1 8121   1.164   7.108   5.404 -1.6128 -1.1502  1.0729
 2413TIP3    H2 8122   1.218   7.013   5.299 -0.8542 -1.5978  1.8521
 2414TIP3   OH2 8123   2.448   3.742   4.755  0.4765  0.1012  0.0910
 2414TIP3    H1 8124   2.522   3.798   4.731 -0.1602  0.5075 -1.0026
 2414TIP3    H2 8125   2.474   3.701   4.838  1.3691  1.2437  0.3950
 2415TIP3   OH2 8126   0.272   4.206   6.906 -0.1761  0.2149 -0.2821
 2415TIP3    H1 8127   0.246   4.227   6.816  2.3396  1.4822 -0.8044
 2415TIP3    H2 8128   0.302   4.115   6.902 -1.9152 -0.3896 -0.2382
 2416TIP3   OH2 8129   5.476   3.592   4.343  0.1533 -0.0760  0.1487
 2416TIP3    H1 8130   5.386   3.624   4.353  0.5381  0.5789  1.8852
 2416TIP3    H2 8131   5.505   3.629   4.259 -0.0783  2.6357  1.1552
 2417TIP3   OH2 8132   7.201   1.228   2.518 -0.0143  0.1926 -0.3760
 2417TIP3    H1 8133   7.208   1.290   2.591  0.5273  0.4767 -0.6676
 2417TIP3    H2 8134   7.214   1.142   2.559 -1.3285  0.2102  0.1219
 2418TIP3   OH2 8135   0.259   8.960   2.186 -0.1811 -0.4972 -0.3846
 2418TIP3    H1 8136   0.308   9.008   2.252  0.7122 -0.4998 -1.0295
 2418TIP3    H2 8137   0.175   8.942   2.228  0.8144 -1.6503  1.2576
 2419TIP3   OH2 8138   8.457  10.071   3.015 -0.1157 -0.6601  0.2946
 2419TIP3    H1 8139   8.431  10.022   3.093  0.9690  0.3642  1.3454
 2419TIP3    H2 8140   8.375  10.103   2.977 -0.7157 -1.8919  0.5051
 2420TIP3   OH2 8141   1.117   2.656   8.877 -0.5203  0.0344  0.6149
 2420TIP3    H1 8142   1.211   2.645   8.861 -0.5401  2.3812 -2.0553
 2420TIP3    H2 8143   1.110   2.672   8.971  1.9776  1.4343  0.6513
 2421TIP3   OH2 8144   8.693   2.189   0.847 -0.1143 -0.1816 -0.5567
 2421TIP3    H1 8145   8.737   2.273   0.858 -1.7629  0.8556 -1.4582
 2421TIP3    H2 8146   8.619   2.192   0.908 -2.5079  0.7783 -3.2679
 2422TIP3   OH2 8147   6.796   4.612   3.828  0.6961  0.3296 -0.6491
 2422TIP3    H1 8148   6.750   4.668   3.891 -0.3022 -0.3888 -0.7270
 2422TIP3    H2 8149   6.734   4.601   3.756  0.6983 -1.2432 -0.4348
 2423TIP3   OH2 8150   2.855   8.121   2.073 -0.0728  0.2615  0.0212
 2423TIP3    H1 8151   2.765   8.130   2.043  0.2665  1.6731 -0.6210
 2423TIP3    H2 8152   2.903   8.192   2.031  1.1644  0.1095  1.0754
 2424TIP3   OH2 8153   3.647   8.047   1.259 -0.0804 -0.1219  0.2680
 2424TIP3    H1 8154   3.556   8.021   1.252  0.1661 -2.3779  3.3270
 2424TIP3    H2 8155   3.653   8.092   1.343  1.6056  0.1622  0.0449
 2425TIP3   OH2 8156   4.783   9.366   5.157  0.5154 -0.4542 -0.0308
 2425TIP3    H1 8157   4.695   9.369   5.194  0.8417 -1.3627  0.8542
 2425TIP3    H2 8158   4.787   9.281   5.112  0.4686  0.2025 -1.3351
 2426TIP3   OH2 8159   2.856   7.827   9.195 -0.0878 -0.1855  0.9606
 2426TIP3    H1 8160   2.827   7.917   9.214 -1.0156 -0.5000  1.0961
 2426TIP3    H2 8161   2.777   7.774   9.206  0.4452 -1.0172  0.8440
 2427TIP3   OH2 8162   7.227   7.434   7.915 -0.5148 -0.1094 -0.0481
 2427TIP3    H1 8163   7.188   7.484   7.844  0.4577  2.6958  1.2753
 2427TIP3    H2 8164   7.238   7.496   7.986  0.6625 -2.2523  1.7831
 2428TIP3   OH2 8165   2.195   7.823   2.691  0.8518 -0.3680  0.6985
 2428TIP3    H1 8166   2.217   7.861   2.606 -3.3820 -0.0672 -0.4678
 2428TIP3    H2 8167   2.189   7.898   2.750 -1.2438  0.1252 -0.0696
 2429TIP3   OH2 8168   6.513   8.225  10.124  0.0288 -0.2859  0.1813
 2429TIP3    H1 8169   6.433   8.198  10.079 -0.7644  0.4946  1.0819
 2429TIP3    H2 8170   6.493   8.311  10.159  1.9372  0.7852 -1.2010
 2430TIP3   OH2 8171   1.400  10.379   2.654  0.1311 -0.5216  0.0560
 2430TIP3    H1 8172   1.483  10.355   2.611  0.2109  2.2241 -1.5724
 2430TIP3    H2 8173   1.410  10.472   2.673 -2.6780 -0.0455 -0.4635
 2431TIP3   OH2 8174   0.095   8.620   5.299 -0.2306  0.0055  0.2507
 2431TIP3    H1 8175   0.173   8.636   5.352 -0.2940 -1.1947  0.7212
 2431TIP3    H2 8176   0.127   8.619   5.209 -0.1864  2.4875  0.1703
 2432TIP3   OH2 8177   7.140   8.677   5.049  0.0047  0.8808 -0.3893
 2432TIP3    H1 8178   7.118   8.691   5.141  1.2796  0.3455  0.0117
 2432TIP3    H2 8179   7.209   8.741   5.030  0.8707 -0.0650 -0.5132
 2433TIP3   OH2 8180   1.984   2.538  10.246 -0.6506  0.8639  0.4677
 2433TIP3    H1 8181   1.951   2.454  10.213  0.3819  1.0371 -1.1484
 2433TIP3    H2 8182   2.068   2.516  10.287 -0.3612  1.0927  0.0107
 2434TIP3   OH2 8183   7.149   7.101   9.676 -0.1813  0.1595 -0.5759
 2434TIP3    H1 8184   7.179   7.075   9.589 -0.3569  1.3626 -1.0199
 2434TIP3    H2 8185   7.229   7.117   9.726 -0.0811 -0.3146 -0.5798
 2435TIP3   OH2 8186   7.589   7.010   9.891  0.0177  0.4760  0.4668
 2435TIP3    H1 8187   7.657   6.962   9.844 -2.0425 -0.4152 -1.8109
 2435TIP3    H2 8188   7.547   6.945   9.946 -0.8624  0.2997 -0.3836
 2436TIP3   OH2 8189   2.318  10.408   2.325 -0.4572 -0.7696 -0.3544
 2436TIP3    H1 8190   2.290  10.479   2.266  0.5837 -0.9172 -1.0682
 2436TIP3    H2 8191   2.405  10.436   2.355 -0.8583 -0.8383  0.9089
 2437TIP3   OH2 8192   9.487  10.125   2.366  0.1258  0.4519 -0.0121
 2437TIP3    H1 8193   9.404  10.166   2.344  0.9053  1.7235 -0.6867
 2437TIP3    H2 8194   9.475  10.092   2.455 -2.2598 -2.5876 -1.3066
 2438TIP3   OH2 8195  10.836   6.800   1.652 -0.1846  0.0351  0.0183
 2438TIP3    H1 8196  10.898   6.772   1.584  1.2510 -0.9673  1.6538
 2438TIP3    H2 8197  10.766   6.844   1.604  1.3695  0.4562 -1.9991
 2439TIP3   OH2 8198   3.509   3.781   9.597 -0.1211  0.4750 -0.4397
 2439TIP3    H1 8199   3.455   3.748   9.669 -0.5042 -0.4293 -1.1202
 2439TIP3    H2 8200   3.445   3.808   9.530  0.2496  0.1608 -0.9240
 2440TIP3   OH2 8201   0.097   2.789   2.940  0.7616 -0.1166 -0.2757
 2440TIP3    H1 8202   0.034   2.723   2.968 -0.0542  0.9563  0.4934
 2440TIP3    H2 8203   0.093   2.786   2.844  0.8921 -1.2978 -0.2650
 2441TIP3   OH2 8204   1.023   7.106   2.908 -0.5639 -0.0299  0.3591
 2441TIP3    H1 8205   1.114   7.119   2.883 -0.4462 -2.3095 -0.6528
 2441TIP3    H2 8206   1.016   7.144   2.996  1.4005 -0.0439  0.5522
 2442TIP3   OH2 8207   0.829   6.185   1.221  0.4201 -0.1612  0.4764
 2442TIP3    H1 8208   0.915   6.192   1.262  0.0065  0.9052  1.1961
 2442TIP3    H2 8209   0.808   6.274   1.194  1.4156 -1.0118 -3.7090
 2443TIP3   OH2 8210   5.198   0.570   9.209  0.1761  0.0830 -0.1009
 2443TIP3    H1 8211   5.244   0.488   9.191 -0.3977 -0.3838  0.4985
 2443TIP3    H2 8212   5.138   0.581   9.136 -0.1150 -0.3083  0.0767
 2444TIP3   OH2 8213  10.452   5.336   7.483  1.0054  0.5717 -0.6529
 2444TIP3    H1 8214  10.485   5.423   7.501  1.7059  0.3100 -0.6289
 2444TIP3    H2 8215  10.422   5.303   7.568  1.9766  0.2912 -0.4036
 2445TIP3   OH2 8216   8.663   9.035  10.470  0.0697  0.4116  0.0374
 2445TIP3    H1 8217   8.621   9.038  10.385  1.3954 -0.7469 -0.7152
 2445TIP3    H2 8218   8.746   9.082  10.458  0.6023 -0.3846  0.4610
 2446TIP3   OH2 8219   0.115   8.651   4.807  0.0874  0.1286 -0.2833
 2446TIP3    H1 8220   0.053   8.627   4.875 -1.3444 -0.0149 -1.5977
 2446TIP3    H2 8221   0.072   8.720   4.758  1.5411  0.9845 -0.4257
 2447TIP3   OH2 8222   1.035   5.363   1.598 -0.2998  0.1408  0.2267
 2447TIP3    H1 8223   1.084   5.322   1.669 -0.2851 -0.9395 -0.3897
 2447TIP3    H2 8224   1.068   5.453   1.596  1.2182 -0.3747  0.2574
 2448TIP3   OH2 8225   6.148   2.331   9.771 -0.0610 -0.3823  0.1099
 2448TIP3    H1 8226   6.114   2.242   9.776  1.3880 -0.9438  0.4417
 2448TIP3    H2 8227   6.242   2.322   9.788  0.7047  0.8379 -2.8692
 2449TIP3   OH2 8228   0.527   5.803   9.102 -0.3727  0.0045  0.1677
 2449TIP3    H1 8229   0.609   5.852   9.105  0.7248 -1.6261 -1.0855
 2449TIP3    H2 8230   0.460   5.868   9.080  0.2494  1.6733  2.8378
 2450TIP3   OH2 8231   5.325   6.271   2.273  0.4955  0.2565  0.4184
 2450TIP3    H1 8232   5.337   6.332   2.200 -0.2591 -1.3268 -1.1056
 2450TIP3    H2 8233   5.296   6.189   2.231 -0.3606 -0.5875  2.5450
 2451TIP3   OH2 8234   2.204   2.015   9.428  0.1128 -0.2014 -0.6448
 2451TIP3    H1 8235   2.245   2.093   9.466 -0.0697 -0.0479 -0.7621
 2451TIP3    H2 8236   2.274   1.951   9.425  0.4788  0.2173 -1.3048
 2452TIP3   OH2 8237  10.146   4.870  10.497  0.3906  0.6400  0.4963
 2452TIP3    H1 8238  10.143   4.775  10.511  0.8754  0.1713 -2.0269
 2452TIP3    H2 8239  10.102   4.883  10.413 -0.5479  2.8095  1.2402
 2453TIP3   OH2 8240   8.020   4.710   9.131 -0.0849  0.2353 -0.1366
 2453TIP3    H1 8241   7.944   4.763   9.109 -0.3082 -0.1050 -0.1896
 2453TIP3    H2 8242   7.984   4.632   9.174  0.3616  1.0026  1.6963
 2454TIP3   OH2 8243   3.184   0.191   0.192 -0.3068  0.2253 -0.0080
 2454TIP3    H1 8244   3.265   0.223   0.153 -0.0994  0.9761  1.0022
 2454TIP3    H2 8245   3.129   0.269   0.203 -1.9545 -0.4874 -2.3670
 2455TIP3   OH2 8246   1.162   8.511   0.118  0.3765  0.5156  0.4525
 2455TIP3    H1 8247   1.127   8.576   0.179  1.1036  2.0137 -0.6773
 2455TIP3    H2 8248   1.242   8.480   0.160  1.4164  2.2751 -0.1217
 2456TIP3   OH2 8249   8.851   3.882  10.415 -0.2279 -0.8202  0.6719
 2456TIP3    H1 8250   8.833   3.973  10.438  1.2355 -0.6237  1.1861
 2456TIP3    H2 8251   8.812   3.870  10.329 -1.4802 -0.0712  1.1067
 2457TIP3   OH2 8252   6.880   5.618  10.346  0.6447  0.0754 -0.0315
 2457TIP3    H1 8253   6.965   5.657  10.366  0.5171  0.0749  0.5369
 2457TIP3    H2 8254   6.897   5.559  10.273  0.6251  2.0265 -1.7019
 2458TIP3   OH2 8255   3.428   2.187  10.136 -0.5901 -0.7171  0.0823
 2458TIP3    H1 8256   3.486   2.248  10.182 -0.5180 -0.7778  0.0722
 2458TIP3    H2 8257   3.358   2.242  10.101  0.2629 -0.4216 -1.2143
 2459TIP3   OH2 8258  10.496   8.028   5.143 -0.0793  0.0972  0.2878
 2459TIP3    H1 8259  10.404   8.002   5.139 -0.4912  1.2317  1.5270
 2459TIP3    H2 8260  10.542   7.951   5.175 -0.6271 -0.3960 -0.0869
 2460TIP3   OH2 8261  10.845   2.064   8.973  0.6929  0.2498  0.0764
 2460TIP3    H1 8262  10.853   2.119   8.895 -0.1757 -2.0831 -1.7971
 2460TIP3    H2 8263  10.782   2.110   9.029 -0.7735  0.7552 -1.8699
 2461TIP3   OH2 8264   6.452   7.471   2.290  0.3760  0.0204 -0.2012
 2461TIP3    H1 8265   6.443   7.564   2.271  0.4640  0.2914  1.0220
 2461TIP3    H2 8266   6.389   7.428   2.232 -1.0725  1.0026  0.5772
 2462TIP3   OH2 8267   6.497  10.111   9.402  0.4856  0.7702 -0.0589
 2462TIP3    H1 8268   6.511  10.202   9.429 -0.8729  1.5347 -1.7785
 2462TIP3    H2 8269   6.510  10.112   9.307 -3.0213 -0.0327 -0.6778
 2463TIP3   OH2 8270   8.233   7.860   9.020  0.0828 -0.3616 -0.4051
 2463TIP3    H1 8271   8.319   7.819   9.023  0.5007  0.4079 -1.2517
 2463TIP3    H2 8272   8.209   7.860   8.927 -1.8628 -2.5900  0.0132
 2464TIP3   OH2 8273  10.051   3.726   6.657  0.4011 -0.1751  0.0779
 2464TIP3    H1 8274  10.115   3.767   6.715 -1.1403  1.1172  0.9550
 2464TIP3    H2 8275   9.970   3.774   6.673 -0.1713  0.0576 -2.9828
 2465TIP3   OH2 8276   9.370  10.825   1.996 -0.2503  0.5330  0.3662
 2465TIP3    H1 8277   9.429  10.895   1.970  0.2662  0.3286  0.9635
 2465TIP3    H2 8278   9.424  10.746   1.996 -1.2083 -0.1884 -1.9294
 2466TIP3   OH2 8279   2.010   6.609   7.112  0.0334 -0.5240 -0.2355
 2466TIP3    H1 8280   2.027   6.515   7.124  0.6951 -0.0849  3.9254
 2466TIP3    H2 8281   2.095   6.646   7.089  0.0237 -0.8072 -0.7347
 2467TIP3   OH2 8282   7.386   6.655   0.782  0.5577  0.2742 -0.6543
 2467TIP3    H1 8283   7.302   6.691   0.809  0.3641 -0.6872  0.0631
 2467TIP3    H2 8284   7.386   6.662   0.687  0.2313  1.4854 -0.5879
 2468TIP3   OH2 8285   7.705   1.645   8.058 -0.1252  0.5900  0.1463
 2468TIP3    H1 8286   7.801   1.645   8.054  0.0393 -0.1700  2.5009
 2468TIP3    H2 8287   7.684   1.716   8.120 -0.9903 -0.1580  0.7331
 2469TIP3   OH2 8288   9.296   1.651   9.234  0.1891  0.3957  0.3624
 2469TIP3    H1 8289   9.336   1.570   9.266 -0.7424  0.3671  1.5383
 2469TIP3    H2 8290   9.291   1.708   9.311  0.2831  1.3576 -0.3178
 2470TIP3   OH2 8291   3.039   1.918   1.982  0.3291  0.6033 -0.0193
 2470TIP3    H1 8292   3.111   1.979   1.968  1.0336 -0.4168 -1.0731
 2470TIP3    H2 8293   2.992   1.952   2.058  1.6405  1.5494  0.3915
 2471TIP3   OH2 8294   9.049   0.286   5.762 -0.3967  0.8230 -0.0604
 2471TIP3    H1 8295   9.085   0.304   5.849  0.1656  0.6700 -0.2561
 2471TIP3    H2 8296   9.008   0.200   5.771  1.4594 -0.1724 -0.4520
 2472TIP3   OH2 8297   7.882   4.088   1.983 -0.2311 -0.2078 -0.0667
 2472TIP3    H1 8298   7.802   4.057   2.025 -1.2373  1.4517 -0.6639
 2472TIP3    H2 8299   7.877   4.183   1.989  0.5176  0.0267 -2.2284
 2473TIP3   OH2 8300   1.016   2.968   1.149 -0.1984  0.1385  0.9849
 2473TIP3    H1 8301   1.085   2.902   1.163  0.5744  0.4524 -1.0036
 2473TIP3    H2 8302   0.942   2.935   1.200  0.8403 -1.1502  1.7581
 2474TIP3   OH2 8303   9.380   4.926   6.583  0.3295  0.9591  0.5898
 2474TIP3    H1 8304   9.317   4.874   6.632 -0.6543  0.6513 -0.9353
 2474TIP3    H2 8305   9.380   4.887   6.495 -0.2895  3.3495 -0.5632
 2475TIP3   OH2 8306   5.253   4.942   9.062  0.0312 -0.6051 -0.1674
 2475TIP3    H1 8307   5.206   5.000   9.122 -0.1094 -2.4878  1.6489
 2475TIP3    H2 8308   5.314   4.894   9.118  0.8846 -1.4741 -1.7730
 2476TIP3   OH2 8309   1.325   1.532   6.666 -0.1017 -0.4170  0.4542
 2476TIP3    H1 8310   1.273   1.474   6.722 -0.0179 -0.5282  0.4155
 2476TIP3    H2 8311   1.279   1.616   6.670 -1.2115 -0.9172 -0.8463
 2477TIP3   OH2 8312   5.504   3.429   8.518  0.2005 -0.2459  0.0214
 2477TIP3    H1 8313   5.477   3.357   8.461 -0.9812 -0.0006  0.2303
 2477TIP3    H2 8314   5.562   3.389   8.583 -0.2349 -0.9707 -0.0213
 2478TIP3   OH2 8315   5.614   3.638  10.336  0.2439 -0.6484  0.3269
 2478TIP3    H1 8316   5.559   3.628  10.259 -0.0335  0.0913  0.4288
 2478TIP3    H2 8317   5.701   3.659  10.301  0.0768 -0.1273  0.2207
 2479TIP3   OH2 8318   2.135   6.150   8.424  0.5542  0.1977 -0.1572
 2479TIP3    H1 8319   2.226   6.123   8.420  0.6193 -0.0722  1.8748
 2479TIP3    H2 8320   2.090   6.078   8.469  0.0143  1.6960  1.8706
 2480TIP3   OH2 8321  10.213   3.374   8.848 -0.2320  0.6870  0.5375
 2480TIP3    H1 8322  10.217   3.306   8.915  1.9135  0.1652 -0.0281
 2480TIP3    H2 8323  10.235   3.328   8.766 -0.9194  1.6584 -0.2115
 2481TIP3   OH2 8324   3.199   5.667   5.708  0.2759  0.0076 -0.6095
 2481TIP3    H1 8325   3.158   5.730   5.648 -0.9167 -1.0677 -0.9484
 2481TIP3    H2 8326   3.188   5.582   5.665  1.7162 -0.4780 -0.0816
 2482TIP3   OH2 8327   3.735   3.158   7.543  0.7184 -0.1984 -0.0467
 2482TIP3    H1 8328   3.690   3.142   7.625  1.7699  1.4910  0.9192
 2482TIP3    H2 8329   3.746   3.071   7.503  1.5770 -1.2701  2.3436
 2483TIP3   OH2 8330   9.853   9.748   1.237 -0.3383 -0.4901 -0.2086
 2483TIP3    H1 8331   9.816   9.828   1.276 -0.4387  0.0854 -1.4414
 2483TIP3    H2 8332   9.783   9.713   1.182  0.5392 -0.0022 -1.6892
 2484TIP3   OH2 8333   7.627   4.175   5.125  0.3380 -0.1432  0.0577
 2484TIP3    H1 8334   7.599   4.192   5.035  0.9772  2.7541  0.3032
 2484TIP3    H2 8335   7.690   4.104   5.118  1.5882  1.0778 -2.0372
 2485TIP3   OH2 8336   4.787   3.552   5.821 -0.2643 -0.1267  0.3678
 2485TIP3    H1 8337   4.815   3.500   5.896 -0.3641  0.5923  0.9151
 2485TIP3    H2 8338   4.691   3.555   5.828 -0.3067 -0.3919 -0.0223
 2486TIP3   OH2 8339  10.431   3.315   0.642 -0.2467 -0.4367 -0.1261
 2486TIP3    H1 8340  10.461   3.277   0.560  0.7146 -1.2386  0.5588
 2486TIP3    H2 8341  10.388   3.243   0.688 -0.6503 -0.0392  0.1248
 2487TIP3   OH2 8342   7.517   4.470   0.413  0.0940  0.0537 -0.2065
 2487TIP3    H1 8343   7.498   4.388   0.369 -0.6440  0.3350 -0.4195
 2487TIP3    H2 8344   7.537   4.445   0.504 -2.7024 -0.1759  0.4484
 2488TIP3   OH2 8345   9.358   9.823   3.007  0.1683  0.2257  0.3873
 2488TIP3    H1 8346   9.316   9.892   2.956 -1.5837 -0.2568  1.1117
 2488TIP3    H2 8347   9.438   9.804   2.959 -1.0829  0.2311 -1.8468
 2489TIP3   OH2 8348  10.448   9.908   3.105 -0.0163  0.1322 -0.1519
 2489TIP3    H1 8349  10.394   9.987   3.103 -1.3350 -0.7059 -2.4843
 2489TIP3    H2 8350  10.529   9.932   3.061  0.1156  0.5278  0.3088
 2490TIP3   OH2 8351   1.499   7.316   5.309 -0.2265  0.0822  0.5814
 2490TIP3    H1 8352   1.474   7.323   5.217 -1.2296 -1.4126  0.7240
 2490TIP3    H2 8353   1.420   7.288   5.354  1.1060 -2.7552  1.3522
 2491TIP3   OH2 8354   9.990   0.155   8.543  0.2778 -0.4993  0.6743
 2491TIP3    H1 8355   9.997   0.096   8.468 -1.1802 -0.7007  0.6584
 2491TIP3    H2 8356  10.054   0.224   8.526  0.7313 -1.1250 -0.2084
 2492TIP3   OH2 8357  10.548  10.732   5.539  0.7363  0.8986 -0.6147
 2492TIP3    H1 8358  10.632  10.743   5.584  0.3965  0.4836  0.1437
 2492TIP3    H2 8359  10.482  10.739   5.608  0.3005 -2.0268 -0.6047
 2493TIP3   OH2 8360   7.726   7.710   8.776  0.3999  0.4537  0.4841
 2493TIP3    H1 8361   7.787   7.782   8.764  0.2699  0.3476 -0.9577
 2493TIP3    H2 8362   7.716   7.703   8.871  0.4642  2.2757  0.6573
 2494TIP3   OH2 8363   0.388   6.987   7.638 -0.3414 -0.6864  0.1846
 2494TIP3    H1 8364   0.456   6.949   7.693 -1.5245 -1.3118  1.2513
 2494TIP3    H2 8365   0.345   7.052   7.693 -0.2184  0.1498 -0.6841
 2495TIP3   OH2 8366  10.391   6.741   9.062  0.0055 -0.0063  0.5972
 2495TIP3    H1 8367  10.365   6.676   8.997 -0.2594 -1.0884  1.7329
 2495TIP3    H2 8368  10.312   6.756   9.114  0.2996  0.5639  0.8883
 2496TIP3   OH2 8369   7.577   4.471   3.952  0.1173  0.2685  0.4282
 2496TIP3    H1 8370   7.652   4.454   4.009 -0.1729 -0.8539  0.5009
 2496TIP3    H2 8371   7.598   4.552   3.907  2.5141 -1.2470 -1.3990
 2497TIP3   OH2 8372   1.014   4.840   9.044 -0.0503 -0.0334  0.2085
 2497TIP3    H1 8373   1.102   4.830   9.008 -0.0804  0.4786 -0.0041
 2497TIP3    H2 8374   0.963   4.770   9.001 -0.1094  0.6165 -0.8282
 2498TIP3   OH2 8375   0.911   1.737   9.237  0.0173 -0.0232  0.7099
 2498TIP3    H1 8376   0.824   1.726   9.276  0.4010  3.4564  3.0527
 2498TIP3    H2 8377   0.964   1.667   9.276 -1.0557 -0.3551  1.6271
 2499TIP3   OH2 8378   7.624   2.034   5.896  0.0248  0.2094 -0.2518
 2499TIP3    H1 8379   7.613   1.943   5.925 -0.2703  0.0634 -0.7986
 2499TIP3    H2 8380   7.537   2.060   5.866  0.1823  0.5666 -0.3953
 2500TIP3   OH2 8381   1.485   2.117   6.528 -0.1457 -0.7267 -0.5192
 2500TIP3    H1 8382   1.417   2.124   6.595  1.6712  1.3369  1.2685
 2500TIP3    H2 8383   1.462   2.184   6.463  0.0726 -0.1591 -0.0144
 2501TIP3   OH2 8384   5.869   2.961   9.867  0.0869 -0.1804 -0.3553
 2501TIP3    H1 8385   5.852   2.874   9.904 -1.3836  0.2767  0.1480
 2501TIP3    H2 8386   5.872   2.947   9.773  2.2212 -1.1172 -0.1863
 2502TIP3   OH2 8387   4.573   3.439   7.838 -0.1329  0.1063 -0.8421
 2502TIP3    H1 8388   4.598   3.357   7.795 -2.5228 -0.5716 -1.0643
 2502TIP3    H2 8389   4.526   3.411   7.917  0.0653  1.2822 -0.2935
 2503TIP3   OH2 8390   5.032   1.690   8.113 -0.4289  0.0938 -0.7785
 2503TIP3    H1 8391   5.023   1.657   8.203 -1.3014  2.6042  0.1333
 2503TIP3    H2 8392   5.104   1.639   8.076 -0.7742 -1.7961  0.9411
 2504TIP3   OH2 8393   5.407   1.560   8.759 -0.3655  0.1220  0.1625
 2504TIP3    H1 8394   5.347   1.587   8.828 -0.9258  1.5662 -0.8342
 2504TIP3    H2 8395   5.350   1.526   8.689  0.0615  0.2912 -0.2752
 2505TIP3   OH2 8396   0.470   5.624   0.219 -0.3549 -0.6282 -0.1455
 2505TIP3    H1 8397   0.419   5.553   0.181 -2.3671  1.2389 -1.2167
 2505TIP3    H2 8398   0.407   5.674   0.271  0.5044  1.3378 -0.8679
 2506TIP3   OH2 8399   4.083   5.335  10.549  0.4888  0.2996  0.0203
 2506TIP3    H1 8400   4.009   5.276  10.535 -1.0974  2.0609  0.4422
 2506TIP3    H2 8401   4.160   5.282  10.531 -0.7911 -2.0312  0.9071
 2507TIP3   OH2 8402   7.719   9.835   7.160  0.1296 -0.5338  0.4467
 2507TIP3    H1 8403   7.677   9.817   7.243 -1.1372  0.0491 -0.0442
 2507TIP3    H2 8404   7.683   9.771   7.099  0.9492 -0.8769  0.2990
 2508TIP3   OH2 8405   6.890   8.801   1.102 -0.0165  0.2336 -0.1999
 2508TIP3    H1 8406   6.929   8.888   1.110  0.0780  0.2683 -0.9792
 2508TIP3    H2 8407   6.923   8.752   1.177 -0.3930  0.9915  0.4709
 2509TIP3   OH2 8408  10.053   9.696  10.897 -0.4641 -0.7045 -1.4030
 2509TIP3    H1 8409  10.148   9.690  10.887  0.1392  1.9170  1.3657
 2509TIP3    H2 8410  10.034   9.789  10.892 -2.4262 -0.8607  1.2201
 2510TIP3   OH2 8411   2.739   2.534   0.999  0.4171 -0.3496 -0.0248
 2510TIP3    H1 8412   2.746   2.468   0.930  1.7107  0.1298 -0.3763
 2510TIP3    H2 8413   2.795   2.502   1.069  1.3887  0.5336 -0.3599
 2511TIP3   OH2 8414   4.063   9.642   5.239 -0.2561  0.0828  0.4240
 2511TIP3    H1 8415   3.969   9.627   5.233 -0.0592 -0.6577 -1.3179
 2511TIP3    H2 8416   4.074   9.735   5.219 -0.5852  0.1243  0.4369
 2512TIP3   OH2 8417   4.383   9.019   0.725  0.0227 -0.7149  0.5800
 2512TIP3    H1 8418   4.467   8.973   0.726  0.0298 -0.7953 -1.1673
 2512TIP3    H2 8419   4.385   9.074   0.803  1.2071 -1.5726  1.1776
 2513TIP3   OH2 8420   6.031   6.537   1.525  0.3425 -0.0802 -0.9978
 2513TIP3    H1 8421   6.038   6.633   1.529  0.8418 -0.0865 -1.6441
 2513TIP3    H2 8422   6.072   6.513   1.442  1.6337 -0.9748 -0.1445
 2514TIP3   OH2 8423   0.346   3.576   6.904  1.0724 -0.3716  0.0231
 2514TIP3    H1 8424   0.295   3.623   6.839  0.0428 -0.5282  0.6946
 2514TIP3    H2 8425   0.398   3.513   6.853 -0.6193 -1.3459 -0.5762
 2515TIP3   OH2 8426   3.210   0.347   1.475 -0.2620  0.1243  0.5404
 2515TIP3    H1 8427   3.288   0.385   1.435 -1.0854  1.1704 -0.1440
 2515TIP3    H2 8428   3.145   0.346   1.404 -1.2047  0.3183  1.3792
 2516TIP3   OH2 8429   1.260   3.454   8.416 -0.4015  0.2150  0.0015
 2516TIP3    H1 8430   1.315   3.439   8.339 -0.8874 -0.3554 -0.2413
 2516TIP3    H2 8431   1.308   3.520   8.467  0.1774  0.2167 -0.5292
 2517TIP3   OH2 8432   0.518   8.089   8.158 -0.1179 -0.1534 -0.2894
 2517TIP3    H1 8433   0.547   8.010   8.204 -2.5585 -0.5089  0.8305
 2517TIP3    H2 8434   0.461   8.133   8.221  0.3086  1.9450 -1.3030
 2518TIP3   OH2 8435   7.700   4.942   7.549  0.5813 -0.4627 -0.0692
 2518TIP3    H1 8436   7.791   4.919   7.528  0.9164  0.9805 -0.2520
 2518TIP3    H2 8437   7.707   5.003   7.622 -0.2923 -0.7728  0.2899
 2519TIP3   OH2 8438   8.776   5.775   9.179  0.0193  0.4343 -0.8642
 2519TIP3    H1 8439   8.824   5.697   9.206 -0.2079  1.2792  2.4121
 2519TIP3    H2 8440   8.697   5.741   9.136  0.7187 -1.0650 -1.0126
 2520TIP3   OH2 8441   4.069   0.129   5.194  0.6185 -0.2544 -0.0148
 2520TIP3    H1 8442   4.079   0.110   5.287 -1.8690  0.5832  0.5123
 2520TIP3    H2 8443   4.139   0.190   5.174 -0.1770  1.4629  1.9717
 2521TIP3   OH2 8444   9.317   8.292   4.486 -0.0442  0.1888  0.0864
 2521TIP3    H1 8445   9.237   8.241   4.480 -1.1072  1.9454 -3.2933
 2521TIP3    H2 8446   9.288   8.383   4.485  1.9269  0.8737 -0.9140
 2522TIP3   OH2 8447   6.566   3.462   9.334  0.3405  0.0707 -0.1614
 2522TIP3    H1 8448   6.660   3.478   9.339  0.7624 -1.6608 -1.5862
 2522TIP3    H2 8449   6.541   3.493   9.247 -0.4283  0.4494  0.1764
 2523TIP3   OH2 8450   1.847   6.924   8.325  0.2914  0.1325 -0.2337
 2523TIP3    H1 8451   1.816   7.003   8.279  1.4605  0.3969 -0.6001
 2523TIP3    H2 8452   1.932   6.949   8.360 -0.7941  0.1308  2.6424
 2524TIP3   OH2 8453   1.947   0.610  10.111 -0.2532 -0.3425 -0.2867
 2524TIP3    H1 8454   2.037   0.622  10.080 -0.1969  0.0038  0.0065
 2524TIP3    H2 8455   1.914   0.699  10.127 -0.7690 -0.4499 -0.7272
 2525TIP3   OH2 8456   2.723   6.659   4.144  0.3277 -0.4045  0.4354
 2525TIP3    H1 8457   2.753   6.569   4.154  0.2542 -0.4727  0.0735
 2525TIP3    H2 8458   2.793   6.702   4.095  0.3289 -0.2823  0.5426
 2526TIP3   OH2 8459  10.505   2.043   6.962 -0.3422  0.1318 -0.4973
 2526TIP3    H1 8460  10.586   2.022   6.915  1.9639  0.9912  2.7126
 2526TIP3    H2 8461  10.474   1.959   6.995  0.6347  0.0513  0.2445
 2527TIP3   OH2 8462   5.785   4.469   5.196 -0.2934  1.3633 -0.6676
 2527TIP3    H1 8463   5.852   4.432   5.254  0.6647  1.3298 -1.7532
 2527TIP3    H2 8464   5.831   4.536   5.146 -0.7949  0.6391 -2.1688
 2528TIP3   OH2 8465   9.793   7.082   5.317  0.3711  0.0355  0.0916
 2528TIP3    H1 8466   9.813   7.173   5.296  0.3645 -0.0699 -0.3735
 2528TIP3    H2 8467   9.861   7.032   5.273  0.0451 -0.2207 -0.1216
 2529TIP3   OH2 8468   4.014   6.395   6.863 -0.5018  0.3042 -0.1113
 2529TIP3    H1 8469   3.933   6.374   6.908 -0.2407 -3.2381 -0.9709
 2529TIP3    H2 8470   4.082   6.386   6.930 -0.5401 -0.3181 -0.1459
 2530TIP3   OH2 8471   7.437   1.963   0.058  0.1048 -0.5629 -0.3470
 2530TIP3    H1 8472   7.523   1.921   0.058 -0.9604 -2.9702  1.8551
 2530TIP3    H2 8473   7.377   1.897   0.024 -1.3072 -0.0914  1.1081
 2531TIP3   OH2 8474   5.998   9.371   7.415  0.1304  0.2662  0.2031
 2531TIP3    H1 8475   5.987   9.428   7.491 -0.0890  1.0160 -0.3827
 2531TIP3    H2 8476   6.093   9.362   7.405  0.1828  1.0688 -0.0910
 2532TIP3   OH2 8477   2.186   5.938  10.164 -0.0285  0.0830  0.0877
 2532TIP3    H1 8478   2.275   5.918  10.133  0.0469 -0.3597  0.5749
 2532TIP3    H2 8479   2.171   6.028  10.136  0.0699 -0.2634 -1.1452
 2533TIP3   OH2 8480   8.249   5.194   3.143 -0.1395  0.3186 -0.0911
 2533TIP3    H1 8481   8.214   5.281   3.125  2.9773  1.8953  0.8384
 2533TIP3    H2 8482   8.233   5.180   3.237 -0.5679 -0.1098 -0.2218
 2534TIP3   OH2 8483   2.611   7.571   0.778 -0.4594 -0.2898  0.1165
 2534TIP3    H1 8484   2.584   7.663   0.784  0.5275  0.0521 -0.4150
 2534TIP3    H2 8485   2.703   7.575   0.751 -1.1839 -1.4291 -2.9677
 2535TIP3   OH2 8486   7.115   4.467   5.889  0.0967  0.4680  0.3067
 2535TIP3    H1 8487   7.047   4.426   5.942  0.1079  0.9140  0.6755
 2535TIP3    H2 8488   7.197   4.431   5.922  0.1842  1.6185  1.4015
 2536TIP3   OH2 8489   8.683   1.361   1.141  0.2321  0.0745  0.1314
 2536TIP3    H1 8490   8.689   1.452   1.115 -0.0581 -0.4483 -1.9319
 2536TIP3    H2 8491   8.626   1.321   1.075  2.2122 -2.0748 -0.4012
 2537TIP3   OH2 8492   0.675   1.960   8.390  0.7431  0.4377 -0.5656
 2537TIP3    H1 8493   0.628   2.041   8.411 -0.4285 -0.3579 -0.0698
 2537TIP3    H2 8494   0.610   1.891   8.398  2.1700 -0.8086  0.9416
 2538TIP3   OH2 8495   0.138   9.487   0.317 -0.2359 -0.1801 -0.0990
 2538TIP3    H1 8496   0.148   9.508   0.410  1.9456  1.8893 -0.6904
 2538TIP3    H2 8497   0.186   9.405   0.306  1.0608  0.4805  0.3486
 2539TIP3   OH2 8498   8.770   9.118   1.801  0.0881  0.3419  0.6940
 2539TIP3    H1 8499   8.796   9.193   1.855  1.1765 -0.4552  1.3033
 2539TIP3    H2 8500   8.718   9.157   1.730 -0.0361  1.5786  1.4374
 2540TIP3   OH2 8501   9.066   6.284   0.052 -0.5596 -0.5430 -0.1806
 2540TIP3    H1 8502   9.038   6.226  -0.019  2.0250 -2.2869  0.1035
 2540TIP3    H2 8503   9.146   6.245   0.085 -0.0223  1.9026  1.7105
 2541TIP3   OH2 8504   3.014  10.521   9.209  0.5717  0.1446  0.2474
 2541TIP3    H1 8505   3.015  10.554   9.119  0.0972 -1.9472 -0.5913
 2541TIP3    H2 8506   3.105  10.494   9.225  0.7039  0.7151  0.5050
 2542TIP3   OH2 8507   4.899   7.119   4.508 -0.1562  0.0079 -0.4239
 2542TIP3    H1 8508   4.965   7.187   4.496  0.0456 -0.2245 -0.6496
 2542TIP3    H2 8509   4.842   7.153   4.576  0.5515 -0.0504  0.2124
 2543TIP3   OH2 8510   2.359   6.983   0.503  0.1330 -0.0660  0.6066
 2543TIP3    H1 8511   2.394   6.983   0.593  1.3739  0.7755  0.1475
 2543TIP3    H2 8512   2.308   6.903   0.498  1.2570 -0.8891  1.6166
 2544TIP3   OH2 8513   5.472   1.961   9.442 -0.0689 -0.1837  0.4573
 2544TIP3    H1 8514   5.539   1.908   9.398  0.2436 -0.5070  1.3115
 2544TIP3    H2 8515   5.389   1.923   9.414  0.0731  0.4491 -0.9113
 2545TIP3   OH2 8516   1.627  10.498   6.214 -0.0964  0.3936 -0.3967
 2545TIP3    H1 8517   1.656  10.423   6.162 -0.7493  0.2388 -0.5449
 2545TIP3    H2 8518   1.687  10.569   6.189 -1.2741  0.7416 -2.4817
 2546TIP3   OH2 8519   6.584   6.673   1.012 -0.1634  0.1182 -0.5112
 2546TIP3    H1 8520   6.533   6.599   1.045  2.0399 -0.6548  1.4022
 2546TIP3    H2 8521   6.571   6.742   1.077  0.1855  0.3607 -0.6952
 2547TIP3   OH2 8522  10.073  10.861   4.289  0.0161 -0.4752  0.4767
 2547TIP3    H1 8523  10.167  10.853   4.277 -0.3600 -1.5285 -2.6998
 2547TIP3    H2 8524  10.053  10.952   4.265 -0.0981 -1.2205 -2.6945
 2548TIP3   OH2 8525   6.177  10.266   8.451 -0.5314  0.8554  1.0922
 2548TIP3    H1 8526   6.160  10.322   8.375 -0.7247  2.2564  2.1100
 2548TIP3    H2 8527   6.249  10.209   8.425 -0.6033  1.3074 -0.1326
 2549TIP3   OH2 8528   2.270   4.731   4.732  0.0469  0.1507 -0.1356
 2549TIP3    H1 8529   2.208   4.659   4.741  0.9411 -1.0865 -2.7986
 2549TIP3    H2 8530   2.339   4.712   4.795  0.1231 -1.2089 -0.6061
 2550TIP3   OH2 8531  10.204   4.864   3.102 -0.2201  0.6882 -0.7168
 2550TIP3    H1 8532  10.181   4.772   3.108  3.5635 -0.3191  1.6468
 2550TIP3    H2 8533  10.294   4.865   3.070  0.8448  3.3094  1.8549
 2551TIP3   OH2 8534   4.051   2.353   2.520  0.2930  0.0125  0.4387
 2551TIP3    H1 8535   4.061   2.328   2.429  1.4647  1.2250  0.2054
 2551TIP3    H2 8536   4.093   2.283   2.570  0.5448 -0.1575 -0.0152
 2552TIP3   OH2 8537   8.317   7.876   0.470  0.0455  0.0336  0.1036
 2552TIP3    H1 8538   8.293   7.919   0.552  0.1577  1.9230 -0.8009
 2552TIP3    H2 8539   8.409   7.854   0.480  0.2453  0.9056  0.2216
 2553TIP3   OH2 8540   1.911   7.099   0.120 -0.1855  0.0186  0.1001
 2553TIP3    H1 8541   1.997   7.139   0.112 -0.1940  0.0125 -0.0184
 2553TIP3    H2 8542   1.859   7.139   0.051 -1.0682  2.0497  1.8275
 2554TIP3   OH2 8543   5.941   2.920   2.347 -0.2888 -0.2772 -0.0763
 2554TIP3    H1 8544   5.976   2.938   2.260  0.9799 -0.5419  0.3445
 2554TIP3    H2 8545   5.856   2.880   2.332  0.0644 -0.6372 -1.2043
 2555TIP3   OH2 8546   4.557   7.701   4.293  1.0867 -0.6490  0.5065
 2555TIP3    H1 8547   4.600   7.651   4.362 -1.2202 -1.6032  1.3345
 2555TIP3    H2 8548   4.494   7.757   4.338 -0.3067 -1.1206 -0.7570
 2556TIP3   OH2 8549   6.015   4.871   7.803 -0.2079  0.3058  0.9756
 2556TIP3    H1 8550   6.042   4.891   7.893  1.4423  2.1402  0.1373
 2556TIP3    H2 8551   6.097   4.859   7.755 -0.9438  2.0369 -0.8364
 2557TIP3   OH2 8552  10.843   0.612   5.903  0.2498  0.4613  0.5132
 2557TIP3    H1 8553  10.916   0.673   5.899  1.3409 -0.7329  1.3264
 2557TIP3    H2 8554  10.814   0.615   5.994  0.5950 -0.5143  0.6670
 2558TIP3   OH2 8555   5.496   6.323   9.820 -0.7056  0.2420  0.7016
 2558TIP3    H1 8556   5.545   6.263   9.764 -0.6118  0.7173  0.2643
 2558TIP3    H2 8557   5.476   6.272   9.899  3.0216  0.8710  2.2361
 2559TIP3   OH2 8558   4.711   1.911   9.658 -0.1315  0.4718  0.6082
 2559TIP3    H1 8559   4.752   1.994   9.680 -1.5451  1.2553  0.4078
 2559TIP3    H2 8560   4.617   1.926   9.672 -0.5019 -0.7980 -0.3141
 2560TIP3   OH2 8561  10.711   9.128   2.065 -0.1187 -0.1976  0.3433
 2560TIP3    H1 8562  10.681   9.100   2.152 -1.6988 -1.4419 -0.5514
 2560TIP3    H2 8563  10.807   9.129   2.072 -0.0809 -2.7985  1.3832
 2561TIP3   OH2 8564   1.661   8.735   3.789  0.0809  0.1692 -0.1020
 2561TIP3    H1 8565   1.586   8.745   3.732 -1.0297  1.6085  1.5147
 2561TIP3    H2 8566   1.636   8.778   3.871  1.9777 -0.8861  1.1335
 2562TIP3   OH2 8567   9.655   1.026   3.837  0.0352  0.1922  0.5404
 2562TIP3    H1 8568   9.699   1.061   3.759  0.0867  0.4072  0.6652
 2562TIP3    H2 8569   9.650   1.100   3.897 -1.4053  0.4566  0.1378
 2563TIP3   OH2 8570   3.321   6.363   9.055  0.0560 -0.0887  0.7963
 2563TIP3    H1 8571   3.373   6.403   8.985  2.1883 -1.5358  1.4762
 2563TIP3    H2 8572   3.230   6.377   9.028  0.5734  4.4557  0.5984
 2564TIP3   OH2 8573   9.220   2.309   6.472 -0.4016 -0.3093 -0.4554
 2564TIP3    H1 8574   9.272   2.235   6.441 -0.8287 -1.4410  1.3746
 2564TIP3    H2 8575   9.153   2.322   6.405  1.1714  0.0898 -2.0203
 2565TIP3   OH2 8576   6.478   6.248  10.066 -0.3998  0.3979 -0.6365
 2565TIP3    H1 8577   6.408   6.251  10.131  0.8644  0.6452  0.7770
 2565TIP3    H2 8578   6.556   6.278  10.113  0.7970 -0.4404 -1.9924
 2566TIP3   OH2 8579   1.391   9.487   3.118  0.4937  0.1392  0.1091
 2566TIP3    H1 8580   1.461   9.450   3.064  1.5719  1.0529  0.8405
 2566TIP3    H2 8581   1.346   9.410   3.153  0.9251 -0.4683 -0.6089
 2567TIP3   OH2 8582   6.192   9.918   4.411 -0.3061  0.1911 -0.0940
 2567TIP3    H1 8583   6.225  10.006   4.428 -0.5779  0.2730  0.0103
 2567TIP3    H2 8584   6.119   9.907   4.472 -1.4216  0.5518 -1.3249
 2568TIP3   OH2 8585   7.991   1.412   7.435 -1.2338  0.2415  0.1801
 2568TIP3    H1 8586   7.952   1.378   7.516 -0.4926  0.2967  0.5680
 2568TIP3    H2 8587   7.944   1.366   7.366  0.7422 -2.8634  0.6774
 2569TIP3   OH2 8588   8.140   7.081   4.056 -0.6315  0.0980  0.0338
 2569TIP3    H1 8589   8.147   7.027   4.135 -0.7515 -0.7708 -0.5374
 2569TIP3    H2 8590   8.107   7.165   4.088 -1.1696 -0.4032  0.8454
 2570TIP3   OH2 8591   9.110   6.764   8.956 -0.0838 -0.0029 -0.1166
 2570TIP3    H1 8592   9.190   6.746   8.907 -0.0584 -0.8034  0.2083
 2570TIP3    H2 8593   9.118   6.713   9.036 -0.8663 -0.0058 -0.0300
 2571TIP3   OH2 8594   8.763   5.174   6.365 -0.1288  0.1644  0.5907
 2571TIP3    H1 8595   8.757   5.194   6.458 -2.0162 -0.4804  0.6526
 2571TIP3    H2 8596   8.736   5.255   6.321 -0.1824  0.1700  0.6334
 2572TIP3   OH2 8597   7.630   3.232   9.059  0.6540  0.0831 -0.5376
 2572TIP3    H1 8598   7.630   3.138   9.040 -1.8552  0.1665 -1.2971
 2572TIP3    H2 8599   7.575   3.270   8.991 -1.1144  1.6518  1.6395
 2573TIP3   OH2 8600   0.369   8.713  10.155  0.5560 -0.0735  0.2503
 2573TIP3    H1 8601   0.406   8.681  10.073 -0.1631 -0.8956  0.2427
 2573TIP3    H2 8602   0.444   8.714  10.215  0.4496 -2.7881  0.5537
 2574TIP3   OH2 8603   3.356   4.668   7.345 -0.1439 -0.2760 -0.3760
 2574TIP3    H1 8604   3.445   4.676   7.310  0.3593  0.2129  0.9524
 2574TIP3    H2 8605   3.324   4.586   7.308  1.6782 -1.5961  0.8168
 2575TIP3   OH2 8606   2.277   8.912   2.602 -0.5030  0.1458 -0.2402
 2575TIP3    H1 8607   2.214   8.878   2.665  2.1396 -0.3989  2.2845
 2575TIP3    H2 8608   2.334   8.838   2.581  1.7564  1.4969  0.7744
 2576TIP3   OH2 8609   8.021   9.362   1.595  0.4766 -0.6923 -0.4806
 2576TIP3    H1 8610   8.030   9.450   1.559 -0.8751 -0.2447  0.2456
 2576TIP3    H2 8611   7.927   9.348   1.604  0.7061 -1.3610  1.4564
 2577TIP3   OH2 8612   2.364   6.433   9.040 -0.1749 -0.4892 -0.1778
 2577TIP3    H1 8613   2.380   6.461   9.131 -0.4351  0.1949 -0.3379
 2577TIP3    H2 8614   2.388   6.509   8.987 -0.1213 -0.8536 -0.6782
 2578TIP3   OH2 8615   0.793   6.860   6.365  0.7926 -0.2798  0.6901
 2578TIP3    H1 8616   0.848   6.874   6.442  1.0005  1.7932  0.2243
 2578TIP3    H2 8617   0.856   6.854   6.292  0.5178 -0.5314  0.4732
 2579TIP3   OH2 8618   0.625   3.730   0.267  0.8671 -0.4081 -0.1553
 2579TIP3    H1 8619   0.689   3.742   0.337  1.7250  0.8805 -1.1108
 2579TIP3    H2 8620   0.573   3.810   0.269 -0.3943 -1.2110  0.2586
 2580TIP3   OH2 8621   0.461   8.188   3.281 -0.5175  0.7354  0.8639
 2580TIP3    H1 8622   0.500   8.265   3.323  0.9577  0.9845 -0.8619
 2580TIP3    H2 8623   0.456   8.211   3.188 -0.8341 -0.9336  0.4297
 2581TIP3   OH2 8624   4.524  10.163   0.005  0.2461 -0.1854 -0.1569
 2581TIP3    H1 8625   4.564  10.241  -0.032  1.3992 -1.0309 -0.7599
 2581TIP3    H2 8626   4.444  10.149  -0.046  0.6095 -0.0149 -0.7729
 2582TIP3   OH2 8627   0.320   8.106   2.603 -0.5779  0.2417 -0.2965
 2582TIP3    H1 8628   0.232   8.105   2.565 -0.4704  0.8336 -0.5771
 2582TIP3    H2 8629   0.344   8.198   2.606  0.0940  0.0783 -0.3680
 2583TIP3   OH2 8630   5.090   9.460   0.741  0.1134  0.1058 -0.0894
 2583TIP3    H1 8631   5.043   9.541   0.719 -1.0289 -0.7324 -0.8823
 2583TIP3    H2 8632   5.097   9.461   0.836 -0.0106  1.0696 -0.0807
 2584TIP3   OH2 8633   1.242   5.088   3.611  0.0852  0.5974  0.2967
 2584TIP3    H1 8634   1.261   5.172   3.654 -0.3904 -0.0141  1.7763
 2584TIP3    H2 8635   1.149   5.094   3.589  0.0636  0.4876  0.3581
 2585TIP3   OH2 8636   8.987   0.647   5.540 -0.6551 -0.2197  0.0204
 2585TIP3    H1 8637   8.939   0.721   5.577  2.0347  1.4695  0.4150
 2585TIP3    H2 8638   9.014   0.676   5.453 -2.0041 -1.9333 -1.0456
 2586TIP3   OH2 8639   1.674  10.769   2.230  0.6073 -0.7434  0.1252
 2586TIP3    H1 8640   1.672  10.824   2.308  2.8605  0.0813 -0.3078
 2586TIP3    H2 8641   1.704  10.684   2.261  0.4148 -0.7350  0.3303
 2587TIP3   OH2 8642   7.881   6.654   2.695 -0.3149  0.0774  0.5200
 2587TIP3    H1 8643   7.918   6.579   2.648  0.3644  1.0294 -0.5122
 2587TIP3    H2 8644   7.799   6.621   2.732  0.7287 -1.6368  1.4805
 2588TIP3   OH2 8645   4.981  10.666   3.282  0.3315  1.0637 -0.4833
 2588TIP3    H1 8646   4.900  10.715   3.265  0.3270  1.2114 -0.0445
 2588TIP3    H2 8647   5.034  10.724   3.335  0.0947  0.3883  0.5173
 2589TIP3   OH2 8648   0.723   1.664   9.587 -0.0631 -0.6428 -0.0410
 2589TIP3    H1 8649   0.668   1.617   9.524  0.4646 -0.8525 -0.3511
 2589TIP3    H2 8650   0.724   1.754   9.555 -0.6184 -0.5329  0.2392
 2590TIP3   OH2 8651   2.322   9.962   2.635  0.2572 -0.2657 -0.1232
 2590TIP3    H1 8652   2.403   9.952   2.586  0.8098 -0.2233  0.7719
 2590TIP3    H2 8653   2.303  10.055   2.631  0.1870 -0.2905 -0.4200
 2591TIP3   OH2 8654   7.554   1.270   0.312  0.1622  0.0158 -0.0464
 2591TIP3    H1 8655   7.555   1.220   0.231  1.1584  1.0594 -0.7078
 2591TIP3    H2 8656   7.598   1.213   0.376 -1.2731 -1.1100 -0.0065
 2592TIP3   OH2 8657   3.278  10.277   0.934  0.0243 -0.5033  0.4444
 2592TIP3    H1 8658   3.268  10.351   0.993 -2.8613 -0.6866  0.3190
 2592TIP3    H2 8659   3.333  10.311   0.863  2.4755  0.0927  2.4713
 2593TIP3   OH2 8660   3.994   3.039   9.481 -1.1468  0.0054 -0.2700
 2593TIP3    H1 8661   3.911   2.997   9.499 -2.0128  0.7870 -2.1351
 2593TIP3    H2 8662   4.048   2.970   9.441 -1.2671 -0.2407 -0.0082
 2594TIP3   OH2 8663   9.163   6.998   9.292 -0.2700  0.4509 -0.1600
 2594TIP3    H1 8664   9.069   7.006   9.309 -0.2265  1.8952 -0.4649
 2594TIP3    H2 8665   9.204   7.007   9.378 -0.4031 -0.0872 -0.0377
 2595TIP3   OH2 8666   7.806   3.243   9.739  0.4843  0.0473 -0.3349
 2595TIP3    H1 8667   7.777   3.188   9.812  1.9246 -1.0797 -0.5600
 2595TIP3    H2 8668   7.800   3.186   9.663  0.3086  0.7840 -0.8862
 2596TIP3   OH2 8669   5.068   0.046   6.271  0.1414 -0.6715 -0.0190
 2596TIP3    H1 8670   5.064  -0.048   6.253 -0.1825 -0.8796  1.0900
 2596TIP3    H2 8671   5.002   0.061   6.339 -1.3798  0.7353 -1.6588
 2597TIP3   OH2 8672   4.858   7.066   7.866 -0.7110 -0.3455  0.2257
 2597TIP3    H1 8673   4.870   7.125   7.792 -2.6293 -2.3441 -1.8226
 2597TIP3    H2 8674   4.947   7.038   7.888 -0.1284 -0.8576 -2.3992
 2598TIP3   OH2 8675   5.380  10.469  10.572  0.1454  0.1604 -0.3852
 2598TIP3    H1 8676   5.411  10.422  10.649 -1.4495 -3.7516 -1.9005
 2598TIP3    H2 8677   5.440  10.443  10.502 -0.3797  0.9740 -1.1701
 2599TIP3   OH2 8678   2.092   8.001   9.373 -1.0847  0.4305 -0.0922
 2599TIP3    H1 8679   2.016   7.984   9.428 -0.8560  1.7945  0.6770
 2599TIP3    H2 8680   2.071   7.957   9.290 -2.3637  0.1310  0.3646
 2600TIP3   OH2 8681  10.763   2.721   3.895 -0.4508 -0.2634 -0.7237
 2600TIP3    H1 8682  10.741   2.656   3.961  0.5407 -1.0992 -1.1960
 2600TIP3    H2 8683  10.734   2.682   3.812 -0.7503  0.3253 -0.9017
 2601TIP3   OH2 8684   5.346   0.975   6.579  0.7612  0.3644 -0.1982
 2601TIP3    H1 8685   5.326   1.037   6.649 -0.7273  0.8328 -0.9820
 2601TIP3    H2 8686   5.410   1.020   6.524 -0.0001  1.0608 -0.5329
 2602TIP3   OH2 8687   2.709   2.791   4.430 -0.2543  0.1235 -0.1168
 2602TIP3    H1 8688   2.665   2.870   4.399 -0.1414 -0.0524 -0.7319
 2602TIP3    H2 8689   2.639   2.726   4.437 -0.3449  0.2658  0.3766
 2603TIP3   OH2 8690   1.484   3.462   3.305  0.1516 -0.1647 -0.1492
 2603TIP3    H1 8691   1.446   3.530   3.249  1.2389  1.4725  1.0284
 2603TIP3    H2 8692   1.434   3.467   3.386  1.4092  0.5441  0.6198
 2604TIP3   OH2 8693   4.130   2.682   0.345 -0.5823 -0.6197  0.3675
 2604TIP3    H1 8694   4.203   2.739   0.320 -0.3275 -1.6090 -1.3447
 2604TIP3    H2 8695   4.052   2.730   0.318 -0.5183  0.0424  1.3496
 2605TIP3   OH2 8696   0.680   6.819   8.292 -0.0965  0.1678 -0.0350
 2605TIP3    H1 8697   0.708   6.792   8.379  0.5406 -1.8908 -0.8279
 2605TIP3    H2 8698   0.749   6.877   8.261  0.1731  0.0946  0.4282
 2606TIP3   OH2 8699   7.386   5.647  10.413 -0.3720  0.3571  0.1720
 2606TIP3    H1 8700   7.432   5.709  10.357  2.7485 -0.4882  1.5902
 2606TIP3    H2 8701   7.410   5.673  10.502 -2.8914 -0.0658  1.0619
 2607TIP3   OH2 8702   1.205   5.924   7.656  0.7693  0.1539  0.0230
 2607TIP3    H1 8703   1.167   5.899   7.571  1.3987  0.8547 -0.4732
 2607TIP3    H2 8704   1.147   5.884   7.720  0.2017 -0.2771 -0.7390
 2608TIP3   OH2 8705  10.166  10.838   0.755  1.2550  0.2824 -0.3140
 2608TIP3    H1 8706  10.165  10.743   0.771 -0.6863 -0.0399 -1.9125
 2608TIP3    H2 8707  10.195  10.847   0.665 -1.8355  0.8571 -1.3801
 2609TIP3   OH2 8708   2.007   6.142   5.528  0.9167 -0.3498 -0.2264
 2609TIP3    H1 8709   2.025   6.228   5.565 -3.4019 -0.2651  2.4068
 2609TIP3    H2 8710   2.074   6.085   5.567  1.2323  1.1284  1.5441
 2610TIP3   OH2 8711   1.445   3.524   0.036 -0.4883 -0.1833 -0.1889
 2610TIP3    H1 8712   1.399   3.454   0.083 -0.6034 -0.0851 -0.1545
 2610TIP3    H2 8713   1.423   3.604   0.085 -2.4798  0.2761 -1.7121
 2611TIP3   OH2 8714  10.089   3.409   6.346 -0.6560  0.3525  0.1604
 2611TIP3    H1 8715  10.154   3.446   6.405 -0.4512  0.8974 -0.3939
 2611TIP3    H2 8716  10.136   3.339   6.300 -0.7867 -0.0030  0.5592
 2612TIP3   OH2 8717   2.863   4.125  10.404  0.5260  0.4155 -0.2135
 2612TIP3    H1 8718   2.827   4.047  10.446 -0.8301  1.1010 -0.0677
 2612TIP3    H2 8719   2.949   4.097  10.371  0.1208 -1.0928 -0.0425
 2613TIP3   OH2 8720   3.852   9.306   3.029 -0.5547  0.6883  0.3467
 2613TIP3    H1 8721   3.793   9.285   2.957 -0.6798  3.4869 -0.4902
 2613TIP3    H2 8722   3.804   9.371   3.080  1.0040  1.5259  0.7921
 2614TIP3   OH2 8723   6.171   3.009   7.449  0.3379  0.0870 -0.7188
 2614TIP3    H1 8724   6.158   3.104   7.448 -1.0665  0.0441  2.4440
 2614TIP3    H2 8725   6.097   2.974   7.400 -0.8362  0.5642  0.6632
 2615TIP3   OH2 8726   8.637   2.494   7.329 -0.2133  0.3618 -0.0787
 2615TIP3    H1 8727   8.729   2.504   7.305 -0.1482  0.3370  0.1613
 2615TIP3    H2 8728   8.630   2.530   7.417 -1.2158  3.9786 -1.4790
 2616TIP3   OH2 8729   1.324   5.727   6.275 -0.1257 -0.3277  0.4538
 2616TIP3    H1 8730   1.274   5.655   6.236 -1.8238  1.1495 -0.2225
 2616TIP3    H2 8731   1.271   5.756   6.349  1.6978 -1.2358  2.2234
 2617TIP3   OH2 8732   8.069   9.537   7.242  0.1457  0.3724  0.5256
 2617TIP3    H1 8733   8.152   9.545   7.289 -0.1899 -0.4915  1.2980
 2617TIP3    H2 8734   8.006   9.511   7.309 -0.4392 -0.4608 -0.3202
 2618TIP3   OH2 8735   9.988   1.525   0.468  0.2331 -0.1447 -0.3083
 2618TIP3    H1 8736   9.938   1.504   0.389  1.7902  1.0543 -1.7028
 2618TIP3    H2 8737  10.058   1.460   0.469  0.1049 -0.2737  0.1979
 2619TIP3   OH2 8738   7.048   5.466   6.276 -0.2497  0.3481 -0.0127
 2619TIP3    H1 8739   7.092   5.382   6.260 -0.4284  0.6684 -2.5657
 2619TIP3    H2 8740   7.086   5.497   6.358  0.2273 -1.9488  0.7102
 2620TIP3   OH2 8741   4.295   8.191   1.786  0.1265 -0.2640 -0.1051
 2620TIP3    H1 8742   4.296   8.286   1.799 -0.3230 -0.1338 -0.9330
 2620TIP3    H2 8743   4.222   8.160   1.838  1.4397 -0.4302  1.7483
 2621TIP3   OH2 8744   1.587   9.516   9.256  0.1033 -0.0110 -0.3295
 2621TIP3    H1 8745   1.578   9.607   9.225  0.3665 -0.3425 -1.4387
 2621TIP3    H2 8746   1.540   9.465   9.190  1.1023 -0.7947 -0.4553
 2622TIP3   OH2 8747   7.189   3.016   7.150 -0.0971 -0.2031 -0.2509
 2622TIP3    H1 8748   7.133   3.092   7.131 -1.1400 -0.9011 -0.0842
 2622TIP3    H2 8749   7.263   3.025   7.090 -0.3353  0.7980 -0.4174
 2623TIP3   OH2 8750   2.769   7.250   8.303  0.5043  0.1138 -0.2528
 2623TIP3    H1 8751   2.786   7.190   8.231 -0.7381 -0.6214  0.0391
 2623TIP3    H2 8752   2.753   7.194   8.379 -0.9422  0.7701 -0.0304
 2624TIP3   OH2 8753   4.207   0.043   1.955 -0.2149 -0.5429 -0.8503
 2624TIP3    H1 8754   4.255   0.064   2.035 -1.4014 -1.6512  0.2135
 2624TIP3    H2 8755   4.261   0.078   1.884 -0.7156  3.4391  0.5336
 2625TIP3   OH2 8756   2.600   8.962  10.081 -0.3044  0.1152  0.4401
 2625TIP3    H1 8757   2.686   8.942  10.043  0.2742  1.5657  0.9123
 2625TIP3    H2 8758   2.537   8.940  10.012  0.6178  1.1982 -0.8002
 2626TIP3   OH2 8759   1.549   8.354   3.379 -0.2261 -0.0764  0.1724
 2626TIP3    H1 8760   1.568   8.310   3.296  1.8732  0.7701  0.1176
 2626TIP3    H2 8761   1.565   8.288   3.446  0.5185 -0.1081 -0.0201
 2627TIP3   OH2 8762   9.016   9.357   4.462  0.4594  0.4337 -0.3537
 2627TIP3    H1 8763   9.011   9.265   4.438  1.5883  0.0238  0.8414
 2627TIP3    H2 8764   9.018   9.404   4.379 -0.8937 -0.5522 -0.9744
 2628TIP3   OH2 8765   9.085   0.754   5.289  0.2188  0.4919  0.4005
 2628TIP3    H1 8766   9.048   0.789   5.208 -0.9048 -0.4170  0.4777
 2628TIP3    H2 8767   9.179   0.747   5.273 -0.1285 -0.8211 -1.2900
 2629TIP3   OH2 8768   6.686   2.948  10.609  0.3750  0.2992  0.0994
 2629TIP3    H1 8769   6.711   3.025  10.558 -1.5514 -0.0473 -1.5141
 2629TIP3    H2 8770   6.635   2.983  10.682  1.8789  0.6933  1.0142
 2630TIP3   OH2 8771   7.228   2.618   3.225  0.0264  0.4605 -0.1665
 2630TIP3    H1 8772   7.262   2.543   3.177  1.3925  0.2085  1.1229
 2630TIP3    H2 8773   7.254   2.695   3.174 -1.4941  0.1074 -1.5653
 2631TIP3   OH2 8774   2.131   5.775   5.352  0.2928  0.1754 -0.3766
 2631TIP3    H1 8775   2.091   5.850   5.307 -0.9497  0.5606  1.2941
 2631TIP3    H2 8776   2.083   5.699   5.318 -0.3048  0.4143 -0.0797
 2632TIP3   OH2 8777   6.884   1.095   1.325 -0.3935  0.3311  0.1431
 2632TIP3    H1 8778   6.887   1.099   1.421  1.5816  0.0114  0.1411
 2632TIP3    H2 8779   6.910   1.183   1.297 -0.6265  0.3229 -0.1055
 2633TIP3   OH2 8780   5.931   6.516   6.920 -0.5506 -0.0501  0.0420
 2633TIP3    H1 8781   5.910   6.461   6.996 -1.1026 -1.3439 -1.0118
 2633TIP3    H2 8782   5.887   6.599   6.938  1.1992  0.5057  2.1837
 2634TIP3   OH2 8783   2.286   4.159   5.960 -0.3726 -0.0437 -0.2154
 2634TIP3    H1 8784   2.197   4.192   5.952 -0.7265 -0.9831 -0.1699
 2634TIP3    H2 8785   2.336   4.234   5.994 -0.7596  1.0489 -1.9134
 2635TIP3   OH2 8786   1.054   4.197   6.035 -0.0499 -0.0882  0.2914
 2635TIP3    H1 8787   1.019   4.157   5.955  1.8493 -0.5857 -0.3398
 2635TIP3    H2 8788   0.991   4.173   6.103 -0.5371 -1.5902 -0.6437
 2636TIP3   OH2 8789   9.403   6.414   9.217  0.3887 -0.8068  0.7504
 2636TIP3    H1 8790   9.407   6.334   9.165  0.1366  0.6546 -1.6958
 2636TIP3    H2 8791   9.492   6.450   9.212  0.4501 -0.8157  1.6526
 2637TIP3   OH2 8792   9.005   4.450   7.472  0.5719  0.3124  0.0189
 2637TIP3    H1 8793   8.928   4.478   7.522  1.9516  0.4132  2.2776
 2637TIP3    H2 8794   9.014   4.516   7.403 -0.8611  0.7733  0.2377
 2638TIP3   OH2 8795  10.461   0.553   3.777  0.3105 -0.0418  0.2307
 2638TIP3    H1 8796  10.375   0.515   3.792 -0.5463  1.4153 -0.7369
 2638TIP3    H2 8797  10.494   0.572   3.865 -1.5587  1.8548  0.6047
 2639TIP3   OH2 8798   1.775   1.103   9.042  0.5954 -0.0082  0.1212
 2639TIP3    H1 8799   1.827   1.124   9.119  0.6918  0.8901 -0.1856
 2639TIP3    H2 8800   1.684   1.108   9.073  0.6044  1.2200 -0.0316
 2640TIP3   OH2 8801   8.737   9.645   2.559  0.4009 -0.6074  0.2424
 2640TIP3    H1 8802   8.717   9.552   2.552  0.9501 -0.9201  2.1061
 2640TIP3    H2 8803   8.818   9.656   2.508  0.1984 -1.0985 -0.1923
 2641TIP3   OH2 8804   6.104   4.714   0.686 -0.2910  0.0524  0.0209
 2641TIP3    H1 8805   6.057   4.633   0.706  0.5476 -0.8216 -1.4006
 2641TIP3    H2 8806   6.172   4.719   0.753  1.2043 -1.7613 -1.2439
 2642TIP3   OH2 8807   0.018   0.125   6.458 -0.9239  0.9674  0.3637
 2642TIP3    H1 8808  -0.003   0.218   6.453  0.1310  1.2255  0.5048
 2642TIP3    H2 8809  -0.060   0.085   6.496 -1.6927  1.6728 -0.4222
 2643TIP3   OH2 8810   9.680   1.712   7.029 -0.8050  0.0194 -0.1305
 2643TIP3    H1 8811   9.646   1.678   7.111 -2.1520 -1.9620 -1.4279
 2643TIP3    H2 8812   9.678   1.807   7.039 -1.2595 -0.1753  1.9644
 2644TIP3   OH2 8813   8.275   6.134   4.198 -0.3546 -0.4092 -0.3533
 2644TIP3    H1 8814   8.358   6.100   4.165 -0.0031  0.7472 -0.7262
 2644TIP3    H2 8815   8.285   6.229   4.194  0.3212 -0.0210  4.5670
 2645TIP3   OH2 8816   4.725  10.082   4.242  0.3148 -0.2784 -0.2840
 2645TIP3    H1 8817   4.775  10.012   4.284  0.1692 -0.7088 -0.8225
 2645TIP3    H2 8818   4.635  10.052   4.244 -0.0513  0.8307  1.3554
 2646TIP3   OH2 8819   7.235   5.980   8.635 -0.0133  0.2623  0.3756
 2646TIP3    H1 8820   7.192   5.927   8.702 -0.5877  0.3272  0.0638
 2646TIP3    H2 8821   7.298   6.034   8.683  0.2665 -0.3899  0.7437
 2647TIP3   OH2 8822   7.686   6.204   8.492  0.7689  0.6529 -0.3927
 2647TIP3    H1 8823   7.638   6.132   8.450  1.9350  0.2533 -1.0889
 2647TIP3    H2 8824   7.773   6.168   8.510  0.9460  1.4801  0.4941
 2648TIP3   OH2 8825   6.062   3.026   7.034 -0.2818  0.2841  0.7532
 2648TIP3    H1 8826   6.022   3.066   6.957  2.1474 -0.5456 -1.0807
 2648TIP3    H2 8827   6.126   3.091   7.064  1.0633 -0.6595  0.0228
 2649TIP3   OH2 8828   2.540   7.582   0.308 -0.6752  0.2038 -0.1451
 2649TIP3    H1 8829   2.624   7.574   0.263 -0.2811  2.5246  0.0386
 2649TIP3    H2 8830   2.539   7.509   0.370  0.9584 -0.1917 -0.5274
 2650TIP3   OH2 8831   4.016   6.528   8.360  0.5969  0.2416  0.5422
 2650TIP3    H1 8832   3.925   6.499   8.365  0.5135  0.5855  1.2221
 2650TIP3    H2 8833   4.025   6.589   8.433  1.7950 -0.9560  1.4432
 2651TIP3   OH2 8834   7.333   3.815   6.424 -0.1714 -0.2089  0.4401
 2651TIP3    H1 8835   7.387   3.773   6.491  0.1526  2.2606  1.8505
 2651TIP3    H2 8836   7.364   3.777   6.341  1.7870 -0.9248  1.4272
 2652TIP3   OH2 8837   0.606   8.688   8.216 -0.7821 -0.4175  0.0010
 2652TIP3    H1 8838   0.527   8.641   8.241 -0.3107 -0.6255  1.1705
 2652TIP3    H2 8839   0.627   8.742   8.292  0.0618 -0.1913 -0.3765
 2653TIP3   OH2 8840   7.939   1.963   7.617  0.7181 -0.0023  0.2677
 2653TIP3    H1 8841   7.975   1.987   7.703  0.2201 -0.0498  0.4936
 2653TIP3    H2 8842   7.990   2.014   7.555  1.1725 -0.0646  0.5828
 2654TIP3   OH2 8843   3.589  10.020   3.249  0.3685  0.1219 -0.0493
 2654TIP3    H1 8844   3.682   9.999   3.255  0.2994  0.1305  1.8870
 2654TIP3    H2 8845   3.586  10.098   3.193  1.9089  1.9620  2.2221
 2655TIP3   OH2 8846  10.745   4.111   6.527  0.1602 -0.0676  0.3460
 2655TIP3    H1 8847  10.754   4.043   6.460 -0.0618  0.3302 -0.1023
 2655TIP3    H2 8848  10.720   4.064   6.606  1.1640 -0.6304  0.3409
 2656TIP3   OH2 8849   9.963  10.389   8.290 -1.0540 -0.2365 -0.7125
 2656TIP3    H1 8850   9.955  10.298   8.261 -1.2410  0.4599 -3.0661
 2656TIP3    H2 8851  10.049  10.417   8.260 -0.4331  0.0183  1.1850
 2657TIP3   OH2 8852   7.171   7.812   9.324  0.6519  0.3558  0.1240
 2657TIP3    H1 8853   7.250   7.864   9.338  0.2666  1.1392 -0.4797
 2657TIP3    H2 8854   7.163   7.806   9.229 -0.6849  1.3841  0.1336
 2658TIP3   OH2 8855   9.236   8.752   1.345  0.6499  0.5159  0.2068
 2658TIP3    H1 8856   9.250   8.664   1.380  0.4556  0.2815 -0.2943
 2658TIP3    H2 8857   9.226   8.808   1.422 -0.6873 -0.1418  0.5245
 2659TIP3   OH2 8858   3.184   3.860   7.336 -1.0975  0.1688 -0.3963
 2659TIP3    H1 8859   3.111   3.920   7.323  0.6998  2.2484 -1.4460
 2659TIP3    H2 8860   3.182   3.803   7.259  0.7816  2.9841 -2.7443
 2660TIP3   OH2 8861   6.832   9.558   0.885  0.0178  0.2733  0.4030
 2660TIP3    H1 8862   6.767   9.495   0.854 -1.5593  1.8490  0.3497
 2660TIP3    H2 8863   6.886   9.576   0.808 -1.1313  0.8521 -0.3127
 2661TIP3   OH2 8864   6.138   0.418   3.725  0.3396 -0.4233 -0.1184
 2661TIP3    H1 8865   6.083   0.352   3.684  0.2916 -0.1804 -0.4532
 2661TIP3    H2 8866   6.195   0.449   3.654 -1.2189  1.5677 -0.6030
 2662TIP3   OH2 8867   3.558   5.830   3.236 -0.3864 -0.1342  0.2257
 2662TIP3    H1 8868   3.563   5.821   3.331 -1.3977  0.5611  0.3655
 2662TIP3    H2 8869   3.630   5.889   3.214 -0.6203  0.3350  0.6716
 2663TIP3   OH2 8870   5.008  10.035   2.326  0.0798  0.4270  0.2818
 2663TIP3    H1 8871   4.946   9.982   2.375  1.5756 -1.2689  0.4537
 2663TIP3    H2 8872   5.094  10.003   2.354  1.0976  3.0652  0.5263
 2664TIP3   OH2 8873   1.683   4.631  10.024 -0.1096  0.1481 -0.2411
 2664TIP3    H1 8874   1.659   4.576  10.099  1.1544  0.3298  0.3167
 2664TIP3    H2 8875   1.688   4.570   9.950 -2.0432  0.0743 -0.3694
 2665TIP3   OH2 8876   7.520   1.205   7.173  0.1293 -0.3113 -0.5024
 2665TIP3    H1 8877   7.442   1.256   7.151 -0.1878 -0.9209 -0.8059
 2665TIP3    H2 8878   7.574   1.265   7.224 -0.5642  0.0996 -0.2379
 2666TIP3   OH2 8879   3.479   8.920  10.713 -0.0759 -0.4157  0.0748
 2666TIP3    H1 8880   3.423   8.960  10.647 -1.5757 -2.4469  0.0313
 2666TIP3    H2 8881   3.546   8.873  10.663  0.0277 -0.2489  0.0567
 2667TIP3   OH2 8882   2.329   5.200   0.499 -0.0344 -0.2389 -0.5390
 2667TIP3    H1 8883   2.313   5.144   0.423  0.3515 -1.2836  0.1308
 2667TIP3    H2 8884   2.419   5.232   0.486  0.4111 -1.2279 -0.0479
 2668TIP3   OH2 8885   1.265   4.379   5.269  0.0512 -0.4862 -0.5490
 2668TIP3    H1 8886   1.272   4.318   5.342  2.1161  0.4617  0.1104
 2668TIP3    H2 8887   1.244   4.463   5.310  0.2804 -0.1333 -1.1388
 2669TIP3   OH2 8888   4.421   7.490   4.614 -0.0791 -0.1454 -0.3462
 2669TIP3    H1 8889   4.455   7.459   4.698  0.2109  0.9619 -0.0421
 2669TIP3    H2 8890   4.337   7.445   4.605 -0.3295  0.0727  0.7550
 2670TIP3   OH2 8891   5.963   6.837   6.867  0.0218  0.6377 -0.5079
 2670TIP3    H1 8892   5.919   6.905   6.815  0.4042  0.9971 -0.3689
 2670TIP3    H2 8893   5.910   6.831   6.947  0.2815  1.1453 -0.2947
 2671TIP3   OH2 8894   1.067   7.376   8.891 -0.0474 -0.7521 -0.1559
 2671TIP3    H1 8895   1.139   7.412   8.942 -2.6407  0.0116  3.3063
 2671TIP3    H2 8896   1.091   7.393   8.800  4.3100 -1.0402  0.7317
 2672TIP3   OH2 8897  10.648   1.288   5.680  0.0570 -0.0273  0.0142
 2672TIP3    H1 8898  10.623   1.366   5.729  2.8045  0.8099  0.2774
 2672TIP3    H2 8899  10.716   1.318   5.620  0.1183 -1.9437 -0.9530
 2673TIP3   OH2 8900  10.330   0.550   0.914 -0.1106 -0.2403 -0.6354
 2673TIP3    H1 8901  10.384   0.597   0.977 -1.0291  0.7957 -0.6004
 2673TIP3    H2 8902  10.383   0.475   0.888  0.1299 -0.9759  1.7258
 2674TIP3   OH2 8903  10.196   4.701   1.981 -0.0380 -0.0840 -0.0681
 2674TIP3    H1 8904  10.179   4.725   1.890  0.6002 -0.8155 -0.3940
 2674TIP3    H2 8905  10.286   4.667   1.980  0.0112 -0.0020  0.8535
 2675TIP3   OH2 8906   5.128   8.954   3.511  0.3084  0.5034  0.4767
 2675TIP3    H1 8907   5.120   9.009   3.589  0.5970  0.9095  0.2261
 2675TIP3    H2 8908   5.190   8.886   3.536 -0.7657 -0.2710  1.0957
 2676TIP3   OH2 8909   5.676   1.810   8.312  0.3442 -0.2870  0.2408
 2676TIP3    H1 8910   5.600   1.757   8.287 -0.7500  0.9390  0.8182
 2676TIP3    H2 8911   5.741   1.791   8.244 -1.5876  0.9397 -2.1326
 2677TIP3   OH2 8912   4.479   2.091   0.700  0.7500  0.1710  0.2182
 2677TIP3    H1 8913   4.538   2.165   0.712 -0.2357  0.9620  0.3352
 2677TIP3    H2 8914   4.517   2.040   0.629  0.9612  1.2846 -0.4772
 2678TIP3   OH2 8915   7.841   7.269   3.952  0.2224  0.0306  0.3613
 2678TIP3    H1 8916   7.766   7.312   3.912  0.8837  1.1353  0.2487
 2678TIP3    H2 8917   7.917   7.317   3.917  0.8568  0.5435  2.3276
 2679TIP3   OH2 8918   8.041  10.589   9.230  0.3938  0.5499 -0.1849
 2679TIP3    H1 8919   8.101  10.515   9.237  0.7508  0.9029  0.5321
 2679TIP3    H2 8920   8.000  10.579   9.144 -0.5201 -1.2079  0.4136
 2680TIP3   OH2 8921   9.807   4.604   2.447  0.0588  0.4354 -0.0339
 2680TIP3    H1 8922   9.763   4.531   2.404 -1.0716  1.2866 -0.3618
 2680TIP3    H2 8923   9.777   4.681   2.400 -0.2834  1.2951  1.5254
 2681TIP3   OH2 8924   1.373  10.545   5.592  0.0172  0.8051 -0.0698
 2681TIP3    H1 8925   1.318  10.516   5.519 -0.0815 -0.8482  0.6289
 2681TIP3    H2 8926   1.439  10.600   5.551 -0.2434  0.1912 -1.3722
 2682TIP3   OH2 8927   5.178   8.491   9.563  0.8143 -0.3460 -0.3108
 2682TIP3    H1 8928   5.228   8.494   9.481  2.7436  0.5070  0.8186
 2682TIP3    H2 8929   5.114   8.561   9.556  1.8356  0.5840 -0.5939
 2683TIP3   OH2 8930   8.678   1.405   6.855  0.6247 -0.8478  0.1372
 2683TIP3    H1 8931   8.745   1.346   6.823  0.3264 -1.5947  0.8495
 2683TIP3    H2 8932   8.595   1.365   6.828  0.1975 -2.8476  3.7208
 2684TIP3   OH2 8933   3.945   9.007   1.449 -0.2409 -0.1657 -0.0296
 2684TIP3    H1 8934   3.873   9.033   1.392 -2.3066 -2.2586  1.4362
 2684TIP3    H2 8935   3.996   8.945   1.397  0.7268  1.4889 -1.1521
 2685TIP3   OH2 8936   1.726   4.397   5.343 -0.2747 -0.0630 -0.2231
 2685TIP3    H1 8937   1.726   4.488   5.371  1.2081  0.2255 -1.0906
 2685TIP3    H2 8938   1.733   4.400   5.248  0.3663 -1.0742 -0.2296
 2686TIP3   OH2 8939   2.451  10.299   5.605 -0.3348 -0.1871  0.2175
 2686TIP3    H1 8940   2.497  10.383   5.611 -2.8179  1.2531  0.3931
 2686TIP3    H2 8941   2.488  10.246   5.676  1.9749  0.3286 -0.5191
 2687TIP3   OH2 8942   2.890  10.038   6.095  0.1641 -0.1241  0.6632
 2687TIP3    H1 8943   2.952  10.066   6.163 -0.3629  1.9867  0.3325
 2687TIP3    H2 8944   2.811  10.013   6.143 -0.8078  2.9565  0.8491
 2688TIP3   OH2 8945   0.008  10.900   0.884  0.0755  0.0257  0.4981
 2688TIP3    H1 8946   0.031  10.904   0.977  1.1541  0.2335  0.2378
 2688TIP3    H2 8947   0.084  10.860   0.842 -0.1135  0.5555 -0.3842
 2689TIP3   OH2 8948   1.292  10.389   5.952  0.2991  0.5354 -0.5161
 2689TIP3    H1 8949   1.293  10.349   5.865  0.4709 -0.5675 -0.0185
 2689TIP3    H2 8950   1.199  10.388   5.978  0.4899 -1.1578  0.2053
 2690TIP3   OH2 8951   2.386  10.166  10.732 -0.2240 -0.9792  0.1960
 2690TIP3    H1 8952   2.480  10.161  10.720  0.0541  0.1182  1.6060
 2690TIP3    H2 8953   2.356  10.227  10.665  0.4343  0.4796  1.1797
 2691TIP3   OH2 8954   9.271   2.629   0.385  0.8018 -0.5369 -0.2804
 2691TIP3    H1 8955   9.206   2.677   0.437  2.3165  1.5280 -0.1518
 2691TIP3    H2 8956   9.220   2.572   0.328 -1.1294  1.0812 -0.2532
 2692TIP3   OH2 8957   5.213   6.167   6.375  0.2333 -0.0790 -0.2743
 2692TIP3    H1 8958   5.292   6.201   6.333  0.0058 -1.1289 -1.6156
 2692TIP3    H2 8959   5.231   6.074   6.389 -0.3327 -0.0855  0.4934
 2693TIP3   OH2 8960   4.349   5.687   8.057  0.5914 -0.7173 -0.3101
 2693TIP3    H1 8961   4.382   5.606   8.097  2.4149  0.8793  1.6159
 2693TIP3    H2 8962   4.259   5.694   8.088  1.1839 -0.8040  1.5589
 2694TIP3   OH2 8963   6.430   2.803   7.815 -0.2600 -0.8995  0.2453
 2694TIP3    H1 8964   6.344   2.835   7.786  0.2848 -0.7584 -1.3667
 2694TIP3    H2 8965   6.412   2.751   7.893 -1.4230  1.7365  1.8588
 2695TIP3   OH2 8966   9.951   6.208   6.407  0.2510  0.6212 -0.1517
 2695TIP3    H1 8967   9.856   6.204   6.415  0.3643 -0.9589  0.9077
 2695TIP3    H2 8968   9.969   6.175   6.319 -0.2325  2.4586 -0.9715
 2696TIP3   OH2 8969   6.945   2.596   1.380 -0.3486  0.2536 -0.6506
 2696TIP3    H1 8970   6.967   2.569   1.469  0.8895  0.0981 -0.9932
 2696TIP3    H2 8971   6.873   2.658   1.391 -1.5184 -1.2062  0.3209
 2697TIP3   OH2 8972  10.551   4.292   1.136  0.5996 -0.3402  0.8331
 2697TIP3    H1 8973  10.592   4.374   1.164 -0.6304  0.4971  0.3167
 2697TIP3    H2 8974  10.621   4.243   1.093  0.8239  1.5910 -1.2075
 2698TIP3   OH2 8975   4.101   4.508   8.492  0.1559  0.0955 -0.5248
 2698TIP3    H1 8976   4.187   4.492   8.455  1.1273  0.6441  1.3792
 2698TIP3    H2 8977   4.076   4.595   8.461 -0.4528 -0.6688 -2.3249
 2699TIP3   OH2 8978   5.818   0.134   8.714  0.3482  0.6032  0.4651
 2699TIP3    H1 8979   5.778   0.186   8.783  0.2103 -0.7033  1.4002
 2699TIP3    H2 8980   5.907   0.170   8.706  0.2199  1.0544  1.0048
 2700TIP3   OH2 8981   4.983   4.045  10.805  0.4982  0.3762  0.0940
 2700TIP3    H1 8982   4.939   4.041  10.721 -0.6633 -0.3311  0.7165
 2700TIP3    H2 8983   4.925   4.097  10.861 -0.6485 -2.2397  1.5143
 2701TIP3   OH2 8984   5.207   5.989   1.365  0.0344 -0.5743 -0.2616
 2701TIP3    H1 8985   5.190   5.916   1.305 -2.6700 -0.2734  0.0103
 2701TIP3    H2 8986   5.229   6.062   1.307 -0.5614 -0.7945 -0.7788
 2702TIP3   OH2 8987   0.056   5.229   2.379  0.0371 -0.1690 -0.6836
 2702TIP3    H1 8988   0.116   5.215   2.306 -0.3120 -0.9800 -0.8297
 2702TIP3    H2 8989  -0.026   5.188   2.350 -0.2883  0.0544 -0.0888
 2703TIP3   OH2 8990   0.855   4.302   5.067  0.5536  0.6810 -0.4629
 2703TIP3    H1 8991   0.904   4.375   5.029  0.3621  1.3318  0.5006
 2703TIP3    H2 8992   0.832   4.332   5.155  1.6006 -1.0169  0.4658
 2704TIP3   OH2 8993   4.659   3.737   2.307  0.1368 -0.3205  0.2856
 2704TIP3    H1 8994   4.752   3.715   2.307  0.3649  0.5677 -0.4819
 2704TIP3    H2 8995   4.627   3.703   2.223  0.3823  1.6726 -0.6830
 2705TIP3   OH2 8996   0.515   7.218   1.600 -0.0667  0.4271 -0.0578
 2705TIP3    H1 8997   0.440   7.249   1.651 -0.3817 -0.5412  0.0820
 2705TIP3    H2 8998   0.492   7.129   1.575  0.6605  0.4295 -0.7751
 2706TIP3   OH2 8999   4.759   8.591   3.938 -0.0055  0.8038 -0.2738
 2706TIP3    H1 9000   4.666   8.589   3.960 -0.1067 -3.2025 -0.2166
 2706TIP3    H2 9001   4.763   8.627   3.850 -1.8084 -0.0790 -0.7529
 2707TIP3   OH2 9002   4.642   5.954   0.983  0.3434  0.0726  0.1635
 2707TIP3    H1 9003   4.675   5.950   1.072  1.5768 -0.7766 -0.3043
 2707TIP3    H2 9004   4.546   5.955   0.992  0.4529 -0.2670  1.4716
 2708TIP3   OH2 9005   4.665   3.283   6.976  0.5518  0.1594 -1.0896
 2708TIP3    H1 9006   4.722   3.255   7.047  1.0350  0.4862 -1.3443
 2708TIP3    H2 9007   4.622   3.202   6.947  0.3871  0.0197 -0.4647
 2709TIP3   OH2 9008   0.527   3.907   6.217 -0.1464 -0.5926  0.1177
 2709TIP3    H1 9009   0.550   3.967   6.146  1.8585 -0.7278  0.5898
 2709TIP3    H2 9010   0.442   3.871   6.192  0.6354 -0.8490 -2.3383
 2710TIP3   OH2 9011   2.306   9.904   4.102 -0.0129  0.1014 -0.1056
 2710TIP3    H1 9012   2.379   9.877   4.159  1.0056 -0.8233 -1.7585
 2710TIP3    H2 9013   2.348   9.954   4.032 -1.2497  1.3269 -0.0002
 2711TIP3   OH2 9014   4.141   2.837   6.087  0.0376 -0.1441 -0.0602
 2711TIP3    H1 9015   4.146   2.930   6.110  0.3545 -0.1499 -0.1097
 2711TIP3    H2 9016   4.187   2.830   6.004 -1.3590 -0.0728 -0.8748
 2712TIP3   OH2 9017   3.917   6.687  10.457 -0.3177 -0.6191  0.4996
 2712TIP3    H1 9018   3.864   6.736  10.521 -1.2937  0.6954 -1.2411
 2712TIP3    H2 9019   3.935   6.751  10.388  0.0087 -2.2310 -0.9448
 2713TIP3   OH2 9020   5.375  10.744   7.985  0.6146  0.0265 -0.2835
 2713TIP3    H1 9021   5.315  10.800   8.034  0.7742  0.0687 -0.1359
 2713TIP3    H2 9022   5.325  10.717   7.908  0.1157 -0.6144  0.2548
 2714TIP3   OH2 9023   8.654   7.207   5.131 -0.0153  0.1213 -0.0262
 2714TIP3    H1 9024   8.604   7.130   5.156 -1.1549  1.1304  0.9073
 2714TIP3    H2 9025   8.701   7.232   5.211 -0.5778  1.0575  0.0314
 2715TIP3   OH2 9026   2.726   6.317   5.678  0.4948  0.1637  0.4271
 2715TIP3    H1 9027   2.745   6.223   5.681 -0.3112 -0.0168 -0.0374
 2715TIP3    H2 9028   2.755   6.349   5.763 -0.3261 -0.7265  1.0683
 2716TIP3   OH2 9029   5.274   4.240   2.915  0.4251 -0.0735 -0.3107
 2716TIP3    H1 9030   5.215   4.179   2.869  1.6081 -1.3736 -0.1769
 2716TIP3    H2 9031   5.219   4.316   2.934 -1.3911 -1.4340  0.2804
 2717TIP3   OH2 9032   9.325   1.495   6.257  0.0207  0.0355  0.9455
 2717TIP3    H1 9033   9.267   1.419   6.265 -1.0959  0.8186  0.5802
 2717TIP3    H2 9034   9.372   1.498   6.340 -1.2978  0.0211  1.7194
 2718TIP3   OH2 9035   8.258   7.561   0.964  0.2915 -0.1834  0.4382
 2718TIP3    H1 9036   8.240   7.639   0.910 -1.1161 -0.5195  0.3731
 2718TIP3    H2 9037   8.180   7.552   1.019 -0.0905 -2.1737 -0.3411
 2719TIP3   OH2 9038   1.698  10.479   9.802  0.2938 -0.2148  0.2385
 2719TIP3    H1 9039   1.620  10.532   9.817  0.2938 -0.1921  0.1585
 2719TIP3    H2 9040   1.759  10.505   9.872 -0.3026 -1.2788  1.1798
 2720TIP3   OH2 9041   0.731   4.498   6.086 -0.4493 -0.0287  0.0044
 2720TIP3    H1 9042   0.661   4.561   6.100  0.6165  1.6692 -1.7354
 2720TIP3    H2 9043   0.811   4.551   6.087  0.9229 -1.9548  2.3320
 2721TIP3   OH2 9044   8.014   0.236   2.570 -0.3342 -0.4767 -0.4982
 2721TIP3    H1 9045   7.963   0.317   2.578  2.1252  1.4768 -2.8622
 2721TIP3    H2 9046   7.968   0.185   2.503 -0.2387  0.4118 -1.2588
 2722TIP3   OH2 9047   7.021   7.189   8.933  0.0259  0.0052  0.2415
 2722TIP3    H1 9048   7.024   7.183   8.837 -0.9213 -1.1277  0.2612
 2722TIP3    H2 9049   7.055   7.277   8.952 -0.9295  0.7435 -1.2055
 2723TIP3   OH2 9050   2.130   7.660   6.892 -0.1436 -0.5491  0.0733
 2723TIP3    H1 9051   2.180   7.579   6.885 -0.6557 -0.8393 -0.3128
 2723TIP3    H2 9052   2.139   7.686   6.984 -2.6679 -2.8350  1.1136
 2724TIP3   OH2 9053   8.544   1.854  10.803  0.0452  0.2595  0.2625
 2724TIP3    H1 9054   8.551   1.949  10.790  0.3714  0.4937  1.8563
 2724TIP3    H2 9055   8.547   1.843  10.898  0.3305 -1.3818  0.0975
 2725TIP3   OH2 9056   7.566   0.647   3.158 -0.2509  0.7467  0.5241
 2725TIP3    H1 9057   7.607   0.570   3.198  0.2422  0.0188 -1.2691
 2725TIP3    H2 9058   7.632   0.681   3.099 -1.4996  0.7506 -0.9355
 2726TIP3   OH2 9059   6.238  10.690   4.816  0.5516 -1.2090  0.3937
 2726TIP3    H1 9060   6.211  10.630   4.885 -1.4293 -1.6325 -0.6658
 2726TIP3    H2 9061   6.237  10.636   4.736  2.2006 -0.5889 -0.0861
 2727TIP3   OH2 9062   4.198   3.834  10.747 -0.6708  0.0199 -0.0767
 2727TIP3    H1 9063   4.174   3.745  10.724 -0.7447  0.8862 -4.1131
 2727TIP3    H2 9064   4.114   3.879  10.758 -0.6518 -0.5391  3.2131
 2728TIP3   OH2 9065   5.209   1.655  10.766 -0.0527 -0.4050  0.2207
 2728TIP3    H1 9066   5.234   1.633  10.676  0.5501 -0.8961  0.4943
 2728TIP3    H2 9067   5.117   1.678  10.761  0.1062  0.0679 -0.6089
 2729TIP3   OH2 9068   5.169   2.896   4.237 -0.0810 -0.0470  1.0772
 2729TIP3    H1 9069   5.089   2.852   4.206  1.4086 -2.5529  0.4478
 2729TIP3    H2 9070   5.203   2.837   4.305  0.8316  1.3736  1.8896
 2730TIP3   OH2 9071   9.437   4.902   4.823  1.0153  0.2425  0.3537
 2730TIP3    H1 9072   9.510   4.844   4.839 -0.6606 -1.9396  0.5437
 2730TIP3    H2 9073   9.359   4.847   4.832 -0.6111  2.0273 -1.5543
 2731TIP3   OH2 9074   7.243   7.255   3.767 -0.1153  0.2973  0.0951
 2731TIP3    H1 9075   7.289   7.320   3.821 -0.3555 -1.1965  2.2148
 2731TIP3    H2 9076   7.155   7.251   3.805 -0.4473 -0.4867 -0.7242
 2732TIP3   OH2 9077   0.674   1.664   7.768  0.5581 -0.0380  0.2180
 2732TIP3    H1 9078   0.685   1.574   7.798  0.7886  0.3646  1.3998
 2732TIP3    H2 9079   0.740   1.713   7.817  1.0556  0.6445 -1.0867
 2733TIP3   OH2 9080   3.007  10.562  10.905  0.6187 -0.0056  0.0434
 2733TIP3    H1 9081   2.988  10.535  10.995  0.0489  0.3476  0.0317
 2733TIP3    H2 9082   2.960  10.644  10.894  0.5234 -0.1463 -0.6399
 2734TIP3   OH2 9083   9.374   3.966   5.910 -0.0357  0.3485 -0.0004
 2734TIP3    H1 9084   9.425   4.026   5.857  1.3898 -1.6085 -0.9646
 2734TIP3    H2 9085   9.303   3.937   5.853 -0.7706  1.0994  0.4902
 2735TIP3   OH2 9086   3.204   5.904   8.356  0.2436 -0.0769  0.3492
 2735TIP3    H1 9087   3.128   5.881   8.410  0.2142 -0.5739  0.0994
 2735TIP3    H2 9088   3.279   5.869   8.405  0.2786  0.0753  0.4050
 2736TIP3   OH2 9089   8.886   5.471   8.893  0.2419 -0.1771  0.1470
 2736TIP3    H1 9090   8.974   5.493   8.924 -0.1025  0.3645  0.7710
 2736TIP3    H2 9091   8.883   5.502   8.803  1.6421 -2.7541 -0.9026
 2737TIP3   OH2 9092   2.133   7.695   5.449 -0.0661 -0.0729  0.2059
 2737TIP3    H1 9093   2.180   7.696   5.365 -2.0447 -0.8687 -0.9759
 2737TIP3    H2 9094   2.138   7.604   5.478 -0.3004 -0.0260  0.3925
 2738TIP3   OH2 9095  10.229   4.322   7.403  0.2773  0.2501  0.0219
 2738TIP3    H1 9096  10.155   4.262   7.398  0.6699 -0.5411  2.5251
 2738TIP3    H2 9097  10.267   4.306   7.489  2.2157  1.9959 -0.4422
 2739TIP3   OH2 9098   6.388   2.952   9.996  0.2404  0.0951 -0.0215
 2739TIP3    H1 9099   6.430   2.986   9.917  0.1685  0.9078  0.2719
 2739TIP3    H2 9100   6.341   3.028  10.032 -2.7113 -1.0994 -1.0903
 2740TIP3   OH2 9101  10.846   8.364   4.677 -0.4046  0.0763  0.6385
 2740TIP3    H1 9102  10.760   8.386   4.712 -0.5760  0.8188 -0.1957
 2740TIP3    H2 9103  10.904   8.433   4.708  0.3864 -1.4738  2.8792
 2741TIP3   OH2 9104   5.734   3.494   6.187 -0.1852  0.6780  0.1626
 2741TIP3    H1 9105   5.671   3.487   6.258 -1.1643 -0.3767 -0.7726
 2741TIP3    H2 9106   5.819   3.487   6.230 -0.7709 -0.5193  1.1870
 2742TIP3   OH2 9107   6.042   4.874   3.821 -0.1408 -0.2039  0.3312
 2742TIP3    H1 9108   6.004   4.850   3.737  0.0002  1.3099 -0.2083
 2742TIP3    H2 9109   6.123   4.920   3.798 -0.7370  1.3583  1.1995
 2743TIP3   OH2 9110   7.797   9.196   7.940 -0.0646 -0.2153 -0.0710
 2743TIP3    H1 9111   7.885   9.185   7.903 -0.5041 -0.5569 -1.0415
 2743TIP3    H2 9112   7.761   9.107   7.941 -1.0600  0.1445 -1.3812
 2744TIP3   OH2 9113   0.497   4.735   0.485  1.4438  0.0020  0.0615
 2744TIP3    H1 9114   0.413   4.762   0.521  0.6301 -1.3124 -0.7551
 2744TIP3    H2 9115   0.550   4.712   0.561  0.6425 -0.3222  0.5349
 2745TIP3   OH2 9116   3.116   1.258   3.080  0.2147  0.3938  0.5065
 2745TIP3    H1 9117   3.028   1.232   3.104  0.4300 -0.4094  0.4655
 2745TIP3    H2 9118   3.111   1.275   2.986 -0.0613  1.0767  0.6437
 2746TIP3   OH2 9119  10.457   7.111   0.215 -0.4324  0.4467 -0.2630
 2746TIP3    H1 9120  10.363   7.092   0.218 -0.2895 -0.4857 -1.0213
 2746TIP3    H2 9121  10.491   7.080   0.299 -0.6863  0.0046 -0.3165
 2747TIP3   OH2 9122   2.241   1.438   3.256 -0.0949 -0.4206 -0.2369
 2747TIP3    H1 9123   2.312   1.385   3.292  1.8907 -0.3035 -3.5840
 2747TIP3    H2 9124   2.272   1.528   3.265 -0.0642 -0.3297 -1.2052
 2748TIP3   OH2 9125   7.154  10.779   0.343  0.5430 -0.1445  0.1001
 2748TIP3    H1 9126   7.115  10.795   0.257 -0.7804 -0.1503  0.6689
 2748TIP3    H2 9127   7.246  10.759   0.324 -0.0481 -1.7066 -1.4531
 2749TIP3   OH2 9128  10.095   2.507   0.161 -0.3283 -0.3374 -0.2363
 2749TIP3    H1 9129  10.182   2.484   0.194  0.1585 -0.1386 -1.3261
 2749TIP3    H2 9130  10.035   2.448   0.207  0.1955  0.4956  1.6052
 2750TIP3   OH2 9131   1.779   6.374   0.382 -0.2603 -0.4846  0.4626
 2750TIP3    H1 9132   1.796   6.340   0.294 -0.4054  1.1146 -0.2063
 2750TIP3    H2 9133   1.711   6.440   0.370 -0.4133 -0.3658  1.8093
 2751TIP3   OH2 9134   6.132   8.096   5.423  0.0543 -0.1678 -0.0488
 2751TIP3    H1 9135   6.197   8.116   5.490 -2.8338  1.0394  2.6399
 2751TIP3    H2 9136   6.078   8.027   5.462 -2.0686  0.9702 -0.8128
 2752TIP3   OH2 9137  10.341   4.130   8.420  0.7923  0.0525  0.5838
 2752TIP3    H1 9138  10.299   4.055   8.462  1.1394 -0.4905 -0.0141
 2752TIP3    H2 9139  10.286   4.205   8.444 -0.0039 -0.5046  0.5604
 2753TIP3   OH2 9140   9.747   8.152   9.234  0.0416  0.7955  0.2108
 2753TIP3    H1 9141   9.789   8.131   9.317 -0.7912 -1.0092  0.2263
 2753TIP3    H2 9142   9.669   8.202   9.258 -2.1920 -2.6672  0.9715
 2754TIP3   OH2 9143   5.441   9.145   1.110  0.2387 -0.3601  0.2990
 2754TIP3    H1 9144   5.435   9.142   1.205 -1.0979 -1.3683  0.2270
 2754TIP3    H2 9145   5.523   9.099   1.089  0.9038  0.5001  0.9714
 2755TIP3   OH2 9146   5.378   1.562   4.426  0.3289 -0.1651 -0.3068
 2755TIP3    H1 9147   5.437   1.506   4.376  1.5238  0.7731 -0.0108
 2755TIP3    H2 9148   5.424   1.577   4.509 -0.5105  0.2756  0.0972
 2756TIP3   OH2 9149   5.109   1.146   0.399  0.2569 -0.2056 -0.6684
 2756TIP3    H1 9150   5.123   1.240   0.414  3.3812 -0.7382  0.4227
 2756TIP3    H2 9151   5.094   1.139   0.305  2.3000  1.2227 -1.1614
 2757TIP3   OH2 9152   3.246  10.803   5.817  0.0490 -0.1350  0.9176
 2757TIP3    H1 9153   3.194  10.866   5.867  1.1057  0.0339  1.8506
 2757TIP3    H2 9154   3.332  10.844   5.807  0.2027 -0.6532 -0.0804
 2758TIP3   OH2 9155   7.258   2.045   7.393  0.7656 -0.8799 -0.5906
 2758TIP3    H1 9156   7.289   1.960   7.424  0.8291 -0.9523 -0.8442
 2758TIP3    H2 9157   7.163   2.043   7.406  0.7466 -1.0548 -0.7443
 2759TIP3   OH2 9158   0.265   0.136  10.128 -0.5740 -0.0176  0.2374
 2759TIP3    H1 9159   0.173   0.115  10.109  0.0204 -2.4215 -0.3224
 2759TIP3    H2 9160   0.311   0.053  10.116  1.5086  0.8492  1.6900
 2760TIP3   OH2 9161   0.551   1.706  10.603  0.5487 -0.1615 -0.4439
 2760TIP3    H1 9162   0.502   1.743  10.530  0.6361 -2.0162 -1.5023
 2760TIP3    H2 9163   0.567   1.781  10.662  0.1231  1.2976 -2.0994
 2761TIP3   OH2 9164   2.166   4.356   7.554  0.2908  0.3656  0.0337
 2761TIP3    H1 9165   2.101   4.289   7.533  0.9714  0.2601 -1.8554
 2761TIP3    H2 9166   2.118   4.418   7.610 -0.8720 -0.6924  0.2764
 2762TIP3   OH2 9167   0.754   9.378   9.791 -0.0795  0.3581  0.6097
 2762TIP3    H1 9168   0.736   9.290   9.826 -0.7423  0.0941 -0.3716
 2762TIP3    H2 9169   0.849   9.380   9.780 -0.1304 -0.5522 -0.1443
 2763TIP3   OH2 9170   2.372   8.002   5.491 -0.7299  1.0599  0.3049
 2763TIP3    H1 9171   2.404   7.927   5.440 -1.5443  1.1925 -0.4447
 2763TIP3    H2 9172   2.350   7.965   5.577 -1.3082  0.3774 -0.1148
 2764TIP3   OH2 9173   1.579   2.193  10.047  0.0078  0.2930  0.1460
 2764TIP3    H1 9174   1.510   2.214   9.984 -1.2801 -1.0148  1.0561
 2764TIP3    H2 9175   1.593   2.099  10.037  0.7108  0.3036  0.9174
 2765TIP3   OH2 9176   3.048   6.445  10.187  0.5373  0.6245  0.3760
 2765TIP3    H1 9177   3.138   6.449  10.153  0.6030 -0.6598  0.3622
 2765TIP3    H2 9178   3.058   6.463  10.281  0.5403  2.5682  0.0432
 2766TIP3   OH2 9179   7.295   5.116  10.863 -0.5304 -0.0647 -0.2222
 2766TIP3    H1 9180   7.327   5.058  10.932 -1.2037 -1.1765 -0.8180
 2766TIP3    H2 9181   7.217   5.157  10.901 -0.7730 -0.5064 -0.2429
 2767TIP3   OH2 9182   2.785   5.838   4.341  0.0093 -0.3401 -0.5763
 2767TIP3    H1 9183   2.846   5.799   4.404 -2.1983 -1.4221  1.0307
 2767TIP3    H2 9184   2.767   5.925   4.376  2.3096  0.9443 -2.3243
 2768TIP3   OH2 9185   9.506   9.181   3.695  0.9742 -0.1232 -0.0759
 2768TIP3    H1 9186   9.512   9.099   3.645 -1.3048 -0.6207  0.3207
 2768TIP3    H2 9187   9.499   9.249   3.628 -0.8776 -0.6703 -0.5118
 2769TIP3   OH2 9188   8.336   7.545   0.663 -0.0533  0.2363 -0.0452
 2769TIP3    H1 9189   8.309   7.600   0.590 -0.9140  0.7739  0.6551
 2769TIP3    H2 9190   8.255   7.505   0.694 -0.0710  1.6927  1.9553
 2770TIP3   OH2 9191   4.818   3.532   1.741 -0.2652 -0.2821  0.1348
 2770TIP3    H1 9192   4.794   3.601   1.803 -0.1627  0.6856 -0.8819
 2770TIP3    H2 9193   4.800   3.451   1.788  1.9851  0.3554  2.3443
 2771TIP3   OH2 9194   2.097   4.422   2.503  0.0557  0.0820  0.1502
 2771TIP3    H1 9195   2.074   4.509   2.535  0.2660  0.0230  0.4612
 2771TIP3    H2 9196   2.191   4.425   2.489  0.0878 -0.1476  0.3158
 2772TIP3   OH2 9197   7.870   5.916   2.383  0.8294 -0.1449 -0.1968
 2772TIP3    H1 9198   7.900   5.894   2.294 -1.5445 -1.3343 -0.7774
 2772TIP3    H2 9199   7.885   5.836   2.433 -1.5340 -0.9124 -0.5967
 2773TIP3   OH2 9200  10.471   5.394   5.331  0.0912 -0.4515  0.0904
 2773TIP3    H1 9201  10.554   5.428   5.366 -0.2178  1.2006 -0.7271
 2773TIP3    H2 9202  10.498   5.322   5.273  0.7588 -1.5781  1.7099
 2774TIP3   OH2 9203   7.189   4.533   1.512 -0.1531 -0.2608  0.9341
 2774TIP3    H1 9204   7.229   4.606   1.465  0.8512 -1.4201 -0.0877
 2774TIP3    H2 9205   7.099   4.560   1.528 -0.4782  0.3115 -1.4574
 2775TIP3   OH2 9206   7.823   5.544  10.253  0.4549 -0.3309 -0.5349
 2775TIP3    H1 9207   7.817   5.622  10.307 -1.8089 -0.4868 -0.4745
 2775TIP3    H2 9208   7.895   5.562  10.193  0.0238  1.7872 -0.4822
 2776TIP3   OH2 9209   0.752   2.415   8.893  0.0904  0.5845 -0.0547
 2776TIP3    H1 9210   0.773   2.361   8.970 -2.2221  0.1324  0.3166
 2776TIP3    H2 9211   0.833   2.413   8.841  0.9391 -1.0997  1.1907
 2777TIP3   OH2 9212   7.809   4.402   0.471 -0.3271  0.2425  0.7131
 2777TIP3    H1 9213   7.813   4.308   0.488  0.6465 -0.0029 -0.6980
 2777TIP3    H2 9214   7.754   4.411   0.393  0.3104  0.7501  0.3074
 2778TIP3   OH2 9215   5.921  10.600   4.780  0.0518  0.1753 -0.3937
 2778TIP3    H1 9216   5.989  10.559   4.728  0.7513  1.0678 -0.2140
 2778TIP3    H2 9217   5.960  10.614   4.866 -0.1938  1.0726 -0.4084
 2779TIP3   OH2 9218   8.270   9.367   6.317  0.7065 -0.1968  0.1534
 2779TIP3    H1 9219   8.251   9.402   6.403  1.7280 -1.3899  0.9031
 2779TIP3    H2 9220   8.365   9.370   6.309  0.5790  1.0612 -1.4673
 2780TIP3   OH2 9221   6.321   2.390   0.869  0.5612 -0.1204  0.7688
 2780TIP3    H1 9222   6.355   2.308   0.903  1.0830 -0.2567 -0.0535
 2780TIP3    H2 9223   6.238   2.367   0.827  0.4739 -0.1420  0.9524
 2781TIP3   OH2 9224   6.396   6.082   5.934 -0.6112  0.0978 -0.0592
 2781TIP3    H1 9225   6.441   6.019   5.991 -0.6611  0.2918  0.1979
 2781TIP3    H2 9226   6.446   6.163   5.943 -0.7586  0.1952 -0.1024
 2782TIP3   OH2 9227   3.685   8.178   8.498  0.1273  0.0074  0.3370
 2782TIP3    H1 9228   3.774   8.151   8.474  0.0341  1.0207 -1.3277
 2782TIP3    H2 9229   3.693   8.271   8.516 -1.1017  0.9870 -3.3153
 2783TIP3   OH2 9230   5.574   1.569   7.760 -0.3718  0.0948  0.2407
 2783TIP3    H1 9231   5.606   1.658   7.773  0.2849 -0.2209  0.8699
 2783TIP3    H2 9232   5.646   1.513   7.788 -0.9641 -0.6357  0.3497
 2784TIP3   OH2 9233   8.357  10.363   6.543  0.2851  0.0702 -0.2262
 2784TIP3    H1 9234   8.263  10.344   6.547  0.1760  0.7679  2.6917
 2784TIP3    H2 9235   8.398  10.277   6.530 -0.6454 -0.9192  2.5594
 2785TIP3   OH2 9236   9.617   0.790   2.797 -0.0615 -0.2265 -0.2791
 2785TIP3    H1 9237   9.573   0.741   2.728 -1.9578  0.5782  0.3044
 2785TIP3    H2 9238   9.689   0.733   2.825  0.4379 -0.7954 -2.5134
 2786TIP3   OH2 9239   0.703   8.211   0.071 -0.2302 -0.6013 -0.2411
 2786TIP3    H1 9240   0.651   8.160   0.008 -0.7245 -0.9164  0.4109
 2786TIP3    H2 9241   0.639   8.259   0.122  0.2544  1.3506 -1.3632
 2787TIP3   OH2 9242   7.260   9.143   5.055 -0.2528  0.4935 -0.0815
 2787TIP3    H1 9243   7.328   9.174   4.995  0.0460  0.0172  0.0029
 2787TIP3    H2 9244   7.280   9.185   5.139  1.4737 -1.5408  0.6354
 2788TIP3   OH2 9245   8.082   6.044   6.132 -0.0737 -0.1870  0.0268
 2788TIP3    H1 9246   8.011   6.102   6.105  0.8531  0.6059 -0.7548
 2788TIP3    H2 9247   8.150   6.102   6.165  1.0453 -0.7853 -1.1548
 2789TIP3   OH2 9248   0.242   4.513   1.561 -0.3031 -0.5011 -0.0174
 2789TIP3    H1 9249   0.242   4.604   1.591  1.6264 -0.2183 -0.7074
 2789TIP3    H2 9250   0.151   4.496   1.537 -1.2150  0.4153  2.4534
 2790TIP3   OH2 9251   0.356   1.386   2.048 -0.0596 -0.1985  0.2113
 2790TIP3    H1 9252   0.434   1.341   2.080  1.5906  1.3012 -1.4738
 2790TIP3    H2 9253   0.326   1.331   1.975 -0.1620 -0.4213  0.4216
 2791TIP3   OH2 9254   7.079   6.819   6.648  0.0334 -0.4505  0.6436
 2791TIP3    H1 9255   7.063   6.775   6.564 -0.0545 -0.9506  0.9154
 2791TIP3    H2 9256   7.169   6.796   6.670  0.7642  1.3476 -0.2865
 2792TIP3   OH2 9257   7.821   4.847   3.880 -0.5296  0.6499 -0.6473
 2792TIP3    H1 9258   7.842   4.900   3.803 -0.9771  1.1938 -0.4017
 2792TIP3    H2 9259   7.726   4.836   3.877 -0.5817  0.8660 -0.0554
 2793TIP3   OH2 9260   7.744   6.477   8.481 -0.3365  0.2859 -0.1034
 2793TIP3    H1 9261   7.731   6.384   8.497  0.1453  0.0841 -0.8300
 2793TIP3    H2 9262   7.748   6.485   8.386  4.1357  0.3177 -0.1591
 2794TIP3   OH2 9263   6.665   4.018   1.087  0.0014  0.2080 -0.1693
 2794TIP3    H1 9264   6.579   4.042   1.051 -0.4493 -1.4856 -0.2947
 2794TIP3    H2 9265   6.645   3.956   1.157  1.1538 -1.3692 -1.1765
 2795TIP3   OH2 9266   5.322   4.992   0.754  0.1875  0.0366  0.2408
 2795TIP3    H1 9267   5.264   4.941   0.697  0.2878 -1.4705  1.4289
 2795TIP3    H2 9268   5.265   5.023   0.824 -0.0214  2.2215 -0.7947
 2796TIP3   OH2 9269   7.530   8.531   1.308 -0.4655  0.0167  0.3335
 2796TIP3    H1 9270   7.552   8.585   1.384 -0.8363 -1.2204  1.3405
 2796TIP3    H2 9271   7.544   8.441   1.336 -3.6284 -0.6911  0.0486
 2797TIP3   OH2 9272   4.626   9.941   0.134 -0.0802 -0.7164 -0.5731
 2797TIP3    H1 9273   4.607  10.031   0.106  1.4349 -0.1380  0.1420
 2797TIP3    H2 9274   4.709   9.920   0.091  1.1853 -0.6064  1.6731
 2798TIP3   OH2 9275   7.092   3.360   1.689  0.2204  0.1615 -0.9014
 2798TIP3    H1 9276   7.104   3.302   1.764 -0.8334  0.5908 -0.3666
 2798TIP3    H2 9277   7.037   3.311   1.628  2.9804 -1.1276 -2.5503
 2799TIP3   OH2 9278  10.239   7.972   6.327  0.3985 -0.6381 -0.0600
 2799TIP3    H1 9279  10.287   7.908   6.274  1.1471 -0.8702  0.8827
 2799TIP3    H2 9280  10.188   7.918   6.388 -0.3855 -0.3687 -0.4608
 2800TIP3   OH2 9281   4.616   2.721   1.114  0.0308 -0.4515  0.2407
 2800TIP3    H1 9282   4.702   2.763   1.112  1.1471 -2.4753  1.6977
 2800TIP3    H2 9283   4.570   2.755   1.038  2.9922 -1.0648 -1.9844
 2801TIP3   OH2 9284   8.846   2.647   4.323 -0.1668  0.0496  0.0968
 2801TIP3    H1 9285   8.939   2.623   4.314 -0.0056  1.3470 -3.3549
 2801TIP3    H2 9286   8.845   2.742   4.316 -1.8365 -0.0450 -2.6924
 2802TIP3   OH2 9287   2.965  10.638   8.972 -0.4293 -0.4215  0.6768
 2802TIP3    H1 9288   2.884  10.687   8.982 -0.2036  0.3794 -1.0381
 2802TIP3    H2 9289   3.021  10.695   8.919  0.4433 -1.8445  0.0017
 2803TIP3   OH2 9290   8.298   2.699   2.981 -0.3892 -0.0110  0.2765
 2803TIP3    H1 9291   8.365   2.649   3.028 -0.8129 -1.7527 -0.8606
 2803TIP3    H2 9292   8.346   2.744   2.912 -0.3078 -1.0461 -0.3711
 2804TIP3   OH2 9293   7.695   0.908   3.693 -0.0120 -0.0549  0.4601
 2804TIP3    H1 9294   7.646   0.828   3.710  0.8625 -0.7231 -0.0823
 2804TIP3    H2 9295   7.736   0.930   3.776 -0.2065 -0.1989  0.5935
 2805TIP3   OH2 9296   9.424   1.630   1.705  0.0787 -0.2263 -0.3146
 2805TIP3    H1 9297   9.435   1.561   1.639  1.9229  0.9091 -1.2558
 2805TIP3    H2 9298   9.509   1.672   1.711 -0.9045  1.7952  0.4684
 2806TIP3   OH2 9299  10.453  10.239   3.057  0.0699  0.3141  0.1247
 2806TIP3    H1 9300  10.464  10.187   2.977  1.2410  1.1556 -0.2978
 2806TIP3    H2 9301  10.474  10.329   3.030 -1.1874  0.8953  0.9974
 2807TIP3   OH2 9302   0.339   1.096   5.653  0.5545 -0.1561  0.4110
 2807TIP3    H1 9303   0.420   1.097   5.601  1.4868  1.4780  1.7982
 2807TIP3    H2 9304   0.276   1.147   5.602 -0.2198 -2.7753 -1.4634
 2808TIP3   OH2 9305  10.397   4.095   6.462 -0.1492 -0.3686 -0.3597
 2808TIP3    H1 9306  10.443   4.025   6.415  0.0272 -0.3609 -0.2013
 2808TIP3    H2 9307  10.357   4.050   6.537 -0.0812 -0.3110 -0.2885
 2809TIP3   OH2 9308   7.607   5.053   6.367 -0.5155  0.3327  0.0068
 2809TIP3    H1 9309   7.659   4.988   6.415 -0.8737  0.6878  0.9058
 2809TIP3    H2 9310   7.583   5.117   6.434 -0.0498  1.4759 -0.8969
 2810TIP3   OH2 9311   6.037   1.403   0.049  0.8849  0.1251  0.3480
 2810TIP3    H1 9312   6.000   1.389   0.137  0.9245  0.0046  0.3455
 2810TIP3    H2 9313   6.038   1.316   0.010 -0.6894  0.4082 -0.3845
 2811TIP3   OH2 9314   2.806   0.868   4.920  0.0930 -0.5484 -0.4431
 2811TIP3    H1 9315   2.815   0.782   4.962 -0.4182 -0.7366 -0.7090
 2811TIP3    H2 9316   2.840   0.929   4.985 -1.2077 -0.7764  0.5113
 2812TIP3   OH2 9317   3.062   1.995   3.071  0.1707 -0.1027 -0.3098
 2812TIP3    H1 9318   3.126   1.924   3.063 -0.0490 -0.3546  0.1676
 2812TIP3    H2 9319   3.098   2.053   3.138  0.6233  0.5342 -1.0898
 2813TIP3   OH2 9320   1.554   0.364   9.922  0.3761 -0.3613  0.7856
 2813TIP3    H1 9321   1.533   0.354   9.829 -1.1320  1.4814  0.8640
 2813TIP3    H2 9322   1.562   0.274   9.954  1.0605 -1.0457 -1.1259
 2814TIP3   OH2 9323  10.762   8.761   2.998  0.3234  0.1730 -0.0999
 2814TIP3    H1 9324  10.804   8.846   3.010  0.9408  0.0846 -1.4972
 2814TIP3    H2 9325  10.833   8.698   3.004  0.3170 -0.0319 -1.7865
 2815TIP3   OH2 9326   0.374   4.224  10.342 -0.0944 -0.4058  0.0334
 2815TIP3    H1 9327   0.467   4.200  10.338  0.0936 -0.0061  1.6153
 2815TIP3    H2 9328   0.342   4.185  10.423 -1.5119 -1.1615 -0.8572
 2816TIP3   OH2 9329   7.631   5.007   4.153 -0.6484 -0.4642  0.5788
 2816TIP3    H1 9330   7.569   4.955   4.102  1.1223 -3.1227  0.8919
 2816TIP3    H2 9331   7.633   4.966   4.239 -0.4050  1.2367  1.4263
 2817TIP3   OH2 9332  10.150   3.904   6.273  0.1067  0.0964 -0.1174
 2817TIP3    H1 9333  10.141   3.959   6.351  4.3022 -1.7712  2.0219
 2817TIP3    H2 9334  10.087   3.833   6.287 -0.8923  1.0230  0.2832
 2818TIP3   OH2 9335   9.570   1.960   4.428  0.0114  0.4153 -0.2078
 2818TIP3    H1 9336   9.573   1.930   4.519  0.4890 -1.9586 -0.9426
 2818TIP3    H2 9337   9.476   1.973   4.411 -0.2529 -0.9547  0.0942
 2819TIP3   OH2 9338   3.817   1.523   2.696  0.1790  0.5937 -0.2769
 2819TIP3    H1 9339   3.908   1.520   2.667  0.8213 -0.6207  1.7029
 2819TIP3    H2 9340   3.806   1.444   2.749 -2.2836  0.2939 -1.1289
 2820TIP3   OH2 9341   1.585   5.718   5.916 -0.3811  0.4891  0.1771
 2820TIP3    H1 9342   1.577   5.718   6.012  1.7642 -0.7916  0.4304
 2820TIP3    H2 9343   1.670   5.677   5.900 -0.2402  1.6000 -2.2620
 2821TIP3   OH2 9344   1.349   4.711   9.976  0.3215  0.5966  0.1290
 2821TIP3    H1 9345   1.417   4.750  10.031 -1.2925 -0.2296  2.9282
 2821TIP3    H2 9346   1.285   4.781   9.964  0.1962  0.4870  0.1596
 2822TIP3   OH2 9347   7.615   6.759   1.870 -0.0380  0.1634 -0.1264
 2822TIP3    H1 9348   7.671   6.697   1.916  0.4089  0.0323 -0.8335
 2822TIP3    H2 9349   7.549   6.705   1.827 -0.3612  0.2757  0.2139
 2823TIP3   OH2 9350   2.070   6.890  10.876  0.3000  0.2887  0.1136
 2823TIP3    H1 9351   2.141   6.833  10.847 -0.1317 -0.7003  0.9514
 2823TIP3    H2 9352   2.090   6.908  10.968 -0.2715  0.4083  0.2183
 2824TIP3   OH2 9353   3.738   0.922   4.594  0.1587  0.1024 -0.1681
 2824TIP3    H1 9354   3.667   0.913   4.658 -0.7091 -0.6182 -1.1809
 2824TIP3    H2 9355   3.697   0.966   4.519  1.2500  1.2938 -0.1070
 2825TIP3   OH2 9356   5.468   6.056  10.549 -0.4005  0.1774  0.5482
 2825TIP3    H1 9357   5.385   6.096  10.578 -0.3275  0.0975  0.8678
 2825TIP3    H2 9358   5.508   6.023  10.629 -0.5333 -0.6926  0.2678
 2826TIP3   OH2 9359   9.381   5.344  10.570  0.0878 -0.8296 -0.2303
 2826TIP3    H1 9360   9.408   5.252  10.568 -0.9260 -1.2115  1.3748
 2826TIP3    H2 9361   9.347   5.361  10.482  1.3519 -1.6269 -0.9003
 2827TIP3   OH2 9362   6.969   8.191   2.213 -0.0351 -0.7940 -0.8734
 2827TIP3    H1 9363   7.022   8.247   2.270  0.8658 -1.6836 -0.7975
 2827TIP3    H2 9364   7.012   8.196   2.127 -1.1028  0.1600 -1.3681
 2828TIP3   OH2 9365  10.070   8.159  10.577  0.1147 -0.3097  0.7590
 2828TIP3    H1 9366  10.156   8.183  10.612  0.8779 -2.2133  0.3102
 2828TIP3    H2 9367  10.011   8.228  10.608  1.6086  0.5051  1.9046
 2829TIP3   OH2 9368   5.188   4.651   1.082 -0.5944 -0.1781 -0.4128
 2829TIP3    H1 9369   5.253   4.685   1.021 -2.0778  0.2008 -1.8292
 2829TIP3    H2 9370   5.230   4.573   1.120  0.1932 -0.7260 -2.2841
 2830TIP3   OH2 9371   9.258   9.672   0.407 -0.0030 -0.4882 -0.0158
 2830TIP3    H1 9372   9.238   9.645   0.497 -0.5953  0.1287  0.0525
 2830TIP3    H2 9373   9.203   9.615   0.352 -0.0575 -0.4941  0.0442
 2831TIP3   OH2 9374   9.730   5.134   7.847 -0.3153  0.3393 -0.7371
 2831TIP3    H1 9375   9.775   5.173   7.773 -0.7598  0.4347 -0.9589
 2831TIP3    H2 9376   9.747   5.193   7.920 -0.4534  0.6115 -0.9242
 2832TIP3   OH2 9377   4.243   2.685   8.402  0.7214 -0.3359 -0.0610
 2832TIP3    H1 9378   4.234   2.769   8.447 -2.3322 -0.9221  0.6688
 2832TIP3    H2 9379   4.318   2.644   8.445  1.7487  1.6235  0.1597
 2833TIP3   OH2 9380   8.637   0.670  10.415 -0.7089 -0.7223 -0.1866
 2833TIP3    H1 9381   8.632   0.658  10.510 -1.2589 -0.4854 -0.1778
 2833TIP3    H2 9382   8.620   0.584  10.379 -2.8237 -0.3946 -0.0964
 2834TIP3   OH2 9383   8.218   5.421   0.603 -0.1349  0.0197 -0.2377
 2834TIP3    H1 9384   8.231   5.469   0.684 -3.2142 -0.4025  0.6314
 2834TIP3    H2 9385   8.275   5.464   0.539  0.4750  1.9560  1.5340
 2835TIP3   OH2 9386   3.793   2.219   0.802 -0.3810  0.0904  0.8084
 2835TIP3    H1 9387   3.815   2.310   0.822  0.5094 -0.1475  0.9567
 2835TIP3    H2 9388   3.817   2.171   0.881  1.1133 -0.5585  0.0001
 2836TIP3   OH2 9389   4.679   1.656  10.576 -0.1525 -0.8409  0.3158
 2836TIP3    H1 9390   4.604   1.619  10.530 -0.3689 -0.4952  0.3854
 2836TIP3    H2 9391   4.657   1.646  10.669 -0.2070 -0.5436  0.3340
 2837TIP3   OH2 9392   5.073   5.292   2.369 -0.1617 -0.1177  0.1780
 2837TIP3    H1 9393   5.017   5.369   2.365  2.4634  1.8904 -0.3380
 2837TIP3    H2 9394   5.083   5.265   2.277 -0.2180 -0.4288  0.2611
 2838TIP3   OH2 9395   3.927   0.611   8.258  0.3811 -0.7947  0.1673
 2838TIP3    H1 9396   3.839   0.632   8.291  0.4936  0.3149 -0.1759
 2838TIP3    H2 9397   3.925   0.638   8.167  1.6021  0.9587  0.6089
 2839TIP3   OH2 9398   4.127   5.293   9.712 -0.0301  0.1695 -0.2153
 2839TIP3    H1 9399   4.109   5.331   9.797  2.6380 -0.4339  0.7281
 2839TIP3    H2 9400   4.181   5.216   9.731 -1.4646 -1.4881 -2.3218
 2840TIP3   OH2 9401   3.201   4.023   4.359 -0.0939  0.0355 -0.3547
 2840TIP3    H1 9402   3.284   4.062   4.386 -0.1497  0.9116 -1.3751
 2840TIP3    H2 9403   3.136   4.091   4.377 -0.6222 -0.7173  0.6109
 2841TIP3   OH2 9404   1.631   4.020  10.629  0.3489 -0.2833 -0.4836
 2841TIP3    H1 9405   1.678   4.099  10.600  1.6506 -1.4721 -1.7672
 2841TIP3    H2 9406   1.700   3.955  10.643 -0.6664 -1.1322  0.8665
 2842TIP3   OH2 9407   6.689   9.752   3.017 -0.1634  0.0106 -0.8770
 2842TIP3    H1 9408   6.770   9.799   3.037 -0.3669  0.2891 -0.6972
 2842TIP3    H2 9409   6.691   9.675   3.073 -0.3577  0.3847 -0.3452
 2843TIP3   OH2 9410   6.008   8.913   4.343 -0.2411 -0.0063 -0.2353
 2843TIP3    H1 9411   5.993   8.840   4.282 -0.4928  0.5001 -0.7915
 2843TIP3    H2 9412   6.102   8.911   4.359 -0.0724  0.2461 -1.1528
 2844TIP3   OH2 9413   2.448   5.726  10.606  0.3189  0.0011  0.1724
 2844TIP3    H1 9414   2.413   5.813  10.625 -1.9741 -1.1987  1.9282
 2844TIP3    H2 9415   2.438   5.717  10.511  0.2312  1.4689  0.0149
 2845TIP3   OH2 9416  10.489   6.522   5.914 -1.2189  0.0121 -0.0564
 2845TIP3    H1 9417  10.485   6.451   5.978 -1.8052 -0.8796 -1.0550
 2845TIP3    H2 9418  10.564   6.501   5.859 -0.2749  1.1546  0.7189
 2846TIP3   OH2 9419   7.505   3.071   6.401 -0.6341  0.2867 -0.0460
 2846TIP3    H1 9420   7.587   3.042   6.360 -0.6763  0.3336 -0.1634
 2846TIP3    H2 9421   7.512   3.042   6.492 -0.7516 -0.2516 -0.2050
 2847TIP3   OH2 9422   6.166   9.248   2.288 -0.2591  0.2700 -0.2350
 2847TIP3    H1 9423   6.100   9.208   2.346  1.6553 -0.2414  1.7224
 2847TIP3    H2 9424   6.177   9.337   2.322  1.2233 -0.1865  0.5611
 2848TIP3   OH2 9425   1.346   1.823   9.633  0.7983 -0.4738 -0.0344
 2848TIP3    H1 9426   1.253   1.846   9.630  0.8970 -0.1007 -0.3917
 2848TIP3    H2 9427   1.358   1.784   9.719  0.3509 -0.3373  0.0939
 2849TIP3   OH2 9428   7.005   0.961   5.323  0.1226  0.2673  0.4171
 2849TIP3    H1 9429   6.956   0.961   5.404 -2.2320 -0.7105 -0.9155
 2849TIP3    H2 9430   7.090   0.923   5.346 -0.1076  0.9455  2.5668
 2850TIP3   OH2 9431   5.116   5.759   6.124 -0.6670 -0.2229  0.5439
 2850TIP3    H1 9432   5.135   5.852   6.115 -1.5638  0.1748  2.3245
 2850TIP3    H2 9433   5.041   5.743   6.066  0.1604 -0.1152 -0.5960
 2851TIP3   OH2 9434   0.576   1.091   9.020  0.3134 -0.2053 -0.1678
 2851TIP3    H1 9435   0.628   1.072   8.942 -0.7814  0.4618 -1.0852
 2851TIP3    H2 9436   0.583   1.186   9.031 -2.4939  0.2868 -1.6848
 2852TIP3   OH2 9437   5.588   8.453   7.710  0.0515  0.0794  0.4767
 2852TIP3    H1 9438   5.573   8.429   7.619  1.7999 -0.4360  0.2838
 2852TIP3    H2 9439   5.644   8.383   7.744  0.3520  0.8462  1.6090
 2853TIP3   OH2 9440   1.137   7.771  10.088 -0.5756 -0.7268  0.0409
 2853TIP3    H1 9441   1.077   7.840  10.117  0.1694  0.1648 -0.4862
 2853TIP3    H2 9442   1.128   7.771   9.992  0.6524 -0.2011 -0.0893
 2854TIP3   OH2 9443  10.350   5.881   5.052 -0.4501  0.1812  0.3954
 2854TIP3    H1 9444  10.276   5.941   5.056 -1.4607 -1.0253  0.8212
 2854TIP3    H2 9445  10.404   5.904   5.127 -1.4801 -0.2055  1.2955
 2855TIP3   OH2 9446   9.866   7.413   0.949 -0.1683  0.0457  0.0483
 2855TIP3    H1 9447   9.780   7.454   0.954 -0.7631 -1.1556  0.0827
 2855TIP3    H2 9448   9.917   7.471   0.893 -1.1540  0.5224 -0.3772
 2856TIP3   OH2 9449   1.470   1.822   8.842  0.5334 -0.4477 -0.4278
 2856TIP3    H1 9450   1.464   1.796   8.934  0.8107 -0.7345 -0.4882
 2856TIP3    H2 9451   1.503   1.912   8.845  0.2954 -0.3671 -0.2377
 2857TIP3   OH2 9452   4.241   3.735   9.310 -0.0928  0.1997 -0.1878
 2857TIP3    H1 9453   4.186   3.709   9.236  0.2806 -1.2662  0.0243
 2857TIP3    H2 9454   4.299   3.660   9.325  2.2102  1.8078 -0.6038
 2858TIP3   OH2 9455   7.700   7.820   9.046 -0.7164  0.4665  0.0391
 2858TIP3    H1 9456   7.711   7.912   9.067 -2.0995  0.8314 -0.7574
 2858TIP3    H2 9457   7.762   7.775   9.104 -0.7765  1.7957  1.1873
 2859TIP3   OH2 9458  10.720   9.746   0.261  0.1157  0.1851 -0.4127
 2859TIP3    H1 9459  10.676   9.709   0.185  0.8019 -0.8322 -0.3390
 2859TIP3    H2 9460  10.728   9.672   0.322  2.4911  0.1550 -0.6885
 2860TIP3   OH2 9461   0.252   1.340   4.805 -0.3059  0.1442  0.0875
 2860TIP3    H1 9462   0.247   1.259   4.856  1.5843 -0.3423 -0.4231
 2860TIP3    H2 9463   0.277   1.311   4.717  0.9317  1.3056  0.0265
 2861TIP3   OH2 9464  10.231   0.595   1.487 -0.4741  0.2497  0.0930
 2861TIP3    H1 9465  10.206   0.565   1.574 -0.5575 -0.3811 -0.1501
 2861TIP3    H2 9466  10.283   0.674   1.504 -1.2835  0.6816  0.6683
 2862TIP3   OH2 9467   1.351   2.563  10.619 -0.0818 -0.0202 -0.3572
 2862TIP3    H1 9468   1.432   2.572  10.669 -0.5809  0.7965  0.3191
 2862TIP3    H2 9469   1.281   2.577  10.683 -0.7868 -1.1309 -0.8425
 2863TIP3   OH2 9470   3.694   4.229   1.638  0.3977  0.7067 -0.4435
 2863TIP3    H1 9471   3.728   4.201   1.724  1.5281  2.6609 -0.1919
 2863TIP3    H2 9472   3.661   4.148   1.599  0.6652 -0.4129  1.4567
 2864TIP3   OH2 9473   7.516   5.694   2.415  0.3289 -0.4276 -0.5411
 2864TIP3    H1 9474   7.460   5.620   2.439 -2.2583  0.9645 -1.8556
 2864TIP3    H2 9475   7.581   5.699   2.486 -0.1693 -3.1435  0.2167
 2865TIP3   OH2 9476  10.596   8.357   4.296 -0.8683  0.2083  0.7411
 2865TIP3    H1 9477  10.562   8.297   4.229 -1.1781  2.1994 -0.9687
 2865TIP3    H2 9478  10.520   8.409   4.323 -0.7878 -0.6344  2.8389
 2866TIP3   OH2 9479   9.442   5.001   1.349 -0.0188  0.4487 -0.1284
 2866TIP3    H1 9480   9.530   4.969   1.370 -0.3334 -0.2170  0.2076
 2866TIP3    H2 9481   9.413   5.045   1.429 -0.1219  0.3772 -0.1259
 2867TIP3   OH2 9482   8.165   4.558   8.898  0.2100  0.8814  0.0865
 2867TIP3    H1 9483   8.190   4.524   8.813  1.5859  0.7469  0.5170
 2867TIP3    H2 9484   8.084   4.606   8.882  0.0663  0.2559 -1.1541
 2868TIP3   OH2 9485   5.731   5.461   7.186 -0.0155 -0.2599  0.5400
 2868TIP3    H1 9486   5.809   5.515   7.175  0.4386 -1.1297 -0.6236
 2868TIP3    H2 9487   5.722   5.451   7.281 -0.2639  2.0243  0.8171
 2869TIP3   OH2 9488   6.371   8.263  10.678 -0.1701  0.4161 -0.4205
 2869TIP3    H1 9489   6.432   8.194  10.702 -1.1186  0.0859  1.1913
 2869TIP3    H2 9490   6.350   8.246  10.586  1.8829  0.3671 -0.9147
 2870TIP3   OH2 9491   1.870   5.601   1.057 -0.0572  0.2642  0.7465
 2870TIP3    H1 9492   1.926   5.664   1.102  0.2160  0.5025  0.0990
 2870TIP3    H2 9493   1.922   5.573   0.981 -1.6152  2.2271 -1.2108
 2871TIP3   OH2 9494   2.415  10.324  10.388  0.9637  0.5653  0.2581
 2871TIP3    H1 9495   2.481  10.296  10.450  0.8682  1.2325  0.6641
 2871TIP3    H2 9496   2.427  10.419  10.379  0.4563  0.6045 -0.1170
 2872TIP3   OH2 9497   4.028  10.751   2.000  0.3046  0.2624 -0.0099
 2872TIP3    H1 9498   4.073  10.828   1.967  0.3597  0.3193  0.1951
 2872TIP3    H2 9499   4.095  10.703   2.049  0.0322  0.5890  0.6948
 2873TIP3   OH2 9500   6.515   8.025   1.104  0.4117  0.5119  0.2766
 2873TIP3    H1 9501   6.499   8.019   1.010  4.2164  1.5466 -0.6102
 2873TIP3    H2 9502   6.520   7.934   1.133 -0.7647  0.1778 -0.4902
 2874TIP3   OH2 9503   3.710   4.200   7.105  0.7226  0.4117  0.3853
 2874TIP3    H1 9504   3.740   4.222   7.194  0.9739  1.8110 -0.0243
 2874TIP3    H2 9505   3.746   4.113   7.089  3.3496  1.3779  0.5198
 2875TIP3   OH2 9506   7.185   8.971   2.868  0.0613  0.2479 -0.1457
 2875TIP3    H1 9507   7.192   8.876   2.855 -0.6449  0.1377  0.2389
 2875TIP3    H2 9508   7.091   8.988   2.867  0.2023  1.2619 -2.4094
 2876TIP3   OH2 9509   7.712   1.131   1.224 -0.0434 -0.1332 -0.1592
 2876TIP3    H1 9510   7.674   1.048   1.251 -0.8848 -0.0777 -1.1023
 2876TIP3    H2 9511   7.775   1.152   1.292 -0.3952 -1.1471  0.5018
 2877TIP3   OH2 9512   6.880   7.449   1.079 -0.5046  0.6099 -0.0443
 2877TIP3    H1 9513   6.835   7.392   1.141  0.9080 -0.6502 -0.1506
 2877TIP3    H2 9514   6.891   7.396   1.000 -1.3802  1.8637 -1.0753
 2878TIP3   OH2 9515   2.841   8.665   7.202  0.1706 -0.2708 -0.0567
 2878TIP3    H1 9516   2.826   8.578   7.164  2.0581 -1.2958  1.3512
 2878TIP3    H2 9517   2.768   8.679   7.262 -0.2731 -0.7865 -0.4726
 2879TIP3   OH2 9518   5.929   6.472   4.309 -0.9400  0.3716  0.5379
 2879TIP3    H1 9519   5.909   6.419   4.386  1.9811  1.6382  2.3510
 2879TIP3    H2 9520   5.976   6.412   4.251 -0.4337  0.1662  1.1526
 2880TIP3   OH2 9521   1.407   8.701   2.398 -0.4854  0.2164  0.2299
 2880TIP3    H1 9522   1.411   8.743   2.312 -1.6307  1.5800  0.8010
 2880TIP3    H2 9523   1.467   8.753   2.453 -1.5435  0.8359  0.8227
 2881TIP3   OH2 9524   3.541   2.666   0.133 -0.3346 -0.3574 -0.0630
 2881TIP3    H1 9525   3.576   2.743   0.090 -1.8343 -0.1125 -0.9311
 2881TIP3    H2 9526   3.494   2.700   0.209  0.0201 -0.5295  0.2335
 2882TIP3   OH2 9527  10.459   1.667   8.147  0.1345 -0.4254 -0.0190
 2882TIP3    H1 9528  10.447   1.720   8.225  1.7920  0.1553 -0.1244
 2882TIP3    H2 9529  10.553   1.651   8.142 -0.2691 -3.5876  0.1123
 2883TIP3   OH2 9530   5.108   6.718  10.786  0.3470  0.9102 -0.2572
 2883TIP3    H1 9531   5.108   6.623  10.774  2.7675  0.8682 -0.5358
 2883TIP3    H2 9532   5.054   6.733  10.864 -1.3262 -0.5084 -1.0757
 2884TIP3   OH2 9533   7.961   0.330   2.013  0.8711  0.3828  0.0374
 2884TIP3    H1 9534   7.930   0.243   2.038  0.4779  0.2249 -0.9566
 2884TIP3    H2 9535   7.944   0.336   1.919  1.1421  1.4339  0.0375
 2885TIP3   OH2 9536   1.511   5.425   3.383 -0.1584  0.1294  0.2312
 2885TIP3    H1 9537   1.520   5.507   3.431  0.2425  0.2899 -0.1204
 2885TIP3    H2 9538   1.432   5.385   3.420  0.2667  0.1377  1.1872
 2886TIP3   OH2 9539   4.799   8.353   9.687 -0.6456  0.8604  0.5796
 2886TIP3    H1 9540   4.845   8.432   9.715 -0.1943  0.8230 -0.0220
 2886TIP3    H2 9541   4.862   8.306   9.632 -0.7090 -0.2110  1.3904
 2887TIP3   OH2 9542   1.364   8.329   4.267  0.4493 -0.1252 -0.3706
 2887TIP3    H1 9543   1.397   8.286   4.188 -1.0227  1.1589 -1.7482
 2887TIP3    H2 9544   1.387   8.421   4.255 -0.2529  0.1686  0.4709
 2888TIP3   OH2 9545   7.486   2.595   3.577 -0.3880 -0.9164 -0.6228
 2888TIP3    H1 9546   7.494   2.690   3.574  0.6304 -0.9539  0.4900
 2888TIP3    H2 9547   7.393   2.579   3.558 -0.3667  0.2174 -1.8602
 2889TIP3   OH2 9548   9.666   0.694   0.811  0.2666 -0.3736  0.5941
 2889TIP3    H1 9549   9.690   0.742   0.891 -2.5081 -0.8621  1.8250
 2889TIP3    H2 9550   9.659   0.762   0.744  0.5375  0.3380  1.2645
 2890TIP3   OH2 9551   9.267   0.183   1.348  0.8996  1.1832  0.4111
 2890TIP3    H1 9552   9.196   0.177   1.411 -0.2387  0.8207 -0.8618
 2890TIP3    H2 9553   9.343   0.145   1.394 -0.1117  0.0870  1.2431
 2891TIP3   OH2 9554   0.451   8.979   0.164 -0.4038 -0.1020 -0.0147
 2891TIP3    H1 9555   0.544   8.977   0.189  0.1535 -0.5986 -1.9623
 2891TIP3    H2 9556   0.411   8.912   0.219  0.4189 -0.0117  0.7266
 2892TIP3   OH2 9557   3.693  10.287   2.334 -0.5244  0.0525  0.4459
 2892TIP3    H1 9558   3.738  10.359   2.378 -0.9788  1.7843 -1.7317
 2892TIP3    H2 9559   3.738  10.208   2.365  1.6884  1.4491  1.0050
 2893TIP3   OH2 9560   0.233   1.609   7.871 -0.4200 -0.0796 -0.1225
 2893TIP3    H1 9561   0.288   1.657   7.808 -0.0789 -0.0486  0.1935
 2893TIP3    H2 9562   0.150   1.597   7.825 -1.0137  2.0220  0.2594
 2894TIP3   OH2 9563   6.538  10.329   4.300 -0.0922  0.7443  0.5669
 2894TIP3    H1 9564   6.601  10.400   4.311 -0.3993  1.2874 -1.0011
 2894TIP3    H2 9565   6.560  10.290   4.215 -0.0465 -0.9323  1.3118
 2895TIP3   OH2 9566  10.400   0.613   4.110  0.2695  0.1394 -0.5394
 2895TIP3    H1 9567  10.459   0.652   4.175  0.0705 -0.2570 -0.1106
 2895TIP3    H2 9568  10.315   0.655   4.127 -0.1503 -1.0542  0.4852
 2896TIP3   OH2 9569   0.389   7.961   1.384  0.5306 -0.0451  0.1668
 2896TIP3    H1 9570   0.382   7.948   1.290 -1.9534 -0.7822  0.3863
 2896TIP3    H2 9571   0.433   7.882   1.416 -0.4263 -0.7306 -0.1854
 2897TIP3   OH2 9572   4.290   7.722   4.495 -0.1918 -0.1278 -0.3097
 2897TIP3    H1 9573   4.321   7.631   4.496  1.0335  0.2790 -0.7281
 2897TIP3    H2 9574   4.233   7.726   4.418  1.2052 -0.0853 -1.3765
 2898TIP3   OH2 9575  10.775   2.173   5.787 -0.1770 -0.0396  0.2895
 2898TIP3    H1 9576  10.814   2.189   5.872  1.5375 -1.4516 -0.1593
 2898TIP3    H2 9577  10.700   2.116   5.805 -0.1168  0.0712  0.9060
 2899TIP3   OH2 9578   9.977   7.537   3.362  0.0154  0.4021 -0.2580
 2899TIP3    H1 9579   9.886   7.517   3.343  0.1692 -1.4749  0.7317
 2899TIP3    H2 9580   9.975   7.572   3.452  0.4511 -1.8026  0.6661
 2900TIP3   OH2 9581   4.966   5.764   4.094  0.4821 -0.0158  0.0223
 2900TIP3    H1 9582   4.903   5.795   4.159  1.2706 -0.7468  1.1691
 2900TIP3    H2 9583   5.044   5.817   4.110 -0.0163  1.4179 -1.8857
 2901TIP3   OH2 9584   7.420   9.694   3.586 -0.5873 -0.0564  0.0186
 2901TIP3    H1 9585   7.453   9.771   3.632  0.9831 -0.2395 -0.7041
 2901TIP3    H2 9586   7.352   9.658   3.644 -2.1926  2.4773 -0.1736
 2902TIP3   OH2 9587   5.251   2.121   8.441 -0.0538 -0.1645 -0.2296
 2902TIP3    H1 9588   5.204   2.203   8.453 -1.4892 -1.0556  0.5888
 2902TIP3    H2 9589   5.185   2.060   8.408  0.7853 -1.1859 -0.1004
 2903TIP3   OH2 9590   0.752   3.996   4.698  0.9778  0.3073 -0.5558
 2903TIP3    H1 9591   0.779   4.085   4.675  1.8136  0.1382 -0.2783
 2903TIP3    H2 9592   0.808   3.972   4.772 -1.9563  1.0205  2.0798
 2904TIP3   OH2 9593  10.081   7.287   1.527 -0.2143  0.1455 -0.6287
 2904TIP3    H1 9594  10.113   7.361   1.475  2.3579  1.5656  2.5915
 2904TIP3    H2 9595  10.018   7.325   1.588  0.2822 -0.4942  0.3202
 2905TIP3   OH2 9596   4.417   9.119   1.018 -0.2245 -0.1707  0.4163
 2905TIP3    H1 9597   4.384   9.189   1.075  0.8935  0.8584 -0.1403
 2905TIP3    H2 9598   4.512   9.120   1.032  0.4137  1.6481 -3.0224
 2906TIP3   OH2 9599   1.113   7.334   2.250  0.2187  1.0959 -0.0579
 2906TIP3    H1 9600   1.088   7.318   2.341  0.9103  2.9495  0.4988
 2906TIP3    H2 9601   1.035   7.374   2.211  0.0008  0.5153 -0.2203
 2907TIP3   OH2 9602   0.707   9.938  10.276 -0.2805 -0.2501  0.1175
 2907TIP3    H1 9603   0.748   9.919  10.360  0.2699  0.6164  0.0549
 2907TIP3    H2 9604   0.714   9.857  10.226 -0.0643 -0.5840  0.6860
 2908TIP3   OH2 9605   2.703   2.667   5.909 -0.1581 -0.1624  0.1564
 2908TIP3    H1 9606   2.630   2.699   5.964 -0.5753  1.4469 -1.2549
 2908TIP3    H2 9607   2.781   2.688   5.959 -0.6003 -0.7373  1.1205
 2909TIP3   OH2 9608   4.101   3.299   1.755 -0.1946 -0.6113  0.4403
 2909TIP3    H1 9609   4.094   3.395   1.761  0.2651 -0.3809 -1.7833
 2909TIP3    H2 9610   4.121   3.271   1.844  1.7693  1.5876  0.7960
 2910TIP3   OH2 9611   1.279  10.413   3.745 -0.2836 -0.0315 -0.2590
 2910TIP3    H1 9612   1.294  10.394   3.838 -1.5273  1.4444  0.3060
 2910TIP3    H2 9613   1.194  10.374   3.726  0.4469 -1.2726 -1.1201
 2911TIP3   OH2 9614   9.839  10.286   3.649 -0.3336 -0.0940  0.2309
 2911TIP3    H1 9615   9.838  10.316   3.558  1.8197  1.7071  0.6823
 2911TIP3    H2 9616   9.761  10.325   3.688 -0.0517  1.0893 -0.3282
 2912TIP3   OH2 9617   3.833   7.631   9.873  0.4689 -0.2343 -0.0800
 2912TIP3    H1 9618   3.907   7.622   9.814  0.9684  0.5365  0.4116
 2912TIP3    H2 9619   3.759   7.651   9.817  1.1721  1.7033 -0.3645
 2913TIP3   OH2 9620   4.366  10.189   0.932  0.9578  0.0048 -0.0201
 2913TIP3    H1 9621   4.393  10.281   0.926 -0.2863  0.4706  0.9399
 2913TIP3    H2 9622   4.348  10.176   1.025 -0.1530 -0.8287 -0.3328
 2914TIP3   OH2 9623  10.695   6.606   8.081  0.9003 -0.1393  0.0244
 2914TIP3    H1 9624  10.677   6.561   7.999  1.7382  1.1042 -0.8892
 2914TIP3    H2 9625  10.749   6.545   8.131 -0.8710 -1.5146  0.3188
 2915TIP3   OH2 9626   2.601   6.094   0.805  0.1097  0.1563  0.2588
 2915TIP3    H1 9627   2.654   6.157   0.854  0.7032  0.8203 -1.1554
 2915TIP3    H2 9628   2.651   6.081   0.724 -3.2336  3.2695 -2.6716
 2916TIP3   OH2 9629   4.841   5.714   9.763 -0.7065  0.3035 -0.2815
 2916TIP3    H1 9630   4.912   5.779   9.755 -1.8204  1.5135 -0.7055
 2916TIP3    H2 9631   4.791   5.743   9.840 -2.1432  0.9324 -1.4005
 2917TIP3   OH2 9632  10.073   0.019   1.756 -0.7664 -0.2654  0.0343
 2917TIP3    H1 9633   9.988  -0.009   1.790 -0.4888  0.1336  1.0809
 2917TIP3    H2 9634  10.052   0.091   1.697 -1.0511  0.9360  1.5453
 2918TIP3   OH2 9635   4.137   4.013   9.947 -0.3476 -0.1349 -0.9284
 2918TIP3    H1 9636   4.151   4.099   9.987 -1.8799 -1.1175  2.0144
 2918TIP3    H2 9637   4.213   3.962   9.975 -2.4220 -1.4688  3.0800
 2919TIP3   OH2 9638   2.608   2.785   5.672 -0.2798  0.0915 -0.0843
 2919TIP3    H1 9639   2.665   2.742   5.736  0.7299  2.1330  0.4709
 2919TIP3    H2 9640   2.640   2.755   5.587  1.6947  1.1766  0.2101
 2920TIP3   OH2 9641   9.451   7.268   4.285 -0.4186 -0.0737 -0.4960
 2920TIP3    H1 9642   9.475   7.289   4.194 -2.2001 -1.0079 -1.2458
 2920TIP3    H2 9643   9.411   7.348   4.318  1.3899  0.6940 -0.0544
 2921TIP3   OH2 9644   7.546   4.841   5.732 -0.0728  0.3636 -0.6790
 2921TIP3    H1 9645   7.562   4.883   5.647 -0.4968 -1.5547 -1.7481
 2921TIP3    H2 9646   7.605   4.887   5.793  1.8709  0.3142 -2.4388
 2922TIP3   OH2 9647   5.970   1.886   5.688 -0.1073  0.0505 -0.1516
 2922TIP3    H1 9648   5.963   1.793   5.711  0.9898  0.1114  0.4870
 2922TIP3    H2 9649   5.917   1.895   5.609 -1.3368 -0.8341  0.5403
 2923TIP3   OH2 9650   8.725   3.691   7.513 -0.1759  0.0185 -0.0893
 2923TIP3    H1 9651   8.707   3.609   7.559 -2.5286  0.8419  0.5942
 2923TIP3    H2 9652   8.696   3.759   7.574 -0.5827  1.2625 -1.6226
 2924TIP3   OH2 9653   8.560   4.377   5.342 -0.0063  0.4580  0.0890
 2924TIP3    H1 9654   8.563   4.329   5.260 -0.4898 -0.2832  0.4956
 2924TIP3    H2 9655   8.632   4.340   5.394 -0.5078  0.0213  0.4807
 2925TIP3   OH2 9656   9.784  10.688   1.124 -0.0251 -0.0184  0.4917
 2925TIP3    H1 9657   9.783  10.623   1.054 -0.5004 -1.1548  1.5260
 2925TIP3    H2 9658   9.874  10.720   1.126  0.2787 -0.8299  0.1481
 2926TIP3   OH2 9659   3.804   3.580   9.835 -0.3649  0.3330 -0.1666
 2926TIP3    H1 9660   3.770   3.511   9.778 -1.9796  2.2997 -1.7021
 2926TIP3    H2 9661   3.897   3.583   9.816 -0.2373 -1.4432 -0.0066
 2927TIP3   OH2 9662   4.458   2.548   7.420 -0.4548  0.1602 -0.0556
 2927TIP3    H1 9663   4.470   2.538   7.515 -0.2397  0.1112 -0.0867
 2927TIP3    H2 9664   4.476   2.641   7.404 -3.6722  0.9715  0.4141
 2928TIP3   OH2 9665   5.513   3.509   2.977  0.1065  0.2092  0.0027
 2928TIP3    H1 9666   5.576   3.574   2.943  1.2111 -0.7159  0.2137
 2928TIP3    H2 9667   5.527   3.432   2.921 -0.1941 -0.3108  0.6406
 2929TIP3   OH2 9668   3.315   6.275   1.701 -0.1986  0.4744 -0.1070
 2929TIP3    H1 9669   3.394   6.294   1.651 -0.2126 -0.6718 -0.5986
 2929TIP3    H2 9670   3.346   6.233   1.781 -0.3165 -0.1974 -0.4103
 2930TIP3   OH2 9671   3.743  10.294   4.311  0.1114  0.1896  0.0579
 2930TIP3    H1 9672   3.682  10.337   4.370 -0.6956 -1.3289  0.3767
 2930TIP3    H2 9673   3.789  10.366   4.267  2.5465  1.5240  4.2208
 2931TIP3   OH2 9674   2.634   7.241   4.911 -0.4558  0.0749  0.1738
 2931TIP3    H1 9675   2.671   7.188   4.840  0.0206 -0.8888  1.1213
 2931TIP3    H2 9676   2.655   7.332   4.887  2.4351 -0.3908  0.5953
 2932TIP3   OH2 9677   1.497   5.979   7.287  0.2076  0.1771  0.8128
 2932TIP3    H1 9678   1.432   5.928   7.239  1.6371 -1.1544  0.2044
 2932TIP3    H2 9679   1.520   5.925   7.362  2.1769 -0.4319 -0.1611
 2933TIP3   OH2 9680   0.940   3.049   3.336  0.3261  0.0313  0.3829
 2933TIP3    H1 9681   0.975   3.135   3.313 -0.9527  0.6844  0.7519
 2933TIP3    H2 9682   0.845   3.057   3.323  0.0892 -1.0583  1.2207
 2934TIP3   OH2 9683   9.150  10.543   7.386 -0.4080  0.0406 -0.0756
 2934TIP3    H1 9684   9.159  10.544   7.481 -1.2757 -0.1329  0.0144
 2934TIP3    H2 9685   9.061  10.510   7.370 -0.3695  0.3229 -0.9394
 2935TIP3   OH2 9686   0.981   3.487   5.115  0.1426  0.0229 -0.6342
 2935TIP3    H1 9687   0.977   3.394   5.094  1.9338 -0.7198  1.8200
 2935TIP3    H2 9688   0.906   3.502   5.173  0.5069 -0.1672 -0.1141
 2936TIP3   OH2 9689   8.948   4.528   6.963  0.1922 -0.4804  0.4562
 2936TIP3    H1 9690   8.947   4.539   6.867  0.8809 -0.1349  0.4785
 2936TIP3    H2 9691   8.857   4.541   6.989 -0.2840 -2.0373 -0.2954
 2937TIP3   OH2 9692   8.945   5.538  10.154 -0.1033 -0.2145 -0.3611
 2937TIP3    H1 9693   9.007   5.465  10.152 -1.6160 -1.5420 -0.8802
 2937TIP3    H2 9694   8.859   5.497  10.165 -0.8790  1.5891  0.9780
 2938TIP3   OH2 9695   8.575   6.644   6.151 -0.0964  0.0000  0.2967
 2938TIP3    H1 9696   8.513   6.702   6.105 -0.5132  0.2492  1.1449
 2938TIP3    H2 9697   8.654   6.645   6.096 -0.1442  1.2746  0.2200
 2939TIP3   OH2 9698   1.552   9.064   8.354  0.1087 -0.3162 -0.3355
 2939TIP3    H1 9699   1.463   9.067   8.320  0.2943 -0.8623 -0.8935
 2939TIP3    H2 9700   1.571   9.154   8.381 -1.4344 -0.6337  2.0315
 2940TIP3   OH2 9701   0.714   3.598   1.855  0.1868 -0.3292  0.7638
 2940TIP3    H1 9702   0.699   3.524   1.796 -3.2407 -0.8164  2.0259
 2940TIP3    H2 9703   0.666   3.671   1.816 -1.5289 -0.4674  2.4301
 2941TIP3   OH2 9704   4.138   5.198   6.539  0.2189  0.0905 -0.1969
 2941TIP3    H1 9705   4.157   5.291   6.522 -0.6408  0.3995  0.4680
 2941TIP3    H2 9706   4.043   5.192   6.539  0.2681 -0.8246 -0.3721
 2942TIP3   OH2 9707  10.729   7.824   3.553  0.0640 -0.2400 -0.2790
 2942TIP3    H1 9708  10.698   7.772   3.478 -2.1728  0.2062  0.2616
 2942TIP3    H2 9709  10.745   7.911   3.517  1.3177 -0.6180 -0.6789
 2943TIP3   OH2 9710  10.699   6.936   7.580 -0.6650 -0.1169  0.4032
 2943TIP3    H1 9711  10.775   6.991   7.561 -0.7294  0.7112  2.3168
 2943TIP3    H2 9712  10.703   6.866   7.515  2.3432 -0.6860  1.0767
 2944TIP3   OH2 9713   1.948   4.591   4.021  0.2202 -0.2620 -0.1380
 2944TIP3    H1 9714   1.927   4.532   3.949  0.7176 -0.1451 -0.3809
 2944TIP3    H2 9715   1.930   4.539   4.100 -0.2686 -0.4089 -0.3430
 2945TIP3   OH2 9716   9.356   5.419   6.272  0.2420  0.2111  0.0792
 2945TIP3    H1 9717   9.414   5.357   6.228  0.3470 -0.5838  1.2954
 2945TIP3    H2 9718   9.278   5.423   6.217  0.0013 -1.4486  0.2424
 2946TIP3   OH2 9719   7.961   6.762   6.195  0.9430  0.7764  0.1849
 2946TIP3    H1 9720   7.967   6.838   6.137  0.6758  0.7916  0.1761
 2946TIP3    H2 9721   7.884   6.780   6.250 -0.5454 -0.5608 -1.3620
 2947TIP3   OH2 9722   4.880   5.844   7.770  0.5904  0.3109 -0.1454
 2947TIP3    H1 9723   4.965   5.826   7.729  0.5929  0.7564 -0.3390
 2947TIP3    H2 9724   4.824   5.771   7.744  0.9862 -0.1229  0.1952
 2948TIP3   OH2 9725  10.734   8.909   1.488  0.0926 -0.4501 -0.2425
 2948TIP3    H1 9726  10.748   8.818   1.463 -0.1665 -1.1138  1.8327
 2948TIP3    H2 9727  10.709   8.905   1.580 -2.3105  1.5579 -0.7173
 2949TIP3   OH2 9728  10.391   1.853   6.121 -0.2128  0.0544  0.7281
 2949TIP3    H1 9729  10.354   1.767   6.101 -1.1635  0.5798  0.1473
 2949TIP3    H2 9730  10.322   1.896   6.172 -0.3017  0.9452 -0.1151
 2950TIP3   OH2 9731   3.239   5.118   6.629  0.5965 -0.4177  0.0860
 2950TIP3    H1 9732   3.249   5.024   6.612  0.3880 -0.0913 -2.0644
 2950TIP3    H2 9733   3.287   5.132   6.710 -1.1969 -2.7576  1.7159
 2951TIP3   OH2 9734   4.258   8.074   3.838  0.0537 -0.6288 -0.1414
 2951TIP3    H1 9735   4.348   8.094   3.811  0.4356 -1.0798  0.7614
 2951TIP3    H2 9736   4.204   8.132   3.784  0.9764  1.0432  0.6474
 2952TIP3   OH2 9737   1.091   6.429   6.211 -0.4349 -0.1392 -0.0993
 2952TIP3    H1 9738   1.089   6.354   6.152 -1.2613 -0.1857 -0.0312
 2952TIP3    H2 9739   1.134   6.498   6.161 -2.3483  0.2597 -1.3255
 2953TIP3   OH2 9740   0.882   4.518   2.387 -0.5929  0.4972  0.4134
 2953TIP3    H1 9741   0.868   4.571   2.308 -0.5921 -0.0364  0.0539
 2953TIP3    H2 9742   0.856   4.576   2.459 -1.4395  0.6906 -0.0305
 2954TIP3   OH2 9743   3.061   4.442   8.034  0.3584  0.2253 -0.2119
 2954TIP3    H1 9744   3.056   4.494   8.114 -0.6417  0.3749 -0.3583
 2954TIP3    H2 9745   3.154   4.423   8.023  0.6416  1.2580  0.3051
 2955TIP3   OH2 9746   0.543   5.735   2.111  0.0034 -0.1662 -0.0587
 2955TIP3    H1 9747   0.600   5.721   2.036  0.5712 -0.3535  0.3962
 2955TIP3    H2 9748   0.589   5.692   2.184 -0.4231  0.2045  0.4359
 2956TIP3   OH2 9749   5.760   8.196   3.333 -0.1574 -0.5852  0.1325
 2956TIP3    H1 9750   5.671   8.189   3.368 -0.0544  0.7889  0.7437
 2956TIP3    H2 9751   5.760   8.280   3.286  0.6458 -0.8597 -0.3727
 2957TIP3   OH2 9752   4.517   1.016   0.816  0.3689  0.1080 -0.0908
 2957TIP3    H1 9753   4.500   0.922   0.803 -1.5008  0.6490 -2.3222
 2957TIP3    H2 9754   4.485   1.034   0.904 -1.4763 -0.9644 -0.4733
 2958TIP3   OH2 9755   3.659   0.619   3.967 -0.3872 -0.1978  0.1425
 2958TIP3    H1 9756   3.658   0.556   4.039  0.1578  0.6924  0.9397
 2958TIP3    H2 9757   3.618   0.698   4.002  0.5117  0.4813 -0.2874
 2959TIP3   OH2 9758   5.978  10.502   0.564  0.6701  0.2340 -0.2384
 2959TIP3    H1 9759   5.986  10.488   0.470 -0.8710  1.9771 -0.6759
 2959TIP3    H2 9760   5.951  10.593   0.573 -0.6852 -0.3103  1.8042
 2960TIP3   OH2 9761   3.267   7.558  10.217 -0.1340 -0.0716 -0.6325
 2960TIP3    H1 9762   3.311   7.473  10.223 -1.1374 -0.6158 -0.7778
 2960TIP3    H2 9763   3.207   7.559  10.291  0.6020  0.9594 -0.0365
 2961TIP3   OH2 9764   7.836   1.975   0.726  0.4970  0.5202  0.1256
 2961TIP3    H1 9765   7.873   1.980   0.815  1.3102 -0.3637 -0.1358
 2961TIP3    H2 9766   7.844   2.063   0.692 -0.0741  0.9368  1.0269
 2962TIP3   OH2 9767  10.296   3.042   7.754 -0.0075 -0.8946  0.6646
 2962TIP3    H1 9768  10.268   3.114   7.810 -1.0053  0.6124 -1.6096
 2962TIP3    H2 9769  10.337   3.085   7.679  0.9563 -2.7916  0.0367
 2963TIP3   OH2 9770   5.766   7.315   5.242  0.1203  0.4284  0.0365
 2963TIP3    H1 9771   5.805   7.316   5.154 -0.0965 -2.7571 -0.1973
 2963TIP3    H2 9772   5.681   7.359   5.230  0.4818  0.8655 -1.1110
 2964TIP3   OH2 9773   3.886   1.805   0.862  0.0114 -0.4230  0.0315
 2964TIP3    H1 9774   3.804   1.830   0.821 -1.0032 -3.7360 -0.2175
 2964TIP3    H2 9775   3.862   1.743   0.930  2.2549 -1.1698  0.2473
 2965TIP3   OH2 9776   5.359   3.626   2.378 -0.1247  0.0779 -0.0584
 2965TIP3    H1 9777   5.312   3.546   2.402  1.7612 -0.8446  0.8007
 2965TIP3    H2 9778   5.291   3.692   2.368 -1.5098 -0.9472  1.9785
 2966TIP3   OH2 9779   8.236   7.286   5.619 -0.3791 -0.0903  0.2008
 2966TIP3    H1 9780   8.156   7.318   5.578 -0.1358  1.3975  0.8159
 2966TIP3    H2 9781   8.208   7.210   5.671 -1.3194  0.1716  0.0870
 2967TIP3   OH2 9782   6.385   1.689   6.747 -0.2528  0.1790 -0.7086
 2967TIP3    H1 9783   6.392   1.593   6.742 -0.7470  0.1574 -0.9893
 2967TIP3    H2 9784   6.391   1.708   6.841  0.8714 -0.0445 -0.7160
 2968TIP3   OH2 9785   3.048   8.547   5.857  0.2615  0.1411  0.5094
 2968TIP3    H1 9786   2.978   8.611   5.865  0.1340  0.1448 -0.4635
 2968TIP3    H2 9787   3.051   8.503   5.942  0.0812  1.1489  1.0555
 2969TIP3   OH2 9788   9.904   1.529   7.618  0.2654  0.4104  0.5913
 2969TIP3    H1 9789   9.964   1.519   7.544  0.1547  1.6316  0.3053
 2969TIP3    H2 9790   9.932   1.610   7.660 -1.1425  1.0053  0.4600
 2970TIP3   OH2 9791   0.953   2.419   9.454  0.0545 -0.1655  0.1111
 2970TIP3    H1 9792   0.953   2.515   9.451  1.0229 -0.0607  2.0344
 2970TIP3    H2 9793   0.866   2.396   9.486  0.2213  0.1740  0.8495
 2971TIP3   OH2 9794   3.526   6.430   7.955  0.1161  0.4508  0.2410
 2971TIP3    H1 9795   3.511   6.503   7.894  0.4469 -0.1306 -0.5411
 2971TIP3    H2 9796   3.615   6.400   7.936  0.1610  0.1486  0.8972
 2972TIP3   OH2 9797   5.175   8.683   6.934 -0.1433  0.0596  0.0988
 2972TIP3    H1 9798   5.228   8.763   6.941  3.0016 -1.8167 -0.5069
 2972TIP3    H2 9799   5.171   8.665   6.840  0.2147 -1.1342  0.3044
 2973TIP3   OH2 9800   1.800   9.152   9.547 -0.8472 -0.5804 -0.1138
 2973TIP3    H1 9801   1.865   9.154   9.617  0.0352  0.4943 -0.9302
 2973TIP3    H2 9802   1.756   9.067   9.557 -0.3299 -0.6962  1.3501
 2974TIP3   OH2 9803   8.617   9.973   6.681  0.1850  0.1521 -0.3084
 2974TIP3    H1 9804   8.711   9.954   6.681  0.3248  0.8069 -0.6964
 2974TIP3    H2 9805   8.577   9.895   6.720  0.8763 -0.1862 -0.2523
 2975TIP3   OH2 9806   5.754   7.504   7.059 -0.0392 -0.5683  0.6468
 2975TIP3    H1 9807   5.833   7.544   7.096  0.7122 -1.9780  0.6493
 2975TIP3    H2 9808   5.788   7.436   7.000 -1.2495 -0.3287 -0.3664
 2976TIP3   OH2 9809   1.712   5.153   9.133  0.0374  0.2581  1.6800
 2976TIP3    H1 9810   1.747   5.077   9.179  0.0639 -0.6588  0.2223
 2976TIP3    H2 9811   1.643   5.186   9.190 -1.7615 -2.4205  1.2398
 2977TIP3   OH2 9812   8.253   2.518   2.635  0.9657 -0.4156  0.3123
 2977TIP3    H1 9813   8.173   2.509   2.584  0.3909 -0.5564  1.2054
 2977TIP3    H2 9814   8.270   2.612   2.637  0.1795 -0.2722  1.0425
 2978TIP3   OH2 9815   2.989   1.221   6.284  0.4595 -0.0947  0.1824
 2978TIP3    H1 9816   3.030   1.292   6.333  1.9596 -1.0201  0.3673
 2978TIP3    H2 9817   2.933   1.177   6.348 -0.7699  1.0902 -0.0286
 2979TIP3   OH2 9818  10.148  10.167   7.880  0.9079  0.1559  0.3338
 2979TIP3    H1 9819  10.167  10.098   7.817  0.1676  0.1611  0.0926
 2979TIP3    H2 9820  10.234  10.203   7.903  1.2150 -0.0932 -0.3903
 2980TIP3   OH2 9821   9.391   9.577  10.200  0.1979 -0.4910  0.1072
 2980TIP3    H1 9822   9.482   9.550  10.187  0.6152  1.0207 -0.3985
 2980TIP3    H2 9823   9.394   9.673  10.197 -1.4284 -0.4110 -0.0468
 2981TIP3   OH2 9824   3.355   6.170   3.518 -0.4167 -0.1291 -0.0412
 2981TIP3    H1 9825   3.369   6.151   3.425  0.1424  2.7340 -0.6259
 2981TIP3    H2 9826   3.260   6.178   3.527 -0.5794 -1.7627 -0.0196
 2982TIP3   OH2 9827   5.089   8.243   0.305 -0.3531 -0.4505  0.2260
 2982TIP3    H1 9828   5.127   8.306   0.243 -0.2090 -1.3688 -0.6453
 2982TIP3    H2 9829   5.119   8.158   0.274 -1.8932 -1.0847  0.3966
 2983TIP3   OH2 9830   9.698   9.139   3.392 -0.2935  0.2110  0.0734
 2983TIP3    H1 9831   9.681   9.065   3.450 -0.4508 -1.1604 -1.6456
 2983TIP3    H2 9832   9.660   9.214   3.438 -4.7391 -1.4993 -0.3114
 2984TIP3   OH2 9833   3.919   7.486   7.868  0.4546 -0.6754  0.2047
 2984TIP3    H1 9834   3.896   7.578   7.882  0.4244 -0.9179  2.0191
 2984TIP3    H2 9835   3.939   7.480   7.775  1.4349  1.3739  0.2302
 2985TIP3   OH2 9836   2.024   6.421   7.956 -0.0351  0.0574 -0.1764
 2985TIP3    H1 9837   2.053   6.353   7.894  1.9776  1.7240 -1.1766
 2985TIP3    H2 9838   2.075   6.404   8.035 -0.1929 -0.1152 -0.1098
 2986TIP3   OH2 9839   5.984   4.901   6.645  0.2848  0.4632 -0.4714
 2986TIP3    H1 9840   5.998   4.980   6.697  2.6617  0.5037 -1.0485
 2986TIP3    H2 9841   5.924   4.929   6.575  1.5739  1.9817 -1.0471
 2987TIP3   OH2 9842   4.792   9.594   2.324 -0.3035 -0.6450  0.7222
 2987TIP3    H1 9843   4.709   9.587   2.371  0.0214 -2.3633  1.1087
 2987TIP3    H2 9844   4.857   9.615   2.392 -0.3811  0.6885  0.4229
 2988TIP3   OH2 9845   9.464   3.151   3.852 -0.0454  0.2537 -0.1496
 2988TIP3    H1 9846   9.413   3.203   3.914  2.9351  0.5628  2.2125
 2988TIP3    H2 9847   9.407   3.076   3.832 -2.9661  2.4366 -0.8490
 2989TIP3   OH2 9848   2.839   2.849   8.772 -0.0269  0.6324 -0.2011
 2989TIP3    H1 9849   2.849   2.808   8.686  1.4804  0.9094 -0.1943
 2989TIP3    H2 9850   2.905   2.919   8.773  1.0128 -0.2887  1.6927
 2990TIP3   OH2 9851   4.929   2.187   0.057 -0.3405  0.5128 -0.4111
 2990TIP3    H1 9852   5.014   2.212   0.020 -1.1305  2.0408 -1.3214
 2990TIP3    H2 9853   4.919   2.095   0.035  0.3920  0.7227 -1.7064
 2991TIP3   OH2 9854   5.778   1.843  10.050 -0.3177 -0.4733 -0.2500
 2991TIP3    H1 9855   5.697   1.797  10.071 -0.2749 -0.8634 -0.9416
 2991TIP3    H2 9856   5.827   1.844  10.133 -0.7383 -0.8128  0.0044
 2992TIP3   OH2 9857   1.803   7.494   1.695  0.6808  0.1098  0.0364
 2992TIP3    H1 9858   1.841   7.483   1.782  2.6878 -0.0315 -0.8089
 2992TIP3    H2 9859   1.730   7.431   1.693  0.5251  0.1973  1.6250
 2993TIP3   OH2 9860   1.626   3.066   2.199 -0.0014  0.4204  0.4915
 2993TIP3    H1 9861   1.705   3.063   2.253  0.4323 -0.2215 -0.1588
 2993TIP3    H2 9862   1.593   3.155   2.210 -0.2239  0.1504  2.2079
 2994TIP3   OH2 9863   6.043  10.265   7.851 -0.0079 -0.2583 -0.6979
 2994TIP3    H1 9864   6.105  10.271   7.778  1.5504 -2.4134  0.3325
 2994TIP3    H2 9865   6.099  10.255   7.928 -1.6081 -2.3016  0.2814
 2995TIP3   OH2 9866   4.603   9.293   6.931  0.0940 -0.0266 -0.0439
 2995TIP3    H1 9867   4.611   9.213   6.880 -0.5297 -0.5094  0.5942
 2995TIP3    H2 9868   4.511   9.296   6.957 -0.2531  1.6575 -1.2679
 2996TIP3   OH2 9869   7.970   6.680   0.104  0.3384 -0.1320 -0.2731
 2996TIP3    H1 9870   7.911   6.718   0.170  0.7962 -0.5691  0.4067
 2996TIP3    H2 9871   7.962   6.586   0.116  2.4332 -0.2152  1.0359
 2997TIP3   OH2 9872   6.371   2.683   8.047  0.3648 -0.2598  0.2160
 2997TIP3    H1 9873   6.421   2.621   8.099  1.1986  0.5734  0.4437
 2997TIP3    H2 9874   6.283   2.646   8.042  0.9006 -1.5710  0.1258
 2998TIP3   OH2 9875   4.306   5.409   1.243 -0.5328  0.5227 -0.0255
 2998TIP3    H1 9876   4.300   5.442   1.333  2.0842 -0.6782  0.7070
 2998TIP3    H2 9877   4.364   5.471   1.199 -0.5778  0.2847 -0.4189
 2999TIP3   OH2 9878   4.057   0.126   0.166 -0.1246 -0.5728  0.0538
 2999TIP3    H1 9879   3.991   0.140   0.097  0.0115  2.9349  0.4553
 2999TIP3    H2 9880   4.115   0.060   0.130 -2.8582 -2.6089 -1.0178
 3000TIP3   OH2 9881  10.836   5.922   3.060 -0.8092  0.6084  0.1213
 3000TIP3    H1 9882  10.836   5.992   2.994  0.2260  0.4539 -0.0522
 3000TIP3    H2 9883  10.798   5.847   3.014  0.2105  0.4033 -0.4336
 3001TIP3   OH2 9884   7.606   4.843   4.404  0.1784  0.3475 -0.7097
 3001TIP3    H1 9885   7.627   4.909   4.470  0.2486  0.2785 -0.6637
 3001TIP3    H2 9886   7.533   4.794   4.442 -1.5764  1.9894 -1.7899
 3002TIP3   OH2 9887   7.661   4.345   1.262 -0.6455 -0.1001 -0.6585
 3002TIP3    H1 9888   7.736   4.288   1.246  0.0655  0.9520 -1.2269
 3002TIP3    H2 9889   7.632   4.322   1.350  0.5403 -0.3231 -0.2986
 3003TIP3   OH2 9890   7.111  10.217  10.111  0.4473  0.5323 -0.6057
 3003TIP3    H1 9891   7.104  10.288  10.174  0.2851  0.2901 -0.3465
 3003TIP3    H2 9892   7.150  10.145  10.160 -0.5661  0.0246 -0.5039
 3004TIP3   OH2 9893   4.206   3.874   7.185  0.0982 -0.2196 -1.0841
 3004TIP3    H1 9894   4.234   3.787   7.157  0.2803 -0.2976 -0.6598
 3004TIP3    H2 9895   4.202   3.869   7.280  2.1635  0.8522 -0.8874
 3005TIP3   OH2 9896   7.837   1.233   4.652  0.9209 -0.1950 -0.3706
 3005TIP3    H1 9897   7.909   1.291   4.673  0.1055  0.1340  1.7649
 3005TIP3    H2 9898   7.777   1.286   4.599 -0.0952  1.2112  2.0334
 3006TIP3   OH2 9899   0.957   6.719   0.685  0.4438 -0.2317 -0.0214
 3006TIP3    H1 9900   1.009   6.778   0.630  1.7245 -1.2641  0.0201
 3006TIP3    H2 9901   1.013   6.704   0.762  0.2634 -1.6730 -0.1520
 3007TIP3   OH2 9902  10.721   5.558   2.280 -0.1131 -0.0998 -0.0669
 3007TIP3    H1 9903  10.748   5.584   2.192 -1.0253 -2.3435 -1.0958
 3007TIP3    H2 9904  10.661   5.627   2.308  0.2990  0.7273 -1.1363
 3008TIP3   OH2 9905   8.745   7.596   7.928  0.0828 -0.4369 -0.6248
 3008TIP3    H1 9906   8.782   7.564   8.010 -2.1822 -1.8548 -0.0839
 3008TIP3    H2 9907   8.756   7.691   7.933 -1.6263 -0.2720  2.2204
 3009TIP3   OH2 9908   9.919   1.802   0.822 -0.1443 -0.0679  0.0631
 3009TIP3    H1 9909   9.872   1.781   0.741  2.1024  2.4416 -2.0887
 3009TIP3    H2 9910   9.892   1.891   0.844  1.3759  0.3585  0.3775
 3010TIP3   OH2 9911   9.501   5.464   1.994 -0.2187 -0.0641  0.0259
 3010TIP3    H1 9912   9.528   5.429   2.079 -3.4647 -3.1897  0.0113
 3010TIP3    H2 9913   9.450   5.542   2.015  0.8094  0.4340  0.7391
 3011TIP3   OH2 9914   0.198  10.481   7.321  0.3555 -0.3845  0.2695
 3011TIP3    H1 9915   0.176  10.526   7.402  0.7713 -1.1990  0.8525
 3011TIP3    H2 9916   0.116  10.478   7.272  0.4712  1.6266 -0.1251
 3012TIP3   OH2 9917   8.898   0.696   4.098 -0.0148 -0.1052  0.1530
 3012TIP3    H1 9918   8.919   0.617   4.047  0.8108  0.2103 -0.0113
 3012TIP3    H2 9919   8.894   0.766   4.032  1.7716  0.4366  0.5893
 3013TIP3   OH2 9920   8.676   1.176   9.635 -0.0124  0.0102  0.5628
 3013TIP3    H1 9921   8.736   1.103   9.618 -0.2672  0.1440 -1.1255
 3013TIP3    H2 9922   8.716   1.251   9.590 -0.9017  0.3590  0.3263
 3014TIP3   OH2 9923   8.959   7.623   8.161  0.8212 -0.3721  0.4629
 3014TIP3    H1 9924   8.907   7.682   8.216 -1.1284 -1.4039 -0.1692
 3014TIP3    H2 9925   9.029   7.678   8.126 -1.3298  1.7991 -0.7303
 3015TIP3   OH2 9926   8.886   8.826   3.941  0.3778  0.6914 -0.9820
 3015TIP3    H1 9927   8.813   8.876   3.904 -0.5603  0.3188  0.2959
 3015TIP3    H2 9928   8.921   8.882   4.010 -0.1062 -0.0205 -0.1398
 3016TIP3   OH2 9929   1.827   8.468   7.019  0.0262  0.0470  0.3909
 3016TIP3    H1 9930   1.805   8.378   6.995 -0.0623  0.3466 -0.6951
 3016TIP3    H2 9931   1.767   8.522   6.968  0.9169  0.7644  0.0845
 3017TIP3   OH2 9932   5.167   8.598   1.624 -0.5858  0.1646 -0.6558
 3017TIP3    H1 9933   5.172   8.654   1.546  3.0602  0.7127 -0.1901
 3017TIP3    H2 9934   5.172   8.658   1.698  1.0031 -0.5531 -0.1242
 3018TIP3   OH2 9935   2.386   9.522   5.565  0.3514 -0.6397 -0.5110
 3018TIP3    H1 9936   2.301   9.558   5.592  0.5288  0.4961 -1.3672
 3018TIP3    H2 9937   2.421   9.587   5.505  1.4069 -1.5579 -0.9247
 3019TIP3   OH2 9938   9.740   4.616   5.635 -0.5495  0.1300 -0.0574
 3019TIP3    H1 9939   9.728   4.710   5.653  1.9894  0.7921 -1.3245
 3019TIP3    H2 9940   9.824   4.612   5.588 -0.2251 -2.8676  0.6183
 3020TIP3   OH2 9941   4.917  10.842   5.678  0.4422  0.2188  0.5948
 3020TIP3    H1 9942   4.849  10.889   5.630  0.7218 -0.5773 -0.6192
 3020TIP3    H2 9943   4.877  10.759   5.704  1.0997 -0.5283 -0.6750
 3021TIP3   OH2 9944   8.280   2.053   1.628 -0.5119  0.1496 -0.5721
 3021TIP3    H1 9945   8.306   2.047   1.720 -4.4323 -2.3780  0.6556
 3021TIP3    H2 9946   8.311   1.972   1.589 -0.7579  0.1899 -0.8574
 3022TIP3   OH2 9947   9.220   7.094   4.059  0.2644  0.2631 -0.2300
 3022TIP3    H1 9948   9.198   7.013   4.104 -0.1234  0.8599  0.7018
 3022TIP3    H2 9949   9.292   7.071   4.001  0.5886 -0.6091  0.4856
 3023TIP3   OH2 9950   6.617   4.117   9.984 -0.1800 -0.1545 -0.2437
 3023TIP3    H1 9951   6.545   4.120   9.920 -1.3026 -0.9125  0.9299
 3023TIP3    H2 9952   6.576   4.137  10.068  1.0610 -0.2622  0.4167
 3024TIP3   OH2 9953   1.504  10.080   7.919 -0.3443 -0.1933  0.1873
 3024TIP3    H1 9954   1.522  10.119   7.833 -0.1375  0.3187  0.4601
 3024TIP3    H2 9955   1.476   9.991   7.899 -1.3042  0.2350 -0.4798
 3025TIP3   OH2 9956   6.797   0.685   0.667  0.5605 -0.3310  0.2098
 3025TIP3    H1 9957   6.866   0.723   0.612  0.4852  0.5419  0.7093
 3025TIP3    H2 9958   6.783   0.598   0.630  1.8642 -0.4917  0.0399
 3026TIP3   OH2 9959   1.814   7.054   7.985  0.2079  0.3543 -0.0645
 3026TIP3    H1 9960   1.798   7.122   8.051 -0.2782 -0.3402  0.5520
 3026TIP3    H2 9961   1.737   7.058   7.928  0.2294  0.3830 -0.0924
 3027TIP3   OH2 9962  10.615   9.471   2.691  0.0931  0.0958  0.1492
 3027TIP3    H1 9963  10.533   9.466   2.741  1.0255 -1.3387  1.6318
 3027TIP3    H2 9964  10.650   9.557   2.710 -0.2115  0.0465  0.9438
 3028TIP3   OH2 9965   6.402   6.105   0.166  0.3209 -0.0277  0.2410
 3028TIP3    H1 9966   6.339   6.082   0.098  0.8150 -0.1891 -0.1664
 3028TIP3    H2 9967   6.349   6.124   0.243 -0.1378 -2.7236  0.6860
 3029TIP3   OH2 9968   8.271   0.176  10.112 -0.0151 -0.1177 -0.5626
 3029TIP3    H1 9969   8.358   0.172  10.152  0.5793  1.0169 -1.6419
 3029TIP3    H2 9970   8.276   0.251  10.052 -1.9335  0.3434 -0.2292
 3030TIP3   OH2 9971   4.941  10.880   1.030 -0.5986  0.0190 -0.1968
 3030TIP3    H1 9972   4.914  10.887   1.122  0.4685 -0.6333  0.1962
 3030TIP3    H2 9973   4.876  10.930   0.981 -1.3564  0.1234  0.8870
 3031TIP3   OH2 9974   0.601   8.248   9.867  0.0129  0.0544 -0.2952
 3031TIP3    H1 9975   0.590   8.297   9.948  1.0168 -1.0403  0.5336
 3031TIP3    H2 9976   0.617   8.315   9.801 -0.2591  0.9263  0.4957
 3032TIP3   OH2 9977   5.297   1.195   8.349 -0.0215 -0.2264  0.7629
 3032TIP3    H1 9978   5.281   1.273   8.296 -2.3855 -0.2017  1.4232
 3032TIP3    H2 9979   5.299   1.123   8.286 -1.6804 -0.0599  0.4683
 3033TIP3   OH2 9980   3.693   5.845   6.065 -0.1809 -0.4190  0.1153
 3033TIP3    H1 9981   3.753   5.785   6.022 -2.5283 -1.8978 -1.3317
 3033TIP3    H2 9982   3.664   5.798   6.143 -0.6815 -0.4451 -0.0787
 3034TIP3   OH2 9983   2.625   6.710   2.325 -0.6765  0.4776 -0.0873
 3034TIP3    H1 9984   2.551   6.717   2.385 -0.6955 -0.0985 -0.0401
 3034TIP3    H2 9985   2.585   6.701   2.238 -0.6805 -0.2719 -0.0189
 3035TIP3   OH2 9986   7.913   3.973   2.730  0.2970  0.0011 -0.1638
 3035TIP3    H1 9987   7.936   4.026   2.806 -0.3383  1.0577 -0.6789
 3035TIP3    H2 9988   7.913   3.883   2.763 -0.3197  0.4604  1.1810
 3036TIP3   OH2 9989   6.826   9.717   4.120  0.2105 -0.1096 -0.7093
 3036TIP3    H1 9990   6.777   9.785   4.073  0.8969  0.2864 -0.8532
 3036TIP3    H2 9991   6.891   9.765   4.172  0.4630 -0.6360 -0.5340
 3037TIP3   OH2 9992   7.926   4.592   6.079  0.1967  0.2766  0.0849
 3037TIP3    H1 9993   7.958   4.502   6.086  2.3968  0.9640 -0.5072
 3037TIP3    H2 9994   7.908   4.604   5.986 -1.0036  0.2016  0.2828
 3038TIP3   OH2 9995   7.522   6.948  10.887  0.3255  0.4210 -0.2710
 3038TIP3    H1 9996   7.496   7.039  10.906 -0.3317  0.0457  0.6711
 3038TIP3    H2 9997   7.591   6.957  10.821 -0.2300  1.5767 -0.7386
 3039TIP3   OH2 9998   5.236   2.215   5.464 -0.3684  0.5309  0.1284
 3039TIP3    H1 9999   5.284   2.222   5.547 -1.9780  1.0678  1.0676
 3039TIP3    H210000   5.268   2.289   5.412 -0.0535  0.7802  0.6643
 3040TIP3   OH210001   6.010   2.022   1.338  0.0470 -0.2107 -0.3671
 3040TIP3    H110002   6.074   1.950   1.339  1.4001  0.9135 -1.5710
 3040TIP3    H210003   6.038   2.079   1.410  0.4510  0.3093 -0.9294
 3041TIP3   OH210004   0.845   7.222  10.006 -0.3295  0.4756 -0.9218
 3041TIP3    H110005   0.773   7.161   9.988 -0.6841  0.0584  1.4533
 3041TIP3    H210006   0.921   7.165  10.020 -0.5759  0.5333  0.9298
 3042TIP3   OH210007  10.754   7.919   7.089  0.0822  0.1352  0.4444
 3042TIP3    H110008  10.756   7.950   7.180  0.7334  0.0550  0.4616
 3042TIP3    H210009  10.844   7.929   7.058  0.1265 -0.9274  0.1769
 3043TIP3   OH210010   6.389   1.028   1.836 -0.0745 -0.0217 -0.9177
 3043TIP3    H110011   6.413   1.121   1.833 -1.2722  0.3353 -0.1299
 3043TIP3    H210012   6.441   0.992   1.908  0.1507  0.1138 -1.0127
 3044TIP3   OH210013  10.184   6.757   7.908  0.4501 -0.6684 -0.0561
 3044TIP3    H110014  10.266   6.778   7.952  0.2228 -0.2751  0.1928
 3044TIP3    H210015  10.136   6.703   7.972 -0.0896  0.3139  0.3987
 3045TIP3   OH210016  10.166  10.807   3.639  0.1064 -0.0480 -0.3139
 3045TIP3    H110017  10.143  10.821   3.731  1.2380 -1.0894  0.1484
 3045TIP3    H210018  10.244  10.751   3.642  1.2661  1.3910 -1.8583
 3046TIP3   OH210019   3.815   0.269   6.274  0.3488 -0.6951  0.3957
 3046TIP3    H110020   3.794   0.251   6.182  0.5242  2.1594 -0.2949
 3046TIP3    H210021   3.899   0.315   6.270  0.0125  0.1055  1.9152
 3047TIP3   OH210022   8.431   7.104   9.515 -0.0276  0.6158  0.2259
 3047TIP3    H110023   8.356   7.123   9.571 -0.9604  1.1821 -1.1405
 3047TIP3    H210024   8.499   7.164   9.545  0.2805 -0.6399  2.1774
 3048TIP3   OH210025   1.328   7.063   8.934 -0.0013  0.0545  0.2904
 3048TIP3    H110026   1.378   7.135   8.972  1.7527 -2.2829  2.7670
 3048TIP3    H210027   1.241   7.071   8.974  0.2312  0.6823  0.6855
 3049TIP3   OH210028   0.959   2.565   8.661  0.3028  0.7521  1.1467
 3049TIP3    H110029   1.022   2.502   8.627 -0.5855  1.1764 -1.5955
 3049TIP3    H210030   0.997   2.596   8.743  2.2731 -1.0234  0.9806
 3050TIP3   OH210031   0.655   1.465   0.817 -0.1064 -0.2371 -0.2251
 3050TIP3    H110032   0.667   1.526   0.890 -2.0020 -1.7122  1.4316
 3050TIP3    H210033   0.724   1.400   0.829 -1.4197 -1.4343  1.3970
 3051TIP3   OH210034   4.507   8.351  10.772 -0.2290 -0.1296  0.1730
 3051TIP3    H110035   4.519   8.413  10.844  2.1862 -0.3688  0.0709
 3051TIP3    H210036   4.488   8.267  10.815  2.6675 -0.6110  0.7402
 3052TIP3   OH210037   5.653   0.314   4.029 -0.2117  0.0226 -0.1384
 3052TIP3    H110038   5.565   0.342   4.053  1.0115  2.6623  1.8338
 3052TIP3    H210039   5.693   0.283   4.110  1.3090  0.8650 -0.5121
 3053TIP3   OH210040   5.965   6.242   3.784  0.1954  0.2790  0.0103
 3053TIP3    H110041   5.902   6.236   3.856  0.0155 -2.2267 -0.2742
 3053TIP3    H210042   6.048   6.215   3.823  0.3540  0.0912 -0.4585
 3054TIP3   OH210043   2.580   2.175   2.881 -0.0842  0.1596 -0.1283
 3054TIP3    H110044   2.561   2.256   2.928  0.1625 -0.8769  1.8895
 3054TIP3    H210045   2.673   2.178   2.863 -0.4565  1.3135 -2.1634
 3055TIP3   OH210046   8.688   1.435   4.279 -0.8168 -0.3151  0.2603
 3055TIP3    H110047   8.699   1.500   4.210  0.1857  1.3523  1.9098
 3055TIP3    H210048   8.751   1.366   4.257  2.8185  2.2495  1.7105
 3056TIP3   OH210049   1.556   0.616  10.019 -0.1998 -0.0374 -0.3071
 3056TIP3    H110050   1.572   0.526   9.990 -0.2211  0.5507 -2.2719
 3056TIP3    H210051   1.616   0.629  10.092  0.8836 -1.1658 -0.9590
 3057TIP3   OH210052   4.125  10.086   4.825 -0.3124  0.1162 -0.3086
 3057TIP3    H110053   4.206  10.043   4.849  0.3160  1.3975 -0.0375
 3057TIP3    H210054   4.056  10.030   4.861  0.5158  0.3560  1.7985
 3058TIP3   OH210055   2.678  10.448   9.218  0.5218 -0.6556  0.1420
 3058TIP3    H110056   2.605  10.492   9.262  0.3124 -0.6281 -0.2210
 3058TIP3    H210057   2.708  10.383   9.280  0.1935 -0.6566  0.3041
 3059TIP3   OH210058   4.996   9.998   8.929 -0.1830  0.5115  0.0093
 3059TIP3    H110059   4.979   9.978   9.021 -2.0440 -0.5485 -0.5020
 3059TIP3    H210060   5.018  10.091   8.928 -1.3772  0.8494  1.3944
 3060TIP3   OH210061   6.647  10.212   4.075  0.7163 -0.1230  0.6239
 3060TIP3    H110062   6.738  10.183   4.064 -0.1277 -2.0787 -2.1021
 3060TIP3    H210063   6.640  10.291   4.022  0.7310 -0.2100  0.4907
 3061TIP3   OH210064   4.949   8.811   1.314  0.1170  0.1092 -0.2467
 3061TIP3    H110065   5.033   8.854   1.330  0.5279 -0.4053 -0.9669
 3061TIP3    H210066   4.924   8.776   1.400  1.1709 -0.6437 -0.2242
 3062TIP3   OH210067  10.338   5.488   8.467  0.3672  0.2658  0.3388
 3062TIP3    H110068  10.346   5.393   8.465  0.2804  0.2562  0.4415
 3062TIP3    H210069  10.277   5.509   8.396  0.6211  0.2701  0.1200
 3063TIP3   OH210070  10.808   6.146   1.331 -0.0189  0.5977  0.1688
 3063TIP3    H110071  10.842   6.064   1.367 -0.6882  0.6116  0.8535
 3063TIP3    H210072  10.858   6.215   1.376  1.5897  0.5662 -1.4759
 3064TIP3   OH210073   0.409  10.839   4.928  0.5570 -0.9568  0.3330
 3064TIP3    H110074   0.384  10.895   4.855  0.6377 -0.4384  0.6946
 3064TIP3    H210075   0.451  10.898   4.991 -1.7064 -0.9024  1.9201
 3065TIP3   OH210076   2.887   9.503   7.362 -0.5783 -0.2851 -0.1562
 3065TIP3    H110077   2.846   9.588   7.349 -2.7112 -1.0574  1.0216
 3065TIP3    H210078   2.860   9.451   7.286 -0.4463 -0.3185 -0.1801
 3066TIP3   OH210079   5.276   0.713   0.171  0.0814  0.0463  0.1749
 3066TIP3    H110080   5.335   0.663   0.228 -2.1734 -2.6256  0.3705
 3066TIP3    H210081   5.285   0.672   0.085 -0.1089  0.8701 -0.2457
 3067TIP3   OH210082   2.108   1.280   3.054 -0.1794 -0.8646  0.5832
 3067TIP3    H110083   2.140   1.332   3.128  0.9875  0.9732 -1.1345
 3067TIP3    H210084   2.099   1.191   3.090  2.5125 -0.5307  2.3649
 3068TIP3   OH210085   4.996   2.857   7.423  0.2691  0.0027  0.1794
 3068TIP3    H110086   5.073   2.833   7.473 -0.1582  0.9450  1.3351
 3068TIP3    H210087   4.939   2.781   7.428  1.3628 -0.9603 -1.2512
 3069TIP3   OH210088   5.664   4.934   3.691 -0.0040  0.4326  0.1459
 3069TIP3    H110089   5.667   4.962   3.782  2.4375 -1.7274  0.8482
 3069TIP3    H210090   5.608   4.857   3.691 -0.0249  0.4448 -0.1868
 3070TIP3   OH210091   5.905  10.020   2.646  0.1717 -0.4280  0.1519
 3070TIP3    H110092   5.910   9.978   2.732  2.3062  1.9342  1.3236
 3070TIP3    H210093   5.995  10.019   2.614  0.1039  1.8940 -0.3359
 3071TIP3   OH210094   4.610   6.682   3.798  0.0794  0.6775  0.1698
 3071TIP3    H110095   4.601   6.587   3.807 -0.7922  0.4310 -2.4313
 3071TIP3    H210096   4.659   6.694   3.717 -0.7970  2.4379 -0.1535
 3072TIP3   OH210097   9.806   9.908   3.039 -0.6113 -0.0132  0.4916
 3072TIP3    H110098   9.808   9.995   3.080  0.5998  0.4741 -0.5114
 3072TIP3    H210099   9.799   9.847   3.112  0.7159  0.8524  1.3951
 3073TIP3   OH210100   5.287   3.926   5.244  0.2895 -0.4671  0.3416
 3073TIP3    H110101   5.232   3.910   5.168 -1.2381  3.4042  0.4283
 3073TIP3    H210102   5.344   3.999   5.218  0.0615  0.6410  2.6900
 3074TIP3   OH210103   8.748   2.319   8.199 -0.1346 -0.0054  0.2514
 3074TIP3    H110104   8.757   2.228   8.229 -0.8557 -0.1907 -0.0819
 3074TIP3    H210105   8.706   2.312   8.113  3.1015  0.3937 -1.5715
 3075TIP3   OH210106   0.337   3.749   4.057  0.4061 -0.4002  0.0460
 3075TIP3    H110107   0.311   3.841   4.054  0.4052 -0.4155 -1.7825
 3075TIP3    H210108   0.292   3.713   4.133 -0.1258  0.9537  0.3928
 3076TIP3   OH210109   9.998   1.845   6.681 -0.5509 -0.4703 -0.4087
 3076TIP3    H110110   9.958   1.777   6.735 -0.5809  0.5176  0.8509
 3076TIP3    H210111  10.092   1.825   6.684 -0.6027 -0.7216 -0.4132
 3077TIP3   OH210112  10.331   0.901   9.638 -0.2451 -0.7729  0.0729
 3077TIP3    H110113  10.376   0.931   9.560 -1.1538  0.5743  0.0310
 3077TIP3    H210114  10.397   0.850   9.686  0.8825 -0.0428 -0.6571
 3078TIP3   OH210115   5.744   0.716   1.465 -0.5629 -0.4738  0.2864
 3078TIP3    H110116   5.715   0.688   1.378 -1.3820  0.4334  0.2498
 3078TIP3    H210117   5.818   0.775   1.447 -0.9951  0.0438  0.1646
 3079TIP3   OH210118   9.888   0.001   3.249  0.4034  0.2315 -0.0285
 3079TIP3    H110119   9.824   0.056   3.204  0.5111  0.1194 -0.3200
 3079TIP3    H210120   9.973   0.032   3.215  0.4598 -0.1632 -0.2477
 3080TIP3   OH210121   0.034  10.560   6.584 -0.0406 -0.1213 -0.1710
 3080TIP3    H110122   0.069  10.649   6.590  0.8958 -0.5368  1.0815
 3080TIP3    H210123   0.085  10.519   6.514  3.1776 -1.1286  2.4897
 3081TIP3   OH210124   4.328   5.862   4.200 -0.1241  0.4055 -0.4824
 3081TIP3    H110125   4.336   5.790   4.138 -2.1327 -1.3340  1.1460
 3081TIP3    H210126   4.418   5.880   4.228  0.6055 -0.0778 -2.3769
 3082TIP3   OH210127   8.951   7.600   5.981  0.0985 -0.5489  0.5794
 3082TIP3    H110128   8.900   7.527   5.946 -1.9046 -0.2776  2.6985
 3082TIP3    H210129   8.917   7.677   5.935  0.7882 -0.6874 -0.1905
 3083TIP3   OH210130   9.570   0.017   7.008  0.1676  0.4850  0.0409
 3083TIP3    H110131   9.643  -0.044   7.010 -0.6555 -0.5443 -0.0555
 3083TIP3    H210132   9.530   0.010   7.095 -1.1675 -0.7295 -0.6145
 3084TIP3   OH210133   0.166   1.031   0.900 -0.5183 -0.1450  0.2491
 3084TIP3    H110134   0.179   0.950   0.950  0.7187  0.0024  0.1854
 3084TIP3    H210135   0.244   1.039   0.846 -1.3226  0.2977 -0.8902
 3085TIP3   OH210136   5.177   9.613   5.270 -0.4288 -0.4025 -0.6955
 3085TIP3    H110137   5.227   9.663   5.205 -0.5455  0.1858 -0.3499
 3085TIP3    H210138   5.142   9.680   5.329  1.2200 -0.9904  1.0873
 3086TIP3   OH210139   6.860   3.467   9.330  0.3689 -0.0414 -0.6638
 3086TIP3    H110140   6.879   3.509   9.414  0.1080  0.5077 -0.8789
 3086TIP3    H210141   6.838   3.539   9.271  0.5351 -0.4249 -1.2020
 3087TIP3   OH210142   0.310   7.545   9.582 -0.2463  0.4667 -0.7443
 3087TIP3    H110143   0.279   7.457   9.606  0.8770  0.8415  2.6467
 3087TIP3    H210144   0.263   7.604   9.642  1.8111  1.7434 -0.3062
 3088TIP3   OH210145   5.308   1.675   6.617  0.2289  0.4057 -0.1421
 3088TIP3    H110146   5.282   1.591   6.655  0.9635 -0.3052 -1.1437
 3088TIP3    H210147   5.259   1.740   6.667 -0.5234 -0.6284  0.5181
 3089TIP3   OH210148   0.505   8.965   1.351  0.8766  0.1976  0.2447
 3089TIP3    H110149   0.458   8.985   1.270  1.1569 -1.0152 -0.2316
 3089TIP3    H210150   0.486   9.040   1.408  0.8549  1.1836 -1.0078
 3090TIP3   OH210151   6.622   8.881   2.817  0.4743 -0.1894 -0.2733
 3090TIP3    H110152   6.555   8.815   2.836  0.9802 -0.1474  1.9978
 3090TIP3    H210153   6.685   8.835   2.761  0.0615 -1.1752  0.0372
 3091TIP3   OH210154   4.855  10.020   6.638  0.0860  0.2392  0.1333
 3091TIP3    H110155   4.772  10.006   6.683  0.3223  0.5072  0.6585
 3091TIP3    H210156   4.830  10.058   6.553 -0.2811  1.4038  0.7330
 3092TIP3   OH210157   4.724   3.142   0.387  0.3692  0.6165  0.5049
 3092TIP3    H110158   4.713   3.147   0.292  0.1161  2.8650  0.5942
 3092TIP3    H210159   4.797   3.201   0.406  1.6996 -1.2717  1.5700
 3093TIP3   OH210160   3.382  10.445   4.094  0.4915 -0.0105 -0.1964
 3093TIP3    H110161   3.353  10.428   4.183 -1.2847 -0.9751 -0.9057
 3093TIP3    H210162   3.301  10.459   4.045  1.4008  0.0027 -1.7661
 3094TIP3   OH210163   3.435   1.421  10.582  0.1732  0.2651  0.2372
 3094TIP3    H110164   3.507   1.367  10.549  0.3550  0.4613  0.3078
 3094TIP3    H210165   3.368   1.415  10.515  0.2615  0.0904  0.1634
 3095TIP3   OH210166   6.990   6.457   2.355  0.2239  0.2408  0.4180
 3095TIP3    H110167   6.930   6.446   2.428 -2.2592  2.1224 -1.2011
 3095TIP3    H210168   6.956   6.400   2.286  0.5392  0.9647 -0.3650
 3096TIP3   OH210169   1.601   3.868   1.075 -0.8012  0.1652 -0.0297
 3096TIP3    H110170   1.616   3.871   1.169 -0.4685  1.4452 -0.1022
 3096TIP3    H210171   1.563   3.782   1.059  1.0870 -0.9312  0.9843
 3097TIP3   OH210172  10.254   7.229   6.247 -0.1850  0.1683 -0.3494
 3097TIP3    H110173  10.316   7.200   6.180  1.7482  1.8448  0.6211
 3097TIP3    H210174  10.244   7.153   6.305 -0.4865 -0.7033 -1.5049
 3098TIP3   OH210175   8.127   4.572   2.558 -0.1282  0.2063 -0.2241
 3098TIP3    H110176   8.111   4.664   2.536  0.8477  0.2496 -0.8006
 3098TIP3    H210177   8.112   4.524   2.476  0.3251 -0.0278 -0.1735
 3099TIP3   OH210178   5.644   9.756   1.819  0.3422 -0.0038  0.1266
 3099TIP3    H110179   5.689   9.839   1.804  0.0984  0.1120  0.0309
 3099TIP3    H210180   5.580   9.776   1.887  0.1093 -0.0506 -0.0778
 3100TIP3   OH210181   7.820  10.493   7.038 -0.2282 -0.2028 -0.5902
 3100TIP3    H110182   7.800  10.444   7.118  0.8787 -0.1124 -0.2504
 3100TIP3    H210183   7.891  10.443   6.997  1.0126  1.1614 -0.1715
 3101TIP3   OH210184   3.332   2.277   0.247  0.0592  0.1943  0.2265
 3101TIP3    H110185   3.328   2.318   0.333 -0.2651 -0.3624  0.4841
 3101TIP3    H210186   3.263   2.211   0.249  2.3830 -2.4151  0.9484
 3102TIP3   OH210187   9.647   9.433   6.787 -0.3269  0.1585 -0.4086
 3102TIP3    H110188   9.645   9.520   6.747 -1.3436 -0.1081 -0.9942
 3102TIP3    H210189   9.608   9.376   6.720  1.3795 -0.9632 -0.4955
 3103TIP3   OH210190   3.408   5.513   5.984  0.1719  0.0685  0.2279
 3103TIP3    H110191   3.467   5.535   5.911  0.1361  0.5294  0.3377
 3103TIP3    H210192   3.385   5.597   6.023  1.1611 -0.2338  1.5395
 3104TIP3   OH210193   1.862   4.210   7.329 -0.3421 -0.5367  0.1161
 3104TIP3    H110194   1.884   4.218   7.236 -1.1963 -0.6857 -0.1004
 3104TIP3    H210195   1.874   4.298   7.364 -2.0011 -0.0081 -0.5779
 3105TIP3   OH210196  10.789   3.608   5.752  0.5258  0.3233 -0.2128
 3105TIP3    H110197  10.791   3.522   5.709 -0.1863  1.7533 -3.4407
 3105TIP3    H210198  10.723   3.599   5.820  0.9110 -1.8511 -0.0607
 3106TIP3   OH210199   8.942   3.150   3.313 -0.6844 -0.2570  0.1045
 3106TIP3    H110200   8.954   3.060   3.343 -3.4507 -0.7668 -0.0041
 3106TIP3    H210201   9.006   3.201   3.363  0.5476 -2.1756  0.5997
 3107TIP3   OH210202   5.039   6.540   3.374  0.5627 -0.2202 -0.4621
 3107TIP3    H110203   5.118   6.514   3.422  0.6450 -0.1947 -0.5821
 3107TIP3    H210204   5.072   6.577   3.293  0.4465  0.2800 -0.2833
 3108TIP3   OH210205   0.240   4.363   5.942  0.5244  0.5026  0.1627
 3108TIP3    H110206   0.151   4.384   5.914  0.8952 -0.9401 -2.4176
 3108TIP3    H210207   0.289   4.444   5.926 -0.0415  0.8749  0.2759
 3109TIP3   OH210208   6.925   6.223   6.922 -0.5755 -0.5896 -0.0700
 3109TIP3    H110209   6.925   6.149   6.983 -0.3547 -2.0310 -1.7510
 3109TIP3    H210210   6.951   6.298   6.976  0.7929 -2.0144  1.3766
 3110TIP3   OH210211   8.652   0.139   7.781 -0.7415  0.2865  0.2328
 3110TIP3    H110212   8.591   0.207   7.808 -2.0705 -1.2990  1.3844
 3110TIP3    H210213   8.738   0.171   7.808 -1.4349  1.1440  1.4831
 3111TIP3   OH210214   0.638   0.021   2.979 -0.0261 -0.8338  0.5802
 3111TIP3    H110215   0.546   0.030   2.953 -0.1504  3.0596  1.7802
 3111TIP3    H210216   0.687   0.045   2.900  0.0129 -2.2593  0.1396
 3112TIP3   OH210217   8.666   6.525   4.389 -0.3920 -0.1649  0.1313
 3112TIP3    H110218   8.702   6.577   4.317 -0.8004 -0.3762 -0.2263
 3112TIP3    H210219   8.735   6.463   4.410 -0.0249  0.3035  0.3496
 3113TIP3   OH210220   2.479   9.423   1.297 -0.0519  0.0347  0.0508
 3113TIP3    H110221   2.428   9.488   1.248 -0.5630  0.3306  0.9540
 3113TIP3    H210222   2.478   9.345   1.242 -0.3623  0.4496 -0.5443
 3114TIP3   OH210223   4.353   4.557   8.390  0.5203  0.1164 -0.0634
 3114TIP3    H110224   4.388   4.640   8.358 -0.6327 -0.0852 -1.9810
 3114TIP3    H210225   4.426   4.517   8.438  1.0125  2.3254  1.1596
 3115TIP3   OH210226   5.679   4.096   2.047 -0.2110  0.5285 -0.5647
 3115TIP3    H110227   5.636   4.014   2.074 -0.2074  0.4318 -0.8566
 3115TIP3    H210228   5.616   4.138   1.989  0.5644 -0.1852 -1.9755
 3116TIP3   OH210229   0.654   4.497   2.574 -0.1693  0.3883 -0.4646
 3116TIP3    H110230   0.660   4.564   2.642  1.4848  0.3628 -0.5489
 3116TIP3    H210231   0.585   4.438   2.604  1.2034 -0.1963  1.7240
 3117TIP3   OH210232   5.581   5.057   3.954 -0.1728 -0.5137  0.1456
 3117TIP3    H110233   5.563   5.151   3.958  0.5782 -0.2137 -1.9029
 3117TIP3    H210234   5.634   5.039   4.031 -0.2055  0.7912  0.4907
 3118TIP3   OH210235   2.611   6.408   2.442  0.3690 -0.1828  0.7199
 3118TIP3    H110236   2.656   6.467   2.381 -0.1875  1.0217  1.4409
 3118TIP3    H210237   2.526   6.393   2.401  0.0133  0.5879  1.1518
 3119TIP3   OH210238   9.064   2.258   5.762  0.4891  0.4570 -0.3166
 3119TIP3    H110239   9.012   2.337   5.749 -1.8473 -0.9214  0.1235
 3119TIP3    H210240   9.110   2.273   5.844 -0.0165  1.3061 -0.1712
 3120TIP3   OH210241  10.481   5.216   1.486  0.4886 -0.2977 -0.7703
 3120TIP3    H110242  10.543   5.179   1.549 -0.4993 -0.4162  0.1410
 3120TIP3    H210243  10.415   5.149   1.475 -1.1613  1.0077  0.6596
 3121TIP3   OH210244   8.252   6.320   0.752  0.0810  0.2270 -0.3236
 3121TIP3    H110245   8.211   6.359   0.829 -0.2290  0.3572 -0.5557
 3121TIP3    H210246   8.346   6.324   0.771 -0.0132 -0.2027  0.2709
 3122TIP3   OH210247   6.753   5.013  10.162  0.2588  0.0639  0.4831
 3122TIP3    H110248   6.755   4.939  10.224 -0.0306 -0.5395 -0.2151
 3122TIP3    H210249   6.845   5.037  10.151  0.3836 -0.3899  0.4897
 3123TIP3   OH210250   5.901   5.178   4.994  0.1636 -0.1748 -0.3055
 3123TIP3    H110251   5.954   5.233   5.052 -0.0721 -0.4043  0.1386
 3123TIP3    H210252   5.934   5.090   5.008 -1.1224 -0.5076  0.9167
 3124TIP3   OH210253   0.838   5.155   0.293 -0.3893 -0.1990 -0.3932
 3124TIP3    H110254   0.776   5.180   0.361 -0.7556 -1.9893 -0.0179
 3124TIP3    H210255   0.840   5.229   0.233 -4.2151 -0.6648 -1.3668
 3125TIP3   OH210256   0.717   2.831   4.112 -0.4970 -0.0316 -0.2599
 3125TIP3    H110257   0.746   2.833   4.021 -0.7939  0.5045 -0.3449
 3125TIP3    H210258   0.654   2.903   4.119  0.8621  1.1188  0.8176
 3126TIP3   OH210259  10.743   9.313   6.428 -0.5924 -0.4252 -0.4840
 3126TIP3    H110260  10.802   9.388   6.431 -0.5757 -0.4679  0.7577
 3126TIP3    H210261  10.655   9.352   6.424 -0.6781 -0.2594  1.6486
 3127TIP3   OH210262   1.222   5.250   4.756  0.1006 -0.2689 -0.1049
 3127TIP3    H110263   1.292   5.206   4.804 -0.9454  1.4110  3.2214
 3127TIP3    H210264   1.264   5.277   4.674  1.5197 -4.7196 -1.1462
 3128TIP3   OH210265   8.854   9.919   1.033 -0.1011 -0.2277 -0.6683
 3128TIP3    H110266   8.801   9.855   1.082  0.7694  0.3172  1.0710
 3128TIP3    H210267   8.792   9.958   0.971 -1.4773 -0.4593  0.4828
 3129TIP3   OH210268   3.331   8.331   6.368 -0.3985  0.5563  0.0705
 3129TIP3    H110269   3.346   8.391   6.295 -0.6783  0.6195  0.0620
 3129TIP3    H210270   3.398   8.353   6.432 -0.1617  0.5103 -0.1617
 3130TIP3   OH210271   4.201   4.232   6.494  0.1419 -0.0705 -0.4088
 3130TIP3    H110272   4.172   4.142   6.511 -0.4689  0.0230 -0.9099
 3130TIP3    H210273   4.187   4.245   6.401 -1.8674  1.2350 -0.0085
 3131TIP3   OH210274   7.387   5.344   6.386  0.4939  0.4671  0.1618
 3131TIP3    H110275   7.420   5.304   6.467  0.4836  0.1770  0.0214
 3131TIP3    H210276   7.300   5.307   6.374  1.5506 -1.6880 -1.4947
 3132TIP3   OH210277   2.013   8.679   2.130 -0.3957  0.1727 -0.1693
 3132TIP3    H110278   1.990   8.586   2.140  2.8425 -0.7391  0.0221
 3132TIP3    H210279   1.992   8.718   2.215  1.8575 -1.3825  1.2154
 3133TIP3   OH210280   5.491  10.014   1.462 -0.4076  0.4572  0.0311
 3133TIP3    H110281   5.459   9.991   1.375 -1.1358  1.3266  0.0494
 3133TIP3    H210282   5.429   9.974   1.522 -0.2799  0.4053  0.1287
 3134TIP3   OH210283   0.665   9.755   8.911 -0.3133  0.4796 -0.7693
 3134TIP3    H110284   0.614   9.731   8.834 -0.1364  0.1100 -0.7750
 3134TIP3    H210285   0.755   9.736   8.887 -0.2671  0.2610 -0.4380
 3135TIP3   OH210286   3.123   5.600   4.979  0.0094 -0.7706  0.3573
 3135TIP3    H110287   3.159   5.687   4.997  0.4428 -0.9037  0.1467
 3135TIP3    H210288   3.073   5.578   5.058  0.3632 -0.5704  0.6422
 3136TIP3   OH210289   3.315   7.368   6.152  0.2302  0.3570 -0.0115
 3136TIP3    H110290   3.238   7.419   6.177 -0.5706 -0.5163 -0.6259
 3136TIP3    H210291   3.312   7.291   6.209  0.3174  0.0375 -0.4362
 3137TIP3   OH210292   6.591   4.455   9.900 -0.3990 -0.2870 -0.0248
 3137TIP3    H110293   6.648   4.456   9.824 -0.6188 -0.3906 -0.1931
 3137TIP3    H210294   6.559   4.545   9.907  0.4151 -0.0355  0.5520
 3138TIP3   OH210295   2.994   7.043   3.646  0.5928  0.5004  0.3770
 3138TIP3    H110296   2.994   6.991   3.566  0.4598 -0.5624  1.0434
 3138TIP3    H210297   2.915   7.017   3.692 -1.1471  3.5259 -0.6189
 3139TIP3   OH210298   9.105   1.803   0.583  0.4953  0.3429  0.6818
 3139TIP3    H110299   9.012   1.785   0.591  0.2230  0.5289 -1.4511
 3139TIP3    H210300   9.117   1.887   0.628 -0.6013  0.9157 -0.0603
 3140TIP3   OH210301   9.633   4.360   5.435 -0.5673  0.2746  0.5444
 3140TIP3    H110302   9.721   4.397   5.435 -1.1019  1.6180 -0.8038
 3140TIP3    H210303   9.604   4.370   5.526 -1.1373  4.4558  0.0793
 3141TIP3   OH210304   7.796   9.110   9.916 -0.1048  0.5697  0.2154
 3141TIP3    H110305   7.886   9.130   9.891 -0.4831  2.3358  0.1279
 3141TIP3    H210306   7.762   9.192   9.951 -2.6046  0.8615 -2.5097
 3142TIP3   OH210307   0.860   5.886   4.025  0.3747 -0.0207  0.0310
 3142TIP3    H110308   0.954   5.894   4.006  0.7864  1.4060  2.3070
 3142TIP3    H210309   0.853   5.805   4.075  1.0065  1.3939  2.6192
 3143TIP3   OH210310   3.265   0.470   2.697  0.4522  0.2223 -0.5222
 3143TIP3    H110311   3.238   0.385   2.732  1.1487  0.8445  1.7110
 3143TIP3    H210312   3.294   0.519   2.774  1.4470  1.9764 -1.9439
 3144TIP3   OH210313   6.188   7.492   1.558  0.0664  1.0079 -0.0495
 3144TIP3    H110314   6.236   7.411   1.576  0.5194  1.5931  1.6183
 3144TIP3    H210315   6.254   7.554   1.528 -0.0987  1.0480 -0.3287
 3145TIP3   OH210316   5.684   6.649   8.280 -0.6158 -0.3996  0.0081
 3145TIP3    H110317   5.670   6.676   8.189 -0.8694 -1.3810 -0.2515
 3145TIP3    H210318   5.598   6.657   8.321 -0.4495  0.2965  0.2486
 3146TIP3   OH210319   0.811   1.238   2.849 -0.3826 -0.6189 -0.6765
 3146TIP3    H110320   0.715   1.237   2.852 -0.4116 -3.2750  0.0693
 3146TIP3    H210321   0.837   1.170   2.911  1.9452 -1.1765 -2.1726
 3147TIP3   OH210322   9.778  10.743   7.050 -0.0850  0.6377  0.1154
 3147TIP3    H110323   9.729  10.666   7.079  0.7185 -0.3387 -1.0189
 3147TIP3    H210324   9.847  10.754   7.116  0.8513 -0.6911 -0.5951
 3148TIP3   OH210325  10.565   3.446   5.547 -0.0662 -0.9416 -0.4154
 3148TIP3    H110326  10.649   3.421   5.508 -0.5956 -2.6640 -0.5335
 3148TIP3    H210327  10.539   3.525   5.499  2.6700  1.2558  1.3724
 3149TIP3   OH210328   0.519   9.249   4.957  0.8881  0.5652  0.0687
 3149TIP3    H110329   0.441   9.299   4.932  0.5245 -0.4136 -0.8223
 3149TIP3    H210330   0.512   9.242   5.052 -0.4063  0.0552 -0.0381
 3150TIP3   OH210331   5.911   3.208   1.238 -0.0847 -0.2887 -0.0268
 3150TIP3    H110332   5.989   3.226   1.186  1.3088 -0.7390  1.7948
 3150TIP3    H210333   5.876   3.294   1.259  0.3341 -0.0587 -0.2479
 3151TIP3   OH210334   0.138   9.855   3.917 -0.4664  0.4161 -0.4419
 3151TIP3    H110335   0.044   9.859   3.900 -0.4604 -0.1676 -0.6406
 3151TIP3    H210336   0.169   9.945   3.907 -1.0560  0.6637 -0.0560
 3152TIP3   OH210337   1.147   0.772   4.709 -0.3602 -0.1189  0.5044
 3152TIP3    H110338   1.068   0.810   4.747 -0.2526  1.1619 -0.4820
 3152TIP3    H210339   1.168   0.829   4.635  0.2372 -1.7342 -0.6143
 3153TIP3   OH210340   6.294   7.239  10.587  0.0170  0.1018 -0.1271
 3153TIP3    H110341   6.341   7.296  10.647  2.0331 -0.7372 -0.8291
 3153TIP3    H210342   6.267   7.296  10.515 -0.1393  0.6162  0.3390
 3154TIP3   OH210343   3.276   8.611   7.105  0.0547 -0.4981 -0.1159
 3154TIP3    H110344   3.217   8.686   7.108 -0.8001 -1.1419 -0.6369
 3154TIP3    H210345   3.224   8.540   7.069  0.7610 -1.4430  0.6612
 3155TIP3   OH210346   8.315   9.965   7.625 -0.4735 -0.2252 -0.3350
 3155TIP3    H110347   8.351  10.053   7.628 -1.9323  0.3821  1.5734
 3155TIP3    H210348   8.345   9.925   7.707 -1.1248 -0.9581 -0.4472
 3156TIP3   OH210349   2.087   2.800   4.725  0.8332 -0.3133 -0.0165
 3156TIP3    H110350   2.032   2.836   4.655 -0.6250  0.0086  1.2260
 3156TIP3    H210351   2.099   2.708   4.701  0.8436 -0.0721 -0.9743
 3157TIP3   OH210352   4.504   3.206   8.218 -0.2391 -0.6930 -0.3328
 3157TIP3    H110353   4.467   3.118   8.228 -0.6406 -0.4372  0.5427
 3157TIP3    H210354   4.596   3.195   8.240 -0.6936 -0.5385  1.8959
 3158TIP3   OH210355  10.677   6.971   4.436  0.0426  0.2441 -0.1447
 3158TIP3    H110356  10.735   7.037   4.397  3.0574 -1.7669  0.5694
 3158TIP3    H210357  10.648   7.011   4.519  2.5019  0.4874  0.6993
 3159TIP3   OH210358   9.980   1.685   8.338 -0.5472  0.0854  0.5467
 3159TIP3    H110359  10.003   1.594   8.325 -1.3760 -0.3321  1.8259
 3159TIP3    H210360   9.884   1.685   8.347 -0.8279  1.3520 -1.4497
 3160TIP3   OH210361   6.977   6.263   1.320 -0.1081  0.1768  0.7974
 3160TIP3    H110362   7.003   6.309   1.399 -1.9474  0.3839  1.3320
 3160TIP3    H210363   7.022   6.178   1.325  4.2111  2.1093 -0.7363
 3161TIP3   OH210364   0.777   1.605  10.513 -0.1986  0.1543 -0.0072
 3161TIP3    H110365   0.703   1.600  10.573  0.8804 -0.1040  1.3577
 3161TIP3    H210366   0.798   1.699  10.510  0.0145  0.1210  0.3716
 3162TIP3   OH210367   1.489   0.137   4.644 -0.2382  0.6239 -0.1353
 3162TIP3    H110368   1.567   0.166   4.692 -0.5740 -1.1648  1.6306
 3162TIP3    H210369   1.418   0.191   4.678  0.1516  2.1965 -1.6835
 3163TIP3   OH210370   2.208   9.436   6.956  0.3627  0.2980 -0.0450
 3163TIP3    H110371   2.138   9.464   6.898  0.8543  1.5180 -0.0739
 3163TIP3    H210372   2.166   9.424   7.041 -0.1196 -0.2985 -0.3567
 3164TIP3   OH210373   7.146   7.067   3.047  0.2882  0.4536  0.4414
 3164TIP3    H110374   7.163   7.155   3.081 -0.0165  0.6981 -0.0246
 3164TIP3    H210375   7.058   7.072   3.010  0.7010  0.2750 -0.6009
 3165TIP3   OH210376   9.808   4.937   6.912 -0.5586 -0.4916 -0.5042
 3165TIP3    H110377   9.901   4.919   6.903 -0.3800  0.8188 -1.6728
 3165TIP3    H210378   9.803   5.030   6.934 -1.5239 -1.1612  2.6233
 3166TIP3   OH210379   5.059   7.684   9.097  0.9136  0.5949  0.0856
 3166TIP3    H110380   5.143   7.697   9.142  0.7903  0.6311  0.3088
 3166TIP3    H210381   5.059   7.592   9.073  1.7853  0.9694 -1.4870
 3167TIP3   OH210382   7.371   9.604   9.631 -0.6200 -0.0350  0.2329
 3167TIP3    H110383   7.357   9.698   9.619  0.4028  0.0991 -0.0081
 3167TIP3    H210384   7.327   9.563   9.556 -0.0369  0.3425 -0.3287
 3168TIP3   OH210385   5.734   9.457   0.687 -0.1187  0.3543  0.4345
 3168TIP3    H110386   5.731   9.538   0.737  0.0563 -0.4932  1.8581
 3168TIP3    H210387   5.736   9.388   0.753 -1.1584 -0.8519 -0.7529
 3169TIP3   OH210388   1.085   6.129   4.071 -0.2604 -0.0474 -0.2883
 3169TIP3    H110389   1.014   6.158   4.013  0.1042  2.2390  0.2943
 3169TIP3    H210390   1.165   6.151   4.023  0.0370  0.6928  0.5232
 3170TIP3   OH210391   5.775   6.767  10.787  0.0556  0.5699 -0.1827
 3170TIP3    H110392   5.711   6.737  10.724  0.8533 -1.1972 -0.2002
 3170TIP3    H210393   5.823   6.688  10.812  2.8344  1.9152 -0.8675
 3171TIP3   OH210394   7.049   2.175   5.871 -0.5541 -0.5291 -1.0042
 3171TIP3    H110395   7.007   2.090   5.880 -1.4118 -0.0461 -0.1692
 3171TIP3    H210396   6.979   2.238   5.889  0.2153  0.3348 -0.9660
 3172TIP3   OH210397   7.165   9.242   5.753  0.7182  0.2117 -0.1661
 3172TIP3    H110398   7.150   9.298   5.677  0.5778  1.7672  0.9612
 3172TIP3    H210399   7.097   9.267   5.816  0.8902 -0.9620  0.5305
 3173TIP3   OH210400   6.098   7.590   6.632  0.4829 -0.2816  0.5536
 3173TIP3    H110401   6.016   7.633   6.658 -0.5966 -1.4627 -0.7311
 3173TIP3    H210402   6.158   7.608   6.704 -1.3958 -0.7015  2.3295
 3174TIP3   OH210403   7.114   4.693   6.074  0.1181 -0.0818  0.0751
 3174TIP3    H110404   7.074   4.622   6.025  0.3576 -1.9412  2.4106
 3174TIP3    H210405   7.208   4.682   6.061  0.1098  0.8558 -0.8864
 3175TIP3   OH210406   2.455   4.153  10.023 -0.4599 -0.1103 -0.6446
 3175TIP3    H110407   2.542   4.180   9.994 -0.4250 -0.3413 -0.7672
 3175TIP3    H210408   2.422   4.100   9.950 -1.6734  1.9020 -1.6542
 3176TIP3   OH210409   7.912   9.446   5.887 -0.4979 -0.8978  0.3345
 3176TIP3    H110410   7.948   9.500   5.816 -1.1506 -1.7641 -0.6935
 3176TIP3    H210411   7.989   9.416   5.935 -0.0962  0.4668  0.5783
 3177TIP3   OH210412   5.977   6.225   4.164 -0.1145  0.2415 -0.2210
 3177TIP3    H110413   5.889   6.246   4.132 -0.8675  0.1167  1.6253
 3177TIP3    H210414   5.963   6.154   4.227  1.4663 -0.5321 -0.6858
 3178TIP3   OH210415   2.175   0.079   7.910  0.0230  0.0515 -0.4013
 3178TIP3    H110416   2.126   0.001   7.936  1.4520 -0.0403  2.3917
 3178TIP3    H210417   2.255   0.045   7.872  0.5571  0.1068  0.6335
 3179TIP3   OH210418   4.104   6.274   7.950 -0.4767 -0.6785 -0.4337
 3179TIP3    H110419   4.107   6.262   7.856  1.5685  1.5125 -0.7450
 3179TIP3    H210420   4.092   6.368   7.962  0.2264 -0.7866  1.4717
 3180TIP3   OH210421   2.892   8.335   1.623  0.4411 -0.2059 -0.4380
 3180TIP3    H110422   2.870   8.372   1.708  0.2778  0.9197 -0.9530
 3180TIP3    H210423   2.979   8.369   1.603  0.2278  0.0346 -0.9858
 3181TIP3   OH210424   6.322   7.122   4.371  0.2864 -0.1775 -0.7625
 3181TIP3    H110425   6.316   7.029   4.393 -0.5249  0.3926  1.7745
 3181TIP3    H210426   6.410   7.148   4.397  0.0389  0.0576 -0.1541
 3182TIP3   OH210427   2.641   7.442   2.474 -0.1430 -0.1027 -0.1695
 3182TIP3    H110428   2.626   7.489   2.556 -1.2115 -1.5624  0.5244
 3182TIP3    H210429   2.732   7.413   2.480 -0.4942 -1.0445  0.9898
 3183TIP3   OH210430   2.352  10.639   8.337  0.2323  0.5109  0.1374
 3183TIP3    H110431   2.400  10.556   8.340 -0.8272 -0.2182 -1.5808
 3183TIP3    H210432   2.260  10.613   8.324 -0.3548  1.9313  1.1897
 3184TIP3   OH210433   6.501   7.848  10.896 -0.2365 -0.6923 -0.0882
 3184TIP3    H110434   6.556   7.778  10.932 -0.2317 -0.7007 -0.1117
 3184TIP3    H210435   6.415   7.809  10.885 -0.4164 -0.4932  0.5652
 3185TIP3   OH210436   5.608   3.369   2.505 -0.0375 -0.8414  0.2572
 3185TIP3    H110437   5.701   3.350   2.522  0.6883  2.3055  0.4864
 3185TIP3    H210438   5.577   3.409   2.586 -0.7519  0.6805 -0.7178
 3186TIP3   OH210439   4.806   0.025   1.261  0.3353  0.2813 -0.2881
 3186TIP3    H110440   4.735  -0.039   1.254  0.2207  0.4123 -0.3149
 3186TIP3    H210441   4.824   0.030   1.355  1.4689 -1.0291 -0.3970
 3187TIP3   OH210442  10.417   4.773   8.085  0.0183 -0.2379 -0.1921
 3187TIP3    H110443  10.379   4.839   8.028 -1.5939  0.8620  2.0060
 3187TIP3    H210444  10.380   4.690   8.055 -0.2994  0.2314 -1.1042
 3188TIP3   OH210445   9.540   0.059   7.490 -0.2383  0.6601  0.6949
 3188TIP3    H110446   9.587  -0.016   7.527 -1.2067 -0.1371  0.3563
 3188TIP3    H210447   9.518   0.113   7.566  0.8805  0.8685  0.8938
 3189TIP3   OH210448   4.840   1.630   7.128 -0.2509 -0.3999  0.4858
 3189TIP3    H110449   4.764   1.588   7.086  0.6326 -0.5248 -1.0414
 3189TIP3    H210450   4.885   1.558   7.173  0.9238 -1.0487 -1.6193
 3190TIP3   OH210451   4.605   1.321   2.981  0.3002  0.2018 -0.4631
 3190TIP3    H110452   4.605   1.412   3.012  0.1646  0.6130 -1.6050
 3190TIP3    H210453   4.679   1.318   2.920  0.9165 -0.7376  0.2960
 3191TIP3   OH210454   2.415   9.898   5.351  0.0661 -0.1480 -0.3501
 3191TIP3    H110455   2.461   9.950   5.285 -1.6588  2.3338  0.2484
 3191TIP3    H210456   2.370   9.963   5.406 -1.9851 -2.2849  0.6824
 3192TIP3   OH210457   1.263   9.687  10.797 -0.7011  0.2470 -0.3979
 3192TIP3    H110458   1.198   9.738  10.845  0.7581  2.4854 -0.6015
 3192TIP3    H210459   1.271   9.732  10.712  1.7377  0.7168 -0.0160
 3193TIP3   OH210460   8.506  10.070   1.545 -0.2593  0.4166  0.2114
 3193TIP3    H110461   8.581  10.109   1.501 -0.2842  0.0377 -0.1752
 3193TIP3    H210462   8.432  10.127   1.523  0.0419  1.2352  1.2342
 3194TIP3   OH210463   1.095   2.365   1.029  0.0803 -0.2465 -0.4511
 3194TIP3    H110464   1.128   2.423   0.960 -0.2345 -0.3311 -0.6728
 3194TIP3    H210465   1.174   2.323   1.064  0.1640 -0.8297 -1.3245
 3195TIP3   OH210466   1.304   6.494   3.759 -0.4493  0.2745  0.0641
 3195TIP3    H110467   1.353   6.454   3.687 -0.6351  0.7148 -0.3104
 3195TIP3    H210468   1.353   6.574   3.780 -1.7814  1.5167 -1.3049
 3196TIP3   OH210469   1.682   9.273   3.263 -0.1396 -0.0904  0.1867
 3196TIP3    H110470   1.591   9.304   3.267  0.1578  0.7998  4.1261
 3196TIP3    H210471   1.734   9.353   3.264  0.6678 -0.6125  0.7801
 3197TIP3   OH210472  10.638   3.463   7.224  0.0166  0.4262  0.1309
 3197TIP3    H110473  10.728   3.431   7.221 -0.3887 -0.8204  0.6889
 3197TIP3    H210474  10.646   3.555   7.248  1.2254  0.8143 -1.5302
 3198TIP3   OH210475   7.936   7.809   6.798  0.0108 -0.2199  0.4681
 3198TIP3    H110476   7.918   7.843   6.710  1.2517  0.4139  0.4261
 3198TIP3    H210477   7.943   7.714   6.786 -0.0849 -0.1635 -0.0724
 3199TIP3   OH210478   0.862   9.105   6.291 -0.4271  0.2346 -0.4553
 3199TIP3    H110479   0.786   9.161   6.309 -0.6611  0.0388 -0.8254
 3199TIP3    H210480   0.848   9.027   6.343  0.9050  1.3368  1.6770
 3200TIP3   OH210481   4.351   7.431   5.056 -0.2169 -0.1547 -0.1912
 3200TIP3    H110482   4.298   7.499   5.014  0.6512  1.0138  0.5354
 3200TIP3    H210483   4.386   7.379   4.984  0.1082  0.9367 -0.8327
 3201TIP3   OH210484  10.139   3.713   9.261  0.1811  0.3994  0.7543
 3201TIP3    H110485  10.216   3.662   9.235 -0.5145 -1.1795  1.6487
 3201TIP3    H210486  10.072   3.647   9.277 -0.6451  1.5829  2.3342
 3202TIP3   OH210487   8.162   7.917   2.239  0.6585 -0.7373 -0.0857
 3202TIP3    H110488   8.257   7.907   2.251  0.4328 -1.4247  1.3095
 3202TIP3    H210489   8.153   7.949   2.149  2.1536 -1.9311 -0.7215
 3203TIP3   OH210490   6.738  10.473   8.407 -0.5652  0.0481  0.2043
 3203TIP3    H110491   6.780  10.528   8.473 -0.4349 -0.2300  0.3530
 3203TIP3    H210492   6.806  10.411   8.381 -1.2003 -1.1317  1.2504
 3204TIP3   OH210493   3.200   1.674   3.695 -0.3426  0.1153  0.0417
 3204TIP3    H110494   3.169   1.736   3.761  0.3843 -1.6786  2.2005
 3204TIP3    H210495   3.287   1.706   3.671 -1.0212  1.3538 -0.8776
 3205TIP3   OH210496  10.131   2.817   7.774  0.7152  0.1446  0.1812
 3205TIP3    H110497  10.178   2.900   7.786  0.1715  0.4814 -0.0138
 3205TIP3    H210498  10.083   2.805   7.856 -1.6033  1.5609 -0.8654
 3206TIP3   OH210499   1.134   2.963   9.087 -0.3423 -0.8446 -0.5563
 3206TIP3    H110500   1.145   2.891   9.149 -1.2880 -1.3904 -1.0079
 3206TIP3    H210501   1.044   2.955   9.056  0.6851 -1.9888 -3.6749
 3207TIP3   OH210502   4.071   2.321   1.189  0.2985 -1.0938  0.3764
 3207TIP3    H110503   4.142   2.369   1.146 -1.9953  0.6818 -1.7918
 3207TIP3    H210504   4.054   2.370   1.270  0.1282 -0.1752 -0.2032
 3208TIP3   OH210505   6.232   0.333   4.800 -0.4574  0.0261 -0.0551
 3208TIP3    H110506   6.250   0.246   4.834  0.0163  0.7562  1.6727
 3208TIP3    H210507   6.315   0.380   4.811 -1.6782  1.8201  2.8035
 3209TIP3   OH210508   6.144   9.316   2.793 -0.6322 -0.3033  0.0145
 3209TIP3    H110509   6.095   9.399   2.788 -1.6428 -0.9086 -0.5314
 3209TIP3    H210510   6.079   9.252   2.821 -0.5068 -1.3840 -2.0018
 3210TIP3   OH210511  10.821   2.843  10.197 -0.2264  0.1488 -0.2680
 3210TIP3    H110512  10.748   2.785  10.177  0.7542 -1.5077  0.7591
 3210TIP3    H210513  10.790   2.897  10.270 -0.8247  0.2867 -0.6216
 3211TIP3   OH210514   3.206   9.371   2.210  0.6846  0.2483 -0.3599
 3211TIP3    H110515   3.290   9.379   2.255  1.6179 -0.0684 -1.9461
 3211TIP3    H210516   3.201   9.279   2.186 -0.2362  0.2201 -0.0585
 3212TIP3   OH210517  10.787  10.774  10.028  0.1764  0.5046 -0.2581
 3212TIP3    H110518  10.767  10.731   9.945  0.0665 -0.3147  0.1769
 3212TIP3    H210519  10.854  10.839  10.006 -0.7597  1.1697 -1.1958
 3213TIP3   OH210520  10.895   7.534   3.204 -0.3612 -0.9120 -0.1489
 3213TIP3    H110521  10.896   7.581   3.121  1.7205  3.3685  1.9543
 3213TIP3    H210522  10.818   7.567   3.250 -0.0269 -1.1131  0.5795
 3214TIP3   OH210523   5.214   1.372   7.173  0.3252  0.0304 -0.2706
 3214TIP3    H110524   5.275   1.442   7.147  0.4203 -1.1234 -3.7985
 3214TIP3    H210525   5.271   1.302   7.204  0.2601  1.1513  2.7186
 3215TIP3   OH210526   2.765   2.564   7.290  0.3060 -0.6701 -0.4710
 3215TIP3    H110527   2.706   2.558   7.215 -0.6917 -0.1013  0.2422
 3215TIP3    H210528   2.758   2.478   7.333  0.5893 -0.8668 -0.8187
 3216TIP3   OH210529   0.047   7.043   4.664  0.0865 -0.1918 -0.0780
 3216TIP3    H110530   0.106   7.068   4.735 -0.6343  0.7716  0.2066
 3216TIP3    H210531   0.094   7.066   4.584 -0.0619  0.9897  0.1562
 3217TIP3   OH210532   1.505  10.861   3.476  0.1722  0.0443 -0.0880
 3217TIP3    H110533   1.482  10.950   3.447  1.4762  0.6264  0.5817
 3217TIP3    H210534   1.560  10.826   3.406 -0.0248 -0.1015 -0.1724
 3218TIP3   OH210535   5.838   9.633   8.066 -0.6898 -0.0851 -0.4634
 3218TIP3    H110536   5.843   9.538   8.074 -1.8213 -0.1025  0.1261
 3218TIP3    H210537   5.909   9.666   8.121 -2.6620 -0.5002  2.5863
 3219TIP3   OH210538   5.674   8.456   4.278 -0.6273  0.0529  0.0194
 3219TIP3    H110539   5.734   8.454   4.352 -1.5860  1.8950  0.8906
 3219TIP3    H210540   5.726   8.494   4.207  0.0206 -0.8970 -0.0490
 3220TIP3   OH210541   7.479   8.308   2.501  0.1806 -0.4221  0.1430
 3220TIP3    H110542   7.511   8.379   2.557  2.4884 -0.7701 -0.6251
 3220TIP3    H210543   7.474   8.232   2.560 -1.9363  0.2159  0.8797
 3221TIP3   OH210544   4.053   1.320   2.723 -0.0247 -0.1624  0.1559
 3221TIP3    H110545   4.083   1.304   2.812  0.0029 -0.0642  0.1642
 3221TIP3    H210546   4.133   1.320   2.670  0.1066  1.0846  0.3174
 3222TIP3   OH210547   9.134   7.151   3.596  0.5180 -0.2993 -0.2539
 3222TIP3    H110548   9.067   7.111   3.651 -0.4948 -1.0215 -1.9229
 3222TIP3    H210549   9.148   7.087   3.526  2.7014  0.0033 -0.1627
 3223TIP3   OH210550   9.225  10.532   9.824  0.1602 -0.0374 -0.4435
 3223TIP3    H110551   9.293  10.590   9.790 -0.3405  0.5483 -0.4466
 3223TIP3    H210552   9.241  10.530   9.918 -1.2201  1.9685 -0.1123
 3224TIP3   OH210553   1.129   5.315   8.649  0.6732  0.0128 -0.8667
 3224TIP3    H110554   1.172   5.400   8.643  1.2927 -0.2922 -0.8295
 3224TIP3    H210555   1.037   5.333   8.631  0.8731  0.6270 -1.2959
 3225TIP3   OH210556   4.497   3.464   4.987  0.0823 -0.9906 -0.4297
 3225TIP3    H110557   4.562   3.476   5.057 -0.9071  2.0600  0.1355
 3225TIP3    H210558   4.435   3.401   5.023  1.1978 -1.7824  0.1791
 3226TIP3   OH210559   1.933   0.957   7.649 -0.2006  0.5868 -0.5257
 3226TIP3    H110560   1.950   0.954   7.555  2.8442  2.0960 -0.1363
 3226TIP3    H210561   1.881   1.036   7.662  0.0988  0.8380 -0.8513
 3227TIP3   OH210562  10.552   9.797   6.001  0.3837  0.4643 -0.2332
 3227TIP3    H110563  10.597   9.760   6.077  0.0892 -0.2607 -0.3999
 3227TIP3    H210564  10.465   9.757   6.003  0.3265  0.5391 -0.8748
 3228TIP3   OH210565   8.086   3.717   5.005  0.5421  0.2228 -0.1923
 3228TIP3    H110566   8.071   3.622   5.003  1.9699 -0.0182 -0.4150
 3228TIP3    H210567   8.020   3.753   4.946 -0.2711 -0.5824  0.1947
 3229TIP3   OH210568   1.439   3.027   2.520  0.1134 -0.2651  0.5299
 3229TIP3    H110569   1.376   3.098   2.530  0.6154  0.1645  0.7472
 3229TIP3    H210570   1.454   2.995   2.609 -0.6340 -1.1199  0.3565
 3230TIP3   OH210571   6.715   8.982   2.401 -0.5556  0.4731 -0.0426
 3230TIP3    H110572   6.664   8.904   2.423 -0.2844 -0.0069 -1.0582
 3230TIP3    H210573   6.655   9.055   2.416 -0.5276  0.1769  1.8276
 3231TIP3   OH210574   2.871   9.546   3.380  0.2867  0.3465  0.5305
 3231TIP3    H110575   2.961   9.556   3.348  0.6725  0.6454  1.6488
 3231TIP3    H210576   2.816   9.569   3.305  1.1301 -0.5070 -0.3762
 3232TIP3   OH210577  10.664   5.955  10.398  0.6899  0.0309  0.4531
 3232TIP3    H110578  10.685   6.013  10.471  0.3920 -0.7018  1.1424
 3232TIP3    H210579  10.730   5.975  10.332 -0.1368  2.0245  0.1514
 3233TIP3   OH210580   6.907   1.023   2.516 -0.3176  0.2563  0.1934
 3233TIP3    H110581   6.986   1.004   2.567 -1.6431 -1.1177  1.8572
 3233TIP3    H210582   6.921   1.111   2.482  0.8310  1.1037  2.6316
 3234TIP3   OH210583   6.487   2.664   5.331 -0.2420  0.1252 -0.4269
 3234TIP3    H110584   6.520   2.754   5.336 -0.0730  0.0336  0.1612
 3234TIP3    H210585   6.564   2.611   5.313 -0.7554  0.3964 -4.1970
 3235TIP3   OH210586   1.660   3.466   9.464  0.3619 -0.0411 -0.1220
 3235TIP3    H110587   1.606   3.427   9.533 -0.6644  1.6295  0.0752
 3235TIP3    H210588   1.725   3.518   9.512 -0.1832  0.9051 -0.3874
 3236TIP3   OH210589   7.532   4.072   7.567  0.3105  1.1890  0.5513
 3236TIP3    H110590   7.607   4.102   7.617 -0.4350  1.3168  1.6295
 3236TIP3    H210591   7.458   4.119   7.605 -0.5082  0.0369  0.4419
 3237TIP3   OH210592   9.970   2.728  10.264 -0.3439 -0.0135  0.3686
 3237TIP3    H110593   9.972   2.651  10.320 -2.0623 -2.3454 -2.4966
 3237TIP3    H210594  10.037   2.711  10.198  0.4382  1.8210  0.6295
 3238TIP3   OH210595   0.885   3.313   9.044 -0.1099 -0.3927  0.0703
 3238TIP3    H110596   0.890   3.408   9.034 -1.2412 -0.2745  0.4951
 3238TIP3    H210597   0.878   3.280   8.954 -0.0318 -0.0468 -0.0660
 3239TIP3   OH210598   8.598   7.956   8.752  0.1369  0.2721 -0.1125
 3239TIP3    H110599   8.595   7.987   8.661 -0.2569  0.3747 -0.0645
 3239TIP3    H210600   8.688   7.974   8.780  0.4062 -0.1857 -0.6279
 3240TIP3   OH210601   5.874   7.320   4.317 -0.0118  0.2587  0.4445
 3240TIP3    H110602   5.867   7.398   4.262  1.0722  0.5563  0.6988
 3240TIP3    H210603   5.950   7.273   4.282 -0.5690 -0.6221  0.3804
 3241TIP3   OH210604   7.841   8.162   7.042 -0.1255  0.1763  0.0151
 3241TIP3    H110605   7.864   8.073   7.070  3.3469  0.9493  0.1262
 3241TIP3    H210606   7.815   8.153   6.951 -1.0953 -1.0688  0.3910
 3242TIP3   OH210607   8.022   1.207   8.319 -0.0982  0.3953  0.5451
 3242TIP3    H110608   7.983   1.137   8.371  1.9279  0.4231  2.2207
 3242TIP3    H210609   8.041   1.165   8.234 -3.2921  0.3152 -0.2740
 3243TIP3   OH210610   5.401   5.027   3.264 -0.1618 -0.1152  0.2384
 3243TIP3    H110611   5.318   5.014   3.218  0.5328  0.2916 -1.2143
 3243TIP3    H210612   5.378   5.029   3.357 -1.8618  0.6748 -0.1662
 3244TIP3   OH210613   8.328   6.617   8.701 -0.9813 -0.2674 -0.2129
 3244TIP3    H110614   8.262   6.584   8.761 -1.8547 -0.5378 -1.2892
 3244TIP3    H210615   8.411   6.580   8.733 -1.4268 -0.4112  0.7971
 3245TIP3   OH210616   6.048   2.531   3.313  0.2663  0.1619  0.1149
 3245TIP3    H110617   6.114   2.601   3.307 -0.0678  0.6114  1.3433
 3245TIP3    H210618   6.048   2.491   3.227  2.3479 -0.0202  0.1419
 3246TIP3   OH210619   0.061   9.843   7.505  0.4176 -0.1026  0.0159
 3246TIP3    H110620   0.004   9.871   7.433  2.5411  1.7323 -1.0543
 3246TIP3    H210621   0.002   9.838   7.581 -2.1605 -3.2065 -1.8812
 3247TIP3   OH210622   3.218   5.487   8.603  0.4982 -0.0380 -0.2747
 3247TIP3    H110623   3.171   5.455   8.526  0.1433 -2.5762  0.8934
 3247TIP3    H210624   3.311   5.478   8.581  0.4776  1.6284 -1.2568
 3248TIP3   OH210625   9.191   7.763  10.325 -0.0653 -0.4072  0.2423
 3248TIP3    H110626   9.193   7.778  10.230 -1.6706 -1.9103 -0.0861
 3248TIP3    H210627   9.249   7.688  10.338 -0.0671 -0.3803  0.4017
 3249TIP3   OH210628  10.805   7.885   1.750 -0.5963  0.3487 -0.1469
 3249TIP3    H110629  10.822   7.818   1.684 -2.1433  0.7991 -1.0614
 3249TIP3    H210630  10.890   7.905   1.788 -0.0391 -1.8475 -0.1204
 3250TIP3   OH210631   6.621   4.071   5.699  0.6689 -0.2076 -0.2131
 3250TIP3    H110632   6.671   4.131   5.754  1.3029  0.0523 -1.0505
 3250TIP3    H210633   6.683   4.040   5.633  0.0704 -0.9401 -0.4532
 3251TIP3   OH210634   0.329  10.271   6.420  0.1185 -0.0507  0.6025
 3251TIP3    H110635   0.253  10.281   6.362  0.2165  1.4649  0.7205
 3251TIP3    H210636   0.405  10.275   6.362  0.1502 -1.3516  0.5136
 3252TIP3   OH210637   4.645   2.681   6.041  0.4295  0.0967  0.1373
 3252TIP3    H110638   4.680   2.677   5.953 -0.3032 -1.9620 -0.1198
 3252TIP3    H210639   4.649   2.590   6.073 -1.1002  0.4479  1.4790
 3253TIP3   OH210640  10.318   0.738   9.940 -0.0685 -0.0139  0.1717
 3253TIP3    H110641  10.239   0.687   9.923  1.9232 -3.0898 -0.6030
 3253TIP3    H210642  10.347   0.710  10.027  0.4517  0.6843  0.2323
 3254TIP3   OH210643   7.283   6.690   2.887 -0.2614 -1.0583 -0.9683
 3254TIP3    H110644   7.194   6.703   2.853  0.0091 -0.3165 -1.4023
 3254TIP3    H210645   7.269   6.652   2.974 -1.1428  2.0863  0.4095
 3255TIP3   OH210646   3.213  10.522   1.072  0.0669 -0.5558 -0.2198
 3255TIP3    H110647   3.259  10.571   1.003  0.2644  1.8602  1.4946
 3255TIP3    H210648   3.154  10.586   1.111  0.0758 -1.7850  1.9617
 3256TIP3   OH210649   8.324   4.514   6.428 -0.3388 -0.1540 -0.4346
 3256TIP3    H110650   8.364   4.456   6.492 -1.1204 -0.1719  0.0459
 3256TIP3    H210651   8.272   4.575   6.480 -1.4902 -0.5558 -1.0750
 3257TIP3   OH210652   5.405   1.385   0.982  0.2461 -0.2147 -0.5646
 3257TIP3    H110653   5.311   1.407   0.980  0.3540  0.5764  1.2149
 3257TIP3    H210654   5.442   1.447   1.045  1.8066 -1.1389 -0.5372
 3258TIP3   OH210655   2.829   7.286  10.417  0.1633 -0.1855 -0.4165
 3258TIP3    H110656   2.876   7.352  10.468 -1.7942 -0.2439  1.5860
 3258TIP3    H210657   2.819   7.325  10.331  1.0072  1.1783  0.0731
 3259TIP3   OH210658   9.074   4.910   5.769 -0.1562  0.4125 -0.1511
 3259TIP3    H110659   9.161   4.938   5.794 -0.7758  0.9083  1.5977
 3259TIP3    H210660   9.085   4.871   5.682  2.0607 -0.9755  0.6737
 3260TIP3   OH210661  10.584   4.701   9.778  0.8359  0.6520  0.1868
 3260TIP3    H110662  10.554   4.622   9.822  0.7342  0.3530 -0.4177
 3260TIP3    H210663  10.509   4.761   9.781  0.8840  0.6944  0.5643
 3261TIP3   OH210664   9.043   4.494   3.940  0.5094  0.0288  0.8060
 3261TIP3    H110665   9.101   4.445   3.882 -1.0776 -0.2818 -0.6047
 3261TIP3    H210666   8.995   4.426   3.989 -1.5432  0.0787 -1.0026
 3262TIP3   OH210667  10.707   6.785   5.329 -0.2379 -0.8477 -0.2323
 3262TIP3    H110668  10.701   6.726   5.254  1.3179 -2.2238  0.6350
 3262TIP3    H210669  10.618   6.791   5.363 -1.6998  2.4169 -3.9376
 3263TIP3   OH210670   4.730   7.771   5.415 -0.0146  0.0659 -0.2255
 3263TIP3    H110671   4.806   7.807   5.370  0.7018  2.0003  2.2487
 3263TIP3    H210672   4.657   7.824   5.384 -0.2465 -1.1864 -1.9185
 3264TIP3   OH210673   5.172  10.518   7.213  0.7434 -0.0287 -0.5226
 3264TIP3    H110674   5.244  10.543   7.155  0.3920  1.3888 -0.3705
 3264TIP3    H210675   5.107  10.586   7.201 -1.5042 -2.2512 -2.1531
 3265TIP3   OH210676   2.864   4.969   7.037  0.3687 -0.1523  0.0947
 3265TIP3    H110677   2.838   4.879   7.058 -0.4101 -0.2208 -1.0329
 3265TIP3    H210678   2.954   4.962   7.008 -0.1507 -0.8347 -1.4620
 3266TIP3   OH210679  10.797   4.480   7.109  0.8960 -0.5300  0.0328
 3266TIP3    H110680  10.789   4.537   7.033 -1.1670  0.2329  0.7493
 3266TIP3    H210681  10.891   4.462   7.116  1.3852  1.2411 -1.3227
 3267TIP3   OH210682   3.391   1.393   3.692 -0.2539 -0.3642 -0.6395
 3267TIP3    H110683   3.451   1.446   3.639  0.7214 -1.0444 -0.2361
 3267TIP3    H210684   3.394   1.433   3.779 -0.1465 -0.5981 -0.5369
 3268TIP3   OH210685   3.107   6.630   6.477  0.1939  0.1029  0.3686
 3268TIP3    H110686   3.157   6.572   6.535 -2.1358 -0.2169  2.1804
 3268TIP3    H210687   3.054   6.572   6.423  0.6512  0.4877 -0.5338
 3269TIP3   OH210688   5.774   3.854  10.783 -0.1875  0.2659 -0.2815
 3269TIP3    H110689   5.692   3.805  10.785 -1.1214  1.7932  0.1712
 3269TIP3    H210690   5.833   3.799  10.731 -1.5655 -0.7328 -0.8590
 3270TIP3   OH210691   9.419   7.149   5.408  0.4408 -0.3837  0.3141
 3270TIP3    H110692   9.357   7.168   5.337 -0.4124 -0.1369  1.1094
 3270TIP3    H210693   9.477   7.225   5.410 -0.1057  0.0297  0.4829
 3271TIP3   OH210694  10.278  10.106   6.437  0.2005  0.9377  0.3475
 3271TIP3    H110695  10.207  10.161   6.469 -1.7326 -1.0837 -0.1870
 3271TIP3    H210696  10.251  10.017   6.457  2.7764  0.0613  0.3984
 3272TIP3   OH210697   3.740   8.400   3.165  0.2191 -0.2696  0.4299
 3272TIP3    H110698   3.657   8.440   3.138  0.9277  0.3079 -1.0013
 3272TIP3    H210699   3.779   8.464   3.225  0.1343 -0.0433  0.2460
 3273TIP3   OH210700   9.943  10.898  10.869  0.4568  0.5868 -0.0262
 3273TIP3    H110701  10.035  10.920  10.851  0.2095  1.9631  0.2969
 3273TIP3    H210702   9.945  10.805  10.891  2.2032  1.1461  2.7337
 3274TIP3   OH210703  10.347   1.805   0.398  0.3282 -0.1222  0.4152
 3274TIP3    H110704  10.260   1.845   0.396  0.3258 -0.0181  1.7283
 3274TIP3    H210705  10.344   1.737   0.331 -1.0738 -0.7524  1.0847
 3275TIP3   OH210706   5.396   9.131   3.994 -0.2402 -0.0730  0.4645
 3275TIP3    H110707   5.399   9.105   4.086 -0.1333 -0.6225  0.3093
 3275TIP3    H210708   5.373   9.051   3.947  0.3472  0.0472 -0.0476
 3276TIP3   OH210709   8.279   9.124   7.019 -0.7750  0.4038  0.3745
 3276TIP3    H110710   8.353   9.066   7.000 -0.8565 -0.3386  2.1318
 3276TIP3    H210711   8.315   9.212   7.010  0.3108  0.0584  1.0553
 3277TIP3   OH210712  10.609   7.468   5.929 -0.2479 -0.0034 -0.3274
 3277TIP3    H110713  10.698   7.438   5.909  0.1387  0.3646  0.8035
 3277TIP3    H210714  10.569   7.482   5.843  0.5057 -0.9728 -0.8552
 3278TIP3   OH210715   4.263   9.926   4.067 -0.1635 -0.3963  0.5896
 3278TIP3    H110716   4.235   9.897   3.980  0.8474 -1.6262  0.6396
 3278TIP3    H210717   4.239  10.019   4.071 -1.8169 -0.7623 -0.3135
 3279TIP3   OH210718   8.648   2.361   3.379 -0.1938 -0.0275  0.3757
 3279TIP3    H110719   8.662   2.294   3.313 -0.7447  1.6904 -1.6016
 3279TIP3    H210720   8.593   2.320   3.445  2.2382 -2.5150  1.0305
 3280TIP3   OH210721   7.306   1.951   1.501 -0.6901  0.2091  0.3143
 3280TIP3    H110722   7.247   2.016   1.462 -0.7520 -0.6786 -1.1886
 3280TIP3    H210723   7.274   1.867   1.465 -0.8303 -0.7032  2.4551
 3281TIP3   OH210724  10.425   9.844   1.243  0.2893  0.3419  0.1877
 3281TIP3    H110725  10.446   9.873   1.154  2.4364 -1.9382 -0.1529
 3281TIP3    H210726  10.393   9.755   1.232 -1.1307  0.6469  1.5962
 3282TIP3   OH210727   4.178   6.386   3.049 -0.1419  0.6535 -0.1828
 3282TIP3    H110728   4.086   6.373   3.026  0.1952 -2.2194 -0.2403
 3282TIP3    H210729   4.177   6.398   3.144 -0.5793  0.8096 -0.2040
 3283TIP3   OH210730   4.798   8.480   5.108 -0.0763  0.6774  0.4399
 3283TIP3    H110731   4.878   8.514   5.068 -0.1747  1.3249  0.7734
 3283TIP3    H210732   4.748   8.444   5.036  0.4422  0.4196  0.2046
 3284TIP3   OH210733   2.820   0.547   8.917 -0.1913 -0.2656 -0.0180
 3284TIP3    H110734   2.883   0.487   8.956  1.7463  1.5555 -0.1020
 3284TIP3    H210735   2.745   0.545   8.975  0.4863 -1.5478  0.8543
 3285TIP3   OH210736   1.382   8.802   2.143  0.6861  0.2726 -0.3672
 3285TIP3    H110737   1.332   8.854   2.079  1.0520  0.1789 -0.7366
 3285TIP3    H210738   1.354   8.712   2.127 -0.0136  0.3583  0.3339
 3286TIP3   OH210739   3.819   7.624   8.736 -0.1117 -1.1976 -0.5024
 3286TIP3    H110740   3.852   7.694   8.680 -0.1824 -1.7146 -1.2011
 3286TIP3    H210741   3.791   7.668   8.816  0.6706 -0.5395 -0.5815
 3287TIP3   OH210742   5.756   7.524   3.873  0.2567  0.6561 -0.0207
 3287TIP3    H110743   5.716   7.441   3.899  0.5640  0.3138 -0.6237
 3287TIP3    H210744   5.682   7.580   3.850  0.0769  0.3180 -0.2736
 3288TIP3   OH210745   0.640   4.802   4.047  0.0959  0.2318 -0.4383
 3288TIP3    H110746   0.709   4.831   4.106  0.2732 -0.8027 -0.1254
 3288TIP3    H210747   0.666   4.714   4.020 -0.6278  0.1947 -1.0572
 3289TIP3   OH210748   0.265   5.666   2.428  0.0274 -0.0123  0.2066
 3289TIP3    H110749   0.226   5.745   2.392  1.1743 -0.7616 -2.9824
 3289TIP3    H210750   0.359   5.683   2.432  0.3869 -1.3564 -1.2151
 3290TIP3   OH210751   0.451   9.383   1.063 -0.2103  0.2367  0.1913
 3290TIP3    H110752   0.489   9.346   0.983  0.4386  1.5837 -0.1412
 3290TIP3    H210753   0.412   9.465   1.036  0.6511  1.0746  1.3673
 3291TIP3   OH210754   8.807  10.669   9.125  0.1595 -0.2197  0.0488
 3291TIP3    H110755   8.758  10.668   9.207  0.3542  0.1297  0.1741
 3291TIP3    H210756   8.893  10.633   9.148  0.9069  1.6727  0.4732
 3292TIP3   OH210757   9.580   0.572   5.825 -0.3308 -0.6091 -0.0531
 3292TIP3    H110758   9.639   0.647   5.833 -0.8282 -0.3780  1.9124
 3292TIP3    H210759   9.503   0.607   5.780 -0.0012 -0.2870 -0.3714
 3293TIP3   OH210760   1.553  10.272   5.641 -0.3482  0.2949  0.1838
 3293TIP3    H110761   1.517  10.194   5.684 -1.4560  0.8325  0.2762
 3293TIP3    H210762   1.476  10.323   5.617  0.2486  0.1873 -2.1488
 3294TIP3   OH210763   0.056   4.865   7.667  0.3887  0.2204 -0.5378
 3294TIP3    H110764  -0.033   4.884   7.697  0.7033  0.6643  0.1374
 3294TIP3    H210765   0.060   4.769   7.663  0.1157  0.1786  0.1500
 3295TIP3   OH210766   0.537   3.674   3.480  0.2744  0.0190 -0.2352
 3295TIP3    H110767   0.603   3.738   3.453  0.0987  0.5311  0.5078
 3295TIP3    H210768   0.467   3.727   3.519 -2.6783 -0.0304 -4.7760
 3296TIP3   OH210769   7.308   8.587   4.811 -0.2166  0.7914 -0.6947
 3296TIP3    H110770   7.243   8.538   4.760  1.0496 -0.3140 -1.3213
 3296TIP3    H210771   7.292   8.679   4.788 -1.1716  0.4905 -1.2903
 3297TIP3   OH210772   6.645   8.395   9.021 -0.3034 -0.0861  0.4572
 3297TIP3    H110773   6.608   8.404   8.933  0.5666  0.0663  0.0888
 3297TIP3    H210774   6.714   8.328   9.010 -0.1594 -0.0283  1.0099
 3298TIP3   OH210775   3.939  10.844   7.823  0.1391  0.1499 -0.5389
 3298TIP3    H110776   3.953  10.916   7.761  1.8133 -1.3179 -1.9669
 3298TIP3    H210777   3.988  10.870   7.901 -0.5258  1.2207 -0.4542
 3299TIP3   OH210778   0.782   8.296   0.401  1.1655  0.0965  0.3625
 3299TIP3    H110779   0.807   8.368   0.344 -0.5692 -0.7951 -1.6287
 3299TIP3    H210780   0.701   8.326   0.443  0.6344 -0.5210 -0.1998
 3300TIP3   OH210781   2.012   0.097   1.834 -0.6962 -0.4566  0.1540
 3300TIP3    H110782   1.979   0.097   1.924  1.3802  0.0301  0.9739
 3300TIP3    H210783   1.991   0.009   1.802  0.3905 -1.4071  1.8726
 3301TIP3   OH210784   8.790   3.610   2.498  0.2711  0.1203  0.2346
 3301TIP3    H110785   8.762   3.544   2.561 -1.6863  0.1374 -0.5639
 3301TIP3    H210786   8.713   3.628   2.445  1.3845  1.3838 -1.0598
 3302TIP3   OH210787   3.018   4.700   9.301  0.4288 -0.0124 -0.0665
 3302TIP3    H110788   2.924   4.715   9.295  0.4826  0.7025  0.7129
 3302TIP3    H210789   3.035   4.630   9.239 -0.5661  0.0831 -0.4634
 3303TIP3   OH210790   8.314   0.093   0.819 -0.3509  0.1435  0.2095
 3303TIP3    H110791   8.318  -0.002   0.833  0.3759  0.0343 -0.6827
 3303TIP3    H210792   8.400   0.116   0.785 -0.2898  1.2451  1.0655
 3304TIP3   OH210793   9.684   6.196   3.791  0.2589 -0.0388 -0.1249
 3304TIP3    H110794   9.780   6.199   3.787  0.3827  1.6740  2.2812
 3304TIP3    H210795   9.665   6.113   3.835  0.7890  0.6253  1.4095
 3305TIP3   OH210796   1.089   3.493   0.058 -0.2906 -0.4585 -0.0233
 3305TIP3    H110797   1.059   3.532   0.140  0.9743 -0.6652  0.5715
 3305TIP3    H210798   1.108   3.568   0.001  1.4551 -0.1576  0.8703
 3306TIP3   OH210799   3.325   0.682   8.158  0.6609 -0.0288  0.3894
 3306TIP3    H110800   3.290   0.647   8.240  0.3258  0.0662  0.2897
 3306TIP3    H210801   3.273   0.639   8.090 -1.1029  2.0675  0.3004
 3307TIP3   OH210802   5.290   6.512   1.132 -0.3488  0.6311 -0.1213
 3307TIP3    H110803   5.230   6.496   1.059 -0.1073  0.1014 -0.2025
 3307TIP3    H210804   5.233   6.541   1.204 -0.5816  1.1988 -0.5290
 3308TIP3   OH210805   0.302   9.555   6.478  0.0558  0.0480  0.5381
 3308TIP3    H110806   0.327   9.598   6.396 -1.1132 -0.0961  0.0871
 3308TIP3    H210807   0.380   9.505   6.504 -0.2468 -1.7159 -1.6681
 3309TIP3   OH210808  10.228   4.792   1.714  0.1364 -0.5633  0.3251
 3309TIP3    H110809  10.278   4.771   1.635 -0.4891  1.9721 -0.8394
 3309TIP3    H210810  10.136   4.785   1.686 -0.0876  0.9357  0.6160
 3310TIP3   OH210811   5.125   4.350   3.223 -0.0709  0.3888 -0.1007
 3310TIP3    H110812   5.032   4.354   3.204 -0.4548  1.0449  1.6865
 3310TIP3    H210813   5.149   4.258   3.208 -0.9199  0.2860 -0.8924
 3311TIP3   OH210814   7.843  10.610   6.202 -0.0107 -0.1892  0.2906
 3311TIP3    H110815   7.781  10.546   6.167  0.1446  0.2266 -0.7665
 3311TIP3    H210816   7.902  10.558   6.256  0.5813 -1.0834 -1.1539
 3312TIP3   OH210817   2.277   9.541   7.953  0.3759  0.0713  0.3113
 3312TIP3    H110818   2.230   9.619   7.925  1.7779  0.1936 -1.8897
 3312TIP3    H210819   2.220   9.468   7.926 -1.6315  0.1775  3.6250
 3313TIP3   OH210820   2.019   3.650   4.333  0.2776 -0.0527  0.1528
 3313TIP3    H110821   2.096   3.642   4.276  1.7818 -0.4469  2.1271
 3313TIP3    H210822   1.981   3.735   4.310  0.3843 -0.5203 -1.9121
 3314TIP3   OH210823   7.460   8.811  10.462 -0.0420 -0.0533 -0.1190
 3314TIP3    H110824   7.535   8.835  10.408  0.4665 -0.8092  0.2445
 3314TIP3    H210825   7.399   8.770  10.400  0.1450 -0.0908 -0.2787
 3315TIP3   OH210826   0.343   3.094   7.836  0.0513  1.1069  0.1853
 3315TIP3    H110827   0.294   3.147   7.773 -0.5459  0.9296  0.4895
 3315TIP3    H210828   0.435   3.107   7.812  0.0357  3.4535  1.1549
 3316TIP3   OH210829   0.802   6.225   6.034  0.1353  0.3603 -0.4364
 3316TIP3    H110830   0.851   6.302   6.063  1.2092 -0.5646  0.2757
 3316TIP3    H210831   0.720   6.229   6.083  0.0425  1.2059 -0.6370
 3317TIP3   OH210832   6.703   5.310  10.277  0.3829  0.7874 -0.0929
 3317TIP3    H110833   6.735   5.352  10.197  0.2028  0.7888 -0.1633
 3317TIP3    H210834   6.636   5.370  10.310 -2.3946 -1.0123 -2.0222
 3318TIP3   OH210835   6.952   6.222  10.197  0.9283  0.1196 -0.4210
 3318TIP3    H110836   6.960   6.180  10.283  0.2614 -1.5599 -1.1279
 3318TIP3    H210837   6.875   6.279  10.205  0.8406 -0.0675  0.0925
 3319TIP3   OH210838   0.660   4.512   3.220  0.3082 -0.2873 -0.5965
 3319TIP3    H110839   0.702   4.582   3.270  0.2496  0.0655 -1.0415
 3319TIP3    H210840   0.728   4.481   3.161  0.4142 -0.7898 -0.2210
 3320TIP3   OH210841   5.285   6.416   9.619 -0.3553 -0.5188 -0.5510
 3320TIP3    H110842   5.303   6.426   9.713 -2.0008  0.5611 -0.3183
 3320TIP3    H210843   5.224   6.342   9.615 -0.9058 -0.0556 -0.6932
 3321TIP3   OH210844   7.486   5.334   0.172 -0.3594 -0.0402  0.3107
 3321TIP3    H110845   7.392   5.348   0.170 -0.5236 -0.6196  2.1134
 3321TIP3    H210846   7.521   5.414   0.213 -0.0442  0.2051 -0.4170
 3322TIP3   OH210847   6.775   3.373  10.623 -0.3626 -0.5026 -0.0047
 3322TIP3    H110848   6.869   3.359  10.639 -0.2652 -1.0586 -0.9508
 3322TIP3    H210849   6.758   3.461  10.656  0.3618 -0.6224  0.7241
 3323TIP3   OH210850   4.236   7.619   2.574 -0.1854 -0.0345 -0.9735
 3323TIP3    H110851   4.191   7.636   2.656 -0.1442 -0.0354 -0.9511
 3323TIP3    H210852   4.184   7.665   2.508 -0.8768 -0.9764 -1.1147
 3324TIP3   OH210853   9.491   6.258   9.669  0.4436 -0.4016 -0.2360
 3324TIP3    H110854   9.585   6.268   9.682  0.4998 -1.2122  0.0998
 3324TIP3    H210855   9.452   6.306   9.742  0.5693  0.5732 -0.8027
 3325TIP3   OH210856   4.357   4.019   4.891 -0.1313 -0.3964 -0.4925
 3325TIP3    H110857   4.275   3.993   4.934  1.2650 -0.9398  2.0631
 3325TIP3    H210858   4.400   3.937   4.869  0.1792 -0.1218 -0.9196
 3326TIP3   OH210859   4.131   6.309   9.461  0.2462 -0.1042  0.0356
 3326TIP3    H110860   4.114   6.310   9.367 -0.1134  1.2577  0.0965
 3326TIP3    H210861   4.045   6.307   9.502  0.3366  0.8248  0.3188
 3327TIP3   OH210862   2.479   9.002   0.246  0.6381  0.0458  0.6234
 3327TIP3    H110863   2.404   9.021   0.302 -0.6800 -1.1429 -0.6650
 3327TIP3    H210864   2.483   8.906   0.243  1.5753  0.0932 -0.1536
 3328TIP3   OH210865   9.352   1.382   3.906 -0.3204 -0.1714  0.0368
 3328TIP3    H110866   9.404   1.448   3.951 -0.1064 -1.5984  1.9889
 3328TIP3    H210867   9.402   1.362   3.827  1.9467 -1.1834  1.6275
 3329TIP3   OH210868   5.654   6.681   1.440 -0.0953  0.1432  0.1220
 3329TIP3    H110869   5.667   6.617   1.511  0.6771 -0.7573 -0.7949
 3329TIP3    H210870   5.604   6.752   1.481 -1.8825 -1.4862  0.9363
 3330TIP3   OH210871   4.301   8.989   5.083  0.0980  0.2215  0.0269
 3330TIP3    H110872   4.313   9.001   4.988  0.8133  0.9414  0.1947
 3330TIP3    H210873   4.235   9.055   5.107 -2.4003 -1.9182 -0.4303
 3331TIP3   OH210874   1.024   7.567   5.588 -0.0634  0.0838 -0.6918
 3331TIP3    H110875   1.089   7.572   5.518  0.1841  2.8478 -0.3796
 3331TIP3    H210876   1.066   7.611   5.662 -2.0491  1.4612 -0.3152
 3332TIP3   OH210877   1.613   5.100  10.560  0.2264 -0.3448 -0.8369
 3332TIP3    H110878   1.660   5.175  10.596 -1.4502  0.0166  0.7601
 3332TIP3    H210879   1.590   5.047  10.637 -2.8384  0.0620 -1.3528
 3333TIP3   OH210880   9.768   2.024   6.746 -0.5709  0.2692 -0.1222
 3333TIP3    H110881   9.843   1.974   6.714  0.1394  1.7805 -0.9426
 3333TIP3    H210882   9.794   2.052   6.834 -0.1804  0.7311 -0.3785
 3334TIP3   OH210883   3.447  10.742   2.829 -0.3912  0.1314  0.0119
 3334TIP3    H110884   3.366  10.702   2.861  0.4661 -0.6934  1.2577
 3334TIP3    H210885   3.486  10.675   2.774 -0.8091  0.7447 -1.0562
 3335TIP3   OH210886   0.139   4.624   8.856 -0.4457 -0.3368  0.3730
 3335TIP3    H110887   0.125   4.717   8.870  0.1612 -0.3869  1.3750
 3335TIP3    H210888   0.051   4.586   8.859 -0.7434  0.2467 -0.5327
 3336TIP3   OH210889   1.062   4.891   2.363  0.0077 -0.0761 -0.1646
 3336TIP3    H110890   1.075   4.974   2.408 -1.7520 -0.8945  2.0381
 3336TIP3    H210891   0.983   4.904   2.310  0.7320  0.1556 -1.2194
 3337TIP3   OH210892   9.595  10.756   7.677  0.2427 -0.5400  0.1772
 3337TIP3    H110893   9.671  10.784   7.727 -0.1871  2.0161 -0.4719
 3337TIP3    H210894   9.619  10.670   7.643  1.3158 -1.4900  3.0429
 3338TIP3   OH210895   2.226   4.720   0.097 -0.2560  1.1529  0.5278
 3338TIP3    H110896   2.159   4.787   0.108 -0.3587  0.9300  1.3120
 3338TIP3    H210897   2.217   4.664   0.174  0.8155  1.1036  0.6302
 3339TIP3   OH210898   8.120   1.264   7.977  0.2441  0.0173  0.0718
 3339TIP3    H110899   8.169   1.311   7.910  3.0755 -1.0259  1.2384
 3339TIP3    H210900   8.079   1.191   7.930 -0.0685  0.8204 -0.9307
 3340TIP3   OH210901   7.566   1.008   4.775 -0.1484  0.4060 -0.4954
 3340TIP3    H110902   7.622   0.931   4.788 -0.8505 -0.2472 -1.1993
 3340TIP3    H210903   7.483   0.985   4.818  0.2540  1.5555  0.9598
 3341TIP3   OH210904   4.698   4.760  10.203  0.0067 -0.4186  0.3109
 3341TIP3    H110905   4.750   4.799  10.132 -1.2766  2.5535  0.8656
 3341TIP3    H210906   4.623   4.721  10.158 -1.2609  2.2173 -0.0327
 3342TIP3   OH210907  10.542   7.603   6.925  0.3203 -0.3727  0.0085
 3342TIP3    H110908  10.545   7.690   6.966 -0.2848 -0.6657  0.7042
 3342TIP3    H210909  10.596   7.548   6.982 -0.0400 -0.6475  0.0888
 3343TIP3   OH210910   0.039   5.728   7.573  0.7157 -0.4282 -0.1850
 3343TIP3    H110911   0.104   5.690   7.632 -0.7074 -1.9697  0.4621
 3343TIP3    H210912   0.030   5.664   7.503  2.2174  1.2756 -2.0772
 3344TIP3   OH210913   3.884   7.605   3.848  0.0109 -0.0897 -1.1135
 3344TIP3    H110914   3.964   7.615   3.796  0.6510  0.2094 -0.0942
 3344TIP3    H210915   3.848   7.694   3.854 -0.1448 -0.1484 -1.1621
 3345TIP3   OH210916   2.974   4.444   4.188 -0.7281 -0.3228 -0.4463
 3345TIP3    H110917   2.905   4.396   4.234  0.1154 -1.7274 -0.5840
 3345TIP3    H210918   2.949   4.536   4.195 -2.8071 -0.8186 -0.8283
 3346TIP3   OH210919   6.597  10.783   5.982 -0.0437 -0.0599 -0.5722
 3346TIP3    H110920   6.517  10.817   6.023 -0.1691  0.1924 -1.0202
 3346TIP3    H210921   6.668  10.825   6.031 -0.1690 -0.7927  0.2569
 3347TIP3   OH210922   5.039   8.312   3.445  0.4906 -0.1521 -0.2042
 3347TIP3    H110923   4.999   8.319   3.531 -0.2454 -0.6583 -0.4958
 3347TIP3    H210924   4.990   8.243   3.401  0.1198  0.8646 -1.4304
 3348TIP3   OH210925  10.551   5.404   4.027 -0.0947  0.1242  0.2596
 3348TIP3    H110926  10.619   5.352   4.070 -0.9090 -0.6072  0.7221
 3348TIP3    H210927  10.595   5.447   3.954  1.0252  0.3082  1.0257
 3349TIP3   OH210928   6.793   0.237   9.471 -0.0585  0.3215 -0.3321
 3349TIP3    H110929   6.751   0.323   9.467  0.9102  0.7688 -2.0022
 3349TIP3    H210930   6.835   0.235   9.556  0.4206  1.7781 -0.5071
 3350TIP3   OH210931   8.369   5.007   0.699  1.4583 -0.6940  0.0640
 3350TIP3    H110932   8.440   4.977   0.755  2.1783  0.9766  0.1277
 3350TIP3    H210933   8.298   5.030   0.760  2.1441  0.8718  0.3141
 3351TIP3   OH210934   9.617   3.972   3.990  0.6301  0.0846 -0.8058
 3351TIP3    H110935   9.618   3.879   3.969  0.7625 -0.0982 -0.0381
 3351TIP3    H210936   9.636   3.975   4.084 -1.9202  0.7154 -0.2258
 3352TIP3   OH210937   2.210   8.354   8.679  0.1539 -0.2263 -0.4003
 3352TIP3    H110938   2.158   8.409   8.739  1.5617  0.7890 -0.0456
 3352TIP3    H210939   2.207   8.401   8.596  2.3516  1.1390  0.2005
 3353TIP3   OH210940   7.657   3.363   6.747  0.2979  0.0352  0.4318
 3353TIP3    H110941   7.606   3.390   6.824 -1.7720 -1.3094 -0.3846
 3353TIP3    H210942   7.703   3.284   6.775 -2.3364 -1.8872 -0.2662
 3354TIP3   OH210943   8.049   7.333   9.370  0.3695  0.3296 -0.1912
 3354TIP3    H110944   7.962   7.331   9.411  1.3833  0.9878  2.1561
 3354TIP3    H210945   8.040   7.278   9.292 -1.9837 -0.1007  0.3108
 3355TIP3   OH210946   0.309   6.297   6.567  0.0383  0.1501  0.6405
 3355TIP3    H110947   0.253   6.351   6.622 -0.0415 -0.4857  1.2064
 3355TIP3    H210948   0.391   6.288   6.617  0.3306  0.3740  0.2085
 3356TIP3   OH210949   8.180   2.206   0.372  0.0361  0.3803  0.4116
 3356TIP3    H110950   8.248   2.141   0.392  1.3018  1.0218 -1.5287
 3356TIP3    H210951   8.126   2.163   0.306 -0.8001  0.3073  1.1244
 3357TIP3   OH210952   1.071   6.080   5.276  0.3884 -0.2757  0.6697
 3357TIP3    H110953   1.020   6.098   5.355 -0.5112  0.9226 -0.1502
 3357TIP3    H210954   1.148   6.032   5.308  0.0565  0.1961  2.2765
 3358TIP3   OH210955   4.799   8.426   9.352 -0.3969  0.3841  0.4112
 3358TIP3    H110956   4.787   8.508   9.399 -1.7936 -0.3613  1.4226
 3358TIP3    H210957   4.726   8.371   9.380  1.7470 -2.0532  1.5746
 3359TIP3   OH210958   9.446   8.237  10.397  0.0117  0.5007 -0.1293
 3359TIP3    H110959   9.371   8.295  10.394  0.8826  1.6485 -2.3659
 3359TIP3    H210960   9.409   8.150  10.413 -1.4872  1.3823  1.4310
 3360TIP3   OH210961   7.201   2.335   1.281  0.2451  0.2846 -0.0837
 3360TIP3    H110962   7.247   2.251   1.292  0.4133  0.2829 -0.7756
 3360TIP3    H210963   7.152   2.325   1.199 -0.0576  0.7192  0.0424
 3361TIP3   OH210964  10.778   0.476   0.810  0.2280 -0.3118  0.4546
 3361TIP3    H110965  10.820   0.400   0.771  0.3705 -0.7707  1.4857
 3361TIP3    H210966  10.700   0.441   0.854  0.3609  0.1089  1.0445
 3362TIP3   OH210967   1.848   8.166   6.994  0.0796  0.2806 -0.2027
 3362TIP3    H110968   1.801   8.086   6.970 -0.0742  0.4921 -0.6146
 3362TIP3    H210969   1.925   8.167   6.937  0.1134  0.3977 -0.1556
 3363TIP3   OH210970   8.963   7.859   8.397  0.0010 -0.0621 -0.0504
 3363TIP3    H110971   9.009   7.931   8.440  0.6517  0.4158 -1.4672
 3363TIP3    H210972   9.030   7.791   8.386 -0.1754 -0.2104 -0.2178
 3364TIP3   OH210973   8.534   6.631  10.860  0.1762 -0.0305 -0.3946
 3364TIP3    H110974   8.452   6.663  10.823  0.5830 -0.2383 -1.5130
 3364TIP3    H210975   8.544   6.679  10.942 -0.5525  0.7459 -0.7490
 3365TIP3   OH210976   5.898   0.449   7.621  0.3863 -0.2234  0.5265
 3365TIP3    H110977   5.865   0.373   7.572 -0.3476  1.5271 -1.8552
 3365TIP3    H210978   5.986   0.463   7.587  0.6957 -0.2510  1.2975
 3366TIP3   OH210979   7.323   6.890   1.727  0.6566 -1.1680 -0.5758
 3366TIP3    H110980   7.336   6.882   1.822  1.1909 -0.4426 -0.5756
 3366TIP3    H210981   7.412   6.899   1.692  0.3717  0.5451 -0.9404
 3367TIP3   OH210982   4.755   1.925   1.390  0.5920 -0.5810 -0.5717
 3367TIP3    H110983   4.723   1.916   1.479  1.2427 -0.7090 -0.3484
 3367TIP3    H210984   4.810   1.848   1.376 -0.6822 -1.3491 -1.5994
 3368TIP3   OH210985   9.269   6.662   7.273 -0.7349  0.1707  0.0934
 3368TIP3    H110986   9.222   6.709   7.203 -0.9752 -1.7508 -1.1088
 3368TIP3    H210987   9.360   6.690   7.264 -1.1972  2.0535  0.8471
 3369TIP3   OH210988   0.679   8.431   2.396 -0.1445 -0.1599 -0.2195
 3369TIP3    H110989   0.586   8.451   2.394 -0.4471 -1.4262  0.1428
 3369TIP3    H210990   0.684   8.337   2.376  1.1613  0.1773 -1.7191
 3370TIP3   OH210991   3.193   3.556   5.691 -0.0176  0.2347 -0.1452
 3370TIP3    H110992   3.106   3.582   5.723  0.7094  1.4795  0.9234
 3370TIP3    H210993   3.235   3.515   5.767  0.0684 -1.0822 -0.8766
 3371TIP3   OH210994   5.749   5.292   0.548  0.5346  0.0674 -0.1635
 3371TIP3    H110995   5.692   5.355   0.593  1.2831  0.7260 -0.1079
 3371TIP3    H210996   5.726   5.207   0.587  1.2433  0.6302  1.5980
 3372TIP3   OH210997   3.540   6.421   4.458  0.2223 -0.5843  0.0503
 3372TIP3    H110998   3.577   6.462   4.380 -2.4314  0.6037 -0.6791
 3372TIP3    H210999   3.567   6.478   4.530  2.3786 -1.4926  0.0414
 3373TIP3   OH211000   1.804   8.701   2.663 -0.3710 -0.6113  0.2202
 3373TIP3    H111001   1.739   8.633   2.648 -0.6720 -0.0677 -1.0164
 3373TIP3    H211002   1.760   8.764   2.720 -0.6386 -0.6551  0.0607
 3374TIP3   OH211003   6.230   3.425   7.550  0.7020  0.0173 -0.1822
 3374TIP3    H111004   6.141   3.460   7.554  0.4010 -0.7976  1.7225
 3374TIP3    H211005   6.223   3.347   7.495  0.4230  0.4532 -0.7639
 3375TIP3   OH211006   3.012   3.011   0.035  0.6077 -0.1189  0.3813
 3375TIP3    H111007   2.917   3.010   0.050  0.7318 -0.9214  1.2003
 3375TIP3    H211008   3.021   3.017  -0.060 -0.2593  0.0517  0.2982
 3376TIP3   OH211009   6.011   5.711   9.957 -0.2686  0.4622  0.2881
 3376TIP3    H111010   5.943   5.753  10.010 -0.4680  1.2289 -0.5599
 3376TIP3    H211011   6.083   5.774   9.957  1.2103 -1.0503  2.6311
 3377TIP3   OH211012   5.957   9.871   9.088 -0.2999  0.0868 -0.0790
 3377TIP3    H111013   5.943   9.861   8.993 -0.3863 -0.1875 -0.0367
 3377TIP3    H211014   5.910   9.798   9.127  0.7735 -0.5198  0.1001
 3378TIP3   OH211015   9.678   4.645   9.452 -0.4558 -0.1965  0.0063
 3378TIP3    H111016   9.754   4.689   9.413 -0.0288  0.2830  1.3154
 3378TIP3    H211017   9.609   4.654   9.387 -0.5049  2.7888  0.3364
 3379TIP3   OH211018   1.076   6.122   0.335 -0.0619 -0.2320  0.0531
 3379TIP3    H111019   1.067   6.198   0.393 -0.9602 -2.4533  3.0755
 3379TIP3    H211020   0.993   6.118   0.288 -0.0859  0.5426  0.0140
 3380TIP3   OH211021  10.041   4.576   9.563 -0.6349  0.0076 -0.0763
 3380TIP3    H111022  10.113   4.516   9.582 -0.8234 -0.1094  0.2672
 3380TIP3    H211023  10.007   4.547   9.478  0.2502  0.5786 -0.6421
 3381TIP3   OH211024   2.291   9.413   3.236 -0.1007 -0.3775 -0.0498
 3381TIP3    H111025   2.321   9.451   3.319  1.2236  1.9002 -1.4428
 3381TIP3    H211026   2.226   9.476   3.203 -1.6305 -1.9450 -0.1505
 3382TIP3   OH211027   7.283   0.252  10.865  0.4799 -0.3508  0.0940
 3382TIP3    H111028   7.265   0.217  10.778  1.4859 -0.1656 -0.2018
 3382TIP3    H211029   7.340   0.327  10.850  0.3318 -0.0660  0.8894
 3383TIP3   OH211030   4.952   3.567  10.173 -0.2587  0.2076  0.2270
 3383TIP3    H111031   5.006   3.498  10.135  0.9477 -0.0696  2.3309
 3383TIP3    H211032   4.880   3.578  10.110  1.5397 -0.2646 -2.0663
 3384TIP3   OH211033   9.744   4.385   0.491 -0.2592  0.1870  0.0492
 3384TIP3    H111034   9.772   4.294   0.485 -0.7912  0.0817 -1.1045
 3384TIP3    H211035   9.777   4.425   0.410  0.8775  1.2859  1.0219
 3385TIP3   OH211036   8.226   7.101   7.259 -0.7180 -0.3713 -0.6876
 3385TIP3    H111037   8.258   7.044   7.188 -0.3504  0.2409 -1.0213
 3385TIP3    H211038   8.222   7.044   7.335  2.4207 -0.2344 -0.2970
 3386TIP3   OH211039   8.155  10.615   4.385  0.0056  0.0581  0.0803
 3386TIP3    H111040   8.131  10.697   4.342 -2.1239 -0.6952 -0.2849
 3386TIP3    H211041   8.156  10.550   4.314  2.8094 -0.1086  0.1533
 3387TIP3   OH211042  10.390   2.465   2.650  0.0215 -0.1217 -0.2768
 3387TIP3    H111043  10.481   2.442   2.671 -0.2304 -0.0396  1.0055
 3387TIP3    H211044  10.391   2.559   2.633  0.3355 -0.2962 -1.2765
 3388TIP3   OH211045   5.427   4.048   2.445  0.0555 -0.1712 -0.5233
 3388TIP3    H111046   5.367   4.114   2.481 -2.5618 -2.0460 -1.1330
 3388TIP3    H211047   5.424   4.063   2.350  1.2591  0.2175 -0.5187
 3389TIP3   OH211048   6.523   6.949  10.109  0.4195 -0.1248  0.4615
 3389TIP3    H111049   6.597   6.922  10.054  0.5367 -0.3097  0.7117
 3389TIP3    H211050   6.561   7.009  10.172 -0.1115  2.0306 -1.1464
 3390TIP3   OH211051   9.650   3.245   5.661  0.2652  0.1460  0.1015
 3390TIP3    H111052   9.588   3.266   5.731  2.0721  1.6180  1.3365
 3390TIP3    H211053   9.734   3.236   5.705  1.0921 -1.1396 -1.6189
 3391TIP3   OH211054   1.975  10.014   6.230  0.6345  0.2370  0.0161
 3391TIP3    H111055   1.978   9.949   6.160  1.3208  0.4248 -0.1355
 3391TIP3    H211056   2.000  10.096   6.188 -0.2571  0.6191  0.1996
 3392TIP3   OH211057   4.657   3.944   9.613  0.1329 -0.9198  0.2658
 3392TIP3    H111058   4.670   4.002   9.688 -0.7706 -0.1059 -0.1889
 3392TIP3    H211059   4.740   3.897   9.604  0.1388 -1.2894  1.9826
 3393TIP3   OH211060  10.272   4.101   9.907  0.1226 -0.1680 -0.4553
 3393TIP3    H111061  10.242   4.086   9.817 -0.6122 -0.8036 -0.1192
 3393TIP3    H211062  10.363   4.072   9.907  0.0894 -0.2907 -0.9612
 3394TIP3   OH211063   5.734   0.503   7.257  0.5002  0.7653 -0.1281
 3394TIP3    H111064   5.690   0.448   7.322  0.1870 -0.6456 -1.4889
 3394TIP3    H211065   5.824   0.471   7.254  0.3389  0.3470 -0.8623
 3395TIP3   OH211066   0.186   2.134   4.787 -0.1662 -0.4249 -0.9661
 3395TIP3    H111067   0.251   2.102   4.850  0.4347 -0.2621 -1.4891
 3395TIP3    H211068   0.134   2.198   4.836 -1.1891 -1.9449  0.0079
 3396TIP3   OH211069   3.092   6.148   1.628 -0.0819 -0.3706 -0.5137
 3396TIP3    H111070   3.177   6.186   1.649  0.2965 -0.6028 -1.5847
 3396TIP3    H211071   3.113   6.067   1.581 -0.8729 -1.6303  1.1809
 3397TIP3   OH211072   5.220   9.830   8.840 -0.2680 -0.2634  0.4101
 3397TIP3    H111073   5.148   9.892   8.853 -0.2674 -0.0542 -0.5173
 3397TIP3    H211074   5.223   9.780   8.922 -0.0804  1.1442  1.3066
 3398TIP3   OH211075   2.666   4.390  10.705  0.1136 -0.7092 -1.0851
 3398TIP3    H111076   2.666   4.362  10.796  0.3290 -0.3261 -0.9603
 3398TIP3    H211077   2.576   4.417  10.688  0.1897 -0.2628 -0.8130
 3399TIP3   OH211078   5.186   7.565  10.226  0.6649 -0.2263  0.3248
 3399TIP3    H111079   5.252   7.598  10.286 -0.2830  3.1366 -0.2506
 3399TIP3    H211080   5.226   7.488  10.185  2.2397 -1.1875  3.4279
 3400TIP3   OH211081   1.315   1.198   2.507  0.3007  0.1951 -0.0561
 3400TIP3    H111082   1.240   1.173   2.454 -0.3646  2.2423 -0.1962
 3400TIP3    H211083   1.383   1.134   2.485 -1.0414 -1.0520 -0.7488
 3401TIP3   OH211084   6.533   5.417   7.363  0.0068 -0.1669  0.2440
 3401TIP3    H111085   6.607   5.389   7.311  0.0247 -0.3740  0.3799
 3401TIP3    H211086   6.488   5.336   7.388  0.2088 -0.0987  0.8580
 3402TIP3   OH211087   0.398   7.696  10.188 -1.0302 -0.3908 -0.2987
 3402TIP3    H111088   0.427   7.774  10.236 -1.5929  0.6883 -1.6484
 3402TIP3    H211089   0.409   7.625  10.250  0.3681  0.6181  0.6895
 3403TIP3   OH211090   7.456   7.856   1.793 -0.5743  0.5577  0.2040
 3403TIP3    H111091   7.371   7.884   1.759 -1.4493  0.1427  1.9122
 3403TIP3    H211092   7.437   7.827   1.883  1.4414  0.8199  0.7595
 3404TIP3   OH211093   1.387  10.291   6.571  0.0693  0.1843 -0.8887
 3404TIP3    H111094   1.471  10.326   6.542 -0.6299 -0.0114 -3.4601
 3404TIP3    H211095   1.322  10.339   6.520 -1.1843 -1.5439 -1.0303
 3405TIP3   OH211096   8.089  10.318   8.467  0.5271  0.5577  0.1727
 3405TIP3    H111097   8.067  10.225   8.474  2.7740 -0.0477 -0.0012
 3405TIP3    H211098   8.107  10.345   8.557 -0.1696  0.8579  0.2286
 3406TIP3   OH211099   3.448   9.720   8.854  0.3587 -0.0904 -0.4238
 3406TIP3    H111100   3.361   9.757   8.837  0.5749  0.8658  0.4914
 3406TIP3    H211101   3.430   9.643   8.909  0.1570  0.7857  0.7674
 3407TIP3   OH211102   3.051   9.924  10.583 -0.8465 -0.3308  0.7392
 3407TIP3    H111103   3.101   9.911  10.502 -3.0845 -0.0066 -0.7844
 3407TIP3    H211104   3.115   9.958  10.645  1.0641 -1.0522 -0.7267
 3408TIP3   OH211105   3.844   0.929   9.379  0.2870 -0.5193  0.3061
 3408TIP3    H111106   3.811   0.978   9.454  0.2264 -0.7503  0.4313
 3408TIP3    H211107   3.890   0.854   9.417 -0.5304 -1.1372  0.1094
 3409TIP3   OH211108   6.227  10.522   5.983 -0.0243 -0.1196 -0.7041
 3409TIP3    H111109   6.170  10.587   6.024  1.3158  0.4896  0.2828
 3409TIP3    H211110   6.288  10.574   5.930  0.8803 -0.5747 -0.1284
 3410TIP3   OH211111  10.735   6.125   3.704  0.1681  0.2302 -0.4712
 3410TIP3    H111112  10.687   6.202   3.733 -0.8221 -0.0315 -1.3347
 3410TIP3    H211113  10.767   6.084   3.784  0.2747  1.2578  0.0213
 3411TIP3   OH211114   6.278   0.672   1.488  0.0356  0.7607  0.5709
 3411TIP3    H111115   6.203   0.622   1.521  0.8718  0.6486  2.4041
 3411TIP3    H211116   6.334   0.606   1.446 -0.0017  0.5315  0.8728
 3412TIP3   OH211117   9.172   7.815   6.580 -0.0066 -0.7028  0.2255
 3412TIP3    H111118   9.163   7.749   6.511  0.1747 -1.1034  0.5768
 3412TIP3    H211119   9.237   7.778   6.639 -0.7612 -0.7435  1.0486
 3413TIP3   OH211120   8.168   3.382   3.866 -0.1697 -0.3339 -0.0683
 3413TIP3    H111121   8.081   3.382   3.906 -1.0017  3.0634 -1.5149
 3413TIP3    H211122   8.222   3.334   3.928 -1.9695  2.0755  3.7994
 3414TIP3   OH211123   9.128   3.869   1.961 -0.1042 -0.0673 -0.2228
 3414TIP3    H111124   9.172   3.914   2.034 -0.7865 -0.4589  0.4355
 3414TIP3    H211125   9.064   3.933   1.929 -0.3169 -0.1717 -0.0015
 3415TIP3   OH211126   0.037   1.852   5.001  0.0619  0.4149 -0.9484
 3415TIP3    H111127   0.050   1.901   5.083  0.7029  0.0381 -0.8166
 3415TIP3    H211128  -0.058   1.839   4.995 -0.0402  0.9460 -0.5614
 3416TIP3   OH211129   5.575   5.202   8.262 -0.4233  0.4642  0.0342
 3416TIP3    H111130   5.505   5.215   8.198  0.0449 -0.7626 -0.7584
 3416TIP3    H211131   5.530   5.197   8.346 -1.1193  1.3670 -0.2638
 3417TIP3   OH211132   3.047   4.860   0.300 -0.3004  0.3564 -0.2112
 3417TIP3    H111133   3.105   4.912   0.245  0.4039 -1.3861 -1.1847
 3417TIP3    H211134   3.040   4.910   0.382  3.9394 -0.0717  0.6327
 3418TIP3   OH211135  10.162   0.858   5.990 -0.1737  0.4127  0.2288
 3418TIP3    H111136  10.196   0.921   6.054  0.6946 -1.1092  1.3581
 3418TIP3    H211137  10.083   0.822   6.031  0.6472 -0.9138  0.7136
 3419TIP3   OH211138   5.006   0.022   0.131  0.0603 -0.0809  0.2379
 3419TIP3    H111139   5.057  -0.008   0.206  1.9574  0.4124 -0.7976
 3419TIP3    H211140   5.068   0.021   0.058 -0.5763  3.3706 -0.5054
 3420TIP3   OH211141   0.556   5.182   1.140 -0.0859 -0.1871 -0.0040
 3420TIP3    H111142   0.525   5.204   1.052  0.2148 -1.4145 -0.4429
 3420TIP3    H211143   0.592   5.264   1.174  0.9417  0.0319 -1.5163
 3421TIP3   OH211144  10.536  10.638   4.811  0.7253 -0.2865 -0.0826
 3421TIP3    H111145  10.622  10.597   4.801 -0.4068 -2.8169 -0.1939
 3421TIP3    H211146  10.534  10.669   4.901  1.7334 -0.2294 -0.0717
 3422TIP3   OH211147  10.668   4.305   0.513 -0.5557 -0.8147  0.4523
 3422TIP3    H111148  10.688   4.352   0.432 -0.9268 -0.3981  0.5980
 3422TIP3    H211149  10.575   4.283   0.506 -0.0690 -2.8224 -0.2660
 3423TIP3   OH211150   9.788   6.972   6.064  0.3486 -0.1606  0.2225
 3423TIP3    H111151   9.780   6.901   6.128 -0.6511  1.0240  1.4765
 3423TIP3    H211152   9.841   7.039   6.108 -1.0283  1.0167  0.1750
 3424TIP3   OH211153   2.396   3.224   9.122 -0.2148 -0.4459 -0.4854
 3424TIP3    H111154   2.421   3.306   9.081  0.9892  0.3859  1.7385
 3424TIP3    H211155   2.301   3.218   9.110 -0.5770  2.0711  0.6037
 3425TIP3   OH211156   6.193   7.110   4.739  0.2749 -0.5875  0.1808
 3425TIP3    H111157   6.165   7.146   4.823 -1.7165 -0.0693 -0.6365
 3425TIP3    H211158   6.286   7.132   4.733 -0.3374  2.7544  0.6335
 3426TIP3   OH211159   1.140   8.878   5.977  0.1544 -0.6263  0.2421
 3426TIP3    H111160   1.221   8.901   6.021  0.0786 -0.1802  0.1534
 3426TIP3    H211161   1.157   8.792   5.938  0.2568 -0.9809  1.0495
 3427TIP3   OH211162   5.549   0.197   7.819  0.3192 -0.8090  0.3455
 3427TIP3    H111163   5.561   0.107   7.848  0.0473 -0.7396  0.6769
 3427TIP3    H211164   5.562   0.250   7.897 -1.0730 -0.6620  0.5094
 3428TIP3   OH211165   8.963   7.852   3.337 -0.4422  0.7117 -0.2214
 3428TIP3    H111166   8.986   7.811   3.254  0.1214 -0.1919  0.3648
 3428TIP3    H211167   9.026   7.924   3.347 -0.5797  0.8895 -0.6130
 3429TIP3   OH211168   0.612   4.080   6.661  0.3383 -0.0746 -0.2586
 3429TIP3    H111169   0.555   4.052   6.590  1.2256 -0.0184 -1.0044
 3429TIP3    H211170   0.693   4.109   6.618  0.6469  0.5829  0.7177
 3430TIP3   OH211171   9.746   1.601   2.986  0.2215  0.6129 -0.2849
 3430TIP3    H111172   9.798   1.675   3.017 -0.8333  0.8733  0.9772
 3430TIP3    H211173   9.670   1.599   3.044  1.0834 -2.5761  0.9826
 3431TIP3   OH211174   1.312   2.916   1.485 -0.2275  0.0310  0.2187
 3431TIP3    H111175   1.296   2.894   1.577  0.5132 -0.3866  0.2564
 3431TIP3    H211176   1.314   2.832   1.440 -2.3903  0.3104 -0.5163
 3432TIP3   OH211177   8.272   0.527   1.618  0.7129  0.2927 -0.1830
 3432TIP3    H111178   8.218   0.496   1.691  1.9758  0.5454  0.9054
 3432TIP3    H211179   8.281   0.452   1.560  0.3438 -0.1495  0.3271
 3433TIP3   OH211180   9.789   6.074   7.166  0.3466  0.9673 -0.3060
 3433TIP3    H111181   9.698   6.104   7.175 -0.4882 -1.1621 -0.9824
 3433TIP3    H211182   9.807   6.030   7.249  0.0928 -0.1583 -0.8210
 3434TIP3   OH211183   3.446   9.844   2.263  0.0130  0.1128  0.0373
 3434TIP3    H111184   3.386   9.794   2.208 -0.0042  0.1778 -0.0031
 3434TIP3    H211185   3.527   9.849   2.211  0.2714 -0.5413  0.3673
 3435TIP3   OH211186  10.672   5.584   6.547 -0.3277  0.6859  0.1649
 3435TIP3    H111187  10.633   5.523   6.610  0.2326 -1.2725 -1.2718
 3435TIP3    H211188  10.655   5.543   6.462  3.5483  0.4386 -0.6580
 3436TIP3   OH211189   3.202   0.677   2.515 -0.0580  0.1644  0.1216
 3436TIP3    H111190   3.279   0.682   2.459  0.3339  1.2561  0.7299
 3436TIP3    H211191   3.219   0.605   2.575  0.5503  0.4912  0.3422
 3437TIP3   OH211192   6.689   4.303   2.995  0.1789 -0.3095 -0.1958
 3437TIP3    H111193   6.620   4.256   3.042  0.2514  0.4005  0.6475
 3437TIP3    H211194   6.732   4.356   3.062  0.9485 -0.0438 -0.8846
 3438TIP3   OH211195   0.858   0.630   0.270  0.3025 -0.4064 -0.1487
 3438TIP3    H111196   0.934   0.583   0.305  0.5248  0.2512  0.2618
 3438TIP3    H211197   0.784   0.596   0.321  0.3323 -0.9456 -0.4544
 3439TIP3   OH211198   7.594   4.665   3.760  0.2322  0.0464  0.7151
 3439TIP3    H111199   7.546   4.642   3.680 -1.2758 -1.5309  1.9881
 3439TIP3    H211200   7.534   4.720   3.809  0.4653 -0.3706  1.4855
 3440TIP3   OH211201   2.420   0.563   7.258 -0.1216  0.3896 -0.1517
 3440TIP3    H111202   2.493   0.520   7.303  0.4563  1.5934  0.1169
 3440TIP3    H211203   2.441   0.556   7.165  0.4636  0.9170 -0.0675
 3441TIP3   OH211204   0.357   4.382   9.910 -0.2163 -0.2559  0.9578
 3441TIP3    H111205   0.410   4.302   9.900 -0.3037 -0.1587 -0.5126
 3441TIP3    H211206   0.359   4.422   9.823 -1.7944  0.3319  1.1735
 3442TIP3   OH211207   4.824   5.950   3.662 -0.3017  0.3796 -0.3275
 3442TIP3    H111208   4.906   5.926   3.620  0.0770  1.2907 -0.1372
 3442TIP3    H211209   4.763   5.881   3.637  0.6113 -0.5003 -0.1825
 3443TIP3   OH211210   8.271   3.263   9.115 -0.7523 -0.1159  0.1078
 3443TIP3    H111211   8.323   3.298   9.187 -0.6116  1.6470 -0.7983
 3443TIP3    H211212   8.187   3.240   9.155 -0.3498 -0.0689  1.0014
 3444TIP3   OH211213   5.799   3.525   6.484  0.2936  0.1324  0.5446
 3444TIP3    H111214   5.811   3.542   6.578 -0.4028 -0.1039  0.6790
 3444TIP3    H211215   5.732   3.457   6.480  0.0201  0.4363 -0.1408
 3445TIP3   OH211216   6.790   6.994   0.902 -0.2389  0.4796  0.5906
 3445TIP3    H111217   6.748   6.940   0.835 -0.5164  1.5306 -0.1187
 3445TIP3    H211218   6.727   6.996   0.974 -0.8892  1.0475  0.0217
 3446TIP3   OH211219   4.908   2.646   6.361  0.4130 -1.3616 -0.1623
 3446TIP3    H111220   4.989   2.608   6.395  1.8295  0.1430 -1.6026
 3446TIP3    H211221   4.869   2.577   6.309  2.0323 -1.4501 -1.3410
 3447TIP3   OH211222   7.736   9.996   3.763  0.0223  0.0815  0.0459
 3447TIP3    H111223   7.806   9.967   3.823 -0.5986 -1.4741  0.0792
 3447TIP3    H211224   7.777   9.996   3.677 -0.3290 -2.7139 -0.2291
 3448TIP3   OH211225   1.694  10.568   2.453 -0.3840 -0.0964 -0.1395
 3448TIP3    H111226   1.665  10.480   2.431 -1.2861 -0.2018  1.3358
 3448TIP3    H211227   1.790  10.563   2.452 -0.4002 -0.6168 -1.7655
 3449TIP3   OH211228   4.811   4.072   7.233  0.3533 -0.0751  0.7969
 3449TIP3    H111229   4.877   4.015   7.271  1.0474 -0.2797 -0.6577
 3449TIP3    H211230   4.860   4.133   7.179 -0.6465 -0.3052 -0.4129
 3450TIP3   OH211231   7.494  10.640   3.901 -0.4319 -0.1173 -0.3390
 3450TIP3    H111232   7.456  10.711   3.953 -0.3787  0.3649 -0.9449
 3450TIP3    H211233   7.565  10.607   3.956 -0.3385  0.4252 -0.1180
 3451TIP3   OH211234   1.748   0.971   8.587 -0.0927  0.2916 -0.1557
 3451TIP3    H111235   1.756   0.946   8.679 -1.5055 -1.4037 -0.4527
 3451TIP3    H211236   1.658   1.002   8.578 -0.3223 -0.6068 -1.1782
 3452TIP3   OH211237   0.768  10.858   5.273  0.5371 -0.3571  0.3405
 3452TIP3    H111238   0.786  10.845   5.180  3.0833 -0.2042  0.7461
 3452TIP3    H211239   0.855  10.868   5.313 -0.5650  2.5369  2.3087
 3453TIP3   OH211240   3.740   5.095   3.754  0.0127  0.6797 -0.2496
 3453TIP3    H111241   3.745   5.003   3.728 -2.6147 -0.3651  2.3260
 3453TIP3    H211242   3.805   5.104   3.824 -0.6334  0.3585  0.4108
 3454TIP3   OH211243   1.982  10.760   1.684  0.0493  0.3502  0.1344
 3454TIP3    H111244   2.029  10.782   1.604  0.0730 -0.1193  0.0190
 3454TIP3    H211245   1.889  10.773   1.662  0.1437  2.2392  0.6525
 3455TIP3   OH211246   1.178   9.082   3.301  0.1628  0.8550 -0.1225
 3455TIP3    H111247   1.224   9.148   3.249 -0.0338 -0.0699 -1.5145
 3455TIP3    H211248   1.241   9.057   3.368  1.0619  0.8512 -0.9530
 3456TIP3   OH211249  10.021  10.192   6.513 -0.1627  0.1861  0.1938
 3456TIP3    H111250   9.964  10.206   6.588 -0.0674 -1.4697  0.6129
 3456TIP3    H211251   9.965  10.149   6.448 -0.1607  1.3138 -0.5866
 3457TIP3   OH211252   9.910   2.334   0.633  0.4391 -0.2350  0.3042
 3457TIP3    H111253   9.918   2.411   0.576 -0.5405  0.1351  0.6545
 3457TIP3    H211254   9.821   2.339   0.668  0.6754 -1.0407  1.0422
 3458TIP3   OH211255   6.614   3.712  10.419  0.4162 -0.2402  0.0475
 3458TIP3    H111256   6.662   3.755  10.348  0.2483 -0.0478  0.0497
 3458TIP3    H211257   6.601   3.622  10.388  2.2738 -0.7911  0.7677
 3459TIP3   OH211258   5.088   7.981   8.150  0.6322  0.0975  0.4855
 3459TIP3    H111259   5.075   7.990   8.056  0.7084  0.0828  0.4735
 3459TIP3    H211260   5.183   7.990   8.162  0.6414 -0.0798  0.5401
 3460TIP3   OH211261  10.123  10.154  10.592  0.5589  0.3063  0.0905
 3460TIP3    H111262  10.207  10.192  10.616  0.0917  2.0520 -0.9161
 3460TIP3    H211263  10.142  10.061  10.576  2.4424  0.8360 -0.9361
 3461TIP3   OH211264  10.306  10.428   1.558  0.2323  0.1415  0.2331
 3461TIP3    H111265  10.379  10.488   1.541  0.3257 -0.2267 -0.7113
 3461TIP3    H211266  10.276  10.452   1.646  1.5632  0.2170  0.6963
 3462TIP3   OH211267   5.693   9.300   8.341  0.6582  0.1151  0.1658
 3462TIP3    H111268   5.738   9.284   8.259 -1.5829  0.0204 -1.1425
 3462TIP3    H211269   5.674   9.394   8.340  2.9630  0.6855  1.9350
 3463TIP3   OH211270   6.539   9.636   0.479  0.3131  0.3322  0.1303
 3463TIP3    H111271   6.579   9.554   0.447  1.4271  1.5950 -1.9185
 3463TIP3    H211272   6.466   9.652   0.420  0.7474  1.3277 -0.1593
 3464TIP3   OH211273   1.894   4.828   3.671 -0.8791  0.1992 -0.0244
 3464TIP3    H111274   1.945   4.903   3.702 -0.6660  1.1899 -2.4776
 3464TIP3    H211275   1.803   4.854   3.684 -0.8041  0.8938 -0.7482
 3465TIP3   OH211276   1.649   2.777   5.247  1.0683  0.0749  0.0469
 3465TIP3    H111277   1.715   2.775   5.316 -0.1195  1.5458  1.3196
 3465TIP3    H211278   1.679   2.845   5.187  0.8180  0.6206  0.5320
 3466TIP3   OH211279   3.934  10.328   3.680 -0.2984 -0.5333  0.3161
 3466TIP3    H111280   3.946  10.256   3.743 -2.8485 -1.8094 -0.5005
 3466TIP3    H211281   3.872  10.387   3.723  1.0911  0.7791  0.6054
 3467TIP3   OH211282   7.453   2.645   3.881 -0.4456  0.7207  0.0044
 3467TIP3    H111283   7.453   2.645   3.785 -1.3288  0.2616 -0.0040
 3467TIP3    H211284   7.370   2.604   3.905  0.1959 -0.0691  0.9705
 3468TIP3   OH211285   0.664   7.447   1.369 -0.1625  0.2864 -0.3048
 3468TIP3    H111286   0.735   7.507   1.391  1.4073 -1.3698 -0.5923
 3468TIP3    H211287   0.707   7.362   1.358 -2.3526 -1.0300  0.6003
 3469TIP3   OH211288   7.460  10.458   7.842 -0.4362 -0.3381  0.1808
 3469TIP3    H111289   7.516  10.424   7.773  0.9081 -1.0705  1.5893
 3469TIP3    H211290   7.434  10.545   7.811 -0.2672 -0.8406 -1.4436
 3470TIP3   OH211291   2.472   3.769   2.099  0.5185  0.4176  0.0131
 3470TIP3    H111292   2.509   3.764   2.187  1.3832 -0.8158 -0.4071
 3470TIP3    H211293   2.382   3.738   2.109  1.1426 -1.4543  0.1905
 3471TIP3   OH211294   1.025   6.162   1.551  0.4494  0.4271  0.2642
 3471TIP3    H111295   0.961   6.096   1.523  1.3420 -0.1216 -0.5631
 3471TIP3    H211296   0.987   6.202   1.628  0.1253 -1.4825  1.1449
 3472TIP3   OH211297   3.461  10.640   9.319 -0.3578 -0.0529 -0.2642
 3472TIP3    H111298   3.462  10.714   9.259 -1.9982  0.6593  0.5236
 3472TIP3    H211299   3.543  10.646   9.367 -1.2819  2.4282  1.1385
 3473TIP3   OH211300   6.628   0.697   1.522  0.3936 -0.1721  0.0327
 3473TIP3    H111301   6.622   0.735   1.610  0.3421  1.0949 -0.5004
 3473TIP3    H211302   6.675   0.614   1.535  0.4034  0.0072  1.2448
 3474TIP3   OH211303   7.474   1.824   7.225 -0.3663  0.1069  0.5596
 3474TIP3    H111304   7.380   1.809   7.220 -0.2536 -0.2143 -1.5816
 3474TIP3    H211305   7.499   1.795   7.313 -2.5262  2.0773  1.9207
 3475TIP3   OH211306   3.507   8.555   6.936 -0.6317  0.2949 -0.2899
 3475TIP3    H111307   3.447   8.582   7.005 -1.2531  1.0268 -1.1025
 3475TIP3    H211308   3.594   8.568   6.973 -0.9205 -1.4112  1.1584
 3476TIP3   OH211309   2.906   9.109  10.497 -0.0562 -0.2882 -0.2972
 3476TIP3    H111310   2.939   9.178  10.440  0.6801  0.7323  1.2929
 3476TIP3    H211311   2.964   9.035  10.481 -0.5114 -0.3834 -1.6146
 3477TIP3   OH211312   9.245   7.827   1.263  0.9045  0.4803 -0.6038
 3477TIP3    H111313   9.200   7.883   1.326  0.2591  0.7723 -1.3095
 3477TIP3    H211314   9.286   7.888   1.202  0.7170  0.1901 -1.0220
 3478TIP3   OH211315   0.590   5.572   2.830  0.1082 -0.0410 -0.0722
 3478TIP3    H111316   0.503   5.581   2.791  0.3704  0.0033 -0.6563
 3478TIP3    H211317   0.583   5.616   2.915 -0.3121  0.3736 -0.3180
 3479TIP3   OH211318   1.386  10.716   3.735 -0.7279  0.1715 -0.2587
 3479TIP3    H111319   1.393  10.770   3.656  2.6346  1.1279  0.5323
 3479TIP3    H211320   1.417  10.630   3.709 -2.7623 -0.4869 -0.6801
 3480TIP3   OH211321   5.501   7.076   2.617  0.8942  0.1292 -0.0985
 3480TIP3    H111322   5.554   7.122   2.682  0.8671 -0.1120  0.0953
 3480TIP3    H211323   5.482   6.991   2.656  1.6268 -0.3672 -0.7911
 3481TIP3   OH211324   7.499   3.277   1.181  0.1333  0.2128 -0.0388
 3481TIP3    H111325   7.404   3.268   1.177 -0.1324  2.5718 -2.5039
 3481TIP3    H211326   7.512   3.363   1.222  1.2885 -0.5446  1.2450
 3482TIP3   OH211327   4.047   4.736   8.357  0.1611 -0.1314 -0.1770
 3482TIP3    H111328   4.025   4.804   8.421 -0.7726  0.5072 -1.1634
 3482TIP3    H211329   4.060   4.783   8.275 -0.3006 -1.1219 -0.8361
 3483TIP3   OH211330   9.932   0.130   1.086 -1.0263  0.2636  0.6491
 3483TIP3    H111331   9.869   0.202   1.092 -0.8139  0.3543  1.9467
 3483TIP3    H211332   9.925   0.101   0.995 -1.3010  1.7400  0.1711
 3484TIP3   OH211333   1.776  10.040   4.477  0.2313  0.4984 -0.2152
 3484TIP3    H111334   1.858   9.997   4.452 -0.0152 -0.5063  0.6219
 3484TIP3    H211335   1.721  10.034   4.400  0.8529  0.9660 -0.7077
 3485TIP3   OH211336  10.598   7.139   1.194  0.1815 -0.0126 -0.0953
 3485TIP3    H111337  10.677   7.151   1.141  0.5344  0.9100  0.6278
 3485TIP3    H211338  10.613   7.057   1.241  0.1956 -0.4425 -0.8374
 3486TIP3   OH211339   1.779   6.052  10.514  0.1820  0.5144  0.7536
 3486TIP3    H111340   1.778   6.025  10.422 -0.0593 -1.1409  1.2113
 3486TIP3    H211341   1.871   6.062  10.536  0.3488 -1.0570  0.8522
 3487TIP3   OH211342   2.221   6.386   4.698  0.1697  0.1402 -0.7963
 3487TIP3    H111343   2.143   6.397   4.645  0.6919  1.0747 -1.3954
 3487TIP3    H211344   2.220   6.460   4.759  0.1278 -0.3386 -0.2007
 3488TIP3   OH211345   7.245   6.831   5.447 -0.2669 -0.0953  0.0614
 3488TIP3    H111346   7.185   6.759   5.466  0.9026 -0.7353  1.6268
 3488TIP3    H211347   7.241   6.842   5.353 -2.5719 -0.3215  0.0847
 3489TIP3   OH211348   7.641   0.509   1.055  0.8583  0.7452 -0.1998
 3489TIP3    H111349   7.684   0.543   1.133  1.2365 -0.6793  0.2338
 3489TIP3    H211350   7.578   0.445   1.088  0.2851  0.8776 -1.0032
 3490TIP3   OH211351   3.845   0.564   2.395 -0.3242  0.7041  0.3958
 3490TIP3    H111352   3.903   0.587   2.322 -0.0449 -0.1827  0.3334
 3490TIP3    H211353   3.807   0.480   2.370 -2.0674  1.4909  0.1866
 3491TIP3   OH211354   4.720   4.807   6.404  0.2365  0.1193 -0.2972
 3491TIP3    H111355   4.662   4.867   6.451  1.0536  0.3152  0.4834
 3491TIP3    H211356   4.666   4.773   6.333 -0.6324  0.7993  0.0147
 3492TIP3   OH211357   5.586   6.880   5.145  0.5272  0.0255  0.4603
 3492TIP3    H111358   5.541   6.910   5.066 -0.8113  0.4161  1.3456
 3492TIP3    H211359   5.517   6.868   5.210  1.2896 -2.5270  0.9368
 3493TIP3   OH211360   5.308   1.459   0.548 -0.2186 -0.0148 -0.5025
 3493TIP3    H111361   5.285   1.544   0.587  2.1008  0.8584 -0.8980
 3493TIP3    H211362   5.323   1.402   0.623  0.0069  0.4359 -0.2018
 3494TIP3   OH211363  10.763   8.075   4.079 -0.2527 -0.1789 -0.2413
 3494TIP3    H111364  10.719   8.020   4.143 -0.7670 -1.4786 -1.6393
 3494TIP3    H211365  10.826   8.017   4.036  0.8082  0.9191 -0.2469
 3495TIP3   OH211366   1.014   6.275   6.812  0.3586  0.0904  0.4210
 3495TIP3    H111367   0.973   6.329   6.879  1.2946  1.8272 -0.3315
 3495TIP3    H211368   1.093   6.324   6.788  2.2524 -2.4994  0.9513
 3496TIP3   OH211369   9.507   3.888  10.245 -0.0616  0.1395  0.2876
 3496TIP3    H111370   9.600   3.865  10.244 -0.2600 -0.9206  2.1200
 3496TIP3    H211371   9.469   3.832  10.312 -2.0790  0.4468 -0.5349
 3497TIP3   OH211372   6.478   4.876   8.389  0.0743  0.8533  0.3830
 3497TIP3    H111373   6.436   4.855   8.306 -0.3625  1.7272  0.3774
 3497TIP3    H211374   6.471   4.795   8.440  0.7641  0.1532 -0.5870
 3498TIP3   OH211375   1.944   3.366  10.534 -0.1169 -0.5223 -0.1726
 3498TIP3    H111376   1.851   3.342  10.540 -0.2671 -0.2453 -1.2683
 3498TIP3    H211377   1.981   3.305  10.470  0.1530  0.2225 -0.7403
 3499TIP3   OH211378   2.984   7.805   7.794 -0.1507  0.3518 -0.2198
 3499TIP3    H111379   2.962   7.755   7.873  1.0655  0.7257  0.3808
 3499TIP3    H211380   3.033   7.744   7.740  0.4802  0.5953  0.0728
 3500TIP3   OH211381   0.265   3.243   2.947 -0.1843  0.0220 -0.2692
 3500TIP3    H111382   0.318   3.183   2.999  2.7119  0.9736 -1.8404
 3500TIP3    H211383   0.264   3.205   2.859 -1.0427  0.6806 -0.5626
 3501TIP3   OH211384   3.626   0.697   1.888  0.6705  0.3602 -0.4068
 3501TIP3    H111385   3.688   0.669   1.820  0.8762 -2.0017  0.6468
 3501TIP3    H211386   3.573   0.619   1.906  0.6549  0.8744  2.1743
 3502TIP3   OH211387   5.092   3.466   1.745 -0.6016 -0.0924 -0.1888
 3502TIP3    H111388   4.997   3.463   1.740 -0.6081 -0.5611  0.1501
 3502TIP3    H211389   5.120   3.377   1.722 -0.3458 -0.4890  1.5145
 3503TIP3   OH211390   5.610   0.126   8.535  0.4332  0.1648 -0.2636
 3503TIP3    H111391   5.676   0.118   8.604  1.6737  2.3139 -1.1153
 3503TIP3    H211392   5.551   0.052   8.550 -0.9339  1.8678  4.7175
 3504TIP3   OH211393   6.824   1.445   0.267 -0.0444  0.2580 -0.3413
 3504TIP3    H111394   6.782   1.389   0.202 -1.1057  1.6233 -0.8759
 3504TIP3    H211395   6.906   1.473   0.226  0.1290 -0.2933 -0.3713
 3505TIP3   OH211396   4.953   0.333   7.644  0.4620  0.1723 -0.7316
 3505TIP3    H111397   4.881   0.271   7.632  1.1971 -0.7196 -0.6216
 3505TIP3    H211398   4.948   0.358   7.737 -0.1005  0.6283 -0.8772
 3506TIP3   OH211399   0.140   3.633  10.594  0.2029  0.4231 -0.1096
 3506TIP3    H111400   0.183   3.597  10.516  0.7814 -0.2821  0.5167
 3506TIP3    H211401   0.186   3.592  10.667 -0.3440  1.0638  0.6068
 3507TIP3   OH211402   3.365   1.864   3.339  0.0051 -0.6955 -0.0798
 3507TIP3    H111403   3.396   1.950   3.311 -1.2943  0.0013  0.5275
 3507TIP3    H211404   3.358   1.870   3.434  1.4925 -2.0507  0.1593
 3508TIP3   OH211405   2.800  10.271   3.220 -0.3221  0.1857 -0.5079
 3508TIP3    H111406   2.856  10.204   3.180  0.9799  1.1375 -0.3266
 3508TIP3    H211407   2.772  10.231   3.303  1.8505  0.4687  0.4307
 3509TIP3   OH211408   9.472   3.581   5.177  0.0272  0.1340  0.6044
 3509TIP3    H111409   9.474   3.604   5.270 -0.7992  3.6725 -0.1151
 3509TIP3    H211410   9.563   3.566   5.153  0.4196  0.7314  1.6664
 3510TIP3   OH211411   1.286   4.338   2.508  0.1671  0.5881  0.1245
 3510TIP3    H111412   1.233   4.358   2.585 -0.3049 -0.1440  0.0049
 3510TIP3    H211413   1.238   4.267   2.465  0.3027  1.1540 -0.9740
 3511TIP3   OH211414   6.995   7.470   2.902  0.0435 -0.0192  0.2720
 3511TIP3    H111415   7.058   7.429   2.961  0.1220  0.2716  0.3968
 3511TIP3    H211416   6.909   7.453   2.942  0.1795  1.4323  1.2966
 3512TIP3   OH211417   9.158   0.876   5.755  0.7239  0.1579 -0.1253
 3512TIP3    H111418   9.238   0.915   5.790  1.1110 -1.5877  1.0751
 3512TIP3    H211419   9.162   0.894   5.661  2.8448 -0.3759 -0.1913
 3513TIP3   OH211420   7.987   7.996  10.232 -0.0816  0.2818  0.0953
 3513TIP3    H111421   7.953   7.939  10.301 -1.1163  0.8678  0.0985
 3513TIP3    H211422   7.936   8.077  10.241 -0.2977  0.3425 -1.3916
 3514TIP3   OH211423   5.712   1.703   6.901  0.3409  0.3328 -0.3682
 3514TIP3    H111424   5.670   1.623   6.869  0.7248 -0.0839  0.1558
 3514TIP3    H211425   5.645   1.771   6.893 -0.3511 -0.2709  0.2139
 3515TIP3   OH211426   3.775   4.398   5.296 -0.0852  0.2622  0.0549
 3515TIP3    H111427   3.833   4.364   5.365 -0.3421 -1.1230 -0.3829
 3515TIP3    H211428   3.694   4.420   5.341  0.0769  0.2881  0.3387
 3516TIP3   OH211429   2.315   6.762  10.863  0.9940 -0.2244  0.4962
 3516TIP3    H111430   2.368   6.691  10.899  0.0618 -0.7637  0.8411
 3516TIP3    H211431   2.271   6.723  10.788  0.7654  0.0979  0.4623
 3517TIP3   OH211432   8.388   3.403   5.642  0.4870  0.3413  0.1152
 3517TIP3    H111433   8.414   3.338   5.707 -0.6517 -0.4503 -0.1930
 3517TIP3    H211434   8.350   3.352   5.571 -1.2220  1.3685  0.2394
 3518TIP3   OH211435   7.959   9.989   4.204 -0.7043  0.2698  0.5532
 3518TIP3    H111436   7.955   9.977   4.299  0.0668  0.1691  0.5786
 3518TIP3    H211437   8.052   9.999   4.185 -0.6827 -1.5174 -0.4221
 3519TIP3   OH211438   8.680   0.422   6.192  0.0185 -0.0215  0.6119
 3519TIP3    H111439   8.616   0.358   6.222 -0.5253  0.1174 -0.2170
 3519TIP3    H211440   8.724   0.380   6.118 -0.4521  0.6031 -0.0407
 3520TIP3   OH211441   0.004   9.207   0.119  0.4332  0.1489 -0.2513
 3520TIP3    H111442   0.097   9.204   0.097  1.0521  3.3402  1.2754
 3520TIP3    H211443  -0.005   9.152   0.196  1.7875  2.0139  1.3537
 3521TIP3   OH211444   7.135   4.976   9.421  0.0129  0.1456 -0.4923
 3521TIP3    H111445   7.053   4.942   9.386 -0.9332 -0.9179  2.5072
 3521TIP3    H211446   7.110   5.046   9.481  1.3868  0.6115 -0.4149
 3522TIP3   OH211447   2.620   9.664   0.904  0.2110  0.1465  0.9133
 3522TIP3    H111448   2.594   9.755   0.914  0.8583  0.1446  3.0342
 3522TIP3    H211449   2.692   9.666   0.841 -1.8080  0.6511 -1.5388
 3523TIP3   OH211450   1.374   9.495   9.780  0.3804 -0.3821 -0.1522
 3523TIP3    H111451   1.444   9.543   9.735  1.7923 -1.4337  0.8378
 3523TIP3    H211452   1.387   9.404   9.755 -1.7504 -0.4220 -1.3281
 3524TIP3   OH211453   3.374   0.639   9.937 -0.1992 -0.3299 -0.1260
 3524TIP3    H111454   3.428   0.633   9.858 -0.4168  0.5705 -0.3478
 3524TIP3    H211455   3.397   0.561   9.987  3.5795  1.4129  1.2248
 3525TIP3   OH211456   7.429   1.813   1.194  0.4688  0.2353  0.4711
 3525TIP3    H111457   7.424   1.753   1.268 -0.6388  0.1547  0.3533
 3525TIP3    H211458   7.420   1.900   1.233 -1.5656  0.1294  0.3401
 3526TIP3   OH211459   8.855   9.753   6.159  0.0960  0.5578  0.2227
 3526TIP3    H111460   8.788   9.713   6.214  0.5537  0.1457  0.4832
 3526TIP3    H211461   8.938   9.732   6.202  0.4452  0.4192 -0.5060
 3527TIP3   OH211462   3.273  10.354   0.158 -0.4937 -0.1303  0.2761
 3527TIP3    H111463   3.218  10.370   0.081 -1.8894 -0.0496  1.2631
 3527TIP3    H211464   3.280  10.259   0.164 -1.0933 -0.1589  0.5359
 3528TIP3   OH211465   3.187   0.259  10.446  0.3593  0.2830 -0.5289
 3528TIP3    H111466   3.147   0.289  10.528 -0.1377 -0.1920 -0.5962
 3528TIP3    H211467   3.251   0.327  10.425 -0.7988  1.3601 -0.7282
 3529TIP3   OH211468   1.900   7.333   8.399  0.5410  0.3538 -0.1007
 3529TIP3    H111469   1.902   7.421   8.436 -0.5684 -0.2894  1.6111
 3529TIP3    H211470   1.963   7.336   8.326  0.7828  2.4348  0.1335
 3530TIP3   OH211471   3.768   4.501   3.361  0.1094 -0.6635 -0.5347
 3530TIP3    H111472   3.775   4.430   3.298  0.1971 -0.1854 -1.0748
 3530TIP3    H211473   3.773   4.458   3.446  1.2944 -1.1995 -0.8460
 3531TIP3   OH211474   1.041   8.932   4.835 -0.4866 -0.1323 -0.3268
 3531TIP3    H111475   1.067   8.860   4.892  2.7354  0.5466 -0.7592
 3531TIP3    H211476   1.022   9.005   4.895  0.9577  0.0099 -0.0132
 3532TIP3   OH211477   0.619   7.512   3.805 -0.3810  0.0304 -0.5545
 3532TIP3    H111478   0.546   7.574   3.799 -0.6498 -0.0980  0.8891
 3532TIP3    H211479   0.582   7.429   3.775 -1.5698 -0.5540  2.1430
 3533TIP3   OH211480   8.267   6.332   7.595 -0.5108 -0.8180 -0.0696
 3533TIP3    H111481   8.282   6.386   7.518 -0.1150 -1.0092 -0.1294
 3533TIP3    H211482   8.341   6.351   7.653 -0.4888 -1.1212  0.0057
 3534TIP3   OH211483   3.218   2.727   5.458 -0.0745  0.2447 -0.1579
 3534TIP3    H111484   3.247   2.649   5.410 -0.8241 -2.1282  2.9017
 3534TIP3    H211485   3.123   2.727   5.446 -0.4989 -1.3799  2.4356
 3535TIP3   OH211486   8.677   4.023   8.302 -0.1986 -0.1201  0.2538
 3535TIP3    H111487   8.740   4.021   8.374 -0.8490  1.3133  0.9010
 3535TIP3    H211488   8.633   4.107   8.311 -0.8807 -0.2784 -1.3382
 3536TIP3   OH211489   3.761   3.192   8.453  0.1264  0.4685 -0.1816
 3536TIP3    H111490   3.809   3.200   8.535  1.0613 -0.2915 -0.6346
 3536TIP3    H211491   3.779   3.273   8.406 -0.8253  1.1259  0.5631
 3537TIP3   OH211492   6.678   9.336   9.214 -0.5437  0.5311  0.2573
 3537TIP3    H111493   6.608   9.396   9.188 -0.5967 -1.0203 -4.0576
 3537TIP3    H211494   6.636   9.250   9.218  0.5536 -0.0148  0.6900
 3538TIP3   OH211495   6.863  10.063   1.632  0.0619  0.3750  0.4375
 3538TIP3    H111496   6.816   9.988   1.594  0.0016 -0.9323  2.9101
 3538TIP3    H211497   6.808  10.139   1.613 -1.0289 -0.5398 -0.1581
 3539TIP3   OH211498   9.059   4.434   9.399 -0.6572 -0.9748  0.0929
 3539TIP3    H111499   9.013   4.511   9.433 -1.9259 -1.2451 -0.9268
 3539TIP3    H211500   9.143   4.434   9.445 -0.5266  1.1464 -0.0487
 3540TIP3   OH211501   8.017   5.204   2.083  0.0958  0.4377  0.9358
 3540TIP3    H111502   8.111   5.190   2.089  0.1636 -2.2067 -2.7747
 3540TIP3    H211503   7.978   5.123   2.115 -0.8367  0.8049  0.7667
 3541TIP3   OH211504   4.914   1.008  10.127  0.2801  0.9717 -0.4174
 3541TIP3    H111505   4.890   0.931  10.177 -1.0560  1.8939  0.4356
 3541TIP3    H211506   4.839   1.024  10.070 -0.1857  2.5406  0.5708
 3542TIP3   OH211507   5.559   2.582   4.586 -0.1930 -0.0990 -0.4951
 3542TIP3    H111508   5.551   2.670   4.623  0.2151 -0.3887  0.3180
 3542TIP3    H211509   5.600   2.595   4.501  0.9238  0.4155  0.0929
 3543TIP3   OH211510   1.776   2.918   8.561 -0.4159  0.2039 -0.2069
 3543TIP3    H111511   1.774   2.941   8.468 -1.1887  0.7020 -0.0755
 3543TIP3    H211512   1.865   2.885   8.575 -0.5128 -0.5581 -1.2766
 3544TIP3   OH211513   0.352   9.119   2.840 -0.0627 -0.0003  0.1846
 3544TIP3    H111514   0.314   9.196   2.883  0.7369 -0.3581  1.5906
 3544TIP3    H211515   0.371   9.149   2.751 -1.7859  0.7539  0.0402
 3545TIP3   OH211516   3.504   5.406   6.654 -0.4379 -0.1224  0.5404
 3545TIP3    H111517   3.410   5.396   6.671 -0.4864 -1.1763 -0.2029
 3545TIP3    H211518   3.546   5.387   6.738 -0.8506 -0.7210  0.6182
 3546TIP3   OH211519   0.967   6.595   9.815 -0.7320 -0.1134 -0.3126
 3546TIP3    H111520   0.904   6.596   9.888  0.1183  0.4040  0.4477
 3546TIP3    H211521   1.004   6.507   9.817 -1.3266 -0.3741 -0.6707
 3547TIP3   OH211522   5.322   0.629   8.358 -0.6206  0.6717  0.0906
 3547TIP3    H111523   5.370   0.687   8.299 -1.4367  0.2751 -0.9900
 3547TIP3    H211524   5.240   0.609   8.311 -0.8941 -0.3606  0.9712
 3548TIP3   OH211525   3.267   9.765   1.138 -0.1436  0.4549  0.5475
 3548TIP3    H111526   3.217   9.759   1.220 -1.3713  0.8050 -0.1517
 3548TIP3    H211527   3.282   9.859   1.126 -1.0361  0.5162 -0.2274
 3549TIP3   OH211528   5.564   9.258   3.807 -0.3983 -0.0017 -0.1181
 3549TIP3    H111529   5.633   9.192   3.801 -1.3498 -1.0040 -0.3970
 3549TIP3    H211530   5.503   9.223   3.872 -1.3258  0.2062 -0.8601
 3550TIP3   OH211531   5.003   6.380   7.348 -0.0454 -0.1325 -0.3469
 3550TIP3    H111532   5.035   6.366   7.258 -0.4369 -0.1380 -0.4897
 3550TIP3    H211533   4.930   6.441   7.338 -1.2833 -1.5322 -0.2666
 3551TIP3   OH211534   3.854   6.606  10.773 -0.0681 -0.3637  0.5470
 3551TIP3    H111535   3.891   6.544  10.836  2.0234  1.5555  1.3345
 3551TIP3    H211536   3.760   6.605  10.790  0.1674 -1.6503  2.0263
 3552TIP3   OH211537  10.609   4.661   3.259  0.4273  1.1882 -0.0274
 3552TIP3    H111538  10.600   4.625   3.348 -2.3722  1.7360 -0.0304
 3552TIP3    H211539  10.595   4.586   3.202 -0.0109  1.2660 -0.0202
 3553TIP3   OH211540   0.428   3.986   1.303  0.0303 -0.1201  0.2222
 3553TIP3    H111541   0.472   4.001   1.218  0.5283 -2.9601 -0.1292
 3553TIP3    H211542   0.335   3.993   1.283  0.1652  0.1081 -0.3703
 3554TIP3   OH211543   7.352   2.665   0.840  0.0702  0.3570  0.0552
 3554TIP3    H111544   7.319   2.721   0.911 -0.0484 -0.8841  1.0204
 3554TIP3    H211545   7.286   2.674   0.771 -0.5909  0.4732  0.6792
 3555TIP3   OH211546   6.340   1.026   0.520  0.1299  0.5034  0.1705
 3555TIP3    H111547   6.280   1.063   0.455  0.5521 -0.9023 -1.0971
 3555TIP3    H211548   6.283   0.989   0.587 -0.4780 -0.8622 -1.0411
 3556TIP3   OH211549  10.719   2.526   6.893 -0.1707 -0.1986  0.0773
 3556TIP3    H111550  10.777   2.602   6.897 -1.4207  0.7996 -0.0789
 3556TIP3    H211551  10.722   2.488   6.980 -0.0969  0.4734  0.3728
 3557TIP3   OH211552   7.709   9.192  10.819 -0.1905 -0.0570  0.1832
 3557TIP3    H111553   7.674   9.121  10.766 -0.6625  0.4846 -0.2583
 3557TIP3    H211554   7.783   9.226  10.768  0.0544 -0.2555  0.4073
 3558TIP3   OH211555   0.260   9.860  10.454  1.0849  0.6306 -0.1575
 3558TIP3    H111556   0.355   9.864  10.460  1.1319  0.3408 -0.6608
 3558TIP3    H211557   0.229   9.890  10.539  1.5880  2.9434 -0.7003
 3559TIP3   OH211558  10.158   5.602   9.763  0.5070 -0.1782  0.1775
 3559TIP3    H111559  10.231   5.592   9.824  0.5034  0.5411  0.3069
 3559TIP3    H211560  10.084   5.628   9.817 -0.0061 -1.4703  0.1243
 3560TIP3   OH211561   9.946   7.360   1.223 -0.1671  0.0330 -0.3831
 3560TIP3    H111562   9.947   7.374   1.128  2.2545 -1.9800 -0.7498
 3560TIP3    H211563   9.870   7.304   1.238  0.2768 -0.8655 -1.3773
 3561TIP3   OH211564  10.348   2.938   9.843 -0.0880  0.3598 -0.2163
 3561TIP3    H111565  10.424   2.969   9.794 -0.2996  1.1825 -0.0336
 3561TIP3    H211566  10.340   2.845   9.819  0.0168  0.6553 -1.4676
 3562TIP3   OH211567   2.143   3.639   0.411  0.0490  0.4325  0.5028
 3562TIP3    H111568   2.091   3.559   0.400  2.0925 -0.7261 -1.5544
 3562TIP3    H211569   2.198   3.622   0.488  0.5395 -0.2126  0.0210
 3563TIP3   OH211570   7.206   5.662   7.751  0.4138  0.4952 -0.1025
 3563TIP3    H111571   7.214   5.615   7.834 -0.3630  0.3570 -0.1084
 3563TIP3    H211572   7.230   5.598   7.684  1.6283  0.7680  0.0323
 3564TIP3   OH211573   1.423   0.352   1.149 -0.3499  0.2168 -0.0590
 3564TIP3    H111574   1.481   0.387   1.081  2.7249 -0.9848  1.7267
 3564TIP3    H211575   1.440   0.407   1.225 -1.0531 -0.5957  0.7057
 3565TIP3   OH211576   4.910   6.173   5.079 -0.1573 -0.0160 -0.9411
 3565TIP3    H111577   4.826   6.217   5.097 -0.2459  0.1696 -1.7572
 3565TIP3    H211578   4.955   6.233   5.019 -0.1094 -0.8507 -1.7591
 3566TIP3   OH211579   2.964   9.464   0.771 -0.4301 -0.7742  0.4357
 3566TIP3    H111580   3.016   9.418   0.837  0.7889  1.3688  1.0631
 3566TIP3    H211581   3.022   9.472   0.696 -0.1995  0.6987  0.7484
 3567TIP3   OH211582   9.077   9.173  10.447 -0.4654 -0.0431  0.0006
 3567TIP3    H111583   9.060   9.089  10.490  0.0425 -0.3210 -0.3189
 3567TIP3    H211584   9.138   9.218  10.505  0.9241 -0.7866 -0.8063
 3568TIP3   OH211585   6.640   5.006   7.621  0.3176  0.4601  0.2756
 3568TIP3    H111586   6.629   5.097   7.647  0.6742  0.7138 -0.4285
 3568TIP3    H211587   6.693   5.010   7.541 -2.6056 -0.0851 -1.8631
 3569TIP3   OH211588   8.828   9.558   6.754  0.0115  0.3439  0.0438
 3569TIP3    H111589   8.893   9.563   6.824  1.5931  1.3253 -1.4150
 3569TIP3    H211590   8.877   9.530   6.677 -1.3160  0.9746 -1.0891
 3570TIP3   OH211591   8.903   5.080   4.295 -0.2581  0.5655 -0.2675
 3570TIP3    H111592   8.835   5.095   4.361  0.1145 -0.3346  0.3423
 3570TIP3    H211593   8.870   5.123   4.216 -1.5323  0.1473  0.0199
 3571TIP3   OH211594   0.036   9.362   4.664 -0.1454 -0.4383 -0.5739
 3571TIP3    H111595  -0.019   9.382   4.740  2.0169  1.0290  0.7252
 3571TIP3    H211596   0.005   9.422   4.595  0.8207  1.6363  0.6837
 3572TIP3   OH211597   2.992  10.617   6.268  0.4208 -0.5894  0.2157
 3572TIP3    H111598   2.917  10.620   6.328 -1.3683  3.0027 -1.8949
 3572TIP3    H211599   2.978  10.539   6.215  0.8977 -2.6237  2.8594
 3573TIP3   OH211600   7.236   7.493   9.470  0.0385 -0.3315  0.1933
 3573TIP3    H111601   7.155   7.505   9.520  0.7538 -1.3467  1.6612
 3573TIP3    H211602   7.208   7.445   9.392 -1.1069  1.3578 -0.4983
 3574TIP3   OH211603   8.713   1.020   4.616 -0.0004  0.0230 -0.5188
 3574TIP3    H111604   8.717   1.063   4.702  1.8938 -0.0686 -0.5064
 3574TIP3    H211605   8.621   0.998   4.604 -0.4349  0.8003  1.1168
 3575TIP3   OH211606   0.444   2.928   2.730 -0.1536  0.3004  0.7075
 3575TIP3    H111607   0.442   2.944   2.636 -0.0495 -0.8226  0.5089
 3575TIP3    H211608   0.363   2.880   2.748  0.3468 -0.4369  1.0133
 3576TIP3   OH211609   6.104   8.568   3.684 -0.1682 -0.2386  0.2257
 3576TIP3    H111610   6.082   8.479   3.658 -1.3188  0.1987 -0.3734
 3576TIP3    H211611   6.061   8.624   3.619  1.6639  0.7425 -0.2283
 3577TIP3   OH211612   0.236   6.659   0.805  0.2379  0.3051  0.6809
 3577TIP3    H111613   0.321   6.651   0.761 -0.0782  3.6331 -0.8293
 3577TIP3    H211614   0.250   6.723   0.874 -1.1382  1.4312 -0.0302
 3578TIP3   OH211615   8.941   1.583   1.108  0.0073 -0.0343 -0.1630
 3578TIP3    H111616   8.964   1.582   1.201 -1.6977  1.7062  0.3482
 3578TIP3    H211617   8.853   1.622   1.106  0.3613  0.7856 -2.5622
 3579TIP3   OH211618   1.719  10.455   5.491 -0.4608 -0.0650  0.2121
 3579TIP3    H111619   1.742  10.491   5.577 -1.2126 -0.9485  0.7897
 3579TIP3    H211620   1.646  10.396   5.507 -0.8373  0.0073 -1.0920
 3580TIP3   OH211621   3.527   2.076   1.860  0.0636 -0.4921 -0.1456
 3580TIP3    H111622   3.610   2.032   1.842  0.2129  0.5141 -2.2012
 3580TIP3    H211623   3.460   2.019   1.822 -0.3082 -1.5422  1.9244
 3581TIP3   OH211624   6.686   7.617   6.006  0.4547  0.0338 -0.0456
 3581TIP3    H111625   6.608   7.672   6.000  0.2613 -0.2671 -0.3628
 3581TIP3    H211626   6.735   7.652   6.080  0.5853  0.9412 -0.5543
 3582TIP3   OH211627   2.084   3.693   9.245  0.1043 -0.2882 -0.1024
 3582TIP3    H111628   2.074   3.699   9.340  0.9327 -0.7730  0.0279
 3582TIP3    H211629   2.145   3.764   9.223 -1.6241  1.1311 -0.5654
 3583TIP3   OH211630  10.829   3.469   9.891  0.0952 -0.4851  1.4152
 3583TIP3    H111631  10.751   3.467   9.948  0.0080  2.4692  1.5728
 3583TIP3    H211632  10.903   3.466   9.952  0.0040  1.7117  1.7178
 3584TIP3   OH211633   0.672   1.749   8.939  0.0479  0.3189  0.2856
 3584TIP3    H111634   0.580   1.742   8.966  0.1950  0.6220  0.8855
 3584TIP3    H211635   0.680   1.688   8.866 -0.7051  0.5021  0.0303
 3585TIP3   OH211636  10.486   3.226   2.763  0.4956 -0.1017 -0.5381
 3585TIP3    H111637  10.423   3.264   2.702 -0.0948 -0.7338 -0.3353
 3585TIP3    H211638  10.448   3.141   2.787  1.2204 -0.3082 -0.0864
 3586TIP3   OH211639   4.933   3.916   0.428  0.3303  0.1927  0.4037
 3586TIP3    H111640   4.847   3.957   0.433  0.1517 -0.2284  0.9030
 3586TIP3    H211641   4.970   3.946   0.345 -0.2006  0.5636  0.3005
 3587TIP3   OH211642   4.596   4.068  10.559  0.2215 -0.3561  0.0500
 3587TIP3    H111643   4.549   4.001  10.608 -1.2423 -0.4985 -1.4160
 3587TIP3    H211644   4.550   4.149  10.579  0.6191 -0.1546  0.1540
 3588TIP3   OH211645   1.073   7.400   8.326  0.0947  0.5168 -0.0725
 3588TIP3    H111646   1.166   7.389   8.308  0.7603  0.2671  2.9951
 3588TIP3    H211647   1.030   7.328   8.279  1.7465 -0.8435  0.4116
 3589TIP3   OH211648   6.356   4.274   8.812  0.1988  0.8185 -0.6431
 3589TIP3    H111649   6.371   4.217   8.737  0.0754  1.4560 -1.1719
 3589TIP3    H211650   6.292   4.338   8.780 -0.4428  0.6428  0.2529
 3590TIP3   OH211651   9.056   2.550   1.060 -0.4288 -0.3197 -0.1359
 3590TIP3    H111652   9.107   2.610   1.006 -0.8377 -0.5946 -0.8518
 3590TIP3    H211653   8.970   2.592   1.067  0.2133  0.8007  2.1725
 3591TIP3   OH211654   2.244   9.780   7.391  0.5105  0.0418 -0.3820
 3591TIP3    H111655   2.243   9.864   7.346  1.4000  0.2746  0.0004
 3591TIP3    H211656   2.268   9.717   7.324  3.4362  0.5928  0.0062
 3592TIP3   OH211657   7.291   3.595   4.972 -0.1480 -0.4691 -0.7204
 3592TIP3    H111658   7.278   3.652   4.897  0.3819  1.7773  0.8101
 3592TIP3    H211659   7.222   3.529   4.964 -1.2605  0.7940 -2.1749
 3593TIP3   OH211660   0.329   0.120   4.750 -0.6800  0.3249  0.2396
 3593TIP3    H111661   0.268   0.079   4.688 -0.9347  0.3655  0.4580
 3593TIP3    H211662   0.377   0.184   4.697 -1.4609  0.9312  0.2401
 3594TIP3   OH211663   6.819   6.958  10.815 -0.0385 -0.2123  0.1239
 3594TIP3    H111664   6.841   6.884  10.758 -0.9363 -0.6432  0.3105
 3594TIP3    H211665   6.894   7.017  10.808  1.2679 -1.7051  0.9333
 3595TIP3   OH211666   4.215   1.849   5.111  0.3608  0.6922 -0.6514
 3595TIP3    H111667   4.210   1.813   5.200  0.0358  2.2111 -0.0371
 3595TIP3    H211668   4.124   1.859   5.085  0.2369 -3.8596 -2.9703
 3596TIP3   OH211669   8.280   5.054   9.294  0.0377  0.4232  0.0365
 3596TIP3    H111670   8.199   5.004   9.304  1.1545 -1.9889 -1.9652
 3596TIP3    H211671   8.268   5.104   9.213  0.5055  0.1624 -0.1931
 3597TIP3   OH211672   6.262   7.899   1.757 -0.6941 -0.0083 -0.2061
 3597TIP3    H111673   6.283   7.978   1.807 -1.7478 -0.8211  1.5891
 3597TIP3    H211674   6.240   7.834   1.822 -2.3009 -1.0927 -1.7332
 3598TIP3   OH211675   8.568   5.982   0.136  0.3114  0.1054  0.1847
 3598TIP3    H111676   8.556   6.077   0.145 -3.3275 -0.2417  0.5224
 3598TIP3    H211677   8.570   5.950   0.226  1.3424 -0.1879  0.0674
 3599TIP3   OH211678   6.799   4.276   0.712 -0.2293  0.0630  0.6424
 3599TIP3    H111679   6.703   4.283   0.715 -0.2133  0.6214 -0.0999
 3599TIP3    H211680   6.821   4.288   0.620  0.5393 -0.4048  0.7577
 3600TIP3   OH211681  10.838   8.000   1.011 -0.5109  0.4047  0.4892
 3600TIP3    H111682  10.762   8.047   1.046 -1.6673 -1.7640  1.0227
 3600TIP3    H211683  10.887   7.973   1.088 -0.3163 -0.0049  0.2232
 3601TIP3   OH211684   1.801   9.393  10.538 -0.2934  0.4678  0.5617
 3601TIP3    H111685   1.712   9.384  10.505 -0.0982 -1.0199  0.3999
 3601TIP3    H211686   1.802   9.478  10.582 -1.7371  0.5756  0.4119
 3602TIP3   OH211687   4.556   6.058   3.296 -0.4812 -0.1820 -0.3231
 3602TIP3    H111688   4.492   6.085   3.231  1.3184  1.6882 -1.4480
 3602TIP3    H211689   4.614   5.997   3.250 -0.3355 -0.3904  0.1226
 3603TIP3   OH211690   0.563   0.209   7.096  0.5381 -0.0353 -0.1351
 3603TIP3    H111691   0.467   0.200   7.090  0.4635 -0.0473  0.9549
 3603TIP3    H211692   0.590   0.136   7.153  1.0753  0.6100  0.4471
 3604TIP3   OH211693   5.969   4.106   8.725  0.7235 -0.0967  0.4472
 3604TIP3    H111694   5.944   4.017   8.699  1.6435 -0.5850  1.1867
 3604TIP3    H211695   5.921   4.122   8.806  1.1114 -0.2081  0.7037
 3605TIP3   OH211696   9.220   5.583   5.096 -0.1323  0.2471 -0.2192
 3605TIP3    H111697   9.201   5.603   5.188  1.0810  0.5504 -0.0264
 3605TIP3    H211698   9.216   5.487   5.092  1.5157  0.1098  0.5620
 3606TIP3   OH211699   3.867   2.019   2.554  0.5131 -0.2950  0.0581
 3606TIP3    H111700   3.852   1.928   2.580  0.0142 -0.4542 -0.7547
 3606TIP3    H211701   3.940   2.047   2.608  0.7466 -1.2143  0.2433
 3607TIP3   OH211702   4.968   7.487   3.164  0.2141 -0.0953 -0.1305
 3607TIP3    H111703   4.910   7.444   3.100  0.2154 -1.2044  0.5922
 3607TIP3    H211704   4.973   7.425   3.237  2.4280 -0.1105 -0.2308
 3608TIP3   OH211705   5.030   0.077   3.276  0.1038  0.1752  0.0888
 3608TIP3    H111706   5.111   0.128   3.279  0.6608 -0.7371  1.2680
 3608TIP3    H211707   4.982   0.105   3.354  0.1534 -0.6659  0.4258
 3609TIP3   OH211708   4.599   6.177   4.701 -0.3305  0.5816 -0.1897
 3609TIP3    H111709   4.639   6.242   4.758 -0.8054  2.0279 -1.4539
 3609TIP3    H211710   4.606   6.095   4.750 -0.6410  1.7370  1.8857
 3610TIP3   OH211711  10.370   0.338   1.176 -0.0220  0.2729  0.1483
 3610TIP3    H111712  10.279   0.317   1.198  0.3982 -1.8437  0.1384
 3610TIP3    H211713  10.416   0.336   1.260  0.4597 -1.4487 -0.1123
 3611TIP3   OH211714   1.005   2.260   6.519  0.0064  0.1945  0.0857
 3611TIP3    H111715   1.072   2.203   6.556  0.1735  1.1677  1.3413
 3611TIP3    H211716   1.052   2.337   6.490 -0.3572  0.1670 -0.5909
 3612TIP3   OH211717  10.730   7.068   9.514 -0.4265  0.4098 -0.3101
 3612TIP3    H111718  10.661   7.134   9.517 -0.3036  0.5238 -0.0144
 3612TIP3    H211719  10.699   7.004   9.449 -0.1275  1.2227 -1.2775
 3613TIP3   OH211720   9.668   5.034   9.105  0.4085  0.4122  0.5158
 3613TIP3    H111721   9.596   4.974   9.086  0.1033  1.1128 -0.7085
 3613TIP3    H211722   9.670   5.040   9.200 -0.9721  0.1336  0.5902
 3614TIP3   OH211723   1.404   3.154   0.973 -0.2383  0.3209 -0.2559
 3614TIP3    H111724   1.483   3.206   0.985 -1.7647  3.5541 -2.6682
 3614TIP3    H211725   1.335   3.204   1.017 -1.3224 -1.2001 -0.1571
 3615TIP3   OH211726   8.083   4.369  10.070  0.6218 -0.0830 -0.1232
 3615TIP3    H111727   8.097   4.310  10.144 -1.6211 -1.4727 -0.7093
 3615TIP3    H211728   8.159   4.355  10.014  0.9748 -1.1317  0.5817
 3616TIP3   OH211729  10.633   1.693   4.251  0.2828 -0.2923  0.4052
 3616TIP3    H111730  10.657   1.785   4.246  1.0236 -0.3594  2.0562
 3616TIP3    H211731  10.553   1.692   4.303  0.6946 -0.6199  1.0473
 3617TIP3   OH211732   0.560   6.671   9.018 -0.0075  0.1249  0.7917
 3617TIP3    H111733   0.622   6.715   8.959 -0.7781  0.9809  0.6026
 3617TIP3    H211734   0.612   6.601   9.059  0.1783 -1.5437 -2.0399
 3618TIP3   OH211735   8.822   6.172   0.292  0.2643 -0.2026  0.0096
 3618TIP3    H111736   8.816   6.262   0.260 -3.0024 -0.0590  0.6140
 3618TIP3    H211737   8.847   6.181   0.384  2.4201 -0.1576 -0.5235
 3619TIP3   OH211738   6.526   1.515   1.178 -0.4021  0.6831  0.3327
 3619TIP3    H111739   6.442   1.521   1.131 -0.6573  1.5760  0.8840
 3619TIP3    H211740   6.501   1.486   1.266 -0.0053 -0.1608  0.1834
 3620TIP3   OH211741   7.031   9.700   9.383  0.1880  0.3615  0.4139
 3620TIP3    H111742   7.035   9.646   9.304 -2.1327  2.0696 -1.0208
 3620TIP3    H211743   7.107   9.757   9.377  0.3309  0.1057 -0.3100
 3621TIP3   OH211744   6.873   4.071   5.581 -0.4313  0.1062  0.2338
 3621TIP3    H111745   6.917   4.064   5.665 -0.2298  0.7734  0.1926
 3621TIP3    H211746   6.904   4.154   5.545 -1.0472  0.1606 -0.1860
 3622TIP3   OH211747   0.669   1.426   4.638 -0.3432 -0.9778  0.3389
 3622TIP3    H111748   0.722   1.504   4.656 -1.3282 -0.3076  0.4097
 3622TIP3    H211749   0.605   1.424   4.709 -1.9983 -0.3448 -1.0816
 3623TIP3   OH211750   4.832   4.027  10.049 -0.0465  0.2591 -0.7425
 3623TIP3    H111751   4.831   3.947  10.102  3.6405 -0.0166 -0.8062
 3623TIP3    H211752   4.843   4.098  10.113  0.7319  0.2888 -0.8997
 3624TIP3   OH211753   3.020   8.726   8.050  0.0179 -0.6293  0.1294
 3624TIP3    H111754   2.937   8.679   8.063  0.6074 -1.7781 -0.2110
 3624TIP3    H211755   3.028   8.737   7.956 -1.0186  1.8754  0.2370
 3625TIP3   OH211756   3.353   1.173   9.789  0.1759  0.1614  0.2139
 3625TIP3    H111757   3.382   1.215   9.708  1.3981 -0.7738  0.1370
 3625TIP3    H211758   3.433   1.162   9.841 -0.0731 -2.0129  0.2301
 3626TIP3   OH211759   1.799   3.621   8.877 -0.1474 -0.0152 -0.3056
 3626TIP3    H111760   1.740   3.696   8.878  1.1287  1.0403  1.2828
 3626TIP3    H211761   1.785   3.577   8.961  1.5579  0.5074  0.2987
 3627TIP3   OH211762   8.108   3.404   2.060 -0.0356 -0.1557  0.2114
 3627TIP3    H111763   8.093   3.498   2.053  2.4410  0.2164 -1.0678
 3627TIP3    H211764   8.084   3.369   1.974 -3.4031 -1.2301  1.3873
 3628TIP3   OH211765   1.270   4.603   1.860  0.2068  0.2336  0.3315
 3628TIP3    H111766   1.261   4.627   1.952  0.7461 -0.2002  0.5016
 3628TIP3    H211767   1.336   4.663   1.826  3.8045 -2.6926  1.4705
 3629TIP3   OH211768   8.575   6.688   8.268  0.0080  0.2313 -0.6349
 3629TIP3    H111769   8.584   6.724   8.180  0.0160 -0.6447 -0.9968
 3629TIP3    H211770   8.612   6.600   8.263  1.5673  0.7525  0.6639
 3630TIP3   OH211771   6.037   3.958  10.696  0.4344  0.0473 -0.0514
 3630TIP3    H111772   5.945   3.947  10.673  0.7857 -0.3118 -1.3443
 3630TIP3    H211773   6.070   3.868  10.706  1.2100  0.0848 -1.9927
 3631TIP3   OH211774   4.896   3.304   8.104 -0.0879  0.2778 -0.0449
 3631TIP3    H111775   4.884   3.257   8.022 -2.4765 -0.6789  0.7543
 3631TIP3    H211776   4.858   3.246   8.170  1.0051  1.3845  1.6246
 3632TIP3   OH211777   0.749   5.550   6.995  0.3446  0.2844 -0.4739
 3632TIP3    H111778   0.815   5.490   7.029  0.8536  0.8202 -0.5027
 3632TIP3    H211779   0.783   5.638   7.014 -0.7346  0.5718  0.2196
 3633TIP3   OH211780   3.126   3.253   9.817  0.1832  0.0562  0.5848
 3633TIP3    H111781   3.080   3.279   9.897 -0.9819  1.8587 -0.5794
 3633TIP3    H211782   3.058   3.256   9.749  1.4445  0.0272 -0.7172
 3634TIP3   OH211783   3.929   2.817   8.340  0.4876  0.4897 -0.0639
 3634TIP3    H111784   3.998   2.829   8.274  0.6747 -2.2814 -0.4714
 3634TIP3    H211785   3.975   2.826   8.424  0.6022  2.1864 -0.2770
 3635TIP3   OH211786   2.588   4.616   4.723  0.4840  0.3150 -0.3797
 3635TIP3    H111787   2.595   4.637   4.630  3.9235  1.6494  0.0201
 3635TIP3    H211788   2.678   4.602   4.751 -0.4355 -0.0909  2.7669
 3636TIP3   OH211789   3.535   0.161   9.350 -0.3585  0.5020 -0.0211
 3636TIP3    H111790   3.577   0.245   9.330  0.8575  0.4713  2.1102
 3636TIP3    H211791   3.500   0.172   9.438 -1.3820 -0.8069 -0.2418
 3637TIP3   OH211792   1.800   9.330   6.038 -0.0357  0.0281  0.2646
 3637TIP3    H111793   1.845   9.411   6.061 -1.4313  0.7994  0.4196
 3637TIP3    H211794   1.734   9.356   5.974 -0.5571 -0.9772  0.3638
 3638TIP3   OH211795   7.377   4.853   6.561  0.3544  0.7600  0.0353
 3638TIP3    H111796   7.396   4.760   6.545 -0.4977  0.6376 -0.2988
 3638TIP3    H211797   7.365   4.889   6.473 -0.9965  0.8171  0.2248
 3639TIP3   OH211798   3.054   6.974   9.030  0.3114  0.4173 -0.3254
 3639TIP3    H111799   3.068   7.016   9.115  0.8973  2.3180 -1.2913
 3639TIP3    H211800   3.118   6.903   9.027  0.0083  0.0763  0.9670
 3640TIP3   OH211801   4.857  10.154   9.658 -0.2765  0.0571  0.5600
 3640TIP3    H111802   4.844  10.087   9.726 -0.2327 -0.9374 -0.3715
 3640TIP3    H211803   4.776  10.151   9.607 -0.1943  0.5946  0.3969
 3641TIP3   OH211804   3.425   1.333   0.782 -0.0260 -0.8589 -0.0774
 3641TIP3    H111805   3.361   1.343   0.853 -1.5575 -1.1575 -1.3419
 3641TIP3    H211806   3.493   1.277   0.818 -1.4220 -2.0841  0.7639
 3642TIP3   OH211807   6.758   1.369   2.744 -0.7009  0.7056 -0.8073
 3642TIP3    H111808   6.717   1.402   2.824 -0.4868  0.3235 -0.5406
 3642TIP3    H211809   6.835   1.321   2.774  1.8536  4.0176 -1.3957
 3643TIP3   OH211810   7.216   4.119   8.517  0.0128 -0.1749  0.2110
 3643TIP3    H111811   7.149   4.154   8.458  0.9681  0.1586 -0.6980
 3643TIP3    H211812   7.275   4.070   8.460 -0.4812 -2.0738  1.2582
 3644TIP3   OH211813   5.981   6.021   4.337  0.3573 -0.4236 -0.2448
 3644TIP3    H111814   5.994   5.929   4.314 -0.0515 -0.3397 -0.8406
 3644TIP3    H211815   5.980   6.022   4.433 -2.1116 -1.4408 -0.1774
 3645TIP3   OH211816   6.833   2.236   0.145 -0.1767  0.4262  0.4540
 3645TIP3    H111817   6.901   2.223   0.079 -0.0034 -1.5323  0.9544
 3645TIP3    H211818   6.751   2.240   0.096 -0.1394 -1.8294  0.1061
 3646TIP3   OH211819   6.362   9.214  10.659  0.0156  0.4067  0.1664
 3646TIP3    H111820   6.317   9.204  10.575  1.1929 -0.3466 -0.4054
 3646TIP3    H211821   6.412   9.133  10.670  0.1624  0.6450  1.4235
 3647TIP3   OH211822   8.991   5.850   8.190  0.1471  0.0863  0.0283
 3647TIP3    H111823   9.084   5.844   8.167 -0.1555 -0.4538 -1.1179
 3647TIP3    H211824   8.979   5.941   8.217  0.4906  0.8857 -2.2702
 3648TIP3   OH211825   1.101   8.473  10.076 -0.1279  0.3055 -0.5537
 3648TIP3    H111826   1.035   8.533  10.109  0.3801  1.2555 -1.2407
 3648TIP3    H211827   1.055   8.420  10.010 -1.0026 -1.2216  1.1700
 3649TIP3   OH211828   7.611   8.556  10.273 -0.1123 -0.0431  0.0850
 3649TIP3    H111829   7.562   8.479  10.243  1.5411 -0.6224 -1.3105
 3649TIP3    H211830   7.593   8.623  10.207  2.7954 -1.0251 -1.8586
 3650TIP3   OH211831   5.275   6.320   8.707 -0.7058  0.8270  0.1080
 3650TIP3    H111832   5.362   6.317   8.667  0.4005 -0.4904  2.3791
 3650TIP3    H211833   5.284   6.383   8.778 -0.9405 -0.7833  1.6351
 3651TIP3   OH211834   5.152   4.983   8.484  0.4522  0.2775 -0.5565
 3651TIP3    H111835   5.199   4.900   8.483 -0.5438 -0.3006 -1.4187
 3651TIP3    H211836   5.130   4.996   8.577  0.6061 -0.4293 -0.4119
 3652TIP3   OH211837   8.634   5.389   5.264 -0.9646 -0.3685 -0.0591
 3652TIP3    H111838   8.721   5.421   5.286 -0.9434 -1.9877  2.8357
 3652TIP3    H211839   8.629   5.392   5.169  1.4751  1.6177 -0.2091
 3653TIP3   OH211840   6.302   1.290   8.414  0.0366 -0.0460  0.0353
 3653TIP3    H111841   6.397   1.301   8.413 -0.0922  1.3713  0.7243
 3653TIP3    H211842   6.289   1.195   8.413  1.4140 -0.2742 -1.3480
 3654TIP3   OH211843   6.551  10.652   9.490  0.2153 -0.5770 -0.0729
 3654TIP3    H111844   6.461  10.628   9.510 -0.0498  0.6401  0.2820
 3654TIP3    H211845   6.546  10.702   9.409  0.6166 -0.7466 -0.2086
 3655TIP3   OH211846   3.814   8.147   9.484  0.7067 -0.3456  0.9419
 3655TIP3    H111847   3.880   8.135   9.415  1.2442 -0.1564  1.4219
 3655TIP3    H211848   3.847   8.218   9.538 -0.9624  1.2951 -0.0706
 3656TIP3   OH211849   8.979   4.830   6.445  0.0288  0.0238 -0.5138
 3656TIP3    H111850   8.964   4.763   6.378 -4.7045 -0.2035  0.3912
 3656TIP3    H211851   9.020   4.783   6.517 -1.2010 -1.4787 -0.7252
 3657TIP3   OH211852   6.823   0.635   9.209  0.0221 -0.2223 -0.1792
 3657TIP3    H111853   6.874   0.699   9.158 -0.3356  0.9646  0.9021
 3657TIP3    H211854   6.735   0.672   9.212  0.0104 -0.3383  1.1873
 3658TIP3   OH211855   1.049   6.155   9.888  0.0898  0.0469 -0.3499
 3658TIP3    H111856   0.979   6.154   9.953 -0.3263  0.9312 -0.7787
 3658TIP3    H211857   1.020   6.216   9.821  0.6284 -0.6742 -1.2622
 3659TIP3   OH211858   8.022   4.110   9.565 -0.4965  0.1891  0.0396
 3659TIP3    H111859   7.949   4.170   9.579 -0.7254 -0.4510  1.9304
 3659TIP3    H211860   8.025   4.057   9.645  1.3707 -0.5246 -0.4477
 3660TIP3   OH211861   7.914   4.613   4.726 -0.4981  0.5803 -0.5907
 3660TIP3    H111862   7.888   4.662   4.805 -1.3758 -0.9919  0.1519
 3660TIP3    H211863   7.958   4.678   4.671 -0.7444  1.9611  0.7582
 3661TIP3   OH211864   5.396   1.994   4.106 -0.2731  0.4993  0.3668
 3661TIP3    H111865   5.409   1.955   4.192 -0.3434  0.3304  0.3018
 3661TIP3    H211866   5.324   2.056   4.118  0.7438  1.6604  0.8006
 3662TIP3   OH211867   6.685   6.866   5.919  0.6120  0.2272  0.4551
 3662TIP3    H111868   6.750   6.837   5.983  0.2634 -0.0156  0.7066
 3662TIP3    H211869   6.709   6.956   5.900  0.4279  0.4652  1.3133
 3663TIP3   OH211870   2.844   2.741   7.656 -0.4267 -0.4413 -0.4361
 3663TIP3    H111871   2.895   2.716   7.579 -0.1525 -0.6064 -0.2030
 3663TIP3    H211872   2.871   2.830   7.676  0.2431 -0.7540  0.0688
 3664TIP3   OH211873  10.901   4.553   0.438 -0.3657 -0.2554 -1.2198
 3664TIP3    H111874  10.899   4.613   0.512 -1.4797 -2.0103  0.2687
 3664TIP3    H211875  10.994   4.536   0.423 -0.1438 -0.8215  0.6205
 3665TIP3   OH211876   6.955   9.182   4.246 -0.1472 -0.1397 -0.2609
 3665TIP3    H111877   7.004   9.235   4.183 -1.6796  0.4435 -1.0326
 3665TIP3    H211878   6.987   9.211   4.332  1.7455 -0.7211 -0.7245
 3666TIP3   OH211879   9.424   3.031   5.659  0.0665 -0.1053 -0.6509
 3666TIP3    H111880   9.460   2.946   5.685  1.9735  0.0800 -2.3940
 3666TIP3    H211881   9.500   3.083   5.635 -1.1837  1.5416 -1.2714
 3667TIP3   OH211882   2.743   6.775   7.898 -0.6102 -0.2010 -0.0225
 3667TIP3    H111883   2.775   6.686   7.888  1.2387  0.4871 -0.6992
 3667TIP3    H211884   2.694   6.792   7.817 -0.0069 -0.2355 -0.3971
 3668TIP3   OH211885   3.388   9.112   9.973  0.6650  0.4298  0.3476
 3668TIP3    H111886   3.382   9.076   9.885 -0.7922  0.4174  0.4251
 3668TIP3    H211887   3.347   9.198   9.967  1.1938  0.7309  0.8698
 3669TIP3   OH211888   6.153   2.885   5.607  0.8821  0.1928  0.3014
 3669TIP3    H111889   6.217   2.917   5.670  0.0125 -0.6832  1.6946
 3669TIP3    H211890   6.204   2.836   5.543  1.8348  1.4804  0.0374
 3670TIP3   OH211891   7.187   6.173   3.213 -0.3411 -0.0287 -0.1589
 3670TIP3    H111892   7.226   6.166   3.300 -0.0060 -0.3119 -0.3263
 3670TIP3    H211893   7.226   6.100   3.164 -2.2604 -1.3056  0.0940
 3671TIP3   OH211894   9.811   4.278   8.545  0.5946 -0.2864  0.1984
 3671TIP3    H111895   9.881   4.215   8.560  0.8770  0.1682  0.8222
 3671TIP3    H211896   9.847   4.362   8.573 -0.5819 -0.2249  1.6372
 3672TIP3   OH211897   6.605   7.894   0.777 -0.1526 -0.1015  0.1977
 3672TIP3    H111898   6.654   7.903   0.695 -2.7090  0.2561 -1.4006
 3672TIP3    H211899   6.618   7.803   0.803  1.1007 -0.0876 -0.3290
 3673TIP3   OH211900   9.589  10.430   2.403 -0.8472 -0.0513 -0.0436
 3673TIP3    H111901   9.514  10.391   2.358  1.5232 -0.7536 -3.7654
 3673TIP3    H211902   9.596  10.518   2.366  0.6877 -0.3441 -0.5170
 3674TIP3   OH211903  10.312   4.816   6.736 -0.0680  0.3799  0.1153
 3674TIP3    H111904  10.396   4.778   6.710 -0.2140  0.9375 -1.2190
 3674TIP3    H211905  10.326   4.911   6.733 -0.7182  0.4740 -0.0103
 3675TIP3   OH211906   3.441   0.925   1.541 -0.2427 -0.2782  0.1072
 3675TIP3    H111907   3.400   0.977   1.471 -0.0524 -2.8568 -2.0712
 3675TIP3    H211908   3.372   0.915   1.606 -0.8880  1.0455 -0.3320
 3676TIP3   OH211909   9.299   3.317   7.035  0.3061 -0.6970 -0.3710
 3676TIP3    H111910   9.302   3.235   6.985  2.9696 -1.0014  0.1424
 3676TIP3    H211911   9.231   3.369   6.993 -0.6450 -2.7118 -1.4363
 3677TIP3   OH211912   9.123   1.375   5.901  0.5092 -0.0453  0.4286
 3677TIP3    H111913   9.201   1.414   5.862 -0.0081  1.0901  0.4906
 3677TIP3    H211914   9.062   1.364   5.828  0.0170  0.8866  0.6843
 3678TIP3   OH211915   4.039   0.445   6.281  0.2757 -0.6679 -0.1013
 3678TIP3    H111916   4.105   0.385   6.248  1.6697  0.6905  0.0960
 3678TIP3    H211917   4.064   0.461   6.372  1.9254  2.6582 -0.9900
 3679TIP3   OH211918   9.757   3.304   9.762  0.2693 -0.3152  0.3408
 3679TIP3    H111919   9.725   3.380   9.714  0.2361 -0.2578  0.4542
 3679TIP3    H211920   9.847   3.325   9.785 -0.3642  0.5728  2.1849
 3680TIP3   OH211921   6.195   5.046   4.034  0.5465  0.9028 -0.2216
 3680TIP3    H111922   6.150   5.125   4.065 -2.6979 -1.2402  1.0280
 3680TIP3    H211923   6.179   5.046   3.940 -1.4467  0.6975  0.0566
 3681TIP3   OH211924   4.770   4.733   5.400 -0.2962  0.4701 -0.4008
 3681TIP3    H111925   4.731   4.702   5.318 -0.2370  0.9686 -0.6250
 3681TIP3    H211926   4.725   4.684   5.468 -1.0679  0.7739 -0.6742
 3682TIP3   OH211927   4.877   5.782   6.512 -0.1740  0.8654 -0.1092
 3682TIP3    H111928   4.955   5.816   6.470 -0.0029  1.2920  0.5291
 3682TIP3    H211929   4.909   5.742   6.593 -0.4071 -0.5830 -0.7129
 3683TIP3   OH211930   7.812  10.682   2.516  0.3375 -0.1177 -0.2785
 3683TIP3    H111931   7.789  10.752   2.456  0.0671  0.3648  0.3726
 3683TIP3    H211932   7.796  10.601   2.467 -0.6537  0.2531 -0.5735
 3684TIP3   OH211933   6.962   0.334   7.520  0.2126 -0.0798 -0.1275
 3684TIP3    H111934   7.054   0.332   7.547 -0.1393 -1.2418  1.0866
 3684TIP3    H211935   6.953   0.260   7.461 -0.6852 -2.2627  2.5419
 3685TIP3   OH211936   3.124   4.770   4.091 -0.1423 -0.2857  0.3363
 3685TIP3    H111937   3.059   4.834   4.118 -0.2365 -0.9233  1.7080
 3685TIP3    H211938   3.191   4.822   4.046 -0.6917  0.6327  0.5486
 3686TIP3   OH211939   5.282   7.077   6.183  0.5217 -0.0269 -0.0410
 3686TIP3    H111940   5.347   7.134   6.224  1.3077  0.9978 -2.4968
 3686TIP3    H211941   5.198   7.118   6.204  0.5361 -1.3708  3.1794
 3687TIP3   OH211942   4.315   6.938   3.097  0.2710  0.8233  0.4789
 3687TIP3    H111943   4.327   6.904   3.008  0.8314  1.9738  0.0960
 3687TIP3    H211944   4.271   6.867   3.144 -0.6524  0.4388 -0.8902
 3688TIP3   OH211945   7.850   3.822   4.883 -0.4037  0.6204 -0.2729
 3688TIP3    H111946   7.783   3.767   4.840  0.9502 -1.2992 -0.0626
 3688TIP3    H211947   7.873   3.887   4.817 -2.0567  0.9846 -0.5481
 3689TIP3   OH211948   3.776  10.019   2.365 -0.1747 -0.5756 -0.0698
 3689TIP3    H111949   3.851   9.972   2.400  1.1982  2.3268  1.1421
 3689TIP3    H211950   3.703   9.992   2.420  0.8434 -0.3190  1.4514
 3690TIP3   OH211951   3.673   1.377  10.674 -0.0959 -0.8880  0.7283
 3690TIP3    H111952   3.680   1.470  10.653  1.0151 -0.4705  2.6581
 3690TIP3    H211953   3.732   1.333  10.613  0.2823 -0.1811  0.5761
 3691TIP3   OH211954   8.850   7.156   3.408 -0.3414 -0.0763  0.7106
 3691TIP3    H111955   8.872   7.115   3.492  0.7873 -0.5523  0.2063
 3691TIP3    H211956   8.922   7.132   3.350 -0.9648  0.4756 -0.3273
 3692TIP3   OH211957   3.474   1.521   9.827  0.0572  0.3500 -0.2891
 3692TIP3    H111958   3.420   1.556   9.756 -1.0959  0.4292  0.6072
 3692TIP3    H211959   3.557   1.497   9.784 -0.1522  1.5522 -1.4177
 3693TIP3   OH211960   2.560   2.209   6.722  0.0749 -0.0887  0.1717
 3693TIP3    H111961   2.483   2.203   6.666  1.3131 -0.2938 -1.5760
 3693TIP3    H211962   2.621   2.264   6.673  1.1586 -0.1720  1.3857
 3694TIP3   OH211963   8.955   1.579  10.532 -0.9147  0.0578 -0.3565
 3694TIP3    H111964   8.930   1.532  10.453  1.1573 -0.5833 -0.6983
 3694TIP3    H211965   9.001   1.514  10.585  1.1145  1.3676 -0.3777
 3695TIP3   OH211966   4.673   6.250   1.624 -0.2164  0.3332 -0.1189
 3695TIP3    H111967   4.593   6.216   1.583  1.6056 -1.0371 -2.8757
 3695TIP3    H211968   4.662   6.233   1.717 -2.8966 -0.2726 -0.4773
 3696TIP3   OH211969   9.224   4.435   5.371 -0.0437  0.2593 -0.1347
 3696TIP3    H111970   9.176   4.354   5.391 -0.4049  0.1686 -1.2746
 3696TIP3    H211971   9.302   4.406   5.325 -0.4782  0.5701 -1.1041
 3697TIP3   OH211972   0.149  10.452   4.690  0.5158  0.4661  1.0912
 3697TIP3    H111973   0.241  10.447   4.662 -0.0404 -1.7572 -0.5836
 3697TIP3    H211974   0.122  10.361   4.700 -1.9010  1.0219  0.2093
 3698TIP3   OH211975   9.358   6.929   9.781 -0.2079 -0.1557  0.3181
 3698TIP3    H111976   9.344   6.981   9.860  0.0140 -0.9253  0.8827
 3698TIP3    H211977   9.441   6.961   9.746 -0.1884  0.0292  0.5286
 3699TIP3   OH211978  10.033   4.438   4.253 -0.8988 -0.4202 -0.0393
 3699TIP3    H111979   9.961   4.495   4.280  0.2999  1.0579  0.2134
 3699TIP3    H211980  10.051   4.463   4.163 -0.5829 -0.6441 -0.0394
 3700TIP3   OH211981   3.019   0.650   7.656  0.2093  0.6978 -0.0490
 3700TIP3    H111982   2.946   0.656   7.719  1.1163  0.7503  1.0320
 3700TIP3    H211983   3.007   0.725   7.598 -1.0056  0.2961 -0.3474
 3701TIP3   OH211984   6.479   9.583   9.835  0.2309 -0.4957  0.6171
 3701TIP3    H111985   6.403   9.612   9.885  0.2474  0.3613  0.1588
 3701TIP3    H211986   6.504   9.500   9.876 -0.4803 -0.4074  1.2575
 3702TIP3   OH211987   2.211   3.756   6.451 -0.4925 -0.1799  0.7300
 3702TIP3    H111988   2.216   3.700   6.374  0.8245 -1.2637  1.5551
 3702TIP3    H211989   2.221   3.845   6.417 -1.5212 -0.5068 -0.4925
 3703TIP3   OH211990   6.816  10.726   2.773 -0.4868  0.7944 -0.7481
 3703TIP3    H111991   6.837  10.694   2.685 -1.4495 -1.2351 -0.2714
 3703TIP3    H211992   6.723  10.709   2.784 -0.3305  0.7796  0.7578
 3704TIP3   OH211993   9.435   9.540  10.537 -0.4045 -0.2375  0.3747
 3704TIP3    H111994   9.503   9.522  10.602 -1.5673 -0.2509  1.6258
 3704TIP3    H211995   9.461   9.488  10.461  0.4184 -1.0949  1.2091
 3705TIP3   OH211996   7.499   6.144   9.747 -0.2634  0.4720  0.3262
 3705TIP3    H111997   7.531   6.090   9.819  2.7869 -0.3233 -1.4614
 3705TIP3    H211998   7.446   6.083   9.694  1.0898 -0.1664 -0.3460
 3706TIP3   OH211999   4.187   4.236   6.209  0.7702 -0.5890 -0.1737
 3706TIP3    H112000   4.135   4.222   6.130 -0.7110  2.8423  0.0217
 3706TIP3    H212001   4.276   4.214   6.183 -0.0339 -1.9414 -2.0132
 3707TIP3   OH212002   8.402   1.773   5.340  0.4184  0.6346 -0.1953
 3707TIP3    H112003   8.451   1.832   5.398 -0.5201  1.8455 -0.5884
 3707TIP3    H212004   8.358   1.712   5.398 -0.2286  1.6144  0.3753
 3708TIP3   OH212005   3.448  10.461   0.458  0.0264  0.1119  0.2978
 3708TIP3    H112006   3.453  10.454   0.363 -0.0229  0.9335  0.2239
 3708TIP3    H212007   3.521  10.408   0.490  0.6111  0.5692 -0.2393
 3709TIP3   OH212008   9.866   5.334   8.597  0.0722 -0.1764  0.0777
 3709TIP3    H112009   9.863   5.389   8.519  1.7939  0.1120  0.1681
 3709TIP3    H212010   9.947   5.284   8.588  1.5673  1.5273  2.7154
 3710TIP3   OH212011  10.534   4.261   3.320  0.2085 -0.5210  0.1863
 3710TIP3    H112012  10.502   4.195   3.258 -0.8236 -1.0283  1.2126
 3710TIP3    H212013  10.626   4.238   3.334  0.4100 -0.4850 -1.0305
 3711TIP3   OH212014   3.080   0.747   4.780 -0.3792  0.1835  0.2270
 3711TIP3    H112015   3.126   0.692   4.717 -1.1796 -2.6066  1.9228
 3711TIP3    H212016   3.147   0.772   4.844 -0.4980 -1.0022  0.8334
 3712TIP3   OH212017   1.083   5.012   2.836 -0.0432 -0.0979 -0.2548
 3712TIP3    H112018   1.049   5.066   2.906  0.3921  1.9805 -1.5588
 3712TIP3    H212019   1.007   4.966   2.801 -0.9496  1.7840 -0.8625
 3713TIP3   OH212020   9.618   7.922   9.158  0.0490 -0.1464  0.7954
 3713TIP3    H112021   9.675   7.993   9.187  1.5450 -1.5821  1.5226
 3713TIP3    H212022   9.637   7.912   9.065  0.5144 -0.2066  0.8965
 3714TIP3   OH212023   6.464   6.760   2.547 -0.2582 -0.0820 -0.7657
 3714TIP3    H112024   6.551   6.723   2.539  0.2014  1.0099 -0.9886
 3714TIP3    H212025   6.431   6.727   2.630  1.3471  1.4629  0.5412
 3715TIP3   OH212026  10.266   4.426   9.654  0.5320  0.3655 -0.5926
 3715TIP3    H112027  10.323   4.407   9.579  0.5103  0.0088 -0.5197
 3715TIP3    H212028  10.327   4.452   9.723  1.0292 -3.4970  0.6593
 3716TIP3   OH212029   9.969   3.019   9.011  0.2821  0.5937  0.1119
 3716TIP3    H112030   9.880   2.993   9.033  0.4627 -0.4394 -0.2859
 3716TIP3    H212031   9.989   3.091   9.070 -0.8782  0.9574  0.0686
 3717TIP3   OH212032   1.376   9.929   9.273  0.2036 -0.3267  0.0459
 3717TIP3    H112033   1.370  10.000   9.337 -1.8398 -0.5649  0.2003
 3717TIP3    H212034   1.390   9.850   9.326  0.7481 -0.2465  0.0189
 3718TIP3   OH212035   6.077   2.064   2.739  0.1473  0.5400 -0.4397
 3718TIP3    H112036   6.062   1.988   2.682 -1.8094 -0.6074  1.4327
 3718TIP3    H212037   6.087   2.138   2.679  3.3365 -1.2496 -2.4189
 3719TIP3   OH212038   2.766   8.764   4.962  0.6553  0.0117  0.1797
 3719TIP3    H112039   2.764   8.703   5.035  0.4278  1.0214  1.0427
 3719TIP3    H212040   2.689   8.741   4.910  0.0462  0.1517  0.9997
 3720TIP3   OH212041   2.860   4.945   8.660  0.4113  0.3055  0.3640
 3720TIP3    H112042   2.813   4.930   8.578 -0.5864  1.6465  0.6634
 3720TIP3    H212043   2.800   4.913   8.728  0.5146  0.7652  0.6722
 3721TIP3   OH212044   4.620   8.378   7.604 -0.3553  0.3062  0.0959
 3721TIP3    H112045   4.686   8.350   7.668  1.4523  1.9760 -0.9313
 3721TIP3    H212046   4.604   8.470   7.625 -1.6372  0.1899 -0.3151
 3722TIP3   OH212047  10.464   7.547   0.732  0.1324 -0.2111  0.2040
 3722TIP3    H112048  10.395   7.485   0.755 -0.4637  0.5661  0.5233
 3722TIP3    H212049  10.431   7.593   0.655  0.1240  0.4378  0.5954
 3723TIP3   OH212050   5.976   3.350   3.063  0.1655 -0.4378  0.5344
 3723TIP3    H112051   6.033   3.319   3.133  0.0000 -1.1031  0.3812
 3723TIP3    H212052   5.989   3.445   3.061 -0.3033 -0.3247  1.8823
 3724TIP3   OH212053   8.697   2.605   9.258 -0.2066  0.4246 -0.1856
 3724TIP3    H112054   8.682   2.626   9.166 -2.6174 -0.8457 -0.1734
 3724TIP3    H212055   8.614   2.566   9.287  0.0123  1.8791  2.8549
 3725TIP3   OH212056   5.770   0.218   4.258 -0.0271 -0.2279 -0.0436
 3725TIP3    H112057   5.830   0.285   4.290 -0.1229  2.2222 -4.1775
 3725TIP3    H212058   5.823   0.167   4.196 -1.1353 -0.8690 -0.4877
 3726TIP3   OH212059   8.664   9.079  10.193 -0.3611 -0.0922  0.2060
 3726TIP3    H112060   8.743   9.128  10.215  0.8849 -2.3837  1.2955
 3726TIP3    H212061   8.682   9.039  10.108 -1.6608  1.7937 -1.0308
 3727TIP3   OH212062   9.476   2.768   0.272 -0.0539  0.4609  0.2132
 3727TIP3    H112063   9.404   2.739   0.327  1.9429 -0.7239  2.4022
 3727TIP3    H212064   9.495   2.857   0.304  0.0356  0.4158  0.2864
 3728TIP3   OH212065   5.969   8.692   2.429  0.2492 -0.0886  0.1515
 3728TIP3    H112066   5.902   8.679   2.496  0.0146  0.9049  0.1160
 3728TIP3    H212067   6.050   8.705   2.479  0.4114 -1.1714  0.1957
 3729TIP3   OH212068   3.258   2.943   0.177 -0.0620  0.3598 -0.0783
 3729TIP3    H112069   3.307   2.982   0.105  0.6098 -0.6945 -0.2034
 3729TIP3    H212070   3.166   2.960   0.156  0.1361  0.2078 -1.0842
 3730TIP3   OH212071   3.384   6.297   8.551  0.3654 -0.4957 -0.1713
 3730TIP3    H112072   3.346   6.268   8.634 -1.0087 -0.0666 -0.6253
 3730TIP3    H212073   3.472   6.258   8.550  0.8016  0.2875  1.9261
 3731TIP3   OH212074   1.575   0.579  10.591 -0.2959  0.9968 -0.1854
 3731TIP3    H112075   1.646   0.639  10.572  0.0759  0.9840  1.0678
 3731TIP3    H212076   1.616   0.493  10.598 -0.7712  0.6266 -1.6052
 3732TIP3   OH212077   0.519   3.660   0.779  0.0305  0.0267 -0.2713
 3732TIP3    H112078   0.491   3.746   0.748  0.5667 -0.2212 -1.4976
 3732TIP3    H212079   0.482   3.653   0.867 -0.3495  1.3441 -0.3055
 3733TIP3   OH212080   6.064   3.596   3.006 -0.2900  0.2956 -0.3195
 3733TIP3    H112081   6.152   3.588   2.970 -0.6701 -0.0167 -1.2057
 3733TIP3    H212082   6.026   3.670   2.958 -0.8742 -0.2537 -0.7082
 3734TIP3   OH212083   4.234   4.977   5.793 -0.0516 -0.2481 -0.1478
 3734TIP3    H112084   4.203   5.027   5.869  0.9446 -0.7093  0.6017
 3734TIP3    H212085   4.218   5.034   5.718 -3.9440 -0.9792 -0.0651
 3735TIP3   OH212086   8.800   4.617   4.549  0.0978  0.9029 -0.3229
 3735TIP3    H112087   8.872   4.608   4.486 -0.5607 -0.5183 -0.9196
 3735TIP3    H212088   8.730   4.660   4.499 -0.4234 -0.2190 -0.5800
 3736TIP3   OH212089   8.928   7.193   7.113  0.1700 -0.4946 -0.3015
 3736TIP3    H112090   8.919   7.288   7.117 -0.3887 -0.5687  0.3009
 3736TIP3    H212091   8.997   7.173   7.175 -0.0498 -0.5213 -0.0616
 3737TIP3   OH212092   6.988   2.914  10.190 -0.5562  0.0010  0.3532
 3737TIP3    H112093   7.011   3.000  10.226 -0.3692 -0.7264  2.0763
 3737TIP3    H212094   6.918   2.882  10.247  1.5403 -2.3265  1.8374
 3738TIP3   OH212095   6.577   0.147   2.263 -0.0248  0.1180 -0.5154
 3738TIP3    H112096   6.536   0.225   2.225 -1.2133 -0.1234  0.2187
 3738TIP3    H212097   6.550   0.148   2.355  0.0963 -1.0632 -0.4568
 3739TIP3   OH212098   4.405   3.386   4.184  0.2296 -0.2662  0.0542
 3739TIP3    H112099   4.381   3.357   4.096  3.0224 -0.9261 -0.5673
 3739TIP3    H212100   4.342   3.343   4.241 -1.4138 -0.1190 -1.5412
 3740TIP3   OH212101   5.292   0.805   7.749 -0.8433  0.5215 -0.0849
 3740TIP3    H112102   5.198   0.789   7.739 -0.3498 -1.6361 -1.9206
 3740TIP3    H212103   5.333   0.748   7.685  1.7957  0.8172  1.2261
 3741TIP3   OH212104   6.501   6.127   3.921  0.6755 -0.1583 -0.0227
 3741TIP3    H112105   6.469   6.102   3.834  1.2933 -0.3705 -0.1974
 3741TIP3    H212106   6.548   6.209   3.907 -0.7089  0.7489  0.4224
 3742TIP3   OH212107   1.152   0.285  10.620 -0.5266 -0.1170  0.5373
 3742TIP3    H112108   1.241   0.299  10.589 -1.4196  0.6145 -1.8787
 3742TIP3    H212109   1.127   0.200  10.583 -1.0662 -0.0233  0.6760
 3743TIP3   OH212110  10.723   2.095   8.699  0.3024  0.6748  0.1592
 3743TIP3    H112111  10.768   2.179   8.711  0.3159  0.4260  2.3214
 3743TIP3    H212112  10.652   2.097   8.764 -0.2678 -0.6218 -0.3933
 3744TIP3   OH212113   0.453   9.589   0.214 -0.0479 -0.0147  0.2881
 3744TIP3    H112114   0.415   9.536   0.284 -1.5829  1.5813  0.7480
 3744TIP3    H212115   0.528   9.632   0.254 -0.6404  0.5234  0.8564
 3745TIP3   OH212116   1.425   6.746   7.419 -0.1119  0.2512 -0.1951
 3745TIP3    H112117   1.371   6.818   7.387  0.0040  0.4683  0.0929
 3745TIP3    H212118   1.365   6.690   7.468 -0.2224  0.0965 -0.5039
 3746TIP3   OH212119   2.772   1.211   0.980 -0.2007  0.3717  0.2427
 3746TIP3    H112120   2.684   1.235   1.009 -0.1441 -0.4435  1.1157
 3746TIP3    H212121   2.759   1.127   0.934  0.0543  0.4856 -0.0360
 3747TIP3   OH212122   3.639  10.077   6.691 -0.2177 -0.1539  0.3135
 3747TIP3    H112123   3.556  10.088   6.739 -0.3646 -0.7217  0.1970
 3747TIP3    H212124   3.660   9.985   6.701 -0.5669 -0.4186 -1.2127
 3748TIP3   OH212125   4.732   0.681   8.780  0.2289  0.6660 -0.3060
 3748TIP3    H112126   4.721   0.729   8.698  2.1142  0.4687 -0.7190
 3748TIP3    H212127   4.720   0.589   8.755  0.8226  0.6044 -0.3881
 3749TIP3   OH212128   6.290   5.270   0.508  0.0259  0.0509  0.5177
 3749TIP3    H112129   6.370   5.296   0.462  0.5030 -1.3960  0.4665
 3749TIP3    H212130   6.222   5.328   0.473  0.7935  0.3936 -0.4532
 3750TIP3   OH212131   0.551   4.911   7.230  0.2754  0.0904  0.1727
 3750TIP3    H112132   0.503   4.829   7.238  0.5573 -0.1216 -0.2464
 3750TIP3    H212133   0.523   4.947   7.146  1.6753 -0.6043 -0.6422
 3751TIP3   OH212134  10.603   7.259   5.217  0.0593 -0.3983  0.4478
 3751TIP3    H112135  10.648   7.202   5.280 -1.3279 -0.1806  1.7029
 3751TIP3    H212136  10.531   7.297   5.267 -1.1852 -0.3062 -1.3251
 3752TIP3   OH212137   8.488   5.404   3.248 -0.1846 -0.0726  0.4402
 3752TIP3    H112138   8.447   5.438   3.169 -0.1344 -2.8714 -0.9412
 3752TIP3    H212139   8.441   5.323   3.267  1.7403 -1.0335  1.4782
 3753TIP3   OH212140   9.130   2.623   6.383  0.0368  0.6432  0.9124
 3753TIP3    H112141   9.191   2.661   6.447 -0.8851  1.7615  1.1728
 3753TIP3    H212142   9.170   2.643   6.298  1.3332 -0.9624  1.1109
 3754TIP3   OH212143   4.337   4.442   9.596  0.0399 -0.3350 -0.3471
 3754TIP3    H112144   4.312   4.433   9.688  1.3912 -1.3263 -0.0401
 3754TIP3    H212145   4.397   4.369   9.580 -1.6657 -1.4010 -2.5631
 3755TIP3   OH212146   2.629   6.168   9.602  0.4108 -0.1204  0.3331
 3755TIP3    H112147   2.710   6.199   9.645  1.0818 -1.8094  0.3410
 3755TIP3    H212148   2.572   6.245   9.602  1.2253  0.5487  2.2353
 3756TIP3   OH212149   2.935   6.954   8.459  0.0990 -0.2548 -0.1049
 3756TIP3    H112150   2.992   6.964   8.382  1.5678 -1.1790  0.8138
 3756TIP3    H212151   2.934   7.041   8.499 -0.2164  0.0932 -0.8327
 3757TIP3   OH212152   0.558   0.391   2.332  0.2643  0.5843  0.4420
 3757TIP3    H112153   0.468   0.410   2.305 -0.1745 -1.5473  0.2449
 3757TIP3    H212154   0.608   0.391   2.250  0.3020  1.0150  0.4633
 3758TIP3   OH212155   7.839   0.337   1.330  0.9366  0.5568  0.5625
 3758TIP3    H112156   7.820   0.427   1.304 -0.1675  0.5468  1.2424
 3758TIP3    H212157   7.861   0.292   1.249  0.3964  1.1830  0.0586
 3759TIP3   OH212158   5.467   7.972   6.570 -0.2251  0.3421 -0.8125
 3759TIP3    H112159   5.423   8.051   6.601 -0.9433  0.9618 -3.1509
 3759TIP3    H212160   5.527   8.004   6.502  0.9235 -0.9354 -0.4330
 3760TIP3   OH212161   4.703   0.366  10.143 -0.1059  0.2859 -0.2047
 3760TIP3    H112162   4.617   0.364  10.185 -0.3077 -0.9083 -0.6185
 3760TIP3    H212163   4.765   0.364  10.216 -0.3089  3.9165  0.2480
 3761TIP3   OH212164   3.435   0.639   8.834  0.3926 -0.0933  0.0765
 3761TIP3    H112165   3.451   0.716   8.888  0.6085  0.9189 -1.3752
 3761TIP3    H212166   3.340   0.626   8.838  0.6009 -1.8404  2.9876
 3762TIP3   OH212167   5.003   8.116   5.968  0.2755 -0.3384  0.2709
 3762TIP3    H112168   4.933   8.168   6.006 -0.8243 -1.8136  0.3551
 3762TIP3    H212169   4.968   8.084   5.885  0.2137 -2.3388  1.0021
 3763TIP3   OH212170   9.366   9.454   8.017 -0.3371 -0.2514 -0.1688
 3763TIP3    H112171   9.383   9.415   7.931 -2.3506  0.6781 -1.0517
 3763TIP3    H212172   9.393   9.387   8.079  2.6067 -0.3793 -1.4155
 3764TIP3   OH212173   2.001   3.382   0.374  0.5642 -0.0947 -0.0180
 3764TIP3    H112174   1.916   3.375   0.419  0.3954  2.8470  0.2784
 3764TIP3    H212175   1.984   3.351   0.286 -1.4977  2.4470 -0.6398
 3765TIP3   OH212176   0.797   7.099   8.778 -0.0380 -0.1668 -0.4225
 3765TIP3    H112177   0.711   7.142   8.773  1.0038  2.7269  2.8845
 3765TIP3    H212178   0.781   7.022   8.833 -0.2313  1.7614  2.4319
 3766TIP3   OH212179   7.079   5.917   0.637 -0.0790 -0.0963  0.3859
 3766TIP3    H112180   7.028   5.998   0.639 -0.1565 -0.1415  0.1925
 3766TIP3    H212181   7.152   5.933   0.698  1.4939  1.1670 -1.7083
 3767TIP3   OH212182   0.385   5.676   0.568 -0.5578 -0.0355  0.1754
 3767TIP3    H112183   0.310   5.620   0.589 -0.4293  0.1649  1.2302
 3767TIP3    H212184   0.350   5.765   0.574 -0.3641  0.0420  0.1437
 3768TIP3   OH212185   8.945   4.872   9.995  0.0175  0.4012 -0.1562
 3768TIP3    H112186   8.856   4.855   9.965  0.5073 -0.3430 -1.2548
 3768TIP3    H212187   8.944   4.849  10.088 -1.0680  0.9388 -0.0230
 3769TIP3   OH212188  10.196   9.553   8.340  0.4811  0.2237 -0.1819
 3769TIP3    H112189  10.168   9.616   8.407 -1.1141  0.4066 -0.9569
 3769TIP3    H212190  10.282   9.523   8.369 -0.9447 -1.2876  3.1139
 3770TIP3   OH212191   0.867  10.377   3.799 -0.1761  0.0494 -0.6560
 3770TIP3    H112192   0.800  10.433   3.759 -1.5005 -1.8523 -1.2691
 3770TIP3    H212193   0.818  10.319   3.857  1.1474 -0.4322  0.0249
 3771TIP3   OH212194   1.944  10.398   2.681 -0.9479 -0.3456  0.4645
 3771TIP3    H112195   1.924  10.382   2.774  2.0239  1.1701  1.4800
 3771TIP3    H212196   1.973  10.314   2.648 -0.7478 -0.6087  1.2800
 3772TIP3   OH212197   1.217   2.199   2.278 -0.2422 -0.9055 -0.0263
 3772TIP3    H112198   1.257   2.279   2.243 -0.7170 -1.0757 -0.9944
 3772TIP3    H212199   1.127   2.223   2.297 -0.3866 -1.2136 -0.3182
 3773TIP3   OH212200   9.802   6.798   4.969  0.0523  0.0082 -0.7216
 3773TIP3    H112201   9.744   6.874   4.960 -0.1111 -0.2094 -1.6331
 3773TIP3    H212202   9.751   6.725   4.936 -0.2668 -0.7664  1.3187
 3774TIP3   OH212203   7.622   6.032   2.418 -0.3702  0.4831 -0.0724
 3774TIP3    H112204   7.586   6.042   2.330  0.0647 -2.7540 -0.7580
 3774TIP3    H212205   7.714   6.010   2.404 -0.4494 -0.7288  1.0822
 3775TIP3   OH212206   8.365   8.705   8.353 -0.0219  0.1534 -0.0021
 3775TIP3    H112207   8.303   8.668   8.290 -1.9221 -0.4411  2.0603
 3775TIP3    H212208   8.407   8.629   8.393  0.4349  0.4767  0.1432
 3776TIP3   OH212209   1.508   0.636   8.221 -0.0185 -0.0818 -0.1897
 3776TIP3    H112210   1.423   0.652   8.261  0.3859 -0.5764  0.9291
 3776TIP3    H212211   1.515   0.540   8.218 -0.2349 -0.0675 -1.9322
 3777TIP3   OH212212   2.771   9.099   2.471  0.1060 -0.8584  0.8963
 3777TIP3    H112213   2.681   9.070   2.459 -0.4204  0.6921  0.8463
 3777TIP3    H212214   2.778   9.120   2.564 -0.2081  0.9188  0.5405
 3778TIP3   OH212215   2.649   3.756   8.207  0.3703  0.0237 -0.3247
 3778TIP3    H112216   2.567   3.804   8.217  0.5048 -0.1459  2.0837
 3778TIP3    H212217   2.701   3.811   8.148 -0.3614  1.6668  0.4772
 3779TIP3   OH212218   2.888   4.443   0.905 -0.2085  0.4034  0.0714
 3779TIP3    H112219   2.830   4.491   0.847 -0.4855  0.5743  0.4860
 3779TIP3    H212220   2.848   4.451   0.992  1.2808  1.9705  0.6893
 3780TIP3   OH212221   3.565   0.664   6.401  0.0578 -0.1498 -0.5260
 3780TIP3    H112222   3.536   0.664   6.492 -1.6782  0.6041 -1.0233
 3780TIP3    H212223   3.578   0.572   6.380  0.4348 -0.3327  0.4590
 3781TIP3   OH212224  10.181   0.052   8.161 -0.2264  0.5610 -0.1392
 3781TIP3    H112225  10.175   0.088   8.072  0.7445  1.0014 -0.0440
 3781TIP3    H212226  10.096   0.072   8.201 -1.2014 -0.8699 -1.3901
 3782TIP3   OH212227   1.892   1.272   6.424 -0.1118  0.4970 -0.6355
 3782TIP3    H112228   1.824   1.312   6.477  1.7264  0.7807  1.6864
 3782TIP3    H212229   1.848   1.200   6.378 -2.6067  2.5910 -1.7787
 3783TIP3   OH212230   2.256   3.882   6.998  0.7381 -0.1375  0.4587
 3783TIP3    H112231   2.191   3.832   7.048  0.1594 -0.1057 -0.2325
 3783TIP3    H212232   2.291   3.819   6.935  1.7854 -0.2950  1.1708
 3784TIP3   OH212233   2.160   0.973   2.140 -0.3417 -0.3251 -0.1903
 3784TIP3    H112234   2.162   1.065   2.114 -1.0495  0.6145  2.6967
 3784TIP3    H212235   2.153   0.925   2.058 -1.3861  2.2613 -1.7356
 3785TIP3   OH212236   9.350   4.919   8.234 -0.0405 -0.0285  0.2557
 3785TIP3    H112237   9.441   4.912   8.203 -0.3553  1.8804 -1.3624
 3785TIP3    H212238   9.349   5.000   8.285 -1.0154  0.5196 -0.6035
 3786TIP3   OH212239   5.085   2.313   8.505  0.1327 -0.2205 -0.1101
 3786TIP3    H112240   5.054   2.294   8.594 -1.5274 -0.5751 -0.7186
 3786TIP3    H212241   5.032   2.388   8.477  1.9352  1.1006 -0.1698
 3787TIP3   OH212242   5.576   5.470   8.578  0.0593  0.2843 -0.1304
 3787TIP3    H112243   5.637   5.495   8.509 -1.4111  0.3282 -1.4771
 3787TIP3    H212244   5.544   5.553   8.612 -1.6477  0.3392 -1.6959
 3788TIP3   OH212245   8.308  10.862   7.362  0.3138  0.3461  1.0300
 3788TIP3    H112246   8.242  10.924   7.331  1.3213  0.8087 -0.3468
 3788TIP3    H212247   8.335  10.896   7.447 -2.3702 -0.8079  2.4218
 3789TIP3   OH212248   3.024   9.104  10.168  0.0237 -0.9287 -0.1285
 3789TIP3    H112249   2.982   9.029  10.126 -0.3456 -0.0888 -1.3083
 3789TIP3    H212250   3.117   9.081  10.171  0.0341 -1.1078 -1.2326
 3790TIP3   OH212251   6.970   2.478   4.584 -0.3828  0.1304  0.2854
 3790TIP3    H112252   6.909   2.458   4.513  0.0341 -0.1558  0.0064
 3790TIP3    H212253   6.956   2.408   4.648 -0.2092 -0.0435  0.1330
 3791TIP3   OH212254   7.035   8.685   2.628 -0.0905 -0.4568 -0.2140
 3791TIP3    H112255   7.092   8.654   2.699 -0.8048 -1.1485  0.0766
 3791TIP3    H212256   7.004   8.605   2.585  0.4145 -0.0443 -1.3914
 3792TIP3   OH212257   9.595   0.849   9.184  0.2451  0.4808  0.0897
 3792TIP3    H112258   9.677   0.800   9.171 -0.4263 -0.6170 -0.0800
 3792TIP3    H212259   9.529   0.799   9.136 -0.9296  0.1881  1.9303
 3793TIP3   OH212260   9.861   4.029   0.932  0.1341  0.1689 -0.0581
 3793TIP3    H112261   9.848   3.954   0.874  0.8917  0.5828 -0.7855
 3793TIP3    H212262   9.813   4.007   1.012 -1.5552 -0.0771 -1.1077
 3794TIP3   OH212263   4.124   2.980   4.216  0.2815  0.1210  0.2904
 3794TIP3    H112264   4.107   2.888   4.234 -2.8366  0.4274 -0.6416
 3794TIP3    H212265   4.057   3.027   4.265 -0.0019  1.7142 -1.5236
 3795TIP3   OH212266   9.172   8.222   3.181  0.3785  0.5321  0.6945
 3795TIP3    H112267   9.131   8.302   3.216 -0.3829  0.0959  0.8156
 3795TIP3    H212268   9.257   8.252   3.148  1.2309  0.9331  3.0673
 3796TIP3   OH212269   9.484   1.069   7.627 -0.7190  0.1351 -0.4974
 3796TIP3    H112270   9.511   1.054   7.718 -1.9885  0.7638  0.0129
 3796TIP3    H212271   9.442   0.987   7.601 -0.3536 -0.0462 -0.5160
 3797TIP3   OH212272   2.125   6.145   0.360  0.3103 -0.5109 -0.1104
 3797TIP3    H112273   2.069   6.072   0.388  0.1682 -0.3648 -0.0064
 3797TIP3    H212274   2.121   6.143   0.265  0.0799 -0.4695 -0.1038
 3798TIP3   OH212275  10.680   6.671   5.073  0.2500 -0.1092  0.1435
 3798TIP3    H112276  10.638   6.586   5.080  0.1914  0.0305  1.9510
 3798TIP3    H212277  10.739   6.663   4.998 -1.7258 -0.8445 -1.4217
 3799TIP3   OH212278   2.213  10.734   7.610  0.1981  0.6862  0.8577
 3799TIP3    H112279   2.250  10.813   7.570  0.5483 -0.4132 -1.1440
 3799TIP3    H212280   2.135  10.715   7.557  0.6051 -0.7688  0.7193
 3800TIP3   OH212281   6.361  10.907   6.788 -0.7903 -0.0629  0.4053
 3800TIP3    H112282   6.407  10.951   6.716 -2.0315  0.6586  0.0165
 3800TIP3    H212283   6.429  10.887   6.852  0.5835 -2.0657 -1.5858
 3801TIP3   OH212284  10.834  10.547   0.837 -0.5820  0.2566  0.6125
 3801TIP3    H112285  10.778  10.625   0.845 -1.3495 -0.3337  1.1260
 3801TIP3    H212286  10.909  10.565   0.894 -2.0425 -0.4672  2.8858
 3802TIP3   OH212287   6.818   3.039   1.872  0.6452 -0.2975  0.3096
 3802TIP3    H112288   6.896   3.041   1.928  0.6827  1.2358  0.2425
 3802TIP3    H212289   6.833   3.107   1.807 -0.4337 -0.4772 -0.1547
 3803TIP3   OH212290   0.238   8.637   3.282 -0.0146  0.3382  0.3986
 3803TIP3    H112291   0.156   8.687   3.280  0.2607  0.8230 -2.0399
 3803TIP3    H212292   0.234   8.587   3.364 -3.2246 -0.4732 -0.1276
 3804TIP3   OH212293   8.903   6.380   3.425 -0.0679  0.3560  0.1034
 3804TIP3    H112294   8.887   6.404   3.516  3.2791 -1.7282  1.4586
 3804TIP3    H212295   8.848   6.303   3.410 -0.0498  0.2241  0.6890
 3805TIP3   OH212296  10.731   1.158   2.348 -0.9044  0.0056 -0.1883
 3805TIP3    H112297  10.771   1.229   2.298 -3.0054  1.5705  0.2405
 3805TIP3    H212298  10.787   1.150   2.426  0.8603 -0.6760 -1.4476
 3806TIP3   OH212299   7.328   9.168   8.448 -0.2807 -0.3773 -0.5290
 3806TIP3    H112300   7.389   9.220   8.500 -1.2727  0.1618  0.1269
 3806TIP3    H212301   7.312   9.220   8.370 -0.8537  0.0673 -0.1236
 3807TIP3   OH212302   5.239   1.402   6.744 -0.0099  0.3942 -0.0997
 3807TIP3    H112303   5.176   1.444   6.803 -2.6863 -2.1758 -0.9235
 3807TIP3    H212304   5.262   1.320   6.788 -0.2016 -0.4570 -1.5455
 3808TIP3   OH212305   8.947   1.737  10.232 -0.0267  0.6468  0.0310
 3808TIP3    H112306   8.905   1.652  10.223 -0.3705  0.8555 -0.3927
 3808TIP3    H212307   8.896   1.795  10.176 -0.4729  1.3849  1.1618
 3809TIP3   OH212308   7.886   6.132   0.377 -0.1184  0.1708 -0.8409
 3809TIP3    H112309   7.798   6.149   0.343 -0.7329 -0.4408  0.3974
 3809TIP3    H212310   7.887   6.171   0.464  0.7255 -0.1235 -0.7069
 3810TIP3   OH212311   6.003  10.558   6.677  0.1673  0.3176 -0.0205
 3810TIP3    H112312   6.037  10.637   6.719  0.5331  0.3112 -0.3049
 3810TIP3    H212313   5.961  10.510   6.749  3.1622 -1.0304  1.0075
 3811TIP3   OH212314   6.080   8.834   5.917 -0.4851  0.0994 -0.1008
 3811TIP3    H112315   6.068   8.776   5.992  1.0880 -1.3359 -0.8875
 3811TIP3    H212316   5.992   8.856   5.889 -1.1040 -0.2294  1.4903
 3812TIP3   OH212317   3.732   1.630   7.061 -0.3473 -0.9469  0.1241
 3812TIP3    H112318   3.658   1.665   7.011  1.5112  2.1697 -0.7246
 3812TIP3    H212319   3.711   1.652   7.152 -0.7725 -0.6207 -0.0488
 3813TIP3   OH212320   3.769   4.937   7.192  0.1412 -0.1653 -0.2669
 3813TIP3    H112321   3.714   4.887   7.251 -1.4929  0.4727 -1.1889
 3813TIP3    H212322   3.747   4.905   7.105  1.7168 -0.3268 -0.6450
 3814TIP3   OH212323   2.042   5.121   6.662  0.0482 -0.1828 -0.5884
 3814TIP3    H112324   2.026   5.027   6.656  0.4518 -0.2997  0.0923
 3814TIP3    H212325   2.052   5.138   6.755 -1.6777  0.8168 -0.5385
 3815TIP3   OH212326   0.411   4.392   0.191 -0.1869  0.0529 -0.0288
 3815TIP3    H112327   0.334   4.365   0.141  0.7725 -1.7894 -0.6285
 3815TIP3    H212328   0.464   4.443   0.130 -0.7028  0.9618  0.2600
 3816TIP3   OH212329  10.492   5.475   2.980  0.4192  0.0403 -0.4235
 3816TIP3    H112330  10.459   5.533   3.048  2.0420  1.4971 -0.7717
 3816TIP3    H212331  10.490   5.529   2.900  0.3262 -0.9849 -1.1287
 3817TIP3   OH212332   6.045   6.805  10.128 -0.0184 -0.0880 -0.1837
 3817TIP3    H112333   6.104   6.820  10.054  0.2826  1.2872  0.3036
 3817TIP3    H212334   5.962   6.780  10.088 -0.1471  1.5975 -1.0679
 3818TIP3   OH212335   4.388   1.259   2.094  0.1941 -0.2132  0.0242
 3818TIP3    H112336   4.377   1.173   2.052 -0.6902 -2.3792  4.1566
 3818TIP3    H212337   4.479   1.282   2.076  0.1488 -1.4265 -2.1201
 3819TIP3   OH212338   9.438   1.004   5.815 -0.2360  0.0579 -0.2487
 3819TIP3    H112339   9.523   0.970   5.787 -1.4779 -1.2219 -2.8173
 3819TIP3    H212340   9.402   1.047   5.737 -2.4184 -0.4144  0.4193
 3820TIP3   OH212341   9.186   0.451   7.362 -0.2987  0.1011  0.0572
 3820TIP3    H112342   9.256   0.424   7.301  0.3966  1.6502  0.1251
 3820TIP3    H212343   9.111   0.398   7.336  0.5652 -0.7591 -0.7997
 3821TIP3   OH212344   4.290   7.752   8.714 -0.2589  0.4742  0.0220
 3821TIP3    H112345   4.273   7.759   8.808 -0.8581  2.1462 -0.1790
 3821TIP3    H212346   4.276   7.660   8.694 -1.2613  0.3063  1.3693
 3822TIP3   OH212347   0.012   3.332   5.000 -0.0767  0.1657 -0.1116
 3822TIP3    H112348   0.077   3.266   4.973 -0.4214  0.0198 -0.5912
 3822TIP3    H212349  -0.057   3.325   4.935  1.3593  3.3145 -2.1685
 3823TIP3   OH212350   6.301  10.344   5.618  0.4606  0.1236 -0.1476
 3823TIP3    H112351   6.394  10.346   5.597  0.7695 -1.2221  0.9599
 3823TIP3    H212352   6.257  10.330   5.535  1.0477  2.9181 -1.0436
 3824TIP3   OH212353   6.572   8.651   2.231 -0.6801 -0.1395  0.7188
 3824TIP3    H112354   6.530   8.620   2.151 -1.5653  0.7400  0.8334
 3824TIP3    H212355   6.570   8.746   2.224  0.3952 -0.0688  1.2006
 3825TIP3   OH212356   2.778   3.700   7.868  0.0680 -0.1301  0.2370
 3825TIP3    H112357   2.810   3.663   7.785 -1.4499  1.4587 -1.1317
 3825TIP3    H212358   2.747   3.624   7.917 -1.0258 -0.9617 -1.6012
 3826TIP3   OH212359   3.977   3.441   3.368 -0.0485  0.0835 -0.2313
 3826TIP3    H112360   4.042   3.502   3.404 -0.1601  0.2549 -0.3196
 3826TIP3    H212361   3.896   3.461   3.414 -0.2088  0.3561 -0.6338
 3827TIP3   OH212362   0.509   7.962   7.899 -0.1827 -0.1437 -0.4663
 3827TIP3    H112363   0.515   8.008   7.983  0.0690 -2.7955  1.0878
 3827TIP3    H212364   0.588   7.988   7.852  0.8669 -0.3553  1.1048
 3828TIP3   OH212365   6.307   3.701   5.836  0.4353  0.5818 -0.1276
 3828TIP3    H112366   6.222   3.689   5.794  0.6572 -0.7568 -0.2254
 3828TIP3    H212367   6.290   3.764   5.906 -0.4846  0.8418 -0.5668
 3829TIP3   OH212368   6.590   8.354   0.620  0.1458  0.4339 -0.0778
 3829TIP3    H112369   6.675   8.352   0.575 -0.3566 -0.9794 -1.0528
 3829TIP3    H212370   6.605   8.305   0.701 -0.1288 -1.4248 -1.0947
 3830TIP3   OH212371   1.471   4.003   6.911  0.6029 -0.1176  0.5375
 3830TIP3    H112372   1.407   3.958   6.967 -1.4130  0.3052 -1.2830
 3830TIP3    H212373   1.447   4.096   6.918  0.0065 -0.0887 -1.2755
 3831TIP3   OH212374   4.207   7.849   8.446  0.4444  0.2029  0.1805
 3831TIP3    H112375   4.237   7.813   8.529 -1.5715 -2.8137 -0.2167
 3831TIP3    H212376   4.121   7.886   8.466 -0.2919 -1.0158 -0.5838
 3832TIP3   OH212377   3.797   2.528   1.126  0.4302  0.9651  0.3257
 3832TIP3    H112378   3.721   2.470   1.131  0.4869  0.9380  1.0085
 3832TIP3    H212379   3.824   2.540   1.217  2.0942 -0.1435  0.0246
 3833TIP3   OH212380   1.844   8.403   4.452 -0.5569 -0.5833 -0.1595
 3833TIP3    H112381   1.772   8.393   4.390 -1.3202  1.5756  0.2833
 3833TIP3    H212382   1.801   8.421   4.536  0.4780  0.1013  0.2463
 3834TIP3   OH212383   1.304   2.603   6.158 -0.6612 -0.7566 -0.2575
 3834TIP3    H112384   1.254   2.624   6.079 -0.2516 -0.2743 -0.3946
 3834TIP3    H212385   1.259   2.650   6.228 -2.0302 -2.5258  0.1066
 3835TIP3   OH212386   4.322  10.523   6.530  1.0848  0.0910  0.4285
 3835TIP3    H112387   4.309  10.540   6.623 -2.3936  2.4613 -0.2702
 3835TIP3    H212388   4.241  10.480   6.502  0.3952  2.7141 -2.0709
 3836TIP3   OH212389   4.934   7.472   6.921  0.3292 -0.1712  0.1460
 3836TIP3    H112390   4.979   7.437   6.998 -0.1773  0.7840  0.8913
 3836TIP3    H212391   4.977   7.555   6.903 -0.1994  0.0767  0.0010
 3837TIP3   OH212392   9.095   9.182   7.410  0.0093  0.3354  0.4086
 3837TIP3    H112393   9.052   9.169   7.325  0.7654  0.7898 -0.0528
 3837TIP3    H212394   9.171   9.236   7.390  1.1764 -1.0022  1.1128
 3838TIP3   OH212395   0.712   6.876   9.655 -0.4252 -0.3624  0.1457
 3838TIP3    H112396   0.705   6.863   9.749  0.5319 -1.7016  0.0530
 3838TIP3    H212397   0.716   6.971   9.644 -3.4461 -0.0033  1.2013
 3839TIP3   OH212398   4.322   2.423   9.590  0.2362  0.0509 -0.1125
 3839TIP3    H112399   4.333   2.491   9.524  1.6711 -0.2449 -0.2165
 3839TIP3    H212400   4.338   2.341   9.543 -0.7504 -0.3162  0.1702
 3840TIP3   OH212401   3.525  10.503   9.550 -0.3400  0.3334 -1.0343
 3840TIP3    H112402   3.465  10.554   9.495  1.9794  2.6993 -1.5723
 3840TIP3    H212403   3.467  10.457   9.611 -2.7346  2.0696 -1.7942
 3841TIP3   OH212404   1.059   9.625   6.051  0.2720 -1.1345  0.3114
 3841TIP3    H112405   0.997   9.554   6.069 -0.6194 -1.0088 -1.9193
 3841TIP3    H212406   1.024   9.701   6.097 -1.0998 -1.1477 -0.6611
 3842TIP3   OH212407   5.401   9.271   0.154 -0.3952 -0.3221 -0.7914
 3842TIP3    H112408   5.455   9.197   0.182 -0.2573 -0.3469 -1.1207
 3842TIP3    H212409   5.312   9.236   0.152 -0.7335  0.2209  1.6150
 3843TIP3   OH212410   7.488   6.428   9.698  0.1729  0.2305  0.0455
 3843TIP3    H112411   7.481   6.335   9.719  1.4009  0.1151  0.0019
 3843TIP3    H212412   7.431   6.440   9.622 -0.0760 -0.4652  0.1191
 3844TIP3   OH212413   5.505   6.348   3.983 -0.6829 -0.0259  0.5927
 3844TIP3    H112414   5.489   6.440   3.963 -0.5271 -0.1361 -0.0812
 3844TIP3    H212415   5.471   6.336   4.072 -1.1443  0.5659  0.5044
 3845TIP3   OH212416   8.585   4.021   4.082 -0.1658  0.1850 -0.4252
 3845TIP3    H112417   8.620   4.023   3.993  3.0121 -0.0047  0.6720
 3845TIP3    H212418   8.506   3.968   4.076  0.8055 -1.1647 -2.8865
 3846TIP3   OH212419   0.136   6.331   5.730  0.7960 -0.5621  0.8302
 3846TIP3    H112420   0.066   6.364   5.787 -1.5168 -2.9976 -0.3798
 3846TIP3    H212421   0.188   6.409   5.708 -1.1514  1.2630  2.3029
 3847TIP3   OH212422   8.557   7.517   3.285 -0.0179  0.4769 -0.2266
 3847TIP3    H112423   8.573   7.551   3.373 -0.6845 -1.5088  0.7217
 3847TIP3    H212424   8.607   7.435   3.282  1.2717  1.2724 -2.2998
 3848TIP3   OH212425   3.140   0.107   4.489 -0.5386 -0.1698  0.1966
 3848TIP3    H112426   3.232   0.113   4.464  0.0389 -0.2935  2.1412
 3848TIP3    H212427   3.141   0.078   4.580 -2.4753  0.5005  0.4922
 3849TIP3   OH212428   8.736   4.908   6.532 -0.1737  0.2132  0.9142
 3849TIP3    H112429   8.820   4.863   6.524  1.1748  2.4196  1.7071
 3849TIP3    H212430   8.706   4.918   6.442  0.8194  0.0806  0.5513
 3850TIP3   OH212431   9.585   8.344   5.752 -0.3039  0.6656 -0.1880
 3850TIP3    H112432   9.545   8.262   5.778  1.2077 -0.7096 -1.9542
 3850TIP3    H212433   9.614   8.384   5.834 -0.8958 -0.6170  0.6778
 3851TIP3   OH212434   7.746   5.214   0.669  0.2494 -0.4220  0.0313
 3851TIP3    H112435   7.704   5.253   0.593 -0.3147 -0.8034  0.1372
 3851TIP3    H212436   7.835   5.249   0.668 -0.0771  0.4382 -0.1741
 3852TIP3   OH212437   1.833   8.913   8.768 -0.2611 -0.2147 -0.2536
 3852TIP3    H112438   1.760   8.880   8.717 -1.7095  2.3358  0.0357
 3852TIP3    H212439   1.891   8.954   8.704  1.7494 -3.3672 -0.6687
 3853TIP3   OH212440   9.320   8.198   8.572  0.1631 -0.5418 -0.2734
 3853TIP3    H112441   9.323   8.264   8.504  0.7251 -0.2008  0.0763
 3853TIP3    H212442   9.364   8.238   8.647 -0.5440 -0.8667  0.3287
 3854TIP3   OH212443   6.869   7.264   9.161  0.0493 -0.0030  0.1897
 3854TIP3    H112444   6.836   7.193   9.216  1.1699 -1.2608 -0.7086
 3854TIP3    H212445   6.887   7.223   9.077  0.9800  1.2878 -0.2676
 3855TIP3   OH212446  10.700   7.513   4.139 -0.5946 -0.5180 -0.1555
 3855TIP3    H112447  10.788   7.549   4.123 -1.4548  1.7800 -0.1233
 3855TIP3    H212448  10.663   7.500   4.052 -0.4670 -0.8924 -0.1572
 3856TIP3   OH212449   0.645   6.214   7.605 -0.3073  0.2670 -0.0337
 3856TIP3    H112450   0.582   6.161   7.556  0.2210 -0.0666 -0.3618
 3856TIP3    H212451   0.677   6.155   7.674 -1.1822  0.7878  0.8572
 3857TIP3   OH212452   3.151  10.156   4.212  0.2846 -0.1729  0.2733
 3857TIP3    H112453   3.158  10.074   4.261  1.2237 -0.0000  0.4467
 3857TIP3    H212454   3.077  10.142   4.154 -0.1866 -0.7797  0.9965
 3858TIP3   OH212455   2.665   0.410   8.459  0.0578 -0.2080  0.3042
 3858TIP3    H112456   2.702   0.340   8.511  0.8200  0.6948  1.0159
 3858TIP3    H212457   2.581   0.375   8.427  0.2005 -1.2484  1.0327
 3859TIP3   OH212458   4.300   9.513   8.270  0.2417  0.3672  0.7608
 3859TIP3    H112459   4.340   9.439   8.223 -0.9884 -0.7104  1.3494
 3859TIP3    H212460   4.239   9.551   8.207  0.6041  0.6722  0.5843
 3860TIP3   OH212461   0.415   6.776   2.892 -0.4876 -0.1188 -0.1653
 3860TIP3    H112462   0.403   6.830   2.971 -1.8460 -1.0158  0.2855
 3860TIP3    H212463   0.326   6.755   2.865  0.0058 -1.5038 -0.7747
 3861TIP3   OH212464   7.479   4.463   1.987 -0.1401  0.1329 -0.1663
 3861TIP3    H112465   7.469   4.557   1.970 -2.7421 -0.1604 -0.5824
 3861TIP3    H212466   7.476   4.456   2.082  3.2004  0.6805  0.1058
 3862TIP3   OH212467   2.136   6.560   0.622 -0.1142  0.5435 -0.0986
 3862TIP3    H112468   2.071   6.516   0.676  2.4964 -1.3580  1.7372
 3862TIP3    H212469   2.134   6.513   0.539 -1.5559  1.0524 -0.3916
 3863TIP3   OH212470   2.394   0.685   4.567  0.1506  0.1812  0.4822
 3863TIP3    H112471   2.391   0.779   4.551 -0.1654  0.4028  1.7190
 3863TIP3    H212472   2.333   0.647   4.504  1.3937  0.6187 -1.0526
 3864TIP3   OH212473   7.493   5.100   7.952 -0.2633  0.1756  0.3064
 3864TIP3    H112474   7.542   5.097   8.035  0.6031  0.7120 -0.1688
 3864TIP3    H212475   7.405   5.071   7.975 -0.0813  0.4728  1.4536
 3865TIP3   OH212476  10.548   8.829   7.014 -0.2626  0.6791 -0.0229
 3865TIP3    H112477  10.622   8.787   7.058 -0.5590 -0.6025 -0.7060
 3865TIP3    H212478  10.493   8.757   6.985 -2.0193  1.6211  0.8257
 3866TIP3   OH212479   4.223   4.279  10.118 -0.2030 -0.0266  0.0824
 3866TIP3    H112480   4.183   4.222  10.184  0.2827 -0.4296  0.0352
 3866TIP3    H212481   4.200   4.368  10.145 -0.1430 -0.2000  0.7003
 3867TIP3   OH212482  10.405   1.480   2.318 -0.4422  0.3819 -0.0217
 3867TIP3    H112483  10.496   1.509   2.330 -0.1424 -1.1779  2.0301
 3867TIP3    H212484  10.411   1.403   2.261 -0.0859 -1.3309  2.1942
 3868TIP3   OH212485   0.831   0.897  10.575  0.3537 -0.0201 -0.3726
 3868TIP3    H112486   0.771   0.960  10.534 -1.3145 -0.7650  0.7780
 3868TIP3    H212487   0.842   0.929  10.665  1.6800  0.0793 -0.5571
 3869TIP3   OH212488   5.107   5.805   3.173  0.3915 -0.1742 -0.0941
 3869TIP3    H112489   5.063   5.730   3.212  0.0577 -0.0964 -0.3206
 3869TIP3    H212490   5.138   5.856   3.248 -1.0249  0.4409  0.1095
 3870TIP3   OH212491   3.782   4.821   6.513 -0.6797 -1.0965  0.4424
 3870TIP3    H112492   3.877   4.821   6.523 -0.6115  1.0517  0.4479
 3870TIP3    H212493   3.767   4.793   6.423  0.1332  0.4139 -0.2093
 3871TIP3   OH212494   4.212   9.325   5.235 -0.2398  0.2500  0.5999
 3871TIP3    H112495   4.152   9.250   5.234 -0.5524  0.4735 -1.2550
 3871TIP3    H212496   4.160   9.397   5.201  0.4821  0.9733  1.0084
 3872TIP3   OH212497   6.207   1.199   4.040 -0.1350 -0.1933  0.6989
 3872TIP3    H112498   6.135   1.212   4.101  0.1642  0.8261  0.8535
 3872TIP3    H212499   6.208   1.104   4.024 -0.8669 -0.3443  1.4663
 3873TIP3   OH212500   0.450   5.378   7.417  0.3608 -0.5184  0.7102
 3873TIP3    H112501   0.439   5.368   7.511 -0.4512 -0.0062  0.6828
 3873TIP3    H212502   0.451   5.289   7.383  1.6185 -0.7482  1.2869
 3874TIP3   OH212503  10.814   4.202   6.902 -0.1574 -0.0505  0.5713
 3874TIP3    H112504  10.758   4.126   6.917  0.7286 -0.5272  1.6079
 3874TIP3    H212505  10.777   4.244   6.825 -2.2965 -0.0087  1.5521
 3875TIP3   OH212506   8.163   9.240   2.112  0.6090  0.5228 -0.5227
 3875TIP3    H112507   8.085   9.234   2.057  1.2795 -0.6595 -1.3776
 3875TIP3    H212508   8.154   9.169   2.175  0.1824  1.4488  0.5051
 3876TIP3   OH212509   2.792  10.478   3.423 -0.2595  0.2302  0.2053
 3876TIP3    H112510   2.820  10.457   3.335 -1.4942  2.4499 -0.8173
 3876TIP3    H212511   2.696  10.485   3.417 -0.2697  1.7322  1.3706
 3877TIP3   OH212512   2.551   1.226   0.439  0.2523  0.3536  0.1813
 3877TIP3    H112513   2.503   1.204   0.359  1.4131  1.4093 -0.8493
 3877TIP3    H212514   2.483   1.257   0.499 -0.7132 -1.0164 -0.1638
 3878TIP3   OH212515   8.459   6.909   4.174 -0.9828 -0.0015  0.1625
 3878TIP3    H112516   8.421   6.925   4.087 -0.9401  1.1218  0.3397
 3878TIP3    H212517   8.386   6.924   4.235 -0.7030  0.4117  0.3955
 3879TIP3   OH212518   2.269   4.895   3.531  0.0830 -0.2252 -0.3373
 3879TIP3    H112519   2.181   4.858   3.522 -0.1869  0.0863  0.8433
 3879TIP3    H212520   2.265   4.947   3.611  1.1136  0.4754 -0.7242
 3880TIP3   OH212521   1.072   8.416   3.709  0.3201  0.8065  0.3744
 3880TIP3    H112522   0.986   8.433   3.748 -0.2419  0.2937 -0.6159
 3880TIP3    H212523   1.115   8.501   3.711 -0.9368  1.5173 -0.8489
 3881TIP3   OH212524   6.352  10.250  10.016  0.1522 -0.0365  0.0072
 3881TIP3    H112525   6.427  10.296   9.979  1.3261 -1.4177  0.5379
 3881TIP3    H212526   6.346  10.283  10.106 -1.1468  1.5057 -0.6047
 3882TIP3   OH212527   9.744  10.415   6.156  0.1990  0.6984  0.3410
 3882TIP3    H112528   9.766  10.343   6.096 -1.8930 -1.0820  1.5749
 3882TIP3    H212529   9.814  10.479   6.143  2.1161 -1.4950 -0.9150
 3883TIP3   OH212530   3.919   1.652   2.379 -0.7307  0.1568  0.0570
 3883TIP3    H112531   3.898   1.694   2.296  0.6197  0.6468 -0.0704
 3883TIP3    H212532   4.012   1.632   2.372 -0.8804 -0.9178  0.9769
 3884TIP3   OH212533   9.117  10.537   8.133 -0.0590 -0.1951 -0.0484
 3884TIP3    H112534   9.146  10.606   8.193 -0.2628 -2.2693  2.6561
 3884TIP3    H212535   9.022  10.546   8.130  0.1076  1.5862 -2.3831
 3885TIP3   OH212536   8.899  10.700   0.971  0.0476  0.4438 -0.5440
 3885TIP3    H112537   8.825  10.675   0.916  0.6641 -1.1600 -0.7059
 3885TIP3    H212538   8.902  10.633   1.039  1.2235  0.5791 -0.4332
 3886TIP3   OH212539   0.156   1.639   8.321 -0.3519 -0.8867  0.4315
 3886TIP3    H112540   0.177   1.582   8.248 -1.3619 -0.9157  0.1566
 3886TIP3    H212541   0.095   1.703   8.285  1.7806  1.2573  0.3687
 3887TIP3   OH212542   7.832  10.539   1.668 -0.0738 -0.0551 -0.6101
 3887TIP3    H112543   7.752  10.487   1.678  1.3930 -2.5183 -0.6415
 3887TIP3    H212544   7.811  10.604   1.602 -1.8576 -1.0482 -1.0901
 3888TIP3   OH212545   3.611   8.975   6.812  0.1395  0.4347 -0.4340
 3888TIP3    H112546   3.537   9.005   6.865 -0.5646  0.8295 -1.5991
 3888TIP3    H212547   3.676   9.045   6.821 -0.6080  1.2894 -1.3216
 3889TIP3   OH212548  10.089   0.756   3.836  0.0478  0.1603  0.1681
 3889TIP3    H112549   9.993   0.755   3.840  0.0488 -0.6125  0.2674
 3889TIP3    H212550  10.110   0.692   3.767  0.4902  0.3448  0.1301
 3890TIP3   OH212551   9.320   9.901   6.568  0.1071 -0.0295  0.0927
 3890TIP3    H112552   9.226   9.907   6.584 -0.1403 -1.5537 -0.6303
 3890TIP3    H212553   9.330   9.920   6.475  0.2202 -2.0456 -0.3490
 3891TIP3   OH212554   9.988   5.342   9.900  0.4280  0.7797 -0.3950
 3891TIP3    H112555   9.901   5.381   9.905 -0.3467 -0.6815 -1.5218
 3891TIP3    H212556  10.018   5.360   9.811  0.4868 -0.2376 -0.6004
 3892TIP3   OH212557   3.570   5.683   9.175 -0.3989  0.0063 -0.2767
 3892TIP3    H112558   3.531   5.769   9.162  0.0569  0.8701  3.1588
 3892TIP3    H212559   3.662   5.695   9.150  0.1346  1.1777  1.9782
 3893TIP3   OH212560  10.747   4.621   8.524  0.2247 -0.2041  0.0657
 3893TIP3    H112561  10.706   4.570   8.594  1.2014 -0.2050  0.6551
 3893TIP3    H212562  10.813   4.563   8.486  0.0504 -0.0279 -0.5236
 3894TIP3   OH212563   0.917   3.504   8.024 -0.2910 -0.3182 -0.1732
 3894TIP3    H112564   0.991   3.544   8.070 -0.9047 -0.3810  0.8887
 3894TIP3    H212565   0.957   3.447   7.958  0.6075 -0.4738  0.4942
 3895TIP3   OH212566   4.024   5.785   2.187  0.0898  0.9019  0.5039
 3895TIP3    H112567   4.072   5.706   2.211 -0.0139  0.9094  0.7446
 3895TIP3    H212568   4.067   5.855   2.237  0.4246  1.0621  0.0003
 3896TIP3   OH212569   0.786   8.124   2.137  0.2747  0.0976 -0.0985
 3896TIP3    H112570   0.851   8.176   2.184  0.0163 -0.3867  0.8014
 3896TIP3    H212571   0.703   8.169   2.155  0.2460  0.2252 -0.5445
 3897TIP3   OH212572   3.136   9.058   0.078  0.2203  0.1755  0.0384
 3897TIP3    H112573   3.129   9.118   0.003  0.3812 -1.7387 -1.5737
 3897TIP3    H212574   3.062   8.999   0.068  0.4283 -0.3019  1.2264
 3898TIP3   OH212575   3.560   3.511   7.140  0.0881  0.6907 -0.1312
 3898TIP3    H112576   3.511   3.563   7.204  0.3058  1.5118 -0.6190
 3898TIP3    H212577   3.612   3.450   7.194  0.0482  1.1713  0.4667
 3899TIP3   OH212578   0.445   6.244   8.694  0.2445  0.3761 -0.0459
 3899TIP3    H112579   0.464   6.213   8.783 -1.0682 -0.0455  0.1139
 3899TIP3    H212580   0.376   6.309   8.707  0.9164  1.2224 -0.6558
 3900TIP3   OH212581   4.062   3.485  10.516 -0.0005 -1.3565 -0.0024
 3900TIP3    H112582   3.975   3.457  10.489 -0.4567  0.6332 -0.7763
 3900TIP3    H212583   4.056   3.493  10.612 -1.0231 -0.2093 -0.1411
 3901TIP3   OH212584   9.524   4.975   7.726  0.2978 -0.0404 -0.4920
 3901TIP3    H112585   9.591   5.002   7.789 -0.3222 -2.1425  1.2287
 3901TIP3    H212586   9.443   5.015   7.760 -0.1399 -1.6538  0.4736
 3902TIP3   OH212587   3.938   5.406   1.340  0.4477 -0.3397  0.4117
 3902TIP3    H112588   3.958   5.388   1.248 -0.9467 -0.0161  0.0285
 3902TIP3    H212589   3.910   5.321   1.376  1.1716 -0.5066  0.6040
 3903TIP3   OH212590   9.813   7.011   1.167  0.6664 -0.0511 -0.1801
 3903TIP3    H112591   9.748   6.971   1.110 -0.9148  0.8089  0.9356
 3903TIP3    H212592   9.767   7.024   1.250  1.8473  1.8446  0.2365
 3904TIP3   OH212593   8.084   7.122   8.758  0.1452 -0.2644  0.2112
 3904TIP3    H112594   8.056   7.033   8.738  1.8340 -1.0347  1.0303
 3904TIP3    H212595   8.180   7.117   8.760  0.4002  2.0271 -1.6837
 3905TIP3   OH212596   9.343   4.772  10.513 -0.4110  0.2127  0.4669
 3905TIP3    H112597   9.433   4.802  10.501 -0.4329  0.8660  1.7659
 3905TIP3    H212598   9.352   4.681  10.543 -0.2477 -0.1526 -0.6330
 3906TIP3   OH212599   3.366   1.296  10.158 -0.2212  0.6731 -0.0133
 3906TIP3    H112600   3.325   1.329  10.238 -0.3499 -2.1042  1.1941
 3906TIP3    H212601   3.458   1.318  10.168 -0.2645  0.5374  0.8286
 3907TIP3   OH212602  10.706   5.037   5.025  0.3284  0.0143 -0.1377
 3907TIP3    H112603  10.694   5.002   4.937  0.6852  2.3809 -1.2104
 3907TIP3    H212604  10.785   4.994   5.057  0.5471 -0.4328 -1.2216
 3908TIP3   OH212605   0.393   9.297   3.470 -0.2596  0.2906  0.0901
 3908TIP3    H112606   0.341   9.246   3.532 -0.6294  0.7341  0.1517
 3908TIP3    H212607   0.412   9.378   3.516  1.6413 -0.3762  0.5776
 3909TIP3   OH212608   2.402   5.038   9.443 -0.3008 -0.3735  0.2539
 3909TIP3    H112609   2.495   5.058   9.458 -0.0612 -2.1279  1.3067
 3909TIP3    H212610   2.355   5.103   9.495  0.2270  1.6143 -1.5787
 3910TIP3   OH212611  10.325   1.458   6.530  0.0437  0.4672  0.3101
 3910TIP3    H112612  10.374   1.520   6.584 -0.9829  1.7772 -0.2110
 3910TIP3    H212613  10.316   1.502   6.445 -0.5307 -0.4825 -0.1416
 3911TIP3   OH212614   5.299   9.826   0.698 -0.2889  1.2034  0.3538
 3911TIP3    H112615   5.224   9.785   0.741  0.2659 -1.1485 -0.7190
 3911TIP3    H212616   5.283   9.813   0.604  0.1557  3.1392 -0.0290
 3912TIP3   OH212617   0.683   2.835   2.421  0.4089  0.0777  0.1817
 3912TIP3    H112618   0.711   2.870   2.506  0.1254 -1.5643  0.9843
 3912TIP3    H212619   0.625   2.762   2.443 -0.4396  0.2104 -1.4393
 3913TIP3   OH212620   6.930   1.293   2.152  0.6181  0.0460  0.0823
 3913TIP3    H112621   6.949   1.218   2.096 -2.1361  1.0236 -2.4142
 3913TIP3    H212622   6.902   1.255   2.235  2.2764 -1.5423 -0.0234
 3914TIP3   OH212623   6.900   9.331   3.546  0.2622 -0.3065 -0.1663
 3914TIP3    H112624   6.972   9.350   3.606 -0.0738 -0.3880  0.2690
 3914TIP3    H212625   6.911   9.394   3.475  0.9787 -0.5635 -0.2956
 3915TIP3   OH212626   7.159  10.457   7.494 -0.1701 -0.3838 -0.2784
 3915TIP3    H112627   7.092  10.472   7.561  0.8548 -0.5201  0.8234
 3915TIP3    H212628   7.199  10.543   7.481 -1.1521 -0.1098 -1.6170
 3916TIP3   OH212629   0.567   5.121   6.727 -0.2552  0.1262 -0.6883
 3916TIP3    H112630   0.579   5.037   6.681 -0.0332  0.8746 -2.0620
 3916TIP3    H212631   0.653   5.142   6.761 -0.0497  0.3296 -1.3170
 3917TIP3   OH212632   9.101   9.366   2.098  0.0449 -0.2627  0.0831
 3917TIP3    H112633   9.141   9.434   2.152  3.0921 -1.4373 -0.4600
 3917TIP3    H212634   9.108   9.401   2.009  2.4811 -1.5010 -0.3068
 3918TIP3   OH212635   5.684   2.078  10.379  0.1383 -0.3539  0.4020
 3918TIP3    H112636   5.631   2.126  10.315 -0.4708 -0.8756  0.4980
 3918TIP3    H212637   5.774   2.092  10.352 -0.0981 -0.2594 -0.3512
 3919TIP3   OH212638   8.368   9.871   8.501  0.7090 -0.0543 -0.0351
 3919TIP3    H112639   8.414   9.832   8.576 -0.2408 -0.1516  0.5107
 3919TIP3    H212640   8.277   9.841   8.511  0.4345  0.5029 -0.8434
 3920TIP3   OH212641   7.205   7.573   8.606 -0.4229 -0.1808 -0.3452
 3920TIP3    H112642   7.229   7.480   8.614  0.2645 -0.0120 -0.3584
 3920TIP3    H212643   7.249   7.615   8.679  0.9760  0.4471 -1.4908
 3921TIP3   OH212644   6.824   1.863   8.669 -0.1244 -0.3676  0.1038
 3921TIP3    H112645   6.747   1.838   8.618 -1.8379  1.2323  1.8099
 3921TIP3    H212646   6.839   1.788   8.727 -0.7720 -0.4353  0.1917
 3922TIP3   OH212647   6.358   5.096   6.552 -0.9026  0.6125  0.5409
 3922TIP3    H112648   6.341   5.036   6.479  2.0806 -0.4015  0.5326
 3922TIP3    H212649   6.377   5.180   6.509  0.0950  0.2051  0.1417
 3923TIP3   OH212650   0.958   7.808   7.871  0.0526  0.4800 -0.5967
 3923TIP3    H112651   0.987   7.862   7.798 -1.3748  0.5666 -1.1435
 3923TIP3    H212652   0.903   7.867   7.923  0.8191  0.3324  0.3874
 3924TIP3   OH212653   6.783   4.254   5.046 -0.0780 -0.1322 -0.3140
 3924TIP3    H112654   6.815   4.246   5.136  0.7462 -0.7171 -0.6411
 3924TIP3    H212655   6.784   4.165   5.012  0.4131  0.1767 -1.1556
 3925TIP3   OH212656  10.877   0.086   4.958  0.2534 -1.1690 -1.0220
 3925TIP3    H112657  10.938   0.155   4.931  0.8678 -1.5274 -0.5750
 3925TIP3    H212658  10.815   0.130   5.017  0.4785 -0.9453 -0.9502
 3926TIP3   OH212659   5.960   7.919   0.621 -0.7037 -0.6605  0.0176
 3926TIP3    H112660   5.986   7.932   0.530  0.3612  2.2274  0.6115
 3926TIP3    H212661   5.868   7.943   0.623 -0.5208  0.1144 -0.2053
 3927TIP3   OH212662   5.937   4.265   6.862  0.3287  0.3527  0.4186
 3927TIP3    H112663   5.862   4.255   6.804  0.5208 -2.1349  0.4918
 3927TIP3    H212664   6.009   4.220   6.817  1.5260  1.8113  0.8128
 3928TIP3   OH212665   5.516   8.549   7.269 -0.0643 -0.4251 -0.2886
 3928TIP3    H112666   5.424   8.558   7.245  0.3210 -0.8339 -2.1117
 3928TIP3    H212667   5.548   8.475   7.216  1.1968 -0.5810  0.6369
 3929TIP3   OH212668   7.695   4.676   3.000 -0.1373  0.4515 -0.5214
 3929TIP3    H112669   7.696   4.768   2.972 -2.4135  0.5430 -0.4980
 3929TIP3    H212670   7.659   4.678   3.089 -1.2593 -0.5388 -0.9354
 3930TIP3   OH212671   6.000   2.726   8.684 -0.1193 -0.2383 -0.2211
 3930TIP3    H112672   6.008   2.651   8.625  0.7251  0.5536 -1.1410
 3930TIP3    H212673   6.086   2.733   8.725 -0.7930 -0.9838  1.3944
 3931TIP3   OH212674   8.011   9.095  10.162  0.1586 -0.5928 -0.7574
 3931TIP3    H112675   8.053   9.012  10.142  2.0958 -0.5953  2.5694
 3931TIP3    H212676   8.012   9.144  10.079  1.9981 -2.6086 -2.0074
 3932TIP3   OH212677   4.604   5.433   0.412  0.5626 -0.0223  0.4559
 3932TIP3    H112678   4.660   5.385   0.473 -0.4606 -1.8621  0.0104
 3932TIP3    H212679   4.557   5.365   0.364 -0.2006  1.4244 -0.9346
 3933TIP3   OH212680   6.004   5.373   7.798  0.2671  0.2049  0.4851
 3933TIP3    H112681   5.911   5.388   7.811  0.1836  0.2259 -0.0832
 3933TIP3    H212682   6.010   5.279   7.778  0.0543  0.6089 -1.8416
 3934TIP3   OH212683   1.301   4.287   9.612 -0.0780 -0.1668 -0.3829
 3934TIP3    H112684   1.240   4.241   9.554 -0.4332  0.0454 -0.1796
 3934TIP3    H212685   1.250   4.309   9.690 -0.0699  1.0537 -0.6936
 3935TIP3   OH212686   7.300   3.542   5.334  0.0701  0.4063  0.0624
 3935TIP3    H112687   7.316   3.470   5.396 -0.8307 -0.5156 -0.7445
 3935TIP3    H212688   7.364   3.609   5.359  0.7393 -0.5484  1.0260
 3936TIP3   OH212689   8.882   6.574   7.092 -0.0082 -0.1572 -0.7548
 3936TIP3    H112690   8.838   6.552   7.175  0.8329  1.4538  0.1718
 3936TIP3    H212691   8.973   6.549   7.106  0.3672  1.1270 -0.7381
 3937TIP3   OH212692   8.825   1.742   3.372 -0.1385  0.1429  0.3685
 3937TIP3    H112693   8.793   1.798   3.443 -0.6154  1.4947 -0.8620
 3937TIP3    H212694   8.913   1.774   3.354  0.2035 -0.5762  0.6984
 3938TIP3   OH212695   3.306   7.987   0.849  0.0594 -0.3760 -0.0332
 3938TIP3    H112696   3.280   8.027   0.932  0.4663 -0.4111  0.1128
 3938TIP3    H212697   3.248   8.027   0.784  0.8776  0.9417  0.0134
 3939TIP3   OH212698   6.193   9.122   3.732 -0.2439 -0.0369 -0.1705
 3939TIP3    H112699   6.123   9.137   3.796 -1.1511 -2.1848 -0.5789
 3939TIP3    H212700   6.257   9.068   3.779 -0.5004 -0.8983 -0.7944
 3940TIP3   OH212701   1.385   9.228   0.472  0.2257  0.5940 -0.1570
 3940TIP3    H112702   1.457   9.281   0.438  0.7693 -0.0877 -0.0782
 3940TIP3    H212703   1.330   9.291   0.518  0.3479  1.2549 -0.8843
 3941TIP3   OH212704   9.350   5.090   7.198 -0.0512 -0.1208  0.5275
 3941TIP3    H112705   9.355   5.056   7.109  1.8414  1.2982  0.0116
 3941TIP3    H212706   9.281   5.157   7.195 -0.8901 -0.9761  0.4817
 3942TIP3   OH212707   1.213   3.019  10.549  0.1713  0.4821  0.0566
 3942TIP3    H112708   1.163   3.056  10.477 -1.5403 -2.0237 -0.1844
 3942TIP3    H212709   1.221   2.926  10.527 -1.1451 -0.5618  3.4155
 3943TIP3   OH212710   6.274   6.945   7.316  0.3682  0.0969 -0.2148
 3943TIP3    H112711   6.327   6.894   7.254  1.4849 -0.3341  1.0590
 3943TIP3    H212712   6.279   6.896   7.398  2.3029  2.6744  1.3509
 3944TIP3   OH212713   7.719   7.701   4.436 -0.1318  0.4562  0.2205
 3944TIP3    H112714   7.713   7.667   4.347 -1.3300 -0.9958  0.8047
 3944TIP3    H212715   7.628   7.721   4.460  0.2821  1.7741  0.7848
 3945TIP3   OH212716   0.648   0.543   0.436  0.5630  0.1437 -0.0066
 3945TIP3    H112717   0.605   0.458   0.429 -0.4180  0.6170  0.1826
 3945TIP3    H212718   0.586   0.606   0.400  1.5023  0.7320 -0.6639
 3946TIP3   OH212719   6.202   8.827   1.208  0.3325 -0.4471 -0.7473
 3946TIP3    H112720   6.164   8.789   1.130 -0.5748 -0.2725 -0.4021
 3946TIP3    H212721   6.143   8.802   1.279 -0.6783  2.0874 -0.5931
 3947TIP3   OH212722   3.250   7.829   8.154  0.2286 -0.0887 -0.0506
 3947TIP3    H112723   3.162   7.856   8.178  0.1630 -0.2341 -0.1278
 3947TIP3    H212724   3.297   7.824   8.237  0.8414  2.3242 -0.1688
 3948TIP3   OH212725   3.329   6.368   7.501  0.0464 -0.1106  0.2333
 3948TIP3    H112726   3.270   6.343   7.572  0.0695 -0.6500  0.0703
 3948TIP3    H212727   3.271   6.386   7.427 -0.1026  2.1085  0.8306
 3949TIP3   OH212728  10.178   7.683   7.048 -0.2573  0.3358 -0.9411
 3949TIP3    H112729  10.160   7.738   6.972 -0.6976  1.2016 -0.2267
 3949TIP3    H212730  10.093   7.642   7.069 -0.2843  0.5999 -0.5302
 3950TIP3   OH212731   4.476   9.179  10.832 -0.1392  0.0896 -0.5068
 3950TIP3    H112732   4.500   9.241  10.763 -1.1634  2.4199  1.0797
 3950TIP3    H212733   4.490   9.228  10.914 -0.7330 -1.9015  0.8651
 3951TIP3   OH212734  10.516  10.814   7.487 -0.3073 -0.1958  0.5586
 3951TIP3    H112735  10.489  10.768   7.566  0.7719  0.6465  1.4508
 3951TIP3    H212736  10.454  10.887   7.480 -1.0491 -0.8629  0.0205
 3952TIP3   OH212737   2.045  10.245   6.105 -0.1088 -0.2097  0.3556
 3952TIP3    H112738   1.984  10.243   6.031  0.5886 -2.6985 -0.2662
 3952TIP3    H212739   2.130  10.226   6.067  1.0310  2.5900  1.3084
 3953TIP3   OH212740   5.289   8.494   5.904  0.2393 -0.3933  0.6417
 3953TIP3    H112741   5.376   8.529   5.923  0.3202 -0.7213  0.8751
 3953TIP3    H212742   5.301   8.399   5.897  0.2312 -0.3062 -1.1015
 3954TIP3   OH212743   4.404   5.434   8.169  0.2283  0.3033 -0.2730
 3954TIP3    H112744   4.466   5.432   8.242  0.5416  1.1205 -0.5061
 3954TIP3    H212745   4.344   5.361   8.186  0.7644  0.0099  0.3850
 3955TIP3   OH212746   9.084   2.306   3.897  0.2922 -0.2782 -0.0817
 3955TIP3    H112747   8.993   2.332   3.886 -0.2912 -2.6041 -1.3588
 3955TIP3    H212748   9.119   2.301   3.808  1.4848 -0.0809  0.3523
 3956TIP3   OH212749  10.885   5.951   3.880  0.0720  0.2450  0.4090
 3956TIP3    H112750  10.932   5.936   3.799  0.3633 -0.7702  0.7559
 3956TIP3    H212751  10.954   5.967   3.945 -0.1698  3.2681  0.0982
 3957TIP3   OH212752   3.990   0.382   1.473  0.1896  0.6904 -0.1442
 3957TIP3    H112753   3.937   0.455   1.505  0.5383  1.0773 -0.4440
 3957TIP3    H212754   3.926   0.315   1.448 -0.0828  0.1897  1.7751
 3958TIP3   OH212755   9.230   1.146   7.545 -0.2381  0.2966  0.5275
 3958TIP3    H112756   9.321   1.166   7.568 -0.0140  0.7136 -0.6763
 3958TIP3    H212757   9.222   1.173   7.454 -1.5463  0.1595  0.5923
 3959TIP3   OH212758   3.631  10.768   0.992 -0.6492 -0.1313 -0.6463
 3959TIP3    H112759   3.600  10.678   0.982  0.5683 -0.3286 -3.9049
 3959TIP3    H212760   3.677  10.787   0.910  0.3966  2.9947  0.5035
 3960TIP3   OH212761   3.814  10.526   2.771  0.3632  0.1992 -0.2462
 3960TIP3    H112762   3.790  10.594   2.834  1.5979 -1.1300  1.7617
 3960TIP3    H212763   3.910  10.525   2.773  0.3798 -0.9669 -0.9645
 3961TIP3   OH212764   6.568   3.835   2.808 -0.1742  0.0302  0.2109
 3961TIP3    H112765   6.620   3.783   2.746  1.5003  1.4903  0.3054
 3961TIP3    H212766   6.632   3.891   2.852 -1.5908  0.4025  1.8889
 3962TIP3   OH212767   1.138   5.064   6.342  0.2744  0.6418 -0.3326
 3962TIP3    H112768   1.119   5.109   6.424  0.9965  1.5398 -0.6567
 3962TIP3    H212769   1.196   5.122   6.294  1.8666 -0.9548 -0.4452
 3963TIP3   OH212770   6.099   0.454   6.037 -0.1727 -0.0419 -0.5622
 3963TIP3    H112771   6.142   0.464   5.952 -0.0610  2.1183 -0.3055
 3963TIP3    H212772   6.153   0.391   6.084 -0.8918 -2.1963 -2.4663
 3964TIP3   OH212773   0.670   0.997   9.251 -0.3280 -0.7293  0.1816
 3964TIP3    H112774   0.597   1.015   9.310 -0.7898  1.0826 -0.8583
 3964TIP3    H212775   0.632   0.999   9.164  0.5463 -2.2549 -0.2834
 3965TIP3   OH212776   1.679   9.792  10.816 -0.9370 -0.1435  0.1094
 3965TIP3    H112777   1.741   9.737  10.865 -0.0803  0.3938 -0.3458
 3965TIP3    H212778   1.635   9.844  10.883 -0.5562 -0.1894  0.3984
 3966TIP3   OH212779   1.132  10.862   0.389  0.1716  0.0939 -0.9728
 3966TIP3    H112780   1.176  10.846   0.472  0.4917 -0.5895 -1.2720
 3966TIP3    H212781   1.146  10.956   0.372 -1.9315  0.8265  0.9038
 3967TIP3   OH212782   6.297   3.754  10.460  0.1479  0.1109 -0.1070
 3967TIP3    H112783   6.389   3.730  10.444  0.1114  0.1468 -0.3779
 3967TIP3    H212784   6.288   3.841  10.421  0.0138  0.1331 -0.0271
 3968TIP3   OH212785   3.331   9.673   3.027  0.0642 -0.3388  0.1511
 3968TIP3    H112786   3.378   9.712   3.101  1.4744 -1.3720 -0.1707
 3968TIP3    H212787   3.313   9.747   2.969  1.5816  0.0560  0.1472
 3969TIP3   OH212788   6.993   6.349   0.790 -0.0129 -0.3364 -0.2990
 3969TIP3    H112789   6.986   6.281   0.856 -1.1395  1.3347  1.4076
 3969TIP3    H212790   6.947   6.425   0.828  2.6702  1.9730 -1.2986
 3970TIP3   OH212791   0.735   2.890   2.708  0.4058  0.5980 -0.1464
 3970TIP3    H112792   0.642   2.907   2.692  0.6196  1.4332 -0.5580
 3970TIP3    H212793   0.749   2.917   2.799 -0.1282 -1.2010  0.4980
 3971TIP3   OH212794   5.463   7.600   9.870 -0.4396 -0.4783 -0.2092
 3971TIP3    H112795   5.420   7.625   9.788  0.0430  0.5881 -0.1523
 3971TIP3    H212796   5.517   7.675   9.893 -2.1569  0.1373  2.1883
 3972TIP3   OH212797  10.232   8.558   0.797  0.0373 -0.3528  0.1059
 3972TIP3    H112798  10.296   8.586   0.863  0.8214  1.6589 -1.4081
 3972TIP3    H212799  10.225   8.463   0.809  2.2138 -0.4332  1.2774
 3973TIP3   OH212800   8.179   7.729   8.609  0.0789 -0.1774 -0.4224
 3973TIP3    H112801   8.259   7.750   8.560 -1.0430 -1.0454 -2.7750
 3973TIP3    H212802   8.170   7.634   8.601 -0.1728 -0.3500  1.5267
 3974TIP3   OH212803   8.000   1.973  10.116 -0.0668 -0.2281 -0.5097
 3974TIP3    H112804   8.086   1.969  10.073 -1.6027 -1.1179 -3.8380
 3974TIP3    H212805   7.966   1.883  10.109 -0.4453 -0.4484  2.8019
 3975TIP3   OH212806   0.259   9.966   1.267 -0.3961 -0.7281  0.3640
 3975TIP3    H112807   0.209   9.955   1.348  0.2793 -0.7375  0.7927
 3975TIP3    H212808   0.288  10.057   1.270  1.0005 -1.1654  0.9591
 3976TIP3   OH212809   8.269   0.168   1.925 -0.5396  0.4630 -0.1066
 3976TIP3    H112810   8.236   0.148   2.013  0.5013  0.0193  0.1999
 3976TIP3    H212811   8.311   0.087   1.897  1.9166  1.5104  0.2875
 3977TIP3   OH212812  10.099   8.398   7.958 -0.3119  0.5310 -0.2067
 3977TIP3    H112813  10.079   8.318   7.910 -0.9848  0.0407  0.8542
 3977TIP3    H212814  10.165   8.371   8.023 -0.8652  0.7273  0.4464
 3978TIP3   OH212815   2.407  10.073   9.842  0.5029 -0.1350  0.1805
 3978TIP3    H112816   2.400  10.051   9.935 -0.2926 -0.1873  0.1098
 3978TIP3    H212817   2.323  10.047   9.804  0.8214 -0.1230 -0.5583
 3979TIP3   OH212818   1.750   7.880   0.923 -0.0240  0.1062 -0.6398
 3979TIP3    H112819   1.786   7.965   0.900 -0.3553 -0.0079 -1.6484
 3979TIP3    H212820   1.777   7.822   0.851  1.4238 -1.0046  0.7272
 3980TIP3   OH212821   7.108   2.903   0.394 -0.0115  0.0400  0.0286
 3980TIP3    H112822   7.088   2.862   0.310 -0.8374 -0.4994  0.4754
 3980TIP3    H212823   7.039   2.873   0.453  0.7483  0.1430  0.9989
 3981TIP3   OH212824   2.901  10.402   6.928 -0.2923  0.1765 -0.4702
 3981TIP3    H112825   2.872  10.492   6.939  0.6710  0.4533 -0.1281
 3981TIP3    H212826   2.939  10.378   7.012  1.4626  0.2067 -1.2016
 3982TIP3   OH212827   7.671   7.921   1.628  0.5744  0.1478  0.0468
 3982TIP3    H112828   7.666   7.932   1.533  1.6281  1.2127  0.0838
 3982TIP3    H212829   7.588   7.881   1.653 -0.5621  1.7251 -1.0789
 3983TIP3   OH212830   0.856   7.348   7.070 -0.3199  0.1022  0.2689
 3983TIP3    H112831   0.853   7.347   6.975  0.6927 -0.7126  0.2283
 3983TIP3    H212832   0.801   7.423   7.095 -1.6240 -0.4356 -0.8864
 3984TIP3   OH212833   5.095  10.332   1.800 -0.2636 -0.2041 -0.1361
 3984TIP3    H112834   5.023  10.306   1.858 -0.8499  1.0767 -0.2466
 3984TIP3    H212835   5.162  10.265   1.813 -1.0085 -0.7865  0.8555
 3985TIP3   OH212836   2.052  10.118   2.698 -0.2257 -0.1429  0.3727
 3985TIP3    H112837   2.004  10.054   2.752 -2.5968  0.7812 -0.4872
 3985TIP3    H212838   2.056  10.079   2.611  0.2630 -0.0491  0.3506
 3986TIP3   OH212839   3.115   7.965   0.324  0.5875 -0.6961 -0.6307
 3986TIP3    H112840   3.056   7.940   0.253  1.2688 -1.9851 -0.7879
 3986TIP3    H212841   3.198   7.985   0.281  0.4744  0.4443 -0.3533
 3987TIP3   OH212842   6.376   1.679   0.255  0.0446  0.4211 -0.1534
 3987TIP3    H112843   6.442   1.648   0.317 -0.0168  0.9717  0.1980
 3987TIP3    H212844   6.354   1.767   0.286 -0.1883  0.5969 -0.8001
 3988TIP3   OH212845   4.045   7.246   9.261 -0.6382 -0.5146  0.5241
 3988TIP3    H112846   3.958   7.285   9.275 -0.3257  0.4621 -0.1256
 3988TIP3    H212847   4.036   7.198   9.178 -0.1948  0.8125 -0.3387
 3989TIP3   OH212848   2.602   9.785   6.976  0.1379  0.2165  0.3236
 3989TIP3    H112849   2.558   9.813   7.056 -1.0963  0.3979 -0.3841
 3989TIP3    H212850   2.531   9.777   6.911  0.7722 -2.0145 -0.1906
 3990TIP3   OH212851   3.003   3.626   2.520  0.1648  0.1271 -0.2813
 3990TIP3    H112852   3.058   3.685   2.571  2.8081 -1.7231 -0.7668
 3990TIP3    H212853   2.928   3.679   2.494  1.7353  2.8635  0.3806
 3991TIP3   OH212854   5.199  10.602   9.406  0.1388  0.3779 -0.0727
 3991TIP3    H112855   5.243  10.686   9.396 -0.3696  0.7616  0.7884
 3991TIP3    H212856   5.105  10.623   9.402  0.0052 -0.3084 -1.0192
 3992TIP3   OH212857   9.729  10.688   3.622  0.2319  0.0089 -0.0360
 3992TIP3    H112858   9.703  10.602   3.654 -2.3176  1.0903  1.0666
 3992TIP3    H212859   9.800  10.715   3.679  1.0797 -1.3278 -0.4111
 3993TIP3   OH212860   7.246   4.999   5.698  0.4410  0.0705 -0.2817
 3993TIP3    H112861   7.288   4.957   5.773  0.0381 -0.4804 -0.3572
 3993TIP3    H212862   7.224   5.087   5.728 -0.0086 -0.2520  0.3485
 3994TIP3   OH212863   1.535   4.920   6.227  0.0661  0.1539 -0.6313
 3994TIP3    H112864   1.591   4.997   6.214  0.4027  0.0682  0.2386
 3994TIP3    H212865   1.556   4.862   6.154  0.7215  0.3546 -0.6067
 3995TIP3   OH212866   6.096   5.946   0.860 -0.2903  0.3760  0.3782
 3995TIP3    H112867   6.012   5.968   0.899 -0.7787 -1.6883  0.5842
 3995TIP3    H212868   6.141   5.894   0.926  0.0490 -0.7735 -0.7214
 3996TIP3   OH212869   4.060   5.752   4.427 -0.2153 -0.1396 -0.2025
 3996TIP3    H112870   4.065   5.786   4.516  0.4181  1.0025 -0.6551
 3996TIP3    H212871   4.109   5.670   4.430 -2.1248 -1.3010  1.0052
 3997TIP3   OH212872   7.739   1.732   1.981  0.1500  0.2471 -0.8711
 3997TIP3    H112873   7.824   1.715   2.021 -0.8675  0.5738  1.6812
 3997TIP3    H212874   7.679   1.673   2.027 -1.1815  0.8015 -1.8260
 3998TIP3   OH212875   3.641   5.848   7.729  0.0297  0.0062  0.0003
 3998TIP3    H112876   3.708   5.914   7.742 -0.1938  0.1528  0.4005
 3998TIP3    H212877   3.658   5.782   7.797 -0.7005  0.4253  0.5958
 3999TIP3   OH212878   3.220   1.714   1.181 -0.1795  0.5968  0.5841
 3999TIP3    H112879   3.203   1.711   1.276 -0.5733 -1.1809  0.4979
 3999TIP3    H212880   3.200   1.626   1.151  1.3420  0.7187 -0.9392
 4000TIP3   OH212881  10.880   5.697   5.202  0.2348 -0.4612 -0.4890
 4000TIP3    H112882  10.968   5.727   5.223 -0.8205  2.2324  0.5940
 4000TIP3    H212883  10.835   5.775   5.170 -1.1717 -2.2505 -3.2529
 4001TIP3   OH212884   9.419   0.117   3.263 -0.0790 -0.2578 -0.4392
 4001TIP3    H112885   9.464   0.110   3.347 -0.4621  1.2681 -0.0969
 4001TIP3    H212886   9.345   0.057   3.271  0.7300 -1.2841 -0.2797
 4002TIP3   OH212887   0.060   8.965   2.686 -0.0810  0.2295  0.2817
 4002TIP3    H112888   0.031   8.948   2.776 -0.5899  0.8448  0.2426
 4002TIP3    H212889   0.051   9.060   2.676 -0.0338  0.1625 -0.4262
 4003TIP3   OH212890   8.974   2.044   4.715  0.3806  0.1206 -0.3424
 4003TIP3    H112891   8.973   2.037   4.810  0.0120 -2.7047 -0.4856
 4003TIP3    H212892   8.899   2.101   4.695  0.5597  0.8919  1.0107
 4004TIP3   OH212893  10.902   9.813   6.496 -0.6303 -0.1441  0.1913
 4004TIP3    H112894  10.957   9.867   6.440 -0.4186  0.5461  1.0490
 4004TIP3    H212895  10.901   9.727   6.453 -0.0516  0.2278 -0.5809
 4005TIP3   OH212896   2.822   2.055   5.321 -0.0763  0.3697 -0.0299
 4005TIP3    H112897   2.899   2.096   5.362 -0.1816  1.4443 -0.8664
 4005TIP3    H212898   2.822   1.966   5.356  2.6471 -0.2989 -1.4246
 4006TIP3   OH212899   0.137   8.175   2.056  0.8075  0.1508  0.0837
 4006TIP3    H112900   0.118   8.165   1.963  0.6269  0.3719  0.0969
 4006TIP3    H212901   0.127   8.269   2.073  0.6551  0.0847  0.3666
 4007TIP3   OH212902   2.473   5.476   0.960  0.0756  0.3470 -0.4668
 4007TIP3    H112903   2.396   5.478   0.904 -1.1142 -0.8247  1.0275
 4007TIP3    H212904   2.445   5.428   1.038  1.8474  1.2938  0.8414
 4008TIP3   OH212905   1.450  10.042   5.763 -0.9916  0.3679 -0.1746
 4008TIP3    H112906   1.534  10.005   5.792 -0.5667  1.3760 -0.0703
 4008TIP3    H212907   1.415   9.977   5.702 -0.1939 -0.1271 -0.1259
 4009TIP3   OH212908   8.477   6.243   9.629  0.0501 -0.7692 -0.4516
 4009TIP3    H112909   8.564   6.218   9.598 -0.7880 -2.4189 -1.6549
 4009TIP3    H212910   8.417   6.197   9.570 -1.6451  0.4743  0.2247
 4010TIP3   OH212911   1.229   5.122   0.619 -0.2794 -0.3995 -0.2898
 4010TIP3    H112912   1.141   5.159   0.624  0.2859  0.9841 -0.0696
 4010TIP3    H212913   1.282   5.180   0.674  1.2288  0.1742 -2.2464
 4011TIP3   OH212914   0.122   5.277   8.735 -0.0108 -0.4301 -0.7010
 4011TIP3    H112915   0.189   5.231   8.684  0.6532 -1.1024  0.7246
 4011TIP3    H212916   0.151   5.368   8.737  0.3226 -0.5302 -0.9240
 4012TIP3   OH212917   4.867   9.293   3.841  0.0554 -0.1431 -0.1922
 4012TIP3    H112918   4.801   9.245   3.792 -0.0397  2.1143 -2.5241
 4012TIP3    H212919   4.941   9.233   3.846 -1.6196 -2.2299  1.2977
 4013TIP3   OH212920   9.948   8.389   6.094  0.3377  0.0870  0.3354
 4013TIP3    H112921   9.904   8.346   6.167 -0.8223  1.2471  0.3706
 4013TIP3    H212922  10.023   8.333   6.074  1.0168  0.0041  2.7640
 4014TIP3   OH212923   2.322   7.342   2.001 -0.3410 -0.0733  0.1678
 4014TIP3    H112924   2.331   7.249   1.981  0.7364  0.2136 -0.7657
 4014TIP3    H212925   2.381   7.357   2.074  1.1164  0.2599 -1.0175
 4015TIP3   OH212926   3.077  10.149   7.422  0.5895  0.1167  0.1494
 4015TIP3    H112927   2.997  10.164   7.473  2.0128  0.6716  2.3857
 4015TIP3    H212928   3.054  10.175   7.333 -2.2545 -1.6169  0.2565
 4016TIP3   OH212929   5.257   2.483   8.080  0.8137  0.0920 -0.4900
 4016TIP3    H112930   5.342   2.483   8.036  0.3899  2.0476 -1.4140
 4016TIP3    H212931   5.277   2.488   8.173  1.7291  1.1763 -0.7280
 4017TIP3   OH212932   2.467   1.628   6.018 -0.1589 -0.8274 -0.1467
 4017TIP3    H112933   2.372   1.622   6.003 -0.0095 -2.1101 -0.7172
 4017TIP3    H212934   2.480   1.717   6.051 -1.8941 -1.3867  2.3870
 4018TIP3   OH212935   2.114   7.367  10.758  0.2001 -0.2951  0.4890
 4018TIP3    H112936   2.117   7.273  10.776 -3.4547 -0.6018  0.2338
 4018TIP3    H212937   2.120   7.408  10.845  1.8114 -0.6961  0.6029
 4019TIP3   OH212938   3.812  10.703   3.002  0.0471 -0.4046  0.1882
 4019TIP3    H112939   3.763  10.768   3.053 -0.2734 -0.6760  0.2298
 4019TIP3    H212940   3.886  10.680   3.058 -0.3062 -0.7053  0.5350
 4020TIP3   OH212941   2.882   7.313   1.575  0.1623 -0.0996 -0.2310
 4020TIP3    H112942   2.892   7.280   1.665 -1.5631  2.0146  0.8323
 4020TIP3    H212943   2.914   7.403   1.579 -0.3375  0.1614 -1.6597
 4021TIP3   OH212944   8.810   4.993   0.185 -0.1285 -0.3637  0.2261
 4021TIP3    H112945   8.735   4.944   0.219 -0.8425  1.0104  0.7041
 4021TIP3    H212946   8.821   4.960   0.096 -1.5252 -0.3578  0.0243
 4022TIP3   OH212947   8.570   5.591   5.697 -0.6041 -0.1329 -0.0634
 4022TIP3    H112948   8.517   5.541   5.759  0.4473 -0.5490  0.5156
 4022TIP3    H212949   8.605   5.525   5.638 -2.2157  0.3287 -1.6311
 4023TIP3   OH212950   1.174   6.872   7.320  0.8802  0.0800 -0.3283
 4023TIP3    H112951   1.181   6.954   7.272  1.3444  0.1506 -0.1372
 4023TIP3    H212952   1.085   6.873   7.357 -0.1995 -0.8213 -2.7114
 4024TIP3   OH212953   3.396   3.213   7.293 -0.7885  0.1388  0.2490
 4024TIP3    H112954   3.353   3.284   7.246 -1.3839 -1.3965 -1.6672
 4024TIP3    H212955   3.402   3.244   7.384 -0.1428  2.9812 -0.6642
 4025TIP3   OH212956   4.562   1.212   9.727  0.3477 -0.0743 -0.2223
 4025TIP3    H112957   4.566   1.253   9.641  0.8704 -0.5412 -0.4220
 4025TIP3    H212958   4.470   1.217   9.752  0.5651  2.5728  0.4113
 4026TIP3   OH212959   8.559   5.582   8.700 -0.0423  0.5664  0.1732
 4026TIP3    H112960   8.643   5.545   8.673 -1.0091 -0.7242 -1.2351
 4026TIP3    H212961   8.553   5.563   8.793  1.3880  1.0313  0.3842
 4027TIP3   OH212962   5.786   4.529   2.065  0.5887 -0.0128  0.1774
 4027TIP3    H112963   5.861   4.485   2.025  0.3803  0.7864 -1.1265
 4027TIP3    H212964   5.776   4.610   2.016  1.2868  1.8167  2.8350
 4028TIP3   OH212965   4.679   1.528   9.692 -0.0721  0.3118 -0.2641
 4028TIP3    H112966   4.746   1.579   9.737  0.5659 -0.5998 -0.1731
 4028TIP3    H212967   4.651   1.585   9.620  2.2219 -0.0514 -1.5395
 4029TIP3   OH212968   4.620   1.170   5.586  0.1955 -0.0943  0.5774
 4029TIP3    H112969   4.696   1.180   5.528  1.2221  1.2819  2.0773
 4029TIP3    H212970   4.648   1.103   5.649 -0.1099 -0.0757  0.7303
 4030TIP3   OH212971   3.925   9.423   8.718  0.3443 -0.2578  0.0178
 4030TIP3    H112972   3.935   9.480   8.795  1.6653  0.8542 -0.9284
 4030TIP3    H212973   3.849   9.369   8.738 -0.4369  1.2539  1.3227
 4031TIP3   OH212974   9.969  10.185   2.754 -0.2087 -0.4187 -0.1463
 4031TIP3    H112975  10.006  10.119   2.696  0.0183  0.4877 -1.0829
 4031TIP3    H212976  10.042  10.215   2.807 -0.4881 -1.4891  0.8680
 4032TIP3   OH212977  10.418   6.847   2.238 -0.1473 -0.0599 -0.1373
 4032TIP3    H112978  10.437   6.909   2.308  1.6877 -1.1352  0.3901
 4032TIP3    H212979  10.502   6.834   2.194 -1.0816 -0.0624 -2.0322
 4033TIP3   OH212980   7.369   5.929   4.493  0.1185  0.2612 -0.0958
 4033TIP3    H112981   7.309   5.892   4.428  1.5425 -1.7478 -0.3569
 4033TIP3    H212982   7.379   5.861   4.559  1.5238  0.8019  0.2951
 4034TIP3   OH212983   8.607   2.177   6.258 -0.2263 -0.0817  0.0389
 4034TIP3    H112984   8.640   2.199   6.345  0.4685 -0.4897 -0.1155
 4034TIP3    H212985   8.685   2.175   6.202 -0.3762 -1.9581 -0.1535
 4035TIP3   OH212986   9.482   1.619  10.449  0.0132  0.3294 -0.0321
 4035TIP3    H112987   9.396   1.604  10.488 -0.8834  1.0984 -1.6117
 4035TIP3    H212988   9.464   1.671  10.370  2.0673  1.8633  0.4185
 4036TIP3   OH212989   4.298   8.782  10.144  0.0997 -0.0059  0.0360
 4036TIP3    H112990   4.223   8.726  10.164  1.3576 -2.6713 -2.1254
 4036TIP3    H212991   4.360   8.766  10.215 -0.0602 -0.3778  0.0908
 4037TIP3   OH212992   9.408   4.062   4.441 -0.3962  0.0015  0.1970
 4037TIP3    H112993   9.379   3.985   4.491 -0.9935  0.2033  0.1713
 4037TIP3    H212994   9.337   4.077   4.378 -0.4995  0.8448  0.4978
 4038TIP3   OH212995   2.670   6.600   0.807  0.1629 -0.3310 -0.4699
 4038TIP3    H112996   2.597   6.549   0.772  0.3105 -0.2058 -0.9637
 4038TIP3    H212997   2.664   6.588   0.902 -0.5825 -0.2099 -0.4968
 4039TIP3   OH212998   3.041   3.450   7.170  0.0583  0.2035 -0.1850
 4039TIP3    H112999   3.028   3.508   7.244 -0.6094 -0.3689  0.1648
 4039TIP3    H213000   3.009   3.499   7.094 -0.6066  0.2518  0.1237
 4040TIP3   OH213001   5.388  10.672   1.165  0.1648 -0.4971 -0.3778
 4040TIP3    H113002   5.320  10.607   1.186 -0.1254 -0.3612 -0.8725
 4040TIP3    H213003   5.469  10.621   1.161  0.0123 -0.7468 -0.2917
 4041TIP3   OH213004   6.981   9.347   5.913  0.2613  0.6544 -0.0888
 4041TIP3    H113005   6.891   9.337   5.945 -0.4855 -1.4799 -2.5400
 4041TIP3    H213006   6.989   9.440   5.895 -1.3026  0.9634  0.5639
 4042TIP3   OH213007   4.482   5.618   6.478  0.0408  0.1780  0.6988
 4042TIP3    H113008   4.518   5.623   6.567 -0.4747  1.7295  0.8520
 4042TIP3    H213009   4.557   5.630   6.421 -0.1435  3.5507  1.0155
 4043TIP3   OH213010   4.670   1.600   6.232  0.0216  0.1708 -0.1725
 4043TIP3    H113011   4.732   1.644   6.174 -0.7836  0.2502 -1.0065
 4043TIP3    H213012   4.621   1.672   6.272  0.2082  0.0962  0.1919
 4044TIP3   OH213013   9.298   6.132   7.371 -0.5825 -0.5279 -0.3554
 4044TIP3    H113014   9.237   6.084   7.427 -1.0343 -0.5960 -0.9015
 4044TIP3    H213015   9.262   6.220   7.366 -0.1908 -0.3426 -0.0193
 4045TIP3   OH213016   6.132   5.897   3.949  0.6307  0.4905 -0.6197
 4045TIP3    H113017   6.129   5.993   3.953 -0.5589  0.6328 -3.0425
 4045TIP3    H213018   6.057   5.873   3.895  0.1594 -1.9364  0.9439
 4046TIP3   OH213019   7.963   8.159   5.647  0.1779  0.3037  0.0318
 4046TIP3    H113020   7.957   8.126   5.558 -0.3582 -1.0311  0.5428
 4046TIP3    H213021   8.056   8.152   5.669 -0.1485 -3.0336  0.8683
 4047TIP3   OH213022   1.610   6.517   6.758 -0.1025 -0.1992 -0.0905
 4047TIP3    H113023   1.656   6.601   6.755  0.6790 -0.5737  0.8315
 4047TIP3    H213024   1.519   6.540   6.777  0.1212  0.4421  0.2255
 4048TIP3   OH213025   4.133   8.541   2.702  0.2996 -0.1010 -0.3007
 4048TIP3    H113026   4.120   8.621   2.753  1.2038  0.6891 -1.2715
 4048TIP3    H213027   4.050   8.495   2.708 -0.8021  1.6910 -1.0512
 4049TIP3   OH213028   1.354   4.030   5.165  0.0420 -0.2791 -0.5469
 4049TIP3    H113029   1.275   4.082   5.156 -0.7349 -1.1770  0.7373
 4049TIP3    H213030   1.416   4.087   5.211 -0.1783  0.0979 -0.7160
 4050TIP3   OH213031   4.675   0.282   3.359 -0.0389  0.0340  0.0032
 4050TIP3    H113032   4.740   0.217   3.387  0.5864  0.2211 -0.9866
 4050TIP3    H213033   4.632   0.241   3.284  0.0502  0.5778 -0.3462
 4051TIP3   OH213034  10.793   0.711   4.482  0.1743  0.8554 -0.6242
 4051TIP3    H113035  10.813   0.783   4.542  1.1744  0.5009 -0.5135
 4051TIP3    H213036  10.767   0.639   4.539 -2.9943  1.6950 -0.7956
 4052TIP3   OH213037   5.174   3.750   2.730 -0.1283 -0.0307  0.2493
 4052TIP3    H113038   5.124   3.672   2.704  0.1965 -0.6855  1.4866
 4052TIP3    H213039   5.262   3.734   2.696 -0.3408  0.3739 -0.5292
 4053TIP3   OH213040   5.703   1.984   4.644  0.1505  0.4949  0.4606
 4053TIP3    H113041   5.614   1.977   4.609  1.0485 -0.4152 -1.9212
 4053TIP3    H213042   5.707   2.070   4.685 -1.6444  0.8230  0.0045
 4054TIP3   OH213043   5.723   6.518   2.911  0.1690  0.0300 -0.3370
 4054TIP3    H113044   5.692   6.439   2.955  3.2975 -1.5584 -0.7464
 4054TIP3    H213045   5.715   6.497   2.817 -0.6064  0.9241 -0.4831
 4055TIP3   OH213046   8.522   5.264   2.073  0.8030 -0.8078 -0.1205
 4055TIP3    H113047   8.532   5.229   1.984  0.3111 -1.2949  0.0100
 4055TIP3    H213048   8.607   5.304   2.093  1.8927 -3.1249  0.2433
 4056TIP3   OH213049   7.342   9.344   8.858  0.2065  0.1591 -0.3468
 4056TIP3    H113050   7.271   9.308   8.912 -1.6918  1.5414 -1.7667
 4056TIP3    H213051   7.382   9.411   8.914 -0.1481 -0.0634  0.1871
 4057TIP3   OH213052   1.598   3.202   8.344  0.1777 -0.4462  1.2326
 4057TIP3    H113053   1.644   3.273   8.390  1.3386 -0.8834  0.7897
 4057TIP3    H213054   1.659   3.129   8.346 -0.5384 -1.0732  0.6684
 4058TIP3   OH213055   5.502  10.094   0.104 -0.8858  0.3928  0.1683
 4058TIP3    H113056   5.486  10.003   0.127  1.4505  0.2159  1.4579
 4058TIP3    H213057   5.533  10.134   0.186 -1.7776  2.3404 -0.3814
 4059TIP3   OH213058   2.769   7.170   7.841  0.1016 -0.2169  0.6377
 4059TIP3    H113059   2.785   7.191   7.749 -0.5142  1.0661  0.8013
 4059TIP3    H213060   2.679   7.136   7.843  0.4704 -1.2455  0.6400
 4060TIP3   OH213061   4.893   0.390   5.532  0.2730  0.2528  0.0774
 4060TIP3    H113062   4.936   0.475   5.526  0.1484  0.2221 -1.7932
 4060TIP3    H213063   4.965   0.327   5.533  0.3449  0.3411  0.4520
 4061TIP3   OH213064   9.188   8.107   4.132  0.2101  0.0031  0.0732
 4061TIP3    H113065   9.192   8.062   4.048 -1.4063 -0.1533  0.0524
 4061TIP3    H213066   9.152   8.194   4.111  2.4452  1.0290  0.2397
 4062TIP3   OH213067   3.957   3.229   6.078 -0.3768 -0.5433 -0.0722
 4062TIP3    H113068   3.898   3.234   6.004  0.1199  0.4626 -0.4156
 4062TIP3    H213069   3.901   3.203   6.152 -1.7616  2.5539  0.1235
 4063TIP3   OH213070   2.636   9.935   3.256  0.4223  0.1435 -0.3490
 4063TIP3    H113071   2.727   9.963   3.241  0.0434  0.4272 -2.2824
 4063TIP3    H213072   2.585   9.984   3.192 -1.1059 -0.1340  0.6106
 4064TIP3   OH213073   5.990   2.213   8.981  0.1529 -0.3886  0.1800
 4064TIP3    H113074   6.058   2.214   9.049 -1.0143 -0.7844  1.3880
 4064TIP3    H213075   5.917   2.260   9.020 -0.1979  0.2603 -1.2090
 4065TIP3   OH213076   0.243   2.698   3.730  0.1213  0.2768 -0.1622
 4065TIP3    H113077   0.255   2.747   3.811  2.7714 -1.2537  0.4762
 4065TIP3    H213078   0.196   2.619   3.757  0.8049 -0.1261 -0.1189
 4066TIP3   OH213079   7.986   4.353   0.171 -0.3806 -0.2786 -0.1166
 4066TIP3    H113080   7.929   4.280   0.196  0.0509 -0.5976 -0.0675
 4066TIP3    H213081   7.934   4.402   0.107 -0.7388 -0.5281 -0.0215
 4067TIP3   OH213082   8.990   8.724   6.391  0.0717 -0.3811  0.3448
 4067TIP3    H113083   9.043   8.756   6.464 -0.1407 -0.2754  0.4561
 4067TIP3    H213084   9.051   8.677   6.335  0.0385 -1.3953  1.1358
 4068TIP3   OH213085   6.047   0.575   2.099  0.4559  0.1596  0.4453
 4068TIP3    H113086   6.031   0.591   2.006  0.4942  2.1263  0.7357
 4068TIP3    H213087   6.046   0.480   2.107 -0.1769 -0.0421 -1.4488
 4069TIP3   OH213088   2.606   0.382   7.113 -0.3230  0.4767 -0.2775
 4069TIP3    H113089   2.562   0.432   7.045  0.0935  1.7035  0.3186
 4069TIP3    H213090   2.668   0.444   7.152  0.2303 -0.5174  0.4808
 4070TIP3   OH213091   0.090   9.332   5.380 -0.3414 -0.2961  0.6075
 4070TIP3    H113092   0.092   9.415   5.428 -0.6594  0.6576 -0.9653
 4070TIP3    H213093   0.170   9.334   5.327 -0.5825 -0.7701  0.2210
 4071TIP3   OH213094   7.148   1.342  10.210 -0.4551  0.6968 -0.4926
 4071TIP3    H113095   7.104   1.296  10.139  2.2471 -2.1984 -0.4928
 4071TIP3    H213096   7.241   1.341  10.186  0.4003  0.8389  2.3788
 4072TIP3   OH213097   3.468   6.242   1.336 -0.1979 -0.2373 -0.3471
 4072TIP3    H113098   3.447   6.204   1.251  1.5484 -0.9342 -0.5060
 4072TIP3    H213099   3.449   6.172   1.399  1.6338 -0.9521 -0.5106
 4073TIP3   OH213100   1.022   7.819  10.364 -0.1649 -0.5517  0.2499
 4073TIP3    H113101   1.106   7.854  10.334 -0.5474 -1.1342 -1.5998
 4073TIP3    H213102   1.002   7.870  10.443  0.7089  1.3532 -0.6928
 4074TIP3   OH213103   3.879   4.737   8.825  0.0822 -0.2108  0.2231
 4074TIP3    H113104   3.857   4.799   8.895 -2.2111 -0.9308  0.2248
 4074TIP3    H213105   3.859   4.651   8.863 -0.9059 -0.6305 -1.1897
 4075TIP3   OH213106   4.754   7.694   7.630 -0.1206  0.2649  0.2596
 4075TIP3    H113107   4.746   7.714   7.723  1.7998 -0.4166  0.6131
 4075TIP3    H213108   4.823   7.628   7.625 -1.2332 -0.8522 -1.5274
 4076TIP3   OH213109   5.830   3.171   2.885 -0.4889  0.5922 -0.6126
 4076TIP3    H113110   5.857   3.205   2.799 -1.0389  1.0821 -0.6026
 4076TIP3    H213111   5.865   3.234   2.948 -3.8182  2.8277 -0.7289
 4077TIP3   OH213112   0.795   8.353  10.125  0.2522  0.1118 -0.1822
 4077TIP3    H113113   0.851   8.326  10.052 -0.6752 -1.4202 -0.3826
 4077TIP3    H213114   0.856   8.368  10.197  1.1825  1.5997 -1.2219
 4078TIP3   OH213115   8.221   1.957  10.861  0.3440  0.1516 -0.3610
 4078TIP3    H113116   8.260   1.872  10.841 -0.1719  0.2365 -1.8490
 4078TIP3    H213117   8.127   1.943  10.853  0.2014  0.6437  0.3414
 4079TIP3   OH213118   0.535  10.704   5.186  0.0212  0.0484 -0.5759
 4079TIP3    H113119   0.619  10.746   5.206  0.7807 -0.7502 -1.9240
 4079TIP3    H213120   0.532  10.628   5.244 -0.5030  0.9141  0.5605
 4080TIP3   OH213121  10.312   9.496   7.242 -0.5172 -0.1715 -0.0229
 4080TIP3    H113122  10.228   9.463   7.209  0.5911 -1.1011 -2.0900
 4080TIP3    H213123  10.373   9.485   7.169  2.0556 -2.0193  2.1627
 4081TIP3   OH213124   9.476   0.957   1.046  0.1845 -0.2341  0.4958
 4081TIP3    H113125   9.407   0.908   1.002  3.1126 -2.7048 -1.7794
 4081TIP3    H213126   9.494   0.907   1.126  0.3018 -0.4421  0.3407
 4082TIP3   OH213127  10.753   1.893   6.084  0.3171  1.1495  0.9021
 4082TIP3    H113128  10.668   1.929   6.058  0.4084  1.3496  0.8795
 4082TIP3    H213129  10.815   1.962   6.063  0.8729 -0.0028 -1.7218
 4083TIP3   OH213130  10.144   8.417   6.688  0.3196 -0.0382  0.2566
 4083TIP3    H113131  10.101   8.427   6.603 -0.0972  1.5038  0.6250
 4083TIP3    H213132  10.073   8.393   6.748  0.5199 -0.5792  0.2827
 4084TIP3   OH213133   5.238  10.906   1.985 -0.9287 -0.0130 -0.1371
 4084TIP3    H113134   5.286  10.929   2.065 -2.5345  0.0478  0.8598
 4084TIP3    H213135   5.253  10.812   1.974 -0.2409  0.0858 -0.0847
 4085TIP3   OH213136   1.042   6.550   5.123 -0.4243 -0.3935 -0.4575
 4085TIP3    H113137   1.085   6.565   5.039 -0.8500 -1.4731 -0.8840
 4085TIP3    H213138   1.010   6.460   5.118 -2.9579  0.4075 -0.2691
 4086TIP3   OH213139   5.942   9.142   2.815 -0.0867 -0.5534  0.4285
 4086TIP3    H113140   5.880   9.171   2.748  0.6035  1.4592  0.5933
 4086TIP3    H213141   5.890   9.140   2.895  0.0911  1.7355  0.6885
 4087TIP3   OH213142   0.376   2.766  10.896 -0.3560  0.2975 -0.3666
 4087TIP3    H113143   0.396   2.848  10.941  1.4193 -1.3302  2.0462
 4087TIP3    H213144   0.407   2.780  10.807 -0.1510  2.2562 -0.0327
 4088TIP3   OH213145   8.513   7.586   5.978 -0.1334  0.0698 -0.1867
 4088TIP3    H113146   8.445   7.535   5.934 -0.1059  0.7713 -1.0546
 4088TIP3    H213147   8.533   7.535   6.057  0.3710 -1.6277 -1.3408
 4089TIP3   OH213148  10.261   9.243   8.045 -0.2598 -0.1066 -0.3139
 4089TIP3    H113149  10.311   9.205   8.118  1.1926  1.5744 -0.3492
 4089TIP3    H213150  10.250   9.335   8.070 -0.0769  0.4089 -2.0215
 4090TIP3   OH213151   5.789   9.194   0.459 -0.2123 -0.3907  0.3868
 4090TIP3    H113152   5.849   9.223   0.529 -0.0307  2.4213 -0.8023
 4090TIP3    H213153   5.722   9.262   0.455 -1.4783 -1.6315 -0.7476
 4091TIP3   OH213154   1.376   2.777   4.431 -0.0033  0.1734  0.3143
 4091TIP3    H113155   1.393   2.867   4.402  0.2826 -0.5264 -1.8686
 4091TIP3    H213156   1.460   2.732   4.419 -0.8974 -1.0907 -1.6031
 4092TIP3   OH213157   5.432   0.711   5.789  0.1136 -0.1779  0.1240
 4092TIP3    H113158   5.490   0.639   5.765 -1.9087 -1.8763  0.0320
 4092TIP3    H213159   5.357   0.702   5.731 -1.3981  0.3554  1.8835
 4093TIP3   OH213160   1.442   9.461   0.265 -0.2211  0.0964  0.2309
 4093TIP3    H113161   1.404   9.534   0.315  0.9800  0.7571  0.2291
 4093TIP3    H213162   1.463   9.498   0.180 -1.1637 -0.7207 -0.3748
 4094TIP3   OH213163   4.733   6.323   0.688 -0.2812 -0.3703 -0.2760
 4094TIP3    H113164   4.782   6.393   0.730  1.8856 -0.1579 -2.9171
 4094TIP3    H213165   4.756   6.245   0.738  0.3145  0.1872  0.3547
 4095TIP3   OH213166   1.949   2.513  10.868 -0.3562 -0.1357 -0.4252
 4095TIP3    H113167   1.887   2.472  10.807 -1.2962  1.4023 -0.5707
 4095TIP3    H213168   2.013   2.444  10.888 -0.4929 -0.9288 -2.4896
 4096TIP3   OH213169   4.976   4.941   7.332  0.1590  0.4754  0.2824
 4096TIP3    H113170   4.896   4.911   7.374 -0.0956 -0.0298 -0.5450
 4096TIP3    H213171   4.958   5.032   7.308  0.5054  0.9664  1.7172
 4097TIP3   OH213172   8.811   4.701   0.961  0.3465  0.4445 -0.2522
 4097TIP3    H113173   8.885   4.760   0.954  0.4525  0.6094  1.6201
 4097TIP3    H213174   8.848   4.618   0.992 -0.2770  0.7140  1.3140
 4098TIP3   OH213175   2.396   3.773   7.417  0.7268 -0.2002 -0.2022
 4098TIP3    H113176   2.346   3.799   7.494  1.7131  2.0610 -0.2509
 4098TIP3    H213177   2.335   3.718   7.367 -1.9093  2.5979 -0.3986
 4099TIP3   OH213178   7.866   7.889   7.956 -0.2309 -0.3436  0.1196
 4099TIP3    H113179   7.791   7.941   7.983  1.4788  2.1722  0.4132
 4099TIP3    H213180   7.891   7.841   8.035 -1.3041 -0.9315  0.1122
 4100TIP3   OH213181   5.359   8.218   0.688 -0.1651  0.3909 -0.1914
 4100TIP3    H113182   5.406   8.287   0.640  1.0700  0.4979  1.1258
 4100TIP3    H213183   5.348   8.252   0.776 -0.6192 -0.6259  0.1673
 4101TIP3   OH213184   0.732   0.073   7.470  0.0338  0.3637  0.1779
 4101TIP3    H113185   0.677   0.053   7.394  0.1612  3.2019 -0.7813
 4101TIP3    H213186   0.793  -0.001   7.476 -0.7354 -0.4882 -1.7511
 4102TIP3   OH213187  10.206   9.075   3.560  0.2338  0.1514  0.0106
 4102TIP3    H113188  10.129   9.109   3.515  1.7147  0.9801 -2.0920
 4102TIP3    H213189  10.239   9.150   3.611  0.3599  0.1955 -0.1344
 4103TIP3   OH213190   2.590   3.173   1.243  0.0016  0.3021 -0.0998
 4103TIP3    H113191   2.642   3.097   1.269 -0.2205  0.1528 -0.0889
 4103TIP3    H213192   2.641   3.214   1.173 -0.3635 -0.4377 -0.8242
 4104TIP3   OH213193   8.954   8.652   3.666  0.0162 -0.0446 -0.1846
 4104TIP3    H113194   8.885   8.663   3.731 -0.9979 -0.9309 -1.0598
 4104TIP3    H213195   8.915   8.687   3.585  0.4829 -0.8143 -0.7513
 4105TIP3   OH213196   0.111   4.060   9.188 -0.2126 -0.2965  0.2267
 4105TIP3    H113197   0.158   4.022   9.113 -0.3504 -0.0351  0.0085
 4105TIP3    H213198   0.177   4.108   9.237 -0.4078  0.7601 -0.5271
 4106TIP3   OH213199   0.536  10.382   8.424 -0.0931 -0.4202  0.7931
 4106TIP3    H113200   0.585  10.303   8.450  0.0976 -0.8736 -0.8642
 4106TIP3    H213201   0.459  10.382   8.482  0.1649 -1.5473  1.1605
 4107TIP3   OH213202   0.604   9.694   4.628 -0.7409 -0.4331 -0.3460
 4107TIP3    H113203   0.680   9.749   4.613  0.5848 -2.0517  0.1191
 4107TIP3    H213204   0.541   9.752   4.671  0.1272  0.9914 -0.9223
 4108TIP3   OH213205   1.064   1.957   3.546  0.5866  0.1774 -0.1888
 4108TIP3    H113206   1.029   1.868   3.553  3.6491 -1.2102 -0.8595
 4108TIP3    H213207   1.052   1.980   3.454 -1.2491  1.0246  0.2081
 4109TIP3   OH213208   2.482   1.514   7.623  0.0210  0.0642 -0.1112
 4109TIP3    H113209   2.485   1.493   7.529  1.7935 -0.1447 -0.0436
 4109TIP3    H213210   2.526   1.599   7.630 -0.7947  0.4507  0.4566
 4110TIP3   OH213211   5.608   3.090  10.368 -0.1836 -0.3399  0.3097
 4110TIP3    H113212   5.597   3.101  10.463  1.0039  2.2979  0.1990
 4110TIP3    H213213   5.606   2.995  10.356 -2.1066 -0.7268  2.7257
 4111TIP3   OH213214   3.836   5.767   9.078 -0.0608  0.1825  0.2618
 4111TIP3    H113215   3.929   5.748   9.093  0.0527  0.5346  0.0366
 4111TIP3    H213216   3.815   5.721   8.996  0.0779  0.5929 -0.0094
 4112TIP3   OH213217   0.246   7.023   7.403  0.3190 -0.0785 -0.0200
 4112TIP3    H113218   0.281   7.109   7.378 -1.3965  0.9862  0.9905
 4112TIP3    H213219   0.292   7.001   7.483  1.4625 -0.6027 -0.7928
 4113TIP3   OH213220   6.690   8.507   6.604 -0.3188 -0.1391 -0.2815
 4113TIP3    H113221   6.709   8.475   6.516 -2.8162  1.2875 -1.4643
 4113TIP3    H213222   6.714   8.600   6.601 -0.8336  0.0196  0.3810
 4114TIP3   OH213223   3.605   7.136   6.463 -0.2736 -0.0191  0.5586
 4114TIP3    H113224   3.569   7.076   6.528  2.5116 -0.7708  1.5180
 4114TIP3    H213225   3.623   7.081   6.387 -1.3949  0.4294 -0.0641
 4115TIP3   OH213226   2.182   0.661   6.473 -0.0953 -0.1239  0.2472
 4115TIP3    H113227   2.107   0.621   6.518  0.0143  0.6597  1.1557
 4115TIP3    H213228   2.249   0.670   6.541  1.7180 -2.8351 -1.0013
 4116TIP3   OH213229   1.803   0.757   4.420  0.0428 -0.0775  0.1628
 4116TIP3    H113230   1.718   0.724   4.392 -0.7588  0.5633  1.6622
 4116TIP3    H213231   1.816   0.719   4.507  1.5444 -0.5577 -0.2387
 4117TIP3   OH213232   6.631   3.827   4.423  0.2012 -0.4434  0.9782
 4117TIP3    H113233   6.637   3.752   4.483  0.5672 -2.1631 -1.0909
 4117TIP3    H213234   6.604   3.789   4.340  0.7479  1.6889 -0.2397
 4118TIP3   OH213235   7.671   2.874   3.534 -0.1704 -0.8661 -0.4121
 4118TIP3    H113236   7.698   2.799   3.587  0.4540  0.2095  0.8684
 4118TIP3    H213237   7.743   2.937   3.543 -1.7660  0.9131  0.6753
 4119TIP3   OH213238   7.524  10.307   0.315 -0.7097  0.5297 -0.4923
 4119TIP3    H113239   7.603  10.290   0.366 -1.0995 -1.0143 -0.3558
 4119TIP3    H213240   7.489  10.221   0.296 -1.6622  1.1520 -1.6822
 4120TIP3   OH213241   6.577   6.279   3.237 -0.0150 -0.1954 -0.2281
 4120TIP3    H113242   6.666   6.244   3.233  0.3979  0.7730  0.0666
 4120TIP3    H213243   6.545   6.253   3.323  0.2433  0.0383 -0.0595
 4121TIP3   OH213244   8.267  10.526   1.948 -0.0115  0.3267  0.3983
 4121TIP3    H113245   8.233  10.502   2.035  1.0310  0.6523  0.9072
 4121TIP3    H213246   8.310  10.447   1.916 -0.2215  0.2674  0.2597
 4122TIP3   OH213247   3.158  10.682   7.729 -0.2208 -0.3424 -0.3315
 4122TIP3    H113248   3.237  10.648   7.686 -0.3093 -0.6376 -0.2545
 4122TIP3    H213249   3.102  10.606   7.741 -0.1942 -0.2677  0.3164
 4123TIP3   OH213250   7.236   2.459   6.189 -0.0210  0.4043 -0.0111
 4123TIP3    H113251   7.250   2.451   6.283  0.7568 -1.0164 -0.2142
 4123TIP3    H213252   7.302   2.401   6.150 -2.3249 -1.5210 -1.3024
 4124TIP3   OH213253  10.756   8.647  10.250  0.2557  0.2341 -0.4016
 4124TIP3    H113254  10.682   8.706  10.252 -1.0170 -1.3064 -0.2037
 4124TIP3    H213255  10.829   8.701  10.219 -1.0787  1.6248 -1.2605
 4125TIP3   OH213256   2.617   5.221   9.235  0.4165  0.2067  0.2285
 4125TIP3    H113257   2.528   5.254   9.246  0.4176  0.6899 -1.0783
 4125TIP3    H213258   2.628   5.214   9.140  1.6356 -0.2297  0.3921
 4126TIP3   OH213259   3.155   5.070   3.663 -0.5741  0.4355 -0.3536
 4126TIP3    H113260   3.122   4.987   3.630 -1.6718  0.3761  0.8234
 4126TIP3    H213261   3.236   5.085   3.614 -1.0238 -0.6888 -1.4767
 4127TIP3   OH213262   1.669   7.911   1.559 -0.4087 -0.1237  0.2116
 4127TIP3    H113263   1.718   7.873   1.632  0.0851  2.6084  1.4182
 4127TIP3    H213264   1.581   7.924   1.593 -0.6835 -0.5050 -0.3302
 4128TIP3   OH213265   6.536   1.115   9.652 -0.2190 -0.3581  0.4828
 4128TIP3    H113266   6.538   1.184   9.586  0.2927 -0.4478  0.4046
 4128TIP3    H213267   6.536   1.034   9.601  2.1689 -0.4827  0.5779
 4129TIP3   OH213268   5.358   9.167   7.292 -0.0094 -0.1663  0.4214
 4129TIP3    H113269   5.263   9.166   7.280 -0.0267  1.2674  0.2192
 4129TIP3    H213270   5.369   9.176   7.387  0.0151 -3.3955  0.8322
 4130TIP3   OH213271   5.571   2.237   4.721 -0.2425  0.3813  0.7062
 4130TIP3    H113272   5.615   2.321   4.711 -2.4761  1.5972  0.2245
 4130TIP3    H213273   5.541   2.214   4.633 -1.4935  0.1941  1.1498
 4131TIP3   OH213274   0.385   5.154  10.888 -0.0159 -0.1551 -0.8447
 4131TIP3    H113275   0.454   5.214  10.915  1.0313 -0.8371 -1.8741
 4131TIP3    H213276   0.308   5.209  10.874  1.2051  1.1714 -2.8738
 4132TIP3   OH213277   5.631   9.473  10.691 -0.3309 -0.1926 -0.1654
 4132TIP3    H113278   5.608   9.392  10.736  1.4232 -0.0823  1.0255
 4132TIP3    H213279   5.712   9.453  10.644  0.1150  0.8473  0.1273
 4133TIP3   OH213280   7.317   4.801  10.256  0.0952  0.5398  0.5742
 4133TIP3    H113281   7.328   4.861  10.330 -2.2281  1.2140  0.4708
 4133TIP3    H213282   7.309   4.859  10.180  1.2152 -0.0982 -0.0531
 4134TIP3   OH213283   9.669   8.977   4.068  0.5679 -0.3872  0.1990
 4134TIP3    H113284   9.747   8.973   4.124  1.4660 -1.0410 -1.0348
 4134TIP3    H213285   9.603   8.925   4.115  0.6959  0.5733  1.4971
 4135TIP3   OH213286   1.047  10.098   3.521 -0.3835  0.1859  0.2643
 4135TIP3    H113287   0.970  10.114   3.467 -0.7064 -1.7292  0.0707
 4135TIP3    H213288   1.056  10.002   3.522  1.0046  0.2854  1.6580
 4136TIP3   OH213289   0.880   7.107   5.246  0.2581  0.0150  0.8529
 4136TIP3    H113290   0.973   7.088   5.236  0.2482  0.7060 -0.9383
 4136TIP3    H213291   0.857   7.156   5.167 -1.3351  1.0199  1.8836
 4137TIP3   OH213292  10.518   5.432   2.528 -0.4182  0.1923 -0.8184
 4137TIP3    H113293  10.612   5.441   2.540 -0.4127 -1.2389  0.6021
 4137TIP3    H213294  10.506   5.343   2.496 -1.4264 -0.8271  2.0731
 4138TIP3   OH213295   2.946   7.127   6.340 -0.4785  0.0922  0.4368
 4138TIP3    H113296   2.999   7.048   6.356  1.1472  1.4153  2.0568
 4138TIP3    H213297   3.004   7.185   6.291 -1.9110  0.0783 -1.3912
 4139TIP3   OH213298   4.077   5.306   8.434 -0.0969  0.3515  0.4127
 4139TIP3    H113299   4.036   5.375   8.381  1.1894  1.1535  0.4208
 4139TIP3    H213300   4.145   5.270   8.377  0.0309 -0.0947  0.8474
 4140TIP3   OH213301   5.329   7.735   4.830 -0.3485 -0.2747  0.4388
 4140TIP3    H113302   5.406   7.700   4.875 -0.7618  1.5417  2.7937
 4140TIP3    H213303   5.329   7.828   4.852 -2.4530  0.0525 -0.6709
 4141TIP3   OH213304   5.896   8.212   0.778  0.2279  0.3206  0.2064
 4141TIP3    H113305   5.904   8.174   0.690  0.0594  2.6437 -0.8912
 4141TIP3    H213306   5.986   8.226   0.806  0.2815  0.7963 -0.1876
 4142TIP3   OH213307   5.457   2.806   6.164  0.6774  0.0941  0.3647
 4142TIP3    H113308   5.546   2.793   6.130  1.4909  1.7206  1.7275
 4142TIP3    H213309   5.460   2.775   6.254 -0.1986 -0.0069  0.3708
 4143TIP3   OH213310   9.173   0.597  10.346 -0.4415  0.6656  0.1852
 4143TIP3    H113311   9.229   0.542  10.291  2.0259  2.7948  0.3663
 4143TIP3    H213312   9.090   0.550  10.350  1.1827 -2.5455 -0.3940
 4144TIP3   OH213313   0.548   8.378   4.647  0.4486  0.0929 -0.0066
 4144TIP3    H113314   0.623   8.328   4.678  0.7108  0.8523  0.6029
 4144TIP3    H213315   0.573   8.469   4.659 -0.7718  0.3507  0.6988
 4145TIP3   OH213316   3.078   1.472   2.361  0.0315 -0.6905  0.5406
 4145TIP3    H113317   3.139   1.405   2.330 -0.0448 -1.4302  1.9370
 4145TIP3    H213318   2.992   1.443   2.331  0.2830  0.1687 -1.1211
 4146TIP3   OH213319   6.834   8.512   5.574  0.1689 -0.8673 -0.2810
 4146TIP3    H113320   6.766   8.576   5.552 -1.4366 -0.9990  3.4394
 4146TIP3    H213321   6.789   8.427   5.566  0.0601 -1.0059  1.3710
 4147TIP3   OH213322   1.539   5.383   7.898  0.7493 -0.0996 -0.1648
 4147TIP3    H113323   1.514   5.362   7.988 -0.0860  1.0686 -0.0929
 4147TIP3    H213324   1.634   5.390   7.901  0.7623 -0.4313  0.5502
 4148TIP3   OH213325   8.217   1.445   0.698  0.5036  0.1813 -0.1521
 4148TIP3    H113326   8.206   1.472   0.789  2.4281  0.6467 -0.0126
 4148TIP3    H213327   8.307   1.415   0.692  0.0869 -0.9281 -1.6629
 4149TIP3   OH213328   7.742   9.356   1.791  0.2490 -0.7929 -0.4732
 4149TIP3    H113329   7.722   9.275   1.838  0.0037 -1.6899 -2.0341
 4149TIP3    H213330   7.656   9.397   1.778  0.2621 -0.7861 -0.5386
 4150TIP3   OH213331   0.328   7.239   8.482 -0.1802 -0.1229  0.8926
 4150TIP3    H113332   0.389   7.171   8.508 -0.7584 -1.1231 -0.2772
 4150TIP3    H213333   0.243   7.209   8.514 -0.7521 -0.9187 -1.2258
 4151TIP3   OH213334   6.995   8.633   1.301  0.1142  0.1126 -0.1418
 4151TIP3    H113335   6.950   8.590   1.374 -0.7930 -0.1993 -0.8627
 4151TIP3    H213336   7.085   8.602   1.306  0.1436  0.3487  1.0307
 4152TIP3   OH213337   3.319   6.879   8.588  0.5354  0.6672  0.3032
 4152TIP3    H113338   3.374   6.802   8.575  1.8825  1.4250  1.2580
 4152TIP3    H213339   3.319   6.893   8.683  0.1617  1.7274  0.1655
 4153TIP3   OH213340   4.511   1.967   9.335  0.6324 -0.0018  0.2954
 4153TIP3    H113341   4.422   1.966   9.300  0.7208  1.3138 -0.0142
 4153TIP3    H213342   4.504   2.013   9.419  1.1479  0.9070 -0.1416
 4154TIP3   OH213343   0.763   6.236   8.009  0.1045 -0.5228 -0.0839
 4154TIP3    H113344   0.675   6.268   8.031  0.5073  1.4165 -1.0497
 4154TIP3    H213345   0.818   6.267   8.081  0.3254  0.1126 -0.5152
 4155TIP3   OH213346   9.928   7.174   3.849  0.4985  0.1072 -0.5810
 4155TIP3    H113347   9.859   7.108   3.849  1.0537 -0.6018  1.6803
 4155TIP3    H213348   9.988   7.146   3.780 -1.1089  0.3571 -2.1190
 4156TIP3   OH213349   9.522   5.147   5.860  0.1693 -0.0834 -0.1033
 4156TIP3    H113350   9.439   5.098   5.866  1.2242 -1.9332  0.1036
 4156TIP3    H213351   9.540   5.151   5.766  0.1007 -0.1050 -0.1180
 4157TIP3   OH213352   9.117   3.020   6.233  0.1863 -0.3872 -0.3874
 4157TIP3    H113353   9.146   2.929   6.236 -0.1358 -0.5115 -1.0338
 4157TIP3    H213354   9.197   3.070   6.218  0.4743 -0.4932  0.7068
 4158TIP3   OH213355   7.218   8.317   9.574  0.1422  0.0434 -0.3337
 4158TIP3    H113356   7.174   8.389   9.529 -0.3725 -0.5471 -0.7953
 4158TIP3    H213357   7.249   8.260   9.504  0.6029 -0.1592  0.0266
 4159TIP3   OH213358   3.532   6.986   2.197 -0.0460  0.0761 -0.2542
 4159TIP3    H113359   3.480   7.052   2.242  0.1242  0.5233 -0.6983
 4159TIP3    H213360   3.487   6.972   2.114 -1.3790 -2.0656  0.7365
 4160TIP3   OH213361   3.805   8.432   8.489 -0.5622 -0.1438 -0.2809
 4160TIP3    H113362   3.761   8.513   8.465  1.5697  0.8787 -0.9973
 4160TIP3    H213363   3.827   8.391   8.405 -1.0484 -1.1670  0.0675
 4161TIP3   OH213364   8.176   7.244   2.355 -0.0810 -0.1873 -0.4882
 4161TIP3    H113365   8.230   7.300   2.409 -0.3596  0.8969 -1.2966
 4161TIP3    H213366   8.219   7.158   2.358  1.2804  0.4739 -0.5662
 4162TIP3   OH213367   8.570   1.292   5.408  0.0113 -0.5066 -0.1070
 4162TIP3    H113368   8.553   1.317   5.317  0.3731  1.4135  0.3077
 4162TIP3    H213369   8.634   1.221   5.402  2.3949  1.5998 -1.3402
 4163TIP3   OH213370   5.487   0.573   7.947  0.5562 -0.2726  0.0860
 4163TIP3    H113371   5.557   0.509   7.955  2.0472  1.4712  1.9015
 4163TIP3    H213372   5.511   0.643   8.007 -1.5888  1.4770 -0.9437
 4164TIP3   OH213373   3.268   5.845   2.646  0.4541  0.1674  0.6726
 4164TIP3    H113374   3.302   5.756   2.641  0.3191  0.1105  0.7459
 4164TIP3    H213375   3.256   5.861   2.740 -1.5891 -0.5468  0.5907
 4165TIP3   OH213376   4.764   9.053   5.974  0.2386  0.0458  0.3841
 4165TIP3    H113377   4.737   8.991   5.906  0.4449  0.3964 -0.0205
 4165TIP3    H213378   4.746   9.007   6.057  1.5823 -1.0808  0.0991
 4166TIP3   OH213379   8.007  10.035   1.595  0.4508  0.3759 -0.4403
 4166TIP3    H113380   7.997  10.127   1.569  0.2295  0.2424 -0.8369
 4166TIP3    H213381   7.920  10.010   1.626  0.3670  0.1369 -0.8646
 4167TIP3   OH213382  10.349   2.164   9.615  0.4611  0.0926  0.0765
 4167TIP3    H113383  10.424   2.195   9.564  0.5226 -1.1313 -0.6265
 4167TIP3    H213384  10.274   2.174   9.555  0.2335  0.3490  0.4030
 4168TIP3   OH213385   8.693   7.344   7.869 -0.1823  0.4090  0.2284
 4168TIP3    H113386   8.704   7.437   7.888 -0.9802  0.1745  2.0358
 4168TIP3    H213387   8.639   7.311   7.941  0.7905 -1.6207  0.0949
 4169TIP3   OH213388   5.821   0.903   9.151  0.0028  0.0421  0.0924
 4169TIP3    H113389   5.902   0.938   9.188 -0.5160  1.2250  0.1390
 4169TIP3    H213390   5.848   0.867   9.066  0.3282  1.8621 -0.6132
 4170TIP3   OH213391   4.272   5.050   7.166 -0.2020  0.3424 -0.1915
 4170TIP3    H113392   4.182   5.019   7.149 -0.6248  0.5598  1.4932
 4170TIP3    H213393   4.284   5.122   7.104 -1.2439  0.3929 -0.3648
 4171TIP3   OH213394   2.576   1.995   6.876  0.5239 -0.3471 -0.4399
 4171TIP3    H113395   2.547   2.059   6.811 -0.5372  0.8492  1.1078
 4171TIP3    H213396   2.610   2.048   6.948  0.0305 -1.5253  0.7081
 4172TIP3   OH213397   6.057   6.159   7.309  0.0415  0.1938  0.1411
 4172TIP3    H113398   5.972   6.123   7.336  0.4656 -0.1883  0.9873
 4172TIP3    H213399   6.121   6.114   7.364  0.9034 -0.2492 -1.1683
 4173TIP3   OH213400   9.201   1.741   0.879 -0.0948 -0.0213 -0.0883
 4173TIP3    H113401   9.265   1.812   0.887  0.5374 -0.5374 -0.4276
 4173TIP3    H213402   9.128   1.768   0.934  0.4572  0.5348  0.3904
 4174TIP3   OH213403   7.440   3.977   1.255 -0.9085 -0.2937  0.0714
 4174TIP3    H113404   7.535   3.974   1.250 -0.8945 -1.9050  0.8360
 4174TIP3    H213405   7.414   4.028   1.178  0.5502  0.1307 -0.1736
 4175TIP3   OH213406   3.966   0.445   9.723 -0.0944 -0.1506 -0.0982
 4175TIP3    H113407   3.938   0.513   9.785 -0.5908 -0.1390 -0.3290
 4175TIP3    H213408   3.902   0.375   9.735 -0.5187  0.0708 -0.9761
 4176TIP3   OH213409   5.244   8.937   1.834 -0.0634  0.3867  0.2784
 4176TIP3    H113410   5.304   8.982   1.774 -0.3926  1.5005  0.7477
 4176TIP3    H213411   5.290   8.858   1.860  1.7060  1.7363  1.4845
 4177TIP3   OH213412   3.369   3.281   4.501  0.1619 -0.3240 -0.0794
 4177TIP3    H113413   3.398   3.215   4.438  0.3718  0.3222 -0.6840
 4177TIP3    H213414   3.428   3.271   4.575 -0.6633 -1.7069  0.4319
 4178TIP3   OH213415   0.197   3.636   9.021 -0.3634 -0.2289  0.0015
 4178TIP3    H113416   0.230   3.550   8.996 -2.2346 -1.3870  1.2478
 4178TIP3    H213417   0.114   3.645   8.974 -0.0780  1.0062 -0.3021
 4179TIP3   OH213418   2.877   7.221   5.430  0.1463 -0.2662  0.3176
 4179TIP3    H113419   2.905   7.233   5.521 -0.2445 -0.1557  0.4240
 4179TIP3    H213420   2.914   7.296   5.383  0.5338 -0.4387  0.3413
 4180TIP3   OH213421   1.217  10.545   0.659  0.3171 -0.0275  0.1747
 4180TIP3    H113422   1.284  10.601   0.621  0.2089  0.4597  0.6926
 4180TIP3    H213423   1.144  10.551   0.598  0.3504  0.2972  0.1629
 4181TIP3   OH213424   0.214   2.233   1.785 -0.3833 -0.3995  0.2707
 4181TIP3    H113425   0.308   2.252   1.789  0.1543 -1.8431 -2.6213
 4181TIP3    H213426   0.205   2.145   1.822 -0.5729 -0.3332  0.3863
 4182TIP3   OH213427   7.610   9.897  10.900 -0.2078  0.0816 -0.6348
 4182TIP3    H113428   7.634   9.805  10.890 -0.7199  0.0991 -2.3502
 4182TIP3    H213429   7.691   9.941  10.924  0.4367 -0.5858 -1.5165
 4183TIP3   OH213430   2.392   3.397   3.987 -0.1472 -0.0334  0.1931
 4183TIP3    H113431   2.311   3.435   4.022 -1.7631 -2.2682 -0.8346
 4183TIP3    H213432   2.421   3.460   3.921  0.2140  1.8328  2.0321
 4184TIP3   OH213433   5.299   0.432  10.503  0.6168  0.3820 -0.0800
 4184TIP3    H113434   5.326   0.416  10.413  0.9720 -0.0239  0.0937
 4184TIP3    H213435   5.342   0.513  10.529  2.2331 -0.5907  0.4127
 4185TIP3   OH213436   1.206  10.822   9.807  0.0759  0.0544 -0.1705
 4185TIP3    H113437   1.201  10.773   9.725  1.3325 -0.8029  0.2446
 4185TIP3    H213438   1.236  10.909   9.781  1.7431 -0.5977 -0.5046
 4186TIP3   OH213439   0.189   8.068   9.781  0.0259  0.5372 -0.1305
 4186TIP3    H113440   0.130   8.139   9.808 -1.3496 -1.1750  1.6947
 4186TIP3    H213441   0.152   7.990   9.823  0.1947 -1.7092 -3.7897
 4187TIP3   OH213442   1.079   7.692   9.543 -0.7722 -0.2066  0.0180
 4187TIP3    H113443   0.990   7.708   9.510 -0.2465 -2.4176 -2.8288
 4187TIP3    H213444   1.135   7.742   9.484 -0.0006 -0.0741  0.8485
 4188TIP3   OH213445   6.882   0.697   5.588 -0.1892  0.2977  0.1698
 4188TIP3    H113446   6.841   0.682   5.673  2.6325  0.3077  1.6408
 4188TIP3    H213447   6.911   0.787   5.592  0.4140  0.1395 -0.6110
 4189TIP3   OH213448   3.180   6.504   1.189  0.2025 -0.1128  0.7208
 4189TIP3    H113449   3.127   6.435   1.150  2.1138 -0.9682 -0.5049
 4189TIP3    H213450   3.179   6.575   1.125  0.7058 -0.2247  0.5843
 4190TIP3   OH213451   0.369   5.696  10.553  0.4219  0.6806 -0.2702
 4190TIP3    H113452   0.374   5.769  10.615  0.7233 -0.4414  1.1033
 4190TIP3    H213453   0.384   5.618  10.608  0.5429 -0.3731 -1.7506
 4191TIP3   OH213454   6.778   6.841   6.591 -0.2823  0.1509  0.5543
 4191TIP3    H113455   6.711   6.840   6.523  0.1517  1.5438  0.0809
 4191TIP3    H213456   6.861   6.845   6.543  0.0062  1.9603  1.1213
 4192TIP3   OH213457   9.115   5.485   1.086 -0.0568 -0.6441 -0.5986
 4192TIP3    H113458   9.041   5.500   1.144 -0.0947  2.5498 -1.2935
 4192TIP3    H213459   9.165   5.415   1.129  0.7445  2.3994  4.2629
 4193TIP3   OH213460   1.656   0.881   6.250 -0.1160  0.3873 -0.2143
 4193TIP3    H113461   1.670   0.793   6.213 -0.7003  0.5807 -0.9243
 4193TIP3    H213462   1.737   0.929   6.229 -0.1508  0.2778 -0.6048
 4194TIP3   OH213463   5.048   4.026   0.179 -0.3466  0.2013  0.6130
 4194TIP3    H113464   4.995   4.005   0.102 -0.9316  1.0287  0.7786
 4194TIP3    H213465   5.136   3.995   0.157 -0.5425  0.2887 -0.3225
 4195TIP3   OH213466   1.895   1.689   8.420 -0.1391 -0.3601 -0.3530
 4195TIP3    H113467   1.842   1.610   8.432 -0.5520  0.0805  0.8968
 4195TIP3    H213468   1.986   1.656   8.418 -0.1777 -0.7539  1.8663
 4196TIP3   OH213469   3.374   7.786   1.063  0.3452 -0.4114  0.4778
 4196TIP3    H113470   3.380   7.881   1.062 -0.1901 -0.3630 -0.7755
 4196TIP3    H213471   3.283   7.768   1.086  0.3213 -0.5955  0.2522
 4197TIP3   OH213472   3.465   7.375   4.113 -0.0697 -0.0703 -0.4678
 4197TIP3    H113473   3.507   7.325   4.043  2.7491  0.6032  0.5791
 4197TIP3    H213474   3.511   7.348   4.193 -0.7295  1.7347  0.5860
 4198TIP3   OH213475   2.200   8.477   4.578 -0.4585  0.2480 -0.3093
 4198TIP3    H113476   2.156   8.561   4.566  0.8728  0.9054 -0.8113
 4198TIP3    H213477   2.249   8.464   4.497  0.2878 -0.4365  0.2356
 4199TIP3   OH213478   0.248   5.624   2.120 -0.6588 -0.2211 -0.4695
 4199TIP3    H113479   0.318   5.642   2.182 -1.5389  0.0999  0.4530
 4199TIP3    H213480   0.222   5.710   2.087 -0.1943 -0.3887 -1.3014
 4200TIP3   OH213481   7.342   6.711   4.128  0.3140 -0.8939 -0.1424
 4200TIP3    H113482   7.376   6.625   4.102 -1.5901 -1.6407 -0.3812
 4200TIP3    H213483   7.263   6.690   4.178 -0.3004  0.7404 -0.3833
 4201TIP3   OH213484   5.132   5.824   6.433 -0.0585 -0.2349  0.5575
 4201TIP3    H113485   5.113   5.776   6.352 -0.9663  0.3743  0.3854
 4201TIP3    H213486   5.227   5.838   6.431 -0.1172  0.1525 -0.6353
 4202TIP3   OH213487   8.468   7.261   4.508 -0.1717  1.0436  0.0611
 4202TIP3    H113488   8.484   7.274   4.414  0.0641 -3.0996 -0.6766
 4202TIP3    H213489   8.555   7.256   4.547 -0.2717  2.8700  0.5826
 4203TIP3   OH213490   6.149   8.681   3.242  0.0356 -0.0096 -0.3402
 4203TIP3    H113491   6.184   8.625   3.173 -0.3691  0.1103 -0.6489
 4203TIP3    H213492   6.134   8.765   3.199 -1.4403 -0.3015 -0.4457
 4204TIP3   OH213493   4.035   2.443   4.473  0.4688 -0.0646  0.0167
 4204TIP3    H113494   4.059   2.351   4.471  2.0650  0.2980  0.9217
 4204TIP3    H213495   4.117   2.491   4.465 -0.2212  1.2722  0.4352
 4205TIP3   OH213496   5.321   5.126   7.801  0.3205 -0.0142 -0.5370
 4205TIP3    H113497   5.276   5.196   7.754  1.0515 -0.9031 -2.6964
 4205TIP3    H213498   5.268   5.112   7.880 -1.4932  0.9575 -1.5130
 4206TIP3   OH213499   7.569   5.020   7.328  0.0606 -0.0256 -0.0979
 4206TIP3    H113500   7.510   5.077   7.378  0.2971 -0.8574  1.1862
 4206TIP3    H213501   7.637   4.995   7.392  0.2469 -1.3153 -0.7809
 4207TIP3   OH213502   5.082   4.696   4.542  0.6213  0.4581  0.1562
 4207TIP3    H113503   5.037   4.781   4.548 -0.9431 -0.2800 -0.4953
 4207TIP3    H213504   5.112   4.679   4.631 -1.0012  0.7012  0.7907
 4208TIP3   OH213505   7.237   5.013   7.358  0.5032 -0.2051  0.3824
 4208TIP3    H113506   7.282   5.023   7.442 -0.0910  1.6910  0.5224
 4208TIP3    H213507   7.200   4.925   7.361  2.1927 -0.9178  1.2408
 4209TIP3   OH213508   7.846   1.171   4.937 -0.3311  0.0064  0.0236
 4209TIP3    H113509   7.842   1.178   4.841  0.7825 -1.2257 -0.1460
 4209TIP3    H213510   7.765   1.211   4.967 -1.3199 -0.7407 -1.5085
 4210TIP3   OH213511   0.592   1.342   9.593 -0.1938 -0.8431  0.3095
 4210TIP3    H113512   0.521   1.279   9.600 -0.2751 -0.8088 -0.2180
 4210TIP3    H213513   0.551   1.422   9.561  0.3563 -1.3376 -1.7293
 4211TIP3   OH213514   1.998   1.293   5.941  0.6277  0.2802  0.3906
 4211TIP3    H113515   2.051   1.219   5.909 -0.1914 -1.1966  2.2668
 4211TIP3    H213516   2.049   1.329   6.014  0.5673  0.9849  0.0949
 4212TIP3   OH213517   4.108   4.869   7.804  0.0581  0.2065  0.0149
 4212TIP3    H113518   4.055   4.948   7.794 -1.2716 -0.6082  0.3073
 4212TIP3    H213519   4.167   4.888   7.877 -1.1362  0.4827  0.9380
 4213TIP3   OH213520   2.704   1.219   6.368  0.4142  0.1625 -0.1538
 4213TIP3    H113521   2.726   1.131   6.398 -0.0076  0.0890 -0.0489
 4213TIP3    H213522   2.686   1.209   6.275 -1.9331 -0.3295  0.2784
 4214TIP3   OH213523  10.258   8.412   1.125  0.2065 -0.1687  0.1086
 4214TIP3    H113524  10.338   8.373   1.160  0.7188  1.1027  0.4213
 4214TIP3    H213525  10.192   8.344   1.133  0.8112 -0.6010  1.6490
 4215TIP3   OH213526  10.637   8.419   9.142  0.2235  0.3044  0.2038
 4215TIP3    H113527  10.620   8.510   9.118  1.3023  0.5569  0.3707
 4215TIP3    H213528  10.552   8.375   9.130 -0.6509  1.5940  1.4028
 4216TIP3   OH213529   7.387   4.654   0.969 -0.2106  0.5576  0.4455
 4216TIP3    H113530   7.420   4.565   0.978 -0.2354  0.5293  0.2583
 4216TIP3    H213531   7.293   4.648   0.985 -0.2060  0.5568  0.4717
 4217TIP3   OH213532   1.052   1.246   7.678  0.5204 -0.7477  0.2037
 4217TIP3    H113533   1.092   1.176   7.626  0.5417  0.2348 -1.1545
 4217TIP3    H213534   1.089   1.327   7.643 -1.7275  0.1280 -0.3131
 4218TIP3   OH213535   8.011   7.668   2.773 -0.2690  0.4266 -0.0682
 4218TIP3    H113536   8.094   7.660   2.725 -0.3215  2.0684 -0.5063
 4218TIP3    H213537   7.962   7.735   2.724 -2.1376 -0.9551 -0.1981
 4219TIP3   OH213538   0.905   4.084   4.062 -0.2399 -0.1224 -0.1821
 4219TIP3    H113539   0.854   4.007   4.087 -0.6562  0.8479  2.3532
 4219TIP3    H213540   0.922   4.129   4.145  0.2789  2.3408 -1.5152
 4220TIP3   OH213541   6.876   5.584   3.733 -0.6514  0.2242  0.0173
 4220TIP3    H113542   6.915   5.643   3.668 -1.2304  1.3240  0.6380
 4220TIP3    H213543   6.888   5.628   3.816 -1.0203 -0.5913  0.5177
 4221TIP3   OH213544   4.935   0.752   4.556 -0.3925  0.5252  0.3606
 4221TIP3    H113545   4.867   0.695   4.593 -1.1753  1.5375  0.5384
 4221TIP3    H213546   4.991   0.693   4.506  1.0579 -1.0440  3.5325
 4222TIP3   OH213547   9.637  10.791   2.814  0.4594  0.1013 -0.3681
 4222TIP3    H113548   9.601  10.703   2.827 -0.0172  0.1871 -1.0698
 4222TIP3    H213549   9.703  10.780   2.746  0.3496  0.3007 -0.5062
 4223TIP3   OH213550   4.671   5.515   2.239  0.1187  0.3446 -0.3286
 4223TIP3    H113551   4.700   5.425   2.254 -0.4379  0.0373 -1.0211
 4223TIP3    H213552   4.705   5.537   2.152 -0.9609  0.2791 -0.7833
 4224TIP3   OH213553   3.300   3.808   6.881  0.3911  0.4108 -0.1256
 4224TIP3    H113554   3.234   3.739   6.872  0.6028  0.2382 -0.3434
 4224TIP3    H213555   3.266   3.863   6.952  1.0865 -0.9067  1.2944
 4225TIP3   OH213556   5.231   2.672   0.159  0.6055  0.1632  0.4196
 4225TIP3    H113557   5.172   2.742   0.185  0.0204  0.0126 -0.4501
 4225TIP3    H213558   5.213   2.601   0.221 -0.9290 -0.2749 -0.4688
 4226TIP3   OH213559   7.270   0.391   2.362 -1.0612 -0.2902 -0.1820
 4226TIP3    H113560   7.288   0.355   2.449  0.5670 -1.7018 -1.0264
 4226TIP3    H213561   7.200   0.454   2.375 -0.8358 -0.4545  2.1509
 4227TIP3   OH213562   2.857   7.612   0.715  0.3599 -0.0310 -0.0218
 4227TIP3    H113563   2.891   7.674   0.650  0.5166 -2.1854 -2.1511
 4227TIP3    H213564   2.929   7.551   0.730  0.1031  0.0580  1.7554
 4228TIP3   OH213565   8.492   1.719   8.578  0.5868  0.1947  0.8884
 4228TIP3    H113566   8.579   1.688   8.602  1.0312  0.3300 -0.4526
 4228TIP3    H213567   8.449   1.643   8.538  0.3779  0.3302  0.8514
 4229TIP3   OH213568   8.805   0.625  10.799  0.3474  0.0392 -0.0319
 4229TIP3    H113569   8.814   0.540  10.843 -0.0289 -1.8349 -3.2091
 4229TIP3    H213570   8.713   0.628  10.773  0.2944  1.5800  0.2921
 4230TIP3   OH213571   4.846  10.544   4.980  0.2129  0.0407  0.0518
 4230TIP3    H113572   4.856  10.594   4.899  1.1259  0.9591  0.7052
 4230TIP3    H213573   4.756  10.559   5.006  0.1246  0.3356 -0.4046
 4231TIP3   OH213574   5.467   7.873   3.022 -0.1562 -0.1541  0.3679
 4231TIP3    H113575   5.480   7.779   3.032  1.5323  0.2458  3.0525
 4231TIP3    H213576   5.372   7.884   3.021 -0.3816 -1.8502  0.3866
 4232TIP3   OH213577   8.851   0.415   7.018 -0.0072  0.0751 -0.0819
 4232TIP3    H113578   8.940   0.389   7.042 -0.4053 -1.5437 -0.2472
 4232TIP3    H213579   8.796   0.344   7.052 -1.2345  1.0553  0.0154
 4233TIP3   OH213580   0.630   4.701   2.726 -0.2861 -0.1891 -0.0945
 4233TIP3    H113581   0.680   4.755   2.666  0.1700 -0.2605  0.2112
 4233TIP3    H213582   0.540   4.733   2.720  0.1083  1.1241  0.6641
 4234TIP3   OH213583   5.624  10.842   9.865 -0.3862 -0.4865 -0.1515
 4234TIP3    H113584   5.529  10.842   9.852 -0.5717  1.2082  0.8882
 4234TIP3    H213585   5.657  10.779   9.801 -2.0469  0.1514 -1.7246
 4235TIP3   OH213586   0.535   9.574   9.592 -0.0969  0.4022 -0.8961
 4235TIP3    H113587   0.576   9.657   9.618  0.2929 -0.0309 -0.0661
 4235TIP3    H213588   0.547   9.569   9.497 -0.6606  1.5717 -1.0435
 4236TIP3   OH213589   5.556   9.252   1.644 -0.6358  0.1202  0.7107
 4236TIP3    H113590   5.639   9.263   1.597 -1.1812  0.0587 -0.2942
 4236TIP3    H213591   5.569   9.299   1.727  0.6286 -0.4673  0.8672
 4237TIP3   OH213592   2.795   9.262   6.192 -0.9048 -0.7359  1.0559
 4237TIP3    H113593   2.808   9.240   6.100  0.7215  1.7674  0.5748
 4237TIP3    H213594   2.865   9.217   6.238 -1.0975 -1.1595  0.9404
 4238TIP3   OH213595   0.849   3.547   6.462 -0.9343  0.6352  0.6452
 4238TIP3    H113596   0.819   3.458   6.482 -0.7262  0.0686 -1.3663
 4238TIP3    H213597   0.785   3.581   6.401  0.8555  0.4884 -1.4331
 4239TIP3   OH213598  10.160   4.757   6.387  0.2219  0.4507 -0.2084
 4239TIP3    H113599  10.153   4.811   6.308  1.5153  1.1469  0.1110
 4239TIP3    H213600  10.145   4.819   6.459  1.3160  0.3362  0.1456
 4240TIP3   OH213601   1.980   4.917   5.376  0.0586 -0.6033  0.2000
 4240TIP3    H113602   2.024   4.880   5.452  2.3814 -1.1351 -1.2869
 4240TIP3    H213603   1.924   4.847   5.344 -2.9599  0.4134  2.7182
 4241TIP3   OH213604   3.914   4.015   3.036 -0.5823 -0.1659 -0.0000
 4241TIP3    H113605   3.887   4.025   3.127  0.9238 -0.0638  0.4578
 4241TIP3    H213606   3.856   4.073   2.987 -1.4430 -0.2652  0.8832
 4242TIP3   OH213607   8.408   7.617   4.597 -0.7229 -0.0417 -0.3518
 4242TIP3    H113608   8.497   7.651   4.593 -0.4573 -0.7576 -0.7408
 4242TIP3    H213609   8.352   7.691   4.575 -0.2481  0.4958  0.2127
 4243TIP3   OH213610  10.359   5.824   6.184  0.8671 -0.0519 -0.0354
 4243TIP3    H113611  10.301   5.897   6.205  1.8072  0.9175 -0.6798
 4243TIP3    H213612  10.305   5.763   6.133  0.1279  0.2909  0.3307
 4244TIP3   OH213613   9.957   4.870   2.080  0.0398  0.0175 -0.4394
 4244TIP3    H113614   9.997   4.949   2.118 -0.3002  0.0463 -0.1357
 4244TIP3    H213615  10.030   4.813   2.061  0.2358  0.1039  0.0382
 4245TIP3   OH213616   7.793   8.533   9.442  0.8491  0.7953 -0.5165
 4245TIP3    H113617   7.701   8.513   9.426  0.6687  0.2610  1.0124
 4245TIP3    H213618   7.792   8.615   9.490  1.1402  0.6247 -0.2149
 4246TIP3   OH213619   2.670  10.681   7.833  0.6648  0.1775  0.4820
 4246TIP3    H113620   2.593  10.625   7.824  1.4456 -0.8398 -0.1304
 4246TIP3    H213621   2.635  10.770   7.830 -0.2424 -0.1207 -3.3122
 4247TIP3   OH213622   4.380   8.752   0.833  0.3278  0.1415  0.0791
 4247TIP3    H113623   4.471   8.782   0.840  0.2769 -0.0181  2.1962
 4247TIP3    H213624   4.329   8.822   0.873 -0.0158 -1.5224  2.8438
 4248TIP3   OH213625   1.436   4.970   8.760 -0.0298  0.2540 -0.3330
 4248TIP3    H113626   1.391   4.886   8.760 -1.0846  0.7267 -2.5217
 4248TIP3    H213627   1.382   5.026   8.704  2.7420  1.1406 -2.3839
 4249TIP3   OH213628   5.374   4.950   8.307 -0.6334 -0.5333 -0.6665
 4249TIP3    H113629   5.368   4.948   8.212 -0.1213  1.5591 -0.8003
 4249TIP3    H213630   5.464   4.976   8.325 -0.4364 -1.8637  0.4429
 4250TIP3   OH213631   6.286   7.970   7.955 -0.1916  0.3954  0.0640
 4250TIP3    H113632   6.348   8.018   8.010  0.6104  0.4862 -0.8980
 4250TIP3    H213633   6.325   7.972   7.868 -1.0690 -0.4089 -0.3583
 4251TIP3   OH213634   1.077   6.862   9.882 -0.3974  0.1836  0.0206
 4251TIP3    H113635   1.080   6.788   9.820 -0.0069  0.5632 -0.4264
 4251TIP3    H213636   1.044   6.824   9.963  0.4824 -0.6503  0.0130
 4252TIP3   OH213637   6.398   6.404   0.950 -0.2347 -0.1816  0.4568
 4252TIP3    H113638   6.326   6.464   0.933 -0.0534  0.0282  0.4149
 4252TIP3    H213639   6.357   6.319   0.965 -0.4588 -0.1576 -0.0078
 4253TIP3   OH213640   6.386   7.629   0.792 -0.3777  0.1189 -0.2916
 4253TIP3    H113641   6.404   7.631   0.886 -1.7603 -1.5972  0.0733
 4253TIP3    H213642   6.290   7.620   0.786 -0.1304 -2.7123 -1.7241
 4254TIP3   OH213643   0.899   7.566   1.667 -0.3572 -0.9962 -0.1313
 4254TIP3    H113644   0.813   7.525   1.680  0.9979 -3.8640  0.4809
 4254TIP3    H213645   0.904   7.583   1.573 -1.4852 -1.0109 -0.2045
 4255TIP3   OH213646   2.239   4.330   3.289 -0.3527 -0.4178  0.4992
 4255TIP3    H113647   2.276   4.416   3.270  1.0068 -0.2694  3.2916
 4255TIP3    H213648   2.145   4.343   3.286 -0.1661  1.0668  0.3686
 4256TIP3   OH213649   2.255   7.717   0.414 -0.1566 -0.2951  0.0229
 4256TIP3    H113650   2.169   7.744   0.446 -0.0040 -0.6002  0.7101
 4256TIP3    H213651   2.264   7.626   0.443 -0.8608 -1.2912 -2.6672
 4257TIP3   OH213652   1.745   7.361   1.170  0.8342 -0.1141  0.2347
 4257TIP3    H113653   1.795   7.373   1.089 -0.3052  0.3923 -0.4376
 4257TIP3    H213654   1.805   7.386   1.240  1.6707 -0.0157 -0.5033
 4258TIP3   OH213655   1.255   5.269   0.376 -0.2406 -0.3530 -0.3987
 4258TIP3    H113656   1.250   5.279   0.471  2.6988 -0.0720 -0.1822
 4258TIP3    H213657   1.187   5.204   0.355 -1.7987  0.4873  1.6695
 4259TIP3   OH213658   7.355   1.425   3.224  0.5939 -0.4018  0.1467
 4259TIP3    H113659   7.373   1.332   3.236 -0.5514 -0.7066 -0.3355
 4259TIP3    H213660   7.276   1.427   3.170  0.8684  0.8571 -0.2314
 4260TIP3   OH213661   4.579   1.338   1.803 -0.3511  0.2005  0.0517
 4260TIP3    H113662   4.490   1.356   1.772 -0.5376  0.6977  0.8189
 4260TIP3    H213663   4.598   1.411   1.862  1.0603  0.7661 -1.0576
 4261TIP3   OH213664   3.420   7.555   6.855  0.3862  0.1679 -0.1046
 4261TIP3    H113665   3.488   7.515   6.801  0.0274 -0.5747 -0.0223
 4261TIP3    H213666   3.343   7.500   6.840  0.4789 -0.5148  1.7400
 4262TIP3   OH213667   9.649   9.356   5.480 -0.5275  0.1555  0.5287
 4262TIP3    H113668   9.613   9.410   5.410  0.8382  0.2769 -0.1039
 4262TIP3    H213669   9.627   9.403   5.560  0.1979  1.4125  0.0197
 4263TIP3   OH213670   6.615   3.927   6.976  0.0336  0.1859 -0.2278
 4263TIP3    H113671   6.551   3.943   6.907 -0.5735  0.7793  0.4515
 4263TIP3    H213672   6.635   3.834   6.969 -0.3816  0.1401 -0.8942
 4264TIP3   OH213673   3.647  10.068   2.875  1.0184 -0.0625 -0.5955
 4264TIP3    H113674   3.613  10.128   2.809 -0.2140 -0.3432 -0.2551
 4264TIP3    H213675   3.686  10.124   2.941 -0.3523  0.4125 -0.1543
 4265TIP3   OH213676   6.789   1.345   6.446 -0.0689 -0.6650 -0.1798
 4265TIP3    H113677   6.836   1.264   6.428 -1.2686 -1.6019  0.7624
 4265TIP3    H213678   6.858   1.412   6.451  1.2152 -2.0159  1.3708
 4266TIP3   OH213679  10.824   9.521   9.162  0.2507 -0.0317  0.2583
 4266TIP3    H113680  10.878   9.471   9.223 -0.5483 -1.1659  0.0572
 4266TIP3    H213681  10.846   9.613   9.180  2.5980 -0.4626 -0.1638
 4267TIP3   OH213682   1.333   1.615   2.814  0.2129 -0.1015  0.1309
 4267TIP3    H113683   1.312   1.652   2.728 -2.3299  0.2892  0.8408
 4267TIP3    H213684   1.317   1.687   2.875  0.1286 -0.9311  1.0972
 4268TIP3   OH213685   3.862  10.107   0.611 -0.1979  1.1382  0.6330
 4268TIP3    H113686   3.938  10.072   0.565 -0.9957 -0.2963  0.3575
 4268TIP3    H213687   3.845  10.044   0.681 -2.5638  0.0996 -0.7683
 4269TIP3   OH213688   9.712   6.662   9.482  0.1394 -0.5787 -0.3438
 4269TIP3    H113689   9.693   6.614   9.401 -1.2401  1.2835 -1.1799
 4269TIP3    H213690   9.627   6.688   9.515  0.7700 -0.1447  1.0005
 4270TIP3   OH213691   7.558  10.101   8.345 -0.1412  0.3103  0.5087
 4270TIP3    H113692   7.626  10.083   8.279 -0.2250 -1.3851  0.8257
 4270TIP3    H213693   7.513  10.179   8.313  0.4184  0.0613 -0.9662
 4271TIP3   OH213694   6.918   2.453   4.152 -0.0743 -0.1966  0.1078
 4271TIP3    H113695   6.881   2.416   4.232 -0.1798  0.9566  0.6062
 4271TIP3    H213696   7.009   2.473   4.175  0.6664 -2.2010 -0.8449
 4272TIP3   OH213697   2.627   5.689   1.031 -0.1022  0.2358  0.2018
 4272TIP3    H113698   2.569   5.613   1.022 -0.7518  0.8688 -1.3082
 4272TIP3    H213699   2.650   5.691   1.124 -1.6800 -0.6365  0.6461
 4273TIP3   OH213700   3.602   9.075   3.205  0.4400  0.0065 -0.5645
 4273TIP3    H113701   3.588   9.050   3.114  0.1327 -0.8544 -0.2938
 4273TIP3    H213702   3.529   9.034   3.252  1.6498 -1.1911  0.3354
 4274TIP3   OH213703   1.448   8.877   5.247 -0.1377 -0.3762  0.0323
 4274TIP3    H113704   1.427   8.813   5.179 -0.0142 -0.3734 -0.0067
 4274TIP3    H213705   1.364   8.919   5.267 -0.2057 -0.4998  0.0071
 4275TIP3   OH213706   3.387   0.707   0.580 -0.7114 -0.2115  0.2281
 4275TIP3    H113707   3.361   0.790   0.621 -2.4374 -0.7461  0.3024
 4275TIP3    H213708   3.479   0.697   0.603 -0.6428  1.3633  0.7699
 4276TIP3   OH213709   1.769   2.801   6.286 -0.5128 -0.0180 -0.0145
 4276TIP3    H113710   1.687   2.763   6.256 -0.8796  0.2795  0.5775
 4276TIP3    H213711   1.837   2.745   6.249 -1.0034 -0.5758 -0.0821
 4277TIP3   OH213712  10.630   5.551   8.032  0.6569 -0.1383 -0.8042
 4277TIP3    H113713  10.598   5.465   8.059  1.6507 -0.7447 -1.4689
 4277TIP3    H213714  10.713   5.561   8.078 -0.1314  1.1301  0.4112
 4278TIP3   OH213715  10.266   5.079   4.643  0.1389 -0.1354  0.2296
 4278TIP3    H113716  10.211   5.001   4.648 -1.0204  0.1765 -3.7103
 4278TIP3    H213717  10.234   5.126   4.565  3.8935  1.7623 -0.4265
 4279TIP3   OH213718   1.552   9.892   0.135  0.5147 -0.1704  0.1413
 4279TIP3    H113719   1.627   9.941   0.171  0.2541  0.4473 -0.1353
 4279TIP3    H213720   1.475   9.941   0.165  0.1529 -1.3517  1.2518
 4280TIP3   OH213721   8.288   8.281   9.552  0.4653  0.1832 -0.0353
 4280TIP3    H113722   8.369   8.313   9.513 -0.2357  2.0646 -0.0009
 4280TIP3    H213723   8.219   8.333   9.512 -0.8475 -1.8771 -0.5990
 4281TIP3   OH213724   1.600   2.358   6.070  0.3241  0.0377  0.0852
 4281TIP3    H113725   1.513   2.324   6.089  0.7088 -0.7143  0.5258
 4281TIP3    H213726   1.641   2.370   6.156 -0.0447  2.3416  0.0123
 4282TIP3   OH213727   2.123   2.730   7.677  0.0744 -0.1977 -0.2799
 4282TIP3    H113728   2.128   2.638   7.704  1.1672  0.1864  0.9044
 4282TIP3    H213729   2.212   2.762   7.684 -0.0516  0.6316 -2.0017
 4283TIP3   OH213730   8.159   3.618   8.505  0.3792  0.3456  0.6547
 4283TIP3    H113731   8.153   3.710   8.529  1.9549  0.5438  0.4137
 4283TIP3    H213732   8.176   3.618   8.411 -1.8576 -0.2973  0.1971
 4284TIP3   OH213733  10.192  10.667   9.498  0.0310 -0.7356 -0.0460
 4284TIP3    H113734  10.194  10.753   9.542 -0.0676 -0.2034 -1.0560
 4284TIP3    H213735  10.225  10.684   9.410 -0.7132 -1.5940 -0.5093
 4285TIP3   OH213736   6.147   7.493   0.405  0.4814 -0.3201 -0.5414
 4285TIP3    H113737   6.141   7.542   0.323  0.4253 -0.7264 -0.7856
 4285TIP3    H213738   6.103   7.548   0.470 -0.0348 -0.2851 -0.9202
 4286TIP3   OH213739   8.539   2.885   5.565 -0.5605 -0.4808 -0.2126
 4286TIP3    H113740   8.513   2.844   5.647  0.0669  0.5672  0.5295
 4286TIP3    H213741   8.634   2.894   5.572 -0.7766  1.9784  0.0792
 4287TIP3   OH213742   3.372   4.918   7.078 -0.2750  0.0245  0.3331
 4287TIP3    H113743   3.435   4.883   7.140  0.8920 -1.0135 -1.3494
 4287TIP3    H213744   3.308   4.848   7.066  0.0045 -0.1249 -0.2987
 4288TIP3   OH213745   9.277   8.478   1.438 -0.4095 -0.0573 -0.2091
 4288TIP3    H113746   9.281   8.480   1.533  0.2695 -0.4764 -0.2216
 4288TIP3    H213747   9.259   8.386   1.416 -0.9205  0.1021 -0.4750
 4289TIP3   OH213748   2.629   0.361   5.659  0.0335  0.3959 -0.2577
 4289TIP3    H113749   2.657   0.269   5.655  0.2081  0.4774 -1.2291
 4289TIP3    H213750   2.625   0.381   5.752 -0.4153 -0.7238 -0.0218
 4290TIP3   OH213751   8.404   7.588   7.980  0.2357 -0.3178  0.0869
 4290TIP3    H113752   8.498   7.596   7.993 -0.2740  3.1243  3.5728
 4290TIP3    H213753   8.375   7.528   8.049 -0.2957  0.3028  0.4177
 4291TIP3   OH213754   2.005   2.260   8.285  0.3453  0.7608 -0.9082
 4291TIP3    H113755   1.930   2.209   8.255 -0.0423  0.3027  0.7265
 4291TIP3    H213756   2.059   2.272   8.207 -0.7603 -0.0645 -1.8310
 4292TIP3   OH213757   3.844   2.922  10.901  0.3962 -0.0527 -0.4714
 4292TIP3    H113758   3.839   3.005  10.854  1.6462  0.3033 -0.0381
 4292TIP3    H213759   3.809   2.857  10.840 -0.6367  0.7895 -0.7997
 4293TIP3   OH213760   5.562   9.381   0.449  0.2090 -0.0211 -0.6035
 4293TIP3    H113761   5.530   9.426   0.527 -0.9358 -0.1113 -0.9970
 4293TIP3    H213762   5.555   9.445   0.379 -1.0527 -0.6441 -1.0873
 4294TIP3   OH213763   0.649   5.535   0.605  0.1359 -0.2684  0.0615
 4294TIP3    H113764   0.616   5.448   0.581 -0.6609  0.3554 -1.2182
 4294TIP3    H213765   0.572   5.592   0.602  0.8719  0.7394 -0.4531
 4295TIP3   OH213766   8.446   5.521   2.986 -0.2748 -0.2165 -0.1051
 4295TIP3    H113767   8.446   5.616   2.976  1.5506 -0.1380  0.2530
 4295TIP3    H213768   8.508   5.489   2.920 -0.3622 -1.0856  0.2122
 4296TIP3   OH213769   6.271   2.408   7.977 -0.2597 -0.4500  0.2718
 4296TIP3    H113770   6.365   2.390   7.977 -0.2345 -0.4533  1.6358
 4296TIP3    H213771   6.232   2.326   8.007 -0.6535 -0.2652  0.2632
 4297TIP3   OH213772   8.051   5.321   7.699  0.1279 -0.4919 -0.6709
 4297TIP3    H113773   8.012   5.342   7.614 -2.1190 -0.5226  0.2848
 4297TIP3    H213774   8.026   5.395   7.755  1.9064 -0.2883 -0.1049
 4298TIP3   OH213775   5.199   8.265   8.237 -0.2177 -0.1347  0.7560
 4298TIP3    H113776   5.125   8.211   8.213 -0.8305 -0.4709  3.1507
 4298TIP3    H213777   5.275   8.208   8.227 -0.3318 -0.0551 -0.8595
 4299TIP3   OH213778   4.572  10.483   7.950  0.1505 -0.1711  0.1572
 4299TIP3    H113779   4.517  10.445   8.018  0.0890 -1.4612 -0.6016
 4299TIP3    H213780   4.513  10.538   7.898 -0.2450 -0.8818 -0.1462
 4300TIP3   OH213781   3.691   9.086   9.981 -0.1109  0.0202 -0.4699
 4300TIP3    H113782   3.621   9.108  10.042 -0.8915 -2.2308 -0.4744
 4300TIP3    H213783   3.676   9.143   9.906 -1.3106  0.2964 -0.0395
 4301TIP3   OH213784   6.975   5.767   2.933  0.1099 -0.3421  0.2496
 4301TIP3    H113785   7.034   5.755   2.859  0.8326 -0.7791  0.8818
 4301TIP3    H213786   6.888   5.777   2.894  0.5245 -0.2440 -0.6636
 4302TIP3   OH213787   7.850   2.268   6.369 -0.2640 -0.1375  0.1101
 4302TIP3    H113788   7.759   2.253   6.393 -0.4026  1.1870  0.4837
 4302TIP3    H213789   7.846   2.300   6.278 -0.3013  1.1052  0.5278
 4303TIP3   OH213790   6.012   8.082   5.833  0.1746 -0.5990 -0.6527
 4303TIP3    H113791   5.916   8.088   5.834  0.1937 -0.1333 -1.4514
 4303TIP3    H213792   6.039   8.118   5.918 -0.2471  1.4403 -1.3430
 4304TIP3   OH213793   5.089   2.653   5.822 -0.4514 -0.0678  0.3081
 4304TIP3    H113794   5.088   2.731   5.766  0.5394  0.0756  0.4620
 4304TIP3    H213795   5.105   2.687   5.910  0.6446 -0.4831  0.2815
 4305TIP3   OH213796   9.776   2.141   5.835  0.3265 -0.2135 -0.1775
 4305TIP3    H113797   9.687   2.171   5.853  0.2479 -0.9439  0.7392
 4305TIP3    H213798   9.764   2.059   5.788  0.4959 -0.5851  0.4125
 4306TIP3   OH213799   4.296   3.644  10.528  0.3926 -0.1376 -0.4405
 4306TIP3    H113800   4.219   3.588  10.517 -0.6493  1.2633 -0.5927
 4306TIP3    H213801   4.368   3.584  10.546 -0.6301 -1.5236 -0.8807
 4307TIP3   OH213802   7.162   5.770   9.285 -0.2416 -0.1869 -0.4914
 4307TIP3    H113803   7.241   5.793   9.236 -2.0171  2.9544 -2.2287
 4307TIP3    H213804   7.122   5.854   9.307 -0.8976 -1.4838  4.3806
 4308TIP3   OH213805   7.188   2.291   2.650  0.4104  0.1405  0.4738
 4308TIP3    H113806   7.112   2.258   2.699  0.3638 -1.2048 -0.4457
 4308TIP3    H213807   7.199   2.381   2.681 -0.2817 -0.2992  2.1396
 4309TIP3   OH213808   4.501   7.535  10.873 -0.6209  0.7422  0.2686
 4309TIP3    H113809   4.506   7.511  10.965 -1.8886  1.5771  0.5908
 4309TIP3    H213810   4.563   7.477  10.829 -1.6461 -1.2574  1.3235
 4310TIP3   OH213811   1.843   6.017   9.904  0.7637 -0.1200 -0.3422
 4310TIP3    H113812   1.807   6.094   9.949  0.3113  0.1709 -1.1716
 4310TIP3    H213813   1.782   5.947   9.924  2.0412 -0.7239  1.7844
 4311TIP3   OH213814   4.539   8.802   9.926  0.1297 -0.1279 -0.3497
 4311TIP3    H113815   4.561   8.709   9.914 -0.6253 -0.3976  0.2528
 4311TIP3    H213816   4.455   8.800   9.971 -0.2415  0.8621 -0.9769
 4312TIP3   OH213817   6.569   1.990   7.171 -0.1425  0.3860 -0.0252
 4312TIP3    H113818   6.506   1.974   7.100  0.4518 -1.8449 -0.1216
 4312TIP3    H213819   6.630   1.917   7.165  2.1163  2.1320  0.4879
 4313TIP3   OH213820   2.521   9.186   0.017  0.3606 -0.2389  0.3265
 4313TIP3    H113821   2.477   9.176   0.101 -0.6269 -0.4506 -0.2073
 4313TIP3    H213822   2.573   9.266   0.027 -1.7547  1.2105  0.3026
 4314TIP3   OH213823   4.604   9.027  10.569  0.5484 -0.8390  0.0173
 4314TIP3    H113824   4.538   9.057  10.631  1.2316  0.9320 -0.0604
 4314TIP3    H213825   4.619   9.102  10.512  0.1853 -2.2870 -2.1082
 4315TIP3   OH213826  10.804   2.147   9.667 -0.5828  0.3785 -0.2084
 4315TIP3    H113827  10.748   2.101   9.605 -0.3485 -1.5592  0.9389
 4315TIP3    H213828  10.756   2.143   9.750  0.8613 -0.6905  0.6341
 4316TIP3   OH213829   9.483   5.246   9.574 -0.1023 -0.4957  0.1416
 4316TIP3    H113830   9.477   5.339   9.554 -1.7451 -0.5674  0.2189
 4316TIP3    H213831   9.552   5.214   9.515 -1.7773  0.1609 -2.3429
 4317TIP3   OH213832   8.837   2.243   9.128 -0.0133 -0.4927  0.0137
 4317TIP3    H113833   8.764   2.214   9.183 -0.0444 -0.5703 -0.0672
 4317TIP3    H213834   8.795   2.290   9.056  0.0751  0.4631  0.5639
 4318TIP3   OH213835   8.836   9.335   2.233 -0.6006 -0.1936  0.3177
 4318TIP3    H113836   8.916   9.299   2.194  0.0000 -1.5233  2.6384
 4318TIP3    H213837   8.862   9.420   2.269  0.0663 -1.0275  1.8902
 4319TIP3   OH213838   3.094   5.924   6.207 -0.2845 -0.1996 -0.4458
 4319TIP3    H113839   3.008   5.921   6.249 -0.0695  0.4290  0.0615
 4319TIP3    H213840   3.085   5.991   6.139 -0.6446 -1.2462 -1.4586
 4320TIP3   OH213841   3.803   3.483   9.351 -0.3170  0.3024 -0.1330
 4320TIP3    H113842   3.785   3.525   9.267 -2.0977 -0.1298 -0.0002
 4320TIP3    H213843   3.752   3.402   9.349  2.2982 -1.4521  0.0028
 4321TIP3   OH213844   8.766   9.418   8.478  0.4218  0.0899  0.1472
 4321TIP3    H113845   8.785   9.360   8.404 -0.3215 -0.5769  0.4726
 4321TIP3    H213846   8.753   9.504   8.438 -0.7149 -0.4054 -0.5868
 4322TIP3   OH213847   0.985   6.561   4.281 -0.3920 -0.3131  0.3681
 4322TIP3    H113848   0.953   6.612   4.356 -0.6703 -0.1996  0.1752
 4322TIP3    H213849   0.921   6.491   4.270 -0.7420  0.0885 -0.2060
 4323TIP3   OH213850   3.097   6.815   6.793 -0.1386 -0.1810 -0.0792
 4323TIP3    H113851   3.096   6.880   6.864 -0.6153 -0.6914  0.3973
 4323TIP3    H213852   3.135   6.737   6.833 -0.3811 -0.4648 -0.3950
 4324TIP3   OH213853   7.769   3.147   7.558 -0.1849 -0.0853 -0.4974
 4324TIP3    H113854   7.714   3.153   7.480 -0.3954  0.5837 -0.3064
 4324TIP3    H213855   7.855   3.122   7.525 -0.5057 -0.7589 -0.8376
 4325TIP3   OH213856   1.594   7.463   5.016  0.2222  0.1124 -0.4800
 4325TIP3    H113857   1.508   7.456   5.059 -0.6320 -0.9466 -2.2264
 4325TIP3    H213858   1.598   7.386   4.959  1.7071  0.9211 -1.5224
 4326TIP3   OH213859   2.488   7.409   0.949 -0.1936 -0.3341  0.7538
 4326TIP3    H113860   2.550   7.468   0.905 -0.1548  0.0258  1.2861
 4326TIP3    H213861   2.409   7.462   0.961 -0.8896 -1.0013 -0.5800
 4327TIP3   OH213862   4.498   7.585   1.830  0.2768  0.0297 -0.6271
 4327TIP3    H113863   4.569   7.530   1.795  1.2004  0.7887  0.0004
 4327TIP3    H213864   4.504   7.666   1.780 -1.3428 -0.5579 -1.8278
 4328TIP3   OH213865   8.868   3.535   9.672  0.0860 -0.5604 -0.0407
 4328TIP3    H113866   8.964   3.535   9.667  0.1641 -0.8045  1.2668
 4328TIP3    H213867   8.841   3.463   9.615  0.5590  0.8083 -2.0905
 4329TIP3   OH213868   7.784   4.385   8.697  0.2738  0.1685 -0.2414
 4329TIP3    H113869   7.794   4.315   8.632 -2.5660  0.9200 -1.6212
 4329TIP3    H213870   7.819   4.463   8.653 -1.2334  0.5865 -0.7474
 4330TIP3   OH213871   5.139   6.637   2.834 -0.5300 -0.0723  0.8040
 4330TIP3    H113872   5.058   6.589   2.818 -0.6021 -0.3526  1.9170
 4330TIP3    H213873   5.124   6.724   2.797 -0.8840 -0.5007 -0.0689
 4331TIP3   OH213874   0.067   9.829  10.696  0.3977 -0.4857 -0.9727
 4331TIP3    H113875   0.055   9.801  10.787 -1.5245 -0.5017 -1.1986
 4331TIP3    H213876   0.003   9.898  10.683  0.0330 -1.0806 -2.5706
 4332TIP3   OH213877  10.644   0.180  10.017  0.1932 -0.4926  0.0462
 4332TIP3    H113878  10.592   0.125  10.076 -0.6784 -0.2419 -0.4688
 4332TIP3    H213879  10.677   0.250  10.073 -0.7643 -0.1656  0.2222
 4333TIP3   OH213880   3.778   6.757   4.421  0.1486 -0.8368 -0.1067
 4333TIP3    H113881   3.802   6.698   4.492 -0.4404 -0.4748  0.4002
 4333TIP3    H213882   3.851   6.750   4.359  1.0743 -0.5460  0.9049
 4334TIP3   OH213883   9.237   0.279   7.678 -0.8294  0.2586  0.0589
 4334TIP3    H113884   9.310   0.237   7.724 -1.1390  1.3387  1.6359
 4334TIP3    H213885   9.234   0.236   7.593 -0.1096 -1.7218  0.9774
 4335TIP3   OH213886   5.827   4.641   7.253 -0.4159 -0.3270  0.6909
 4335TIP3    H113887   5.763   4.588   7.206 -1.0377 -0.0372  1.1929
 4335TIP3    H213888   5.877   4.578   7.306 -0.7049 -0.4906  0.7717
 4336TIP3   OH213889   7.451   1.268   6.131 -0.4927  0.5634 -0.4962
 4336TIP3    H113890   7.542   1.293   6.142 -0.1772 -0.0238 -1.6305
 4336TIP3    H213891   7.428   1.225   6.214 -0.0875  1.6841  0.2123
 4337TIP3   OH213892   6.581   2.190   4.318  0.1272  0.5161 -0.1717
 4337TIP3    H113893   6.614   2.161   4.233  0.9251  3.0886 -0.8509
 4337TIP3    H213894   6.504   2.244   4.297  0.1439  0.9153  0.7482
 4338TIP3   OH213895   5.931   4.337   5.382 -0.1632  0.4370 -0.8589
 4338TIP3    H113896   5.973   4.255   5.409 -0.1682 -0.2733 -2.8708
 4338TIP3    H213897   5.925   4.388   5.463  1.2820 -0.8983  0.1611
 4339TIP3   OH213898   9.682   1.439   2.038  0.2587 -0.2792  0.1230
 4339TIP3    H113899   9.600   1.389   2.038  0.8082 -1.2282 -0.8081
 4339TIP3    H213900   9.716   1.430   2.127 -0.3321 -0.4104  0.3406
 4340TIP3   OH213901   8.938   0.668   8.703 -0.0706  0.2849 -0.3951
 4340TIP3    H113902   9.004   0.706   8.646 -0.3340 -0.1934 -1.0267
 4340TIP3    H213903   8.872   0.633   8.644 -0.5254  0.0969  0.2125
 4341TIP3   OH213904   8.472   9.400   0.591  0.0943 -0.4355 -0.2217
 4341TIP3    H113905   8.414   9.426   0.520 -1.4856 -0.5606  0.9785
 4341TIP3    H213906   8.464   9.305   0.595 -2.2274 -0.2567  1.9934
 4342TIP3   OH213907   3.903  10.201  10.647 -0.1257  0.2725 -0.1795
 4342TIP3    H113908   3.940  10.231  10.564 -1.8753 -0.2560 -1.2116
 4342TIP3    H213909   3.917  10.107  10.647  1.1398  0.4422  0.8259
 4343TIP3   OH213910   4.882   0.524   6.098 -0.0841 -0.4029 -0.3249
 4343TIP3    H113911   4.882   0.579   6.176  0.2121  0.1559 -0.7173
 4343TIP3    H213912   4.974   0.511   6.078 -0.1602  0.2625 -1.1413
 4344TIP3   OH213913   5.450   6.486   3.684 -0.1518  0.2502 -0.6463
 4344TIP3    H113914   5.376   6.531   3.725 -0.0170  0.1483 -0.2915
 4344TIP3    H213915   5.520   6.552   3.680  0.3420 -0.1786  0.6892
 4345TIP3   OH213916  10.462   0.002   0.294 -0.1285  0.3054  0.2340
 4345TIP3    H113917  10.538  -0.005   0.235 -0.0597  3.0010 -0.1022
 4345TIP3    H213918  10.391   0.033   0.238 -1.0340 -0.4302  0.9286
 4346TIP3   OH213919   2.238   7.356   1.550  0.2566 -0.8742  0.7606
 4346TIP3    H113920   2.212   7.440   1.511  0.6592 -1.2213 -0.2942
 4346TIP3    H213921   2.215   7.364   1.642  1.3155  0.8323  0.9243
 4347TIP3   OH213922   5.285   0.922   3.103  0.3300  0.5300  0.1076
 4347TIP3    H113923   5.342   0.920   3.026  0.8276  0.1980  0.4761
 4347TIP3    H213924   5.283   0.831   3.134  0.3150  0.6995  0.6168
 4348TIP3   OH213925   0.719   8.007   3.260 -0.4452 -0.4718  0.0811
 4348TIP3    H113926   0.685   7.945   3.196 -1.3066  0.1463 -0.0795
 4348TIP3    H213927   0.649   8.071   3.272  0.7735  1.0585 -0.5279
 4349TIP3   OH213928   6.382   6.714   3.711 -0.2149 -0.9710 -0.0023
 4349TIP3    H113929   6.456   6.754   3.757 -0.6956  0.7677 -0.6974
 4349TIP3    H213930   6.417   6.631   3.679  1.6552  0.0713 -0.8435
 4350TIP3   OH213931   8.649   2.074   4.884  0.2647  0.4311  0.3994
 4350TIP3    H113932   8.689   2.152   4.847  3.4010 -1.2804 -0.1593
 4350TIP3    H213933   8.715   2.039   4.944 -0.9237 -1.9199  0.4474
 4351TIP3   OH213934   7.773   2.087   7.436  0.0385 -0.4933  0.1295
 4351TIP3    H113935   7.696   2.120   7.483  0.9793 -0.0682  1.3945
 4351TIP3    H213936   7.824   2.041   7.502  0.8410 -0.8673 -0.7278
 4352TIP3   OH213937   0.347   3.682   8.233  0.3285 -0.5457  0.3134
 4352TIP3    H113938   0.270   3.716   8.187 -0.4537 -1.3504  0.9787
 4352TIP3    H213939   0.311   3.617   8.294  1.5265 -0.8176  0.7522
 4353TIP3   OH213940   0.116   7.359   1.318 -0.0672  0.2431 -0.5078
 4353TIP3    H113941   0.210   7.372   1.313 -0.3042  2.7523  0.1648
 4353TIP3    H213942   0.101   7.320   1.404  0.4893 -2.5779 -1.5897
 4354TIP3   OH213943   9.859   8.897   3.331  0.3366 -0.0693  0.5754
 4354TIP3    H113944   9.842   8.979   3.378  1.4111  0.0299  0.8101
 4354TIP3    H213945   9.954   8.890   3.329  0.3013 -0.3645 -1.1222
 4355TIP3   OH213946   1.039   5.364   3.185 -0.0336 -0.3827 -0.0864
 4355TIP3    H113947   1.015   5.368   3.093 -0.8482 -0.6796  0.1111
 4355TIP3    H213948   1.108   5.297   3.189  1.0311  0.6349 -0.6823
 4356TIP3   OH213949   7.753   1.500   0.217  0.1499  0.0498  0.3088
 4356TIP3    H113950   7.674   1.447   0.228  0.1418 -0.1278 -0.5655
 4356TIP3    H213951   7.741   1.573   0.278 -1.4857  0.9561 -1.0083
 4357TIP3   OH213952   1.926   2.910   1.983  0.4173 -0.1247  0.5369
 4357TIP3    H113953   1.976   2.933   2.061  1.7053 -0.1008 -0.2761
 4357TIP3    H213954   1.988   2.918   1.911 -0.7829 -0.0093 -0.5204
 4358TIP3   OH213955   0.386   0.592   8.301 -0.2813 -0.4244 -0.1510
 4358TIP3    H113956   0.378   0.594   8.206 -0.1000  4.2916 -0.3469
 4358TIP3    H213957   0.314   0.647   8.332 -1.8125 -3.7724  2.7730
 4359TIP3   OH213958  10.325   4.343   0.382 -0.3748 -0.1702  0.4809
 4359TIP3    H113959  10.283   4.274   0.433  0.2742 -1.0110 -0.1145
 4359TIP3    H213960  10.365   4.299   0.307  2.3431  0.4325  1.4486
 4360TIP3   OH213961   8.437   0.805   4.890  0.4545 -0.2011 -0.7085
 4360TIP3    H113962   8.387   0.745   4.945 -0.7500 -1.8699 -3.4461
 4360TIP3    H213963   8.389   0.809   4.807  2.1845  2.1498 -1.7419
 4361TIP3   OH213964  10.523  10.445   8.433  0.6130 -0.2017 -0.4865
 4361TIP3    H113965  10.589  10.455   8.501  0.1598 -1.1587  0.1199
 4361TIP3    H213966  10.440  10.468   8.476  0.3210 -0.8061 -0.7080
 4362TIP3   OH213967   5.232   7.996   7.243  1.2545 -0.5562  0.2594
 4362TIP3    H113968   5.167   7.979   7.175  0.9889 -0.3027  0.4468
 4362TIP3    H213969   5.186   7.976   7.325  1.6167 -0.9988  0.3585
 4363TIP3   OH213970   9.653   7.880  10.783 -0.1379 -0.8611 -0.3997
 4363TIP3    H113971   9.731   7.825  10.780  1.1978  0.6790  2.0782
 4363TIP3    H213972   9.597   7.840  10.850  0.3353  0.0807  0.6012
 4364TIP3   OH213973   6.941   8.011   7.246  0.3317  0.3372 -0.3876
 4364TIP3    H113974   6.852   8.000   7.213  1.4839 -1.6626 -3.1666
 4364TIP3    H213975   6.964   8.100   7.222 -1.1177  1.2085  1.1604
 4365TIP3   OH213976   2.173   9.103  10.153 -0.1340 -0.5326 -0.2322
 4365TIP3    H113977   2.208   9.132  10.237 -0.8706  0.0056 -0.0981
 4365TIP3    H213978   2.248   9.107  10.093 -0.2416  2.1657 -0.3443
 4366TIP3   OH213979   5.158   0.440   3.871 -0.4343 -0.5396 -0.2388
 4366TIP3    H113980   5.073   0.462   3.834 -1.4177 -1.8075  1.1389
 4366TIP3    H213981   5.151   0.348   3.896  0.4771 -0.0590  2.0904
 4367TIP3   OH213982   5.573   0.084   8.210  0.0763  0.3453 -0.0699
 4367TIP3    H113983   5.628   0.127   8.276  2.1472 -0.7065 -0.9999
 4367TIP3    H213984   5.541   0.005   8.253 -0.3252  0.7118  0.3189
 4368TIP3   OH213985   5.570   0.310   0.078  0.2778 -0.2089 -0.0005
 4368TIP3    H113986   5.617   0.260   0.012 -1.5293 -3.0454  0.6905
 4368TIP3    H213987   5.637   0.336   0.141  1.5174 -0.3285 -1.2264
 4369TIP3   OH213988   4.057   2.102   2.921 -0.0354 -0.2048 -0.0891
 4369TIP3    H113989   4.023   2.070   3.005 -0.2609  0.2003 -0.0275
 4369TIP3    H213990   3.980   2.134   2.874  0.3022  1.1930  0.2601
 4370TIP3   OH213991   2.998   5.855   2.495 -0.0644 -0.2946 -0.1764
 4370TIP3    H113992   3.011   5.911   2.419 -1.4923 -2.2240 -1.9628
 4370TIP3    H213993   3.077   5.866   2.547  0.7876  1.3974 -1.7166
 4371TIP3   OH213994   8.503   9.429   2.821  0.1128  0.0304 -0.2932
 4371TIP3    H113995   8.492   9.518   2.852  1.0323 -0.6337  2.1639
 4371TIP3    H213996   8.570   9.436   2.753  2.5492  0.9232  2.0106
 4372TIP3   OH213997   7.812   8.125   9.590 -0.7721  0.3538  0.2324
 4372TIP3    H113998   7.717   8.135   9.582 -0.8158 -0.9078 -1.6631
 4372TIP3    H213999   7.848   8.171   9.514  0.0703  0.1725  0.5014
 4373TIP3   OH214000   8.978   7.502   3.625  0.6804 -0.0150 -0.5585
 4373TIP3    H114001   9.003   7.520   3.535 -0.2875  2.3104 -0.4306
 4373TIP3    H214002   9.055   7.526   3.677  0.3833  1.1038 -0.6126
 4374TIP3   OH214003   3.872   1.911   7.291  0.0591  0.9941  0.3672
 4374TIP3    H114004   3.902   1.982   7.348  1.0474  1.3347 -0.5402
 4374TIP3    H214005   3.951   1.880   7.248 -0.5419  0.1408 -0.1473
 4375TIP3   OH214006   2.300  10.451   5.423  0.0398  0.0285  0.0666
 4375TIP3    H114007   2.377  10.420   5.471 -0.6511 -0.0523  1.1609
 4375TIP3    H214008   2.330  10.528   5.376  1.2253 -1.0012 -0.9296
 4376TIP3   OH214009   1.151  10.025   4.599  0.2585 -0.7389 -0.1433
 4376TIP3    H114010   1.083  10.063   4.543  0.9424  0.6218 -0.0958
 4376TIP3    H214011   1.143  10.071   4.682  1.4497 -0.2960 -0.2508
 4377TIP3   OH214012   7.056   9.727   2.949  0.0702  0.5713  0.1993
 4377TIP3    H114013   7.110   9.769   2.882 -0.6231  0.3405 -0.5204
 4377TIP3    H214014   6.968   9.727   2.911 -0.2501  0.0466  0.9360
 4378TIP3   OH214015   0.988   9.152   4.992  0.4152  0.6618 -0.7013
 4378TIP3    H114016   1.033   9.232   4.967  1.9745 -0.2838 -1.0816
 4378TIP3    H214017   0.994   9.149   5.087 -1.4850  1.9885 -0.4925
 4379TIP3   OH214018   7.388   7.218   0.059 -0.0963  0.8429  0.2477
 4379TIP3    H114019   7.302   7.196   0.025  0.0193  1.1943 -0.2856
 4379TIP3    H214020   7.406   7.306   0.024  0.3733  0.8716  0.5486
 4380TIP3   OH214021   8.480  10.482   0.013  0.0311 -0.5521 -0.0278
 4380TIP3    H114022   8.423  10.442   0.078 -0.6742  0.8333  0.2436
 4380TIP3    H214023   8.534  10.544   0.062  0.0454 -0.0669 -0.6364
 4381TIP3   OH214024   3.799   0.290   6.837 -0.3523 -0.3466 -0.4404
 4381TIP3    H114025   3.732   0.226   6.862 -0.4424 -1.2676 -2.7599
 4381TIP3    H214026   3.775   0.316   6.748  1.5482  0.4267 -0.7662
 4382TIP3   OH214027  10.335   2.267  10.701 -0.5115 -0.1300 -0.8749
 4382TIP3    H114028  10.317   2.242  10.792  2.3303  0.4038 -0.0854
 4382TIP3    H214029  10.347   2.184  10.655  1.0082 -0.4116 -0.0400
 4383TIP3   OH214030   9.897   9.520   8.774 -0.6853  0.5903  0.0771
 4383TIP3    H114031   9.862   9.493   8.859 -0.5322 -0.5298 -0.2033
 4383TIP3    H214032   9.955   9.593   8.795  0.3374 -0.4745  1.1081
 4384TIP3   OH214033   0.755   0.852   6.234 -0.7177  0.0264 -0.4087
 4384TIP3    H114034   0.660   0.856   6.228 -0.7042 -0.4761 -1.0831
 4384TIP3    H214035   0.772   0.830   6.326 -1.2914 -0.7089 -0.4656
 4385TIP3   OH214036  10.372   9.499   3.951 -0.1452  0.1568 -0.2768
 4385TIP3    H114037  10.334   9.472   4.034  1.0596  0.0771  0.2780
 4385TIP3    H214038  10.312   9.465   3.884 -0.1877 -1.3566  0.4955
 4386TIP3   OH214039   0.919   8.303   2.805 -0.3774  1.6365 -0.5722
 4386TIP3    H114040   0.962   8.295   2.889 -0.6252  1.9295 -0.4177
 4386TIP3    H214041   0.827   8.286   2.823 -0.1875 -0.3060 -1.1036
 4387TIP3   OH214042   7.773   2.165  10.082  0.0512 -0.0851  0.8442
 4387TIP3    H114043   7.790   2.184   9.990 -2.3922 -0.2390  0.3050
 4387TIP3    H214044   7.836   2.096  10.104  1.2818  0.5936 -0.4235
 4388TIP3   OH214045   1.819   1.249   0.629  0.6343  0.2178 -0.3270
 4388TIP3    H114046   1.912   1.228   0.622  0.8836  1.1530  0.0256
 4388TIP3    H214047   1.783   1.180   0.685  1.3336  0.4717  0.4539
 4389TIP3   OH214048   4.296  10.318   9.549  0.4421 -0.3992 -0.5487
 4389TIP3    H114049   4.236  10.360   9.610 -0.1609 -2.6435  0.4958
 4389TIP3    H214050   4.254  10.327   9.463  0.2947  0.9698 -0.3508
 4390TIP3   OH214051   9.412   8.256  10.101  0.0708  0.0900 -0.6286
 4390TIP3    H114052   9.440   8.293  10.017  0.8403 -0.3425 -0.5757
 4390TIP3    H214053   9.476   8.290  10.164  0.1205 -0.4306 -0.3961
 4391TIP3   OH214054   6.638   8.835   7.570 -0.0513 -0.0016 -0.6989
 4391TIP3    H114055   6.620   8.926   7.592 -1.3175 -0.3756 -0.0945
 4391TIP3    H214056   6.662   8.837   7.477  1.8150  1.1513 -0.2582
 4392TIP3   OH214057   2.431   1.465  10.738 -0.1388  0.4712 -0.2365
 4392TIP3    H114058   2.452   1.434  10.826  0.4530 -1.4979 -1.0264
 4392TIP3    H214059   2.352   1.416  10.714  0.4673 -0.0053 -1.3000
 4393TIP3   OH214060   8.413   6.373   8.050 -0.1454 -0.3104 -0.8275
 4393TIP3    H114061   8.502   6.407   8.054 -1.0960  2.3182  0.2402
 4393TIP3    H214062   8.407   6.312   8.123  1.3419 -2.1860 -2.1933
 4394TIP3   OH214063   3.416   0.781   7.543 -0.2732 -0.4835  0.0947
 4394TIP3    H114064   3.477   0.763   7.614 -0.6522  0.9976  0.8226
 4394TIP3    H214065   3.376   0.864   7.566 -2.3414 -1.2427 -0.5334
 4395TIP3   OH214066   5.516   5.788   2.607 -0.2867  0.3260 -0.3506
 4395TIP3    H114067   5.538   5.725   2.676 -0.8810 -1.9053 -2.0570
 4395TIP3    H214068   5.435   5.830   2.637 -0.2176 -0.1694  0.5569
 4396TIP3   OH214069   9.695   3.947   7.481 -0.4836 -0.5013 -0.0641
 4396TIP3    H114070   9.698   3.923   7.574  0.0501 -0.3691 -0.0412
 4396TIP3    H214071   9.634   3.884   7.442  0.7601 -1.8295  0.0329
 4397TIP3   OH214072   8.733   3.052   5.945 -0.2547 -0.5443 -0.0418
 4397TIP3    H114073   8.814   3.004   5.932 -1.2314 -2.4357  0.4828
 4397TIP3    H214074   8.670   2.986   5.972 -1.8550  0.9505  0.0750
 4398TIP3   OH214075   0.269   3.010   0.066 -0.0710 -0.0639  0.3606
 4398TIP3    H114076   0.266   3.070  -0.008 -0.0989  0.3424  0.6855
 4398TIP3    H214077   0.177   2.988   0.083 -0.1071  0.2746  0.6166
 4399TIP3   OH214078  10.317   9.647   5.802  0.6143 -0.0100 -0.0155
 4399TIP3    H114079  10.281   9.733   5.820 -0.8180 -0.7777  0.9833
 4399TIP3    H214080  10.309   9.600   5.885  1.2074 -1.1568 -0.5867
 4400TIP3   OH214081  10.377   2.358   4.877 -0.1539 -0.0073 -0.1289
 4400TIP3    H114082  10.331   2.345   4.795 -0.6107 -0.6878  0.2211
 4400TIP3    H214083  10.346   2.287   4.933  1.1916 -0.3996  0.1716
 4401TIP3   OH214084   4.537   1.520   8.705 -0.1458 -0.8813 -0.1316
 4401TIP3    H114085   4.616   1.554   8.748 -0.8759 -0.3996  0.8820
 4401TIP3    H214086   4.497   1.463   8.771 -1.4097  0.0465 -0.0508
 4402TIP3   OH214087   7.145   4.783   1.330  0.1148 -0.1211 -0.5027
 4402TIP3    H114088   7.168   4.872   1.356  0.7556 -0.4668  0.1261
 4402TIP3    H214089   7.069   4.761   1.384  0.9804 -0.5606  0.5629
 4403TIP3   OH214090   1.553   4.462   8.487  0.3199  0.6928 -0.5424
 4403TIP3    H114091   1.603   4.520   8.545 -1.3949  0.7426  0.9690
 4403TIP3    H214092   1.465   4.461   8.524 -0.6625  0.0713 -2.7135
 4404TIP3   OH214093   2.678  10.153  10.713  0.1609 -0.0785 -0.1409
 4404TIP3    H114094   2.698  10.106  10.632 -1.2691  0.1661 -0.6775
 4404TIP3    H214095   2.755  10.208  10.728  0.7052 -0.5712 -1.0049
 4405TIP3   OH214096   3.895   9.778   7.638  0.0745  0.3600 -0.2481
 4405TIP3    H114097   3.974   9.815   7.597  0.0168  1.4778  0.5794
 4405TIP3    H214098   3.828   9.784   7.571  0.5302  0.0105 -0.7453
 4406TIP3   OH214099   7.577   7.516   5.305  0.1666  0.5355  0.4583
 4406TIP3    H114100   7.484   7.502   5.286  0.7190 -0.9093 -1.4079
 4406TIP3    H214101   7.584   7.611   5.320 -1.4573  0.8124 -0.3053
 4407TIP3   OH214102   8.928   1.628   8.892 -0.3965 -0.1329 -0.0591
 4407TIP3    H114103   8.862   1.581   8.841 -1.5324  1.5836 -0.2702
 4407TIP3    H214104   8.934   1.580   8.975 -1.1953 -0.8741 -0.4155
 4408TIP3   OH214105   9.825   7.632   5.460 -0.4212 -0.3031 -0.1032
 4408TIP3    H114106   9.844   7.603   5.549 -0.6961  1.0762  0.4276
 4408TIP3    H214107   9.855   7.723   5.457  0.3591 -0.5641 -1.6861
 4409TIP3   OH214108   1.539  10.730   6.754  0.5644  0.3113 -0.0689
 4409TIP3    H114109   1.536  10.773   6.669 -0.9195 -1.1572 -0.8082
 4409TIP3    H214110   1.604  10.660   6.743  0.6455  0.3548  0.1251
 4410TIP3   OH214111   0.018   7.916   8.400 -0.1639 -0.3829 -0.6294
 4410TIP3    H114112   0.020   7.824   8.427 -1.2453 -0.0038  0.8837
 4410TIP3    H214113   0.090   7.957   8.448 -0.1929 -0.2758 -0.6768
 4411TIP3   OH214114   7.474   8.175   1.673  0.0785 -0.4205  0.2709
 4411TIP3    H114115   7.401   8.132   1.630  1.2783 -0.8887 -1.4118
 4411TIP3    H214116   7.518   8.104   1.721  0.5347 -0.5514 -0.3292
 4412TIP3   OH214117   2.885   8.501   0.450  0.4338  0.1449  0.0214
 4412TIP3    H114118   2.899   8.415   0.410 -0.1987  0.7130 -1.4842
 4412TIP3    H214119   2.836   8.482   0.530  2.1802 -1.0664  0.8560
 4413TIP3   OH214120   8.662   4.132   1.045  0.0427  0.1130  0.4673
 4413TIP3    H114121   8.622   4.217   1.029  0.1545  0.4150  1.6895
 4413TIP3    H214122   8.704   4.141   1.131 -1.8986 -1.8510  1.7324
 4414TIP3   OH214123   4.335   6.754   5.013 -0.3255  0.0274  0.2447
 4414TIP3    H114124   4.319   6.830   4.958 -0.5511  0.8305  1.3947
 4414TIP3    H214125   4.250   6.735   5.053 -0.6232 -1.7029 -1.0746
 4415TIP3   OH214126   7.630   1.310   6.376 -0.6266  0.2612 -0.0418
 4415TIP3    H114127   7.622   1.272   6.463 -0.2296  0.6910  0.1899
 4415TIP3    H214128   7.693   1.254   6.330 -1.0556 -0.1328 -0.1474
 4416TIP3   OH214129   7.578   9.324   2.200 -0.0018  0.0028 -0.7496
 4416TIP3    H114130   7.535   9.310   2.285  0.7903  1.4236 -0.0832
 4416TIP3    H214131   7.514   9.291   2.136 -0.6749 -0.9717  0.3633
 4417TIP3   OH214132   2.770   5.029   6.777 -0.2009 -0.8040 -0.1889
 4417TIP3    H114133   2.805   5.014   6.689 -1.3802 -1.2866 -0.6049
 4417TIP3    H214134   2.838   4.998   6.836 -0.0765 -2.0890 -0.9715
 4418TIP3   OH214135   3.455   2.344   6.360 -0.1884 -0.3373  0.1368
 4418TIP3    H114136   3.380   2.296   6.396 -0.5081 -0.4973 -0.7186
 4418TIP3    H214137   3.474   2.411   6.426  1.0979 -2.4134  1.9896
 4419TIP3   OH214138   1.023   0.181   3.309 -0.3208  0.1508  0.0308
 4419TIP3    H114139   0.934   0.147   3.319 -0.5792 -0.2897 -2.7706
 4419TIP3    H214140   1.068   0.156   3.389 -2.3654 -0.8005  0.9538
 4420TIP3   OH214141   9.893   0.846   8.184 -0.2761  0.2058 -0.2341
 4420TIP3    H114142   9.932   0.770   8.227  1.2260  0.8055 -0.5082
 4420TIP3    H214143   9.963   0.910   8.178 -1.0729  1.0130 -1.4993
 4421TIP3   OH214144   7.058   3.123  10.420  0.0399 -0.7223  0.3443
 4421TIP3    H114145   7.148   3.132  10.391  0.1437 -1.5137  0.3769
 4421TIP3    H214146   7.063   3.125  10.516 -0.0304 -0.3085  0.3381
 4422TIP3   OH214147   5.220   6.850   4.641 -0.1986 -0.2484  0.5097
 4422TIP3    H114148   5.138   6.898   4.651  0.0630  0.5812 -1.0444
 4422TIP3    H214149   5.251   6.873   4.553  1.3104 -1.1524  0.7683
 4423TIP3   OH214150   7.882   5.832   8.493 -0.2786  0.4448 -0.1184
 4423TIP3    H114151   7.831   5.853   8.415  0.4442 -1.1479 -1.0701
 4423TIP3    H214152   7.889   5.737   8.492  1.5605  0.5365  0.7189
 4424TIP3   OH214153   4.570  10.097   7.608 -0.2358 -0.2194  0.5426
 4424TIP3    H114154   4.659  10.119   7.635 -0.0072 -3.3478  2.7798
 4424TIP3    H214155   4.577  10.087   7.513  1.8876 -0.6203  0.6793
 4425TIP3   OH214156   6.762   3.164  10.440 -0.2348 -0.0862 -0.2273
 4425TIP3    H114157   6.856   3.158  10.423 -0.1770  2.3938 -1.2211
 4425TIP3    H214158   6.753   3.239  10.498 -1.5460 -1.0346  0.8623
 4426TIP3   OH214159   3.140   7.104   0.669 -0.2055  0.5995 -0.0836
 4426TIP3    H114160   3.061   7.065   0.705  0.6062  0.5993  1.8035
 4426TIP3    H214161   3.212   7.061   0.715  0.8397  1.8131 -0.5064
 4427TIP3   OH214162   6.245   2.721   3.206  0.4818  0.2493 -0.7556
 4427TIP3    H114163   6.331   2.684   3.190 -0.0553 -1.6897  0.4314
 4427TIP3    H214164   6.259   2.816   3.208  2.1756  0.0950 -2.6338
 4428TIP3   OH214165   1.553   5.947   5.302 -0.2027 -0.4097 -0.3388
 4428TIP3    H114166   1.543   5.852   5.295 -0.6744 -0.4985  1.1137
 4428TIP3    H214167   1.637   5.959   5.346 -1.4458 -0.3283  2.2199
 4429TIP3   OH214168   3.755   4.191   3.938  0.2665 -0.0072  0.5016
 4429TIP3    H114169   3.702   4.238   4.002  0.9820  1.1557  0.2596
 4429TIP3    H214170   3.712   4.206   3.854  0.0995 -0.3820  0.5183
 4430TIP3   OH214171   8.282   3.605   9.393  0.2608 -0.4404 -0.0911
 4430TIP3    H114172   8.270   3.697   9.413  1.7412 -0.3780  0.6470
 4430TIP3    H214173   8.197   3.575   9.362 -0.9377  0.5828  1.9960
 4431TIP3   OH214174   6.154   6.794   8.303  0.7639  0.2487  0.7962
 4431TIP3    H114175   6.234   6.758   8.341  0.9897  0.4283  0.5037
 4431TIP3    H214176   6.096   6.719   8.291  0.6965  0.1868  1.4659
 4432TIP3   OH214177  10.778   4.293   8.288  0.2763  0.3386 -1.0774
 4432TIP3    H114178  10.867   4.280   8.320  0.6787  3.4011 -0.6393
 4432TIP3    H214179  10.790   4.330   8.200 -0.3872  3.1229 -0.0809
 4433TIP3   OH214180   2.769   6.076   8.447 -0.0754  0.1694  0.4945
 4433TIP3    H114181   2.859   6.094   8.473  0.2931 -1.5193  0.4902
 4433TIP3    H214182   2.717   6.101   8.523  0.3765  1.0632  0.5335
 4434TIP3   OH214183   1.937   9.612   1.606 -1.0655  0.2372 -0.2272
 4434TIP3    H114184   1.858   9.585   1.560 -0.3454 -1.5612 -0.4658
 4434TIP3    H214185   1.909   9.621   1.697 -1.6946  0.2769 -0.4198
 4435TIP3   OH214186   1.051   0.889   1.501 -0.0819  0.2593  0.0963
 4435TIP3    H114187   0.987   0.956   1.477 -0.5760 -0.4115 -0.4907
 4435TIP3    H214188   1.129   0.911   1.450 -1.1774 -1.2573 -2.4110
 4436TIP3   OH214189   3.260   9.331   6.942 -0.2083 -0.6142  0.5982
 4436TIP3    H114190   3.258   9.253   6.887 -1.2281  0.5264 -1.1037
 4436TIP3    H214191   3.321   9.390   6.896 -0.5048  0.0881  1.0952
 4437TIP3   OH214192   4.257   6.095   7.518  0.0586  0.5239  0.0861
 4437TIP3    H114193   4.342   6.124   7.486  0.4176 -0.5257  0.0561
 4437TIP3    H214194   4.276   6.020   7.574 -0.7727  0.8559  0.8551
 4438TIP3   OH214195   7.605   8.640   1.583 -0.1689  0.0190 -0.0816
 4438TIP3    H114196   7.543   8.594   1.639 -1.1071  0.4654 -0.7342
 4438TIP3    H214197   7.647   8.704   1.641  0.4840 -1.0246  0.6116
 4439TIP3   OH214198   3.623   7.842   7.819  0.5048 -0.3094 -0.5509
 4439TIP3    H114199   3.685   7.777   7.786  2.5685  1.4120 -0.2978
 4439TIP3    H214200   3.598   7.893   7.741  0.1294 -0.4212 -0.5042
 4440TIP3   OH214201   9.131   7.193   4.867 -0.3624  0.5471  0.0290
 4440TIP3    H114202   9.225   7.181   4.854 -0.5651 -1.5890  0.1400
 4440TIP3    H214203   9.092   7.174   4.781 -0.6955  1.9369 -0.1571
 4441TIP3   OH214204   6.867   7.062   2.685  0.4823 -0.1631  0.1779
 4441TIP3    H114205   6.795   7.003   2.665  1.1044 -0.1275 -2.7001
 4441TIP3    H214206   6.946   7.008   2.678  0.9956  0.7217 -1.5940
 4442TIP3   OH214207   9.082   2.315   3.208 -0.1955  0.0105 -0.2500
 4442TIP3    H114208   9.086   2.358   3.122 -2.0980 -1.6828 -1.2768
 4442TIP3    H214209   9.091   2.222   3.188 -0.8396 -0.4277  1.3968
 4443TIP3   OH214210   1.935   3.944   2.020 -0.3572  0.1246  0.0310
 4443TIP3    H114211   1.935   3.915   2.111 -2.9666 -1.5220 -0.3904
 4443TIP3    H214212   1.882   3.878   1.974  1.1144  0.7348 -2.7535
 4444TIP3   OH214213   6.557   6.413   5.652  0.8985 -0.0192  0.0562
 4444TIP3    H114214   6.508   6.445   5.576 -0.9278  0.3759  1.3130
 4444TIP3    H214215   6.602   6.491   5.685  1.5048 -0.1414 -0.4639
 4445TIP3   OH214216   7.195   9.413   1.141  0.7006  0.8224  0.2744
 4445TIP3    H114217   7.120   9.472   1.130  0.6993  0.6219 -0.9974
 4445TIP3    H214218   7.186   9.379   1.230 -0.3258  1.3317  0.3841
 4446TIP3   OH214219   0.099   1.215  10.838  0.1242  0.0482  0.1363
 4446TIP3    H114220   0.054   1.234  10.920 -0.2549 -1.1370  0.2241
 4446TIP3    H214221   0.132   1.126  10.849  0.7728  0.1704 -0.6922
 4447TIP3   OH214222   1.270  10.542   9.474 -0.6007  0.1065 -0.2946
 4447TIP3    H114223   1.201  10.528   9.539 -0.3092 -0.0219 -0.0104
 4447TIP3    H214224   1.352  10.535   9.523 -0.2706 -2.2096 -1.0408
 4448TIP3   OH214225   4.979  10.316   7.139  0.2102  0.8082  0.0517
 4448TIP3    H114226   4.973  10.331   7.045  1.1849  0.2074 -0.1238
 4448TIP3    H214227   5.057  10.365   7.166  0.0450  0.8210  0.5162
 4449TIP3   OH214228   4.740   1.885   1.090 -0.3771  0.7701 -0.4617
 4449TIP3    H114229   4.782   1.920   1.169 -0.5210 -0.6793  0.2975
 4449TIP3    H214230   4.801   1.820   1.057 -1.5415 -0.6673  0.0974
 4450TIP3   OH214231   7.013   8.014  10.083 -0.4102  0.1744 -0.2923
 4450TIP3    H114232   6.987   7.986  10.171  2.2886  0.4315  0.7028
 4450TIP3    H214233   6.933   8.050  10.044 -2.0976 -1.5695  1.3549
 4451TIP3   OH214234   3.696  10.037   5.510  0.1416  0.6104 -0.5148
 4451TIP3    H114235   3.621  10.000   5.462  1.4302 -1.6968 -0.8905
 4451TIP3    H214236   3.680  10.013   5.601  1.3243 -1.7034 -0.8445
 4452TIP3   OH214237   6.051  10.003  10.774 -0.2256  0.1516 -0.0320
 4452TIP3    H114238   5.996  10.040  10.704 -0.6511  1.3996  0.9284
 4452TIP3    H214239   5.996   9.937  10.815 -0.3420  0.1276 -0.2230
 4453TIP3   OH214240   0.763   5.003   4.583 -0.8223 -0.0212  0.0208
 4453TIP3    H114241   0.726   5.091   4.590  0.7928  1.0684 -3.0976
 4453TIP3    H214242   0.855   5.014   4.608 -0.9092 -1.1617  0.9261
 4454TIP3   OH214243   0.325   8.295   1.730 -0.1977  0.1237  0.0107
 4454TIP3    H114244   0.372   8.307   1.812 -1.4414  1.0406  0.6323
 4454TIP3    H214245   0.375   8.229   1.682  0.0421 -1.1140  1.9006
 4455TIP3   OH214246   0.834   5.808   6.745  0.3411 -0.0777 -0.2078
 4455TIP3    H114247   0.758   5.864   6.764  0.6226  0.0039  0.7304
 4455TIP3    H214248   0.908   5.855   6.783  0.2401 -2.4014  3.3745
 4456TIP3   OH214249   2.152   4.293   1.733 -0.1638  0.5961 -0.1478
 4456TIP3    H114250   2.166   4.386   1.714 -0.8314  0.5920 -0.7188
 4456TIP3    H214251   2.197   4.278   1.815  1.4218  1.0183 -0.9039
 4457TIP3   OH214252   3.312   3.319   1.244  0.4309 -0.3230 -0.0226
 4457TIP3    H114253   3.273   3.331   1.158  1.1684  2.2485 -0.0848
 4457TIP3    H214254   3.401   3.353   1.234  0.3151  0.6771  1.8936
 4458TIP3   OH214255   6.697   5.383   8.615 -0.1935  0.4209  0.1762
 4458TIP3    H114256   6.617   5.365   8.664 -0.3927 -0.8087 -0.5356
 4458TIP3    H214257   6.709   5.477   8.621 -0.0691  0.2964  2.7588
 4459TIP3   OH214258   6.119   9.047   6.487  0.3857 -0.4192 -0.6288
 4459TIP3    H114259   6.200   9.095   6.476  0.4121 -0.4901 -0.7421
 4459TIP3    H214260   6.052   9.103   6.448  0.1762  0.2537  0.6322
 4460TIP3   OH214261   6.231   6.580   5.656  0.3112  0.3787  0.9877
 4460TIP3    H114262   6.249   6.626   5.574  0.8999 -0.4996  0.6136
 4460TIP3    H214263   6.218   6.489   5.630  1.4504 -0.0916  1.9517
 4461TIP3   OH214264   6.438   1.638   9.051  0.1503  0.3666  0.1054
 4461TIP3    H114265   6.367   1.574   9.064 -0.0367  0.8574  1.6953
 4461TIP3    H214266   6.440   1.652   8.956 -3.7160  2.3634  0.1048
 4462TIP3   OH214267   9.778   9.399   5.155 -0.2384 -0.1109  0.6318
 4462TIP3    H114268   9.852   9.454   5.134  0.6370 -1.6282 -0.5018
 4462TIP3    H214269   9.813   9.332   5.213  0.1240 -2.5341 -2.1027
 4463TIP3   OH214270   6.997   4.301   1.385 -0.5264 -0.9426  0.3601
 4463TIP3    H114271   6.940   4.349   1.325  0.5635 -1.3566 -1.0706
 4463TIP3    H214272   7.040   4.236   1.329  0.8207 -1.0896  1.5336
 4464TIP3   OH214273   3.376   4.036  10.220  0.0080 -0.6980 -0.3433
 4464TIP3    H114274   3.435   3.968  10.253  0.9269 -0.5490 -1.5706
 4464TIP3    H214275   3.367   4.016  10.127 -0.0139  0.6338 -0.6459
 4465TIP3   OH214276   0.790   2.180   6.954 -0.2090 -0.7411  0.1961
 4465TIP3    H114277   0.771   2.258   6.901  0.1287 -0.0058  1.1275
 4465TIP3    H214278   0.776   2.208   7.044  1.6111 -1.2269  0.6767
 4466TIP3   OH214279  10.265   7.075   6.725 -0.3842 -0.1995  0.0050
 4466TIP3    H114280  10.350   7.066   6.769 -0.4139 -1.0289 -0.0858
 4466TIP3    H214281  10.236   6.985   6.710  0.1735 -0.0071 -2.8026
 4467TIP3   OH214282   8.133   3.269   9.427  0.3007 -0.6976 -0.4915
 4467TIP3    H114283   8.045   3.247   9.398 -0.1775 -0.9185  1.0091
 4467TIP3    H214284   8.163   3.191   9.475  1.9690 -1.2616 -2.3137
 4468TIP3   OH214285   5.129   9.136   3.780  0.7757  0.2402  0.1518
 4468TIP3    H114286   5.101   9.068   3.842 -1.9180  0.7331 -0.4165
 4468TIP3    H214287   5.206   9.175   3.822  1.6326 -2.2368  1.1071
 4469TIP3   OH214288   3.959  10.098   9.614  0.1058  0.0911  0.1703
 4469TIP3    H114289   4.039  10.096   9.667 -0.0901 -0.2433  0.4513
 4469TIP3    H214290   3.975  10.034   9.545  0.4981  0.7660 -0.3849
 4470TIP3   OH214291   9.459   9.050   0.947  0.2529  0.3850  0.1202
 4470TIP3    H114292   9.535   8.992   0.938 -0.2804 -0.4344  0.8280
 4470TIP3    H214293   9.416   9.022   1.027  0.7145  2.6152  1.2504
 4471TIP3   OH214294   2.336   9.600   7.206 -0.0406  0.1063 -0.9301
 4471TIP3    H114295   2.405   9.554   7.158 -1.7586 -4.1633  0.1270
 4471TIP3    H214296   2.256   9.578   7.159 -1.2843 -0.6115  1.3358
 4472TIP3   OH214297  10.564   2.292   4.208 -0.3675  0.3657 -0.4126
 4472TIP3    H114298  10.493   2.247   4.162  0.3106  0.5407 -1.6985
 4472TIP3    H214299  10.581   2.238   4.285 -1.5606  0.0653 -0.3362
 4473TIP3   OH214300   1.807   0.377  10.096 -0.5763  0.3021 -0.3166
 4473TIP3    H114301   1.880   0.317  10.077 -0.5860  0.5695 -1.2466
 4473TIP3    H214302   1.846   0.464  10.092 -0.6600  0.3954  0.5860
 4474TIP3   OH214303   7.122   6.203   9.731  0.2360  0.0703 -0.5319
 4474TIP3    H114304   7.061   6.226   9.661 -0.1821  1.2911  0.1983
 4474TIP3    H214305   7.067   6.165   9.800  0.6688 -1.3038 -0.9243
 4475TIP3   OH214306   6.798   2.413  10.098 -0.0353 -0.2076  0.7668
 4475TIP3    H114307   6.875   2.453  10.057 -0.7653 -0.5241 -0.9885
 4475TIP3    H214308   6.833   2.336  10.143  0.6408 -0.6095 -0.3894
 4476TIP3   OH214309   4.046   1.397   6.274  0.3245  0.0488 -0.0057
 4476TIP3    H114310   3.952   1.388   6.289  0.1003  1.2866 -0.5009
 4476TIP3    H214311   4.074   1.309   6.248 -0.6845 -0.3558  0.1970
 4477TIP3   OH214312   8.067   9.706   6.596  0.7315 -0.2304 -0.6840
 4477TIP3    H114313   7.979   9.715   6.558 -0.4662 -0.4209  1.8455
 4477TIP3    H214314   8.061   9.751   6.680  2.5130 -1.8193  0.3729
 4478TIP3   OH214315   6.000   8.181  10.167 -0.0518  1.0602 -0.4694
 4478TIP3    H114316   5.977   8.189  10.260  0.8948 -1.3904  0.0399
 4478TIP3    H214317   6.085   8.225  10.160  0.7807 -0.3628  0.2809
 4479TIP3   OH214318   6.191   3.513   1.072 -0.1747 -0.1202 -0.7176
 4479TIP3    H114319   6.210   3.606   1.057 -2.4960  0.5076 -0.2707
 4479TIP3    H214320   6.178   3.477   0.984 -1.3739  0.5244 -0.8293
 4480TIP3   OH214321   6.215  10.458   0.282 -0.0123 -0.5978  0.3208
 4480TIP3    H114322   6.276  10.478   0.353 -0.6108  0.8025  0.4696
 4480TIP3    H214323   6.243  10.516   0.210 -0.6126 -0.5961  0.0871
 4481TIP3   OH214324   6.432   2.135   7.815 -0.5842  0.3255 -0.2110
 4481TIP3    H114325   6.512   2.106   7.771 -0.3740 -1.3237  1.1504
 4481TIP3    H214326   6.460   2.207   7.871 -0.2406  0.3551 -0.4185
 4482TIP3   OH214327   9.534  10.876   3.464 -0.1411 -0.2351  0.2426
 4482TIP3    H114328   9.554  10.954   3.516  0.0298  0.8548 -1.3664
 4482TIP3    H214329   9.576  10.804   3.512  2.4071  1.1000  0.2228
 4483TIP3   OH214330   8.871   2.387   0.425 -0.3343 -0.1139  0.4172
 4483TIP3    H114331   8.847   2.295   0.425 -0.4141 -0.1090 -0.9788
 4483TIP3    H214332   8.848   2.419   0.338 -0.9447  1.4000  1.0863
 4484TIP3   OH214333   8.773   1.916   3.578 -0.3763 -0.3239  0.1667
 4484TIP3    H114334   8.829   1.879   3.646  2.3304  1.4522 -0.8961
 4484TIP3    H214335   8.724   1.986   3.622  2.4433  1.8162  0.1868
 4485TIP3   OH214336   3.969   7.941   6.572 -0.4528 -0.1680  0.0049
 4485TIP3    H114337   4.065   7.951   6.576 -0.5045  0.2143  0.3157
 4485TIP3    H214338   3.956   7.866   6.514  0.1153 -2.0729  2.2150
 4486TIP3   OH214339   7.478   9.897   0.634  0.1122 -0.5181  0.0167
 4486TIP3    H114340   7.395   9.866   0.668  0.7415 -1.0022  1.1776
 4486TIP3    H214341   7.534   9.819   0.632  1.3149  0.2330  1.7308
 4487TIP3   OH214342   9.490   6.614   5.176 -0.0103  0.2143  0.2519
 4487TIP3    H114343   9.483   6.690   5.235 -0.0667 -0.1801  0.7656
 4487TIP3    H214344   9.429   6.550   5.214 -0.4775  0.1635 -0.5699
 4488TIP3   OH214345   4.496   2.852   0.896 -0.1670  0.0162  0.2922
 4488TIP3    H114346   4.511   2.947   0.893 -2.4939  0.4602  0.7533
 4488TIP3    H214347   4.512   2.822   0.807  0.2750  0.8918  0.0667
 4489TIP3   OH214348   0.850   3.015   8.471  0.0707  0.2182 -0.5751
 4489TIP3    H114349   0.820   3.042   8.384  2.9207  1.8916 -1.1887
 4489TIP3    H214350   0.884   3.095   8.510  1.3454 -1.0115  0.9699
 4490TIP3   OH214351   3.147   4.084   8.812 -0.5095  0.0809 -0.2430
 4490TIP3    H114352   3.216   4.150   8.820 -0.2708 -0.0780 -0.9129
 4490TIP3    H214353   3.136   4.073   8.718 -1.8853  0.5443 -0.1595
 4491TIP3   OH214354   3.651   9.802   7.867  0.3570 -0.1882  0.4797
 4491TIP3    H114355   3.582   9.807   7.800 -0.0384 -2.5378  0.6487
 4491TIP3    H214356   3.714   9.870   7.841 -0.6273  0.1267 -1.2760
 4492TIP3   OH214357   4.359   9.569   5.872  0.5716  0.7334  0.1745
 4492TIP3    H114358   4.304   9.639   5.836  1.3973  0.3693 -1.9326
 4492TIP3    H214359   4.300   9.517   5.926 -1.0253  0.7351 -1.4924
 4493TIP3   OH214360  10.645   9.095   9.633 -0.6629  0.6778 -0.6265
 4493TIP3    H114361  10.725   9.148   9.630 -0.9453  1.1772  0.4583
 4493TIP3    H214362  10.574   9.158   9.625 -0.9850  0.3880 -0.0916
 4494TIP3   OH214363   1.962   6.974   3.312  0.0297 -0.1780  0.1632
 4494TIP3    H114364   1.868   6.984   3.325 -0.2786  0.0135 -1.9370
 4494TIP3    H214365   1.988   7.051   3.260  1.0154 -1.0624 -0.7001
 4495TIP3   OH214366   2.294   6.130   7.164 -0.3162 -0.1305  0.4221
 4495TIP3    H114367   2.351   6.084   7.225  0.1704  0.9452  0.7856
 4495TIP3    H214368   2.353   6.168   7.099 -0.7481 -0.3241 -0.0976
 4496TIP3   OH214369   6.351   8.358   6.368  0.9977  0.3572  0.1368
 4496TIP3    H114370   6.366   8.436   6.420  2.4485  1.1034 -1.3381
 4496TIP3    H214371   6.433   8.309   6.373  0.3928 -0.6764  0.3387
 4497TIP3   OH214372   0.844   5.501   0.261 -0.4880 -0.1535 -0.3175
 4497TIP3    H114373   0.809   5.536   0.179 -1.5459  0.4750  0.3774
 4497TIP3    H214374   0.926   5.548   0.275 -0.6268  0.2022 -0.6903
 4498TIP3   OH214375   9.332   9.762   2.101 -0.1358  0.3551  0.3396
 4498TIP3    H114376   9.414   9.744   2.055 -0.8998  1.2819 -1.4509
 4498TIP3    H214377   9.267   9.708   2.056 -1.0040  1.7034 -0.0704
 4499TIP3   OH214378   1.724   6.273   8.053  0.2931  0.5774 -0.3649
 4499TIP3    H114379   1.790   6.203   8.052  0.8417  1.0707  0.5626
 4499TIP3    H214380   1.659   6.243   8.118 -0.0241  0.4393 -0.7413
 4500TIP3   OH214381  10.488   6.353  10.353 -0.3740 -0.0225 -0.0908
 4500TIP3    H114382  10.567   6.327  10.305 -0.4973  0.7772 -0.7416
 4500TIP3    H214383  10.416   6.313  10.304 -0.3025 -2.4100  1.6004
 4501TIP3   OH214384   1.679   0.040   8.814  0.0653 -0.1341  0.5003
 4501TIP3    H114385   1.602   0.095   8.799 -1.0586 -1.6416  0.5622
 4501TIP3    H214386   1.647  -0.050   8.803  1.6285 -0.8299  1.3588
 4502TIP3   OH214387   0.123   8.752   1.220  0.2987  0.5723  0.3078
 4502TIP3    H114388   0.121   8.784   1.310  1.8525 -0.5819  0.8077
 4502TIP3    H214389   0.198   8.692   1.218 -0.0889  0.0879 -1.5958
 4503TIP3   OH214390   8.890   6.765   5.465  0.0076 -0.4202 -0.2426
 4503TIP3    H114391   8.871   6.768   5.371  0.4366 -0.9012 -0.3480
 4503TIP3    H214392   8.811   6.800   5.506 -0.4982 -0.9466 -0.7468
 4504TIP3   OH214393   8.864   5.835   1.010  0.2637  0.3738  0.7457
 4504TIP3    H114394   8.845   5.741   1.011  2.8781 -0.2302  2.0403
 4504TIP3    H214395   8.882   5.855   0.919 -0.2135 -0.3831  0.4697
 4505TIP3   OH214396   7.492   8.192   7.186 -0.0538 -0.5960 -0.1780
 4505TIP3    H114397   7.552   8.119   7.200  1.3620  0.3827 -0.9014
 4505TIP3    H214398   7.490   8.203   7.091 -0.2704  0.2746 -0.0775
 4506TIP3   OH214399   9.820   3.048   8.425  0.1186 -0.8151 -0.1107
 4506TIP3    H114400   9.777   3.120   8.470 -1.6704 -1.9611  0.0944
 4506TIP3    H214401   9.866   3.090   8.352  1.5090  0.8377  1.6161
 4507TIP3   OH214402   8.520   9.319   1.707  0.0895  0.0417  0.4875
 4507TIP3    H114403   8.431   9.306   1.737 -0.5735 -2.8293 -2.1317
 4507TIP3    H214404   8.517   9.398   1.653 -0.7063  0.3544  0.9897
 4508TIP3   OH214405   0.440   8.083   0.343  0.3201 -0.7653  0.3854
 4508TIP3    H114406   0.531   8.056   0.355  0.7900  0.2760 -0.5918
 4508TIP3    H214407   0.408   8.099   0.431  1.4158 -0.1720  0.6918
 4509TIP3   OH214408   9.522   6.967   7.763  0.3169 -0.4978  0.3493
 4509TIP3    H114409   9.533   7.062   7.763  1.3716 -0.6021 -0.1753
 4509TIP3    H214410   9.576   6.937   7.836  1.4460 -0.8262 -0.6005
 4510TIP3   OH214411   3.177   9.659   1.472  0.0745 -0.3096  0.5164
 4510TIP3    H114412   3.102   9.718   1.482 -0.7452 -1.3687  0.8120
 4510TIP3    H214413   3.139   9.579   1.436  1.2256 -0.5413 -0.1927
 4511TIP3   OH214414   3.929   4.859   8.581 -0.1746  0.1021  0.5394
 4511TIP3    H114415   3.936   4.800   8.656  1.9852 -0.0396  0.2815
 4511TIP3    H214416   3.853   4.826   8.532 -1.2678 -0.1575  2.3011
 4512TIP3   OH214417   9.788   3.852  10.075  0.4430 -0.3812  0.3175
 4512TIP3    H114418   9.716   3.796  10.105  0.3763 -0.2611  0.3840
 4512TIP3    H214419   9.746   3.916  10.016  0.5922 -0.6848 -0.1198
 4513TIP3   OH214420   4.609   3.553   3.966  0.9397  0.7535  0.7677
 4513TIP3    H114421   4.528   3.583   3.925  0.9705  0.8732  0.7958
 4513TIP3    H214422   4.592   3.461   3.987  1.7982 -0.1070 -1.8552
 4514TIP3   OH214423   5.354   1.682   0.755  0.9617 -0.1147 -0.3292
 4514TIP3    H114424   5.423   1.653   0.814 -1.6605 -2.1453  2.0076
 4514TIP3    H214425   5.317   1.760   0.796 -1.5018 -2.0755  1.4689
 4515TIP3   OH214426   8.880   3.566   4.572 -0.2209  0.2829  0.4496
 4515TIP3    H114427   8.872   3.491   4.513  0.0958  0.8867 -0.3914
 4515TIP3    H214428   8.974   3.574   4.587 -0.3463 -0.2653  1.5851
 4516TIP3   OH214429   7.200   9.115   2.572  0.1482  0.3547  0.3877
 4516TIP3    H114430   7.146   9.051   2.526 -0.1099  0.0577  1.0939
 4516TIP3    H214431   7.137   9.173   2.614  0.3374  2.0442 -1.4848
 4517TIP3   OH214432   0.002   3.531   3.097 -0.6573 -0.4828  0.0771
 4517TIP3    H114433   0.022   3.521   3.190 -2.6591 -3.2795  0.3282
 4517TIP3    H214434  -0.054   3.609   3.093  0.8828  0.7299  0.8781
 4518TIP3   OH214435   8.092   5.292   4.750  0.2425 -0.3040  0.2160
 4518TIP3    H114436   8.019   5.350   4.728 -0.4745 -1.7767 -1.5752
 4518TIP3    H214437   8.168   5.332   4.708  0.1128  0.2781  0.5280
 4519TIP3   OH214438   9.420   2.262   1.269  0.3032 -0.2365 -0.3075
 4519TIP3    H114439   9.412   2.190   1.332  0.6241  1.1221  1.3347
 4519TIP3    H214440   9.333   2.301   1.265  0.2321 -0.4325 -0.8935
 4520TIP3   OH214441   1.024   4.752   9.892 -0.4901 -0.0601  0.5191
 4520TIP3    H114442   1.081   4.722   9.821  0.1517 -0.2792  1.1027
 4520TIP3    H214443   1.023   4.847   9.883  0.9475  0.0544  1.1866
 4521TIP3   OH214444   3.004   9.777   9.718 -0.0107  0.1185 -0.2970
 4521TIP3    H114445   2.933   9.806   9.660 -0.1924  1.2035  0.4305
 4521TIP3    H214446   2.961   9.722   9.783  0.3563 -1.9911 -1.7612
 4522TIP3   OH214447   4.052   5.669   6.695  0.6572 -0.0184  0.0396
 4522TIP3    H114448   3.976   5.612   6.686  2.0081 -1.8409 -0.4145
 4522TIP3    H214449   4.023   5.754   6.662 -1.1154 -0.6997 -0.2450
 4523TIP3   OH214450   4.821   9.896   2.443 -0.0983 -0.0755  0.1025
 4523TIP3    H114451   4.756   9.930   2.504 -0.8957 -1.2860 -0.0316
 4523TIP3    H214452   4.849   9.813   2.482  0.1571 -0.3538 -0.6572
 4524TIP3   OH214453   3.048   9.091   1.903  0.2724  0.1214 -0.1204
 4524TIP3    H114454   3.141   9.096   1.921  0.1217  2.1628  0.3256
 4524TIP3    H214455   3.042   9.061   1.812  1.2956 -0.9699  0.1463
 4525TIP3   OH214456   0.629   1.933   3.821 -0.4128  0.1623  0.3775
 4525TIP3    H114457   0.684   1.943   3.899  0.1809  1.3498 -0.1744
 4525TIP3    H214458   0.685   1.889   3.757 -0.5838  0.0736  0.2872
 4526TIP3   OH214459   0.481   8.482   6.646 -1.0996 -0.0568  0.7356
 4526TIP3    H114460   0.471   8.423   6.721  1.5775  0.8899  1.9761
 4526TIP3    H214461   0.462   8.569   6.681  0.6222  0.4513  0.5191
 4527TIP3   OH214462   6.607   4.943   6.107 -0.1155  0.3129 -0.0698
 4527TIP3    H114463   6.582   4.864   6.155 -1.3256 -1.5091 -3.4174
 4527TIP3    H214464   6.525   4.986   6.084  0.4555  1.4774 -0.0655
 4528TIP3   OH214465   7.013   5.302   8.662  0.2838 -0.2780 -0.4315
 4528TIP3    H114466   6.926   5.329   8.631 -0.1863  1.0056  1.8315
 4528TIP3    H214467   6.997   5.223   8.712  0.4261 -0.0641 -0.0488
 4529TIP3   OH214468   7.398   1.531   9.346  0.2540 -0.7543  0.1127
 4529TIP3    H114469   7.488   1.562   9.343 -0.1489  0.4786  0.4046
 4529TIP3    H214470   7.386   1.486   9.262  1.0349 -0.6782 -0.0515
 4530TIP3   OH214471   4.814   1.512   9.250 -0.6268  0.0541 -0.5491
 4530TIP3    H114472   4.771   1.596   9.261 -2.1620 -0.6992 -0.5127
 4530TIP3    H214473   4.783   1.459   9.324  0.4690 -0.4912 -0.4582
 4531TIP3   OH214474  10.656   4.833   5.282  0.7397 -0.1322 -0.3208
 4531TIP3    H114475  10.599   4.910   5.293  0.4491 -0.6677  2.8237
 4531TIP3    H214476  10.733   4.867   5.236  0.5595  2.0680  0.8322
 4532TIP3   OH214477   4.682   9.802   4.933  0.0881  0.3073 -0.6450
 4532TIP3    H114478   4.692   9.760   5.019  0.8144  0.8008 -0.4744
 4532TIP3    H214479   4.671   9.894   4.953 -2.3824  0.1369 -0.9764
 4533TIP3   OH214480   0.426   7.465  10.348 -0.9111 -0.4399 -0.1313
 4533TIP3    H114481   0.518   7.439  10.351 -0.4663  0.9682 -0.7366
 4533TIP3    H214482   0.400   7.473  10.439 -0.1937 -0.0966  0.0537
 4534TIP3   OH214483   8.180   0.912  10.149 -0.0690  0.3674  0.4521
 4534TIP3    H114484   8.094   0.932  10.113 -0.6760 -1.3738  0.8394
 4534TIP3    H214485   8.162   0.865  10.230  1.2252 -0.6402  0.1958
 4535TIP3   OH214486   2.632   6.926   1.375 -0.1378  0.4011  0.1195
 4535TIP3    H114487   2.725   6.921   1.351 -0.2064 -0.5028  0.0452
 4535TIP3    H214488   2.610   7.019   1.363  0.8275  0.6840  0.4175
 4536TIP3   OH214489   3.550   2.940   8.527  0.4150 -0.4037  0.5039
 4536TIP3    H114490   3.608   2.908   8.458  0.3098 -0.3103  0.3722
 4536TIP3    H214491   3.599   3.009   8.571  0.4964 -0.4888  0.5460
 4537TIP3   OH214492   0.618   3.022   1.454 -0.1881  0.3770  0.2344
 4537TIP3    H114493   0.622   3.108   1.496  1.0971  0.3433  0.2310
 4537TIP3    H214494   0.644   2.960   1.522 -3.6379 -0.4007  1.0521
 4538TIP3   OH214495   3.947   1.730   6.913  0.2519  0.0970 -0.1498
 4538TIP3    H114496   3.873   1.674   6.937 -0.2428  0.0042 -1.7871
 4538TIP3    H214497   4.024   1.673   6.923 -0.1415 -0.5539 -0.7592
 4539TIP3   OH214498   9.079   6.875   5.620  0.2486 -0.1112 -0.0411
 4539TIP3    H114499   9.000   6.846   5.574  0.7346  0.6959 -1.4416
 4539TIP3    H214500   9.074   6.833   5.706 -1.0703 -1.0656 -0.5607
 4540TIP3   OH214501   4.278   6.932   9.812 -0.4345  0.7416  0.3843
 4540TIP3    H114502   4.328   6.927   9.893 -0.0009  0.8326  0.1264
 4540TIP3    H214503   4.202   6.986   9.834  0.1287  1.5065  0.5020
 4541TIP3   OH214504   1.955   9.240  10.788 -0.5578 -0.2404  0.0970
 4541TIP3    H114505   1.859   9.235  10.790 -0.5688 -0.1537 -0.3198
 4541TIP3    H214506   1.976   9.309  10.851 -0.9168  1.7776 -1.8958
 4542TIP3   OH214507   2.509   7.481  10.505  0.2853  0.5276  0.0544
 4542TIP3    H114508   2.422   7.452  10.534 -0.4081  0.7677 -1.6403
 4542TIP3    H214509   2.528   7.557  10.559 -0.8732  0.8644  0.0194
 4543TIP3   OH214510   6.901   8.022   9.435 -0.2431 -0.0001  0.6381
 4543TIP3    H114511   6.963   8.049   9.368 -0.7244  1.4933  0.7484
 4543TIP3    H214512   6.949   7.959   9.489  1.3346  1.4323  0.9683
 4544TIP3   OH214513   0.179   0.473   2.966  0.5212 -0.2159  0.3845
 4544TIP3    H114514   0.214   0.516   2.888 -2.5564  1.9901  0.0162
 4544TIP3    H214515   0.221   0.518   3.039  1.3395 -0.3519  0.0060
 4545TIP3   OH214516   9.625   4.727   7.602  0.1099  0.0818 -0.2141
 4545TIP3    H114517   9.603   4.820   7.611  0.4227  0.0078  1.7219
 4545TIP3    H214518   9.557   4.681   7.650  1.0845 -0.5248  0.6457
 4546TIP3   OH214519   0.887   6.473   7.783 -0.5084 -0.1367  0.3112
 4546TIP3    H114520   0.792   6.468   7.775 -0.6545  1.5420  0.6302
 4546TIP3    H214521   0.902   6.542   7.848  0.9260 -0.6227  0.5344
 4547TIP3   OH214522   2.548   8.132   1.105 -0.1243  0.6566 -0.3457
 4547TIP3    H114523   2.477   8.151   1.167 -2.0667 -0.2513 -2.1627
 4547TIP3    H214524   2.536   8.195   1.035  0.0986 -0.2648 -1.2392
 4548TIP3   OH214525   9.110   7.941   5.819 -0.5630 -0.4479  0.1624
 4548TIP3    H114526   9.129   7.935   5.912 -2.2748  0.0147  0.5740
 4548TIP3    H214527   9.021   7.907   5.810 -1.1658  1.2722 -0.9857
 4549TIP3   OH214528   3.528   4.412   5.958 -0.2212  1.0043  0.6740
 4549TIP3    H114529   3.486   4.413   6.044 -1.9809 -0.3825 -0.1089
 4549TIP3    H214530   3.475   4.472   5.905 -0.5535  0.1031 -0.0346
 4550TIP3   OH214531  10.379   9.122   6.164 -0.2514 -0.0915  0.8338
 4550TIP3    H114532  10.303   9.066   6.180  0.0507 -0.3413  1.4103
 4550TIP3    H214533  10.365   9.156   6.076 -0.3370 -1.2256  0.3951
 4551TIP3   OH214534   6.095   4.580   7.134  0.0038 -0.2355  0.0799
 4551TIP3    H114535   6.090   4.570   7.039 -2.0925  1.1903 -0.0150
 4551TIP3    H214536   6.008   4.556   7.166  0.9247 -1.5769  1.7830
 4552TIP3   OH214537   2.626   6.492   4.431 -0.1215 -0.8892 -0.4578
 4552TIP3    H114538   2.566   6.449   4.370 -1.2365 -0.4494  0.3113
 4552TIP3    H214539   2.613   6.447   4.514  0.0689 -0.3018 -0.1040
 4553TIP3   OH214540   7.370  10.544   1.549 -0.1959 -0.3400 -0.0306
 4553TIP3    H114541   7.454  10.574   1.515  0.7107  0.8660  2.9860
 4553TIP3    H214542   7.382  10.539   1.644 -3.3421 -0.8031  0.4608
 4554TIP3   OH214543   5.434   7.820   1.712 -0.0808  0.1268 -0.5133
 4554TIP3    H114544   5.508   7.759   1.723 -1.2620 -1.9323 -3.1027
 4554TIP3    H214545   5.442   7.851   1.622 -0.8939  1.9951  0.0248
 4555TIP3   OH214546   1.167   8.147   1.334 -0.1665  0.0060 -0.1182
 4555TIP3    H114547   1.173   8.237   1.301  1.2458  0.8131  2.0836
 4555TIP3    H214548   1.258   8.117   1.334 -0.5450 -1.1605 -0.1219
 4556TIP3   OH214549   5.415   2.841   8.008  0.0014 -0.3216 -0.0826
 4556TIP3    H114550   5.463   2.891   8.073  0.4218 -0.4134 -0.3212
 4556TIP3    H214551   5.331   2.886   8.001  0.1010 -0.0811  0.2364
 4557TIP3   OH214552   9.979   3.458   9.696  0.2667 -0.0423 -0.0374
 4557TIP3    H114553  10.074   3.468   9.694  0.2109  0.6450 -2.8829
 4557TIP3    H214554   9.945   3.545   9.674 -1.0664 -0.1378  1.4781
 4558TIP3   OH214555   8.790   5.020   3.710 -0.3341  0.4748 -0.2663
 4558TIP3    H114556   8.801   4.939   3.759  0.9056  0.4286 -0.5862
 4558TIP3    H214557   8.833   5.086   3.764 -2.4585  1.2191  0.6416
 4559TIP3   OH214558   8.541   6.341   5.667 -0.6199 -0.0888 -0.1266
 4559TIP3    H114559   8.449   6.315   5.673 -0.8174  0.5181 -0.3985
 4559TIP3    H214560   8.569   6.310   5.581 -0.8840  0.6563 -0.4930
 4560TIP3   OH214561   9.525   2.545   8.961 -0.3611  0.3911 -0.7465
 4560TIP3    H114562   9.431   2.534   8.944 -0.2005 -0.7549 -0.9435
 4560TIP3    H214563   9.568   2.517   8.881  0.2280 -1.1685  0.0707
 4561TIP3   OH214564   6.131   9.537   0.478  0.0730  0.1124  0.2422
 4561TIP3    H114565   6.071   9.509   0.409 -2.1048  1.9658  1.2339
 4561TIP3    H214566   6.086   9.514   0.559  0.9163  1.1389  1.0311
 4562TIP3   OH214567   9.457   2.959   6.430  0.1557  0.2325  0.1849
 4562TIP3    H114568   9.540   2.989   6.466 -0.3657 -0.5211  2.1543
 4562TIP3    H214569   9.477   2.874   6.392  0.8970  1.4094 -2.2434
 4563TIP3   OH214570  10.063   8.081   9.723  0.5304 -0.4100 -0.2545
 4563TIP3    H114571  10.071   8.145   9.652  2.3453  0.3207  0.5531
 4563TIP3    H214572  10.100   8.126   9.800  1.0514 -2.1152  0.5362
 4564TIP3   OH214573  10.066   4.245  10.504 -0.6150  0.6192 -0.1009
 4564TIP3    H114574  10.046   4.300  10.428 -0.2927 -0.2386 -0.8192
 4564TIP3    H214575  10.035   4.158  10.480  0.9670 -0.0251  0.0655
 4565TIP3   OH214576   7.393   3.399   0.703 -0.0890  0.2019  0.0760
 4565TIP3    H114577   7.369   3.385   0.794 -0.6579  1.1089  0.0810
 4565TIP3    H214578   7.410   3.493   0.697  1.1090 -0.0229 -0.4905
 4566TIP3   OH214579   3.614   3.414   8.207  0.2195 -0.0507 -0.7579
 4566TIP3    H114580   3.567   3.496   8.224  1.2870  0.3464  0.3453
 4566TIP3    H214581   3.706   3.435   8.222  0.7645 -0.8929 -2.6076
 4567TIP3   OH214582   5.092   7.569   4.248 -0.0551 -0.2380 -0.2162
 4567TIP3    H114583   5.002   7.548   4.272 -0.1205 -0.9394 -1.0634
 4567TIP3    H214584   5.086   7.612   4.163  0.2798  1.2432  0.4777
 4568TIP3   OH214585  10.551   2.805   0.690  0.4762  0.1878 -0.4449
 4568TIP3    H114586  10.638   2.800   0.731  0.1454  0.4847  0.3232
 4568TIP3    H214587  10.498   2.744   0.740 -0.2020  1.3179  0.2727
 4569TIP3   OH214588   4.571   3.608   2.059 -0.1685  0.0376 -0.0861
 4569TIP3    H114589   4.532   3.693   2.041  0.4645  0.4410  0.4083
 4569TIP3    H214590   4.513   3.545   2.017 -2.4415  0.4620  2.1797
 4570TIP3   OH214591  10.462   5.866   7.521 -0.0642  0.3789  0.3637
 4570TIP3    H114592  10.523   5.832   7.586  0.0090 -1.9462 -0.8060
 4570TIP3    H214593  10.508   5.854   7.437 -1.7914 -0.7275 -0.4758
 4571TIP3   OH214594   7.997   0.364   9.805  0.3029  0.2621  0.2588
 4571TIP3    H114595   8.044   0.385   9.887  2.6794  0.6627 -1.1093
 4571TIP3    H214596   8.026   0.276   9.783 -0.9187 -0.1428  0.2057
 4572TIP3   OH214597   3.802   2.609   6.542 -0.2090 -0.4925  0.2130
 4572TIP3    H114598   3.866   2.620   6.612 -1.4732 -1.9945  1.6962
 4572TIP3    H214599   3.844   2.551   6.479  0.8388  0.6468 -0.1737
 4573TIP3   OH214600   1.731   5.134   8.082  0.1468  0.1280  0.2145
 4573TIP3    H114601   1.639   5.120   8.105 -0.1041 -0.5273 -1.0457
 4573TIP3    H214602   1.780   5.087   8.148 -0.5842 -3.4690 -1.5387
 4574TIP3   OH214603   3.857  10.663   5.013 -0.0366 -0.5378  0.4274
 4574TIP3    H114604   3.930  10.724   4.997 -0.4449 -0.3132 -0.7253
 4574TIP3    H214605   3.884  10.582   4.969 -0.0183 -0.8007  0.9220
 4575TIP3   OH214606   9.894   9.204   3.161  0.4195 -0.3162  0.4642
 4575TIP3    H114607   9.877   9.256   3.083  2.0455  1.9884  1.5150
 4575TIP3    H214608   9.822   9.141   3.165 -1.6055  1.7518 -1.0160
 4576TIP3   OH214609   0.574   7.149   4.449  0.1524  0.3247 -0.3300
 4576TIP3    H114610   0.521   7.128   4.372 -0.9490  1.7161  0.0173
 4576TIP3    H214611   0.608   7.064   4.479 -2.1719 -0.6748 -0.3564
 4577TIP3   OH214612   8.396   8.857   6.961 -0.4700  0.2533  0.2722
 4577TIP3    H114613   8.442   8.781   6.925  0.0068  0.8076 -0.3209
 4577TIP3    H214614   8.323   8.870   6.901  0.4995  1.3648 -0.7164
 4578TIP3   OH214615   1.495   8.224   1.893 -0.2908  0.8835 -0.3175
 4578TIP3    H114616   1.451   8.194   1.814  0.2846  1.9741 -1.0768
 4578TIP3    H214617   1.583   8.186   1.887 -0.8109 -0.5997  0.7771
 4579TIP3   OH214618   3.985  10.620   3.944  0.0963  0.2922 -0.3034
 4579TIP3    H114619   3.957  10.539   3.987  1.8008  0.2452  0.8207
 4579TIP3    H214620   3.986  10.686   4.013  2.2532  0.3737 -0.3421
 4580TIP3   OH214621   0.559   8.136   6.427  0.6363  0.3352  1.0148
 4580TIP3    H114622   0.566   8.097   6.514  3.0584 -0.2631  0.5973
 4580TIP3    H214623   0.643   8.120   6.386 -0.4189  0.6794 -1.4480
 4581TIP3   OH214624   3.468   0.146   1.374 -1.1132  0.3578 -0.0181
 4581TIP3    H114625   3.381   0.108   1.361 -0.4428 -0.9757 -0.8331
 4581TIP3    H214626   3.528   0.082   1.336  0.2721  1.0319  0.9499
 4582TIP3   OH214627   9.893   0.609   2.263  0.2489 -0.2616 -0.2808
 4582TIP3    H114628   9.865   0.665   2.191  0.2027  1.6916  1.1912
 4582TIP3    H214629   9.848   0.526   2.247 -1.2749  0.7390 -1.4475
 4583TIP3   OH214630   7.601   1.208   4.181  0.2805  0.3535  0.0647
 4583TIP3    H114631   7.536   1.166   4.124 -0.8836 -1.2607  2.4326
 4583TIP3    H214632   7.669   1.141   4.193  0.4274  0.6126  0.6975
 4584TIP3   OH214633  10.003   5.361   7.340  0.8969  0.3544 -0.6325
 4584TIP3    H114634  10.007   5.424   7.268 -0.4948  0.5674 -0.5654
 4584TIP3    H214635  10.064   5.395   7.405  1.2826  0.8093 -1.2210
 4585TIP3   OH214636   2.125   1.037   5.924  0.2230  0.3840 -0.4313
 4585TIP3    H114637   2.190   1.023   5.993 -0.2059 -1.9502 -0.4262
 4585TIP3    H214638   2.151   0.979   5.853 -0.6506  1.0328 -1.3222
 4586TIP3   OH214639   0.238   5.475   0.677  0.4077 -0.3726  0.6548
 4586TIP3    H114640   0.202   5.410   0.616  1.4586 -0.8782  0.5413
 4586TIP3    H214641   0.161   5.515   0.717 -0.2905 -0.8157 -0.1831
 4587TIP3   OH214642   9.509   9.930   4.761 -0.1563 -0.1002 -0.0022
 4587TIP3    H114643   9.486   9.847   4.804  1.4691 -0.2068  0.7203
 4587TIP3    H214644   9.581   9.965   4.813  0.3772  0.8943 -1.3558
 4588TIP3   OH214645   1.262   9.517   8.466  0.2595 -0.3688  0.4718
 4588TIP3    H114646   1.178   9.470   8.471  0.5774 -1.0107 -0.1054
 4588TIP3    H214647   1.320   9.469   8.524 -0.1268  0.9087  2.0157
 4589TIP3   OH214648  10.151   2.513   8.178  0.2624 -0.2182  0.2054
 4589TIP3    H114649  10.139   2.433   8.127 -0.0184 -0.9836  1.4321
 4589TIP3    H214650  10.105   2.496   8.260  0.0849  1.2582  0.4404
 4590TIP3   OH214651  10.304   2.169   5.082  0.4913 -0.2928  0.7644
 4590TIP3    H114652  10.295   2.081   5.045  1.7085  0.2329 -0.9122
 4590TIP3    H214653  10.235   2.175   5.147 -0.0582 -2.2450  0.4183
 4591TIP3   OH214654   3.403   4.699  10.426  0.2748 -0.0753 -0.6778
 4591TIP3    H114655   3.408   4.790  10.398 -2.5075  0.2405 -0.5078
 4591TIP3    H214656   3.310   4.686  10.445  0.5697 -2.9890 -0.8141
 4592TIP3   OH214657   4.044   3.527   9.481 -0.2483  0.2138 -0.1943
 4592TIP3    H114658   4.088   3.591   9.425  0.7063 -0.6813 -0.4945
 4592TIP3    H214659   3.962   3.507   9.435  0.3166 -0.1742 -1.0598
 4593TIP3   OH214660   7.753   8.375   0.230  0.3469  0.3111  0.2386
 4593TIP3    H114661   7.815   8.413   0.167 -0.5434 -0.3087 -1.0623
 4593TIP3    H214662   7.695   8.321   0.176 -1.1191  0.6113  1.4667
 4594TIP3   OH214663   1.611   8.154   6.826 -0.1197 -0.3813 -0.2145
 4594TIP3    H114664   1.635   8.247   6.828  2.3062 -0.9227 -0.1677
 4594TIP3    H214665   1.669   8.116   6.760 -2.8786 -1.4933 -2.2036
 4595TIP3   OH214666   9.649   1.749  10.625 -0.3482  0.5207  0.3031
 4595TIP3    H114667   9.712   1.731  10.556 -0.7051  2.3633 -0.5704
 4595TIP3    H214668   9.564   1.735  10.584 -0.5749  1.9332  0.2152
 4596TIP3   OH214669   5.739  10.647   6.233  0.9293 -0.2225 -0.1743
 4596TIP3    H114670   5.718  10.563   6.193  0.9896 -0.8884  1.1417
 4596TIP3    H214671   5.702  10.712   6.174  3.0106 -1.0486 -2.5347
 4597TIP3   OH214672  10.244   4.726   8.944  0.2962 -0.3236  0.5366
 4597TIP3    H114673  10.198   4.644   8.926  0.3585  0.1631 -2.3682
 4597TIP3    H214674  10.317   4.700   9.001  0.1707 -2.2726 -0.1033
 4598TIP3   OH214675   4.390   6.873   1.184 -0.5168 -0.4971 -0.2026
 4598TIP3    H114676   4.436   6.908   1.260  1.4079  1.0248 -1.9401
 4598TIP3    H214677   4.391   6.778   1.196  1.4714 -0.4069  0.7586
 4599TIP3   OH214678   4.936   6.177   6.456  0.3430  0.3409 -0.7475
 4599TIP3    H114679   4.890   6.261   6.456 -0.1036  0.2460  2.8142
 4599TIP3    H214680   5.028   6.200   6.437  0.3860  1.7978  0.9988
 4600TIP3   OH214681   7.820   7.697   2.149 -0.3334  0.0422 -0.2946
 4600TIP3    H114682   7.886   7.629   2.144 -0.1447  0.2928 -3.0339
 4600TIP3    H214683   7.864   7.772   2.190  0.2169 -0.6635  0.4164
 4601TIP3   OH214684   8.650   1.487   9.818  0.2460  0.2779 -0.3866
 4601TIP3    H114685   8.722   1.491   9.754  0.5520  1.8288  0.0165
 4601TIP3    H214686   8.680   1.424   9.883  1.5221  1.3180  0.0737
 4602TIP3   OH214687   1.151   0.227   8.471  0.1192 -0.7101  0.6566
 4602TIP3    H114688   1.141   0.167   8.397  1.5018 -1.4741  1.0403
 4602TIP3    H214689   1.078   0.288   8.463 -0.4699 -1.5352 -0.6150
 4603TIP3   OH214690   1.425   2.861   8.397  0.2639 -0.1352  0.7472
 4603TIP3    H114691   1.480   2.934   8.425 -0.2101 -0.6489  3.3027
 4603TIP3    H214692   1.449   2.846   8.306  0.6387  2.9297  0.2294
 4604TIP3   OH214693   1.943   1.570   3.440 -0.4130 -0.2431  0.5190
 4604TIP3    H114694   1.974   1.480   3.442  1.6763  0.3979  3.2562
 4604TIP3    H214695   2.013   1.621   3.480 -1.5998  2.6124 -0.7238
 4605TIP3   OH214696   4.611   7.293   5.758 -0.4752  0.1256  0.1189
 4605TIP3    H114697   4.672   7.334   5.819 -1.6912  0.5899  1.0858
 4605TIP3    H214698   4.595   7.361   5.692 -0.4568  0.2549  0.2449
 4606TIP3   OH214699   6.959   3.314   7.534  0.2619  0.4513  0.4547
 4606TIP3    H114700   6.912   3.231   7.523 -2.5214  2.2044 -3.1951
 4606TIP3    H214701   7.037   3.305   7.479  1.3584 -0.5053  2.0776
 4607TIP3   OH214702   4.743   0.210   3.070 -0.9334  0.3832  0.7393
 4607TIP3    H114703   4.763   0.300   3.043 -0.5002 -0.4116 -1.9045
 4607TIP3    H214704   4.679   0.179   3.005 -0.2234 -1.5769  0.9090
 4608TIP3   OH214705   2.749   4.219   6.663  0.3432 -0.5273  0.1100
 4608TIP3    H114706   2.722   4.183   6.747 -1.3108  2.2241  0.8867
 4608TIP3    H214707   2.845   4.224   6.669  0.2864 -0.8755  1.6119
 4609TIP3   OH214708   7.497   5.849   8.080  0.4254 -0.2028 -0.2186
 4609TIP3    H114709   7.505   5.797   8.159  1.5414 -1.1227 -0.8959
 4609TIP3    H214710   7.409   5.831   8.048  0.4485 -0.8930  0.0942
 4610TIP3   OH214711   8.983  10.463   4.508  0.3103  0.0488  0.3825
 4610TIP3    H114712   9.043  10.500   4.443 -0.8263  0.4309 -0.5050
 4610TIP3    H214713   8.896  10.478   4.470 -0.2936 -1.4447  1.1137
 4611TIP3   OH214714   7.504   3.407   8.171 -0.2030  0.4486 -0.3546
 4611TIP3    H114715   7.420   3.376   8.137 -1.3710  1.4851  1.4404
 4611TIP3    H214716   7.481   3.474   8.235  1.9006 -0.4125  1.4260
 4612TIP3   OH214717   2.900   4.032   9.782  0.2775 -0.1076  0.0469
 4612TIP3    H114718   2.927   4.083   9.858 -0.1353  0.8448 -0.4282
 4612TIP3    H214719   2.954   4.064   9.710 -1.5540  1.3482 -0.7619
 4613TIP3   OH214720   2.336   0.612   3.051  0.4535 -0.4898 -0.1055
 4613TIP3    H114721   2.356   0.663   3.130  1.4746 -1.2439  0.1471
 4613TIP3    H214722   2.317   0.678   2.985  1.0586  0.2161  0.3996
 4614TIP3   OH214723   5.251   9.199  10.685 -0.0373  0.1143 -0.1917
 4614TIP3    H114724   5.235   9.267  10.620  0.2831 -1.1588 -1.6862
 4614TIP3    H214725   5.345   9.180  10.679 -0.2197 -0.8605 -0.2561
 4615TIP3   OH214726   4.181  10.746   5.560 -0.9440 -0.0177 -0.6909
 4615TIP3    H114727   4.274  10.726   5.566 -1.0115 -0.4060 -0.9009
 4615TIP3    H214728   4.177  10.834   5.523 -0.6524  0.1624 -0.2946
 4616TIP3   OH214729   0.527  10.097   7.199 -0.1930  0.6137 -0.3295
 4616TIP3    H114730   0.508  10.166   7.135  2.0958  0.6570 -1.0549
 4616TIP3    H214731   0.443  10.080   7.241 -1.3771  1.9497 -1.9927
 4617TIP3   OH214732   7.020   8.946   0.101 -0.4869 -0.4168 -0.7272
 4617TIP3    H114733   7.093   8.999   0.070 -0.0193  0.3601  1.4993
 4617TIP3    H214734   7.061   8.869   0.141 -0.8791 -0.1393  0.2415
 4618TIP3   OH214735   4.073   4.136   3.312 -0.3780  0.0497  0.2568
 4618TIP3    H114736   4.113   4.204   3.365 -0.0751 -2.4150  3.4598
 4618TIP3    H214737   4.141   4.070   3.301 -1.0771 -0.4587 -1.5632
 4619TIP3   OH214738   4.612   9.443   8.981  0.4234  0.9452 -0.3307
 4619TIP3    H114739   4.633   9.391   8.903  0.4077  1.9097 -1.0050
 4619TIP3    H214740   4.565   9.382   9.039  0.6381  0.1481 -0.9722
 4620TIP3   OH214741   8.880   0.122   1.862  0.8745  0.1907 -0.0644
 4620TIP3    H114742   8.859   0.103   1.770  1.6162  0.2130 -0.2526
 4620TIP3    H214743   8.956   0.066   1.880  0.2935 -0.3519  0.7599
 4621TIP3   OH214744   6.959   1.605   3.010 -0.2705  0.0548 -0.0576
 4621TIP3    H114745   6.925   1.649   2.932 -0.9762 -1.6914 -0.8036
 4621TIP3    H214746   6.924   1.656   3.083  0.0036  1.4538 -0.8634
 4622TIP3   OH214747   9.655   9.644   6.310  0.1250 -0.1347  0.1104
 4622TIP3    H114748   9.734   9.677   6.354  0.0482  0.5037 -0.2164
 4622TIP3    H214749   9.604   9.603   6.380 -0.4451  1.7049  0.8441
 4623TIP3   OH214750   4.705   9.025   8.860  0.3242  0.4463 -0.3327
 4623TIP3    H114751   4.793   8.993   8.839  0.2654  0.9518 -1.4163
 4623TIP3    H214752   4.646   8.957   8.826  0.2916 -0.7605  1.9439
 4624TIP3   OH214753   2.818   7.749   3.094  0.1217  0.5790 -0.4035
 4624TIP3    H114754   2.878   7.800   3.039 -0.2014  0.6031 -0.7416
 4624TIP3    H214755   2.770   7.694   3.031  0.0813  0.2622 -0.0949
 4625TIP3   OH214756   4.969   4.659   3.819  0.3136 -0.0182 -0.0835
 4625TIP3    H114757   5.063   4.678   3.821  0.2001  0.5378  0.3675
 4625TIP3    H214758   4.957   4.587   3.881  0.6301 -1.0634 -1.1865
 4626TIP3   OH214759  10.431  10.254   3.354  0.3165  0.1561  0.1226
 4626TIP3    H114760  10.467  10.174   3.390  1.3570  0.2892 -0.5647
 4626TIP3    H214761  10.419  10.236   3.261  1.2730  1.0192 -0.1893
 4627TIP3   OH214762   8.906   7.476  10.781  0.0189  0.0592  0.4545
 4627TIP3    H114763   8.871   7.455  10.694 -1.5269  0.8820  0.8454
 4627TIP3    H214764   8.907   7.571  10.785  0.4215  0.0318  1.2118
 4628TIP3   OH214765   8.643   5.105  10.032  0.1951 -0.1562 -0.2007
 4628TIP3    H114766   8.604   5.156  10.102 -2.8804 -0.9850 -1.1330
 4628TIP3    H214767   8.659   5.168   9.961  1.5089  0.3404  0.4967
 4629TIP3   OH214768   9.317   7.668   6.779 -0.2091  0.6655  0.0075
 4629TIP3    H114769   9.282   7.615   6.851  0.5740  0.2351  0.0843
 4629TIP3    H214770   9.407   7.688   6.805 -0.6276  2.4824  0.2016
 4630TIP3   OH214771   3.938   9.911   4.013 -0.1461 -0.2987 -0.4633
 4630TIP3    H114772   4.004   9.843   3.999 -0.3792 -0.9530  1.3413
 4630TIP3    H214773   3.878   9.873   4.077 -0.0567  1.7247  0.9302
 4631TIP3   OH214774   1.356   6.315   0.855 -0.1455  0.0485  0.1966
 4631TIP3    H114775   1.363   6.221   0.843 -1.6895  0.1367 -1.9623
 4631TIP3    H214776   1.375   6.329   0.948  1.5060 -2.1921  0.2703
 4632TIP3   OH214777   2.680   1.309   1.550 -0.8226 -0.1177 -0.3139
 4632TIP3    H114778   2.671   1.371   1.477 -1.5981  1.2260  0.8712
 4632TIP3    H214779   2.774   1.295   1.558 -0.6924  0.2203 -1.1679
 4633TIP3   OH214780   0.919   2.674   7.758  0.1032 -0.3011  0.2174
 4633TIP3    H114781   0.964   2.730   7.822 -0.4897 -1.3488  1.5979
 4633TIP3    H214782   0.840   2.723   7.735  0.5273  0.2719 -0.0786
 4634TIP3   OH214783   7.705   1.743   0.680 -0.2796  0.2627 -0.3913
 4634TIP3    H114784   7.760   1.821   0.683  2.3648 -1.4729  1.5291
 4634TIP3    H214785   7.767   1.670   0.686 -2.7890 -1.9064  1.5137
 4635TIP3   OH214786   5.561   1.982   0.445 -0.1759 -0.0230  0.1142
 4635TIP3    H114787   5.654   1.957   0.445 -0.0217  0.4004 -1.9252
 4635TIP3    H214788   5.558   2.060   0.501  0.8292  0.3118 -0.2631
 4636TIP3   OH214789  10.480   8.791   1.272 -0.2833  0.2382  0.6358
 4636TIP3    H114790  10.430   8.783   1.353 -1.1451  0.4782  0.1363
 4636TIP3    H214791  10.520   8.878   1.276  0.3788 -0.0771  1.1825
 4637TIP3   OH214792   7.606   6.265   1.554 -0.7623  0.5794 -0.3562
 4637TIP3    H114793   7.546   6.191   1.567 -0.0008  0.1086  0.6070
 4637TIP3    H214794   7.685   6.225   1.518  0.1969  0.6694  1.5385
 4638TIP3   OH214795   3.563  10.602   1.465 -0.5386 -0.2504  0.3050
 4638TIP3    H114796   3.515  10.571   1.388  1.4825  2.1523 -2.1221
 4638TIP3    H214797   3.512  10.677   1.496 -1.6037 -1.4974  1.7031
 4639TIP3   OH214798   4.825   2.081   4.996  0.6705  0.0050 -0.6480
 4639TIP3    H114799   4.908   2.050   5.032  1.2736  2.8471  0.6006
 4639TIP3    H214800   4.845   2.166   4.957 -1.4347  0.2310 -1.3930
 4640TIP3   OH214801   2.862  10.355  10.771  0.2387  0.0474 -0.6300
 4640TIP3    H114802   2.904  10.419  10.828  2.3158 -2.5179  0.9652
 4640TIP3    H214803   2.880  10.386  10.682  2.3058  1.0324  0.0717
 4641TIP3   OH214804   9.582  10.480   8.052 -0.1976  0.6023  0.0959
 4641TIP3    H114805   9.642  10.479   8.127  0.7897  1.5763 -0.6428
 4641TIP3    H214806   9.536  10.564   8.061 -1.7926 -0.3157  0.8841
 4642TIP3   OH214807   5.937   9.649  10.590  0.5787  0.3862 -0.2128
 4642TIP3    H114808   5.918   9.557  10.610  2.8406 -0.3229 -0.9279
 4642TIP3    H214809   5.932   9.694  10.674  0.4964 -0.6181  0.3374
 4643TIP3   OH214810   6.433   1.214   1.459  0.2695 -0.1213 -0.8775
 4643TIP3    H114811   6.442   1.119   1.453 -2.6524 -0.5362 -0.5335
 4643TIP3    H214812   6.415   1.230   1.551 -2.7956  0.2135 -1.4112
 4644TIP3   OH214813   5.676   3.881   1.149  0.0633  0.2438  0.6291
 4644TIP3    H114814   5.583   3.900   1.137  0.1965  0.9921  0.7463
 4644TIP3    H214815   5.679   3.788   1.171 -0.5837 -0.0011 -0.2722
 4645TIP3   OH214816   7.174   3.135   1.169 -0.4329 -0.3050  0.0491
 4645TIP3    H114817   7.112   3.191   1.215  0.6010  0.8792  0.0436
 4645TIP3    H214818   7.171   3.052   1.216 -0.6868  0.3162  1.1685
 4646TIP3   OH214819   0.052   3.312   6.777  0.0312  0.4443  0.2101
 4646TIP3    H114820   0.117   3.340   6.713 -0.5246 -0.8676 -0.9705
 4646TIP3    H214821  -0.007   3.387   6.785 -0.6506  0.1775 -1.8379
 4647TIP3   OH214822   5.843   6.887   8.358 -0.9986 -0.4146 -0.4436
 4647TIP3    H114823   5.781   6.815   8.354 -1.1817 -0.4969  2.1303
 4647TIP3    H214824   5.914   6.854   8.414 -0.0534  0.6706 -0.9691
 4648TIP3   OH214825   3.515   2.185   4.608 -0.0285 -0.4279  0.1698
 4648TIP3    H114826   3.599   2.227   4.590 -0.3449  0.8350  1.4893
 4648TIP3    H214827   3.457   2.217   4.539 -0.0775  0.7797  0.7484
 4649TIP3   OH214828   2.923   5.937   7.163  0.6963  0.1533 -0.0485
 4649TIP3    H114829   2.903   5.939   7.257 -1.0094 -2.0829 -0.2520
 4649TIP3    H214830   2.872   6.009   7.126  0.5484  0.4104  0.6386
 4650TIP3   OH214831   8.983  10.305   5.476 -0.6948  0.2175  0.0392
 4650TIP3    H114832   8.922  10.357   5.425 -0.1083 -0.7213 -1.7001
 4650TIP3    H214833   9.049  10.368   5.507 -0.6826  0.7097 -0.9574
 4651TIP3   OH214834   7.497   4.964   0.384  0.1762  0.3811  0.2517
 4651TIP3    H114835   7.496   4.995   0.475  0.2170 -1.5289  0.9554
 4651TIP3    H214836   7.428   4.897   0.381  0.8463 -0.2888 -0.8517
 4652TIP3   OH214837   3.178   3.258   0.013  0.1425  0.1265 -0.2450
 4652TIP3    H114838   3.116   3.189   0.033 -1.0374  0.7116 -1.6696
 4652TIP3    H214839   3.259   3.212  -0.010  0.1823 -0.6504  1.3664
 4653TIP3   OH214840   2.152   8.082   1.673  0.1536  0.4792 -0.0816
 4653TIP3    H114841   2.075   8.034   1.705  0.0463  2.0092  2.1887
 4653TIP3    H214842   2.191   8.024   1.608 -1.5280 -1.4165  0.4990
 4654TIP3   OH214843   3.140   9.480   3.019  0.5392  0.3021 -0.4943
 4654TIP3    H114844   3.200   9.554   3.010 -0.8628  1.7480  1.2333
 4654TIP3    H214845   3.171   9.433   3.097  0.2744  0.2222 -0.4350
 4655TIP3   OH214846   0.816   0.048   0.651 -0.6485  0.1566 -0.8468
 4655TIP3    H114847   0.903   0.021   0.682 -0.4621  1.0620 -0.5538
 4655TIP3    H214848   0.812   0.017   0.561 -0.1451 -0.1663 -0.7641
 4656TIP3   OH214849  10.667  10.620   9.827 -0.1976 -0.0746 -0.0154
 4656TIP3    H114850  10.703  10.681   9.762  0.9182 -0.3033  0.3768
 4656TIP3    H214851  10.663  10.536   9.781  0.5131 -0.2187  0.1831
 4657TIP3   OH214852   2.839   5.692  10.112 -0.2278 -0.4426 -0.0909
 4657TIP3    H114853   2.903   5.690  10.183  0.6620  0.5156 -0.8373
 4657TIP3    H214854   2.771   5.630  10.139  0.4766 -0.6718  1.2216
 4658TIP3   OH214855   7.207   0.957   4.533  0.3130 -0.4058 -0.0800
 4658TIP3    H114856   7.139   0.896   4.505  1.6892 -0.6806 -3.3119
 4658TIP3    H214857   7.193   1.035   4.481  0.6991  0.7282  1.4446
 4659TIP3   OH214858   4.535   4.840   0.443  0.0909  0.3170 -0.3254
 4659TIP3    H114859   4.621   4.839   0.400 -0.8541  2.7073 -2.5990
 4659TIP3    H214860   4.536   4.920   0.495 -0.4684 -0.0816  0.2977
 4660TIP3   OH214861   4.373   5.597   2.522 -0.6156 -0.7092  0.0927
 4660TIP3    H114862   4.299   5.595   2.583 -0.2055 -0.4942  0.6106
 4660TIP3    H214863   4.450   5.602   2.579 -0.2479 -0.0645 -0.4559
 4661TIP3   OH214864   6.542   6.051   7.555 -0.0806  0.6049  0.3123
 4661TIP3    H114865   6.637   6.041   7.555 -0.2235 -1.8739 -2.1629
 4661TIP3    H214866   6.513   6.013   7.472 -3.5253 -2.0491  2.4139
 4662TIP3   OH214867   6.030   7.240   0.461 -0.0766 -0.2842 -0.4038
 4662TIP3    H114868   6.109   7.190   0.441  0.0256 -0.7055  0.9209
 4662TIP3    H214869   6.057   7.332   0.451  0.2498 -0.4499 -1.0770
 4663TIP3   OH214870  10.455   7.029   6.124  0.2427 -0.6939  0.6658
 4663TIP3    H114871  10.547   7.045   6.103 -0.1642  1.3107  0.1424
 4663TIP3    H214872  10.434   6.945   6.083  1.2286 -0.0348 -1.2861
 4664TIP3   OH214873   2.075   5.120   9.312 -0.0375  0.4472  0.3492
 4664TIP3    H114874   2.161   5.100   9.349 -0.5974  2.5728  3.1108
 4664TIP3    H214875   2.094   5.167   9.231  1.4299  1.2088  1.1035
 4665TIP3   OH214876   3.768   6.277   3.710 -0.3057 -0.6198  0.6919
 4665TIP3    H114877   3.704   6.320   3.653  0.8093 -1.2858 -1.1575
 4665TIP3    H214878   3.818   6.349   3.748  0.1681 -0.1720 -0.7115
 4666TIP3   OH214879   7.068   3.254   8.428 -0.0460  0.0345  0.1802
 4666TIP3    H114880   7.014   3.201   8.370 -0.8453  0.1721  0.7850
 4666TIP3    H214881   7.078   3.337   8.382 -0.0807 -0.1075 -0.0824
 4667TIP3   OH214882   0.481   1.992   1.287  0.0997 -0.1647  0.4256
 4667TIP3    H114883   0.486   1.930   1.359  0.0629  0.4477  0.9601
 4667TIP3    H214884   0.394   1.977   1.249 -1.0427  1.4112  2.2627
 4668TIP3   OH214885   8.409   4.385   7.055  0.2782 -0.0695 -0.0585
 4668TIP3    H114886   8.335   4.434   7.020  0.9066  0.8031 -0.2277
 4668TIP3    H214887   8.426   4.425   7.140 -0.2117 -1.0882  0.5302
 4669TIP3   OH214888   0.615   9.010   5.699  0.1320 -0.0052  0.2147
 4669TIP3    H114889   0.682   8.949   5.667  0.9768  1.0791 -0.1617
 4669TIP3    H214890   0.639   9.026   5.791 -0.7160 -1.0371  0.6365
 4670TIP3   OH214891   9.098   8.445   7.634 -0.3198 -0.6400 -0.4413
 4670TIP3    H114892   9.075   8.360   7.596 -2.2270 -0.1630 -0.4655
 4670TIP3    H214893   9.018   8.497   7.625  1.5033  2.0801 -2.8409
 4671TIP3   OH214894   7.159   9.852   7.289  0.4862 -0.2208 -0.1363
 4671TIP3    H114895   7.104   9.784   7.249  0.1448  0.7129 -1.3231
 4671TIP3    H214896   7.098   9.903   7.343  0.6081 -0.4303  0.2029
 4672TIP3   OH214897   5.723   9.301   1.076 -0.3963 -0.5578  0.7178
 4672TIP3    H114898   5.807   9.346   1.071  0.0341 -1.2255  1.6901
 4672TIP3    H214899   5.707   9.271   0.987 -0.7355  1.5332  0.0141
 4673TIP3   OH214900   3.453   7.539   3.903  0.3970  0.0487  0.3782
 4673TIP3    H114901   3.402   7.604   3.951 -0.4526 -0.2938 -0.0481
 4673TIP3    H214902   3.471   7.470   3.968 -0.0947 -0.0556  0.4042
 4674TIP3   OH214903   6.476   7.189   9.304 -0.1095  0.0557  0.1735
 4674TIP3    H114904   6.477   7.124   9.234  0.6621  1.0460 -0.7663
 4674TIP3    H214905   6.568   7.196   9.332 -0.3399  0.0003  0.9733
 4675TIP3   OH214906   7.959   1.459   9.887 -0.4677  0.2130 -0.2968
 4675TIP3    H114907   8.025   1.430   9.823  1.4522  0.8987  1.2582
 4675TIP3    H214908   7.927   1.542   9.853 -2.3195 -1.1885 -2.2373
 4676TIP3   OH214909   8.467   0.338   1.912 -0.4244  0.0799 -0.3757
 4676TIP3    H114910   8.393   0.278   1.914  1.4733 -2.3913 -0.4848
 4676TIP3    H214911   8.526   0.308   1.981  0.9436  1.3703 -0.9135
 4677TIP3   OH214912   4.786  10.858   4.947  0.1160 -0.1189  0.2546
 4677TIP3    H114913   4.721  10.789   4.935  1.0615 -1.4466  2.1914
 4677TIP3    H214914   4.789  10.903   4.863 -1.2392 -1.8268 -0.7798
 4678TIP3   OH214915   7.220   4.285   5.364  0.1145  0.8613 -0.1165
 4678TIP3    H114916   7.189   4.230   5.292  2.3462 -0.2136 -0.3234
 4678TIP3    H214917   7.140   4.312   5.409 -1.1426 -2.9074  0.2623
 4679TIP3   OH214918   6.792   1.605   7.526 -0.8005 -0.0036 -0.2134
 4679TIP3    H114919   6.856   1.604   7.597 -2.3068  0.4376  1.2404
 4679TIP3    H214920   6.837   1.566   7.451  1.7360  1.9351  0.1766
 4680TIP3   OH214921   3.260   0.759   9.127  0.5419 -0.1287  0.3196
 4680TIP3    H114922   3.313   0.803   9.060  0.6057  0.9439  1.0572
 4680TIP3    H214923   3.213   0.691   9.079  1.1071  0.1791 -0.6969
 4681TIP3   OH214924  10.476   2.838   7.382 -0.2963 -0.8381 -0.1708
 4681TIP3    H114925  10.449   2.885   7.461  0.5056 -0.2916 -0.2088
 4681TIP3    H214926  10.446   2.748   7.396 -1.2873 -0.4695  0.1837
 4682TIP3   OH214927   2.395   1.441   2.485  0.2107 -0.3845  0.3731
 4682TIP3    H114928   2.420   1.533   2.493  0.3533 -0.2054 -1.6510
 4682TIP3    H214929   2.425   1.401   2.567  1.2635  1.1192  0.7611
 4683TIP3   OH214930   3.257   0.091   5.240  0.1130 -0.2742  0.2584
 4683TIP3    H114931   3.166   0.097   5.210 -0.6503  0.7582  2.5156
 4683TIP3    H214932   3.250   0.052   5.327  1.9262 -0.7204  0.2363
 4684TIP3   OH214933   5.027  10.421  10.881  0.0258  0.5817 -0.5876
 4684TIP3    H114934   4.971  10.430  10.804 -1.5780 -2.1401  0.1102
 4684TIP3    H214935   5.115  10.410  10.847  0.1735  4.0949 -1.7603
 4685TIP3   OH214936  10.139   9.363   8.958  0.2879  0.3418  0.5976
 4685TIP3    H114937  10.127   9.297   8.890  1.1910 -1.3504  1.9986
 4685TIP3    H214938  10.134   9.447   8.911  0.6045 -0.7299 -1.4899
 4686TIP3   OH214939   6.938   3.651  10.137 -0.5496 -0.0763  0.5454
 4686TIP3    H114940   6.916   3.624  10.226 -1.4661 -1.1319  0.0286
 4686TIP3    H214941   6.902   3.582  10.082 -0.8642  1.0512 -0.7036
 4687TIP3   OH214942   6.191   1.108   6.269 -0.7066  0.7426 -0.6650
 4687TIP3    H114943   6.109   1.129   6.312  0.9867  5.7111  0.8436
 4687TIP3    H214944   6.198   1.172   6.198  1.0846 -0.7444 -1.9291
 4688TIP3   OH214945   4.159   2.388   0.561 -0.4021 -0.1037  0.1270
 4688TIP3    H114946   4.107   2.468   0.574  1.6091  1.2150  0.4846
 4688TIP3    H214947   4.167   2.349   0.648  0.1755  0.3456  0.2822
 4689TIP3   OH214948   4.172   0.941   7.226 -0.9637  0.9224 -0.0078
 4689TIP3    H114949   4.129   0.907   7.305 -3.9740  1.4305 -1.2831
 4689TIP3    H214950   4.137   1.030   7.216  1.2095  1.7786 -0.6754
 4690TIP3   OH214951  10.034   2.770   0.071 -0.0586 -0.0647  0.2191
 4690TIP3    H114952  10.096   2.803   0.006 -0.0534  1.6673  1.0590
 4690TIP3    H214953  10.066   2.682   0.092  0.7996 -0.0694 -0.9799
 4691TIP3   OH214954   2.036   2.256   2.693 -0.1623 -0.7230 -0.2384
 4691TIP3    H114955   1.986   2.176   2.708 -0.2631 -0.7194 -0.5422
 4691TIP3    H214956   2.097   2.260   2.766 -0.8198 -0.5576  0.3132
 4692TIP3   OH214957   7.395   5.948   2.551  0.2056 -0.6785  0.1700
 4692TIP3    H114958   7.450   6.010   2.502 -0.4354 -0.6542 -0.5441
 4692TIP3    H214959   7.400   5.867   2.500 -1.2532 -0.3744 -0.5084
 4693TIP3   OH214960  10.648   8.265   7.638  0.3869  0.1477 -0.6406
 4693TIP3    H114961  10.586   8.244   7.708  0.0993  1.9446 -0.3256
 4693TIP3    H214962  10.595   8.263   7.558  1.2358 -4.9002 -1.4433
 4694TIP3   OH214963   1.224   7.066   0.163  0.0966 -0.1654  0.1792
 4694TIP3    H114964   1.155   7.011   0.127 -0.1500  0.1726  0.1387
 4694TIP3    H214965   1.284   7.004   0.205 -0.3308 -0.4397  0.3880
 4695TIP3   OH214966   5.705   0.419   4.834 -0.7578  0.1664 -0.7478
 4695TIP3    H114967   5.659   0.502   4.845 -2.3181 -0.7725  0.2769
 4695TIP3    H214968   5.700   0.401   4.740  0.5421  1.7063 -1.1480
 4696TIP3   OH214969   4.265   0.274   3.881  0.3835 -0.0267 -0.9711
 4696TIP3    H114970   4.323   0.197   3.883  0.5520  0.1089  0.9341
 4696TIP3    H214971   4.178   0.238   3.896  0.2828  0.0291 -1.4082
 4697TIP3   OH214972   8.423   1.756   6.616  0.3390 -0.1519 -0.0542
 4697TIP3    H114973   8.443   1.842   6.578 -2.0038 -0.1135 -1.4033
 4697TIP3    H214974   8.508   1.721   6.642  1.5564  1.8347 -1.0915
 4698TIP3   OH214975   2.434   9.564   6.611  0.5719 -0.4742  0.2579
 4698TIP3    H114976   2.466   9.523   6.531 -0.6784 -3.3786  1.1094
 4698TIP3    H214977   2.366   9.625   6.580  1.7855  0.2915 -1.0089
 4699TIP3   OH214978  10.254  10.821   1.974 -0.6538 -0.1998 -0.4757
 4699TIP3    H114979  10.338  10.775   1.971  0.6379  1.9973 -0.1240
 4699TIP3    H214980  10.245  10.859   1.886  0.0322  1.6683  0.2134
 4700TIP3   OH214981   5.433  10.465   0.611 -0.3641  0.0910 -0.3760
 4700TIP3    H114982   5.506  10.519   0.639 -0.0293 -1.4054  1.8443
 4700TIP3    H214983   5.364  10.528   0.590 -0.7647  1.5235  4.2109
 4701TIP3   OH214984   7.453   5.824   8.889  0.2805  0.7020  0.0484
 4701TIP3    H114985   7.509   5.802   8.815 -2.2840  1.6698 -2.3421
 4701TIP3    H214986   7.431   5.740   8.928  1.2705  0.1258 -0.5900
 4702TIP3   OH214987   7.543  10.506   6.360  0.9373 -0.0783 -0.0315
 4702TIP3    H114988   7.550  10.455   6.441 -2.0035 -3.2677 -1.4749
 4702TIP3    H214989   7.571  10.445   6.292 -1.4647  0.6129 -1.7716
 4703TIP3   OH214990   0.080   7.532  10.194  0.0767  0.2759  0.1375
 4703TIP3    H114991   0.032   7.604  10.153 -1.7628 -0.5536  0.7346
 4703TIP3    H214992   0.115   7.481  10.121  2.5317  2.4156 -0.3056
 4704TIP3   OH214993   7.904   2.592  10.475 -0.1558  0.4792  0.6704
 4704TIP3    H114994   7.814   2.582  10.507  0.6437  0.5991  3.1773
 4704TIP3    H214995   7.903   2.554  10.387 -2.4758 -0.2186  0.9457
 4705TIP3   OH214996   1.931   8.955   5.046  0.2070 -0.3204 -0.1401
 4705TIP3    H114997   1.927   8.883   5.108  0.6523  2.3410  3.3287
 4705TIP3    H214998   1.840   8.980   5.031  0.0916  1.1917  2.4772
 4706TIP3   OH214999   0.425   3.189   6.543 -0.3093 -0.1188  0.3447
 4706TIP3    H115000   0.393   3.175   6.454  0.3203 -2.0416  0.3718
 4706TIP3    H215001   0.508   3.140   6.547 -0.9717 -1.1931  2.3477
 4707TIP3   OH215002   0.395   8.418   2.768 -0.5905  0.1861  0.1859
 4707TIP3    H115003   0.363   8.501   2.803  3.2938  0.8050  3.0104
 4707TIP3    H215004   0.358   8.352   2.826 -2.2899  0.0240 -1.0052
 4708TIP3   OH215005   6.547   9.306   2.577  0.2668 -0.0377 -0.2649
 4708TIP3    H115006   6.575   9.220   2.546 -2.4462 -0.3923 -2.0075
 4708TIP3    H215007   6.517   9.291   2.667  1.4731 -0.5040  0.0768
 4709TIP3   OH215008   3.817   2.263   9.941  0.1653 -0.5025  0.2557
 4709TIP3    H115009   3.731   2.305   9.945 -0.7928 -1.9497 -2.5853
 4709TIP3    H215010   3.797   2.170   9.926  2.2362 -1.6075  3.3730
 4710TIP3   OH215011   6.600   9.954   5.802 -0.5366 -0.9941  0.1062
 4710TIP3    H115012   6.542   9.878   5.800 -1.9870  0.0549  0.5908
 4710TIP3    H215013   6.543  10.028   5.783  0.8617 -0.0170 -0.4587
 4711TIP3   OH215014   2.502   9.757   9.828 -0.2762 -0.2017 -0.1019
 4711TIP3    H115015   2.562   9.826   9.857  0.1301 -0.2402 -0.8351
 4711TIP3    H215016   2.534   9.678   9.871  0.2987 -0.2497 -0.6067
 4712TIP3   OH215017  10.133   0.001   9.645 -0.1453 -0.3357  0.2604
 4712TIP3    H115018  10.076   0.004   9.721  0.5366 -0.5911  0.7938
 4712TIP3    H215019  10.183   0.083   9.649 -1.3791  0.5291 -0.9479
 4713TIP3   OH215020   5.237   1.670   1.470  0.4785  0.3051 -0.0962
 4713TIP3    H115021   5.302   1.612   1.510 -0.3815 -0.0321  0.8336
 4713TIP3    H215022   5.290   1.738   1.428  1.5460 -1.4505 -1.7869
 4714TIP3   OH215023   2.876   9.456   1.735 -0.1457 -0.2269  0.0358
 4714TIP3    H115024   2.865   9.361   1.729  0.8136 -0.5010  1.7942
 4714TIP3    H215025   2.959   9.467   1.782 -0.4406  1.4912  0.2121
 4715TIP3   OH215026   8.492   3.298   6.217 -0.1646  0.0858  0.3288
 4715TIP3    H115027   8.411   3.250   6.198  0.6253 -0.8835 -0.7396
 4715TIP3    H215028   8.464   3.389   6.225 -1.3024 -0.1567 -0.5399
 4716TIP3   OH215029   7.792   6.664   7.700 -0.2762  0.2456  0.1707
 4716TIP3    H115030   7.815   6.600   7.768  1.4045  2.5391  1.9608
 4716TIP3    H215031   7.696   6.662   7.696 -0.3801 -0.5571  2.0513
 4717TIP3   OH215032  10.113   8.883  10.196  0.5039 -0.3564 -0.0236
 4717TIP3    H115033  10.161   8.869  10.278 -0.3384 -2.7274  0.1277
 4717TIP3    H215034  10.029   8.920  10.224  0.2472 -1.0911  0.1860
 4718TIP3   OH215035   8.555   0.797   0.407 -0.1841  0.4004  0.6990
 4718TIP3    H115036   8.591   0.872   0.359 -0.5059 -0.0473 -0.2654
 4718TIP3    H215037   8.589   0.720   0.361 -1.4625 -0.0355  0.4336
 4719TIP3   OH215038   1.218  10.038   1.273  0.0017 -0.0865  0.4113
 4719TIP3    H115039   1.271   9.987   1.334 -0.1817 -0.3844  0.3201
 4719TIP3    H215040   1.270  10.040   1.192 -0.4263 -0.9558  0.1031
 4720TIP3   OH215041   7.143   2.110   4.890  0.1462 -0.4864  0.2967
 4720TIP3    H115042   7.156   2.026   4.846  1.4009 -0.3908  0.4466
 4720TIP3    H215043   7.149   2.090   4.983 -0.4206 -0.3663  0.3603
 4721TIP3   OH215044   6.254   0.729   7.524 -0.2881  0.0138  0.0474
 4721TIP3    H115045   6.177   0.716   7.467 -0.2177  3.4038 -1.0345
 4721TIP3    H215046   6.326   0.746   7.463  0.6353  0.0296  1.1180
 4722TIP3   OH215047   6.205   6.608   0.808 -0.1063  0.3281  0.8603
 4722TIP3    H115048   6.173   6.643   0.891 -0.3116 -0.5485  1.1547
 4722TIP3    H215049   6.129   6.611   0.749 -0.2234  0.0394  0.9951
 4723TIP3   OH215050   6.324   5.115   7.587 -0.7586 -0.2220 -0.0323
 4723TIP3    H115051   6.235   5.131   7.617 -0.8879 -1.2279  0.1651
 4723TIP3    H215052   6.333   5.169   7.509 -1.0022  1.0889  0.8254
 4724TIP3   OH215053   4.229   3.157   2.365 -0.8650 -0.0783  0.4588
 4724TIP3    H115054   4.302   3.126   2.419 -0.0296  0.7976 -0.1173
 4724TIP3    H215055   4.154   3.104   2.392  0.2885 -1.9879  0.1042
 4725TIP3   OH215056   5.250   6.974   0.105 -0.2616 -0.0222  0.4092
 4725TIP3    H115057   5.270   6.984   0.198 -1.6132  0.0628  0.7085
 4725TIP3    H215058   5.185   7.042   0.087 -0.4860 -0.4459 -0.4460
 4726TIP3   OH215059   1.374   1.286   4.865  0.0907  0.1294 -0.1090
 4726TIP3    H115060   1.337   1.316   4.782 -0.8536 -0.6384  0.0218
 4726TIP3    H215061   1.384   1.191   4.855 -0.2970 -0.0112  0.7513
 4727TIP3   OH215062   7.708   5.578   0.891 -0.0313 -0.1322  0.2066
 4727TIP3    H115063   7.773   5.595   0.823 -1.1905  2.6130 -0.3580
 4727TIP3    H215064   7.758   5.575   0.973  0.9600  0.3481 -0.3694
 4728TIP3   OH215065   1.689   8.373   8.394  0.2955 -0.0038 -0.3757
 4728TIP3    H115066   1.733   8.454   8.420  0.3924 -0.1417 -0.1137
 4728TIP3    H215067   1.710   8.310   8.463  1.1711 -0.5855 -1.1462
 4729TIP3   OH215068   4.915   3.966   5.194 -0.2412  0.3305 -0.3216
 4729TIP3    H115069   4.934   3.898   5.258 -0.1367 -0.1922 -0.9051
 4729TIP3    H215070   4.973   4.038   5.217 -0.2133  0.1518  0.1757
 4730TIP3   OH215071   6.633   0.621   8.621 -0.5326  0.0182  0.0888
 4730TIP3    H115072   6.643   0.716   8.621 -0.3806  0.0018  0.1622
 4730TIP3    H215073   6.624   0.598   8.529 -1.0353  0.1538  0.1019
 4731TIP3   OH215074   7.239   3.192  10.029  0.1362 -0.2785 -0.1306
 4731TIP3    H115075   7.239   3.268  10.086  0.3161 -1.4520  1.5207
 4731TIP3    H215076   7.170   3.209   9.965 -0.9462  0.5402  1.2204
 4732TIP3   OH215077  10.017   8.067   3.481 -0.0869 -0.2920 -0.2564
 4732TIP3    H115078   9.949   8.113   3.431  0.9607  0.8099 -0.7286
 4732TIP3    H215079  10.041   8.129   3.550 -0.1188 -1.0006  0.3959
 4733TIP3   OH215080   2.833   0.241   8.566 -0.5208 -0.3015 -0.6580
 4733TIP3    H115081   2.890   0.241   8.489 -1.4862 -1.0799 -1.3870
 4733TIP3    H215082   2.784   0.159   8.560 -0.4819 -0.4804  0.8958
 4734TIP3   OH215083   7.958   9.017   5.244 -0.1642 -0.0627  0.3658
 4734TIP3    H115084   7.997   8.964   5.313  0.1611  0.1893  0.3770
 4734TIP3    H215085   7.989   8.978   5.162 -0.5156 -0.3357  0.3616
 4735TIP3   OH215086   8.584   3.332   3.919  0.0520 -0.5086 -0.2563
 4735TIP3    H115087   8.521   3.295   3.981  0.3595  1.2294  1.1894
 4735TIP3    H215088   8.534   3.346   3.839 -0.6700 -1.7230 -0.0416
 4736TIP3   OH215089   9.272   7.772   1.612 -0.2099 -0.3433 -0.3617
 4736TIP3    H115090   9.230   7.857   1.625 -0.5039 -0.3407 -1.2621
 4736TIP3    H215091   9.223   7.732   1.541  1.2228 -0.3948 -1.3596
 4737TIP3   OH215092   4.064   8.546  10.528 -0.0053  0.1054 -0.9770
 4737TIP3    H115093   4.001   8.510  10.590 -0.5091  1.6847 -0.5311
 4737TIP3    H215094   4.064   8.640  10.544  4.8169  0.0260  1.2990
 4738TIP3   OH215095   6.334   6.861  10.287  0.0384  0.2615  0.1087
 4738TIP3    H115096   6.403   6.904  10.235 -0.5681  0.2203 -0.7510
 4738TIP3    H215097   6.263   6.924  10.289 -0.4545 -0.2766 -0.2489
 4739TIP3   OH215098   6.200   7.600   3.668  0.4397 -0.0809 -0.3708
 4739TIP3    H115099   6.286   7.640   3.660  1.0787 -1.2080  0.5546
 4739TIP3    H215100   6.217   7.507   3.682 -0.9877 -0.6085 -1.8406
 4740TIP3   OH215101   0.112   7.887   3.404  0.3476  0.9082 -0.1448
 4740TIP3    H115102   0.102   7.818   3.338 -0.3096 -0.2515  1.1013
 4740TIP3    H215103   0.053   7.956   3.375  0.4670  0.6460 -1.0476
 4741TIP3   OH215104   6.728   6.246   8.910 -0.3360  0.6901 -0.2300
 4741TIP3    H115105   6.795   6.315   8.912  0.3201  0.0829 -0.8520
 4741TIP3    H215106   6.722   6.221   8.818 -1.9707  1.2552 -0.3151
 4742TIP3   OH215107   1.202  10.845   8.833 -0.1161 -0.0738  0.3116
 4742TIP3    H115108   1.165  10.908   8.772  1.9419  0.1690 -0.7831
 4742TIP3    H215109   1.262  10.793   8.780  1.2178 -0.3227  1.9698
 4743TIP3   OH215110  10.118   1.576   1.686  0.0292 -0.0685  0.0592
 4743TIP3    H115111  10.105   1.616   1.772 -0.4176 -0.0970  0.0120
 4743TIP3    H215112  10.034   1.532   1.667  0.1658 -0.1705 -0.3300
 4744TIP3   OH215113   8.189   1.965   9.209  0.1853  0.4087  0.3584
 4744TIP3    H115114   8.167   1.968   9.116  0.0671 -3.3340  0.1338
 4744TIP3    H215115   8.131   2.029   9.250 -2.2391 -0.2876 -1.7405
 4745TIP3   OH215116   3.771   1.293   3.927 -0.3028 -0.2793  0.1683
 4745TIP3    H115117   3.681   1.311   3.951  0.3727  1.7325  1.4834
 4745TIP3    H215118   3.821   1.310   4.007  1.3166 -0.5916 -0.7339
 4746TIP3   OH215119   7.000   0.846   4.368  0.3601 -0.6129 -0.4697
 4746TIP3    H115120   6.944   0.850   4.445  2.0206  1.0545  0.7581
 4746TIP3    H215121   6.979   0.925   4.318 -1.8694 -2.4605 -2.7195
 4747TIP3   OH215122   2.006  10.866   6.651  0.0744 -0.1594 -0.0402
 4747TIP3    H115123   1.972  10.784   6.616  1.0946 -0.4657 -0.3456
 4747TIP3    H215124   2.093  10.843   6.686 -1.3033 -0.1954  3.8636
 4748TIP3   OH215125   7.666   0.766  10.855  0.4171  0.9867 -0.0560
 4748TIP3    H115126   7.581   0.721  10.856 -0.7861  3.0172 -1.5369
 4748TIP3    H215127   7.647   0.852  10.890  2.2429  0.9987  0.9808
 4749TIP3   OH215128   9.826   0.783   1.062 -0.6328 -0.0664  0.7063
 4749TIP3    H115129   9.799   0.691   1.067  0.1876 -0.4031 -0.6160
 4749TIP3    H215130   9.918   0.783   1.088 -0.5592  0.3585  0.4547
 4750TIP3   OH215131   7.535   1.083   1.675 -0.3069 -0.1701 -0.0908
 4750TIP3    H115132   7.523   0.997   1.716  0.9761 -0.8539 -1.0636
 4750TIP3    H215133   7.613   1.119   1.716  1.7017 -1.3609 -2.5389
 4751TIP3   OH215134   5.643   8.920   7.329 -0.1646  0.2573  0.3327
 4751TIP3    H115135   5.588   8.936   7.253  0.9548  1.9545 -0.1602
 4751TIP3    H215136   5.625   8.994   7.388  1.3135  0.6620  0.3051
 4752TIP3   OH215137   2.827   3.601   0.476 -0.7195  0.7824 -0.4029
 4752TIP3    H115138   2.749   3.545   0.470  0.4429 -0.7598 -2.5299
 4752TIP3    H215139   2.793   3.686   0.503 -2.7585 -0.5450  1.5970
 4753TIP3   OH215140  10.827   4.507   0.128 -0.0031  0.3468 -0.3467
 4753TIP3    H115141  10.893   4.576   0.113  1.2222 -0.9930 -1.3247
 4753TIP3    H215142  10.874   4.440   0.178 -0.9256 -0.1937 -0.1926
 4754TIP3   OH215143  10.118   8.456   6.405  0.4705 -0.2499 -0.3711
 4754TIP3    H115144  10.168   8.537   6.389 -2.2886  1.5510 -0.5195
 4754TIP3    H215145  10.164   8.390   6.354  3.0518  1.0942  0.0318
 4755TIP3   OH215146   2.968   6.866  10.017  0.0735  0.4415  0.2580
 4755TIP3    H115147   2.896   6.918   9.982 -1.7611 -2.5109 -0.7232
 4755TIP3    H215148   2.925   6.793  10.061  2.4711 -0.9761  0.3959
 4756TIP3   OH215149   9.347   2.005  10.555  0.3133  0.3105  0.1351
 4756TIP3    H115150   9.296   1.928  10.582  1.5799  0.6651  4.1346
 4756TIP3    H215151   9.284   2.060  10.509 -1.7051 -1.3123  0.7883
 4757TIP3   OH215152   1.286   6.781   5.195 -0.6144 -0.0514  0.1990
 4757TIP3    H115153   1.381   6.785   5.192 -0.5347 -1.5508 -0.2379
 4757TIP3    H215154   1.257   6.863   5.154  0.4839  0.2880  0.0804
 4758TIP3   OH215155   8.402   7.507   3.884  0.8586 -0.2480  0.0984
 4758TIP3    H115156   8.335   7.491   3.951  1.2478 -1.3834  0.2490
 4758TIP3    H215157   8.356   7.555   3.815  1.0387  3.3346  2.2438
 4759TIP3   OH215158  10.061   3.015   7.427 -0.6143 -0.1258  0.2371
 4759TIP3    H115159  10.119   3.068   7.482 -0.7867 -0.4873  0.7756
 4759TIP3    H215160  10.109   3.007   7.344 -0.3837  0.4850  0.3042
 4760TIP3   OH215161   2.971   3.707   1.189 -0.3200  0.4531 -0.0830
 4760TIP3    H115162   2.909   3.668   1.127 -0.2622  1.6662 -0.9407
 4760TIP3    H215163   2.953   3.801   1.185 -2.1306  0.4886  3.6902
 4761TIP3   OH215164   0.880   8.447   1.451  0.2062  0.0387 -0.0189
 4761TIP3    H115165   0.799   8.479   1.492  1.2612 -0.3130  2.5250
 4761TIP3    H215166   0.901   8.513   1.385 -0.0785  2.3234  2.0055
 4762TIP3   OH215167  10.341   9.815   4.068  0.0202 -0.0662 -0.1063
 4762TIP3    H115168  10.313   9.730   4.102 -1.8757  0.3967 -0.4171
 4762TIP3    H215169  10.335   9.874   4.143  1.8541 -0.2619  0.2487
 4763TIP3   OH215170   0.595  10.140   6.774  0.2397 -0.1521  0.2047
 4763TIP3    H115171   0.575  10.198   6.848 -0.8865  0.5748 -0.6466
 4763TIP3    H215172   0.533  10.068   6.782 -1.6422  1.1993 -1.4181
 4764TIP3   OH215173   5.714   2.080   7.023 -0.2243  0.7950  0.2381
 4764TIP3    H115174   5.786   2.133   6.988 -0.2203  0.0059 -0.9959
 4764TIP3    H215175   5.748   2.044   7.104  1.5680 -1.2230 -1.3052
 4765TIP3   OH215176   0.865   9.329   2.898  0.2270 -0.1928 -1.2300
 4765TIP3    H115177   0.910   9.268   2.839  1.3353 -0.7927  0.1758
 4765TIP3    H215178   0.871   9.288   2.984  0.5271  1.6531 -0.3228
 4766TIP3   OH215179   2.248   2.174   2.164  0.4249  0.6020  0.1074
 4766TIP3    H115180   2.247   2.259   2.119  0.2422  0.2942 -0.4824
 4766TIP3    H215181   2.160   2.165   2.200  0.3115  0.4675 -0.2031
 4767TIP3   OH215182   7.895   4.399   3.505 -0.2484  0.1318  0.8429
 4767TIP3    H115183   7.892   4.422   3.413 -2.6294  0.0436  0.8550
 4767TIP3    H215184   7.927   4.309   3.507 -2.2331 -0.6423 -0.0977
 4768TIP3   OH215185   5.787   5.448   6.903 -0.3865  0.0285  0.9328
 4768TIP3    H115186   5.744   5.364   6.889  3.2326 -2.1109  1.5355
 4768TIP3    H215187   5.752   5.479   6.987 -1.7046 -0.8719  0.7509
 4769TIP3   OH215188   5.100   6.408   3.993 -0.1976  0.1824 -0.0092
 4769TIP3    H115189   5.080   6.451   4.076 -0.5511 -0.0479  0.0268
 4769TIP3    H215190   5.042   6.332   3.991 -0.8878  0.7090 -0.9033
 4770TIP3   OH215191   7.040   2.754   7.490  0.3532  0.2350  0.3864
 4770TIP3    H115192   6.955   2.782   7.456  0.3606 -0.6129 -0.3594
 4770TIP3    H215193   7.104   2.793   7.431  0.4393  0.0769  0.3738
 4771TIP3   OH215194   9.874   0.135   2.503  0.2181  0.5474  0.0802
 4771TIP3    H115195   9.791   0.091   2.485 -0.3642  1.6915 -0.1045
 4771TIP3    H215196   9.931   0.066   2.537 -0.4103 -0.5127 -0.9448
 4772TIP3   OH215197   5.190   5.497   5.974 -0.3002 -0.0209 -0.2999
 4772TIP3    H115198   5.147   5.557   6.033 -1.3579 -0.7671 -0.2882
 4772TIP3    H215199   5.260   5.457   6.027  0.5409  1.2885 -0.3652
 4773TIP3   OH215200   1.659   7.928   4.517 -0.5896 -0.2238 -0.2176
 4773TIP3    H115201   1.666   7.896   4.427  2.3641  1.7081 -0.8100
 4773TIP3    H215202   1.611   8.011   4.508  0.7402  0.5677 -0.2415
 4774TIP3   OH215203   1.689   5.620   1.402  0.0871  0.1921 -0.5698
 4774TIP3    H115204   1.671   5.533   1.366 -0.6593  0.9074 -2.0056
 4774TIP3    H215205   1.635   5.679   1.350  0.2562  1.4838  0.6556
 4775TIP3   OH215206   3.001  10.361   6.501 -0.3204  0.1616 -0.2792
 4775TIP3    H115207   3.009  10.305   6.579 -2.3354  0.0569 -0.0852
 4775TIP3    H215208   3.091  10.380   6.475  0.4107 -1.7306  0.6936
 4776TIP3   OH215209  10.870   3.762  10.233 -0.3676 -0.4458  0.8484
 4776TIP3    H115210  10.910   3.704  10.168  1.9714  1.2307  0.6623
 4776TIP3    H215211  10.818   3.823  10.181 -1.4124 -1.2471  0.9091
 4777TIP3   OH215212  10.514   4.760   0.682  0.5648 -0.0635 -0.5575
 4777TIP3    H115213  10.480   4.700   0.617  0.5647  0.6872 -1.2706
 4777TIP3    H215214  10.518   4.709   0.763  0.7165 -1.0542 -1.1764
 4778TIP3   OH215215   1.373   6.254   2.753 -0.2709  0.4119 -0.5287
 4778TIP3    H115216   1.458   6.211   2.753  0.6319  2.1250 -0.4427
 4778TIP3    H215217   1.338   6.240   2.841  0.8147  1.3681  0.0715
 4779TIP3   OH215218   9.386   6.461   9.490 -0.0065 -0.2859 -0.0655
 4779TIP3    H115219   9.401   6.451   9.396 -0.8716 -1.0042 -0.1442
 4779TIP3    H215220   9.433   6.388   9.530  0.1469 -0.1313  0.0368
 4780TIP3   OH215221   2.228   3.333   8.187  0.5788  0.2671 -0.3919
 4780TIP3    H115222   2.150   3.282   8.206  0.9178  0.4929  1.9833
 4780TIP3    H215223   2.289   3.271   8.147  0.2451 -0.6972  0.5614
 4781TIP3   OH215224  10.236   9.878   3.462 -0.6113  0.0900 -0.3919
 4781TIP3    H115225  10.271   9.795   3.429 -3.9963 -1.8586  0.4453
 4781TIP3    H215226  10.247   9.939   3.390 -0.3660 -1.7956 -2.0456
 4782TIP3   OH215227   4.656   9.313   7.468 -0.0320 -0.2959 -0.6110
 4782TIP3    H115228   4.622   9.271   7.547 -0.9914 -0.0754 -0.8927
 4782TIP3    H215229   4.664   9.405   7.491 -1.8743  0.0668 -1.2329
 4783TIP3   OH215230   3.887  10.574   1.812  0.2814 -0.5414  0.0884
 4783TIP3    H115231   3.916  10.647   1.867 -2.4522 -1.1616  2.6409
 4783TIP3    H215232   3.959  10.511   1.816  1.1227  0.4330  1.0092
 4784TIP3   OH215233   9.537   7.520   3.887  0.9980  0.4748  0.6605
 4784TIP3    H115234   9.585   7.491   3.810 -1.0540  0.9706 -0.8927
 4784TIP3    H215235   9.518   7.439   3.935  0.5481 -0.0966 -0.4420
 4785TIP3   OH215236   1.538   6.994   0.034 -0.5213  0.4584  0.1073
 4785TIP3    H115237   1.596   6.940  -0.020  0.8867  2.4352 -0.4816
 4785TIP3    H215238   1.573   6.986   0.123  1.4365  2.4227 -0.3849
 4786TIP3   OH215239   6.396   8.210   4.688  0.1380  0.2102  0.8032
 4786TIP3    H115240   6.479   8.257   4.690  0.1760  0.2159 -0.3880
 4786TIP3    H215241   6.359   8.230   4.602 -0.1987 -1.3404  0.5694
 4787TIP3   OH215242   7.033   1.657   0.342  0.1206 -0.3477  0.0993
 4787TIP3    H115243   7.102   1.687   0.401  2.5521 -2.3112 -1.5662
 4787TIP3    H215244   7.079   1.614   0.270 -2.8617 -1.8171 -1.1076
 4788TIP3   OH215245   6.955   8.042   6.062  0.6941  0.3606 -0.3546
 4788TIP3    H115246   6.987   7.979   5.998  1.2633 -0.3816  0.6409
 4788TIP3    H215247   7.034   8.089   6.091  0.4395  0.6966 -0.1942
 4789TIP3   OH215248   7.190   3.745   9.969 -0.0222  0.1086  0.2675
 4789TIP3    H115249   7.103   3.761   9.931 -0.6854  0.2902  1.7758
 4789TIP3    H215250   7.251   3.770   9.900 -1.1616 -0.7014 -1.0898
 4790TIP3   OH215251   4.979   8.477   4.434  0.0229  0.1103  0.2078
 4790TIP3    H115252   4.983   8.562   4.390  1.5758 -0.2543 -0.4312
 4790TIP3    H215253   5.014   8.494   4.522  1.6180 -0.0832 -0.3521
 4791TIP3   OH215254   7.717   8.850   5.139  0.2436  0.1470  0.8041
 4791TIP3    H115255   7.798   8.800   5.147 -1.2522 -2.3721  1.5373
 4791TIP3    H215256   7.648   8.787   5.162 -1.9479  2.0957 -0.0363
 4792TIP3   OH215257   7.210   6.434   5.135 -0.5696 -0.6904  0.1591
 4792TIP3    H115258   7.138   6.415   5.075 -0.8151 -0.6196  0.4299
 4792TIP3    H215259   7.256   6.507   5.094 -1.6814  0.4217  0.8437
 4793TIP3   OH215260   5.621   3.942   9.497  0.1789  0.2498 -0.2052
 4793TIP3    H115261   5.704   3.989   9.494  0.1516  0.2735 -0.7113
 4793TIP3    H215262   5.602   3.920   9.405  0.4405 -1.1809  0.0586
 4794TIP3   OH215263   1.676   7.913   9.695  0.2212  0.1016  0.1334
 4794TIP3    H115264   1.644   7.824   9.710  1.7100 -0.1705  2.2445
 4794TIP3    H215265   1.747   7.923   9.758 -0.3182  3.0241  0.4037
 4795TIP3   OH215266   0.272   1.309  10.629 -0.4731  0.0409 -0.0091
 4795TIP3    H115267   0.201   1.316  10.693 -1.7751  1.6441 -1.5237
 4795TIP3    H215268   0.324   1.389  10.642  0.5519 -0.6736  0.4587
 4796TIP3   OH215269  10.532   7.980   1.764  0.1458 -0.1138  0.5457
 4796TIP3    H115270  10.537   8.065   1.809  1.8927  0.5125 -0.6822
 4796TIP3    H215271  10.622   7.946   1.767 -0.5680 -2.0612  1.2125
 4797TIP3   OH215272   1.052   6.788   2.233  0.2310  0.4730  0.8180
 4797TIP3    H115273   1.027   6.804   2.324 -1.8757 -0.1108  0.3954
 4797TIP3    H215274   1.002   6.852   2.183  2.0694  1.4036  0.0945
 4798TIP3   OH215275   7.362   8.799   3.527  0.5687  0.3216  0.4754
 4798TIP3    H115276   7.274   8.795   3.563 -0.0161 -1.9053 -0.9884
 4798TIP3    H215277   7.349   8.815   3.433  1.7603  0.6681  0.3476
 4799TIP3   OH215278   1.629   0.796   2.252 -0.7723 -0.9675 -0.0384
 4799TIP3    H115279   1.642   0.880   2.207 -0.4653 -0.9085  0.1552
 4799TIP3    H215280   1.598   0.737   2.183  0.4454 -1.0855 -0.5143
 4800TIP3   OH215281   9.628   6.551   8.301 -0.0370  0.7869 -0.0444
 4800TIP3    H115282   9.542   6.573   8.263 -0.7944 -1.3166  0.3002
 4800TIP3    H215283   9.610   6.474   8.356  2.2019 -0.1622 -0.5548
 4801TIP3   OH215284   2.837   1.297   4.091 -0.1501 -0.0059  0.5816
 4801TIP3    H115285   2.760   1.260   4.048 -0.6753  2.5679 -0.9265
 4801TIP3    H215286   2.898   1.315   4.019  0.2491  1.4969  1.2479
 4802TIP3   OH215287   8.026   5.642   8.996 -0.5041 -0.0116 -0.6145
 4802TIP3    H115288   8.089   5.712   8.976 -0.5461 -0.0061 -0.7265
 4802TIP3    H215289   7.992   5.664   9.083  0.1643 -0.3928 -0.2428
 4803TIP3   OH215290   2.224   3.714   5.351  0.1140  0.0621  0.5559
 4803TIP3    H115291   2.296   3.724   5.289  2.0064 -2.9277  2.0344
 4803TIP3    H215292   2.247   3.771   5.424  0.6259 -0.3201  0.7007
 4804TIP3   OH215293  10.245   3.557   9.555 -0.3105  0.6387  0.2656
 4804TIP3    H115294  10.230   3.468   9.587 -0.7215  0.7679  0.4435
 4804TIP3    H215295  10.270   3.546   9.463 -0.8590  0.3707  0.1470
 4805TIP3   OH215296   4.468   7.370   7.561  0.2005  0.2629  0.8018
 4805TIP3    H115297   4.416   7.350   7.639  1.2739  1.2018  1.8089
 4805TIP3    H215298   4.487   7.464   7.569 -0.6415  0.6670 -1.2240
 4806TIP3   OH215299   0.086   3.840   2.299 -0.6672 -0.8882  0.3908
 4806TIP3    H115300   0.058   3.830   2.390  0.0336  0.9330  0.8524
 4806TIP3    H215301   0.057   3.928   2.275 -0.7612 -1.3096 -1.1356
 4807TIP3   OH215302   0.307  10.603   7.029  0.0471  0.1778 -0.2002
 4807TIP3    H115303   0.272  10.518   7.054 -0.1961  0.3212 -0.0419
 4807TIP3    H215304   0.303  10.603   6.933  0.2930 -0.0874 -0.2116
 4808TIP3   OH215305   4.801   7.161   6.056  0.0818 -0.2459 -0.9445
 4808TIP3    H115306   4.862   7.138   6.125  1.3321  1.9991 -1.2222
 4808TIP3    H215307   4.716   7.169   6.100  0.1952 -2.0760 -0.3215
 4809TIP3   OH215308   7.631   3.224   7.275  0.4740  0.3921  0.1376
 4809TIP3    H115309   7.599   3.135   7.257  0.8306  0.4032 -0.5789
 4809TIP3    H215310   7.558   3.266   7.321 -0.9796  0.6887 -2.2249
 4810TIP3   OH215311   4.526  10.377   3.586 -0.4168 -0.5138  0.1849
 4810TIP3    H115312   4.525  10.402   3.679 -1.5088  0.6532 -0.0987
 4810TIP3    H215313   4.437  10.345   3.569 -0.0100 -1.4164 -0.2953
 4811TIP3   OH215314   9.154   9.261   2.497  0.4408  0.1577 -0.3295
 4811TIP3    H115315   9.239   9.238   2.459  1.4377 -0.0291  1.8554
 4811TIP3    H215316   9.171   9.339   2.550 -0.4934 -0.4298  0.9122
 4812TIP3   OH215317   0.537   2.797  10.286 -0.6852 -1.0412  0.2065
 4812TIP3    H115318   0.463   2.795  10.347 -1.2289 -1.6761 -0.4436
 4812TIP3    H215319   0.593   2.724  10.315 -1.1779 -1.6396 -0.3223
 4813TIP3   OH215320   2.330   7.422   0.167 -0.1047 -0.5228  0.2356
 4813TIP3    H115321   2.394   7.481   0.208  1.4440 -1.2706 -0.9643
 4813TIP3    H215322   2.259   7.479   0.139  0.6281  0.5457  0.4751
 4814TIP3   OH215323   5.884   3.286   2.557  0.2331 -0.2944 -0.1451
 4814TIP3    H115324   5.938   3.365   2.553 -0.3923  0.1623  0.2944
 4814TIP3    H215325   5.946   3.214   2.545  0.8780  0.2383 -0.0436
 4815TIP3   OH215326   1.526   6.344  10.402  0.3402 -0.0054  0.6155
 4815TIP3    H115327   1.581   6.267  10.385  1.7738  1.4165 -1.6407
 4815TIP3    H215328   1.437   6.308  10.404  0.8631 -1.6397 -1.4882
 4816TIP3   OH215329   2.987   9.369   6.954  0.2487 -0.1295 -0.1949
 4816TIP3    H115330   3.082   9.359   6.944  0.0593 -1.3262 -1.0004
 4816TIP3    H215331   2.975   9.459   6.983  1.6223  0.0857 -0.2440
 4817TIP3   OH215332   6.589   2.980   8.475 -0.0001 -0.6707  0.0129
 4817TIP3    H115333   6.579   2.916   8.546 -4.3480 -0.5200 -0.1797
 4817TIP3    H215334   6.591   2.927   8.395  0.2520 -0.6765  0.0223
 4818TIP3   OH215335   5.769  10.763   8.849 -0.5507  0.6465 -0.1572
 4818TIP3    H115336   5.809  10.826   8.789 -0.9616  0.5443 -0.5380
 4818TIP3    H215337   5.713  10.709   8.794  2.1754 -2.1951 -0.4466
 4819TIP3   OH215338   7.207   9.040   1.846  0.0322  0.0709  0.9073
 4819TIP3    H115339   7.236   9.131   1.843 -1.0479  0.4727 -2.3729
 4819TIP3    H215340   7.115   9.045   1.872 -0.1346 -0.0016  0.3544
 4820TIP3   OH215341   3.935   6.037   6.299 -0.1268  0.1586 -0.4728
 4820TIP3    H115342   3.993   6.080   6.361 -0.6081  1.7591 -1.0747
 4820TIP3    H215343   3.990   5.972   6.256  0.4844 -0.2280  0.8578
 4821TIP3   OH215344   6.998   3.896   4.343 -0.5828  1.2780  0.1566
 4821TIP3    H115345   7.029   3.809   4.366  0.3827  1.0613 -1.8136
 4821TIP3    H215346   7.053   3.955   4.394  0.9084  0.7926 -0.8338
 4822TIP3   OH215347   0.477   8.147   3.000  0.7524  0.0351 -0.4856
 4822TIP3    H115348   0.469   8.053   3.020  0.2197  0.6152  2.4957
 4822TIP3    H215349   0.404   8.165   2.941 -0.5544 -0.9986  0.7481
 4823TIP3   OH215350   7.851   2.785   4.962 -0.1308 -0.0618 -0.6408
 4823TIP3    H115351   7.828   2.794   5.054 -3.3564 -0.9788 -1.2480
 4823TIP3    H215352   7.856   2.875   4.929  1.7835  0.3019  0.5116
 4824TIP3   OH215353  10.039   3.964  10.120  0.3034  0.2344 -0.3788
 4824TIP3    H115354   9.956   3.921  10.099  0.6835 -0.1931 -1.0187
 4824TIP3    H215355  10.071   3.997  10.037  1.3105 -0.5502 -0.3206
 4825TIP3   OH215356   9.815   7.548   6.251  0.0764  0.1060 -0.2473
 4825TIP3    H115357   9.860   7.526   6.333 -1.3614 -1.5255  0.1553
 4825TIP3    H215358   9.755   7.475   6.236 -1.3142  1.4419 -1.5744
 4826TIP3   OH215359   8.303   3.108   4.974 -0.1338 -0.1584  0.6109
 4826TIP3    H115360   8.310   3.023   5.017 -1.0826 -0.1744  0.7482
 4826TIP3    H215361   8.212   3.114   4.946 -0.2026  0.9961  1.0030
 4827TIP3   OH215362   2.537   8.034   4.013 -0.3528 -0.3647 -0.6031
 4827TIP3    H115363   2.551   8.101   4.080  0.8674  0.6487 -1.8146
 4827TIP3    H215364   2.444   8.041   3.992 -0.4054  0.4195 -0.1636
 4828TIP3   OH215365   2.298   5.209   1.643  0.1155  0.2974 -0.3031
 4828TIP3    H115366   2.319   5.171   1.729 -0.9366  1.1090  0.3257
 4828TIP3    H215367   2.336   5.147   1.580  0.1106 -0.7898  0.7248
 4829TIP3   OH215368   0.512  10.532   0.780 -0.1172  0.2590  0.2922
 4829TIP3    H115369   0.513  10.626   0.799  1.2481  0.3871 -0.2722
 4829TIP3    H215370   0.581  10.496   0.835 -2.7476 -1.0263  3.0572
 4830TIP3   OH215371   4.607   1.060   0.560 -0.0622  0.2962 -0.6157
 4830TIP3    H115372   4.573   1.046   0.649  0.7640 -0.1571 -0.3626
 4830TIP3    H215373   4.683   1.117   0.572  0.8757 -0.8764 -0.8717
 4831TIP3   OH215374   7.700   9.255   6.197  0.1744 -0.8320 -0.2949
 4831TIP3    H115375   7.622   9.251   6.253  0.4888 -1.1499  0.1224
 4831TIP3    H215376   7.724   9.348   6.197  1.1842 -1.0715  1.5043
 4832TIP3   OH215377  10.702   3.360   2.661  0.2040  0.0131  0.8086
 4832TIP3    H115378  10.667   3.447   2.678 -0.7060 -0.3660  0.9184
 4832TIP3    H215379  10.638   3.299   2.698 -0.2351 -0.7528 -1.0859
 4833TIP3   OH215380   5.410   2.654   7.805 -0.4754 -0.0463 -0.1943
 4833TIP3    H115381   5.487   2.611   7.844  0.7938  0.1402 -2.3360
 4833TIP3    H215382   5.383   2.719   7.870  1.0338 -0.2729  0.7086
 4834TIP3   OH215383   9.440   6.461   9.862  0.0314 -0.1566 -0.0660
 4834TIP3    H115384   9.413   6.550   9.885 -2.7826 -0.2684 -2.3879
 4834TIP3    H215385   9.501   6.436   9.931  1.3790  3.7352  0.4044
 4835TIP3   OH215386  10.448   8.330   2.425  0.8234  0.0290 -0.1992
 4835TIP3    H115387  10.406   8.280   2.355  1.1362  0.5040 -0.7277
 4835TIP3    H215388  10.536   8.347   2.393  0.3158  2.0777 -0.6145
 4836TIP3   OH215389   0.686   4.654  10.134  0.0188  0.6082 -0.2415
 4836TIP3    H115390   0.649   4.647  10.046  0.6808  1.2047 -0.5784
 4836TIP3    H215391   0.779   4.632  10.123 -0.5730 -3.1880  0.9691
 4837TIP3   OH215392   7.088   2.538   1.942  0.7829 -0.1212 -0.0587
 4837TIP3    H115393   7.071   2.511   2.033  0.9397  0.1486  0.0513
 4837TIP3    H215394   7.052   2.626   1.936  0.2652 -0.3511 -0.4221
 4838TIP3   OH215395   8.619   2.524   1.920  0.3765 -0.3153  0.4442
 4838TIP3    H115396   8.551   2.513   1.854  0.7499 -0.5038  0.0819
 4838TIP3    H215397   8.609   2.449   1.979  0.3062 -0.3740  0.3570
 4839TIP3   OH215398   6.714   8.972   1.252  0.2053  0.4509 -0.4470
 4839TIP3    H115399   6.654   8.958   1.325  0.0026  0.5029 -0.6033
 4839TIP3    H215400   6.725   8.885   1.213  0.1491  0.4595 -0.4822
 4840TIP3   OH215401   0.827   5.785   2.238 -0.3762  0.6100 -0.1730
 4840TIP3    H115402   0.900   5.828   2.282  1.1181 -0.0026 -1.9344
 4840TIP3    H215403   0.846   5.794   2.144 -3.6317  2.2681 -0.8451
 4841TIP3   OH215404   2.146   9.103   9.101  0.2119 -1.2684  0.5253
 4841TIP3    H115405   2.204   9.099   9.177  1.1920 -0.6459 -0.1528
 4841TIP3    H215406   2.178   9.034   9.043 -0.6151 -1.8281  0.7160
 4842TIP3   OH215407   8.414   1.359   4.295 -0.3606  0.4364 -0.0592
 4842TIP3    H115408   8.509   1.373   4.299 -0.4185  0.6556  0.6974
 4842TIP3    H215409   8.400   1.313   4.212  0.5436 -0.6342  0.3477
 4843TIP3   OH215410   7.728   8.026   6.546 -0.5011  1.0154 -0.3505
 4843TIP3    H115411   7.750   8.032   6.639  0.4692  0.3164 -0.5163
 4843TIP3    H215412   7.805   7.986   6.505 -1.4661 -0.0283 -1.2333
 4844TIP3   OH215413   0.806   6.138   0.548  0.3080 -0.1631  0.0742
 4844TIP3    H115414   0.817   6.085   0.469  0.1466 -0.7668  0.4506
 4844TIP3    H215415   0.894   6.173   0.565  0.0640  1.1649 -1.1834
 4845TIP3   OH215416   5.955   5.326   1.935  0.3388  0.5278  0.1552
 4845TIP3    H115417   5.931   5.235   1.954  0.4739  0.7228  1.3859
 4845TIP3    H215418   5.969   5.365   2.022  0.5299  1.6545 -0.3662
 4846TIP3   OH215419   0.887   2.720   4.750 -0.4503  0.2449  0.5471
 4846TIP3    H115420   0.910   2.796   4.697 -3.0121  0.0137 -1.0393
 4846TIP3    H215421   0.849   2.757   4.830  1.2871  0.5702  1.2792
 4847TIP3   OH215422   4.000   4.457   2.418 -0.0549 -0.0148 -0.0094
 4847TIP3    H115423   3.991   4.495   2.331 -0.1469  1.4503  0.6088
 4847TIP3    H215424   3.959   4.371   2.412  0.8220 -0.3562 -1.6655
 4848TIP3   OH215425   7.034   4.466   2.902  0.4766 -0.0749  0.1830
 4848TIP3    H115426   7.112   4.479   2.956  0.6660 -2.5115  0.5863
 4848TIP3    H215427   7.069   4.450   2.814  0.3894 -0.4406  0.2156
 4849TIP3   OH215428   1.838   6.789   7.894  0.5829 -0.0973 -0.0867
 4849TIP3    H115429   1.835   6.730   7.969  0.7548 -1.1256 -0.8674
 4849TIP3    H215430   1.827   6.876   7.932 -0.1715 -0.6562  1.0409
 4850TIP3   OH215431   1.124   5.309  10.868  0.5227 -0.3004 -0.4515
 4850TIP3    H115432   1.061   5.380  10.878 -0.0514 -0.8476 -0.1365
 4850TIP3    H215433   1.202   5.339  10.916 -0.1443 -0.3997  0.7245
 4851TIP3   OH215434   1.235   6.133   8.370  0.6844 -0.7071  0.1230
 4851TIP3    H115435   1.319   6.168   8.402  0.5978 -0.3270 -0.0608
 4851TIP3    H215436   1.252   6.111   8.278  0.9014 -1.6942  0.3929
 4852TIP3   OH215437   5.066   0.172   5.624  0.2263  0.6192  0.0832
 4852TIP3    H115438   4.987   0.118   5.631 -0.1781  1.1414 -0.4025
 4852TIP3    H215439   5.124   0.137   5.692  0.4563 -1.2053 -0.9802
 4853TIP3   OH215440   0.042   2.755   3.283 -0.0755 -0.7281  0.8665
 4853TIP3    H115441  -0.007   2.830   3.317 -0.0783 -0.4045  0.1821
 4853TIP3    H215442   0.010   2.744   3.193 -0.0855 -1.5661  0.9655
 4854TIP3   OH215443   1.157   1.177  10.592 -0.2240 -0.3838 -0.2166
 4854TIP3    H115444   1.196   1.207  10.511  0.7329 -0.3606  0.2401
 4854TIP3    H215445   1.063   1.194  10.581  0.0378  0.8029 -0.7980
 4855TIP3   OH215446   4.594   5.980  10.745 -0.1983  0.3350 -0.2812
 4855TIP3    H115447   4.671   5.992  10.689  0.5328  0.1775  0.6569
 4855TIP3    H215448   4.630   5.967  10.833 -1.1273 -2.8028 -0.2383
 4856TIP3   OH215449   7.108   0.000   8.495  0.1056  0.2977 -0.5543
 4856TIP3    H115450   7.148  -0.024   8.411  0.5588 -0.6838 -0.0654
 4856TIP3    H215451   7.141  -0.064   8.557 -1.9390 -0.3520 -0.0470
 4857TIP3   OH215452   0.064   3.052   0.278 -0.0223  0.1166 -0.2638
 4857TIP3    H115453   0.051   3.085   0.366  0.4741  0.0230 -0.1520
 4857TIP3    H215454   0.027   2.963   0.279  2.7173 -1.1392  0.7585
 4858TIP3   OH215455   8.786   8.040   2.332  0.3861 -0.5744 -0.2053
 4858TIP3    H115456   8.716   8.046   2.397  1.3201  1.0610  0.7281
 4858TIP3    H215457   8.749   8.076   2.252  0.3416  0.9617  0.4795
 4859TIP3   OH215458   4.761   3.550   8.180 -0.1642 -0.2587  0.3198
 4859TIP3    H115459   4.766   3.457   8.158 -0.3659 -0.3873  0.8092
 4859TIP3    H215460   4.812   3.593   8.112  0.3052 -0.7707  0.3396
 4860TIP3   OH215461   5.283   8.162   1.339 -0.3907 -0.6341  0.5373
 4860TIP3    H115462   5.235   8.245   1.338  0.4872 -0.1158  0.1103
 4860TIP3    H215463   5.231   8.103   1.286 -1.0587 -0.3797  0.8978
 4861TIP3   OH215464   6.282   5.225   7.340  0.2412  0.6412  0.1902
 4861TIP3    H115465   6.301   5.191   7.252 -1.1223 -1.0061  0.4959
 4861TIP3    H215466   6.198   5.270   7.331  0.4691  1.1367  0.4972
 4862TIP3   OH215467   1.624   5.031   0.766  0.4866 -0.1648  0.1457
 4862TIP3    H115468   1.619   4.985   0.682  1.4519 -1.0608  0.5549
 4862TIP3    H215469   1.715   5.018   0.794  0.6618  1.6088  0.5005
 4863TIP3   OH215470   6.848   8.721   7.731 -0.5229  0.1678  0.1115
 4863TIP3    H115471   6.785   8.742   7.661  0.5967 -0.2314 -1.0612
 4863TIP3    H215472   6.849   8.799   7.786 -0.4572  1.0351 -1.0767
 4864TIP3   OH215473   3.700   9.383   5.304  0.2585  0.2790 -0.2604
 4864TIP3    H115474   3.678   9.409   5.393 -0.2137 -0.1491 -0.2417
 4864TIP3    H215475   3.724   9.464   5.260  2.6234  0.2297  0.8212
 4865TIP3   OH215476   5.406   5.517   3.184 -0.0209 -0.5188 -0.1494
 4865TIP3    H115477   5.359   5.565   3.252  0.4669 -0.6456  0.2870
 4865TIP3    H215478   5.440   5.584   3.125 -1.6538 -0.4709 -1.0890
 4866TIP3   OH215479   8.279   8.679   6.001  0.0505 -0.3315 -0.1484
 4866TIP3    H115480   8.202   8.623   5.992 -1.3608  1.4481  0.2078
 4866TIP3    H215481   8.291   8.688   6.096  0.3448 -0.1578 -0.2011
 4867TIP3   OH215482   0.938   1.096   5.874 -0.0263  0.5152 -0.1231
 4867TIP3    H115483   0.864   1.038   5.858  1.2864 -1.1934 -0.2465
 4867TIP3    H215484   0.983   1.103   5.790  0.9398  0.0848  0.3397
 4868TIP3   OH215485   4.379   7.245   5.484 -0.3004 -0.6470 -0.1389
 4868TIP3    H115486   4.294   7.211   5.457 -0.6033 -0.5824  0.6952
 4868TIP3    H215487   4.360   7.331   5.522  0.0538 -0.8512  0.5366
 4869TIP3   OH215488   1.331   7.185   0.958  0.3836 -0.2486  0.1336
 4869TIP3    H115489   1.272   7.164   0.885  0.4696 -0.1302  0.0299
 4869TIP3    H215490   1.290   7.259   1.002  0.1422 -0.5572  0.4271
 4870TIP3   OH215491   4.604   5.868   7.478  0.1028 -0.3393  1.0359
 4870TIP3    H115492   4.547   5.808   7.429  0.0180  0.5515 -0.0064
 4870TIP3    H215493   4.674   5.813   7.511 -0.6136 -1.2198  1.1346
 4871TIP3   OH215494   8.604   2.096   9.899  0.5921 -0.0336  0.1292
 4871TIP3    H115495   8.588   2.101   9.994 -0.3023  1.0750 -0.0581
 4871TIP3    H215496   8.577   2.007   9.876 -2.7224  0.7628  0.3746
 4872TIP3   OH215497   9.233   8.744   1.867  0.1945 -0.1112  0.0879
 4872TIP3    H115498   9.231   8.819   1.807 -0.3703 -0.2701 -0.0995
 4872TIP3    H215499   9.158   8.759   1.925  0.4891 -0.1763  0.4875
 4873TIP3   OH215500   7.843  10.636   0.213  0.5550  0.0681  0.3274
 4873TIP3    H115501   7.777  10.634   0.144  0.1132 -2.8689  0.7075
 4873TIP3    H215502   7.921  10.670   0.170  0.0246 -0.7572 -1.3859
 4874TIP3   OH215503   6.366   4.208   0.927  0.6070  0.2409 -0.0252
 4874TIP3    H115504   6.414   4.279   0.884  1.4994 -0.5776 -0.4230
 4874TIP3    H215505   6.321   4.162   0.855  0.5963 -0.0132  0.1407
 4875TIP3   OH215506   4.555  10.381   6.453  0.4665 -0.7276  0.4830
 4875TIP3    H115507   4.529  10.333   6.374 -1.1908  0.1482  0.4334
 4875TIP3    H215508   4.478  10.434   6.475  0.9323 -0.8188  2.6051
 4876TIP3   OH215509   7.551  10.022   7.788  0.1292  0.0372  0.8529
 4876TIP3    H115510   7.582   9.936   7.818  0.6669 -0.3424 -0.7166
 4876TIP3    H215511   7.585  10.083   7.854  0.4880 -0.8485  1.5217
 4877TIP3   OH215512   4.519  10.753   0.256  0.4719 -0.1918  0.8585
 4877TIP3    H115513   4.561  10.719   0.177 -1.7265 -1.2209  0.0397
 4877TIP3    H215514   4.569  10.832   0.277  0.4439  0.8458 -2.3212
 4878TIP3   OH215515   3.448   0.263   9.593  0.1667  0.1300 -0.3061
 4878TIP3    H115516   3.436   0.324   9.666  0.2115  0.5136 -0.6156
 4878TIP3    H215517   3.428   0.177   9.630 -3.8361  0.6611 -0.7795
 4879TIP3   OH215518   0.184   6.753   8.778  0.0439  0.8208  1.2390
 4879TIP3    H115519   0.260   6.735   8.722  0.2368  1.2540  1.3627
 4879TIP3    H215520   0.176   6.675   8.833 -0.4884  0.1362  0.2313
 4880TIP3   OH215521   6.711   3.763   1.691 -0.3514  0.0887 -0.0614
 4880TIP3    H115522   6.643   3.697   1.676 -1.9892  1.5819  0.4042
 4880TIP3    H215523   6.723   3.764   1.786  2.0916 -1.7779 -0.2639
 4881TIP3   OH215524   9.453   9.863   6.307  0.4667 -0.3496 -0.5501
 4881TIP3    H115525   9.410   9.859   6.221  0.2371 -2.5024 -0.3835
 4881TIP3    H215526   9.506   9.783   6.311  0.8082 -0.0698  1.1500
 4882TIP3   OH215527   2.580   3.325   6.655  0.3357 -0.2581  0.2748
 4882TIP3    H115528   2.614   3.335   6.567  0.6020 -0.2957  0.3729
 4882TIP3    H215529   2.628   3.251   6.692 -0.0449 -0.4888  0.3202
 4883TIP3   OH215530   6.190   7.629   5.105  0.4477  0.1700 -0.3822
 4883TIP3    H115531   6.248   7.704   5.120 -0.5629  0.9442 -0.1968
 4883TIP3    H215532   6.103   7.662   5.129 -0.0790 -0.9342 -0.7389
 4884TIP3   OH215533   1.563   7.311   5.799  0.1434  0.2154  0.2732
 4884TIP3    H115534   1.593   7.226   5.766 -0.5192 -0.3925  1.2215
 4884TIP3    H215535   1.635   7.342   5.854 -0.3179 -0.5450  1.3266
 4885TIP3   OH215536   3.494   7.440   3.388 -0.2166 -0.2476  0.0921
 4885TIP3    H115537   3.444   7.461   3.467 -0.0013 -0.3362  0.2513
 4885TIP3    H215538   3.534   7.523   3.363 -0.6834 -0.1085 -0.2060
 4886TIP3   OH215539   9.138   7.584   6.429 -0.0619 -0.1907  0.4187
 4886TIP3    H115540   9.049   7.578   6.464 -0.8771 -2.8930 -1.7467
 4886TIP3    H215541   9.129   7.630   6.346  0.5506 -0.4612  0.1924
 4887TIP3   OH215542   0.463   1.202   3.431  0.3269  0.4632  0.0487
 4887TIP3    H115543   0.489   1.241   3.514  0.2227  0.8589 -0.1027
 4887TIP3    H215544   0.377   1.164   3.447  0.0137  1.1203 -0.0552
 4888TIP3   OH215545   5.450   7.818   6.955 -0.4746 -0.1364  0.2326
 4888TIP3    H115546   5.543   7.835   6.947 -0.3061 -1.2976 -0.4851
 4888TIP3    H215547   5.413   7.901   6.985  1.0267 -0.1923  2.5507
 4889TIP3   OH215548   6.291  10.809   9.797 -0.5799 -0.6206  0.2966
 4889TIP3    H115549   6.303  10.716   9.778  0.5828 -0.0502 -2.1347
 4889TIP3    H215550   6.368  10.833   9.849 -1.6078 -1.2507  2.2301
 4890TIP3   OH215551   8.462   3.698   1.404 -0.1795 -0.0129 -0.1875
 4890TIP3    H115552   8.426   3.629   1.348 -0.6913  0.8139 -0.9126
 4890TIP3    H215553   8.388   3.726   1.458 -0.1040  0.3171 -0.2560
 4891TIP3   OH215554   8.505   2.764   6.993 -0.4159 -0.7505 -0.0391
 4891TIP3    H115555   8.568   2.834   7.007  1.9234 -2.8058  0.2740
 4891TIP3    H215556   8.457   2.758   7.076 -0.2872  0.0783  0.1119
 4892TIP3   OH215557   9.138   8.003  10.139 -0.3059 -0.1165 -0.1602
 4892TIP3    H115558   9.206   8.070  10.133  1.6311 -1.8905  0.5298
 4892TIP3    H215559   9.165   7.936  10.077 -1.8621 -0.5562 -0.3991
 4893TIP3   OH215560   0.557   8.183   2.340  0.6465 -0.0672  0.4052
 4893TIP3    H115561   0.497   8.217   2.406  1.0899 -0.4609  1.0176
 4893TIP3    H215562   0.500   8.154   2.268  0.1833  0.6940  0.4542
 4894TIP3   OH215563   1.218   1.748   2.360 -0.5804  0.1168 -0.2039
 4894TIP3    H115564   1.267   1.785   2.286  0.1278  0.0426  0.2177
 4894TIP3    H215565   1.166   1.678   2.321  0.0251 -0.1309 -0.5799
 4895TIP3   OH215566   4.306   9.833   7.884 -0.1178  0.8719  0.0188
 4895TIP3    H115567   4.314   9.867   7.973  0.5607  1.6288 -0.3219
 4895TIP3    H215568   4.267   9.904   7.834  1.1873  1.1207 -0.6720
 4896TIP3   OH215569   0.667  10.073   8.529 -0.4891 -0.2969 -0.3029
 4896TIP3    H115570   0.680  10.085   8.435  0.2506 -2.5354 -0.5646
 4896TIP3    H215571   0.755  10.074   8.566 -0.7307 -0.0735  0.2794
 4897TIP3   OH215572   5.503   8.943   4.966  0.4414 -0.6939 -0.6578
 4897TIP3    H115573   5.448   9.017   4.990  1.6899  0.4714 -1.2264
 4897TIP3    H215574   5.567   8.979   4.904  1.4578 -2.1134 -0.5050
 4898TIP3   OH215575   9.581   2.048   3.070  0.2191 -0.1137 -0.3115
 4898TIP3    H115576   9.527   2.097   3.131  0.4941  1.1053 -1.0028
 4898TIP3    H215577   9.544   2.068   2.984  0.2498 -1.2583 -0.6075
 4899TIP3   OH215578   2.354   0.434   0.683 -0.5149 -0.4539 -0.9379
 4899TIP3    H115579   2.437   0.412   0.726  1.1030  2.4948 -2.2394
 4899TIP3    H215580   2.338   0.525   0.709 -2.0476 -0.1829 -2.6518
 4900TIP3   OH215581   0.808   7.159   6.558  0.3979 -0.5161 -0.0322
 4900TIP3    H115582   0.755   7.169   6.479  1.6090 -0.6055 -0.8744
 4900TIP3    H215583   0.791   7.239   6.608 -0.5704 -0.5725 -0.2525
 4901TIP3   OH215584   5.810   1.039   6.466 -0.4267  0.6722 -0.0839
 4901TIP3    H115585   5.791   0.959   6.515 -0.6634  1.0748  0.5036
 4901TIP3    H215586   5.738   1.046   6.404 -0.0081  0.0403 -0.6612
 4902TIP3   OH215587  10.044   0.017   2.882  0.1378  0.3072 -0.5080
 4902TIP3    H115588  10.116  -0.037   2.914 -0.6625  0.0906  1.0691
 4902TIP3    H215589  10.022   0.074   2.957 -2.5697 -0.9846 -0.1983
 4903TIP3   OH215590   2.884   1.444   6.113  0.4462 -0.2685  0.3535
 4903TIP3    H115591   2.905   1.368   6.168 -0.2740 -0.5144  0.2957
 4903TIP3    H215592   2.822   1.494   6.165 -1.0033 -1.0048 -0.6090
 4904TIP3   OH215593   2.904   4.464   5.325 -0.5169  0.7448  0.2316
 4904TIP3    H115594   2.871   4.519   5.396 -0.5645 -1.1611  1.7630
 4904TIP3    H215595   2.936   4.526   5.260 -0.3632  2.5857  1.9530
 4905TIP3   OH215596   7.621   6.786   5.615 -0.3286 -0.3207 -0.0298
 4905TIP3    H115597   7.609   6.692   5.600  0.2162 -0.3821 -0.1328
 4905TIP3    H215598   7.639   6.822   5.528  0.7959 -0.3436  0.1731
 4906TIP3   OH215599   8.399   5.441   0.389 -0.2868  0.2121 -0.0184
 4906TIP3    H115600   8.322   5.396   0.354 -0.1586  1.5137 -2.2124
 4906TIP3    H215601   8.458   5.371   0.414 -1.6853 -0.8131  0.5549
 4907TIP3   OH215602   7.176   5.059   0.618 -0.0846  0.2903  0.2216
 4907TIP3    H115603   7.137   5.003   0.686  1.5422 -0.3400  0.6802
 4907TIP3    H215604   7.261   5.085   0.654  0.3524  0.8419 -1.1369
 4908TIP3   OH215605   2.048   3.705   8.800  0.0601  0.4001 -0.4924
 4908TIP3    H115606   2.085   3.766   8.864 -0.8289 -1.8259  2.3620
 4908TIP3    H215607   1.956   3.697   8.826 -1.0569  1.2633 -3.7123
 4909TIP3   OH215608   1.294   2.866   8.013  0.0696 -0.4202 -0.1411
 4909TIP3    H115609   1.241   2.923   8.069  0.0407 -0.3740 -0.2155
 4909TIP3    H215610   1.294   2.781   8.058  0.8423 -0.1322  0.4213
 4910TIP3   OH215611   0.824   2.593   9.656  0.6435  0.1699  0.3029
 4910TIP3    H115612   0.890   2.614   9.722  0.1300  0.8309  0.6247
 4910TIP3    H215613   0.750   2.559   9.707  0.8484 -0.9102 -0.0787
 4911TIP3   OH215614   0.637   1.553   1.135  0.1650  0.2498 -0.3955
 4911TIP3    H115615   0.697   1.559   1.209 -1.2950 -0.4035  0.8786
 4911TIP3    H215616   0.654   1.632   1.084  1.0657  0.7989  0.7129
 4912TIP3   OH215617   2.320  10.397   9.909  0.2207 -0.2413  0.1429
 4912TIP3    H115618   2.409  10.429   9.920  0.5977 -1.1995 -0.0275
 4912TIP3    H215619   2.323  10.345   9.828 -0.3780 -0.6573  0.3779
 4913TIP3   OH215620   9.801  10.101   4.056 -0.1341 -0.5432  0.3899
 4913TIP3    H115621   9.874  10.150   4.017  0.1544 -0.4789  1.0045
 4913TIP3    H215622   9.804  10.123   4.149 -0.4628 -1.1483  0.5485
 4914TIP3   OH215623   8.795   1.191   6.705 -0.7997  0.2956 -0.8672
 4914TIP3    H115624   8.715   1.175   6.655 -1.7615  0.1349  0.6767
 4914TIP3    H215625   8.821   1.105   6.737  0.6380  0.1692 -2.2308
 4915TIP3   OH215626   7.322   2.170   7.694  0.2279  0.3777 -0.3579
 4915TIP3    H115627   7.229   2.151   7.683  0.0819  0.3979  0.7830
 4915TIP3    H215628   7.352   2.192   7.605 -0.7113 -0.2097 -0.8379
 4916TIP3   OH215629   7.409   4.615   7.391 -0.3104  0.3863  0.8366
 4916TIP3    H115630   7.378   4.633   7.480 -2.1951 -1.1952  0.5762
 4916TIP3    H215631   7.439   4.700   7.358 -1.1806  1.3507  2.3934
 4917TIP3   OH215632   0.180   1.797  10.763  0.7304  0.4649  0.0570
 4917TIP3    H115633   0.165   1.800  10.858  2.3399 -1.2223  0.4416
 4917TIP3    H215634   0.200   1.888  10.739  0.9495  0.8158  1.4591
 4918TIP3   OH215635   0.376   3.833   1.679  0.5584  0.2917 -0.0791
 4918TIP3    H115636   0.358   3.898   1.747  2.8172 -0.7556  1.6382
 4918TIP3    H215637   0.325   3.756   1.704  1.1115  0.0264  0.2417
 4919TIP3   OH215638   1.465   9.700   9.477 -0.0720  0.1850 -0.2922
 4919TIP3    H115639   1.530   9.639   9.513  0.9521  0.5010 -1.5155
 4919TIP3    H215640   1.472   9.778   9.533  2.1795  1.0370 -1.6327
 4920TIP3   OH215641   4.678   3.592   0.891  0.1676  0.4777  0.7747
 4920TIP3    H115642   4.760   3.549   0.865 -0.3968 -1.0404  1.4089
 4920TIP3    H215643   4.697   3.630   0.976 -0.1705 -1.1133  1.5908
 4921TIP3   OH215644   9.735   3.512   0.038 -0.0811 -0.1707 -0.5441
 4921TIP3    H115645   9.714   3.599   0.071 -0.3490  0.6800 -2.7814
 4921TIP3    H215646   9.829   3.515   0.020  0.1044 -0.6951  0.2543
 4922TIP3   OH215647  10.082   9.420   1.062  0.1251  0.4104  0.0465
 4922TIP3    H115648  10.076   9.328   1.088 -1.7518  0.3672 -0.4264
 4922TIP3    H215649  10.072   9.419   0.967 -0.1487  1.1156  0.0637
 4923TIP3   OH215650   7.298   9.218   2.317 -0.0805  0.2273  0.2203
 4923TIP3    H115651   7.271   9.174   2.398 -1.0653  0.4842  0.0420
 4923TIP3    H215652   7.300   9.311   2.340 -0.3997  0.3052 -0.0488
 4924TIP3   OH215653   4.211   5.310   7.932  0.1924  0.2848 -0.2983
 4924TIP3    H115654   4.289   5.364   7.920  0.0544  0.4830 -0.3267
 4924TIP3    H215655   4.143   5.373   7.959  0.3328 -0.0410  0.8882
 4925TIP3   OH215656   1.513   4.556   6.964 -0.1491  0.1236  0.1718
 4925TIP3    H115657   1.425   4.545   6.929 -0.6123 -0.7328  1.4882
 4925TIP3    H215658   1.571   4.532   6.892 -0.9891  0.4377 -0.6312
 4926TIP3   OH215659   7.651   3.796   5.982  0.5490  0.3891  0.6305
 4926TIP3    H115660   7.690   3.718   5.944 -1.8315  0.1221 -1.5974
 4926TIP3    H215661   7.677   3.867   5.922 -1.2861  0.3893 -0.2389
 4927TIP3   OH215662   2.526   8.105   1.866 -0.1769 -0.0008 -0.3747
 4927TIP3    H115663   2.438   8.068   1.857 -0.4944  0.4736  0.6104
 4927TIP3    H215664   2.553   8.125   1.777 -1.2199  0.1966 -0.6566
 4928TIP3   OH215665   1.667   7.525   7.399 -0.2788 -0.1461  0.0246
 4928TIP3    H115666   1.608   7.520   7.324 -0.7858  1.9481  0.2368
 4928TIP3    H215667   1.653   7.612   7.436  2.7588  0.3820  0.2269
 4929TIP3   OH215668   5.465   6.208   6.718 -0.0237 -0.9748  0.0941
 4929TIP3    H115669   5.467   6.282   6.657  1.2051 -2.8354 -2.2987
 4929TIP3    H215670   5.521   6.235   6.790  0.4281  0.4123 -0.7301
 4930TIP3   OH215671   8.416   0.063   4.649 -0.2348 -0.2303 -0.0070
 4930TIP3    H115672   8.479   0.072   4.578 -1.0918 -0.8884 -0.8804
 4930TIP3    H215673   8.439  -0.019   4.692 -0.5211 -0.4965 -0.3581
 4931TIP3   OH215674   7.736   1.813   2.466 -0.4016 -0.3082 -0.3700
 4931TIP3    H115675   7.803   1.752   2.497  0.9050 -0.6640 -3.5653
 4931TIP3    H215676   7.654   1.764   2.474  0.2887 -1.5300 -0.4908
 4932TIP3   OH215677   2.045   3.967   7.834  0.0479 -0.6904  0.3695
 4932TIP3    H115678   2.063   4.023   7.910 -0.4839 -1.7608  1.3047
 4932TIP3    H215679   2.020   4.029   7.765  1.6348  0.3957  0.6917
 4933TIP3   OH215680   3.053   0.166   1.009 -0.6372 -0.5258 -0.7297
 4933TIP3    H115681   3.042   0.076   0.980  0.1592 -0.4280 -1.3698
 4933TIP3    H215682   3.020   0.219   0.936  0.7860 -0.2866 -1.2375
 4934TIP3   OH215683  10.224   2.084   0.690  0.3026 -0.1554  0.7787
 4934TIP3    H115684  10.230   2.009   0.750  0.1650  0.6059  1.7803
 4934TIP3    H215685  10.151   2.062   0.632 -0.4864 -0.3180  1.7895
 4935TIP3   OH215686   2.558   3.918   0.921 -0.2428  0.3385  0.4074
 4935TIP3    H115687   2.626   3.864   0.962 -2.3841 -0.4060  3.2582
 4935TIP3    H215688   2.595   4.007   0.923  1.3519 -0.2728  0.1433
 4936TIP3   OH215689   2.852   1.741   3.097 -0.3837 -0.1180 -0.4093
 4936TIP3    H115690   2.853   1.819   3.042 -1.0680 -0.1644 -0.4969
 4936TIP3    H215691   2.896   1.674   3.045 -0.6808 -0.0565 -0.7415
 4937TIP3   OH215692   3.469   2.078   5.135 -0.4998 -0.1376 -0.6249
 4937TIP3    H115693   3.409   2.075   5.060 -0.4388  2.5394 -0.8646
 4937TIP3    H215694   3.544   2.128   5.103  0.8289 -1.3612  0.4271
 4938TIP3   OH215695   9.775   9.057   6.813  0.0544  0.3402 -0.2366
 4938TIP3    H115696   9.744   8.967   6.816  0.1193  0.3241 -0.0779
 4938TIP3    H215697   9.857   9.053   6.763 -0.4346  0.4504 -1.0691
 4939TIP3   OH215698   4.495   0.211   7.409  0.3883 -0.3821  0.3530
 4939TIP3    H115699   4.551   0.218   7.332 -0.6311 -0.1121 -0.3939
 4939TIP3    H215700   4.506   0.295   7.453  1.4961 -0.7934  0.8903
 4940TIP3   OH215701   1.136   0.396   1.151 -0.7014  0.2175 -0.3767
 4940TIP3    H115702   1.136   0.461   1.221 -2.2152 -0.4273  0.2627
 4940TIP3    H215703   1.228   0.384   1.130 -0.0762 -0.3055  2.2442
 4941TIP3   OH215704   2.723   7.060   6.140  0.4389 -0.2342  0.3479
 4941TIP3    H115705   2.791   7.003   6.175  1.0666 -0.6245 -1.4388
 4941TIP3    H215706   2.753   7.084   6.053 -0.8022  1.1687  0.2623
 4942TIP3   OH215707   8.676  10.319   2.544  0.1471 -0.1495 -0.1093
 4942TIP3    H115708   8.707  10.409   2.545  0.8146 -0.3792 -0.1805
 4942TIP3    H215709   8.678  10.293   2.452 -3.1078  0.7932 -0.6001
 4943TIP3   OH215710   2.264   2.561   5.909 -0.1005  0.6227  0.1965
 4943TIP3    H115711   2.333   2.498   5.887 -1.4572 -0.7405 -0.4002
 4943TIP3    H215712   2.265   2.625   5.838 -0.8108 -0.6152 -0.9864
 4944TIP3   OH215713  10.634   8.449   2.074  0.1771 -0.6335  0.7066
 4944TIP3    H115714  10.687   8.529   2.068 -0.3472 -0.3145 -4.3714
 4944TIP3    H215715  10.551   8.478   2.112 -0.3921  1.7004 -1.9598
 4945TIP3   OH215716   4.431   5.376   7.330  0.9279 -0.6978  0.3909
 4945TIP3    H115717   4.397   5.297   7.371 -2.0959  0.1842 -0.1665
 4945TIP3    H215718   4.435   5.356   7.237 -2.1751  0.3613 -0.1107
 4946TIP3   OH215719   9.362   8.344   0.060 -0.2136  0.2136  0.0450
 4946TIP3    H115720   9.418   8.394   0.119 -0.5391  0.0956  0.4642
 4946TIP3    H215721   9.366   8.254   0.094 -2.4331  0.5878  1.5040
 4947TIP3   OH215722   8.381   6.012   9.983  0.4636 -0.5696 -0.9319
 4947TIP3    H115723   8.393   6.021  10.078  1.3163 -0.4310 -1.0445
 4947TIP3    H215724   8.399   6.099   9.949 -2.2990  0.0813 -1.0268
 4948TIP3   OH215725   0.865   5.289   6.285 -0.3717  0.7559 -0.1004
 4948TIP3    H115726   0.850   5.340   6.365 -0.5919 -0.5727  0.7473
 4948TIP3    H215727   0.848   5.198   6.311  0.1301  0.2222 -1.5165
 4949TIP3   OH215728  10.302   8.692   6.949 -0.0693 -0.0320 -0.0114
 4949TIP3    H115729  10.301   8.657   6.859 -0.5200  4.3245 -1.9798
 4949TIP3    H215730  10.210   8.690   6.976 -0.2905  0.7041 -0.6502
 4950TIP3   OH215731   0.712   2.141  10.826 -0.0877  0.0006 -0.1985
 4950TIP3    H115732   0.696   2.153  10.733  1.4768 -0.3433 -0.5440
 4950TIP3    H215733   0.657   2.207  10.869 -1.5908 -0.5017 -1.2789
 4951TIP3   OH215734   1.490   0.895   5.920 -0.3508  0.4689 -0.0920
 4951TIP3    H115735   1.400   0.868   5.940 -0.3013  0.1118 -0.3348
 4951TIP3    H215736   1.515   0.953   5.992  0.8604 -3.0264  2.5835
 4952TIP3   OH215737   9.649   2.991   0.449  0.0299 -0.5420  0.6289
 4952TIP3    H115738   9.717   2.943   0.402 -0.7245  0.4437 -1.6148
 4952TIP3    H215739   9.688   3.076   0.468 -0.5525  0.0915 -0.8221
 4953TIP3   OH215740   7.497   7.209   8.296  0.0377 -0.3113  0.7881
 4953TIP3    H115741   7.573   7.159   8.328 -1.8824 -3.0062  1.4751
 4953TIP3    H215742   7.474   7.167   8.213 -0.6774  0.5035  0.5705
 4954TIP3   OH215743   4.373   0.349   0.590  0.3689 -0.0588  0.3087
 4954TIP3    H115744   4.349   0.288   0.660  0.3409 -0.0329  0.3221
 4954TIP3    H215745   4.432   0.299   0.533  0.8213  0.0827  0.6451
 4955TIP3   OH215746  10.515   4.070   4.605  0.1266  0.3618  0.0352
 4955TIP3    H115747  10.494   4.161   4.628 -0.5306  0.6035 -1.4075
 4955TIP3    H215748  10.477   4.018   4.676  1.7447  1.2664  1.6274
 4956TIP3   OH215749   6.869   0.613   1.964  0.3779  0.4956 -0.4312
 4956TIP3    H115750   6.857   0.667   2.042  2.4971  1.9524 -1.0064
 4956TIP3    H215751   6.964   0.599   1.959  0.2472 -0.0446 -2.3986
 4957TIP3   OH215752  10.496   2.727   2.038  0.2967 -0.5082  0.0318
 4957TIP3    H115753  10.502   2.768   2.124 -0.1482 -0.3607 -0.0039
 4957TIP3    H215754  10.561   2.657   2.039 -0.6202 -1.3669  0.9614
 4958TIP3   OH215755   1.236   3.824  10.576  0.1760 -0.2763  0.3896
 4958TIP3    H115756   1.153   3.870  10.559  0.6052  0.6081  0.6121
 4958TIP3    H215757   1.266   3.796  10.489 -0.8637 -1.5407  0.4124
 4959TIP3   OH215758   7.422   9.349   7.341  0.2745  0.4782 -0.3393
 4959TIP3    H115759   7.509   9.353   7.381  0.1779  2.5685 -0.2276
 4959TIP3    H215760   7.429   9.403   7.263 -0.4317 -0.9233 -1.4162
 4960TIP3   OH215761   4.660   6.879   3.471  0.3348 -0.1141 -0.0817
 4960TIP3    H115762   4.639   6.932   3.394  0.4246  0.9653  0.6096
 4960TIP3    H215763   4.596   6.808   3.469 -2.1488  1.9196  0.7974
 4961TIP3   OH215764   9.517   6.259   6.227  0.4246 -0.4907 -0.2849
 4961TIP3    H115765   9.426   6.235   6.210  0.4029 -0.7329  0.1598
 4961TIP3    H215766   9.517   6.354   6.229  0.4033 -0.4513 -1.4795
 4962TIP3   OH215767   6.332   3.305   6.525  0.2541  0.6123  0.3060
 4962TIP3    H115768   6.258   3.358   6.553 -1.9614 -2.0225 -0.1436
 4962TIP3    H215769   6.341   3.238   6.593 -0.6640 -1.6651 -1.6655
 4963TIP3   OH215770   8.608   9.605   0.685  0.5139 -0.3040  0.1267
 4963TIP3    H115771   8.573   9.688   0.653  2.3798  0.3044 -0.4995
 4963TIP3    H215772   8.554   9.538   0.644 -0.9080  0.5702  0.4914
 4964TIP3   OH215773   3.805   2.989   5.454 -0.4903  0.1407  0.1995
 4964TIP3    H115774   3.719   3.020   5.424 -0.1925  1.7073  0.8599
 4964TIP3    H215775   3.865   3.059   5.429  0.5416 -0.7546  0.1139
 4965TIP3   OH215776   6.565  10.740   0.417 -0.2400  0.1522  0.5354
 4965TIP3    H115777   6.508  10.771   0.487  0.6665  2.1316  0.4692
 4965TIP3    H215778   6.506  10.704   0.351 -1.4813  2.5269  0.2794
 4966TIP3   OH215779   6.442   9.818  10.358 -0.2835  0.8104 -0.8476
 4966TIP3    H115780   6.504   9.834  10.429 -0.0686  0.4849 -0.9608
 4966TIP3    H215781   6.356   9.827  10.398 -0.1693 -0.1148 -0.3742
 4967TIP3   OH215782   2.983   2.171   7.778 -0.7380  0.0951  0.5630
 4967TIP3    H115783   3.019   2.111   7.843 -2.4610 -0.1941  1.2855
 4967TIP3    H215784   2.918   2.223   7.826 -1.1330  0.7552 -0.6416
 4968TIP3   OH215785   7.936   0.408   8.059  0.0178  0.0583 -0.4917
 4968TIP3    H115786   7.992   0.378   8.131  1.3763  0.8525 -1.1618
 4968TIP3    H215787   7.996   0.455   8.000 -1.1432 -0.1535 -1.9001
 4969TIP3   OH215788  10.724   7.585   1.817 -0.5159 -0.2542  0.4318
 4969TIP3    H115789  10.742   7.547   1.731 -0.2725  0.3527  0.2083
 4969TIP3    H215790  10.740   7.679   1.805 -0.6165 -0.1493  1.1043
 4970TIP3   OH215791   3.639   8.642   2.736 -0.4856 -0.1583  0.2858
 4970TIP3    H115792   3.577   8.574   2.765 -1.6406  0.0708 -1.4928
 4970TIP3    H215793   3.646   8.701   2.811 -1.4051 -0.9130  0.9979
 4971TIP3   OH215794   7.727   0.620  10.174  0.2325  0.6585 -0.1562
 4971TIP3    H115795   7.786   0.617  10.249  0.2942 -1.7773 -0.2292
 4971TIP3    H215796   7.655   0.677  10.203  0.5094  0.2054  1.5590
 4972TIP3   OH215797   9.687   6.540   2.136 -0.4231  0.0416  0.1850
 4972TIP3    H115798   9.740   6.604   2.089  0.9840  0.0500  1.6842
 4972TIP3    H215799   9.751   6.486   2.183 -1.7378  0.0553  2.0897
 4973TIP3   OH215800   1.159  10.262   0.204 -0.6192 -0.1547  0.1983
 4973TIP3    H115801   1.087  10.264   0.266 -0.4104  0.3578  0.4223
 4973TIP3    H215802   1.154  10.345   0.157 -0.3102 -0.2072  0.0658
 4974TIP3   OH215803   3.348   7.630   5.886 -0.1302 -0.5232  0.5332
 4974TIP3    H115804   3.379   7.601   5.972 -1.2511 -3.1088  0.1553
 4974TIP3    H215805   3.417   7.602   5.825  0.0734  0.1751  0.4316
 4975TIP3   OH215806   7.812   4.227   9.274  0.8927 -0.1450 -0.4857
 4975TIP3    H115807   7.758   4.280   9.332  0.4412 -2.3784  1.2616
 4975TIP3    H215808   7.901   4.240   9.307  0.5757 -1.8764  1.2202
 4976TIP3   OH215809   5.111   0.611   8.104 -0.0926 -0.2491  0.2642
 4976TIP3    H115810   5.063   0.564   8.172  0.9263  1.5165  2.2896
 4976TIP3    H215811   5.124   0.546   8.035 -3.7022 -1.3309  0.3884
 4977TIP3   OH215812   3.278   2.938   8.512  0.9249 -0.8151  0.2101
 4977TIP3    H115813   3.370   2.932   8.486  0.7632  0.9086 -0.8631
 4977TIP3    H215814   3.280   2.959   8.605  1.6181 -0.7308  0.1766
 4978TIP3   OH215815   8.690   2.374   5.944  0.4012 -0.6492  0.1057
 4978TIP3    H115816   8.597   2.355   5.934  0.0605  0.1240  1.4693
 4978TIP3    H215817   8.719   2.400   5.857 -1.3090  1.7132  0.1578
 4979TIP3   OH215818   5.103   2.045   4.966  0.5956  0.3252 -0.0040
 4979TIP3    H115819   5.135   1.986   5.034  1.5042 -0.9704 -1.4736
 4979TIP3    H215820   5.175   2.107   4.954  1.2165 -0.5465 -0.9843
 4980TIP3   OH215821   0.484   4.715   5.523  0.2270 -0.5490  0.0370
 4980TIP3    H115822   0.489   4.809   5.504 -0.6743  0.0031  2.1956
 4980TIP3    H215823   0.414   4.683   5.466  0.2977  0.1659 -0.4643
 4981TIP3   OH215824   4.753   0.694   2.295  0.4927  0.1177 -0.0962
 4981TIP3    H115825   4.706   0.643   2.229  2.6013  0.1530 -1.7527
 4981TIP3    H215826   4.842   0.700   2.261  1.9375 -0.5076  3.1406
 4982TIP3   OH215827   3.021   2.741   0.217 -0.3361 -0.0226 -0.0686
 4982TIP3    H115828   3.018   2.710   0.308  0.9313  0.2872  0.0989
 4982TIP3    H215829   2.946   2.800   0.209 -0.8824 -0.6129  0.5594
 4983TIP3   OH215830   3.387   2.471   0.426 -0.5744  0.2910 -0.7356
 4983TIP3    H115831   3.400   2.564   0.410 -0.3404  0.1442 -1.4489
 4983TIP3    H215832   3.458   2.446   0.485 -1.0650  0.7057  0.0583
 4984TIP3   OH215833   2.717   0.025   3.583  0.3804  0.1110 -0.4959
 4984TIP3    H115834   2.633   0.071   3.584  0.8163  0.9908  1.5550
 4984TIP3    H215835   2.762   0.058   3.505 -0.9945 -0.0536 -1.3792
 4985TIP3   OH215836   0.778   5.026   6.426  0.1614  0.0000  0.4010
 4985TIP3    H115837   0.718   4.971   6.376  0.2449  0.0976  0.1900
 4985TIP3    H215838   0.823   4.966   6.486 -0.3317 -0.0326  0.7401
 4986TIP3   OH215839   7.939   6.409   0.099  0.0257 -0.5218  0.3259
 4986TIP3    H115840   7.994   6.332   0.115  0.8243  0.1334  0.8587
 4986TIP3    H215841   7.935   6.415   0.003  2.7106  0.6164  0.1985
 4987TIP3   OH215842   3.834   9.638   8.892 -0.1588 -0.4845 -0.3863
 4987TIP3    H115843   3.803   9.579   8.960  2.0748 -2.2837 -0.8169
 4987TIP3    H215844   3.859   9.718   8.940 -2.2221 -0.2036  0.3293
 4988TIP3   OH215845   8.535   0.925   8.604  0.0454 -0.1746 -0.1421
 4988TIP3    H115846   8.616   0.891   8.565 -0.6916 -1.0227 -0.9921
 4988TIP3    H215847   8.527   1.014   8.570  0.1179 -0.4341 -0.8692
 4989TIP3   OH215848   2.651   0.058   4.522 -0.3376  0.0474  0.6379
 4989TIP3    H115849   2.721   0.083   4.583  1.3481 -1.1174 -0.7370
 4989TIP3    H215850   2.673  -0.030   4.494 -2.6984 -0.5913  0.5490
 4990TIP3   OH215851   6.028   3.207   6.436 -0.6307  0.2991  0.1979
 4990TIP3    H115852   5.957   3.188   6.497 -0.5532  0.6747  0.4032
 4990TIP3    H215853   6.018   3.141   6.367 -0.5963 -0.2548  0.7119
 4991TIP3   OH215854   3.958   8.722   5.072  0.4916 -0.4990 -0.8597
 4991TIP3    H115855   3.931   8.750   4.984 -0.8786  1.3632  0.0781
 4991TIP3    H215856   4.050   8.746   5.077  0.3413  0.2659 -1.4901
 4992TIP3   OH215857   6.951   8.457   2.495 -0.6067  0.0819  0.3179
 4992TIP3    H115858   7.007   8.382   2.514 -0.3292  0.3037  0.4056
 4992TIP3    H215859   6.862   8.423   2.499 -0.5485  0.0424  1.7425
 4993TIP3   OH215860   5.260   5.313   7.426 -0.6662 -0.6973 -0.0065
 4993TIP3    H115861   5.202   5.243   7.456  0.7595 -1.8596  0.2149
 4993TIP3    H215862   5.202   5.379   7.390 -2.2293 -0.9531  1.8570
 4994TIP3   OH215863   8.808   8.080   1.201 -0.4515  0.5155  0.2873
 4994TIP3    H115864   8.738   8.047   1.145 -0.1264 -1.2817  0.8745
 4994TIP3    H215865   8.779   8.168   1.226 -2.3225 -0.0416  0.2359
 4995TIP3   OH215866   4.467   3.984   8.390 -0.1472  0.3106  0.3760
 4995TIP3    H115867   4.507   3.924   8.327  0.0093  0.4598  0.3318
 4995TIP3    H215868   4.498   4.071   8.364 -1.4357  0.5589 -0.3635
 4996TIP3   OH215869   4.553   7.822   6.069  0.5268 -0.4687  0.2723
 4996TIP3    H115870   4.590   7.898   6.024  0.0283  1.1796  2.4489
 4996TIP3    H215871   4.554   7.753   6.004  3.8557  0.5100 -0.9311
 4997TIP3   OH215872   9.879   7.681   2.774  0.3017  0.4734 -0.3830
 4997TIP3    H115873   9.858   7.588   2.774  0.2066  0.4720 -2.0982
 4997TIP3    H215874   9.803   7.723   2.816  0.0677 -0.1540 -0.1706
 4998TIP3   OH215875   3.527   0.151   5.522  0.1926 -0.1748  0.6461
 4998TIP3    H115876   3.552   0.178   5.610  0.0198  2.3792 -0.0003
 4998TIP3    H215877   3.496   0.231   5.480  0.6899 -1.1919 -1.8907
 4999TIP3   OH215878   2.479   0.757   1.069  1.0093 -0.3099  0.0268
 4999TIP3    H115879   2.460   0.707   1.148  0.7098 -0.7064 -0.2929
 4999TIP3    H215880   2.417   0.830   1.072  0.9240 -0.3847  0.1053
 5000TIP3   OH215881   9.462   9.070   0.205 -0.0697  0.0212 -0.0160
 5000TIP3    H115882   9.508   8.991   0.232 -0.1154  0.5055  1.6066
 5000TIP3    H215883   9.374   9.041   0.182  0.5321 -0.6802 -1.5480
 5001TIP3   OH215884   2.157   0.317   8.937 -0.1714  0.5020  0.3978
 5001TIP3    H115885   2.088   0.272   8.986  0.1624 -0.6541 -0.1734
 5001TIP3    H215886   2.110   0.376   8.878 -0.6684 -0.0423  0.2380
 5002TIP3   OH215887   4.599   7.970   9.760  0.8042  0.3494 -0.1187
 5002TIP3    H115888   4.550   7.907   9.708  1.4577 -0.7454  0.5505
 5002TIP3    H215889   4.655   7.916   9.816  1.2267  1.5271  0.6221
 5003TIP3   OH215890   4.424   4.424   7.003  0.0073  0.0298  0.2748
 5003TIP3    H115891   4.479   4.488   6.958  1.1338 -1.8457 -1.1902
 5003TIP3    H215892   4.342   4.423   6.953 -0.3102  0.8435  0.7661
 5004TIP3   OH215893   6.494   0.399   3.596 -0.2519  0.0130 -0.0620
 5004TIP3    H115894   6.478   0.453   3.673 -0.6350 -0.3779  0.1346
 5004TIP3    H215895   6.407   0.377   3.563 -0.0949  0.3619 -0.7444
 5005TIP3   OH215896   0.961   9.804   4.753  0.5811 -0.3430 -0.8714
 5005TIP3    H115897   0.937   9.717   4.785 -3.2834  1.1645  0.9783
 5005TIP3    H215898   1.035   9.829   4.807 -0.3231 -1.2760  0.9039
 5006TIP3   OH215899   0.882  10.800   1.594  0.2550 -0.2128  0.3076
 5006TIP3    H115900   0.810  10.742   1.570  0.7057 -1.2158  1.2609
 5006TIP3    H215901   0.961  10.750   1.571  0.6545  0.6465 -0.2279
 5007TIP3   OH215902   8.962   0.619   6.595  0.5456 -0.2517  0.2012
 5007TIP3    H115903   9.050   0.590   6.616  0.7239 -2.0133 -2.5709
 5007TIP3    H215904   8.905   0.553   6.635  0.6861 -1.1152 -0.9770
 5008TIP3   OH215905   1.062   3.124   2.971 -0.2082 -0.1900  0.2832
 5008TIP3    H115906   1.062   3.194   3.036 -0.7425 -0.9162  1.0848
 5008TIP3    H215907   1.127   3.062   3.002 -0.1090 -0.3049 -0.1445
 5009TIP3   OH215908   5.428   3.064  10.055 -0.5676 -0.1530  0.4528
 5009TIP3    H115909   5.461   2.975  10.045 -1.7360 -0.4846 -0.7696
 5009TIP3    H215910   5.500   3.119  10.024 -0.1254 -0.7029  0.4783
 5010TIP3   OH215911   1.609   2.996   3.684  0.0862 -0.2351  0.0193
 5010TIP3    H115912   1.632   3.073   3.735  1.4578  0.1098 -1.0911
 5010TIP3    H215913   1.544   2.950   3.739 -0.6033  1.5636  0.7812
 5011TIP3   OH215914   8.213  10.003   7.107 -0.0120 -0.0080 -0.0217
 5011TIP3    H115915   8.288   9.950   7.133  0.0254 -1.7701 -3.2266
 5011TIP3    H215916   8.137   9.960   7.147  0.2658 -0.9684 -0.5238
 5012TIP3   OH215917   4.661   7.243   7.161 -0.1339 -0.4330  1.0455
 5012TIP3    H115918   4.632   7.155   7.186 -0.1332  0.0137  2.7296
 5012TIP3    H215919   4.586   7.299   7.182 -0.3378 -0.0797 -0.5363
 5013TIP3   OH215920   6.706   0.041   5.492 -0.2631  0.5227  0.1587
 5013TIP3    H115921   6.651  -0.014   5.547 -1.3328  0.8702 -0.5372
 5013TIP3    H215922   6.757  -0.021   5.439 -0.1909  0.2014  0.5997
 5014TIP3   OH215923   2.155   0.755   8.832  0.1460 -0.4441 -0.0207
 5014TIP3    H115924   2.221   0.755   8.902  0.4387 -0.4577 -0.2967
 5014TIP3    H215925   2.088   0.816   8.863  1.2103  1.0889 -0.5929
 5015TIP3   OH215926   3.369   5.572   2.860  0.0166 -0.2429 -0.3032
 5015TIP3    H115927   3.302   5.611   2.802  0.2337  2.2304  0.9686
 5015TIP3    H215928   3.450   5.617   2.835  0.2690  0.2262  1.2852
 5016TIP3   OH215929   4.653   6.375   6.189  0.7167  0.4474 -0.0568
 5016TIP3    H115930   4.719   6.418   6.134  2.0637 -1.1683  0.2049
 5016TIP3    H215931   4.686   6.386   6.278  1.0691 -1.0303  0.0173
 5017TIP3   OH215932   0.083   8.167   1.779 -0.1228  0.5648  0.3692
 5017TIP3    H115933   0.153   8.217   1.737 -0.2833  0.2879 -0.2484
 5017TIP3    H215934   0.009   8.174   1.719 -0.0845 -0.5674  0.1696
 5018TIP3   OH215935   6.067   5.594   8.424 -0.3140  0.0887 -0.2607
 5018TIP3    H115936   6.107   5.543   8.495  0.1401 -0.7532 -1.1018
 5018TIP3    H215937   6.065   5.684   8.457 -0.3328 -0.3228  0.9095
 5019TIP3   OH215938   5.954   7.556   7.239  0.3961 -0.7346 -0.0541
 5019TIP3    H115939   6.035   7.516   7.270  0.5343 -0.1200  0.4141
 5019TIP3    H215940   5.953   7.642   7.281  0.0518 -0.2985 -0.9457
 5020TIP3   OH215941   1.314   4.566   2.348  0.0968  0.4798 -0.3844
 5020TIP3    H115942   1.331   4.609   2.432  0.5769  0.3368 -0.4039
 5020TIP3    H215943   1.286   4.478   2.371 -0.5185  0.6798 -0.3552
 5021TIP3   OH215944   6.341   4.635   6.377 -0.4003  0.0111  0.4713
 5021TIP3    H115945   6.273   4.693   6.345 -1.9894 -2.1255 -0.2647
 5021TIP3    H215946   6.295   4.568   6.426  1.5568  0.4818  3.1976
 5022TIP3   OH215947   7.681   6.339   5.973 -0.3237  0.5953 -0.2191
 5022TIP3    H115948   7.735   6.265   5.947 -1.1161 -0.7789  1.7964
 5022TIP3    H215949   7.743   6.404   6.006  0.3084  0.4784 -1.1294
 5023TIP3   OH215950   3.746   9.548   4.571 -0.4087 -0.1789 -0.6634
 5023TIP3    H115951   3.764   9.498   4.650 -0.1318  1.4736  0.3650
 5023TIP3    H215952   3.818   9.526   4.512  0.6968  0.3751  0.4513
 5024TIP3   OH215953   4.851   0.979   4.403 -0.3806 -0.2215  0.0620
 5024TIP3    H115954   4.873   0.912   4.467 -0.6700  0.3014  0.7267
 5024TIP3    H215955   4.897   1.058   4.434  0.4061 -0.2386 -1.0073
 5025TIP3   OH215956   9.046   8.582   8.796 -0.2966  0.3391 -0.2462
 5025TIP3    H115957   9.000   8.615   8.873  0.2106  1.0931 -0.2594
 5025TIP3    H215958   9.135   8.564   8.827 -0.5239 -0.9448 -0.2631
 5026TIP3   OH215959   6.671   4.562   5.824  0.2563  0.3161  0.5395
 5026TIP3    H115960   6.583   4.591   5.844  0.1602  0.4611 -0.0541
 5026TIP3    H215961   6.707   4.532   5.907 -0.5933 -0.4045  0.6554
 5027TIP3   OH215962   8.531  10.901   0.290  0.0616 -0.2914  0.2489
 5027TIP3    H115963   8.465  10.909   0.360 -0.4462 -0.6593 -0.1768
 5027TIP3    H215964   8.581  10.823   0.313  0.8111  0.3716  0.9414
 5028TIP3   OH215965   4.531   3.893   4.148  0.0254  0.4509  0.4402
 5028TIP3    H115966   4.466   3.823   4.139 -0.1083  0.7485 -1.3689
 5028TIP3    H215967   4.580   3.870   4.227 -1.3969 -0.5118  1.0845
 5029TIP3   OH215968   4.472   7.228  10.268  0.0486 -0.4761 -0.1350
 5029TIP3    H115969   4.410   7.160  10.294 -0.6323 -0.1125 -0.7721
 5029TIP3    H215970   4.539   7.181  10.218  0.0487 -0.8119  0.1816
 5030TIP3   OH215971   2.912   5.308   5.399 -0.0683 -0.0406 -0.1924
 5030TIP3    H115972   2.951   5.263   5.324 -0.4372  0.0102 -0.4123
 5030TIP3    H215973   2.856   5.242   5.440 -0.1158  0.0294 -0.1447
 5031TIP3   OH215974   8.820   3.747   9.287 -0.0682  0.3306  0.1393
 5031TIP3    H115975   8.842   3.659   9.257 -0.9980  0.5813 -1.3619
 5031TIP3    H215976   8.903   3.784   9.317  1.2606  0.4784 -3.3306
 5032TIP3   OH215977  10.584  10.009  10.044  0.3533 -0.7353  0.8504
 5032TIP3    H115978  10.497   9.978  10.072 -0.7349  0.0807 -1.3677
 5032TIP3    H215979  10.584  10.102  10.065  0.5248 -0.6452  0.4548
 5033TIP3   OH215980   6.828   9.369  10.594  0.3775 -0.4881  0.6621
 5033TIP3    H115981   6.833   9.457  10.556 -1.3595 -0.9330 -0.6985
 5033TIP3    H215982   6.744   9.367  10.639 -0.8807 -2.2805 -1.6266
 5034TIP3   OH215983   5.424   3.137   5.262  0.2158  0.2555 -0.1472
 5034TIP3    H115984   5.426   3.231   5.246  0.5559  0.3475  0.4303
 5034TIP3    H215985   5.334   3.120   5.292  0.4707  0.5780  0.8288
 5035TIP3   OH215986   9.243   6.184   8.743 -0.3651 -0.8910 -0.4113
 5035TIP3    H115987   9.242   6.279   8.742 -1.6349 -0.8386  1.4984
 5035TIP3    H215988   9.153   6.159   8.763 -0.2352 -2.5440 -1.6536
 5036TIP3   OH215989   8.606  10.211   7.827 -0.1162  0.1359  0.4272
 5036TIP3    H115990   8.629  10.297   7.864  0.5350 -0.1696  0.7521
 5036TIP3    H215991   8.689  10.177   7.793 -0.5099 -0.0519 -0.3689
 5037TIP3   OH215992   4.783   5.182   5.185  0.7621 -0.0197  0.4723
 5037TIP3    H115993   4.724   5.137   5.245 -2.1821  1.8327 -0.7988
 5037TIP3    H215994   4.758   5.275   5.191  3.6454  0.9089 -0.1167
 5038TIP3   OH215995  10.126  10.169  10.336  0.7337  0.4912  0.3507
 5038TIP3    H115996  10.108  10.172  10.429  2.3483  0.7709  0.6946
 5038TIP3    H215997  10.177  10.089  10.324  0.4976  0.4326 -0.2976
 5039TIP3   OH215998   5.737   2.981   1.042 -0.1614 -0.0186 -0.5095
 5039TIP3    H115999   5.813   3.030   1.073 -0.7840  0.2263  0.7281
 5039TIP3    H216000   5.764   2.944   0.958  0.2919  2.5979 -1.6349
 5040TIP3   OH216001  10.127   0.837   6.692 -0.2642 -0.3291  0.1707
 5040TIP3    H116002  10.217   0.833   6.661 -0.4556  0.3622 -0.4946
 5040TIP3    H216003  10.074   0.845   6.613 -1.0108 -1.8864  0.4689
 5041TIP3   OH216004   7.431   4.796   0.729  0.0193 -0.5487 -0.0362
 5041TIP3    H116005   7.421   4.762   0.640  1.0887 -0.7848 -0.0737
 5041TIP3    H216006   7.426   4.719   0.785 -0.1237 -0.4597  0.0762
 5042TIP3   OH216007   1.638   2.615  10.707 -0.3067 -0.4170  0.2989
 5042TIP3    H116008   1.627   2.644  10.798 -1.0471 -1.5822  0.6101
 5042TIP3    H216009   1.706   2.672  10.672 -2.0413  2.0937  0.6628
 5043TIP3   OH216010   6.924  10.609   4.442  0.4124  0.1325  0.3069
 5043TIP3    H116011   6.971  10.667   4.382  0.7894 -0.1153  0.3567
 5043TIP3    H216012   6.934  10.651   4.528 -1.1411  1.1192  0.0411
 5044TIP3   OH216013   0.157   5.215   2.726 -0.4815  0.4533 -0.4545
 5044TIP3    H116014   0.134   5.303   2.697 -1.5784  0.3389  0.0506
 5044TIP3    H216015   0.094   5.158   2.682 -1.1650  0.1266  0.9335
 5045TIP3   OH216016   0.762   0.416   6.439  0.0111  0.6313  0.0125
 5045TIP3    H116017   0.710   0.492   6.465 -0.4408  0.2813  0.1547
 5045TIP3    H216018   0.720   0.342   6.484 -0.2725  0.1275 -1.0385
 5046TIP3   OH216019   8.885   8.895   4.387  0.5784  0.1111 -0.5690
 5046TIP3    H116020   8.798   8.860   4.404  1.3899 -1.6304  0.3078
 5046TIP3    H216021   8.879   8.936   4.301 -1.0301 -0.2300 -0.6376
 5047TIP3   OH216022  10.277   8.270   0.855  0.2321  0.2622  0.2448
 5047TIP3    H116023  10.238   8.242   0.938 -0.4997 -1.7866 -0.7039
 5047TIP3    H216024  10.367   8.237   0.859  0.4066  0.7666  0.4960
 5048TIP3   OH216025   3.162   3.227   6.337 -0.1263  0.3916  0.5400
 5048TIP3    H116026   3.226   3.297   6.330  0.0801  0.1083 -0.8354
 5048TIP3    H216027   3.124   3.221   6.249 -1.2602 -0.1672  1.0440
 5049TIP3   OH216028   7.199   3.420   4.438  0.3331 -0.2047 -0.5217
 5049TIP3    H116029   7.291   3.412   4.416  1.0778 -1.7657  2.6409
 5049TIP3    H216030   7.184   3.514   4.444  2.4738  0.1069  1.3933
 5050TIP3   OH216031   2.281   8.444  10.357  0.4144  0.5735  0.1854
 5050TIP3    H116032   2.345   8.380  10.324  0.5470  0.9112 -0.2255
 5050TIP3    H216033   2.197   8.401  10.344  0.5317  0.2598  0.4205
 5051TIP3   OH216034   2.606   4.327   3.111 -0.2622 -0.0458  0.9114
 5051TIP3    H116035   2.650   4.286   3.185  0.2358 -1.2302 -0.0034
 5051TIP3    H216036   2.652   4.409   3.097 -1.9773  1.4822  3.4823
 5052TIP3   OH216037   0.611   7.786   7.142 -1.1205  0.8824  0.4788
 5052TIP3    H116038   0.616   7.690   7.147  0.6107  0.8354 -1.1642
 5052TIP3    H216039   0.636   7.815   7.229 -0.5826 -0.1564  0.6953
 5053TIP3   OH216040   3.495   8.199   7.501  0.1304 -0.8469  0.0878
 5053TIP3    H116041   3.438   8.126   7.525 -0.2827 -0.5343  0.0487
 5053TIP3    H216042   3.535   8.227   7.583  1.6228 -2.2304 -0.1122
 5054TIP3   OH216043   5.611   1.084   3.800 -0.3303  0.5474  0.2623
 5054TIP3    H116044   5.650   1.035   3.873  0.8146  0.2091 -0.5528
 5054TIP3    H216045   5.535   1.128   3.839  0.7661  1.1024  1.8761
 5055TIP3   OH216046   2.127   6.599   2.642  0.1670  0.4641 -0.2751
 5055TIP3    H116047   2.146   6.539   2.713 -0.5194  0.2004 -0.3067
 5055TIP3    H216048   2.036   6.579   2.617 -1.3436  3.6700  1.9217
 5056TIP3   OH216049   9.397   8.362   8.004  0.1566 -0.1922 -0.0646
 5056TIP3    H116050   9.385   8.349   8.098 -1.7934 -0.3606 -0.2898
 5056TIP3    H216051   9.368   8.280   7.964 -1.8298  0.8486 -0.9149
 5057TIP3   OH216052   6.875   8.462  10.012 -0.1140 -0.0820  0.5548
 5057TIP3    H116053   6.820   8.407   9.956 -0.1786  0.3925  0.1547
 5057TIP3    H216054   6.889   8.408  10.091 -0.3905 -0.5694  0.2781
 5058TIP3   OH216055   5.196   8.997   1.400  0.2703  0.2666 -0.2783
 5058TIP3    H116056   5.151   9.008   1.484  0.0119  1.5054 -0.5556
 5058TIP3    H216057   5.269   9.060   1.404  0.0196  0.6242 -1.1375
 5059TIP3   OH216058   2.746   9.196   1.707 -0.0568  0.1269  0.3027
 5059TIP3    H116059   2.690   9.197   1.784  0.6450  1.6186  0.8333
 5059TIP3    H216060   2.687   9.215   1.634 -1.1670 -3.5611  0.0513
 5060TIP3   OH216061   2.012   9.714   5.737  0.0969  0.1642 -0.7977
 5060TIP3    H116062   1.972   9.719   5.650  0.9691  0.5108 -1.1813
 5060TIP3    H216063   2.077   9.784   5.738  0.1362  0.1270  0.1199
 5061TIP3   OH216064   8.866   6.087   0.948  0.5625 -0.0452 -0.2347
 5061TIP3    H116065   8.855   5.998   0.982 -1.0896  0.6771  1.3162
 5061TIP3    H216066   8.784   6.105   0.902  0.5740  0.9074  0.0901
 5062TIP3   OH216067   0.779   0.213   9.633 -0.1196  0.5956 -0.0264
 5062TIP3    H116068   0.753   0.275   9.701 -1.7575 -0.5972  0.5001
 5062TIP3    H216069   0.874   0.207   9.641 -0.1016  1.8038  0.9613
 5063TIP3   OH216070  10.058   6.833   5.932  0.5254  0.2265  0.5398
 5063TIP3    H116071  10.021   6.745   5.938 -1.3545  0.8328 -1.2601
 5063TIP3    H216072   9.992   6.890   5.971 -1.1448  1.4476 -3.6163
 5064TIP3   OH216073   1.303   3.347   4.060  0.7415  0.0737 -0.2964
 5064TIP3    H116074   1.323   3.255   4.077 -1.5620 -0.3435  0.4744
 5064TIP3    H216075   1.385   3.392   4.078  1.8519 -1.7874 -0.4135
 5065TIP3   OH216076   6.085   4.910   5.796 -0.6037  0.0191  0.2866
 5065TIP3    H116077   6.007   4.885   5.747 -0.5125  1.2118 -0.5066
 5065TIP3    H216078   6.120   4.985   5.748  1.4747 -0.9614  0.1843
 5066TIP3   OH216079   4.669   4.713   7.133  0.4227  0.1982 -0.7717
 5066TIP3    H116080   4.751   4.672   7.160  0.3827 -0.4820 -1.6612
 5066TIP3    H216081   4.603   4.645   7.142 -0.3616  1.1639  1.4112
 5067TIP3   OH216082   3.397   9.633  10.298  0.0004  0.5031  0.0233
 5067TIP3    H116083   3.387   9.548  10.254  2.4156 -0.8489  1.7933
 5067TIP3    H216084   3.460   9.680  10.244  0.4926  0.1619  0.2888
 5068TIP3   OH216085   3.885   7.040   7.619  0.3232  0.7629  0.3653
 5068TIP3    H116086   3.851   6.951   7.604 -1.3112  1.2352  1.0284
 5068TIP3    H216087   3.837   7.071   7.696  0.1575  2.5824 -0.4243
 5069TIP3   OH216088   1.149   9.892   4.927  0.1070  0.1555  0.7734
 5069TIP3    H116089   1.209   9.818   4.921  0.1631  0.2879 -0.6789
 5069TIP3    H216090   1.203   9.963   4.961  0.3221 -0.1894  1.1614
 5070TIP3   OH216091   1.659   0.925   5.508 -0.4248  0.0209 -0.2368
 5070TIP3    H116092   1.729   0.883   5.557  0.8629  1.4593 -0.7910
 5070TIP3    H216093   1.646   1.009   5.552  1.0694  1.5466 -2.5317
 5071TIP3   OH216094   4.721   2.830   3.408 -0.0091  0.1462 -0.2890
 5071TIP3    H116095   4.812   2.836   3.437 -0.3604 -0.0773  0.8972
 5071TIP3    H216096   4.671   2.884   3.470 -0.7969 -0.4624 -0.3698
 5072TIP3   OH216097   8.740   6.234   9.560  1.0457  0.9520 -0.5260
 5072TIP3    H116098   8.785   6.318   9.572 -0.3670  1.4421  2.1171
 5072TIP3    H216099   8.785   6.173   9.618 -0.5786  1.0690  0.9623
 5073TIP3   OH216100   8.943   6.387   0.994  0.0260 -0.4484 -0.0644
 5073TIP3    H116101   9.020   6.391   1.051 -0.0100 -0.5520 -0.0081
 5073TIP3    H216102   8.915   6.296   0.999 -1.0032 -0.1016  1.1131
 5074TIP3   OH216103   8.502   9.042   9.343  0.3601  0.2157 -0.8198
 5074TIP3    H116104   8.508   9.079   9.255  0.3743  0.9216 -0.5289
 5074TIP3    H216105   8.587   8.998   9.355  0.9047  1.2822 -0.6524
 5075TIP3   OH216106   3.987   4.899   3.987  0.5143  0.4000 -0.7458
 5075TIP3    H116107   3.970   4.993   3.987  1.8238  0.6562 -0.2877
 5075TIP3    H216108   4.007   4.878   4.078  0.4494 -0.2876 -0.8851
 5076TIP3   OH216109   8.494   0.753  10.191  0.5058  0.5038 -0.1634
 5076TIP3    H116110   8.548   0.674  10.197  1.1309  0.9383  0.0603
 5076TIP3    H216111   8.477   0.776  10.282  1.3063  1.2824 -0.2042
 5077TIP3   OH216112   7.035   2.527   6.017 -0.2937  0.4027 -0.3423
 5077TIP3    H116113   7.106   2.513   6.079  1.5340  1.8719 -1.9689
 5077TIP3    H216114   7.012   2.619   6.027 -2.1087 -0.0696  0.2272
 5078TIP3   OH216115   9.644   7.979   5.634 -0.6099  0.8653 -0.0666
 5078TIP3    H116116   9.637   7.944   5.545 -1.0489  0.9597 -0.0729
 5078TIP3    H216117   9.684   7.908   5.684 -2.2660 -0.0124  0.1076
 5079TIP3   OH216118   5.526   8.855  10.008  0.3292 -0.6061  0.2228
 5079TIP3    H116119   5.549   8.768   9.976 -0.4874 -0.8583  0.3124
 5079TIP3    H216120   5.549   8.853  10.101 -1.9427 -1.5664  0.8138
 5080TIP3   OH216121   4.791   3.052   3.650  0.3798  0.0018  0.7392
 5080TIP3    H116122   4.775   3.146   3.642 -0.5638 -0.1818  0.3706
 5080TIP3    H216123   4.738   3.024   3.724  1.3706 -0.0911  1.4329
 5081TIP3   OH216124   1.348   6.097   7.809 -0.3379  0.1438 -0.2670
 5081TIP3    H116125   1.438   6.069   7.791  0.2890  1.6488  0.3321
 5081TIP3    H216126   1.294   6.043   7.752  0.8323 -1.6762  0.2409
 5082TIP3   OH216127   1.733   6.558   5.570  0.6804  0.1373 -0.9589
 5082TIP3    H116128   1.828   6.543   5.564  0.6891  0.1081 -0.7611
 5082TIP3    H216129   1.716   6.566   5.664  0.4901  0.1699 -0.9953
 5083TIP3   OH216130   7.812   6.947   2.327  0.4048 -0.1441  0.4903
 5083TIP3    H116131   7.826   6.927   2.419  0.3824  1.3372  0.8365
 5083TIP3    H216132   7.782   6.864   2.289 -0.8433 -0.4641  2.0546
 5084TIP3   OH216133   2.192   2.228   4.006 -0.4984  0.3991 -0.2127
 5084TIP3    H116134   2.213   2.232   4.099 -0.3216 -2.0272 -0.0853
 5084TIP3    H216135   2.266   2.270   3.963  0.9095 -1.1046  0.6255
 5085TIP3   OH216136   4.775   5.145   9.185 -0.2702  0.3205 -0.4058
 5085TIP3    H116137   4.772   5.056   9.150 -0.3836  0.2975 -0.3373
 5085TIP3    H216138   4.859   5.180   9.156  0.7332 -0.5239  1.3255
 5086TIP3   OH216139   3.545   8.898   4.090  0.0712  0.3163  0.2579
 5086TIP3    H116140   3.537   8.803   4.078 -0.3880  0.4653 -0.7767
 5086TIP3    H216141   3.456   8.929   4.102  0.2245  0.6169  0.6451
 5087TIP3   OH216142   5.926   8.199   7.277  0.5893  0.5092  0.0222
 5087TIP3    H116143   5.960   8.288   7.287  0.5630  0.9276 -2.7797
 5087TIP3    H216144   5.901   8.172   7.365  0.4393  3.3428  0.9204
 5088TIP3   OH216145   2.114   1.343   4.736 -0.5630  0.3659 -0.3386
 5088TIP3    H116146   2.051   1.414   4.746 -0.6902 -0.0452  2.4173
 5088TIP3    H216147   2.060   1.266   4.715 -0.6274  0.6144 -1.1367
 5089TIP3   OH216148  10.686   1.342   1.487  0.0820  0.0903 -0.6326
 5089TIP3    H116149  10.717   1.271   1.429 -1.4882 -0.7812 -0.4593
 5089TIP3    H216150  10.738   1.332   1.567  2.1889  1.2265 -1.7751
 5090TIP3   OH216151   7.063   8.545   7.048  0.4867 -0.2164  0.1026
 5090TIP3    H116152   7.026   8.612   6.990 -0.2673  0.7964  1.6806
 5090TIP3    H216153   7.149   8.580   7.073  1.7941 -1.6757 -2.0510
 5091TIP3   OH216154   0.654   6.098   2.116  0.1367  0.0816  0.5502
 5091TIP3    H116155   0.665   6.193   2.122 -1.6844  0.3717 -0.0496
 5091TIP3    H216156   0.568   6.081   2.155 -0.6466 -0.9966 -1.4866
 5092TIP3   OH216157   2.695   9.429   9.631  0.2055  0.1211  0.7872
 5092TIP3    H116158   2.781   9.415   9.671  0.5667  0.1059  0.0405
 5092TIP3    H216159   2.705   9.509   9.579 -0.4402  0.4987  1.2318
 5093TIP3   OH216160  10.862   0.833   8.185  0.1511  1.1117 -0.5562
 5093TIP3    H116161  10.941   0.822   8.132 -0.2172  0.5904 -1.0143
 5093TIP3    H216162  10.884   0.794   8.270  0.1901  0.3951 -0.8846
 5094TIP3   OH216163   1.259   8.127   2.534  0.5151  0.2770  0.1818
 5094TIP3    H116164   1.226   8.183   2.605 -1.3261  0.6799 -0.9175
 5094TIP3    H216165   1.196   8.055   2.529  3.2145 -2.4653  2.0452
 5095TIP3   OH216166   1.137   1.646   8.186 -0.1458  0.3607 -0.1532
 5095TIP3    H116167   1.182   1.703   8.249  0.1010 -0.5928  0.5641
 5095TIP3    H216168   1.148   1.558   8.222  2.1836 -0.5864 -2.7562
 5096TIP3   OH216169   4.121   1.067   4.115  0.3193  0.3666  0.1569
 5096TIP3    H116170   4.134   1.048   4.208  0.6131  1.5341  0.3779
 5096TIP3    H216171   4.165   1.152   4.103  1.2915 -0.3132 -1.2964
 5097TIP3   OH216172   7.058   7.423   4.265 -0.4848  0.0696  0.0381
 5097TIP3    H116173   7.019   7.507   4.239 -0.5526  0.4465  1.2712
 5097TIP3    H216174   7.039   7.417   4.359  1.5564 -0.2010  0.4688
 5098TIP3   OH216175  10.639   7.609   9.204 -0.0882  0.0121 -0.2220
 5098TIP3    H116176  10.564   7.551   9.201 -1.0095  0.8123  3.1495
 5098TIP3    H216177  10.610   7.688   9.159 -0.6759 -0.2770 -0.3573
 5099TIP3   OH216178   4.141   7.769   7.260 -0.2392  0.2507 -0.2408
 5099TIP3    H116179   4.171   7.851   7.222  1.9098 -0.0316  0.7036
 5099TIP3    H216180   4.066   7.794   7.315 -0.3035  1.3900 -0.8348
 5100TIP3   OH216181   6.950   8.328   5.774  0.1500 -0.1294 -0.4295
 5100TIP3    H116182   6.938   8.240   5.738  1.6123  0.1185 -1.6733
 5100TIP3    H216183   6.894   8.384   5.719  1.4116  0.0717 -1.5733
 5101TIP3   OH216184   3.358   2.749   0.337 -0.1254 -0.0457 -0.0650
 5101TIP3    H116185   3.317   2.784   0.259  0.2095  1.5892  0.4630
 5101TIP3    H216186   3.338   2.812   0.406 -0.5776 -1.5320  1.2451
 5102TIP3   OH216187   7.713   2.064   1.155 -0.2055  0.1891 -0.5145
 5102TIP3    H116188   7.661   2.120   1.097 -1.7230 -3.8299 -3.5335
 5102TIP3    H216189   7.792   2.114   1.171 -2.6451  4.4208 -0.1769
 5103TIP3   OH216190   9.111   6.670   8.297  0.2877 -0.3140  0.5797
 5103TIP3    H116191   9.033   6.664   8.243  1.6249 -3.4257 -1.2517
 5103TIP3    H216192   9.084   6.639   8.384 -0.9267  0.7030  0.5894
 5104TIP3   OH216193   5.329   5.268  10.705  0.5079  0.2044 -0.4702
 5104TIP3    H116194   5.371   5.341  10.660  0.1507  1.6376  1.3722
 5104TIP3    H216195   5.235   5.288  10.699  0.4347  0.2092  0.4836
 5105TIP3   OH216196  10.498   3.191   7.623 -0.4626  0.3599 -0.0275
 5105TIP3    H116197  10.552   3.270   7.627  1.9681 -1.0811 -1.3514
 5105TIP3    H216198  10.520   3.143   7.703  1.6536 -0.9734 -1.3009
 5106TIP3   OH216199   6.676   1.036  10.343 -0.8532  0.6869 -0.0438
 5106TIP3    H116200   6.611   0.993  10.399 -0.2361  0.9681  0.9168
 5106TIP3    H216201   6.644   1.126  10.335 -1.5161  0.3782 -1.0721
 5107TIP3   OH216202  10.812   9.797   1.153  0.6137  0.1985 -0.1102
 5107TIP3    H116203  10.766   9.785   1.070 -2.8388  1.7224  1.4055
 5107TIP3    H216204  10.884   9.856   1.132  0.4516 -0.2673 -2.1883
 5108TIP3   OH216205   5.996   6.849   9.039  0.7450 -0.2331 -0.7661
 5108TIP3    H116206   6.021   6.863   9.130 -0.2579  1.1001 -0.6663
 5108TIP3    H216207   5.959   6.933   9.011  1.8525 -0.3114 -2.6794
 5109TIP3   OH216208   7.115   6.995   3.428  0.1671  0.7340 -0.0771
 5109TIP3    H116209   7.194   7.025   3.473 -0.1489  3.9654 -1.4191
 5109TIP3    H216210   7.043   7.016   3.487  0.1569 -1.2632  0.6969
 5110TIP3   OH216211   0.259   9.166   9.415 -0.7422  0.3810  0.3314
 5110TIP3    H116212   0.284   9.078   9.389 -1.2402  0.4545 -0.4275
 5110TIP3    H216213   0.233   9.158   9.507 -0.7491 -0.2509  0.2762
 5111TIP3   OH216214   7.675   7.525   8.564 -0.3025  0.1275 -0.4615
 5111TIP3    H116215   7.716   7.578   8.632  0.8862 -0.0527 -1.0209
 5111TIP3    H216216   7.587   7.506   8.598  0.6126 -0.8294  1.5105
 5112TIP3   OH216217   1.532   8.455   1.385 -0.5908 -0.7254  0.3420
 5112TIP3    H116218   1.611   8.408   1.358  0.4149  1.4943 -0.8560
 5112TIP3    H216219   1.542   8.467   1.480  0.0080 -1.3524  0.3607
 5113TIP3   OH216220   7.945   9.514  10.144  0.3289  0.2045 -0.4049
 5113TIP3    H116221   8.040   9.518  10.142  0.3003  3.8341 -0.5249
 5113TIP3    H216222   7.919   9.500  10.053  0.6790 -1.2830 -0.3095
 5114TIP3   OH216223   5.489   7.717   8.194  0.0310  0.2475  0.4843
 5114TIP3    H116224   5.559   7.761   8.242  0.1981 -0.6770  1.1248
 5114TIP3    H216225   5.446   7.662   8.260 -0.2446 -0.4390 -0.2596
 5115TIP3   OH216226   3.810   1.426   6.417 -0.3777  0.7660  0.3854
 5115TIP3    H116227   3.781   1.514   6.395  0.0473  0.9761  0.6453
 5115TIP3    H216228   3.753   1.400   6.490 -0.8328  0.6274 -0.0158
 5116TIP3   OH216229   1.564   2.907   2.728 -0.5093 -0.0293 -0.5860
 5116TIP3    H116230   1.635   2.958   2.768 -0.0736  0.7072 -2.1923
 5116TIP3    H216231   1.605   2.823   2.706 -0.4641 -0.0441 -0.4489
 5117TIP3   OH216232   0.206   0.606  10.720 -0.0763 -0.9466  0.2249
 5117TIP3    H116233   0.129   0.566  10.760 -0.4523 -0.0015  0.4896
 5117TIP3    H216234   0.172   0.684  10.675  0.5953 -1.0305 -0.4504
 5118TIP3   OH216235   7.912   9.878   0.635 -0.2895  0.0468  0.0811
 5118TIP3    H116236   7.849   9.947   0.612 -0.7777 -0.6935 -0.8733
 5118TIP3    H216237   7.882   9.801   0.587 -0.4615 -1.1940  2.0598
 5119TIP3   OH216238   8.837   8.163   3.982  0.6098  0.1655  0.8557
 5119TIP3    H116239   8.813   8.253   4.003  0.9677  0.4402  0.1181
 5119TIP3    H216240   8.932   8.160   3.992  0.5454 -0.2646  1.3608
 5120TIP3   OH216241   4.973   1.493  10.318 -0.5534  0.0135 -0.1519
 5120TIP3    H116242   5.010   1.574  10.281  0.3769  0.0549  0.8301
 5120TIP3    H216243   5.014   1.423  10.266 -1.0453  0.1483 -0.7318
 5121TIP3   OH216244   3.141   2.842   5.732 -0.4510 -0.6375  0.0841
 5121TIP3    H116245   3.190   2.794   5.665  1.0897  1.4057 -0.3759
 5121TIP3    H216246   3.137   2.783   5.806 -0.6352 -2.2994 -1.2039
 5122TIP3   OH216247   8.421   8.237   1.655  0.0394  0.5619 -0.3124
 5122TIP3    H116248   8.346   8.213   1.709 -0.5580 -0.2590 -1.4682
 5122TIP3    H216249   8.384   8.284   1.580  0.4532 -1.2986 -1.7563
 5123TIP3   OH216250   8.820   6.184   6.480  0.6040  0.2629  0.2892
 5123TIP3    H116251   8.870   6.213   6.557 -0.8925  1.7625  0.7546
 5123TIP3    H216252   8.800   6.265   6.432 -1.2712 -0.2557  0.0943
 5124TIP3   OH216253  10.484   8.596   7.425 -0.0459  0.1696  0.3712
 5124TIP3    H116254  10.475   8.593   7.329  0.4661 -0.9053  0.3432
 5124TIP3    H216255  10.394   8.593   7.457 -0.1930 -1.8095 -0.0599
 5125TIP3   OH216256   8.384   7.179  10.673  0.0237 -0.0940 -0.5552
 5125TIP3    H116257   8.358   7.212  10.587  0.2406 -0.6200 -0.8282
 5125TIP3    H216258   8.412   7.089  10.657  2.7108  0.6108 -0.4192
 5126TIP3   OH216259   1.493  10.715   1.284  0.0997  0.9736  0.6661
 5126TIP3    H116260   1.578  10.696   1.244  0.1643  2.2346  0.1462
 5126TIP3    H216261   1.483  10.649   1.353  0.6589 -0.3295 -0.4599
 5127TIP3   OH216262   5.190   2.921  10.273  0.3161 -0.4424  0.3572
 5127TIP3    H116263   5.214   3.012  10.293 -0.1226 -0.3670  0.5438
 5127TIP3    H216264   5.099   2.913  10.301  0.2907 -0.8858  0.1605
 5128TIP3   OH216265   9.051   2.541  10.274 -0.9889  0.2342 -0.1016
 5128TIP3    H116266   9.031   2.633  10.291 -0.4368  0.2818  0.3082
 5128TIP3    H216267   9.134   2.543  10.226 -1.0267 -0.0445 -0.1794
 5129TIP3   OH216268  10.900   6.011   9.732 -0.0970  0.1055  0.5431
 5129TIP3    H116269  10.910   6.071   9.806 -1.0624  0.7068  0.2190
 5129TIP3    H216270  10.977   5.956   9.734  0.0693  0.3667  1.7703
 5130TIP3   OH216271   6.060   0.701   6.187 -0.2959 -0.3151  0.2439
 5130TIP3    H116272   6.077   0.620   6.138 -1.1504 -0.7403  0.6279
 5130TIP3    H216273   6.107   0.688   6.270 -1.7770 -1.1670  0.9969
 5131TIP3   OH216274   2.945   3.530   4.482  0.7811  0.2586 -0.3071
 5131TIP3    H116275   2.981   3.563   4.564 -1.1634 -1.7024  1.4538
 5131TIP3    H216276   2.994   3.450   4.465 -1.5135 -1.6031  1.2936
 5132TIP3   OH216277   7.883   6.669   9.723  0.4364  0.1111  0.1091
 5132TIP3    H116278   7.877   6.759   9.691  0.3348 -0.3457 -1.2284
 5132TIP3    H216279   7.801   6.655   9.771  1.3691  1.3782  2.1693
 5133TIP3   OH216280  10.613   1.580   0.334 -0.7819 -0.0833  0.0011
 5133TIP3    H116281  10.536   1.636   0.324 -1.3875 -1.1136 -1.6095
 5133TIP3    H216282  10.682   1.624   0.286  0.2598  1.7386  2.8779
 5134TIP3   OH216283   9.551   4.159   8.518  0.7040  0.6576  0.0600
 5134TIP3    H116284   9.506   4.241   8.496  0.3384  0.8414  1.3850
 5134TIP3    H216285   9.636   4.186   8.551  0.0042  0.6651  2.0131
 5135TIP3   OH216286   6.479   4.027   3.601 -0.7253  0.6568 -0.1038
 5135TIP3    H116287   6.463   3.972   3.677  1.6864  0.1217  0.1006
 5135TIP3    H216288   6.538   4.096   3.632  0.2974  0.4360 -1.4422
 5136TIP3   OH216289   9.108   4.338   8.060  0.0560 -0.1656  0.7417
 5136TIP3    H116290   9.195   4.323   8.023  0.0065 -1.2515  1.0095
 5136TIP3    H216291   9.074   4.415   8.014  1.1304  0.2332  0.6032
 5137TIP3   OH216292   4.025   8.043   2.567 -0.1317 -0.4775 -0.8135
 5137TIP3    H116293   4.011   8.127   2.523 -0.7420 -0.7400 -1.1295
 5137TIP3    H216294   3.950   8.034   2.626  0.6203 -0.1806  0.2259
 5138TIP3   OH216295   8.043   7.724   0.652  0.3858 -0.0097 -0.0813
 5138TIP3    H116296   8.037   7.819   0.665 -0.7925 -0.0669 -0.0884
 5138TIP3    H216297   7.961   7.690   0.688  1.0565 -1.0950  0.4612
 5139TIP3   OH216298   7.434  10.084   1.070  0.2368 -0.1145 -0.1313
 5139TIP3    H116299   7.465  10.160   1.121  2.5938 -1.4755  0.6200
 5139TIP3    H216300   7.401  10.121   0.989 -0.7516  1.8783  1.0932
 5140TIP3   OH216301   9.472   6.856   2.082  0.4690 -0.0936  0.1793
 5140TIP3    H116302   9.388   6.841   2.038 -0.5575 -1.1883  2.3767
 5140TIP3    H216303   9.489   6.774   2.129  3.0606 -0.0847 -0.5923
 5141TIP3   OH216304   8.226   0.632   0.359 -0.2235  0.2975 -0.4101
 5141TIP3    H116305   8.246   0.547   0.319  0.2214  0.4283 -0.4670
 5141TIP3    H216306   8.190   0.609   0.445  1.5320  0.0821  0.3031
 5142TIP3   OH216307   7.458   1.746   8.567 -0.6201 -0.3898 -0.1486
 5142TIP3    H116308   7.514   1.710   8.636 -0.7418 -1.6837 -0.7063
 5142TIP3    H216309   7.464   1.841   8.579  1.3129 -0.5035  0.0960
 5143TIP3   OH216310   2.794  10.824   7.176 -0.5973 -0.2366  0.2617
 5143TIP3    H116311   2.865  10.800   7.117  0.4387  2.4994  0.2660
 5143TIP3    H216312   2.721  10.848   7.119 -0.8395 -1.0445  0.2167
 5144TIP3   OH216313   9.102   7.135   7.331 -0.3430  0.3353  0.2452
 5144TIP3    H116314   9.168   7.074   7.362  0.6163  1.4461  0.4624
 5144TIP3    H216315   9.138   7.221   7.351 -0.8900  1.0322 -1.5467
 5145TIP3   OH216316   2.204   8.702   1.066 -0.0585  0.0420  0.1316
 5145TIP3    H116317   2.207   8.714   1.160 -0.9912  2.1079 -0.0553
 5145TIP3    H216318   2.111   8.690   1.046  0.2534 -1.7781 -0.4152
 5146TIP3   OH216319   5.427   7.104  10.553 -0.0618 -0.1042  0.4578
 5146TIP3    H116320   5.428   7.155  10.634 -1.4644  0.1902  0.3145
 5146TIP3    H216321   5.423   7.169  10.483  1.2562 -0.3564  0.1301
 5147TIP3   OH216322   7.318   2.415   1.859  0.3273 -0.4088  0.4191
 5147TIP3    H116323   7.371   2.429   1.937  0.2402  0.1815  0.3708
 5147TIP3    H216324   7.244   2.475   1.868 -0.5804 -1.5333  0.6968
 5148TIP3   OH216325   1.493   8.144   4.453  0.0282 -0.0382 -0.1358
 5148TIP3    H116326   1.567   8.170   4.397  1.4092 -0.1214  1.5722
 5148TIP3    H216327   1.425   8.208   4.433  0.8162  0.5073 -1.2025
 5149TIP3   OH216328   7.787   6.907   3.107  0.1525  0.3344  0.1952
 5149TIP3    H116329   7.716   6.875   3.050  0.4845 -0.0978  0.0189
 5149TIP3    H216330   7.742   6.946   3.181 -0.3054 -2.3981  1.5022
 5150TIP3   OH216331   1.295   6.369   7.028 -0.9110  0.0141  0.0666
 5150TIP3    H116332   1.231   6.422   6.982  0.2359  1.9468  0.6000
 5150TIP3    H216333   1.310   6.416   7.110  0.9007 -0.5742  0.1094
 5151TIP3   OH216334   3.132   2.391   0.484  0.0417 -0.0218 -0.0793
 5151TIP3    H116335   3.117   2.324   0.418  0.6362  0.5017 -0.7575
 5151TIP3    H216336   3.220   2.425   0.466 -0.4016  1.2347 -0.0182
 5152TIP3   OH216337  10.691   0.194   7.286 -0.6575 -0.1871 -0.0797
 5152TIP3    H116338  10.607   0.203   7.241 -1.2156 -2.8795  0.2893
 5152TIP3    H216339  10.730   0.115   7.249  1.0863  0.2470  0.7498
 5153TIP3   OH216340   4.689   5.673   8.349  0.0893  0.5335  0.3801
 5153TIP3    H116341   4.712   5.615   8.276 -0.2154  1.4943 -0.5162
 5153TIP3    H216342   4.602   5.643   8.377 -0.6943  1.3692 -0.9965
 5154TIP3   OH216343   5.165   0.563   0.805 -0.1418 -0.1533 -0.5885
 5154TIP3    H116344   5.173   0.650   0.766  0.1866 -0.7587 -1.9342
 5154TIP3    H216345   5.255   0.536   0.821 -0.2923  0.5733  1.8085
 5155TIP3   OH216346   9.463   3.646   2.711  0.0301  0.0245  0.3673
 5155TIP3    H116347   9.537   3.705   2.727  0.1416  0.9080 -2.7808
 5155TIP3    H216348   9.503   3.559   2.705  0.2525 -0.0406  2.1819
 5156TIP3   OH216349   1.107   3.827   2.871 -0.1176  0.0157 -0.2326
 5156TIP3    H116350   1.021   3.800   2.903 -0.2850 -0.2805 -0.9197
 5156TIP3    H216351   1.093   3.846   2.778  0.3611  0.8498 -0.1465
 5157TIP3   OH216352   2.803   9.279   5.907  0.2470  0.3406  0.6199
 5157TIP3    H116353   2.798   9.222   5.830  0.2334 -0.0967  0.9415
 5157TIP3    H216354   2.843   9.360   5.875 -1.5360  0.9165 -0.2827
 5158TIP3   OH216355   1.817   0.714  10.483 -0.2041 -0.0272 -0.3652
 5158TIP3    H116356   1.905   0.738  10.454  0.2433  0.6066  1.3873
 5158TIP3    H216357   1.802   0.768  10.560 -2.2080 -0.0264 -0.7180
 5159TIP3   OH216358   8.051   1.822   5.483  0.1253  0.3101 -0.0474
 5159TIP3    H116359   8.011   1.865   5.558 -0.8736 -0.6324 -0.0037
 5159TIP3    H216360   7.976   1.787   5.434  0.7083  1.3848 -1.7936
 5160TIP3   OH216361   4.473   6.236   4.217 -0.2064 -0.6131  0.1962
 5160TIP3    H116362   4.438   6.263   4.301  1.2111 -1.2935  1.0344
 5160TIP3    H216363   4.555   6.191   4.238  0.0959 -0.9385 -1.5290
 5161TIP3   OH216364   0.783   4.298   7.508 -0.1711 -0.1194  0.2163
 5161TIP3    H116365   0.869   4.322   7.543  0.7745 -1.3443 -1.1745
 5161TIP3    H216366   0.748   4.379   7.471  0.3397  0.4001  0.8515
 5162TIP3   OH216367  10.854   4.127   9.967  0.0852  1.0117  0.1176
 5162TIP3    H116368  10.870   4.211   9.924 -1.4219  1.4512  0.3409
 5162TIP3    H216369  10.910   4.128  10.044  0.9282  1.3000 -0.4774
 5163TIP3   OH216370   3.940   3.740  10.460 -0.9022  0.1869 -0.0980
 5163TIP3    H116371   3.859   3.787  10.482 -1.2227 -0.7556  0.8140
 5163TIP3    H216372   3.957   3.685  10.536  0.4921  0.2035 -0.3706
 5164TIP3   OH216373   7.055  10.510   6.737  0.6293  0.0245 -0.1661
 5164TIP3    H116374   7.140  10.548   6.714  1.3941 -0.9602  0.8882
 5164TIP3    H216375   7.037  10.448   6.666 -0.0988  1.5045 -1.3190
 5165TIP3   OH216376   6.035   0.727   1.055 -0.2136 -0.3569  0.2041
 5165TIP3    H116377   6.125   0.707   1.031 -0.2804 -0.8922  0.3898
 5165TIP3    H216378   5.985   0.717   0.974  0.0445  0.9545 -0.1359
 5166TIP3   OH216379   9.303   8.434   0.382 -0.0236  0.3265  0.8971
 5166TIP3    H116380   9.227   8.406   0.433 -0.2614 -0.2004  0.2765
 5166TIP3    H216381   9.266   8.482   0.307  0.3359  1.3637  1.3705
 5167TIP3   OH216382   6.067   6.642   5.862  0.1993 -0.1383  0.1611
 5167TIP3    H116383   5.979   6.604   5.859  0.1996 -0.1081 -0.3450
 5167TIP3    H216384   6.108   6.612   5.781  0.2111  0.9246 -0.2333
 5168TIP3   OH216385   4.265  10.843   0.072  1.0245  0.6233  0.6280
 5168TIP3    H116386   4.342  10.874   0.025  1.0994  0.0355  0.3516
 5168TIP3    H216387   4.300  10.812   0.156  1.0454  0.6450  0.6275
 5169TIP3   OH216388   6.447   8.859   7.998  0.4078 -0.2201  0.0299
 5169TIP3    H116389   6.477   8.885   8.085 -0.0989  1.1647 -0.1834
 5169TIP3    H216390   6.462   8.936   7.943  2.9196 -1.7867 -1.7041
 5170TIP3   OH216391   7.057   9.190   6.938  0.1639 -0.0305  0.0354
 5170TIP3    H116392   7.082   9.103   6.970 -0.6805 -0.0586  0.6438
 5170TIP3    H216393   7.100   9.250   6.999  1.3803  0.0207 -0.8344
 5171TIP3   OH216394   0.148   7.911   3.003 -0.2319 -0.5173 -0.2966
 5171TIP3    H116395   0.237   7.917   3.038 -0.3996 -1.3931  0.3203
 5171TIP3    H216396   0.160   7.898   2.909  0.2560  0.6828 -0.4139
 5172TIP3   OH216397   3.466   4.865   5.799 -0.0388  0.3790 -0.2959
 5172TIP3    H116398   3.505   4.947   5.770  0.1653 -0.1478 -1.5744
 5172TIP3    H216399   3.500   4.852   5.888  1.4941  0.6945 -0.8152
 5173TIP3   OH216400   6.348  10.175   6.939 -0.6649 -0.1937 -0.0193
 5173TIP3    H116401   6.355  10.224   6.858 -0.9007  0.8518  0.5808
 5173TIP3    H216402   6.436  10.139   6.953 -0.3002  0.6575 -0.1025
 5174TIP3   OH216403   4.443   1.459  10.152 -0.1502  0.3151  0.0144
 5174TIP3    H116404   4.355   1.458  10.189 -0.0924 -1.0103  0.1636
 5174TIP3    H216405   4.430   1.469  10.058 -0.6431 -2.2880 -0.2779
 5175TIP3   OH216406   6.487   0.823   7.446 -0.3713 -0.3326 -0.0419
 5175TIP3    H116407   6.538   0.764   7.502  0.7283 -0.1058 -0.7619
 5175TIP3    H216408   6.475   0.902   7.498 -2.1643 -1.2825  1.0671
 5176TIP3   OH216409   8.966   6.459   5.524  0.1373  0.1887 -0.1246
 5176TIP3    H116410   8.999   6.407   5.597  0.2240 -0.3088 -0.5116
 5176TIP3    H216411   8.920   6.532   5.565  0.3587  0.0240  0.4243
 5177TIP3   OH216412   1.746   4.813   5.685 -0.0321 -0.0765 -0.4065
 5177TIP3    H116413   1.652   4.803   5.696  0.0491 -3.0539 -1.4503
 5177TIP3    H216414   1.779   4.832   5.773 -1.5978  1.4809 -0.1160
 5178TIP3   OH216415   5.887   1.761   2.315  0.3249  0.2219 -0.5462
 5178TIP3    H116416   5.795   1.783   2.325  0.2009 -0.9376  1.3476
 5178TIP3    H216417   5.891   1.709   2.235 -0.5689  0.6687 -0.8960
 5179TIP3   OH216418   1.197   0.002   7.388  0.2993 -0.1113  0.5112
 5179TIP3    H116419   1.256  -0.069   7.365 -0.6706 -0.6178 -0.4955
 5179TIP3    H216420   1.212   0.069   7.321 -0.6890 -0.5051 -0.1282
 5180TIP3   OH216421   3.778   5.561   6.032  0.4293  0.6573  0.3520
 5180TIP3    H116422   3.808   5.594   6.117  1.8658  0.5222 -0.0719
 5180TIP3    H216423   3.717   5.491   6.054  2.5216 -0.9936  1.3661
 5181TIP3   OH216424   6.245   1.867   6.598 -0.2649 -0.3882  0.1371
 5181TIP3    H116425   6.309   1.812   6.642  2.3063  3.0769  1.1194
 5181TIP3    H216426   6.287   1.893   6.516 -1.5816 -0.1698 -0.5071
 5182TIP3   OH216427   8.069   3.727   2.011 -0.1410  0.0976  0.7656
 5182TIP3    H116428   8.058   3.714   1.917  1.0286 -0.2286  0.6638
 5182TIP3    H216429   8.140   3.791   2.019  0.4323 -0.6043  1.4325
 5183TIP3   OH216430   4.243   6.374   7.360 -0.0081  0.0736 -0.3745
 5183TIP3    H116431   4.296   6.327   7.426  0.0637  2.3932  1.3374
 5183TIP3    H216432   4.181   6.426   7.411  0.2584  2.2390 -2.0947
 5184TIP3   OH216433   9.754   6.426   5.256  0.4129 -0.1573 -0.8233
 5184TIP3    H116434   9.661   6.448   5.242  0.3906 -0.7265 -1.6522
 5184TIP3    H216435   9.797   6.511   5.267  0.0295  0.2203 -2.0366
 5185TIP3   OH216436   0.609   0.485   9.174 -0.0461 -0.1725  0.4261
 5185TIP3    H116437   0.632   0.429   9.248 -0.4646 -0.2036  0.5380
 5185TIP3    H216438   0.554   0.553   9.213 -1.2716 -0.8632 -0.0476
 5186TIP3   OH216439   4.066   4.861   5.243  0.7952 -0.2978 -0.6892
 5186TIP3    H116440   4.054   4.890   5.153 -0.2327 -1.3672 -0.9164
 5186TIP3    H216441   4.032   4.772   5.244  1.0858 -0.4090  0.6878
 5187TIP3   OH216442   0.302   4.688   7.582 -0.4944  0.0458 -0.7962
 5187TIP3    H116443   0.305   4.764   7.524  0.2168 -0.9038 -2.0352
 5187TIP3    H216444   0.238   4.630   7.542  1.4110 -1.4881 -1.8096
 5188TIP3   OH216445   8.065   9.456   8.197  0.2356 -0.0393 -0.6615
 5188TIP3    H116446   8.011   9.378   8.208 -0.2837  0.7343  5.2231
 5188TIP3    H216447   8.155   9.425   8.209  0.1646 -0.0127 -0.0147
 5189TIP3   OH216448   2.980   6.821   8.713 -0.1872 -0.4704  0.1328
 5189TIP3    H116449   2.968   6.868   8.630 -2.7394  0.2123  0.8220
 5189TIP3    H216450   3.052   6.868   8.756 -1.5692  1.8962  0.0774
 5190TIP3   OH216451   2.914   9.697   4.735  0.5525 -0.4573  0.1259
 5190TIP3    H116452   2.826   9.662   4.743 -0.5854  0.9817 -3.7445
 5190TIP3    H216453   2.970   9.620   4.729 -0.8073 -1.4617 -0.0058
 5191TIP3   OH216454   7.314   5.366  10.538  0.0391  0.4558  0.0902
 5191TIP3    H116455   7.395   5.345  10.584  0.7588  1.8047 -0.4957
 5191TIP3    H216456   7.334   5.447  10.491 -1.3711  0.3242 -0.7882
 5192TIP3   OH216457   9.082   3.938   8.847 -0.1901  0.3321 -0.3236
 5192TIP3    H116458   9.060   4.011   8.789  1.9931  1.4115  0.0844
 5192TIP3    H216459   9.005   3.928   8.904 -0.3113  2.8032  0.0530
 5193TIP3   OH216460   1.550   0.165   7.751  0.0713 -0.5262 -0.1377
 5193TIP3    H116461   1.572   0.094   7.811  2.4445  0.9535  0.8940
 5193TIP3    H216462   1.464   0.195   7.779  0.9502 -0.1187  2.3821
 5194TIP3   OH216463   4.870   8.242   0.443 -0.3041  0.4228 -0.3434
 5194TIP3    H116464   4.959   8.237   0.409  0.7766  2.3447  1.8464
 5194TIP3    H216465   4.873   8.314   0.507 -3.1033 -0.3222  0.7953
 5195TIP3   OH216466   9.618   8.697   5.806 -0.2641  0.6472  0.1367
 5195TIP3    H116467   9.617   8.777   5.753  0.3868  0.7398  0.2543
 5195TIP3    H216468   9.610   8.728   5.896  1.4166  0.7038  0.3001
 5196TIP3   OH216469   4.757   1.314  10.403  0.1895  0.1367 -0.6948
 5196TIP3    H116470   4.813   1.249  10.445 -0.3902  0.5833  0.8210
 5196TIP3    H216471   4.818   1.376  10.363  0.7544 -1.5090 -2.5141
 5197TIP3   OH216472   4.453   0.714   8.006 -0.5873 -0.2733 -0.0986
 5197TIP3    H116473   4.526   0.667   8.046 -0.3016 -1.1012 -1.5200
 5197TIP3    H216474   4.384   0.648   7.995 -0.1484 -0.4607 -2.2084
 5198TIP3   OH216475   8.398   4.709   7.274 -0.1304  0.7082 -0.5857
 5198TIP3    H116476   8.487   4.696   7.243  1.2461  1.3218  2.7268
 5198TIP3    H216477   8.373   4.625   7.314  0.6791  1.6454  2.1428
 5199TIP3   OH216478   2.894   0.731   5.555 -0.4313 -0.0211  0.4571
 5199TIP3    H116479   2.824   0.791   5.529 -1.6046 -1.3721  0.3944
 5199TIP3    H216480   2.932   0.701   5.472 -1.6305 -1.3803  0.3578
 5200TIP3   OH216481   2.020  10.880   6.185 -0.0017 -0.6115  0.0216
 5200TIP3    H116482   2.042  10.972   6.170 -1.6100 -0.2297 -0.1063
 5200TIP3    H216483   2.039  10.837   6.102 -1.2291  0.0108 -0.6020
 5201TIP3   OH216484   3.264   9.353   9.921  0.2813  0.0630 -0.2317
 5201TIP3    H116485   3.254   9.328   9.829 -0.8913 -0.8928  0.1343
 5201TIP3    H216486   3.244   9.447   9.921  1.0617  0.2502 -1.0508
 5202TIP3   OH216487   5.759   7.942   0.026 -0.2147 -0.8562 -0.5333
 5202TIP3    H116488   5.667   7.963   0.011 -0.2812 -0.1450  0.7240
 5202TIP3    H216489   5.764   7.922   0.120  1.2915  1.4328 -0.0337
 5203TIP3   OH216490   2.618   8.377   3.512 -0.3531  0.3480  0.8097
 5203TIP3    H116491   2.592   8.310   3.575 -1.2468  0.2128  0.3087
 5203TIP3    H216492   2.537   8.423   3.491 -0.3656 -0.5369 -1.3284
 5204TIP3   OH216493   1.400   5.519   5.285  0.6680 -0.0550 -0.1902
 5204TIP3    H116494   1.390   5.427   5.308 -0.2697  0.6064  2.4353
 5204TIP3    H216495   1.331   5.536   5.221 -0.2425 -0.7958  0.5790
 5205TIP3   OH216496   4.874   0.094   4.724  0.4950 -0.6676  0.3782
 5205TIP3    H116497   4.862   0.119   4.632 -0.3097  3.0483  1.3286
 5205TIP3    H216498   4.958   0.132   4.748 -0.4930  0.6900  1.8068
 5206TIP3   OH216499   5.430   7.776   5.245 -0.1350  0.0427  0.6490
 5206TIP3    H116500   5.493   7.796   5.176  0.8126 -0.4971  1.3333
 5206TIP3    H216501   5.475   7.712   5.300 -0.8946  0.4450  1.7540
 5207TIP3   OH216502   5.759   7.454   1.312  0.4151 -0.3310  0.2067
 5207TIP3    H116503   5.784   7.427   1.224  0.8170  0.0624  0.1997
 5207TIP3    H216504   5.838   7.492   1.349  0.4685 -1.1734  1.0127
 5208TIP3   OH216505   8.224   5.510   5.553  0.5546 -0.3253  0.1588
 5208TIP3    H116506   8.225   5.418   5.525  0.1175 -0.0437 -0.8302
 5208TIP3    H216507   8.316   5.537   5.551  0.5070 -0.1817 -1.5341
 5209TIP3   OH216508   2.606   7.088   8.703  0.4189  0.0448  0.4960
 5209TIP3    H116509   2.697   7.096   8.674 -0.3394  0.4513 -2.0895
 5209TIP3    H216510   2.592   6.994   8.713  0.4099 -0.2796 -1.9627
 5210TIP3   OH216511   4.448   8.650   5.682  0.4814 -0.0936 -0.1148
 5210TIP3    H116512   4.487   8.581   5.629 -1.1358 -1.0992 -0.0730
 5210TIP3    H216513   4.361   8.616   5.705 -0.8273  2.4032 -1.0301
 5211TIP3   OH216514   8.737   7.622   2.271  0.1090 -0.7434  0.4370
 5211TIP3    H116515   8.794   7.694   2.297 -1.3195  1.1018 -1.2100
 5211TIP3    H216516   8.688   7.599   2.350  0.8638 -0.1772  1.0696
 5212TIP3   OH216517   1.985   5.402   7.087 -0.4662 -0.2159 -0.1337
 5212TIP3    H116518   2.006   5.328   7.031 -0.1026  0.8002 -1.3941
 5212TIP3    H216519   1.914   5.448   7.042 -0.8482  0.0891  0.7385
 5213TIP3   OH216520  10.379   6.136   4.515 -0.5592 -0.2417  0.0601
 5213TIP3    H116521  10.384   6.085   4.596 -3.2664 -0.9988 -0.1533
 5213TIP3    H216522  10.470   6.145   4.487  0.3986 -0.6457  2.7375
 5214TIP3   OH216523   3.135   3.653  10.051 -0.3744 -0.0418 -0.0411
 5214TIP3    H116524   3.184   3.578  10.018  0.4419  0.4496  0.0395
 5214TIP3    H216525   3.202   3.716  10.077 -1.0627  1.0797 -0.9274
 5215TIP3   OH216526  10.170   5.978   7.104 -0.1168 -0.2102 -0.3991
 5215TIP3    H116527  10.243   5.997   7.046  0.1748 -0.9553 -0.2899
 5215TIP3    H216528  10.092   5.995   7.051  0.0808  1.8327 -0.1254
 5216TIP3   OH216529  10.813   7.991   2.100 -0.5318  0.0819  0.2211
 5216TIP3    H116530  10.878   8.018   2.036  2.0673 -1.5704  1.9789
 5216TIP3    H216531  10.744   8.057   2.093  1.1043  1.7153 -2.0264
 5217TIP3   OH216532   2.652   6.372   6.953  0.0630  0.2828 -0.0076
 5217TIP3    H116533   2.620   6.438   7.014 -1.8921 -0.5716 -0.0240
 5217TIP3    H216534   2.614   6.397   6.869 -0.6559 -0.7894 -0.0232
 5218TIP3   OH216535   7.667   2.938   1.744  0.0586  0.5642  0.3799
 5218TIP3    H116536   7.703   2.934   1.655 -1.3320  1.9195 -0.3045
 5218TIP3    H216537   7.660   3.032   1.762  0.6588  0.3021  2.0920
 5219TIP3   OH216538   4.316   5.958   1.644  0.3503 -0.2309 -0.4249
 5219TIP3    H116539   4.243   5.912   1.686 -1.4678  0.8850 -2.1823
 5219TIP3    H216540   4.348   5.897   1.579  0.7111 -0.5687  0.0677
 5220TIP3   OH216541   2.855   8.018   9.570  0.3333  0.1955 -0.4082
 5220TIP3    H116542   2.854   8.113   9.567  0.9500  0.2104 -0.3353
 5220TIP3    H216543   2.770   7.994   9.607  0.6138  0.7685  0.6821
 5221TIP3   OH216544   9.244  10.181  10.788  0.2422 -0.1390 -0.0463
 5221TIP3    H116545   9.258  10.133  10.706 -1.2147 -0.7675  0.0422
 5221TIP3    H216546   9.171  10.240  10.768  0.6473  0.5411  0.4658
 5222TIP3   OH216547   3.020   3.589   5.466 -0.3123  0.0912  0.2687
 5222TIP3    H116548   3.096   3.555   5.514  0.8902  1.1913 -0.7816
 5222TIP3    H216549   2.945   3.563   5.519  0.8630  0.0852  2.0195
 5223TIP3   OH216550   5.293   6.211   1.947 -0.1149  0.3359 -0.2172
 5223TIP3    H116551   5.321   6.155   1.875 -0.9529  0.0544 -0.3466
 5223TIP3    H216552   5.197   6.214   1.938 -0.1670  0.8693  0.4617
 5224TIP3   OH216553   2.094   4.573   5.017 -0.0239 -0.2906  0.0089
 5224TIP3    H116554   2.151   4.508   5.058  0.4492  0.1488  0.0618
 5224TIP3    H216555   2.070   4.534   4.933  0.4091 -0.4539 -0.0397
 5225TIP3   OH216556   8.127  10.440   9.697 -0.2020 -0.0997 -0.2548
 5225TIP3    H116557   8.048  10.394   9.670  0.2017 -0.9719  0.0281
 5225TIP3    H216558   8.180  10.444   9.617 -0.0305 -0.5680 -0.1690
 5226TIP3   OH216559   7.227   1.617   6.635  0.0808  0.4151 -0.3705
 5226TIP3    H116560   7.168   1.693   6.627 -0.5154  0.0409  0.3041
 5226TIP3    H216561   7.311   1.654   6.662 -0.3951  0.7824  0.6472
 5227TIP3   OH216562   7.320   8.048   1.393 -0.3800  0.1552  0.2916
 5227TIP3    H116563   7.296   7.969   1.343 -0.4181  0.3963 -0.0764
 5227TIP3    H216564   7.268   8.042   1.473 -0.5675 -0.0729  0.1574
 5228TIP3   OH216565   9.193   1.760  10.361  0.2572 -0.1240 -0.2426
 5228TIP3    H116566   9.115   1.774  10.308 -0.1364  0.3251  0.4460
 5228TIP3    H216567   9.249   1.836  10.343  0.1517 -0.0046 -0.0715
 5229TIP3   OH216568   1.139   1.035   0.788  0.0539  0.0967  0.4045
 5229TIP3    H116569   1.082   1.015   0.714 -0.6753  1.8492  0.4263
 5229TIP3    H216570   1.128   0.962   0.848 -3.2926  0.9611  1.0235
 5230TIP3   OH216571   0.080   5.253   0.588  0.5591 -0.1140 -0.2553
 5230TIP3    H116572  -0.007   5.290   0.579  0.1418 -0.9995 -0.0018
 5230TIP3    H216573   0.074   5.195   0.664  1.2604 -0.4762 -0.4639
 5231TIP3   OH216574   6.695   9.924   8.476 -0.1622 -0.6548  0.3838
 5231TIP3    H116575   6.769   9.912   8.535 -0.0138 -0.2362  0.2840
 5231TIP3    H216576   6.626   9.960   8.531  0.4341  1.1245  0.0266
 5232TIP3   OH216577   5.097   1.247   9.281 -0.7033 -0.2180  0.0029
 5232TIP3    H116578   5.149   1.168   9.266 -0.2593 -0.0070  0.4258
 5232TIP3    H216579   5.011   1.213   9.308 -1.0422 -0.5775 -1.4014
 5233TIP3   OH216580   1.340   1.146   2.122 -0.2856 -0.1586 -1.4919
 5233TIP3    H116581   1.376   1.186   2.201  1.8789  1.1691 -3.0198
 5233TIP3    H216582   1.328   1.054   2.145  1.3786 -0.0512  0.0439
 5234TIP3   OH216583   3.945   5.896   7.286 -0.0666  0.8271 -0.6065
 5234TIP3    H116584   3.871   5.941   7.326 -0.2402  0.1589 -0.1673
 5234TIP3    H216585   3.988   5.963   7.232 -1.1713  1.1456 -1.1144
 5235TIP3   OH216586   6.129   5.760   2.448 -0.3856 -0.4242  0.5233
 5235TIP3    H116587   6.181   5.705   2.507 -0.2006 -0.2135  0.5579
 5235TIP3    H216588   6.044   5.768   2.491 -0.5336 -0.9855  0.3393
 5236TIP3   OH216589   4.077   5.708   1.262 -1.1594  0.2477 -0.3757
 5236TIP3    H116590   4.140   5.674   1.198 -1.8578 -0.9322 -0.4765
 5236TIP3    H216591   4.105   5.669   1.345 -1.4935  0.0696 -0.3452
 5237TIP3   OH216592   2.438   4.152   3.423  0.3851 -0.2124  0.3944
 5237TIP3    H116593   2.518   4.203   3.408 -0.5041  1.3016  0.6212
 5237TIP3    H216594   2.370   4.199   3.374 -0.5176 -1.0488  0.8104
 5238TIP3   OH216595   9.050   6.290   2.138  0.2355 -0.2568  0.3007
 5238TIP3    H116596   8.986   6.257   2.201 -1.3745 -1.4463 -1.8314
 5238TIP3    H216597   9.074   6.213   2.086  1.5711  0.6682 -0.5290
 5239TIP3   OH216598   4.289   5.849   0.366  0.6894  0.0022  0.1394
 5239TIP3    H116599   4.331   5.769   0.336  0.8388  0.5477 -1.1926
 5239TIP3    H216600   4.351   5.887   0.428 -0.0797 -1.6725  2.0669
 5240TIP3   OH216601   9.976   0.565   6.515  0.0013  0.0898 -0.4530
 5240TIP3    H116602  10.038   0.619   6.466 -1.3648  1.7990 -0.3697
 5240TIP3    H216603   9.931   0.513   6.449  0.5554 -0.1727 -0.6364
 5241TIP3   OH216604   4.921   1.244   3.487  0.5325 -0.2621 -0.1413
 5241TIP3    H116605   4.946   1.299   3.560 -0.1680 -1.4004  1.0014
 5241TIP3    H216606   4.969   1.162   3.500 -0.7084 -1.0218 -0.1008
 5242TIP3   OH216607   7.054   4.800  10.362  0.0933 -0.4530 -0.8061
 5242TIP3    H116608   7.139   4.784  10.321  1.3527  1.3904  0.8988
 5242TIP3    H216609   7.075   4.845  10.444 -2.4296 -1.7072  0.6584
 5243TIP3   OH216610   7.932   8.816  10.312 -0.5623 -0.0613 -0.1269
 5243TIP3    H116611   7.995   8.826  10.241 -0.8640 -0.6306 -0.4864
 5243TIP3    H216612   7.867   8.755  10.277  0.3666 -1.9804  1.3569
 5244TIP3   OH216613  10.514   0.718   7.842  0.0347  0.4187 -0.1157
 5244TIP3    H116614  10.548   0.630   7.836 -0.2993  0.2779  0.0183
 5244TIP3    H216615  10.580   0.767   7.890  0.9123  0.6029 -1.4472
 5245TIP3   OH216616   1.486   9.428   1.721 -0.3104  0.4731  0.2063
 5245TIP3    H116617   1.562   9.440   1.665 -2.0545 -0.4294 -2.5611
 5245TIP3    H216618   1.516   9.370   1.791  1.4047 -0.2634 -1.0842
 5246TIP3   OH216619   3.324   7.973   2.900 -0.3562  0.3534 -0.4242
 5246TIP3    H116620   3.328   7.958   2.806 -0.6811  1.0210 -0.5520
 5246TIP3    H216621   3.354   7.891   2.939 -1.0612 -0.2286 -1.0887
 5247TIP3   OH216622   5.036   0.324   0.718 -0.2319 -0.2107 -0.0915
 5247TIP3    H116623   4.952   0.364   0.739  0.0477 -0.9684  2.9025
 5247TIP3    H216624   5.101   0.388   0.749  0.2375 -0.8847  0.3439
 5248TIP3   OH216625   6.609   6.047   6.711 -0.2109  0.5516 -0.4216
 5248TIP3    H116626   6.549   6.114   6.744 -1.2088  0.4472 -1.9403
 5248TIP3    H216627   6.560   6.002   6.643  1.4153  0.0892 -1.3358
 5249TIP3   OH216628   1.044   2.053   8.792 -0.4649 -0.4843 -0.0646
 5249TIP3    H116629   1.112   2.086   8.850 -0.6535 -0.2713  0.0354
 5249TIP3    H216630   0.981   2.011   8.851 -0.7306 -0.1401 -0.0996
 5250TIP3   OH216631  10.578  10.647   5.102 -0.0604  0.0737  0.1540
 5250TIP3    H116632  10.576  10.570   5.160 -0.5921 -0.0663 -0.0481
 5250TIP3    H216633  10.665  10.644   5.063 -0.0050 -0.3151  0.2979
 5251TIP3   OH216634   1.971   0.834   8.096  0.2860  0.0173 -0.7008
 5251TIP3    H116635   2.030   0.812   8.168 -0.9223 -1.8880 -0.1908
 5251TIP3    H216636   1.884   0.816   8.131 -0.2673 -4.5068 -3.5160
 5252TIP3   OH216637   1.541   4.168   5.302 -0.3805 -0.1534  0.1003
 5252TIP3    H116638   1.621   4.119   5.280 -1.2043 -1.1992 -0.6796
 5252TIP3    H216639   1.572   4.256   5.324  0.9231 -0.3585 -0.8093
 5253TIP3   OH216640   8.765   1.738   6.982 -0.2512  0.5952 -0.3542
 5253TIP3    H116641   8.725   1.815   7.023 -0.8610  0.7390 -1.1957
 5253TIP3    H216642   8.732   1.665   7.034  0.7321  0.9224  0.7626
 5254TIP3   OH216643   9.656   2.762   6.939  0.0090  0.2961 -0.6843
 5254TIP3    H116644   9.684   2.756   7.031  1.1934 -1.1014 -1.0991
 5254TIP3    H216645   9.609   2.680   6.923 -1.7064  1.2649 -0.8882
 5255TIP3   OH216646   5.575   2.461  10.648  0.0780  0.1150  0.4853
 5255TIP3    H116647   5.621   2.476  10.565 -0.3254  0.3749  0.3078
 5255TIP3    H216648   5.548   2.548  10.677  2.5979  0.4230  2.2920
 5256TIP3   OH216649   5.076  10.077   0.327  0.2731 -0.2242  0.8160
 5256TIP3    H116650   5.146  10.091   0.262 -0.4300 -0.2232  0.0408
 5256TIP3    H216651   5.017  10.015   0.285 -0.6857  0.4940  1.0745
 5257TIP3   OH216652   9.177   2.985   2.275  0.6046  0.1485  0.0829
 5257TIP3    H116653   9.252   2.953   2.223  1.2388  1.3780  0.2062
 5257TIP3    H216654   9.148   3.064   2.229 -1.3167 -0.8688 -0.5460
 5258TIP3   OH216655   0.464   6.145   9.318 -0.2436  0.0367  0.5062
 5258TIP3    H116656   0.439   6.198   9.393  2.7353 -1.2576  2.6025
 5258TIP3    H216657   0.451   6.054   9.346  1.3781 -0.4932 -0.2896
 5259TIP3   OH216658   7.342   1.679   4.876  0.0084 -0.0901  0.0459
 5259TIP3    H116659   7.342   1.638   4.962 -1.1923 -0.3418 -0.0478
 5259TIP3    H216660   7.326   1.772   4.894 -2.9869 -0.4780  0.0490
 5260TIP3   OH216661   6.706   1.749   1.178 -0.2997  0.3485 -0.4132
 5260TIP3    H116662   6.781   1.699   1.210 -0.1946  0.3637 -0.6326
 5260TIP3    H216663   6.631   1.690   1.190 -0.5999  1.0678  1.6980
 5261TIP3   OH216664   9.340   0.377   0.546 -0.7570 -0.1208 -0.4156
 5261TIP3    H116665   9.374   0.432   0.618 -0.8245  0.8260 -1.0897
 5261TIP3    H216666   9.394   0.401   0.471 -1.6909  0.0281 -1.0515
 5262TIP3   OH216667   7.522   2.308   4.712  0.1600  0.0230  0.3591
 5262TIP3    H116668   7.574   2.346   4.640  0.8771 -0.4624  0.6124
 5262TIP3    H216669   7.557   2.349   4.791 -0.3885  0.2875  0.4699
 5263TIP3   OH216670   9.027  10.217   8.004  0.4200 -0.1594 -0.0362
 5263TIP3    H116671   8.956  10.238   8.065 -0.0615 -0.0633 -0.6168
 5263TIP3    H216672   9.096  10.279   8.026  1.3519 -1.8557  2.2110
 5264TIP3   OH216673   0.489   8.888   8.867  0.0385  0.4644 -0.0320
 5264TIP3    H116674   0.446   8.933   8.940  2.0162  0.1729  1.3936
 5264TIP3    H216675   0.468   8.796   8.879  0.3461  0.4190  0.1735
 5265TIP3   OH216676   8.417   2.555   0.743  0.2991  0.1194 -1.0405
 5265TIP3    H116677   8.450   2.531   0.656 -0.1688 -1.0543 -0.9161
 5265TIP3    H216678   8.340   2.499   0.755 -0.6335  1.4546 -0.5540
 5266TIP3   OH216679   9.734   2.421  10.283 -0.2028  0.1753 -0.2455
 5266TIP3    H116680   9.752   2.359  10.353  0.0823  1.0993  0.5169
 5266TIP3    H216681   9.641   2.442  10.292  0.0500  1.0114  0.4549
 5267TIP3   OH216682   3.618   5.801   3.485 -0.9400 -0.4302 -0.1478
 5267TIP3    H116683   3.694   5.764   3.529 -0.6101  1.2108  0.7432
 5267TIP3    H216684   3.558   5.825   3.555 -0.8621  1.2552 -0.5979
 5268TIP3   OH216685   9.114   9.529   0.997  0.0661  0.1156 -0.1577
 5268TIP3    H116686   9.176   9.539   0.925  1.8952 -0.7590  1.2340
 5268TIP3    H216687   9.088   9.437   0.995 -1.2410  0.4649 -0.7165
 5269TIP3   OH216688   3.713   2.231   9.328  0.6769  0.7132 -0.3355
 5269TIP3    H116689   3.732   2.157   9.271  1.3350  1.1126 -0.6473
 5269TIP3    H216690   3.742   2.308   9.279 -0.9785  1.3078 -0.4829
 5270TIP3   OH216691   5.523   8.156   3.493  0.1891 -0.0324 -0.2049
 5270TIP3    H116692   5.428   8.167   3.485  0.3587  2.4401  0.3781
 5270TIP3    H216693   5.534   8.090   3.561 -1.1337  0.5436  0.6020
 5271TIP3   OH216694   5.625   1.868   5.817  0.6591  0.2312 -0.1352
 5271TIP3    H116695   5.638   1.803   5.747  0.1855 -0.8852  0.7927
 5271TIP3    H216696   5.711   1.908   5.827  0.4631  1.2941 -2.1876
 5272TIP3   OH216697   9.132  10.817   6.346 -0.4985 -0.0090  0.3844
 5272TIP3    H116698   9.227  10.812   6.349 -0.4899 -0.2057 -0.0790
 5272TIP3    H216699   9.102  10.735   6.384 -0.5312  0.9344  2.5536
 5273TIP3   OH216700   5.721   0.932   3.069 -0.9872  0.5251  0.3982
 5273TIP3    H116701   5.779   1.006   3.050  0.8373 -0.9673 -0.1572
 5273TIP3    H216702   5.699   0.943   3.161  1.4883  0.3430  1.0831
 5274TIP3   OH216703   0.462   7.039   5.324  0.2272  0.4264  0.0081
 5274TIP3    H116704   0.411   7.055   5.244  0.8589  3.3087  0.1047
 5274TIP3    H216705   0.542   6.996   5.292 -0.0585  0.4387 -0.7546
 5275TIP3   OH216706   8.183   4.959   2.999  0.1841  0.1875 -0.2866
 5275TIP3    H116707   8.272   4.931   2.975  0.5630 -0.2296  1.4835
 5275TIP3    H216708   8.195   5.046   3.036 -0.4345  0.9378 -1.7340
 5276TIP3   OH216709   4.975  10.102   1.543  0.7833  0.0007 -0.4224
 5276TIP3    H116710   5.058  10.073   1.582  0.6836 -0.6295 -0.6587
 5276TIP3    H216711   4.927  10.141   1.616  0.9326 -0.4256 -0.0865
 5277TIP3   OH216712   0.335   9.059   6.793  0.1278 -0.1293 -0.6771
 5277TIP3    H116713   0.416   9.108   6.799 -0.8703  1.4827  0.4941
 5277TIP3    H216714   0.280   9.109   6.733 -0.9463  0.3317  0.6191
 5278TIP3   OH216715   2.326   8.532   4.217 -0.9383 -0.3030 -0.4242
 5278TIP3    H116716   2.278   8.596   4.269  0.4369 -0.7108  1.4892
 5278TIP3    H216717   2.309   8.448   4.261  2.8305 -0.2552  1.6088
 5279TIP3   OH216718   4.084   9.646   3.636 -0.9892 -0.2769 -0.5585
 5279TIP3    H116719   4.014   9.596   3.592 -0.6217 -1.5948  0.3114
 5279TIP3    H216720   4.159   9.637   3.578 -1.2865  0.3807 -1.0516
 5280TIP3   OH216721   1.154   7.073   6.678  0.1963 -0.3534  0.0629
 5280TIP3    H116722   1.062   7.090   6.656 -0.6912 -0.1369  3.4169
 5280TIP3    H216723   1.151   7.000   6.740  2.3615 -0.6679 -0.1216
 5281TIP3   OH216724   3.900   5.439   9.350  0.0987 -0.0422 -0.0295
 5281TIP3    H116725   3.833   5.506   9.364 -0.1348 -0.5877  1.5860
 5281TIP3    H216726   3.914   5.439   9.255 -1.4535  0.7798 -0.2867
 5282TIP3   OH216727   6.715   1.889   1.872  0.1203 -0.9006  0.2918
 5282TIP3    H116728   6.783   1.827   1.900  0.6270  0.6756  3.0296
 5282TIP3    H216729   6.637   1.836   1.858  1.4854 -2.5760 -1.4538
 5283TIP3   OH216730   0.480   1.692   0.073 -0.4708 -0.2425 -0.0293
 5283TIP3    H116731   0.558   1.641   0.057  1.8242  2.3032  2.0001
 5283TIP3    H216732   0.476   1.755   0.001 -2.3949 -2.0875 -1.6678
 5284TIP3   OH216733   2.239   5.974   4.344  0.4196 -0.6408 -0.3153
 5284TIP3    H116734   2.153   5.942   4.369 -0.1454 -0.5951 -2.0376
 5284TIP3    H216735   2.263   6.037   4.412 -1.8646  0.9479 -0.8818
 5285TIP3   OH216736   6.446  10.172   8.327 -0.1907 -0.1645  0.0294
 5285TIP3    H116737   6.536  10.145   8.312  0.0707 -0.2994  1.6873
 5285TIP3    H216738   6.441  10.260   8.290  0.9733  0.3244  0.9592
 5286TIP3   OH216739   6.590   9.347  10.755  0.1182 -0.0901  0.7833
 5286TIP3    H116740   6.611   9.335  10.848 -1.1401 -1.8064  0.9010
 5286TIP3    H216741   6.504   9.307  10.745 -0.1158  0.7742 -0.9846
 5287TIP3   OH216742   9.970   8.802   0.769  0.4550 -0.7508  0.4472
 5287TIP3    H116743   9.982   8.894   0.746 -0.2457 -0.5613  0.7984
 5287TIP3    H216744  10.041   8.784   0.831  0.4824 -0.3972  0.5232
 5288TIP3   OH216745   7.423   9.152   2.828  0.3755  0.9192  0.1238
 5288TIP3    H116746   7.441   9.209   2.753 -0.2735  1.0185  0.0330
 5288TIP3    H216747   7.331   9.129   2.818  0.5764  0.0174  0.2792
 5289TIP3   OH216748   6.410   3.353   1.128  0.5438  0.0521 -0.5092
 5289TIP3    H116749   6.485   3.401   1.095  0.6293 -0.4502 -1.0585
 5289TIP3    H216750   6.334   3.399   1.093  0.5605  0.9082  0.5178
 5290TIP3   OH216751   2.226   4.598   7.065  0.3359 -0.0019 -0.2442
 5290TIP3    H116752   2.206   4.691   7.077 -1.2188 -0.4508  1.0770
 5290TIP3    H216753   2.235   4.564   7.154 -0.0500 -1.2918 -0.6770
 5291TIP3   OH216754   2.347   4.677   9.992 -1.0680 -0.1805  0.3450
 5291TIP3    H116755   2.344   4.752  10.052 -2.7192  0.6393 -0.7145
 5291TIP3    H216756   2.406   4.614  10.036  0.6514  1.8318  1.0952
 5292TIP3   OH216757   2.081   0.521   0.457  0.6519  0.2509  0.1925
 5292TIP3    H116758   2.096   0.427   0.463  1.0425  0.2779 -0.3318
 5292TIP3    H216759   2.159   0.560   0.497  0.2034  0.3535  0.9981
 5293TIP3   OH216760   0.608   3.109   7.739  0.1304  0.2315  0.4740
 5293TIP3    H116761   0.662   3.100   7.661  1.5710  2.6034  1.0887
 5293TIP3    H216762   0.669   3.140   7.807 -1.2020 -1.0833  2.3618
 5294TIP3   OH216763  10.789   4.677   5.880  0.2022 -0.1653  0.5009
 5294TIP3    H116764  10.766   4.594   5.923 -0.7767 -0.6789 -0.9594
 5294TIP3    H216765  10.825   4.651   5.796  0.5772  0.8832  0.3238
 5295TIP3   OH216766   7.887   5.641   7.022  1.0125 -0.7701 -0.3213
 5295TIP3    H116767   7.800   5.637   6.982  0.7011  0.2935  0.2172
 5295TIP3    H216768   7.934   5.706   6.970  0.8147  0.1462  0.6218
 5296TIP3   OH216769   6.921   2.744   0.532 -0.3635  0.1669  0.1001
 5296TIP3    H116770   6.884   2.660   0.507  0.2325  0.4186 -1.7460
 5296TIP3    H216771   6.850   2.807   0.520 -0.6190  0.0361  0.8639
 5297TIP3   OH216772   3.835   3.227  10.598  0.1103 -0.0782 -0.2025
 5297TIP3    H116773   3.747   3.202  10.625  0.2654 -0.3903  0.0140
 5297TIP3    H216774   3.872   3.149  10.558 -0.1712  0.4178 -1.4934
 5298TIP3   OH216775   9.610   1.196   4.810 -0.4392 -0.7150  0.1316
 5298TIP3    H116776   9.529   1.182   4.861 -0.6807 -2.1772 -0.5857
 5298TIP3    H216777   9.580   1.238   4.730 -0.5129 -1.2604 -0.1360
 5299TIP3   OH216778   6.018  10.405  10.502 -1.0706 -0.2164  0.3002
 5299TIP3    H116779   5.967  10.487  10.500  0.6352  0.8799 -0.3155
 5299TIP3    H216780   6.063  10.408  10.586 -0.3671 -0.1010 -0.0762
 5300TIP3   OH216781   1.125   2.404   5.850  0.1797 -0.0405  0.1969
 5300TIP3    H116782   1.068   2.365   5.917  0.7711  0.2560  0.8790
 5300TIP3    H216783   1.085   2.377   5.767 -0.6875 -0.2295  0.6616
 5301TIP3   OH216784   2.011   5.101   1.018 -0.2458 -0.0528 -0.9159
 5301TIP3    H116785   2.088   5.056   0.984  1.2836  1.7004 -0.0050
 5301TIP3    H216786   1.999   5.066   1.106 -0.5485 -0.3657 -1.0774
 5302TIP3   OH216787   0.217   3.147   5.335 -0.2158 -0.0146 -0.4332
 5302TIP3    H116788   0.294   3.103   5.372 -1.3951 -0.6773  1.3178
 5302TIP3    H216789   0.196   3.094   5.257  1.2580  0.3748 -1.1486
 5303TIP3   OH216790   4.210   4.406   0.509  0.0969 -0.2357 -0.4068
 5303TIP3    H116791   4.257   4.489   0.515  0.2860 -0.4308  1.5577
 5303TIP3    H216792   4.234   4.359   0.589 -2.4433 -0.8795  0.0608
 5304TIP3   OH216793   5.872   6.395   3.264  0.5302  0.2693 -0.2531
 5304TIP3    H116794   5.872   6.428   3.354 -0.2065 -0.0844 -0.1142
 5304TIP3    H216795   5.790   6.428   3.227  1.3146  1.3105 -1.1442
 5305TIP3   OH216796   6.582   3.666   0.540 -0.4069 -0.1507  0.5715
 5305TIP3    H116797   6.573   3.749   0.586 -1.2781 -0.3219  0.7400
 5305TIP3    H216798   6.589   3.690   0.448  0.9652  0.1750  0.7353
 5306TIP3   OH216799   7.350   2.929   0.010  0.0613 -0.2667  0.1445
 5306TIP3    H116800   7.305   3.014   0.012  1.8157  0.6972  1.5149
 5306TIP3    H216801   7.405   2.932  -0.068 -0.0346 -0.2296  0.0782
 5307TIP3   OH216802  10.905   3.964   8.510 -0.0689 -0.3351  0.2359
 5307TIP3    H116803  10.882   4.057   8.515  0.3103 -0.1614 -0.9444
 5307TIP3    H216804  10.886   3.930   8.597  2.3058  1.4267  1.5909
 5308TIP3   OH216805   8.492   1.716  10.108 -0.2063  0.3848 -0.1378
 5308TIP3    H116806   8.559   1.782  10.126 -1.2729  1.9227 -1.5009
 5308TIP3    H216807   8.510   1.687  10.018 -1.0719  0.4722 -0.3507
 5309TIP3   OH216808   3.594   0.228   0.889  0.1883  0.1066  0.5103
 5309TIP3    H116809   3.591   0.279   0.808  0.7774  0.7706  0.8953
 5309TIP3    H216810   3.517   0.258   0.938 -1.1137 -1.4729 -0.4620
 5310TIP3   OH216811   4.342   7.336   0.164  0.6855 -0.3377  0.3496
 5310TIP3    H116812   4.284   7.379   0.101  1.2338  1.0514  0.7512
 5310TIP3    H216813   4.301   7.354   0.249  0.4139 -1.4563  0.4665
 5311TIP3   OH216814   5.718   4.370   3.726  0.0485 -0.2227 -0.0889
 5311TIP3    H116815   5.740   4.281   3.756 -0.6790 -0.1452  0.7010
 5311TIP3    H216816   5.628   4.363   3.693 -0.5633  0.5252  1.3541
 5312TIP3   OH216817  10.380   3.813   0.173 -0.7657 -0.0544 -0.2716
 5312TIP3    H116818  10.433   3.773   0.104  0.7609  0.5248  0.5208
 5312TIP3    H216819  10.293   3.774   0.163 -0.4011 -0.4608 -2.0969
 5313TIP3   OH216820   1.558  10.279   6.840 -0.0113 -0.1215  0.4104
 5313TIP3    H116821   1.573  10.190   6.810  0.8424  0.6229 -1.4999
 5313TIP3    H216822   1.565  10.273   6.936 -1.2303 -2.2884  0.4330
 5314TIP3   OH216823   4.797  10.156   3.183 -0.2269  0.0437  0.5661
 5314TIP3    H116824   4.718  10.103   3.192  0.1451 -1.6182 -3.5003
 5314TIP3    H216825   4.865  10.106   3.227 -0.9794  0.3663  2.1550
 5315TIP3   OH216826   2.989   1.250   7.159  0.3254 -0.4519  0.1887
 5315TIP3    H116827   3.083   1.240   7.139  0.1811  1.4403 -1.7488
 5315TIP3    H216828   2.947   1.177   7.115  0.6240  0.4623 -1.6954
 5316TIP3   OH216829   1.366   4.433   4.163  0.2160 -0.2271 -0.4104
 5316TIP3    H116830   1.405   4.378   4.095 -0.4939 -2.7025  1.0433
 5316TIP3    H216831   1.408   4.403   4.244 -0.3167  1.3187  0.4708
 5317TIP3   OH216832   7.442   5.315   7.762  0.1624  0.5267  0.3866
 5317TIP3    H116833   7.522   5.366   7.746  0.9399 -1.1920 -1.7563
 5317TIP3    H216834   7.457   5.274   7.847 -0.3002  3.3685  1.9631
 5318TIP3   OH216835   0.244   3.195   1.323 -0.2375 -0.4253  0.4339
 5318TIP3    H116836   0.208   3.207   1.235 -0.3730 -0.9439  0.4170
 5318TIP3    H216837   0.321   3.139   1.310  1.6440  2.0084  0.2324
 5319TIP3   OH216838   6.059   3.511   1.359 -0.3787 -0.3234  0.1252
 5319TIP3    H116839   5.983   3.519   1.301 -0.7591  1.0993  0.7770
 5319TIP3    H216840   6.116   3.447   1.315 -1.8683 -1.3196 -0.4485
 5320TIP3   OH216841   1.881   2.052   4.969  0.1739 -0.1140 -0.2051
 5320TIP3    H116842   1.812   2.012   4.917  1.2174  0.5403 -2.1805
 5320TIP3    H216843   1.944   1.981   4.983 -0.1675 -0.3225  0.2832
 5321TIP3   OH216844   6.829   1.105  10.748  0.3692 -0.3739 -0.2267
 5321TIP3    H116845   6.744   1.079  10.783  0.4201  0.3099  0.4351
 5321TIP3    H216846   6.893   1.068  10.808  0.5214 -0.4875 -0.4567
 5322TIP3   OH216847   2.265   7.743  10.095  0.2187 -0.4095  0.2264
 5322TIP3    H116848   2.256   7.648  10.095 -0.4070 -0.3847 -1.2457
 5322TIP3    H216849   2.216   7.771  10.017 -0.2376  1.1770  1.0435
 5323TIP3   OH216850   5.837   7.605   8.673 -0.2652  0.0464  0.2089
 5323TIP3    H116851   5.808   7.684   8.629  0.6126 -0.2422 -0.9484
 5323TIP3    H216852   5.858   7.544   8.602 -0.6139 -1.1087  1.0675
 5324TIP3   OH216853   8.782  10.621   2.426 -0.1099 -1.0502 -0.2196
 5324TIP3    H116854   8.778  10.664   2.340  1.4656 -1.0740 -0.3322
 5324TIP3    H216855   8.875  10.599   2.437  0.0019  0.3199  2.1844
 5325TIP3   OH216856   3.660   4.239  10.327 -0.3405 -0.1489  0.4036
 5325TIP3    H116857   3.741   4.205  10.365 -0.1661 -0.2080 -0.0097
 5325TIP3    H216858   3.606   4.161  10.312 -0.3225 -0.1488  0.3368
 5326TIP3   OH216859   2.907  10.893   9.665  0.1766  0.6926 -0.0059
 5326TIP3    H116860   2.935  10.834   9.594  1.8390  0.0191  1.1550
 5326TIP3    H216861   2.813  10.904   9.650  0.3636  0.1256 -1.9785
 5327TIP3   OH216862   9.124   8.619  10.248 -1.1566  0.7064  0.3942
 5327TIP3    H116863   9.169   8.696  10.214  3.2048 -0.3713  2.9061
 5327TIP3    H216864   9.122   8.557  10.175  0.8602  1.1098 -0.0437
 5328TIP3   OH216865   2.924   6.932   0.704 -0.3703 -0.2214 -0.2312
 5328TIP3    H116866   2.852   6.891   0.657 -0.7280  0.5111 -0.3397
 5328TIP3    H216867   2.909   6.910   0.796 -0.2657 -0.7664 -0.3448
 5329TIP3   OH216868   2.611   8.587   7.903 -0.2518  0.3803 -0.5730
 5329TIP3    H116869   2.692   8.545   7.872 -0.7289  0.0444 -1.3959
 5329TIP3    H216870   2.631   8.680   7.903 -0.0613  0.3474 -1.3918
 5330TIP3   OH216871   8.967   4.433   0.615 -0.0901 -0.0032  0.7643
 5330TIP3    H116872   8.961   4.523   0.583 -0.5398  0.1529  1.2691
 5330TIP3    H216873   9.058   4.423   0.643  0.6016 -0.4601 -1.4388
 5331TIP3   OH216874   3.150   9.250   3.714 -0.4097 -0.2814  0.2198
 5331TIP3    H116875   3.122   9.190   3.646 -0.7853 -0.5826  0.6305
 5331TIP3    H216876   3.121   9.336   3.684  1.9117  0.0207 -1.3392
 5332TIP3   OH216877   8.244   6.482  10.199  0.2263  0.5960 -0.1318
 5332TIP3    H116878   8.180   6.535  10.247  1.6542 -0.3614  3.0665
 5332TIP3    H216879   8.197   6.401  10.178 -0.1415  0.6134  0.5910
 5333TIP3   OH216880   6.821   0.819   4.591 -0.0837 -0.0391  0.4478
 5333TIP3    H116881   6.750   0.764   4.557  0.9593 -1.6184  0.7369
 5333TIP3    H216882   6.800   0.830   4.683 -0.5887  0.5463  0.2716
 5334TIP3   OH216883   9.232   9.714   9.675  0.2557  0.0578 -0.0439
 5334TIP3    H116884   9.200   9.654   9.608  0.4530  1.3333 -1.3185
 5334TIP3    H216885   9.304   9.667   9.717  1.2016 -0.1545 -1.8330
 5335TIP3   OH216886   7.950   7.765   9.137 -0.3676  0.0803  0.5897
 5335TIP3    H116887   7.960   7.825   9.211  0.7713  0.2240  0.3399
 5335TIP3    H216888   7.968   7.678   9.174 -2.0490 -0.1515  0.9578
 5336TIP3   OH216889   6.931   2.367   8.353  0.1721 -0.2118 -0.3306
 5336TIP3    H116890   6.955   2.397   8.265  0.8348  1.2128  0.2916
 5336TIP3    H216891   6.873   2.436   8.386 -2.3732 -2.0554 -0.6251
 5337TIP3   OH216892   7.169   7.745  10.349  0.4459  0.1978  0.4321
 5337TIP3    H116893   7.075   7.739  10.332  0.4994  0.4206  0.0553
 5337TIP3    H216894   7.175   7.771  10.442  0.1076  1.2978  0.1660
 5338TIP3   OH216895   2.439   5.980   4.911 -0.3519 -0.6734  0.1166
 5338TIP3    H116896   2.524   6.008   4.879  1.0821  1.0044  4.5621
 5338TIP3    H216897   2.388   6.061   4.917 -1.2934 -1.2477  0.0243
 5339TIP3   OH216898   6.458   3.553   5.407 -0.0785 -0.3541  0.3204
 5339TIP3    H116899   6.371   3.526   5.438  0.6098 -1.7994  1.1131
 5339TIP3    H216900   6.456   3.537   5.313 -0.5774 -0.7044  0.3826
 5340TIP3   OH216901   5.014   7.197   5.082  0.3404  0.2998 -0.0217
 5340TIP3    H116902   5.007   7.120   5.026  0.3044  0.8690 -0.8217
 5340TIP3    H216903   4.930   7.202   5.126  0.1556  0.1614 -0.3510
 5341TIP3   OH216904   5.381   0.415   8.885 -0.5766  0.2396  0.0894
 5341TIP3    H116905   5.348   0.500   8.858 -0.7112  0.4760  0.9557
 5341TIP3    H216906   5.412   0.429   8.975  1.4876 -0.0818 -0.5283
 5342TIP3   OH216907   6.638   1.230   4.974  0.6511 -0.5219 -0.1281
 5342TIP3    H116908   6.600   1.305   5.019 -1.6928 -0.3913 -2.1026
 5342TIP3    H216909   6.676   1.177   5.044 -0.1202  1.1214  1.6242
 5343TIP3   OH216910   0.776   5.544   7.324  0.0445  0.0114  0.0265
 5343TIP3    H116911   0.713   5.615   7.337 -0.8851 -0.4979 -1.4024
 5343TIP3    H216912   0.826   5.569   7.246  1.4373  0.2614  0.9677
 5344TIP3   OH216913   9.773  10.221   6.634 -0.7867 -0.2904 -0.3511
 5344TIP3    H116914   9.694  10.167   6.641  0.6151 -2.7063 -1.8263
 5344TIP3    H216915   9.762  10.268   6.552 -0.5282 -0.9668 -0.7823
 5345TIP3   OH216916   2.203   5.014   0.312 -0.2452 -0.6030 -0.2506
 5345TIP3    H116917   2.111   5.031   0.335 -0.0746 -0.2480  0.1765
 5345TIP3    H216918   2.212   5.050   0.224  0.1270  1.7062  0.6484
 5346TIP3   OH216919  10.330   9.197   8.668 -0.3568 -0.1329 -0.1836
 5346TIP3    H116920  10.418   9.158   8.664 -0.2765  0.1798 -2.1684
 5346TIP3    H216921  10.300   9.177   8.757  1.8174 -0.0171  0.6398
 5347TIP3   OH216922  10.117   0.265   4.642 -0.6985  0.2763  0.0895
 5347TIP3    H116923  10.098   0.335   4.580  0.9926 -0.0575 -0.8745
 5347TIP3    H216924  10.078   0.187   4.604 -0.0561  0.1612 -0.3613
 5348TIP3   OH216925   0.857   7.915   2.315 -0.2448  0.2275  0.3516
 5348TIP3    H116926   0.872   7.846   2.250 -1.7751 -0.0444  0.2447
 5348TIP3    H216927   0.783   7.964   2.281 -0.4515  0.6836  1.4218
 5349TIP3   OH216928   8.010  10.336   1.550 -0.0199 -0.6207  0.2014
 5349TIP3    H116929   7.974  10.415   1.591  2.1422  0.3640  0.3077
 5349TIP3    H216930   8.039  10.365   1.463  0.5834 -1.3430  0.1482
 5350TIP3   OH216931   2.360   7.976  10.192  0.3454  0.5400 -0.3828
 5350TIP3    H116932   2.350   8.026  10.111  1.1135  1.4852  0.0806
 5350TIP3    H216933   2.334   7.887  10.169  1.4931  0.5743 -1.9263
 5351TIP3   OH216934   7.383   6.449   1.620  0.4494  0.2941  0.5744
 5351TIP3    H116935   7.468   6.405   1.618 -0.2151 -1.1229  1.5822
 5351TIP3    H216936   7.354   6.448   1.528  0.4605 -1.4648  0.5483
 5352TIP3   OH216937   7.230   6.952   5.953  0.0459 -0.2078  0.7359
 5352TIP3    H116938   7.266   6.903   5.879  0.2606 -0.1781  0.8183
 5352TIP3    H216939   7.173   7.018   5.914  1.9225  1.3114  0.4475
 5353TIP3   OH216940   2.902   6.838   9.336  0.3960 -0.1197 -0.0138
 5353TIP3    H116941   2.863   6.832   9.423 -1.1521 -2.0518 -0.7768
 5353TIP3    H216942   2.918   6.931   9.323  1.2151  0.1737  2.5458
 5354TIP3   OH216943   0.533   6.226   5.643 -0.1327 -0.2299  0.3520
 5354TIP3    H116944   0.487   6.258   5.721  1.3627  0.1916  1.0999
 5354TIP3    H216945   0.625   6.223   5.669  0.1763 -1.9664 -0.7917
 5355TIP3   OH216946   0.870   9.005   7.199  0.1369 -0.0240 -0.2057
 5355TIP3    H116947   0.813   8.970   7.268 -0.2957  0.6494 -0.2060
 5355TIP3    H216948   0.810   9.044   7.136  0.5220 -0.8132 -1.0813
 5356TIP3   OH216949  10.737   3.063  10.334  0.1347  0.1587  0.6198
 5356TIP3    H116950  10.653   3.047  10.292 -0.0408  0.7687  0.7269
 5356TIP3    H216951  10.775   3.135  10.285  0.9957 -0.6770  0.0187
 5357TIP3   OH216952   7.089   0.277   3.167 -0.2657  0.1960 -0.5070
 5357TIP3    H116953   7.061   0.335   3.238 -0.1273  1.2355 -1.2946
 5357TIP3    H216954   7.127   0.201   3.212 -1.1564  0.3455  0.5417
 5358TIP3   OH216955   5.729   8.855   3.448  0.0127  0.2466 -1.2039
 5358TIP3    H116956   5.771   8.779   3.488 -0.4747 -0.6166 -2.2806
 5358TIP3    H216957   5.791   8.927   3.462 -0.9460  0.5560  2.8474
 5359TIP3   OH216958   5.809   1.916   5.471  0.0977 -0.2000  0.1991
 5359TIP3    H116959   5.778   1.884   5.387  1.7433  1.8967 -1.3273
 5359TIP3    H216960   5.736   1.968   5.506 -0.4250 -0.6846 -0.1683
 5360TIP3   OH216961   7.426   1.453   2.771  0.6778 -0.3657  0.2196
 5360TIP3    H116962   7.406   1.530   2.825  0.8680  0.8062 -1.2977
 5360TIP3    H216963   7.351   1.446   2.712  0.4308 -1.6746  0.6606
 5361TIP3   OH216964   8.444   8.060   5.896 -0.2361 -0.6378  0.4127
 5361TIP3    H116965   8.368   8.095   5.851 -0.4560 -0.2857  1.0352
 5361TIP3    H216966   8.408   7.998   5.960  0.0250 -0.7354  0.4662
 5362TIP3   OH216967   6.129   4.075   9.180 -0.1094  0.5479 -0.7241
 5362TIP3    H116968   6.040   4.096   9.208  0.9567 -0.0943  3.9795
 5362TIP3    H216969   6.177   4.157   9.187 -0.2481  0.9924 -3.6576
 5363TIP3   OH216970  10.795   3.651   9.674  0.3021 -0.2221 -0.0635
 5363TIP3    H116971  10.812   3.605   9.756  0.5274 -0.3199 -0.1647
 5363TIP3    H216972  10.734   3.721   9.697 -1.1939 -1.4369 -0.1443
 5364TIP3   OH216973   9.603   7.563  10.837 -0.2639 -0.0216 -0.6810
 5364TIP3    H116974   9.548   7.568  10.759 -1.9608  1.1184  0.5261
 5364TIP3    H216975   9.690   7.588  10.807 -0.7544 -0.1642 -2.3119
 5365TIP3   OH216976   8.333   1.579  10.272  0.3084 -0.5428  0.1488
 5365TIP3    H116977   8.308   1.510  10.210 -1.7807  1.0698 -0.8839
 5365TIP3    H216978   8.370   1.648  10.217  1.6565 -0.4571  1.1039
 5366TIP3   OH216979   1.305   1.869   2.915  0.1175 -0.0215  0.6239
 5366TIP3    H116980   1.331   1.931   2.847  0.8663  0.3215  1.2124
 5366TIP3    H216981   1.367   1.884   2.986  0.1018 -1.2118  0.9070
 5367TIP3   OH216982   9.452   6.009   3.272 -0.2578  0.5396  0.0372
 5367TIP3    H116983   9.510   6.086   3.280  0.7264 -0.2820  1.1999
 5367TIP3    H216984   9.443   5.977   3.362 -0.7899 -0.6072 -0.4113
 5368TIP3   OH216985   3.492   6.720  10.110 -0.3175  0.3090 -0.0786
 5368TIP3    H116986   3.400   6.744  10.116 -0.1630  1.2983 -1.3558
 5368TIP3    H216987   3.528   6.776  10.041  1.6266  1.1300  1.4907
 5369TIP3   OH216988   5.776   0.907   0.780 -0.1291 -0.3225  0.0060
 5369TIP3    H116989   5.752   0.914   0.873 -2.4281 -1.4011 -0.4531
 5369TIP3    H216990   5.807   0.817   0.771 -1.3946 -0.7129 -0.5658
 5370TIP3   OH216991   6.577   2.247   0.040 -0.1201  0.0270 -0.3601
 5370TIP3    H116992   6.575   2.306  -0.035 -1.1261  1.1721  0.5240
 5370TIP3    H216993   6.486   2.246   0.072  0.3333 -0.2383  0.9923
 5371TIP3   OH216994   6.284   6.620   9.144  0.3859 -0.1673 -0.0244
 5371TIP3    H116995   6.305   6.709   9.117  1.4860 -0.4512 -0.1439
 5371TIP3    H216996   6.333   6.607   9.225  1.0650 -1.0056 -0.5573
 5372TIP3   OH216997   3.168   8.600   7.782  0.2186  0.8893  0.1078
 5372TIP3    H116998   3.128   8.517   7.807 -0.8132  1.0349 -0.9587
 5372TIP3    H216999   3.223   8.578   7.706  2.2614  0.6874  1.5612
 5373TIP3   OH217000   7.716   9.669   5.557  0.4460 -0.2155  0.0472
 5373TIP3    H117001   7.789   9.730   5.548 -0.0096  0.2946 -0.2771
 5373TIP3    H217002   7.753   9.584   5.534  0.7558  0.1582 -0.8951
 5374TIP3   OH217003   1.685   7.046   3.001 -0.6870 -0.0911  0.0140
 5374TIP3    H117004   1.775   7.059   2.973 -1.2675 -1.5465 -3.0377
 5374TIP3    H217005   1.642   7.130   2.983 -0.5350 -0.3140 -1.6170
 5375TIP3   OH217006  10.779   6.599   1.244  0.2023 -0.0663  0.2148
 5375TIP3    H117007  10.741   6.537   1.307  1.3601 -1.0603 -0.0459
 5375TIP3    H217008  10.757   6.562   1.158  0.7378 -0.0229  0.0580
 5376TIP3   OH217009   0.284   7.768   2.483  0.3415  0.0780  0.2063
 5376TIP3    H117010   0.242   7.814   2.411  1.2841  0.1086 -0.3365
 5376TIP3    H217011   0.340   7.703   2.442  1.6806  0.7782  0.8483
 5377TIP3   OH217012   0.333   5.777   8.176 -0.3323  0.2555  0.2155
 5377TIP3    H117013   0.303   5.817   8.094 -1.0514 -2.6992 -1.0719
 5377TIP3    H217014   0.420   5.815   8.190 -1.6010  3.5485  0.1263
 5378TIP3   OH217015   9.218   0.144   7.424 -0.0761  0.2969 -0.5612
 5378TIP3    H117016   9.266   0.061   7.416 -1.9057 -0.9438  0.5139
 5378TIP3    H217017   9.211   0.176   7.334  1.2020 -0.3737 -0.9290
 5379TIP3   OH217018   0.052   8.568   6.885 -0.2650  0.0485  0.6869
 5379TIP3    H117019   0.023   8.477   6.876  1.2503 -0.6232  2.0834
 5379TIP3    H217020   0.114   8.582   6.814 -0.7379  0.1033  0.2815
 5380TIP3   OH217021   6.292   2.302   3.397  0.1265  0.0325  0.1428
 5380TIP3    H117022   6.254   2.300   3.309 -1.8046  2.5473  0.8073
 5380TIP3    H217023   6.317   2.393   3.411  1.7979 -0.5975  1.6767
 5381TIP3   OH217024   9.546   7.541   9.313  0.7673  0.4561 -0.0881
 5381TIP3    H117025   9.546   7.558   9.219 -0.9519 -0.0693 -0.2136
 5381TIP3    H217026   9.463   7.580   9.344  1.7803  1.5437  1.3946
 5382TIP3   OH217027   3.013   6.758   7.193 -0.1856 -0.4116  0.8485
 5382TIP3    H117028   3.019   6.719   7.280  1.4508  0.0487  0.9621
 5382TIP3    H217029   3.066   6.838   7.198  1.1594 -1.1180 -0.9513
 5383TIP3   OH217030   5.777   9.057   8.754  0.1155 -0.4551  0.1428
 5383TIP3    H117031   5.835   9.130   8.734  0.4478 -0.5099  0.8924
 5383TIP3    H217032   5.832   8.992   8.796 -0.9432  0.6284  3.5043
 5384TIP3   OH217033   9.212   6.362   3.507 -0.1455 -0.5918 -0.3020
 5384TIP3    H117034   9.272   6.413   3.453  0.0779 -2.2859 -1.7341
 5384TIP3    H217035   9.127   6.370   3.463 -0.7538  0.7321  1.0011
 5385TIP3   OH217036   0.174  10.109   9.754 -0.3145  0.9429  0.7278
 5385TIP3    H117037   0.173  10.020   9.720  1.0537  0.9142  0.6800
 5385TIP3    H217038   0.159  10.099   9.848  0.7224  0.5541  0.8679
 5386TIP3   OH217039   4.807  10.675   0.818 -0.7780  0.4588 -0.4097
 5386TIP3    H117040   4.783  10.588   0.786  0.2012  0.3404 -0.8602
 5386TIP3    H217041   4.757  10.686   0.899 -0.1882 -0.9336  0.1833
 5387TIP3   OH217042  10.820   0.400   8.946 -0.4537  0.2371  0.3018
 5387TIP3    H117043  10.887   0.454   8.988 -1.0517  1.1151  0.1385
 5387TIP3    H217044  10.748   0.460   8.928 -1.6699 -0.8677  1.3038
 5388TIP3   OH217045   6.078   7.740   8.265  0.2003  0.3548  0.5089
 5388TIP3    H117046   6.017   7.712   8.197 -1.4854  1.0925  1.6579
 5388TIP3    H217047   6.102   7.658   8.309  0.0543  0.0558  0.0484
 5389TIP3   OH217048   0.454   8.355   1.987  0.7559  0.0841  0.0547
 5389TIP3    H117049   0.447   8.414   2.063 -0.4375 -0.6066  0.5248
 5389TIP3    H217050   0.442   8.267   2.025 -3.4972 -0.1367 -1.2219
 5390TIP3   OH217051   2.482   6.797   4.167 -0.3499 -0.2510 -0.1066
 5390TIP3    H117052   2.411   6.760   4.114 -1.8901  0.1053  1.6217
 5390TIP3    H217053   2.557   6.740   4.148 -1.4792 -1.5733 -0.8469
 5391TIP3   OH217054   2.520   0.373   6.499  0.8090 -0.9543 -0.0582
 5391TIP3    H117055   2.440   0.322   6.489  1.3329 -1.6468 -0.8325
 5391TIP3    H217056   2.505   0.452   6.447 -0.7961  0.7456  2.7082
 5392TIP3   OH217057   9.237   2.831   9.431  0.0502 -0.7501 -0.0431
 5392TIP3    H117058   9.299   2.836   9.504 -0.1313  1.8615  0.0471
 5392TIP3    H217059   9.290   2.803   9.356  1.2843  0.9200  0.1441
 5393TIP3   OH217060   7.089  10.374   4.608 -0.4889  0.0574  0.2066
 5393TIP3    H117061   7.075  10.280   4.599  0.9743 -0.5124  2.9297
 5393TIP3    H217062   7.184  10.385   4.597 -0.6018  1.1902  0.2455
 5394TIP3   OH217063   8.333   3.314   9.914 -0.7310 -0.3025  0.5981
 5394TIP3    H117064   8.383   3.356   9.984  0.9331 -0.4309 -0.4754
 5394TIP3    H217065   8.245   3.303   9.951 -0.7218  2.3371  1.6195
 5395TIP3   OH217066   5.057   3.841   3.968  0.1297  0.0528  0.0984
 5395TIP3    H117067   5.028   3.774   4.030  2.1990 -1.2191 -0.2358
 5395TIP3    H217068   5.070   3.920   4.021 -0.4248 -0.3482  0.8428
 5396TIP3   OH217069   2.212   8.705   5.858  0.7618 -0.0457 -0.2324
 5396TIP3    H117070   2.171   8.700   5.944 -0.9106  0.6887 -0.9341
 5396TIP3    H217071   2.260   8.624   5.849  0.7915 -0.2191  1.3133
 5397TIP3   OH217072   4.056  10.566   0.004 -0.6345 -0.0185 -0.2378
 5397TIP3    H117073   4.116  10.502  -0.033 -0.3939  0.0723 -0.0072
 5397TIP3    H217074   4.106  10.609   0.074  0.2441  2.4662 -2.2479
 5398TIP3   OH217075   7.362   9.825   6.487  0.3490  0.5909  0.7526
 5398TIP3    H117076   7.293   9.765   6.516 -0.8686  2.5614  2.1880
 5398TIP3    H217077   7.413   9.843   6.567  2.0913 -0.1990 -0.1185
 5399TIP3   OH217078   0.680   8.631   6.519  0.0452 -0.0403 -0.0056
 5399TIP3    H117079   0.615   8.570   6.554 -1.2705  1.1399 -0.3004
 5399TIP3    H217080   0.751   8.575   6.489  0.7908 -1.1812  3.5056
 5400TIP3   OH217081   3.575  10.798  10.602  0.1534  0.4606 -0.5491
 5400TIP3    H117082   3.497  10.822  10.551 -1.3369  0.6651  1.6954
 5400TIP3    H217083   3.546  10.726  10.658  1.4797  0.7187  0.5238
 5401TIP3   OH217084   3.141   0.922  10.823  0.1575  0.0073  0.1949
 5401TIP3    H117085   3.215   0.905  10.881 -0.7840 -1.3307  1.0510
 5401TIP3    H217086   3.178   0.918  10.735  1.2948  0.4287  0.6368
 5402TIP3   OH217087  10.226  10.064   3.953  0.2785  0.8079 -0.4037
 5402TIP3    H117088  10.272  10.000   4.008 -0.4700  2.0111  1.7292
 5402TIP3    H217089  10.288  10.138   3.946  0.0602  0.9790 -0.5334
 5403TIP3   OH217090   3.518  10.499   7.746 -0.6075  0.1843  0.2396
 5403TIP3    H117091   3.571  10.569   7.706 -0.0459  0.9181  2.1488
 5403TIP3    H217092   3.582  10.444   7.792 -1.0327 -1.7095 -1.2859
 5404TIP3   OH217093   6.480   1.575   4.882 -0.1036  0.4127 -0.6116
 5404TIP3    H117094   6.410   1.610   4.827 -0.4396  0.8479  0.0698
 5404TIP3    H217095   6.546   1.542   4.821  0.0133  1.8365 -1.2920
 5405TIP3   OH217096   8.903   0.714   4.433 -0.5437  0.7501  0.4278
 5405TIP3    H117097   8.989   0.747   4.408 -1.2323  2.3154  0.0442
 5405TIP3    H217098   8.856   0.703   4.350 -0.7310 -0.0938  0.6350
 5406TIP3   OH217099   3.881   5.709   2.487 -0.4039  0.6135  0.4475
 5406TIP3    H117100   3.869   5.775   2.419  0.8750 -0.2131 -0.6324
 5406TIP3    H217101   3.852   5.627   2.446  1.9497 -0.1848  0.2592
 5407TIP3   OH217102   6.867   4.054   6.591  0.1870  0.0888  0.1280
 5407TIP3    H117103   6.911   4.033   6.509  0.2986 -0.4842  0.3296
 5407TIP3    H217104   6.885   3.979   6.648  0.5235  0.6995  0.8463
 5408TIP3   OH217105   9.584   4.697   0.305  0.0027  0.2807  0.8672
 5408TIP3    H117106   9.524   4.622   0.302  1.7621 -1.1936  0.6620
 5408TIP3    H217107   9.580   4.726   0.396 -0.0500 -0.6339  1.1724
 5409TIP3   OH217108  10.415   8.981   1.772  0.1886  0.0661 -0.4335
 5409TIP3    H117109  10.343   9.044   1.764  0.0519 -0.1081 -0.5645
 5409TIP3    H217110  10.372   8.896   1.779  0.3299  0.0774  0.8541
 5410TIP3   OH217111   2.378   3.227   3.683  0.1663 -0.2721  0.3168
 5410TIP3    H117112   2.284   3.212   3.695 -0.0683  0.3048 -0.7055
 5410TIP3    H217113   2.391   3.217   3.589  1.0213  0.2799  0.3761
 5411TIP3   OH217114  10.777   6.488   5.843 -0.3544 -0.4067 -0.1095
 5411TIP3    H117115  10.814   6.529   5.921 -1.5509  1.1306 -0.3098
 5411TIP3    H217116  10.742   6.404   5.873  2.3015 -1.4734  0.2811
 5412TIP3   OH217117   6.026   7.778   4.721  0.3061  0.5372 -0.0918
 5412TIP3    H117118   6.019   7.691   4.760 -1.2361  0.7775  0.2285
 5412TIP3    H217119   6.031   7.838   4.796 -0.5495  0.8521 -0.2790
 5413TIP3   OH217120   7.691  10.173   8.004  0.0706 -0.6327  0.2498
 5413TIP3    H117121   7.746  10.250   7.995 -0.1793 -0.3299  1.2507
 5413TIP3    H217122   7.741  10.113   8.059  0.7413 -1.6677 -1.4063
 5414TIP3   OH217123   8.679   9.192   0.785  0.1732 -0.4125  0.0784
 5414TIP3    H117124   8.744   9.136   0.743  1.2180 -0.3442  1.5099
 5414TIP3    H217125   8.595   9.162   0.750  0.7916 -2.1118 -0.0565
 5415TIP3   OH217126   7.556   6.940   2.087 -0.0028  0.1617 -0.4844
 5415TIP3    H117127   7.601   7.021   2.063 -0.8311  0.5659 -0.7239
 5415TIP3    H217128   7.568   6.882   2.012 -0.1476  0.3826 -0.6791
 5416TIP3   OH217129   6.336   4.313   0.167  0.0629 -0.2161  0.2472
 5416TIP3    H117130   6.309   4.396   0.205 -0.4005  0.0439 -0.6416
 5416TIP3    H217131   6.262   4.254   0.182  0.4173 -0.5015  0.9368
 5417TIP3   OH217132   3.090   7.014   0.193 -0.0565  0.7483  0.5426
 5417TIP3    H117133   3.013   6.986   0.243 -0.8090  2.0148  0.1445
 5417TIP3    H217134   3.135   7.076   0.250 -0.2877  1.3185  0.1219
 5418TIP3   OH217135   0.265   6.309   0.005 -0.0664 -0.4516 -0.1939
 5418TIP3    H117136   0.355   6.320  -0.026  0.4486 -0.1962  1.3328
 5418TIP3    H217137   0.257   6.215   0.023 -0.4721 -0.6571 -1.3298
 5419TIP3   OH217138   4.844   3.213   2.562  0.2994  0.1144 -0.0096
 5419TIP3    H117139   4.866   3.123   2.583  0.3997  0.3187  0.8375
 5419TIP3    H217140   4.905   3.238   2.493 -0.0250 -0.5975 -0.5616
 5420TIP3   OH217141  10.789   9.587  10.045  0.2808  0.7259 -0.0989
 5420TIP3    H117142  10.873   9.622  10.072  0.9803 -0.2599 -0.9127
 5420TIP3    H217143  10.810   9.521   9.979 -1.0790 -0.0685  0.2139
 5421TIP3   OH217144   3.646   7.708   3.553 -0.0788 -0.1221  0.2144
 5421TIP3    H117145   3.677   7.700   3.463 -1.1869  3.9526 -0.6941
 5421TIP3    H217146   3.570   7.651   3.558 -0.3011 -0.0255 -1.5975
 5422TIP3   OH217147   6.839   8.604   3.226  0.3492  0.5697  0.5683
 5422TIP3    H117148   6.769   8.610   3.291  0.9891 -1.5559  1.5164
 5422TIP3    H217149   6.802   8.550   3.156 -0.3386  2.8486 -0.9454
 5423TIP3   OH217150   9.148   9.352   1.572 -0.1438 -0.1764 -0.0391
 5423TIP3    H117151   9.145   9.371   1.478 -1.0524 -0.8665 -0.1703
 5423TIP3    H217152   9.079   9.407   1.609  1.7692  1.9145  0.6117
 5424TIP3   OH217153   5.386  10.076   4.790 -0.0757 -0.0372 -0.0883
 5424TIP3    H117154   5.302  10.074   4.836 -1.0969 -0.0503 -1.8253
 5424TIP3    H217155   5.421  10.163   4.806 -0.6004  0.0903  0.3844
 5425TIP3   OH217156  10.358  10.248  10.733 -0.1401 -0.3861  0.1727
 5425TIP3    H117157  10.431  10.308  10.717 -1.0244  0.4780 -0.6939
 5425TIP3    H217158  10.400  10.170  10.770  1.1619  0.3008  0.2202
 5426TIP3   OH217159   8.195   1.376   7.675  0.0861 -0.3385  0.0873
 5426TIP3    H117160   8.130   1.306   7.676  0.8101 -1.0248  0.5886
 5426TIP3    H217161   8.259   1.349   7.609 -1.1278  1.3082 -1.8868
 5427TIP3   OH217162   7.307  10.654   0.654 -0.7291  0.0030 -0.7097
 5427TIP3    H117163   7.261  10.649   0.571 -0.4653 -1.5813 -0.8101
 5427TIP3    H217164   7.297  10.566   0.691  0.5688  0.1922  0.1463
 5428TIP3   OH217165   4.136   0.985   7.753 -0.2178 -0.3551 -0.0958
 5428TIP3    H117166   4.146   1.076   7.781 -1.3957 -0.7519  1.7776
 5428TIP3    H217167   4.097   0.991   7.665 -0.0509  0.9366 -0.0972
 5429TIP3   OH217168  10.672   7.214   4.104 -0.0930  0.5763 -0.3020
 5429TIP3    H117169  10.716   7.214   4.019 -1.4830 -0.8035 -1.0689
 5429TIP3    H217170  10.741   7.195   4.167  1.1214  2.4905 -0.9887
 5430TIP3   OH217171   4.691   4.100   6.410 -0.0708  0.1721  0.2978
 5430TIP3    H117172   4.710   4.179   6.359 -0.8599  0.5829  0.6202
 5430TIP3    H217173   4.718   4.122   6.499  2.1637 -0.8651 -0.0538
 5431TIP3   OH217174  10.554   8.812  10.142  0.3373  0.1826  0.4093
 5431TIP3    H117175  10.468   8.852  10.156  0.1070 -0.5827  1.2965
 5431TIP3    H217176  10.596   8.868  10.077 -0.4188  1.1848  0.7510
 5432TIP3   OH217177   4.601  10.159   5.722 -0.6355 -0.1249 -1.0018
 5432TIP3    H117178   4.534  10.144   5.790 -0.4659 -0.4740 -0.9068
 5432TIP3    H217179   4.556  10.210   5.655 -0.6577  0.6937 -0.3769
 5433TIP3   OH217180   4.909   6.428   6.741 -0.0199  0.4049 -0.2833
 5433TIP3    H117181   4.983   6.479   6.773 -0.4913  0.7383  0.2973
 5433TIP3    H217182   4.920   6.427   6.646  0.3105  1.0996 -0.2587
 5434TIP3   OH217183  10.077   5.968   1.848  0.2230 -0.1336 -0.3512
 5434TIP3    H117184  10.120   6.030   1.790  0.5496 -0.8979 -0.9467
 5434TIP3    H217185  10.124   5.974   1.931  0.1249  0.5501 -0.3471
 5435TIP3   OH217186   4.470   3.930   2.353 -0.3724 -0.0556  0.1047
 5435TIP3    H117187   4.530   3.856   2.349 -2.1970 -1.6157  0.2589
 5435TIP3    H217188   4.515   3.994   2.408  1.1636 -1.1182  0.1506
 5436TIP3   OH217189   7.641   4.223   9.507 -0.1141 -0.2376  0.1583
 5436TIP3    H117190   7.681   4.155   9.452  0.2817  0.1939 -0.1056
 5436TIP3    H217191   7.561   4.247   9.460  0.1835  0.0748 -0.2042
 5437TIP3   OH217192   6.254   6.427   0.372  0.4745  0.1747  0.2337
 5437TIP3    H117193   6.256   6.332   0.373 -1.3861  0.0677 -0.8628
 5437TIP3    H217194   6.223   6.452   0.459 -1.5013 -0.3954 -0.2553
 5438TIP3   OH217195  10.520   3.213  10.179  0.0226  0.4213  0.5206
 5438TIP3    H117196  10.510   3.287  10.239  0.8991 -0.0428  1.2677
 5438TIP3    H217197  10.432   3.197  10.146 -0.4155  0.9223  1.4079
 5439TIP3   OH217198   0.991   5.143  10.685 -0.0900  0.5945  0.1979
 5439TIP3    H117199   0.978   5.167  10.593 -0.1664  0.0469  0.0634
 5439TIP3    H217200   1.012   5.225  10.728 -2.1157  1.2440  0.0819
 5440TIP3   OH217201   7.443   0.611  10.886 -0.2621  0.6003 -0.3823
 5440TIP3    H117202   7.435   0.559  10.966 -2.9714  0.9922 -0.3002
 5440TIP3    H217203   7.461   0.547  10.817 -0.2331 -0.0248  0.2035
 5441TIP3   OH217204   3.567   4.812   0.810  0.3644 -0.5026  0.1599
 5441TIP3    H117205   3.613   4.729   0.814  0.5671 -0.3720  0.7359
 5441TIP3    H217206   3.576   4.848   0.899 -2.1661 -1.1897  0.7934
 5442TIP3   OH217207   3.993   7.431   6.857 -0.0057  0.2443 -0.1213
 5442TIP3    H117208   4.056   7.460   6.924 -0.7700 -2.0185  1.7230
 5442TIP3    H217209   3.907   7.454   6.893 -0.3747  2.4913 -2.2033
 5443TIP3   OH217210   9.443   6.700   9.580 -0.2414 -0.0338 -0.7389
 5443TIP3    H117211   9.379   6.717   9.649  0.1390 -1.1951 -0.0748
 5443TIP3    H217212   9.420   6.614   9.547  1.2691 -0.6891 -0.1469
 5444TIP3   OH217213   6.741   2.436   5.628  0.3080 -0.2689 -0.1643
 5444TIP3    H117214   6.825   2.475   5.602  1.6058 -2.6651  0.2029
 5444TIP3    H217215   6.732   2.359   5.572 -0.4383 -1.4388  1.5051
 5445TIP3   OH217216   3.771   2.265  10.698 -0.0374  0.2075 -0.1962
 5445TIP3    H117217   3.810   2.332  10.642  0.2138 -1.0943 -1.6586
 5445TIP3    H217218   3.677   2.271  10.681 -0.1228  0.7938  0.4130
 5446TIP3   OH217219   1.501   1.515   3.947 -0.2412  0.5181 -0.1053
 5446TIP3    H117220   1.526   1.423   3.952 -0.9186  0.3255 -0.1323
 5446TIP3    H217221   1.581   1.561   3.921  0.4458  0.1017  1.1575
 5447TIP3   OH217222   0.887   9.790   1.959  0.8702  0.0631 -0.1341
 5447TIP3    H117223   0.852   9.703   1.942  1.0776 -0.0314 -0.0851
 5447TIP3    H217224   0.912   9.788   2.052 -0.8750  0.7876  0.3818
 5448TIP3   OH217225   5.975   6.648   1.998 -0.2272 -0.4240  0.1298
 5448TIP3    H117226   6.062   6.613   2.016 -1.8832 -3.8574  2.5112
 5448TIP3    H217227   5.945   6.602   1.920 -0.3234 -0.0381 -0.0656
 5449TIP3   OH217228   6.875   8.451   4.075  0.0534 -0.5830 -0.1621
 5449TIP3    H117229   6.799   8.506   4.056  0.9115  0.3526 -0.9815
 5449TIP3    H217230   6.840   8.378   4.126 -0.9425  1.4425  2.2852
 5450TIP3   OH217231   1.216   7.375   3.134  0.0904 -0.1268  0.2883
 5450TIP3    H117232   1.305   7.339   3.135  0.7545  1.3674  1.6143
 5450TIP3    H217233   1.223   7.455   3.082 -0.9157 -0.8905 -1.0720
 5451TIP3   OH217234   9.716   1.149   4.254  0.5578  0.2214 -0.8347
 5451TIP3    H117235   9.621   1.143   4.246  0.1433  1.6989  1.7057
 5451TIP3    H217236   9.743   1.064   4.287 -0.2077  0.4183  0.3701
 5452TIP3   OH217237   2.482   7.698   9.923  0.0084  0.8014 -0.1521
 5452TIP3    H117238   2.414   7.718   9.986  1.1882 -1.7855  2.1602
 5452TIP3    H217239   2.560   7.743   9.955  0.5300 -0.2184  0.0479
 5453TIP3   OH217240   4.760   9.553   3.758 -0.3721 -0.1723 -0.0680
 5453TIP3    H117241   4.838   9.604   3.738 -0.2887 -0.4418 -0.4419
 5453TIP3    H217242   4.793   9.471   3.795 -0.5393  0.5580  1.7642
 5454TIP3   OH217243   8.597   5.414   1.060 -0.4237 -0.1196  0.5726
 5454TIP3    H117244   8.553   5.332   1.037 -1.2895  0.2726  0.8169
 5454TIP3    H217245   8.558   5.441   1.143  0.2296  0.2752  0.7640
 5455TIP3   OH217246   6.534   7.329   7.263  0.1319 -0.2110 -0.8045
 5455TIP3    H117247   6.553   7.305   7.354 -0.8870 -0.5521 -0.6749
 5455TIP3    H217248   6.566   7.419   7.256 -0.4455  0.0910  0.1215
 5456TIP3   OH217249   4.463   5.472   8.498  0.2025  0.0752  0.0486
 5456TIP3    H117250   4.509   5.492   8.580 -0.5963  0.5358  0.3923
 5456TIP3    H217251   4.389   5.532   8.497 -0.2529 -0.4862 -0.6200
 5457TIP3   OH217252   2.057   6.632   7.783  0.1703  0.4721 -0.3111
 5457TIP3    H117253   2.005   6.702   7.821  0.9563  0.5763  0.6226
 5457TIP3    H217254   2.021   6.552   7.820 -1.2233  0.2754 -1.9614
 5458TIP3   OH217255   4.973   3.762   5.367  0.2972  0.6774  0.2445
 5458TIP3    H117256   4.941   3.675   5.391  2.6329 -0.0915  0.8452
 5458TIP3    H217257   4.981   3.809   5.451 -0.4367  1.3096 -0.0251
 5459TIP3   OH217258   7.399   8.675   9.313  0.4278  0.3141  0.0162
 5459TIP3    H117259   7.335   8.644   9.249  0.4052 -0.1882  0.2784
 5459TIP3    H217260   7.436   8.595   9.350  1.2099  0.5989 -0.1355
 5460TIP3   OH217261   8.578   0.648   7.865  0.0451 -0.8273  0.0297
 5460TIP3    H117262   8.600   0.556   7.857 -1.2139 -1.0632 -1.0473
 5460TIP3    H217263   8.594   0.685   7.778 -0.9696 -0.4000  0.0006
 5461TIP3   OH217264   6.227  10.890   9.239  0.5763 -0.5922  0.0606
 5461TIP3    H117265   6.184  10.805   9.227  0.5621 -0.5465 -0.2333
 5461TIP3    H217266   6.296  10.874   9.303 -0.9012 -0.3226  1.7964
 5462TIP3   OH217267   7.325  10.511   9.232  0.4816  0.2243 -0.0855
 5462TIP3    H117268   7.251  10.451   9.227  1.2530 -0.7161 -0.5330
 5462TIP3    H217269   7.287  10.593   9.264 -0.6683 -0.3594  0.1062
 5463TIP3   OH217270   0.434   1.185   8.019 -0.0483  0.6725 -0.7552
 5463TIP3    H117271   0.509   1.125   8.018 -1.1864 -0.8377 -0.1074
 5463TIP3    H217272   0.422   1.207   8.112 -0.5758  0.6730 -0.8215
 5464TIP3   OH217273   9.700   1.146  10.773  0.0962  0.3368  0.4234
 5464TIP3    H117274   9.668   1.220  10.722 -0.5398  0.0723  0.4294
 5464TIP3    H217275   9.653   1.151  10.856 -1.4316 -1.1516 -0.2740
 5465TIP3   OH217276   7.270   3.267   7.003 -0.4219 -0.4081 -0.4291
 5465TIP3    H117277   7.213   3.344   6.996  0.8044  0.4082 -2.1320
 5465TIP3    H217278   7.359   3.303   6.999  0.1900 -1.7947  0.4037
 5466TIP3   OH217279   9.552   5.993   7.801 -0.6657  0.3397 -0.0049
 5466TIP3    H117280   9.496   5.924   7.765  3.6673 -3.1225 -1.0662
 5466TIP3    H217281   9.574   6.047   7.725 -0.3169 -0.1130 -0.2332
 5467TIP3   OH217282   7.527   8.684  10.732 -0.0720 -0.4601 -0.6085
 5467TIP3    H117283   7.583   8.654  10.661 -0.4935 -0.7910 -0.8051
 5467TIP3    H217284   7.458   8.734  10.688  1.1533  1.7068 -0.2271
 5468TIP3   OH217285   6.969   3.204   9.268  0.1397  0.9106  0.2203
 5468TIP3    H117286   6.933   3.292   9.268 -1.1788  0.4225 -1.2343
 5468TIP3    H217287   7.064   3.217   9.275  0.1510  2.5636 -1.9337
 5469TIP3   OH217288   6.350   8.307  10.398  0.6172 -0.8209  0.1370
 5469TIP3    H117289   6.301   8.305  10.316  0.2023 -1.7669  0.3947
 5469TIP3    H217290   6.375   8.399  10.409  1.1319 -0.7725 -1.3008
 5470TIP3   OH217291   5.356   6.056   0.471 -0.2205  0.0738 -0.2575
 5470TIP3    H117292   5.358   6.022   0.382 -0.1406  0.2533 -0.3252
 5470TIP3    H217293   5.359   6.152   0.461  0.1205  0.0900 -0.0545
 5471TIP3   OH217294   2.576   1.279   2.210 -0.0903  0.0323 -0.0635
 5471TIP3    H117295   2.606   1.196   2.248 -0.2865  1.0040  2.3985
 5471TIP3    H217296   2.541   1.328   2.285 -0.8852  1.9463 -1.6189
 5472TIP3   OH217297   4.601   7.748   6.916  0.3441 -0.2123  0.2037
 5472TIP3    H117298   4.616   7.832   6.959 -0.2090  1.0994 -2.0416
 5472TIP3    H217299   4.652   7.752   6.835 -0.1589 -1.8169 -0.2427
 5473TIP3   OH217300   4.464   0.303   6.896 -0.1291  0.3122  0.5452
 5473TIP3    H117301   4.465   0.285   6.803 -1.4760 -1.2710  0.8116
 5473TIP3    H217302   4.552   0.339   6.914  0.8646 -1.2332 -0.9539
 5474TIP3   OH217303   6.311   2.493   5.115 -0.3456 -0.1504 -0.0410
 5474TIP3    H117304   6.348   2.416   5.070 -2.0442 -1.3067  0.4561
 5474TIP3    H217305   6.367   2.503   5.193 -0.9540 -1.8503  0.6814
 5475TIP3   OH217306   7.514   1.757   4.166 -0.1423  0.2435 -0.4620
 5475TIP3    H117307   7.530   1.663   4.160  1.2136  0.5153 -1.9312
 5475TIP3    H217308   7.521   1.777   4.259  1.1557 -0.8608 -0.2953
 5476TIP3   OH217309   5.431   9.201   7.554  0.8066 -0.3107 -0.4025
 5476TIP3    H117310   5.400   9.200   7.645  0.3957  0.1390 -0.5331
 5476TIP3    H217311   5.495   9.130   7.550 -0.3573 -1.4078 -0.1764
 5477TIP3   OH217312   2.148  10.783   8.808  0.2021 -0.3594  0.1053
 5477TIP3    H117313   2.239  10.812   8.810  0.1824 -0.0314 -1.9214
 5477TIP3    H217314   2.097  10.862   8.828  0.3217 -0.3594  0.4187
 5478TIP3   OH217315  10.099   9.930   0.384 -0.1092  0.3438 -0.1869
 5478TIP3    H117316  10.160   9.954   0.314  0.8551 -0.9271  0.1608
 5478TIP3    H217317  10.071   9.841   0.361 -1.1225  0.5723  0.1435
 5479TIP3   OH217318   3.265   6.185   8.776 -0.8633  0.5352  0.4111
 5479TIP3    H117319   3.266   6.258   8.837 -2.1311  0.4544  0.5635
 5479TIP3    H217320   3.230   6.112   8.827 -2.0786  0.5000 -0.4192
 5480TIP3   OH217321  10.586   6.285   9.278  0.9599 -0.3948 -0.1027
 5480TIP3    H117322  10.597   6.380   9.270  0.5008 -0.4415 -1.8362
 5480TIP3    H217323  10.657   6.249   9.226 -0.4203 -0.9082 -1.7371
 5481TIP3   OH217324   1.666   0.513   9.423 -0.3241  0.0570  0.6734
 5481TIP3    H117325   1.663   0.475   9.335 -1.0390  0.0096  0.7138
 5481TIP3    H217326   1.757   0.502   9.450 -0.1792 -0.2675  0.0885
 5482TIP3   OH217327   3.512   2.269   2.053 -0.1175 -0.4719  0.3918
 5482TIP3    H117328   3.423   2.300   2.038  0.1564  0.3904  0.5005
 5482TIP3    H217329   3.530   2.210   1.980 -0.9390 -1.0286  0.6206
 5483TIP3   OH217330   2.326   6.422   2.752  0.1123 -0.1846 -0.3814
 5483TIP3    H117331   2.310   6.470   2.833 -1.2885 -0.4200 -0.4876
 5483TIP3    H217332   2.414   6.387   2.761 -0.7230 -1.9313  1.9509
 5484TIP3   OH217333   1.412   3.314   6.947  0.6350  0.0896  0.0885
 5484TIP3    H117334   1.404   3.404   6.913  2.1841  0.7461  1.3456
 5484TIP3    H217335   1.477   3.273   6.890 -0.8808 -0.6470 -1.1906
 5485TIP3   OH217336   7.813   5.935  10.648  0.1487  0.0713  0.4682
 5485TIP3    H117337   7.877   5.956  10.716  2.5725  0.4383 -1.7298
 5485TIP3    H217338   7.864   5.937  10.567 -2.5997 -0.1613 -1.3980
 5486TIP3   OH217339   0.105   5.014  10.663  0.4504  0.1237  0.4160
 5486TIP3    H117340   0.193   5.008  10.626 -0.3379 -0.7290 -1.4580
 5486TIP3    H217341   0.056   5.067  10.600 -0.8308 -0.9194  0.4906
 5487TIP3   OH217342   3.255   4.336  10.228 -0.2465 -0.2142  0.2518
 5487TIP3    H117343   3.303   4.260  10.260  0.5089  0.7055  1.3943
 5487TIP3    H217344   3.207   4.368  10.305  1.0682  1.6379  0.3868
 5488TIP3   OH217345   4.812   4.682   9.010  0.0512 -0.3817  0.5680
 5488TIP3    H117346   4.726   4.703   8.974 -0.2051  0.2260  1.5032
 5488TIP3    H217347   4.853   4.627   8.944 -2.0324 -2.8731  1.1820
 5489TIP3   OH217348   7.103   4.185   1.789 -0.1829  0.0577  0.0843
 5489TIP3    H117349   7.036   4.248   1.761 -0.1544  0.5402  1.0361
 5489TIP3    H217350   7.113   4.125   1.715 -0.1688  1.2121 -0.8811
 5490TIP3   OH217351   2.441   7.388   5.433 -0.3068  0.2750 -0.1489
 5490TIP3    H117352   2.513   7.377   5.494 -2.0159 -1.2636  1.7259
 5490TIP3    H217353   2.390   7.461   5.469 -1.1730 -0.4583  0.1456
 5491TIP3   OH217354   7.938   9.223   1.973  0.3829  0.2575  0.5322
 5491TIP3    H117355   7.910   9.135   1.999  0.8468  0.4898  1.9062
 5491TIP3    H217356   7.893   9.240   1.890  0.1626 -1.2014  0.3400
 5492TIP3   OH217357   9.217   5.972   4.361 -0.0539 -0.5739 -0.1396
 5492TIP3    H117358   9.292   6.024   4.333  0.0949 -1.5474 -1.6815
 5492TIP3    H217359   9.231   5.959   4.455  0.5289  1.0924  0.0379
 5493TIP3   OH217360   9.007   6.677   0.309 -1.0402  0.6713 -0.6666
 5493TIP3    H117361   9.060   6.636   0.377  0.8687  3.0753 -0.5866
 5493TIP3    H217362   8.921   6.687   0.349 -0.6756 -0.2813  0.4252
 5494TIP3   OH217363   6.100   1.629   4.262  0.4591 -0.2643 -0.5287
 5494TIP3    H117364   6.123   1.594   4.176  0.2212  0.6209 -0.9590
 5494TIP3    H217365   6.162   1.700   4.277  0.4732 -0.3818  0.0190
 5495TIP3   OH217366   4.555  10.338   5.506  0.2146  0.2882 -0.2065
 5495TIP3    H117367   4.645  10.371   5.510  0.1516  0.3847  1.2159
 5495TIP3    H217368   4.501  10.417   5.506  0.1219  0.2254 -0.6625
 5496TIP3   OH217369  10.412   6.559   1.343 -0.0168 -0.4706  0.2277
 5496TIP3    H117370  10.406   6.619   1.417 -4.1787 -0.8926  0.4461
 5496TIP3    H217371  10.438   6.475   1.382  0.0410 -0.1793  0.8212
 5497TIP3   OH217372   9.575   7.903   4.719  0.3437  0.2761 -0.1604
 5497TIP3    H117373   9.663   7.909   4.684  0.2790 -0.6519 -0.5169
 5497TIP3    H217374   9.524   7.863   4.649 -0.0070 -0.6731  0.6178
 5498TIP3   OH217375  10.139   0.543   1.746 -0.0837  0.0706 -0.4275
 5498TIP3    H117376  10.219   0.574   1.788  0.1837  0.1574 -0.9950
 5498TIP3    H217377  10.069   0.596   1.786  0.2218  0.5016 -0.4555
 5499TIP3   OH217378   7.320   9.223   5.475 -0.1963  0.5985  0.0118
 5499TIP3    H117379   7.370   9.211   5.556  0.9114  1.2454 -0.5493
 5499TIP3    H217380   7.317   9.136   5.436 -0.9203  0.2352  0.8207
 5500TIP3   OH217381   5.502   7.778   6.327 -0.6667 -0.2691  0.3949
 5500TIP3    H117382   5.497   7.815   6.415  0.1431 -1.2971  0.9006
 5500TIP3    H217383   5.554   7.841   6.278 -1.2692  0.3981  0.5889
 5501TIP3   OH217384   0.994   6.795   9.287  0.2910 -0.0193  0.9382
 5501TIP3    H117385   1.088   6.802   9.277  0.3406 -0.3538  1.1443
 5501TIP3    H217386   0.980   6.786   9.381  0.0189  0.5061  0.9574
 5502TIP3   OH217387   1.111   8.024   0.709 -0.9912 -0.4067  0.1376
 5502TIP3    H117388   1.192   7.975   0.690 -0.2514  0.5428  0.7622
 5502TIP3    H217389   1.042   7.958   0.703 -0.0262 -1.5342  0.8841
 5503TIP3   OH217390   6.637   4.460  10.154  0.1677  0.2178  0.6593
 5503TIP3    H117391   6.622   4.463  10.059 -0.8069 -0.0145  0.7999
 5503TIP3    H217392   6.730   4.480  10.163 -0.1438  2.4419 -0.2132
 5504TIP3   OH217393   5.752   9.820   9.793 -0.7902  0.1976 -0.8787
 5504TIP3    H117394   5.693   9.749   9.819 -2.7147  1.6751 -0.9778
 5504TIP3    H217395   5.704   9.900   9.814  1.4396  1.5086 -0.4672
 5505TIP3   OH217396   2.805   2.144   8.488 -0.8263 -0.2115  0.1056
 5505TIP3    H117397   2.843   2.193   8.414 -2.2038  0.4993 -0.1693
 5505TIP3    H217398   2.748   2.207   8.531 -0.9415 -0.9686  1.0840
 5506TIP3   OH217399   2.416  10.828   8.780 -0.2390  0.1570 -0.3064
 5506TIP3    H117400   2.493  10.815   8.836  0.0342  1.9038 -0.2341
 5506TIP3    H217401   2.433  10.772   8.704  0.9568  0.2607 -0.1477
 5507TIP3   OH217402   8.390   0.283   3.941  0.3635  0.2953 -0.2339
 5507TIP3    H117403   8.348   0.277   3.856 -1.4162  0.9498  0.5487
 5507TIP3    H217404   8.355   0.363   3.979  0.9637 -0.0944  1.2084
 5508TIP3   OH217405   1.829   7.910   9.456 -0.0351  0.3314  0.4797
 5508TIP3    H117406   1.798   7.866   9.377  3.4539  1.2732 -1.6312
 5508TIP3    H217407   1.755   7.905   9.517 -3.0425 -0.1703 -2.8885
 5509TIP3   OH217408   7.695   8.047   2.498  0.0853  0.1908 -0.0830
 5509TIP3    H117409   7.683   8.142   2.494 -1.3352  0.2266  2.6515
 5509TIP3    H217410   7.606   8.011   2.501  0.5556 -1.3881 -2.1779
 5510TIP3   OH217411   2.437   2.281   5.087  0.1834 -0.3713  0.4524
 5510TIP3    H117412   2.512   2.309   5.035 -0.2517 -0.4519 -0.2307
 5510TIP3    H217413   2.401   2.207   5.039 -1.7650  1.1365 -0.5736
 5511TIP3   OH217414   0.713   0.312   2.967 -0.3800 -0.0152 -0.1657
 5511TIP3    H117415   0.625   0.286   2.937  0.1583  0.4694 -2.3092
 5511TIP3    H217416   0.715   0.286   3.060 -3.0036  0.5377  0.1291
 5512TIP3   OH217417   7.009   6.556   9.876  0.0755 -0.1602 -0.0626
 5512TIP3    H117418   6.991   6.480   9.932 -1.3210  1.1769  1.4038
 5512TIP3    H217419   7.104   6.564   9.875  0.1672 -0.9616  1.0955
 5513TIP3   OH217420   7.516   3.535   9.615  0.4849  0.5287  0.0297
 5513TIP3    H117421   7.582   3.553   9.548  0.3241 -0.8245 -0.5109
 5513TIP3    H217422   7.450   3.482   9.571 -1.6656  2.8264  0.2182
 5514TIP3   OH217423  10.012  10.529   8.572 -0.0677 -0.4343 -0.2605
 5514TIP3    H117424   9.975  10.614   8.548 -1.0395 -0.6925  0.2593
 5514TIP3    H217425   9.987  10.471   8.499  0.6304 -0.2778 -0.6352
 5515TIP3   OH217426   4.233   9.246   6.227  0.0601 -0.1423 -0.2077
 5515TIP3    H117427   4.212   9.156   6.252  1.4208 -0.2030  0.8200
 5515TIP3    H217428   4.299   9.274   6.290  1.0710  0.9190 -1.6538
 5516TIP3   OH217429   7.461   3.851   8.790 -0.0637 -0.4604  0.2139
 5516TIP3    H117430   7.400   3.786   8.754  1.0908 -0.4098 -2.0226
 5516TIP3    H217431   7.546   3.825   8.755  0.5936  1.6419  0.1427
 5517TIP3   OH217432   9.187   3.485   3.753 -0.1879 -0.4629 -0.5994
 5517TIP3    H117433   9.137   3.431   3.814 -0.1633 -1.6896 -1.6188
 5517TIP3    H217434   9.262   3.431   3.729  0.4290  0.4670 -0.8228
 5518TIP3   OH217435   6.228   0.711   8.613 -0.9750  0.2125 -1.0530
 5518TIP3    H117436   6.153   0.652   8.614 -0.6405 -0.2371  0.8305
 5518TIP3    H217437   6.231   0.744   8.523 -2.2253 -1.2764 -1.6882
 5519TIP3   OH217438   7.308   2.182   6.473  0.2773 -0.1382  0.1951
 5519TIP3    H117439   7.231   2.170   6.418  0.3482  2.2851 -0.5579
 5519TIP3    H217440   7.277   2.167   6.562 -0.3168 -2.1097 -0.2868
 5520TIP3   OH217441   3.898   0.123   8.474 -0.5870  0.9259  0.0440
 5520TIP3    H117442   3.946   0.200   8.443 -0.7617  0.8878 -0.3293
 5520TIP3    H217443   3.930   0.052   8.419 -0.8366  0.8384  0.0110
 5521TIP3   OH217444   7.438   2.742   8.062  0.0524 -0.0758  0.1495
 5521TIP3    H117445   7.439   2.714   7.970 -0.6359  1.5730 -0.3994
 5521TIP3    H217446   7.382   2.678   8.106 -1.3464  0.2988 -1.0157
 5522TIP3   OH217447  10.501   9.975   5.403 -0.5743  0.8185  0.4491
 5522TIP3    H117448  10.503  10.008   5.313 -3.6258 -0.5189 -0.2497
 5522TIP3    H217449  10.479  10.052   5.456  0.4368  1.4545 -0.0202
 5523TIP3   OH217450   7.441   0.736   7.540  0.0687  0.4342 -0.2806
 5523TIP3    H117451   7.511   0.791   7.502  0.4721  0.0591 -0.0888
 5523TIP3    H217452   7.484   0.688   7.610 -0.1930 -0.3996 -0.6820
 5524TIP3   OH217453   4.232   1.709   9.521  0.3908 -0.2766 -0.4053
 5524TIP3    H117454   4.216   1.760   9.601  3.1483  1.0866 -0.5677
 5524TIP3    H217455   4.232   1.618   9.550  2.1574  0.2275  1.4110
 5525TIP3   OH217456   6.551   2.107   1.895  1.0013 -0.5124 -0.6416
 5525TIP3    H117457   6.457   2.094   1.889  0.7952  0.7594 -0.5207
 5525TIP3    H217458   6.589   2.023   1.871 -0.1343 -0.7037 -1.8629
 5526TIP3   OH217459   5.585   0.394   1.472  0.4420 -0.2423 -0.1055
 5526TIP3    H117460   5.535   0.315   1.491  2.2460 -1.9704 -1.9703
 5526TIP3    H217461   5.573   0.407   1.377  0.2646  1.7168  0.1396
 5527TIP3   OH217462   7.307   0.739   0.867 -0.2270 -0.0821 -0.0518
 5527TIP3    H117463   7.253   0.818   0.865  0.3658  0.3508  0.5244
 5527TIP3    H217464   7.363   0.750   0.943 -1.6231 -2.0632  1.3994
 5528TIP3   OH217465   5.315   2.233   6.745 -0.1985 -0.4408  0.0941
 5528TIP3    H117466   5.307   2.173   6.820 -3.3652 -0.8199 -0.3806
 5528TIP3    H217467   5.325   2.176   6.669  0.6578 -0.1607 -0.0123
 5529TIP3   OH217468   5.910   4.217   8.150  0.4657 -0.5127  0.1517
 5529TIP3    H117469   5.833   4.273   8.140  2.1854  1.7930 -1.2856
 5529TIP3    H217470   5.890   4.138   8.101 -1.1367 -0.1322  0.1602
 5530TIP3   OH217471   8.833  10.267   2.327  0.3851 -0.1376 -0.0649
 5530TIP3    H117472   8.920  10.292   2.297  1.0469 -0.6069  1.3607
 5530TIP3    H217473   8.840  10.173   2.346  1.0643  0.6055  4.5910
 5531TIP3   OH217474   0.765   4.470  10.326 -0.1158  0.1591 -0.1746
 5531TIP3    H117475   0.823   4.484  10.251 -0.3009  1.5880 -0.0638
 5531TIP3    H217476   0.677   4.468  10.289 -0.3963  2.9559  0.1906
 5532TIP3   OH217477   6.880  10.865   3.123  0.2896  0.3231  0.3996
 5532TIP3    H117478   6.866  10.902   3.210  1.9016  0.3080  0.7105
 5532TIP3    H217479   6.916  10.778   3.139  0.0481  0.0869 -0.2880
 5533TIP3   OH217480   9.154   6.653   4.312  0.0508 -0.0761 -0.1901
 5533TIP3    H117481   9.173   6.654   4.405 -0.6263 -0.8369 -0.0338
 5533TIP3    H217482   9.059   6.647   4.306  0.1434 -1.6897 -0.8935
 5534TIP3   OH217483   9.896   0.095  10.180 -0.1325 -0.0205 -0.4761
 5534TIP3    H117484   9.846   0.019  10.209 -0.3007  0.5600  0.8360
 5534TIP3    H217485   9.982   0.084  10.222  0.2819 -0.1255 -1.3222
 5535TIP3   OH217486   9.184  10.559   5.477 -0.0948  0.1549  0.0834
 5535TIP3    H117487   9.146  10.640   5.512 -1.5327 -0.4957  0.0928
 5535TIP3    H217488   9.216  10.512   5.554 -2.6805 -0.9832  0.5818
 5536TIP3   OH217489   7.881   8.553   3.597  0.3056 -0.0144 -0.0711
 5536TIP3    H117490   7.845   8.636   3.565  0.1354 -0.6533 -1.6330
 5536TIP3    H217491   7.804   8.498   3.613  0.4448 -0.0820  0.4053
 5537TIP3   OH217492   1.765   4.406   0.635  0.1361  0.1882  0.0862
 5537TIP3    H117493   1.761   4.328   0.579  1.6074 -1.5104  2.1608
 5537TIP3    H217494   1.805   4.473   0.580  2.7288 -1.7759 -0.6676
 5538TIP3   OH217495   8.016   1.651  10.704 -0.2183 -0.0875  0.0363
 5538TIP3    H117496   8.108   1.632  10.687 -0.3917 -2.6108  1.3742
 5538TIP3    H217497   7.968   1.601  10.638 -0.6252 -0.9975  0.9736
 5539TIP3   OH217498   6.845  10.559   0.699  0.3347 -0.1594  0.3902
 5539TIP3    H117499   6.879  10.559   0.610  0.3072 -0.5453  0.3781
 5539TIP3    H217500   6.917  10.525   0.753  0.8180  1.2701  0.7072
 5540TIP3   OH217501   7.297   8.066   7.723  0.3372  0.3530 -0.0186
 5540TIP3    H117502   7.219   8.114   7.750  1.4749  1.4522  1.4905
 5540TIP3    H217503   7.337   8.121   7.656 -1.0129 -1.0412 -2.1049
 5541TIP3   OH217504   9.288   4.253   7.495 -0.4450 -0.1155 -0.3225
 5541TIP3    H117505   9.262   4.340   7.465  0.6170 -0.1240 -1.3720
 5541TIP3    H217506   9.221   4.194   7.460 -1.4576  0.3086  0.8369
 5542TIP3   OH217507   0.073   2.644  10.300  0.0265 -0.0831  0.5101
 5542TIP3    H117508   0.032   2.707  10.239 -2.0509 -1.5236  0.3117
 5542TIP3    H217509   0.020   2.650  10.379  0.8118 -0.4531  1.0714
 5543TIP3   OH217510   8.764   0.637   3.152 -0.1883  0.0268  0.4637
 5543TIP3    H117511   8.760   0.720   3.199  0.2767  0.1827  0.2329
 5543TIP3    H217512   8.692   0.641   3.089  1.6783  1.6015 -1.7116
 5544TIP3   OH217513   0.742   4.532   4.045  0.3845  0.8175  0.5779
 5544TIP3    H117514   0.711   4.445   4.070 -1.3518  1.3745  0.5118
 5544TIP3    H217515   0.835   4.532   4.068 -0.3605  0.2067  4.1205
 5545TIP3   OH217516   5.252   4.719   8.378 -0.0538  0.2721  0.1512
 5545TIP3    H117517   5.309   4.785   8.339  0.8250 -0.6166 -0.1157
 5545TIP3    H217518   5.268   4.640   8.327 -1.9359  0.1086 -0.2846
 5546TIP3   OH217519   3.971   1.150   0.447 -0.0466 -0.3440  0.1366
 5546TIP3    H117520   3.950   1.090   0.375  1.6567 -1.0618  0.1726
 5546TIP3    H217521   3.914   1.225   0.434 -1.4607 -1.4930 -0.5721
 5547TIP3   OH217522   4.647   2.241   9.457 -0.7694 -0.0528  0.4972
 5547TIP3    H117523   4.679   2.318   9.504  0.3345 -0.7884  0.9974
 5547TIP3    H217524   4.555   2.234   9.482 -0.1406 -0.6308  2.8665
 5548TIP3   OH217525   3.738   1.465   9.716 -0.4674 -0.3341 -0.4929
 5548TIP3    H117526   3.828   1.495   9.732 -0.3244 -0.1218 -1.5910
 5548TIP3    H217527   3.721   1.401   9.785  0.1629  0.3748  0.3252
 5549TIP3   OH217528   8.620   3.261  10.199 -0.1258  0.8300 -0.1036
 5549TIP3    H117529   8.600   3.246  10.291 -1.1187  0.1874 -0.4079
 5549TIP3    H217530   8.609   3.355  10.187  0.5668  1.0069  0.5490
 5550TIP3   OH217531   6.326   6.552   4.966  0.0268  0.8783  0.0332
 5550TIP3    H117532   6.314   6.495   5.042 -3.0080  0.7619 -0.3949
 5550TIP3    H217533   6.421   6.553   4.951  0.4572 -1.5466  1.9402
 5551TIP3   OH217534   7.505   9.281  10.155 -0.0250 -0.2904 -0.1097
 5551TIP3    H117535   7.549   9.361  10.127 -0.3273 -0.2685 -0.5327
 5551TIP3    H217536   7.421   9.283  10.109 -0.0389 -0.8468 -0.1145
 5552TIP3   OH217537   4.527   6.952   0.376 -0.0523  0.3918  0.5358
 5552TIP3    H117538   4.451   6.907   0.337 -1.1078  1.8430  0.8476
 5552TIP3    H217539   4.591   6.956   0.305  0.0865 -1.5495  0.4877
 5553TIP3   OH217540   0.728   4.845   7.429 -0.0697 -0.8441 -0.3393
 5553TIP3    H117541   0.770   4.928   7.453 -0.1413 -0.9479  0.1570
 5553TIP3    H217542   0.670   4.868   7.356  1.2963 -0.8151 -1.4616
 5554TIP3   OH217543  10.608   6.044   9.796  0.0984 -0.3019 -0.1741
 5554TIP3    H117544  10.683   6.091   9.757 -0.6599  0.0581 -1.2581
 5554TIP3    H217545  10.588   6.093   9.875  0.1834  0.4084 -0.5805
 5555TIP3   OH217546   6.071   2.843   0.725  0.0215 -0.2231  0.6295
 5555TIP3    H117547   6.100   2.767   0.675 -2.7698 -0.7879 -0.3240
 5555TIP3    H217548   6.141   2.907   0.714  0.5395 -1.1148 -2.1968
 5556TIP3   OH217549   5.300   3.432   4.578  0.2330 -0.0922 -0.6053
 5556TIP3    H117550   5.333   3.474   4.658  0.2466 -2.2155  0.5708
 5556TIP3    H217551   5.367   3.367   4.557 -0.6088 -0.7391 -1.3390
 5557TIP3   OH217552   8.458   0.756   9.625 -0.6021 -0.2986 -0.7898
 5557TIP3    H117553   8.453   0.852   9.622 -1.5735 -0.3266 -0.2077
 5557TIP3    H217554   8.383   0.726   9.574  1.0565 -0.7989 -3.1433
 5558TIP3   OH217555   3.375   1.293   9.423  0.0353 -0.1887  0.4129
 5558TIP3    H117556   3.353   1.314   9.332  0.5945  2.5718  0.8034
 5558TIP3    H217557   3.456   1.243   9.418 -0.8664 -1.6280 -0.6263
 5559TIP3   OH217558   8.299   5.381   3.913 -0.4491  0.0193  0.0025
 5559TIP3    H117559   8.228   5.324   3.943 -0.6432  0.4349  0.3589
 5559TIP3    H217560   8.361   5.323   3.870 -1.0152 -0.3523 -0.3349
 5560TIP3   OH217561   9.045   6.696   9.389 -0.4291  0.1001 -0.0223
 5560TIP3    H117562   9.132   6.677   9.355  0.0394  1.0057  0.6311
 5560TIP3    H217563   9.056   6.700   9.484 -1.3318 -0.4819  0.1249
 5561TIP3   OH217564   7.286   6.248   2.881 -0.3939 -0.5214  0.1741
 5561TIP3    H117565   7.357   6.186   2.899  1.0340  1.2341  0.9183
 5561TIP3    H217566   7.325   6.334   2.898 -3.1120  0.4543  2.1182
 5562TIP3   OH217567   9.823   5.250   6.262  0.2316 -0.0008 -0.1917
 5562TIP3    H117568   9.891   5.210   6.209 -0.9251  0.6830 -2.3133
 5562TIP3    H217569   9.741   5.214   6.227 -0.5845 -0.6823  2.1656
 5563TIP3   OH217570   9.990  10.416  10.427 -0.9319 -0.3255  0.6382
 5563TIP3    H117571  10.058  10.356  10.396  0.8194  1.3366  1.0400
 5563TIP3    H217572   9.981  10.480  10.355 -1.9148 -0.4029  0.6867
 5564TIP3   OH217573   9.385   0.126   6.633 -0.1907 -0.0879  0.1199
 5564TIP3    H117574   9.427   0.049   6.593  0.4290  0.5430 -0.4598
 5564TIP3    H217575   9.450   0.158   6.696 -0.9377 -0.7456  1.2650
 5565TIP3   OH217576   9.685   2.317   6.893  0.0174  0.2480  0.2866
 5565TIP3    H117577   9.777   2.300   6.913 -0.3523  0.6870  2.6658
 5565TIP3    H217578   9.642   2.232   6.903  0.0057  0.2356  0.1387
 5566TIP3   OH217579   8.457   7.768   5.271 -0.5047  0.2132  0.1028
 5566TIP3    H117580   8.495   7.841   5.222  2.4875 -0.4929  1.1066
 5566TIP3    H217581   8.484   7.690   5.222  0.1327 -0.3628  1.3225
 5567TIP3   OH217582   2.084   7.767   4.080  0.3657  0.1391  0.1226
 5567TIP3    H117583   1.998   7.732   4.104 -0.9310  1.0476 -2.8730
 5567TIP3    H217584   2.132   7.690   4.047  0.5670 -0.2655  1.2956
 5568TIP3   OH217585   5.014   8.287   9.255  0.0126  0.4474 -0.9030
 5568TIP3    H117586   5.075   8.358   9.233 -0.0141  1.6924  2.4661
 5568TIP3    H217587   4.933   8.333   9.278 -0.8022 -0.8930 -1.0266
 5569TIP3   OH217588   2.658   8.545   1.038 -0.3630  0.5330  0.2221
 5569TIP3    H117589   2.747   8.524   1.065  0.3737  0.4997 -2.0508
 5569TIP3    H217590   2.655   8.641   1.035 -0.1786  0.5291 -0.3000
 5570TIP3   OH217591   4.297   5.739   3.789 -0.4037 -0.5996 -0.3960
 5570TIP3    H117592   4.201   5.735   3.787 -0.4274 -1.7527  1.0126
 5570TIP3    H217593   4.320   5.703   3.875  1.2369  1.3009  0.0355
 5571TIP3   OH217594   3.533   0.215   8.689  0.1021  0.1213  0.7634
 5571TIP3    H117595   3.547   0.147   8.622 -0.6057  1.4827 -0.8454
 5571TIP3    H217596   3.578   0.292   8.654 -1.6333  1.3257  1.0333
 5572TIP3   OH217597   6.945   0.214   8.408  0.4274 -0.0678  0.2809
 5572TIP3    H117598   6.898   0.238   8.328  1.6504  0.9445 -0.1623
 5572TIP3    H217599   6.976   0.125   8.393  1.3163  0.3933 -0.7069
 5573TIP3   OH217600   2.622  10.016   6.239 -0.4229  0.5568 -0.1788
 5573TIP3    H117601   2.551   9.952   6.241 -0.6271  0.7806 -0.1775
 5573TIP3    H217602   2.645  10.029   6.331 -1.2288  1.4102 -0.0784
 5574TIP3   OH217603   9.463   0.191   7.841  0.2964 -0.1632  0.1409
 5574TIP3    H117604   9.441   0.262   7.901  1.9846  0.1968  0.3873
 5574TIP3    H217605   9.515   0.233   7.772 -1.1565 -0.6627 -1.3174
 5575TIP3   OH217606   9.283   1.391   2.839  0.0219  0.0876 -0.1833
 5575TIP3    H117607   9.187   1.393   2.843  0.0592  0.9702  1.1251
 5575TIP3    H217608   9.304   1.428   2.754 -0.8103 -1.5030 -1.1237
 5576TIP3   OH217609   9.137   1.800   0.306 -0.2192 -0.7428 -0.0206
 5576TIP3    H117610   9.205   1.865   0.285 -1.0765 -0.1839 -1.1802
 5576TIP3    H217611   9.124   1.808   0.400  0.5225 -0.0606  0.0340
 5577TIP3   OH217612   6.903  10.894   4.857  0.3428  0.3935  0.9423
 5577TIP3    H117613   6.878  10.816   4.908  1.1880 -0.3979  0.1900
 5577TIP3    H217614   6.941  10.858   4.777  1.6375  1.5867  0.9968
 5578TIP3   OH217615   8.258   6.747   3.695  0.0478 -0.0351 -0.8867
 5578TIP3    H117616   8.281   6.678   3.758  1.4012 -0.4474 -1.7963
 5578TIP3    H217617   8.206   6.809   3.746  2.7737  0.6964  1.2472
 5579TIP3   OH217618   2.875   5.150   0.849 -0.4415  0.1456  0.4810
 5579TIP3    H117619   2.814   5.082   0.880  0.4382  0.3515  2.8888
 5579TIP3    H217620   2.958   5.104   0.839 -0.5221  0.2690 -0.8784
 5580TIP3   OH217621   3.588  10.099   0.995 -0.4755  0.6371  0.1541
 5580TIP3    H117622   3.666  10.049   0.972  0.1922  1.0515  1.3871
 5580TIP3    H217623   3.589  10.174   0.936  0.8552  1.3694  1.0667
 5581TIP3   OH217624   5.339   4.624   8.634 -0.3559 -0.2436  0.2862
 5581TIP3    H117625   5.432   4.641   8.623 -0.1938 -1.1010  0.2707
 5581TIP3    H217626   5.301   4.646   8.549 -0.5086  2.1103  0.8834
 5582TIP3   OH217627   9.421   4.017   2.456  0.7738 -0.4563 -0.3026
 5582TIP3    H117628   9.325   4.014   2.465  0.8403  0.2277  0.7865
 5582TIP3    H217629   9.436   4.019   2.362 -0.3493  1.0563 -0.4810
 5583TIP3   OH217630   3.613   1.686   4.411 -0.0422 -0.3195 -0.3753
 5583TIP3    H117631   3.548   1.746   4.447 -0.1111 -0.1467 -0.7778
 5583TIP3    H217632   3.689   1.695   4.468 -0.0778  0.0968 -0.3896
 5584TIP3   OH217633   5.262   7.651   7.086 -0.2102  0.6018  0.8516
 5584TIP3    H117634   5.334   7.713   7.074 -0.1698  0.4718  0.4295
 5584TIP3    H217635   5.192   7.684   7.031  0.1555 -0.2674 -0.1700
 5585TIP3   OH217636   7.443   2.471   8.470 -0.3513  0.1277  0.2538
 5585TIP3    H117637   7.482   2.548   8.428  0.2085 -0.5915 -0.5723
 5585TIP3    H217638   7.484   2.468   8.557 -0.2038  0.6174  0.2052
 5586TIP3   OH217639   9.639   3.265   1.869 -0.0277  0.0841  0.0816
 5586TIP3    H117640   9.725   3.250   1.909  0.0966  0.1647 -0.1543
 5586TIP3    H217641   9.640   3.211   1.790 -0.1952  0.0847  0.0798
 5587TIP3   OH217642   9.479   3.086   2.738 -0.2067  0.4144 -0.6981
 5587TIP3    H117643   9.393   3.059   2.704 -0.4321 -0.3873  0.4244
 5587TIP3    H217644   9.458   3.138   2.816  0.3193  1.1927 -1.0576
 5588TIP3   OH217645   4.114   3.440   3.940  0.7424  0.1658  0.5115
 5588TIP3    H117646   4.040   3.379   3.931  0.7988  0.2838 -1.0173
 5588TIP3    H217647   4.192   3.383   3.937  0.7459  0.1216  1.2789
 5589TIP3   OH217648   1.649   2.594   0.347  0.4384  0.3128 -0.3033
 5589TIP3    H117649   1.715   2.531   0.318  0.1572  0.3675 -1.1026
 5589TIP3    H217650   1.578   2.541   0.383  0.1281  0.1440 -1.1284
 5590TIP3   OH217651   1.729   9.680  10.526  0.1380  0.8772  0.4824
 5590TIP3    H117652   1.738   9.697  10.619  0.9032 -1.1811  0.8289
 5590TIP3    H217653   1.818   9.662  10.496 -0.4037 -1.1580 -0.0431
 5591TIP3   OH217654   0.059   3.024   8.014  0.5370  0.4186 -0.1396
 5591TIP3    H117655   0.011   3.071   7.945 -2.3775 -1.2932  0.5421
 5591TIP3    H217656   0.045   2.931   7.994  1.8900 -0.1317  1.2791
 5592TIP3   OH217657   4.513  10.661   4.453 -0.2954  0.2461 -0.1553
 5592TIP3    H117658   4.606  10.683   4.462 -0.2107  0.5711 -1.5490
 5592TIP3    H217659   4.505  10.627   4.364 -1.3626 -0.6388  0.2490
 5593TIP3   OH217660   1.430   1.321   1.904  0.4117  0.4340  0.1003
 5593TIP3    H117661   1.492   1.387   1.936  1.1404 -0.4597  0.5931
 5593TIP3    H217662   1.427   1.256   1.974 -0.4995  0.0690 -0.2609
 5594TIP3   OH217663   1.769   3.859   4.027 -0.0552  0.3324  0.0148
 5594TIP3    H117664   1.744   3.771   3.999 -1.5930  1.2591 -1.7330
 5594TIP3    H217665   1.829   3.890   3.958  0.4558  0.6823  0.6012
 5595TIP3   OH217666  10.674   1.864   5.194 -0.1923 -0.2286 -0.1998
 5595TIP3    H117667  10.630   1.852   5.279  1.7745 -0.1406  0.8949
 5595TIP3    H217668  10.721   1.947   5.203  1.3308 -0.9900 -0.7455
 5596TIP3   OH217669   6.935   9.934   8.907  0.4201  0.1961  0.1371
 5596TIP3    H117670   6.844   9.905   8.917  0.8764 -2.4238 -1.9948
 5596TIP3    H217671   6.929  10.010   8.849 -0.4001 -0.6517 -0.9512
 5597TIP3   OH217672   1.553   4.961   9.405  0.4570  0.0210  0.4457
 5597TIP3    H117673   1.639   4.930   9.377  0.6351  0.5800  0.3608
 5597TIP3    H217674   1.491   4.903   9.361  0.7755  0.0144  0.0027
 5598TIP3   OH217675   1.091   6.704   8.685  0.1203  0.6410  0.3782
 5598TIP3    H117676   1.032   6.634   8.714 -1.0030  1.4762  0.1757
 5598TIP3    H217677   1.170   6.691   8.736 -0.8106  0.4222  1.8281
 5599TIP3   OH217678   4.255   2.685   0.811 -0.1424  0.1033 -0.1019
 5599TIP3    H117679   4.218   2.603   0.845 -1.9900  1.0429  0.2563
 5599TIP3    H217680   4.319   2.712   0.877 -0.4808 -0.3590  0.4212
 5600TIP3   OH217681   3.391   8.284  10.478  0.3420 -0.1706  0.3570
 5600TIP3    H117682   3.415   8.202  10.521  0.6120 -0.4692 -0.3566
 5600TIP3    H217683   3.319   8.318  10.530 -0.6116 -1.4788 -0.0716
 5601TIP3   OH217684   8.655   9.319   0.203  0.2904  0.3748  0.2317
 5601TIP3    H117685   8.712   9.333   0.128 -0.8898 -0.7994 -0.9387
 5601TIP3    H217686   8.611   9.404   0.215  2.4282  1.3977  1.3653
 5602TIP3   OH217687   9.907   3.483   8.053 -0.2704  0.0505 -0.2910
 5602TIP3    H117688   9.821   3.524   8.048 -1.3414 -1.9950  0.3712
 5602TIP3    H217689   9.907   3.417   7.983  0.8210  0.1254 -0.3811
 5603TIP3   OH217690   0.399   2.995   5.473 -0.3122 -0.7817 -0.4477
 5603TIP3    H117691   0.460   2.948   5.530 -1.1276 -1.7865 -0.3680
 5603TIP3    H217692   0.337   2.928   5.444 -1.9660  0.3507  0.2430
 5604TIP3   OH217693   0.626   6.674   1.748  0.2564  0.2115 -0.0916
 5604TIP3    H117694   0.692   6.645   1.685  2.3484 -0.4959  2.2739
 5604TIP3    H217695   0.556   6.608   1.742  0.6106 -0.0725 -1.3261
 5605TIP3   OH217696   5.130   3.927   8.323 -0.0903 -0.2431  0.2320
 5605TIP3    H117697   5.068   3.859   8.296  1.6817 -1.4559 -1.0254
 5605TIP3    H217698   5.077   3.990   8.372 -1.8692 -2.3670  1.2143
 5606TIP3   OH217699   8.371   0.231   6.634 -0.1954  0.3831 -0.1731
 5606TIP3    H117700   8.376   0.136   6.643  0.0679  0.4519  0.4131
 5606TIP3    H217701   8.311   0.245   6.560 -1.4748 -0.1994  0.7268
 5607TIP3   OH217702   1.536   1.903   2.507 -0.0577  0.1795  0.0716
 5607TIP3    H117703   1.494   1.817   2.515 -1.0865  0.8451  3.0939
 5607TIP3    H217704   1.466   1.960   2.476  1.0964 -0.2644 -3.8789
 5608TIP3   OH217705   4.428   1.517   6.070 -0.0991  0.5101  0.3410
 5608TIP3    H117706   4.439   1.589   6.007 -0.6688  0.6045  0.3503
 5608TIP3    H217707   4.518   1.489   6.089  0.0750  0.2798 -0.7414
 5609TIP3   OH217708   2.237   4.912   6.137  0.3271 -0.1516 -0.1241
 5609TIP3    H117709   2.329   4.927   6.159  0.7552 -0.2928 -1.6924
 5609TIP3    H217710   2.197   4.886   6.220  2.2217 -2.5264  0.1683
 5610TIP3   OH217711   7.043   2.189   6.332  0.1277 -0.4087  0.4445
 5610TIP3    H117712   6.997   2.272   6.342 -0.9410 -1.1698  2.9690
 5610TIP3    H217713   6.997   2.144   6.261 -0.1478  0.6016 -0.0298
 5611TIP3   OH217714   4.231   5.586  10.680  0.1213 -0.0700  0.1385
 5611TIP3    H117715   4.160   5.540  10.636 -0.6821  0.9943  0.2833
 5611TIP3    H217716   4.264   5.648  10.616  0.9429 -0.5590  0.0701
 5612TIP3   OH217717   8.273   7.799   5.504 -0.2991 -0.3062  0.1829
 5612TIP3    H117718   8.218   7.867   5.463  1.0129  0.0378 -1.1086
 5612TIP3    H217719   8.310   7.751   5.430  0.3808 -1.1405  1.0419
 5613TIP3   OH217720   1.416   9.132  10.770 -0.4071  0.0822  0.1012
 5613TIP3    H117721   1.339   9.157  10.718 -0.9571 -0.8350  0.4479
 5613TIP3    H217722   1.403   9.176  10.854  0.6124  1.7794 -0.5628
 5614TIP3   OH217723   5.907   6.897   2.082  0.1191 -0.1308  0.4337
 5614TIP3    H117724   5.931   6.809   2.053  1.6969  0.4793 -0.1964
 5614TIP3    H217725   5.965   6.916   2.156 -0.7551  0.0914  1.0859
 5615TIP3   OH217726   7.884   3.801   9.264  0.3911 -0.3928 -0.2779
 5615TIP3    H117727   7.950   3.781   9.330  0.4399 -2.3932 -0.8577
 5615TIP3    H217728   7.882   3.723   9.208 -0.9714  0.4786 -1.5173
 5616TIP3   OH217729   0.577   2.591   2.690 -0.1806  0.4692  0.0119
 5616TIP3    H117730   0.529   2.634   2.761  1.0220  1.9384 -0.0254
 5616TIP3    H217731   0.534   2.623   2.610 -0.8613 -0.3672  0.0259
 5617TIP3   OH217732  10.729   1.181   1.753  0.0371 -0.0075 -0.1255
 5617TIP3    H117733  10.654   1.232   1.785 -0.2476 -0.5127  0.0279
 5617TIP3    H217734  10.784   1.168   1.830 -0.5133 -0.9896  0.1290
 5618TIP3   OH217735   0.889   4.967   3.358  0.1984 -0.1884 -0.1927
 5618TIP3    H117736   0.826   5.011   3.415  0.3544 -0.5461  0.2674
 5618TIP3    H217737   0.955   4.932   3.418 -0.3331 -1.7349 -0.4423
 5619TIP3   OH217738   4.102   5.522   0.948 -0.4369 -0.0132 -0.0520
 5619TIP3    H117739   4.129   5.581   0.878  0.4148 -0.3132  0.0108
 5619TIP3    H217740   4.168   5.453   0.948 -0.9213 -0.4923  0.4672
 5620TIP3   OH217741   5.385   8.797   1.002 -0.1106 -0.6360  0.4453
 5620TIP3    H117742   5.329   8.868   0.969 -0.3773 -1.3872 -0.7885
 5620TIP3    H217743   5.472   8.817   0.969  0.1909  0.0516  1.6073
 5621TIP3   OH217744   6.403   5.296  10.631  0.6445 -0.1468 -0.6246
 5621TIP3    H117745   6.308   5.283  10.626  0.1975  2.3341 -0.0346
 5621TIP3    H217746   6.440   5.212  10.604 -1.7067 -1.3229 -0.4785
 5622TIP3   OH217747   1.537   0.882  10.574  0.1139 -0.0003  0.1653
 5622TIP3    H117748   1.528   0.928  10.657 -1.8291  0.6467 -0.3475
 5622TIP3    H217749   1.604   0.931  10.526  1.1607 -0.3106  1.2719
 5623TIP3   OH217750   4.389   3.394   1.890 -0.5179 -0.2088 -0.7335
 5623TIP3    H117751   4.311   3.386   1.944 -1.6263  0.4028 -2.1682
 5623TIP3    H217752   4.406   3.305   1.859 -0.3797 -0.4151 -0.0687
 5624TIP3   OH217753   5.163   0.774   6.950  0.3264 -0.1478 -0.5160
 5624TIP3    H117754   5.259   0.774   6.948  0.3573  2.1926 -0.9274
 5624TIP3    H217755   5.137   0.837   6.883 -1.4747  0.4009  0.6312
 5625TIP3   OH217756   3.608   6.449   1.256  0.1097 -0.7318  0.7292
 5625TIP3    H117757   3.548   6.375   1.261  0.9438 -1.4188  0.7074
 5625TIP3    H217758   3.695   6.410   1.260  0.5726  0.1746 -0.1942
 5626TIP3   OH217759   6.660   3.222   6.179 -0.6963  0.1109 -0.3577
 5626TIP3    H117760   6.621   3.213   6.092 -1.3094 -0.4053 -0.0384
 5626TIP3    H217761   6.706   3.305   6.176 -1.6447  0.6366 -0.8189
 5627TIP3   OH217762   7.084   6.611   2.611 -0.2990 -0.3663  0.3456
 5627TIP3    H117763   7.099   6.704   2.627 -3.1453  0.0247  1.5323
 5627TIP3    H217764   6.991   6.605   2.588 -0.2538 -2.9289  0.4380
 5628TIP3   OH217765   1.638   0.103   8.411  0.1728  0.2288  0.1169
 5628TIP3    H117766   1.722   0.144   8.432 -0.1909  1.4270 -0.6705
 5628TIP3    H217767   1.574   0.173   8.423 -0.4761 -0.1027 -1.2773
 5629TIP3   OH217768   9.888   3.294   2.105 -0.4845 -0.2667  0.0177
 5629TIP3    H117769   9.977   3.275   2.135  0.2032  0.9893 -1.1319
 5629TIP3    H217770   9.841   3.321   2.184  0.0804 -1.1183  0.6597
 5630TIP3   OH217771   1.831   3.149   3.970 -0.1855 -0.6371  0.3591
 5630TIP3    H117772   1.771   3.182   3.904 -0.5393 -1.6442  0.1589
 5630TIP3    H217773   1.810   3.056   3.978  0.7710 -0.8278  0.9036
 5631TIP3   OH217774   0.778   7.567   7.409  0.4928 -0.1319  0.1906
 5631TIP3    H117775   0.842   7.630   7.377  0.6397  0.5606  1.7584
 5631TIP3    H217776   0.721   7.618   7.467  0.3692 -1.3472  1.1834
 5632TIP3   OH217777   0.246   0.287   6.822 -0.5541 -0.2428 -0.5647
 5632TIP3    H117778   0.196   0.341   6.761 -0.0235  2.1193  0.9820
 5632TIP3    H217779   0.337   0.316   6.811 -0.3136 -0.5151  0.5987
 5633TIP3   OH217780   2.660   5.324   4.994  0.1756  0.1395 -0.0790
 5633TIP3    H117781   2.752   5.325   4.967  0.9853 -0.3994  2.3721
 5633TIP3    H217782   2.650   5.241   5.040 -1.6150  0.1276 -0.4356
 5634TIP3   OH217783   6.087   8.292   8.109  0.1449  0.1361  0.1520
 5634TIP3    H117784   6.152   8.257   8.169  0.6835  0.2146 -0.3753
 5634TIP3    H217785   6.103   8.387   8.109 -0.9172  0.3317  1.1231
 5635TIP3   OH217786   4.924   9.661   3.279 -0.0847  0.3164 -0.1849
 5635TIP3    H117787   4.875   9.604   3.337  0.3869  0.2736  0.1733
 5635TIP3    H217788   4.953   9.604   3.208  0.2381  0.1495  0.0828
 5636TIP3   OH217789   1.709  10.428   0.315  0.2688 -0.5762  0.2798
 5636TIP3    H117790   1.804  10.440   0.318  0.0758  1.6382 -0.9354
 5636TIP3    H217791   1.698  10.333   0.312  2.3701 -0.9414  1.7341
 5637TIP3   OH217792   9.859   1.167   0.315 -0.4515 -0.4752 -0.5386
 5637TIP3    H117793   9.854   1.145   0.407  0.1256  1.4365  0.0051
 5637TIP3    H217794   9.823   1.256   0.309 -1.6670 -1.0336 -2.3656
 5638TIP3   OH217795   8.309   4.120   1.153  0.0382 -0.3682  0.5630
 5638TIP3    H117796   8.383   4.104   1.211 -0.1540 -2.2474  0.3698
 5638TIP3    H217797   8.289   4.034   1.116 -1.0540  0.4382 -0.8276
 5639TIP3   OH217798  10.266   8.879   0.961 -0.1815 -0.0774  0.0325
 5639TIP3    H117799  10.252   8.869   0.867  0.0996  0.7912 -0.1068
 5639TIP3    H217800  10.304   8.795   0.988 -1.3177 -0.7577 -0.4110
 5640TIP3   OH217801   5.541   4.805   9.475  0.4463  0.7949 -0.4980
 5640TIP3    H117802   5.581   4.720   9.495 -1.3635 -0.3876 -1.7056
 5640TIP3    H217803   5.616   4.861   9.453  1.5781 -0.8928 -1.1509
 5641TIP3   OH217804   9.340   6.531   0.815 -0.4639  0.0689  0.1761
 5641TIP3    H117805   9.245   6.533   0.808 -0.3729  0.0770 -1.4996
 5641TIP3    H217806   9.367   6.622   0.804 -0.2400 -0.0288 -0.1311
 5642TIP3   OH217807   2.321   1.527   7.273  0.2931 -0.2474 -0.3920
 5642TIP3    H117808   2.408   1.506   7.239  0.7923  0.2143  0.5582
 5642TIP3    H217809   2.336   1.600   7.334 -0.5439 -1.0567  0.8288
 5643TIP3   OH217810   3.703   6.656   4.889  0.7006 -0.0462 -0.8440
 5643TIP3    H117811   3.669   6.671   4.801 -0.5068 -1.0704 -0.5724
 5643TIP3    H217812   3.655   6.718   4.944 -0.4227 -1.1800 -0.5286
 5644TIP3   OH217813  10.608   8.990   6.552 -0.1871  0.6035  0.3584
 5644TIP3    H117814  10.669   9.062   6.534 -0.0766  0.4431  0.0781
 5644TIP3    H217815  10.658   8.929   6.606  0.0606  0.2538 -0.2486
 5645TIP3   OH217816   6.242   4.686   2.181  0.4369 -0.1687  0.4188
 5645TIP3    H117817   6.300   4.697   2.257 -0.7145 -0.8941  1.4413
 5645TIP3    H217818   6.279   4.612   2.133  1.0258  0.1264  0.4156
 5646TIP3   OH217819   3.268   7.847   6.425 -0.0403 -0.1478  0.1893
 5646TIP3    H117820   3.283   7.880   6.337  0.5239  0.5809  0.5472
 5646TIP3    H217821   3.352   7.858   6.470  0.0475 -1.6757  0.4699
 5647TIP3   OH217822   4.130   7.877  10.172 -0.0610  0.5434 -0.3694
 5647TIP3    H117823   4.050   7.877  10.120  0.6740 -0.8531 -1.5534
 5647TIP3    H217824   4.105   7.919  10.254 -2.1817 -0.4609 -0.4415
 5648TIP3   OH217825   8.184   8.333   7.611 -0.6752 -0.1261 -0.0599
 5648TIP3    H117826   8.123   8.397   7.649 -1.3003  0.0666 -1.3537
 5648TIP3    H217827   8.271   8.366   7.636 -1.0427  0.4163  0.5324
 5649TIP3   OH217828  10.483   0.223   5.585  0.3043 -0.3829 -0.5674
 5649TIP3    H117829  10.495   0.158   5.654 -0.1143  0.1459  0.0243
 5649TIP3    H217830  10.388   0.235   5.580  0.1999 -1.6100 -2.3842
 5650TIP3   OH217831   3.551   0.906   6.764  0.2403  0.0256  0.4964
 5650TIP3    H117832   3.564   0.989   6.809 -1.1528  0.3744  0.3012
 5650TIP3    H217833   3.525   0.930   6.675  0.8635 -0.6309  0.1273
 5651TIP3   OH217834   8.241   3.524   0.146  0.1248 -0.4152  0.6314
 5651TIP3    H117835   8.288   3.461   0.201 -0.6393 -0.8684  0.7841
 5651TIP3    H217836   8.241   3.605   0.197  1.4285 -0.1720  0.2777
 5652TIP3   OH217837   7.857   1.559   3.036  0.1074  0.0153  0.0415
 5652TIP3    H117838   7.804   1.573   2.957 -2.0951  2.9955  1.7997
 5652TIP3    H217839   7.802   1.506   3.093 -0.0912  1.1864  0.9995
 5653TIP3   OH217840  10.625   0.024   9.758  0.4110  0.2356 -0.1488
 5653TIP3    H117841  10.596   0.093   9.699  1.5871  0.5570 -0.3757
 5653TIP3    H217842  10.593   0.051   9.844 -0.6512  0.1551 -0.5094
 5654TIP3   OH217843   1.460   5.853   4.582 -0.0096  0.1974  0.0667
 5654TIP3    H117844   1.481   5.767   4.544  1.0227  0.4980 -0.0650
 5654TIP3    H217845   1.545   5.894   4.597 -0.4315  0.6096  1.5167
 5655TIP3   OH217846   1.425   8.455   9.531 -0.2882 -0.2216 -0.0966
 5655TIP3    H117847   1.409   8.547   9.509 -0.9792 -0.2083  0.4186
 5655TIP3    H217848   1.515   8.440   9.505 -0.5016  0.2955 -1.2025
 5656TIP3   OH217849   7.439   8.810   5.292 -0.3262  0.3113 -0.3169
 5656TIP3    H117850   7.495   8.732   5.290  0.1591  0.6584 -1.7139
 5656TIP3    H217851   7.443   8.841   5.382 -1.1583 -1.7063  0.4865
 5657TIP3   OH217852   0.146   4.280   8.233  0.1873  0.0547  0.1672
 5657TIP3    H117853   0.114   4.198   8.195  0.7248 -0.5553  0.9913
 5657TIP3    H217854   0.234   4.289   8.198  1.3967 -1.4568  2.5554
 5658TIP3   OH217855  10.872   9.112   7.360 -0.1409 -0.1729  0.4345
 5658TIP3    H117856  10.796   9.167   7.343 -0.6348 -0.6092  1.1922
 5658TIP3    H217857  10.838   9.023   7.359  0.2433 -0.3366  1.3928
 5659TIP3   OH217858   1.374   3.419   5.293  0.3249  0.6263  0.4191
 5659TIP3    H117859   1.434   3.381   5.229  2.1436  1.1481  1.7115
 5659TIP3    H217860   1.357   3.508   5.261  1.4753  0.9938  0.7632
 5660TIP3   OH217861   3.242   4.107   0.591  0.2421 -0.3064 -0.0932
 5660TIP3    H117862   3.200   4.032   0.550 -1.6182  0.3982  0.4097
 5660TIP3    H217863   3.252   4.171   0.519 -0.2335 -0.2001 -0.0653
 5661TIP3   OH217864   0.380   5.174   1.831 -0.3205  0.1838  0.8170
 5661TIP3    H117865   0.455   5.119   1.809 -0.5444 -0.2830  1.1851
 5661TIP3    H217866   0.330   5.122   1.894 -2.1822 -0.5419 -1.1029
 5662TIP3   OH217867   2.286  10.182   0.345 -0.4686  0.5776 -0.3861
 5662TIP3    H117868   2.296  10.241   0.420 -1.5110  0.0000  0.2283
 5662TIP3    H217869   2.323  10.231   0.271 -0.6725  1.7212  0.2418
 5663TIP3   OH217870   3.256   8.252   4.303  0.2908 -0.0449 -0.7167
 5663TIP3    H117871   3.209   8.245   4.386 -0.2052 -0.0331 -0.9960
 5663TIP3    H217872   3.260   8.346   4.285  1.3838  0.0441 -0.1552
 5664TIP3   OH217873   8.014   5.753  10.202 -0.5890 -0.8366 -0.0102
 5664TIP3    H117874   7.999   5.726  10.292  1.6126  0.5310  0.8499
 5664TIP3    H217875   8.006   5.849  10.204  0.1418 -0.7370 -1.1086
 5665TIP3   OH217876   7.783   9.929   2.285 -0.2719  0.0230 -0.2599
 5665TIP3    H117877   7.799   9.848   2.237  0.2537  0.6387 -1.1345
 5665TIP3    H217878   7.813   9.998   2.227  1.8368  0.7238  1.5062
 5666TIP3   OH217879  10.557   8.907   2.657  0.0382  0.7319  0.4659
 5666TIP3    H117880  10.521   8.829   2.699  0.4364  1.0431  1.4347
 5666TIP3    H217881  10.482   8.949   2.615 -0.2032 -0.0805  0.0781
 5667TIP3   OH217882   6.798   0.296   3.847 -0.1353 -0.3966  0.5649
 5667TIP3    H117883   6.707   0.281   3.871  0.1111 -0.1046  1.7500
 5667TIP3    H217884   6.820   0.380   3.887  0.0012  0.6929 -1.6444
 5668TIP3   OH217885   9.944   4.806   4.036 -0.1306  0.2956 -1.1402
 5668TIP3    H117886   9.977   4.890   4.003  0.6323  0.8222  0.8448
 5668TIP3    H217887   9.849   4.816   4.036 -0.0662  0.9705 -1.3635
 5669TIP3   OH217888   6.477   3.029   0.249 -0.8927 -0.6473  0.1492
 5669TIP3    H117889   6.437   2.956   0.296 -0.7359 -1.3682 -0.8212
 5669TIP3    H217890   6.507   2.992   0.166 -0.5140  0.4451 -0.2264
 5670TIP3   OH217891   8.179   3.792   5.679 -0.2846  0.2059  0.2943
 5670TIP3    H117892   8.106   3.833   5.632  0.5080  0.2459 -0.9279
 5670TIP3    H217893   8.163   3.814   5.771 -1.1768  1.2048 -0.0800
 5671TIP3   OH217894   8.354   1.526   4.774 -0.1708 -0.4079  0.0187
 5671TIP3    H117895   8.284   1.578   4.814  0.0133  2.3766 -2.8177
 5671TIP3    H217896   8.330   1.435   4.792 -4.4619  0.3855 -0.6075
 5672TIP3   OH217897   7.139   1.542   4.747 -0.5866  0.2032 -0.1731
 5672TIP3    H117898   7.115   1.475   4.812 -1.2920 -0.1416 -0.7783
 5672TIP3    H217899   7.210   1.591   4.789 -1.3912  0.3313  1.0729
 5673TIP3   OH217900   1.191   2.551   3.087  0.7347  0.1146 -0.6704
 5673TIP3    H117901   1.110   2.545   3.035 -0.5206 -0.7031  1.2665
 5673TIP3    H217902   1.259   2.518   3.029 -0.6592 -1.0674 -1.7232
 5674TIP3   OH217903   1.152   6.468   0.737 -0.6817 -0.2808  0.0232
 5674TIP3    H117904   1.169   6.392   0.793 -0.5991  0.2938  0.8000
 5674TIP3    H217905   1.215   6.534   0.767 -1.8318  0.6444  0.4839
 5675TIP3   OH217906   1.107   2.750   5.439  0.2462 -0.1736  0.3920
 5675TIP3    H117907   1.156   2.717   5.514 -1.5272 -2.3840  0.6876
 5675TIP3    H217908   1.046   2.813   5.476  0.9061  0.4559  0.4339
 5676TIP3   OH217909   5.705  10.122   4.231 -0.3852 -0.0356  0.5870
 5676TIP3    H117910   5.654  10.202   4.244 -0.3205 -0.4143  4.3577
 5676TIP3    H217911   5.779  10.131   4.291  1.4284 -1.5643 -1.2861
 5677TIP3   OH217912   4.380   8.176   7.603 -0.3526 -1.0460 -0.6924
 5677TIP3    H117913   4.455   8.226   7.635  0.5039 -1.9846 -1.1645
 5677TIP3    H217914   4.308   8.200   7.661  0.0857  0.5349 -0.7544
 5678TIP3   OH217915   0.259   7.818   6.830  0.6128  0.0633 -0.2173
 5678TIP3    H117916   0.312   7.814   6.751 -0.7595  0.3738 -1.2071
 5678TIP3    H217917   0.179   7.771   6.807 -1.0807  2.6568 -0.0881
 5679TIP3   OH217918   9.359   7.270   2.388  0.5830  0.2017 -1.2387
 5679TIP3    H117919   9.297   7.330   2.431  1.3771  0.9612 -1.1287
 5679TIP3    H217920   9.317   7.184   2.393  0.5204  0.3099  0.7997
 5680TIP3   OH217921   7.699   6.859   6.624 -0.4230 -0.2150  0.1013
 5680TIP3    H117922   7.750   6.940   6.615  1.1894 -1.3665 -1.9302
 5680TIP3    H217923   7.729   6.821   6.706  0.6169  0.0806 -0.1259
 5681TIP3   OH217924   7.522   4.442  10.621  0.5514  0.0741  0.1221
 5681TIP3    H117925   7.532   4.485  10.536 -2.0829 -1.5660 -1.1600
 5681TIP3    H217926   7.608   4.403  10.638  1.1034  0.2983 -1.8945
 5682TIP3   OH217927   1.720   9.752   5.278 -0.3955  0.2084  0.3440
 5682TIP3    H117928   1.715   9.802   5.196 -1.7767 -1.9785 -1.0033
 5682TIP3    H217929   1.646   9.784   5.330 -0.9731 -0.0864 -0.2950
 5683TIP3   OH217930   8.445   8.323   6.025 -0.4909  0.4178  0.2079
 5683TIP3    H117931   8.424   8.374   5.946 -1.5065  1.2001  0.9544
 5683TIP3    H217932   8.431   8.232   5.999  0.3512  0.5694 -0.8541
 5684TIP3   OH217933   3.470   4.341   0.553 -0.3092 -0.2338 -0.7254
 5684TIP3    H117934   3.494   4.252   0.578  0.3859 -0.2908 -1.5352
 5684TIP3    H217935   3.553   4.381   0.526 -0.7852  0.3125 -1.4017
 5685TIP3   OH217936   2.736  10.226   3.934  0.1060 -0.1136  0.7687
 5685TIP3    H117937   2.767  10.227   4.024  2.6538  0.2702 -0.0070
 5685TIP3    H217938   2.653  10.274   3.936 -0.4444 -1.0426  3.0284
 5686TIP3   OH217939   1.291   8.928   8.001  0.5341  0.1794  0.6642
 5686TIP3    H117940   1.355   8.960   7.938  0.3040  0.4118  0.5469
 5686TIP3    H217941   1.311   8.975   8.082  2.5396 -2.0038  1.5762
 5687TIP3   OH217942   4.786   4.319   0.402 -0.2239  0.5858 -0.2772
 5687TIP3    H117943   4.750   4.406   0.418 -1.0788  0.2687 -0.4359
 5687TIP3    H217944   4.775   4.273   0.486 -0.2625  0.4630 -0.3493
 5688TIP3   OH217945   6.805   1.080   7.347  0.0545  0.1257  0.0930
 5688TIP3    H117946   6.829   1.160   7.394  0.6457  0.5932 -0.9485
 5688TIP3    H217947   6.844   1.009   7.398  1.1376  0.6592  0.0348
 5689TIP3   OH217948   4.234   3.885   8.578  0.2758  0.3133  0.5481
 5689TIP3    H117949   4.207   3.924   8.662 -1.3214 -0.3516  0.3804
 5689TIP3    H217950   4.279   3.956   8.532 -0.7836  1.3739  1.0809
 5690TIP3   OH217951   9.524   7.019  10.646 -0.4426  0.0657  0.3490
 5690TIP3    H117952   9.483   7.102  10.626  0.4250  0.1788 -1.0891
 5690TIP3    H217953   9.617   7.033  10.630 -0.3912 -1.4318 -0.8752
 5691TIP3   OH217954   7.186   1.406   6.790 -1.1710  0.0766  0.9500
 5691TIP3    H117955   7.199   1.323   6.743  0.6905  0.2953  0.9909
 5691TIP3    H217956   7.200   1.473   6.724 -0.5501  0.3681  1.3683
 5692TIP3   OH217957   8.430   6.219   0.270  0.4509 -0.4426 -0.0718
 5692TIP3    H117958   8.454   6.304   0.306  1.3067 -0.7268  0.0516
 5692TIP3    H217959   8.341   6.231   0.237  1.2058  1.0302 -1.7074
 5693TIP3   OH217960   1.170   7.881   0.023  0.6373  0.3956 -0.0721
 5693TIP3    H117961   1.201   7.832  -0.053 -1.6143 -0.1770 -0.7168
 5693TIP3    H217962   1.193   7.972   0.005  2.0632 -0.0024 -0.3647
 5694TIP3   OH217963   8.238   8.017   7.759 -0.2699  0.2617  0.0726
 5694TIP3    H117964   8.315   8.059   7.722 -0.6275  0.6695 -0.2167
 5694TIP3    H217965   8.271   7.968   7.835 -0.0830  2.4052  1.4576
 5695TIP3   OH217966   1.970   3.062   1.218  0.3446  0.2786  0.9251
 5695TIP3    H117967   1.899   2.998   1.218  0.5544 -0.0232 -1.0485
 5695TIP3    H217968   2.047   3.013   1.187  0.2758  1.6250 -1.6617
 5696TIP3   OH217969   9.909   1.629  10.457 -0.1738 -0.0927  0.5404
 5696TIP3    H117970   9.969   1.657  10.526  0.4581  0.8177 -0.3506
 5696TIP3    H217971   9.965   1.592  10.389 -0.7282 -0.3266  0.2007
 5697TIP3   OH217972   2.977   1.476   0.530  0.5956  0.2731  0.2244
 5697TIP3    H117973   2.981   1.475   0.626  0.1425 -2.1310  0.2785
 5697TIP3    H217974   2.914   1.408   0.508 -1.5321  2.6627 -1.7703
 5698TIP3   OH217975  10.113  10.304   2.471  0.0179  0.6249  0.0256
 5698TIP3    H117976  10.066  10.300   2.555 -1.3777  1.7055 -0.6587
 5698TIP3    H217977  10.149  10.217   2.459  1.0950  0.6988  2.2155
 5699TIP3   OH217978   6.894   4.150  10.508  0.0722  0.2767  0.0736
 5699TIP3    H117979   6.860   4.155  10.418  0.8544  0.8667 -0.2083
 5699TIP3    H217980   6.833   4.203  10.560  0.5499  1.3705 -0.4320
 5700TIP3   OH217981   3.232   6.229   2.880  0.1624 -0.6155  0.0713
 5700TIP3    H117982   3.226   6.163   2.949  2.4177  0.3284  1.2859
 5700TIP3    H217983   3.214   6.312   2.925 -1.7819 -0.2856 -1.2429
 5701TIP3   OH217984   8.200   6.536   3.124 -0.2047  0.5605 -0.1500
 5701TIP3    H117985   8.144   6.583   3.187 -0.1804 -0.7762  0.9180
 5701TIP3    H217986   8.152   6.456   3.104  1.2768 -0.6228  0.7818
 5702TIP3   OH217987  10.035   3.470   7.334 -0.8205 -0.2437 -0.4209
 5702TIP3    H117988  10.052   3.382   7.367 -1.0963  0.3060  1.2707
 5702TIP3    H217989  10.121   3.502   7.306  0.2814  0.5983  3.2873
 5703TIP3   OH217990   5.636   7.023   9.787  0.6022 -0.1040 -0.0259
 5703TIP3    H117991   5.621   6.974   9.706  1.4375 -1.9144  0.8548
 5703TIP3    H217992   5.549   7.050   9.815  0.3924  1.7077 -2.1608
 5704TIP3   OH217993   3.600   4.835   2.573 -0.2913 -0.3575 -0.2055
 5704TIP3    H117994   3.589   4.856   2.666 -0.2223  0.3235 -0.3512
 5704TIP3    H217995   3.548   4.901   2.527 -0.5977 -0.8940 -0.6436
 5705TIP3   OH217996   7.571   7.266   7.005 -0.2831 -0.0600 -0.0173
 5705TIP3    H117997   7.489   7.308   6.979 -0.9751 -2.2854 -1.8530
 5705TIP3    H217998   7.546   7.207   7.076 -0.4060 -0.9791 -0.7935
 5706TIP3   OH217999   2.134   3.511   7.938 -0.8028  0.3020 -0.2073
 5706TIP3    H118000   2.175   3.585   7.982 -2.0702  1.2696 -0.6148
 5706TIP3    H218001   2.117   3.448   8.007  0.7545  0.1481  0.0665
 5707TIP3   OH218002   9.872   7.205   7.901  0.0517 -0.5000 -0.7370
 5707TIP3    H118003   9.957   7.238   7.930  1.4309 -2.7826 -1.8966
 5707TIP3    H218004   9.845   7.143   7.969 -1.0182  0.5967 -0.1042
 5708TIP3   OH218005   0.734   0.593   4.078 -0.0195  0.3417  0.5351
 5708TIP3    H118006   0.667   0.589   4.146 -1.6169  0.3865 -0.9503
 5708TIP3    H218007   0.751   0.687   4.067 -0.6125  0.4046  0.1042
 5709TIP3   OH218008   5.829   2.255   3.493 -0.1539 -0.2560  0.3344
 5709TIP3    H118009   5.733   2.251   3.490 -0.2061  1.0674 -0.5158
 5709TIP3    H218010   5.857   2.177   3.444 -0.8403  0.5293 -1.3917
 5710TIP3   OH218011   4.083   8.534   2.053 -0.5369 -0.1344  0.2505
 5710TIP3    H118012   4.037   8.452   2.032  0.1170 -1.2940  2.9085
 5710TIP3    H218013   4.020   8.584   2.105  0.5198 -1.0986  2.6495
 5711TIP3   OH218014   8.446   2.089   1.849  0.1049  0.2889  0.0203
 5711TIP3    H118015   8.478   2.047   1.929 -0.1112  0.0311 -0.0251
 5711TIP3    H218016   8.523   2.132   1.812  0.6182 -1.0540 -0.5496
 5712TIP3   OH218017   9.389  10.246   4.291 -0.3993  0.0576 -0.9241
 5712TIP3    H118018   9.429  10.270   4.375 -0.5210 -0.3241 -0.7564
 5712TIP3    H218019   9.463  10.235   4.232 -0.1694 -1.7046 -0.3466
 5713TIP3   OH218020   7.494   2.704   9.193  0.1696 -0.3609  0.3560
 5713TIP3    H118021   7.444   2.636   9.239 -0.8814 -0.2900 -0.6494
 5713TIP3    H218022   7.437   2.733   9.122  1.9314 -0.7969 -1.3154
 5714TIP3   OH218023   2.856   5.670   7.409  0.1611  0.1668 -0.2586
 5714TIP3    H118024   2.854   5.575   7.397 -0.2692  0.2188 -0.6130
 5714TIP3    H218025   2.945   5.689   7.439 -0.1686 -0.5183  1.2734
 5715TIP3   OH218026   4.441   3.126   8.572  0.2212 -0.2371 -0.4409
 5715TIP3    H118027   4.458   3.073   8.494  1.6209  0.5084 -0.6659
 5715TIP3    H218028   4.462   3.068   8.646 -0.3816 -0.6972 -0.6256
 5716TIP3   OH218029   6.798   5.307   2.612 -0.3955  0.0962 -0.4407
 5716TIP3    H118030   6.709   5.338   2.631  0.0638  0.8575  0.5237
 5716TIP3    H218031   6.855   5.367   2.659  0.5680 -1.6840  0.7552
 5717TIP3   OH218032   3.750   2.141   7.491  0.1787  0.7765 -0.0002
 5717TIP3    H118033   3.655   2.129   7.481  0.0989  1.3663  0.0489
 5717TIP3    H218034   3.782   2.056   7.521 -0.4263  0.7742  0.6453
 5718TIP3   OH218035   2.529   4.357   7.287 -0.0585 -0.4717  0.7149
 5718TIP3    H118036   2.608   4.404   7.313  0.2581 -0.2976 -0.5078
 5718TIP3    H218037   2.551   4.316   7.203 -1.1241 -0.7742  0.5610
 5719TIP3   OH218038   8.518   5.515   6.515  0.2803  0.4326 -0.0409
 5719TIP3    H118039   8.456   5.585   6.536  1.3676  1.0607  1.1578
 5719TIP3    H218040   8.473   5.435   6.542  0.9383  1.0542  3.3666
 5720TIP3   OH218041   2.637   7.600   3.542  0.0389 -0.4966  0.4799
 5720TIP3    H118042   2.692   7.632   3.471  0.8719  0.0279  1.3502
 5720TIP3    H218043   2.556   7.651   3.534 -0.6907 -1.7881 -1.2628
 5721TIP3   OH218044   1.752   6.043   5.492 -0.1420 -1.0477 -0.5239
 5721TIP3    H118045   1.726   5.974   5.554  1.0956  0.3326  1.6518
 5721TIP3    H218046   1.842   6.063   5.515 -0.2192  0.7665 -1.6219
 5722TIP3   OH218047  10.745   7.349   1.666 -0.6256 -0.4500  0.4038
 5722TIP3    H118048  10.838   7.370   1.654 -0.9339  1.7684  1.4852
 5722TIP3    H218049  10.723   7.294   1.590  1.0564  0.6881 -0.9812
 5723TIP3   OH218050   1.495  10.513   2.121  0.2188 -0.4221 -0.5394
 5723TIP3    H118051   1.476  10.422   2.102  1.2595 -0.8010  0.1571
 5723TIP3    H218052   1.585  10.513   2.152  0.3916  0.9092 -0.9676
 5724TIP3   OH218053   7.497   1.468   3.517 -0.0150 -0.2724  0.4785
 5724TIP3    H118054   7.504   1.560   3.492  0.6196  0.4476  2.9480
 5724TIP3    H218055   7.511   1.419   3.436 -1.0047  1.7838 -1.0222
 5725TIP3   OH218056   2.023   3.195  10.330  0.3947  0.3161  0.4964
 5725TIP3    H118057   1.946   3.163  10.282  1.0974  0.6467 -0.8709
 5725TIP3    H218058   2.056   3.117  10.374 -0.3875  0.0512  0.6425
 5726TIP3   OH218059   0.219   9.743   8.988 -0.2324 -0.2009 -0.0098
 5726TIP3    H118060   0.152   9.693   8.942 -0.9799 -1.6333  2.4142
 5726TIP3    H218061   0.294   9.684   8.993 -0.1214 -0.0291  0.4477
 5727TIP3   OH218062  10.381   4.808   8.372  0.0617 -0.1775  0.5157
 5727TIP3    H118063  10.475   4.804   8.353 -0.0151 -1.5875  0.3214
 5727TIP3    H218064  10.339   4.789   8.288 -0.4166  0.7214  0.5395
 5728TIP3   OH218065   8.570   2.014   7.716  0.0442 -0.3160 -0.0686
 5728TIP3    H118066   8.561   2.037   7.624  0.9958 -1.0720 -0.3685
 5728TIP3    H218067   8.482   2.026   7.753 -0.1747  0.7530 -0.8804
 5729TIP3   OH218068   6.829   0.261   6.625 -0.1608  0.1656 -0.4961
 5729TIP3    H118069   6.821   0.189   6.688  4.0900 -0.0436  0.1326
 5729TIP3    H218070   6.856   0.336   6.678  1.9986  0.3784 -1.7802
 5730TIP3   OH218071  10.537   6.051   6.742  0.0995  0.4378  0.1438
 5730TIP3    H118072  10.495   6.001   6.672 -1.6111  1.5312  0.3143
 5730TIP3    H218073  10.613   5.999   6.767 -2.1505 -2.6806  1.1233
 5731TIP3   OH218074   5.394   0.545   0.351 -0.0168  0.4993  0.9213
 5731TIP3    H118075   5.477   0.497   0.360 -0.5404 -0.9402 -1.1813
 5731TIP3    H218076   5.330   0.489   0.396 -0.6419 -0.9838 -1.5981
 5732TIP3   OH218077   7.110  10.735   4.007  0.0974 -0.3556 -0.1053
 5732TIP3    H118078   7.077  10.762   4.093 -2.7483  0.0191 -1.1965
 5732TIP3    H218079   7.137  10.817   3.965 -2.8306  0.1793 -1.1660
 5733TIP3   OH218080   5.949   1.684   3.343 -0.1359 -0.4054  0.4362
 5733TIP3    H118081   5.859   1.702   3.370  0.2023  0.8871  0.7468
 5733TIP3    H218082   5.975   1.759   3.290  0.2607 -1.4820 -0.9639
 5734TIP3   OH218083   8.790  10.632   9.617  0.6492 -0.7145  0.4811
 5734TIP3    H118084   8.848  10.693   9.663  0.1690  0.5889 -0.5744
 5734TIP3    H218085   8.706  10.642   9.661  0.0639  0.9011 -0.9470
 5735TIP3   OH218086   1.868  10.270   0.103  0.6368 -0.6617  0.1130
 5735TIP3    H118087   1.952  10.316   0.106  0.1716  0.2289 -0.1831
 5735TIP3    H218088   1.814  10.321   0.042 -0.2411 -1.0100  0.5701
 5736TIP3   OH218089   7.476   2.662  10.760  1.0658 -0.4392 -0.9035
 5736TIP3    H118090   7.499   2.754  10.747 -0.1990  0.1470  0.7225
 5736TIP3    H218091   7.558   2.620  10.784  1.2519  0.7688  0.7208
 5737TIP3   OH218092  10.240   8.608   9.212 -0.7432 -0.5698  0.2964
 5737TIP3    H118093  10.245   8.596   9.306 -1.3136  0.0192  0.4051
 5737TIP3    H218094  10.246   8.520   9.176  2.4428 -0.6469  0.7225
 5738TIP3   OH218095   9.556   4.167   8.168  0.6099  0.1171  0.1541
 5738TIP3    H118096   9.502   4.151   8.246  1.7696 -1.3922  0.7071
 5738TIP3    H218097   9.537   4.257   8.143 -2.0882 -0.3110  0.3721
 5739TIP3   OH218098   0.397   4.140   7.359 -0.1308 -0.4330  0.7704
 5739TIP3    H118099   0.378   4.101   7.274 -1.8277 -1.8358  1.7363
 5739TIP3    H218100   0.486   4.109   7.379  0.1648 -0.3512 -0.3215
 5740TIP3   OH218101   0.308   8.910   5.108 -0.2895 -0.8630  0.2163
 5740TIP3    H118102   0.325   8.937   5.018 -0.4259 -0.2582  0.3681
 5740TIP3    H218103   0.233   8.962   5.135 -1.0289 -1.9184  0.2825
 5741TIP3   OH218104   8.915   5.431   6.447  0.8999 -0.1370 -0.4635
 5741TIP3    H118105   8.950   5.351   6.487  0.5465  0.1331  0.4031
 5741TIP3    H218106   8.857   5.467   6.513  1.1503  0.9133 -0.8063
 5742TIP3   OH218107   3.133   3.735   7.586 -0.1761 -0.0473  0.2765
 5742TIP3    H118108   3.049   3.777   7.604  0.8782  1.7525  1.3389
 5742TIP3    H218109   3.174   3.792   7.521 -0.3003 -1.6942 -1.3434
 5743TIP3   OH218110   3.423   1.679   5.721  0.3244  1.2748 -0.2148
 5743TIP3    H118111   3.504   1.642   5.687 -1.2805 -2.3778 -0.5258
 5743TIP3    H218112   3.379   1.715   5.644  0.5534  0.9896 -0.4844
 5744TIP3   OH218113   1.258   1.677   6.921 -0.7282 -0.0463 -0.1420
 5744TIP3    H118114   1.281   1.674   7.014 -2.2563 -3.4725  0.2813
 5744TIP3    H218115   1.256   1.770   6.900  0.1915  0.8405  3.0930
 5745TIP3   OH218116   3.145   8.067   7.778 -0.0206 -0.2632 -0.1088
 5745TIP3    H118117   3.077   8.000   7.769 -0.0617 -0.0897 -1.3650
 5745TIP3    H218118   3.216   8.024   7.823 -0.2669 -0.9949 -0.4059
 5746TIP3   OH218119   0.946   2.916   7.932  0.0826  0.0492 -0.0479
 5746TIP3    H118120   0.991   2.991   7.971 -0.1344  0.6982 -0.9861
 5746TIP3    H218121   0.899   2.876   8.005  0.7018  0.4600  0.5899
 5747TIP3   OH218122   3.241   7.733   1.778 -0.0709  0.1599 -0.3626
 5747TIP3    H118123   3.182   7.658   1.771 -0.7153  0.4448  1.4816
 5747TIP3    H218124   3.320   7.697   1.819  0.1417  0.2375 -0.7013
 5748TIP3   OH218125  10.586   8.462   1.443  0.2939  0.3991  0.1290
 5748TIP3    H118126  10.629   8.532   1.395  0.1315  1.3604  1.3278
 5748TIP3    H218127  10.647   8.387   1.436  0.2882  0.5241 -1.4720
 5749TIP3   OH218128  10.162   7.328   6.681 -0.0150  0.1163 -0.2858
 5749TIP3    H118129  10.172   7.233   6.690  0.8716  0.3108  0.9806
 5749TIP3    H218130  10.200   7.364   6.761 -0.0349  1.5620 -0.8988
 5750TIP3   OH218131  10.277   3.374  10.325  0.6913 -0.7678 -0.4601
 5750TIP3    H118132  10.332   3.307  10.367  0.9574 -0.3144 -0.0726
 5750TIP3    H218133  10.194   3.370  10.371  1.3163  0.4353  0.8474
 5751TIP3   OH218134   7.979   2.463   8.151  0.1206  0.2433  0.4573
 5751TIP3    H118135   8.036   2.391   8.178  0.4075  0.4294  0.3513
 5751TIP3    H218136   8.013   2.539   8.198  1.6564  0.9372 -1.6373
 5752TIP3   OH218137  10.076   9.361   4.783  0.9069 -0.4570 -0.7094
 5752TIP3    H118138  10.094   9.315   4.701  0.3712 -0.8533 -0.6046
 5752TIP3    H218139  10.078   9.293   4.850  0.5703 -0.2527 -0.4939
 5753TIP3   OH218140   0.145   3.892   5.604  0.4227  0.5381  0.8966
 5753TIP3    H118141   0.122   3.804   5.572  1.2688  0.9157 -0.8674
 5753TIP3    H218142   0.100   3.899   5.688 -1.8730 -0.5574 -0.1661
 5754TIP3   OH218143   2.546   0.817   3.133 -0.2544  0.2931  0.5008
 5754TIP3    H118144   2.574   0.800   3.043 -0.3294  1.2802  0.2800
 5754TIP3    H218145   2.627   0.827   3.182 -0.2157 -0.0035  0.5007
 5755TIP3   OH218146   5.135  10.892   4.254 -0.3281  0.3715 -0.2822
 5755TIP3    H118147   5.189  10.842   4.192 -0.6882 -0.3626 -0.0165
 5755TIP3    H218148   5.177  10.876   4.339 -1.4884 -0.9825  0.0673
 5756TIP3   OH218149   8.424   5.194   0.957 -0.0289 -0.6687 -0.2794
 5756TIP3    H118150   8.399   5.218   0.868 -0.9031 -1.8286 -0.3659
 5756TIP3    H218151   8.441   5.100   0.954 -1.4116 -1.0221  1.0220
 5757TIP3   OH218152   2.323   3.428   1.642  0.5651 -0.0958  0.2686
 5757TIP3    H118153   2.273   3.452   1.720 -1.5710 -0.3104 -0.9624
 5757TIP3    H218154   2.323   3.332   1.642  0.5313 -0.0981  0.0083
 5758TIP3   OH218155   8.468   3.101  10.671  0.3861 -0.3479  0.0302
 5758TIP3    H118156   8.528   3.039  10.711  0.5499  1.3349  2.5755
 5758TIP3    H218157   8.396   3.047  10.639  1.0538 -1.9465  1.0972
 5759TIP3   OH218158   2.603   6.744   3.437  0.0691  0.4375 -0.2686
 5759TIP3    H118159   2.642   6.808   3.378 -0.4427  1.2673  0.2722
 5759TIP3    H218160   2.554   6.796   3.500  0.0528 -0.4681  0.4891
 5760TIP3   OH218161   8.116  10.193  10.688  0.4725  0.1286 -0.3637
 5760TIP3    H118162   8.090  10.261  10.751 -1.1738 -2.2191  1.6597
 5760TIP3    H218163   8.056  10.206  10.614 -1.7145 -0.7075  1.1694
 5761TIP3   OH218164   5.210   0.560   1.624  0.1591  0.1960 -0.0673
 5761TIP3    H118165   5.196   0.564   1.529 -0.7641  0.0382  0.0529
 5761TIP3    H218166   5.294   0.603   1.637  0.1676  0.4719 -0.9296
 5762TIP3   OH218167   6.681   2.761  10.054  0.1532  0.0217 -0.0240
 5762TIP3    H118168   6.715   2.790  10.139 -1.7468 -0.1699  0.8658
 5762TIP3    H218169   6.588   2.744  10.071  0.1252 -1.8235 -1.7134
 5763TIP3   OH218170   0.045   2.436   1.606  0.0892 -0.0955  0.1113
 5763TIP3    H118171   0.106   2.475   1.543  0.2808 -1.1746 -0.3919
 5763TIP3    H218172   0.102   2.396   1.672 -0.0956  0.0937  0.3867
 5764TIP3   OH218173   5.572   3.713   1.837  0.0996  0.5378 -0.4072
 5764TIP3    H118174   5.480   3.687   1.827  0.6562 -1.6357 -0.4655
 5764TIP3    H218175   5.610   3.702   1.750  0.3210  1.9289 -0.5040
 5765TIP3   OH218176   0.561   0.001   9.880 -0.1042 -0.7949  0.7663
 5765TIP3    H118177   0.650  -0.026   9.901  0.0999  1.3756  3.2893
 5765TIP3    H218178   0.509  -0.028   9.956 -1.0324  0.2316  0.5434
 5766TIP3   OH218179   9.112   0.639   0.719 -0.3234 -0.0707 -0.0381
 5766TIP3    H118180   9.149   0.619   0.805 -0.0374 -0.3354 -0.2211
 5766TIP3    H218181   9.077   0.556   0.688  0.3236 -0.1653 -0.5404
 5767TIP3   OH218182   7.667   6.028  10.148  0.5278 -0.0252  0.3324
 5767TIP3    H118183   7.608   6.101  10.168 -0.6897 -1.2381  1.3700
 5767TIP3    H218184   7.728   6.026  10.222  0.3182 -0.2770  0.5024
 5768TIP3   OH218185   1.461   3.492   1.996  0.1611 -0.0483  0.1057
 5768TIP3    H118186   1.405   3.527   1.926  1.1667 -0.8474 -1.1501
 5768TIP3    H218187   1.414   3.513   2.077 -0.8735  1.2175 -0.7735
 5769TIP3   OH218188   8.115   8.581   0.820 -0.2503 -0.4163 -0.9723
 5769TIP3    H118189   8.071   8.656   0.860  1.1097  0.3356 -0.8316
 5769TIP3    H218190   8.061   8.560   0.743 -0.4761  0.9305 -1.2117
 5770TIP3   OH218191   4.674   8.743   6.501 -0.1343  0.0255  0.7602
 5770TIP3    H118192   4.680   8.816   6.562  1.1163 -0.2362  0.9805
 5770TIP3    H218193   4.693   8.782   6.415 -1.8518  0.3855  0.4991
 5771TIP3   OH218194  10.243   2.265   9.884 -0.2209 -0.0703  0.5900
 5771TIP3    H118195  10.167   2.320   9.867  1.3641  1.6069 -1.6587
 5771TIP3    H218196  10.252   2.211   9.806  0.1906 -1.1564  1.3657
 5772TIP3   OH218197   0.867   4.450   3.030 -0.3648  0.1204  0.0460
 5772TIP3    H118198   0.849   4.483   2.942 -1.4204  2.9466  1.2126
 5772TIP3    H218199   0.959   4.473   3.046 -0.6092  1.0337  0.2093
 5773TIP3   OH218200   3.745   9.510   0.661 -0.6673  0.5209  0.9517
 5773TIP3    H118201   3.663   9.523   0.708 -1.2057 -0.6600  0.3837
 5773TIP3    H218202   3.775   9.598   0.639 -2.6687  0.9359 -0.3310
 5774TIP3   OH218203   1.519   7.480   3.333 -0.7060  0.2532 -0.0366
 5774TIP3    H118204   1.550   7.480   3.424  1.4199 -1.3505 -0.6815
 5774TIP3    H218205   1.532   7.570   3.303  1.3003  0.1649  0.4317
 5775TIP3   OH218206   2.764   1.286   3.727 -0.4674  0.4156 -0.4628
 5775TIP3    H118207   2.850   1.318   3.755 -0.3762  0.5719 -0.9147
 5775TIP3    H218208   2.782   1.201   3.687 -0.3548  0.9775 -1.6434
 5776TIP3   OH218209   8.579   7.368   0.135  0.6086 -0.1901 -0.2164
 5776TIP3    H118210   8.493   7.407   0.124  1.3352  1.4596 -0.2830
 5776TIP3    H218211   8.608   7.346   0.046  0.7098  0.2645 -0.2958
 5777TIP3   OH218212   6.300   1.412   8.693 -0.2698 -0.0057 -0.1464
 5777TIP3    H118213   6.249   1.435   8.771 -0.3893  2.2773 -0.8264
 5777TIP3    H218214   6.236   1.378   8.631 -0.8409  1.7889 -0.5892
 5778TIP3   OH218215   0.705   0.447   7.137 -0.0282  0.4359  0.4856
 5778TIP3    H118216   0.732   0.390   7.209 -0.7006  0.3188  0.6541
 5778TIP3    H218217   0.627   0.405   7.101 -1.3116  1.8873  1.4332
 5779TIP3   OH218218   9.325   9.266   2.269 -0.0857 -0.8607 -0.0045
 5779TIP3    H118219   9.335   9.239   2.178 -2.4724 -0.5775 -0.4007
 5779TIP3    H218220   9.311   9.361   2.265 -1.4606 -1.0223  0.5114
 5780TIP3   OH218221   4.892   8.745   3.240  0.3925  0.1041 -0.6985
 5780TIP3    H118222   4.930   8.684   3.177 -1.5875 -1.8667 -0.1213
 5780TIP3    H218223   4.821   8.789   3.191  0.2144  0.1205 -0.4287
 5781TIP3   OH218224   0.646   2.588   1.270 -0.0696  0.1721 -0.2312
 5781TIP3    H118225   0.572   2.537   1.237 -0.3881  0.7801 -0.4555
 5781TIP3    H218226   0.711   2.522   1.295 -1.2262 -0.4610  1.3130
 5782TIP3   OH218227   3.823   5.509   6.730 -0.3575  0.2811  0.7815
 5782TIP3    H118228   3.762   5.566   6.777 -0.6022 -0.8748  1.9279
 5782TIP3    H218229   3.884   5.478   6.797 -1.2204 -2.1011  0.5772
 5783TIP3   OH218230   4.322   1.539   2.476  1.0498 -0.3095 -0.2236
 5783TIP3    H118231   4.306   1.457   2.522  2.2089 -0.5667 -0.2355
 5783TIP3    H218232   4.413   1.560   2.497  0.5704  1.3426  0.3422
 5784TIP3   OH218233   0.341   5.727   2.740 -0.1991  0.0271  0.2012
 5784TIP3    H118234   0.337   5.750   2.833 -1.0090 -1.1457  0.4708
 5784TIP3    H218235   0.306   5.804   2.695  0.4000  0.6897  0.8398
 5785TIP3   OH218236   6.723   7.020   9.701 -0.1641 -0.4026  0.1679
 5785TIP3    H118237   6.794   6.988   9.646  0.0925  1.5319 -0.7160
 5785TIP3    H218238   6.643   6.997   9.652  0.0511  1.0147 -0.9159
 5786TIP3   OH218239   6.798  10.270   7.653 -0.3851  0.2268  0.1677
 5786TIP3    H118240   6.817  10.363   7.669  1.4052  0.0142 -0.4732
 5786TIP3    H218241   6.752  10.269   7.569 -1.0176  0.5746  0.5033
 5787TIP3   OH218242   0.369   7.481   1.888  0.2495 -0.2313 -0.3512
 5787TIP3    H118243   0.321   7.448   1.964  2.4228 -0.0461  1.2040
 5787TIP3    H218244   0.304   7.530   1.838 -1.6233 -1.6706  0.5369
 5788TIP3   OH218245  10.752   4.672   0.830  0.3463 -0.2243  0.0152
 5788TIP3    H118246  10.813   4.656   0.902  0.3370 -2.0288 -0.3220
 5788TIP3    H218247  10.666   4.656   0.868  0.1258  1.2241  0.1973
 5789TIP3   OH218248   6.205   4.280   7.165 -0.1913 -0.4160  0.2829
 5789TIP3    H118249   6.279   4.262   7.107  0.6810 -0.6328  1.4304
 5789TIP3    H218250   6.186   4.373   7.152 -0.9505 -0.7599 -1.3783
 5790TIP3   OH218251   5.975   6.108   5.645  0.0939 -0.6216 -0.6816
 5790TIP3    H118252   5.974   6.061   5.561 -1.0352 -0.2186 -0.9085
 5790TIP3    H218253   6.037   6.179   5.631 -1.8814  0.9694 -2.0833
 5791TIP3   OH218254   1.647   9.737   7.464  0.0783  0.2710 -0.2073
 5791TIP3    H118255   1.568   9.698   7.428 -1.7267  0.2504  3.3482
 5791TIP3    H218256   1.685   9.669   7.519  2.5340  0.3706 -1.6481
 5792TIP3   OH218257   1.428  10.452   5.204 -0.7425 -0.0938  0.5471
 5792TIP3    H118258   1.370  10.523   5.234 -2.5805 -1.3781  0.1685
 5792TIP3    H218259   1.404  10.377   5.257  1.5058 -0.3735  1.2567
 5793TIP3   OH218260   6.484   1.920  10.625 -0.0047  0.3102  0.5614
 5793TIP3    H118261   6.481   1.884  10.713  4.6859  1.5648  1.5036
 5793TIP3    H218262   6.462   2.013  10.636 -0.5976  0.2173  0.1866
 5794TIP3   OH218263   3.359   5.498   4.172  0.2491  0.2510 -0.4831
 5794TIP3    H118264   3.370   5.480   4.079  1.5166 -0.3459 -0.2295
 5794TIP3    H218265   3.437   5.462   4.214 -1.0189 -0.9269  1.0067
 5795TIP3   OH218266   8.217  10.123   0.860  0.1038  0.2168 -0.0064
 5795TIP3    H118267   8.245  10.032   0.845 -1.8644 -0.5820  0.7178
 5795TIP3    H218268   8.121  10.119   0.854 -0.1467  1.8731  1.8569
 5796TIP3   OH218269   7.149   3.833   3.220 -1.4028  1.1414 -0.5605
 5796TIP3    H118270   7.085   3.864   3.285  0.5935  0.3626  1.9343
 5796TIP3    H218271   7.097   3.779   3.161 -3.4892  2.6184 -0.2243
 5797TIP3   OH218272   9.059   4.294   7.026 -0.0570  0.7299 -0.0256
 5797TIP3    H118273   9.024   4.381   7.007 -1.3356  0.8291  2.3623
 5797TIP3    H218274   9.147   4.310   7.060  0.9367  0.7923 -2.4946
 5798TIP3   OH218275   0.415   0.810   8.725  0.3511 -0.2568 -0.0584
 5798TIP3    H118276   0.506   0.780   8.732  0.0016 -1.4853 -0.5995
 5798TIP3    H218277   0.410   0.849   8.638  0.1065 -1.1188 -0.4382
 5799TIP3   OH218278  10.415   3.779   5.078  0.6530  0.2787  0.2877
 5799TIP3    H118279  10.409   3.873   5.095  0.2948  0.0207  1.7821
 5799TIP3    H218280  10.508   3.761   5.073  0.7347  0.6309  0.5144
 5800TIP3   OH218281   3.085   9.596   5.579  0.3086 -0.1740 -0.2290
 5800TIP3    H118282   3.028   9.601   5.655  0.0235 -2.0738 -0.2883
 5800TIP3    H218283   3.035   9.547   5.514  0.0176  2.4513 -2.1903
 5801TIP3   OH218284   0.694   2.266   2.557 -0.3570  0.6051  0.5900
 5801TIP3    H118285   0.677   2.227   2.472 -0.6578  1.1810  0.3837
 5801TIP3    H218286   0.789   2.276   2.561 -0.3600  0.7929  0.2242
 5802TIP3   OH218287   3.470   8.319   2.746  0.0398  0.3251  0.0207
 5802TIP3    H118288   3.385   8.285   2.773  0.9491 -0.5204  2.0535
 5802TIP3    H218289   3.477   8.403   2.790  0.5565  0.0434  0.4840
 5803TIP3   OH218290   0.062   1.043   9.470  0.2269  0.3681  0.2235
 5803TIP3    H118291   0.077   1.005   9.557  0.5828  0.4452  0.1937
 5803TIP3    H218292  -0.000   0.982   9.429 -0.5811  0.7631  0.8294
 5804TIP3   OH218293   9.041  10.060   8.983  0.7566  0.3669 -0.4616
 5804TIP3    H118294   9.073  10.097   8.901 -0.2860 -0.0024 -1.0478
 5804TIP3    H218295   9.045  10.133   9.045  0.2554  1.0272 -1.1908
 5805TIP3   OH218296   2.750   6.171   7.102  0.5322  1.1267 -0.0996
 5805TIP3    H118297   2.716   6.221   7.027 -1.2413 -1.0644 -0.8594
 5805TIP3    H218298   2.680   6.174   7.166  0.0355 -0.9687 -0.4798
 5806TIP3   OH218299   4.935   7.697   5.934  0.3443  0.3566 -0.1024
 5806TIP3    H118300   5.007   7.738   5.886 -1.2317 -0.4041 -3.4196
 5806TIP3    H218301   4.973   7.615   5.968  1.0921 -0.1268 -1.9395
 5807TIP3   OH218302   3.241   2.417   0.759  0.6011 -0.3026 -0.4398
 5807TIP3    H118303   3.249   2.498   0.710  0.0698  1.8154  2.6480
 5807TIP3    H218304   3.170   2.370   0.716 -2.4533  3.1468  0.3035
 5808TIP3   OH218305   0.194   4.622   1.238 -0.4240 -0.1994  0.5945
 5808TIP3    H118306   0.218   4.570   1.162 -0.5496  1.2391 -0.4815
 5808TIP3    H218307   0.275   4.666   1.265 -1.0193  2.0659 -0.9837
 5809TIP3   OH218308   2.675   5.498   6.258  0.0415 -0.0226  0.7967
 5809TIP3    H118309   2.601   5.454   6.300 -1.8186  1.5014 -0.6729
 5809TIP3    H218310   2.661   5.485   6.165  1.6020  0.4024  0.4737
 5810TIP3   OH218311   8.002   8.865   3.034  0.3880  0.0968 -0.3586
 5810TIP3    H118312   7.981   8.952   3.001  1.2362  0.4896  0.1047
 5810TIP3    H218313   8.083   8.877   3.084  0.9632 -1.1083 -0.9621
 5811TIP3   OH218314   4.767   2.128   8.951 -0.2293  0.3873 -0.5779
 5811TIP3    H118315   4.683   2.086   8.933 -0.6699  1.5777 -1.4331
 5811TIP3    H218316   4.752   2.180   9.029 -0.5926  1.3887 -1.3016
 5812TIP3   OH218317   3.821   6.117   6.064  0.1337 -0.1535  0.1986
 5812TIP3    H118318   3.815   6.053   6.135  0.9119 -0.3197  0.1265
 5812TIP3    H218319   3.748   6.177   6.079 -0.4220 -0.8754  0.4512
 5813TIP3   OH218320  10.832   9.422   8.403  0.0203  0.3118 -0.2403
 5813TIP3    H118321  10.859   9.335   8.431  1.8322  1.3473  1.4958
 5813TIP3    H218322  10.848   9.423   8.308  0.5218 -1.0276 -0.1939
 5814TIP3   OH218323  10.081   5.961   6.266 -0.1903 -0.5872  0.3779
 5814TIP3    H118324  10.104   5.934   6.355  0.4109 -0.7295  0.1785
 5814TIP3    H218325  10.008   5.904   6.242 -0.4909 -0.4121  0.8505
 5815TIP3   OH218326   0.244   9.851   2.977 -0.0993  0.6043 -0.5583
 5815TIP3    H118327   0.282   9.806   2.901  0.5569  0.9304 -0.4241
 5815TIP3    H218328   0.308   9.917   3.000 -0.0463  0.1506  0.6340
 5816TIP3   OH218329   1.365   4.649   8.346 -0.3848 -0.4945  0.5098
 5816TIP3    H118330   1.330   4.669   8.432  1.8385 -2.5484  2.0224
 5816TIP3    H218331   1.322   4.567   8.321 -1.2218  0.2246 -0.5240
 5817TIP3   OH218332   3.223   7.861  10.217 -0.5466 -0.3559 -0.0048
 5817TIP3    H118333   3.285   7.918  10.262 -1.4835  1.4894 -0.9376
 5817TIP3    H218334   3.252   7.772  10.239  0.5255  0.4421  2.1260
 5818TIP3   OH218335   1.151   5.005   7.762  0.1541 -0.2512 -0.2618
 5818TIP3    H118336   1.129   4.949   7.687  0.6301  0.4442 -0.9257
 5818TIP3    H218337   1.103   5.086   7.746 -1.0437 -0.6593  1.0205
 5819TIP3   OH218338   7.688  10.066   7.339 -0.3023  0.3815 -0.1848
 5819TIP3    H118339   7.658   9.998   7.398  3.0932 -0.8376  0.3775
 5819TIP3    H218340   7.719  10.019   7.261 -1.1405  1.6330 -1.3278
 5820TIP3   OH218341   7.725   7.309   9.976  0.2872 -0.2190  0.0325
 5820TIP3    H118342   7.679   7.355   9.906  1.1092 -3.0916 -2.6399
 5820TIP3    H218343   7.818   7.318   9.954  0.5360 -1.5390  0.4128
 5821TIP3   OH218344   8.811   2.594   1.133 -0.2358  0.1829  0.3589
 5821TIP3    H118345   8.722   2.627   1.143 -0.7449 -1.3820  1.2358
 5821TIP3    H218346   8.822   2.531   1.204  0.5843 -1.7372 -1.3679
 5822TIP3   OH218347   4.383   3.416   2.777 -0.2232  0.7538  0.4292
 5822TIP3    H118348   4.297   3.402   2.738  0.1493 -1.0401  0.1358
 5822TIP3    H218349   4.442   3.360   2.725  0.5022 -0.7948  2.7370
 5823TIP3   OH218350   6.466   7.644   6.557  0.1894 -0.5224 -0.0611
 5823TIP3    H118351   6.478   7.554   6.526 -0.7814 -0.8133  0.3548
 5823TIP3    H218352   6.410   7.635   6.635 -1.0053  0.5429 -0.7659
 5824TIP3   OH218353   6.966  10.268   8.485 -0.2415 -0.4888 -0.0344
 5824TIP3    H118354   7.026  10.342   8.496 -1.5239  0.6836 -0.5351
 5824TIP3    H218355   6.991  10.230   8.401 -1.0515  0.8674 -0.9272
 5825TIP3   OH218356  10.853   6.338   8.745 -0.1599 -0.5143 -0.3153
 5825TIP3    H118357  10.855   6.433   8.733  0.1122 -0.6709 -1.5964
 5825TIP3    H218358  10.760   6.316   8.747 -0.2209 -0.2830 -0.5321
 5826TIP3   OH218359   5.269  10.810   4.498  0.1457 -0.6767 -0.3031
 5826TIP3    H118360   5.341  10.751   4.523  1.4236  0.6375 -0.7375
 5826TIP3    H218361   5.295  10.895   4.533  0.1053  0.4043 -2.7327
 5827TIP3   OH218362   3.629   5.047   7.488  0.4715 -0.1081 -0.0106
 5827TIP3    H118363   3.662   4.965   7.524  0.0719 -0.0648  0.4697
 5827TIP3    H218364   3.702   5.081   7.436  0.6595 -0.7307 -0.1618
 5828TIP3   OH218365   2.454   3.328   4.269  0.6412  0.2588 -0.3165
 5828TIP3    H118366   2.422   3.385   4.199  1.3741 -0.3323 -1.1513
 5828TIP3    H218367   2.528   3.283   4.231  1.3540  0.2656  1.0049
 5829TIP3   OH218368   7.416   4.104   9.137 -0.2150  0.4790  0.0167
 5829TIP3    H118369   7.492   4.047   9.148  1.5611  2.7873  0.2068
 5829TIP3    H218370   7.404   4.145   9.223 -1.4286  0.4716 -0.1286
 5830TIP3   OH218371   3.219  10.219   0.617 -0.2696  0.0734 -0.0880
 5830TIP3    H118372   3.212  10.175   0.701  0.0945  0.5543  0.2027
 5830TIP3    H218373   3.176  10.303   0.630  0.9188  0.6891  0.0224
 5831TIP3   OH218374  10.325  10.693   3.880 -0.4896 -0.0045 -0.4111
 5831TIP3    H118375  10.355  10.608   3.849  0.6323  0.8785 -1.8678
 5831TIP3    H218376  10.404  10.747   3.882 -1.2015  1.0603  0.3353
 5832TIP3   OH218377   8.684   3.934   7.777 -0.6592 -0.8497  0.2264
 5832TIP3    H118378   8.617   3.985   7.731  0.9560  1.1372 -0.1191
 5832TIP3    H218379   8.673   3.956   7.869  0.4579  0.7791  0.0145
 5833TIP3   OH218380   5.053   9.726   0.771 -0.2435  0.5826 -0.3100
 5833TIP3    H118381   5.000   9.786   0.719 -0.6695  1.0427  0.6239
 5833TIP3    H218382   5.012   9.727   0.858  0.9696  0.5305  0.2905
 5834TIP3   OH218383   3.582  10.606   2.574  0.0333  0.5231 -0.1922
 5834TIP3    H118384   3.621  10.694   2.572 -0.2606  0.6499 -0.3047
 5834TIP3    H218385   3.651  10.551   2.612 -0.3301  1.0744  1.3334
 5835TIP3   OH218386   3.180   4.644   3.075 -0.2318 -0.3638  0.0302
 5835TIP3    H118387   3.174   4.580   3.003  2.0260 -0.1249 -0.4250
 5835TIP3    H218388   3.202   4.726   3.032  0.3142 -0.0300  0.9329
 5836TIP3   OH218389   6.844   5.025   3.329  0.2897  0.0362  0.0874
 5836TIP3    H118390   6.904   4.980   3.388  0.9444  0.4132 -0.2842
 5836TIP3    H218391   6.811   5.099   3.380 -1.1191 -1.0685  0.8513
 5837TIP3   OH218392   5.651   9.236   2.191 -0.1477 -0.7689  0.6621
 5837TIP3    H118393   5.652   9.300   2.119  0.2080  1.2263  2.3367
 5837TIP3    H218394   5.586   9.271   2.253  1.5534 -0.8425  2.5893
 5838TIP3   OH218395   9.400   4.423   2.812  0.1121 -0.5893  0.4397
 5838TIP3    H118396   9.468   4.486   2.834  0.1873 -0.9163  1.1720
 5838TIP3    H218397   9.435   4.339   2.841 -0.7543 -0.7096  1.1846
 5839TIP3   OH218398   2.774   4.971  10.338 -0.2836 -0.2438 -0.1221
 5839TIP3    H118399   2.753   4.927  10.420  1.5765 -0.1179  0.4861
 5839TIP3    H218400   2.837   4.912  10.296  1.0267  1.0382 -0.0361
 5840TIP3   OH218401   4.444   9.696   8.963 -0.3877 -0.3466  0.3397
 5840TIP3    H118402   4.494   9.615   8.972 -1.2183 -0.7039  2.1281
 5840TIP3    H218403   4.504   9.765   8.989  0.3818 -0.3093 -1.3596
 5841TIP3   OH218404   9.736   2.993   4.055  0.2991 -0.2465 -0.3593
 5841TIP3    H118405   9.672   2.922   4.053 -0.3576  0.2731  0.8554
 5841TIP3    H218406   9.820   2.950   4.044  0.0292 -1.4071  1.5896
 5842TIP3   OH218407   9.279   7.084   1.065 -0.2133  0.0461  0.7574
 5842TIP3    H118408   9.193   7.103   1.028 -1.0585 -3.8663  0.2197
 5842TIP3    H218409   9.269   7.103   1.159 -2.1086 -1.3174  0.9019
 5843TIP3   OH218410   5.375   9.294   0.882  0.7924 -0.0766  0.4791
 5843TIP3    H118411   5.414   9.252   0.959  0.4989  0.3823  0.8768
 5843TIP3    H218412   5.367   9.222   0.819  0.8130 -0.5071  0.9550
 5844TIP3   OH218413   4.778   8.648   7.145 -1.1397 -0.6584  0.2298
 5844TIP3    H118414   4.726   8.627   7.222  0.3851  1.3244  1.9137
 5844TIP3    H218415   4.789   8.743   7.149  0.2625 -0.6895 -1.6164
 5845TIP3   OH218416   9.178   2.361   1.226 -0.1557  0.0380 -0.0987
 5845TIP3    H118417   9.101   2.311   1.252 -0.2440  0.5532  0.6895
 5845TIP3    H218418   9.144   2.446   1.197  0.0962  0.2532  0.2139
 5846TIP3   OH218419   8.847   5.630   8.647  0.0052  0.3150 -0.1166
 5846TIP3    H118420   8.808   5.670   8.570  0.1638 -1.0440 -0.9437
 5846TIP3    H218421   8.936   5.606   8.620  0.8095  1.6418  1.1454
 5847TIP3   OH218422   8.870   8.387   8.141 -0.2407  0.0285  0.5937
 5847TIP3    H118423   8.948   8.432   8.110  0.1206 -0.1189  1.2654
 5847TIP3    H218424   8.835   8.446   8.209 -0.5088 -0.0754  0.5469
 5848TIP3   OH218425   9.049   1.184   8.473  0.3807 -0.6216  0.2819
 5848TIP3    H118426   8.972   1.232   8.503  0.5999  0.6268 -1.0515
 5848TIP3    H218427   9.087   1.148   8.553 -1.7457 -1.5738  0.9572
 5849TIP3   OH218428   2.329   2.756   1.005 -0.1790  0.2304  0.4224
 5849TIP3    H118429   2.309   2.828   0.946 -0.3751 -0.6849 -0.6470
 5849TIP3    H218430   2.424   2.759   1.016 -0.0073 -0.2740 -0.8362
 5850TIP3   OH218431   2.323   2.720  10.427  0.0563  0.2426  0.6473
 5850TIP3    H118432   2.268   2.790  10.462 -2.3743 -0.6316 -1.1249
 5850TIP3    H218433   2.277   2.639  10.452  0.5329 -0.5311 -0.8431
 5851TIP3   OH218434   9.682   6.135   5.322 -0.0398 -0.4103 -0.2389
 5851TIP3    H118435   9.744   6.100   5.258  0.6368 -1.4757  0.9528
 5851TIP3    H218436   9.663   6.224   5.290 -0.0217 -1.0320 -2.0861
 5852TIP3   OH218437   9.805   6.634   2.467  0.0180  0.2838 -0.0332
 5852TIP3    H118438   9.751   6.566   2.507  0.3538 -1.0572 -1.7358
 5852TIP3    H218439   9.753   6.714   2.478 -0.9440 -0.4358  0.9694
 5853TIP3   OH218440   4.457   0.380   1.780 -0.1748 -0.5738 -0.2528
 5853TIP3    H118441   4.437   0.430   1.859 -1.1557  0.6949 -1.2535
 5853TIP3    H218442   4.535   0.422   1.744  0.7975 -1.7075  0.4739
 5854TIP3   OH218443   4.037   3.047   7.656 -0.7241  0.3378  0.0208
 5854TIP3    H118444   3.985   3.052   7.576 -0.5851  0.3572 -0.0693
 5854TIP3    H218445   3.987   2.991   7.715  0.8075 -2.6881 -1.3216
 5855TIP3   OH218446   0.724   7.024   7.530 -0.3066  0.2206 -0.1093
 5855TIP3    H118447   0.813   6.994   7.547 -1.0975 -3.5420 -1.6067
 5855TIP3    H218448   0.674   6.993   7.606 -0.6306  0.7831 -0.0885
 5856TIP3   OH218449   0.538   8.068   6.694 -0.0759 -0.0556 -0.3362
 5856TIP3    H118450   0.518   8.147   6.743 -1.7508 -0.9185  0.4512
 5856TIP3    H218451   0.570   8.007   6.760  0.0575 -0.4285 -0.7388
 5857TIP3   OH218452   3.782   0.789   7.245 -0.1144 -0.2301  0.2885
 5857TIP3    H118453   3.766   0.767   7.337  0.7344 -0.2164  0.4416
 5857TIP3    H218454   3.841   0.721   7.214 -1.0334 -0.7028 -0.4910
 5858TIP3   OH218455   6.538  10.016   7.848 -0.0850 -0.0832  0.2962
 5858TIP3    H118456   6.577  10.030   7.762  1.5380 -2.2466  0.5884
 5858TIP3    H218457   6.481   9.941   7.837 -0.8435  0.3968  0.8484
 5859TIP3   OH218458   8.119   3.644   3.626  0.3821 -0.1299 -0.0260
 5859TIP3    H118459   8.040   3.613   3.669 -0.2656  2.5066  0.8682
 5859TIP3    H218460   8.159   3.565   3.589 -2.2590 -1.6380  0.1015
 5860TIP3   OH218461   5.190   4.211   2.568  0.3950  0.1553  0.1376
 5860TIP3    H118462   5.171   4.172   2.653  1.4955 -1.3288 -0.2491
 5860TIP3    H218463   5.248   4.284   2.587  0.0027  0.3207  0.7210
 5861TIP3   OH218464  10.352   6.844   1.977  0.2461 -0.0878 -0.5319
 5861TIP3    H118465  10.360   6.854   2.072 -1.1243 -0.6185 -0.3399
 5861TIP3    H218466  10.441   6.851   1.945  0.6964  0.4719  0.7568
 5862TIP3   OH218467   3.603   3.072   0.412 -0.5166  0.7582  0.0916
 5862TIP3    H118468   3.589   3.167   0.407  1.5107  1.1043  0.0675
 5862TIP3    H218469   3.561   3.046   0.494 -3.2613  1.1904 -1.0817
 5863TIP3   OH218470   4.117   5.086   5.031 -0.2446 -0.5965  0.6331
 5863TIP3    H118471   4.147   5.160   4.977  1.0074 -0.4035  1.5367
 5863TIP3    H218472   4.172   5.012   5.002 -0.3248 -0.7561  0.8846
 5864TIP3   OH218473  10.652  10.290   8.261 -0.1856  0.4461  0.4673
 5864TIP3    H118474  10.599  10.354   8.309 -2.3949 -1.8492  1.3111
 5864TIP3    H218475  10.648  10.211   8.315 -1.3020 -1.7587 -2.5587
 5865TIP3   OH218476   8.578   4.230   0.301  0.4498  0.1632  0.2254
 5865TIP3    H118477   8.627   4.215   0.382 -0.2481 -1.7822  0.3411
 5865TIP3    H218478   8.582   4.325   0.288  2.2566  0.3195  1.4512
 5866TIP3   OH218479   3.412   9.335   4.127  0.4271 -0.6713  0.3988
 5866TIP3    H118480   3.403   9.296   4.040 -1.9837  2.3058 -0.8726
 5866TIP3    H218481   3.431   9.261   4.185  1.1006 -2.9163 -2.4704
 5867TIP3   OH218482   0.617   5.335   0.342  0.3394  0.3050 -0.4548
 5867TIP3    H118483   0.558   5.350   0.417  1.9387 -0.7252  1.0997
 5867TIP3    H218484   0.647   5.423   0.318  0.1427  0.6285  0.4201
 5868TIP3   OH218485   6.957   9.705  10.613 -0.3114 -0.1335 -0.3075
 5868TIP3    H118486   7.030   9.706  10.674  0.2176 -1.9403 -0.8656
 5868TIP3    H218487   6.962   9.620  10.570 -0.3499  1.2345 -3.2736
 5869TIP3   OH218488   4.348   1.922   7.900 -0.0396 -0.3300  0.2828
 5869TIP3    H118489   4.357   1.930   7.995 -0.1459  1.6905  0.1558
 5869TIP3    H218490   4.282   1.986   7.876 -2.2819 -2.8697 -0.8669
 5870TIP3   OH218491   8.637   5.112   3.281 -0.2632 -0.8651 -0.0657
 5870TIP3    H118492   8.716   5.068   3.251  1.5498  1.5440  0.8305
 5870TIP3    H218493   8.613   5.172   3.211 -0.3379 -0.4510  0.3032
 5871TIP3   OH218494   3.707   8.816   9.959  0.0697  0.4756  0.2379
 5871TIP3    H118495   3.671   8.904   9.974  1.7995  1.4574 -1.0398
 5871TIP3    H218496   3.798   8.823   9.987  0.2719 -0.9006 -0.0144
 5872TIP3   OH218497   2.068   6.527   7.482  0.4628  0.2000  0.1479
 5872TIP3    H118498   1.978   6.506   7.506  0.1922 -0.2143 -1.1495
 5872TIP3    H218499   2.107   6.443   7.456  0.4186  0.7045 -1.7417
 5873TIP3   OH218500   0.167   2.026   3.164  0.5281 -0.0805  0.2436
 5873TIP3    H118501   0.166   1.947   3.218  1.3453  0.1899  0.6808
 5873TIP3    H218502   0.248   2.071   3.190  0.5199  0.4597 -0.6286
 5874TIP3   OH218503   7.611   8.914   1.297  0.3263 -0.0041  0.1133
 5874TIP3    H118504   7.619   8.821   1.316 -1.1619 -0.9056 -3.1019
 5874TIP3    H218505   7.667   8.929   1.221 -1.5189  1.0397 -1.1354
 5875TIP3   OH218506   4.497   2.636   4.073 -0.4018  0.2413  0.1739
 5875TIP3    H118507   4.493   2.574   4.146  2.3657  1.1118  1.1879
 5875TIP3    H218508   4.498   2.581   3.995  2.1390 -1.1001  1.0497
 5876TIP3   OH218509   8.172   8.549   3.517  0.2387  0.2040  0.2046
 5876TIP3    H118510   8.206   8.459   3.520  0.9356  0.3962 -1.0801
 5876TIP3    H218511   8.077   8.539   3.521  0.3408 -0.4892  1.5055
 5877TIP3   OH218512   0.877  10.393   0.045 -0.0999  0.7622 -0.4155
 5877TIP3    H118513   0.798  10.445   0.058 -0.5197  0.3562 -1.2772
 5877TIP3    H218514   0.948  10.450   0.074 -0.6410  1.4302 -0.3803
 5878TIP3   OH218515   9.417   1.665   5.077 -0.7194 -0.5168 -0.5939
 5878TIP3    H118516   9.392   1.697   4.991  0.3961  0.5001 -0.5593
 5878TIP3    H218517   9.512   1.653   5.072 -0.1175  2.4564  1.3454
 5879TIP3   OH218518   9.047   2.490   5.093 -0.1950  0.5555  0.1624
 5879TIP3    H118519   8.999   2.554   5.039  0.0491  0.3851 -0.2671
 5879TIP3    H218520   9.139   2.505   5.072 -0.2037 -1.7218 -2.0854
 5880TIP3   OH218521   3.364   5.166   7.828  0.2027 -0.0687  0.3559
 5880TIP3    H118522   3.348   5.161   7.734  0.4289  1.5560  0.1979
 5880TIP3    H218523   3.460   5.167   7.836  0.2761  3.2259  0.2854
 5881TIP3   OH218524   1.658   8.579   0.974  0.1555 -0.1395  0.2612
 5881TIP3    H118525   1.689   8.669   0.978  1.5036 -0.3666 -2.4756
 5881TIP3    H218526   1.661   8.548   1.064  1.7204  1.8978  0.9808
 5882TIP3   OH218527   1.216   8.389   5.365  0.2285 -0.1950  0.1487
 5882TIP3    H118528   1.167   8.345   5.434 -0.6491  1.4061  0.6088
 5882TIP3    H218529   1.275   8.322   5.330 -0.7973 -1.6023  1.0184
 5883TIP3   OH218530   3.629   8.673   8.537  0.6086 -0.4997 -0.4262
 5883TIP3    H118531   3.627   8.691   8.443  2.7416 -1.6712 -0.7649
 5883TIP3    H218532   3.572   8.598   8.549  0.6884 -0.6310 -0.8539
 5884TIP3   OH218533   6.578   3.951   7.960 -0.1413  0.3663  0.1521
 5884TIP3    H118534   6.492   3.983   7.932 -0.1785  1.5767  1.5267
 5884TIP3    H218535   6.578   3.858   7.934 -2.5595 -0.1298  1.5792
 5885TIP3   OH218536   5.677  10.756   5.894  0.3551  0.3001  0.1997
 5885TIP3    H118537   5.649  10.811   5.821 -2.2541  0.8060  1.4544
 5885TIP3    H218538   5.662  10.667   5.864  0.0193  0.4714 -0.1510
 5886TIP3   OH218539   6.911   9.502   8.650  0.0039 -0.5959  0.3564
 5886TIP3    H118540   6.820   9.472   8.639 -0.3152  0.3026  0.4773
 5886TIP3    H218541   6.964   9.425   8.627 -0.7757 -1.0035 -0.1397
 5887TIP3   OH218542   8.538   1.824   9.064  0.6879 -0.3638  0.0028
 5887TIP3    H118543   8.490   1.814   8.981  0.1251 -0.4917  0.3428
 5887TIP3    H218544   8.471   1.821   9.131  0.8704  1.9510  0.3573
 5888TIP3   OH218545   0.181   2.082   8.534  0.2968 -0.0532 -0.1101
 5888TIP3    H118546   0.116   2.146   8.505  0.2724  1.5830  3.1355
 5888TIP3    H218547   0.131   2.015   8.580  0.7464  0.5581  1.3165
 5889TIP3   OH218548   3.823   5.781   9.746 -0.0904  0.1309 -0.2715
 5889TIP3    H118549   3.912   5.770   9.779  0.0346 -0.3723 -0.7614
 5889TIP3    H218550   3.782   5.841   9.808  0.9679  1.3971 -0.7647
 5890TIP3   OH218551   2.520   8.335   7.760 -0.5308  0.1378  0.3755
 5890TIP3    H118552   2.536   8.423   7.794 -1.0174  0.4145 -0.0963
 5890TIP3    H218553   2.523   8.345   7.665 -1.5207 -0.1647  0.3050
 5891TIP3   OH218554   4.065   1.482   0.611  0.6611 -0.4787  0.2987
 5891TIP3    H118555   4.019   1.565   0.620  0.3824 -0.3881 -1.5718
 5891TIP3    H218556   4.061   1.443   0.699 -1.4364  0.3265  0.6287
 5892TIP3   OH218557   2.500   7.828   8.010  0.1650 -0.3840  0.0249
 5892TIP3    H118558   2.508   7.865   8.098 -1.2198 -1.3193  0.5754
 5892TIP3    H218559   2.569   7.763   8.005  0.2327 -0.3479  0.4387
 5893TIP3   OH218560   2.054   6.889   6.731  0.5450  0.3305 -0.0767
 5893TIP3    H118561   2.013   6.905   6.816 -0.1073 -0.3705 -0.2502
 5893TIP3    H218562   2.091   6.801   6.739 -0.5659 -0.2258 -0.9130
 5894TIP3   OH218563   0.155   0.793   8.020  0.0420 -0.1039  0.2820
 5894TIP3    H118564   0.114   0.770   7.937  0.2677 -1.2526  0.4676
 5894TIP3    H218565   0.201   0.713   8.047  3.1041  1.3136 -0.2898
 5895TIP3   OH218566   5.435   8.429   8.752  0.0239 -0.3709 -0.1588
 5895TIP3    H118567   5.413   8.519   8.726 -3.1791 -0.8678  0.4149
 5895TIP3    H218568   5.443   8.382   8.669  2.2434  0.4763 -0.4829
 5896TIP3   OH218569   7.130  10.053   1.256  0.1681  0.2032  0.3196
 5896TIP3    H118570   7.156   9.985   1.193 -0.1384  0.9637 -0.6447
 5896TIP3    H218571   7.187  10.038   1.332  1.0123 -0.3210 -0.3988
 5897TIP3   OH218572   9.272   3.204   4.073 -0.7200  0.4890  0.6637
 5897TIP3    H118573   9.235   3.237   4.155 -2.7610  1.9257 -0.7230
 5897TIP3    H218574   9.230   3.118   4.061 -0.0221  0.0448  1.3530
 5898TIP3   OH218575   1.495   3.296   9.687 -0.1084 -0.4306  0.3007
 5898TIP3    H118576   1.518   3.337   9.770  0.0890 -2.3985  1.2834
 5898TIP3    H218577   1.409   3.331   9.666 -0.6865 -0.7670  1.9707
 5899TIP3   OH218578   8.419   8.495   2.610 -0.1352 -0.2047  0.0387
 5899TIP3    H118579   8.496   8.452   2.571  0.6609  0.0166  1.3135
 5899TIP3    H218580   8.417   8.582   2.569 -0.6275 -0.7520 -1.1337
 5900TIP3   OH218581   0.182   3.928   3.297 -0.2200 -0.0960  0.4240
 5900TIP3    H118582   0.171   3.903   3.205  1.5027  0.3485  0.0747
 5900TIP3    H218583   0.267   3.892   3.322  0.6693  2.2454  0.9724
 5901TIP3   OH218584   8.866   1.349   5.725 -0.0021  0.3641 -0.6335
 5901TIP3    H118585   8.795   1.395   5.681  0.1382  0.4644 -0.7541
 5901TIP3    H218586   8.836   1.258   5.729 -0.7914  0.6531  0.6454
 5902TIP3   OH218587   5.173   8.022   9.223  0.3957 -0.4042  0.1526
 5902TIP3    H118588   5.199   8.033   9.132 -0.1923  1.9049  0.1968
 5902TIP3    H218589   5.089   8.067   9.230  0.7493  0.0594  1.9792
 5903TIP3   OH218590   7.207  10.444   4.861 -0.0126  0.0267  0.1232
 5903TIP3    H118591   7.150  10.431   4.786 -0.0481  0.1250  0.1341
 5903TIP3    H218592   7.178  10.378   4.924  1.2072 -1.2969 -0.6480
 5904TIP3   OH218593   8.639   0.906   4.094 -0.2543  0.2310  0.0245
 5904TIP3    H118594   8.616   0.920   4.186  0.7051 -1.7436  0.6249
 5904TIP3    H218595   8.730   0.935   4.086 -0.6375  1.3395 -0.5843
 5905TIP3   OH218596   6.109   3.249   7.347 -0.2624  0.0693  0.7671
 5905TIP3    H118597   6.160   3.227   7.269  0.6266  3.4578  0.2025
 5905TIP3    H218598   6.018   3.242   7.319  0.0293  0.0222 -0.2101
 5906TIP3   OH218599   6.884   3.655   6.757  0.5283  0.0036 -0.0000
 5906TIP3    H118600   6.904   3.747   6.740  0.6766 -0.2440 -1.3171
 5906TIP3    H218601   6.902   3.643   6.850 -2.0579  1.9266  0.8563
 5907TIP3   OH218602   4.886   9.645   2.578  0.0251  0.1688  0.2235
 5907TIP3    H118603   4.859   9.568   2.628  0.2899 -0.2923 -0.3348
 5907TIP3    H218604   4.922   9.705   2.644 -0.8172  0.1097  0.7538
 5908TIP3   OH218605   9.164   7.720   4.793  0.3743 -0.0910 -0.1503
 5908TIP3    H118606   9.146   7.808   4.826 -3.0555 -0.3194 -0.9962
 5908TIP3    H218607   9.188   7.734   4.701  0.8297  0.0157 -0.0158
 5909TIP3   OH218608   2.411   9.277   7.892  0.2122 -0.4152  0.2292
 5909TIP3    H118609   2.384   9.309   7.806 -0.3915  0.0442  0.5865
 5909TIP3    H218610   2.441   9.355   7.939 -0.4237 -0.5006  0.7890
 5910TIP3   OH218611   5.960  10.255  10.878 -0.5385 -0.4397 -0.1343
 5910TIP3    H118612   5.871  10.224  10.892 -0.0623 -1.8581 -0.0678
 5910TIP3    H218613   6.014  10.176  10.887  0.8768  0.6487  1.4073
 5911TIP3   OH218614   1.879   9.792   2.345  0.4208 -0.3975  0.5850
 5911TIP3    H118615   1.940   9.743   2.290  0.4509 -1.7569  1.7528
 5911TIP3    H218616   1.793   9.754   2.325  0.0718  0.8460 -0.3479
 5912TIP3   OH218617   8.627   1.163   4.890  0.4362 -0.3540  0.0717
 5912TIP3    H118618   8.636   1.081   4.940 -1.4169 -0.0058  1.0675
 5912TIP3    H218619   8.557   1.145   4.828  1.3221 -0.0944 -1.0423
 5913TIP3   OH218620   4.651   1.196   3.448  0.1678  0.2305  0.0002
 5913TIP3    H118621   4.740   1.214   3.480  1.4926  1.1604 -3.7167
 5913TIP3    H218622   4.660   1.118   3.393 -0.9766  1.1540 -1.5814
 5914TIP3   OH218623   7.276   4.903   8.070  0.0725  0.3689  0.5407
 5914TIP3    H118624   7.201   4.894   8.011  0.0301 -0.1615  0.6691
 5914TIP3    H218625   7.239   4.887   8.157  0.7585 -2.3526  0.4008
 5915TIP3   OH218626   0.251   0.625   2.700 -0.3215 -0.4966  0.7528
 5915TIP3    H118627   0.314   0.625   2.628 -0.4388  1.3337  0.5945
 5915TIP3    H218628   0.165   0.622   2.657 -0.3719 -1.3247  0.9030
 5916TIP3   OH218629   9.630  10.780   0.136 -0.2411 -0.1013 -0.0017
 5916TIP3    H118630   9.660  10.689   0.135  0.6833  0.1486  1.7604
 5916TIP3    H218631   9.667  10.817   0.216 -3.2754  0.9263  1.0723
 5917TIP3   OH218632   7.384   8.930   1.690 -0.0284 -0.0524 -0.0305
 5917TIP3    H118633   7.367   8.837   1.676  1.4611 -0.2125 -1.0330
 5917TIP3    H218634   7.302   8.966   1.723 -1.3923 -1.2211 -2.0301
 5918TIP3   OH218635   7.744   3.591   0.234 -0.0264  0.2838  0.1180
 5918TIP3    H118636   7.787   3.506   0.234  0.4721  0.5293 -0.1914
 5918TIP3    H218637   7.744   3.618   0.142 -2.1756 -0.3585 -0.1221
 5919TIP3   OH218638   7.112   9.950   1.615 -0.1896  0.2216 -0.5955
 5919TIP3    H118639   7.093   9.857   1.624 -0.6959  0.3253 -0.5465
 5919TIP3    H218640   7.028   9.993   1.632  0.5005  0.8191  1.7393
 5920TIP3   OH218641   1.760   1.042  10.485 -0.2720 -0.2776 -0.2727
 5920TIP3    H118642   1.813   1.059  10.408 -1.0466  2.4293 -0.3043
 5920TIP3    H218643   1.803   1.090  10.556 -1.6858  0.5094  0.0860
 5921TIP3   OH218644   6.317   0.791   8.261  0.0929  0.2872  0.1499
 5921TIP3    H118645   6.374   0.714   8.256 -0.4217 -0.2725  1.9887
 5921TIP3    H218646   6.290   0.807   8.171 -1.1516 -2.7680 -0.1461
 5922TIP3   OH218647   8.468   9.856  10.712  0.7275 -0.0068  0.5540
 5922TIP3    H118648   8.473   9.787  10.779  0.5534 -0.8874 -0.3212
 5922TIP3    H218649   8.470   9.938  10.762 -3.4813 -0.5625  2.0090
 5923TIP3   OH218650   9.497   8.713   9.054 -0.7623 -0.3696 -0.1975
 5923TIP3    H118651   9.579   8.707   9.005  0.9552  1.9760  2.1033
 5923TIP3    H218652   9.493   8.632   9.105  2.0890  0.8566  2.2634
 5924TIP3   OH218653   8.155   4.627   1.820 -0.5233  0.4402  0.3217
 5924TIP3    H118654   8.104   4.702   1.851  0.4305  1.2589 -0.0698
 5924TIP3    H218655   8.123   4.611   1.731 -1.7682 -0.5845  0.9061
 5925TIP3   OH218656   2.911   7.769   6.615 -0.1579 -0.4438 -0.3126
 5925TIP3    H118657   2.988   7.741   6.664 -0.7008  0.5671  1.1647
 5925TIP3    H218658   2.946   7.817   6.540  0.7163 -3.0253 -1.6943
 5926TIP3   OH218659   4.977   9.598   2.841 -0.1860 -0.6175 -0.4483
 5926TIP3    H118660   4.935   9.681   2.863  1.2037  0.3951 -1.4430
 5926TIP3    H218661   5.035   9.580   2.915  0.5867  0.0634 -0.8796
 5927TIP3   OH218662   9.575   8.439   9.068 -0.2514 -0.0999  0.4041
 5927TIP3    H118663   9.648   8.389   9.033 -0.5259  0.1994 -0.6581
 5927TIP3    H218664   9.538   8.384   9.136 -0.1213 -1.0475 -0.2670
 5928TIP3   OH218665   7.828   8.842   2.422  0.0304 -0.1462 -0.4716
 5928TIP3    H118666   7.735   8.862   2.413  0.1815  1.1809  0.7130
 5928TIP3    H218667   7.869   8.924   2.448  1.1216 -1.2704  1.6851
 5929TIP3   OH218668   6.586   3.627   6.965  0.3307 -0.2656 -0.6398
 5929TIP3    H118669   6.643   3.560   7.002 -0.3296 -0.8197 -0.6124
 5929TIP3    H218670   6.549   3.587   6.886  0.9850  0.5606 -1.3890
 5930TIP3   OH218671   1.992   4.874   0.051  0.6285  0.3744 -0.2967
 5930TIP3    H118672   1.995   4.966   0.025  0.0510  0.5185  0.1123
 5930TIP3    H218673   1.936   4.873   0.129  0.5169 -0.3390 -0.3759
 5931TIP3   OH218674   4.318   4.118   4.631 -0.0855  0.3862  0.0808
 5931TIP3    H118675   4.403   4.108   4.587  0.7443  0.3295  1.6376
 5931TIP3    H218676   4.333   4.086   4.720 -1.9262 -0.2354  0.2128
 5932TIP3   OH218677   4.697   0.543   1.279 -0.1438 -0.0248  0.2345
 5932TIP3    H118678   4.749   0.468   1.306 -1.2378 -0.6486  0.6803
 5932TIP3    H218679   4.609   0.526   1.314 -0.9430  0.4476 -1.4105
 5933TIP3   OH218680   9.373   2.344   9.734 -0.1071 -0.2421  0.0763
 5933TIP3    H118681   9.335   2.411   9.677 -0.1713 -1.4452 -1.3382
 5933TIP3    H218682   9.309   2.272   9.733  0.2265 -0.5751  1.1134
 5934TIP3   OH218683   2.913   9.006   8.874  0.3985  0.3765 -0.5169
 5934TIP3    H118684   2.949   9.053   8.799 -0.7152  1.4521 -0.4057
 5934TIP3    H218685   2.938   8.915   8.860  4.1968  1.1271  0.1278
 5935TIP3   OH218686   7.648   6.730   9.126  0.1126  0.7610  0.6607
 5935TIP3    H118687   7.570   6.693   9.084  1.2534 -0.6340 -0.3502
 5935TIP3    H218688   7.694   6.774   9.054  0.8100  0.5894  1.0006
 5936TIP3   OH218689   4.289   7.127   8.851  0.5225  0.3226 -0.4777
 5936TIP3    H118690   4.317   7.153   8.939  2.5544  0.1342 -1.0343
 5936TIP3    H218691   4.369   7.122   8.800 -0.6343  0.6388 -2.4382
 5937TIP3   OH218692   7.269   5.764   1.967  0.3553 -0.4660 -0.1981
 5937TIP3    H118693   7.317   5.784   2.048  1.1643  0.6691 -0.9261
 5937TIP3    H218694   7.182   5.803   1.981  0.0446 -1.4200  0.6230
 5938TIP3   OH218695   0.780   6.031   1.503  0.2971  0.2180 -0.4452
 5938TIP3    H118696   0.763   5.952   1.555  2.1816 -0.4166 -0.6851
 5938TIP3    H218697   0.826   5.999   1.425  1.4546  1.5515 -0.3614
 5939TIP3   OH218698   3.026   6.014   4.097 -0.7733  0.1903  0.1555
 5939TIP3    H118699   3.115   6.000   4.063 -0.3632  1.2088  0.7553
 5939TIP3    H218700   2.990   5.926   4.107  0.3824 -0.2742  0.4488
 5940TIP3   OH218701   5.133   2.338  10.862 -0.5374  0.1232 -0.2988
 5940TIP3    H118702   5.189   2.360  10.787  0.7923 -0.4545  0.4858
 5940TIP3    H218703   5.066   2.407  10.863  0.3876  1.0741 -1.0524
 5941TIP3   OH218704   4.046   1.077   8.898  0.0674  0.4460  0.5789
 5941TIP3    H118705   4.108   1.137   8.939  0.4159  1.2172 -0.9903
 5941TIP3    H218706   4.101   1.011   8.854 -0.0656  1.8429 -1.8935
 5942TIP3   OH218707   3.947   9.895   8.998 -0.2828  0.0970  0.2579
 5942TIP3    H118708   3.966   9.981   9.035  0.9327 -0.4357  0.9369
 5942TIP3    H218709   4.030   9.866   8.960 -0.3399 -1.2416  1.0647
 5943TIP3   OH218710   0.482   5.863   5.234 -0.1126 -0.4600  0.2562
 5943TIP3    H118711   0.524   5.859   5.148 -0.7135 -1.2638 -0.0081
 5943TIP3    H218712   0.534   5.804   5.289 -0.5369 -1.0039  0.0809
 5944TIP3   OH218713   9.300  10.608   1.722 -0.1843  0.0917 -0.0409
 5944TIP3    H118714   9.258  10.605   1.808  1.4890  1.1763  0.8747
 5944TIP3    H218715   9.304  10.701   1.700  1.7039  0.0371 -0.0678
 5945TIP3   OH218716   5.284   7.149   8.119 -0.3088 -0.1297 -0.0538
 5945TIP3    H118717   5.337   7.170   8.042  1.9800  0.0165  1.4672
 5945TIP3    H218718   5.234   7.228   8.136  0.3639  0.4032 -0.4777
 5946TIP3   OH218719   3.223   5.478   5.249  0.0777 -0.2649 -0.5317
 5946TIP3    H118720   3.234   5.383   5.256  0.3674 -0.1217  1.8719
 5946TIP3    H218721   3.310   5.511   5.229  0.3108 -0.4335  0.1600
 5947TIP3   OH218722   2.553   2.409   9.254  0.1677  0.6213  0.2402
 5947TIP3    H118723   2.488   2.343   9.232 -0.0058  0.8546  0.0558
 5947TIP3    H218724   2.519   2.491   9.217 -0.6749  1.2492  2.2634
 5948TIP3   OH218725   6.550   8.961   8.251 -0.3077 -0.4438  0.6517
 5948TIP3    H118726   6.638   8.990   8.275 -0.1703 -1.9428  2.1274
 5948TIP3    H218727   6.494   8.993   8.321 -0.6911 -0.7767  0.5020
 5949TIP3   OH218728   0.807  10.309   6.411 -0.4813 -0.5390 -0.0841
 5949TIP3    H118729   0.895  10.280   6.388 -0.0705 -0.0788  0.8753
 5949TIP3    H218730   0.820  10.371   6.482 -1.5786 -0.3745 -0.0124
 5950TIP3   OH218731   3.477   5.993   8.808  0.0366  0.4146  0.1156
 5950TIP3    H118732   3.437   5.911   8.779  0.9295  0.2545 -0.7557
 5950TIP3    H218733   3.415   6.061   8.782 -0.9204  0.0085  1.2416
 5951TIP3   OH218734   9.544   3.601   2.428 -0.0991 -0.3440  0.1833
 5951TIP3    H118735   9.551   3.695   2.441  0.0711 -0.1458 -1.2143
 5951TIP3    H218736   9.549   3.589   2.333  0.3152 -1.7986  0.3612
 5952TIP3   OH218737   2.286   2.189   6.537  0.8700 -0.0936 -0.0379
 5952TIP3    H118738   2.250   2.111   6.579  0.8008  0.3896  0.8386
 5952TIP3    H218739   2.242   2.262   6.582 -0.1781  0.4380 -1.8348
 5953TIP3   OH218740  10.118   9.258   1.948 -0.5077 -0.1200  0.1335
 5953TIP3    H118741  10.110   9.277   2.042  0.7580 -0.2117  0.2797
 5953TIP3    H218742  10.211   9.272   1.929 -0.7169 -0.2825 -1.0729
 5954TIP3   OH218743   1.054   8.582   3.439  0.5108  0.2560 -0.1114
 5954TIP3    H118744   1.095   8.644   3.378  0.0147  0.1479 -0.5607
 5954TIP3    H218745   1.001   8.637   3.497 -0.3554  0.2122 -0.8488
 5955TIP3   OH218746   3.243   3.921   1.157 -0.8183 -0.6108  0.3551
 5955TIP3    H118747   3.197   3.974   1.223  1.0905  2.4775 -0.5638
 5955TIP3    H218748   3.203   3.946   1.074  0.0496 -0.6791 -0.0951
 5956TIP3   OH218749   3.576   6.799   3.296 -0.4199 -0.2405  0.0941
 5956TIP3    H118750   3.663   6.772   3.265 -0.4566  1.1727 -1.4155
 5956TIP3    H218751   3.551   6.732   3.360  1.6692 -0.8145  0.3973
 5957TIP3   OH218752   4.572   9.117   9.843 -0.0491 -0.4724 -0.1980
 5957TIP3    H118753   4.497   9.168   9.813 -1.4443 -1.7179  0.9829
 5957TIP3    H218754   4.627   9.180   9.890 -2.6502 -0.2203  2.8853
 5958TIP3   OH218755   1.284   0.391   2.322  0.8081  0.5926 -0.0104
 5958TIP3    H118756   1.368   0.435   2.305  0.4897  0.8932 -0.8533
 5958TIP3    H218757   1.273   0.333   2.246  1.0371 -0.6794  0.8941
 5959TIP3   OH218758   4.906   3.388  10.569  0.3261 -0.4157  0.5209
 5959TIP3    H118759   4.980   3.327  10.576 -0.2616 -0.9963  1.9250
 5959TIP3    H218760   4.829   3.333  10.557 -0.3175 -0.0610  2.5576
 5960TIP3   OH218761   2.612   9.151   4.325  0.1443  0.4899 -0.4587
 5960TIP3    H118762   2.639   9.117   4.240 -0.3859  0.2403 -0.5312
 5960TIP3    H218763   2.539   9.210   4.305 -0.2249  0.1453 -0.1469
 5961TIP3   OH218764   6.893   4.326   2.434 -0.2184 -1.3114  1.0625
 5961TIP3    H118765   6.802   4.354   2.428  0.6297  1.9285  1.2568
 5961TIP3    H218766   6.906   4.270   2.357 -1.8002  0.1634 -0.3717
 5962TIP3   OH218767   0.782  10.623   5.097  0.1526  0.0068 -0.2050
 5962TIP3    H118768   0.797  10.550   5.037 -0.0998  0.8794 -1.3730
 5962TIP3    H218769   0.704  10.667   5.063  0.5657  1.0871  0.1849
 5963TIP3   OH218770   2.632  10.803   1.078  0.4086  0.4731 -0.7541
 5963TIP3    H118771   2.717  10.789   1.036  0.2429  2.2997 -1.8022
 5963TIP3    H218772   2.598  10.715   1.092  2.8615 -0.3663  0.6093
 5964TIP3   OH218773   6.277   9.810   7.479  0.1503 -0.6127  0.3039
 5964TIP3    H118774   6.268   9.900   7.447  0.1001 -1.0447 -0.9309
 5964TIP3    H218775   6.187   9.776   7.480  0.1924 -0.7179  0.5752
 5965TIP3   OH218776   2.115   7.403   5.472  0.4049 -0.2415 -0.1106
 5965TIP3    H118777   2.056   7.344   5.520  0.5316 -0.7948 -0.6173
 5965TIP3    H218778   2.076   7.410   5.385 -0.0039  1.0249  0.1540
 5966TIP3   OH218779   4.145   5.979   2.325 -0.7333  0.0830 -0.0940
 5966TIP3    H118780   4.142   6.068   2.290 -2.3287 -0.9046 -2.7915
 5966TIP3    H218781   4.238   5.955   2.323 -0.4928  1.0467 -1.1095
 5967TIP3   OH218782   7.687   3.676   6.448  0.2510  0.7196  0.5807
 5967TIP3    H118783   7.724   3.677   6.536  1.1886  1.2681  0.2034
 5967TIP3    H218784   7.676   3.583   6.428 -0.5547  0.6028  1.4963
 5968TIP3   OH218785   0.215   3.294   7.650  0.2920 -0.1384  0.3803
 5968TIP3    H118786   0.240   3.312   7.559 -0.2790 -0.8558  0.0733
 5968TIP3    H218787   0.248   3.369   7.699  0.9623  0.0662 -0.3571
 5969TIP3   OH218788   9.112   3.917   7.520 -0.0880  0.0534  0.5874
 5969TIP3    H118789   9.172   3.886   7.452  0.6920  0.9632  0.8581
 5969TIP3    H218790   9.074   3.997   7.484  0.1926  0.4408  1.1524
 5970TIP3   OH218791   5.539   2.338   8.748 -0.4440 -0.4055  0.3030
 5970TIP3    H118792   5.602   2.286   8.698 -4.3070 -1.5752 -4.0071
 5970TIP3    H218793   5.510   2.279   8.818 -0.0218 -1.6161 -0.5034
 5971TIP3   OH218794   6.375   6.634  10.899 -0.0509  0.3288 -0.9426
 5971TIP3    H118795   6.303   6.666  10.953 -0.8638 -0.8065 -1.3032
 5971TIP3    H218796   6.381   6.698  10.827 -0.6705  0.4689 -0.8778
 5972TIP3   OH218797   2.596   9.291   7.595 -0.7459 -0.1067 -0.5215
 5972TIP3    H118798   2.643   9.321   7.672 -0.5419 -0.8649 -0.3421
 5972TIP3    H218799   2.588   9.368   7.540  0.1910  0.1698 -0.2895
 5973TIP3   OH218800   3.031   0.219  10.243  0.0649 -0.0720 -0.7969
 5973TIP3    H118801   3.083   0.238  10.321 -1.6141 -2.0467  0.9061
 5973TIP3    H218802   2.959   0.281  10.246 -1.1755 -1.4965  0.4919
 5974TIP3   OH218803   4.601   7.003   7.290 -0.0268  0.0619 -0.1344
 5974TIP3    H118804   4.606   6.912   7.318  0.1326 -0.3567 -1.4593
 5974TIP3    H218805   4.663   7.049   7.347  1.7357 -1.0814 -1.0436
 5975TIP3   OH218806   9.022   9.617   6.973 -0.2294  0.1910 -0.1725
 5975TIP3    H118807   8.974   9.694   6.941  0.4939  0.5463 -0.4114
 5975TIP3    H218808   9.044   9.639   7.063 -1.5449 -0.4705  0.3388
 5976TIP3   OH218809   7.212   9.835   1.078  0.0246 -0.0875 -0.2157
 5976TIP3    H118810   7.152   9.761   1.087 -0.4565  0.2263 -0.7554
 5976TIP3    H218811   7.282   9.818   1.141  0.0453 -1.1230 -0.5063
 5977TIP3   OH218812   9.890   7.848   9.327 -0.7525 -0.1464 -0.2007
 5977TIP3    H118813   9.815   7.799   9.362  0.2039 -0.4429  1.5230
 5977TIP3    H218814   9.913   7.909   9.397 -0.9267  1.7180 -1.6914
 5978TIP3   OH218815   7.125   4.611   5.098 -0.2254 -0.3248 -0.5412
 5978TIP3    H118816   7.194   4.591   5.162 -0.8299 -3.3605 -0.7052
 5978TIP3    H218817   7.170   4.661   5.030  1.4877 -0.9377  0.0700
 5979TIP3   OH218818   0.800   4.409   7.863 -0.1459  0.2667  0.3930
 5979TIP3    H118819   0.715   4.389   7.824  0.2069  0.4386 -0.4874
 5979TIP3    H218820   0.827   4.491   7.822 -0.5653  1.4259  2.3335
 5980TIP3   OH218821   6.690   6.753   8.778  0.3765 -0.1950  0.0586
 5980TIP3    H118822   6.671   6.713   8.693 -0.3768  0.8127 -0.2592
 5980TIP3    H218823   6.770   6.709   8.807  0.1809 -1.1469 -0.7768
 5981TIP3   OH218824   0.181  10.666   3.391  0.3392 -0.1699 -0.5152
 5981TIP3    H118825   0.087  10.651   3.397  0.4528 -0.3362  1.2778
 5981TIP3    H218826   0.220  10.596   3.443  1.4670 -0.0896 -1.2129
 5982TIP3   OH218827   1.192   8.247   6.716 -0.0855  0.3926  0.3463
 5982TIP3    H118828   1.164   8.241   6.625  1.7432  0.5873 -0.2599
 5982TIP3    H218829   1.247   8.170   6.730  0.8761  1.1438  0.8156
 5983TIP3   OH218830   9.922   8.991   1.621 -0.1519 -0.2033 -0.4484
 5983TIP3    H118831   9.865   8.977   1.696  0.4958 -2.2911 -0.2935
 5983TIP3    H218832   9.880   9.062   1.572 -0.1237  1.8945  2.3009
 5984TIP3   OH218833   6.787   3.431   4.713 -0.0856  0.0688 -0.1140
 5984TIP3    H118834   6.842   3.415   4.637  0.3590  0.4601  0.1178
 5984TIP3    H218835   6.743   3.348   4.730  1.1025 -0.5144  0.2252
 5985TIP3   OH218836   9.328   0.419  10.213 -0.0538  0.4798 -0.1308
 5985TIP3    H118837   9.349   0.494  10.157  1.9959 -0.5589 -0.8643
 5985TIP3    H218838   9.297   0.352  10.153  0.5031 -0.0722  0.1878
 5986TIP3   OH218839   8.806   9.851   0.514  0.5929 -0.2933 -0.3156
 5986TIP3    H118840   8.711   9.858   0.510  0.5576  0.9396  1.5475
 5986TIP3    H218841   8.826   9.767   0.471 -1.3420 -0.7025 -0.4883
 5987TIP3   OH218842   5.388   8.624   9.087 -0.2355  0.3463 -0.4070
 5987TIP3    H118843   5.356   8.709   9.058 -0.5539  1.0720  1.8463
 5987TIP3    H218844   5.483   8.629   9.076 -0.3531  0.5241 -1.3968
 5988TIP3   OH218845   1.594   3.276   1.730 -0.2323  0.2208 -0.1711
 5988TIP3    H118846   1.498   3.270   1.725 -0.0922 -1.4758 -1.5026
 5988TIP3    H218847   1.622   3.190   1.760  0.8998  0.7626  0.4078
 5989TIP3   OH218848   6.902   1.750   6.650 -0.3164  0.3783 -0.3160
 5989TIP3    H118849   6.934   1.811   6.716  0.1055 -0.6850  0.5041
 5989TIP3    H218850   6.822   1.713   6.687 -0.5391  0.3930 -0.7755
 5990TIP3   OH218851   2.243   3.138   5.862 -0.3630  0.6906  0.1713
 5990TIP3    H118852   2.182   3.207   5.886 -0.3679  0.8182 -0.1978
 5990TIP3    H218853   2.188   3.065   5.834 -0.3488  0.9338 -0.5129
 5991TIP3   OH218854   8.398   3.621   9.847 -0.3294  0.6327  0.1752
 5991TIP3    H118855   8.476   3.650   9.800  0.3922 -0.6072  0.5570
 5991TIP3    H218856   8.333   3.604   9.779 -0.9368  3.4494 -0.0425
 5992TIP3   OH218857   1.709   2.194   8.724  0.2450 -0.1466 -0.2599
 5992TIP3    H118858   1.686   2.281   8.755 -1.1626 -1.2495  2.0554
 5992TIP3    H218859   1.645   2.176   8.655  0.2947  0.4900 -0.4776
 5993TIP3   OH218860   4.983   5.330   9.125 -0.4087  0.4664 -0.0439
 5993TIP3    H118861   5.033   5.404   9.090  0.2979  0.6604  1.3106
 5993TIP3    H218862   4.960   5.357   9.214 -0.2660 -0.8705  0.4221
 5994TIP3   OH218863   3.791   5.199   1.471  0.6059 -0.3653 -0.0174
 5994TIP3    H118864   3.790   5.203   1.567  3.4920  1.9387  0.0551
 5994TIP3    H218865   3.834   5.116   1.451  0.4721 -0.6077  0.6643
 5995TIP3   OH218866  10.758   8.452   6.271  0.1521  0.0228  0.2595
 5995TIP3    H118867  10.807   8.488   6.197 -1.7264  0.7539 -0.7038
 5995TIP3    H218868  10.763   8.519   6.338  0.1905  0.2459  0.0365
 5996TIP3   OH218869   8.642   3.333   9.200 -0.3038  0.1734 -0.7830
 5996TIP3    H118870   8.569   3.340   9.262  0.2797 -1.1369  0.0778
 5996TIP3    H218871   8.639   3.243   9.169  1.1533 -0.0049 -0.4686
 5997TIP3   OH218872   4.599  10.408   8.300 -0.0423 -0.9269 -0.0070
 5997TIP3    H118873   4.660  10.477   8.327 -0.8353  0.2426 -1.0654
 5997TIP3    H218874   4.521  10.455   8.271 -0.1126 -2.1602 -2.0508
 5998TIP3   OH218875   1.048   8.636   9.706 -0.7859 -0.0704 -0.9604
 5998TIP3    H118876   1.103   8.559   9.689 -2.2986 -2.1324  2.3088
 5998TIP3    H218877   1.107   8.699   9.747 -0.2418 -1.2135  0.1074
 5999TIP3   OH218878  10.852   8.317   4.397  0.1798 -0.0080 -0.5648
 5999TIP3    H118879  10.776   8.342   4.344 -0.3683  0.5977  0.4694
 5999TIP3    H218880  10.824   8.332   4.487  1.2772 -0.4999 -0.1269
 6000TIP3   OH218881   4.539   8.414   4.267  0.5433  0.4241  0.9090
 6000TIP3    H118882   4.616   8.388   4.319 -0.4354 -1.3391  1.5948
 6000TIP3    H218883   4.560   8.387   4.178  0.7807  0.0366  1.0765
 6001TIP3   OH218884   7.071   1.241   1.835  0.6663  0.2596 -0.5286
 6001TIP3    H118885   7.150   1.186   1.838  0.9492  0.7019  1.1980
 6001TIP3    H218886   7.021   1.207   1.761  1.1083 -1.9462  0.0985
 6002TIP3   OH218887  10.836   1.762   1.217 -0.3055 -0.4804 -0.2313
 6002TIP3    H118888  10.741   1.774   1.214 -0.5684 -2.3502 -0.5328
 6002TIP3    H218889  10.857   1.713   1.137  0.9494  0.0875 -0.2761
 6003TIP3   OH218890   9.573   1.530   0.626 -0.1290  0.1240 -0.3516
 6003TIP3    H118891   9.481   1.553   0.635 -0.0231  0.1041  0.9563
 6003TIP3    H218892   9.573   1.438   0.600 -0.4848  0.3096 -1.0079
 6004TIP3   OH218893   0.369  10.666   3.171 -0.7724  0.3145 -0.3638
 6004TIP3    H118894   0.355  10.733   3.104 -1.7042 -0.9765 -1.5144
 6004TIP3    H218895   0.288  10.667   3.223 -0.0401  1.3364  0.8182
 6005TIP3   OH218896   1.662   1.608   4.690 -0.3046 -0.6774  0.0021
 6005TIP3    H118897   1.628   1.519   4.698  0.2089 -0.8455  0.3525
 6005TIP3    H218898   1.619   1.657   4.761  0.0347 -0.8464  0.3295
 6006TIP3   OH218899   5.510  10.520   5.328  0.1213  0.1094 -0.2421
 6006TIP3    H118900   5.446  10.566   5.382 -0.4891 -1.1080  0.1237
 6006TIP3    H218901   5.470  10.518   5.241  0.0557  0.1040 -0.2121
 6007TIP3   OH218902   9.046   2.479   8.548 -0.0666 -0.4797  0.2592
 6007TIP3    H118903   8.977   2.416   8.527 -1.2093  0.6246  0.6366
 6007TIP3    H218904   9.076   2.454   8.635 -0.8618 -0.1992  0.6156
 6008TIP3   OH218905   6.711   6.563   2.221  0.0071  0.1768 -0.2534
 6008TIP3    H118906   6.776   6.599   2.161  0.8373 -0.8444  0.0008
 6008TIP3    H218907   6.735   6.471   2.230 -1.5269 -0.2493 -0.2065
 6009TIP3   OH218908   4.329   5.705   1.085 -0.5105 -0.6376 -0.4819
 6009TIP3    H118909   4.406   5.679   1.136  0.2289  1.6976 -0.2951
 6009TIP3    H218910   4.352   5.681   0.995 -0.3115 -1.5250 -0.2085
 6010TIP3   OH218911  10.284   2.119  10.105  0.3189 -0.4604  0.3298
 6010TIP3    H118912  10.350   2.174  10.147  0.4876 -0.2427 -0.2062
 6010TIP3    H218913  10.284   2.147  10.013 -1.4272  0.4370  0.5638
 6011TIP3   OH218914   5.087   5.172   3.963  0.2133 -0.4218 -0.4134
 6011TIP3    H118915   5.168   5.180   3.912 -0.4141 -0.3824 -1.4231
 6011TIP3    H218916   5.089   5.083   3.997  0.9433 -0.2452  0.0409
 6012TIP3   OH218917   5.270  10.738   5.929 -0.1439 -0.0731 -0.4236
 6012TIP3    H118918   5.349  10.763   5.880 -0.1425 -1.1542 -1.0135
 6012TIP3    H218919   5.302  10.719   6.018  0.1019  0.4435 -0.4002
 6013TIP3   OH218920   2.203   7.825   8.649  0.2424  0.9925 -0.6445
 6013TIP3    H118921   2.189   7.919   8.657 -0.4730  0.7129  4.0921
 6013TIP3    H218922   2.297   7.813   8.662  0.0594  0.9663  0.7048
 6014TIP3   OH218923   7.152   2.204   0.437 -0.4356  0.7107 -0.2160
 6014TIP3    H118924   7.214   2.277   0.438  1.9931 -1.1834 -0.6728
 6014TIP3    H218925   7.140   2.181   0.529  1.9940 -0.7010 -0.1577
 6015TIP3   OH218926   9.655   4.960   6.595 -0.5720  0.6293  0.2033
 6015TIP3    H118927   9.563   4.942   6.578 -0.5567  1.2775 -0.6785
 6015TIP3    H218928   9.676   4.909   6.673 -1.5152  0.0065  0.0634
 6016TIP3   OH218929   1.533  10.205   0.295  0.1817 -0.6037 -0.4880
 6016TIP3    H118930   1.467  10.141   0.269 -0.6842 -0.1638  0.5278
 6016TIP3    H218931   1.487  10.289   0.290  0.5526 -0.3240  0.5739
 6017TIP3   OH218932   6.133   3.793  10.147  0.1751 -0.5334 -0.0093
 6017TIP3    H118933   6.163   3.849  10.219 -1.0656  0.4703 -0.2341
 6017TIP3    H218934   6.211   3.777  10.095  0.7000  0.4321  0.4505
 6018TIP3   OH218935   5.062   0.177   2.153  0.5923  0.2719  0.0520
 6018TIP3    H118936   5.117   0.123   2.096  0.0896  0.7557 -0.9071
 6018TIP3    H218937   5.084   0.148   2.242  1.6248 -0.2652 -0.3665
 6019TIP3   OH218938   6.079   0.852   2.743 -0.6545 -0.1663  0.1695
 6019TIP3    H118939   6.034   0.767   2.736 -4.0483  1.3142  1.6605
 6019TIP3    H218940   6.078   0.887   2.655  0.3093 -1.4089 -0.3684
 6020TIP3   OH218941  10.306   5.885   8.775 -0.2517 -0.0862 -0.3355
 6020TIP3    H118942  10.248   5.857   8.704 -0.9474 -0.9511  0.5294
 6020TIP3    H218943  10.285   5.977   8.789 -0.3772 -0.0117 -0.9875
 6021TIP3   OH218944   2.243   8.990   4.881  0.3809  0.3146  0.3303
 6021TIP3    H118945   2.285   8.928   4.821 -1.6603  0.0434 -0.8878
 6021TIP3    H218946   2.276   9.076   4.854  1.6816 -0.0326  0.7329
 6022TIP3   OH218947   0.167  10.133  10.657  0.8185 -0.6779  0.3783
 6022TIP3    H118948   0.119  10.092  10.585 -1.8331  1.1472  0.9505
 6022TIP3    H218949   0.219  10.202  10.616 -1.6383  1.1888  0.2148
 6023TIP3   OH218950   5.452   9.902  10.720 -0.2239  0.8196 -0.6453
 6023TIP3    H118951   5.465   9.842  10.794 -1.7166 -0.0679 -1.0620
 6023TIP3    H218952   5.539   9.909  10.679  0.2606  0.0091  0.2036
 6024TIP3   OH218953   5.115   4.902   8.179 -0.1320 -0.3537 -0.3403
 6024TIP3    H118954   5.134   4.935   8.267 -0.2737 -0.9689 -0.0726
 6024TIP3    H218955   5.200   4.878   8.143  0.1582  1.6449 -1.1085
 6025TIP3   OH218956   7.307   5.457   4.475 -0.0829  0.2644  0.2477
 6025TIP3    H118957   7.325   5.464   4.568  3.9312 -1.7184 -0.1888
 6025TIP3    H218958   7.217   5.424   4.470 -0.3957  0.4244  3.3814
 6026TIP3   OH218959   4.154   0.077   5.438 -0.4966  0.0164  0.2273
 6026TIP3    H118960   4.100   0.118   5.506 -0.8855  0.3750 -0.2895
 6026TIP3    H218961   4.213   0.147   5.410 -0.3837 -0.1117  0.1443
 6027TIP3   OH218962   7.161   1.604   9.828 -0.1581  0.0273 -0.4633
 6027TIP3    H118963   7.241   1.592   9.879 -0.7027 -2.6531 -0.0973
 6027TIP3    H218964   7.115   1.520   9.836 -2.8068  1.3383 -1.0112
 6028TIP3   OH218965   4.166   2.531   6.633  0.1427 -0.6654 -0.6871
 6028TIP3    H118966   4.132   2.536   6.722  1.9477  0.6747  0.0021
 6028TIP3    H218967   4.191   2.439   6.622 -0.8180 -1.0068 -0.1202
 6029TIP3   OH218968   2.539   0.099   5.616  0.6935  0.0099  0.8386
 6029TIP3    H118969   2.457   0.057   5.641  1.6750 -1.6553  1.4640
 6029TIP3    H218970   2.555   0.070   5.526  1.6500 -1.5319  1.4563
 6030TIP3   OH218971   1.674   4.514   2.832  0.5156 -0.2724  0.0914
 6030TIP3    H118972   1.646   4.423   2.819 -0.3864 -0.1837  1.2766
 6030TIP3    H218973   1.753   4.506   2.886  1.2129 -0.3951 -0.9205
 6031TIP3   OH218974   2.517   8.253   2.128  0.2556 -0.1937  0.8216
 6031TIP3    H118975   2.511   8.348   2.120  1.4941 -0.1785 -0.1390
 6031TIP3    H218976   2.534   8.222   2.039 -0.9314 -1.4030  0.9758
 6032TIP3   OH218977   8.649   7.787   4.027  0.0565  0.3741 -0.0664
 6032TIP3    H118978   8.721   7.781   4.089 -0.4339 -0.5754  0.4204
 6032TIP3    H218979   8.614   7.699   4.022 -1.0432  0.8132 -0.3386
 6033TIP3   OH218980   8.460   9.063   0.110 -0.0988 -0.0533 -0.3751
 6033TIP3    H118981   8.488   9.153   0.129 -1.5423  0.5527 -0.9727
 6033TIP3    H218982   8.479   9.051   0.018  1.8275 -1.0546  0.1180
 6034TIP3   OH218983   0.866   2.050   8.119  0.2028  0.6501  0.2744
 6034TIP3    H118984   0.844   1.982   8.182 -4.0266  1.2491 -0.2491
 6034TIP3    H218985   0.881   2.128   8.171  1.2118  0.1834  0.7004
 6035TIP3   OH218986   8.295   6.569   9.899 -0.2861 -0.1754 -0.0832
 6035TIP3    H118987   8.214   6.570   9.950 -0.9884 -1.1929 -1.1294
 6035TIP3    H218988   8.268   6.541   9.811  1.1966 -0.5009 -0.4687
 6036TIP3   OH218989   8.981   1.432   2.089 -0.6409  0.2700 -0.6229
 6036TIP3    H118990   8.958   1.441   1.997  0.3846  0.0138 -0.9177
 6036TIP3    H218991   8.901   1.457   2.136 -1.4351 -0.3875 -1.5793
 6037TIP3   OH218992   4.276   0.320   9.108 -0.1572 -0.1300 -0.1706
 6037TIP3    H118993   4.261   0.342   9.016  2.1673  2.3739 -0.0480
 6037TIP3    H218994   4.267   0.402   9.155  1.0422 -0.9094  1.5318
 6038TIP3   OH218995   7.176   4.152  10.330 -0.2296  0.0420  0.5426
 6038TIP3    H118996   7.259   4.167  10.376  0.4181 -0.3716 -0.4733
 6038TIP3    H218997   7.147   4.240  10.304  0.9355  0.0268 -0.8792
 6039TIP3   OH218998   2.720   9.004  10.824 -0.1080  0.0009  0.4417
 6039TIP3    H118999   2.786   8.987  10.891  0.1585 -0.2237  0.1235
 6039TIP3    H219000   2.640   9.022  10.873  0.1346  0.0420  0.8237
 6040TIP3   OH219001   0.546   6.327  10.259 -0.9398 -0.0891  0.3174
 6040TIP3    H119002   0.528   6.366  10.173 -1.6801  1.7629  1.2461
 6040TIP3    H219003   0.525   6.234  10.248  0.2273 -0.1793 -1.8297
 6041TIP3   OH219004   8.929   7.453   2.740  0.3039 -0.4786  0.0254
 6041TIP3    H119005   8.992   7.478   2.672  4.2569 -2.5964  2.5469
 6041TIP3    H219006   8.953   7.364   2.764 -2.9946 -0.9860  2.0764
 6042TIP3   OH219007   8.772   9.481  10.475  0.1442 -0.3532 -0.1609
 6042TIP3    H119008   8.808   9.441  10.555  0.6785  0.4272  0.0064
 6042TIP3    H219009   8.702   9.538  10.507  1.5276  1.3538 -0.0191
 6043TIP3   OH219010   1.675   0.684   3.755 -0.3134 -0.1397  0.5129
 6043TIP3    H119011   1.608   0.625   3.789 -1.3852  1.0651  0.5551
 6043TIP3    H219012   1.640   0.715   3.671  2.3151 -3.1312 -1.9589
 6044TIP3   OH219013   5.764   3.652   2.504 -0.1619 -0.4117 -0.0958
 6044TIP3    H119014   5.711   3.731   2.503  0.0368 -0.2850 -0.8335
 6044TIP3    H219015   5.737   3.603   2.426 -0.2727 -1.0669  0.3406
 6045TIP3   OH219016  10.019   9.057   5.647  0.4302  0.7497 -0.4174
 6045TIP3    H119017  10.031   9.145   5.681 -0.2231  0.9621 -0.7360
 6045TIP3    H219018   9.975   9.009   5.717  0.7530  0.6760 -0.2587
 6046TIP3   OH219019  10.097  10.548   0.843 -0.0244 -0.1374  0.1788
 6046TIP3    H119020  10.131  10.511   0.924 -0.3150  1.0041  0.8451
 6046TIP3    H219021  10.127  10.488   0.774  1.3715 -0.3865  0.9778
 6047TIP3   OH219022   3.314   3.011   8.826  0.0255 -0.2101  0.0779
 6047TIP3    H119023   3.346   2.941   8.882 -0.3654 -0.1992  0.3142
 6047TIP3    H219024   3.391   3.066   8.810  0.2107 -0.3972  0.3271
 6048TIP3   OH219025   7.097   8.719   6.460 -0.0603  0.4875  0.2572
 6048TIP3    H119026   7.066   8.668   6.535 -1.2665  0.8858  0.0583
 6048TIP3    H219027   7.192   8.715   6.465 -0.1291 -1.2771  0.5782
 6049TIP3   OH219028   2.849   0.838   1.939  0.2312  0.2219  0.2109
 6049TIP3    H119029   2.903   0.917   1.931 -0.3736  0.5563 -0.9072
 6049TIP3    H219030   2.803   0.833   1.855 -0.4894 -0.7761  0.6510
 6050TIP3   OH219031  10.157   5.204   5.300  0.1434 -0.0184 -0.1051
 6050TIP3    H119032  10.165   5.297   5.280  0.1830 -0.6030 -3.3666
 6050TIP3    H219033  10.064   5.191   5.317  0.2517  0.6925  1.1811
 6051TIP3   OH219034   0.248   4.514   0.991 -0.2805 -0.0422  0.2676
 6051TIP3    H119035   0.217   4.464   0.916  0.9431 -3.0202  1.6046
 6051TIP3    H219036   0.337   4.539   0.968 -0.2871  0.0160  0.3038
 6052TIP3   OH219037  10.822   4.680  10.043 -0.0915  0.2146 -0.0390
 6052TIP3    H119038  10.843   4.612   9.979 -1.5269 -0.3335  0.0412
 6052TIP3    H219039  10.889   4.671  10.111 -0.6111 -1.5384  0.2827
 6053TIP3   OH219040   1.515   0.012   4.406 -0.6885  0.2383  0.4450
 6053TIP3    H119041   1.485   0.052   4.488 -0.4942 -1.6153  1.4973
 6053TIP3    H219042   1.611   0.010   4.415 -0.6027  0.8408 -0.2558
 6054TIP3   OH219043   8.871   8.602   9.844  0.2795 -0.1197  0.5816
 6054TIP3    H119044   8.835   8.628   9.929 -0.3984 -0.5654  0.4397
 6054TIP3    H219045   8.880   8.507   9.849 -0.6813 -0.2687 -0.1719
 6055TIP3   OH219046   0.317   0.324  10.764 -0.1439  0.4570  0.0241
 6055TIP3    H119047   0.274   0.401  10.725 -3.0498 -1.2523 -0.4083
 6055TIP3    H219048   0.307   0.336  10.858  0.6682  1.2627  0.0162
 6056TIP3   OH219049   0.432   4.516   6.191 -0.5305  0.1182  0.2293
 6056TIP3    H119050   0.348   4.556   6.168 -0.3236  0.9218  0.8603
 6056TIP3    H219051   0.416   4.422   6.182 -2.3846  0.0375  3.1265
 6057TIP3   OH219052   3.618   0.958   5.934 -0.4177 -0.3842 -0.2331
 6057TIP3    H119053   3.709   0.962   5.904 -0.9722  0.8619 -1.8946
 6057TIP3    H219054   3.590   0.869   5.916  0.1247 -0.4336 -0.8735
 6058TIP3   OH219055   9.831   4.847  10.670  0.1776  0.1089 -1.0779
 6058TIP3    H119056   9.903   4.788  10.693 -0.5023  0.2784  1.9738
 6058TIP3    H219057   9.874   4.928  10.644  1.1591  0.2517  0.8278
 6059TIP3   OH219058   5.997   2.448   3.583  0.4843  0.0024  0.8599
 6059TIP3    H119059   5.920   2.394   3.567  1.3135 -1.1285  0.6090
 6059TIP3    H219060   6.017   2.487   3.498  0.0676  0.4848  0.9756
 6060TIP3   OH219061   7.462   7.961   3.337 -0.3442  0.1211  0.1529
 6060TIP3    H119062   7.398   8.020   3.377 -0.9902  0.4038 -1.2520
 6060TIP3    H219063   7.429   7.873   3.356 -0.6881  0.2535  0.1777
 6061TIP3   OH219064   9.534   8.332   9.326 -0.7397 -0.1484 -0.1803
 6061TIP3    H119065   9.562   8.371   9.409  0.0447  0.2125 -0.5997
 6061TIP3    H219066   9.455   8.283   9.348 -0.0150 -0.8620  0.9962
 6062TIP3   OH219067   4.102   6.781   0.037 -0.2713  0.1794 -0.0008
 6062TIP3    H119068   4.049   6.801  -0.040 -1.2294  1.8405  1.0354
 6062TIP3    H219069   4.192   6.796   0.008 -0.7167  2.7001 -0.3464
 6063TIP3   OH219070  10.034   5.373   3.039  0.4374  0.5701 -0.0705
 6063TIP3    H119071  10.091   5.441   3.004  2.1150 -1.0854 -0.6995
 6063TIP3    H219072  10.093   5.300   3.060 -1.2882 -0.7159  0.5551
 6064TIP3   OH219073   1.919   6.517   3.683 -0.0796  0.5084  0.0577
 6064TIP3    H119074   1.856   6.575   3.640  0.9710  1.3898 -0.3549
 6064TIP3    H219075   1.975   6.576   3.733  1.7585  0.0355 -1.3143
 6065TIP3   OH219076   6.884   9.493   3.056 -0.1548  0.2133  0.2161
 6065TIP3    H119077   6.905   9.404   3.030  1.8241  0.1212  1.8511
 6065TIP3    H219078   6.942   9.548   3.004  0.7929  0.3096  1.3447
 6066TIP3   OH219079   2.282   3.147  10.629 -0.4951 -0.3018 -0.0419
 6066TIP3    H119080   2.282   3.096  10.549 -0.2701 -3.0737  1.5972
 6066TIP3    H219081   2.375   3.166  10.646 -0.4048 -1.0230  0.3064
 6067TIP3   OH219082   8.204   7.046   9.389  0.1794 -0.3633 -0.1625
 6067TIP3    H119083   8.175   7.137   9.393 -0.9560 -0.6281 -1.4068
 6067TIP3    H219084   8.297   7.049   9.409  0.1540  1.0660 -0.1624
 6068TIP3   OH219085  10.479   7.364   7.840  0.0577 -0.3856 -0.3693
 6068TIP3    H119086  10.487   7.325   7.753 -0.9495  0.0574 -0.6777
 6068TIP3    H219087  10.472   7.289   7.899  1.4988 -0.7008 -0.5700
 6069TIP3   OH219088   7.158   1.225   6.092  0.2051 -0.3293 -0.0244
 6069TIP3    H119089   7.246   1.262   6.081  0.6326 -1.6064 -1.2299
 6069TIP3    H219090   7.100   1.293   6.056  0.8060 -0.0045 -0.4149
 6070TIP3   OH219091   8.414  10.573   4.106  0.1753  0.6080 -0.0238
 6070TIP3    H119092   8.357  10.639   4.067 -2.5537 -2.6698 -2.1964
 6070TIP3    H219093   8.469  10.542   4.034  0.3339 -0.4845  0.5446
 6071TIP3   OH219094   6.792  10.599   4.708  0.6648 -0.2369  0.4588
 6071TIP3    H119095   6.826  10.513   4.735 -0.8042 -1.1792 -0.5313
 6071TIP3    H219096   6.718  10.578   4.651 -0.3012  1.7212  0.9315
 6072TIP3   OH219097   1.663   3.818   9.227 -0.0067  0.3040 -0.5631
 6072TIP3    H119098   1.660   3.753   9.298  1.8451  1.8795  1.0629
 6072TIP3    H219099   1.674   3.766   9.148 -0.0540 -1.4450  0.5171
 6073TIP3   OH219100   6.295   5.854   8.470  0.0798 -0.4005 -0.0796
 6073TIP3    H119101   6.233   5.836   8.541  1.1302 -0.7503  0.7863
 6073TIP3    H219102   6.240   5.883   8.397 -1.1242 -1.0148  0.5401
 6074TIP3   OH219103   6.986   7.342   7.489 -0.4691  0.2561  0.7425
 6074TIP3    H119104   6.892   7.342   7.510 -0.5784 -1.8782  0.5034
 6074TIP3    H219105   7.025   7.284   7.554  0.4871  0.1595  0.1037
 6075TIP3   OH219106   5.290   0.657   8.777  0.3352  0.0391 -0.3515
 6075TIP3    H119107   5.250   0.741   8.800  0.4684  0.6545 -2.1898
 6075TIP3    H219108   5.367   0.680   8.725  0.5142 -1.2250 -0.6901
 6076TIP3   OH219109   3.537   6.962   7.441 -0.5119  0.0674  0.5563
 6076TIP3    H119110   3.624   6.988   7.409 -0.2296 -1.6145 -0.1689
 6076TIP3    H219111   3.548   6.948   7.535 -0.0541  0.0884  0.5053
 6077TIP3   OH219112   5.226   3.176   7.804 -0.3466  0.4481 -0.6616
 6077TIP3    H119113   5.183   3.105   7.852  0.4244 -0.0780 -0.7355
 6077TIP3    H219114   5.270   3.227   7.872  1.1772 -0.5906 -0.7983
 6078TIP3   OH219115   3.331   1.673   8.628 -0.2436  0.3180  0.2215
 6078TIP3    H119116   3.324   1.768   8.629 -3.1770  0.2498 -1.3193
 6078TIP3    H219117   3.371   1.650   8.712 -1.1446  2.8336  1.4221
 6079TIP3   OH219118   9.807   0.424   3.043  0.2452  0.2484 -0.1631
 6079TIP3    H119119   9.833   0.476   3.119  1.7321  0.2415 -0.6409
 6079TIP3    H219120   9.738   0.367   3.076 -0.2863  1.3708  0.7721
 6080TIP3   OH219121   3.284   0.124  10.156  0.2419  0.2304  0.1673
 6080TIP3    H119122   3.209   0.165  10.199  0.5368  0.4144  0.5063
 6080TIP3    H219123   3.264   0.130  10.062 -0.7704 -0.8473  0.2803
 6081TIP3   OH219124   7.959   9.388   4.797  0.7911  0.6094  0.0166
 6081TIP3    H119125   7.934   9.351   4.882  1.1279  1.4681  0.4963
 6081TIP3    H219126   7.875   9.405   4.753  0.5823  1.0676  0.5726
 6082TIP3   OH219127   9.476   2.287   4.633 -0.1899 -0.0795  0.1637
 6082TIP3    H119128   9.463   2.209   4.687 -0.9142 -0.6274 -0.7697
 6082TIP3    H219129   9.569   2.306   4.639  0.2122 -1.6865 -0.4595
 6083TIP3   OH219130   0.432   1.392   1.250 -0.0989  0.2799 -0.0898
 6083TIP3    H119131   0.445   1.314   1.196 -1.1278 -0.5106  0.7618
 6083TIP3    H219132   0.492   1.457   1.214  2.1540 -1.4515  0.3152
 6084TIP3   OH219133   4.403   7.859   3.514 -0.0742  0.9340  0.4601
 6084TIP3    H119134   4.491   7.849   3.476 -0.1151  1.0035  0.3457
 6084TIP3    H219135   4.346   7.808   3.456  0.1799 -0.8621  1.6955
 6085TIP3   OH219136   9.543  10.169   1.229 -0.4942  0.5815 -1.0846
 6085TIP3    H119137   9.491  10.160   1.150 -0.7694  1.1299 -0.9731
 6085TIP3    H219138   9.592  10.250   1.216  1.2081 -0.4847 -1.6804
 6086TIP3   OH219139   0.164   5.345   6.848 -0.2839 -0.2809  0.1081
 6086TIP3    H119140   0.178   5.386   6.934 -0.3948 -1.5906  0.7807
 6086TIP3    H219141   0.244   5.295   6.832 -0.2163  0.0568 -0.6170
 6087TIP3   OH219142   7.588   2.221   6.490 -0.5796  0.3004 -0.2422
 6087TIP3    H119143   7.600   2.208   6.584  0.6239 -0.4166 -0.4660
 6087TIP3    H219144   7.499   2.192   6.472  0.0360 -2.0589  0.2754
 6088TIP3   OH219145   7.533   7.906   4.030  0.0304 -0.2775 -0.4872
 6088TIP3    H119146   7.584   7.851   3.972  0.0672 -0.6293 -0.1309
 6088TIP3    H219147   7.446   7.910   3.989  0.3687  0.4118 -1.1476
 6089TIP3   OH219148   9.388   2.133   6.390 -0.0231  0.2137  0.1333
 6089TIP3    H119149   9.401   2.068   6.321 -0.9787  1.0172 -0.8274
 6089TIP3    H219150   9.474   2.142   6.431  0.6901  0.0853 -1.2836
 6090TIP3   OH219151   6.031   6.959   1.184  0.5093 -0.4937 -0.0276
 6090TIP3    H119152   5.955   6.943   1.241  1.4653  0.4316  1.5642
 6090TIP3    H219153   6.002   7.027   1.124 -0.2367 -0.8622 -0.0984
 6091TIP3   OH219154   5.221   4.257   3.551 -0.3373  0.2541 -0.1043
 6091TIP3    H119155   5.200   4.337   3.599  2.1329  1.8608 -1.4919
 6091TIP3    H219156   5.150   4.248   3.487 -0.3056  1.7392 -0.3777
 6092TIP3   OH219157   6.410   8.016   3.604  0.0466  0.4003 -0.0039
 6092TIP3    H119158   6.392   8.023   3.697  1.9679 -0.7494  0.5071
 6092TIP3    H219159   6.506   8.006   3.598 -0.2584 -3.5764 -1.7441
 6093TIP3   OH219160   6.443   1.101   0.774 -0.2405  0.4991 -0.2966
 6093TIP3    H119161   6.451   1.047   0.695  2.5285  1.5831 -0.8897
 6093TIP3    H219162   6.407   1.184   0.744  0.8426  0.9230 -0.4683
 6094TIP3   OH219163   8.339   6.323   1.844 -0.4887 -0.4443  0.1184
 6094TIP3    H119164   8.429   6.344   1.817 -0.6357 -2.0081 -1.7490
 6094TIP3    H219165   8.340   6.334   1.939  1.5436  0.0424  0.0918
 6095TIP3   OH219166   9.211   2.279   0.389  0.3747 -0.5919  0.4652
 6095TIP3    H119167   9.149   2.210   0.363  0.0377 -0.3596  0.6436
 6095TIP3    H219168   9.231   2.324   0.307 -0.7303  0.1732  0.5921
 6096TIP3   OH219169   7.235   6.752   1.347  0.3580 -0.1704 -0.1040
 6096TIP3    H119170   7.230   6.833   1.295 -2.6128  0.1844  0.5493
 6096TIP3    H219171   7.202   6.684   1.288  0.0213 -0.3429  0.2805
 6097TIP3   OH219172   7.705   5.876   3.877  0.2538  0.0412  0.3824
 6097TIP3    H119173   7.734   5.795   3.834 -0.8200 -1.9491  3.1096
 6097TIP3    H219174   7.611   5.880   3.860  0.5167  1.6351 -0.9881
 6098TIP3   OH219175   1.326   4.980  10.509  0.0041 -0.8486  0.5626
 6098TIP3    H119176   1.407   5.000  10.556 -0.6382  1.8907  0.6198
 6098TIP3    H219177   1.340   5.014  10.421 -0.8906 -0.8360  0.4150
 6099TIP3   OH219178   1.038   4.249   3.379  0.0089  0.5736 -0.1701
 6099TIP3    H119179   1.034   4.231   3.285 -1.5693  0.3921 -0.1032
 6099TIP3    H219180   0.946   4.250   3.407  0.3629  2.1933  1.0807
 6100TIP3   OH219181   3.240   7.324  10.571 -0.1964  0.2202 -0.3175
 6100TIP3    H119182   3.169   7.260  10.567 -3.0056  3.1472 -0.6365
 6100TIP3    H219183   3.290   7.309  10.491 -2.5026  0.2320 -1.8323
 6101TIP3   OH219184   2.924   6.883   1.297 -0.3943 -0.0786 -0.0240
 6101TIP3    H119185   2.945   6.976   1.292  0.4568 -0.2404  0.2762
 6101TIP3    H219186   3.009   6.841   1.310 -0.6064 -1.0127 -1.4768
 6102TIP3   OH219187   3.803   9.567   8.019  0.1220  0.6286 -0.1033
 6102TIP3    H119188   3.768   9.656   8.011  1.4934  1.1306 -0.7710
 6102TIP3    H219189   3.855   9.569   8.099  1.2433  0.8346 -0.8154
 6103TIP3   OH219190   5.548   9.952   0.970  0.5030 -0.7878  0.3328
 6103TIP3    H119191   5.504   9.980   0.889 -2.0680 -1.0851  1.5249
 6103TIP3    H219192   5.584  10.032   1.007  1.4532 -0.6054 -0.9454
 6104TIP3   OH219193   8.692   9.403   5.975 -0.5210  0.1686  0.6858
 6104TIP3    H119194   8.667   9.367   5.890  1.3620 -2.9022  1.2488
 6104TIP3    H219195   8.726   9.490   5.956  1.3905 -1.0360 -2.0114
 6105TIP3   OH219196  10.808   9.474  10.793 -1.0110  0.1059 -0.2605
 6105TIP3    H119197  10.821   9.410  10.863 -0.4297 -1.7686 -1.9823
 6105TIP3    H219198  10.846   9.555  10.827  0.2639 -1.0222  1.1559
 6106TIP3   OH219199  10.176   1.346   1.529  0.5277 -0.2191  0.4277
 6106TIP3    H119200  10.238   1.313   1.464  0.0154 -0.0748 -0.1397
 6106TIP3    H219201  10.210   1.431   1.555 -0.7105  1.0019 -1.7122
 6107TIP3   OH219202   8.055  10.155   0.446 -0.1554  0.0461 -0.5626
 6107TIP3    H119203   8.036  10.167   0.539  1.5606 -0.5499 -0.0993
 6107TIP3    H219204   8.035  10.239   0.406 -0.8645  0.3242  0.3534
 6108TIP3   OH219205   0.316   0.119   1.865  0.0136  0.0549 -0.2384
 6108TIP3    H119206   0.266   0.142   1.787  0.1002 -0.4294 -0.4417
 6108TIP3    H219207   0.390   0.180   1.865 -1.0718  1.4123  0.5950
 6109TIP3   OH219208   4.234   7.458   9.345  0.1462 -0.2202 -0.4801
 6109TIP3    H119209   4.304   7.393   9.355  0.2205 -0.2100 -0.9068
 6109TIP3    H219210   4.168   7.415   9.291  0.2704  0.1090 -0.9025
 6110TIP3   OH219211   9.101   4.755   1.581 -0.2532 -0.3404 -0.5684
 6110TIP3    H119212   9.015   4.755   1.540 -0.3496  2.2868 -0.5189
 6110TIP3    H219213   9.093   4.695   1.655 -1.9597 -0.3195 -0.7117
 6111TIP3   OH219214   8.186   9.342   1.117  0.2737 -0.7322  0.3729
 6111TIP3    H119215   8.100   9.343   1.076  0.8374  0.1538 -0.8565
 6111TIP3    H219216   8.169   9.322   1.209 -1.2662 -0.2024  0.2246
 6112TIP3   OH219217   1.702   6.701   3.989 -0.1837 -0.1727 -0.7708
 6112TIP3    H119218   1.686   6.620   4.038  1.6524  1.7524  3.6088
 6112TIP3    H219219   1.797   6.713   3.993 -0.3498  1.9403 -1.7502
 6113TIP3   OH219220   0.619   4.751   3.023 -0.5002  0.2243 -0.3430
 6113TIP3    H119221   0.622   4.755   2.927 -1.1310 -0.4224 -0.4041
 6113TIP3    H219222   0.710   4.738   3.049 -0.2133  1.1882 -0.8012
 6114TIP3   OH219223   1.854   0.680   4.763  0.3246 -0.2746 -0.4860
 6114TIP3    H119224   1.882   0.673   4.854 -0.4102 -5.8267 -0.4001
 6114TIP3    H219225   1.761   0.657   4.764  0.0310  0.6138 -2.5760
 6115TIP3   OH219226   3.805   2.739   7.811  0.4477  0.0649  0.1686
 6115TIP3    H119227   3.847   2.748   7.726 -0.1836  0.2841 -0.1258
 6115TIP3    H219228   3.749   2.662   7.802  0.9676 -0.3730  0.6371
 6116TIP3   OH219229   1.137   7.162   1.486 -0.0951  0.5489  0.9481
 6116TIP3    H119230   1.224   7.195   1.463  0.2387  1.0794  2.8067
 6116TIP3    H219231   1.080   7.199   1.419  1.0363  0.5072 -0.0854
 6117TIP3   OH219232   8.735   3.903   2.627 -0.4730 -0.2963 -0.5564
 6117TIP3    H119233   8.816   3.945   2.657 -0.7246 -0.3456  0.2180
 6117TIP3    H219234   8.728   3.823   2.679 -0.3005 -1.0162 -1.6113
 6118TIP3   OH219235  10.258   4.059  10.321  0.0253 -0.5794  0.1499
 6118TIP3    H119236  10.236   3.971  10.288 -0.9916  0.5652 -2.4594
 6118TIP3    H219237  10.348   4.073  10.291 -0.4125 -0.0863 -0.9741
 6119TIP3   OH219238   0.342  10.401   8.644  0.2678  0.3466 -0.0664
 6119TIP3    H119239   0.265  10.449   8.672 -0.4805 -0.9719  0.2290
 6119TIP3    H219240   0.404  10.410   8.716 -1.4037 -2.4977  1.9180
 6120TIP3   OH219241   6.211  10.064   7.387  0.0977  0.5192 -0.0719
 6120TIP3    H119242   6.120  10.094   7.384  0.9945  4.6219  3.1570
 6120TIP3    H219243   6.258  10.124   7.329  1.0190 -0.1624 -0.0588
 6121TIP3   OH219244   0.794   7.694   2.098  0.0925 -0.7398 -0.3265
 6121TIP3    H119245   0.858   7.740   2.043 -0.4227  1.1653  0.5903
 6121TIP3    H219246   0.723   7.672   2.038 -1.0438  2.4289 -0.3401
 6122TIP3   OH219247   6.535   7.752   1.149  0.0313 -0.2637  0.5003
 6122TIP3    H119248   6.567   7.716   1.066  0.0661  1.1949 -0.1433
 6122TIP3    H219249   6.510   7.675   1.200  0.0635 -1.2013 -0.8420
 6123TIP3   OH219250   8.564  10.428   4.850 -0.1265  0.3373 -0.3351
 6123TIP3    H119251   8.625  10.487   4.805  2.4040  0.2411  2.6153
 6123TIP3    H219252   8.593  10.340   4.826 -1.7743  0.1927 -2.0634
 6124TIP3   OH219253   8.674   5.321   5.564 -0.2928 -0.3996 -0.3806
 6124TIP3    H119254   8.742   5.300   5.627 -0.9012 -0.6076  0.2213
 6124TIP3    H219255   8.709   5.293   5.480  0.3441 -0.5415 -0.0698
 6125TIP3   OH219256   8.834   1.528   4.074  0.1999  0.3376  0.8191
 6125TIP3    H119257   8.842   1.613   4.031 -1.7119  0.4016  0.5013
 6125TIP3    H219258   8.919   1.485   4.059  0.0723  0.8588 -1.8990
 6126TIP3   OH219259   8.504   0.610   3.014 -0.1595  0.2693  0.0788
 6126TIP3    H119260   8.493   0.692   2.966  1.3778  1.1869  1.1881
 6126TIP3    H219261   8.425   0.604   3.069 -1.9401 -0.7945 -2.3850
 6127TIP3   OH219262   8.172   0.077   1.298 -0.5830  0.1936 -0.0578
 6127TIP3    H119263   8.160   0.142   1.367 -1.7153 -0.6843  0.6164
 6127TIP3    H219264   8.266   0.059   1.298 -0.5013  0.5539  0.9515
 6128TIP3   OH219265   1.674   3.564   1.407 -0.0528  0.5883 -0.2642
 6128TIP3    H119266   1.710   3.489   1.454  1.2584  2.0699  1.2445
 6128TIP3    H219267   1.751   3.610   1.374 -0.8676  0.9014 -1.7842
 6129TIP3   OH219268   7.869   7.847   5.486  0.6836  0.5053  0.1301
 6129TIP3    H119269   7.829   7.823   5.403  0.5454  0.0736  0.3171
 6129TIP3    H219270   7.920   7.926   5.467  0.9990  0.1635 -0.4539
 6130TIP3   OH219271   7.465  10.892   4.025  0.0980 -0.1978 -0.0217
 6130TIP3    H119272   7.548  10.940   4.027  0.2664 -0.5305  1.1847
 6130TIP3    H219273   7.417  10.923   4.102 -0.1522 -1.3286  0.2888
 6131TIP3   OH219274   7.170   4.283   9.609 -0.6581  0.3783  0.2787
 6131TIP3    H119275   7.252   4.332   9.618 -0.7692  1.0212 -1.7282
 6131TIP3    H219276   7.112   4.320   9.675  0.2934  0.7272  0.9380
 6132TIP3   OH219277   6.577   5.027   1.960 -0.0157 -0.1753  0.7135
 6132TIP3    H119278   6.516   5.069   1.899  1.1818 -1.8047 -1.7623
 6132TIP3    H219279   6.520   4.988   2.026 -2.0626 -3.5135 -2.6240
 6133TIP3   OH219280   9.860   0.771   3.431  0.4650  0.0638  0.1389
 6133TIP3    H119281   9.849   0.866   3.426  2.4719  0.3217 -0.1074
 6133TIP3    H219282   9.771   0.736   3.419 -0.2777  1.8824  0.0051
 6134TIP3   OH219283   4.146   6.385  10.620 -0.0970  0.0930  0.4387
 6134TIP3    H119284   4.161   6.336  10.701  0.3305 -0.8168 -0.1737
 6134TIP3    H219285   4.130   6.318  10.554  4.6030  0.3724 -1.3850
 6135TIP3   OH219286   0.146   7.116   1.957 -0.0424 -0.2509 -0.2173
 6135TIP3    H119287   0.095   7.047   2.001 -1.0300  0.9132  0.5412
 6135TIP3    H219288   0.099   7.197   1.978  1.1508  0.6728 -0.9938
 6136TIP3   OH219289   0.944   9.682   8.988  0.4028  0.3761  0.0987
 6136TIP3    H119290   0.960   9.776   8.994  0.0443  0.4079  0.5975
 6136TIP3    H219291   0.985   9.645   9.067 -0.3450  0.2424  0.4356
 6137TIP3   OH219292   5.190   6.813   6.568 -0.1447  0.3569 -0.2308
 6137TIP3    H119293   5.284   6.798   6.563 -0.0852  0.4089  0.6718
 6137TIP3    H219294   5.168   6.802   6.660 -1.2804 -1.1280 -0.6402
 6138TIP3   OH219295   5.809   8.235   6.064  0.1394  0.3029 -0.7751
 6138TIP3    H119296   5.838   8.148   6.094  1.0650  0.8448 -0.0488
 6138TIP3    H219297   5.729   8.251   6.113  0.9260  0.6039  0.4503
 6139TIP3   OH219298   7.842   9.624   5.271 -0.0102 -0.7201  0.2058
 6139TIP3    H119299   7.756   9.664   5.262  0.5120  1.5555  3.4566
 6139TIP3    H219300   7.903   9.697   5.266  1.7534 -2.2254 -1.5552
 6140TIP3   OH219301   8.169   7.613   8.231 -0.1649  0.4134 -0.2666
 6140TIP3    H119302   8.243   7.558   8.208  0.4726  0.7884  0.8025
 6140TIP3    H219303   8.156   7.597   8.325  1.0715  3.2262  0.4968
 6141TIP3   OH219304   1.757  10.050   9.813  0.0359  0.1126  0.1022
 6141TIP3    H119305   1.844  10.055   9.773 -0.0214  1.5028  0.0894
 6141TIP3    H219306   1.747   9.958   9.837  1.3922 -0.1277 -0.1459
 6142TIP3   OH219307   7.562   3.953   4.393  0.4385 -0.4259 -0.5966
 6142TIP3    H119308   7.485   3.971   4.339  0.8896 -1.4657 -1.6237
 6142TIP3    H219309   7.596   4.040   4.414 -1.0850  0.0643  0.0222
 6143TIP3   OH219310   0.018   7.369   2.755 -0.0235 -0.4918  0.2615
 6143TIP3    H119311  -0.062   7.340   2.711  1.1675 -0.4937 -2.0654
 6143TIP3    H219312   0.059   7.429   2.694  0.5888  1.4698  2.4563
 6144TIP3   OH219313   0.399  10.411   0.556 -0.4202  0.2597  0.0637
 6144TIP3    H119314   0.479  10.358   0.552 -0.6958 -0.2217  0.7368
 6144TIP3    H219315   0.406  10.458   0.640 -1.6878 -1.1850  1.0223
 6145TIP3   OH219316   4.636   5.050   7.498 -0.0206  0.6561 -0.5600
 6145TIP3    H119317   4.644   5.145   7.506 -2.0358  0.7368  1.7983
 6145TIP3    H219318   4.561   5.038   7.440 -1.2134  0.6393  0.9060
 6146TIP3   OH219319   4.315   4.628   1.952  0.1240 -0.4543  0.0112
 6146TIP3    H119320   4.334   4.693   2.020 -2.4298 -0.7639  1.1667
 6146TIP3    H219321   4.297   4.680   1.874  0.2231  0.1137  0.3551
 6147TIP3   OH219322   0.638   9.315   0.149  0.3656  0.0476 -0.3440
 6147TIP3    H119323   0.580   9.360   0.209  1.2604  0.2688  0.3775
 6147TIP3    H219324   0.603   9.335   0.062  0.0936  1.1916  0.0141
 6148TIP3   OH219325  10.841   0.655   9.065 -0.0826 -0.0194 -0.3963
 6148TIP3    H119326  10.886   0.727   9.020 -0.6293  0.3286 -0.3879
 6148TIP3    H219327  10.900   0.633   9.137 -0.2362  0.8995  0.0328
 6149TIP3   OH219328   7.812   1.232   5.612 -0.4707  0.5981 -0.4577
 6149TIP3    H119329   7.717   1.222   5.612 -0.4229 -0.6473  1.8343
 6149TIP3    H219330   7.830   1.294   5.683  0.4359  0.5740 -0.6465
 6150TIP3   OH219331   4.620   8.482   6.524 -0.6183 -0.1421  0.0172
 6150TIP3    H119332   4.697   8.457   6.575  1.3296  0.8386 -2.2101
 6150TIP3    H219333   4.615   8.577   6.533  0.3266  0.1818 -2.1633
 6151TIP3   OH219334   8.619   4.289   9.893  0.2000  0.1585  0.0975
 6151TIP3    H119335   8.583   4.271   9.980 -0.7412  0.4647 -0.2122
 6151TIP3    H219336   8.661   4.374   9.901 -0.8205  0.6906  0.0017
 6152TIP3   OH219337   3.765   6.081   8.233  0.5747 -0.4477 -0.5327
 6152TIP3    H119338   3.840   6.123   8.276  2.1379 -3.1773 -0.4118
 6152TIP3    H219339   3.715   6.154   8.197  1.3484  1.7238  2.3962
 6153TIP3   OH219340   5.149  10.141   3.305  0.0837  0.6464 -0.1583
 6153TIP3    H119341   5.109  10.226   3.286  1.0689  0.8795 -1.3050
 6153TIP3    H219342   5.242  10.161   3.317  0.5086 -0.3803 -1.4840
 6154TIP3   OH219343   1.552   2.362   4.491 -0.1976 -0.2312 -0.2379
 6154TIP3    H119344   1.607   2.315   4.554  0.8824 -0.5084 -1.3666
 6154TIP3    H219345   1.599   2.357   4.408 -2.1594 -0.9095 -1.3710
 6155TIP3   OH219346   9.757   3.724   1.046  0.1519 -0.1267  0.3753
 6155TIP3    H119347   9.813   3.745   1.121  1.1453  1.3959 -0.7131
 6155TIP3    H219348   9.671   3.706   1.084  0.5816  0.7623  1.8683
 6156TIP3   OH219349   1.908   5.644  10.203 -0.0725 -0.5624  0.5843
 6156TIP3    H119350   1.983   5.689  10.243 -0.6840  2.3414 -1.2464
 6156TIP3    H219351   1.846   5.632  10.275  1.3886 -1.4738  1.7707
 6157TIP3   OH219352   2.512   4.592   5.509 -0.1318  0.0286  0.2424
 6157TIP3    H119353   2.421   4.617   5.498 -0.0240  0.2912 -0.0969
 6157TIP3    H219354   2.538   4.558   5.423  0.1607  0.2025  0.2601
 6158TIP3   OH219355   0.472   0.842   5.032 -0.3937  0.4199  0.3017
 6158TIP3    H119356   0.519   0.762   5.007 -0.9107  0.0911  0.3566
 6158TIP3    H219357   0.519   0.875   5.108 -0.3506 -0.0000  0.4605
 6159TIP3   OH219358   9.179   9.362   8.389  0.6035  0.5604  0.2546
 6159TIP3    H119359   9.192   9.300   8.318 -0.1645  2.1319 -1.3511
 6159TIP3    H219360   9.107   9.418   8.359  1.3434  2.3084  1.5371
 6160TIP3   OH219361   0.788   9.054   3.874  0.5016 -0.6776 -0.1236
 6160TIP3    H119362   0.828   9.054   3.961 -1.1871 -0.9326  0.7178
 6160TIP3    H219363   0.717   9.118   3.880 -0.7534 -1.9465 -0.7285
 6161TIP3   OH219364   2.276   6.377  10.093  0.1055 -0.6129  0.2542
 6161TIP3    H119365   2.249   6.310  10.155  0.1773 -2.4452 -1.5841
 6161TIP3    H219366   2.218   6.364  10.017  0.7392  0.7947 -0.5097
 6162TIP3   OH219367   5.375   5.797   8.396 -0.8464 -0.4591  0.6319
 6162TIP3    H119368   5.305   5.732   8.398  0.1681 -1.5671  1.0087
 6162TIP3    H219369   5.331   5.879   8.372 -2.2441 -1.1462  0.7684
 6163TIP3   OH219370   0.553   4.418   0.899 -0.2580  0.3265 -0.1063
 6163TIP3    H119371   0.542   4.384   0.988  0.4743 -0.8558 -0.4548
 6163TIP3    H219372   0.624   4.482   0.907  0.1830 -0.1797  0.0580
 6164TIP3   OH219373   6.525   1.073   6.425 -0.0321  0.6323  0.3834
 6164TIP3    H119374   6.581   1.062   6.502  1.4201  3.1436 -0.2201
 6164TIP3    H219375   6.437   1.087   6.461  0.4343  0.6809  1.5394
 6165TIP3   OH219376   3.330   4.683   8.527 -0.0137 -0.6039  0.1466
 6165TIP3    H119377   3.347   4.777   8.517  1.6276 -0.9335 -0.5267
 6165TIP3    H219378   3.258   4.678   8.590  0.9455  1.0391  1.4449
 6166TIP3   OH219379   5.902   7.479   1.994 -0.1138 -0.1476  0.3267
 6166TIP3    H119380   5.963   7.516   1.929 -1.3866  1.9933  0.2601
 6166TIP3    H219381   5.898   7.545   2.063  0.4115 -1.9258  2.1482
 6167TIP3   OH219382   6.430   8.321   2.087 -0.2805 -0.3481  0.0026
 6167TIP3    H119383   6.406   8.383   2.157  1.3346 -1.6739  1.8426
 6167TIP3    H219384   6.492   8.370   2.032  2.3110 -0.6606  2.3935
 6168TIP3   OH219385   3.547   8.769   3.181  0.4118  0.5219 -0.2693
 6168TIP3    H119386   3.538   8.675   3.194  1.2155  0.4303 -0.3006
 6168TIP3    H219387   3.471   8.794   3.129 -0.1383  0.0052  0.2795
 6169TIP3   OH219388   3.638   9.806   3.811  0.4754 -0.1631  0.3218
 6169TIP3    H119389   3.603   9.852   3.887  0.9082 -1.7776  1.5487
 6169TIP3    H219390   3.630   9.869   3.739 -0.8514  1.0552  1.4767
 6170TIP3   OH219391   8.721   3.450  10.699  0.1809  0.1519  0.7397
 6170TIP3    H119392   8.786   3.482  10.762 -0.4587 -1.3373  2.2458
 6170TIP3    H219393   8.648   3.512  10.707  1.0742  1.4198 -0.4401
 6171TIP3   OH219394   6.532   4.148  10.247 -0.3279 -0.3292  0.0437
 6171TIP3    H119395   6.503   4.234  10.277  0.3678  0.5885 -1.7533
 6171TIP3    H219396   6.627   4.157  10.238 -0.0019 -1.8252  1.3682
 6172TIP3   OH219397   2.575   0.979   2.364  0.7371  0.3453 -0.4627
 6172TIP3    H119398   2.527   0.975   2.447 -1.8646 -0.6621 -1.9096
 6172TIP3    H219399   2.612   0.891   2.355  0.3354  0.2017 -0.7327
 6173TIP3   OH219400   2.085   5.615   9.324 -0.4026  0.1942 -0.1428
 6173TIP3    H119401   2.039   5.531   9.314  1.1869 -0.5049 -2.2652
 6173TIP3    H219402   2.056   5.668   9.250  1.1725  0.2137 -0.7818
 6174TIP3   OH219403   9.670   6.032   8.573  0.4841 -0.2760 -0.0184
 6174TIP3    H119404   9.593   6.028   8.630  0.1163  1.7528 -0.3275
 6174TIP3    H219405   9.742   6.053   8.632  0.5998 -0.8781  0.0690
 6175TIP3   OH219406   4.872   5.387   0.964  0.1098  0.1252  0.1446
 6175TIP3    H119407   4.946   5.430   0.921 -0.3173  0.2096 -0.5242
 6175TIP3    H219408   4.894   5.293   0.960  0.0112  0.1196 -0.3932
 6176TIP3   OH219409   1.264   6.086   1.461  0.4528 -0.3847  0.0809
 6176TIP3    H119410   1.325   6.157   1.482  0.5219  0.1934 -1.8596
 6176TIP3    H219411   1.179   6.119   1.487  0.7662 -0.6021  1.4485
 6177TIP3   OH219412   5.948   9.499   7.142 -0.0766 -0.1053 -0.7072
 6177TIP3    H119413   5.951   9.466   7.232  0.1374  0.8978 -0.3319
 6177TIP3    H219414   6.010   9.445   7.094  1.3839  0.6774  0.2161
 6178TIP3   OH219415   7.973  10.319   3.995 -0.5236 -0.2117  0.9122
 6178TIP3    H119416   8.010  10.264   3.926  0.3002  0.6650  0.6343
 6178TIP3    H219417   7.895  10.272   4.024 -1.5048 -0.1029 -1.3463
 6179TIP3   OH219418   2.439   8.752   9.757  0.4081  0.3101  0.0754
 6179TIP3    H119419   2.401   8.834   9.787  0.6739  0.3831  0.2133
 6179TIP3    H219420   2.524   8.747   9.800  0.3336 -0.1072  0.1803
 6180TIP3   OH219421   7.577   0.183   1.393  0.1854 -0.0853 -0.0452
 6180TIP3    H119422   7.656   0.210   1.348  0.0553 -0.6471 -0.6308
 6180TIP3    H219423   7.571   0.089   1.377  1.4207 -0.8175  3.1287
 6181TIP3   OH219424  10.795   1.210   4.902  0.0778  0.1504  0.3537
 6181TIP3    H119425  10.814   1.278   4.966  1.9903  2.8162 -2.7682
 6181TIP3    H219426  10.706   1.228   4.874 -0.0205  0.2791  0.7365
 6182TIP3   OH219427  10.577   5.183  10.813 -0.2728 -0.5312  0.3865
 6182TIP3    H119428  10.543   5.136  10.889  0.3281 -0.6137  0.6101
 6182TIP3    H219429  10.667   5.151  10.803  0.1947  0.6562  0.6180
 6183TIP3   OH219430   6.541   5.230   6.748 -0.0544 -0.3169  0.7796
 6183TIP3    H119431   6.464   5.173   6.748 -1.0815  1.0364  0.3520
 6183TIP3    H219432   6.583   5.213   6.832  1.2248 -3.6673 -0.3360
 6184TIP3   OH219433   6.523   5.374   8.834  0.5546  0.2307 -0.0541
 6184TIP3    H119434   6.464   5.301   8.855  0.2468  0.2961 -0.6626
 6184TIP3    H219435   6.472   5.453   8.854 -0.0658  0.3087 -1.8152
 6185TIP3   OH219436  10.059   4.105   0.476 -0.5049  1.2130 -0.7914
 6185TIP3    H119437  10.101   4.158   0.544  0.1650  1.4301 -1.3620
 6185TIP3    H219438  10.102   4.132   0.395  0.8163 -1.1218 -0.9597
 6186TIP3   OH219439   5.815   8.227   9.049  0.1009  0.1533 -0.8456
 6186TIP3    H119440   5.904   8.259   9.062  0.5116 -0.8635 -1.0734
 6186TIP3    H219441   5.760   8.304   9.064  1.0408  0.9325 -1.2770
 6187TIP3   OH219442   4.201   7.351   3.966  0.0485 -0.3665  0.3498
 6187TIP3    H119443   4.111   7.369   3.992 -0.7928 -0.1151 -2.4464
 6187TIP3    H219444   4.253   7.416   4.014 -1.4128  0.4005  0.9459
 6188TIP3   OH219445   4.554   8.317   8.231 -0.2688 -0.1934 -0.2150
 6188TIP3    H119446   4.523   8.403   8.204  0.2736 -0.4626 -1.7726
 6188TIP3    H219447   4.498   8.256   8.183  1.6501 -0.6852 -1.9395
 6189TIP3   OH219448   9.539   4.099   0.765  0.0276 -0.2297  0.2114
 6189TIP3    H119449   9.528   4.049   0.846  1.2143  0.7035  0.9995
 6189TIP3    H219450   9.594   4.173   0.791  1.2878 -0.4528 -1.6660
 6190TIP3   OH219451  10.861   5.544   4.546  0.4123 -0.2023  0.0816
 6190TIP3    H119452  10.907   5.501   4.618 -1.7821 -2.2576  0.3759
 6190TIP3    H219453  10.915   5.526   4.469  2.3135  1.2598  0.9831
 6191TIP3   OH219454   9.790   2.726   0.629 -0.1896 -0.2138  0.2435
 6191TIP3    H119455   9.724   2.792   0.649 -0.3848 -0.8244  1.7239
 6191TIP3    H219456   9.867   2.754   0.679  0.7285  0.5303 -1.5202
 6192TIP3   OH219457   3.045   2.552   9.214  0.1324 -0.3880 -0.0043
 6192TIP3    H119458   3.019   2.486   9.278 -0.9129 -0.4711 -0.4946
 6192TIP3    H219459   2.965   2.570   9.164  0.7434  0.2172 -0.7957
 6193TIP3   OH219460   1.975   2.525   3.140 -0.1981  0.1116  0.1396
 6193TIP3    H119461   1.945   2.616   3.133  1.8939  0.8045 -0.6915
 6193TIP3    H219462   2.070   2.532   3.137 -0.0034 -2.1565 -0.1425
 6194TIP3   OH219463   6.867   8.812   2.237 -0.0780 -0.4481 -0.0905
 6194TIP3    H119464   6.860   8.841   2.146  0.6320  0.1327  0.0294
 6194TIP3    H219465   6.800   8.863   2.283  0.1465 -0.1014 -0.1418
 6195TIP3   OH219466   0.649   1.007   2.392  0.3498  0.1977 -0.1132
 6195TIP3    H119467   0.701   0.929   2.410  1.4369  0.9970  0.3604
 6195TIP3    H219468   0.700   1.079   2.429 -1.5346  0.9545  1.1614
 6196TIP3   OH219469   2.276  10.508   4.390 -0.1594  0.6407 -0.2394
 6196TIP3    H119470   2.317  10.421   4.388 -1.5866 -0.0511 -0.7766
 6196TIP3    H219471   2.313  10.553   4.314  1.3538  0.9007  0.6085
 6197TIP3   OH219472   2.119  10.048   2.161  0.0574  0.4099  0.0249
 6197TIP3    H119473   2.122  10.102   2.081  2.4800  2.7507  1.5264
 6197TIP3    H219474   2.049  10.088   2.213  0.6803  1.0061  0.4132
 6198TIP3   OH219475   8.403   6.927   4.547  0.0394  0.1764  0.0888
 6198TIP3    H119476   8.375   6.983   4.618 -0.2779  0.6894 -0.4298
 6198TIP3    H219477   8.494   6.953   4.529 -0.0201  0.3396  0.0260
 6199TIP3   OH219478  10.405   8.269  10.198  0.1706 -0.4241  0.2440
 6199TIP3    H119479  10.327   8.303  10.242 -0.1159  1.3680 -1.5504
 6199TIP3    H219480  10.467   8.253  10.270 -1.7579 -1.8141  1.6977
 6200TIP3   OH219481   6.815   0.621  10.894  1.0247 -0.2211 -0.5023
 6200TIP3    H119482   6.828   0.551  10.959  0.8297  0.6762  0.5223
 6200TIP3    H219483   6.873   0.596  10.822  2.8355 -0.2019  0.8677
 6201TIP3   OH219484   5.982   9.686   5.462 -0.1701  0.0723 -0.6713
 6201TIP3    H119485   6.055   9.713   5.519 -1.4093 -1.6126  1.9478
 6201TIP3    H219486   5.935   9.767   5.443  0.2520  0.7179  0.8392
 6202TIP3   OH219487   2.589   4.673  10.712  0.1672  0.0488  0.0271
 6202TIP3    H119488   2.645   4.598  10.692 -2.4830 -2.4013  0.9462
 6202TIP3    H219489   2.538   4.645  10.788 -1.1805  2.6931  0.2188
 6203TIP3   OH219490   7.545   7.153   2.447  0.5348  0.1942 -0.0541
 6203TIP3    H119491   7.573   7.064   2.423 -0.7290 -0.0795 -0.6040
 6203TIP3    H219492   7.549   7.155   2.542  0.1773 -0.5934 -0.0187
 6204TIP3   OH219493   6.571  10.810   7.856  0.0992  0.0584 -0.1912
 6204TIP3    H119494   6.526  10.768   7.782  1.2788  1.4531 -1.7690
 6204TIP3    H219495   6.618  10.883   7.817  0.4602  1.0896  2.0309
 6205TIP3   OH219496   6.798   0.467   6.944 -0.2483 -0.1898  0.0792
 6205TIP3    H119497   6.723   0.412   6.919 -1.2556  1.7898 -1.5137
 6205TIP3    H219498   6.843   0.484   6.861  0.9661  0.0756  0.7796
 6206TIP3   OH219499   8.536   1.467   8.290 -0.5369 -0.2809  0.1490
 6206TIP3    H119500   8.476   1.486   8.362 -2.0964  0.4169 -1.2593
 6206TIP3    H219501   8.523   1.373   8.273 -1.7938 -0.0154 -0.5550
 6207TIP3   OH219502   6.109   7.582   0.832  0.5171 -0.1439 -0.0961
 6207TIP3    H119503   6.066   7.664   0.856  0.3417 -0.0189 -0.8056
 6207TIP3    H219504   6.089   7.571   0.739  1.7345 -0.2498 -0.3663
 6208TIP3   OH219505   2.391   0.060   5.213 -1.0473  0.3728  0.1346
 6208TIP3    H119506   2.319  -0.003   5.226 -1.8480  1.0456 -0.8794
 6208TIP3    H219507   2.465   0.021   5.259 -1.9932 -0.4627  1.0177
 6209TIP3   OH219508  10.059   7.926   9.105 -0.2502  0.1435  0.3184
 6209TIP3    H119509  10.068   8.019   9.124 -1.6642  0.4832 -0.5618
 6209TIP3    H219510   9.983   7.898   9.157  0.6336 -0.7258  1.2004
 6210TIP3   OH219511   5.929   5.158   6.802 -0.0610  0.3027  0.1329
 6210TIP3    H119512   5.856   5.157   6.864 -0.4555 -2.7796 -0.2295
 6210TIP3    H219513   6.006   5.143   6.855 -0.0719  0.3346  0.1574
 6211TIP3   OH219514   5.503   3.262   2.260 -0.0524 -0.0217  0.0749
 6211TIP3    H119515   5.550   3.286   2.340  1.8785 -0.6741 -0.7800
 6211TIP3    H219516   5.470   3.173   2.276 -0.9626  0.4124  0.6577
 6212TIP3   OH219517   5.487  10.151   6.080 -0.2903  0.5675  0.0313
 6212TIP3    H119518   5.521  10.146   6.169  0.8709  2.8000 -0.2193
 6212TIP3    H219519   5.524  10.075   6.036 -0.3395 -0.1970  1.2459
 6213TIP3   OH219520   0.773   2.648   3.202 -0.2531  0.6028  0.3125
 6213TIP3    H119521   0.768   2.604   3.286  0.4065  0.8473  0.4875
 6213TIP3    H219522   0.682   2.663   3.177 -0.5131 -1.1682  0.0725
 6214TIP3   OH219523   4.141   3.425   2.361  0.2802 -0.0890  0.0692
 6214TIP3    H119524   4.180   3.339   2.380  2.1369  0.7951  0.4450
 6214TIP3    H219525   4.063   3.404   2.309  0.2117 -2.0428  0.8517
 6215TIP3   OH219526  10.302  10.207   0.382  0.3982 -0.7378  0.3917
 6215TIP3    H119527  10.311  10.229   0.289  0.9181  2.6690  1.1204
 6215TIP3    H219528  10.387  10.171   0.406  1.2559  1.0007  0.1081
 6216TIP3   OH219529   6.604   8.517   7.555  0.4497  0.3003  0.0007
 6216TIP3    H119530   6.549   8.579   7.602  0.0843  0.3774 -0.5282
 6216TIP3    H219531   6.569   8.516   7.466 -0.2263 -1.4257  0.2433
 6217TIP3   OH219532   1.442   0.202   2.963  0.5253  0.4534  0.2448
 6217TIP3    H119533   1.505   0.240   3.025 -0.2578  0.6123  0.9678
 6217TIP3    H219534   1.378   0.158   3.019 -1.1045  1.9675 -0.3276
 6218TIP3   OH219535   6.111   7.466   3.992  0.0915  0.2728 -0.3974
 6218TIP3    H119536   6.202   7.452   4.017  0.2770  0.8962 -0.7030
 6218TIP3    H219537   6.099   7.411   3.914 -0.1134 -0.6508  0.2680
 6219TIP3   OH219538   2.582   4.509   8.801  0.0168  0.3838  0.0972
 6219TIP3    H119539   2.509   4.485   8.859  1.1285  1.0423  1.8696
 6219TIP3    H219540   2.579   4.445   8.730 -1.3437 -0.5434  0.9454
 6220TIP3   OH219541   0.817   2.481   5.775 -0.2298 -0.0603  0.0722
 6220TIP3    H119542   0.843   2.524   5.856  1.1331  0.2999 -0.5351
 6220TIP3    H219543   0.722   2.466   5.785 -0.6823  2.6197  0.5094
 6221TIP3   OH219544   3.590   3.933   4.032 -0.0998  0.3449 -0.0420
 6221TIP3    H119545   3.625   3.864   4.089 -0.7740  0.1707  0.1719
 6221TIP3    H219546   3.597   3.897   3.944 -0.9564 -0.2393  0.1120
 6222TIP3   OH219547   3.637   8.829   0.009 -0.1662  0.1542  0.8824
 6222TIP3    H119548   3.554   8.874  -0.011 -0.6855 -1.1517 -0.1179
 6222TIP3    H219549   3.629   8.803   0.101  0.1933  2.1277  1.5103
 6223TIP3   OH219550   4.086  10.173   0.021 -0.0957  0.1963 -0.2942
 6223TIP3    H119551   4.103  10.078   0.019 -0.3182  0.1294  0.5330
 6223TIP3    H219552   4.082  10.194   0.115 -0.8825  0.8817 -0.4779
 6224TIP3   OH219553   8.947   9.343   7.189 -0.3014  0.0920  0.5057
 6224TIP3    H119554   8.977   9.299   7.109 -0.7384  1.3305 -0.3800
 6224TIP3    H219555   8.981   9.432   7.181  0.3045  0.0368  2.1026
 6225TIP3   OH219556  10.148   3.739  10.471  0.3545 -0.5765  0.3624
 6225TIP3    H119557  10.229   3.761  10.426  0.6507  0.8878  1.5213
 6225TIP3    H219558  10.172   3.736  10.564 -0.9034 -0.1079  0.7332
 6226TIP3   OH219559   2.735   1.391  10.669  0.3874 -0.0911 -0.3069
 6226TIP3    H119560   2.687   1.441  10.603  2.1942  0.4264 -1.2969
 6226TIP3    H219561   2.671   1.374  10.738 -1.3126  0.1322 -1.7754
 6227TIP3   OH219562   2.581   9.232   3.761  0.2946  0.5410 -0.8284
 6227TIP3    H119563   2.633   9.229   3.681 -1.6143 -0.5128 -2.0911
 6227TIP3    H219564   2.514   9.164   3.750 -0.2036  0.5438  1.5493
 6228TIP3   OH219565   9.515  10.130  10.691 -0.4225 -1.0491 -0.3579
 6228TIP3    H119566   9.587  10.131  10.753 -1.9067 -2.6137  1.5353
 6228TIP3    H219567   9.506  10.038  10.666 -1.8864 -0.9432 -0.3345
 6229TIP3   OH219568   5.110   7.147   8.784  0.0051  0.6614  0.8897
 6229TIP3    H119569   5.119   7.191   8.699 -0.5985  0.2808  0.6217
 6229TIP3    H219570   5.019   7.161   8.808 -0.6286 -1.6695  0.0958
 6230TIP3   OH219571   8.510   4.133   1.328 -0.6300  0.0971  0.3948
 6230TIP3    H119572   8.498   4.185   1.408  1.4036  1.6579 -0.2228
 6230TIP3    H219573   8.605   4.119   1.323 -0.9750 -2.3145 -0.3628
 6231TIP3   OH219574   0.769   5.029  10.109 -0.5103  0.5282 -0.1997
 6231TIP3    H119575   0.747   4.956  10.051  3.3230 -0.5442 -0.5655
 6231TIP3    H219576   0.798   5.099  10.050  0.0402  0.7150  0.2807
 6232TIP3   OH219577   6.368   2.689   1.556 -0.6930 -0.5059 -0.1901
 6232TIP3    H119578   6.378   2.784   1.567 -2.8268 -0.4611  2.3827
 6232TIP3    H219579   6.455   2.654   1.574 -0.3170  0.8607  0.8285
 6233TIP3   OH219580   5.623   9.622   6.145 -0.5974  0.3213 -0.5834
 6233TIP3    H119581   5.583   9.611   6.059 -0.3295 -1.5162 -0.5145
 6233TIP3    H219582   5.700   9.677   6.129 -1.1893  0.9561 -1.3066
 6234TIP3   OH219583   2.675   8.481   7.060 -0.5539 -0.3885  0.2793
 6234TIP3    H119584   2.588   8.503   7.026  0.6626  1.3731 -2.0060
 6234TIP3    H219585   2.721   8.444   6.985  1.1466  0.2506  0.9631
 6235TIP3   OH219586   5.023   3.398   9.403 -0.6314 -0.0692 -0.2559
 6235TIP3    H119587   4.935   3.433   9.413 -0.6556  0.0787 -0.9061
 6235TIP3    H219588   5.012   3.320   9.349 -0.4130 -0.2956  0.0246
 6236TIP3   OH219589   1.300   2.647   9.770 -0.7932 -1.0203  0.2094
 6236TIP3    H119590   1.342   2.565   9.743 -2.4763 -1.5718 -0.9384
 6236TIP3    H219591   1.299   2.701   9.692 -1.4179 -0.6933  0.4316
 6237TIP3   OH219592   7.957   0.744   1.035  0.5860  0.0905  0.3647
 6237TIP3    H119593   7.901   0.793   0.976  1.0165 -0.7833 -0.7975
 6237TIP3    H219594   8.040   0.735   0.988  1.0455 -0.3451  1.2265
 6238TIP3   OH219595   7.127   8.555   4.078 -0.6508 -0.5954 -0.1370
 6238TIP3    H119596   7.092   8.644   4.073  0.2943 -0.2190 -0.3101
 6238TIP3    H219597   7.051   8.500   4.097 -1.1767  0.2954  0.3795
 6239TIP3   OH219598   5.669   5.535   2.630  0.0802 -0.0442 -0.3083
 6239TIP3    H119599   5.658   5.453   2.582  0.2865 -0.1146 -0.2401
 6239TIP3    H219600   5.637   5.516   2.718  2.6588 -0.9240  0.5422
 6240TIP3   OH219601   4.922   9.846   7.670 -0.1864  0.2071  0.4877
 6240TIP3    H119602   4.906   9.767   7.723  1.1447 -0.3977  0.0457
 6240TIP3    H219603   4.960   9.812   7.589 -2.1321  1.1202 -0.8829
 6241TIP3   OH219604   4.070   9.627   1.454  0.8744 -0.0704  0.7774
 6241TIP3    H119605   3.981   9.591   1.450  0.3808  1.0739  0.9741
 6241TIP3    H219606   4.115   9.573   1.519  0.7949 -1.6073 -0.3771
 6242TIP3   OH219607   0.671   0.980   7.160 -0.0607  0.0473  0.3706
 6242TIP3    H119608   0.646   0.891   7.135 -3.2171  0.4811  1.4498
 6242TIP3    H219609   0.612   1.001   7.233  1.5960  2.5114  1.1056
 6243TIP3   OH219610   5.149   0.918   9.932 -0.5448 -0.0207 -0.1238
 6243TIP3    H119611   5.079   0.880   9.986  0.6621  0.7288  2.0734
 6243TIP3    H219612   5.102   0.966   9.864 -2.1924  0.1755  1.0736
 6244TIP3   OH219613   3.340   4.650  10.082  0.6535  0.1261  0.0669
 6244TIP3    H119614   3.413   4.598  10.115  0.7144  0.9778  1.3574
 6244TIP3    H219615   3.279   4.655  10.156 -0.6101 -0.3479 -0.9011
 6245TIP3   OH219616   2.939   0.244  10.874  0.3699 -0.5676  0.5238
 6245TIP3    H119617   2.959   0.320  10.928  0.6754 -0.4414  0.2416
 6245TIP3    H219618   2.881   0.190  10.927 -2.6230  1.4242 -0.4669
 6246TIP3   OH219619   1.796   9.205   5.744 -0.1947 -0.0413  0.3544
 6246TIP3    H119620   1.850   9.283   5.730 -1.3700  0.7263 -0.0577
 6246TIP3    H219621   1.850   9.132   5.715  0.6850  0.6847  0.1326
 6247TIP3   OH219622   9.381   6.957   7.115  0.2143  0.2849 -0.3334
 6247TIP3    H119623   9.292   6.922   7.114 -0.6981  2.3872 -1.9582
 6247TIP3    H219624   9.413   6.940   7.204 -2.8564  1.8245  1.2205
 6248TIP3   OH219625   0.029   8.612   6.100 -0.1731  0.6371  0.2236
 6248TIP3    H119626   0.108   8.607   6.154 -0.0297  1.4773  0.1064
 6248TIP3    H219627   0.059   8.645   6.016 -0.6849  1.3223  0.2903
 6249TIP3   OH219628  10.795   7.206   0.380  0.3937 -0.6865  0.1373
 6249TIP3    H119629  10.716   7.183   0.429 -1.0040 -0.3901 -1.8661
 6249TIP3    H219630  10.829   7.121   0.351  1.3946 -0.8889  1.7647
 6250TIP3   OH219631   7.670   2.738   7.621 -0.2947 -0.0745  0.1205
 6250TIP3    H119632   7.750   2.692   7.647 -0.5107 -1.1509 -1.0399
 6250TIP3    H219633   7.691   2.778   7.537 -0.8087  0.0563  0.0491
 6251TIP3   OH219634   2.374   8.544   9.620 -0.1802  0.3621 -0.1634
 6251TIP3    H119635   2.396   8.625   9.666 -0.9023  0.6019 -0.2321
 6251TIP3    H219636   2.444   8.483   9.644 -0.6822  0.3858  1.4559
 6252TIP3   OH219637  10.309   1.564   6.936  0.1606 -0.2330 -0.0071
 6252TIP3    H119638  10.282   1.517   7.015  0.7715  0.8493  0.8800
 6252TIP3    H219639  10.386   1.516   6.904  1.4310  0.7191  1.4926
 6253TIP3   OH219640   4.735   0.674   6.838  0.3785 -0.3235  0.3842
 6253TIP3    H119641   4.656   0.621   6.834  0.7149 -0.7982 -0.0118
 6253TIP3    H219642   4.704   0.764   6.831 -0.0173 -0.5607 -1.1780
 6254TIP3   OH219643   5.467   9.554   9.146 -0.1996  0.5303 -0.0153
 6254TIP3    H119644   5.456   9.519   9.234  1.1244 -0.1257 -0.0747
 6254TIP3    H219645   5.439   9.645   9.151  0.3272  0.6383  1.2085
 6255TIP3   OH219646   6.407   2.673  10.083 -0.2162 -0.1312  0.4953
 6255TIP3    H119647   6.399   2.768  10.072 -2.7614 -0.3316 -0.0216
 6255TIP3    H219648   6.342   2.636  10.023  1.5565 -2.2957 -0.2385
 6256TIP3   OH219649   5.264   8.047   2.501  0.0420 -0.3089 -0.2161
 6256TIP3    H119650   5.349   8.005   2.514  0.7947  0.7158 -1.4840
 6256TIP3    H219651   5.285   8.140   2.490 -1.2983  0.0302 -0.1493
 6257TIP3   OH219652   5.200   5.145   0.936 -0.0858 -0.0569 -0.5929
 6257TIP3    H119653   5.139   5.218   0.931 -0.8231 -0.4007  1.9132
 6257TIP3    H219654   5.275   5.179   0.983  0.6202 -0.3001 -1.5140
 6258TIP3   OH219655   2.120   6.214  10.263  0.6698 -0.1939 -0.7355
 6258TIP3    H119656   2.167   6.234  10.344 -0.3248 -0.8583  0.0443
 6258TIP3    H219657   2.050   6.155  10.291 -0.3170  0.3714 -1.9282
 6259TIP3   OH219658   8.562   0.130   1.683 -0.1468 -0.1772  0.6150
 6259TIP3    H119659   8.473   0.093   1.683 -0.0408 -0.5809  2.8405
 6259TIP3    H219660   8.586   0.133   1.775  2.3512 -0.5180  0.0395
 6260TIP3   OH219661   1.187   7.237   6.005 -0.1763  0.0552 -0.1696
 6260TIP3    H119662   1.216   7.321   6.040  0.8290 -0.2539 -0.2183
 6260TIP3    H219663   1.171   7.183   6.082 -2.5855  0.8245 -0.0779
 6261TIP3   OH219664   5.658   0.368   8.021 -0.0213  0.4097  0.2816
 6261TIP3    H119665   5.745   0.334   7.997 -0.0957 -0.0456  0.6269
 6261TIP3    H219666   5.667   0.392   8.113 -0.9119 -1.9467  1.0527
 6262TIP3   OH219667   7.876   3.016   7.823 -0.0958 -0.3249 -0.1067
 6262TIP3    H119668   7.971   3.010   7.813  0.7717  1.6179  4.4289
 6262TIP3    H219669   7.856   3.107   7.800  0.2055  0.8371  3.5190
 6263TIP3   OH219670  10.205  10.639   6.591  0.1162 -0.1314 -0.9202
 6263TIP3    H119671  10.253  10.611   6.514  1.9920 -0.8917  0.4476
 6263TIP3    H219672  10.203  10.562   6.648 -2.3662  0.0126 -0.6945
 6264TIP3   OH219673   8.238   5.719  10.456  0.0401 -0.0415 -0.0223
 6264TIP3    H119674   8.153   5.680  10.474  0.1422  0.3712  1.5176
 6264TIP3    H219675   8.299   5.670  10.511  0.7036  0.0619 -0.6498
 6265TIP3   OH219676   0.814   6.523  10.684  0.3521 -0.0282 -0.4438
 6265TIP3    H119677   0.777   6.522  10.772 -0.8660  0.5886 -0.9285
 6265TIP3    H219678   0.751   6.474  10.631  0.4028  0.7296 -1.2210
 6266TIP3   OH219679   7.845   4.698   8.091 -0.1354  0.4906  0.2072
 6266TIP3    H119680   7.849   4.761   8.020  0.6686  0.7072  0.4312
 6266TIP3    H219681   7.865   4.749   8.170 -1.6438  0.3917  0.6997
 6267TIP3   OH219682  10.799   7.959   8.147 -0.2783  0.3323  0.0131
 6267TIP3    H119683  10.818   7.943   8.239  1.1105 -1.2178 -0.4790
 6267TIP3    H219684  10.885   7.953   8.104 -1.1046 -0.7928 -1.5840
 6268TIP3   OH219685   7.261   7.168   4.469  0.0893 -0.2584  0.4550
 6268TIP3    H119686   7.189   7.154   4.407 -0.1097  1.0265  0.3632
 6268TIP3    H219687   7.227   7.140   4.553 -1.2539  2.0828  0.7742
 6269TIP3   OH219688   3.677   5.908   8.443  0.5229 -0.1388 -0.1556
 6269TIP3    H119689   3.714   5.975   8.386 -0.7857  0.5828 -0.2039
 6269TIP3    H219690   3.721   5.920   8.527  0.6717  0.4304 -0.3137
 6270TIP3   OH219691   8.132   8.404   5.553 -0.8319  0.2513 -0.1882
 6270TIP3    H119692   8.064   8.448   5.604 -2.5085 -0.0973 -2.0057
 6270TIP3    H219693   8.125   8.442   5.466  0.8905 -0.2715 -0.5845
 6271TIP3   OH219694   0.363   4.149   0.901  0.0046 -0.1951 -0.1747
 6271TIP3    H119695   0.394   4.238   0.885 -0.2414 -0.1146 -0.2108
 6271TIP3    H219696   0.436   4.105   0.945 -0.2228  0.3016  0.7173
 6272TIP3   OH219697   6.849   6.234   7.432  0.3928 -0.8900  0.2014
 6272TIP3    H119698   6.862   6.139   7.432 -0.2410 -0.9944 -0.4983
 6272TIP3    H219699   6.803   6.251   7.350  1.6595  0.1934 -0.3179
 6273TIP3   OH219700  10.149   6.898   2.889  0.1201  0.3366  0.0339
 6273TIP3    H119701  10.143   6.927   2.980  2.5706  0.9159  0.0916
 6273TIP3    H219702  10.090   6.957   2.841 -1.2460 -0.0137  1.2156
 6274TIP3   OH219703   5.285   0.351   5.009  0.0823 -0.0603  0.0678
 6274TIP3    H119704   5.364   0.309   5.041  0.4413 -0.2854 -1.0886
 6274TIP3    H219705   5.316   0.425   4.957 -0.5228  1.3818  1.6205
 6275TIP3   OH219706   5.250   1.686   9.231 -0.4750  0.4146 -0.1017
 6275TIP3    H119707   5.187   1.619   9.259 -0.7918  0.9788  0.5469
 6275TIP3    H219708   5.333   1.639   9.225 -1.0315 -0.4586 -1.4518
 6276TIP3   OH219709   6.905   3.642   0.198 -0.1070 -0.4810 -0.1852
 6276TIP3    H119710   6.940   3.707   0.137  0.4251  0.6702  1.2690
 6276TIP3    H219711   6.982   3.595   0.228 -0.2918 -0.6380  0.0429
 6277TIP3   OH219712   1.392   0.815   8.575 -0.4951  0.0398 -0.4780
 6277TIP3    H119713   1.479   0.837   8.543 -0.7167 -0.4948 -1.5059
 6277TIP3    H219714   1.367   0.889   8.631  0.3881  0.4536 -0.6176
 6278TIP3   OH219715  10.254   9.697   2.729  0.3139 -0.4259  0.0632
 6278TIP3    H119716  10.202   9.619   2.712 -2.8937  1.0170  2.2356
 6278TIP3    H219717  10.196   9.770   2.703  3.3930  1.3846 -2.5496
 6279TIP3   OH219718   4.032   6.645   9.677 -0.0276 -0.1508  0.9899
 6279TIP3    H119719   4.054   6.662   9.585  0.3592  1.8339  1.4174
 6279TIP3    H219720   4.110   6.603   9.712  0.3024  0.2051  0.6991
 6280TIP3   OH219721   6.307   5.058   5.581 -0.4160 -0.2082 -0.1340
 6280TIP3    H119722   6.328   5.152   5.579 -1.2466 -0.0116  0.0270
 6280TIP3    H219723   6.272   5.040   5.494  0.0762 -0.4510 -0.2824
 6281TIP3   OH219724   4.354   4.844   2.516  0.4536 -0.1799  0.0571
 6281TIP3    H119725   4.359   4.828   2.610  3.9142 -1.8602 -0.2512
 6281TIP3    H219726   4.430   4.898   2.497  1.5753 -2.2838 -2.0680
 6282TIP3   OH219727  10.066   9.157   2.748  0.3292 -0.0117 -0.1211
 6282TIP3    H119728   9.989   9.101   2.749  0.1254  0.2653 -0.2039
 6282TIP3    H219729  10.110   9.140   2.831  1.8578 -2.4688 -1.3195
 6283TIP3   OH219730   2.543   8.954   2.879 -0.0876  0.1737 -0.4911
 6283TIP3    H119731   2.542   9.037   2.927 -2.0216 -1.8854  3.5837
 6283TIP3    H219732   2.454   8.944   2.846 -1.2598 -1.9185  2.7748
 6284TIP3   OH219733   4.598   9.708   7.947 -0.4308  0.8131  0.1936
 6284TIP3    H119734   4.676   9.678   7.902 -1.2648 -1.1392 -0.0422
 6284TIP3    H219735   4.628   9.779   8.004  1.2415  0.9932 -0.8728
 6285TIP3   OH219736   4.460   0.056   6.130  0.0515  0.0229 -0.2862
 6285TIP3    H119737   4.533   0.111   6.100 -0.6491  0.4175 -1.3252
 6285TIP3    H219738   4.429   0.012   6.051 -0.0204 -1.1444  0.3738
 6286TIP3   OH219739   5.921  10.721   3.363 -0.0227 -0.3607  0.2528
 6286TIP3    H119740   5.903  10.628   3.376 -2.1023 -0.2194 -1.1101
 6286TIP3    H219741   5.956  10.751   3.447  0.7820 -2.3638  0.6895
 6287TIP3   OH219742   3.768   2.754   4.194  0.2424 -0.1846  0.5148
 6287TIP3    H119743   3.683   2.710   4.191 -0.2432  0.7920 -0.9593
 6287TIP3    H219744   3.808   2.724   4.276 -1.9579  0.1813  1.7944
 6288TIP3   OH219745   1.776   0.213   8.111  0.3924 -0.7119  0.1149
 6288TIP3    H119746   1.794   0.220   8.205  0.1034 -1.3450  0.2240
 6288TIP3    H219747   1.810   0.127   8.087 -1.7909 -1.6535  0.1841
 6289TIP3   OH219748   6.299   8.125   4.940  0.0857 -0.4553  0.4361
 6289TIP3    H119749   6.320   8.209   4.981 -2.9494  1.2937 -1.2688
 6289TIP3    H219750   6.315   8.139   4.847 -1.8256 -1.2512 -0.0493
 6290TIP3   OH219751   6.615   5.560   3.955 -0.8406  0.0918  0.2750
 6290TIP3    H119752   6.605   5.549   3.861 -0.0616 -1.8604  0.3677
 6290TIP3    H219753   6.704   5.596   3.965 -0.5900 -0.5150  0.2841
 6291TIP3   OH219754   2.153   8.212  10.246 -0.1670 -0.3809  0.0584
 6291TIP3    H119755   2.249   8.220  10.245 -0.1566 -0.4028 -1.3447
 6291TIP3    H219756   2.126   8.243  10.159 -1.2556 -2.3685 -0.3698
 6292TIP3   OH219757   6.884   1.978   6.837 -0.3439  0.5563 -0.3055
 6292TIP3    H119758   6.788   1.979   6.837 -0.3822 -0.8815 -1.3259
 6292TIP3    H219759   6.908   2.036   6.765 -0.5022 -0.3924 -1.1404
 6293TIP3   OH219760   2.557   1.722   7.044 -0.2943  0.2939  0.1254
 6293TIP3    H119761   2.515   1.638   7.026  1.1486 -0.4156 -0.0733
 6293TIP3    H219762   2.492   1.787   7.019 -2.2989 -0.7249  2.2830
 6294TIP3   OH219763   6.129   6.616  10.670 -0.1675 -0.0880  0.0885
 6294TIP3    H119764   6.098   6.643  10.583  1.0910  0.8225 -0.1079
 6294TIP3    H219765   6.220   6.645  10.673  0.1946 -1.2377  1.2474
 6295TIP3   OH219766   3.669   5.652   4.984  0.3844 -0.0027 -0.1049
 6295TIP3    H119767   3.753   5.654   5.029 -0.4152 -0.1109  1.4241
 6295TIP3    H219768   3.633   5.740   4.996 -0.8821 -0.6963  1.5572
 6296TIP3   OH219769   7.037   4.352   3.164 -0.9537 -0.3502  0.7432
 6296TIP3    H119770   7.043   4.428   3.222 -1.7320 -0.0490  0.4422
 6296TIP3    H219771   7.012   4.389   3.079 -1.9520 -0.9938  0.7385
 6297TIP3   OH219772   5.811   0.982   4.258  0.2992  0.0986  0.2003
 6297TIP3    H119773   5.776   1.001   4.171 -0.7415  1.6205  0.9090
 6297TIP3    H219774   5.902   0.955   4.241 -0.2564 -0.9002 -1.4313
 6298TIP3   OH219775  10.721   7.121   7.138 -0.1645 -0.3163  0.5211
 6298TIP3    H119776  10.778   7.076   7.201  1.0654  0.4641 -0.0142
 6298TIP3    H219777  10.714   7.060   7.064 -0.2505 -0.5238  0.6975
 6299TIP3   OH219778   4.985   5.299   0.209  0.3802 -0.1867  0.3599
 6299TIP3    H119779   5.068   5.345   0.197  0.6552 -0.7632  0.0314
 6299TIP3    H219780   4.921   5.354   0.165  0.5795  0.2874  0.6561
 6300TIP3   OH219781   3.650  10.472   3.032  0.0084  0.3578  0.2740
 6300TIP3    H119782   3.700  10.553   3.042  0.9478 -0.2212  0.3631
 6300TIP3    H219783   3.711  10.411   2.991 -0.8130 -0.1969 -0.1584
 6301TIP3   OH219784   0.768   2.853   1.245 -0.0010  0.4946  0.6607
 6301TIP3    H119785   0.717   2.929   1.273 -0.7697  1.0706 -2.0295
 6301TIP3    H219786   0.713   2.778   1.269 -0.1729  0.8671  1.4959
 6302TIP3   OH219787   4.496   2.187   1.054 -0.4685 -0.2320  0.4244
 6302TIP3    H119788   4.510   2.155   1.142 -1.6836 -1.9112  0.0615
 6302TIP3    H219789   4.573   2.159   1.005 -0.8934 -1.4586  0.4270
 6303TIP3   OH219790   4.161   4.305   9.820  0.6801 -0.0616  0.4248
 6303TIP3    H119791   4.089   4.366   9.804 -0.8473 -1.7800  0.4811
 6303TIP3    H219792   4.163   4.295   9.915  0.4763 -0.6291  0.3674
 6304TIP3   OH219793   3.204   4.054   5.868  0.6897 -0.0261  0.6437
 6304TIP3    H119794   3.185   3.987   5.804  1.3732  0.9612 -0.6380
 6304TIP3    H219795   3.162   4.023   5.949 -1.6654 -0.5021 -0.6601
 6305TIP3   OH219796   0.114  10.732   5.797  0.3291  0.6946 -0.3753
 6305TIP3    H119797   0.083  10.804   5.852  0.6071  0.3634  0.2229
 6305TIP3    H219798   0.162  10.776   5.726 -1.7086  1.2366 -1.5021
 6306TIP3   OH219799  10.597   5.692  10.769 -0.0627  0.1798  0.0009
 6306TIP3    H119800  10.584   5.615  10.824 -0.2391  1.7802  2.3030
 6306TIP3    H219801  10.637   5.657  10.689 -0.7123 -2.3579  0.6838
 6307TIP3   OH219802   1.311   9.059   1.555  0.2396 -0.5890  0.2632
 6307TIP3    H119803   1.233   9.027   1.510  0.3116 -1.9102  1.0289
 6307TIP3    H219804   1.326   9.146   1.518 -0.8247 -0.8487 -0.8364
 6308TIP3   OH219805   1.405   1.733   9.149  0.3828 -0.1732  0.4445
 6308TIP3    H119806   1.351   1.798   9.194 -0.0372 -0.9044  1.0254
 6308TIP3    H219807   1.386   1.651   9.195  1.2857 -0.6118  0.0576
 6309TIP3   OH219808   5.773   8.494   9.334 -0.0997  0.4899 -0.2188
 6309TIP3    H119809   5.733   8.493   9.247  1.3883 -0.0770 -0.9451
 6309TIP3    H219810   5.830   8.571   9.334 -1.5175  1.5879  0.9858
 6310TIP3   OH219811   5.940   2.813   1.810  0.2192  0.0450 -0.1843
 6310TIP3    H119812   5.869   2.830   1.872  1.2479  1.2504  0.6860
 6310TIP3    H219813   5.895   2.790   1.728 -1.2506  2.9740 -0.2955
 6311TIP3   OH219814   1.083   4.609   2.151 -0.0637 -0.4314 -1.0323
 6311TIP3    H119815   1.113   4.590   2.239 -1.6652  0.3679 -0.2677
 6311TIP3    H219816   1.152   4.662   2.112  1.2662 -1.8978 -0.7679
 6312TIP3   OH219817   3.263   4.131   9.795 -0.0576  0.3525  0.5697
 6312TIP3    H119818   3.277   4.155   9.704  0.0412 -2.2877 -0.1982
 6312TIP3    H219819   3.267   4.214   9.843 -0.3425  1.8421 -1.8217
 6313TIP3   OH219820   6.613  10.088   6.942  0.3410  0.1281  0.3557
 6313TIP3    H119821   6.658  10.149   6.884 -0.0108  0.0477 -0.0074
 6313TIP3    H219822   6.636  10.117   7.030  2.5364 -0.9753  0.2187
 6314TIP3   OH219823   6.234   4.795   6.817 -0.9966 -0.0165  0.6818
 6314TIP3    H119824   6.173   4.748   6.760 -0.2358  0.3144 -0.4421
 6314TIP3    H219825   6.183   4.815   6.896 -1.4762 -2.2696  0.9943
 6315TIP3   OH219826   7.113   8.294   1.675 -0.7422 -0.2211 -0.3993
 6315TIP3    H119827   7.091   8.385   1.694 -0.0209 -0.2341  0.5479
 6315TIP3    H219828   7.082   8.281   1.586  1.4587  1.7493 -1.5876
 6316TIP3   OH219829  10.312   2.280   7.912 -0.1134 -0.0965 -0.3276
 6316TIP3    H119830  10.399   2.281   7.873  0.2910  0.7929  0.5512
 6316TIP3    H219831  10.278   2.368   7.897  0.4497  0.6085  2.0887
 6317TIP3   OH219832   9.990   7.701   0.112  0.5398 -0.0735 -0.6459
 6317TIP3    H119833   9.951   7.786   0.134  1.0994  0.2322 -0.8347
 6317TIP3    H219834  10.024   7.668   0.195 -3.7891 -2.3276  0.5391
 6318TIP3   OH219835   2.709   0.105   8.309  0.4025 -0.4352  0.1573
 6318TIP3    H119836   2.803   0.119   8.313  0.2365  0.7990  0.2045
 6318TIP3    H219837   2.698   0.010   8.312  1.6630 -0.6066 -0.3952
 6319TIP3   OH219838   8.378   9.475   3.292  0.6877 -0.3653 -0.2648
 6319TIP3    H119839   8.383   9.407   3.224  2.2001 -0.2253 -0.3350
 6319TIP3    H219840   8.429   9.548   3.256  1.4745 -0.2719  0.9800
 6320TIP3   OH219841   0.450   2.743   3.581 -0.3175 -0.3307  0.1725
 6320TIP3    H119842   0.370   2.735   3.634 -1.3919  0.9922 -1.1506
 6320TIP3    H219843   0.418   2.759   3.492  1.4361  0.9728 -0.2674
 6321TIP3   OH219844   5.145   3.585   1.363  0.2463  0.2696 -0.0043
 6321TIP3    H119845   5.184   3.663   1.403  1.6045 -2.1219  3.9464
 6321TIP3    H219846   5.212   3.518   1.371 -1.0758 -1.5348 -2.7298
 6322TIP3   OH219847   0.173   1.477   5.893  0.3239  0.6480  0.1974
 6322TIP3    H119848   0.239   1.408   5.903  0.4267  0.6899 -0.1751
 6322TIP3    H219849   0.151   1.502   5.982  3.3228  3.0376  0.4558
 6323TIP3   OH219850   3.071   5.991   1.424  0.6258 -0.5939 -0.0057
 6323TIP3    H119851   2.978   5.988   1.443  0.5280 -2.0842 -0.6031
 6323TIP3    H219852   3.089   5.909   1.377  2.2079 -0.2855  0.0045
 6324TIP3   OH219853   0.233   3.379   6.580  0.0536 -0.2191 -0.4758
 6324TIP3    H119854   0.254   3.452   6.521 -1.4065 -1.5682 -2.8184
 6324TIP3    H219855   0.312   3.324   6.579  1.2154  1.2617  1.4093
 6325TIP3   OH219856   4.052  10.579   0.298  0.1353 -0.2253 -0.4391
 6325TIP3    H119857   4.067  10.552   0.389 -0.1028 -0.3472 -0.4352
 6325TIP3    H219858   3.999  10.658   0.305 -0.3487 -0.5385 -0.4802
 6326TIP3   OH219859   3.987   4.926   7.486  0.3035 -0.1859  0.1183
 6326TIP3    H119860   4.006   4.893   7.398  1.2727  0.1681  0.1832
 6326TIP3    H219861   4.000   4.851   7.544 -0.8281 -0.5500 -0.0835
 6327TIP3   OH219862   6.386   4.487   3.443  0.1355 -0.2882 -0.2448
 6327TIP3    H119863   6.295   4.517   3.445  0.3133  0.2901 -0.4071
 6327TIP3    H219864   6.436   4.560   3.480  0.5229 -0.6298 -0.0917
 6328TIP3   OH219865   5.510   5.509   9.811  0.9839  0.0328  0.1963
 6328TIP3    H119866   5.478   5.452   9.742  0.2473  0.9191 -0.2086
 6328TIP3    H219867   5.588   5.551   9.774  0.8114  0.2193  0.0466
 6329TIP3   OH219868   2.787   4.677   4.231 -0.1000 -0.2639  0.5248
 6329TIP3    H119869   2.701   4.720   4.227  0.4814  1.4900  3.5269
 6329TIP3    H219870   2.847   4.748   4.256  1.9167 -1.8030  0.2320
 6330TIP3   OH219871   0.538   3.823   4.367  0.3503  0.4300 -0.3829
 6330TIP3    H119872   0.442   3.827   4.359  0.2271  0.6935  0.9452
 6330TIP3    H219873   0.558   3.730   4.366  0.0280  0.3571 -0.1925
 6331TIP3   OH219874   4.302   5.337   0.963 -0.5473  0.2725 -0.2040
 6331TIP3    H119875   4.275   5.344   1.055 -1.7535  0.6147 -0.5704
 6331TIP3    H219876   4.357   5.258   0.960  0.9435  1.2042  1.1284
 6332TIP3   OH219877   6.236   3.474  10.892 -0.0483 -0.2534 -0.0743
 6332TIP3    H119878   6.277   3.429  10.965  1.2363 -0.4392 -0.8764
 6332TIP3    H219879   6.201   3.404  10.837 -0.1954 -0.1586 -0.1017
 6333TIP3   OH219880   9.759   0.584   6.090 -0.1994 -0.3210 -0.1168
 6333TIP3    H119881   9.814   0.644   6.040 -1.1920  0.0960 -0.7457
 6333TIP3    H219882   9.798   0.498   6.076  0.8980  0.0944  0.3175
 6334TIP3   OH219883   8.207   8.636   1.616 -0.1796 -0.0191 -0.2419
 6334TIP3    H119884   8.146   8.706   1.593  0.7739  1.0432  0.3798
 6334TIP3    H219885   8.152   8.570   1.658 -0.9584  0.7360 -0.0349
 6335TIP3   OH219886   0.658   2.162   2.266  0.3199 -0.7543 -0.4050
 6335TIP3    H119887   0.652   2.094   2.334  3.1646 -0.0344  0.7234
 6335TIP3    H219888   0.709   2.121   2.196 -0.4321 -0.6843 -0.9996
 6336TIP3   OH219889   5.812   4.552   6.426 -0.1282 -0.3102 -0.0329
 6336TIP3    H119890   5.794   4.603   6.347 -1.6232 -0.1058  0.4090
 6336TIP3    H219891   5.777   4.465   6.407 -0.1341 -0.3709  0.2470
 6337TIP3   OH219892   2.303   1.422   9.799 -0.1822 -0.1039 -0.6400
 6337TIP3    H119893   2.298   1.355   9.731  0.8248 -2.4147  1.4143
 6337TIP3    H219894   2.214   1.429   9.833 -0.5150  0.4704 -1.5607
 6338TIP3   OH219895   6.247  10.554   3.033 -0.4311  0.4666  0.1235
 6338TIP3    H119896   6.339  10.534   3.052 -0.7426 -0.1943  1.0809
 6338TIP3    H219897   6.248  10.601   2.950  0.5697 -1.7827 -1.2166
 6339TIP3   OH219898   8.405   5.552   5.353  0.4272  0.2369 -0.4453
 6339TIP3    H119899   8.360   5.568   5.270 -2.0516 -2.3917  0.1930
 6339TIP3    H219900   8.470   5.485   5.332 -0.5211 -0.7817 -0.2862
 6340TIP3   OH219901   2.968   2.037  10.144 -0.7964  0.0361 -0.2159
 6340TIP3    H119902   2.940   2.128  10.136 -1.1003  0.0158  0.5856
 6340TIP3    H219903   3.030   2.036  10.217 -2.2276 -0.7077  1.0495
 6341TIP3   OH219904   7.174   1.142   6.663 -0.0313  0.2670  0.2443
 6341TIP3    H119905   7.242   1.076   6.676  0.8683  0.9121 -0.9558
 6341TIP3    H219906   7.180   1.164   6.570 -3.2237 -1.0953 -0.4475
 6342TIP3   OH219907   0.238   2.477   7.778 -0.1780 -0.4152 -0.8852
 6342TIP3    H119908   0.147   2.472   7.749  0.0818 -1.2288 -1.6069
 6342TIP3    H219909   0.236   2.458   7.871 -1.0178  2.0421 -0.3313
 6343TIP3   OH219910   4.338   3.886  10.320 -0.3219 -0.1265 -0.4156
 6343TIP3    H119911   4.246   3.870  10.297 -1.6799  1.0043  3.4653
 6343TIP3    H219912   4.353   3.834  10.398  0.9518  2.7482  1.4446
 6344TIP3   OH219913   8.923   2.788   6.465  0.1165  0.5785  0.1596
 6344TIP3    H119914   8.984   2.735   6.414 -0.8720 -1.2356  0.7811
 6344TIP3    H219915   8.954   2.778   6.556  0.7553  2.2620  0.1583
 6345TIP3   OH219916   9.195   2.366   5.996  0.6043 -0.0204  0.7227
 6345TIP3    H119917   9.285   2.365   6.029  1.2543  2.3600 -0.7210
 6345TIP3    H219918   9.173   2.459   5.987 -1.2912 -0.5303 -0.7712
 6346TIP3   OH219919   9.539  10.332   4.534 -0.1367 -0.3715 -0.1093
 6346TIP3    H119920   9.595  10.379   4.472 -0.0037  0.5182  0.6629
 6346TIP3    H219921   9.586  10.335   4.617  0.2417 -2.5937 -0.1966
 6347TIP3   OH219922   4.233   0.358   9.719 -0.7586  0.3433  0.4220
 6347TIP3    H119923   4.241   0.358   9.814 -0.3993 -1.7319  0.4426
 6347TIP3    H219924   4.143   0.387   9.703 -0.6042  1.4055  1.3354
 6348TIP3   OH219925  10.168   7.695   2.115 -0.8890  0.2468 -0.1422
 6348TIP3    H119926  10.205   7.730   2.034 -1.0564 -2.1961 -1.3781
 6348TIP3    H219927  10.241   7.692   2.176  0.3638 -1.7922 -1.6165
 6349TIP3   OH219928   4.480  10.216   7.064 -0.1159  0.3791  0.2201
 6349TIP3    H119929   4.573  10.199   7.050 -0.4190 -1.9191  0.5344
 6349TIP3    H219930   4.452  10.264   6.986  1.7152  3.0849  1.0853
 6350TIP3   OH219931  10.209   6.089   7.412 -0.1468 -0.1170  0.1736
 6350TIP3    H119932  10.194   6.020   7.477  2.2130  0.5176  1.5100
 6350TIP3    H219933  10.245   6.044   7.336 -1.6786 -0.6980 -0.2501
 6351TIP3   OH219934   3.661   3.414   3.417 -0.0734  0.4890  0.2737
 6351TIP3    H119935   3.607   3.464   3.479 -0.3680  0.4794  0.0280
 6351TIP3    H219936   3.675   3.330   3.460 -0.3585  0.4461  0.2866
 6352TIP3   OH219937   4.905   6.685   9.932  0.0381 -0.4229  0.2431
 6352TIP3    H119938   4.952   6.713  10.010  0.2631 -1.3483  0.4513
 6352TIP3    H219939   4.973   6.679   9.864 -0.3512  1.6101 -0.3861
 6353TIP3   OH219940   7.013  10.419   2.439  0.2079 -0.1646 -0.0022
 6353TIP3    H119941   7.097  10.395   2.479 -0.1356  1.1486  1.6389
 6353TIP3    H219942   7.031  10.418   2.345  1.9749 -0.2724  0.2888
 6354TIP3   OH219943   3.006   1.574   0.172 -0.0384  0.1491  0.7009
 6354TIP3    H119944   2.959   1.657   0.165  1.3300  1.0292  1.4751
 6354TIP3    H219945   3.023   1.548   0.082  0.6796  1.4191  0.4480
 6355TIP3   OH219946   0.867   1.867   7.307  0.2174  0.3079  0.4477
 6355TIP3    H119947   0.799   1.842   7.245 -0.7292 -0.9056  1.9296
 6355TIP3    H219948   0.820   1.902   7.382  1.0426 -2.1208  2.2236
 6356TIP3   OH219949   7.754  10.065   3.283 -0.6005 -0.4913  0.6719
 6356TIP3    H119950   7.661  10.074   3.304 -1.1072 -0.7756 -1.2963
 6356TIP3    H219951   7.785  10.154   3.271 -0.5665 -0.3911  1.4253
 6357TIP3   OH219952   7.655   1.734   6.602  0.5143 -0.6727 -0.1805
 6357TIP3    H119953   7.636   1.759   6.511  0.4132  0.9790  0.2629
 6357TIP3    H219954   7.601   1.656   6.618 -0.0539 -0.5217 -1.2883
 6358TIP3   OH219955   5.359   3.361   7.167  0.1664 -0.0449 -0.5075
 6358TIP3    H119956   5.309   3.280   7.174  0.1272 -0.0009 -0.2623
 6358TIP3    H219957   5.362   3.395   7.256 -1.6168  1.2875 -0.8884
 6359TIP3   OH219958   0.944   9.724   9.702 -0.2887 -0.2938 -0.2515
 6359TIP3    H119959   0.990   9.640   9.708 -0.0136 -0.0372  1.7238
 6359TIP3    H219960   0.992   9.772   9.633  0.1613 -1.3677 -0.7109
 6360TIP3   OH219961  10.598   6.572   9.205  1.0788  0.0852  0.0301
 6360TIP3    H119962  10.556   6.604   9.285  0.3177 -0.1195 -0.2789
 6360TIP3    H219963  10.589   6.644   9.143  0.3955 -0.2837 -0.3078
 6361TIP3   OH219964   9.044   9.746   8.351 -0.2053  0.0964  0.3473
 6361TIP3    H119965   9.085   9.828   8.323 -1.1802  0.6565  0.5272
 6361TIP3    H219966   9.074   9.734   8.441  1.6390 -0.8724 -0.3354
 6362TIP3   OH219967   5.888   9.692   4.545 -0.3502  0.3861 -0.0010
 6362TIP3    H119968   5.821   9.713   4.481 -0.8774  0.0802  0.4368
 6362TIP3    H219969   5.942   9.626   4.503 -0.4569  0.4729 -0.2733
 6363TIP3   OH219970   0.713  10.188   2.607 -0.2737 -0.2354 -0.1370
 6363TIP3    H119971   0.805  10.213   2.610 -0.3095 -0.0383 -0.5705
 6363TIP3    H219972   0.668  10.266   2.575 -0.9188  0.5069  2.3212
 6364TIP3   OH219973  10.117  10.280   7.508  0.5627  0.1439  0.1476
 6364TIP3    H119974  10.089  10.212   7.570 -0.0251 -0.5789 -0.8712
 6364TIP3    H219975  10.210  10.291   7.525  0.1049  1.1902  2.2983
 6365TIP3   OH219976   5.152   7.286   4.695 -0.3806  0.5186  1.0050
 6365TIP3    H119977   5.170   7.373   4.733 -0.5962  0.4731  1.2200
 6365TIP3    H219978   5.174   7.295   4.603  0.9395  0.3961  1.2902
 6366TIP3   OH219979   0.783   6.666   3.036  0.5557 -0.2062 -0.0785
 6366TIP3    H119980   0.802   6.709   2.953  0.2343  1.6079  0.7539
 6366TIP3    H219981   0.833   6.715   3.101  0.1118 -1.0427  0.9296
 6367TIP3   OH219982   4.070   2.135  10.815  0.0688 -0.1933 -0.4512
 6367TIP3    H119983   4.112   2.074  10.876  0.2785 -0.2446 -0.6437
 6367TIP3    H219984   4.102   2.221  10.842 -1.8841  0.0900  1.1802
 6368TIP3   OH219985   6.466  10.196   1.177 -0.0137  0.2123 -0.6768
 6368TIP3    H119986   6.376  10.227   1.178 -0.6079 -1.3667  1.3812
 6368TIP3    H219987   6.476  10.154   1.092 -2.5706 -3.0279  0.4416
 6369TIP3   OH219988   8.785   2.173  10.333 -0.3600 -0.4155 -0.4767
 6369TIP3    H119989   8.873   2.203  10.354 -1.6218  2.5825  1.1216
 6369TIP3    H219990   8.786   2.161  10.238  2.3343 -2.8395 -0.2721
 6370TIP3   OH219991   7.748   9.174   6.790  0.3194  0.3360  0.2827
 6370TIP3    H119992   7.842   9.186   6.775  0.3667 -0.0168  0.2931
 6370TIP3    H219993   7.706   9.232   6.726  0.5315 -0.4293 -0.5657
 6371TIP3   OH219994   4.917   5.175   1.965  0.1356  0.0137  0.8666
 6371TIP3    H119995   4.830   5.195   2.001  0.5160  0.7775  1.3793
 6371TIP3    H219996   4.939   5.090   2.003 -0.7836 -0.6402 -0.0121
 6372TIP3   OH219997   5.497   7.359   3.845 -1.0281 -0.0428  0.2144
 6372TIP3    H119998   5.424   7.360   3.907 -0.5108  2.5807  0.8913
 6372TIP3    H219999   5.476   7.287   3.785 -2.9777 -0.8407  1.7285
 6373TIP3   OH220000   2.204   1.258   9.185  0.3326  0.2097 -0.1097
 6373TIP3    H120001   2.295   1.288   9.183 -0.3114  2.3004  0.1032
 6373TIP3    H220002   2.165   1.305   9.259 -1.1316 -0.0424 -0.6894
 6374TIP3   OH220003   4.773   8.953   9.716  0.1482  0.6125  0.4138
 6374TIP3    H120004   4.795   9.046   9.710  3.0272  0.1476  2.0431
 6374TIP3    H220005   4.722   8.945   9.796 -0.0883  0.7847  0.2809
 6375TIP3   OH220006   0.195   4.834   9.627 -0.1824 -0.4584 -0.2382
 6375TIP3    H120007   0.212   4.742   9.648  0.8711 -0.7161 -1.9851
 6375TIP3    H220008   0.268   4.859   9.570 -0.2051  1.6079  0.5415
 6376TIP3   OH220009   6.590   1.712   0.583 -0.1688  0.1067  0.6020
 6376TIP3    H120010   6.667   1.743   0.631  0.1604  0.3460 -0.0757
 6376TIP3    H220011   6.622   1.691   0.496 -0.7469 -0.4199  0.5024
 6377TIP3   OH220012   1.909   9.038   4.120 -0.0082  0.1124 -0.0003
 6377TIP3    H120013   1.939   9.109   4.064  2.4924 -0.5917  0.3136
 6377TIP3    H220014   1.882   8.969   4.059 -1.5865  0.9459 -0.2955
 6378TIP3   OH220015   8.497   0.805   3.544 -0.0286 -0.2562  0.2730
 6378TIP3    H120016   8.425   0.866   3.528  0.5244  0.4135  0.2901
 6378TIP3    H220017   8.492   0.785   3.637  1.2164  1.6637  0.8187
 6379TIP3   OH220018   7.259   8.467   5.365  0.2701  0.0103 -0.3150
 6379TIP3    H120019   7.180   8.415   5.379 -0.7720  0.4477 -3.8380
 6379TIP3    H220020   7.230   8.557   5.373  1.0100  0.1736  0.8113
 6380TIP3   OH220021   2.398   1.005   0.758 -0.2339 -0.4695  0.1021
 6380TIP3    H120022   2.338   1.059   0.707  0.0867  0.0262  0.2360
 6380TIP3    H220023   2.485   1.031   0.728  0.0334  0.7449  1.7361
 6381TIP3   OH220024   4.758   2.561   4.119  0.5240 -0.5159  0.0703
 6381TIP3    H120025   4.681   2.508   4.139  1.5297 -1.5498  1.4064
 6381TIP3    H220026   4.778   2.540   4.027  1.3078 -3.1164  0.7398
 6382TIP3   OH220027   5.470   4.159   1.049  0.1547 -0.3804 -0.2759
 6382TIP3    H120028   5.437   4.243   1.019 -0.2339 -0.8542 -1.2350
 6382TIP3    H220029   5.445   4.097   0.980 -0.6938 -1.5175  0.9794
 6383TIP3   OH220030   1.799   1.822  10.662  0.1594 -0.0980  0.2021
 6383TIP3    H120031   1.728   1.759  10.675 -0.7476  0.5938 -1.1265
 6383TIP3    H220032   1.826   1.809  10.571  1.4077 -0.0010  0.5428
 6384TIP3   OH220033   2.073   2.354   7.004  1.4229  0.0766 -0.2956
 6384TIP3    H120034   2.115   2.370   7.088  1.3809 -1.1545 -0.0193
 6384TIP3    H220035   2.106   2.423   6.947  2.5336  0.1110  0.3650
 6385TIP3   OH220036   2.336   8.572   8.022 -0.0426  0.7059  0.8701
 6385TIP3    H120037   2.425   8.564   7.987 -0.9408 -1.3652 -1.2421
 6385TIP3    H220038   2.335   8.515   8.098 -0.2372 -1.6499 -0.7892
 6386TIP3   OH220039   5.118   8.450   0.707  0.0068  0.1700 -0.5652
 6386TIP3    H120040   5.137   8.503   0.785  0.8588 -0.0851 -0.5920
 6386TIP3    H220041   5.168   8.491   0.637  1.5182 -1.2554 -0.3703
 6387TIP3   OH220042   7.200   6.327   1.125  0.4967  0.1356 -0.5997
 6387TIP3    H120043   7.265   6.344   1.193  0.9153  0.0148 -0.9645
 6387TIP3    H220044   7.116   6.321   1.172  0.7337  0.3975 -0.1408
 6388TIP3   OH220045   8.857  10.323   0.844  0.1550 -0.5932  0.2994
 6388TIP3    H120046   8.834  10.290   0.758 -1.1346 -1.2247  0.8593
 6388TIP3    H220047   8.834  10.416   0.841  2.1480 -0.0826 -0.7087
 6389TIP3   OH220048   5.043   8.016   7.600  0.0963 -0.4434 -0.3060
 6389TIP3    H120049   5.018   7.923   7.606 -1.4113  0.0229  1.6183
 6389TIP3    H220050   5.012   8.043   7.514  0.0480 -1.5890 -0.6713
 6390TIP3   OH220051   0.434   2.830   7.908 -0.5483  0.2873  0.4217
 6390TIP3    H120052   0.399   2.917   7.887  0.2517  1.0902  2.2195
 6390TIP3    H220053   0.359   2.772   7.901 -0.6138  0.5588 -3.4552
 6391TIP3   OH220054   3.594   1.854   1.528  0.0218  0.4942  0.9909
 6391TIP3    H120055   3.517   1.876   1.477  0.4289 -1.3048 -0.4907
 6391TIP3    H220056   3.560   1.806   1.604 -0.2900 -1.4410 -0.3150
 6392TIP3   OH220057   7.160   0.125   4.057 -0.4371  0.2847  0.2178
 6392TIP3    H120058   7.170   0.104   4.150 -2.6990 -1.2766  0.1931
 6392TIP3    H220059   7.202   0.210   4.047 -0.0207  0.4387  2.6365
 6393TIP3   OH220060   0.329   8.666   2.128 -0.2940 -0.3197 -0.1967
 6393TIP3    H120061   0.332   8.761   2.129  0.6504 -0.3075 -1.5694
 6393TIP3    H220062   0.261   8.644   2.065  0.6942 -0.5193 -1.2308
 6394TIP3   OH220063  10.379  10.626   6.322 -0.3462 -0.2341  0.4443
 6394TIP3    H120064  10.446  10.560   6.306 -1.1938 -1.5194  1.8275
 6394TIP3    H220065  10.421  10.691   6.378  0.1338 -0.2939  0.1525
 6395TIP3   OH220066   0.336   8.336   2.478 -0.1106 -0.4908  0.1331
 6395TIP3    H120067   0.305   8.381   2.557 -2.1153 -0.7388 -0.4562
 6395TIP3    H220068   0.333   8.403   2.409 -2.2941 -1.2097 -0.5630
 6396TIP3   OH220069   9.812   9.803   8.629  0.5386 -0.3315 -0.0787
 6396TIP3    H120070   9.749   9.732   8.627  2.0149 -1.7062 -1.7407
 6396TIP3    H220071   9.774   9.871   8.573 -0.4550 -0.1808  0.7610
 6397TIP3   OH220072   7.697   1.149  10.520 -0.1580 -0.0757  0.3501
 6397TIP3    H120073   7.635   1.202  10.471  0.5637  1.0744  0.6580
 6397TIP3    H220074   7.656   1.137  10.606 -0.5948 -0.5510  0.0819
 6398TIP3   OH220075   4.026   9.154   1.785  0.0011 -0.0534  0.1424
 6398TIP3    H120076   4.121   9.153   1.773  0.5954 -0.6169  3.7081
 6398TIP3    H220077   4.012   9.216   1.857 -2.3127 -0.2928 -0.0278
 6399TIP3   OH220078   5.789   0.637   6.972 -0.1897  0.0542 -0.1426
 6399TIP3    H120079   5.718   0.601   7.024  0.3083 -1.8778 -0.7233
 6399TIP3    H220080   5.794   0.729   6.999 -2.5901  0.1482  0.2256
 6400TIP3   OH220081   8.062   2.532   3.026 -0.4971  0.4787 -0.5514
 6400TIP3    H120082   8.120   2.608   3.015 -0.2578  0.2198 -1.1311
 6400TIP3    H220083   8.103   2.463   2.973 -0.0422 -0.4308  0.9412
 6401TIP3   OH220084   2.074   8.157   9.127 -0.2749  0.2348 -0.0282
 6401TIP3    H120085   2.102   8.246   9.105  1.0639  0.0751  0.8574
 6401TIP3    H220086   2.147   8.101   9.099 -1.6164 -0.7710 -1.7260
 6402TIP3   OH220087   3.900   1.712   5.752 -0.3954 -0.5130 -0.2027
 6402TIP3    H120088   3.834   1.672   5.695 -0.5191  0.4989 -0.8100
 6402TIP3    H220089   3.851   1.775   5.804 -0.1491 -0.8832  0.4831
 6403TIP3   OH220090  10.458   0.199   7.528  0.3768  0.1943 -0.3755
 6403TIP3    H120091  10.421   0.253   7.597  1.5240  0.2297  0.2473
 6403TIP3    H220092  10.457   0.255   7.450  1.5016  1.1231  0.2436
 6404TIP3   OH220093   6.368   0.088   4.842 -0.6138  0.3220 -0.2210
 6404TIP3    H120094   6.454   0.068   4.805 -0.9456  1.7714 -1.9259
 6404TIP3    H220095   6.311   0.018   4.808 -0.4406  0.2901 -0.4469
 6405TIP3   OH220096   0.095   7.903   2.294  0.0465  0.4538 -0.6122
 6405TIP3    H120097   0.102   7.973   2.359  0.7199 -1.0978  1.0967
 6405TIP3    H220098   0.044   7.941   2.222  1.0909  2.9268 -0.1446
 6406TIP3   OH220099   0.322   7.000   8.047  0.1015 -0.3081 -0.2589
 6406TIP3    H120100   0.240   7.026   8.006 -0.7753  0.2971  1.7318
 6406TIP3    H220101   0.362   7.082   8.076  0.9296 -0.6665 -0.3656
 6407TIP3   OH220102   2.190   2.545   5.453  0.2835  0.0609 -0.5179
 6407TIP3    H120103   2.284   2.537   5.436  0.7608  1.3068  1.3238
 6407TIP3    H220104   2.184   2.592   5.536 -1.9749 -0.6180 -0.2327
 6408TIP3   OH220105   6.882   4.879   1.194 -0.0407  0.4864 -0.3639
 6408TIP3    H120106   6.925   4.955   1.156 -0.4297  0.4159 -0.9465
 6408TIP3    H220107   6.888   4.893   1.288  0.6879  0.7949 -0.4457
 6409TIP3   OH220108   2.228   6.209   0.115 -0.6479  0.5395 -0.1194
 6409TIP3    H120109   2.211   6.287   0.168  1.1656  1.2633 -0.5409
 6409TIP3    H220110   2.323   6.208   0.102 -0.5358 -2.0087  0.2652
 6410TIP3   OH220111   9.006   6.177   7.102 -0.0448 -0.0687  0.0611
 6410TIP3    H120112   9.095   6.206   7.084  1.1963 -1.9305  2.6334
 6410TIP3    H220113   8.972   6.150   7.016  1.8472  0.6317 -0.9773
 6411TIP3   OH220114   8.467   5.150   2.326  0.3869  0.3599 -0.2472
 6411TIP3    H120115   8.552   5.141   2.368  2.1573 -4.0993 -3.9805
 6411TIP3    H220116   8.484   5.198   2.245 -0.4596 -1.0019 -1.2791
 6412TIP3   OH220117   2.106   4.437   7.981  0.3058 -0.1780 -0.1587
 6412TIP3    H120118   2.198   4.456   7.961 -0.1743  1.1592 -1.2340
 6412TIP3    H220119   2.085   4.496   8.053  0.4405 -0.9152  0.4972
 6413TIP3   OH220120   6.396   7.038   1.829  0.1635 -0.3479  0.4665
 6413TIP3    H120121   6.425   6.985   1.755 -1.7279 -1.0301  0.1463
 6413TIP3    H220122   6.391   7.127   1.794  1.5622 -0.2482  0.4748
 6414TIP3   OH220123   8.237   0.255  10.838  0.1750  0.8905 -0.3372
 6414TIP3    H120124   8.172   0.240  10.770 -0.0253 -0.2138  0.0775
 6414TIP3    H220125   8.309   0.299  10.793 -0.9000  2.2857 -0.7677
 6415TIP3   OH220126   8.776   8.701   2.047  0.1563 -0.0746  0.2533
 6415TIP3    H120127   8.870   8.682   2.058  0.4117  0.7346 -0.4201
 6415TIP3    H220128   8.762   8.694   1.953 -0.1680  1.0784  0.2053
 6416TIP3   OH220129   6.979   0.653   1.647  0.4042  0.2226  0.3055
 6416TIP3    H120130   6.981   0.741   1.683  0.8643  1.4078 -2.3913
 6416TIP3    H220131   7.071   0.625   1.649  0.7903  1.1649 -1.7699
 6417TIP3   OH220132   9.069   0.963   8.314  0.3166  0.2848 -0.4750
 6417TIP3    H120133   9.046   1.019   8.388  2.0760 -1.8260  1.8228
 6417TIP3    H220134   9.039   1.012   8.237 -2.7592  2.0159  1.6109
 6418TIP3   OH220135   8.468   4.152   1.617  0.1445 -0.2642  0.4952
 6418TIP3    H120136   8.387   4.111   1.588 -0.6599  1.5457 -0.0098
 6418TIP3    H220137   8.511   4.086   1.670 -0.5322 -2.0928 -1.1110
 6419TIP3   OH220138   5.702   0.416   2.643  0.6253 -0.3377  1.0062
 6419TIP3    H120139   5.620   0.463   2.627  1.3923  0.5318 -0.6090
 6419TIP3    H220140   5.740   0.461   2.718  1.0397  1.2900 -0.1159
 6420TIP3   OH220141   8.366  10.504   6.996 -0.6461 -0.1857  0.1438
 6420TIP3    H120142   8.443  10.502   7.053 -0.7387 -0.7175  0.2619
 6420TIP3    H220143   8.383  10.434   6.932  0.1391  1.3457 -1.3999
 6421TIP3   OH220144   8.243   2.458   4.310  0.4759 -0.2040  0.7126
 6421TIP3    H120145   8.319   2.407   4.282  0.1685 -0.5167  0.4264
 6421TIP3    H220146   8.236   2.527   4.244  0.8272  0.1469  1.0388
 6422TIP3   OH220147   1.366   2.495   5.873  0.3063  0.1821  0.0606
 6422TIP3    H120148   1.279   2.459   5.889  0.5103 -0.8041 -0.9519
 6422TIP3    H220149   1.416   2.423   5.836  1.0557  1.1998 -0.9797
 6423TIP3   OH220150   3.701   9.669   1.592 -0.5681  0.4242 -0.0569
 6423TIP3    H120151   3.623   9.617   1.572 -0.6531  0.5538 -0.0644
 6423TIP3    H220152   3.767   9.604   1.616 -0.4773  0.2654 -0.7036
 6424TIP3   OH220153   6.024   0.322   2.960  0.1265  0.1838 -0.2129
 6424TIP3    H120154   6.099   0.334   3.018  0.6014 -1.3070 -0.4765
 6424TIP3    H220155   5.981   0.243   2.992 -1.9819  1.5479  0.5766
 6425TIP3   OH220156   0.324   6.624   9.156 -0.0450  0.6835 -0.1982
 6425TIP3    H120157   0.270   6.621   9.077  2.0014 -1.8724 -1.6793
 6425TIP3    H220158   0.414   6.632   9.123  0.8931 -0.6146  1.8290
 6426TIP3   OH220159   3.375   4.397   4.017 -0.1268  0.4367 -0.0582
 6426TIP3    H120160   3.324   4.450   4.078 -1.1943 -0.2568 -0.3269
 6426TIP3    H220161   3.466   4.417   4.038 -0.4525 -0.1599  2.1141
 6427TIP3   OH220162   7.207   0.967   2.667 -0.2165  0.4537  0.5895
 6427TIP3    H120163   7.186   0.926   2.751 -0.2588  1.4582  1.0762
 6427TIP3    H220164   7.286   0.920   2.638 -0.2813  0.0009  1.1099
 6428TIP3   OH220165   3.341   5.129   3.469  0.0355  0.2879 -0.5787
 6428TIP3    H120166   3.394   5.062   3.427 -0.3227 -0.5741  0.2993
 6428TIP3    H220167   3.403   5.196   3.497  0.3385  0.6256 -1.9554
 6429TIP3   OH220168   3.392   2.125   2.259  0.1196 -0.0906  0.1682
 6429TIP3    H120169   3.441   2.199   2.223  0.3777  0.4258  1.5341
 6429TIP3    H220170   3.459   2.066   2.294 -0.1786  0.2956  1.4360
 6430TIP3   OH220171   4.742   1.948   4.455  0.3108  0.0001  0.3170
 6430TIP3    H120172   4.737   1.992   4.540  1.4802  1.2785 -0.2367
 6430TIP3    H220173   4.737   2.020   4.391 -4.1165 -1.0757 -0.9304
 6431TIP3   OH220174   5.106   4.887  10.286 -0.1175  0.2806 -0.1248
 6431TIP3    H120175   5.043   4.901  10.357  0.3974  0.9623  0.2189
 6431TIP3    H220176   5.064   4.926  10.209  0.1357  1.3391  0.2443
 6432TIP3   OH220177   0.784   5.796   7.151  0.4690  0.5136 -0.1222
 6432TIP3    H120178   0.715   5.861   7.136 -0.1308  0.3520  1.7108
 6432TIP3    H220179   0.849   5.842   7.204  0.3042 -0.2073  0.7155
 6433TIP3   OH220180   8.465   7.409   1.531 -0.3130 -0.0567  0.3191
 6433TIP3    H120181   8.478   7.458   1.612 -2.5576  0.9580  0.1361
 6433TIP3    H220182   8.396   7.456   1.485 -0.6613 -1.8799 -1.1549
 6434TIP3   OH220183   4.346   5.402   0.180 -0.1668 -0.2735  0.1836
 6434TIP3    H120184   4.272   5.436   0.128 -0.2672  0.2129  0.6290
 6434TIP3    H220185   4.304   5.353   0.251 -0.0549 -0.2725  0.2498
 6435TIP3   OH220186  10.515   0.209   6.799 -0.0211 -0.0428  0.8771
 6435TIP3    H120187  10.504   0.134   6.856 -0.5220 -0.5522  0.1310
 6435TIP3    H220188  10.433   0.257   6.805 -0.6881 -0.9338 -0.5694
 6436TIP3   OH220189   4.628   8.835   0.791  0.7722 -0.2342  0.2827
 6436TIP3    H120190   4.658   8.925   0.773  3.0480 -0.6228  1.7458
 6436TIP3    H220191   4.684   8.780   0.736 -1.0825 -0.8029 -1.1507
 6437TIP3   OH220192   8.311   6.055   4.995 -0.4592  0.3158 -0.2168
 6437TIP3    H120193   8.260   6.124   4.951 -1.1333  0.5928  0.9647
 6437TIP3    H220194   8.265   5.974   4.973 -1.4476  0.5672  0.8587
 6438TIP3   OH220195   9.917  10.143   5.653  0.4030 -0.1636  0.1789
 6438TIP3    H120196   9.873  10.220   5.617  1.1395  0.6438  0.9394
 6438TIP3    H220197   9.877  10.069   5.607 -2.7181  0.3686  1.7280
 6439TIP3   OH220198   3.460   6.031   1.107 -0.1549 -0.3010  0.0654
 6439TIP3    H120199   3.548   5.994   1.107  0.0547  0.1445  1.7018
 6439TIP3    H220200   3.405   5.961   1.072  0.9356 -0.2442 -1.9538
 6440TIP3   OH220201   2.139   7.788   7.263 -0.0015 -0.2345 -0.0092
 6440TIP3    H120202   2.083   7.711   7.256 -0.4643 -0.0962  1.8061
 6440TIP3    H220203   2.119   7.838   7.184  0.6961 -2.1717 -1.4982
 6441TIP3   OH220204   2.831   9.771  10.722  0.1046 -0.2442  0.7064
 6441TIP3    H120205   2.878   9.851  10.696  1.5671 -0.8214  1.4624
 6441TIP3    H220206   2.855   9.757  10.813 -1.4646 -0.6666  1.0895
 6442TIP3   OH220207   5.849   3.698   9.109  0.6362 -0.0177  0.0612
 6442TIP3    H120208   5.855   3.736   9.021  0.0273 -0.0303  0.0144
 6442TIP3    H220209   5.940   3.693   9.138  0.8415  0.0107 -0.5564
 6443TIP3   OH220210   5.490   4.191  10.792 -0.1653 -0.3420 -0.0669
 6443TIP3    H120211   5.470   4.283  10.776 -1.6205 -0.0946  2.6725
 6443TIP3    H220212   5.411   4.144  10.764 -0.7941 -0.3687  1.6499
 6444TIP3   OH220213   7.467   9.132   9.133 -0.6161 -0.0108 -0.1680
 6444TIP3    H120214   7.460   9.107   9.041 -2.5709 -2.2957  0.5096
 6444TIP3    H220215   7.388   9.182   9.152 -0.5234 -0.0660  0.4104
 6445TIP3   OH220216   2.718   9.832   0.383  0.3088  0.0408 -0.1425
 6445TIP3    H120217   2.696   9.863   0.295  0.9703 -1.2214 -0.7812
 6445TIP3    H220218   2.805   9.870   0.400  0.2761  0.1079 -0.1253
 6446TIP3   OH220219   2.706  10.906  10.356  0.4167  0.0134 -0.7722
 6446TIP3    H120220   2.737  10.817  10.373 -1.7742 -0.8083 -0.6493
 6446TIP3    H220221   2.749  10.960  10.422  0.7624 -1.2052  0.0257
 6447TIP3   OH220222   0.942   2.888   0.229  0.6096 -0.4796 -0.2528
 6447TIP3    H120223   1.009   2.876   0.162 -1.1740  2.0311 -2.6883
 6447TIP3    H220224   0.938   2.983   0.242 -1.6659 -0.6490  0.6679
 6448TIP3   OH220225  10.775   8.754   8.343 -0.2306  0.0828  0.2412
 6448TIP3    H120226  10.720   8.805   8.403 -0.6382  0.0046 -0.0615
 6448TIP3    H220227  10.861   8.752   8.385 -0.7074 -0.6825  1.2535
 6449TIP3   OH220228   5.257   7.107   3.703  0.1171  0.8727  0.3404
 6449TIP3    H120229   5.192   7.053   3.749  0.3769  0.4853  0.2623
 6449TIP3    H220230   5.206   7.160   3.642 -0.1669  0.8852  0.5858
 6450TIP3   OH220231   9.226   7.323  10.668  0.1502  0.2541  0.0150
 6450TIP3    H120232   9.271   7.262  10.726 -0.5503  1.1870  1.6256
 6450TIP3    H220233   9.157   7.271  10.627  0.9911 -0.5508 -0.4190
 6451TIP3   OH220234   0.413   9.021   1.956  0.2321  0.1316  0.4285
 6451TIP3    H120235   0.358   9.021   2.034 -0.2439 -1.5269  0.1285
 6451TIP3    H220236   0.463   8.940   1.961  1.0335  0.5528 -0.4245
 6452TIP3   OH220237   3.538   4.928  10.756  0.9025 -0.3615  0.3232
 6452TIP3    H120238   3.556   4.981  10.833 -0.1675  2.7874 -1.4221
 6452TIP3    H220239   3.442   4.923  10.752  0.9448 -0.4676 -0.8185
 6453TIP3   OH220240   8.480   0.833   7.365 -0.1675  0.1397  0.2143
 6453TIP3    H120241   8.395   0.812   7.325 -1.3504  0.3159  2.4506
 6453TIP3    H220242   8.526   0.883   7.298 -0.4395 -2.7320 -2.3030
 6454TIP3   OH220243   8.743  10.007   9.545 -0.2404 -0.1157 -0.8298
 6454TIP3    H120244   8.755   9.917   9.515  0.0124 -0.7053  0.9330
 6454TIP3    H220245   8.806  10.017   9.616 -0.6368  1.2877 -0.6465
 6455TIP3   OH220246   6.998   2.830   6.118  0.1743  0.3073  0.1856
 6455TIP3    H120247   6.959   2.913   6.090 -1.1572  0.4718  2.2793
 6455TIP3    H220248   7.092   2.847   6.119  0.0401  1.2462 -0.9923
 6456TIP3   OH220249   8.703   1.965   7.958 -0.3211  0.2833 -0.6418
 6456TIP3    H120250   8.656   1.922   7.886  0.1701 -0.4503 -0.5355
 6456TIP3    H220251   8.771   1.903   7.983  0.5855  1.2414 -0.6529
 6457TIP3   OH220252   5.271   1.763   3.798 -0.3949 -0.4484  0.3651
 6457TIP3    H120253   5.339   1.726   3.741 -1.0871 -1.3092  0.0705
 6457TIP3    H220254   5.246   1.845   3.756  0.4464 -0.1119  0.4805
 6458TIP3   OH220255  10.201   4.345  10.749  0.4455  0.4674  0.5741
 6458TIP3    H120256  10.148   4.339  10.670  1.3052  1.6617 -0.1172
 6458TIP3    H220257  10.150   4.399  10.809  1.0315  2.0360 -0.2714
 6459TIP3   OH220258   0.419   4.630   6.466 -0.2217 -0.2187 -0.2118
 6459TIP3    H120259   0.401   4.566   6.397 -0.2936 -0.7489  0.2945
 6459TIP3    H220260   0.510   4.615   6.490  0.4175  1.2434 -1.4977
 6460TIP3   OH220261   3.909   0.718   2.642  0.2496  0.8061 -0.7870
 6460TIP3    H120262   3.815   0.733   2.653  0.1575  0.1756 -0.6494
 6460TIP3    H220263   3.916   0.676   2.556  0.3407  0.3190 -0.5443
 6461TIP3   OH220264   7.544   5.968   2.793 -0.4546 -0.2726  0.0717
 6461TIP3    H120265   7.475   5.961   2.727 -2.3265  0.2810  1.8497
 6461TIP3    H220266   7.581   6.055   2.780  1.5055 -1.3411 -2.2700
 6462TIP3   OH220267   1.237   0.283   1.827  0.0572  0.1134  0.2810
 6462TIP3    H120268   1.147   0.257   1.808  0.1239  0.0092  0.0986
 6462TIP3    H220269   1.276   0.206   1.869  0.0912  0.1216  0.2650
 6463TIP3   OH220270  10.402  10.232   2.553  0.0530  0.1925  0.2329
 6463TIP3    H120271  10.352  10.178   2.493  0.4904 -0.4118  0.3992
 6463TIP3    H220272  10.490  10.235   2.515  0.5608 -0.8829  1.2391
 6464TIP3   OH220273   5.761  10.457   1.585 -0.1042 -0.6125 -0.1346
 6464TIP3    H120274   5.768  10.448   1.680  0.2408 -1.0725 -0.2006
 6464TIP3    H220275   5.745  10.368   1.554  3.2680 -1.1032 -0.8079
 6465TIP3   OH220276   3.757   0.893   2.039 -0.2331 -0.3807  0.1772
 6465TIP3    H120277   3.769   0.859   2.128 -2.9206 -0.2207  0.7077
 6465TIP3    H220278   3.693   0.833   2.000  0.0390  0.2302 -1.2453
 6466TIP3   OH220279   7.334   7.633   2.898 -0.2361 -0.0256  0.0674
 6466TIP3    H120280   7.269   7.680   2.951  0.3615  1.6059 -0.6026
 6466TIP3    H220281   7.414   7.637   2.949  0.2789  1.3291 -0.8050
 6467TIP3   OH220282   6.473  10.333   3.852 -0.5371 -0.2758  0.4023
 6467TIP3    H120283   6.467  10.272   3.926 -0.7167  1.1077  1.5867
 6467TIP3    H220284   6.389  10.379   3.852  0.0637  0.8750  0.4031
 6468TIP3   OH220285   7.480   0.517   3.464  0.1714 -0.1238 -0.1596
 6468TIP3    H120286   7.489   0.589   3.401  0.7921 -0.3279 -0.3168
 6468TIP3    H220287   7.388   0.519   3.491  0.5115  1.7521  1.0637
 6469TIP3   OH220288   5.337   6.193   0.894  0.1481  0.3592 -0.1021
 6469TIP3    H120289   5.257   6.159   0.855 -0.7735  1.6868  0.5793
 6469TIP3    H220290   5.341   6.154   0.981 -0.4092  1.2272  0.3208
 6470TIP3   OH220291   1.550   6.961   4.910  0.1535  0.0469 -0.3154
 6470TIP3    H120292   1.565   6.910   4.830  1.9626 -1.4845  0.9083
 6470TIP3    H220293   1.534   6.895   4.977 -2.3435  1.3270  0.4954
 6471TIP3   OH220294   2.921   5.192  10.301 -0.1230 -0.1619 -0.0625
 6471TIP3    H120295   2.987   5.214  10.236 -0.3635  0.6905 -0.0389
 6471TIP3    H220296   2.869   5.122  10.261  0.0582 -0.0073 -0.5732
 6472TIP3   OH220297   1.294   1.366   2.874  0.7080 -0.3312 -0.0374
 6472TIP3    H120298   1.325   1.454   2.854  2.5282 -1.0287 -0.4522
 6472TIP3    H220299   1.207   1.361   2.834 -1.6709  2.8321  3.9768
 6473TIP3   OH220300   2.155   7.180   5.962 -0.1234 -0.3845 -0.2835
 6473TIP3    H120301   2.123   7.187   5.872 -0.3817 -0.2326 -0.1815
 6473TIP3    H220302   2.246   7.210   5.958 -0.3999  0.4588 -0.3381
 6474TIP3   OH220303   3.796   7.535   4.861  0.2608 -0.4737  0.0795
 6474TIP3    H120304   3.872   7.515   4.916  0.0917 -0.9110  0.1577
 6474TIP3    H220305   3.829   7.532   4.772  0.4347 -0.2210  0.1363
 6475TIP3   OH220306   6.953   2.404   8.063 -0.1461  0.5711 -0.1626
 6475TIP3    H120307   6.959   2.498   8.078  0.5741  0.4044  0.6990
 6475TIP3    H220308   6.968   2.394   7.969 -0.8058  1.3522 -0.3596
 6476TIP3   OH220309   1.053  10.893   5.400 -0.1352 -0.6787  0.5372
 6476TIP3    H120310   1.068  10.846   5.319  0.1706  0.6167 -0.1833
 6476TIP3    H220311   1.136  10.936   5.420 -0.6369  0.2891  0.6588
 6477TIP3   OH220312   6.364   1.978   4.085  0.5544 -0.6790 -0.3327
 6477TIP3    H120313   6.351   1.968   3.991  0.3461  0.3702 -0.4274
 6477TIP3    H220314   6.429   2.048   4.093 -0.9928  0.7585  0.3154
 6478TIP3   OH220315   9.130   8.092   4.451 -0.5032 -0.4114  0.1921
 6478TIP3    H120316   9.199   8.048   4.402  0.3545 -2.1052  2.7294
 6478TIP3    H220317   9.056   8.098   4.390  1.4613  0.4330 -2.2321
 6479TIP3   OH220318   8.474   5.935   0.808 -0.4303  0.8295 -0.5590
 6479TIP3    H120319   8.507   6.020   0.837 -0.9814  0.8995 -0.1282
 6479TIP3    H220320   8.537   5.872   0.842 -1.3290  0.8630  1.2782
 6480TIP3   OH220321  10.520   2.572   5.440 -1.0775  0.1165  0.3675
 6480TIP3    H120322  10.552   2.571   5.530 -3.1019 -0.1570  1.1428
 6480TIP3    H220323  10.434   2.531   5.445 -0.8551 -0.7835 -1.8653
 6481TIP3   OH220324   3.699   0.532  10.194  0.3047 -0.0970 -0.6814
 6481TIP3    H120325   3.680   0.460  10.133  1.2416  1.0680 -2.4181
 6481TIP3    H220326   3.764   0.496  10.254  0.0136 -1.0052 -0.8910
 6482TIP3   OH220327   6.465   3.071   4.276 -0.1440 -0.1319 -0.2120
 6482TIP3    H120328   6.388   3.040   4.230 -0.6988  0.0296  0.5915
 6482TIP3    H220329   6.517   2.992   4.294 -0.0098 -0.2120 -0.9480
 6483TIP3   OH220330   6.843   0.461   8.796 -0.5411 -0.2865 -0.0277
 6483TIP3    H120331   6.808   0.550   8.806  0.5081  0.0536  0.7497
 6483TIP3    H220332   6.771   0.411   8.758 -1.3452  0.7571  0.0909
 6484TIP3   OH220333   5.151   9.633   9.065 -0.1678  0.1634 -0.5279
 6484TIP3    H120334   5.067   9.605   9.029 -0.5089  0.9779 -0.4004
 6484TIP3    H220335   5.165   9.576   9.141 -0.0719 -0.6989 -1.1826
 6485TIP3   OH220336   6.605   8.237   5.137 -0.5919 -0.1334  0.0147
 6485TIP3    H120337   6.511   8.240   5.117 -0.8676 -2.3933  0.7069
 6485TIP3    H220338   6.616   8.300   5.208 -1.5543  0.2732 -0.1754
 6486TIP3   OH220339   5.445   4.096   8.596  0.6907 -0.3214  0.1918
 6486TIP3    H120340   5.352   4.116   8.600  0.8178  0.5312 -0.7485
 6486TIP3    H220341   5.451   4.004   8.621 -0.3728 -0.3373  0.4366
 6487TIP3   OH220342   5.775   4.917   9.819 -0.1355  0.4838  0.4249
 6487TIP3    H120343   5.833   4.942   9.891  1.2454 -2.5918  0.5588
 6487TIP3    H220344   5.809   4.963   9.743 -1.5875  3.7560  1.5535
 6488TIP3   OH220345   2.038  10.872   5.507 -0.7836 -0.4793 -0.3788
 6488TIP3    H120346   1.991  10.955   5.502 -1.0499 -0.5799  0.2829
 6488TIP3    H220347   1.974  10.812   5.546 -0.2919 -0.7570  0.0047
 6489TIP3   OH220348   0.185   2.145   7.761  0.4803 -0.4321 -0.2642
 6489TIP3    H120349   0.154   2.161   7.850  1.6832  2.1564 -0.2038
 6489TIP3    H220350   0.250   2.075   7.771  0.9324  0.1238  1.0123
 6490TIP3   OH220351   6.199   3.698   1.491 -0.3790  0.1606  0.0321
 6490TIP3    H120352   6.192   3.750   1.410 -0.2400  0.1600  0.0197
 6490TIP3    H220353   6.151   3.617   1.472  1.8313 -0.9860 -0.9723
 6491TIP3   OH220354   6.525   8.964   1.464 -0.3954 -0.4242 -0.1399
 6491TIP3    H120355   6.557   9.039   1.514 -1.1982 -0.3295  0.2422
 6491TIP3    H220356   6.455   8.927   1.518 -2.2245  0.4851 -1.7746
 6492TIP3   OH220357   3.010   6.150   5.088 -0.3863  0.0737  0.3036
 6492TIP3    H120358   3.096   6.187   5.106 -0.7293  0.9501  0.1765
 6492TIP3    H220359   3.015   6.060   5.120  1.4143 -0.7521 -2.0100
 6493TIP3   OH220360   5.148  10.829   4.760 -0.3044  0.1240 -0.2697
 6493TIP3    H120361   5.056  10.821   4.783 -1.0799  0.5908 -2.8903
 6493TIP3    H220362   5.154  10.795   4.670  2.3622 -1.2917  0.3249
 6494TIP3   OH220363   3.257   5.438  10.441 -0.1760  0.1425  0.3298
 6494TIP3    H120364   3.295   5.424  10.355  1.7024  3.1517  0.5462
 6494TIP3    H220365   3.323   5.406  10.502  0.1875  1.4438  0.6524
 6495TIP3   OH220366   5.529   0.079   9.042 -0.2897 -0.0475  0.8495
 6495TIP3    H120367   5.594   0.055   8.977  1.3124  1.2176  1.8872
 6495TIP3    H220368   5.489  -0.003   9.068  0.9449 -0.8818  0.2184
 6496TIP3   OH220369   2.335   1.331   5.553 -0.2485 -0.0372  0.0302
 6496TIP3    H120370   2.362   1.250   5.510  0.0896  0.6159 -1.0175
 6496TIP3    H220371   2.298   1.385   5.483 -1.7711  0.1854  0.9524
 6497TIP3   OH220372  10.137   2.113   1.532  0.6880 -0.2241 -0.6443
 6497TIP3    H120373  10.135   2.035   1.477  1.8128  1.0931 -2.6819
 6497TIP3    H220374  10.064   2.167   1.501  0.9169  0.2383 -0.4000
 6498TIP3   OH220375   8.811   8.145   5.013 -0.0073  0.0750  0.1524
 6498TIP3    H120376   8.799   8.067   5.066 -2.3689 -0.1838 -0.6396
 6498TIP3    H220377   8.802   8.218   5.075 -0.9072 -0.2498  0.4125
 6499TIP3   OH220378   7.658   8.548   4.629 -0.0794  0.8735 -0.7951
 6499TIP3    H120379   7.606   8.619   4.593  0.1187  1.3161 -0.2156
 6499TIP3    H220380   7.741   8.552   4.581  0.4487  1.9004  0.1593
 6500TIP3   OH220381   5.205   8.919   6.548 -0.4165 -0.2169 -0.2822
 6500TIP3    H120382   5.248   8.941   6.466 -1.2028  0.7513 -0.4565
 6500TIP3    H220383   5.195   9.002   6.593 -3.8481 -0.0171 -1.1262
 6501TIP3   OH220384   7.874   3.355   7.368 -0.0400  0.3836  0.0824
 6501TIP3    H120385   7.802   3.300   7.337  1.2191 -0.8320 -0.7822
 6501TIP3    H220386   7.897   3.409   7.293  1.0748 -0.4706 -0.2091
 6502TIP3   OH220387   1.024   9.760  10.365  0.4177 -0.2401  0.6495
 6502TIP3    H120388   1.100   9.765  10.307 -0.2431  0.6368 -0.1855
 6502TIP3    H220389   1.059   9.778  10.453  1.0201  1.3482  0.1193
 6503TIP3   OH220390   7.081   6.976   0.875  0.2869 -0.5007 -0.2005
 6503TIP3    H120391   7.106   6.884   0.864 -1.1033 -0.9423  0.1828
 6503TIP3    H220392   6.986   6.977   0.864  0.3474  0.9908 -0.7770
 6504TIP3   OH220393   7.690   1.269  10.113  0.3144  0.0387  0.6762
 6504TIP3    H120394   7.608   1.314  10.135 -0.6535 -1.1059 -0.4020
 6504TIP3    H220395   7.695   1.273  10.018  1.1999 -0.4290  0.6937
 6505TIP3   OH220396  10.262   0.671   6.394  0.3475 -0.5771  0.5444
 6505TIP3    H120397  10.235   0.590   6.351  0.6106 -1.7566  2.4930
 6505TIP3    H220398  10.233   0.740   6.335  0.2676 -2.0862 -1.2596
 6506TIP3   OH220399   0.037  10.396   7.647  0.0672 -0.3987 -0.3100
 6506TIP3    H120400  -0.009  10.422   7.727  0.1954  0.1102 -0.3980
 6506TIP3    H220401   0.038  10.475   7.593  1.5126 -0.2546 -0.0942
 6507TIP3   OH220402   0.148   0.740   4.463 -0.9148 -0.2732 -0.1911
 6507TIP3    H120403   0.053   0.755   4.464 -0.6398  1.6906  1.0920
 6507TIP3    H220404   0.184   0.807   4.521  1.6036  1.4359 -3.3663
 6508TIP3   OH220405   9.755   0.731   6.656 -0.2678 -0.3582  0.5418
 6508TIP3    H120406   9.713   0.749   6.572  2.9179  0.5520 -1.0314
 6508TIP3    H220407   9.813   0.656   6.639 -0.4599 -0.9541  2.2929
 6509TIP3   OH220408   7.186   7.696   3.135 -0.0856 -0.1434 -0.0828
 6509TIP3    H120409   7.211   7.770   3.191  0.2488 -0.5910  0.3716
 6509TIP3    H220410   7.122   7.647   3.187 -0.8358  0.1996 -0.6615
 6510TIP3   OH220411   8.040   6.456   3.711 -0.3858 -0.2072  0.2271
 6510TIP3    H120412   8.031   6.475   3.805  0.6208 -0.7093  0.4384
 6510TIP3    H220413   7.950   6.448   3.679 -0.7553  0.7000  0.9953
 6511TIP3   OH220414   7.899   6.924   2.682 -0.3130  0.6229 -0.3745
 6511TIP3    H120415   7.813   6.964   2.667  0.2267  2.3736  0.9079
 6511TIP3    H220416   7.881   6.831   2.692 -1.9885  0.8898 -0.6448
 6512TIP3   OH220417   5.063   7.871   2.541  0.3595  0.5250 -0.0636
 6512TIP3    H120418   5.104   7.945   2.497  1.1171  0.1337 -0.0305
 6512TIP3    H220419   5.133   7.834   2.596  0.2340 -0.7007 -0.6841
 6513TIP3   OH220420   7.353   3.465   6.073 -0.6629  0.0778 -0.1579
 6513TIP3    H120421   7.417   3.475   6.003  0.7149 -2.0749  0.6724
 6513TIP3    H220422   7.404   3.434   6.148 -2.2223  1.3591  1.5380
 6514TIP3   OH220423   8.743   8.387   5.802 -0.1542  0.2941  0.0159
 6514TIP3    H120424   8.808   8.455   5.790 -0.0660  0.4205  1.1376
 6514TIP3    H220425   8.675   8.406   5.737  1.2201 -0.2369 -1.6455
 6515TIP3   OH220426   0.202   7.316   0.488  0.0305 -0.4993 -0.4046
 6515TIP3    H120427   0.221   7.320   0.582 -0.3435 -1.3257 -0.2923
 6515TIP3    H220428   0.266   7.375   0.449  1.3336 -1.4608  0.2024
 6516TIP3   OH220429   1.423   1.532   2.196 -0.2761 -0.3072 -0.2806
 6516TIP3    H120430   1.456   1.553   2.109  1.4017 -0.4011  0.3114
 6516TIP3    H220431   1.329   1.516   2.182 -0.5396  1.9820 -1.6719
 6517TIP3   OH220432   3.499   9.700   7.329 -0.3460  0.6842 -0.0344
 6517TIP3    H120433   3.468   9.680   7.241  0.2612  1.2832 -0.3988
 6517TIP3    H220434   3.476   9.623   7.381  0.3257 -0.1809 -0.9865
 6518TIP3   OH220435   1.080   9.520   4.570  0.3813 -0.0933  0.2038
 6518TIP3    H120436   1.175   9.510   4.559  0.2665  1.4994 -4.5944
 6518TIP3    H220437   1.068   9.613   4.587 -0.3425 -0.0826 -0.3325
 6519TIP3   OH220438   8.405   4.478   8.995  0.0676 -0.4061  0.2869
 6519TIP3    H120439   8.471   4.522   8.942  0.1636 -0.9054 -0.0066
 6519TIP3    H220440   8.329   4.535   8.990  0.4504  0.1405  0.5767
 6520TIP3   OH220441   9.094   4.641   5.868 -0.1349  0.0768 -0.1475
 6520TIP3    H120442   9.102   4.661   5.961 -0.7209 -0.0363 -0.0650
 6520TIP3    H220443   9.055   4.719   5.829 -2.0232 -0.6811  0.1044
 6521TIP3   OH220444   3.891   6.039   4.484  0.1927  0.0177  0.7212
 6521TIP3    H120445   3.973   6.024   4.532  1.7222  0.6413 -1.5030
 6521TIP3    H220446   3.837   6.089   4.545  2.9460  2.8754  1.1053
 6522TIP3   OH220447   4.076  10.274   6.059 -0.0478 -1.0222  0.2467
 6522TIP3    H120448   4.016  10.283   6.133  0.7269  0.8733  0.7103
 6522TIP3    H220449   4.019  10.277   5.982 -0.6081  1.2433  0.6569
 6523TIP3   OH220450   3.687   0.682   8.383  0.0043  0.1189  0.2549
 6523TIP3    H120451   3.712   0.773   8.365 -0.3297  0.0811 -0.4370
 6523TIP3    H220452   3.621   0.688   8.452  0.2611  0.3735  0.4798
 6524TIP3   OH220453   2.913   2.555   2.979 -0.5226 -0.1212  0.0402
 6524TIP3    H120454   2.966   2.478   2.997 -1.9328 -1.1491 -0.0053
 6524TIP3    H220455   2.923   2.611   3.056  0.1418 -0.5673  0.2789
 6525TIP3   OH220456   1.021   0.514   2.741  0.3097  0.5845 -0.0510
 6525TIP3    H120457   1.035   0.513   2.646 -0.4153  2.0343 -0.2073
 6525TIP3    H220458   1.099   0.472   2.777  0.8721  0.5296 -1.2610
 6526TIP3   OH220459   9.932   4.905   0.612 -0.3197  0.2817  0.2047
 6526TIP3    H120460   9.923   4.893   0.518  0.8789  1.0314 -0.0272
 6526TIP3    H220461   9.843   4.898   0.646 -0.7392 -0.2104 -0.9485
 6527TIP3   OH220462   2.574   5.528   3.944 -0.2506 -0.6462  0.3314
 6527TIP3    H120463   2.548   5.514   4.035  1.8579  1.5905  1.4136
 6527TIP3    H220464   2.536   5.613   3.921  1.7512  0.2781  0.2496
 6528TIP3   OH220465   3.351   6.810   8.864 -0.5706  0.2963 -0.6463
 6528TIP3    H120466   3.416   6.880   8.853 -0.1544  0.0699  0.2638
 6528TIP3    H220467   3.343   6.800   8.959 -2.1410  0.4948 -0.7365
 6529TIP3   OH220468   3.659   8.660   8.892 -0.1886  0.2699 -0.0491
 6529TIP3    H120469   3.752   8.637   8.894  0.1984  1.6947 -0.0127
 6529TIP3    H220470   3.624   8.612   8.817  1.0079  1.1083 -1.2006
 6530TIP3   OH220471   2.820   2.874   6.754 -0.1685  0.0549 -0.0924
 6530TIP3    H120472   2.734   2.833   6.764 -1.3953  2.1178 -1.3769
 6530TIP3    H220473   2.869   2.846   6.831 -2.1009 -0.8991  0.8609
 6531TIP3   OH220474   6.719  10.213   8.580 -0.6204  0.4317  0.2093
 6531TIP3    H120475   6.792  10.232   8.521 -0.9314  0.8032 -0.0584
 6531TIP3    H220476   6.744  10.254   8.663 -0.5199  0.5508  0.1206
 6532TIP3   OH220477   2.356   8.966   9.318  0.0054  0.0733  0.1818
 6532TIP3    H120478   2.432   8.991   9.265 -0.8058  0.2476 -0.9361
 6532TIP3    H220479   2.381   8.882   9.358  1.3247  0.8114  1.0050
 6533TIP3   OH220480   8.917   0.044   7.002  0.1436  0.3869 -0.6572
 6533TIP3    H120481   8.832   0.082   7.026  0.1601  0.2957 -0.4535
 6533TIP3    H220482   8.949   0.101   6.932 -0.8970 -0.6140 -1.9982
 6534TIP3   OH220483   2.841   7.911   2.664 -0.0523  0.1032  0.6411
 6534TIP3    H120484   2.815   7.820   2.678  1.0915 -0.1064  1.6165
 6534TIP3    H220485   2.854   7.919   2.570  0.1648 -0.8471  0.5864
 6535TIP3   OH220486   1.844   3.428   2.961  0.5699  0.4175  0.2981
 6535TIP3    H120487   1.801   3.356   3.007  0.4341 -0.2577 -0.8238
 6535TIP3    H220488   1.786   3.447   2.887 -0.5029  3.1946  1.7421
 6536TIP3   OH220489   9.124   7.821   3.078  0.4903  0.7295 -0.6133
 6536TIP3    H120490   9.082   7.750   3.029  0.7349  1.2927 -1.6958
 6536TIP3    H220491   9.078   7.900   3.049  2.2748  1.3791 -1.8963
 6537TIP3   OH220492   3.932   7.630   0.828  0.1559  0.3970  0.0403
 6537TIP3    H120493   4.026   7.620   0.815  0.2078  0.4404  0.3799
 6537TIP3    H220494   3.898   7.540   0.830  0.3564  0.3274  1.1215
 6538TIP3   OH220495   6.427   6.693  10.472  0.2171 -0.0355 -0.1397
 6538TIP3    H120496   6.375   6.741  10.408 -4.0552  0.2023  3.1131
 6538TIP3    H220497   6.417   6.742  10.553  2.4602 -2.1750  1.5845
 6539TIP3   OH220498   6.222   7.660   8.653 -0.5087  0.6976  0.2967
 6539TIP3    H120499   6.229   7.755   8.650 -2.6939  0.9455 -2.8542
 6539TIP3    H220500   6.148   7.643   8.711 -0.8979  1.0441 -0.0873
 6540TIP3   OH220501   0.920   1.725   8.045  0.2351  0.1958  0.5775
 6540TIP3    H120502   1.000   1.694   8.088  0.7606  2.3451  1.2789
 6540TIP3    H220503   0.951   1.788   7.980 -0.8574  1.0456  0.8427
 6541TIP3   OH220504   4.471   8.665  10.757  0.3791  0.2034 -0.6084
 6541TIP3    H120505   4.483   8.608  10.681  0.8871 -0.7318  0.1639
 6541TIP3    H220506   4.560   8.681  10.789  0.1182  0.0040  0.2246
 6542TIP3   OH220507   1.773   8.134   0.464  0.0906 -0.3497  0.0721
 6542TIP3    H120508   1.866   8.155   0.452 -0.6819  2.8943 -1.2786
 6542TIP3    H220509   1.757   8.061   0.404  1.8810 -1.5220  0.9355
 6543TIP3   OH220510   8.369   0.564   2.051  0.2524  0.4238 -0.5049
 6543TIP3    H120511   8.419   0.498   2.003  1.2346 -0.1079  1.1691
 6543TIP3    H220512   8.418   0.645   2.040  0.0635  0.4748 -1.0048
 6544TIP3   OH220513   0.065   7.623   5.668 -0.1273 -0.0305 -0.1537
 6544TIP3    H120514   0.134   7.585   5.722 -0.1859 -1.1611 -0.8452
 6544TIP3    H220515   0.079   7.587   5.581 -0.4515  1.2281 -0.7623
 6545TIP3   OH220516   1.163   2.692   2.268 -0.1695  0.6016  0.3377
 6545TIP3    H120517   1.069   2.702   2.252 -0.0687  0.5063 -0.3475
 6545TIP3    H220518   1.197   2.782   2.265 -0.2532  0.6460  0.6912
 6546TIP3   OH220519   7.677   5.568   7.763  0.0201 -0.5904 -0.3574
 6546TIP3    H120520   7.739   5.582   7.691 -1.3828 -1.9107 -1.9157
 6546TIP3    H220521   7.670   5.653   7.805  1.3136  0.0948 -1.4370
 6547TIP3   OH220522   0.365   2.407   1.420  0.4796 -0.3169  0.0487
 6547TIP3    H120523   0.383   2.412   1.326 -3.0093  0.9917 -0.7060
 6547TIP3    H220524   0.342   2.497   1.444 -1.1733 -1.0962  1.5522
 6548TIP3   OH220525   6.213   4.856   1.321  1.3604 -0.1189 -0.1284
 6548TIP3    H120526   6.298   4.882   1.284  0.7333  1.9194 -0.2241
 6548TIP3    H220527   6.180   4.935   1.363 -1.1488 -0.4370 -1.3317
 6549TIP3   OH220528   5.606   8.041   2.492 -0.3893  0.3474  0.2280
 6549TIP3    H120529   5.680   8.064   2.549 -0.0699 -0.5699  0.2005
 6549TIP3    H220530   5.566   7.966   2.535  1.7869 -2.5157 -2.2900
 6550TIP3   OH220531   8.867   7.648   6.820 -0.5212  0.1004 -1.2055
 6550TIP3    H120532   8.818   7.621   6.743 -2.2333 -2.3635  0.5868
 6550TIP3    H220533   8.801   7.660   6.888  0.9351  2.0093 -0.0059
 6551TIP3   OH220534   2.722   3.920  10.556 -0.0045 -0.1558  0.1747
 6551TIP3    H120535   2.748   3.891  10.643 -1.2496  0.1610  0.6703
 6551TIP3    H220536   2.656   3.988  10.571 -0.2999 -0.1485 -1.0067
 6552TIP3   OH220537   9.900   8.271   9.458 -0.2381 -0.2214  0.0371
 6552TIP3    H120538   9.980   8.273   9.510  0.4762 -0.4594 -1.0089
 6552TIP3    H220539   9.877   8.363   9.445  2.0912  0.1033 -2.8773
 6553TIP3   OH220540   6.357   2.498   8.483 -0.2015  0.7295 -0.7806
 6553TIP3    H120541   6.407   2.546   8.549  0.6568 -1.4417  0.2496
 6553TIP3    H220542   6.274   2.546   8.477  0.2043  1.7556  0.9032
 6554TIP3   OH220543   5.116   4.266   0.741  0.2751 -0.4542 -0.1140
 6554TIP3    H120544   5.122   4.221   0.657 -0.7057 -0.8083 -0.0119
 6554TIP3    H220545   5.049   4.217   0.789 -0.2888  0.6788  0.2807
 6555TIP3   OH220546   3.692   7.026   0.607 -0.4918  0.1337 -0.5802
 6555TIP3    H120547   3.695   7.083   0.530  1.6241  0.0016 -0.6455
 6555TIP3    H220548   3.669   6.940   0.572  0.6709  0.0273 -1.1289
 6556TIP3   OH220549   0.766   4.081   8.909  0.4585  0.3289 -0.0990
 6556TIP3    H120550   0.765   4.141   8.836 -1.8778  0.2824 -0.2027
 6556TIP3    H220551   0.774   4.137   8.987  1.5333  0.4833 -0.3084
 6557TIP3   OH220552   9.261   8.168   0.913  0.4962  0.3423  0.3020
 6557TIP3    H120553   9.308   8.155   0.831 -1.8530 -1.2740 -0.9161
 6557TIP3    H220554   9.200   8.240   0.896  0.4308  0.4256  0.8409
 6558TIP3   OH220555   4.112   9.151   9.494  0.0589  0.7559 -0.6555
 6558TIP3    H120556   4.079   9.075   9.446  1.0806 -0.1113 -0.0336
 6558TIP3    H220557   4.191   9.176   9.446  0.5159  0.5247 -0.0323
 6559TIP3   OH220558   0.536   0.652   4.282  0.1152  0.7831  0.4464
 6559TIP3    H120559   0.452   0.681   4.248 -1.0482  0.6399  2.9966
 6559TIP3    H220560   0.584   0.733   4.299  0.3715  0.8728 -0.6003
 6560TIP3   OH220561   4.566  10.397   5.114  0.2295  0.2521  0.2127
 6560TIP3    H120562   4.548  10.368   5.024 -1.7915  0.2304  0.5709
 6560TIP3    H220563   4.586  10.316   5.161  2.3470  0.3721 -0.3948
 6561TIP3   OH220564   7.748   6.812   3.909 -0.3469  0.4340  0.4173
 6561TIP3    H120565   7.737   6.864   3.988 -2.3684  2.1416 -0.8845
 6561TIP3    H220566   7.838   6.826   3.882  0.8296 -1.2619  3.0457
 6562TIP3   OH220567   4.123   1.711   3.712  0.4611 -0.2274  0.1619
 6562TIP3    H120568   4.154   1.646   3.649  0.6614  0.5719 -0.5847
 6562TIP3    H220569   4.040   1.675   3.745  1.0035 -1.2721  0.4284
 6563TIP3   OH220570   1.906  10.876   8.064  0.2542  0.3201 -0.3159
 6563TIP3    H120571   1.972  10.843   8.125  0.5288 -0.9248 -1.2596
 6563TIP3    H220572   1.924  10.830   7.982 -0.3485  1.6781 -1.2437
 6564TIP3   OH220573   2.877   5.829   0.715 -0.2834  0.5297  0.3393
 6564TIP3    H120574   2.820   5.866   0.647 -0.1116  0.7088  0.2942
 6564TIP3    H220575   2.899   5.903   0.771 -2.4056 -0.0142  2.0442
 6565TIP3   OH220576   4.965   6.284   3.317  0.1663 -0.4881  0.2802
 6565TIP3    H120577   5.011   6.364   3.345 -0.3283 -0.3357  0.6804
 6565TIP3    H220578   4.911   6.261   3.392  0.0785 -1.0339  0.0492
 6566TIP3   OH220579   3.914   9.249   6.267  0.1298  0.2748  0.5729
 6566TIP3    H120580   3.843   9.196   6.231  0.2365 -0.3546  1.2579
 6566TIP3    H220581   3.988   9.189   6.274  0.3512  0.5920  1.0521
 6567TIP3   OH220582   5.647   2.176   9.182 -0.1520 -0.3790  0.5212
 6567TIP3    H120583   5.666   2.127   9.101  2.0309 -0.1631  0.8301
 6567TIP3    H220584   5.670   2.115   9.252 -1.9080 -0.5148  1.0236
 6568TIP3   OH220585   0.621   7.506   4.908 -0.0080  0.4509 -0.4257
 6568TIP3    H120586   0.593   7.505   4.999 -1.0819  0.2875 -0.7427
 6568TIP3    H220587   0.632   7.414   4.885  0.9341  0.5171 -0.2727
 6569TIP3   OH220588   5.406   0.848   6.241  0.1552 -0.2950 -0.1949
 6569TIP3    H120589   5.449   0.932   6.258 -1.6710  0.5965  0.2756
 6569TIP3    H220590   5.476   0.792   6.206  0.8581  2.2266 -3.2474
 6570TIP3   OH220591   2.576   0.262  10.869 -0.6349 -0.6430  0.0726
 6570TIP3    H120592   2.534   0.181  10.842  0.9779 -1.5209  0.1193
 6570TIP3    H220593   2.638   0.236  10.937 -0.1218  0.6417  0.1248
 6571TIP3   OH220594   0.653   0.064   1.684 -0.1762  0.2198 -0.2049
 6571TIP3    H120595   0.656   0.146   1.634 -1.3940  0.0521 -0.5929
 6571TIP3    H220596   0.569   0.025   1.661  0.6362 -1.4505 -0.4874
 6572TIP3   OH220597   1.529   8.228   2.185 -0.2482  0.0594  0.1308
 6572TIP3    H120598   1.492   8.228   2.096 -0.5180 -1.1194  0.2216
 6572TIP3    H220599   1.624   8.220   2.171 -0.4352 -2.7710 -0.0721
 6573TIP3   OH220600   5.545  10.808   0.770 -0.0209 -0.2015 -0.4846
 6573TIP3    H120601   5.548  10.727   0.822 -0.4447 -0.3330 -0.6677
 6573TIP3    H220602   5.579  10.875   0.830 -2.1220 -0.0132  0.5782
 6574TIP3   OH220603   9.601   9.791  10.242  0.0489  0.0188 -0.0261
 6574TIP3    H120604   9.510   9.818  10.254  0.0894  0.3415 -0.4295
 6574TIP3    H220605   9.631   9.769  10.330  0.2034  1.8707  0.4327
 6575TIP3   OH220606   7.959   8.020   8.926  0.2560 -0.3360  0.1459
 6575TIP3    H120607   7.938   7.927   8.920  1.2415 -0.7355  2.1634
 6575TIP3    H220608   8.048   8.023   8.959 -0.5889  1.2736  2.5974
 6576TIP3   OH220609   1.735   3.265   0.488  0.5873 -0.6911  0.0386
 6576TIP3    H120610   1.702   3.303   0.407 -0.1480  0.4078  0.8284
 6576TIP3    H220611   1.673   3.196   0.509 -1.3800  1.3735  1.5283
 6577TIP3   OH220612   8.564   9.692   5.402  0.4708  0.8501 -0.2674
 6577TIP3    H120613   8.493   9.756   5.406 -0.6798 -0.3609 -0.5653
 6577TIP3    H220614   8.520   9.608   5.392  1.9354 -0.0114  0.1764
 6578TIP3   OH220615   9.320   4.753   9.554 -0.0609 -0.0085  0.6176
 6578TIP3    H120616   9.354   4.790   9.636 -0.0923 -3.0332  2.1460
 6578TIP3    H220617   9.226   4.768   9.557  0.1757  1.7921  0.0245
 6579TIP3   OH220618   5.351   0.034   3.983  0.2986  0.0599 -0.2170
 6579TIP3    H120619   5.320   0.121   4.009  0.7243  0.7982 -2.0642
 6579TIP3    H220620   5.395   0.000   4.062  1.3625  2.1103  0.1356
 6580TIP3   OH220621   1.756   3.052   6.140  0.2229  0.2550 -0.4417
 6580TIP3    H120622   1.767   2.982   6.203  1.0875  0.2311 -0.5978
 6580TIP3    H220623   1.811   3.123   6.173 -1.4513  1.2734  0.2731
 6581TIP3   OH220624   9.882   5.929   2.374  0.1393  0.0380 -0.2046
 6581TIP3    H120625   9.850   6.018   2.387  2.0826  0.7461  0.0476
 6581TIP3    H220626   9.885   5.892   2.462 -0.5039 -0.2331 -0.2912
 6582TIP3   OH220627   7.248   7.125  10.052  0.1184 -0.3430 -0.2804
 6582TIP3    H120628   7.310   7.142   9.982 -1.1638  1.6160 -1.0432
 6582TIP3    H220629   7.277   7.181  10.124  0.1302 -0.5999 -0.0858
 6583TIP3   OH220630   1.157   8.637   5.881  0.0082  0.4275  0.4526
 6583TIP3    H120631   1.235   8.590   5.850  0.8082  0.5794  2.1255
 6583TIP3    H220632   1.085   8.597   5.832  1.0935  0.1946 -1.0578
 6584TIP3   OH220633   7.765   3.480   4.310 -0.6820  0.0664  0.1502
 6584TIP3    H120634   7.796   3.401   4.356  0.5048 -0.2625 -1.1400
 6584TIP3    H220635   7.843   3.533   4.299 -1.3313  1.0636  0.2725
 6585TIP3   OH220636   4.158   0.058   5.947 -0.0777 -0.1224 -0.1684
 6585TIP3    H120637   4.121  -0.016   5.899  0.0846  0.1054 -0.6563
 6585TIP3    H220638   4.141   0.038   6.039 -1.0314 -0.2268 -0.3536
 6586TIP3   OH220639   1.091  10.410   2.073 -0.0608 -0.4618  0.3845
 6586TIP3    H120640   1.119  10.444   2.158 -2.0590  0.2695  0.8198
 6586TIP3    H220641   1.076  10.489   2.020 -0.4378 -0.8490 -0.0900
 6587TIP3   OH220642   9.622   1.925   8.283  0.4940 -0.3333  0.0068
 6587TIP3    H120643   9.646   1.852   8.340 -0.8808  0.2892  1.4575
 6587TIP3    H220644   9.544   1.963   8.324  1.2943  2.1120 -0.5539
 6588TIP3   OH220645   8.663   4.814   1.332 -0.1602  0.2421  0.6348
 6588TIP3    H120646   8.615   4.734   1.307  0.6992 -0.0491 -0.1225
 6588TIP3    H220647   8.723   4.785   1.401  0.7481  0.0276 -0.2192
 6589TIP3   OH220648   8.678   7.146   0.823  0.1939 -0.5370  0.0451
 6589TIP3    H120649   8.654   7.213   0.887  2.1770  1.7955 -1.4968
 6589TIP3    H220650   8.597   7.130   0.773 -0.5107  0.0795  0.9555
 6590TIP3   OH220651   8.969   8.932   5.718 -0.1210  0.1322  0.5464
 6590TIP3    H120652   9.050   8.919   5.766  0.8905  0.4660 -0.9934
 6590TIP3    H220653   8.917   8.853   5.736  0.2996  0.1624  1.9712
 6591TIP3   OH220654   6.963   4.225   8.343  0.6101  0.1774  0.5167
 6591TIP3    H120655   7.012   4.271   8.274  0.3585  1.9317  1.4604
 6591TIP3    H220656   6.876   4.213   8.306  0.8220 -0.0291  0.0672
 6592TIP3   OH220657   7.592   5.560   7.047 -0.3294  0.3097 -0.0711
 6592TIP3    H120658   7.522   5.497   7.059  0.9020 -0.8182  1.5980
 6592TIP3    H220659   7.601   5.604   7.132  0.1722  1.3115 -0.6125
 6593TIP3   OH220660   3.858   3.360   2.749 -0.6566  0.2888 -0.6643
 6593TIP3    H120661   3.820   3.315   2.674 -0.6111 -2.9337  1.0727
 6593TIP3    H220662   3.889   3.290   2.807 -1.4171  2.5038  2.7555
 6594TIP3   OH220663   0.919   4.129   2.098  0.3644  0.7326 -0.0903
 6594TIP3    H120664   0.990   4.191   2.082  2.1395 -0.5793  2.1780
 6594TIP3    H220665   0.878   4.159   2.179  1.0802 -0.8411  0.9012
 6595TIP3   OH220666   3.902   2.004   6.850 -0.6402 -0.7088 -0.2963
 6595TIP3    H120667   3.914   1.911   6.867  0.8007 -0.6400 -0.8142
 6595TIP3    H220668   3.954   2.021   6.771 -0.2225  0.6886  0.2502
 6596TIP3   OH220669   6.656   8.364   4.662 -0.2432 -0.1048  0.1644
 6596TIP3    H120670   6.669   8.354   4.568  0.9212 -0.1127  0.3221
 6596TIP3    H220671   6.667   8.457   4.679 -3.6783  0.5056 -0.1548
 6597TIP3   OH220672   2.153   5.132   5.681  0.1538  0.2445  0.4911
 6597TIP3    H120673   2.155   5.160   5.590  0.1707  1.6084  0.8759
 6597TIP3    H220674   2.213   5.192   5.726 -1.1207  0.7310  1.6577
 6598TIP3   OH220675  10.098   7.067   1.343 -0.3558 -0.5375  0.7711
 6598TIP3    H120676  10.083   7.149   1.390 -0.0116  0.1991 -0.3586
 6598TIP3    H220677  10.180   7.080   1.296 -1.5999 -0.4783 -1.5601
 6599TIP3   OH220678   3.901   2.406   6.828 -0.3159 -0.0652 -0.3305
 6599TIP3    H120679   3.961   2.457   6.883  1.6129 -2.2805 -0.1705
 6599TIP3    H220680   3.824   2.461   6.818  1.9786  3.3193 -1.1226
 6600TIP3   OH220681  10.098   7.616   0.890  0.1492  0.0493  0.2076
 6600TIP3    H120682  10.191   7.638   0.901  0.6279 -1.3149 -0.8364
 6600TIP3    H220683  10.060   7.629   0.977  0.8342  2.6071  0.2068
 6601TIP3   OH220684  10.685   7.940   3.803 -0.0553  0.8798  0.1329
 6601TIP3    H120685  10.769   7.936   3.849  0.7319  0.3065 -1.3318
 6601TIP3    H220686  10.702   7.904   3.717 -0.7357  4.6678 -1.7843
 6602TIP3   OH220687   7.828   9.781  10.716  0.3093  0.1033 -0.0027
 6602TIP3    H120688   7.897   9.786  10.650  0.1102  0.3924 -0.1922
 6602TIP3    H220689   7.791   9.693  10.705  0.7193 -0.0928  0.1737
 6603TIP3   OH220690   6.649   1.261   5.699 -0.4638 -0.0285  0.3174
 6603TIP3    H120691   6.583   1.238   5.635 -0.1838  2.3521 -0.9404
 6603TIP3    H220692   6.600   1.295   5.774 -0.8044  3.1751 -1.1915
 6604TIP3   OH220693   4.378   4.835   6.845 -0.6180 -0.4372  0.0988
 6604TIP3    H120694   4.435   4.905   6.816 -0.2959 -1.2565 -1.3571
 6604TIP3    H220695   4.426   4.755   6.825 -1.3828 -1.1081  0.8268
 6605TIP3   OH220696   8.109   3.636  10.851  0.3017 -0.2997 -0.5170
 6605TIP3    H120697   8.166   3.589  10.912  0.7074 -1.8863 -2.0220
 6605TIP3    H220698   8.044   3.571  10.823 -0.3457  0.5992 -1.1921
 6606TIP3   OH220699   5.690   4.248   8.631  0.0321 -0.0049 -0.1918
 6606TIP3    H120700   5.718   4.257   8.540 -0.9066  0.6795 -0.4300
 6606TIP3    H220701   5.608   4.198   8.625 -0.1588  0.2575  0.2574
 6607TIP3   OH220702   1.878   6.265   6.708 -0.3445 -0.0744 -0.5314
 6607TIP3    H120703   1.830   6.344   6.685 -0.3125  0.4706  1.1694
 6607TIP3    H220704   1.964   6.278   6.668  0.2181  1.5445  1.0606
 6608TIP3   OH220705   7.555   0.634   8.159  0.1742 -0.0859 -0.6618
 6608TIP3    H120706   7.566   0.539   8.156  0.0521 -0.0940 -0.8530
 6608TIP3    H220707   7.501   0.655   8.083 -0.9357 -0.0058  0.1265
 6609TIP3   OH220708   0.445   8.396   6.401  0.0041  0.2377  0.0854
 6609TIP3    H120709   0.474   8.436   6.484 -0.1324  0.7504 -0.1102
 6609TIP3    H220710   0.466   8.303   6.411  0.3620  0.3610  0.5363
 6610TIP3   OH220711   5.032   0.276   0.250  0.5691  0.4311  0.8475
 6610TIP3    H120712   5.125   0.279   0.272  0.6093 -1.2051  0.9952
 6610TIP3    H220713   5.018   0.188   0.216 -0.5572  1.2404 -0.9495
 6611TIP3   OH220714  10.029   5.241   1.705 -0.3365  0.5930  1.0730
 6611TIP3    H120715  10.061   5.185   1.775  1.0660  0.3348  0.2769
 6611TIP3    H220716  10.105   5.294   1.681 -0.7815  0.6711 -0.2444
 6612TIP3   OH220717  10.696   7.077   7.802 -0.4127 -0.5277  0.0503
 6612TIP3    H120718  10.650   7.144   7.751  2.1856  0.5367 -1.0850
 6612TIP3    H220719  10.732   7.017   7.737 -0.4050 -1.5005  0.9171
 6613TIP3   OH220720   1.737   8.558   4.036 -0.4128  0.4115 -0.0777
 6613TIP3    H120721   1.717   8.651   4.025 -0.0334  0.3206 -1.8691
 6613TIP3    H220722   1.706   8.518   3.955 -0.3182 -0.9864  0.5612
 6614TIP3   OH220723   3.823   9.786   0.726  0.2702 -0.3324 -0.4684
 6614TIP3    H120724   3.766   9.840   0.671  0.2641 -1.4789 -1.6147
 6614TIP3    H220725   3.907   9.787   0.681  0.8103  0.2630  0.5202
 6615TIP3   OH220726   9.753   8.983   7.311 -0.3655  1.0270  0.3942
 6615TIP3    H120727   9.847   8.981   7.294 -0.1154  3.0211  1.1910
 6615TIP3    H220728   9.714   8.932   7.241  1.3710 -0.7484  0.6570
 6616TIP3   OH220729   2.273   4.277   5.575 -0.1613 -0.4951  0.3033
 6616TIP3    H120730   2.356   4.315   5.605  0.5970 -0.3842 -1.7295
 6616TIP3    H220731   2.298   4.194   5.534 -1.2428 -1.0960  0.8253
 6617TIP3   OH220732   7.441   8.312   5.479 -0.5473  0.3764 -0.2690
 6617TIP3    H120733   7.381   8.365   5.428 -1.5145 -0.1962  0.2384
 6617TIP3    H220734   7.515   8.370   5.498  0.0244  0.4938 -2.5878
 6618TIP3   OH220735   4.565   0.599   4.253  0.0583 -0.6338 -0.5374
 6618TIP3    H120736   4.536   0.528   4.195 -0.9742  0.2134 -1.0960
 6618TIP3    H220737   4.485   0.647   4.274  0.9139  1.3420 -1.5181
 6619TIP3   OH220738   7.996   9.172   3.078  0.4623  0.8684  0.1586
 6619TIP3    H120739   8.000   9.204   2.988  0.5802 -0.1348 -0.2032
 6619TIP3    H220740   8.085   9.139   3.095  0.1346 -0.0117  0.2265
 6620TIP3   OH220741  10.046   9.476   0.767 -0.3443 -0.2736 -0.7448
 6620TIP3    H120742  10.036   9.571   0.773  0.9469 -0.1879  1.2957
 6620TIP3    H220743  10.109   9.463   0.696  0.7367  0.5466  0.0294
 6621TIP3   OH220744   8.799   6.855   7.089 -0.3738  0.7086 -0.1473
 6621TIP3    H120745   8.824   6.861   7.181  0.6134 -0.6065 -0.2948
 6621TIP3    H220746   8.797   6.761   7.071 -3.2234  0.8142 -0.7807
 6622TIP3   OH220747  10.250   6.540   0.715  0.1611  0.4284 -0.3134
 6622TIP3    H120748  10.315   6.504   0.775 -0.9527  0.0001  0.6740
 6622TIP3    H220749  10.185   6.470   0.705 -0.0071  0.7302 -1.5192
 6623TIP3   OH220750   6.114   9.387   4.565  0.0920  0.2387  0.0291
 6623TIP3    H120751   6.170   9.317   4.599 -1.1824  0.1188  2.0155
 6623TIP3    H220752   6.166   9.426   4.494  1.3614 -1.8566 -0.2953
 6624TIP3   OH220753   7.213   0.193   2.628  0.0626  0.5309  0.4104
 6624TIP3    H120754   7.201   0.255   2.700  1.0877 -0.0754  1.1250
 6624TIP3    H220755   7.259   0.118   2.667 -0.7593 -0.5026 -0.5274
 6625TIP3   OH220756   0.585   4.662   7.686  0.9980 -0.4065 -0.0860
 6625TIP3    H120757   0.675   4.679   7.657  0.2337  0.0294 -2.4511
 6625TIP3    H220758   0.531   4.714   7.626 -0.9309 -2.3634 -0.1584
 6626TIP3   OH220759   3.567   0.405   6.331  0.1941  0.5273 -0.4675
 6626TIP3    H120760   3.557   0.381   6.423 -0.9655  1.1095 -0.4241
 6626TIP3    H220761   3.661   0.401   6.315  0.2780 -1.3637  0.2439
 6627TIP3   OH220762   3.311   9.114   1.949  0.4036  0.5825  0.0267
 6627TIP3    H120763   3.371   9.043   1.926  1.4818  1.5804 -0.3242
 6627TIP3    H220764   3.336   9.139   2.038  1.0321  1.4945 -0.3889
 6628TIP3   OH220765  10.311   9.299   5.216 -0.4280  0.6795  0.2646
 6628TIP3    H120766  10.250   9.264   5.281  1.1366  1.4554  2.2579
 6628TIP3    H220767  10.395   9.300   5.261  0.6799  1.5314 -1.7179
 6629TIP3   OH220768   6.033   1.201   6.463 -0.3693  0.2055  0.2934
 6629TIP3    H120769   5.942   1.180   6.445 -1.1986  2.4795  1.4369
 6629TIP3    H220770   6.049   1.169   6.552 -0.2797  0.4002  0.3503
 6630TIP3   OH220771   9.667   4.745   1.304  0.4561 -1.0166  0.4436
 6630TIP3    H120772   9.574   4.749   1.281  0.6805  0.6671 -0.3811
 6630TIP3    H220773   9.672   4.785   1.391  0.5743  0.6295 -0.2737
 6631TIP3   OH220774   9.004   8.987   4.129  0.8547 -0.0219  0.3270
 6631TIP3    H120775   9.087   9.032   4.111  0.7693 -0.1773 -0.5362
 6631TIP3    H220776   8.942   9.057   4.148  0.7014  0.2644 -1.0984
 6632TIP3   OH220777   8.587   3.091   1.851 -0.2389 -0.4943  0.2123
 6632TIP3    H120778   8.586   2.998   1.870 -1.2551 -0.2763  1.3242
 6632TIP3    H220779   8.655   3.101   1.784  0.1821 -1.9556  0.3872
 6633TIP3   OH220780   2.182   6.071   3.655  0.2002  0.0973  0.2024
 6633TIP3    H120781   2.209   6.098   3.743  0.3035  0.0616  0.1823
 6633TIP3    H220782   2.140   6.148   3.617 -1.5166 -0.4083  0.9581
 6634TIP3   OH220783  10.232   0.479  10.616  0.3830 -0.1254  0.5372
 6634TIP3    H120784  10.176   0.410  10.652  1.5484 -0.2683  2.1366
 6634TIP3    H220785  10.171   0.535  10.567 -0.8923 -1.1815  0.8493
 6635TIP3   OH220786   4.347   4.266   0.707  0.0003  0.0030 -0.5873
 6635TIP3    H120787   4.413   4.196   0.710 -0.0716 -0.0365  0.0306
 6635TIP3    H220788   4.364   4.319   0.785 -0.5689  0.1131 -0.5353
 6636TIP3   OH220789   6.311  10.148  10.854 -0.5257 -0.0119  0.3399
 6636TIP3    H120790   6.333  10.189  10.770 -1.7223 -2.7468 -1.4415
 6636TIP3    H220791   6.229  10.101  10.838  0.7143 -3.1366  2.0839
 6637TIP3   OH220792   0.309   6.691   2.175  0.2050 -0.4333  0.3648
 6637TIP3    H120793   0.275   6.772   2.215 -0.7225 -0.8734  0.4725
 6637TIP3    H220794   0.393   6.677   2.219  1.6207  1.8155 -1.3889
 6638TIP3   OH220795   0.580  10.360   1.019 -0.0927  0.1739  0.0604
 6638TIP3    H120796   0.576  10.453   1.042 -2.1495  0.1192  0.1480
 6638TIP3    H220797   0.609  10.317   1.099 -2.4783  0.4595  1.1853
 6639TIP3   OH220798   3.895   3.755   1.839  0.6229 -0.1925  0.0000
 6639TIP3    H120799   3.893   3.660   1.833 -1.3398 -0.1429 -0.8649
 6639TIP3    H220800   3.935   3.783   1.757  1.8322 -0.2743  0.5513
 6640TIP3   OH220801   6.334   0.008   6.109  0.0639  0.6558 -0.6408
 6640TIP3    H120802   6.262  -0.037   6.065  2.1135 -1.4475 -2.1042
 6640TIP3    H220803   6.365  -0.054   6.175  1.6745  0.6730 -1.3257
 6641TIP3   OH220804   7.080   1.690   7.927  0.1521 -0.2068  0.0370
 6641TIP3    H120805   7.149   1.624   7.916  0.0475 -0.4803  0.9133
 6641TIP3    H220806   7.110   1.743   8.001 -0.5361 -0.2872  0.3806
 6642TIP3   OH220807   4.308   4.862   4.862  0.4765 -0.2446 -0.0582
 6642TIP3    H120808   4.391   4.897   4.892  1.0720 -1.1623 -0.5888
 6642TIP3    H220809   4.311   4.769   4.885 -1.7984  0.2661  2.9466
 6643TIP3   OH220810   0.980   2.678  10.366 -0.0217  0.0849 -0.2247
 6643TIP3    H120811   1.075   2.663  10.362 -0.0207  0.1252 -0.3716
 6643TIP3    H220812   0.969   2.742  10.437  0.4460  2.9438 -2.5168
 6644TIP3   OH220813   0.240   7.017   4.077 -0.1490 -0.4988  0.0251
 6644TIP3    H120814   0.215   6.928   4.052 -1.5645  0.3873 -2.0417
 6644TIP3    H220815   0.168   7.047   4.132 -0.1389 -0.3345 -0.0506
 6645TIP3   OH220816   3.261   0.094   6.534  0.1783 -0.4265 -0.5345
 6645TIP3    H120817   3.262   0.025   6.467 -0.4202 -0.9869  0.0262
 6645TIP3    H220818   3.230   0.050   6.613  2.1085 -0.0926  0.4678
 6646TIP3   OH220819   9.468   4.553   5.035 -0.4696 -0.0848  0.2043
 6646TIP3    H120820   9.482   4.605   4.956 -0.6804 -0.3393 -0.0048
 6646TIP3    H220821   9.443   4.617   5.102 -0.0208  0.1617  0.1354
 6647TIP3   OH220822   0.723   2.580   8.023 -0.4859 -0.0004 -0.2655
 6647TIP3    H120823   0.677   2.581   7.939 -0.9294  0.5440 -0.0222
 6647TIP3    H220824   0.708   2.493   8.058  0.2638 -0.4662 -1.0510
 6648TIP3   OH220825   8.900   8.134   7.271 -0.1608  0.7810  0.1043
 6648TIP3    H120826   8.875   8.044   7.292  0.3205  1.0404  1.9723
 6648TIP3    H220827   8.822   8.186   7.291  0.4261  1.0796  1.7911
 6649TIP3   OH220828   8.787   1.519   2.694 -0.1726 -0.3608  0.8440
 6649TIP3    H120829   8.745   1.603   2.676 -1.0678 -1.0267 -0.3497
 6649TIP3    H220830   8.845   1.536   2.768 -1.7170  0.8929  1.8458
 6650TIP3   OH220831   9.816   5.778   9.467  0.3741  0.6684  0.2867
 6650TIP3    H120832   9.819   5.863   9.423 -0.1107  0.7583  0.4208
 6650TIP3    H220833   9.898   5.774   9.517  0.6844  0.7880 -0.2098
 6651TIP3   OH220834   5.626   1.196   1.233  0.6836 -0.4656 -0.2628
 6651TIP3    H120835   5.543   1.161   1.268  0.5595 -0.1216 -0.2094
 6651TIP3    H220836   5.631   1.160   1.145  0.4776 -0.4890 -0.2669
 6652TIP3   OH220837   3.022   3.857   5.741  0.0089  0.0498 -0.6349
 6652TIP3    H120838   2.947   3.916   5.736 -1.3854 -1.6621 -0.8295
 6652TIP3    H220839   2.986   3.775   5.775  1.8628 -0.7212 -0.4014
 6653TIP3   OH220840   0.256   4.316   8.585 -0.6807 -0.4088  0.1507
 6653TIP3    H120841   0.300   4.252   8.529 -0.4291 -0.8480  0.8327
 6653TIP3    H220842   0.195   4.264   8.637 -1.4524  0.0948 -0.2469
 6654TIP3   OH220843   5.891   2.789   4.172  0.2932  0.0790  0.1551
 6654TIP3    H120844   5.858   2.730   4.240  0.2661 -0.2777 -0.1637
 6654TIP3    H220845   5.815   2.803   4.115  0.7121 -0.8091 -0.6302
 6655TIP3   OH220846   8.404   6.113  10.251 -0.2962 -0.0928 -0.3656
 6655TIP3    H120847   8.399   6.199  10.293 -1.2437 -0.6145  0.6594
 6655TIP3    H220848   8.406   6.052  10.324 -1.7364 -1.0297 -1.0742
 6656TIP3   OH220849   7.751   5.700   9.430 -0.1539  0.2854 -0.4153
 6656TIP3    H120850   7.776   5.750   9.507  0.6340 -0.6378 -0.0566
 6656TIP3    H220851   7.657   5.685   9.441 -0.2477  1.0136 -0.1515
 6657TIP3   OH220852  10.277   5.036   4.194  0.4624 -0.3651  0.2296
 6657TIP3    H120853  10.323   4.976   4.252  1.2256  0.7469  0.8173
 6657TIP3    H220854  10.291   5.000   4.107  0.0185 -1.5960  0.6458
 6658TIP3   OH220855   2.136   2.022   1.766  0.0196  0.4641 -0.3085
 6658TIP3    H120856   2.225   2.056   1.769  0.5314 -0.8482 -0.1114
 6658TIP3    H220857   2.110   2.030   1.674  0.1232  1.3402 -0.2737
 6659TIP3   OH220858   6.569   8.292   3.293 -0.8726  0.1015  0.2684
 6659TIP3    H120859   6.507   8.353   3.253 -0.5438 -0.1246 -0.6001
 6659TIP3    H220860   6.633   8.274   3.225  0.9085  1.3303  1.5542
 6660TIP3   OH220861   6.755   9.178   2.028 -0.4255  0.3385  0.2723
 6660TIP3    H120862   6.724   9.258   2.069  1.1951  1.0754  0.1464
 6660TIP3    H220863   6.830   9.151   2.081  0.3682  0.1129 -0.9184
 6661TIP3   OH220864   7.484   8.258   1.296  0.0862  0.3102  0.3124
 6661TIP3    H120865   7.429   8.192   1.337  2.1561 -1.0552  1.0145
 6661TIP3    H220866   7.465   8.250   1.202  2.2152 -3.3105  0.0136
 6662TIP3   OH220867   6.199   9.621   1.619  0.2840 -0.3418  0.2619
 6662TIP3    H120868   6.250   9.640   1.540 -0.4380 -2.1884 -0.6915
 6662TIP3    H220869   6.264   9.591   1.683  0.5512 -1.7104 -0.6177
 6663TIP3   OH220870   7.850   4.782   7.814 -0.3058  0.6225  0.0557
 6663TIP3    H120871   7.919   4.776   7.748  1.0612  1.6539  1.3076
 6663TIP3    H220872   7.820   4.873   7.810 -1.2070  0.3284 -0.0850
 6664TIP3   OH220873   1.471   6.822   2.024  0.1903 -0.3139  0.8618
 6664TIP3    H120874   1.511   6.735   2.024  1.5061  0.2287 -0.7750
 6664TIP3    H220875   1.464   6.846   1.931  2.0357  2.2137  1.2382
 6665TIP3   OH220876   3.574   4.984   4.326 -0.3186  0.0621  0.1733
 6665TIP3    H120877   3.641   5.035   4.280 -0.6925 -0.3353 -0.8415
 6665TIP3    H220878   3.513   5.049   4.359  0.8653  0.4744  1.6307
 6666TIP3   OH220879   6.241   3.937   8.333 -0.2066 -0.1534  0.8179
 6666TIP3    H120880   6.210   3.847   8.335  0.0470 -0.3174 -0.8013
 6666TIP3    H220881   6.170   3.986   8.291  0.8120 -0.1725 -1.0468
 6667TIP3   OH220882   3.010   1.590  10.306 -0.1051  0.0302  0.1755
 6667TIP3    H120883   2.985   1.679  10.331  1.2397  0.6272 -0.5340
 6667TIP3    H220884   2.929   1.540  10.315 -1.3892  1.7011 -1.2670
 6668TIP3   OH220885   3.280   5.813   9.831  0.1138  0.4171  0.0935
 6668TIP3    H120886   3.340   5.848   9.764  0.2269  0.5887  0.2832
 6668TIP3    H220887   3.222   5.886   9.852  1.1456  0.8958  1.4048
 6669TIP3   OH220888   7.787   3.724   2.453  0.1989 -0.2238 -0.0651
 6669TIP3    H120889   7.863   3.685   2.497  0.1250 -2.1111 -1.4642
 6669TIP3    H220890   7.731   3.755   2.524  2.2122  1.1772  1.0072
 6670TIP3   OH220891   7.021   6.881   8.739  0.1350 -0.0543  0.1449
 6670TIP3    H120892   7.044   6.973   8.726  0.0900 -0.0826 -0.1328
 6670TIP3    H220893   7.102   6.841   8.772  0.6096 -0.2304 -1.1777
 6671TIP3   OH220894   0.138   0.560  10.024  0.4824  0.4574  0.1463
 6671TIP3    H120895   0.166   0.496  10.089 -0.3283 -0.9117 -0.8067
 6671TIP3    H220896   0.189   0.539   9.945 -2.9503 -2.1208 -1.6469
 6672TIP3   OH220897   7.195   4.320   2.323  0.5693 -0.6282 -0.2201
 6672TIP3    H120898   7.124   4.256   2.323  0.4406 -0.5013 -1.1970
 6672TIP3    H220899   7.255   4.289   2.391 -0.9639 -0.0902  1.4521
 6673TIP3   OH220900  10.281   9.210   5.651 -0.4724  0.2067  0.1838
 6673TIP3    H120901  10.376   9.217   5.636 -0.2438 -3.2350 -0.7589
 6673TIP3    H220902  10.245   9.286   5.604  1.6870  0.4896 -1.2069
 6674TIP3   OH220903   6.355   5.797  10.461  0.1640  0.1185  0.0702
 6674TIP3    H120904   6.416   5.773  10.531 -1.4014 -1.8619  0.8820
 6674TIP3    H220905   6.337   5.890  10.476  2.6494  0.6803 -0.0095
 6675TIP3   OH220906   4.416   4.767   4.337 -0.1779  0.1340  0.6170
 6675TIP3    H120907   4.402   4.798   4.426  0.6570  1.7958  0.2178
 6675TIP3    H220908   4.415   4.847   4.284  2.9791 -0.3717 -0.3830
 6676TIP3   OH220909  10.587   8.063   2.764  0.6195 -0.1105  0.1495
 6676TIP3    H120910  10.583   8.061   2.860 -2.5269  0.5073  0.1594
 6676TIP3    H220911  10.533   7.988   2.737  0.1354  0.6606 -1.0829
 6677TIP3   OH220912   8.812   8.121   6.974 -0.3481  0.2311 -0.0528
 6677TIP3    H120913   8.894   8.132   7.021 -1.5399 -0.3024  2.3309
 6677TIP3    H220914   8.781   8.034   7.000 -1.8726  0.5872 -0.5450
 6678TIP3   OH220915   5.727   0.700   0.239  0.8375  0.6322 -0.0201
 6678TIP3    H120916   5.792   0.695   0.169  0.8597 -0.8729  0.0838
 6678TIP3    H220917   5.643   0.694   0.194  0.8607 -1.0041  0.0869
 6679TIP3   OH220918   0.990   5.792   4.594 -0.7373 -0.2200  0.2560
 6679TIP3    H120919   1.025   5.715   4.637 -0.5632 -0.4504 -0.2912
 6679TIP3    H220920   1.062   5.855   4.596 -0.3591 -0.6110 -0.6577
 6680TIP3   OH220921   4.375   0.641   9.725 -0.1065 -0.0324 -0.5462
 6680TIP3    H120922   4.399   0.561   9.772 -1.0531  0.5318  0.9817
 6680TIP3    H220923   4.323   0.611   9.651  0.0221 -0.8531 -0.3115
 6681TIP3   OH220924   9.193   6.262  10.239  0.0910  0.4012  0.0745
 6681TIP3    H120925   9.105   6.231  10.258 -0.0973  0.2858 -0.9307
 6681TIP3    H220926   9.197   6.267  10.144  0.8382  1.3678  0.1346
 6682TIP3   OH220927   0.051   5.452   9.364  0.0314 -0.4073  0.0065
 6682TIP3    H120928   0.145   5.468   9.356 -0.0698  0.2298  0.0649
 6682TIP3    H220929   0.016   5.468   9.277 -0.2167  0.7283  0.2975
 6683TIP3   OH220930   2.513   3.965   7.252  0.6070  0.1116  0.7107
 6683TIP3    H120931   2.475   3.911   7.320 -0.1219 -0.1888  0.0818
 6683TIP3    H220932   2.438   4.007   7.209  1.1203  1.1949  0.8286
 6684TIP3   OH220933  10.503   4.831  10.358 -0.0127 -0.0302 -0.8160
 6684TIP3    H120934  10.505   4.736  10.347 -0.7984  0.0663 -1.9799
 6684TIP3    H220935  10.564   4.848  10.430  0.6702 -1.3460 -1.0484
 6685TIP3   OH220936   4.016   5.784   3.770 -0.5676  0.0427  0.1651
 6685TIP3    H120937   3.979   5.872   3.773  0.8690  0.6755  0.0762
 6685TIP3    H220938   3.976   5.744   3.693  0.5608  1.4915 -1.2528
 6686TIP3   OH220939   8.803   3.126   3.862 -0.2516 -0.4342 -0.0324
 6686TIP3    H120940   8.709   3.113   3.879 -0.2682 -1.3671 -0.7732
 6686TIP3    H220941   8.842   3.136   3.949 -1.1455  0.8193  0.2538
 6687TIP3   OH220942   1.884   3.379   8.238 -0.4103  0.3794 -0.0304
 6687TIP3    H120943   1.846   3.393   8.152  0.2710  0.1668 -0.3770
 6687TIP3    H220944   1.911   3.287   8.238  1.4415  0.8799 -0.3671
 6688TIP3   OH220945   0.575   3.615   9.134 -0.0083 -0.0497  0.3627
 6688TIP3    H120946   0.593   3.540   9.190 -0.4567 -0.1733  0.3446
 6688TIP3    H220947   0.510   3.666   9.181  0.1622  0.2357  0.2923
 6689TIP3   OH220948   6.991   5.457   9.768 -0.1274 -0.2121  0.4557
 6689TIP3    H120949   7.019   5.544   9.794  1.6174 -0.8512  0.8827
 6689TIP3    H220950   7.003   5.403   9.847  0.0342 -1.0839 -0.1417
 6690TIP3   OH220951   6.653   8.876   7.001 -0.3478  0.5453  0.2521
 6690TIP3    H120952   6.681   8.900   6.912 -0.8072 -0.6183 -0.2287
 6690TIP3    H220953   6.560   8.899   7.003 -0.4105  0.2777  0.3293
 6691TIP3   OH220954   6.006   6.969   7.340 -0.4473 -0.0400  0.4193
 6691TIP3    H120955   6.095   6.958   7.306 -0.7750  0.2951 -0.5750
 6691TIP3    H220956   6.017   6.971   7.435  0.8041  1.6214  0.2735
 6692TIP3   OH220957   6.986   3.758   1.196  0.1087 -0.2916  0.1670
 6692TIP3    H120958   7.064   3.730   1.147  0.1098 -0.3622  0.2088
 6692TIP3    H220959   7.017   3.769   1.286  0.1304 -0.0562  0.1309
 6693TIP3   OH220960   4.136   4.897   6.761 -0.0898  0.9203  0.4957
 6693TIP3    H120961   4.090   4.878   6.843 -0.6262 -0.4339 -0.0927
 6693TIP3    H220962   4.215   4.843   6.766 -0.6232  0.0299 -0.3031
 6694TIP3   OH220963   4.239   0.984   0.696 -0.1706 -0.1814  0.2968
 6694TIP3    H120964   4.329   1.016   0.691 -0.7907  1.6388  0.1163
 6694TIP3    H220965   4.216   0.993   0.788 -0.8290  1.4093  0.0167
 6695TIP3   OH220966  10.406   2.849   5.204  1.0635  0.4783  0.3509
 6695TIP3    H120967  10.424   2.863   5.111 -1.3384  0.4027 -0.1945
 6695TIP3    H220968  10.361   2.765   5.207 -0.3049  1.2096  1.3559
 6696TIP3   OH220969   9.868   7.709   0.609 -0.3650  0.4514  0.2832
 6696TIP3    H120970   9.951   7.747   0.581 -0.6095  0.3126 -0.6684
 6696TIP3    H220971   9.846   7.647   0.540 -1.3723  0.6628  0.4029
 6697TIP3   OH220972   4.677   2.170   7.718 -1.0390  0.0959 -0.3364
 6697TIP3    H120973   4.738   2.142   7.650  0.3252 -0.6619  1.1314
 6697TIP3    H220974   4.608   2.217   7.671 -1.0752 -1.8855 -2.4325
 6698TIP3   OH220975   0.263   5.296   9.905 -0.2629 -0.0434  0.5441
 6698TIP3    H120976   0.243   5.262   9.817  2.4327 -1.5953  0.4243
 6698TIP3    H220977   0.322   5.369   9.889 -1.3854  1.0227  1.0621
 6699TIP3   OH220978   1.520   1.070   0.476 -0.1488  0.6484  0.0787
 6699TIP3    H120979   1.522   1.106   0.564 -1.7307  0.5361  0.1971
 6699TIP3    H220980   1.436   1.099   0.440 -0.2095 -0.5612 -0.8391
 6700TIP3   OH220981   6.488   7.074   0.983 -0.5423  0.0560 -0.1012
 6700TIP3    H120982   6.406   7.048   1.025 -1.0234  1.1653 -0.3343
 6700TIP3    H220983   6.496   7.015   0.908  0.7117 -2.4784  1.8669
 6701TIP3   OH220984   6.625   0.762   4.314 -0.4511  0.0339  0.3535
 6701TIP3    H120985   6.532   0.787   4.308 -0.1706  1.4858  1.4456
 6701TIP3    H220986   6.672   0.844   4.303  0.6862 -0.5901  0.4749
 6702TIP3   OH220987   9.284   4.312  10.104 -0.0231 -0.1802  0.1468
 6702TIP3    H120988   9.314   4.260  10.179 -0.3380 -0.4266  0.1028
 6702TIP3    H220989   9.244   4.389  10.143  1.8714  0.8399  0.1903
 6703TIP3   OH220990   0.953  10.501   4.507 -0.2753  0.0479 -0.5649
 6703TIP3    H120991   1.042  10.469   4.521  0.3379  1.6634 -0.5264
 6703TIP3    H220992   0.931  10.548   4.588 -0.1531  1.8321 -1.5147
 6704TIP3   OH220993   4.591   3.475   5.392 -0.2305  0.6148  0.1301
 6704TIP3    H120994   4.601   3.379   5.392  0.3260  0.6257 -1.7690
 6704TIP3    H220995   4.496   3.488   5.400 -0.1669  0.0269  2.7398
 6705TIP3   OH220996   9.930   6.048   6.662  0.4545  0.2539 -0.3511
 6705TIP3    H120997   9.946   6.078   6.572  1.3556  0.6073 -0.0844
 6705TIP3    H220998   9.867   5.977   6.653 -2.8936  3.0314 -0.9277
 6706TIP3   OH220999   1.006  10.297   4.288 -0.0859  0.1434  0.2835
 6706TIP3    H121000   1.091  10.325   4.254 -0.0676 -1.0649 -0.7471
 6706TIP3    H221001   0.962  10.378   4.315  1.9726  0.6801  2.3133
 6707TIP3   OH221002   7.005   3.833   5.522  0.4350  0.2395 -0.5857
 6707TIP3    H121003   7.033   3.839   5.614  0.0450 -0.8682 -0.3843
 6707TIP3    H221004   6.939   3.901   5.513 -0.7289 -0.6997  0.4221
 6708TIP3   OH221005   5.425   9.845   2.013  0.2052  0.2393 -0.2530
 6708TIP3    H121006   5.479   9.856   2.091  1.7996  0.2502 -1.3119
 6708TIP3    H221007   5.434   9.928   1.965 -0.0978 -0.0572 -0.8360
 6709TIP3   OH221008   1.496   9.877   7.732  0.6503  0.9711 -1.0536
 6709TIP3    H121009   1.501   9.878   7.637  0.4995 -1.3481 -1.1625
 6709TIP3    H221010   1.580   9.841   7.760  0.3284  0.7055 -0.3950
 6710TIP3   OH221011   2.504   2.410   7.435 -0.4976 -0.1968 -0.3221
 6710TIP3    H121012   2.543   2.337   7.483 -0.1415 -0.0316 -0.3552
 6710TIP3    H221013   2.415   2.381   7.415 -0.2854 -0.7103 -0.5337
 6711TIP3   OH221014   3.522   8.814   9.475  0.2280 -0.0075 -0.0770
 6711TIP3    H121015   3.498   8.904   9.453 -1.7268 -0.0713  1.5074
 6711TIP3    H221016   3.448   8.761   9.445  0.0794 -0.7325  1.4978
 6712TIP3   OH221017   8.001   5.691   4.767  0.6751  0.1726  0.5330
 6712TIP3    H121018   7.952   5.616   4.800  0.3810  0.9468  1.9134
 6712TIP3    H221019   7.947   5.725   4.695  1.7637 -2.0783 -1.4972
 6713TIP3   OH221020   4.084   8.383  10.298  0.4135 -0.0682 -0.1514
 6713TIP3    H121021   4.071   8.428  10.381 -1.3197 -0.3184 -0.2424
 6713TIP3    H221022   4.156   8.322  10.314 -1.3359 -1.7746  1.9327
 6714TIP3   OH221023   1.266  10.321   8.903  0.0919  0.5205 -0.0127
 6714TIP3    H121024   1.286  10.270   8.982  0.5504  1.8243  0.7395
 6714TIP3    H221025   1.171  10.315   8.895  0.0066  0.6014  0.8047
 6715TIP3   OH221026   1.575   4.202   1.558 -1.0346 -0.4670  0.1993
 6715TIP3    H121027   1.637   4.144   1.515 -1.4917 -1.0572  0.3217
 6715TIP3    H221028   1.615   4.289   1.552 -0.2218 -0.8302  0.2441
 6716TIP3   OH221029   8.384   6.983   3.855 -0.5663  0.6328  0.4411
 6716TIP3    H121030   8.345   7.030   3.781 -2.6905 -1.9220 -0.1942
 6716TIP3    H221031   8.328   7.005   3.930 -0.8713  0.0212  0.3919
 6717TIP3   OH221032   6.400   5.489   3.078  0.1150 -0.1635 -0.2493
 6717TIP3    H121033   6.404   5.525   3.166 -0.1464  3.0754 -1.4332
 6717TIP3    H221034   6.483   5.443   3.067  0.4804  0.0376  1.3838
 6718TIP3   OH221035   5.833   8.468   5.226  0.5961 -0.3548 -0.3271
 6718TIP3    H121036   5.857   8.554   5.261  0.2478 -0.8900  1.3214
 6718TIP3    H221037   5.853   8.407   5.297 -0.5072 -1.4578 -0.9333
 6719TIP3   OH221038   2.221   3.059   3.200  0.0984 -0.2872  0.0217
 6719TIP3    H121039   2.225   3.154   3.200 -2.2338 -0.1336  0.4279
 6719TIP3    H221040   2.219   3.034   3.292  0.4521 -0.7423 -0.0846
 6720TIP3   OH221041   1.978   3.449   6.965 -0.4518 -0.2891  0.2062
 6720TIP3    H121042   1.915   3.394   6.919  0.3938  0.2767 -1.7370
 6720TIP3    H221043   1.954   3.441   7.057 -1.8048 -2.0193 -0.2417
 6721TIP3   OH221044   6.598   5.398   1.463  0.5320 -0.2608 -0.2283
 6721TIP3    H121045   6.650   5.360   1.533  2.1481  1.9986 -0.0753
 6721TIP3    H221046   6.510   5.362   1.475  0.7759 -0.0721  2.8725
 6722TIP3   OH221047   6.762   4.403   9.682  0.2770  0.1547 -0.1943
 6722TIP3    H121048   6.687   4.367   9.635 -0.3767 -0.9666  1.6031
 6722TIP3    H221049   6.805   4.327   9.722  2.3767  0.7700 -1.0947
 6723TIP3   OH221050   1.546   8.591  10.716  0.4430  0.2461  0.5110
 6723TIP3    H121051   1.527   8.578  10.809 -1.3168 -1.9656 -0.0744
 6723TIP3    H221052   1.518   8.510  10.674 -0.4814  1.8220 -2.1871
 6724TIP3   OH221053   8.299   3.976   0.158  0.5045 -0.5398 -0.5958
 6724TIP3    H121054   8.263   4.047   0.212  2.2529 -1.5803  2.1151
 6724TIP3    H221055   8.368   4.018   0.107  0.2256  0.0600 -0.4966
 6725TIP3   OH221056   9.943   3.976   4.020 -0.4695  0.1315  0.6123
 6725TIP3    H121057   9.861   3.993   3.974  0.4637  3.2757 -0.0972
 6725TIP3    H221058   9.948   4.044   4.087  0.9717 -0.8405  1.5554
 6726TIP3   OH221059   1.233   2.328   7.129  0.8120 -0.0399  0.1663
 6726TIP3    H121060   1.294   2.382   7.178 -1.6359  1.8548  1.3352
 6726TIP3    H221061   1.281   2.301   7.051  3.6925 -0.2365  1.8838
 6727TIP3   OH221062   2.760   4.293   4.438 -0.7941  0.2164  0.3075
 6727TIP3    H121063   2.665   4.301   4.444 -0.6069  1.6012  2.1255
 6727TIP3    H221064   2.793   4.327   4.521  1.4194  2.1343 -1.2234
 6728TIP3   OH221065  10.670   2.829   9.834 -0.0183 -0.4802  0.1412
 6728TIP3    H121066  10.648   2.912   9.792  0.8480 -1.1685 -1.7828
 6728TIP3    H221067  10.613   2.764   9.792 -1.4135 -0.7739  2.3306
 6729TIP3   OH221068   0.725   6.319   1.528 -1.0130  0.1372 -0.3929
 6729TIP3    H121069   0.759   6.230   1.523  1.5878  1.0689 -0.9258
 6729TIP3    H221070   0.631   6.310   1.514 -0.5493 -2.2959 -2.6501
 6730TIP3   OH221071   1.937   2.675   7.009 -0.2966  0.0609  0.0170
 6730TIP3    H121072   1.944   2.698   7.101 -0.4894  0.1915 -0.0011
 6730TIP3    H221073   1.847   2.697   6.985 -0.2659 -0.0303 -0.1861
 6731TIP3   OH221074   4.496   0.988   5.210 -0.0824 -0.0048  0.6102
 6731TIP3    H121075   4.483   0.930   5.135  0.0660  1.0232 -0.2432
 6731TIP3    H221076   4.499   1.076   5.172 -1.3088  0.6739  1.9507
 6732TIP3   OH221077   0.558   6.185   8.992  0.8896  0.3461 -0.0420
 6732TIP3    H121078   0.631   6.213   8.937  2.0224  0.8030  1.6166
 6732TIP3    H221079   0.560   6.245   9.067 -0.4625 -0.3703  0.6063
 6733TIP3   OH221080  10.675   0.816   5.476 -0.1230  0.1409 -0.5289
 6733TIP3    H121081  10.618   0.888   5.502 -0.2183 -0.2507  0.3861
 6733TIP3    H221082  10.658   0.748   5.541  1.4224  0.0308 -0.2057
 6734TIP3   OH221083   4.567   4.646   5.218  0.7290 -0.4647 -0.6597
 6734TIP3    H121084   4.476   4.623   5.237  0.1877  0.7188 -1.7066
 6734TIP3    H221085   4.609   4.562   5.199 -0.0709 -1.0505  0.0750
 6735TIP3   OH221086   4.424   0.038   2.215 -0.0567 -0.1411  0.7236
 6735TIP3    H121087   4.368   0.096   2.267 -0.7464 -0.5531  0.4548
 6735TIP3    H221088   4.496   0.093   2.185 -2.2388  1.4160 -2.1075
 6736TIP3   OH221089   1.412   2.652   8.825  0.0995 -0.2731  0.6984
 6736TIP3    H121090   1.477   2.649   8.896  1.0583 -1.5807 -0.2001
 6736TIP3    H221091   1.461   2.683   8.749 -0.7878  0.5441  0.4372
 6737TIP3   OH221092   2.623   6.972   6.998 -0.0864 -0.2809  0.1353
 6737TIP3    H121093   2.658   6.937   7.080 -0.8317  1.6750  1.3396
 6737TIP3    H221094   2.532   6.942   6.997  0.0894 -0.8113 -0.2936
 6738TIP3   OH221095   7.852   2.228  10.458 -0.4580 -0.0197  0.1493
 6738TIP3    H121096   7.898   2.209  10.376 -1.5032  1.8482 -0.9390
 6738TIP3    H221097   7.773   2.174  10.454 -1.2138  1.1266 -0.7821
 6739TIP3   OH221098   5.683   9.674   7.216 -0.4101 -0.0948 -0.3355
 6739TIP3    H121099   5.606   9.630   7.181  0.8808 -2.1757 -0.7266
 6739TIP3    H221100   5.666   9.682   7.310 -1.2642 -0.1206 -0.4796
 6740TIP3   OH221101   4.700   9.086   2.419  0.0956  0.9091  0.3259
 6740TIP3    H121102   4.775   9.117   2.470  0.5329  1.5661 -0.6746
 6740TIP3    H221103   4.726   9.100   2.328 -0.5377 -0.5326 -0.1042
 6741TIP3   OH221104   5.598   6.655   7.297 -0.1924  0.5003  0.4130
 6741TIP3    H121105   5.565   6.742   7.319  0.3467  0.7115  0.3827
 6741TIP3    H221106   5.537   6.623   7.230  0.3499  1.3815 -0.5365
 6742TIP3   OH221107   9.234   0.043   2.386  0.1364 -0.4362  0.4127
 6742TIP3    H121108   9.163   0.065   2.447  0.7900  0.8950  0.7152
 6742TIP3    H221109   9.314   0.056   2.437  0.6509 -0.3251 -0.4169
 6743TIP3   OH221110   3.839   3.978   3.446 -0.2660 -0.2853  0.4467
 6743TIP3    H121111   3.800   4.041   3.506  1.1396 -1.7483  3.0930
 6743TIP3    H221112   3.911   4.024   3.404 -0.2590  0.3221  1.1220
 6744TIP3   OH221113   1.680   9.554   5.553 -0.4883 -0.2372  0.4465
 6744TIP3    H121114   1.670   9.601   5.471 -0.4567 -0.2374  0.4423
 6744TIP3    H221115   1.616   9.483   5.549  0.3242 -0.9779 -0.1120
 6745TIP3   OH221116   7.244   8.216   7.332 -0.0201 -0.0558  0.2501
 6745TIP3    H121117   7.292   8.144   7.291  0.7933 -0.1387  1.2736
 6745TIP3    H221118   7.258   8.290   7.274 -0.5415 -0.6158 -0.6184
 6746TIP3   OH221119   0.162  10.299   6.196 -1.0249 -0.0030 -0.5646
 6746TIP3    H121120   0.196  10.299   6.106 -1.4058  0.5953 -0.7059
 6746TIP3    H221121   0.103  10.224   6.199 -0.5694 -0.3719 -0.6431
 6747TIP3   OH221122   4.378   8.954   8.227  0.4116 -0.1241  0.0833
 6747TIP3    H121123   4.455   8.949   8.170  1.4203  0.3728  1.3583
 6747TIP3    H221124   4.412   8.983   8.312 -1.2234  0.3773  0.6117
 6748TIP3   OH221125   3.139   5.082   7.578 -0.3388 -0.0494 -0.0203
 6748TIP3    H121126   3.113   5.174   7.565 -0.7179 -0.2022 -0.3586
 6748TIP3    H221127   3.173   5.055   7.492 -0.1982 -0.2194  0.0890
 6749TIP3   OH221128   6.586   6.174   2.610  0.3229 -0.1859  0.2480
 6749TIP3    H121129   6.658   6.185   2.672  0.3299  0.0400  0.2010
 6749TIP3    H221130   6.548   6.262   2.602  0.0962 -0.2866  0.2087
 6750TIP3   OH221131   5.877   0.636  10.185  0.2104 -0.5693 -0.2154
 6750TIP3    H121132   5.887   0.586  10.266  0.7772  0.9523  0.7213
 6750TIP3    H221133   5.907   0.724  10.209  0.0310  0.0071 -1.9948
 6751TIP3   OH221134   0.021   2.721   7.516 -0.7568 -0.2441 -0.3364
 6751TIP3    H121135  -0.004   2.655   7.581  0.5222 -1.1411 -0.7145
 6751TIP3    H221136   0.053   2.795   7.567 -3.1377  0.5554  0.1276
 6752TIP3   OH221137   4.632   5.139   6.759 -0.3788  0.0011  0.2602
 6752TIP3    H121138   4.666   5.228   6.752 -0.9848  0.1507 -1.1527
 6752TIP3    H221139   4.547   5.148   6.800 -0.4109  0.0655  0.1799
 6753TIP3   OH221140   2.805   0.989   8.803 -0.4118  0.4337 -0.0157
 6753TIP3    H121141   2.793   1.029   8.890 -0.0330  0.4329  0.0359
 6753TIP3    H221142   2.799   1.062   8.742 -0.7564  0.4243  0.0009
 6754TIP3   OH221143   0.470   4.315   7.059  0.0359 -0.7695 -0.2077
 6754TIP3    H121144   0.485   4.373   6.984  0.9854 -1.6241 -0.6911
 6754TIP3    H221145   0.390   4.267   7.037 -1.2716  0.9103  0.5788
 6755TIP3   OH221146   4.105   4.634   5.472 -0.0154  0.4103  0.4231
 6755TIP3    H121147   4.092   4.700   5.540 -0.8028 -0.7325  1.4204
 6755TIP3    H221148   4.130   4.554   5.520  2.0190  0.2219 -0.8158
 6756TIP3   OH221149   2.547   9.869   8.522  0.1936  0.0241 -0.4321
 6756TIP3    H121150   2.588   9.844   8.605  0.7008  1.0521 -0.3533
 6756TIP3    H221151   2.558   9.793   8.465  0.4333 -0.4456  0.2266
 6757TIP3   OH221152   9.237   6.905   6.509 -0.0869  0.1818  0.5545
 6757TIP3    H121153   9.271   6.822   6.542  0.5509  0.2589  0.0976
 6757TIP3    H221154   9.310   6.945   6.462 -1.1420 -0.2450 -1.5619
 6758TIP3   OH221155   2.998   4.315   5.536 -0.4657 -0.0733  0.1050
 6758TIP3    H121156   2.919   4.261   5.535 -0.3532 -0.2882 -2.6243
 6758TIP3    H221157   2.976   4.391   5.482  0.1285  1.5694  2.0474
 6759TIP3   OH221158   8.388   9.374   6.967 -0.1678 -0.2286 -0.4079
 6759TIP3    H121159   8.418   9.377   6.876 -1.7325 -1.3278 -1.0069
 6759TIP3    H221160   8.348   9.460   6.981 -0.8461 -0.4090 -1.1312
 6760TIP3   OH221161   3.426   6.664   3.114  0.2027  0.1146 -0.5224
 6760TIP3    H121162   3.391   6.619   3.190 -0.9274 -0.5298 -1.3881
 6760TIP3    H221163   3.493   6.722   3.149  0.4645 -0.9462  0.8294
 6761TIP3   OH221164   7.359   3.018   7.518  0.2896  0.3580  0.2411
 6761TIP3    H121165   7.328   2.935   7.483  1.7182 -0.5076  0.9365
 6761TIP3    H221166   7.449   3.001   7.544  1.0901  2.5089 -0.8701
 6762TIP3   OH221167   1.812   9.701   6.828 -0.7072  0.8783  0.1419
 6762TIP3    H121168   1.832   9.607   6.827  2.0122  1.4063 -0.5455
 6762TIP3    H221169   1.772   9.718   6.743 -1.7268  0.2977  0.4771
 6763TIP3   OH221170  10.201   6.114   1.359 -0.5197  0.5536  0.1955
 6763TIP3    H121171  10.166   6.106   1.447  0.4592  0.4060  0.5794
 6763TIP3    H221172  10.186   6.029   1.318 -1.5289  0.8147  0.0017
 6764TIP3   OH221173   4.625   8.849   7.606  0.0402 -0.6832 -0.2181
 6764TIP3    H121174   4.593   8.837   7.516 -0.6290  2.8387 -0.5951
 6764TIP3    H221175   4.703   8.905   7.596 -0.1684 -0.0662  1.3776
 6765TIP3   OH221176   9.017   4.099   9.548 -0.3738  0.2767 -0.0459
 6765TIP3    H121177   8.990   4.103   9.456 -1.6320  0.0565  0.2983
 6765TIP3    H221178   8.935   4.095   9.597  0.2682  1.0125  1.1315
 6766TIP3   OH221179   6.119   6.911   5.672 -0.4607  0.3089 -0.8693
 6766TIP3    H121180   6.183   6.867   5.728 -1.4171  0.6093  0.5192
 6766TIP3    H221181   6.172   6.955   5.605  0.9270  1.5897  0.9471
 6767TIP3   OH221182   5.638   0.356   0.574  0.1856 -1.0748  0.6514
 6767TIP3    H121183   5.553   0.318   0.594 -1.0573  1.4247  0.4454
 6767TIP3    H221184   5.637   0.442   0.616  1.4800  0.1601 -1.6131
 6768TIP3   OH221185   5.303   1.120   6.828 -0.2861  0.2009 -0.1064
 6768TIP3    H121186   5.230   1.155   6.879 -1.1994 -1.5635 -0.1502
 6768TIP3    H221187   5.358   1.075   6.891 -0.2352 -0.0903 -0.3573
 6769TIP3   OH221188   9.383   9.308   1.004 -0.3557 -0.0045  0.4134
 6769TIP3    H121189   9.368   9.318   1.098  1.5280  0.5438  0.6825
 6769TIP3    H221190   9.404   9.216   0.992  2.4661  0.4773  1.0553
 6770TIP3   OH221191  10.542   5.566   7.600 -0.1069  0.4533 -0.2436
 6770TIP3    H121192  10.497   5.516   7.667  0.4706  0.7238  0.3600
 6770TIP3    H221193  10.594   5.630   7.649  1.4393 -0.2728 -0.8722
 6771TIP3   OH221194   3.175   6.345   6.064  0.1521  0.6835 -0.0978
 6771TIP3    H121195   3.222   6.404   6.124 -0.1035 -0.2991  1.1097
 6771TIP3    H221196   3.125   6.288   6.121 -0.1298 -0.2804 -1.2696
 6772TIP3   OH221197   6.117   4.207   1.842  0.0772 -0.1594  0.0193
 6772TIP3    H121198   6.148   4.243   1.925 -1.1996 -0.2667  0.5482
 6772TIP3    H221199   6.198   4.183   1.796  0.7885 -2.0801  2.0928
 6773TIP3   OH221200   4.558   8.303   4.701  0.2141 -0.4886  0.0363
 6773TIP3    H121201   4.479   8.286   4.650  0.6933  1.3697 -1.4335
 6773TIP3    H221202   4.618   8.346   4.639  1.0118  1.4634  2.0173
 6774TIP3   OH221203   9.148   6.487   7.731  0.5827 -0.6395  0.9242
 6774TIP3    H121204   9.183   6.522   7.814  0.1276 -1.4506  1.4692
 6774TIP3    H221205   9.224   6.446   7.689  0.9780  0.3949  0.5796
 6775TIP3   OH221206   1.496  10.754   8.416 -0.0245 -1.0507  0.4463
 6775TIP3    H121207   1.540  10.765   8.331 -1.0786 -0.2709 -0.0165
 6775TIP3    H221208   1.504  10.839   8.459  0.4814 -1.4347  1.1270
 6776TIP3   OH221209   1.526   8.425   0.775 -0.4897 -0.2167  0.0315
 6776TIP3    H121210   1.501   8.498   0.718  0.7539  0.2627  0.0832
 6776TIP3    H221211   1.596   8.460   0.830  1.2359 -1.8709 -0.9965
 6777TIP3   OH221212   2.975   4.822  10.180 -0.7376  0.3803  0.2425
 6777TIP3    H121213   2.967   4.833  10.085 -0.1397  1.1236  0.2726
 6777TIP3    H221214   2.946   4.732  10.196  2.5043 -1.0304 -1.0714
 6778TIP3   OH221215   4.472   2.857   4.309 -0.0018  0.1180 -0.4261
 6778TIP3    H121216   4.505   2.908   4.234 -0.7213 -1.4851 -1.9072
 6778TIP3    H221217   4.535   2.785   4.318 -1.6067 -1.5532 -1.6794
 6779TIP3   OH221218  10.036   8.640  10.763  0.0162 -0.1274 -0.3734
 6779TIP3    H121219  10.047   8.708  10.830  1.8736 -1.9024  1.2283
 6779TIP3    H221220   9.985   8.683  10.693  0.0223  2.4824  1.1235
 6780TIP3   OH221221   1.144   4.495   2.958 -0.1727 -0.5668  0.4313
 6780TIP3    H121222   1.160   4.586   2.982 -0.7034 -0.3827  0.0927
 6780TIP3    H221223   1.109   4.499   2.869  0.4723 -1.1485  0.1387
 6781TIP3   OH221224   3.457   3.528   4.366  0.1135 -0.1537 -0.3915
 6781TIP3    H121225   3.538   3.477   4.366 -0.3901 -0.9812  0.3159
 6781TIP3    H221226   3.390   3.467   4.399 -0.6484  0.7431 -0.2360
 6782TIP3   OH221227   2.178   1.489   3.822  0.2338 -0.0096  0.5306
 6782TIP3    H121228   2.172   1.575   3.864 -0.6647 -0.3988  1.2245
 6782TIP3    H221229   2.088   1.459   3.816  0.5116 -0.7285 -0.0923
 6783TIP3   OH221230   6.346  10.401   8.176  0.2369  0.9181 -0.3918
 6783TIP3    H121231   6.290  10.458   8.228 -0.9669  0.9957 -1.7263
 6783TIP3    H221232   6.340  10.435   8.087  0.2883 -0.6659 -1.0327
 6784TIP3   OH221233  10.393   7.533   6.250 -0.2649  0.1747  0.1889
 6784TIP3    H121234  10.372   7.440   6.241  0.9967 -0.0390 -0.8610
 6784TIP3    H221235  10.484   7.540   6.222  0.1638  1.4949  1.7394
 6785TIP3   OH221236   9.643   9.486   3.095 -0.1286  0.0406  0.8918
 6785TIP3    H121237   9.604   9.564   3.055 -0.4401 -0.7904 -0.5298
 6785TIP3    H221238   9.736   9.495   3.077 -0.3785 -0.9208 -1.2859
 6786TIP3   OH221239  10.541   1.270   8.372 -0.2535  0.2157 -0.0280
 6786TIP3    H121240  10.566   1.331   8.442  0.9986  1.2547 -1.3229
 6786TIP3    H221241  10.481   1.321   8.317 -0.3213 -0.2042 -0.3424
 6787TIP3   OH221242   2.050   1.992   6.277  0.2059  0.6541  0.0238
 6787TIP3    H121243   2.110   1.934   6.230  0.5045 -0.0764  1.2674
 6787TIP3    H221244   2.022   2.056   6.211  0.4391 -0.4561 -1.1904
 6788TIP3   OH221245   9.828   6.894   4.677  0.0571  0.4584 -0.3795
 6788TIP3    H121246   9.746   6.844   4.683 -0.0612  0.7237  0.3184
 6788TIP3    H221247   9.890   6.831   4.641 -0.0148 -0.3209  0.7689
 6789TIP3   OH221248   0.502   1.150   1.129  0.1513  0.4485  0.0626
 6789TIP3    H121249   0.564   1.079   1.145  1.1638  1.2524 -0.1245
 6789TIP3    H221250   0.470   1.135   1.040 -0.4873 -0.3687  0.4134
 6790TIP3   OH221251   5.806   7.496   6.493 -0.2693 -0.0137 -0.0277
 6790TIP3    H121252   5.745   7.444   6.440 -0.9502 -0.1259  0.8437
 6790TIP3    H221253   5.892   7.458   6.476 -0.7656 -1.5202  0.6935
 6791TIP3   OH221254   2.388   3.181   8.033 -0.5655 -0.3647 -0.2673
 6791TIP3    H121255   2.483   3.171   8.024 -0.6703 -1.7775 -0.0688
 6791TIP3    H221256   2.355   3.091   8.039 -1.9209  0.1056 -0.3382
 6792TIP3   OH221257   7.022   0.582   4.419 -0.4035 -0.5200 -0.1332
 6792TIP3    H121258   7.008   0.676   4.426 -0.4318 -0.5651  0.5227
 6792TIP3    H221259   6.935   0.545   4.403 -0.6794 -0.5775  1.3567
 6793TIP3   OH221260   5.805   9.690   0.812 -0.2217 -0.0958 -0.8171
 6793TIP3    H121261   5.781   9.778   0.784  1.7883  0.6009 -0.4608
 6793TIP3    H221262   5.876   9.703   0.875 -0.0125 -1.9608 -0.6154
 6794TIP3   OH221263   3.158   3.590   3.418  0.0902  0.2989 -0.4482
 6794TIP3    H121264   3.151   3.583   3.513 -0.2528 -2.7764 -0.6016
 6794TIP3    H221265   3.218   3.663   3.404 -0.8747  1.7093  2.0380
 6795TIP3   OH221266   2.815  10.860   2.008 -0.3293 -0.1227  0.5670
 6795TIP3    H121267   2.786  10.891   1.922 -1.3022 -0.1062  0.8894
 6795TIP3    H221268   2.786  10.769   2.012  1.1788 -0.6444  0.2328
 6796TIP3   OH221269   7.733   2.571   2.302 -0.2463  0.1075  0.5872
 6796TIP3    H121270   7.773   2.496   2.256  0.5086  0.5395  0.5202
 6796TIP3    H221271   7.640   2.549   2.307  0.0290 -1.0472  0.9583
 6797TIP3   OH221272  10.327   2.617   0.740  0.4877  0.2526  0.5902
 6797TIP3    H121273  10.334   2.613   0.835 -1.5282 -1.5874  0.7132
 6797TIP3    H221274  10.272   2.542   0.716  2.3339 -0.3539 -2.1928
 6798TIP3   OH221275   4.907   2.371   4.367 -0.4044 -0.0536 -0.5185
 6798TIP3    H121276   4.929   2.378   4.460  0.2429  1.0085 -0.7339
 6798TIP3    H221277   4.818   2.336   4.365 -0.5582  0.2622  0.5085
 6799TIP3   OH221278   1.660   2.724   7.011  0.3063 -0.2041 -0.1688
 6799TIP3    H121279   1.629   2.758   6.927 -2.0393 -0.9469  0.3148
 6799TIP3    H221280   1.630   2.789   7.075  0.8985 -0.3059  0.2149
 6800TIP3   OH221281   7.121   1.626   5.927  0.4052  0.8457 -0.7408
 6800TIP3    H121282   7.213   1.623   5.953  0.4795 -1.7676 -0.9874
 6800TIP3    H221283   7.076   1.574   5.993 -0.8824  1.8728 -0.7739
 6801TIP3   OH221284   0.318   9.947   1.732 -0.0246 -0.0479 -0.7127
 6801TIP3    H121285   0.300   9.969   1.823  1.6007 -0.3662 -0.2810
 6801TIP3    H221286   0.385   9.879   1.736  1.2116  0.9955 -2.1297
 6802TIP3   OH221287   3.302   9.892   6.510  0.2070 -0.4350  0.7093
 6802TIP3    H121288   3.209   9.871   6.514  0.2442 -0.6302  0.5789
 6802TIP3    H221289   3.341   9.820   6.460 -0.0142  1.1841 -1.9937
 6803TIP3   OH221290   7.693   8.865   9.846 -0.3461 -0.2087 -0.3984
 6803TIP3    H121291   7.781   8.836   9.868 -1.1205 -1.3285  1.4791
 6803TIP3    H221292   7.690   8.957   9.873  0.1134 -0.3033 -0.0186
 6804TIP3   OH221293   1.990   7.149   9.033 -0.0644 -0.5361  0.2100
 6804TIP3    H121294   1.934   7.218   8.997  0.8727  1.0635  1.7185
 6804TIP3    H221295   1.990   7.164   9.127  1.7653 -1.3802  0.3887
 6805TIP3   OH221296   1.057   2.341   8.836 -0.6400 -0.0690 -0.2105
 6805TIP3    H121297   1.031   2.259   8.795  0.2780  0.5130 -2.0664
 6805TIP3    H221298   1.144   2.324   8.872 -1.8278 -0.8721  2.5454
 6806TIP3   OH221299  10.496   7.797   2.110  0.4385  0.3237  0.5583
 6806TIP3    H121300  10.538   7.802   2.025  0.2775 -0.4288  0.4230
 6806TIP3    H221301  10.556   7.842   2.170  0.8056  0.3926  0.1403
 6807TIP3   OH221302   4.871   3.747   1.920 -0.8149 -0.2112  0.2637
 6807TIP3    H121303   4.792   3.738   1.973 -1.5990 -0.0314 -0.8339
 6807TIP3    H221304   4.865   3.836   1.884  0.4141  0.1808  0.9712
 6808TIP3   OH221305   5.447   3.905  10.145  0.1371  0.2747  0.4486
 6808TIP3    H121306   5.361   3.881  10.178 -0.0498  0.3962  0.0624
 6808TIP3    H221307   5.430   3.977  10.085  0.5570  0.5742  0.6860
 6809TIP3   OH221308  10.515   9.413   6.053  0.7907  0.1554  0.1872
 6809TIP3    H121309  10.425   9.391   6.077  1.0623 -0.0095  1.1029
 6809TIP3    H221310  10.567   9.384   6.128  1.5234  0.9352 -0.0043
 6810TIP3   OH221311  10.595   9.791   3.612  0.1401  0.2541 -0.9726
 6810TIP3    H121312  10.528   9.778   3.679  2.0382 -1.7443  0.7105
 6810TIP3    H221313  10.581   9.720   3.550  0.7303 -0.2492 -0.5452
 6811TIP3   OH221314   6.429   2.054   3.098  0.5946 -0.3269 -0.2080
 6811TIP3    H121315   6.343   2.064   3.056  1.0222  0.4128 -0.9476
 6811TIP3    H221316   6.492   2.066   3.026  1.3134 -1.0240  0.2968
 6812TIP3   OH221317   2.596   7.870   1.185 -0.2204 -0.2260  0.0719
 6812TIP3    H121318   2.641   7.863   1.269  0.3207 -0.7207 -0.2571
 6812TIP3    H221319   2.591   7.964   1.169 -0.5475 -0.1187  0.7743
 6813TIP3   OH221320   2.028   9.701   9.744  0.1136  0.3344 -0.1479
 6813TIP3    H121321   2.121   9.681   9.739 -0.0715 -0.6425  0.0953
 6813TIP3    H221322   2.001   9.671   9.831 -0.1878  1.7354  0.2744
 6814TIP3   OH221323   6.385  10.830   1.196  0.1740 -0.2407 -0.1656
 6814TIP3    H121324   6.394  10.924   1.180  2.0683 -0.3506  0.0683
 6814TIP3    H221325   6.401  10.789   1.112 -0.8917 -0.3662 -0.3208
 6815TIP3   OH221326   5.570   9.837  10.064  0.8331 -0.5238  0.4516
 6815TIP3    H121327   5.493   9.819  10.010  1.5888 -1.4840 -0.3285
 6815TIP3    H221328   5.548   9.918  10.110  0.3824  0.6604 -1.7278
 6816TIP3   OH221329   6.909   1.379   6.868 -0.2517  0.3540  0.5962
 6816TIP3    H121330   7.000   1.399   6.845 -0.1278 -2.1339 -1.5337
 6816TIP3    H221331   6.914   1.295   6.914 -1.4809 -0.1077 -0.0676
 6817TIP3   OH221332   6.185   8.550   1.784 -0.0274 -0.2296  0.1561
 6817TIP3    H121333   6.158   8.642   1.777 -0.9390 -0.3528  1.6986
 6817TIP3    H221334   6.281   8.553   1.783  0.0307  0.4461 -2.6709
 6818TIP3   OH221335   0.486   5.820   1.138 -0.3249 -0.0207 -0.0843
 6818TIP3    H121336   0.529   5.846   1.219  1.5972  0.7365 -1.2729
 6818TIP3    H221337   0.406   5.873   1.136 -0.0733  0.4318  0.9957
 6819TIP3   OH221338   9.288   5.096   2.974 -0.2788 -0.5519  0.1888
 6819TIP3    H121339   9.307   5.185   2.947 -0.0006 -1.3574 -2.4947
 6819TIP3    H221340   9.362   5.071   3.029 -0.7144  1.0511  1.6108
 6820TIP3   OH221341   7.358   0.807   0.333 -0.0642  0.2672 -0.3398
 6820TIP3    H121342   7.337   0.714   0.340 -0.2396  0.0502 -2.8204
 6820TIP3    H221343   7.323   0.846   0.414 -1.9135 -1.4902 -0.2165
 6821TIP3   OH221344   1.745   4.195   6.002  0.1820 -0.4908  0.2968
 6821TIP3    H121345   1.690   4.136   6.053 -1.1115 -2.4921 -3.0865
 6821TIP3    H221346   1.691   4.272   5.987 -0.3468 -0.9240 -0.0402
 6822TIP3   OH221347  10.075   2.514  10.450 -0.7581 -0.0292 -0.3221
 6822TIP3    H121348  10.066   2.462  10.530 -0.8656  0.4765 -0.0012
 6822TIP3    H221349  10.106   2.452  10.384 -0.5266 -0.4207  0.1489
 6823TIP3   OH221350   9.846   9.763   0.799 -0.0553 -0.1727 -0.0340
 6823TIP3    H121351   9.913   9.820   0.837  0.5088 -0.2013 -0.9478
 6823TIP3    H221352   9.810   9.714   0.873  2.4630 -1.7794  0.2477
 6824TIP3   OH221353   2.384   9.623   0.365 -0.0650  0.6182  0.4364
 6824TIP3    H121354   2.368   9.710   0.328 -2.0968  0.1232  0.0433
 6824TIP3    H221355   2.476   9.625   0.392  0.4948  2.2048 -1.3879
 6825TIP3   OH221356   7.261   2.056   3.066 -0.4190 -0.0442 -0.6106
 6825TIP3    H121357   7.205   2.011   3.129  0.0377  0.8551  0.4710
 6825TIP3    H221358   7.348   2.056   3.106 -0.0761  0.3583 -1.3311
 6826TIP3   OH221359   2.828   4.629   0.068 -0.5236  0.1936 -0.0249
 6826TIP3    H121360   2.790   4.715   0.085 -0.3325  0.3904 -0.5969
 6826TIP3    H221361   2.837   4.624  -0.027 -2.4031 -1.2437 -0.1876
 6827TIP3   OH221362   4.443   6.251   4.478  0.2402  0.0713  0.3915
 6827TIP3    H121363   4.499   6.200   4.536  0.0551 -1.1573 -0.4510
 6827TIP3    H221364   4.399   6.314   4.535  1.3465  0.0586  1.2926
 6828TIP3   OH221365   4.237   2.597   1.219  0.6496 -0.7903 -0.2318
 6828TIP3    H121366   4.300   2.543   1.172  1.1075  1.2813 -2.1822
 6828TIP3    H221367   4.238   2.681   1.173  0.5177  1.1730  3.0550
 6829TIP3   OH221368   1.803   8.514   0.052 -0.2586 -0.4466 -0.0123
 6829TIP3    H121369   1.746   8.533  -0.022 -0.5977 -2.2326 -0.2585
 6829TIP3    H221370   1.890   8.542   0.024 -0.9591  2.4812  0.4355
 6830TIP3   OH221371  10.855   6.134   7.009 -0.4446 -0.4531  0.0788
 6830TIP3    H121372  10.907   6.063   7.045 -1.6703 -1.5052 -0.1281
 6830TIP3    H221373  10.774   6.133   7.060 -0.4121  0.9372  0.1960
 6831TIP3   OH221374   0.269   1.160   6.089  0.3320  0.0704 -0.3666
 6831TIP3    H121375   0.316   1.206   6.021 -0.4839  0.8304 -0.4327
 6831TIP3    H221376   0.176   1.178   6.072  0.1189  0.6774  1.1991
 6832TIP3   OH221377   3.533   9.846   8.116 -0.1258 -0.3083 -0.4456
 6832TIP3    H121378   3.560   9.835   8.025 -0.9445 -0.2481 -0.6991
 6832TIP3    H221379   3.605   9.894   8.157 -0.9426  2.1601 -1.7293
 6833TIP3   OH221380   1.330   4.840   6.377 -0.3742  0.9571 -0.1641
 6833TIP3    H121381   1.260   4.903   6.361 -1.0626  0.0699 -0.7571
 6833TIP3    H221382   1.401   4.868   6.320 -1.3252  0.1916 -1.7940
 6834TIP3   OH221383   8.172   0.193   9.376  0.6358 -0.2909  0.2321
 6834TIP3    H121384   8.106   0.129   9.351  1.7167 -1.8019  1.0766
 6834TIP3    H221385   8.125   0.276   9.379 -0.8921 -1.0879 -0.5460
 6835TIP3   OH221386  10.309   6.661   8.571  0.4051 -0.7762 -0.0024
 6835TIP3    H121387  10.346   6.573   8.570 -0.8994 -1.3645  0.6142
 6835TIP3    H221388  10.249   6.661   8.646  0.5358  0.7099  0.1379
 6836TIP3   OH221389   1.938   8.319   7.213  0.3771 -0.2052 -0.2879
 6836TIP3    H121390   1.890   8.251   7.164  1.0987 -0.7745 -0.2156
 6836TIP3    H221391   1.954   8.387   7.148 -0.2291 -0.1576 -0.3974
 6837TIP3   OH221392   2.544   1.742   5.316  0.3328 -0.3215 -0.2853
 6837TIP3    H121393   2.521   1.821   5.268 -2.3999 -0.6859  0.2366
 6837TIP3    H221394   2.545   1.673   5.250  0.0561 -0.2557 -0.3605
 6838TIP3   OH221395   5.870   1.098   7.907 -0.2277 -0.4074 -0.4767
 6838TIP3    H121396   5.781   1.109   7.940  0.3446  2.2838  0.4558
 6838TIP3    H221397   5.870   1.143   7.823  0.2466 -0.3236 -0.4363
 6839TIP3   OH221398   3.529   6.446   0.435 -0.5038 -0.0855 -0.2404
 6839TIP3    H121399   3.621   6.470   0.424 -0.4142  0.6431  1.7095
 6839TIP3    H221400   3.530   6.354   0.458  0.0234  0.4990  2.4008
 6840TIP3   OH221401   2.507   0.782   0.173  0.3296  0.5089  0.1580
 6840TIP3    H121402   2.530   0.843   0.244  3.4010  1.2133 -1.2913
 6840TIP3    H221403   2.547   0.820   0.095 -0.9027 -1.4867 -1.5425
 6841TIP3   OH221404   5.127   1.218   6.528  0.0143 -0.2514 -0.4968
 6841TIP3    H121405   5.032   1.230   6.516  0.1560  0.5067 -0.9430
 6841TIP3    H221406   5.146   1.260   6.612 -0.1175 -0.8123 -0.1851
 6842TIP3   OH221407   9.655   5.622   3.109  0.6743 -0.4627 -0.1723
 6842TIP3    H121408   9.562   5.641   3.111  0.7291 -0.2509  1.1604
 6842TIP3    H221409   9.697   5.707   3.122  1.0313 -0.6826  0.1450
 6843TIP3   OH221410   3.641   7.813   6.128  0.0850  0.5104  0.0341
 6843TIP3    H121411   3.709   7.747   6.122  0.6127  1.1402 -1.6356
 6843TIP3    H221412   3.560   7.766   6.109  0.2200  0.0211  0.6448
 6844TIP3   OH221413   0.595   0.851   6.850 -0.0923 -0.2670  0.3335
 6844TIP3    H121414   0.658   0.802   6.902  0.4029 -1.7933 -1.6120
 6844TIP3    H221415   0.618   0.943   6.866  2.1349 -0.7556  0.3274
 6845TIP3   OH221416   0.535   4.377   8.822 -0.2987  0.2777  0.1431
 6845TIP3    H121417   0.588   4.407   8.896  0.3480 -1.0691  0.2637
 6845TIP3    H221418   0.463   4.329   8.862  1.0783 -2.1357 -0.0395
 6846TIP3   OH221419   5.776   4.471   8.768 -0.0729 -0.5216  0.2884
 6846TIP3    H121420   5.751   4.396   8.713 -0.6866 -0.8950  1.0548
 6846TIP3    H221421   5.725   4.459   8.849 -2.6452  2.3940 -0.7202
 6847TIP3   OH221422   3.281   5.912   6.436 -0.2494  0.3295  0.1169
 6847TIP3    H121423   3.207   5.894   6.378  0.2267  0.7473 -0.6421
 6847TIP3    H221424   3.276   5.845   6.503 -0.7796 -0.2141 -0.4551
 6848TIP3   OH221425   1.612   2.161   1.308 -0.8557 -0.3930  0.2808
 6848TIP3    H121426   1.694   2.199   1.278 -1.6734  0.0104 -1.5726
 6848TIP3    H221427   1.612   2.175   1.403  0.7508  0.4635  0.1867
 6849TIP3   OH221428   2.416   7.129   8.507 -0.2661 -0.1505 -0.2216
 6849TIP3    H121429   2.455   7.076   8.437  0.2715  0.4191 -0.3570
 6849TIP3    H221430   2.479   7.124   8.579 -1.3581 -1.6998  0.6805
 6850TIP3   OH221431   2.111   7.040   7.995  0.0274  0.2057 -0.6309
 6850TIP3    H121432   2.017   7.026   7.988  0.2835 -1.2274 -1.5591
 6850TIP3    H221433   2.142   7.044   7.904  0.9522  0.0070 -0.3345
 6851TIP3   OH221434   0.030   5.797   3.313  0.1224 -0.3398  0.1245
 6851TIP3    H121435   0.038   5.870   3.375 -0.0641  0.7080 -1.0398
 6851TIP3    H221436  -0.041   5.823   3.254 -0.8110 -2.0502  0.4144
 6852TIP3   OH221437   1.199   6.694   9.560  0.1240  0.2451 -0.0979
 6852TIP3    H121438   1.210   6.605   9.526  1.2311  0.2031  0.3572
 6852TIP3    H221439   1.104   6.703   9.570 -0.2575  0.1381 -2.8047
 6853TIP3   OH221440   3.231   2.663   0.646  0.2101  0.1831 -0.2023
 6853TIP3    H121441   3.152   2.716   0.662  0.1785  0.3253 -0.8117
 6853TIP3    H221442   3.303   2.723   0.664  0.1769  0.6896 -1.6539
 6854TIP3   OH221443   1.359   6.576   8.530  0.6411  0.0640 -0.2444
 6854TIP3    H121444   1.339   6.573   8.624  1.4860 -1.7192 -0.0976
 6854TIP3    H221445   1.334   6.665   8.504  0.6307  0.6885  1.7148
 6855TIP3   OH221446   0.161   1.903   5.776  0.0436  0.3190  0.4969
 6855TIP3    H121447   0.256   1.895   5.777 -0.0151 -0.4943  2.2469
 6855TIP3    H221448   0.135   1.896   5.867 -1.4484  4.1430  0.5482
 6856TIP3   OH221449   0.050   7.976   3.898  0.5372 -0.2628 -0.5568
 6856TIP3    H121450   0.054   8.055   3.845  0.9015  0.6551  0.7969
 6856TIP3    H221451   0.091   7.909   3.844  1.8437  0.8802 -1.0348
 6857TIP3   OH221452  10.533   7.088   1.977  0.6451  0.6204  0.3055
 6857TIP3    H121453  10.437   7.087   1.980  0.6236 -0.2384 -0.5176
 6857TIP3    H221454  10.558   7.148   2.049 -0.4281 -1.3441  2.4522
 6858TIP3   OH221455   5.238   7.115   5.488  0.5961  0.4348 -0.2266
 6858TIP3    H121456   5.224   7.065   5.408  1.2179  0.3047 -0.2550
 6858TIP3    H221457   5.211   7.056   5.558 -1.0974  0.9670 -0.3881
 6859TIP3   OH221458  10.746   0.471   0.536  0.0643 -0.1188  0.5950
 6859TIP3    H121459  10.839   0.496   0.533 -0.2027  1.6691  3.4090
 6859TIP3    H221460  10.722   0.482   0.628 -3.4953  1.5412 -0.3908
 6860TIP3   OH221461   4.750   8.059   0.638 -0.4400 -0.5131  0.0591
 6860TIP3    H121462   4.725   8.048   0.546 -2.5273 -1.6569  0.7048
 6860TIP3    H221463   4.722   8.148   0.660  0.0806 -0.2295 -0.3948
 6861TIP3   OH221464   6.474   4.339   8.400 -0.9118 -0.8601  0.0277
 6861TIP3    H121465   6.456   4.433   8.407 -0.7246 -0.8509  0.4350
 6861TIP3    H221466   6.387   4.298   8.403 -1.0617 -0.6531 -1.1373
 6862TIP3   OH221467   6.852   1.803   5.459  0.1647 -0.1492 -0.1334
 6862TIP3    H121468   6.910   1.878   5.445  0.0481 -0.3556 -1.9244
 6862TIP3    H221469   6.767   1.841   5.478  0.5566  0.1535  1.1023
 6863TIP3   OH221470  10.527   5.418  10.119  0.0005  0.2950  0.8494
 6863TIP3    H121471  10.596   5.355  10.102  0.7748  0.4138  3.1953
 6863TIP3    H221472  10.493   5.395  10.206 -2.8041  0.3741 -0.1094
 6864TIP3   OH221473  10.879   1.208   9.759  0.0045 -0.3116  0.1572
 6864TIP3    H121474  10.785   1.205   9.740 -0.1386 -0.6526  0.8705
 6864TIP3    H221475  10.916   1.264   9.691 -0.8135  0.3702  0.2636
 6865TIP3   OH221476   1.404   4.067   1.102  0.2409 -0.6329  0.4553
 6865TIP3    H121477   1.488   4.106   1.128  0.0948  1.8708 -2.2496
 6865TIP3    H221478   1.430   3.991   1.049  0.8356 -0.1139 -0.0282
 6866TIP3   OH221479   5.077   8.719   0.831 -0.3760 -0.1818 -0.2641
 6866TIP3    H121480   5.113   8.805   0.810  1.5391 -0.9559 -0.4484
 6866TIP3    H221481   5.035   8.730   0.916  0.3011  0.8298 -0.0410
 6867TIP3   OH221482   5.393   0.283   4.647 -0.1545  0.5122 -0.1412
 6867TIP3    H121483   5.314   0.277   4.594 -0.4883  3.0452 -0.0491
 6867TIP3    H221484   5.365   0.323   4.729  0.7978 -1.0368  1.0059
 6868TIP3   OH221485   8.854  10.029   4.988 -0.0411  0.2969  0.5505
 6868TIP3    H121486   8.926   9.966   4.991  0.9553  1.1951 -2.1238
 6868TIP3    H221487   8.892  10.110   5.023 -0.0735  0.4865  0.1501
 6869TIP3   OH221488   9.730   2.981   1.794 -0.6727  0.5639 -0.4048
 6869TIP3    H121489   9.758   3.008   1.882 -0.6280  0.1309 -0.2804
 6869TIP3    H221490   9.663   2.914   1.810 -0.2217  0.0347 -0.6944
 6870TIP3   OH221491   1.073   6.264   1.309 -0.5537 -0.1581 -0.0257
 6870TIP3    H121492   1.073   6.259   1.405  2.8707  1.0653  0.1767
 6870TIP3    H221493   1.068   6.357   1.290 -0.0612 -0.3133 -0.9624
 6871TIP3   OH221494   7.581   2.995   7.716 -0.2007  0.3840  0.2603
 6871TIP3    H121495   7.646   3.050   7.671 -0.1327 -0.7501 -1.1052
 6871TIP3    H221496   7.634   2.929   7.761 -0.3740 -0.8584 -1.2824
 6872TIP3   OH221497   8.510   1.138   5.991  0.3934 -0.2826  0.1874
 6872TIP3    H121498   8.597   1.100   5.994  0.8264  0.7028  2.3938
 6872TIP3    H221499   8.452   1.070   6.025  0.2884 -0.8705 -1.1049
 6873TIP3   OH221500   0.118   0.649   9.580  0.4038  0.1863  0.3584
 6873TIP3    H121501   0.146   0.572   9.630  0.3103  1.1166  1.9003
 6873TIP3    H221502   0.140   0.724   9.635  0.2669  1.2810 -0.9951
 6874TIP3   OH221503   9.965   7.447   6.494  0.5300  0.1764 -0.3260
 6874TIP3    H121504  10.023   7.455   6.570  1.6106 -1.6871 -0.8920
 6874TIP3    H221505  10.025   7.440   6.419 -0.4750  0.2207 -1.1531
 6875TIP3   OH221506   3.758   1.691   7.624  0.1799  0.2607  0.1685
 6875TIP3    H121507   3.751   1.596   7.632 -0.6998  0.4806  3.0842
 6875TIP3    H221508   3.721   1.725   7.705  1.3508  3.0906 -0.3629
 6876TIP3   OH221509   1.734  10.364   3.888  0.0232 -0.5643 -0.5018
 6876TIP3    H121510   1.695  10.366   3.975  0.6702  0.0429 -0.2116
 6876TIP3    H221511   1.673  10.414   3.833 -0.8391 -1.6959 -0.6110
 6877TIP3   OH221512   5.245   6.295   4.356  0.2044 -0.0460 -0.9587
 6877TIP3    H121513   5.309   6.278   4.287  0.4232 -0.3264 -0.6872
 6877TIP3    H221514   5.275   6.376   4.398  1.8215 -1.4779  0.8080
 6878TIP3   OH221515   9.563   2.973  10.435  0.2565  0.4917  0.2611
 6878TIP3    H121516   9.497   2.932  10.379  0.0453  2.6258 -1.1950
 6878TIP3    H221517   9.537   2.951  10.524 -0.3752 -1.6112 -0.3958
 6879TIP3   OH221518   8.847   5.279   8.159  0.3406  0.0474  0.7017
 6879TIP3    H121519   8.909   5.336   8.204  0.8019 -0.3329  0.5658
 6879TIP3    H221520   8.847   5.198   8.211  1.2615 -0.5830 -0.2281
 6880TIP3   OH221521   4.363   3.880  10.027  0.8812  0.1152  0.0527
 6880TIP3    H121522   4.432   3.827   9.987 -1.2382 -2.2494 -0.7365
 6880TIP3    H221523   4.390   3.890  10.118  2.8558  0.3910 -0.5109
 6881TIP3   OH221524   8.426  10.021   0.171 -0.4820  0.2580  0.2684
 6881TIP3    H121525   8.360  10.058   0.230  1.0850  0.6283  1.9032
 6881TIP3    H221526   8.472  10.097   0.137 -0.2461 -0.0314 -0.0565
 6882TIP3   OH221527   1.290   0.279   2.573  0.1993 -0.7873  0.0036
 6882TIP3    H121528   1.283   0.328   2.491  0.1686  2.0485  1.5553
 6882TIP3    H221529   1.208   0.230   2.580  0.3475 -1.3251 -1.7682
 6883TIP3   OH221530   5.502  10.686   4.599  0.2263  0.1816 -0.1647
 6883TIP3    H121531   5.549  10.768   4.589 -0.9759  0.7580 -1.5774
 6883TIP3    H221532   5.565  10.626   4.638  1.7273  1.2440 -0.8679
 6884TIP3   OH221533   4.319   2.899  10.073  0.5627  0.2744 -0.2286
 6884TIP3    H121534   4.284   2.813  10.049 -0.3852  0.7027 -0.4215
 6884TIP3    H221535   4.392   2.880  10.132  0.1596 -0.6543 -0.0182
 6885TIP3   OH221536   4.676   7.255  10.579 -0.2268  0.2606  0.3862
 6885TIP3    H121537   4.628   7.173  10.571 -0.9563  0.5897  1.2870
 6885TIP3    H221538   4.730   7.245  10.657  0.9553  0.0287 -0.4173
 6886TIP3   OH221539   9.366   4.104   8.728  0.2537  0.5304  0.7365
 6886TIP3    H121540   9.359   4.010   8.744 -2.4027  0.2340 -1.4074
 6886TIP3    H221541   9.448   4.114   8.680  0.8840 -0.5810  1.5407
 6887TIP3   OH221542  10.263   8.856   0.031 -0.6635  0.3379  0.3713
 6887TIP3    H121543  10.311   8.810   0.099 -2.2925  0.2625  1.5387
 6887TIP3    H221544  10.257   8.946   0.063 -1.0479  0.4078  0.1114
 6888TIP3   OH221545   6.566   2.563   0.156 -0.1019  0.0885  0.5353
 6888TIP3    H121546   6.661   2.553   0.157 -0.1060  0.0043  0.1641
 6888TIP3    H221547   6.535   2.506   0.226  0.1990  1.0133  1.4605
 6889TIP3   OH221548   3.026   8.865   2.073  1.0255 -0.2749 -0.2466
 6889TIP3    H121549   3.027   8.906   2.159 -1.3457  0.0134 -0.2859
 6889TIP3    H221550   3.008   8.936   2.012 -2.5962 -1.1083 -0.3702
 6890TIP3   OH221551   1.255   8.658   6.468 -0.5945 -0.3733  0.1298
 6890TIP3    H121552   1.180   8.684   6.415 -0.7303 -0.2681  0.3747
 6890TIP3    H221553   1.261   8.563   6.457 -2.5597 -0.8645  2.4203
 6891TIP3   OH221554   1.341   2.829   4.732 -0.4796 -0.3862 -0.3678
 6891TIP3    H121555   1.426   2.791   4.756 -0.3239  0.7032  0.9260
 6891TIP3    H221556   1.342   2.829   4.636  1.0230 -0.3396 -0.3856
 6892TIP3   OH221557   2.442   1.620  10.100  0.1372  0.0336 -0.6370
 6892TIP3    H121558   2.365   1.625  10.044 -0.3015 -2.4667 -0.3400
 6892TIP3    H221559   2.480   1.708  10.096 -1.7029  0.8188 -2.2117
 6893TIP3   OH221560   6.626   3.851   7.535 -0.5852  0.1509  0.1314
 6893TIP3    H121561   6.558   3.783   7.532 -0.7569  0.3505 -0.8252
 6893TIP3    H221562   6.702   3.807   7.573 -0.8331 -0.4632 -0.0630
 6894TIP3   OH221563   0.936   5.041   4.898  0.1365  0.0890  0.4498
 6894TIP3    H121564   0.985   4.960   4.903  0.0972  0.0070 -0.3593
 6894TIP3    H221565   0.957   5.077   4.812 -0.2447  0.6761  0.5934
 6895TIP3   OH221566   9.927   5.265   6.731  0.0013  0.2111  0.1280
 6895TIP3    H121567  10.022   5.274   6.724  0.1088 -1.0793 -0.3569
 6895TIP3    H221568   9.902   5.212   6.656 -0.9860 -0.2854  0.7778
 6896TIP3   OH221569   0.114   9.701   4.852  0.3152  0.3622 -0.0389
 6896TIP3    H121570   0.103   9.768   4.920  0.9291  0.3077  0.1195
 6896TIP3    H221571   0.116   9.618   4.901  1.3073  0.3630 -0.0592
 6897TIP3   OH221572   8.906   6.490   4.867  1.0815  0.2569  0.1026
 6897TIP3    H121573   8.967   6.498   4.793  1.0305 -0.9424 -0.0918
 6897TIP3    H221574   8.961   6.503   4.944  1.5226 -0.3990 -0.0889
 6898TIP3   OH221575   2.887   7.191   3.083  0.1500  0.0404  0.3246
 6898TIP3    H121576   2.893   7.212   3.176 -1.2277  1.0595  0.2206
 6898TIP3    H221577   2.922   7.269   3.039 -0.7988  0.2961 -0.0105
 6899TIP3   OH221578   1.633   4.493   8.890 -0.4219 -0.1264  0.7931
 6899TIP3    H121579   1.696   4.425   8.870 -1.4606 -0.5456 -1.3537
 6899TIP3    H221580   1.646   4.559   8.822 -3.1243 -0.8666 -0.5950
 6900TIP3   OH221581   9.817   0.905   0.210  0.2916 -0.7392 -0.7961
 6900TIP3    H121582   9.838   0.991   0.248 -0.8207 -0.7439 -0.1392
 6900TIP3    H221583   9.726   0.912   0.182  0.1832 -1.7091 -0.7275
 6901TIP3   OH221584   6.774   8.069   2.920 -0.1726  0.1046 -0.3749
 6901TIP3    H121585   6.845   8.097   2.862 -0.7233 -0.6123 -1.4463
 6901TIP3    H221586   6.737   7.992   2.876  0.0243 -1.0949  1.4500
 6902TIP3   OH221587   5.744   9.193   3.024 -0.2453  0.0911 -0.5604
 6902TIP3    H121588   5.702   9.116   3.062  1.5260 -0.9071 -0.4935
 6902TIP3    H221589   5.686   9.265   3.046 -0.8648 -0.8973  1.3358
 6903TIP3   OH221590   6.935   6.226   6.411  0.3394  0.5989 -0.3519
 6903TIP3    H121591   6.880   6.242   6.334  0.7490 -1.1482 -1.0429
 6903TIP3    H221592   6.872   6.213   6.482 -0.4218 -3.7266 -1.5489
 6904TIP3   OH221593  10.660   3.914   0.837 -0.3809  0.9234 -0.0664
 6904TIP3    H121594  10.687   3.990   0.889 -1.3314  1.2929 -0.0959
 6904TIP3    H221595  10.701   3.928   0.752  0.9816  0.4421  0.4754
 6905TIP3   OH221596  10.830   6.006   4.709  0.3025 -0.2115  0.1782
 6905TIP3    H121597  10.826   6.014   4.804  2.4100 -0.9300  0.3877
 6905TIP3    H221598  10.755   5.952   4.686 -0.1909 -0.0865  1.4341
 6906TIP3   OH221599   1.353   6.970   4.478 -0.4642 -0.6660 -0.1427
 6906TIP3    H121600   1.325   7.009   4.395 -2.9329  0.6639  1.2062
 6906TIP3    H221601   1.359   6.876   4.460  0.8855 -0.2308 -2.2589
 6907TIP3   OH221602   7.429   0.526   1.398  0.0052  0.3206 -0.6422
 6907TIP3    H121603   7.458   0.610   1.435  2.1533  0.0023 -1.4627
 6907TIP3    H221604   7.429   0.540   1.304 -0.6667 -0.3230 -0.7486
 6908TIP3   OH221605   7.358   9.637   4.499  0.2847 -0.0558  0.0474
 6908TIP3    H121606   7.412   9.714   4.483 -1.5599  1.2109 -0.3432
 6908TIP3    H221607   7.421   9.567   4.519  2.0322  1.3505 -0.3272
 6909TIP3   OH221608   8.730   1.540   2.199  0.7849 -0.2639  0.4830
 6909TIP3    H121609   8.768   1.574   2.279 -1.3991 -0.4814  1.6925
 6909TIP3    H221610   8.747   1.608   2.133  1.6668  0.4014  1.3745
 6910TIP3   OH221611   0.169   6.987   5.940 -0.8058  0.6631  0.1850
 6910TIP3    H121612   0.098   6.936   5.901 -2.0463  2.9936 -0.8103
 6910TIP3    H221613   0.227   7.008   5.866  2.4742 -3.2396  1.3066
 6911TIP3   OH221614  10.251   3.856   8.495  0.3075 -0.9819  0.2918
 6911TIP3    H121615  10.230   3.764   8.478 -0.9218 -0.5213 -0.8708
 6911TIP3    H221616  10.273   3.859   8.588 -1.1612 -2.1956  0.7080
 6912TIP3   OH221617   2.256   1.542   0.157  0.7851  0.1901  0.2258
 6912TIP3    H121618   2.281   1.628   0.124 -1.1828  0.8081  0.2187
 6912TIP3    H221619   2.282   1.543   0.249  1.7209  0.3801 -0.0359
 6913TIP3   OH221620   6.473   0.714   7.028 -0.3122  0.3784 -0.4355
 6913TIP3    H121621   6.404   0.773   7.056  0.3953  0.8590  0.3367
 6913TIP3    H221622   6.465   0.638   7.085  0.9285  1.2219  0.9377
 6914TIP3   OH221623   3.893   8.662   9.166 -0.3182 -0.0215  0.6318
 6914TIP3    H121624   3.799   8.680   9.160 -0.5125 -1.1828  0.0021
 6914TIP3    H221625   3.907   8.589   9.106  1.3745  1.5070 -0.9268
 6915TIP3   OH221626   5.599   3.212   2.009  0.1818 -0.0012  0.4578
 6915TIP3    H121627   5.526   3.152   1.993  0.0180  0.1278  0.7140
 6915TIP3    H221628   5.585   3.243   2.098 -1.1392  2.3225 -0.4654
 6916TIP3   OH221629   1.040   9.128   2.798  0.0461 -0.0265 -0.2487
 6916TIP3    H121630   1.089   9.058   2.842  0.4294  0.3968  0.0032
 6916TIP3    H221631   1.098   9.156   2.728  1.1662  1.9897  1.3865
 6917TIP3   OH221632   8.057  10.782   2.824  0.0781 -0.3417  0.2205
 6917TIP3    H121633   8.071  10.769   2.730 -0.7983 -0.2572  0.0688
 6917TIP3    H221634   8.055  10.694   2.861 -1.2917 -0.4725 -0.1120
 6918TIP3   OH221635   1.869   5.325  10.236 -0.0491 -0.1038  0.0636
 6918TIP3    H121636   1.883   5.266  10.162 -0.6736 -2.5768  1.7725
 6918TIP3    H221637   1.780   5.358  10.223  0.1716  0.2137 -0.7282
 6919TIP3   OH221638   8.437   9.398   2.410 -0.3650  0.1474 -0.4086
 6919TIP3    H121639   8.477   9.372   2.327 -1.3183  0.1117 -0.8711
 6919TIP3    H221640   8.350   9.431   2.386  0.2107  2.3408  0.3248
 6920TIP3   OH221641   4.738   5.548  10.405 -0.2681 -0.1467  0.4675
 6920TIP3    H121642   4.812   5.584  10.454  0.2935 -0.1206 -0.3805
 6920TIP3    H221643   4.750   5.453  10.408  0.0264 -0.1258 -0.0130
 6921TIP3   OH221644   1.749   1.608   4.435 -0.0750 -0.1618 -0.0766
 6921TIP3    H121645   1.721   1.690   4.393  4.0598  2.0692  0.9312
 6921TIP3    H221646   1.719   1.617   4.526 -0.2037 -0.0968 -0.1249
 6922TIP3   OH221647   9.939   2.299   2.340 -0.0652  0.1501  0.6251
 6922TIP3    H121648   9.893   2.366   2.391  1.9110  0.6169  1.9194
 6922TIP3    H221649   9.928   2.218   2.391 -2.1535 -0.5077 -0.7579
 6923TIP3   OH221650   6.597   4.707   7.213  0.3459 -0.3366  0.3174
 6923TIP3    H121651   6.549   4.772   7.264  1.0119  1.2312 -0.9819
 6923TIP3    H221652   6.539   4.631   7.210 -0.4709  0.1738  1.8347
 6924TIP3   OH221653   9.338   6.660   6.569  0.0605 -0.3695  0.0211
 6924TIP3    H121654   9.404   6.647   6.636  0.1982 -1.6399 -0.3359
 6924TIP3    H221655   9.273   6.592   6.584 -0.1199 -0.4182 -0.8786
 6925TIP3   OH221656   8.902  10.741   7.691  0.1291  0.8866  0.9414
 6925TIP3    H121657   8.817  10.756   7.732  0.1017 -0.8374  1.6111
 6925TIP3    H221658   8.941  10.828   7.685 -2.3242  1.9809 -0.9279
 6926TIP3   OH221659   2.603   6.043   5.401 -0.2850 -0.4435  0.0018
 6926TIP3    H121660   2.538   6.111   5.383 -1.0658 -1.2691 -0.3921
 6926TIP3    H221661   2.551   5.963   5.410  0.7546 -1.2889 -1.2915
 6927TIP3   OH221662   4.085   8.218   6.786  0.0836  0.0270 -0.3216
 6927TIP3    H121663   4.048   8.240   6.701 -0.7585  3.4706  0.7841
 6927TIP3    H221664   4.175   8.253   6.782  0.7922 -1.6963 -0.4458
 6928TIP3   OH221665   0.139   2.671   6.160  0.0825 -0.3609 -0.1059
 6928TIP3    H121666   0.167   2.595   6.211  1.4881  0.2678  0.0990
 6928TIP3    H221667   0.136   2.742   6.224 -0.3056 -0.0365 -0.4795
 6929TIP3   OH221668   1.809   8.039  10.256 -0.2524 -0.0586  0.0803
 6929TIP3    H121669   1.820   7.988  10.176 -0.7187  1.6196 -1.1175
 6929TIP3    H221670   1.812   8.130  10.227 -0.5303  0.6048  1.9763
 6930TIP3   OH221671   1.236   6.814   2.739  0.5518 -0.1294  0.1653
 6930TIP3    H121672   1.149   6.796   2.774  1.2315  0.4334  2.2722
 6930TIP3    H221673   1.266   6.730   2.705 -0.9130 -0.2559 -0.8975
 6931TIP3   OH221674   1.065   6.191   8.709 -0.0519 -0.5064 -0.6982
 6931TIP3    H121675   1.040   6.241   8.631 -0.7758 -1.4127 -1.0840
 6931TIP3    H221676   1.098   6.108   8.674  0.7248 -0.4650 -0.0694
 6932TIP3   OH221677   7.299   2.147   8.769  0.5823 -0.1180  0.1157
 6932TIP3    H121678   7.211   2.166   8.801  0.3849  0.5692 -0.7978
 6932TIP3    H221679   7.287   2.075   8.706  0.3892  1.1410 -1.3493
 6933TIP3   OH221680   7.383   9.088   7.042 -0.2962 -0.0887  0.2843
 6933TIP3    H121681   7.391   9.131   6.957  2.2470  1.0930  1.0000
 6933TIP3    H221682   7.430   9.005   7.032  2.3493  1.1853  1.1001
 6934TIP3   OH221683   4.911   6.104   2.500  0.4218  0.1478 -0.6063
 6934TIP3    H121684   4.873   6.062   2.578  0.6196  2.8215  1.0454
 6934TIP3    H221685   4.954   6.032   2.454 -1.3416 -1.8948  0.6837
 6935TIP3   OH221686  10.808   6.479   3.728 -0.1901  0.2669 -0.0155
 6935TIP3    H121687  10.886   6.425   3.713 -1.3905 -1.8477  0.9543
 6935TIP3    H221688  10.798   6.482   3.823  0.1089  2.7128  0.0043
 6936TIP3   OH221689   9.537   9.283   9.365 -0.0513  0.1961  0.3876
 6936TIP3    H121690   9.548   9.230   9.444 -2.5883 -0.0970  0.6054
 6936TIP3    H221691   9.534   9.373   9.397 -0.4597  0.1214  0.5604
 6937TIP3   OH221692   4.244   1.612   1.183  0.3888 -0.5720 -0.0657
 6937TIP3    H121693   4.152   1.608   1.157  0.6204 -2.6646 -0.7123
 6937TIP3    H221694   4.251   1.695   1.230 -2.4285 -1.5188  2.3097
 6938TIP3   OH221695   1.585   1.619   5.785 -0.7375  0.0760 -0.3874
 6938TIP3    H121696   1.676   1.595   5.801 -0.5992  0.9878  0.2926
 6938TIP3    H221697   1.559   1.668   5.863 -1.4386  0.8714 -1.0965
 6939TIP3   OH221698   8.091   5.877   8.238 -0.3348  0.0670  0.6280
 6939TIP3    H121699   8.130   5.799   8.279 -0.7418 -0.4331  0.0721
 6939TIP3    H221700   8.025   5.843   8.178 -1.8783  0.9074  1.7634
 6940TIP3   OH221701   7.415   2.632   2.524  0.9359 -0.3697  0.1277
 6940TIP3    H121702   7.503   2.667   2.518  0.1040  1.6205 -2.3943
 6940TIP3    H221703   7.392   2.639   2.617  2.1855  2.4700  0.3089
 6941TIP3   OH221704   9.014   3.171   5.457 -0.1966  0.1401  0.9765
 6941TIP3    H121705   8.986   3.195   5.545  1.9741 -0.8479  1.9957
 6941TIP3    H221706   8.932   3.161   5.408 -1.4350  1.0732  2.7547
 6942TIP3   OH221707   5.968   2.895   7.278 -0.5787  0.0015 -0.2137
 6942TIP3    H121708   5.977   2.943   7.196 -1.5316  2.8670  1.2515
 6942TIP3    H221709   5.956   2.804   7.251  0.2156  0.6697 -3.1773
 6943TIP3   OH221710   0.760   5.965   1.883 -0.0059  0.1957  0.2473
 6943TIP3    H121711   0.806   6.033   1.834 -0.1991 -0.4335 -0.8253
 6943TIP3    H221712   0.741   6.006   1.968  0.1098  1.3867 -0.2792
 6944TIP3   OH221713   4.211   0.570   8.277 -0.1970 -0.0131  0.2154
 6944TIP3    H121714   4.223   0.563   8.183 -1.0386 -0.4536  0.1303
 6944TIP3    H221715   4.122   0.603   8.288 -0.0229  0.2703  0.8523
 6945TIP3   OH221716   6.123   3.665   9.438 -0.0227  0.0346  0.4093
 6945TIP3    H121717   6.074   3.589   9.407  0.2924 -0.3431  0.8290
 6945TIP3    H221718   6.141   3.716   9.358 -0.2765 -0.3003  0.1357
 6946TIP3   OH221719   7.578   8.456   0.938 -0.0423  0.7031 -0.2447
 6946TIP3    H121720   7.569   8.402   0.859 -1.0194 -0.5668  0.6955
 6946TIP3    H221721   7.636   8.527   0.911 -1.6213  1.2433 -2.6064
 6947TIP3   OH221722   2.631   7.521   9.743 -0.2357  0.0452  0.1424
 6947TIP3    H121723   2.617   7.538   9.650 -1.7394 -2.2811 -0.1342
 6947TIP3    H221724   2.589   7.595   9.788 -0.0093  0.8886 -1.0000
 6948TIP3   OH221725   6.643   0.042   4.772 -0.0252 -1.1405  0.8306
 6948TIP3    H121726   6.734   0.015   4.780 -0.0119 -0.9060  1.6293
 6948TIP3    H221727   6.646   0.121   4.718  0.5195  0.1150  2.5851
 6949TIP3   OH221728   0.227   7.456   8.708 -0.1043  0.0004 -0.2038
 6949TIP3    H121729   0.282   7.440   8.631  1.0166 -2.2279  0.9470
 6949TIP3    H221730   0.149   7.402   8.694 -0.2011  0.1069 -0.0843
 6950TIP3   OH221731   1.564   1.117   7.338  0.0869 -0.3225 -0.0996
 6950TIP3    H121732   1.595   1.115   7.429  2.9954  1.8684 -0.8849
 6950TIP3    H221733   1.475   1.082   7.342  0.2379 -0.6644  3.5115
 6951TIP3   OH221734  10.005   7.623   4.966 -0.7564  0.2083 -0.2622
 6951TIP3    H121735   9.927   7.634   4.911 -2.5196  1.9361  2.3455
 6951TIP3    H221736   9.971   7.588   5.049  1.1316  1.5867  1.1761
 6952TIP3   OH221737   0.224  10.577   6.035 -0.7407  0.6188  0.2337
 6952TIP3    H121738   0.257  10.488   6.026  0.8872  0.8925  2.4231
 6952TIP3    H221739   0.196  10.602   5.947 -0.9373 -1.9075 -0.4930
 6953TIP3   OH221740   4.797   7.054   3.674  0.1447  0.0495 -0.2737
 6953TIP3    H121741   4.742   7.022   3.602  1.5114 -3.4711  0.0779
 6953TIP3    H221742   4.857   7.116   3.632 -0.5582 -0.1885 -1.6995
 6954TIP3   OH221743  10.537   6.110   7.845 -0.1316 -0.6832 -0.1104
 6954TIP3    H121744  10.584   6.125   7.928 -1.5160 -1.1566  0.7897
 6954TIP3    H221745  10.448   6.089   7.872 -0.9963  0.5895 -1.7858
 6955TIP3   OH221746   4.349   0.303   9.458 -0.2533 -0.4287  0.0378
 6955TIP3    H121747   4.292   0.379   9.443  1.0736  0.5351 -0.3005
 6955TIP3    H221748   4.326   0.273   9.546 -0.5716  0.5588  0.3024
 6956TIP3   OH221749   7.037   1.861   7.443  0.4534  0.0653 -0.1153
 6956TIP3    H121750   7.023   1.868   7.537  2.2416  1.2241  0.1127
 6956TIP3    H221751   7.006   1.773   7.421  0.6804 -0.5186  1.6999
 6957TIP3   OH221752   5.199   6.944   2.856 -1.1038 -0.4250 -0.0490
 6957TIP3    H121753   5.237   7.027   2.826 -1.6626  0.1979  0.9168
 6957TIP3    H221754   5.129   6.926   2.793  0.3316 -1.2516 -1.4629
 6958TIP3   OH221755  10.495   1.630   6.648 -0.6259  0.1661 -0.4004
 6958TIP3    H121756  10.559   1.675   6.593  0.1691 -0.5949 -0.1398
 6958TIP3    H221757  10.539   1.621   6.732 -0.7829 -0.9995 -0.4238
 6959TIP3   OH221758   5.142  10.388   3.036 -0.3234  0.2848 -0.3139
 6959TIP3    H121759   5.087  10.389   3.114  0.4868  0.2930  0.2717
 6959TIP3    H221760   5.180  10.476   3.032  0.0981  0.1016 -0.3823
 6960TIP3   OH221761   1.648   3.983   5.493  0.6629 -0.8012  0.2412
 6960TIP3    H121762   1.555   3.994   5.475  1.3469  0.4516 -3.3474
 6960TIP3    H221763   1.675   4.065   5.534  0.6722  0.0319 -1.3756
 6961TIP3   OH221764   5.654   7.461   7.438 -0.6704 -0.1229 -0.4537
 6961TIP3    H121765   5.708   7.424   7.369 -1.4014  0.6508 -1.4602
 6961TIP3    H221766   5.716   7.508   7.495  0.0538 -1.5266 -0.0307
 6962TIP3   OH221767   2.919   3.829   8.652 -0.7073 -0.1035  0.0809
 6962TIP3    H121768   2.829   3.849   8.627 -1.1208  0.1492  1.6800
 6962TIP3    H221769   2.917   3.736   8.674 -0.4088 -0.2607 -0.5345
 6963TIP3   OH221770   4.918   2.453   8.949  0.4161 -0.2751  0.1271
 6963TIP3    H121771   4.970   2.532   8.966  0.7340 -1.0203  3.2161
 6963TIP3    H221772   4.828   2.479   8.967  0.1358  0.0658 -1.6362
 6964TIP3   OH221773   5.802   4.077   2.924  0.1240  0.1371 -0.6371
 6964TIP3    H121774   5.730   4.134   2.899  0.0813  0.2526 -0.2626
 6964TIP3    H221775   5.849   4.125   2.993 -0.2338 -0.4970  0.0701
 6965TIP3   OH221776   9.166   9.264   6.169 -0.0927  0.0777  0.1336
 6965TIP3    H121777   9.124   9.180   6.187  0.1790 -0.0907 -0.0107
 6965TIP3    H221778   9.103   9.312   6.116 -0.8162  0.4909  1.3202
 6966TIP3   OH221779   0.150   6.100   0.311 -0.3453 -0.0942  0.5230
 6966TIP3    H121780   0.150   6.085   0.217 -2.2977  2.5726 -0.0147
 6966TIP3    H221781   0.230   6.148   0.329 -0.5070  0.3557  0.0309
 6967TIP3   OH221782   1.691  10.830   7.548  0.4435 -0.3155  0.2447
 6967TIP3    H121783   1.743  10.901   7.587 -1.1415  0.8485  0.2994
 6967TIP3    H221784   1.656  10.783   7.623  1.9230 -1.5371  0.2160
 6968TIP3   OH221785   0.738   0.682   7.027  0.4180  0.2054 -0.3525
 6968TIP3    H121786   0.706   0.625   7.097  0.4432 -0.1203 -0.5996
 6968TIP3    H221787   0.751   0.623   6.953  2.7683  0.0913  0.0841
 6969TIP3   OH221788   5.863   0.488   8.783 -0.5495  0.6360  0.6462
 6969TIP3    H121789   5.791   0.524   8.835 -0.9955 -1.0187  1.2611
 6969TIP3    H221790   5.919   0.443   8.847  0.3217  0.7807  0.0077
 6970TIP3   OH221791   0.812   7.172   4.968  0.9383 -0.2973  0.0690
 6970TIP3    H121792   0.775   7.211   4.889  1.1617  0.7665  0.4761
 6970TIP3    H221793   0.907   7.180   4.958  0.9987 -0.9662  0.0505
 6971TIP3   OH221794   9.207   9.475   2.681 -1.0621  0.7486  0.0736
 6971TIP3    H121795   9.267   9.423   2.736 -2.5663 -1.5789 -0.3169
 6971TIP3    H221796   9.121   9.460   2.720 -1.9866  0.1409 -2.0737
 6972TIP3   OH221797   8.182   6.624   0.746  0.1254  0.3205 -0.0381
 6972TIP3    H121798   8.142   6.553   0.796  0.0588 -0.9866 -1.8416
 6972TIP3    H221799   8.276   6.610   0.754  0.1980  1.4767  1.5424
 6973TIP3   OH221800   4.706   0.794   4.871 -0.0261  0.0589 -0.2299
 6973TIP3    H121801   4.775   0.787   4.937  0.2815 -0.2111 -0.5807
 6973TIP3    H221802   4.638   0.847   4.913  0.6243  0.7874 -0.0805
 6974TIP3   OH221803   9.157   9.598   1.913  0.1934  0.4409 -0.1416
 6974TIP3    H121804   9.174   9.611   1.819  0.4939 -1.3804 -0.3629
 6974TIP3    H221805   9.062   9.608   1.921 -0.1788 -1.7972 -1.1043
 6975TIP3   OH221806   0.465   5.316   0.921  0.4755  0.0654 -0.2932
 6975TIP3    H121807   0.418   5.398   0.906 -0.9951 -0.9048 -1.2005
 6975TIP3    H221808   0.407   5.248   0.888  1.0714 -1.4891  1.6279
 6976TIP3   OH221809   0.276   9.027   0.462  0.1930  0.4449  0.1546
 6976TIP3    H121810   0.282   9.001   0.554 -0.1624 -0.7726 -0.1584
 6976TIP3    H221811   0.338   9.100   0.454  2.5658 -1.3834  0.6749
 6977TIP3   OH221812   7.521   2.091  10.182 -0.0243 -0.5917  0.2289
 6977TIP3    H121813   7.600   2.119  10.135 -0.5736  0.7815  0.0994
 6977TIP3    H221814   7.471   2.040  10.117  0.1252 -0.3321 -0.0928
 6978TIP3   OH221815   3.214   2.823  10.212 -0.0462 -0.3218  0.0806
 6978TIP3    H121816   3.299   2.843  10.173 -0.5410  0.2586 -0.7312
 6978TIP3    H221817   3.233   2.759  10.281  0.8744 -1.3671 -1.0983
 6979TIP3   OH221818   6.862   2.581   7.609 -0.0705  0.0842 -0.1405
 6979TIP3    H121819   6.930   2.627   7.559  1.6869 -2.5334 -0.3601
 6979TIP3    H221820   6.782   2.597   7.560  0.6470  1.8895 -0.8239
 6980TIP3   OH221821   7.855   0.619   6.991 -0.4640 -0.0508 -0.1211
 6980TIP3    H121822   7.882   0.534   7.026  0.9582  0.5945  0.4314
 6980TIP3    H221823   7.759   0.615   6.988 -0.5216 -0.9354  1.7839
 6981TIP3   OH221824   2.775   9.966   5.860 -0.2565 -0.3974 -0.2050
 6981TIP3    H121825   2.763   9.871   5.865  2.1309 -0.9066 -2.0857
 6981TIP3    H221826   2.831   9.987   5.934  0.1786 -0.6752 -0.4499
 6982TIP3   OH221827   1.234   0.586   4.519  0.0516  0.2417 -0.1989
 6982TIP3    H121828   1.181   0.661   4.545  1.2196  1.2520 -0.6379
 6982TIP3    H221829   1.312   0.591   4.575  0.3500 -0.3852 -0.5501
 6983TIP3   OH221830   4.858   3.594   3.174 -0.5114  0.0721 -0.1388
 6983TIP3    H121831   4.840   3.552   3.258  0.0800 -0.7501 -0.4134
 6983TIP3    H221832   4.833   3.685   3.187 -1.0892 -0.1956  0.7096
 6984TIP3   OH221833   4.174   2.164   8.745  0.1283 -0.4802  0.4771
 6984TIP3    H121834   4.173   2.085   8.798  0.6640 -0.7284  0.1308
 6984TIP3    H221835   4.262   2.166   8.707  0.0379  0.1475  0.2825
 6985TIP3   OH221836   8.309   0.291   1.492  0.1847 -0.3892  0.7338
 6985TIP3    H121837   8.354   0.269   1.411 -0.9183 -0.7384  0.1914
 6985TIP3    H221838   8.313   0.210   1.544  1.0753 -0.1010  1.1310
 6986TIP3   OH221839   6.686   9.328   3.236  0.0890  0.4539 -0.4326
 6986TIP3    H121840   6.758   9.375   3.194 -0.2701  0.6989 -0.7883
 6986TIP3    H221841   6.718   9.239   3.247  1.1866  1.0032  1.2262
 6987TIP3   OH221842   8.848   2.626   8.770  0.6205  1.0462  0.0767
 6987TIP3    H121843   8.808   2.685   8.706 -0.6767  0.6814  0.5333
 6987TIP3    H221844   8.898   2.564   8.717  0.3225  1.3077 -0.5236
 6988TIP3   OH221845   3.463   4.324   1.760  0.5099  1.2913  0.5192
 6988TIP3    H121846   3.544   4.324   1.709  0.9343  2.5124  1.1333
 6988TIP3    H221847   3.454   4.235   1.792  0.3912  0.5634 -1.4068
 6989TIP3   OH221848   0.874  10.497   6.638 -0.3912  0.2375  0.1865
 6989TIP3    H121849   0.826  10.577   6.622 -0.3582 -0.1159 -1.9166
 6989TIP3    H221850   0.938  10.520   6.706 -0.5072  1.9256 -0.2433
 6990TIP3   OH221851   2.391   2.484   9.765  0.0977 -0.0524 -0.2532
 6990TIP3    H121852   2.310   2.434   9.756  1.2964 -2.1188 -0.2721
 6990TIP3    H221853   2.449   2.427   9.816  1.8436  0.9767 -0.9808
 6991TIP3   OH221854   8.023   8.882   6.246  0.1176 -0.2374  0.1652
 6991TIP3    H121855   8.024   8.968   6.204  1.3443 -0.6388 -0.6904
 6991TIP3    H221856   7.950   8.836   6.205 -0.3728  0.2886  0.4326
 6992TIP3   OH221857   0.136   2.337   9.184  0.5144 -0.5197 -0.4453
 6992TIP3    H121858   0.178   2.395   9.247  0.1286  0.0849 -0.7361
 6992TIP3    H221859   0.137   2.385   9.101  0.4775 -1.0584 -0.7681
 6993TIP3   OH221860  10.773   4.097   4.539  0.3660  0.0722 -0.0753
 6993TIP3    H121861  10.685   4.061   4.548 -1.0953  3.5513  1.3170
 6993TIP3    H221862  10.818   4.073   4.620 -1.1569  2.5617  1.6225
 6994TIP3   OH221863  10.303   6.675   7.223  0.1713 -0.3090  0.1399
 6994TIP3    H121864  10.382   6.683   7.168 -1.3147 -0.2371 -2.1315
 6994TIP3    H221865  10.314   6.742   7.291  2.4346 -0.8789  0.4111
 6995TIP3   OH221866   0.579   1.118   6.138 -0.1767  0.7168 -0.2287
 6995TIP3    H121867   0.588   1.038   6.188  0.3975  1.9650  1.7554
 6995TIP3    H221868   0.509   1.099   6.075 -0.6535 -1.0189  0.7711
 6996TIP3   OH221869   2.411   7.674   4.914  0.0266 -0.6956 -0.1865
 6996TIP3    H121870   2.452   7.598   4.872  0.4611 -0.7710  0.3613
 6996TIP3    H221871   2.364   7.717   4.843  0.1326 -1.2351 -0.5964
 6997TIP3   OH221872   4.298   3.657   2.074 -0.2233  0.1348  0.1736
 6997TIP3    H121873   4.283   3.737   2.024  0.6247 -0.0109 -0.3354
 6997TIP3    H221874   4.211   3.628   2.101 -0.4561  2.1911  1.8884
 6998TIP3   OH221875   9.676   6.103   1.797 -0.0801 -0.4019 -0.0900
 6998TIP3    H121876   9.653   6.099   1.890  0.0790  0.2879 -0.0179
 6998TIP3    H221877   9.650   6.191   1.770  1.0692 -0.1410 -0.3856
 6999TIP3   OH221878   2.123   9.323   7.843 -0.3577 -0.0764  0.2974
 6999TIP3    H121879   2.036   9.304   7.879 -0.1018 -0.3964  0.7560
 6999TIP3    H221880   2.110   9.325   7.749 -0.4328 -2.4224  0.2027
 7000TIP3   OH221881   5.588   5.738   6.110  0.2730  0.1679  0.7332
 7000TIP3    H121882   5.636   5.696   6.038 -0.1405  0.3044  0.3766
 7000TIP3    H221883   5.581   5.670   6.177 -0.2344 -0.2779  0.2318
 7001TIP3   OH221884  10.798   0.900   9.299  0.0343  0.2996 -0.2758
 7001TIP3    H121885  10.779   0.940   9.214 -1.9368 -1.3555 -0.7125
 7001TIP3    H221886  10.761   0.812   9.292 -0.5331  0.2509  2.4299
 7002TIP3   OH221887   7.197   1.716   9.478  0.0655  0.3460 -0.5851
 7002TIP3    H121888   7.158   1.778   9.539 -1.6556  0.0768 -1.3559
 7002TIP3    H221889   7.250   1.658   9.533 -1.3683  0.1571  0.6436
 7003TIP3   OH221890   3.932  10.308   1.117 -0.1062 -0.1529 -0.2921
 7003TIP3    H121891   3.955  10.223   1.153  1.3042  0.3701  0.1080
 7003TIP3    H221892   3.863  10.341   1.174  0.2499 -0.4669  0.3239
 7004TIP3   OH221893   8.643   6.035   9.264 -0.2656  0.7107 -0.0271
 7004TIP3    H121894   8.674   5.947   9.244 -0.4198  0.5261  0.5229
 7004TIP3    H221895   8.621   6.032   9.357  1.9467  1.9862  0.6180
 7005TIP3   OH221896   9.600   0.678   4.020 -0.0059  0.0063  0.3648
 7005TIP3    H121897   9.630   0.599   3.977 -1.3324 -0.3164 -0.0232
 7005TIP3    H221898   9.676   0.710   4.068  1.0121 -0.5821 -0.8068
 7006TIP3   OH221899  10.222   2.783   2.110 -0.1854  0.0446  0.1621
 7006TIP3    H121900  10.235   2.729   2.188  0.2958  1.2125  0.9201
 7006TIP3    H221901  10.292   2.756   2.051  1.3432  1.2050  1.3446
 7007TIP3   OH221902   8.467   2.498   3.093  0.3011 -0.2810  0.1700
 7007TIP3    H121903   8.405   2.431   3.123  0.1416 -0.3165 -0.2291
 7007TIP3    H221904   8.484   2.551   3.171  1.3278 -1.4623  0.7772
 7008TIP3   OH221905   8.213   8.163   6.764  0.1302  0.3428 -0.1320
 7008TIP3    H121906   8.229   8.257   6.752 -0.3611  0.5833  0.9938
 7008TIP3    H221907   8.282   8.134   6.823  0.7540 -0.1957 -1.0920
 7009TIP3   OH221908   8.979   0.694   2.683  0.1070 -0.4762 -0.4578
 7009TIP3    H121909   8.978   0.661   2.773 -0.2660  0.0078 -0.2769
 7009TIP3    H221910   9.056   0.751   2.679  0.1035 -0.4695 -0.4330
 7010TIP3   OH221911   1.891   0.214   5.018 -0.1436 -0.0630  0.1004
 7010TIP3    H121912   1.961   0.172   5.066 -1.9192  0.5997  3.5672
 7010TIP3    H221913   1.864   0.288   5.073 -1.6508  1.5008 -2.4875
 7011TIP3   OH221914   5.987   6.337   8.416  0.4322  0.0425 -0.8020
 7011TIP3    H121915   6.038   6.356   8.494  0.8554 -0.2728 -0.9936
 7011TIP3    H221916   6.004   6.244   8.399  0.4506  0.1418 -1.3427
 7012TIP3   OH221917   8.636   6.306   6.130  0.8971 -0.3810 -0.5404
 7012TIP3    H121918   8.645   6.376   6.065 -2.4714  1.7095  0.9208
 7012TIP3    H221919   8.684   6.339   6.206  0.2818 -0.1248 -0.2453
 7013TIP3   OH221920  10.874   6.863   5.746  0.3855  0.0305  0.2248
 7013TIP3    H121921  10.815   6.826   5.812 -0.7653 -0.5598 -1.0994
 7013TIP3    H221922  10.894   6.790   5.688  1.8658  0.4016  0.2191
 7014TIP3   OH221923   8.816   1.398   9.533 -0.4186 -0.5797 -0.3853
 7014TIP3    H121924   8.750   1.461   9.505  1.4728  1.0520 -1.3998
 7014TIP3    H221925   8.887   1.407   9.468  1.0089 -1.9089  0.9137
 7015TIP3   OH221926   9.840   0.796  10.478 -0.1832 -0.0282 -0.0108
 7015TIP3    H121927   9.873   0.862  10.418  1.2904 -0.3620  0.3933
 7015TIP3    H221928   9.776   0.843  10.532 -0.2454  0.6878 -0.6845
 7016TIP3   OH221929   5.693  10.401   6.122  0.0784 -0.2196 -0.2587
 7016TIP3    H121930   5.662  10.318   6.159  0.1481 -0.9133 -1.7022
 7016TIP3    H221931   5.693  10.386   6.028  0.5680  1.2722 -0.5066
 7017TIP3   OH221932   5.362   4.677   0.221  0.4322 -0.2733  0.4344
 7017TIP3    H121933   5.277   4.647   0.255 -0.4452  1.9238  0.3413
 7017TIP3    H221934   5.415   4.597   0.216 -1.3903 -1.6083  1.1518
 7018TIP3   OH221935   2.487   4.388   5.694 -0.0933  0.1043 -0.4948
 7018TIP3    H121936   2.460   4.469   5.737  0.7153 -0.1529  0.5355
 7018TIP3    H221937   2.546   4.416   5.624  1.9815  0.3325  1.2584
 7019TIP3   OH221938   3.983  10.296   4.655  0.6072  0.5400  0.1896
 7019TIP3    H121939   4.028  10.224   4.697  1.1851 -0.0292 -1.3274
 7019TIP3    H221940   3.938  10.256   4.580  1.9898  1.8724 -1.4519
 7020TIP3   OH221941   2.330   9.395   8.582  0.2472 -0.8565 -0.0218
 7020TIP3    H121942   2.295   9.364   8.666  0.3935  0.8824  0.7167
 7020TIP3    H221943   2.425   9.386   8.591  0.2316 -1.3686 -0.3102
 7021TIP3   OH221944  10.133   5.090   9.868  0.3117  0.0136 -0.1303
 7021TIP3    H121945  10.085   5.164   9.905 -0.1882 -0.5430  0.3567
 7021TIP3    H221946  10.224   5.120   9.866  0.3358  0.1368  1.4247
 7022TIP3   OH221947   4.739   8.285   1.981 -0.5843  0.0682 -0.0044
 7022TIP3    H121948   4.791   8.254   2.054 -1.7814 -1.5916  0.2140
 7022TIP3    H221949   4.802   8.319   1.918  0.4535  1.8460  1.8833
 7023TIP3   OH221950   3.387   5.430   7.210 -0.1755  0.3464 -0.6045
 7023TIP3    H121951   3.431   5.514   7.219 -0.6147  0.6383 -1.1131
 7023TIP3    H221952   3.458   5.365   7.210  0.1236  0.6609  0.3903
 7024TIP3   OH221953   3.566   0.745   7.823 -0.7189  1.3348 -0.1763
 7024TIP3    H121954   3.488   0.798   7.835 -1.8739 -0.4697  0.6004
 7024TIP3    H221955   3.597   0.727   7.912 -1.8823 -1.3867 -0.2150
 7025TIP3   OH221956   7.171   3.583   6.928 -0.2083  0.4062  0.3135
 7025TIP3    H121957   7.167   3.562   6.835  0.2620  0.8209  0.1938
 7025TIP3    H221958   7.152   3.677   6.932 -2.1446  0.0477  0.8156
 7026TIP3   OH221959   5.032   1.677   5.784 -0.2610  0.3413 -0.2320
 7026TIP3    H121960   5.058   1.643   5.699 -0.0996  1.0421 -0.4743
 7026TIP3    H221961   4.976   1.752   5.764 -0.4658  0.3330  0.2777
 7027TIP3   OH221962   8.781   1.509   1.505  0.1010  0.2209 -0.4258
 7027TIP3    H121963   8.694   1.516   1.543  0.8273  1.5812  1.0689
 7027TIP3    H221964   8.776   1.560   1.424 -0.7162 -0.5208 -0.8723
 7028TIP3   OH221965   1.933   2.113  10.037 -0.3831 -0.1555 -0.2330
 7028TIP3    H121966   1.890   2.028  10.035 -1.2707  0.1483  2.6257
 7028TIP3    H221967   2.027   2.092  10.029 -0.6362 -1.3063 -0.4093
 7029TIP3   OH221968   2.452   5.689   9.646 -0.5949  0.5107 -0.2806
 7029TIP3    H121969   2.447   5.677   9.741 -0.1136  0.2803 -0.2804
 7029TIP3    H221970   2.511   5.764   9.635 -0.4048  0.3444 -0.4052
 7030TIP3   OH221971   9.054   3.383  10.656  0.0493 -0.3023 -0.4009
 7030TIP3    H121972   9.006   3.453  10.612 -1.3341 -0.5671  0.6148
 7030TIP3    H221973   8.987   3.333  10.703  1.4558  1.0707  3.5549
 7031TIP3   OH221974   8.674   4.502   0.236 -0.4472  0.4423 -0.0203
 7031TIP3    H121975   8.762   4.476   0.265 -0.6566 -0.3460 -0.0830
 7031TIP3    H221976   8.688   4.536   0.147 -0.3016 -0.3764 -0.3227
 7032TIP3   OH221977   8.499   4.756   9.435 -0.5473 -0.2231 -0.4116
 7032TIP3    H121978   8.487   4.794   9.348 -1.1097 -0.7884 -0.5854
 7032TIP3    H221979   8.441   4.680   9.437 -2.3330  1.0682  1.2680
 7033TIP3   OH221980   2.870  10.652   9.922  0.1554 -0.4796 -0.0729
 7033TIP3    H121981   2.801  10.694   9.871 -0.6434 -1.1729  0.3935
 7033TIP3    H221982   2.937  10.719   9.933  0.1036 -0.1511 -1.5495
 7034TIP3   OH221983   9.617   7.488   6.858  0.2899  0.5732 -0.0511
 7034TIP3    H121984   9.571   7.491   6.774  1.2015 -0.0911 -0.5993
 7034TIP3    H221985   9.555   7.523   6.921 -2.0318 -2.6494 -0.2734
 7035TIP3   OH221986   2.779  10.191   4.201 -0.2933 -0.2034 -0.2162
 7035TIP3    H121987   2.832  10.116   4.229 -1.1354 -0.8281 -0.2255
 7035TIP3    H221988   2.690  10.167   4.226 -0.7813  0.1577 -1.5300
 7036TIP3   OH221989   0.583   9.551  10.469  0.1983 -0.1460 -0.2987
 7036TIP3    H121990   0.667   9.581  10.433 -0.6709  0.4467 -1.9234
 7036TIP3    H221991   0.596   9.457  10.485  1.4410  0.1125  0.3214
 7037TIP3   OH221992   1.805   7.745  10.344 -0.2350  0.7450  0.0098
 7037TIP3    H121993   1.837   7.828  10.308 -3.1676  1.5177 -1.1570
 7037TIP3    H221994   1.769   7.699  10.269 -0.1635 -0.8624  0.9175
 7038TIP3   OH221995   3.978   6.054   8.994 -0.2785 -0.1046  0.6642
 7038TIP3    H121996   3.891   6.094   8.989 -0.5074 -0.5727  0.7546
 7038TIP3    H221997   3.969   5.989   9.064  0.1011 -0.2616  0.5676
 7039TIP3   OH221998   0.605   8.843   7.181  0.5399 -0.0126 -0.1046
 7039TIP3    H121999   0.560   8.836   7.097 -1.2599 -2.3820  0.9298
 7039TIP3    H222000   0.548   8.897   7.235  1.2940  0.8310 -0.1201
 7040TIP3   OH222001   8.680   1.411   6.039  0.1128 -0.3008 -0.1862
 7040TIP3    H122002   8.637   1.329   6.062  1.1986 -1.4165 -1.8953
 7040TIP3    H222003   8.766   1.385   6.006  0.6696  1.5672 -0.3492
 7041TIP3   OH222004   2.981   4.434   5.002 -0.3037 -0.3326 -0.9166
 7041TIP3    H122005   2.899   4.405   5.041 -0.5995 -0.0102 -1.2900
 7041TIP3    H222006   3.041   4.361   5.014 -0.8395 -0.8308 -1.2460
 7042TIP3   OH222007   8.412   8.198   0.910 -0.0775 -0.1345 -0.4504
 7042TIP3    H122008   8.472   8.242   0.850  0.4970 -1.5340 -0.9162
 7042TIP3    H222009   8.326   8.233   0.886  0.5076  2.1052  0.4154
 7043TIP3   OH222010   6.333   7.790   0.219  0.1667 -0.3972 -0.3075
 7043TIP3    H122011   6.316   7.825   0.306  0.5313  1.4397 -0.9163
 7043TIP3    H222012   6.420   7.750   0.226  0.3654  0.0932  0.0825
 7044TIP3   OH222013  10.652   2.540   9.758  0.8050  0.6874 -0.0393
 7044TIP3    H122014  10.708   2.484   9.705 -0.4455 -0.0237 -0.6420
 7044TIP3    H222015  10.629   2.486   9.834 -0.9540  0.0830 -0.9523
 7045TIP3   OH222016   2.778   1.726   6.881  0.1331 -1.5835  0.0614
 7045TIP3    H122017   2.743   1.767   6.801  2.2549  1.1398  0.3543
 7045TIP3    H222018   2.709   1.737   6.946  0.4996  1.7588  0.0928
 7046TIP3   OH222019   0.018   9.618   7.034  0.5570  0.4968  0.0976
 7046TIP3    H122020   0.011   9.588   7.125  1.5619  0.5116  0.1869
 7046TIP3    H222021   0.048   9.708   7.041 -2.6819  1.7247 -0.1685
 7047TIP3   OH222022   0.812   5.320   5.568  0.0535  0.6515  0.0969
 7047TIP3    H122023   0.896   5.308   5.611  0.0697  0.1148 -0.0784
 7047TIP3    H222024   0.831   5.311   5.474 -0.1572  0.7702  0.0404
 7048TIP3   OH222025   3.593   3.902  10.324  0.1221 -0.4866  1.0222
 7048TIP3    H122026   3.672   3.905  10.379  1.3626 -1.0826 -0.6319
 7048TIP3    H222027   3.602   3.822  10.273 -1.2431 -0.2310  0.3313
 7049TIP3   OH222028   3.061   9.265   5.072  0.5981  0.3616 -0.0604
 7049TIP3    H122029   3.003   9.332   5.035  0.8724  0.2855 -0.6406
 7049TIP3    H222030   3.148   9.305   5.070  0.9020 -0.2968 -1.1799
 7050TIP3   OH222031   7.527   2.597   7.184  0.4371 -0.3607 -0.4716
 7050TIP3    H122032   7.581   2.534   7.231 -2.2756 -2.1805  0.4029
 7050TIP3    H222033   7.551   2.585   7.092 -0.0851 -2.8326 -0.3496
 7051TIP3   OH222034   8.615   0.394   7.934 -0.1308 -0.2765 -0.1731
 7051TIP3    H122035   8.528   0.374   7.969  0.1519  2.6194  2.5736
 7051TIP3    H222036   8.676   0.368   8.004  0.9938  0.3503 -0.8889
 7052TIP3   OH222037   4.317   2.163   1.534  0.2572  0.6396 -0.1508
 7052TIP3    H122038   4.256   2.113   1.479  0.0530  0.6207  0.0905
 7052TIP3    H222039   4.394   2.174   1.479 -0.3336  1.5392 -0.8315
 7053TIP3   OH222040   4.202   6.732   3.251  0.0402  0.3011  0.3333
 7053TIP3    H122041   4.145   6.711   3.177  0.2918  0.1201  0.1923
 7053TIP3    H222042   4.149   6.713   3.328  0.2958 -0.9638  0.2150
 7054TIP3   OH222043   6.280   6.268   8.356 -0.3664  0.3821  0.0036
 7054TIP3    H122044   6.331   6.221   8.421 -1.1622 -0.4071  0.0838
 7054TIP3    H222045   6.232   6.334   8.406 -1.9600 -1.0499  0.4549
 7055TIP3   OH222046   4.861   6.821   1.298  0.1016 -0.3900  0.9315
 7055TIP3    H122047   4.868   6.768   1.219  1.4518  0.2886  0.5674
 7055TIP3    H222048   4.769   6.813   1.324 -1.4343  2.2833 -2.7823
 7056TIP3   OH222049   3.620   1.430   5.331 -0.0032  0.3348  0.7640
 7056TIP3    H122050   3.689   1.442   5.265  0.9102 -2.2489  1.1529
 7056TIP3    H222051   3.655   1.365   5.392 -2.1914  0.0825  1.8582
 7057TIP3   OH222052  10.172   6.941   8.277  0.6663 -0.1244  0.0373
 7057TIP3    H122053  10.220   6.861   8.258  1.1341  0.3361 -0.7466
 7057TIP3    H222054  10.235   7.011   8.264  0.1415  0.4061  0.2868
 7058TIP3   OH222055   2.253   5.181   4.437 -0.1282  0.1749  0.2244
 7058TIP3    H122056   2.323   5.144   4.492  0.1387 -0.6778 -0.6596
 7058TIP3    H222057   2.200   5.105   4.413 -0.7121  0.6630 -0.0261
 7059TIP3   OH222058   7.102   0.253   8.070  0.2990  0.0993 -0.2258
 7059TIP3    H122059   7.098   0.158   8.072  1.3585  0.0383  1.8982
 7059TIP3    H222060   7.160   0.273   7.996  1.9476 -1.0365  0.7026
 7060TIP3   OH222061   6.299   9.497   0.091 -0.6357 -0.5689  0.3349
 7060TIP3    H122062   6.354   9.428   0.129  2.2635  1.1757 -0.3995
 7060TIP3    H222063   6.255   9.454   0.017  3.6981 -1.0863 -2.3052
 7061TIP3   OH222064   6.019   5.336   5.169  0.3591 -0.4057 -0.1277
 7061TIP3    H122065   6.078   5.410   5.181  1.3297 -0.8691 -1.7669
 7061TIP3    H222066   6.031   5.283   5.247  1.6075 -0.1396 -0.1167
 7062TIP3   OH222067   6.993   6.526   4.262 -0.2126  0.2779  0.1511
 7062TIP3    H122068   7.071   6.552   4.312  0.7000 -3.2806  0.8929
 7062TIP3    H222069   6.928   6.504   4.329 -0.8793  0.6165 -0.3851
 7063TIP3   OH222070   5.496   3.948   8.001  0.2404 -0.0333  0.3686
 7063TIP3    H122071   5.524   3.926   8.090 -1.3248 -1.8390  0.4747
 7063TIP3    H222072   5.447   4.030   8.012  2.5493  1.4297  0.6343
 7064TIP3   OH222073   2.097   6.364  10.729  0.3129  0.0760 -0.3639
 7064TIP3    H122074   2.077   6.446  10.685  1.0107  0.7675  0.5555
 7064TIP3    H222075   2.033   6.359  10.801 -1.5967 -1.6220 -2.0608
 7065TIP3   OH222076   4.613   7.200   2.849 -0.2403  0.7658 -0.0313
 7065TIP3    H122077   4.534   7.180   2.899 -0.2833 -2.1711 -1.0875
 7065TIP3    H222078   4.676   7.134   2.877  0.6168  0.7782 -1.8302
 7066TIP3   OH222079   7.894   9.081   9.368 -0.0568  0.2075 -0.3753
 7066TIP3    H122080   7.953   9.006   9.360  0.3564  0.1441  2.3715
 7066TIP3    H222081   7.806   9.043   9.368  0.1269 -0.2256  0.3693
 7067TIP3   OH222082   7.955   4.951   0.116 -0.0848 -0.1440  0.7349
 7067TIP3    H122083   7.888   4.912   0.174 -1.2753 -0.1016 -0.5554
 7067TIP3    H222084   7.904   4.997   0.049  1.1846 -1.2902 -1.1118
 7068TIP3   OH222085   0.709   2.147   5.228 -0.4548 -0.1324  0.0429
 7068TIP3    H122086   0.647   2.206   5.183  1.3462  0.5555 -1.7091
 7068TIP3    H222087   0.730   2.081   5.162  0.0338 -0.8695  0.9189
 7069TIP3   OH222088   5.488   1.380   4.263  0.0404  0.8754 -0.3361
 7069TIP3    H122089   5.540   1.352   4.188  0.2175  1.4736 -0.4429
 7069TIP3    H222090   5.414   1.319   4.266  1.8165 -1.3773  1.0948
 7070TIP3   OH222091   4.397   6.193  10.573  0.1389  0.7041 -0.0877
 7070TIP3    H122092   4.438   6.265  10.621 -0.2402 -0.3876  1.9704
 7070TIP3    H222093   4.469   6.134  10.552 -0.0129 -0.2217  1.7584
 7071TIP3   OH222094   8.021   8.673   7.524  0.6747  0.0930 -0.3901
 7071TIP3    H122095   7.973   8.704   7.448  0.1291 -0.1262 -0.1449
 7071TIP3    H222096   7.980   8.718   7.598  1.3513  0.4849 -0.2390
 7072TIP3   OH222097   8.991   6.824   2.150  0.0682 -0.1135  0.6187
 7072TIP3    H122098   9.001   6.734   2.121  0.3730 -0.0771  0.6071
 7072TIP3    H222099   8.952   6.869   2.076  2.6643  0.4208 -0.5412
 7073TIP3   OH222100   9.449  10.445   5.772  0.2434 -0.3304  0.2280
 7073TIP3    H122101   9.489  10.369   5.815  1.6459  0.5940  0.6217
 7073TIP3    H222102   9.374  10.466   5.826 -0.1365 -1.3823  0.1464
 7074TIP3   OH222103   3.476   5.661   2.629 -0.5580 -0.2915 -0.1639
 7074TIP3    H122104   3.537   5.735   2.634 -1.9389  1.0674 -1.8851
 7074TIP3    H222105   3.496   5.619   2.546 -0.1627 -1.5401  0.5459
 7075TIP3   OH222106   5.910   0.267   5.387  0.0692 -0.3415 -0.3848
 7075TIP3    H122107   5.928   0.271   5.481  0.4745  0.7277 -0.4861
 7075TIP3    H222108   5.975   0.325   5.348  0.4366 -1.4219 -1.4182
 7076TIP3   OH222109   4.482   7.145   3.500 -0.1981  0.5504 -0.2365
 7076TIP3    H122110   4.511   7.054   3.492  0.2214  0.6773 -0.1774
 7076TIP3    H222111   4.393   7.140   3.535 -0.4150  0.1375 -0.8249
 7077TIP3   OH222112   1.218   3.984   5.814 -0.4217 -0.2644  0.1210
 7077TIP3    H122113   1.154   3.932   5.862  1.3103 -1.5908  1.1016
 7077TIP3    H222114   1.282   3.921   5.782  0.8088  1.0679 -0.1927
 7078TIP3   OH222115   8.281   5.283   7.993  0.5800 -0.1240  0.0578
 7078TIP3    H122116   8.247   5.209   8.043  0.0786  1.2449  1.8479
 7078TIP3    H222117   8.288   5.354   8.057 -0.3505  1.8201 -1.8712
 7079TIP3   OH222118   4.036   7.848   5.017  0.0468 -0.4594 -0.0280
 7079TIP3    H122119   4.044   7.863   5.111  0.5575  1.4120 -0.3260
 7079TIP3    H222120   4.010   7.933   4.981  0.8791 -0.8584 -1.6875
 7080TIP3   OH222121   3.038   1.302   6.867 -0.0576  0.6598  0.2845
 7080TIP3    H122122   2.953   1.347   6.868 -0.6832 -0.4133 -1.2467
 7080TIP3    H222123   3.102   1.372   6.858 -1.0013  1.3484 -1.8869
 7081TIP3   OH222124   1.825   1.733   9.528  0.3184 -0.2223 -0.7071
 7081TIP3    H122125   1.828   1.726   9.432  1.3465  1.0646 -0.8032
 7081TIP3    H222126   1.828   1.828   9.544 -0.0815 -0.4225  0.5961
 7082TIP3   OH222127   8.666   3.496   2.981  0.4052 -0.5031 -0.0387
 7082TIP3    H122128   8.603   3.540   3.039  1.1484  1.9053 -0.9175
 7082TIP3    H222129   8.638   3.404   2.980 -1.3693 -0.0550  1.7996
 7083TIP3   OH222130   0.538   3.385  10.310  0.1573 -0.4199  0.3125
 7083TIP3    H122131   0.518   3.434  10.230  0.5810 -1.4889 -0.4901
 7083TIP3    H222132   0.589   3.444  10.364 -0.9853  0.6683  0.2395
 7084TIP3   OH222133  10.830  10.291   3.274 -0.2242  0.1374 -0.1161
 7084TIP3    H122134  10.775  10.224   3.314  1.0012  0.0433  1.5060
 7084TIP3    H222135  10.846  10.355   3.343  2.6049 -0.4438 -0.0738
 7085TIP3   OH222136   8.096   7.572   0.427 -0.7424  0.3037 -0.1318
 7085TIP3    H122137   8.076   7.622   0.506 -0.1346 -0.9980  0.8784
 7085TIP3    H222138   8.068   7.483   0.446 -0.0068 -0.1665 -1.1364
 7086TIP3   OH222139   6.319   1.737  10.368 -0.1811 -0.0173 -0.2248
 7086TIP3    H122140   6.367   1.817  10.345 -1.1484  0.6369 -0.0204
 7086TIP3    H222141   6.378   1.690  10.427  0.3571  0.5932 -0.2648
 7087TIP3   OH222142   1.306   0.867   0.464 -0.3649 -0.2449  0.4406
 7087TIP3    H122143   1.318   0.834   0.375  1.4767  0.7251  0.2799
 7087TIP3    H222144   1.232   0.816   0.499 -1.5367 -0.2209 -1.8249
 7088TIP3   OH222145  10.796   7.943   6.211  0.2159 -0.3290  0.2542
 7088TIP3    H122146  10.714   7.910   6.246  0.1434  0.1641  0.5516
 7088TIP3    H222147  10.800   8.034   6.239  0.6789 -0.2379 -0.0890
 7089TIP3   OH222148   4.032   2.928   3.084  0.7420  0.0198 -0.1095
 7089TIP3    H122149   4.095   2.874   3.132 -1.4462 -3.4232 -0.8054
 7089TIP3    H222150   3.963   2.947   3.148  0.8636  0.9553 -0.2391
 7090TIP3   OH222151  10.178   3.511  10.091  0.3716 -0.1792  0.1189
 7090TIP3    H122152  10.083   3.506  10.105  0.5953 -1.1009  1.5013
 7090TIP3    H222153  10.216   3.468  10.168  1.9385  0.8310 -0.0494
 7091TIP3   OH222154   4.483   1.551   8.422 -0.4287  0.1314 -0.2798
 7091TIP3    H122155   4.393   1.530   8.395 -0.6241  1.0405 -0.3752
 7091TIP3    H222156   4.476   1.571   8.515 -0.5068  1.1343 -0.4868
 7092TIP3   OH222157   4.332   4.578   2.455 -0.1015 -0.1944 -0.3128
 7092TIP3    H122158   4.236   4.574   2.457 -0.2481  1.6913  2.0454
 7092TIP3    H222159   4.351   4.672   2.463  1.9639 -0.4604 -1.5787
 7093TIP3   OH222160   9.493   9.308   8.741  0.1823 -0.0994 -0.4381
 7093TIP3    H122161   9.541   9.226   8.729 -1.1746 -1.0505  0.2670
 7093TIP3    H222162   9.540   9.353   8.811  0.1664 -0.9408  0.1360
 7094TIP3   OH222163   3.889   7.555   2.297 -0.1735  0.0634 -0.0814
 7094TIP3    H122164   3.944   7.520   2.228 -1.8647 -3.1556  0.0401
 7094TIP3    H222165   3.928   7.524   2.379 -0.0034  1.1052  0.2518
 7095TIP3   OH222166   4.672   2.372   5.630  0.0043 -0.4413 -0.4897
 7095TIP3    H122167   4.679   2.360   5.535  0.1155 -1.1804 -0.3941
 7095TIP3    H222168   4.756   2.410   5.655  0.7789 -2.0992 -0.4260
 7096TIP3   OH222169   6.585   4.574   0.417 -0.0778 -0.6774 -0.3843
 7096TIP3    H122170   6.615   4.644   0.360  2.0003 -1.1338  0.0689
 7096TIP3    H222171   6.542   4.512   0.358  0.5641 -0.3510 -1.2152
 7097TIP3   OH222172   5.867   7.747   8.055  0.2241  0.3273  0.0335
 7097TIP3    H122173   5.837   7.773   8.143  1.3972 -1.0966  0.9110
 7097TIP3    H222174   5.786   7.731   8.006 -0.4807 -0.1450  1.2910
 7098TIP3   OH222175   8.101   3.526  10.335  0.2852 -0.6453 -0.5772
 7098TIP3    H122176   8.015   3.506  10.370 -0.1730  0.8186 -0.7924
 7098TIP3    H222177   8.154   3.547  10.412  0.3195 -1.0541 -0.4853
 7099TIP3   OH222178   7.067   9.305   0.801  0.4182  0.0680  0.6722
 7099TIP3    H122179   6.995   9.256   0.762  0.9008  0.5224 -0.8383
 7099TIP3    H222180   7.095   9.252   0.875  0.7604 -1.8266 -0.7558
 7100TIP3   OH222181   0.693   5.507   9.688 -0.4266  0.0982  0.2014
 7100TIP3    H122182   0.688   5.412   9.698 -0.1548 -0.0675 -1.0144
 7100TIP3    H222183   0.787   5.525   9.689 -0.5054  0.5213  1.6617
 7101TIP3   OH222184   0.515   8.652   5.242  0.2029  0.1142  0.0046
 7101TIP3    H122185   0.456   8.644   5.317  1.8971  3.2451  1.9509
 7101TIP3    H222186   0.602   8.633   5.278  0.7652 -1.8859 -2.1533
 7102TIP3   OH222187   2.912   6.994   2.249 -0.2169 -0.0679 -0.4184
 7102TIP3    H122188   2.976   7.064   2.247  0.6609 -0.8541 -1.8261
 7102TIP3    H222189   2.872   6.995   2.162 -0.8759 -0.6773 -0.1348
 7103TIP3   OH222190   0.116   7.601   0.666  0.3294  0.0405  0.6223
 7103TIP3    H122191   0.025   7.581   0.644  0.1798  0.9751  0.3711
 7103TIP3    H222192   0.139   7.675   0.611  1.2128 -0.1027  0.7762
 7104TIP3   OH222193   2.933   0.430   0.494 -0.0051 -0.0448 -0.2921
 7104TIP3    H122194   2.885   0.448   0.575 -1.1795 -0.8349 -0.7886
 7104TIP3    H222195   3.005   0.373   0.522 -0.5917 -0.5819  0.1533
 7105TIP3   OH222196   5.540   3.554   9.121 -0.3846  0.1605  0.0480
 7105TIP3    H122197   5.570   3.612   9.051 -0.2628  0.5303  0.4009
 7105TIP3    H222198   5.444   3.557   9.116 -0.3767  0.2386 -0.0614
 7106TIP3   OH222199  10.199  10.051   2.444  0.1151 -0.2448 -0.3805
 7106TIP3    H122200  10.168   9.980   2.389  1.1147 -0.7371 -0.3242
 7106TIP3    H222201  10.203  10.014   2.533  1.9819 -0.5872 -0.5644
 7107TIP3   OH222202   7.734  10.296   0.525  0.5852  0.0276 -0.1817
 7107TIP3    H122203   7.753  10.373   0.472  1.9966  0.2181  0.5405
 7107TIP3    H222204   7.649  10.315   0.566  0.5610  0.8617 -0.6078
 7108TIP3   OH222205   4.754   7.227   4.714  0.8200 -0.1192  0.4449
 7108TIP3    H122206   4.661   7.205   4.719  0.9613 -0.8306  0.0414
 7108TIP3    H222207   4.760   7.313   4.756 -0.0006 -0.1104  0.5681
 7109TIP3   OH222208   7.739   6.707   9.381  0.4220 -0.0721 -0.0349
 7109TIP3    H122209   7.824   6.750   9.384  0.2708  0.2140  0.4102
 7109TIP3    H222210   7.710   6.716   9.290 -0.8671  3.3444  0.5615
 7110TIP3   OH222211   5.472   7.730   2.032  0.1474 -0.1073  0.0120
 7110TIP3    H122212   5.496   7.720   1.940  0.2229 -0.0939  0.0300
 7110TIP3    H222213   5.408   7.661   2.048  0.0370 -0.0285 -0.0844
 7111TIP3   OH222214   9.209   3.080   8.079 -0.3616 -0.4418  0.4156
 7111TIP3    H122215   9.281   3.017   8.080 -0.0989 -0.1462  0.6849
 7111TIP3    H222216   9.130   3.027   8.087 -0.2831 -0.8868 -1.3326
 7112TIP3   OH222217   1.360   1.563   5.640 -0.5453 -0.1396  0.2232
 7112TIP3    H122218   1.340   1.654   5.660 -1.5626 -0.4514  0.6706
 7112TIP3    H222219   1.447   1.549   5.677  1.2995  1.6419 -2.9813
 7113TIP3   OH222220   9.462   1.006   2.011  0.3948  0.7409  0.7263
 7113TIP3    H122221   9.531   0.995   1.946  1.4481  0.5848  1.8235
 7113TIP3    H222222   9.470   0.929   2.067 -3.4459 -1.5689 -1.4865
 7114TIP3   OH222223   6.620   2.989   6.721  0.2598  0.1824 -0.0818
 7114TIP3    H122224   6.599   3.011   6.812 -0.7280 -1.3070  0.0967
 7114TIP3    H222225   6.640   3.073   6.679  1.3914  0.8336  1.6559
 7115TIP3   OH222226   4.293   2.129   5.153 -0.0073  0.1015  0.9411
 7115TIP3    H122227   4.383   2.147   5.179  0.9714 -0.7804 -1.5882
 7115TIP3    H222228   4.292   2.036   5.130 -1.0643  0.5119 -0.8658
 7116TIP3   OH222229   1.093   2.899   7.176 -0.3386 -0.0581 -0.3027
 7116TIP3    H122230   1.133   2.834   7.118  1.4299 -0.1615  0.9187
 7116TIP3    H222231   1.134   2.982   7.152 -0.6068  0.1346 -0.1083
 7117TIP3   OH222232   6.668   5.614   8.347 -0.1399  0.3655 -0.2180
 7117TIP3    H122233   6.590   5.612   8.402 -0.2610  3.1607 -0.1636
 7117TIP3    H222234   6.640   5.578   8.263 -1.1219  0.1556  0.1931
 7118TIP3   OH222235   8.126  10.680  10.013 -0.5424 -0.1606 -0.4375
 7118TIP3    H122236   8.066  10.613  10.048 -0.3980 -0.4491 -0.7298
 7118TIP3    H222237   8.069  10.750   9.983 -0.7533 -0.4991 -0.8506
 7119TIP3   OH222238   1.993   2.580   4.103 -0.4373 -0.7626 -0.1575
 7119TIP3    H122239   2.055   2.534   4.159  1.8473 -0.2741 -2.1142
 7119TIP3    H222240   1.953   2.511   4.050  0.3764 -0.8782 -0.6456
 7120TIP3   OH222241   6.528   8.613   7.122  0.0242 -0.4752  0.4227
 7120TIP3    H122242   6.560   8.527   7.093  1.0822  0.3815 -1.1005
 7120TIP3    H222243   6.558   8.673   7.054 -2.3652  0.8485  0.4573
 7121TIP3   OH222244   7.990   5.062   3.343 -0.1023  0.2132  0.3444
 7121TIP3    H122245   7.985   5.011   3.262  0.7954 -0.4687  0.7050
 7121TIP3    H222246   8.052   5.014   3.398  0.4760  1.4957  0.8435
 7122TIP3   OH222247   1.237   0.806   5.918 -0.3229  0.2375  0.5345
 7122TIP3    H122248   1.227   0.787   6.011  1.1501 -2.0185  0.3239
 7122TIP3    H222249   1.208   0.726   5.874 -0.1101  0.9188 -0.9084
 7123TIP3   OH222250  10.202   8.307   7.626 -0.3440 -0.0357  0.0633
 7123TIP3    H122251  10.162   8.256   7.696 -0.3738 -1.2204 -0.7950
 7123TIP3    H222252  10.252   8.244   7.575  1.3984  1.1420  0.2075
 7124TIP3   OH222253   1.993  10.630   6.447 -0.2587 -0.0613 -0.6218
 7124TIP3    H122254   1.989  10.559   6.382 -0.4168 -0.2437 -0.4140
 7124TIP3    H222255   1.968  10.588   6.529  0.9614 -0.0697 -0.2401
 7125TIP3   OH222256   8.296   0.452   0.179  0.6334  0.4375  0.1886
 7125TIP3    H122257   8.319   0.380   0.120  1.9456  1.4469 -0.5877
 7125TIP3    H222258   8.279   0.526   0.121 -0.3047  0.8692  0.9923
 7126TIP3   OH222259  10.900   8.932   6.212 -0.0801 -0.3292  0.2500
 7126TIP3    H122260  10.839   9.001   6.188  0.2612 -0.6806 -1.8442
 7126TIP3    H222261  10.861   8.852   6.176  0.9359 -0.7608  0.0754
 7127TIP3   OH222262   6.808   7.840   4.950 -0.3443 -0.7270  0.3247
 7127TIP3    H122263   6.717   7.812   4.959 -1.0973  1.2763 -0.4826
 7127TIP3    H222264   6.817   7.913   5.011  0.2392  0.1266 -0.7545
 7128TIP3   OH222265   9.716   8.535   4.391 -0.1204  0.4622 -0.2937
 7128TIP3    H122266   9.786   8.500   4.336 -0.3000  0.0907 -0.2903
 7128TIP3    H222267   9.640   8.481   4.370 -0.3795  0.7937 -0.2198
 7129TIP3   OH222268   8.933   0.990   4.033 -0.1837  0.4619  0.7432
 7129TIP3    H122269   8.875   0.981   3.957 -0.3155  1.1738  0.7496
 7129TIP3    H222270   9.021   0.984   3.998 -0.2139  1.8538  0.3524
 7130TIP3   OH222271   4.669   4.582  10.401  0.6352 -0.1332  0.0838
 7130TIP3    H122272   4.710   4.638  10.335  2.0582 -0.6269  0.5042
 7130TIP3    H222273   4.714   4.605  10.482  1.5603 -2.1352  0.2047
 7131TIP3   OH222274  10.397   8.575   4.398  0.4579  0.0056  0.1031
 7131TIP3    H122275  10.308   8.546   4.415  0.0931 -0.0751 -1.7467
 7131TIP3    H222276  10.390   8.632   4.322  1.8127  1.1460  0.7795
 7132TIP3   OH222277   2.508   4.169   7.495 -0.3524 -0.1733 -0.3959
 7132TIP3    H122278   2.498   4.240   7.431  0.4322  1.1404  0.8707
 7132TIP3    H222279   2.527   4.092   7.441 -1.1672  0.5676 -1.8194
 7133TIP3   OH222280   5.794   7.828   7.241  0.0205  0.2352  0.5718
 7133TIP3    H122281   5.758   7.888   7.176 -2.2469  1.3380  2.6769
 7133TIP3    H222282   5.732   7.755   7.242  0.8210 -0.4585  0.5286
 7134TIP3   OH222283   7.321   3.903   2.722 -0.5350 -0.2475 -0.0166
 7134TIP3    H122284   7.310   3.907   2.817  0.0818 -0.4044  0.0629
 7134TIP3    H222285   7.326   3.995   2.694  1.0639 -0.2001  0.3243
 7135TIP3   OH222286   6.707   0.999   1.647  0.3463  0.2142 -0.6051
 7135TIP3    H122287   6.616   1.026   1.659  0.5819  1.0514 -0.5793
 7135TIP3    H222288   6.720   0.928   1.710 -0.2588  0.1630 -0.5324
 7136TIP3   OH222289   3.308   8.788   6.814 -0.1350 -0.4942  0.0836
 7136TIP3    H122290   3.373   8.734   6.769 -0.4688 -1.2966  0.5386
 7136TIP3    H222291   3.359   8.835   6.880  0.6053  1.7604 -1.9525
 7137TIP3   OH222292   2.389   5.917   6.826  0.3514  0.3477 -0.3836
 7137TIP3    H122293   2.336   5.908   6.747  0.0998  0.4372 -0.2279
 7137TIP3    H222294   2.473   5.950   6.796  0.4448 -0.1555 -0.6769
 7138TIP3   OH222295   9.519   2.768   6.007  0.4238  0.3294 -0.3583
 7138TIP3    H122296   9.570   2.775   6.088  1.2421 -1.5176 -0.6624
 7138TIP3    H222297   9.539   2.680   5.974 -2.0041  0.0026 -1.1436
 7139TIP3   OH222298   7.263   5.466   1.709  0.0651  0.3157  0.1147
 7139TIP3    H122299   7.338   5.473   1.768 -0.4073  1.2976  0.6250
 7139TIP3    H222300   7.268   5.545   1.655 -0.5807  0.3688  0.1271
 7140TIP3   OH222301   4.720   9.776   9.187  0.2979 -0.0623 -0.4057
 7140TIP3    H122302   4.767   9.817   9.114 -1.5849  0.3777 -1.4290
 7140TIP3    H222303   4.750   9.685   9.185 -0.3975 -0.3165 -2.4093
 7141TIP3   OH222304   9.654   2.336   0.760 -0.2101 -0.1422  0.6714
 7141TIP3    H122305   9.667   2.290   0.843 -0.8676 -0.1685  0.7699
 7141TIP3    H222306   9.581   2.396   0.777  0.1415  0.3884  0.3259
 7142TIP3   OH222307   6.836   9.976   6.649  0.3743 -0.1708  0.5428
 7142TIP3    H122308   6.838   9.881   6.661 -1.0192 -0.1014  1.5122
 7142TIP3    H222309   6.744  10.000   6.662  0.1832  1.0107 -2.2130
 7143TIP3   OH222310   9.107   3.405   7.473  0.4242 -0.1805  0.0863
 7143TIP3    H122311   9.056   3.485   7.478 -1.4620 -1.3466  0.6184
 7143TIP3    H222312   9.169   3.420   7.401 -0.1030  1.5999 -0.0274
 7144TIP3   OH222313   5.048   0.473   1.817 -0.3889 -0.2302  0.4483
 7144TIP3    H122314   5.104   0.501   1.744  1.4424 -1.4823  1.2931
 7144TIP3    H222315   5.109   0.458   1.890 -1.8269 -1.5663  1.4476
 7145TIP3   OH222316   8.473   2.721   9.605 -0.1745 -0.0276 -0.0438
 7145TIP3    H122317   8.512   2.753   9.686  2.2266 -2.2378 -0.2169
 7145TIP3    H222318   8.467   2.799   9.549 -0.6236  1.2699  1.7415
 7146TIP3   OH222319   5.215   9.296   4.412  0.1507  0.0442  0.0707
 7146TIP3    H122320   5.148   9.287   4.480 -1.3780  0.3908 -1.3198
 7146TIP3    H222321   5.219   9.209   4.372  1.1827 -0.2099  0.6979
 7147TIP3   OH222322   7.036   8.329   5.459 -0.3900 -0.1251 -0.3195
 7147TIP3    H122323   7.020   8.237   5.477 -0.4534 -0.0775 -0.1190
 7147TIP3    H222324   6.965   8.375   5.505  0.7126  0.1358  1.2189
 7148TIP3   OH222325   0.626   6.208   4.389  0.0107  0.2514  0.2482
 7148TIP3    H122326   0.691   6.205   4.459  0.2737  1.4205  0.0794
 7148TIP3    H222327   0.673   6.176   4.312 -0.0003 -0.1398  0.4015
 7149TIP3   OH222328   6.145   8.115   3.937 -0.4051 -0.4182  0.0146
 7149TIP3    H122329   6.078   8.179   3.961  1.6249  1.3260  1.3097
 7149TIP3    H222330   6.210   8.166   3.889 -0.0874 -2.1427 -1.5032
 7150TIP3   OH222331   7.913   2.838   2.629  0.0701  0.7087  0.3372
 7150TIP3    H122332   7.941   2.861   2.717  4.5704 -2.0507 -0.0320
 7150TIP3    H222333   7.927   2.918   2.577 -1.5488  2.0154  1.7984
 7151TIP3   OH222334   6.636   3.490   2.790 -0.4767  0.4787  0.2491
 7151TIP3    H122335   6.706   3.448   2.841 -1.1991 -0.0723  0.8200
 7151TIP3    H222336   6.671   3.575   2.766 -0.1520  0.8007  1.7876
 7152TIP3   OH222337   9.280   9.811   2.395 -0.3862 -0.3820 -0.2354
 7152TIP3    H122338   9.289   9.896   2.439  0.2296 -0.2449 -0.6120
 7152TIP3    H222339   9.353   9.809   2.333 -1.4003 -0.4261 -1.4811
 7153TIP3   OH222340   5.513  10.389   6.957 -0.2376  0.6346  0.6379
 7153TIP3    H122341   5.508  10.299   6.924  2.1533 -0.1752  2.1993
 7153TIP3    H222342   5.448  10.392   7.028 -0.3603  0.1483  0.5494
 7154TIP3   OH222343   8.826  10.295   8.173  0.5398 -0.2258 -0.7297
 7154TIP3    H122344   8.813  10.385   8.201  1.6278 -0.0070 -0.8964
 7154TIP3    H222345   8.749  10.248   8.207  0.5108  0.5353  0.3064
 7155TIP3   OH222346   8.062  10.502   6.305  0.4635 -0.3038  0.6506
 7155TIP3    H122347   8.131  10.482   6.242  0.6663 -1.2372  1.1505
 7155TIP3    H222348   8.078  10.443   6.379 -0.2008  0.2544  1.2670
 7156TIP3   OH222349   0.114   1.077   4.811  0.2933  1.2976 -0.1863
 7156TIP3    H122350   0.028   1.119   4.819 -0.9614 -1.1172 -0.1213
 7156TIP3    H222351   0.131   1.040   4.897  0.1194 -0.4505 -0.8508
 7157TIP3   OH222352   1.465   2.027   4.419 -0.1694  0.2041  0.8127
 7157TIP3    H122353   1.441   2.066   4.335  0.9778  0.4239  0.5725
 7157TIP3    H222354   1.395   2.055   4.479  0.3650  2.2719  0.5428
 7158TIP3   OH222355   9.806   0.370   6.849  0.6578 -0.1649  0.2637
 7158TIP3    H122356   9.763   0.411   6.775  0.5058  1.6156  1.2913
 7158TIP3    H222357   9.889   0.417   6.858  0.6981 -0.3892  1.1821
 7159TIP3   OH222358   6.976   9.070   4.798 -0.1186  0.5434  0.0127
 7159TIP3    H122359   6.984   9.011   4.723  0.4017 -0.0114  0.5010
 7159TIP3    H222360   7.034   9.143   4.777  1.0406 -0.2226  0.4375
 7160TIP3   OH222361   9.610   2.731   7.706  0.5692  0.2184 -0.2602
 7160TIP3    H122362   9.643   2.753   7.793  1.0606  2.7303 -1.0001
 7160TIP3    H222363   9.548   2.801   7.685 -1.5803 -1.7460 -0.9236
 7161TIP3   OH222364   6.075   8.351   3.524 -0.4471  0.1488 -0.2367
 7161TIP3    H122365   6.100   8.259   3.530  1.0423  0.5852  0.8606
 7161TIP3    H222366   6.119   8.383   3.446  0.7045  0.3912  0.4925
 7162TIP3   OH222367   1.889   1.813   4.827  0.6618 -0.4723  0.3902
 7162TIP3    H122368   1.973   1.822   4.783  0.7930 -0.3782  0.6579
 7162TIP3    H222369   1.828   1.865   4.774  0.8244 -0.3388  0.3355
 7163TIP3   OH222370   0.308   6.340   5.353 -0.1288 -0.3027  0.1168
 7163TIP3    H122371   0.257   6.421   5.357  0.0633 -0.2246  1.5100
 7163TIP3    H222372   0.250   6.273   5.389  0.8166 -0.1402  2.0999
 7164TIP3   OH222373   4.389   5.855   3.420  0.3304  0.6433  0.6349
 7164TIP3    H122374   4.453   5.834   3.488  2.2856 -1.0205 -1.5401
 7164TIP3    H222375   4.424   5.934   3.379 -0.0392  0.8159  0.6575
 7165TIP3   OH222376  10.873   3.035   5.478  0.2719 -0.0283 -0.7710
 7165TIP3    H122377  10.943   3.069   5.422  1.2654  0.5848  0.7763
 7165TIP3    H222378  10.900   2.946   5.499 -0.2541 -0.3655 -1.4866
 7166TIP3   OH222379   3.188   7.380   2.759 -0.5055  0.3408 -0.7173
 7166TIP3    H122380   3.139   7.304   2.788 -0.6266  0.6198 -0.1830
 7166TIP3    H222381   3.264   7.385   2.818 -1.7666  2.0434  0.8786
 7167TIP3   OH222382   9.219   3.828   6.290 -0.2957 -0.1941  0.1553
 7167TIP3    H122383   9.158   3.759   6.317 -0.2714  0.4109  1.9082
 7167TIP3    H222384   9.285   3.783   6.237 -1.1739 -1.2041 -0.1159
 7168TIP3   OH222385   1.278   7.771   8.580 -0.0821  0.5246  0.5711
 7168TIP3    H122386   1.322   7.746   8.662 -0.2051  0.4054  0.6016
 7168TIP3    H222387   1.310   7.707   8.516 -0.5414  0.1705  0.6917
 7169TIP3   OH222388   0.350   3.247   8.670 -1.2178 -0.2085 -0.1060
 7169TIP3    H122389   0.389   3.329   8.639 -0.4369 -0.4939  0.0777
 7169TIP3    H222390   0.426   3.193   8.694 -1.6251 -1.6840 -1.9261
 7170TIP3   OH222391   8.626   1.288  10.593  0.0018 -0.2677  0.6746
 7170TIP3    H122392   8.543   1.278  10.546 -0.5036 -0.4443  1.5766
 7170TIP3    H222393   8.638   1.382  10.600  0.1269 -0.2382  0.1196
 7171TIP3   OH222394   4.739   5.200   9.726  0.1013 -0.2182  0.3118
 7171TIP3    H122395   4.799   5.137   9.766 -1.8397 -2.9957 -0.8472
 7171TIP3    H222396   4.691   5.237   9.799  0.2524 -1.2163  0.9396
 7172TIP3   OH222397   0.568   6.721   1.439  0.3833 -0.0932  0.4463
 7172TIP3    H122398   0.514   6.652   1.401 -2.4807  1.8094  0.7176
 7172TIP3    H222399   0.599   6.684   1.522  1.0692 -1.8750 -0.5501
 7173TIP3   OH222400   7.324  10.312   1.404 -0.1243  0.1799  0.1034
 7173TIP3    H122401   7.256  10.320   1.338 -0.1401 -1.5140 -0.1256
 7173TIP3    H222402   7.305  10.382   1.467 -1.2332  0.6131 -0.6879
 7174TIP3   OH222403   8.684   9.184   1.060 -0.2344 -0.1618  0.3510
 7174TIP3    H122404   8.629   9.260   1.043  1.8852  1.9170  2.1228
 7174TIP3    H222405   8.707   9.152   0.973  0.9667  2.9354 -0.6111
 7175TIP3   OH222406   4.915   5.504   4.294 -0.3973  0.0559  0.1433
 7175TIP3    H122407   4.966   5.442   4.347 -0.3197  0.2331  0.2776
 7175TIP3    H222408   4.982   5.552   4.245 -0.4575  0.0447  0.0517
 7176TIP3   OH222409   7.414   3.937   4.907 -0.3380 -0.3079 -0.0015
 7176TIP3    H122410   7.344   3.883   4.868 -1.4698  0.9937  0.1520
 7176TIP3    H222411   7.394   3.937   5.000 -0.9756  1.2057 -0.1158
 7177TIP3   OH222412   3.278   3.468   6.343 -0.1402 -0.2475  0.2803
 7177TIP3    H122413   3.241   3.543   6.297  0.8647  0.1192  0.0586
 7177TIP3    H222414   3.359   3.501   6.383  0.7490 -1.4084 -0.5021
 7178TIP3   OH222415   8.819   1.719   9.989 -0.1597  0.6339 -0.5638
 7178TIP3    H122416   8.860   1.635   9.973 -0.1293  0.7351 -1.0174
 7178TIP3    H222417   8.744   1.722   9.930  0.0146  1.0533 -0.7699
 7179TIP3   OH222418   5.569   2.449   4.958 -0.7162  0.1746 -0.2715
 7179TIP3    H122419   5.475   2.432   4.951 -0.6374 -1.3273  1.3637
 7179TIP3    H222420   5.591   2.421   5.047  0.9977  2.0557 -0.0474
 7180TIP3   OH222421   7.513   7.023   6.257  0.3299  0.6887  0.1101
 7180TIP3    H122422   7.467   7.079   6.195 -0.8900 -0.3781  0.0155
 7180TIP3    H222423   7.483   7.053   6.343 -0.8815 -0.2559  0.0361
 7181TIP3   OH222424   3.500   6.691   1.423  0.6840 -0.1017 -0.3049
 7181TIP3    H122425   3.422   6.638   1.437  0.6359  0.3906  1.5797
 7181TIP3    H222426   3.562   6.632   1.380 -0.2324 -0.9231 -0.5280
 7182TIP3   OH222427   7.127  10.087   2.835  0.2231 -0.7608 -0.4133
 7182TIP3    H122428   7.041  10.076   2.875  0.1622 -0.6221 -0.5096
 7182TIP3    H222429   7.150   9.999   2.804 -0.3705 -0.5895 -1.3916
 7183TIP3   OH222430   5.297   0.195   3.270  0.3657  0.2769 -0.5425
 7183TIP3    H122431   5.383   0.169   3.304  0.2831 -0.9965 -1.2352
 7183TIP3    H222432   5.297   0.290   3.275  0.9488  0.2180  1.5409
 7184TIP3   OH222433  10.844   4.499  10.460  0.3671  0.1433  0.1161
 7184TIP3    H122434  10.902   4.536  10.393 -0.8224  1.8932 -0.0211
 7184TIP3    H222435  10.805   4.575  10.502 -0.8956 -0.9676  1.0352
 7185TIP3   OH222436   3.612   4.147   5.266  0.1151  0.1222  0.3224
 7185TIP3    H122437   3.523   4.150   5.231  0.2623  1.1283  0.0031
 7185TIP3    H222438   3.660   4.214   5.217  1.6550 -1.9086 -1.1205
 7186TIP3   OH222439   3.270   9.214   6.211 -0.0948  0.5480  0.1018
 7186TIP3    H122440   3.183   9.176   6.201 -0.0878  0.4625  0.3564
 7186TIP3    H222441   3.253   9.307   6.229 -0.0963  0.8040 -1.1086
 7187TIP3   OH222442   0.631   3.025   2.215 -0.4898  0.2298 -0.0522
 7187TIP3    H122443   0.599   3.108   2.250 -1.2739 -0.0407 -0.1110
 7187TIP3    H222444   0.648   2.971   2.293 -0.9638  0.0917 -0.0407
 7188TIP3   OH222445   6.114   8.153   6.094 -0.4324  0.0818  0.4765
 7188TIP3    H122446   6.100   8.161   6.188  1.0990  0.1165  0.7208
 7188TIP3    H222447   6.208   8.137   6.084  0.0617  3.2464 -1.1955
 7189TIP3   OH222448   7.407   9.171   9.700 -0.0819  0.0248  0.4843
 7189TIP3    H122449   7.436   9.246   9.752  0.4088 -0.0957  0.3963
 7189TIP3    H222450   7.312   9.177   9.700 -0.0416  1.6217 -0.9089
 7190TIP3   OH222451   5.814   7.531   8.947 -0.3060 -0.4412  0.5454
 7190TIP3    H122452   5.816   7.517   8.852 -0.7603  3.3356 -0.1641
 7190TIP3    H222453   5.729   7.572   8.963  0.4896  0.6165  2.3177
 7191TIP3   OH222454   2.160   1.306   7.337  0.0747  0.2271  0.4631
 7191TIP3    H122455   2.208   1.383   7.307  0.5358 -0.2266  0.0089
 7191TIP3    H222456   2.107   1.337   7.410  0.8844  0.7934  0.8300
 7192TIP3   OH222457   4.809   3.144   6.664  0.0390 -0.1183  0.3106
 7192TIP3    H122458   4.731   3.109   6.621 -0.9040 -0.0403  1.9115
 7192TIP3    H222459   4.804   3.112   6.754  2.0481 -0.4009  0.3861
 7193TIP3   OH222460   3.476   4.764   0.122  0.5481 -0.5897 -0.1304
 7193TIP3    H122461   3.503   4.711   0.197  0.7356  0.5252  0.6241
 7193TIP3    H222462   3.395   4.806   0.151  0.5804 -0.2037 -0.5846
 7194TIP3   OH222463   8.236   1.627  10.554 -0.3823 -0.3300 -0.0339
 7194TIP3    H122464   8.232   1.713  10.511  0.1487 -0.7131 -0.8616
 7194TIP3    H222465   8.211   1.565  10.486 -0.0846 -0.8997  0.3703
 7195TIP3   OH222466  10.507   5.169   2.162 -0.1802  0.2760 -0.3894
 7195TIP3    H122467  10.513   5.085   2.117  0.6497 -0.0137  0.2460
 7195TIP3    H222468  10.588   5.214   2.142 -0.5321  0.8471 -0.5570
 7196TIP3   OH222469   1.805   8.796   4.769 -0.0572  0.4643  0.4718
 7196TIP3    H122470   1.776   8.720   4.718  2.2883 -1.5671  1.8905
 7196TIP3    H222471   1.726   8.828   4.811 -1.2441 -0.8092 -0.6702
 7197TIP3   OH222472   9.893   7.032   5.728 -0.0461  0.1065 -0.7072
 7197TIP3    H122473   9.962   7.014   5.791  0.7935 -0.7558 -1.8321
 7197TIP3    H222474   9.932   7.014   5.643 -1.9841 -1.5811 -1.3284
 7198TIP3   OH222475   7.365   1.158   3.280 -0.7660  0.8451  0.2364
 7198TIP3    H122476   7.431   1.090   3.265 -1.3286  0.5396 -0.9252
 7198TIP3    H222477   7.322   1.132   3.361 -0.2020  0.4489  0.4125
 7199TIP3   OH222478   8.165   2.764   7.785  0.5045 -0.0874 -0.1421
 7199TIP3    H122479   8.230   2.715   7.835 -0.3290 -0.5552  0.4923
 7199TIP3    H222480   8.191   2.856   7.796  0.0925 -0.1471  1.5232
 7200TIP3   OH222481   1.486   2.357   7.941 -0.4201 -0.3731 -0.2727
 7200TIP3    H122482   1.409   2.331   7.890  0.6390 -3.0372 -0.6914
 7200TIP3    H222483   1.468   2.324   8.029 -1.0846  1.8910  0.5256
 7201TIP3   OH222484   1.823   0.471   4.080 -0.2740  0.0888  0.1846
 7201TIP3    H122485   1.915   0.478   4.105 -0.2646 -1.0123  0.4819
 7201TIP3    H222486   1.789   0.560   4.091  0.3457  0.1689  1.6940
 7202TIP3   OH222487   8.277   5.212   7.557 -0.0474  0.8188 -0.2204
 7202TIP3    H122488   8.213   5.231   7.626  0.8454 -0.3877  1.0021
 7202TIP3    H222489   8.353   5.265   7.579  0.0709  0.7888 -0.5541
 7203TIP3   OH222490   9.771  10.022   8.463  0.3048 -0.6991  0.0095
 7203TIP3    H122491   9.712  10.071   8.405 -0.4168 -0.6736  0.7421
 7203TIP3    H222492   9.810  10.089   8.520 -0.6077 -0.9370  0.9479
 7204TIP3   OH222493   3.811   5.088   9.722 -0.2166 -0.1832 -0.0028
 7204TIP3    H122494   3.716   5.093   9.736 -0.5131 -1.8297 -1.1346
 7204TIP3    H222495   3.823   5.114   9.630  0.5563  0.8941  0.3834
 7205TIP3   OH222496  10.119   7.955  10.888  0.0544 -0.4274 -0.1869
 7205TIP3    H122497  10.115   7.921  10.978 -2.7532 -2.4154 -0.9453
 7205TIP3    H222498  10.093   8.046  10.896 -2.0261 -1.0405  0.9110
 7206TIP3   OH222499   8.274   8.182   9.234 -0.0439  0.6079  0.2689
 7206TIP3    H122500   8.322   8.130   9.299  0.0639 -0.9041 -0.9797
 7206TIP3    H222501   8.331   8.182   9.157 -0.1092  2.4850  0.1778
 7207TIP3   OH222502   2.544   9.149   7.102  0.6701 -0.4170 -0.0017
 7207TIP3    H122503   2.545   9.167   7.008  1.1815 -1.5275 -0.2255
 7207TIP3    H222504   2.498   9.224   7.140  2.3039  1.1215 -0.8941
 7208TIP3   OH222505   9.074   6.913   2.998  0.3979 -0.1776  0.1715
 7208TIP3    H122506   9.058   6.953   2.913 -1.1278 -0.6622  0.1854
 7208TIP3    H222507   9.153   6.956   3.031  2.1024 -1.2249 -2.2246
 7209TIP3   OH222508   9.307   5.971   6.034 -0.0634  0.4311  0.1615
 7209TIP3    H122509   9.354   5.894   6.064  1.2048  1.3007  0.4984
 7209TIP3    H222510   9.294   5.957   5.940  0.6076  0.0308  0.1270
 7210TIP3   OH222511   5.744   5.128   7.602 -0.7546 -0.0659 -0.0306
 7210TIP3    H122512   5.676   5.123   7.670  0.1443  0.0861  0.9091
 7210TIP3    H222513   5.774   5.037   7.593 -0.9873 -0.1123 -0.3574
 7211TIP3   OH222514   8.794   5.089   8.856 -0.3357 -0.9632  0.5928
 7211TIP3    H122515   8.736   5.142   8.911 -0.3758 -0.4162  0.0429
 7211TIP3    H222516   8.744   5.009   8.839 -1.1701 -0.3009 -0.2732
 7212TIP3   OH222517   5.289  10.751   7.693  0.0665 -0.4524  0.6064
 7212TIP3    H122518   5.272  10.693   7.619 -0.4683 -0.0506  0.4031
 7212TIP3    H222519   5.368  10.799   7.669  0.8382 -1.4984  1.0295
 7213TIP3   OH222520   7.851   2.532   5.990 -0.3305  0.1985  0.1176
 7213TIP3    H122521   7.899   2.459   5.950 -0.3258 -0.0311  0.5400
 7213TIP3    H222522   7.848   2.599   5.921 -0.9374 -0.4554 -0.5230
 7214TIP3   OH222523   6.496   7.385   6.831  0.7031 -0.7096 -0.2768
 7214TIP3    H122524   6.510   7.388   6.736 -0.4421 -0.4694 -0.4504
 7214TIP3    H222525   6.462   7.297   6.847 -0.0991 -0.4074 -0.2529
 7215TIP3   OH222526   9.839   6.905  10.825 -0.1395  0.4702  0.2066
 7215TIP3    H122527   9.906   6.961  10.863  1.7569 -2.3523  1.3869
 7215TIP3    H222528   9.828   6.937  10.736  1.1869  2.3412  0.6496
 7216TIP3   OH222529   8.605   7.314   3.751 -0.3931 -0.1102  0.1648
 7216TIP3    H122530   8.516   7.316   3.715 -0.9077  1.2056  1.3975
 7216TIP3    H222531   8.659   7.355   3.683 -0.3734 -2.3985 -1.3114
 7217TIP3   OH222532  10.468   9.988   1.467 -0.7669  0.3905 -0.1273
 7217TIP3    H122533  10.562   9.998   1.455 -0.7789  0.3102 -0.2863
 7217TIP3    H222534  10.436   9.952   1.385 -1.0455  1.1062 -0.3372
 7218TIP3   OH222535   3.983   4.959   2.833  0.2276 -0.5001  0.6681
 7218TIP3    H122536   3.960   5.048   2.862  1.3566 -0.0031  0.1394
 7218TIP3    H222537   3.913   4.904   2.866 -1.3058  0.7912 -0.2707
 7219TIP3   OH222538   8.122  10.301   7.209  0.6728  0.0082  0.0572
 7219TIP3    H122539   8.181  10.280   7.281  0.1548  0.0637  0.5103
 7219TIP3    H222540   8.092  10.217   7.176 -0.2623 -0.0221  0.9122
 7220TIP3   OH222541   5.334   9.522   7.806  0.1054  0.1217 -0.2350
 7220TIP3    H122542   5.288   9.438   7.799 -0.1300  0.3041 -0.9804
 7220TIP3    H222543   5.351   9.533   7.900 -1.6694  0.2199  0.1053
 7221TIP3   OH222544   6.594   1.580   2.932 -0.2754 -0.0844  0.5557
 7221TIP3    H122545   6.600   1.629   2.850  0.7001 -1.6738 -0.3821
 7221TIP3    H222546   6.606   1.646   3.001  2.4388  0.8138 -0.6681
 7222TIP3   OH222547   6.358   4.379   9.746 -0.0058 -0.6248  0.0552
 7222TIP3    H122548   6.402   4.414   9.823 -1.4630  0.5956  0.3811
 7222TIP3    H222549   6.415   4.403   9.673  0.3315  0.1124  0.5453
 7223TIP3   OH222550   3.452   7.055   4.164  0.3206  0.5065 -0.6193
 7223TIP3    H122551   3.408   7.062   4.249  0.8969  0.0914 -0.2760
 7223TIP3    H222552   3.381   7.042   4.102 -0.0037 -1.1698  0.0470
 7224TIP3   OH222553   4.217   1.432   3.581  0.3042  0.3213 -0.5103
 7224TIP3    H122554   4.255   1.384   3.508  1.4437  0.0503  0.2420
 7224TIP3    H222555   4.183   1.364   3.640 -1.5410  0.5556 -1.2348
 7225TIP3   OH222556   5.103   6.913   7.889 -0.3057 -0.0868 -0.3569
 7225TIP3    H122557   5.154   6.874   7.960 -2.4773  0.0556  1.3861
 7225TIP3    H222558   5.087   6.840   7.828  0.2832 -0.5740  0.0578
 7226TIP3   OH222559   1.700   3.670  10.707  0.0346  0.1747 -0.0189
 7226TIP3    H122560   1.746   3.588  10.720  3.0829  1.2315 -2.6894
 7226TIP3    H222561   1.608   3.647  10.707  0.5786 -2.5842  2.7990
 7227TIP3   OH222562   0.853   6.909   6.675  0.0101  0.3269  0.0206
 7227TIP3    H122563   0.815   6.985   6.629 -0.4007  0.1507  0.0606
 7227TIP3    H222564   0.829   6.923   6.766 -0.5470 -0.1340 -0.0529
 7228TIP3   OH222565   4.984   5.433   6.887  0.0546  0.3041 -0.1611
 7228TIP3    H122566   5.062   5.390   6.852 -0.5540  0.6493 -2.0847
 7228TIP3    H222567   5.004   5.448   6.979  1.4943 -1.3007 -0.1596
 7229TIP3   OH222568   5.721   9.914   7.701  0.9560 -0.1979 -0.0088
 7229TIP3    H122569   5.704   9.840   7.759  2.4938 -1.0610 -0.5933
 7229TIP3    H222570   5.712   9.992   7.756  1.6237 -0.9524  1.1921
 7230TIP3   OH222571  10.799  10.836   7.475 -0.0971  0.2264  0.1234
 7230TIP3    H122572  10.781  10.822   7.381 -2.6627  0.4780  0.5200
 7230TIP3    H222573  10.713  10.848   7.514  1.0528  2.3445  2.2117
 7231TIP3   OH222574  10.318   4.008   0.927  0.2775  0.4816  0.1557
 7231TIP3    H122575  10.279   4.013   1.014  0.5005 -0.2823  0.3028
 7231TIP3    H222576  10.316   4.099   0.895 -2.0650  0.3969 -0.0695
 7232TIP3   OH222577  10.625   6.152   4.386  0.1230 -0.4551  0.0803
 7232TIP3    H122578  10.705   6.158   4.439 -0.0629  0.3205  0.2887
 7232TIP3    H222579  10.625   6.063   4.352  0.8916 -0.5742  0.3765
 7233TIP3   OH222580   5.257   3.374   4.085  0.4637 -0.3810  0.2338
 7233TIP3    H122581   5.264   3.367   3.990 -1.5948 -0.7720  0.0593
 7233TIP3    H222582   5.247   3.284   4.115 -3.0465 -0.1159  0.3190
 7234TIP3   OH222583   0.540   3.991  10.499  0.3837 -0.4526 -0.1820
 7234TIP3    H122584   0.597   3.975  10.574 -0.6659 -0.2020  0.6770
 7234TIP3    H222585   0.460   4.028  10.536 -1.3140 -2.9516 -1.0763
 7235TIP3   OH222586   6.916   9.130   2.257 -0.5267 -0.2073  0.1019
 7235TIP3    H122587   6.853   9.087   2.315 -0.8680  0.0855 -0.0430
 7235TIP3    H222588   6.967   9.185   2.315  0.1737 -1.0976  0.3434
 7236TIP3   OH222589   1.825  10.179   7.479 -0.8058 -0.3978 -0.1197
 7236TIP3    H122590   1.793  10.121   7.411 -0.4598  0.3010 -0.9005
 7236TIP3    H222591   1.771  10.258   7.472  2.1397  1.6723 -2.8259
 7237TIP3   OH222592   9.837   1.226   6.771  0.1419 -0.6479  0.0288
 7237TIP3    H122593   9.851   1.251   6.679  1.4612  0.0119  0.3783
 7237TIP3    H222594   9.925   1.208   6.804 -0.4912 -2.7940  0.6702
 7238TIP3   OH222595   3.941   9.882   8.345  0.0732  0.0448  0.1783
 7238TIP3    H122596   3.882   9.807   8.359  0.0854 -0.4546 -2.1304
 7238TIP3    H222597   3.958   9.882   8.251  2.5057  1.1486  0.5466
 7239TIP3   OH222598   7.510   1.613   6.986  0.2365 -0.0986 -0.4945
 7239TIP3    H122599   7.541   1.668   7.057  1.9018  0.7785 -1.8095
 7239TIP3    H222600   7.559   1.531   6.996 -0.3187 -0.3844 -0.0443
 7240TIP3   OH222601   4.409   0.359   6.452 -0.0448 -0.2976 -0.0069
 7240TIP3    H122602   4.476   0.403   6.399 -0.4451 -0.1452 -0.3986
 7240TIP3    H222603   4.416   0.266   6.428 -0.8414 -0.1113 -1.0460
 7241TIP3   OH222604   6.255   8.939   6.095 -0.1314 -0.8508  0.1857
 7241TIP3    H122605   6.335   8.897   6.127 -0.3963 -0.5017  1.3601
 7241TIP3    H222606   6.247   8.910   6.004  2.3668  0.6558 -0.5848
 7242TIP3   OH222607   4.825   3.765   4.841  0.2584 -0.3968 -0.2174
 7242TIP3    H122608   4.913   3.782   4.876  0.2349 -0.7084 -0.0004
 7242TIP3    H222609   4.766   3.812   4.900  0.2434 -0.6352 -0.0400
 7243TIP3   OH222610   8.226   1.168   3.214 -0.2220  0.1695  0.1554
 7243TIP3    H122611   8.203   1.225   3.287 -3.4147  0.2883 -0.7853
 7243TIP3    H222612   8.236   1.228   3.139 -1.7200 -0.3011 -0.4495
 7244TIP3   OH222613   0.431   6.787   2.532  0.4306  0.5315 -0.2486
 7244TIP3    H122614   0.453   6.763   2.442  3.7453  0.6234  0.3998
 7244TIP3    H222615   0.395   6.875   2.526 -1.5154 -0.2862 -1.6213
 7245TIP3   OH222616   2.252   8.200   3.053  0.1135  0.2587  0.1991
 7245TIP3    H122617   2.296   8.164   3.129  0.0840 -0.9178 -0.3203
 7245TIP3    H222618   2.292   8.286   3.040 -0.2767  0.7218  1.8564
 7246TIP3   OH222619   3.870   5.573   7.804 -0.1511 -0.4036 -0.4576
 7246TIP3    H122620   3.869   5.642   7.739  2.1043  1.3119  1.1734
 7246TIP3    H222621   3.783   5.534   7.800 -0.6881  0.9079 -3.0853
 7247TIP3   OH222622   1.294   8.022   2.270  0.1672 -0.4402 -0.2982
 7247TIP3    H122623   1.311   8.056   2.358 -1.4616  0.7683 -0.4107
 7247TIP3    H222624   1.276   7.929   2.285 -1.3376 -0.0104  0.8531
 7248TIP3   OH222625   3.743   8.744   2.356  0.0361 -0.4767  0.2955
 7248TIP3    H122626   3.779   8.718   2.440  0.2394  0.1148  0.3943
 7248TIP3    H222627   3.669   8.684   2.342  0.6820 -1.3169  0.3580
 7249TIP3   OH222628   4.619   0.778   8.537 -0.5908 -0.1759  0.0109
 7249TIP3    H122629   4.529   0.807   8.554  0.2095  1.3894  2.0357
 7249TIP3    H222630   4.660   0.852   8.492  0.3086  0.1418  1.2985
 7250TIP3   OH222631   0.402   8.764   9.780 -0.0502  0.3538 -0.9126
 7250TIP3    H122632   0.497   8.761   9.787 -0.1268 -1.0128 -0.1907
 7250TIP3    H222633   0.380   8.857   9.787  1.1237  0.5608  0.4412
 7251TIP3   OH222634   2.175   2.832   8.586  0.0632  0.6882  0.2609
 7251TIP3    H122635   2.246   2.792   8.635  0.8854 -0.0945 -1.4754
 7251TIP3    H222636   2.097   2.817   8.639  1.0070  0.5521  1.6517
 7252TIP3   OH222637   9.848   6.042   5.114  0.5714  0.2380 -0.4728
 7252TIP3    H122638   9.809   5.995   5.040 -0.5933  0.2400  0.1180
 7252TIP3    H222639   9.905   6.108   5.074 -0.5793  0.7009 -1.3782
 7253TIP3   OH222640   8.655  10.712   4.202 -0.1853 -0.4916  0.2083
 7253TIP3    H122641   8.579  10.755   4.240  1.6444  1.4628  1.9727
 7253TIP3    H222642   8.671  10.759   4.120  0.8748  1.3156  1.3674
 7254TIP3   OH222643   4.984   1.401  10.576  0.1446 -0.1624 -0.4649
 7254TIP3    H122644   4.979   1.445  10.492 -1.1688 -0.9307 -0.8184
 7254TIP3    H222645   5.078   1.394  10.594  0.4207  0.5995 -1.5425
 7255TIP3   OH222646   7.653   0.826   5.855 -0.3313  0.1159  0.5970
 7255TIP3    H122647   7.730   0.861   5.900  0.9637  1.5951 -2.4678
 7255TIP3    H222648   7.586   0.893   5.865 -0.0279  0.4665  0.2968
 7256TIP3   OH222649   2.126   0.342   3.172  0.0655  0.5951  0.1633
 7256TIP3    H122650   2.076   0.345   3.090 -3.4213 -0.1149  2.0573
 7256TIP3    H222651   2.105   0.424   3.216  0.0871  0.0424  1.2560
 7257TIP3   OH222652   2.062   7.372   2.941  0.2123  0.0018 -0.1259
 7257TIP3    H122653   2.107   7.456   2.946  1.5706 -0.7618  1.4540
 7257TIP3    H222654   2.106   7.326   2.868 -0.7907  0.7672 -1.2425
 7258TIP3   OH222655   9.692   9.752   7.389  0.2259 -0.3340  0.0432
 7258TIP3    H122656   9.645   9.836   7.391 -0.5082 -0.6804 -1.2594
 7258TIP3    H222657   9.710   9.737   7.296 -1.6295 -2.6587 -0.0402
 7259TIP3   OH222658   9.564   7.712   2.136 -0.2051 -0.2135 -0.1755
 7259TIP3    H122659   9.529   7.634   2.178  0.1710  0.9580  2.5264
 7259TIP3    H222660   9.526   7.712   2.048 -1.2143 -2.7166  0.2022
 7260TIP3   OH222661   0.882   4.221   8.645 -0.3554 -0.0617 -0.0279
 7260TIP3    H122662   0.953   4.258   8.592  0.0596  0.6567  1.0100
 7260TIP3    H222663   0.841   4.156   8.587 -0.3914  1.2054 -1.5054
 7261TIP3   OH222664   0.979   3.897   8.806 -0.4780  0.5371  0.3722
 7261TIP3    H122665   0.906   3.953   8.833  1.1386  1.7282  2.5992
 7261TIP3    H222666   1.002   3.848   8.886 -1.3338 -2.8997 -1.2876
 7262TIP3   OH222667   4.701   2.382   8.770 -0.2265  0.0104  0.0053
 7262TIP3    H122668   4.768   2.335   8.820  1.7692 -1.8216 -3.9512
 7262TIP3    H222669   4.619   2.340   8.794  0.8923 -2.1492  0.3357
 7263TIP3   OH222670   3.104   1.440   1.306  0.0621  0.1171  0.0239
 7263TIP3    H122671   3.146   1.457   1.221 -0.9504  1.3372 -0.2571
 7263TIP3    H222672   3.049   1.363   1.290 -0.9458  0.9695 -0.7489
 7264TIP3   OH222673   4.364   9.767   2.423 -0.2008  0.5118  0.2338
 7264TIP3    H122674   4.347   9.858   2.449  1.1665  0.9296 -0.2321
 7264TIP3    H222675   4.371   9.770   2.328  2.5499  0.4918  0.3336
 7265TIP3   OH222676   8.936   1.957   9.833 -0.3637  0.8452  0.2108
 7265TIP3    H122677   9.017   1.909   9.849 -1.2245 -0.4969  0.6636
 7265TIP3    H222678   8.873   1.921   9.896 -1.2264  2.1223  0.1303
 7266TIP3   OH222679   4.494   3.163   3.437  0.1954 -0.1909  0.3284
 7266TIP3    H122680   4.583   3.167   3.402  0.3990  0.6442  0.8929
 7266TIP3    H222681   4.439   3.195   3.366  0.6064  1.4899  0.7063
 7267TIP3   OH222682   3.823   0.666   8.702 -0.2434  0.0322 -0.1602
 7267TIP3    H122683   3.883   0.710   8.642  0.4085 -0.1868  0.3139
 7267TIP3    H222684   3.806   0.731   8.770  3.1562 -1.2951  2.2311
 7268TIP3   OH222685   7.258   1.006  10.610  0.0018  0.0961 -0.3560
 7268TIP3    H122686   7.275   0.953  10.533  0.1608 -1.6986  0.8473
 7268TIP3    H222687   7.163   1.004  10.621  0.0754 -0.6649  0.1688
 7269TIP3   OH222688   8.877   0.394   4.806 -0.3013 -0.4986 -0.5940
 7269TIP3    H122689   8.788   0.364   4.785 -0.1296 -1.2327 -0.3149
 7269TIP3    H222690   8.932   0.354   4.738 -0.1901  0.0460 -0.8333
 7270TIP3   OH222691  10.373   9.643   7.485  0.0790  0.4366 -0.4924
 7270TIP3    H122692  10.342   9.575   7.424  0.8819 -0.5718  0.1778
 7270TIP3    H222693  10.302   9.706   7.490  0.3290  1.0354 -3.1757
 7271TIP3   OH222694   8.619   4.010   0.781  0.2298 -0.2572 -0.1322
 7271TIP3    H122695   8.541   4.063   0.768  1.4591  1.6532 -0.2133
 7271TIP3    H222696   8.639   4.019   0.874 -1.4109 -3.4770  0.6988
 7272TIP3   OH222697   3.402   1.783  10.219 -0.4430  0.0283 -0.1811
 7272TIP3    H122698   3.487   1.794  10.261  0.0664 -1.6891 -0.6815
 7272TIP3    H222699   3.340   1.777  10.291 -0.0622  0.6437  0.2054
 7273TIP3   OH222700   7.883   4.822   4.336  0.4835  0.0723 -0.1329
 7273TIP3    H122701   7.804   4.801   4.385  1.5977 -2.7906  0.6734
 7273TIP3    H222702   7.890   4.917   4.340 -1.0009  0.1647  2.8914
 7274TIP3   OH222703   5.310   1.234  10.104 -0.0744 -0.8512  0.2553
 7274TIP3    H122704   5.221   1.257  10.077 -1.3126 -3.7542  1.4862
 7274TIP3    H222705   5.349   1.196  10.026  0.2283  0.6357 -0.3549
 7275TIP3   OH222706   1.958   5.178   3.508 -0.4955  1.0705 -0.1642
 7275TIP3    H122707   1.909   5.196   3.588  0.9993 -0.5965  1.2022
 7275TIP3    H222708   2.023   5.249   3.504 -0.2436  0.8817  0.4034
 7276TIP3   OH222709   4.490   4.970   6.084  0.2274 -0.2483 -0.4120
 7276TIP3    H122710   4.505   5.034   6.154 -3.2143 -1.8328  2.1492
 7276TIP3    H222711   4.419   5.008   6.032 -0.5589 -1.0805  0.0081
 7277TIP3   OH222712   9.244   8.866   6.137 -0.6242  0.5112  0.2806
 7277TIP3    H122713   9.272   8.930   6.203  0.8824 -1.7926  2.0079
 7277TIP3    H222714   9.160   8.834   6.170 -0.7408  0.6531  0.1201
 7278TIP3   OH222715   6.870   5.604   7.296 -0.0117  0.4251 -0.5251
 7278TIP3    H122716   6.928   5.564   7.231 -0.9895  0.0076 -1.1802
 7278TIP3    H222717   6.805   5.651   7.243 -0.1480  1.0535  0.1892
 7279TIP3   OH222718   4.744   5.018   4.608  0.0225  0.0452 -0.2988
 7279TIP3    H122719   4.837   5.037   4.622  0.6413 -0.9747 -2.6139
 7279TIP3    H222720   4.739   4.923   4.602 -0.7365  0.1833 -2.6185
 7280TIP3   OH222721   4.908   5.066   9.460  0.3126  0.2647  0.1207
 7280TIP3    H122722   4.906   4.972   9.447 -0.9427  0.2430  0.4127
 7280TIP3    H222723   4.855   5.102   9.389 -1.6690  0.5356  1.6631
 7281TIP3   OH222724   2.968   8.770   7.510 -0.6117 -0.0589 -0.4043
 7281TIP3    H122725   2.900   8.796   7.448 -0.5969  1.7512  0.2706
 7281TIP3    H222726   2.971   8.675   7.504 -2.0064 -0.0613 -1.6909
 7282TIP3   OH222727   0.049   0.518   0.285 -0.4213  0.3612 -0.9327
 7282TIP3    H122728   0.100   0.523   0.204 -0.2965 -0.9646 -0.9622
 7282TIP3    H222729   0.099   0.458   0.341 -0.3525  1.4937  0.2567
 7283TIP3   OH222730   8.082   1.180   0.939  0.2507 -0.1157  0.3570
 7283TIP3    H122731   8.015   1.225   0.886  0.7944  0.0408 -0.2207
 7283TIP3    H222732   8.133   1.130   0.875  1.1706  0.3843  0.6689
 7284TIP3   OH222733   2.034  10.485   5.330 -0.0228  0.2399 -0.2709
 7284TIP3    H122734   2.121  10.462   5.364  0.1445  1.6667  0.3389
 7284TIP3    H222735   2.051  10.559   5.272 -0.9917  1.5001  1.0048
 7285TIP3   OH222736   6.099   1.607   6.825 -0.6444  0.2107 -0.0401
 7285TIP3    H122737   6.114   1.695   6.791 -0.2351  0.6886  1.2879
 7285TIP3    H222738   6.176   1.589   6.880 -1.1984 -0.5520  0.5162
 7286TIP3   OH222739  10.259   5.449   2.665  0.3021  0.1604 -0.2231
 7286TIP3    H122740  10.230   5.357   2.666  1.2798 -0.2072 -2.0304
 7286TIP3    H222741  10.342   5.447   2.618  0.5723  1.9292  0.1436
 7287TIP3   OH222742   7.413  10.757   5.137 -0.2732  0.1524  0.2255
 7287TIP3    H122743   7.351  10.723   5.201  0.6670 -1.9085  0.0900
 7287TIP3    H222744   7.493  10.775   5.187  0.7602 -2.2795 -0.4056
 7288TIP3   OH222745   7.441   3.482   0.206 -0.0645 -0.3654 -0.2205
 7288TIP3    H122746   7.492   3.492   0.286 -0.9983  0.4306  0.2905
 7288TIP3    H222747   7.469   3.556   0.151 -0.2875 -0.2312 -0.1528
 7289TIP3   OH222748   4.310   4.248   0.329 -0.2403  1.2379  0.6884
 7289TIP3    H122749   4.282   4.305   0.401 -0.0217  0.9184  1.0308
 7289TIP3    H222750   4.234   4.244   0.271 -0.1193  2.2049  0.4460
 7290TIP3   OH222751   0.912   2.406   9.901 -0.1180  0.0692  0.1158
 7290TIP3    H122752   0.963   2.486   9.887  1.2775 -1.0378 -1.4515
 7290TIP3    H222753   0.977   2.336   9.903 -0.9763 -0.8734  4.2498
 7291TIP3   OH222754   3.151   9.440   4.102  0.3271 -1.2373 -0.0065
 7291TIP3    H122755   3.077   9.380   4.111  0.3947 -1.1552  1.4207
 7291TIP3    H222756   3.228   9.382   4.100  0.2570 -1.3113 -1.3070
 7292TIP3   OH222757   8.769   3.312   9.543  0.1280  0.0244  0.4597
 7292TIP3    H122758   8.681   3.349   9.535  0.8193  1.6602 -0.1335
 7292TIP3    H222759   8.755   3.218   9.550 -1.5759  0.0282 -1.7487
 7293TIP3   OH222760   5.651   9.006   0.663 -0.0016  0.3039  0.0931
 7293TIP3    H122761   5.667   9.055   0.583  0.1616 -1.3644 -0.9497
 7293TIP3    H222762   5.577   8.949   0.642  1.1999 -1.4967  0.4316
 7294TIP3   OH222763   4.095   2.019   6.632 -0.3018  0.0728 -0.0754
 7294TIP3    H122764   4.071   1.966   6.556 -2.5711  0.2044  0.4764
 7294TIP3    H222765   4.162   1.967   6.677  0.2568 -0.5264 -1.5607
 7295TIP3   OH222766   0.601   5.463   8.209  0.1529  0.2215 -0.0273
 7295TIP3    H122767   0.621   5.375   8.179 -0.2206  0.0489  0.2199
 7295TIP3    H222768   0.654   5.520   8.153  3.4461 -0.2888  2.2345
 7296TIP3   OH222769   8.538   2.978   0.238 -0.1466 -0.8634 -0.4144
 7296TIP3    H122770   8.520   3.036   0.163 -0.4263  0.5491  0.6886
 7296TIP3    H222771   8.453   2.968   0.281  0.2110 -0.7187  0.3387
 7297TIP3   OH222772   3.575   8.640  10.419  0.0574  0.0586  0.5766
 7297TIP3    H122773   3.627   8.652  10.499  1.6936  1.5235 -0.6165
 7297TIP3    H222774   3.621   8.571  10.371  0.4726  0.8275 -0.1431
 7298TIP3   OH222775   6.640   7.949   0.431  0.1664 -0.3957  0.6345
 7298TIP3    H122776   6.620   8.016   0.366  0.1340  0.4544  1.5086
 7298TIP3    H222777   6.558   7.899   0.439  0.0804 -0.3182  0.2457
 7299TIP3   OH222778   0.274   0.317   9.325 -0.6967  0.5741 -0.1282
 7299TIP3    H122779   0.344   0.251   9.318 -1.9814 -0.8175 -0.5012
 7299TIP3    H222780   0.318   0.396   9.355  1.2009  0.0277 -1.3178
 7300TIP3   OH222781   9.898   3.043   1.569  0.5495  0.3249  0.2512
 7300TIP3    H122782   9.907   2.951   1.544  1.6956  0.2836  0.7490
 7300TIP3    H222783   9.829   3.042   1.637  0.7671 -0.2097  0.4723
 7301TIP3   OH222784   6.600   7.386   2.538  0.6277 -0.5146  0.4769
 7301TIP3    H122785   6.559   7.362   2.621  1.7562 -0.6694  1.0112
 7301TIP3    H222786   6.528   7.386   2.474  0.3921 -4.7969  0.4970
 7302TIP3   OH222787  10.851   3.786   3.564 -0.0325 -0.1554  0.6461
 7302TIP3    H122788  10.918   3.855   3.565 -0.1674  0.0110 -0.4615
 7302TIP3    H222789  10.895   3.711   3.525 -0.4918 -0.0411 -0.0950
 7303TIP3   OH222790   9.903   1.469   8.675 -0.4193  0.0023 -0.3626
 7303TIP3    H122791   9.849   1.446   8.600 -0.6925 -1.3094  0.2130
 7303TIP3    H222792   9.952   1.390   8.695  0.8849  0.8275 -0.1547
 7304TIP3   OH222793   9.501   3.654   8.727  0.4938  0.1584  0.4872
 7304TIP3    H122794   9.546   3.702   8.658 -0.3573 -0.1284 -0.2936
 7304TIP3    H222795   9.435   3.716   8.760  1.3612  0.5454  1.5576
 7305TIP3   OH222796   7.847   0.852   9.349  0.0383  0.5501  0.0895
 7305TIP3    H122797   7.924   0.862   9.293 -0.2014 -1.9110 -0.8044
 7305TIP3    H222798   7.882   0.824   9.434  0.1664 -0.1046 -0.1746
 7306TIP3   OH222799   7.075   9.965   9.984  0.6370  0.0940 -0.0195
 7306TIP3    H122800   7.056   9.905   9.913  1.0192 -0.9185  0.7077
 7306TIP3    H222801   7.164   9.997   9.965 -0.1273  1.6369 -1.2093
 7307TIP3   OH222802   1.606   8.689   4.321 -0.5255  0.1240 -0.1309
 7307TIP3    H122803   1.672   8.662   4.386 -0.3817  0.4174 -0.1506
 7307TIP3    H222804   1.555   8.756   4.367  0.7883  1.7578 -0.9261
 7308TIP3   OH222805   3.814   4.802   2.402 -0.1004  0.1386  0.2417
 7308TIP3    H122806   3.743   4.811   2.466  0.2100  2.7871  0.3378
 7308TIP3    H222807   3.890   4.841   2.445  0.4911  0.6333 -1.1979
 7309TIP3   OH222808   0.203   9.402   0.836  0.2280  0.0250 -0.1360
 7309TIP3    H122809   0.184   9.437   0.923 -0.2151 -0.2544 -0.1220
 7309TIP3    H222810   0.263   9.329   0.853  0.9635  0.6165 -0.1473
 7310TIP3   OH222811   0.355   2.554   4.864  0.4134 -0.1785  0.0620
 7310TIP3    H122812   0.405   2.476   4.842 -0.2029 -0.8014  0.7935
 7310TIP3    H222813   0.296   2.567   4.790 -1.0068 -1.7184  0.8487
 7311TIP3   OH222814   3.454   5.081   2.811 -0.3114  0.1078  0.1631
 7311TIP3    H122815   3.413   5.161   2.843 -2.6038 -1.0366  0.2420
 7311TIP3    H222816   3.409   5.011   2.857  1.0076 -1.3014 -0.5931
 7312TIP3   OH222817   8.140   3.657   9.715 -0.4743  0.2808  0.3016
 7312TIP3    H122818   8.087   3.598   9.662  1.6126 -2.4360  0.9890
 7312TIP3    H222819   8.089   3.670   9.795 -0.6608 -1.3018  0.4694
 7313TIP3   OH222820   6.230   5.857   0.405 -0.2418  0.9326  0.0475
 7313TIP3    H122821   6.236   5.775   0.355  2.0022  0.8875  0.2611
 7313TIP3    H222822   6.180   5.835   0.483 -2.0497  0.4892 -1.1798
 7314TIP3   OH222823   5.133   5.115   7.990 -0.4720  0.0122  0.4559
 7314TIP3    H122824   5.050   5.132   7.946 -0.2618  0.1909  0.1234
 7314TIP3    H222825   5.115   5.039   8.046  0.3128 -3.2770 -3.2182
 7315TIP3   OH222826   3.838   5.884   6.526  0.5097 -0.1535 -0.2022
 7315TIP3    H122827   3.777   5.884   6.453  1.5588  0.3440 -1.0956
 7315TIP3    H222828   3.782   5.897   6.603 -0.7820 -2.1661 -0.7168
 7316TIP3   OH222829   5.525   8.616   5.965  0.4358 -0.0071  0.5768
 7316TIP3    H122830   5.483   8.675   6.027  0.1472 -1.1975  1.5411
 7316TIP3    H222831   5.619   8.622   5.985  0.4556  0.4780  0.3474
 7317TIP3   OH222832   1.977   1.121   0.855  0.4112 -0.2613  0.0654
 7317TIP3    H122833   2.004   1.068   0.780 -2.5471 -2.2882  0.2712
 7317TIP3    H222834   1.903   1.073   0.893  0.0589  2.0932  2.6598
 7318TIP3   OH222835   6.445   9.012  10.231 -0.0940  0.0501 -0.7277
 7318TIP3    H122836   6.531   9.052  10.217 -0.2297  0.1657 -1.2530
 7318TIP3    H222837   6.385   9.067  10.180 -0.7005  0.8419  0.7962
 7319TIP3   OH222838   7.799   0.353   7.691 -0.2465 -0.0208 -0.0554
 7319TIP3    H122839   7.892   0.375   7.701 -0.3946  1.2547 -1.2564
 7319TIP3    H222840   7.779   0.372   7.600 -2.3129  2.2216  0.7677
 7320TIP3   OH222841   2.974   1.042   8.275 -0.3711  0.0753 -0.1413
 7320TIP3    H122842   2.925   0.966   8.305 -0.5548  0.2174 -0.0771
 7320TIP3    H222843   2.986   1.028   8.181  0.8134 -0.7166  0.1062
 7321TIP3   OH222844   2.147   8.790   1.451 -0.1665  0.1322 -0.0284
 7321TIP3    H122845   2.178   8.705   1.483  0.9797  0.0982 -1.1534
 7321TIP3    H222846   2.135   8.842   1.530  1.9088 -0.1723  0.5468
 7322TIP3   OH222847   6.752   2.534   9.076  0.1273  0.6342  0.0951
 7322TIP3    H122848   6.676   2.501   9.027  0.2276  1.1587 -0.4160
 7322TIP3    H222849   6.750   2.628   9.063  0.9894  0.6329 -0.0852
 7323TIP3   OH222850   5.682  10.412   7.372  0.4499  1.2094 -0.3007
 7323TIP3    H122851   5.739  10.366   7.434  1.9605  2.8918 -0.3413
 7323TIP3    H222852   5.605  10.435   7.423  0.3240 -0.0468  0.1085
 7324TIP3   OH222853   4.697   9.488   4.585 -0.0009  0.3170 -0.0788
 7324TIP3    H122854   4.728   9.579   4.587  0.5772  0.1137  0.2469
 7324TIP3    H222855   4.745   9.445   4.655  0.0761 -0.3626 -0.5506
 7325TIP3   OH222856   8.224   6.048   4.472  0.4168 -0.3857  0.2063
 7325TIP3    H122857   8.311   6.076   4.502  1.1617  0.6027 -2.6309
 7325TIP3    H222858   8.220   6.076   4.381 -3.1414  0.1038  0.4022
 7326TIP3   OH222859   8.266   7.880  10.901  0.0486  0.5939 -1.3784
 7326TIP3    H122860   8.263   7.830  10.982  2.0030 -0.6006 -1.9818
 7326TIP3    H222861   8.179   7.921  10.895  0.0913  1.4205  1.7061
 7327TIP3   OH222862   8.784   7.280   1.993  0.5981  0.1915 -0.0302
 7327TIP3    H122863   8.810   7.188   1.987 -1.6658 -0.5556  0.6623
 7327TIP3    H222864   8.791   7.300   2.086  1.6879  0.9610 -0.2531
 7328TIP3   OH222865   7.466   3.967   9.441 -0.4463  0.2808 -0.4717
 7328TIP3    H122866   7.528   3.900   9.468 -0.2892  0.6577  0.1112
 7328TIP3    H222867   7.411   3.982   9.517 -0.3558  0.9496 -0.5303
 7329TIP3   OH222868   3.387   0.418   0.059 -0.0442  0.4741  0.5235
 7329TIP3    H122869   3.308   0.454   0.018  0.2972 -1.0756 -1.7091
 7329TIP3    H222870   3.430   0.493   0.099 -2.9622  1.2526  2.4468
 7330TIP3   OH222871   5.296   1.870   6.253  0.1217 -0.3704 -0.7521
 7330TIP3    H122872   5.315   1.918   6.173  1.0859  1.1862  0.3499
 7330TIP3    H222873   5.281   1.938   6.319 -1.9867 -1.5787  0.1361
 7331TIP3   OH222874   5.031   4.611   7.890  0.1266  0.0653 -1.0100
 7331TIP3    H122875   5.116   4.618   7.846  0.9835  0.3907  0.5824
 7331TIP3    H222876   4.991   4.697   7.881  1.1364  0.7250  0.3770
 7332TIP3   OH222877   9.521   0.046   8.793  0.1828 -0.1544 -0.2514
 7332TIP3    H122878   9.539  -0.030   8.848  0.4934 -0.2802 -0.5274
 7332TIP3    H222879   9.596   0.103   8.805 -0.3397  0.4027  0.4445
 7333TIP3   OH222880   1.268   9.094   8.996  0.1234  0.2476 -0.0117
 7333TIP3    H122881   1.354   9.122   8.965 -0.7594  1.0429 -1.8729
 7333TIP3    H222882   1.212   9.170   8.982 -0.9519 -0.3411  0.9393
 7334TIP3   OH222883   3.247   4.209   4.740 -0.4607  0.0650 -0.1416
 7334TIP3    H122884   3.295   4.134   4.774  0.0501  0.1867 -0.5799
 7334TIP3    H222885   3.274   4.215   4.648 -0.1210  1.0687  0.0131
 7335TIP3   OH222886   8.918   8.558   3.998  0.4957  0.3787  0.3241
 7335TIP3    H122887   8.831   8.537   3.967 -0.2201  1.1440  1.6923
 7335TIP3    H222888   8.920   8.654   4.001  2.4106  0.5183 -2.3865
 7336TIP3   OH222889   9.619   1.561   9.559  0.5966  0.1806 -0.1172
 7336TIP3    H122890   9.654   1.560   9.470  2.4371  2.8227  0.4443
 7336TIP3    H222891   9.671   1.497   9.607 -0.8515 -1.7541 -0.9921
 7337TIP3   OH222892   7.486   5.517   5.347  0.1324  0.0426 -0.0449
 7337TIP3    H122893   7.567   5.510   5.397 -0.6020 -1.9610  0.9959
 7337TIP3    H222894   7.434   5.583   5.394  0.6928  0.4852 -0.0416
 7338TIP3   OH222895   0.728   5.379   7.621 -0.3073 -0.1319  0.9135
 7338TIP3    H122896   0.632   5.372   7.626 -0.2608 -1.1371  0.6625
 7338TIP3    H222897   0.760   5.304   7.672  0.3059 -1.2112 -0.9604
 7339TIP3   OH222898   3.828   7.989   3.308  0.2088  0.2830  0.0176
 7339TIP3    H122899   3.906   8.004   3.255  0.3146 -0.1213  0.0555
 7339TIP3    H222900   3.843   7.903   3.348  0.0031  0.4555  0.4744
 7340TIP3   OH222901   8.289   2.164   4.579 -0.1563 -0.4953 -0.1279
 7340TIP3    H122902   8.258   2.254   4.570 -0.7308 -0.5837  0.7966
 7340TIP3    H222903   8.210   2.110   4.573  0.3873 -1.1106 -2.5737
 7341TIP3   OH222904  10.159   5.366  10.741 -0.1765  0.0645 -0.4320
 7341TIP3    H122905  10.073   5.404  10.726  0.4508  2.8535  1.9671
 7341TIP3    H222906  10.179   5.317  10.661 -2.2371  2.7732 -2.8032
 7342TIP3   OH222907   4.160   1.070   1.424 -0.0668 -0.2195  0.3586
 7342TIP3    H122908   4.154   1.124   1.504  0.0013 -1.0626  0.9423
 7342TIP3    H222909   4.253   1.057   1.411 -0.1270 -1.8725  1.3820
 7343TIP3   OH222910   1.746   6.109   6.114 -0.0148 -0.0496  0.2795
 7343TIP3    H122911   1.680   6.125   6.182 -1.5503 -1.6328 -0.7870
 7343TIP3    H222912   1.722   6.169   6.043  0.5301  0.3341  0.4114
 7344TIP3   OH222913  10.676   7.152   6.014 -0.8736 -0.5934 -0.1056
 7344TIP3    H122914  10.695   7.244   5.998 -3.1157  0.1885  1.2712
 7344TIP3    H222915  10.662   7.114   5.927 -0.2126  0.4027 -0.6619
 7345TIP3   OH222916   0.154   7.287   4.944 -0.1412  0.8366  0.2321
 7345TIP3    H122917   0.072   7.283   4.994 -0.1247 -0.4403  0.2002
 7345TIP3    H222918   0.154   7.373   4.904 -2.3214  0.2529 -1.1848
 7346TIP3   OH222919   3.854   1.693   5.326  0.0194 -0.0748  0.5130
 7346TIP3    H122920   3.769   1.710   5.365  0.4151  0.3304  1.2268
 7346TIP3    H222921   3.836   1.637   5.251 -0.9090  0.3322  0.4271
 7347TIP3   OH222922   3.159   4.980   1.999 -0.5129  0.3094 -0.0378
 7347TIP3    H122923   3.195   4.906   2.047  1.4120  0.1165 -1.6442
 7347TIP3    H222924   3.132   5.042   2.067 -1.8103 -1.6386  1.3273
 7348TIP3   OH222925   1.868   1.717   6.012  0.2967 -0.0924 -1.0783
 7348TIP3    H122926   1.847   1.677   6.096 -1.1594  0.7391 -1.0035
 7348TIP3    H222927   1.955   1.755   6.024 -0.0128  0.2795  0.1571
 7349TIP3   OH222928   2.682   5.040   1.199 -0.6334 -0.4994 -0.0592
 7349TIP3    H122929   2.753   5.105   1.203 -0.3511 -0.8680  1.1366
 7349TIP3    H222930   2.702   4.978   1.269 -1.4630 -1.3108 -0.5286
 7350TIP3   OH222931   9.985   4.815   6.623  0.2773  0.1162  0.1164
 7350TIP3    H122932   9.897   4.809   6.586  1.8752  1.3441 -4.6051
 7350TIP3    H222933   9.971   4.837   6.715 -4.2964 -0.2149 -0.2693
 7351TIP3   OH222934   6.502   5.277   8.401  0.2197  0.0460  0.1162
 7351TIP3    H122935   6.465   5.325   8.327 -0.5301 -0.3489  0.2207
 7351TIP3    H222936   6.596   5.283   8.389  0.1461 -1.8042 -2.0664
 7352TIP3   OH222937   0.542   9.558   5.353  0.1275 -0.2948  0.2915
 7352TIP3    H122938   0.561   9.558   5.447 -0.8420 -0.2456  0.5026
 7352TIP3    H222939   0.610   9.615   5.315  0.5075 -0.2881  0.9638
 7353TIP3   OH222940   1.961   2.497   2.249  0.2178 -0.3131  0.1213
 7353TIP3    H122941   1.922   2.571   2.294  0.2209 -0.3577  0.1971
 7353TIP3    H222942   1.968   2.525   2.157  0.2221 -0.2196  0.1508
 7354TIP3   OH222943   5.467   2.377   9.154  0.7823  0.2711  0.6549
 7354TIP3    H122944   5.517   2.439   9.102  2.6523 -0.0864  1.9428
 7354TIP3    H222945   5.525   2.302   9.166 -0.1444 -0.2794  1.9981
 7355TIP3   OH222946   6.585   4.125   7.554  0.5998  0.1355 -0.0215
 7355TIP3    H122947   6.581   4.030   7.543  0.2600  0.0177  1.0300
 7355TIP3    H222948   6.671   4.141   7.593  0.1143  0.1031  1.1032
 7356TIP3   OH222949   6.827   6.757   6.899 -0.0678 -0.4797 -0.2415
 7356TIP3    H122950   6.822   6.797   6.812  0.4780 -0.3236 -0.2023
 7356TIP3    H222951   6.916   6.723   6.904 -0.6800 -2.2339 -0.5160
 7357TIP3   OH222952   1.461   4.144   7.148  0.1619  0.1447 -0.0885
 7357TIP3    H122953   1.398   4.074   7.168  0.0725  0.4809  0.8549
 7357TIP3    H222954   1.471   4.191   7.230 -1.7561  2.8685 -1.2620
 7358TIP3   OH222955   1.951   2.278   8.826  0.0200  0.3627 -0.9596
 7358TIP3    H122956   1.957   2.208   8.892  0.1283  1.5979  0.3982
 7358TIP3    H222957   1.873   2.256   8.775 -1.0005  0.1831  0.6027
 7359TIP3   OH222958   3.827   4.337   9.077  0.3831 -0.1400  0.6373
 7359TIP3    H122959   3.877   4.316   9.156  0.4291  1.4681  1.0662
 7359TIP3    H222960   3.771   4.411   9.102 -0.2421 -0.1655 -0.5893
 7360TIP3   OH222961   7.837   4.524   2.522  0.8430 -0.4455  0.5240
 7360TIP3    H122962   7.907   4.458   2.527 -0.4894 -1.8702  1.6330
 7360TIP3    H222963   7.809   4.536   2.613 -0.1205  0.3485  0.1435
 7361TIP3   OH222964   6.746   0.013   1.722 -0.1968 -0.0641  0.2596
 7361TIP3    H122965   6.760  -0.080   1.739 -1.6526 -0.5377 -0.9366
 7361TIP3    H222966   6.794   0.031   1.641 -0.4597  0.0596  0.1278
 7362TIP3   OH222967   2.967  10.863  10.102  0.1698  0.4771 -0.5046
 7362TIP3    H122968   2.901  10.897  10.041  1.7894  1.5448 -1.7413
 7362TIP3    H222969   2.963  10.922  10.176 -0.6758  0.1636 -0.2905
 7363TIP3   OH222970   1.156   6.948   1.665  0.3004  0.3658 -0.2672
 7363TIP3    H122971   1.147   7.008   1.591  0.3485 -0.3380 -0.8499
 7363TIP3    H222972   1.109   6.869   1.638 -1.5791  0.8415  1.2951
 7364TIP3   OH222973   8.480   2.552   8.708  0.7698  1.0039  0.1622
 7364TIP3    H122974   8.506   2.633   8.752 -1.6884  1.1561  1.5256
 7364TIP3    H222975   8.429   2.581   8.632 -0.7137  0.7825  1.0454
 7365TIP3   OH222976   2.955   1.465   7.984 -0.5102  0.0141  1.1739
 7365TIP3    H122977   3.025   1.505   8.035 -0.0500 -2.0233  2.2828
 7365TIP3    H222978   2.977   1.484   7.892  0.4817  0.9431  1.5930
 7366TIP3   OH222979   7.192   4.537   2.009  0.0663  0.1376 -0.3101
 7366TIP3    H122980   7.267   4.505   1.960 -0.3006  0.8122 -1.3363
 7366TIP3    H222981   7.147   4.596   1.949 -0.4288  0.9452  0.8159
 7367TIP3   OH222982   0.674   8.631   1.571 -0.2004  0.0714 -0.2571
 7367TIP3    H122983   0.742   8.698   1.566  0.6748 -0.7695 -0.0678
 7367TIP3    H222984   0.665   8.612   1.664 -0.3790 -0.1300 -0.3128
 7368TIP3   OH222985   7.009   3.397   2.410 -0.0073 -0.2640 -0.0081
 7368TIP3    H122986   6.951   3.351   2.350 -1.4343 -0.6878  1.6231
 7368TIP3    H222987   7.050   3.328   2.462 -1.5037  0.1373  1.8594
 7369TIP3   OH222988   0.751   9.355   4.332 -0.4622 -0.5095 -0.2192
 7369TIP3    H122989   0.761   9.266   4.297 -1.1964  0.2252 -2.4899
 7369TIP3    H222990   0.662   9.380   4.307 -0.4968  0.6392  0.9643
 7370TIP3   OH222991   0.278   7.488   5.833  0.1711  0.3757  0.4996
 7370TIP3    H122992   0.345   7.457   5.773  0.3017  0.3294  0.6681
 7370TIP3    H222993   0.252   7.411   5.883 -0.2453  0.3237  0.2100
 7371TIP3   OH222994   8.803   8.081   3.460 -0.4059  0.7257  0.0735
 7371TIP3    H122995   8.742   8.080   3.534  0.6202  2.0027  0.9660
 7371TIP3    H222996   8.842   7.993   3.461 -1.5538  0.1894  0.0239
 7372TIP3   OH222997   7.912   1.397  10.812  0.4529  0.4320 -0.4994
 7372TIP3    H122998   7.953   1.329  10.758 -0.7044 -1.7796  1.2592
 7372TIP3    H222999   7.963   1.399  10.892 -0.8836 -0.0274  0.3894
 7373TIP3   OH223000   5.123   0.365   6.849 -0.0344  0.0587  0.1459
 7373TIP3    H123001   5.167   0.329   6.926 -0.8597 -0.4285  0.3947
 7373TIP3    H223002   5.073   0.440   6.883 -0.0003  0.1482 -0.0014
 7374TIP3   OH223003   9.586   7.352   5.442  0.6057  0.8868  0.1986
 7374TIP3    H123004   9.537   7.433   5.452  0.0799  0.6161 -0.0932
 7374TIP3    H223005   9.638   7.345   5.522 -0.8538  0.5134  1.1749
 7375TIP3   OH223006   6.700   4.101   3.784 -0.1210  0.3600  0.3548
 7375TIP3    H123007   6.684   4.070   3.873 -2.1252  2.2227  0.7303
 7375TIP3    H223008   6.791   4.077   3.766 -0.6401 -3.0392  1.5850
 7376TIP3   OH223009   3.903   0.381   1.092 -0.2736  0.0963 -0.3722
 7376TIP3    H123010   3.953   0.378   1.010 -2.1947  0.3290 -1.6179
 7376TIP3    H223011   3.898   0.290   1.121  0.4853  0.0217 -0.4670
 7377TIP3   OH223012   2.304   1.413   1.837 -0.2051 -0.1068 -0.2695
 7377TIP3    H123013   2.293   1.491   1.891 -1.3651 -0.2963 -0.2151
 7377TIP3    H223014   2.397   1.414   1.812  0.5664 -0.3700  2.2889
 7378TIP3   OH223015   1.473   3.331   2.259 -0.2843  0.0062  0.6550
 7378TIP3    H123016   1.423   3.413   2.258  1.2561  1.0008  1.6721
 7378TIP3    H223017   1.545   3.346   2.198 -1.0202 -1.3246 -0.6083
 7379TIP3   OH223018   4.463   8.678   2.915 -0.3450  0.3357 -0.4513
 7379TIP3    H123019   4.368   8.679   2.921 -0.2864 -0.7011  1.2629
 7379TIP3    H223020   4.481   8.644   2.827 -1.5639 -0.1651 -0.5312
 7380TIP3   OH223021   7.225   9.358   3.744  0.3183  0.3942 -0.9926
 7380TIP3    H123022   7.229   9.440   3.793  1.8906  0.4934 -1.2406
 7380TIP3    H223023   7.261   9.380   3.658 -0.0029 -0.3729 -1.3289
 7381TIP3   OH223024  10.717   6.566   6.826 -0.1866  0.2002 -0.5439
 7381TIP3    H123025  10.779   6.515   6.879 -1.3272  0.4567  1.1084
 7381TIP3    H223026  10.717   6.653   6.866 -1.0619  0.4135 -0.9903
 7382TIP3   OH223027   3.325   4.298   5.687 -0.1638 -0.2820  0.1186
 7382TIP3    H123028   3.299   4.214   5.723  0.4091 -0.6315 -0.2644
 7382TIP3    H223029   3.261   4.361   5.722 -2.0272 -1.2066 -1.4365
 7383TIP3   OH223030   2.215   5.004   0.807  0.8698  0.0787  0.1610
 7383TIP3    H123031   2.285   5.064   0.833  0.5113  0.8633 -0.6342
 7383TIP3    H223032   2.242   4.971   0.722 -0.4466  1.6432 -0.9393
 7384TIP3   OH223033   4.794   0.955   2.342  0.3422  0.2932 -0.2364
 7384TIP3    H123034   4.747   0.871   2.344 -0.9550  0.9114 -2.2649
 7384TIP3    H223035   4.885   0.931   2.358 -0.3344 -1.1503  1.9902
 7385TIP3   OH223036  10.690   6.883   6.901  0.4957 -0.2072  0.2594
 7385TIP3    H123037  10.781   6.900   6.876  0.5950  0.9506  1.3700
 7385TIP3    H223038  10.640   6.907   6.823  0.9897  1.0901  0.3193
 7386TIP3   OH223039   9.509  10.755  10.633 -0.1221  0.7459 -0.1459
 7386TIP3    H123040   9.588  10.797  10.597  0.5467 -0.8428 -0.6322
 7386TIP3    H223041   9.501  10.673  10.584 -0.9363 -0.0705  1.2731
 7387TIP3   OH223042   1.246   1.894   6.257  0.3983 -0.5147  0.2294
 7387TIP3    H123043   1.225   1.807   6.223 -0.5536 -1.0172  2.0038
 7387TIP3    H223044   1.191   1.904   6.334  3.3832  0.0178  2.4615
 7388TIP3   OH223045   2.724   7.504   6.722  0.1599  0.2176  1.3173
 7388TIP3    H123046   2.723   7.567   6.794 -1.1624  2.5843 -0.6067
 7388TIP3    H223047   2.815   7.497   6.696  0.2478  2.2041  0.9456
 7389TIP3   OH223048   8.590   1.887   3.109 -0.0234  0.1641  0.1159
 7389TIP3    H123049   8.621   1.801   3.135  0.4114  0.3829  0.3408
 7389TIP3    H223050   8.507   1.871   3.064  1.5402 -0.7202 -2.6904
 7390TIP3   OH223051   3.102   3.348   8.702 -0.2816 -0.1827 -0.6134
 7390TIP3    H123052   3.181   3.402   8.699 -0.3621 -0.0900 -2.4555
 7390TIP3    H223053   3.032   3.409   8.720  0.0108 -0.2312  0.8072
 7391TIP3   OH223054   4.461   2.440  10.683 -0.2036  0.1315 -0.4622
 7391TIP3    H123055   4.409   2.375  10.730 -2.0846  1.0251 -1.1726
 7391TIP3    H223056   4.509   2.487  10.751 -0.9870 -0.1914  0.3370
 7392TIP3   OH223057   9.211   9.234  10.219 -0.0770  0.3075  0.0125
 7392TIP3    H123058   9.275   9.171  10.186  0.1168  0.4937  0.0285
 7392TIP3    H223059   9.176   9.194  10.299 -0.5855 -0.1690 -0.4408
 7393TIP3   OH223060   5.224   3.707   7.161  0.0588  0.0217  0.4401
 7393TIP3    H123061   5.147   3.747   7.201  0.3263  0.4499  0.5286
 7393TIP3    H223062   5.277   3.781   7.131 -0.7662 -0.2621 -1.9371
 7394TIP3   OH223063  10.737   7.759   0.867 -0.5673  0.2692 -0.2982
 7394TIP3    H123064  10.786   7.834   0.902 -2.6255  1.2622  0.6150
 7394TIP3    H223065  10.710   7.787   0.780 -0.3817  0.1249 -0.4031
 7395TIP3   OH223066   8.639  10.893   6.393  0.4972 -0.0618  0.0138
 7395TIP3    H123067   8.675  10.925   6.476  3.0119 -2.2442 -0.0862
 7395TIP3    H223068   8.698  10.928   6.326 -0.0889 -0.2851 -0.6349
 7396TIP3   OH223069   0.800   3.623   9.532 -0.2395 -0.4891 -0.1907
 7396TIP3    H123070   0.706   3.621   9.551 -0.1331 -1.4423  0.2846
 7396TIP3    H223071   0.842   3.637   9.617  0.0735 -0.6889 -0.3116
 7397TIP3   OH223072   4.765   4.912   1.225 -0.1677 -0.0415 -0.3744
 7397TIP3    H123073   4.780   4.919   1.320  1.6548 -3.5613 -0.2212
 7397TIP3    H223074   4.844   4.949   1.186 -0.2352  0.0162 -0.4547
 7398TIP3   OH223075   1.242   5.224   4.460 -0.1854 -0.7867 -0.1553
 7398TIP3    H123076   1.259   5.182   4.376 -0.9737 -0.7027 -0.3674
 7398TIP3    H223077   1.253   5.318   4.443 -1.8750 -0.6306 -0.5820
 7399TIP3   OH223078   9.189   1.467   7.966  0.1233  1.2407  0.5308
 7399TIP3    H123079   9.186   1.385   7.918 -0.2938  1.4874  0.1213
 7399TIP3    H223080   9.104   1.507   7.950  0.7492  2.3161 -0.2993
 7400TIP3   OH223081   5.956   1.246   5.260 -0.0529 -0.9286 -0.4265
 7400TIP3    H123082   5.871   1.211   5.233 -0.5130 -0.2986  0.1834
 7400TIP3    H223083   5.936   1.301   5.336  1.0074 -1.4455  0.2471
 7401TIP3   OH223084   1.610   4.007   6.172  0.0182 -0.7267 -0.3363
 7401TIP3    H123085   1.527   3.961   6.162  0.0148 -0.7443 -0.2243
 7401TIP3    H223086   1.623   4.015   6.266  0.3834 -1.1500 -0.3489
 7402TIP3   OH223087   7.417   2.184   1.773  0.2738 -0.3606 -0.3814
 7402TIP3    H123088   7.412   2.201   1.679  2.8672 -0.5059 -0.6401
 7402TIP3    H223089   7.371   2.258   1.814 -2.5613 -1.2650 -1.7082
 7403TIP3   OH223090   4.788  10.700   4.478  0.0409 -0.2916  0.2430
 7403TIP3    H123091   4.754  10.752   4.405 -0.8422 -0.1604  0.7328
 7403TIP3    H223092   4.879  10.682   4.455 -0.1187  0.0839 -0.7001
 7404TIP3   OH223093  10.259   7.529   8.549 -0.1670 -0.3927  0.3701
 7404TIP3    H123094  10.197   7.539   8.621 -1.1469 -1.1520 -0.3424
 7404TIP3    H223095  10.298   7.443   8.562  0.7460  0.0631  0.7920
 7405TIP3   OH223096  10.848   3.636   8.922 -0.1665 -0.3673  0.3867
 7405TIP3    H123097  10.808   3.693   8.987  0.5370 -1.5346  1.8979
 7405TIP3    H223098  10.781   3.570   8.904 -0.5244  0.1954 -0.4566
 7406TIP3   OH223099   7.999   9.842   4.846  0.5483 -0.1559 -0.3997
 7406TIP3    H123100   8.053   9.797   4.910  0.8373 -0.1493 -0.6357
 7406TIP3    H223101   7.963   9.917   4.893  1.2356  0.1842 -0.4080
 7407TIP3   OH223102   2.830  10.064  10.481  0.5761  0.2942 -0.1854
 7407TIP3    H123103   2.885  10.100  10.411 -0.4870 -0.1794 -1.2912
 7407TIP3    H223104   2.892  10.017  10.538  1.8933  3.0408  0.8622
 7408TIP3   OH223105   9.286   3.759   8.842  0.0747 -0.1603  0.4557
 7408TIP3    H123106   9.222   3.830   8.845  1.7611  1.4050  1.6840
 7408TIP3    H223107   9.360   3.791   8.895  1.4347 -2.3118 -0.0192
 7409TIP3   OH223108   0.870   5.295   7.094  0.6382  0.3189  0.1117
 7409TIP3    H123109   0.810   5.278   7.167 -1.0653 -0.2099 -1.3300
 7409TIP3    H223110   0.928   5.364   7.127 -0.7350  0.8370  1.6065
 7410TIP3   OH223111   1.753   4.914  10.393  0.7885  0.4748  0.6207
 7410TIP3    H123112   1.714   5.001  10.394 -1.2061 -0.3432  0.1216
 7410TIP3    H223113   1.725   4.874  10.475  1.7805  0.3173  0.8960
 7411TIP3   OH223114   3.313   8.383   8.963 -0.2199 -1.0708  0.0818
 7411TIP3    H123115   3.359   8.362   9.044 -0.9857  0.8570  1.0855
 7411TIP3    H223116   3.381   8.416   8.904  0.1391 -1.2162  0.4173
 7412TIP3   OH223117   6.851  10.505   5.669 -0.2573  0.0173 -0.1201
 7412TIP3    H123118   6.795  10.509   5.747  0.4910  0.2905  0.4160
 7412TIP3    H223119   6.857  10.411   5.649 -0.2204 -0.0817  0.3291
 7413TIP3   OH223120   5.960   3.024   7.741  0.0434  0.2184  0.4077
 7413TIP3    H123121   5.898   2.971   7.691 -0.0660  0.6028  0.1330
 7413TIP3    H223122   6.029   2.962   7.766 -0.9070 -0.4388  1.5295
 7414TIP3   OH223123   5.847   0.616   9.882  0.5524  0.2917  0.1471
 7414TIP3    H123124   5.757   0.648   9.879  0.3303  0.2069  2.9389
 7414TIP3    H223125   5.863   0.599   9.975  2.2053 -3.3133 -0.6304
 7415TIP3   OH223126   9.437   8.799   1.639  0.2525  0.1277  0.3470
 7415TIP3    H123127   9.360   8.857   1.636  1.1338  1.4294  1.6259
 7415TIP3    H223128   9.410   8.727   1.696 -0.5599 -0.2888 -0.5369
 7416TIP3   OH223129   6.185   0.409   7.552 -0.3014  0.8283 -0.4538
 7416TIP3    H123130   6.215   0.377   7.637 -3.1656 -1.2382 -0.0579
 7416TIP3    H223131   6.265   0.433   7.505  1.4721  0.6319  2.2451
 7417TIP3   OH223132   7.499   3.727   5.459 -0.4341 -0.3273 -0.0407
 7417TIP3    H123133   7.582   3.705   5.501 -0.7475  0.4729  1.0361
 7417TIP3    H223134   7.523   3.786   5.388 -0.1186  0.2968  0.5792
 7418TIP3   OH223135  10.556   1.003   5.936  0.1787  0.2084  0.1157
 7418TIP3    H123136  10.618   1.037   6.001 -0.2945 -1.9117  1.7748
 7418TIP3    H223137  10.472   1.041   5.961  0.1471  0.0975  0.1736
 7419TIP3   OH223138  10.649  10.753   0.835  0.0611 -0.0313 -0.2553
 7419TIP3    H123139  10.640  10.754   0.739 -0.9675  1.0191 -0.1751
 7419TIP3    H223140  10.691  10.836   0.856  0.9501 -0.5722  0.1727
 7420TIP3   OH223141   7.732  10.700  10.561  0.5186 -0.2562  0.0052
 7420TIP3    H123142   7.739  10.649  10.642 -1.1675  0.4011  0.6083
 7420TIP3    H223143   7.822  10.711  10.532  1.1235 -0.9376  1.5238
 7421TIP3   OH223144   1.334   3.185   8.318  0.3160  0.6489 -0.4234
 7421TIP3    H123145   1.291   3.236   8.387  0.8425 -1.1541  1.3622
 7421TIP3    H223146   1.424   3.173   8.350  0.5888 -0.2006 -1.4442
 7422TIP3   OH223147  10.607   7.988   6.626 -0.2020  0.1953 -0.4815
 7422TIP3    H123148  10.602   8.030   6.711 -0.5067  1.5759 -1.1551
 7422TIP3    H223149  10.615   8.060   6.564 -0.9169 -0.7334 -1.6982
 7423TIP3   OH223150   9.104  10.885   1.924  0.2897  0.2403  0.5468
 7423TIP3    H123151   9.139  10.953   1.982  0.8648 -0.2193  0.7468
 7423TIP3    H223152   9.124  10.803   1.968 -0.0046 -0.0798  0.0918
 7424TIP3   OH223153   3.945   5.649  10.029 -0.3909  0.8111 -0.2315
 7424TIP3    H123154   3.864   5.655   9.979 -0.4541  1.2349 -0.0841
 7424TIP3    H223155   3.964   5.739  10.055 -2.2439  0.3240  3.5059
 7425TIP3   OH223156   3.090   0.389   1.709 -0.0309 -0.7803  0.1934
 7425TIP3    H123157   3.008   0.339   1.707 -1.1945  1.0565 -0.6685
 7425TIP3    H223158   3.137   0.362   1.630 -0.2869 -1.0473  0.1305
 7426TIP3   OH223159   3.325   9.802   3.568  0.1199 -0.1233 -0.5281
 7426TIP3    H123160   3.248   9.855   3.586  1.0372  1.7332 -1.6638
 7426TIP3    H223161   3.356   9.773   3.654  0.6434  2.8447  0.4086
 7427TIP3   OH223162   6.470   6.951   6.629 -0.1108  0.1135 -0.1473
 7427TIP3    H123163   6.516   7.005   6.693  1.0392  0.9879 -1.6561
 7427TIP3    H223164   6.539   6.910   6.578 -1.0064 -1.0111 -0.4852
 7428TIP3   OH223165   3.038   1.846   6.421  0.3513 -0.5333 -0.3147
 7428TIP3    H123166   2.948   1.814   6.430  0.7831 -2.3179 -1.6834
 7428TIP3    H223167   3.072   1.849   6.510 -1.4035  1.3874  0.3587
 7429TIP3   OH223168   7.579   5.275   2.329  0.0233  0.2367  0.0901
 7429TIP3    H123169   7.566   5.360   2.287  0.2321  0.0832 -0.2874
 7429TIP3    H223170   7.490   5.242   2.343 -0.0917 -0.6691 -2.2138
 7430TIP3   OH223171   7.587   7.291   6.698  0.6239 -0.4794 -0.1921
 7430TIP3    H123172   7.613   7.369   6.746  0.6762  1.7504 -3.4903
 7430TIP3    H223173   7.662   7.271   6.642 -0.2018 -1.5448 -0.9778
 7431TIP3   OH223174   5.643   6.272   1.362 -0.1027 -0.5395  0.3801
 7431TIP3    H123175   5.566   6.324   1.388 -0.1732 -0.6045  0.3037
 7431TIP3    H223176   5.715   6.309   1.412 -0.2103 -0.5708  0.5608
 7432TIP3   OH223177   2.925   2.814   7.037  0.3581 -0.5198  0.9945
 7432TIP3    H123178   2.925   2.719   7.042 -0.3632 -0.6040 -0.2720
 7432TIP3    H223179   2.841   2.840   7.076  0.1204 -0.4673  0.4538
 7433TIP3   OH223180   8.062   5.902   4.111  0.4039 -0.6704  0.6474
 7433TIP3    H123181   8.150   5.934   4.091 -0.6196  1.7274 -0.4299
 7433TIP3    H223182   8.005   5.947   4.049 -1.8501 -0.4278  2.7202
 7434TIP3   OH223183   4.016  10.234   2.725  0.0428 -0.5536 -0.4392
 7434TIP3    H123184   3.995  10.288   2.801 -1.7531 -3.7225  1.5305
 7434TIP3    H223185   4.084  10.174   2.756  0.9526 -0.4745 -2.1114
 7435TIP3   OH223186   2.356   4.621   5.806 -0.0420  0.1002 -0.0155
 7435TIP3    H123187   2.286   4.658   5.861  1.8624  1.4131  1.6899
 7435TIP3    H223188   2.328   4.639   5.716 -2.0117  0.3232  0.5956
 7436TIP3   OH223189   0.052   2.750   7.915 -0.4916 -0.1898  0.5846
 7436TIP3    H123190  -0.036   2.754   7.954 -1.1855 -1.8277 -0.7276
 7436TIP3    H223191   0.037   2.766   7.822  0.5683 -0.8852  0.2888
 7437TIP3   OH223192   9.103   5.375   4.285  0.0249  0.3109 -0.1764
 7437TIP3    H123193   9.012   5.361   4.312  0.0635  0.5785  0.0908
 7437TIP3    H223194   9.152   5.374   4.367  0.6657 -2.7375 -0.4461
 7438TIP3   OH223195   1.323   1.678   4.780 -0.0599  0.1024  0.0048
 7438TIP3    H123196   1.335   1.708   4.690  0.2132  1.8018  0.5571
 7438TIP3    H223197   1.407   1.696   4.822 -0.0402 -1.0914  0.5066
 7439TIP3   OH223198   3.349   9.419   5.909 -0.1500 -0.5531  0.0000
 7439TIP3    H123199   3.287   9.470   5.962  0.5021  0.3732 -0.0959
 7439TIP3    H223200   3.303   9.337   5.891 -0.5431 -0.7383  1.6770
 7440TIP3   OH223201   2.716   9.089   1.190  0.1259  0.1053  0.2580
 7440TIP3    H123202   2.775   9.143   1.138  1.1462 -1.6769 -0.5153
 7440TIP3    H223203   2.628   9.122   1.168  0.7223  1.7998  0.2825
 7441TIP3   OH223204   4.986   4.376  10.705 -0.1906 -0.5760 -0.3681
 7441TIP3    H123205   5.023   4.318  10.772  0.9445  1.4323  0.8514
 7441TIP3    H223206   5.036   4.355  10.625 -0.2113 -1.6613 -0.1075
 7442TIP3   OH223207   8.468   6.326   2.837  0.4577  0.7076 -0.8983
 7442TIP3    H123208   8.460   6.418   2.809 -0.2552  0.3328 -2.0225
 7442TIP3    H223209   8.540   6.326   2.900 -1.5100  2.5476  1.5313
 7443TIP3   OH223210   2.137   8.077  10.740  0.0482 -0.2634 -0.4469
 7443TIP3    H123211   2.211   8.026  10.706 -1.2694 -1.9376 -0.9279
 7443TIP3    H223212   2.068   8.066  10.675 -1.2878 -0.4026  0.9279
 7444TIP3   OH223213  10.590  10.132   8.511 -0.1950 -0.1572 -0.2214
 7444TIP3    H123214  10.589  10.192   8.586 -0.9448 -0.7867  0.2820
 7444TIP3    H223215  10.634  10.054   8.544 -0.4340 -0.3957 -0.4693
 7445TIP3   OH223216  10.380   0.952   8.675  0.3357 -0.1423 -0.2617
 7445TIP3    H123217  10.330   0.890   8.729  1.6041  1.4277  2.9969
 7445TIP3    H223218  10.459   0.903   8.650  0.7954 -0.2963  1.3191
 7446TIP3   OH223219   7.524   3.181  10.163  0.3314 -0.5941 -0.2014
 7446TIP3    H123220   7.449   3.122  10.177 -0.4670 -0.2481 -2.4877
 7446TIP3    H223221   7.492   3.266  10.192 -0.5381 -0.2762 -1.9692
 7447TIP3   OH223222   2.408   4.962   4.638 -0.1666  0.0520  0.2923
 7447TIP3    H123223   2.372   4.879   4.670  0.2411  0.0368  0.7266
 7447TIP3    H223224   2.362   5.029   4.687  0.5705  0.0228  1.0456
 7448TIP3   OH223225   7.288   5.130   8.903  0.3139  0.0763  0.0493
 7448TIP3    H123226   7.273   5.082   8.985  3.2161 -0.7487  0.2286
 7448TIP3    H223227   7.343   5.204   8.930 -1.0194  1.4054 -0.7858
 7449TIP3   OH223228   6.425  10.352   5.944  0.2070 -0.2728 -0.2159
 7449TIP3    H123229   6.421  10.290   5.871 -1.9404 -0.5358  0.0676
 7449TIP3    H223230   6.341  10.397   5.942  0.5107  0.4424  1.4754
 7450TIP3   OH223231   1.959   3.043   0.550  0.0267  0.1319 -0.4156
 7450TIP3    H123232   1.896   2.982   0.512 -0.4388  0.7454 -0.6419
 7450TIP3    H223233   1.998   3.089   0.476  1.5958 -1.0232 -0.3697
 7451TIP3   OH223234   8.213  10.480  10.290 -0.1112  0.3250  0.0018
 7451TIP3    H123235   8.262  10.562  10.283  0.3146  0.0445 -0.3248
 7451TIP3    H223236   8.266  10.425  10.349 -0.4936  0.3531  0.3783
 7452TIP3   OH223237   2.757  10.631   6.410  0.4273 -0.3083 -0.1534
 7452TIP3    H123238   2.715  10.688   6.346  3.0567  2.6816  0.5160
 7452TIP3    H223239   2.701  10.636   6.487  0.0291  0.5348 -0.4844
 7453TIP3   OH223240   2.308   7.268   4.918  0.0010 -0.3155 -0.3379
 7453TIP3    H123241   2.403   7.267   4.931 -0.0507  0.1988  0.1238
 7453TIP3    H223242   2.272   7.291   5.004 -0.6113 -1.9018 -0.1353
 7454TIP3   OH223243   0.977   2.030   4.779  0.2946 -0.0105 -0.4314
 7454TIP3    H123244   1.045   2.071   4.831 -0.9034 -0.1426  1.3059
 7454TIP3    H223245   1.012   1.943   4.758  0.2273 -0.5303  1.4510
 7455TIP3   OH223246   7.551   6.805   3.515 -0.0096 -0.2438 -0.2873
 7455TIP3    H123247   7.472   6.792   3.567  0.1783 -1.6842 -0.3171
 7455TIP3    H223248   7.615   6.841   3.577  0.1629 -1.7898  0.4884
 7456TIP3   OH223249   6.548   9.886   0.613  0.4031 -0.4103  0.3661
 7456TIP3    H123250   6.554   9.796   0.579 -1.8392 -0.9570  1.1947
 7456TIP3    H223251   6.489   9.930   0.553 -1.2225 -0.5260  1.8014
 7457TIP3   OH223252   8.757   9.254   1.505  0.3543  0.4064 -0.2835
 7457TIP3    H123253   8.752   9.174   1.452 -0.4095  0.3146 -0.0907
 7457TIP3    H223254   8.684   9.308   1.473 -0.0581  0.3860  0.5960
 7458TIP3   OH223255   3.102  10.265   9.028 -0.6957  0.3008 -0.4458
 7458TIP3    H123256   3.108  10.303   9.115 -1.8130  2.1990 -1.1310
 7458TIP3    H223257   3.072  10.337   8.972 -2.0544 -1.3730 -2.0095
 7459TIP3   OH223258   5.609   8.888   1.934  1.1597  0.1058 -0.4522
 7459TIP3    H123259   5.607   8.795   1.913 -1.1668  0.1121 -0.5150
 7459TIP3    H223260   5.557   8.896   2.014  0.9230  1.4157 -0.7051
 7460TIP3   OH223261   0.555   1.964   2.435  0.2543 -0.1955 -0.6130
 7460TIP3    H123262   0.502   1.932   2.509 -1.0380  0.4116 -1.2303
 7460TIP3    H223263   0.630   1.905   2.431  0.1517 -0.4761  0.9446
 7461TIP3   OH223264   4.139   5.104   3.215  0.4023  0.4026 -0.0466
 7461TIP3    H123265   4.147   5.075   3.125 -3.5193  0.7476 -0.6753
 7461TIP3    H223266   4.133   5.024   3.267 -0.3100  0.1474 -0.5113
 7462TIP3   OH223267   7.461   2.670   0.398 -0.1227  0.2711  0.2473
 7462TIP3    H123268   7.452   2.680   0.303 -1.5619 -0.7348  0.2443
 7462TIP3    H223269   7.423   2.750   0.434 -0.2076  0.3442 -0.0033
 7463TIP3   OH223270   6.791   2.667   4.888  0.0048  0.1895 -0.1475
 7463TIP3    H123271   6.848   2.652   4.963  0.7814 -2.6249 -1.1623
 7463TIP3    H223272   6.840   2.727   4.831  0.2822  0.7471  0.6727
 7464TIP3   OH223273   3.173   3.048  10.661  0.5725 -0.0323 -0.0989
 7464TIP3    H123274   3.131   3.131  10.637  0.2792 -0.4409 -1.0669
 7464TIP3    H223275   3.248   3.073  10.715  1.1206  0.9373 -1.2629
 7465TIP3   OH223276   3.467   2.820  10.140  0.0329  0.6015 -0.0682
 7465TIP3    H123277   3.497   2.903  10.176  0.5067  0.8845 -1.0849
 7465TIP3    H223278   3.502   2.818  10.051 -0.9775 -0.1442 -0.4685
 7466TIP3   OH223279   5.454   9.104   1.403  0.2943  0.0101  0.0660
 7466TIP3    H123280   5.483   9.175   1.460 -0.4715 -0.5689  1.2250
 7466TIP3    H223281   5.504   9.027   1.433 -1.2694 -0.6574  1.0806
 7467TIP3   OH223282   1.610   1.648   7.083 -0.3220  0.3970 -0.0015
 7467TIP3    H123283   1.573   1.573   7.128  0.3706  0.0340 -0.0171
 7467TIP3    H223284   1.604   1.626   6.990  1.7102 -0.5856  0.0259
 7468TIP3   OH223285   9.530   4.441   5.707  1.0286  0.4363 -0.9775
 7468TIP3    H123286   9.596   4.508   5.689  1.7935 -0.6791 -2.5365
 7468TIP3    H223287   9.446   4.487   5.697  1.4790  2.0105  1.5590
 7469TIP3   OH223288   6.891   8.716   5.983 -0.1837 -0.0507  0.2638
 7469TIP3    H123289   6.902   8.721   6.078 -0.3491  0.3599  0.2614
 7469TIP3    H223290   6.812   8.766   5.965 -0.3595 -0.4320 -0.0547
 7470TIP3   OH223291   9.954   3.297  10.723  0.0275 -0.5708 -0.3644
 7470TIP3    H123292  10.024   3.329  10.780 -0.8531 -0.5460  0.7288
 7470TIP3    H223293   9.952   3.203  10.737 -1.2447 -0.3861  0.9107
 7471TIP3   OH223294   8.175  10.140   8.121 -0.2085  0.1788  0.0882
 7471TIP3    H123295   8.267  10.114   8.113 -0.2295  0.3549 -0.7495
 7471TIP3    H223296   8.134  10.065   8.165  0.3599  0.1779  0.6496
 7472TIP3   OH223297   0.076   7.852   9.513  0.4921 -0.1569 -1.0161
 7472TIP3    H123298   0.073   7.802   9.595  1.4623  3.5165  1.4735
 7472TIP3    H223299   0.004   7.816   9.461 -2.8418 -0.1644  3.0949
 7473TIP3   OH223300   3.312   3.651   8.952  0.0512 -0.6924  0.0349
 7473TIP3    H123301   3.250   3.585   8.984  1.2941 -1.8471  0.1835
 7473TIP3    H223302   3.311   3.641   8.857 -0.5818 -0.1402 -0.0214
 7474TIP3   OH223303   6.952   6.888   5.676  0.6342  0.0404  0.2680
 7474TIP3    H123304   6.990   6.960   5.727  0.3776  0.2503  0.1666
 7474TIP3    H223305   6.999   6.810   5.706 -0.9197 -0.1768  2.3661
 7475TIP3   OH223306   2.987   7.719   8.605 -0.2387  0.1271 -0.2346
 7475TIP3    H123307   3.061   7.747   8.551  1.1898  0.3523  1.7395
 7475TIP3    H223308   3.007   7.752   8.693 -1.7428 -1.4745  0.7863
 7476TIP3   OH223309   7.389   5.178   1.720 -0.2780 -0.4644 -0.3513
 7476TIP3    H123310   7.446   5.255   1.720  1.4898 -1.7110  0.4183
 7476TIP3    H223311   7.316   5.202   1.778  0.7388  0.2954  0.6477
 7477TIP3   OH223312  10.271   1.582   1.070 -0.3677 -0.4572 -0.2150
 7477TIP3    H123313  10.305   1.567   1.158  0.5977  0.6618 -0.3730
 7477TIP3    H223314  10.267   1.495   1.030 -1.1643 -1.0233  1.0388
 7478TIP3   OH223315   8.420   2.271   4.239 -0.0367 -0.0219 -0.5957
 7478TIP3    H123316   8.342   2.217   4.253  0.6493 -0.4824  2.1159
 7478TIP3    H223317   8.488   2.209   4.213  0.0687 -0.0643 -0.2325
 7479TIP3   OH223318   4.600   9.613   5.997  0.1997 -0.0494 -0.0426
 7479TIP3    H123319   4.539   9.567   5.939 -1.3192  0.1402  1.3329
 7479TIP3    H223320   4.584   9.706   5.979  1.0423 -0.0078 -0.6082
 7480TIP3   OH223321   0.714   4.567   7.420 -0.0503  0.0724 -0.3117
 7480TIP3    H123322   0.707   4.662   7.425  3.6212  0.6848 -2.6800
 7480TIP3    H223323   0.639   4.540   7.366  1.1792  2.3460 -3.4547
 7481TIP3   OH223324  10.702   7.081   6.485 -0.3170  0.2932  0.2331
 7481TIP3    H123325  10.724   7.173   6.468  0.7281  0.3434  1.7092
 7481TIP3    H223326  10.608   7.083   6.505 -0.6051  0.8294 -1.0519
 7482TIP3   OH223327   0.538   4.675   4.667 -0.0968 -1.0777  0.4735
 7482TIP3    H123328   0.552   4.711   4.580  0.7351  0.3846  1.1594
 7482TIP3    H223329   0.624   4.643   4.694 -0.2798 -1.2516  0.8633
 7483TIP3   OH223330   7.263   3.264   5.820 -0.1713 -0.0708  0.0655
 7483TIP3    H123331   7.277   3.208   5.896  0.5029 -0.0285 -0.0270
 7483TIP3    H223332   7.243   3.350   5.857  3.1324  0.7265  0.2454
 7484TIP3   OH223333   1.908   1.697   9.256  0.5435 -0.2964  0.3164
 7484TIP3    H123334   1.895   1.602   9.255  2.1316 -0.5494 -1.4711
 7484TIP3    H223335   1.832   1.733   9.211  0.9999 -0.9191 -0.9855
 7485TIP3   OH223336   4.189   3.066   9.871 -0.0355  0.1843  0.0894
 7485TIP3    H123337   4.249   3.025   9.933 -0.3341 -0.8441 -0.2889
 7485TIP3    H223338   4.137   2.994   9.836 -1.0757  0.9786 -0.0531
 7486TIP3   OH223339   0.135   7.373   7.005 -0.1382 -0.2573  0.5050
 7486TIP3    H123340   0.067   7.382   7.071 -1.4286 -0.3975 -0.7509
 7486TIP3    H223341   0.128   7.453   6.953  1.5769  0.3575  1.1300
 7487TIP3   OH223342   2.417   7.447   8.509 -0.0525  0.2685  0.0493
 7487TIP3    H123343   2.399   7.373   8.451 -1.2381  0.6625 -0.1065
 7487TIP3    H223344   2.486   7.496   8.464 -0.8834  0.5146 -0.9913
 7488TIP3   OH223345   9.987   4.579   5.492 -0.2158 -0.2579 -0.0805
 7488TIP3    H123346   9.978   4.514   5.422 -0.7175 -0.0517 -0.2160
 7488TIP3    H223347  10.063   4.550   5.542  1.2973  0.5879 -1.7751
 7489TIP3   OH223348   9.533   1.875   4.693  0.8917  0.6201 -0.5456
 7489TIP3    H123349   9.494   1.933   4.759  0.7621  0.0200 -0.0818
 7489TIP3    H223350   9.475   1.799   4.691  2.6041 -0.8095  0.9716
 7490TIP3   OH223351   0.435   1.742   0.381 -0.2609 -0.0053 -0.7943
 7490TIP3    H123352   0.470   1.719   0.466  0.9855 -0.3115 -1.3625
 7490TIP3    H223353   0.370   1.675   0.362  1.0521 -1.2399 -1.0419
 7491TIP3   OH223354   2.331   4.665   6.259  0.1493  0.0181  0.6384
 7491TIP3    H123355   2.367   4.691   6.344  0.8131 -0.0796  0.3973
 7491TIP3    H223356   2.383   4.588   6.233  0.5301  0.5431 -0.2277
 7492TIP3   OH223357   3.635  10.525   5.832  0.0775  0.1645  0.2357
 7492TIP3    H123358   3.558  10.543   5.776  0.5633 -0.2478 -0.5879
 7492TIP3    H223359   3.597  10.502   5.917 -0.7338 -0.2797 -0.2244
 7493TIP3   OH223360   5.460   9.670   3.653  0.1583  0.5072  0.2427
 7493TIP3    H123361   5.402   9.739   3.686 -1.9348 -0.1527 -1.7681
 7493TIP3    H223362   5.405   9.593   3.646  0.9947  0.0244 -2.4507
 7494TIP3   OH223363   0.758   4.051   0.749 -0.1985  0.2195  0.5741
 7494TIP3    H123364   0.784   4.041   0.658 -0.6597  0.4480  0.4129
 7494TIP3    H223365   0.809   3.985   0.796 -0.6326 -0.5306  0.0216
 7495TIP3   OH223366   6.501   9.916   1.308 -0.6086  0.0660 -0.5473
 7495TIP3    H123367   6.538  10.004   1.316  0.4624 -0.1905 -2.1987
 7495TIP3    H223368   6.407   9.929   1.324  0.0438  0.6577  4.1784
 7496TIP3   OH223369   8.358   6.026   1.275  0.1355  0.5648 -0.1464
 7496TIP3    H123370   8.315   5.955   1.323 -0.3285  1.1558  0.3233
 7496TIP3    H223371   8.420   6.064   1.338  1.0883 -0.0240 -0.6933
 7497TIP3   OH223372  10.689   8.287   1.053 -0.1954 -0.2112 -0.4780
 7497TIP3    H123373  10.776   8.317   1.081 -0.3677 -0.7960  0.7310
 7497TIP3    H223374  10.643   8.368   1.029 -0.1967  0.3961  1.4398
 7498TIP3   OH223375   7.910   6.269   2.720 -0.1416  0.1592  0.6914
 7498TIP3    H123376   7.955   6.347   2.690  1.0775  0.6178  3.4561
 7498TIP3    H223377   7.975   6.199   2.714 -0.0114  0.1719  1.7234
 7499TIP3   OH223378   0.046   3.999   6.124 -0.0879 -0.7711  0.1871
 7499TIP3    H123379  -0.047   3.986   6.142  0.0913 -0.5394  1.3642
 7499TIP3    H223380   0.050   4.020   6.031 -1.3310  0.2607  0.3383
 7500TIP3   OH223381   2.916   8.851   8.544  0.1011 -0.2536 -0.1867
 7500TIP3    H123382   2.945   8.866   8.454 -1.3682 -3.0214 -1.2437
 7500TIP3    H223383   2.994   8.823   8.591  0.3279 -1.8888 -1.4635
 7501TIP3   OH223384   2.417  10.724   1.329 -0.3281  0.6872  0.2228
 7501TIP3    H123385   2.415  10.694   1.420  0.8406  0.2677  0.1304
 7501TIP3    H223386   2.480  10.796   1.329 -0.4745  0.8196 -0.2166
 7502TIP3   OH223387   0.813   3.311   2.266  0.6043  0.3794 -0.3731
 7502TIP3    H123388   0.775   3.374   2.205  0.2753 -0.1463 -0.7187
 7502TIP3    H223389   0.906   3.334   2.269  0.2944  1.6425  0.4414
 7503TIP3   OH223390   4.348   6.604   3.011  0.4050 -0.3352  0.7163
 7503TIP3    H123391   4.385   6.613   3.099  0.5415  0.0234  0.6228
 7503TIP3    H223392   4.304   6.519   3.012  1.4425 -0.8984  0.7612
 7504TIP3   OH223393   8.957   3.526   9.937 -0.3593  0.1343  0.5572
 7504TIP3    H123394   8.882   3.533   9.878 -0.2334  2.0435  0.5773
 7504TIP3    H223395   9.032   3.551   9.883  0.0301 -0.0416  1.0082
 7505TIP3   OH223396   8.645   0.267   0.500 -0.6596  0.1692 -0.0451
 7505TIP3    H123397   8.669   0.359   0.494  1.8480 -0.3148  1.2074
 7505TIP3    H223398   8.672   0.229   0.416  1.9015 -0.0721  0.8019
 7506TIP3   OH223399   0.051   3.816   7.767 -0.4474 -0.2738 -0.0826
 7506TIP3    H123400   0.024   3.771   7.688  1.6323 -0.4558 -0.7597
 7506TIP3    H223401   0.116   3.880   7.737  1.2235 -1.1008  1.5470
 7507TIP3   OH223402   3.331   0.986  10.205 -0.0936  0.2817  0.2173
 7507TIP3    H123403   3.239   1.005  10.223  0.4579  0.2394  3.7386
 7507TIP3    H223404   3.374   1.071  10.206 -0.0065  0.2765 -1.1569
 7508TIP3   OH223405   1.021   8.239   7.005 -0.0064  0.2014 -0.0053
 7508TIP3    H123406   0.956   8.287   7.057  0.1782  1.2100 -0.6814
 7508TIP3    H223407   1.044   8.299   6.935 -1.6620 -1.7807 -2.4313
 7509TIP3   OH223408   6.346   3.056   5.783 -0.5672  0.1280  0.1793
 7509TIP3    H123409   6.337   3.101   5.866 -0.8189  0.7666 -0.1867
 7509TIP3    H223410   6.395   2.977   5.803  1.1511  1.2521  0.5996
 7510TIP3   OH223411   8.086   5.044   9.051 -0.1309  0.2469 -0.7338
 7510TIP3    H123412   8.039   5.111   9.099  1.8587 -1.0256  3.4922
 7510TIP3    H223413   8.062   4.962   9.094  0.1855 -1.3723 -3.4195
 7511TIP3   OH223414   5.196   3.067   5.848  0.1076  0.0118 -0.5942
 7511TIP3    H123415   5.121   3.120   5.821 -0.8098 -0.3324  1.0974
 7511TIP3    H223416   5.176   2.980   5.814 -0.0060  0.0405 -0.6037
 7512TIP3   OH223417   4.158   1.628   1.678 -0.2356  1.1974  0.3044
 7512TIP3    H123418   4.214   1.596   1.748 -2.1010  1.4758  2.0026
 7512TIP3    H223419   4.190   1.584   1.599 -0.6254 -2.3817  1.9699
 7513TIP3   OH223420   9.199  10.508  10.122  0.0424  0.7500 -0.1827
 7513TIP3    H123421   9.266  10.531  10.186 -0.7884 -0.0045  1.0082
 7513TIP3    H223422   9.201  10.412  10.118 -0.3563  0.7575 -0.8054
 7514TIP3   OH223423   3.114   6.786  10.358 -0.5249 -0.5608 -0.3291
 7514TIP3    H123424   3.061   6.862  10.334 -0.2307  0.2402  1.3981
 7514TIP3    H223425   3.064   6.741  10.426 -0.8330 -2.1261 -1.5336
 7515TIP3   OH223426   9.900   7.104   0.349  0.1764 -0.1308  1.0108
 7515TIP3    H123427   9.962   7.038   0.379 -0.9292 -1.3775  0.6769
 7515TIP3    H223428   9.836   7.111   0.420  0.3552  0.7047  1.1030
 7516TIP3   OH223429   7.059   7.900   8.856 -0.0262 -0.1271 -0.2066
 7516TIP3    H123430   7.001   7.878   8.928  1.9613 -1.1175  1.1795
 7516TIP3    H223431   7.035   7.840   8.786  0.3074 -1.5626  0.8750
 7517TIP3   OH223432   3.884   7.794   2.137  0.2537  0.0252  0.4048
 7517TIP3    H123433   3.909   7.876   2.181  0.6235  0.7398 -1.0945
 7517TIP3    H223434   3.909   7.725   2.199 -1.0288  1.0493  2.1630
 7518TIP3   OH223435   5.646   8.471   9.099 -0.0296  0.6444  0.3217
 7518TIP3    H123436   5.575   8.438   9.043 -0.2328 -0.6508  1.2871
 7518TIP3    H223437   5.682   8.545   9.050 -2.4904  1.8194  0.0833
 7519TIP3   OH223438   0.921   8.755   9.503  0.4519  0.0710  0.1752
 7519TIP3    H123439   0.960   8.714   9.580 -1.0386 -0.1161  0.8749
 7519TIP3    H223440   0.974   8.725   9.429  1.8207  0.1410  1.1065
 7520TIP3   OH223441   7.647  10.269   8.682  0.0036 -0.1396 -0.5541
 7520TIP3    H123442   7.720  10.238   8.628  2.9305  3.7202  0.7459
 7520TIP3    H223443   7.608  10.340   8.631 -0.7334  0.0296  0.2191
 7521TIP3   OH223444   4.461   5.022   9.058 -0.1547  0.4984 -0.3042
 7521TIP3    H123445   4.463   5.092   9.123  2.4606 -0.0918  0.3340
 7521TIP3    H223446   4.372   4.986   9.064 -1.1455  2.8684  0.2530
 7522TIP3   OH223447   1.567   5.117   1.395 -0.8037  0.0746 -0.1063
 7522TIP3    H123448   1.474   5.122   1.376 -0.7300 -0.1206 -0.5261
 7522TIP3    H223449   1.572   5.072   1.479 -1.2140  2.3368  1.2124
 7523TIP3   OH223450   9.374   3.847   1.642 -0.1486  0.3140  0.3936
 7523TIP3    H123451   9.416   3.931   1.621 -1.3171  0.6636 -0.6683
 7523TIP3    H223452   9.447   3.788   1.657  0.7125  1.3673  0.5210
 7524TIP3   OH223453   5.563   3.676   5.310  0.0205  0.0531  0.5274
 7524TIP3    H123454   5.645   3.642   5.275 -0.5710 -1.1287  0.2450
 7524TIP3    H223455   5.584   3.766   5.336  1.8760 -0.7902  2.1928
 7525TIP3   OH223456   4.973   3.928   5.585  0.2474 -0.1899 -0.5961
 7525TIP3    H123457   5.063   3.953   5.567  0.2883  0.3908  0.3359
 7525TIP3    H223458   4.971   3.910   5.679 -1.1338  2.3029 -0.0583
 7526TIP3   OH223459   6.365   7.502   8.216  0.6029  0.3316  0.7463
 7526TIP3    H123460   6.289   7.538   8.262  0.0317  0.6091 -0.3901
 7526TIP3    H223461   6.439   7.526   8.270 -0.1362 -0.2976  2.1025
 7527TIP3   OH223462   0.883   9.236   3.148 -0.4446  0.2841  0.2961
 7527TIP3    H123463   0.901   9.280   3.232  0.8464  0.1621  0.1029
 7527TIP3    H223464   0.848   9.151   3.173 -0.9408  0.5996  0.6999
 7528TIP3   OH223465   9.231   1.222   7.809 -0.1998  0.0285 -0.6898
 7528TIP3    H123466   9.201   1.244   7.721  1.5112  0.0186 -1.3128
 7528TIP3    H223467   9.240   1.127   7.808 -1.9312 -0.1804  0.1161
 7529TIP3   OH223468   2.438   7.651   6.787  0.4620 -0.5590  0.1516
 7529TIP3    H123469   2.418   7.684   6.875  0.1085  0.9149 -0.4463
 7529TIP3    H223470   2.527   7.617   6.794  0.9477  0.7581  0.7803
 7530TIP3   OH223471   2.158   0.550   7.391 -0.5684 -0.3846 -0.6919
 7530TIP3    H123472   2.226   0.551   7.323 -1.0949  1.6757 -1.2696
 7530TIP3    H223473   2.187   0.484   7.454  1.7259  0.0930 -1.1678
 7531TIP3   OH223474   5.534  10.424   8.935  0.1370  0.3295  0.4403
 7531TIP3    H123475   5.627  10.403   8.932 -0.0410 -0.3640 -0.8919
 7531TIP3    H223476   5.497  10.361   8.998  0.1508 -1.2620 -1.0747
 7532TIP3   OH223477  10.355   4.440   5.156 -0.7495  0.3819  0.3258
 7532TIP3    H123478  10.392   4.400   5.235 -1.7329 -0.4163  0.3961
 7532TIP3    H223479  10.299   4.510   5.188 -0.0369  1.0060  0.2543
 7533TIP3   OH223480   1.402   9.175   0.764 -0.5475  0.0384 -0.2403
 7533TIP3    H123481   1.401   9.124   0.683 -0.3664 -0.8403  0.2941
 7533TIP3    H223482   1.418   9.110   0.832  2.6419  1.1106  0.2128
 7534TIP3   OH223483   8.079   4.656   3.454 -0.1891  0.0661 -0.2749
 7534TIP3    H123484   8.058   4.619   3.540  1.7217 -0.4045  0.0330
 7534TIP3    H223485   8.021   4.611   3.393  1.2736 -2.6974  0.2317
 7535TIP3   OH223486   8.522   4.714   6.897  0.4514 -0.3039  0.1419
 7535TIP3    H123487   8.443   4.661   6.890 -0.1589  0.4963  0.7676
 7535TIP3    H223488   8.520   4.770   6.819  0.8067 -0.8071 -0.2334
 7536TIP3   OH223489   7.027   2.211   8.553  0.2517 -0.7030 -0.0208
 7536TIP3    H123490   6.948   2.181   8.598 -0.2636 -0.1753 -0.5609
 7536TIP3    H223491   6.995   2.264   8.480  1.1127 -0.0589  0.0502
 7537TIP3   OH223492   9.761   8.124   9.775  0.5906 -0.3513  1.0550
 7537TIP3    H123493   9.855   8.109   9.767  0.1757 -2.3324 -1.4166
 7537TIP3    H223494   9.722   8.038   9.763 -1.5954  0.6995  0.0932
 7538TIP3   OH223495   6.113   9.030   1.963 -0.0978 -0.5106 -0.2605
 7538TIP3    H123496   6.040   9.081   1.997  0.0328  1.9503 -3.2334
 7538TIP3    H223497   6.191   9.071   2.001 -0.1073 -0.3334 -0.4295
 7539TIP3   OH223498   6.804   6.233   0.208  0.0640  0.0374 -0.1859
 7539TIP3    H123499   6.861   6.166   0.244  0.1658 -0.6254 -1.5162
 7539TIP3    H223500   6.731   6.239   0.270 -0.3227 -1.8436 -0.4082
 7540TIP3   OH223501  10.363   9.105   6.518  0.4033  0.1569  0.2706
 7540TIP3    H123502  10.289   9.053   6.549  1.7759 -1.0174  1.7489
 7540TIP3    H223503  10.438   9.047   6.525  1.6060  1.5475 -0.4737
 7541TIP3   OH223504   2.796   0.538   4.388 -0.0256 -0.5794  0.0347
 7541TIP3    H123505   2.827   0.595   4.460 -2.8597 -0.7592  1.5156
 7541TIP3    H223506   2.824   0.450   4.414  0.9371 -0.3717 -0.2629
 7542TIP3   OH223507   4.839   9.508   9.216  0.0210  0.2478  0.3850
 7542TIP3    H123508   4.896   9.482   9.288  0.7952  2.1030  0.4927
 7542TIP3    H223509   4.840   9.433   9.157  0.2180 -0.8898  1.7760
 7543TIP3   OH223510   8.960   0.782   1.617 -0.3969 -0.2171 -0.1558
 7543TIP3    H123511   8.908   0.815   1.690 -2.5407 -0.2939 -1.5586
 7543TIP3    H223512   8.958   0.851   1.551  2.1549  0.1791  0.0635
 7544TIP3   OH223513   8.222   5.206   0.455  0.2279  0.0212  0.0885
 7544TIP3    H123514   8.225   5.263   0.532  0.4337 -0.9528  0.8214
 7544TIP3    H223515   8.131   5.178   0.449  0.3342 -0.3849  0.3438
 7545TIP3   OH223516  10.832   6.336   0.406  0.1525  0.3267  0.5665
 7545TIP3    H123517  10.852   6.398   0.336  1.5077 -0.8234 -0.1030
 7545TIP3    H223518  10.738   6.346   0.421 -0.1785  0.5608 -1.4451
 7546TIP3   OH223519   0.228   5.010   3.349 -0.3741 -0.3037 -0.2037
 7546TIP3    H123520   0.208   4.942   3.414  2.7258 -0.1492  1.1190
 7546TIP3    H223521   0.213   4.968   3.265 -2.1909 -1.3269  0.5733
 7547TIP3   OH223522   4.561   8.230   6.392  0.4849 -0.3859  0.3953
 7547TIP3    H123523   4.639   8.176   6.404  1.3355  0.3999 -1.2524
 7547TIP3    H223524   4.577   8.307   6.447  0.4346 -0.6387  0.7692
 7548TIP3   OH223525   4.235   0.023   1.564  0.3008  0.1700  0.1922
 7548TIP3    H123526   4.216   0.064   1.479 -0.2568  0.4697  0.4555
 7548TIP3    H223527   4.149   0.002   1.600  0.5491 -2.0596 -0.3146
 7549TIP3   OH223528   4.776   3.593   7.784 -0.2503  0.2456  0.4041
 7549TIP3    H123529   4.691   3.562   7.816 -0.5033  0.5096 -0.0067
 7549TIP3    H223530   4.828   3.513   7.774 -0.4866  0.0716  0.5451
 7550TIP3   OH223531   8.945   3.628   7.341 -0.1232  0.4572 -0.4333
 7550TIP3    H123532   8.907   3.657   7.424  0.6784  1.5597 -0.4399
 7550TIP3    H223533   8.905   3.542   7.326 -0.0471  0.0937  1.2401
 7551TIP3   OH223534   3.417   3.877   5.482  0.3789 -0.2028  0.3774
 7551TIP3    H123535   3.432   3.892   5.389 -0.6272 -1.4245 -0.0096
 7551TIP3    H223536   3.394   3.963   5.517  0.5715  0.2349 -0.5356
 7552TIP3   OH223537   8.656   4.844  10.086 -0.2030 -0.5684  0.6665
 7552TIP3    H123538   8.641   4.925  10.037  0.4185 -0.3149  0.8852
 7552TIP3    H223539   8.721   4.868  10.153  1.4341 -1.6915 -0.4613
 7553TIP3   OH223540  10.469   6.738   6.325  0.4106  0.5627  0.5189
 7553TIP3    H123541  10.386   6.729   6.278  1.7280  0.8914 -2.0254
 7553TIP3    H223542  10.447   6.790   6.402 -2.5751 -3.0001  2.4332
 7554TIP3   OH223543   9.674   1.394   6.313 -0.2835  0.2206 -0.3356
 7554TIP3    H123544   9.730   1.434   6.246 -0.1686 -0.6483 -0.7739
 7554TIP3    H223545   9.605   1.458   6.328  1.1440  1.6171  0.6769
 7555TIP3   OH223546   9.676  10.478   4.291 -0.0494 -0.9320 -0.4486
 7555TIP3    H123547   9.614  10.548   4.268  0.5723  0.0346  0.7103
 7555TIP3    H223548   9.730  10.467   4.212 -0.6721 -0.6733 -0.9230
 7556TIP3   OH223549   2.743   1.344   8.110  0.0532 -0.0648  0.5818
 7556TIP3    H123550   2.807   1.405   8.074 -0.3155  0.0849  0.1737
 7556TIP3    H223551   2.743   1.270   8.050 -0.5778  0.1928  0.2564
 7557TIP3   OH223552   9.241  10.883  10.081 -0.2883 -0.2168 -0.5478
 7557TIP3    H123553   9.217  10.831  10.157  2.4187 -0.8257 -0.0278
 7557TIP3    H223554   9.323  10.926  10.105 -0.4962  1.3432 -2.3439
 7558TIP3   OH223555   8.940   8.712   0.076 -0.7185  0.3655 -0.0884
 7558TIP3    H123556   8.936   8.668  -0.009 -0.8684  0.3079 -0.0526
 7558TIP3    H223557   8.860   8.764   0.080  0.1352  1.7782 -0.7353
 7559TIP3   OH223558   6.545   7.522   1.575  0.0653  0.5277 -0.3183
 7559TIP3    H123559   6.587   7.521   1.660  1.0578  0.4790 -0.8012
 7559TIP3    H223560   6.515   7.612   1.564  1.2758  0.9215 -0.5521
 7560TIP3   OH223561   7.338   9.115   3.529 -0.5356  0.7061 -0.0162
 7560TIP3    H123562   7.375   9.028   3.538 -0.9825  0.3301 -1.5399
 7560TIP3    H223563   7.264   9.116   3.591  0.4864  0.6218  1.2375
 7561TIP3   OH223564   7.653   8.793   2.073  0.2290 -0.4205 -0.1824
 7561TIP3    H123565   7.635   8.727   2.139  0.9503 -2.4361 -1.8756
 7561TIP3    H223566   7.580   8.854   2.079 -0.1298 -0.9757  1.8843
 7562TIP3   OH223567   9.015   0.796   9.369  0.1000  0.2122  0.1153
 7562TIP3    H123568   9.081   0.855   9.334  0.1241 -0.5094 -1.1093
 7562TIP3    H223569   8.942   0.800   9.307  0.8194 -2.3719 -1.0564
 7563TIP3   OH223570   0.494   4.117   2.656  0.1131  0.5882  0.5502
 7563TIP3    H123571   0.581   4.122   2.615 -0.4713  2.4442 -0.6142
 7563TIP3    H223572   0.435   4.151   2.589 -1.5921 -1.0140  1.1792
 7564TIP3   OH223573   6.154  10.892   1.370  0.3011 -0.0958  1.2210
 7564TIP3    H123574   6.245  10.874   1.347  0.1592 -2.1205  2.0306
 7564TIP3    H223575   6.157  10.916   1.462  0.0674  0.4760  1.0838
 7565TIP3   OH223576   4.846   2.760   1.648  0.0383  0.2933 -0.0089
 7565TIP3    H123577   4.885   2.707   1.578 -0.4015 -0.9304  0.6295
 7565TIP3    H223578   4.763   2.790   1.611  1.8830  3.8540 -1.7966
 7566TIP3   OH223579   8.636   4.040   9.075 -0.1317  0.4026  0.4073
 7566TIP3    H123580   8.598   4.020   9.160  0.4411 -0.1708  0.5362
 7566TIP3    H223581   8.560   4.055   9.018 -0.5288  0.1495  0.8599
 7567TIP3   OH223582   1.806   7.655   1.126  0.2149  0.2425  0.3752
 7567TIP3    H123583   1.732   7.606   1.090  0.6716 -0.3882  0.2780
 7567TIP3    H223584   1.812   7.733   1.070 -0.4388  0.3534  0.4524
 7568TIP3   OH223585   9.874  10.222   1.464 -0.4349 -0.3109  0.7642
 7568TIP3    H123586   9.809  10.290   1.450 -0.8125 -1.1208 -2.0526
 7568TIP3    H223587   9.949  10.250   1.410 -0.7067 -2.1608 -0.6869
 7569TIP3   OH223588   3.767   6.874  10.606  0.4235 -0.5743  0.2644
 7569TIP3    H123589   3.755   6.965  10.632 -2.9058 -1.7025  3.7560
 7569TIP3    H223590   3.826   6.838  10.673  2.0729 -0.9451 -1.3379
 7570TIP3   OH223591   2.285   9.197   2.036 -0.3448 -0.5506  0.6703
 7570TIP3    H123592   2.262   9.119   1.986  0.9345 -1.2920  1.1916
 7570TIP3    H223593   2.201   9.233   2.064 -1.1003 -0.2823 -1.7093
 7571TIP3   OH223594   4.600   0.143   0.754 -0.0799 -0.2256 -0.6780
 7571TIP3    H123595   4.546   0.083   0.703 -0.4142 -0.2001 -0.3542
 7571TIP3    H223596   4.548   0.163   0.832  0.3919 -0.2075 -0.3592
 7572TIP3   OH223597   0.737   8.447   7.519 -0.2493 -0.0253  0.5824
 7572TIP3    H123598   0.668   8.386   7.493  0.8653 -1.3238  0.5660
 7572TIP3    H223599   0.751   8.501   7.441  1.1737 -2.0949 -0.7262
 7573TIP3   OH223600   7.268   6.269   1.795 -0.0590 -0.4010 -0.5038
 7573TIP3    H123601   7.321   6.194   1.766  0.6026  0.2793 -1.1233
 7573TIP3    H223602   7.303   6.343   1.745  0.0999  0.5498  0.9618
 7574TIP3   OH223603   1.264   0.485  10.074  0.2892  0.1682 -0.1044
 7574TIP3    H123604   1.268   0.399  10.115 -2.2757  1.0992  2.5551
 7574TIP3    H223605   1.353   0.520  10.083  1.2837 -1.9674 -0.9070
 7575TIP3   OH223606   2.346   4.374  10.533  0.3414  0.2652  0.6047
 7575TIP3    H123607   2.297   4.401  10.610  1.7742 -0.6569  1.9135
 7575TIP3    H223608   2.387   4.454  10.501 -2.8798  1.3211 -1.2964
 7576TIP3   OH223609   4.993   4.810   1.773  0.1188 -0.3143  0.3966
 7576TIP3    H123610   4.965   4.728   1.732 -1.6876 -0.6450  2.1042
 7576TIP3    H223611   4.929   4.875   1.743  1.1195  0.3455 -0.3799
 7577TIP3   OH223612   4.092   1.652   4.659  0.0838 -0.3949 -0.2626
 7577TIP3    H123613   4.105   1.646   4.564 -1.6958  2.1048 -0.7638
 7577TIP3    H223614   3.999   1.633   4.671  0.2602 -0.5317  0.9894
 7578TIP3   OH223615  10.075  10.881   7.583  0.1777  0.0832  0.1308
 7578TIP3    H123616  10.112  10.875   7.671 -0.6807 -1.3060  0.4319
 7578TIP3    H223617   9.983  10.907   7.597  0.4398  1.4163 -0.4688
 7579TIP3   OH223618   6.840   2.736   8.679 -0.6345  0.2836  0.4992
 7579TIP3    H123619   6.884   2.778   8.605  0.2674 -0.2263  0.7304
 7579TIP3    H223620   6.876   2.647   8.681 -0.9540  0.1667  1.2904
 7580TIP3   OH223621   5.610   1.203   0.937  0.1770  0.2008 -0.5278
 7580TIP3    H123622   5.680   1.259   0.903  0.6486  0.5318  0.9062
 7580TIP3    H223623   5.542   1.265   0.965 -0.1823 -0.0621 -0.8129
 7581TIP3   OH223624   4.551  10.677  10.628 -0.3170  0.2072  0.5184
 7581TIP3    H123625   4.474  10.619  10.627 -1.7764  2.0579  0.5894
 7581TIP3    H223626   4.531  10.744  10.562  0.3763  1.7483  1.8098
 7582TIP3   OH223627   6.744   3.583   5.398  0.2855 -0.1155  0.4296
 7582TIP3    H123628   6.651   3.581   5.423 -0.2679  0.7114 -1.3248
 7582TIP3    H223629   6.772   3.672   5.417  0.8490 -0.4670  1.2956
 7583TIP3   OH223630   5.565   0.238   2.413 -0.1660 -0.0265  0.2128
 7583TIP3    H123631   5.481   0.282   2.426 -0.2825 -0.4366  0.8535
 7583TIP3    H223632   5.569   0.171   2.481  0.9638  0.4174  0.6140
 7584TIP3   OH223633   5.792   3.459   8.289 -0.1672 -0.4011  0.3108
 7584TIP3    H123634   5.856   3.392   8.311  1.5387  1.4476  1.4113
 7584TIP3    H223635   5.839   3.519   8.231 -1.3656  0.2737 -0.0081
 7585TIP3   OH223636   8.816  10.488   6.631  0.6604 -0.1757 -0.2539
 7585TIP3    H123637   8.787  10.507   6.720  0.2654  1.1047 -0.6348
 7585TIP3    H223638   8.796  10.395   6.618  0.3021 -0.2577  0.8239
 7586TIP3   OH223639   3.351   1.824   4.364 -0.4375  0.2230 -0.2891
 7586TIP3    H123640   3.321   1.735   4.347 -0.3929  0.1108  0.2228
 7586TIP3    H223641   3.293   1.856   4.433 -0.6175  0.6810 -0.6493
 7587TIP3   OH223642  10.471   1.188   2.167 -0.2005 -0.2053  0.4852
 7587TIP3    H123643  10.437   1.101   2.188  0.4958 -0.9082 -1.1713
 7587TIP3    H223644  10.553   1.194   2.216  0.0433 -0.7265  0.1499
 7588TIP3   OH223645   1.624  10.350  10.459 -0.3173  0.3663  0.4717
 7588TIP3    H123646   1.709  10.374  10.423 -0.0581 -0.5184  0.4819
 7588TIP3    H223647   1.611  10.411  10.532 -1.2704  2.8447 -1.5839
 7589TIP3   OH223648   1.839   9.799   0.452  0.0616  0.0953 -0.2029
 7589TIP3    H123649   1.833   9.709   0.418  1.2727 -0.2360  0.3889
 7589TIP3    H223650   1.750   9.820   0.479  0.0768 -1.7852  1.6869
 7590TIP3   OH223651   2.058   3.811   5.700  0.4647  0.2410 -0.2460
 7590TIP3    H123652   1.991   3.743   5.710  1.0464 -0.4665 -1.0155
 7590TIP3    H223653   2.018   3.877   5.644 -0.0064  0.4053  0.2769
 7591TIP3   OH223654   1.517   8.154   0.716 -0.2424  0.0847 -0.6021
 7591TIP3    H123655   1.504   8.245   0.687 -0.8193 -0.2035 -1.2775
 7591TIP3    H223656   1.546   8.162   0.807 -2.1494  0.9051 -0.0008
 7592TIP3   OH223657  10.777   5.922   5.151 -0.2836 -0.0024 -0.5204
 7592TIP3    H123658  10.812   5.981   5.084 -0.6394  0.6081 -0.1807
 7592TIP3    H223659  10.685   5.948   5.159 -0.4036 -0.5061 -0.2560
 7593TIP3   OH223660   1.663   9.731   1.667  0.8075  0.0647 -0.4896
 7593TIP3    H123661   1.643   9.801   1.604  0.0885 -0.2996 -0.6853
 7593TIP3    H223662   1.578   9.690   1.684  1.1875 -0.6210 -0.2103
 7594TIP3   OH223663   6.767  10.587   7.970  0.3291 -0.3658  0.0621
 7594TIP3    H123664   6.791  10.522   8.036 -0.3312 -0.3448  0.3285
 7594TIP3    H223665   6.679  10.616   7.995  0.6150  0.6447 -0.0379
 7595TIP3   OH223666  10.654   1.203   5.319  1.0188  0.4362 -0.0753
 7595TIP3    H123667  10.708   1.256   5.378  1.5081  2.3396 -2.0865
 7595TIP3    H223668  10.711   1.129   5.294  1.0006 -0.0742  1.3368
 7596TIP3   OH223669   2.048   1.701   2.203 -0.3342 -0.1216  0.6171
 7596TIP3    H123670   2.054   1.783   2.154 -1.0222  0.0359  0.7918
 7596TIP3    H223671   2.121   1.704   2.265 -0.6069  0.5433  0.9071
 7597TIP3   OH223672   0.482   2.825  10.654  0.5940  0.1040 -0.2993
 7597TIP3    H123673   0.413   2.843  10.590  1.0278  2.8715 -0.1040
 7597TIP3    H223674   0.549   2.779  10.604 -0.5252 -0.8734 -0.9597
 7598TIP3   OH223675   1.128   2.193   9.552  0.2555 -0.5270 -0.7495
 7598TIP3    H123676   1.085   2.249   9.488  2.2490 -2.2847 -3.8703
 7598TIP3    H223677   1.083   2.108   9.543 -0.0785 -0.5740  0.9890
 7599TIP3   OH223678   4.479   7.884   5.331  0.8057  0.4526  0.6653
 7599TIP3    H123679   4.438   7.804   5.297 -0.5823  2.0062 -1.5963
 7599TIP3    H223680   4.406   7.935   5.366  1.8062  0.3599  3.1029
 7600TIP3   OH223681   1.961   0.464   6.324 -0.0163  0.2809 -0.1744
 7600TIP3    H123682   2.010   0.383   6.337  0.3690  0.4630 -0.4956
 7600TIP3    H223683   1.913   0.476   6.407  0.5172  0.1307  0.1575
 7601TIP3   OH223684   4.071   5.524   8.904  0.4816  0.0627  0.4147
 7601TIP3    H123685   4.006   5.568   8.850 -0.5280 -3.0982 -1.1761
 7601TIP3    H223686   4.020   5.485   8.975  1.2108  0.5665  1.2417
 7602TIP3   OH223687   4.045   2.090   0.509  0.0955 -0.3590  0.4724
 7602TIP3    H123688   4.008   2.007   0.480 -0.7760 -0.6836  2.3582
 7602TIP3    H223689   3.969   2.145   0.529  0.5938  1.6262 -2.4184
 7603TIP3   OH223690   8.192   2.124   4.164 -0.1138  0.8690 -0.3655
 7603TIP3    H123691   8.115   2.099   4.216  0.5207 -0.6915 -0.1252
 7603TIP3    H223692   8.185   2.072   4.084  0.9614  0.3088 -0.1094
 7604TIP3   OH223693   0.164   9.972   6.348 -0.0453 -0.0272 -0.3973
 7604TIP3    H123694   0.253   9.979   6.382 -0.1744  1.9599 -0.3247
 7604TIP3    H223695   0.173   9.984   6.254 -0.1060 -1.3222 -0.5797
 7605TIP3   OH223696   0.621   2.342   9.408  0.2492 -0.3200 -0.5831
 7605TIP3    H123697   0.559   2.395   9.458  0.2380 -0.9578  0.1044
 7605TIP3    H223698   0.587   2.253   9.415  1.2704 -0.6914 -0.1302
 7606TIP3   OH223699   1.797   1.700   2.084  0.3306 -0.3071 -0.7894
 7606TIP3    H123700   1.789   1.776   2.141 -0.9820 -0.7867 -0.2905
 7606TIP3    H223701   1.881   1.660   2.108  0.3287  0.1473 -0.0020
 7607TIP3   OH223702   2.013   9.344  10.247  0.0729 -0.7991  0.1193
 7607TIP3    H123703   1.957   9.310  10.318  1.9672 -1.7743  1.2430
 7607TIP3    H223704   2.046   9.265  10.204 -1.0319 -0.2097 -1.8884
 7608TIP3   OH223705   4.568   1.047   4.722  0.0762 -0.0056 -0.2174
 7608TIP3    H123706   4.656   1.045   4.759  0.2205 -1.4909 -0.5996
 7608TIP3    H223707   4.516   1.095   4.786  0.8205 -0.4999  0.7753
 7609TIP3   OH223708  10.487   7.184   3.805 -0.3363  0.1443 -0.9840
 7609TIP3    H123709  10.548   7.259   3.801 -0.8271  0.4916 -2.7971
 7609TIP3    H223710  10.537   7.116   3.850  1.2767  0.5542 -2.0614
 7610TIP3   OH223711   8.710   7.066  10.584 -0.6853 -0.2353 -0.1909
 7610TIP3    H123712   8.627   7.018  10.594 -1.3745  0.6963 -1.1374
 7610TIP3    H223713   8.719   7.078  10.489  0.7123 -0.5935 -0.1205
 7611TIP3   OH223714   4.296   1.053   2.858  0.5863  0.1415 -0.5789
 7611TIP3    H123715   4.369   1.035   2.917  2.1608 -0.0928 -2.5249
 7611TIP3    H223716   4.266   0.967   2.829  0.6488  0.2915 -1.0986
 7612TIP3   OH223717   1.751   4.054   5.153 -0.3907  0.3058  0.4048
 7612TIP3    H123718   1.845   4.068   5.157 -0.5250  0.9348  1.9379
 7612TIP3    H223719   1.741   3.961   5.132  0.5514  0.4380 -0.7015
 7613TIP3   OH223720   6.673   1.261   7.729  0.9536 -0.4999  0.1969
 7613TIP3    H123721   6.731   1.189   7.702  0.2637 -0.6692 -0.8829
 7613TIP3    H223722   6.681   1.264   7.825 -1.1097 -3.8383  0.6032
 7614TIP3   OH223723   1.236   7.351   4.084  0.1298 -0.0981  0.3492
 7614TIP3    H123724   1.276   7.294   4.018  1.3057  5.3104 -4.3755
 7614TIP3    H223725   1.147   7.366   4.052  0.2523  1.6057  0.7333
 7615TIP3   OH223726  10.362   5.450   9.912  0.0393 -0.1978  0.2133
 7615TIP3    H123727  10.423   5.441   9.986 -0.7302  0.3582  0.9419
 7615TIP3    H223728  10.357   5.362   9.875  3.7958  0.2885 -1.9874
 7616TIP3   OH223729   7.494   1.975   6.995 -0.1246 -0.0909  0.0886
 7616TIP3    H123730   7.493   1.904   7.059 -0.7415 -1.2388 -1.1296
 7616TIP3    H223731   7.567   1.953   6.937  0.3317  0.8488  0.2851
 7617TIP3   OH223732   2.920   7.032   4.121 -0.1538 -0.0266 -0.1517
 7617TIP3    H123733   2.958   7.115   4.150  0.9978 -0.5240 -0.1741
 7617TIP3    H223734   2.857   7.009   4.189  0.8052 -0.0043  0.7748
 7618TIP3   OH223735   1.471   3.001   6.134 -0.4249 -0.5066 -0.2822
 7618TIP3    H123736   1.555   3.034   6.102 -0.3424 -1.8270 -1.5285
 7618TIP3    H223737   1.484   2.990   6.229 -0.6609  3.4368  0.4090
 7619TIP3   OH223738   0.646   7.819   3.976 -0.2241  0.5377 -0.2599
 7619TIP3    H123739   0.606   7.883   3.917 -0.8561  0.8653  0.5071
 7619TIP3    H223740   0.735   7.851   3.989 -0.0229  0.3802 -1.1351
 7620TIP3   OH223741   9.646  10.781   5.432 -0.5980 -0.2940  0.3303
 7620TIP3    H123742   9.696  10.710   5.392  0.6677  0.0556  1.2375
 7620TIP3    H223743   9.621  10.837   5.358 -0.6987 -1.1149 -0.2702
 7621TIP3   OH223744   0.432   1.482   5.377 -0.3879 -0.2377  0.5891
 7621TIP3    H123745   0.368   1.552   5.386 -1.3883 -0.5805 -2.7078
 7621TIP3    H223746   0.504   1.521   5.327 -0.2113 -1.1261  0.1312
 7622TIP3   OH223747   2.270   5.033   4.139 -0.1535 -0.3331 -0.3628
 7622TIP3    H123748   2.365   5.042   4.142 -0.1186 -0.6985 -0.3713
 7622TIP3    H223749   2.254   4.938   4.137 -0.4948 -0.2661 -1.0511
 7623TIP3   OH223750  10.747   7.192  10.700  0.4901  0.3360 -0.5017
 7623TIP3    H123751  10.835   7.164  10.676 -0.2358 -1.4363 -1.2286
 7623TIP3    H223752  10.746   7.190  10.796  1.3799  0.8976 -0.4715
 7624TIP3   OH223753  10.010   1.686   4.207 -0.1793  0.1829 -0.3312
 7624TIP3    H123754   9.956   1.619   4.165  2.3534 -1.3369 -1.3642
 7624TIP3    H223755  10.027   1.652   4.295 -0.5462  0.4728 -0.1436
 7625TIP3   OH223756   4.096   1.334   9.930  0.0534 -0.3924  0.8791
 7625TIP3    H123757   4.072   1.263   9.991  0.3727  0.8257  2.5015
 7625TIP3    H223758   4.028   1.399   9.942 -0.4393 -0.5463 -0.8792
 7626TIP3   OH223759   1.433   3.772   6.756  0.0087 -0.1898  0.1213
 7626TIP3    H123760   1.476   3.841   6.806  1.5360 -0.6068 -0.5583
 7626TIP3    H223761   1.456   3.791   6.665 -1.4089 -0.3477 -0.2851
 7627TIP3   OH223762   3.000   8.473   9.229  0.1728  0.1703  0.8051
 7627TIP3    H123763   3.045   8.425   9.159 -2.1119 -0.6972 -0.1594
 7627TIP3    H223764   3.032   8.432   9.309 -0.3029 -1.7682  0.0799
 7628TIP3   OH223765   2.052   7.943   7.069 -0.3605  0.0220  0.0774
 7628TIP3    H123766   2.078   8.016   7.125  0.9409  0.3565 -0.9364
 7628TIP3    H223767   2.038   7.982   6.983  0.1359 -0.8824 -0.4266
 7629TIP3   OH223768   1.639   6.103   2.677 -0.1341  0.3451 -0.3283
 7629TIP3    H123769   1.732   6.084   2.676 -0.5152 -1.7579  0.2434
 7629TIP3    H223770   1.617   6.123   2.586  1.1689  2.8050 -0.1957
 7630TIP3   OH223771   2.103   6.619   6.781 -0.3219 -0.3706  0.3192
 7630TIP3    H123772   2.191   6.635   6.814 -0.0761 -0.1332 -0.4252
 7630TIP3    H223773   2.067   6.552   6.839  0.3958 -0.5567  0.5591
 7631TIP3   OH223774   9.369   8.071   0.145 -0.7899 -0.3712 -0.3345
 7631TIP3    H123775   9.434   8.072   0.215  2.1215 -0.0725 -2.8170
 7631TIP3    H223776   9.352   7.978   0.130 -1.5079 -0.4384  0.7213
 7632TIP3   OH223777  10.673  10.542   4.476 -0.1471  0.2620 -0.1756
 7632TIP3    H123778  10.612  10.483   4.431 -1.4238  1.5126 -0.1682
 7632TIP3    H223779  10.646  10.630   4.448 -0.8875  1.1099  2.8266
 7633TIP3   OH223780   2.733   8.047   0.036  0.5396  0.3351  0.7852
 7633TIP3    H123781   2.717   8.053  -0.058  2.0006 -2.2503  0.2939
 7633TIP3    H223782   2.675   7.977   0.066  0.9349  0.3448  1.6009
 7634TIP3   OH223783   2.064  10.300   9.674  0.1371 -0.7030 -0.5191
 7634TIP3    H123784   2.042  10.289   9.767 -1.2826 -0.3810 -0.7862
 7634TIP3    H223785   2.016  10.378   9.648  1.0727 -0.4018 -1.3736
 7635TIP3   OH223786   2.005   0.522   6.654  0.1989  0.2092 -0.2911
 7635TIP3    H123787   1.999   0.564   6.740  0.6709 -0.9093  0.3079
 7635TIP3    H223788   1.921   0.542   6.613  0.4176  1.7388 -0.0486
 7636TIP3   OH223789   8.880   4.136   9.315  0.1174  0.7210 -1.1476
 7636TIP3    H123790   8.889   4.175   9.228 -0.2631  0.9663 -1.0790
 7636TIP3    H223791   8.799   4.085   9.311 -0.4477  1.5364 -0.6498
 7637TIP3   OH223792  10.414   0.808   1.591  0.0819  0.7507  0.1840
 7637TIP3    H123793  10.497   0.855   1.590 -0.8679  2.5250  0.5821
 7637TIP3    H223794  10.381   0.820   1.680 -0.6448  0.1488  0.0013
 7638TIP3   OH223795   3.243   7.862   9.946 -0.0921  0.1161 -0.1906
 7638TIP3    H123796   3.235   7.854  10.041  0.0439  1.9601  0.0196
 7638TIP3    H223797   3.336   7.880   9.932 -0.6513  3.7739 -0.2302
 7639TIP3   OH223798   2.900   8.717  10.456  0.2432 -0.4087  0.0650
 7639TIP3    H123799   2.831   8.726  10.521  0.0301  1.9135 -0.3748
 7639TIP3    H223800   2.969   8.668  10.501 -0.7707 -0.7703  1.2780
 7640TIP3   OH223801   1.200  10.339   1.792  0.0403  0.4548  0.4760
 7640TIP3    H123802   1.250  10.269   1.833 -0.4036  0.0905  0.4031
 7640TIP3    H223803   1.159  10.385   1.865  0.6390  0.8829  0.5501
 7641TIP3   OH223804  10.525   2.519   2.955 -0.1551 -0.0595  0.2491
 7641TIP3    H123805  10.449   2.465   2.939 -0.4529  0.5665 -0.5128
 7641TIP3    H223806  10.599   2.468   2.922 -0.4121 -0.0708 -0.3074
 7642TIP3   OH223807   6.267   2.987  10.809  0.7856 -0.3111 -0.5214
 7642TIP3    H123808   6.190   3.035  10.777  1.0322  0.8920  0.6102
 7642TIP3    H223809   6.338   3.012  10.750  0.5533 -0.6093 -0.9348
 7643TIP3   OH223810   7.060   2.205   8.866  0.5400 -0.0230  0.1216
 7643TIP3    H123811   6.998   2.225   8.936  0.0549  0.8089 -0.5303
 7643TIP3    H223812   7.007   2.206   8.786  1.3723  0.6385 -0.4386
 7644TIP3   OH223813   9.934   7.867   9.624  0.0359  0.2257  0.1524
 7644TIP3    H123814   9.882   7.836   9.698 -0.6611 -1.7859 -1.0942
 7644TIP3    H223815   9.985   7.940   9.659  1.1761 -1.8102  3.1243
 7645TIP3   OH223816   7.518   4.508   8.829 -0.5496 -0.2173  0.4858
 7645TIP3    H123817   7.600   4.459   8.823 -0.4023  0.0940 -0.0851
 7645TIP3    H223818   7.470   4.465   8.900  0.9231  0.8348  2.1726
 7646TIP3   OH223819   6.018   4.315   2.380 -0.2495  0.4342  0.1476
 7646TIP3    H123820   6.075   4.239   2.373 -0.9407 -0.3161  2.0211
 7646TIP3    H223821   5.946   4.296   2.319  2.4228  2.4897 -4.1466
 7647TIP3   OH223822   6.407   3.717  10.054 -1.3092 -0.4963 -0.2586
 7647TIP3    H123823   6.436   3.704   9.964  0.0582  0.7715 -0.0440
 7647TIP3    H223824   6.425   3.809  10.072 -1.8325 -0.6538  1.2288
 7648TIP3   OH223825   2.204   5.881   4.771 -0.3815  0.0579 -0.1456
 7648TIP3    H123826   2.175   5.972   4.773  0.0860  0.2244 -0.5012
 7648TIP3    H223827   2.275   5.877   4.835 -1.7234 -0.5520  1.3498
 7649TIP3   OH223828  10.816   2.617   3.073 -0.5137 -0.2281 -0.5823
 7649TIP3    H123829  10.749   2.630   3.140  0.5034 -2.1288  0.8803
 7649TIP3    H223830  10.795   2.532   3.034  1.9765 -1.7970  1.1883
 7650TIP3   OH223831   4.846   9.333   3.079 -0.3263 -0.8239 -0.1424
 7650TIP3    H123832   4.815   9.414   3.038 -0.2547 -1.1791 -0.9175
 7650TIP3    H223833   4.794   9.324   3.158  0.9130  0.9581  0.9560
 7651TIP3   OH223834   1.682  10.236  10.035  0.3105  0.6249  0.1464
 7651TIP3    H123835   1.734  10.156  10.040 -0.0015  0.2389 -1.8746
 7651TIP3    H223836   1.646  10.235   9.946 -0.0412  2.7980  0.2191
 7652TIP3   OH223837   8.592   4.490   9.648  0.0889  0.1653  0.2560
 7652TIP3    H123838   8.669   4.445   9.682 -0.1707 -0.0136  0.6173
 7652TIP3    H223839   8.617   4.516   9.559  0.7387  0.5647  0.5479
 7653TIP3   OH223840   5.354   7.030   1.115  0.2728  0.1974  0.0485
 7653TIP3    H123841   5.312   7.062   1.035 -1.1593  0.9664  1.0745
 7653TIP3    H223842   5.302   7.066   1.186  1.2805 -0.7991  1.3476
 7654TIP3   OH223843   8.913   3.201  10.818  0.0881 -0.2479 -0.0692
 7654TIP3    H123844   8.829   3.226  10.857 -0.4152  1.4457 -2.0505
 7654TIP3    H223845   8.888   3.153  10.738  1.0581 -1.2536  0.2006
 7655TIP3   OH223846   1.449   5.016  10.262  0.1723 -0.0941  0.0456
 7655TIP3    H123847   1.518   4.994  10.199  0.2277 -0.3227  0.1832
 7655TIP3    H223848   1.422   5.105  10.238 -0.8717 -0.7313 -1.2517
 7656TIP3   OH223849   1.773   5.172   6.691 -0.6996 -0.0584  0.4391
 7656TIP3    H123850   1.866   5.147   6.692 -0.8143 -0.4683  1.1024
 7656TIP3    H223851   1.735   5.116   6.623 -0.6369 -0.5408  0.7966
 7657TIP3   OH223852   9.170   0.814   4.432  0.4917 -0.0231  0.4561
 7657TIP3    H123853   9.182   0.901   4.392  0.2434 -0.5676 -0.8467
 7657TIP3    H223854   9.185   0.829   4.525  1.6365  1.1920  0.1192
 7658TIP3   OH223855   0.194   5.807   1.089  0.5194 -0.1661 -0.1037
 7658TIP3    H123856   0.117   5.805   1.032  0.9594 -1.3013 -0.6983
 7658TIP3    H223857   0.237   5.723   1.074  2.7484  1.0436 -0.9650
 7659TIP3   OH223858   2.157   2.367   8.678  0.0568  0.1831  0.1753
 7659TIP3    H123859   2.065   2.377   8.704  0.5035  0.4850  1.7541
 7659TIP3    H223860   2.154   2.354   8.584 -1.6756 -0.6860  0.3066
 7660TIP3   OH223861   8.927   4.951   1.205 -0.1964 -0.0155  0.6383
 7660TIP3    H123862   8.971   5.028   1.240  1.0675 -0.9986  1.2766
 7660TIP3    H223863   8.879   4.914   1.279 -2.0046  0.9192  0.0071
 7661TIP3   OH223864   7.247   7.745  10.618 -0.6070  0.1235  0.2565
 7661TIP3    H123865   7.169   7.704  10.655  0.6661 -1.7939  0.9877
 7661TIP3    H223866   7.298   7.772  10.695  0.1144 -0.0177 -0.1619
 7662TIP3   OH223867   9.020   0.528   8.016  0.0917 -0.0462  0.1775
 7662TIP3    H123868   9.082   0.585   8.060  0.1896  1.1032 -1.3840
 7662TIP3    H223869   8.981   0.477   8.087 -1.1068  2.9774  1.8911
 7663TIP3   OH223870   8.105   1.795   1.885 -0.2706 -0.4983  0.0372
 7663TIP3    H123871   8.047   1.777   1.960  1.1235  0.9940  1.5378
 7663TIP3    H223872   8.054   1.854   1.829 -1.9699 -2.9016 -1.1497
 7664TIP3   OH223873   0.502   4.443   1.528 -0.1900 -0.5888  0.2925
 7664TIP3    H123874   0.406   4.443   1.517 -0.0792  2.8278 -2.5207
 7664TIP3    H223875   0.516   4.488   1.612 -1.0806  0.1131  0.0880
 7665TIP3   OH223876   4.093   1.468  10.647  0.0711 -0.0036 -0.2733
 7665TIP3    H123877   4.174   1.500  10.686 -0.7097 -0.5713  1.9388
 7665TIP3    H223878   4.024   1.510  10.698 -0.9869 -2.6247  0.5684
 7666TIP3   OH223879   5.695   2.151   1.536 -0.2766 -0.5072  0.3799
 7666TIP3    H123880   5.765   2.142   1.471  0.0077 -1.8363  0.8524
 7666TIP3    H223881   5.619   2.178   1.485  0.7082  1.7406 -0.0483
 7667TIP3   OH223882   1.302   9.282   8.170 -0.1352 -0.4334 -0.1721
 7667TIP3    H123883   1.244   9.240   8.234 -1.5943  1.6964 -0.0100
 7667TIP3    H223884   1.246   9.302   8.095  0.8391 -0.0178 -0.8152
 7668TIP3   OH223885   6.626   7.353   7.902  0.1014 -0.1304 -0.4309
 7668TIP3    H123886   6.664   7.325   7.819 -1.6797 -1.5820 -0.8288
 7668TIP3    H223887   6.620   7.449   7.895  0.1947 -0.2084 -1.8847
 7669TIP3   OH223888   1.470   6.159   4.409  0.5000  0.4424 -0.2061
 7669TIP3    H123889   1.484   6.077   4.456  0.1556  0.6957  0.3436
 7669TIP3    H223890   1.378   6.156   4.382  0.7538  0.1926 -1.0801
 7670TIP3   OH223891   3.555   4.160   5.569  0.2705  0.5161  0.5469
 7670TIP3    H123892   3.474   4.209   5.582  1.1975  2.1937  0.2937
 7670TIP3    H223893   3.598   4.204   5.495  0.3211 -1.8162 -0.9094
 7671TIP3   OH223894   2.830   5.419   7.292 -0.4061  0.0490 -0.4858
 7671TIP3    H123895   2.819   5.475   7.215 -2.1963 -0.0287 -0.3303
 7671TIP3    H223896   2.907   5.365   7.272  0.8884  1.9753 -0.9834
 7672TIP3   OH223897   0.212   7.071   4.360 -0.3456  0.4192 -0.1797
 7672TIP3    H123898   0.280   7.099   4.300 -1.7146 -0.3282 -2.2030
 7672TIP3    H223899   0.256   7.063   4.445  1.5871  1.8488 -0.9825
 7673TIP3   OH223900   8.794   7.881   1.397  0.6151  0.1349 -0.3710
 7673TIP3    H123901   8.815   7.952   1.336  1.8347  1.6962  1.7096
 7673TIP3    H223902   8.699   7.886   1.408  0.6847  1.5767 -0.1790
 7674TIP3   OH223903   7.716   8.528   2.444 -0.1570 -0.2913 -0.1768
 7674TIP3    H123904   7.752   8.447   2.480  1.1195  0.5735  0.5577
 7674TIP3    H223905   7.766   8.544   2.364  1.9206  1.4262  1.3466
 7675TIP3   OH223906   8.275   9.079   3.630  0.4046  0.3805  0.0976
 7675TIP3    H123907   8.310   9.021   3.563 -2.0594 -0.4029 -0.5989
 7675TIP3    H223908   8.224   9.144   3.582 -2.2986 -0.8094  1.1438
 7676TIP3   OH223909   5.958   5.851   8.452 -0.2467  0.1560  0.5972
 7676TIP3    H123910   5.934   5.942   8.469 -1.4898 -0.3010  1.3870
 7676TIP3    H223911   5.896   5.821   8.386 -0.1021 -0.2305  0.6332
 7677TIP3   OH223912   7.938  10.249  10.488  0.4959  0.0368  0.5537
 7677TIP3    H123913   7.896  10.331  10.461 -2.6451 -1.7442 -0.4523
 7677TIP3    H223914   7.969  10.210  10.406 -0.3263 -0.9241  0.6871
 7678TIP3   OH223915   8.105   2.023   8.912 -0.5550  0.2501  0.4111
 7678TIP3    H123916   8.120   1.955   8.846 -0.2323  0.5584  0.1619
 7678TIP3    H223917   8.162   2.095   8.885 -0.7136  0.5269  0.8108
 7679TIP3   OH223918   4.647   3.415   9.207  0.0228  0.0848  0.1051
 7679TIP3    H123919   4.603   3.483   9.156  0.3326 -0.6904 -1.2308
 7679TIP3    H223920   4.736   3.446   9.218  0.3371 -0.3515 -1.0418
 7680TIP3   OH223921   3.769   9.901   9.993  0.3223 -0.0335  0.6988
 7680TIP3    H123922   3.859   9.914   9.962  0.8893  1.8696  2.8958
 7680TIP3    H223923   3.718   9.968   9.948  0.2637 -0.1961  0.5191
 7681TIP3   OH223924  10.789   2.830   6.273 -0.5043 -0.2026 -0.6186
 7681TIP3    H123925  10.751   2.854   6.358 -2.4292  0.5049 -1.6035
 7681TIP3    H223926  10.844   2.903   6.249  0.1912 -0.4854  0.0881
 7682TIP3   OH223927  10.668   3.328   1.780  0.3191 -0.3206  0.0237
 7682TIP3    H123928  10.747   3.373   1.750 -0.3900  1.6209  0.9235
 7682TIP3    H223929  10.698   3.273   1.852  1.3162 -1.9143 -1.5172
 7683TIP3   OH223930   5.037   9.150   5.367  0.1122  0.1206  0.0027
 7683TIP3    H123931   5.087   9.074   5.335  0.7951 -0.2674  1.8699
 7683TIP3    H223932   5.100   9.222   5.366 -0.1127  0.3183 -0.3153
 7684TIP3   OH223933   3.060   1.472   5.882  0.2767  0.4291  0.7701
 7684TIP3    H123934   3.139   1.427   5.910 -1.3840 -3.5746 -0.1588
 7684TIP3    H223935   3.002   1.469   5.958 -0.7317 -1.5091  0.0081
 7685TIP3   OH223936   9.587   4.860   2.925 -0.2891 -0.0408  0.2265
 7685TIP3    H123937   9.554   4.906   3.002 -1.9210  0.1484 -0.5332
 7685TIP3    H223938   9.658   4.916   2.893  0.6156 -0.2792  1.7294
 7686TIP3   OH223939   2.437   5.924   6.103  0.7818  0.1445  0.4748
 7686TIP3    H123940   2.378   5.959   6.037  3.0883 -1.4307 -2.6749
 7686TIP3    H223941   2.505   5.991   6.114 -0.0146  0.7554  1.9805
 7687TIP3   OH223942   7.233  10.027   6.694 -0.2754  0.0374  0.0062
 7687TIP3    H123943   7.199  10.034   6.783 -1.6857 -1.0280 -0.4193
 7687TIP3    H223944   7.231   9.933   6.675 -0.5582  0.3007 -1.3602
 7688TIP3   OH223945   3.514   0.707   0.150  0.6233  0.7052 -0.1061
 7688TIP3    H123946   3.553   0.707   0.237  0.0823 -1.4538  0.2101
 7688TIP3    H223947   3.420   0.704   0.166  0.4698 -3.4022 -0.5109
 7689TIP3   OH223948   7.213   4.456   4.460 -0.3500  0.4919 -0.0963
 7689TIP3    H123949   7.154   4.383   4.441  0.1410  0.3617 -1.2275
 7689TIP3    H223950   7.254   4.475   4.375  1.0754  0.7006  0.6191
 7690TIP3   OH223951   7.884   1.760   9.797  0.1848  0.0617 -0.3261
 7690TIP3    H123952   7.959   1.816   9.777 -0.5069  1.0544 -0.1625
 7690TIP3    H223953   7.895   1.738   9.890 -0.2480  1.0131 -0.0445
 7691TIP3   OH223954   5.579   6.061   7.233  0.1692 -0.0057  0.3936
 7691TIP3    H123955   5.594   6.049   7.139  0.8903 -2.8919  0.7733
 7691TIP3    H223956   5.485   6.073   7.242  0.1652  0.9094 -0.7369
 7692TIP3   OH223957   6.661   4.651  10.700 -0.4784  0.0121  0.0491
 7692TIP3    H123958   6.672   4.556  10.701 -1.6071 -0.1438 -0.3004
 7692TIP3    H223959   6.750   4.686  10.693 -0.0476 -1.0128  0.2097
 7693TIP3   OH223960   8.217   4.788   9.895 -0.0184 -0.2954 -0.1202
 7693TIP3    H123961   8.260   4.705   9.875  0.2306 -0.6614  1.7438
 7693TIP3    H223962   8.287   4.843   9.931 -0.6634 -0.1816  1.0077
 7694TIP3   OH223963   7.830   2.939  10.809 -0.1690  0.0966 -0.3364
 7694TIP3    H123964   7.897   2.927  10.742 -0.3056  1.8203 -0.8134
 7694TIP3    H223965   7.855   3.019  10.855 -0.9736 -0.1683  0.6166
 7695TIP3   OH223966   9.143   0.158   2.130  0.1962 -0.1151 -0.2005
 7695TIP3    H123967   9.058   0.200   2.147 -0.9942 -1.9111 -1.2959
 7695TIP3    H223968   9.172   0.127   2.215 -1.2425 -1.1654 -0.0467
 7696TIP3   OH223969   3.852   3.343   8.696 -0.1230  0.1008 -0.2940
 7696TIP3    H123970   3.947   3.346   8.681 -0.2165  1.1932 -0.7830
 7696TIP3    H223971   3.840   3.396   8.775 -0.2491 -0.7265  0.2499
 7697TIP3   OH223972   0.099   0.834   2.024  0.1011  0.5535 -0.3210
 7697TIP3    H123973   0.081   0.901   2.090  1.2901  0.1788  0.4138
 7697TIP3    H223974   0.087   0.751   2.070  1.6094  0.2867 -0.3500
 7698TIP3   OH223975   4.867   7.926   6.842 -0.3269 -0.0598 -0.3116
 7698TIP3    H123976   4.912   8.009   6.824 -0.7058 -0.1154 -1.5523
 7698TIP3    H223977   4.855   7.885   6.757 -0.5497 -1.1993  0.2390
 7699TIP3   OH223978   7.240   1.068   8.381  0.3167  0.3622 -0.0669
 7699TIP3    H123979   7.168   1.012   8.349 -0.8164  1.8650 -0.2648
 7699TIP3    H223980   7.317   1.011   8.379 -0.6954 -1.0555 -0.6887
 7700TIP3   OH223981  10.241   5.073   1.461  0.8147 -0.4262 -0.4048
 7700TIP3    H123982  10.190   5.141   1.416  0.3433 -1.8658 -2.1887
 7700TIP3    H223983  10.176   5.010   1.492  1.2798 -0.3714  0.7527
 7701TIP3   OH223984   5.680  10.558   4.138  0.1425  0.3774  0.5545
 7701TIP3    H123985   5.716  10.647   4.147 -2.3331  1.4782  0.4294
 7701TIP3    H223986   5.655  10.534   4.227 -0.2618  0.2771  0.4111
 7702TIP3   OH223987   6.340   9.985   9.603  0.2406 -0.2084 -0.5003
 7702TIP3    H123988   6.249   9.983   9.576  0.2791 -2.8701 -0.6796
 7702TIP3    H223989   6.387  10.023   9.529 -0.7151  1.3636 -0.3244
 7703TIP3   OH223990   1.758   0.373   6.148  0.3954  0.0107  0.2506
 7703TIP3    H123991   1.686   0.436   6.154  0.0488 -0.3474 -0.0586
 7703TIP3    H223992   1.825   0.407   6.208 -0.9204 -0.7952  2.3115
 7704TIP3   OH223993   1.351   3.059   4.097  0.1406  0.2922 -0.1326
 7704TIP3    H123994   1.285   3.010   4.146 -1.0491  2.5450  0.6883
 7704TIP3    H223995   1.349   3.021   4.009 -1.9178 -0.0489  0.0046
 7705TIP3   OH223996   1.544   7.793   3.384  0.6113 -0.3218 -0.6020
 7705TIP3    H123997   1.560   7.848   3.460  1.9211 -1.0111 -0.3296
 7705TIP3    H223998   1.631   7.785   3.343  0.5472 -2.3973 -0.4434
 7706TIP3   OH223999   0.468  10.356   2.168  0.3601 -0.1130 -0.3297
 7706TIP3    H124000   0.499  10.445   2.182 -1.0250  0.5133 -1.0789
 7706TIP3    H224001   0.385  10.366   2.122  0.3703 -1.8066 -0.7839
 7707TIP3   OH224002   5.260   5.503   8.129  0.1788 -0.0032  0.1289
 7707TIP3    H124003   5.191   5.549   8.177 -1.9416 -2.6477 -0.0912
 7707TIP3    H224004   5.304   5.450   8.195 -0.9885 -1.6271 -0.3239
 7708TIP3   OH224005   7.460   1.977  10.606  0.6072 -0.0664 -0.2089
 7708TIP3    H124006   7.510   2.054  10.635 -0.0004 -0.0243  0.7539
 7708TIP3    H224007   7.399   1.959  10.677  1.5734 -2.2000  0.1651
 7709TIP3   OH224008   2.791   6.565   1.105 -0.1701  0.5805 -0.1228
 7709TIP3    H124009   2.820   6.561   1.197 -1.1652  1.3504  0.2500
 7709TIP3    H224010   2.698   6.589   1.110 -0.7235 -1.1678 -1.2995
 7710TIP3   OH224011   8.097   8.121   8.662  0.3316  0.5432  0.2508
 7710TIP3    H124012   8.181   8.117   8.708  2.1554 -0.9889 -2.8811
 7710TIP3    H224013   8.053   8.038   8.684  1.2291 -0.2208 -0.7593
 7711TIP3   OH224014   8.195   0.137   6.080  0.4063 -0.3163  0.5278
 7711TIP3    H124015   8.157   0.224   6.091  1.0601  0.3021 -1.6327
 7711TIP3    H224016   8.123   0.077   6.098  0.0612  0.6170  2.4912
 7712TIP3   OH224017   3.882   6.269   0.043 -0.1599 -0.5903 -0.1683
 7712TIP3    H124018   3.951   6.228  -0.010  0.6380  1.6098 -0.9431
 7712TIP3    H224019   3.924   6.346   0.082 -2.0191  0.5036 -0.1954
 7713TIP3   OH224020   7.550   9.836   4.418 -0.9217  0.7019 -0.1195
 7713TIP3    H124021   7.628   9.882   4.450 -0.7408  0.6265 -0.4453
 7713TIP3    H224022   7.550   9.852   4.323 -1.8856  1.5950  0.0032
 7714TIP3   OH224023   4.629   7.480   3.246 -0.1065  0.1299 -0.1098
 7714TIP3    H124024   4.666   7.568   3.236 -0.5115  0.3102 -0.0757
 7714TIP3    H224025   4.693   7.432   3.298  2.0347 -0.8185 -3.3653
 7715TIP3   OH224026   0.487   8.355   5.292  0.1992 -0.3646  0.1534
 7715TIP3    H124027   0.519   8.277   5.249  0.6865  0.5948 -1.2970
 7715TIP3    H224028   0.422   8.391   5.232  0.0816  0.4142  0.7271
 7716TIP3   OH224029   9.081  10.538  10.779 -0.1252 -0.1892  0.5935
 7716TIP3    H124030   9.034  10.621  10.766  1.8759  0.6690 -2.1017
 7716TIP3    H224031   9.128  10.551  10.862  0.5435  1.6304 -0.0088
 7717TIP3   OH224032   7.173   0.497   0.044 -0.4871 -0.3599  0.7842
 7717TIP3    H124033   7.202   0.419  -0.003 -0.2853  0.4355 -0.4470
 7717TIP3    H224034   7.125   0.548  -0.021  2.0481  2.0643  0.6468
 7718TIP3   OH224035   6.053   5.106   8.761 -0.1746 -0.4147 -0.1825
 7718TIP3    H124036   6.136   5.085   8.717 -0.1766  0.8742 -0.8418
 7718TIP3    H224037   6.007   5.163   8.700  0.3041  2.4059  1.8941
 7719TIP3   OH224038   1.611  10.265   8.364 -0.0509  0.2043 -0.2557
 7719TIP3    H124039   1.629  10.209   8.289 -0.1095 -0.1586 -0.0023
 7719TIP3    H224040   1.694  10.270   8.411 -0.5041 -1.2825  0.7882
 7720TIP3   OH224041   3.277   8.272   5.837 -0.0905 -0.1561 -0.0797
 7720TIP3    H124042   3.182   8.266   5.842  0.0065 -0.4768  2.5798
 7720TIP3    H224043   3.308   8.183   5.856  0.7733 -0.0300 -0.7844
 7721TIP3   OH224044   2.072   5.006   1.291  0.3364 -0.5976  0.3382
 7721TIP3    H124045   2.032   5.063   1.357  0.3043  0.0422 -0.2303
 7721TIP3    H224046   2.162   5.039   1.283  0.4094 -0.8244  0.2308
 7722TIP3   OH224047  10.689   8.800   1.094 -0.1106 -0.4675 -0.6470
 7722TIP3    H124048  10.763   8.798   1.154  0.2096  0.7756 -0.9704
 7722TIP3    H224049  10.613   8.774   1.147  0.0490  1.2215  0.4923
 7723TIP3   OH224050   1.621  10.901   0.248  0.5517  0.1212  0.5311
 7723TIP3    H124051   1.608  10.990   0.216  0.5354  0.1537  0.6265
 7723TIP3    H224052   1.587  10.903   0.337  0.1825 -0.0848  0.3962
 7724TIP3   OH224053   7.690   8.687   0.816 -0.1526 -0.1265 -0.1472
 7724TIP3    H124054   7.612   8.739   0.795  2.0283  2.0825 -3.8693
 7724TIP3    H224055   7.728   8.731   0.892 -0.1796  1.7232 -1.1418
 7725TIP3   OH224056  10.901   5.019   2.590  0.4117 -0.8518 -0.0023
 7725TIP3    H124057  10.873   5.048   2.503 -0.3784 -2.1788 -0.2162
 7725TIP3    H224058  10.846   4.943   2.609  1.0071 -0.9639  1.3994
 7726TIP3   OH224059   1.486   2.988   7.853  0.3145  0.7443  0.3436
 7726TIP3    H124060   1.414   2.928   7.876  0.4722  0.4144 -0.0161
 7726TIP3    H224061   1.505   3.034   7.935  0.3745  0.1060  0.6954
 7727TIP3   OH224062   5.229   1.516   3.014  0.1180 -0.2820 -0.1280
 7727TIP3    H124063   5.216   1.610   3.026 -0.6250 -0.4671  0.5746
 7727TIP3    H224064   5.267   1.486   3.096  0.6956 -0.5494 -0.4786
 7728TIP3   OH224065  10.787   7.996   0.714 -0.3077 -0.3771 -0.2304
 7728TIP3    H124066  10.837   8.020   0.793  0.3036 -2.1469 -0.0202
 7728TIP3    H224067  10.843   8.022   0.642 -0.5299  0.5604 -0.0777
 7729TIP3   OH224068   5.844   1.647   7.147  0.4552 -0.0735  0.0459
 7729TIP3    H124069   5.791   1.574   7.178 -0.3530  0.1812 -0.6944
 7729TIP3    H224070   5.812   1.665   7.059  0.4050  1.3883  0.3290
 7730TIP3   OH224071   2.862   6.591   3.172  0.0010 -0.5273  0.0419
 7730TIP3    H124072   2.768   6.586   3.156 -0.4519  2.1976  1.2191
 7730TIP3    H224073   2.896   6.648   3.103  0.3245  0.4431  0.9647
 7731TIP3   OH224074  10.878   4.765   0.610 -0.0147 -0.5749  0.6174
 7731TIP3    H124075  10.847   4.855   0.595  0.7355 -0.2892  0.7386
 7731TIP3    H224076  10.828   4.736   0.686  0.5720  0.1688  1.3090
 7732TIP3   OH224077   3.848   7.871   0.589  1.1042  0.1112  0.4641
 7732TIP3    H124078   3.859   7.836   0.677  1.3576 -1.1176 -0.0309
 7732TIP3    H224079   3.756   7.855   0.567  1.4090 -1.0221 -0.0624
 7733TIP3   OH224080   1.392   9.655   2.101  0.3838 -0.0075 -0.2687
 7733TIP3    H124081   1.431   9.576   2.064 -1.0756 -1.5126  1.2358
 7733TIP3    H224082   1.354   9.627   2.184 -1.5523  1.9190 -0.4078
 7734TIP3   OH224083   0.648   4.725   0.725 -0.2503  0.5096  1.0045
 7734TIP3    H124084   0.668   4.757   0.812 -0.3006 -1.0564  1.6364
 7734TIP3    H224085   0.706   4.649   0.713 -0.0830  0.8182 -0.4157
 7735TIP3   OH224086   3.740   7.421   7.538  0.0584  0.3061 -0.0050
 7735TIP3    H124087   3.664   7.369   7.515 -0.1918  0.4812  0.4019
 7735TIP3    H224088   3.801   7.410   7.465  0.9283 -2.3175  1.0131
 7736TIP3   OH224089   2.792   8.228   4.041 -0.4393  0.0691  0.0196
 7736TIP3    H124090   2.859   8.293   4.060 -1.5182  0.9020  1.1307
 7736TIP3    H224091   2.725   8.276   3.993 -1.9764  0.2287  2.1854
 7737TIP3   OH224092  10.279   3.819  10.180 -0.0412 -0.0797  0.1121
 7737TIP3    H124093  10.232   3.814  10.097 -2.2145  0.8034  1.2251
 7737TIP3    H224094  10.323   3.734  10.188 -0.8425 -0.6557 -1.3380
 7738TIP3   OH224095   8.125   9.036   8.742  0.4326  0.0671  0.4180
 7738TIP3    H124096   8.188   8.995   8.802  0.3217 -0.0726  0.4383
 7738TIP3    H224097   8.138   8.992   8.659  0.0523 -0.2702  0.5356
 7739TIP3   OH224098   5.899   1.363   2.325  0.5603 -0.2514  0.2696
 7739TIP3    H124099   5.927   1.292   2.267 -2.2635  0.1224 -1.7952
 7739TIP3    H224100   5.901   1.441   2.270 -0.2980  0.4990  1.2656
 7740TIP3   OH224101   2.983   9.063   1.629  0.1142  0.8823 -0.2478
 7740TIP3    H124102   2.904   9.098   1.670 -0.4949  0.9579 -1.4676
 7740TIP3    H224103   2.953   9.021   1.549  1.4519  2.3012 -1.5692
 7741TIP3   OH224104   5.761   5.579   8.417 -0.5469  0.3871  0.1496
 7741TIP3    H124105   5.770   5.639   8.343 -1.1579 -2.1240 -2.1212
 7741TIP3    H224106   5.838   5.523   8.412 -1.6436 -1.1857  0.0327
 7742TIP3   OH224107   1.734   9.213   2.258  0.2585  0.4287 -0.0552
 7742TIP3    H124108   1.770   9.265   2.330 -0.4110  1.0608 -0.1652
 7742TIP3    H224109   1.797   9.142   2.246  1.3565  1.3859 -0.1081
 7743TIP3   OH224110   1.396   3.299  10.630  0.0343 -0.5036  1.0231
 7743TIP3    H124111   1.466   3.352  10.592 -1.9945  1.7679  0.1462
 7743TIP3    H224112   1.379   3.231  10.565  1.2913 -0.9936  1.1846
 7744TIP3   OH224113   4.504   1.607   7.315 -0.6285 -0.6845  0.3424
 7744TIP3    H124114   4.597   1.584   7.313 -0.3505  0.3143  1.0576
 7744TIP3    H224115   4.503   1.702   7.317 -1.6467 -0.6916  1.0162
 7745TIP3   OH224116   8.251   9.460   0.427  0.2087  0.1856 -0.0742
 7745TIP3    H124117   8.175   9.514   0.403 -0.4584 -0.9362 -0.5716
 7745TIP3    H224118   8.292   9.439   0.343 -0.5361 -1.4723 -0.0621
 7746TIP3   OH224119  10.126   5.086   5.852  0.1642 -0.1081 -0.1201
 7746TIP3    H124120  10.151   5.166   5.806  0.0478  0.3152  0.5517
 7746TIP3    H224121  10.150   5.016   5.791  0.5882  0.4121 -0.5663
 7747TIP3   OH224122   3.824   7.004   1.667  0.3761  0.3544  0.3000
 7747TIP3    H124123   3.907   7.004   1.618  0.3409  1.0840  0.2359
 7747TIP3    H224124   3.760   6.969   1.605  0.7482 -0.8767  0.5695
 7748TIP3   OH224125   1.243   7.998   7.561 -0.4525  0.0067  0.1164
 7748TIP3    H124126   1.281   8.063   7.619  0.1189 -0.0828 -0.1576
 7748TIP3    H224127   1.292   8.006   7.480 -1.2289  0.1134 -0.3532
 7749TIP3   OH224128   1.762  10.007   0.257  0.1619 -0.0793 -0.1586
 7749TIP3    H124129   1.844   9.985   0.300 -0.8186 -0.4093  1.6281
 7749TIP3    H224130   1.779  10.092   0.215  0.9778  0.6427  1.5363
 7750TIP3   OH224131   4.151   9.705   9.754 -0.6520 -0.2517 -0.5917
 7750TIP3    H124132   4.156   9.769   9.683 -0.4771 -2.0845 -2.3122
 7750TIP3    H224133   4.058   9.680   9.756 -0.3811 -1.3976 -1.3336
 7751TIP3   OH224134   9.548   9.044   8.653 -0.3205  0.3225  0.2465
 7751TIP3    H124135   9.488   9.002   8.591 -1.1062 -0.4190  1.4686
 7751TIP3    H224136   9.630   8.995   8.643 -0.3224  0.4394 -0.4335
 7752TIP3   OH224137   4.888   4.592   1.603 -0.4096 -0.1764 -0.1503
 7752TIP3    H124138   4.823   4.525   1.624 -0.8193 -0.2063 -1.4033
 7752TIP3    H224139   4.960   4.543   1.562 -1.0750  0.1990 -1.8497
 7753TIP3   OH224140   6.371   4.067   5.825  0.3975 -0.2282 -0.0393
 7753TIP3    H124141   6.301   4.035   5.767 -0.0723  1.1730 -0.3090
 7753TIP3    H224142   6.450   4.064   5.770  0.8414 -2.8975  0.6213
 7754TIP3   OH224143   1.458   6.713   4.308 -0.1501  0.3311  0.3164
 7754TIP3    H124144   1.512   6.640   4.336 -1.0889 -0.3479  0.4041
 7754TIP3    H224145   1.519   6.787   4.302  0.5160 -0.0276  1.9455
 7755TIP3   OH224146   1.155   2.177   2.678  0.2871 -0.4318 -0.4982
 7755TIP3    H124147   1.197   2.101   2.638  0.7847 -1.1251  1.2139
 7755TIP3    H224148   1.070   2.145   2.707  0.0018  0.0080 -0.8364
 7756TIP3   OH224149   9.391   6.073   6.452 -0.2277 -0.0589 -0.3292
 7756TIP3    H124150   9.297   6.065   6.467 -0.3255 -1.3538 -1.4652
 7756TIP3    H224151   9.398   6.098   6.359  0.5477 -0.0368 -0.2691
 7757TIP3   OH224152   5.504   2.967   9.404 -0.5685  0.5586  0.4517
 7757TIP3    H124153   5.483   2.908   9.332 -0.5339 -0.4112  1.2084
 7757TIP3    H224154   5.585   3.010   9.378  0.2235 -0.8508  0.5216
 7758TIP3   OH224155   5.027   6.072   1.090  0.4924  0.3105  0.1282
 7758TIP3    H124156   5.016   6.148   1.033  0.9411 -0.7960 -1.4777
 7758TIP3    H224157   5.025   6.109   1.179  1.4208  2.2926 -0.6142
 7759TIP3   OH224158   8.188   5.729   1.216 -0.5976 -0.4455  0.0512
 7759TIP3    H124159   8.138   5.746   1.296 -1.5509  1.6240 -0.9031
 7759TIP3    H224160   8.165   5.801   1.158  0.5828 -1.5321 -1.8669
 7760TIP3   OH224161   9.198   1.483  10.261  0.4114  0.2702  0.2513
 7760TIP3    H124162   9.184   1.557  10.321  1.0160  0.1658  0.5302
 7760TIP3    H224163   9.232   1.524  10.181  1.7922  0.2236  0.7747
 7761TIP3   OH224164   6.484   4.390   1.138 -0.1108 -0.6872  0.2800
 7761TIP3    H124165   6.418   4.325   1.115  1.1906 -2.7472  1.9635
 7761TIP3    H224166   6.488   4.387   1.234 -0.5576  2.5369  0.5186
 7762TIP3   OH224167   2.808   9.496   3.843 -0.1797 -0.2142  0.0042
 7762TIP3    H124168   2.729   9.514   3.792  0.3766 -0.7136 -1.0723
 7762TIP3    H224169   2.780   9.435   3.910 -1.2745  1.6396  1.3399
 7763TIP3   OH224170   6.004   1.733   4.974  0.1727  0.2738  0.1756
 7763TIP3    H124171   6.007   1.796   4.902 -1.1571 -1.7226 -1.7542
 7763TIP3    H224172   5.949   1.662   4.941  1.8298 -2.0574  2.1132
 7764TIP3   OH224173   4.471   9.671   8.410 -0.1898 -0.1082  0.3985
 7764TIP3    H124174   4.547   9.640   8.361 -0.2827 -0.0908  0.2444
 7764TIP3    H224175   4.400   9.612   8.385 -0.2742 -0.0043  0.3932
 7765TIP3   OH224176   5.394   8.165   5.110 -0.3604  0.3322  0.2335
 7765TIP3    H124177   5.313   8.120   5.134  0.0452  0.1281  1.2559
 7765TIP3    H224178   5.416   8.218   5.187  1.4755 -1.0408  0.7248
 7766TIP3   OH224179   9.617   9.302   2.470  0.4336  0.1781 -0.0863
 7766TIP3    H124180   9.565   9.227   2.441 -0.0261  0.7970 -0.9044
 7766TIP3    H224181   9.698   9.263   2.503 -0.2663 -0.7516  0.6004
 7767TIP3   OH224182   5.230   8.726   3.651  0.3416 -0.5093 -0.1774
 7767TIP3    H124183   5.307   8.712   3.596  1.3864 -0.5225  1.2502
 7767TIP3    H224184   5.158   8.687   3.601  1.5118 -1.9251 -0.8234
 7768TIP3   OH224185   2.159   4.693   0.380 -0.0051 -0.0061 -0.0956
 7768TIP3    H124186   2.142   4.781   0.413  0.1653  0.5712 -1.4656
 7768TIP3    H224187   2.255   4.684   0.384  0.1578  0.5930 -1.5703
 7769TIP3   OH224188   6.469   8.068   8.135 -0.0351  0.4717  0.0690
 7769TIP3    H124189   6.477   8.109   8.221  2.0042  1.7449 -0.6464
 7769TIP3    H224190   6.517   7.986   8.143 -0.7575  0.0761  0.4193
 7770TIP3   OH224191   7.404   8.019   5.319 -0.2800  0.4206  0.4452
 7770TIP3    H124192   7.434   8.090   5.261 -1.5936  1.1531  0.6195
 7770TIP3    H224193   7.329   8.057   5.365 -1.1135 -1.1469  0.4200
 7771TIP3   OH224194   4.254   6.541   1.699  0.4202  0.4255  0.8531
 7771TIP3    H124195   4.163   6.565   1.710  1.2106  3.6541  1.2033
 7771TIP3    H224196   4.285   6.519   1.787  1.0659  4.0908  1.7034
 7772TIP3   OH224197   2.296   0.211   1.645 -0.0552 -0.3524  0.3753
 7772TIP3    H124198   2.203   0.232   1.655 -0.2307 -1.5943  1.6384
 7772TIP3    H224199   2.301   0.162   1.563 -0.2835  0.8647 -0.3950
 7773TIP3   OH224200   3.274   4.845   6.528  0.3161 -0.0997 -0.3303
 7773TIP3    H124201   3.225   4.779   6.577  0.5961 -0.1692 -0.1429
 7773TIP3    H224202   3.268   4.817   6.437  0.5712 -0.4724 -0.2337
 7774TIP3   OH224203   0.745   5.901   9.405 -0.3041  0.1372 -0.7277
 7774TIP3    H124204   0.691   5.822   9.412  0.9293 -0.5746  1.7163
 7774TIP3    H224205   0.835   5.869   9.403  0.2260  1.4473  0.5500
 7775TIP3   OH224206   1.731   8.198   5.260 -0.1193 -0.4212  0.2274
 7775TIP3    H124207   1.799   8.260   5.232 -0.2177 -0.1474  0.5738
 7775TIP3    H224208   1.776   8.139   5.320 -0.2638 -0.0170  0.7390
 7776TIP3   OH224209   3.779  10.689   9.329 -0.5823 -0.4331  0.0376
 7776TIP3    H124210   3.811  10.680   9.418  0.4191 -1.3586 -0.3903
 7776TIP3    H224211   3.812  10.611   9.283 -1.8440 -0.4426 -0.9148
 7777TIP3   OH224212   2.161   0.878   1.485  0.2409  0.1030 -0.2125
 7777TIP3    H124213   2.096   0.949   1.480 -0.9423 -0.9897 -0.9773
 7777TIP3    H224214   2.212   0.887   1.404  1.9433  1.7181  0.9419
 7778TIP3   OH224215   4.516   1.207  10.234  0.4690  0.5727 -0.1785
 7778TIP3    H124216   4.471   1.287  10.208  1.6183  1.4208  0.3550
 7778TIP3    H224217   4.589   1.237  10.289  0.1335 -0.9128  1.1719
 7779TIP3   OH224218   6.662   8.394   9.840 -0.0250 -0.0404 -0.3719
 7779TIP3    H124219   6.583   8.447   9.848  0.0456  0.1617 -1.0245
 7779TIP3    H224220   6.630   8.306   9.817 -0.0710 -0.0164 -0.4008
 7780TIP3   OH224221  10.706   2.974   8.371  0.4767  0.6263 -0.3088
 7780TIP3    H124222  10.701   3.059   8.326 -0.7739  0.7510  0.0304
 7780TIP3    H224223  10.799   2.965   8.394  0.8096  1.4254 -1.2402
 7781TIP3   OH224224   5.316   9.984   6.376  0.5475  0.7944 -0.0299
 7781TIP3    H124225   5.337  10.052   6.440  0.1768  1.2283 -0.3587
 7781TIP3    H224226   5.261   9.922   6.424  1.4356  0.3681  0.4554
 7782TIP3   OH224227   1.986   9.338   9.914  0.2528  1.0191 -0.2113
 7782TIP3    H124228   2.036   9.387   9.980  0.0940  1.3492 -0.3347
 7782TIP3    H224229   2.051   9.311   9.850  0.5057  0.1957  0.3701
 7783TIP3   OH224230   5.054   4.228   5.957 -0.5366  0.1276  0.4290
 7783TIP3    H124231   5.082   4.264   5.873 -1.7213 -2.4415 -1.1853
 7783TIP3    H224232   5.135   4.198   5.999 -0.1476 -1.3682 -1.2598
 7784TIP3   OH224233   7.886   6.130   6.822  0.4545  0.2336  0.4833
 7784TIP3    H124234   7.907   6.059   6.762 -0.6220 -1.4292  1.9793
 7784TIP3    H224235   7.818   6.180   6.777 -0.1392 -0.8298  0.1627
 7785TIP3   OH224236   9.976   3.050   9.767  1.2178  0.1938 -0.4119
 7785TIP3    H124237   9.985   3.006   9.852 -1.2557  0.6343  0.1873
 7785TIP3    H224238   9.958   3.142   9.790 -3.1388 -0.2675 -1.0682
 7786TIP3   OH224239   0.740   6.399   0.437  0.0546 -0.3450  0.7579
 7786TIP3    H124240   0.742   6.494   0.440 -1.2688 -0.2684 -0.1052
 7786TIP3    H224241   0.666   6.375   0.493 -1.4631 -0.6892 -1.3156
 7787TIP3   OH224242   4.614   4.742   6.162 -0.2359  0.1939 -0.0011
 7787TIP3    H124243   4.569   4.824   6.145 -1.0043  0.0014  1.0275
 7787TIP3    H224244   4.554   4.674   6.131  1.1417  0.0003 -2.5693
 7788TIP3   OH224245   5.352   1.338   2.786 -0.0472  0.0193  0.3235
 7788TIP3    H124246   5.295   1.412   2.808  1.4759  1.6407 -0.9171
 7788TIP3    H224247   5.362   1.344   2.691  0.6131 -1.4405  0.2779
 7789TIP3   OH224248   1.847   6.225   4.223  0.3099  0.0841  0.8501
 7789TIP3    H124249   1.901   6.300   4.197 -0.4745  0.1642 -0.6801
 7789TIP3    H224250   1.886   6.150   4.178 -0.0529 -0.0794  0.8004
 7790TIP3   OH224251   8.107   2.883   6.395 -0.5320  0.2339  0.1487
 7790TIP3    H124252   8.166   2.954   6.420  0.6700 -0.4502 -0.6610
 7790TIP3    H224253   8.058   2.917   6.320 -0.2728  0.3722  0.0410
 7791TIP3   OH224254   6.578   5.969   3.473 -0.0810  0.1087  0.2562
 7791TIP3    H124255   6.668   5.971   3.439  0.0584 -0.5839  0.5507
 7791TIP3    H224256   6.581   5.906   3.545 -0.6854  0.5003  0.6328
 7792TIP3   OH224257   4.219   8.285   2.204  0.4428  0.1637 -0.1359
 7792TIP3    H124258   4.165   8.346   2.154  1.5146  2.0068  0.8094
 7792TIP3    H224259   4.309   8.309   2.182  0.9275 -2.0011 -0.7210
 7793TIP3   OH224260   8.335   4.515   3.344 -0.1627 -0.4582 -0.3367
 7793TIP3    H124261   8.269   4.486   3.407  0.3288 -0.1574  0.3423
 7793TIP3    H224262   8.342   4.609   3.359 -0.6155 -0.2472 -1.4157
 7794TIP3   OH224263   8.153   9.635   8.812 -0.6153 -0.0990 -0.0435
 7794TIP3    H124264   8.080   9.645   8.751  0.2992 -1.7550 -1.5146
 7794TIP3    H224265   8.227   9.677   8.768  0.3196 -2.2585 -0.7012
 7795TIP3   OH224266   8.453   9.069   0.626 -0.0502  0.9320 -0.4224
 7795TIP3    H124267   8.375   9.085   0.572  0.1063 -2.6455 -1.9698
 7795TIP3    H224268   8.523   9.052   0.563  1.3524  1.4019  0.9462
 7796TIP3   OH224269   3.399   5.808   0.202  0.2136  0.1628 -0.2382
 7796TIP3    H124270   3.446   5.888   0.224  0.5040  0.3052 -1.3028
 7796TIP3    H224271   3.380   5.817   0.108  1.3903 -1.5954 -0.6909
 7797TIP3   OH224272   9.378  10.107   1.005 -0.3453  0.4312  1.0073
 7797TIP3    H124273   9.385  10.157   0.924  0.6945 -0.3855  0.5627
 7797TIP3    H224274   9.352  10.019   0.977  2.2745 -0.5251  1.2357
 7798TIP3   OH224275   6.490   1.605   3.324  0.1590  0.5158  0.2171
 7798TIP3    H124276   6.414   1.663   3.332 -0.6440 -0.1547 -1.9165
 7798TIP3    H224277   6.458   1.530   3.273  2.0041 -0.2551  0.1100
 7799TIP3   OH224278   5.966   6.725   8.644  0.2016  0.4877 -0.1965
 7799TIP3    H124279   5.909   6.649   8.651 -0.4107  0.8829 -0.7468
 7799TIP3    H224280   5.916   6.796   8.685  1.7172  0.1448  2.4787
 7800TIP3   OH224281   1.853   9.795   3.659  0.3573  0.5535  0.3121
 7800TIP3    H124282   1.775   9.824   3.706 -1.1150 -0.8259 -1.1510
 7800TIP3    H224283   1.863   9.703   3.682  1.0443  0.4886 -0.2041
 7801TIP3   OH224284   2.411   2.003   1.144  0.4084 -0.2676 -1.0026
 7801TIP3    H124285   2.360   1.943   1.089 -0.7641  0.1910 -0.4638
 7801TIP3    H224286   2.404   2.088   1.098 -1.2835  0.3111  0.2065
 7802TIP3   OH224287   8.424   4.790   2.904 -0.4862 -0.5190 -0.2698
 7802TIP3    H124288   8.511   4.830   2.900 -1.0125  1.0056  1.8188
 7802TIP3    H224289   8.434   4.719   2.969 -1.2493  1.1220  1.7411
 7803TIP3   OH224290   7.399  10.214   6.565 -0.2015 -0.3718  0.1120
 7803TIP3    H124291   7.480  10.230   6.613 -1.6083  1.5171  2.0488
 7803TIP3    H224292   7.364  10.133   6.602 -0.2358 -0.0577  0.7693
 7804TIP3   OH224293   3.107   5.416   5.572  0.0969  0.1566  0.0158
 7804TIP3    H124294   3.178   5.355   5.554 -0.3286 -0.7731  1.3366
 7804TIP3    H224295   3.046   5.403   5.499  0.2584 -0.6232  0.0074
 7805TIP3   OH224296   2.892   6.652  10.179 -0.0650  0.4158 -0.3027
 7805TIP3    H124297   2.936   6.569  10.164 -0.4138  0.0888  0.4252
 7805TIP3    H224298   2.854   6.644  10.267 -0.9383  0.9612 -0.6131
 7806TIP3   OH224299   5.429  10.449   3.624 -0.5974  0.1889  0.1421
 7806TIP3    H124300   5.345  10.404   3.612  0.0203 -0.8869 -0.3585
 7806TIP3    H224301   5.408  10.525   3.678 -1.9002 -0.0268 -0.0117
 7807TIP3   OH224302   7.357   1.250   9.876 -0.0396  0.4527  0.4995
 7807TIP3    H124303   7.372   1.342   9.899  3.4186 -0.1323  1.1498
 7807TIP3    H224304   7.295   1.253   9.803  1.0291  3.3993 -0.4269
 7808TIP3   OH224305   5.435   6.289   6.274  0.5177  0.7294  0.7448
 7808TIP3    H124306   5.468   6.268   6.187  0.6208  2.0640  0.4496
 7808TIP3    H224307   5.442   6.384   6.281 -1.4120  0.8746  1.4145
 7809TIP3   OH224308   1.939   3.632   2.596  0.6155 -0.1120 -0.1686
 7809TIP3    H124309   1.851   3.593   2.596 -0.5681  2.3361 -1.6883
 7809TIP3    H224310   1.929   3.715   2.642  1.5440  1.2638 -2.3005
 7810TIP3   OH224311   4.141   0.521   1.214  0.2675  0.1079  0.2602
 7810TIP3    H124312   4.068   0.460   1.223 -0.2887  0.7673  0.3051
 7810TIP3    H224313   4.127   0.586   1.283  0.7359  0.4051  0.0821
 7811TIP3   OH224314   8.960   1.268   7.025  0.1655 -0.6997 -0.4047
 7811TIP3    H124315   8.956   1.362   7.042 -0.9877 -1.0994  1.7857
 7811TIP3    H224316   9.028   1.236   7.084 -0.4834 -1.4364 -0.0377
 7812TIP3   OH224317   4.106   0.800   0.525 -0.5840 -0.3424  0.3288
 7812TIP3    H124318   4.122   0.714   0.564 -1.2722 -1.0511 -0.9016
 7812TIP3    H224319   4.159   0.860   0.578  1.5277 -1.7867 -0.0130
 7813TIP3   OH224320   9.837   3.225   6.958  0.0578 -0.5151  0.4006
 7813TIP3    H124321   9.830   3.133   6.932  0.4868  0.3327 -3.2359
 7813TIP3    H224322   9.751   3.247   6.994 -0.2780 -2.1201  0.6610
 7814TIP3   OH224323   1.514   6.189   7.566 -0.0822 -0.4872 -0.3241
 7814TIP3    H124324   1.541   6.245   7.639  3.4777  0.2102 -1.9401
 7814TIP3    H224325   1.529   6.100   7.596 -1.6362 -0.4275  0.7668
 7815TIP3   OH224326   1.652   9.087   2.664 -0.3083 -0.4803 -0.1157
 7815TIP3    H124327   1.659   9.176   2.628  1.1037 -0.3702  0.3528
 7815TIP3    H224328   1.601   9.098   2.744 -0.8940 -0.2461 -0.5097
 7816TIP3   OH224329   1.461   5.902   6.529  0.5148 -0.5867  0.6457
 7816TIP3    H124330   1.502   5.952   6.459  1.3557 -1.2053  0.6815
 7816TIP3    H224331   1.369   5.897   6.504  0.0104  2.4013  1.4766
 7817TIP3   OH224332   8.576   2.866   4.855 -0.6256  0.4257 -0.1262
 7817TIP3    H124333   8.653   2.844   4.908  0.2785  4.6039  0.6290
 7817TIP3    H224334   8.608   2.864   4.765  0.1555  1.1885  0.1199
 7818TIP3   OH224335   1.908   7.755   9.770  0.3143 -0.1707  0.5739
 7818TIP3    H124336   1.994   7.745   9.730  1.0949  0.6836  1.9435
 7818TIP3    H224337   1.850   7.699   9.718  1.2864  0.7302 -1.5607
 7819TIP3   OH224338   0.378   4.398   3.185 -0.1624 -0.5181 -0.6835
 7819TIP3    H124339   0.352   4.427   3.273 -1.7244 -1.3391 -0.8355
 7819TIP3    H224340   0.456   4.449   3.165 -1.3741  1.7325  0.0465
 7820TIP3   OH224341   8.733   7.320   9.078  0.3085 -0.1677 -0.4171
 7820TIP3    H124342   8.793   7.366   9.137  0.7598  0.3285 -1.2433
 7820TIP3    H224343   8.774   7.327   8.992 -0.6612 -0.3098 -0.9040
 7821TIP3   OH224344   4.656   2.113   5.787  0.0460 -0.6151  0.5600
 7821TIP3    H124345   4.742   2.152   5.801 -0.4369  0.1302  1.6019
 7821TIP3    H224346   4.651   2.098   5.693  0.1765  2.1033  0.0247
 7822TIP3   OH224347   0.136   5.404   8.318 -0.4436  0.0411  0.0471
 7822TIP3    H124348   0.211   5.459   8.340  0.3344 -0.3290 -1.5201
 7822TIP3    H224349   0.089   5.394   8.400  2.1647 -1.1071  1.5342
 7823TIP3   OH224350   2.018   6.772   1.920 -0.4202  0.2024  0.3109
 7823TIP3    H124351   2.010   6.804   1.830 -1.3685  0.4562  0.4778
 7823TIP3    H224352   1.947   6.815   1.968  2.3504  3.1748  2.1077
 7824TIP3   OH224353   6.923  10.094   6.076 -0.3910 -0.3267 -0.8565
 7824TIP3    H124354   6.830  10.108   6.056 -0.6002 -0.3249  0.0554
 7824TIP3    H224355   6.930  10.117   6.169  0.6717  0.3912 -1.0964
 7825TIP3   OH224356   3.185   6.063   3.184 -0.3715 -0.3349 -0.4083
 7825TIP3    H124357   3.092   6.056   3.163 -1.4363 -1.0303  3.6734
 7825TIP3    H224358   3.203   5.985   3.238  1.5644  1.5530  1.9117
 7826TIP3   OH224359   9.096   3.337   9.316 -0.1021 -0.1086  1.0498
 7826TIP3    H124360   9.064   3.258   9.362 -1.2954  0.4535  1.2255
 7826TIP3    H224361   9.062   3.410   9.368  1.4086  0.5388  1.1619
 7827TIP3   OH224362   4.807   6.017   9.926 -0.1147  0.1262  0.0479
 7827TIP3    H124363   4.877   5.995   9.865  1.4343 -1.4440  2.2758
 7827TIP3    H224364   4.728   6.021   9.871  1.3120 -0.2796 -2.1639
 7828TIP3   OH224365   9.900  10.118   7.355  0.4230  0.2704  0.3293
 7828TIP3    H124366   9.901  10.092   7.447 -1.6233 -0.2304  0.2504
 7828TIP3    H224367   9.823  10.174   7.347  0.3177 -0.0574 -1.1783
 7829TIP3   OH224368   6.633   8.582   4.046 -0.5351 -0.1846  0.0785
 7829TIP3    H124369   6.584   8.539   3.976 -0.6690 -1.2803  0.8149
 7829TIP3    H224370   6.586   8.558   4.126  0.8169 -0.7223  0.7442
 7830TIP3   OH224371   5.192   2.919   2.053  0.1071 -0.5256 -0.2281
 7830TIP3    H124372   5.106   2.959   2.041  1.1463  1.6605 -0.7317
 7830TIP3    H224373   5.227   2.911   1.964  1.7609  1.7903  0.1332
 7831TIP3   OH224374   5.214   8.358   3.758 -0.0920  0.1197  0.0674
 7831TIP3    H124375   5.246   8.300   3.689 -0.9921 -0.5992  0.2336
 7831TIP3    H224376   5.125   8.381   3.730  0.2025  1.3461  0.0553
 7832TIP3   OH224377   8.880   8.333   2.889 -0.6403  0.1399  0.1163
 7832TIP3    H124378   8.941   8.407   2.897  0.3050 -0.3441 -2.0312
 7832TIP3    H224379   8.795   8.369   2.914 -0.0601  1.7400 -0.0859
 7833TIP3   OH224380   5.279   9.833   8.397  0.1180  0.3461 -0.5126
 7833TIP3    H124381   5.254   9.925   8.400 -0.1675  0.2818 -0.8968
 7833TIP3    H224382   5.317   9.821   8.310 -2.2104 -0.4851 -1.5029
 7834TIP3   OH224383   2.287   7.720   0.144 -0.5324  0.3734 -0.2417
 7834TIP3    H124384   2.203   7.682   0.119 -0.5426  0.1535  0.1188
 7834TIP3    H224385   2.296   7.699   0.237 -0.2908  0.7925 -0.1680
 7835TIP3   OH224386   9.527   8.312   2.633  0.0918 -0.0372  0.2867
 7835TIP3    H124387   9.479   8.263   2.567 -1.2107 -0.7605  1.7135
 7835TIP3    H224388   9.540   8.399   2.594 -0.6280 -0.4498 -0.9106
 7836TIP3   OH224389   4.679   5.597   3.281 -0.3777 -0.1888  0.0587
 7836TIP3    H124390   4.586   5.591   3.261 -0.2612 -1.7287 -0.1676
 7836TIP3    H224391   4.709   5.506   3.284  1.2926  0.2896 -0.7227
 7837TIP3   OH224392   6.103  10.623   2.486 -0.4689 -0.1208  0.2985
 7837TIP3    H124393   6.187  10.662   2.461  0.0415 -1.1190  0.3883
 7837TIP3    H224394   6.111  10.532   2.457 -1.3113 -0.3590  0.8156
 7838TIP3   OH224395   6.363   5.296   0.914  0.2291 -0.1701  0.5047
 7838TIP3    H124396   6.433   5.332   0.859  1.1036  0.0536  1.7204
 7838TIP3    H224397   6.375   5.201   0.908 -0.5091 -0.2075 -0.7096
 7839TIP3   OH224398   7.653   9.631   9.173 -0.7154 -0.0446  0.7023
 7839TIP3    H124399   7.748   9.623   9.182 -0.5045 -0.2629 -1.2743
 7839TIP3    H224400   7.622   9.649   9.262  1.4021  2.4984  1.0617
 7840TIP3   OH224401   4.099   1.435   0.895  0.0495  0.0778  0.0538
 7840TIP3    H124402   4.155   1.388   0.957 -1.3475 -2.1672 -0.2820
 7840TIP3    H224403   4.068   1.511   0.944  0.5864 -0.5548  1.4234
 7841TIP3   OH224404   1.920   6.070   0.658  0.2948  0.1203  0.8055
 7841TIP3    H124405   1.931   6.032   0.571 -1.2634  1.6548 -0.1128
 7841TIP3    H224406   1.896   5.996   0.714  0.8130 -0.7952 -0.1477
 7842TIP3   OH224407   7.978   7.152   9.174  0.3100  0.5830  0.4012
 7842TIP3    H124408   8.033   7.085   9.134  0.8108  0.8838  0.5765
 7842TIP3    H224409   7.947   7.205   9.101  0.6022  0.6704  0.3390
 7843TIP3   OH224410   9.667  10.688   2.301 -0.0536 -0.4997  0.1018
 7843TIP3    H124411   9.616  10.761   2.338 -0.0227 -0.1294 -0.5743
 7843TIP3    H224412   9.744  10.681   2.359 -1.8595 -2.4884  2.4776
 7844TIP3   OH224413   6.077   7.283   1.345  0.1448 -0.2042  0.9349
 7844TIP3    H124414   6.092   7.348   1.277 -1.9520  1.0027  1.5285
 7844TIP3    H224415   6.048   7.205   1.298  0.6744 -0.0381  0.3278
 7845TIP3   OH224416   3.178  10.819   8.842 -0.3950  0.1455 -0.1018
 7845TIP3    H124417   3.117  10.873   8.792  2.3180  1.5677 -2.1290
 7845TIP3    H224418   3.226  10.769   8.777  2.0315  0.6931  1.1283
 7846TIP3   OH224419   7.908   5.847   3.543  0.1194 -0.3135 -0.3367
 7846TIP3    H124420   7.980   5.844   3.480  1.2830  1.0683  0.8518
 7846TIP3    H224421   7.948   5.821   3.626 -0.9551 -0.3603  0.1837
 7847TIP3   OH224422   5.696   2.697   5.577 -0.2056  0.1635  0.4492
 7847TIP3    H124423   5.701   2.768   5.512 -1.1506 -1.1917 -1.1753
 7847TIP3    H224424   5.760   2.722   5.644  0.0753  2.1339 -0.4668
 7848TIP3   OH224425  10.807   0.927   4.081  0.2018 -0.3358 -0.4888
 7848TIP3    H124426  10.775   0.843   4.049 -1.2541  0.2424 -0.6196
 7848TIP3    H224427  10.902   0.917   4.084  0.2492 -1.2053 -2.7931
 7849TIP3   OH224428   1.365   6.650   6.834 -0.2664 -0.3394  0.7406
 7849TIP3    H124429   1.308   6.670   6.908 -1.8515 -1.6999 -0.0675
 7849TIP3    H224430   1.396   6.736   6.804 -0.2899  0.2899  2.3987
 7850TIP3   OH224431   4.296   9.588   6.201 -0.3267  0.6031 -0.1999
 7850TIP3    H124432   4.271   9.519   6.140 -0.1055  0.8096 -0.5264
 7850TIP3    H224433   4.390   9.597   6.189 -0.1792  0.2143  0.6230
 7851TIP3   OH224434   1.952   8.628   6.555  0.2297 -0.1558 -0.0247
 7851TIP3    H124435   1.967   8.582   6.473 -1.3549  0.7220 -0.8374
 7851TIP3    H224436   1.923   8.560   6.616 -0.4143 -0.5192 -0.7239
 7852TIP3   OH224437  10.032   5.898   3.696  0.1520  0.0446 -0.5802
 7852TIP3    H124438  10.083   5.975   3.672 -2.8774  2.0537 -1.1245
 7852TIP3    H224439  10.022   5.903   3.791 -0.7776  0.8767 -0.7087
 7853TIP3   OH224440   0.103   9.062   4.133 -0.4016 -0.3190 -0.1092
 7853TIP3    H124441   0.110   9.087   4.225  1.2864 -0.2614 -0.2354
 7853TIP3    H224442   0.008   9.059   4.117 -0.9383 -3.5941  2.5160
 7854TIP3   OH224443   2.490   5.659   8.975 -0.4082  0.5379  0.6114
 7854TIP3    H124444   2.512   5.748   8.948  0.7842  0.1210  0.1322
 7854TIP3    H224445   2.518   5.654   9.067  3.0175 -0.3765 -0.3285
 7855TIP3   OH224446   9.437   4.845   5.406  0.3656  0.0862  0.1800
 7855TIP3    H124447   9.507   4.910   5.405 -0.2456  0.7583 -0.5438
 7855TIP3    H224448   9.483   4.761   5.405  1.1755  0.4667  2.0008
 7856TIP3   OH224449   9.719   6.717   0.625  0.1748  0.0032 -0.5517
 7856TIP3    H124450   9.768   6.672   0.556  1.2427 -2.1722  1.4558
 7856TIP3    H224451   9.628   6.710   0.599  0.5022 -1.3678 -1.4583
 7857TIP3   OH224452   1.209   8.730   4.296  0.5104  0.2225 -0.3471
 7857TIP3    H124453   1.267   8.797   4.332 -0.2376  1.0208 -0.5837
 7857TIP3    H224454   1.189   8.673   4.370  0.3062  0.8861  0.1196
 7858TIP3   OH224455   8.526   4.386   9.373 -0.0629 -0.1419  0.3493
 7858TIP3    H124456   8.544   4.352   9.286  1.3824  1.1187  0.1089
 7858TIP3    H224457   8.592   4.344   9.429  2.4328  2.7978 -0.1249
 7859TIP3   OH224458   1.691   4.634   6.154  0.1987 -0.0264 -0.2909
 7859TIP3    H124459   1.614   4.581   6.176 -0.4543  0.7407 -0.6421
 7859TIP3    H224460   1.660   4.692   6.083  2.0742 -2.0705 -2.9689
 7860TIP3   OH224461   5.859   3.433   9.030  0.0443 -0.3895 -0.3302
 7860TIP3    H124462   5.835   3.500   9.094 -0.1036 -0.5630 -0.2002
 7860TIP3    H224463   5.779   3.419   8.979 -0.4397 -1.6743  0.7382
 7861TIP3   OH224464   5.519   1.765   1.386  0.1965  0.3185 -0.0251
 7861TIP3    H124465   5.560   1.833   1.333  3.6476  0.2360  2.2403
 7861TIP3    H224466   5.495   1.809   1.468  0.2500 -0.6515  0.5308
 7862TIP3   OH224467   6.199   5.165   2.033  0.1265 -0.1517 -0.2028
 7862TIP3    H124468   6.239   5.079   2.020 -1.6331 -1.2419  1.2430
 7862TIP3    H224469   6.198   5.204   1.946 -0.3805 -2.1929 -1.1642
 7863TIP3   OH224470   3.490  10.114   3.770 -0.5675  0.1999 -0.0921
 7863TIP3    H124471   3.524  10.070   3.692 -1.1740 -0.0201 -0.2317
 7863TIP3    H224472   3.408  10.153   3.741 -1.2506 -0.6404  0.6597
 7864TIP3   OH224473   4.752   5.859   1.203  0.6588  0.1618  0.2865
 7864TIP3    H124474   4.770   5.909   1.282  0.9724  0.1451  0.2269
 7864TIP3    H224475   4.688   5.793   1.230  1.7697 -0.7061  0.8444
 7865TIP3   OH224476   5.444   0.439   9.989  0.4927 -0.4348 -0.0050
 7865TIP3    H124477   5.397   0.432   9.906  1.2537 -3.7814 -0.3151
 7865TIP3    H224478   5.518   0.496   9.970  0.5341 -0.9689 -1.5929
 7866TIP3   OH224479   2.078   1.412   9.409  0.0438 -0.4124  0.1646
 7866TIP3    H124480   2.008   1.425   9.473 -0.0115 -0.8780  0.2026
 7866TIP3    H224481   2.136   1.488   9.421 -0.1799 -0.2896  0.4890
 7867TIP3   OH224482   2.458   9.618   2.534  0.7781 -0.6159  0.0729
 7867TIP3    H124483   2.538   9.657   2.500 -0.3328  1.2404 -0.5649
 7867TIP3    H224484   2.401   9.609   2.457  0.1076 -1.2142  0.6243
 7868TIP3   OH224485   6.044   3.098   5.504 -0.4653  0.0358  0.1759
 7868TIP3    H124486   6.023   3.066   5.417 -1.2497  0.7964  0.0777
 7868TIP3    H224487   6.083   3.023   5.549  0.9449 -0.0804 -1.1526
 7869TIP3   OH224488   3.561   7.261   1.239  0.1949 -0.4376 -0.4484
 7869TIP3    H124489   3.618   7.306   1.302  1.5188 -0.7960 -1.3446
 7869TIP3    H224490   3.564   7.316   1.161 -1.3323 -0.0664 -0.2652
 7870TIP3   OH224491   3.300   7.792   3.694  0.2371 -1.2165 -0.6450
 7870TIP3    H124492   3.227   7.812   3.753 -1.0175  1.5733 -2.9102
 7870TIP3    H224493   3.377   7.827   3.738 -0.2776 -1.2663  0.3303
 7871TIP3   OH224494   1.873   1.603   6.281  0.4377  0.1024 -0.5386
 7871TIP3    H124495   1.839   1.644   6.360 -0.6384 -1.2115 -0.2771
 7871TIP3    H224496   1.961   1.572   6.305  0.3957  0.3368 -0.0777
 7872TIP3   OH224497   6.784   3.314   4.249 -0.4448  0.2004  0.0777
 7872TIP3    H124498   6.741   3.251   4.307 -0.4457  0.4769  0.3806
 7872TIP3    H224499   6.872   3.324   4.285 -0.6406  0.8387  0.4016
 7873TIP3   OH224500   0.795   3.181   9.727 -0.3967 -0.0498  0.5821
 7873TIP3    H124501   0.861   3.249   9.708 -1.4447  0.6474 -0.7665
 7873TIP3    H224502   0.846   3.104   9.750  0.8770  0.6335  0.1594
 7874TIP3   OH224503   5.051   6.212   0.805 -0.5065  0.4009  0.1598
 7874TIP3    H124504   5.090   6.204   0.718  1.1173 -1.3681  0.9884
 7874TIP3    H224505   4.962   6.178   0.795 -1.0841  2.1284 -1.2027
 7875TIP3   OH224506   1.472   0.975   2.474 -0.9837 -0.0640 -0.4524
 7875TIP3    H124507   1.506   0.908   2.415  3.2251  0.9126  0.5233
 7875TIP3    H224508   1.457   0.929   2.557  0.1115 -0.2097 -0.3136
 7876TIP3   OH224509   6.249   7.546  10.572  0.3716 -0.0251  0.8310
 7876TIP3    H124510   6.240   7.494  10.493  2.5461 -0.6094  0.9088
 7876TIP3    H224511   6.179   7.612  10.566 -1.4342 -1.9167 -0.0458
 7877TIP3   OH224512   1.511   3.965   3.999 -0.3213  0.2364  0.1723
 7877TIP3    H124513   1.474   3.883   4.031  0.1221 -0.0315  0.0156
 7877TIP3    H224514   1.605   3.949   3.996 -0.1970  0.8757  0.4832
 7878TIP3   OH224515   2.354   7.590   9.377  0.0097 -0.2232 -0.0235
 7878TIP3    H124516   2.342   7.498   9.400  0.2028  0.0900  1.3943
 7878TIP3    H224517   2.280   7.610   9.319  0.5644 -1.5390 -1.2571
 7879TIP3   OH224518   0.112   5.830   8.334 -0.0390  0.3634 -0.0644
 7879TIP3    H124519   0.200   5.827   8.296  0.6349  2.9626  1.0380
 7879TIP3    H224520   0.127   5.820   8.428 -1.0879 -0.4123  0.0379
 7880TIP3   OH224521   8.337   5.177   0.160  0.2038  0.2134  0.2044
 7880TIP3    H124522   8.296   5.261   0.139  1.5106  1.3556  1.9521
 7880TIP3    H224523   8.343   5.176   0.255  3.1817 -0.3345  0.1042
 7881TIP3   OH224524   6.664  10.191   0.102 -0.0232  0.4119 -0.0672
 7881TIP3    H124525   6.726  10.211   0.172  0.5265  3.2453 -1.2405
 7881TIP3    H224526   6.714  10.208   0.021 -1.3886 -0.3594 -1.1099
 7882TIP3   OH224527   7.537  10.019   5.809 -0.1729 -0.4704  1.2714
 7882TIP3    H124528   7.470  10.088   5.813 -1.1068 -1.4050  2.0673
 7882TIP3    H224529   7.494   9.946   5.765  0.5647 -0.8272  1.1223
 7883TIP3   OH224530   5.232   3.085   8.279 -0.5472  0.3953 -0.0263
 7883TIP3    H124531   5.189   3.126   8.354  1.3438  0.8789  0.8614
 7883TIP3    H224532   5.233   3.152   8.211 -0.0219  0.8647  0.4288
 7884TIP3   OH224533   6.439   5.842   2.313 -0.2863  0.4376 -0.3397
 7884TIP3    H124534   6.456   5.832   2.219  1.7080 -0.5791  0.0737
 7884TIP3    H224535   6.475   5.927   2.336  2.2062 -0.6422  0.0441
 7885TIP3   OH224536  10.206   4.702   5.083  0.6415 -0.1291  0.2743
 7885TIP3    H124537  10.216   4.785   5.036 -0.2826  0.7767  1.6063
 7885TIP3    H224538  10.121   4.709   5.127 -0.6919 -2.8026 -1.5341
 7886TIP3   OH224539   2.161   7.394   2.486 -0.1012 -0.2559 -0.0748
 7886TIP3    H124540   2.187   7.338   2.559  0.5868 -0.1851 -0.2544
 7886TIP3    H224541   2.223   7.467   2.490  0.2958 -0.5249 -1.0557
 7887TIP3   OH224542   5.142   9.584   4.706 -0.0237  0.1655  0.2137
 7887TIP3    H124543   5.102   9.552   4.625  0.7820  1.5971 -0.7918
 7887TIP3    H224544   5.072   9.632   4.750  0.0754  1.1533 -0.6743
 7888TIP3   OH224545   4.228   0.054   3.068 -0.1659  0.1553  0.2527
 7888TIP3    H124546   4.304   0.111   3.056  1.8942 -2.0846  1.5898
 7888TIP3    H224547   4.182   0.090   3.144 -0.0666  1.1317 -0.1359
 7889TIP3   OH224548   9.883   9.743   9.120  0.4431 -0.2591 -0.4855
 7889TIP3    H124549   9.899   9.787   9.036  1.6263 -0.8184 -0.5673
 7889TIP3    H224550   9.928   9.797   9.185 -0.1014 -0.0675 -0.2624
 7890TIP3   OH224551   3.984   1.895  10.497 -0.5245  0.0528 -0.1045
 7890TIP3    H124552   4.008   1.854  10.580  0.5542 -0.3345 -0.5957
 7890TIP3    H224553   4.017   1.985  10.505 -1.9685  0.5463  0.5598
 7891TIP3   OH224554   7.340   2.791   2.098 -0.3733  0.1183  0.1737
 7891TIP3    H124555   7.393   2.859   2.141  1.9529  0.1037 -2.3836
 7891TIP3    H224556   7.291   2.839   2.031 -0.9027 -0.3731  0.2073
 7892TIP3   OH224557   7.758   6.823  10.228 -0.3522 -0.3113 -0.4285
 7892TIP3    H124558   7.834   6.767  10.243  0.5324  1.0737  0.5012
 7892TIP3    H224559   7.683   6.768  10.252  0.3992 -1.4448 -0.6074
 7893TIP3   OH224560   2.451   2.726  10.874 -0.1780 -0.0378  0.3698
 7893TIP3    H124561   2.515   2.697  10.808  0.4283  0.4383  0.7451
 7893TIP3    H224562   2.374   2.670  10.858  1.2834 -2.5632  1.6899
 7894TIP3   OH224563   8.812   4.263   7.197 -0.1890  0.0972  0.5838
 7894TIP3    H124564   8.770   4.348   7.188 -0.3935 -0.1606 -1.5043
 7894TIP3    H224565   8.899   4.275   7.157 -0.3919 -0.7564 -0.1574
 7895TIP3   OH224566   3.958  10.188   8.704 -0.0117 -0.3544 -0.5116
 7895TIP3    H124567   3.903  10.111   8.721 -0.7465 -0.0560 -1.4243
 7895TIP3    H224568   3.997  10.171   8.619  1.3510 -0.5582  0.1253
 7896TIP3   OH224569   5.676   3.127   1.365 -0.4512 -0.5491 -0.0255
 7896TIP3    H124570   5.670   3.213   1.324 -0.4494 -0.7357 -0.4226
 7896TIP3    H224571   5.770   3.107   1.364 -0.3505 -0.1849  0.8525
 7897TIP3   OH224572   5.146   3.264   2.148 -0.5476 -0.2270  0.5377
 7897TIP3    H124573   5.227   3.267   2.199  0.1278  2.9650 -0.5233
 7897TIP3    H224574   5.076   3.277   2.212 -0.4093 -3.3946  1.5251
 7898TIP3   OH224575   4.814   2.763   6.635  0.0168  0.7660  0.0153
 7898TIP3    H124576   4.822   2.727   6.547 -0.2272  1.0134 -0.1095
 7898TIP3    H224577   4.743   2.827   6.629  0.5245  1.3571  0.1982
 7899TIP3   OH224578   1.573   1.330   1.656 -0.0096 -0.9551 -0.0832
 7899TIP3    H124579   1.511   1.395   1.623 -0.0814 -0.5125  0.9161
 7899TIP3    H224580   1.527   1.288   1.728  1.6801  1.0632  2.3302
 7900TIP3   OH224581   5.090   1.651   0.774  0.4187 -0.1841  0.6668
 7900TIP3    H124582   5.078   1.699   0.692 -0.6194  0.8053  1.3721
 7900TIP3    H224583   5.185   1.635   0.778  0.8283  1.9024  0.4468
 7901TIP3   OH224584   0.207  10.372   7.949 -0.1938  0.6300 -0.3149
 7901TIP3    H124585   0.280  10.397   8.005  0.4705  0.4847 -1.1004
 7901TIP3    H224586   0.157  10.453   7.936 -1.0404  0.4309  1.4377
 7902TIP3   OH224587   2.751   4.832   3.500  1.0936 -0.6320 -0.3138
 7902TIP3    H124588   2.734   4.811   3.592 -0.2343  0.5633 -0.2552
 7902TIP3    H224589   2.666   4.829   3.458  1.9499 -3.7047 -2.1446
 7903TIP3   OH224590   2.525  10.482   0.836 -0.0268 -0.1591 -0.2350
 7903TIP3    H124591   2.467  10.549   0.801 -1.8418 -0.9969  0.9903
 7903TIP3    H224592   2.498  10.472   0.927 -0.0028 -2.6969 -0.4329
 7904TIP3   OH224593  10.450   5.883   2.629 -0.1895 -0.5249  0.2492
 7904TIP3    H124594  10.411   5.960   2.670 -0.6845 -0.5860 -0.1049
 7904TIP3    H224595  10.424   5.810   2.685 -1.7137 -0.7458 -0.7027
 7905TIP3   OH224596   6.918   9.769   5.108 -0.1206 -0.2492 -0.6308
 7905TIP3    H124597   6.967   9.690   5.128  1.2233 -0.0212 -2.7153
 7905TIP3    H224598   6.957   9.837   5.163 -0.0076 -0.6510 -0.2154
 7906TIP3   OH224599   8.043   1.842   3.589 -0.5487 -0.4861 -0.1053
 7906TIP3    H124600   8.125   1.795   3.577 -1.3620 -1.6416 -1.4646
 7906TIP3    H224601   7.980   1.793   3.536 -1.2657  2.7522 -2.5297
 7907TIP3   OH224602   7.851   5.785   9.187 -0.2510 -0.5049  0.1316
 7907TIP3    H124603   7.790   5.747   9.123 -0.8008 -0.3370  0.5434
 7907TIP3    H224604   7.821   5.750   9.271 -1.4128  1.6073  0.6564
 7908TIP3   OH224605   3.352   9.282   3.157  0.3586  0.1242  0.1863
 7908TIP3    H124606   3.300   9.242   3.087 -0.8301  0.0263  1.1050
 7908TIP3    H224607   3.424   9.221   3.171 -0.6310 -0.9825  0.5653
 7909TIP3   OH224608  10.464   6.078  10.242  0.2783  0.1752 -0.1739
 7909TIP3    H124609  10.405   6.004  10.260 -0.2232  0.8247  0.9492
 7909TIP3    H224610  10.551   6.044  10.261  0.1181 -0.3377 -0.3410
 7910TIP3   OH224611   2.000   3.289   9.366  0.5565  0.5963 -0.0867
 7910TIP3    H124612   2.008   3.255   9.277  0.5127  1.7020 -0.5391
 7910TIP3    H224613   1.949   3.223   9.412  0.1101  0.2546 -1.0349
 7911TIP3   OH224614   2.205   9.293  10.658 -0.0921 -0.3205  0.5559
 7911TIP3    H124615   2.121   9.274  10.700  1.1610  0.1486  3.5593
 7911TIP3    H224616   2.265   9.228  10.693  1.0771  0.0881 -0.6016
 7912TIP3   OH224617   4.595   6.668   8.809  0.3467  0.0920  0.4676
 7912TIP3    H124618   4.657   6.637   8.875  0.4450  1.6924  1.1667
 7912TIP3    H224619   4.529   6.715   8.859  0.1131  0.8515 -0.5329
 7913TIP3   OH224620   2.075   3.386   5.847 -0.0489  0.1918  0.0524
 7913TIP3    H124621   2.009   3.370   5.780  1.0120 -0.5578 -0.8554
 7913TIP3    H224622   2.096   3.479   5.838 -1.3923  0.5970  0.7776
 7914TIP3   OH224623   9.494   1.228   9.520 -0.0836 -0.0176 -0.2090
 7914TIP3    H124624   9.565   1.175   9.484 -0.6845 -1.5331  0.7196
 7914TIP3    H224625   9.497   1.210   9.615  0.4196  2.5455  0.3235
 7915TIP3   OH224626   6.679   2.544   2.935 -0.3261  0.6514 -0.3405
 7915TIP3    H124627   6.600   2.595   2.953 -1.1325 -0.7745  0.3531
 7915TIP3    H224628   6.693   2.492   3.014  1.0461  0.5237 -0.6408
 7916TIP3   OH224629   2.385   0.043   7.549  0.3923  0.1993 -0.9173
 7916TIP3    H124630   2.403   0.105   7.619 -2.5425  0.8416 -0.6409
 7916TIP3    H224631   2.459   0.054   7.488  1.4468  1.7914  0.5597
 7917TIP3   OH224632   3.943   8.122   8.965 -0.0881  0.5192  0.2778
 7917TIP3    H124633   3.967   8.034   8.994 -1.4918  0.1562  0.4099
 7917TIP3    H224634   4.009   8.179   9.005  0.8312 -0.4508  0.2031
 7918TIP3   OH224635   2.995   4.608   0.409  0.3349  0.2063  0.3399
 7918TIP3    H124636   3.075   4.652   0.382  0.0046 -0.0556 -1.1419
 7918TIP3    H224637   2.926   4.673   0.397 -0.0170 -0.3595 -0.9374
 7919TIP3   OH224638   4.179   2.284   7.640  0.0801  0.1597 -0.2148
 7919TIP3    H124639   4.182   2.277   7.736 -0.8636  0.0204 -0.1854
 7919TIP3    H224640   4.140   2.370   7.623 -0.5574 -0.1694 -0.4576
 7920TIP3   OH224641   1.225   5.947   4.658 -0.0650 -0.3190 -0.3827
 7920TIP3    H124642   1.249   6.039   4.670 -1.9037  0.8842 -4.1990
 7920TIP3    H224643   1.305   5.905   4.627  0.3225  0.4269 -0.4141
 7921TIP3   OH224644   3.311   0.916   1.253  0.3562 -0.7877  0.1774
 7921TIP3    H124645   3.269   0.833   1.274 -0.8213 -0.6441 -1.4580
 7921TIP3    H224646   3.369   0.896   1.179  1.1631 -0.4179  0.6873
 7922TIP3   OH224647   3.098   9.554   7.546  0.0633 -0.0772  0.9523
 7922TIP3    H124648   3.014   9.541   7.501 -0.3911  1.2541  1.3756
 7922TIP3    H224649   3.088   9.507   7.629 -0.0536 -0.3827  0.7667
 7923TIP3   OH224650   5.226   8.662   6.646  0.4865 -0.4647 -0.7201
 7923TIP3    H124651   5.200   8.739   6.596  1.3073 -1.5893 -3.0243
 7923TIP3    H224652   5.276   8.609   6.585  0.1313 -2.7564  0.8202
 7924TIP3   OH224653   7.198   5.332   0.190 -0.5313  0.1994  0.4214
 7924TIP3    H124654   7.166   5.369   0.272 -1.8699 -0.2475  0.1230
 7924TIP3    H224655   7.133   5.359   0.125  0.3399  0.2786 -0.4425
 7925TIP3   OH224656   6.365   7.347   0.530 -0.2810  0.1511  0.2091
 7925TIP3    H124657   6.312   7.411   0.481  0.3615  1.4622  1.1618
 7925TIP3    H224658   6.453   7.358   0.495 -0.6625 -2.6811 -2.0336
 7926TIP3   OH224659   1.819   5.919   0.190 -0.6818  0.2249 -0.3870
 7926TIP3    H124660   1.846   5.997   0.142  0.4281  1.2488  1.7572
 7926TIP3    H224661   1.725   5.912   0.173 -0.6565  1.5552 -1.2485
 7927TIP3   OH224662   8.599   7.679  10.570  0.4050 -0.2284  0.1979
 7927TIP3    H124663   8.624   7.636  10.487  0.4975  0.3887 -0.0980
 7927TIP3    H224664   8.562   7.763  10.543 -0.6884 -0.5246  0.7188
 7928TIP3   OH224665   9.435   6.205   7.943  0.1594  0.3842 -0.0127
 7928TIP3    H124666   9.469   6.284   7.899  2.5087  0.0301  1.0143
 7928TIP3    H224667   9.484   6.133   7.903 -1.1890 -0.4747 -0.1797
 7929TIP3   OH224668   2.841   4.936   0.576 -0.6879  0.2366 -0.1956
 7929TIP3    H124669   2.865   4.893   0.658 -1.6641 -1.0660 -0.5613
 7929TIP3    H224670   2.905   5.006   0.566  1.1329 -1.2790  0.3117
 7930TIP3   OH224671   8.447  10.288   9.303 -0.3139 -0.2354  0.0279
 7930TIP3    H124672   8.460  10.226   9.231 -2.3102 -2.8326  1.7104
 7930TIP3    H224673   8.511  10.262   9.369  1.8981  2.4873 -0.8260
 7931TIP3   OH224674   9.250   3.663   1.815  0.3491 -0.1062  0.3141
 7931TIP3    H124675   9.252   3.711   1.731 -2.0758  0.8098  0.6780
 7931TIP3    H224676   9.195   3.718   1.871 -2.0637 -2.9500  0.9737
 7932TIP3   OH224677   5.540   2.058   2.283 -0.0161 -0.6005  0.3231
 7932TIP3    H124678   5.582   2.103   2.210  0.1264  1.3187  1.5307
 7932TIP3    H224679   5.501   1.980   2.243 -1.0339  1.0148 -2.0608
 7933TIP3   OH224680   5.563   4.480   4.945 -0.6488  0.4801  0.7034
 7933TIP3    H124681   5.628   4.532   4.898 -1.8396 -0.1954 -1.8542
 7933TIP3    H224682   5.484   4.534   4.944 -1.7241 -0.9667 -1.4468
 7934TIP3   OH224683   5.598   1.105   5.558 -0.2072 -0.1701 -0.0351
 7934TIP3    H124684   5.530   1.074   5.618 -0.9190  0.2590 -0.5902
 7934TIP3    H224685   5.549   1.135   5.481  0.5208  1.2813  0.0306
 7935TIP3   OH224686   9.081   2.127   9.182  0.3676 -0.1442  0.3016
 7935TIP3    H124687   9.094   2.128   9.277 -0.6101 -0.5335  0.4439
 7935TIP3    H224688   8.995   2.166   9.169  0.4395 -0.2138 -0.4285
 7936TIP3   OH224689   3.662   9.108   4.656 -0.3947  0.8022 -0.2624
 7936TIP3    H124690   3.696   9.147   4.575 -0.2487  1.2121 -0.0079
 7936TIP3    H224691   3.573   9.083   4.635  0.1366 -0.5263 -1.0282
 7937TIP3   OH224692   7.136   4.911   4.494 -0.3404  0.3181 -0.3055
 7937TIP3    H124693   7.085   4.885   4.571 -2.0466  0.5493 -1.3068
 7937TIP3    H224694   7.207   4.964   4.529  0.7141 -2.0269  1.3868
 7938TIP3   OH224695   1.467   8.420   4.667 -0.1812 -0.0619  0.3028
 7938TIP3    H124696   1.407   8.429   4.741 -0.1041 -1.1545  0.5235
 7938TIP3    H224697   1.524   8.348   4.692 -0.7463 -1.0847 -1.2014
 7939TIP3   OH224698   3.777   4.481   7.753 -0.4215  0.0838 -0.2129
 7939TIP3    H124699   3.784   4.451   7.662  1.6162  0.6948 -0.3137
 7939TIP3    H224700   3.776   4.400   7.804 -0.8382 -0.2566 -0.7500
 7940TIP3   OH224701   4.088   9.695  10.237 -0.0510  0.3497 -0.2958
 7940TIP3    H124702   4.003   9.672  10.197  0.2001  1.1874 -1.3367
 7940TIP3    H224703   4.078   9.786  10.263  0.2029  0.1532  0.5269
 7941TIP3   OH224704   3.517   8.237   9.838  0.4426  0.1084 -0.0522
 7941TIP3    H124705   3.474   8.162   9.880 -1.8586  1.0671 -0.5214
 7941TIP3    H224706   3.458   8.261   9.766  0.2056  3.2837  1.0265
 7942TIP3   OH224707   0.336  10.730   6.275 -0.1891 -0.3294  0.0225
 7942TIP3    H124708   0.358  10.661   6.213  0.9653 -0.2377  0.2968
 7942TIP3    H224709   0.253  10.765   6.245 -0.3762 -1.2835 -0.5998
 7943TIP3   OH224710   3.174   2.015   2.493 -0.0905  0.0830  0.0016
 7943TIP3    H124711   3.126   2.098   2.498 -0.8176 -0.2470 -1.2059
 7943TIP3    H224712   3.263   2.037   2.520  0.5749  1.9794 -3.2059
 7944TIP3   OH224713   3.272   2.312   1.240  0.1503 -0.0048 -0.0108
 7944TIP3    H124714   3.319   2.348   1.315  0.4187  1.4455 -0.8582
 7944TIP3    H224715   3.220   2.241   1.278 -0.4381  1.2793  1.7272
 7945TIP3   OH224716   7.604   8.163   3.792  0.0211  0.5368 -0.0138
 7945TIP3    H124717   7.567   8.075   3.799 -1.3421  1.1072  0.3061
 7945TIP3    H224718   7.567   8.198   3.711  1.6270  0.3560 -0.8535
 7946TIP3   OH224719   9.703   4.903   0.773 -0.3544  0.7082 -0.2890
 7946TIP3    H124720   9.678   4.857   0.853 -1.1944  2.0242  0.2439
 7946TIP3    H224721   9.753   4.979   0.804 -0.9385  1.3928 -0.9815
 7947TIP3   OH224722   8.939   4.072   1.779 -0.8212 -0.7023  0.0381
 7947TIP3    H124723   8.954   4.147   1.836 -0.0885 -0.1833 -0.8072
 7947TIP3    H224724   8.844   4.065   1.772 -0.8964 -0.1550  0.5196
 7948TIP3   OH224725   8.552   8.394   8.268  0.1649 -0.1461  0.2548
 7948TIP3    H124726   8.625   8.405   8.328 -1.9644 -0.0393  3.0256
 7948TIP3    H224727   8.545   8.479   8.223 -0.0944  0.9446  2.2403
 7949TIP3   OH224728   4.046   9.442   2.915 -0.0673 -0.4608  0.8033
 7949TIP3    H124729   3.975   9.383   2.941  0.7792 -0.9317  2.1569
 7949TIP3    H224730   4.082   9.402   2.836 -0.4814 -0.9039  0.8320
 7950TIP3   OH224731   1.919   2.857   9.666  0.0557 -0.2661  0.4888
 7950TIP3    H124732   1.929   2.947   9.696 -0.7916  0.4199 -1.2051
 7950TIP3    H224733   2.005   2.817   9.683  0.8591  1.2240  0.0785
 7951TIP3   OH224734   5.369   6.817   0.755 -0.3230 -0.2763  1.0134
 7951TIP3    H124735   5.328   6.903   0.753  0.5682  0.1542  0.5476
 7951TIP3    H224736   5.371   6.793   0.848 -3.9156 -1.4916  0.9549
 7952TIP3   OH224737   7.984   5.293   4.237  0.1506  0.3012  0.1214
 7952TIP3    H124738   7.982   5.260   4.147 -0.2331 -0.8169  0.5175
 7952TIP3    H224739   7.918   5.362   4.239  0.9300  1.1053 -0.7171
 7953TIP3   OH224740   0.549  10.474   5.371  0.4566 -0.0549 -0.5610
 7953TIP3    H124741   0.552  10.378   5.370 -1.6376 -0.1660 -1.6234
 7953TIP3    H224742   0.627  10.500   5.420  0.2159 -2.3250  1.1929
 7954TIP3   OH224743   0.362   4.221   3.625  0.0935  0.1769  0.5545
 7954TIP3    H124744   0.413   4.301   3.634 -1.5427  1.6124 -1.6219
 7954TIP3    H224745   0.388   4.186   3.539  0.8787 -1.7465  1.5285
 7955TIP3   OH224746  10.676   0.563   2.776  0.0808  0.3246 -0.7936
 7955TIP3    H124747  10.659   0.550   2.870  1.2445  3.2637 -0.0565
 7955TIP3    H224748  10.616   0.633   2.750 -2.2003 -2.2429 -3.0703
 7956TIP3   OH224749   8.937   1.466   9.878  0.2819 -0.3463  0.0538
 7956TIP3    H124750   9.017   1.459   9.826  0.9152 -0.2900  0.9952
 7956TIP3    H224751   8.904   1.377   9.884  1.8661 -0.8815  2.0573
 7957TIP3   OH224752   3.099   1.004   4.068 -0.2855  0.2918 -0.4585
 7957TIP3    H124753   3.102   1.088   4.113  4.2321 -0.5344  1.2983
 7957TIP3    H224754   3.076   0.941   4.137 -0.5384 -0.2293 -1.0153
 7958TIP3   OH224755   8.900   8.628   7.097 -0.1547  0.5093 -0.8833
 7958TIP3    H124756   8.835   8.677   7.148  0.6317 -1.3796  2.1334
 7958TIP3    H224757   8.967   8.602   7.160  1.9520 -0.3476 -3.2865
 7959TIP3   OH224758   7.331   1.455   0.799 -0.7727 -1.1456  0.8393
 7959TIP3    H124759   7.356   1.524   0.860  0.9569 -1.1922  0.2445
 7959TIP3    H224760   7.281   1.501   0.731  1.0735 -0.2399 -0.0068
 7960TIP3   OH224761   0.021   5.688   6.772  0.0963  0.0232 -0.3076
 7960TIP3    H124762   0.101   5.671   6.821 -0.6469 -1.6201  0.4012
 7960TIP3    H224763   0.032   5.640   6.690  0.8771  1.8886 -1.3600
 7961TIP3   OH224764   2.018   3.885   6.672 -0.0565 -0.1355 -0.0708
 7961TIP3    H124765   2.037   3.830   6.747 -0.2285  0.3544  0.3428
 7961TIP3    H224766   2.083   3.861   6.606  1.7876  1.2052  1.1534
 7962TIP3   OH224767   2.075   0.717   5.405  0.9107  0.4429  0.1351
 7962TIP3    H124768   2.136   0.697   5.476 -0.0589 -0.9370  0.6167
 7962TIP3    H224769   2.132   0.744   5.333  2.3038 -2.6461 -0.0822
 7963TIP3   OH224770  10.847   6.230   2.777 -0.1160 -0.3845 -0.0493
 7963TIP3    H124771  10.828   6.306   2.722  1.7985 -0.5216 -0.9779
 7963TIP3    H224772  10.807   6.156   2.730 -2.6775  0.0555  1.2536
 7964TIP3   OH224773   9.519   4.253  10.502  0.2778  0.1967 -0.0459
 7964TIP3    H124774   9.493   4.167  10.535  0.3658 -0.2435 -1.0767
 7964TIP3    H224775   9.609   4.264  10.533 -0.3715  0.7863  1.7233
 7965TIP3   OH224776   3.685   7.665  10.727  0.2645  0.1249  0.2006
 7965TIP3    H124777   3.733   7.738  10.766  3.8824 -0.9392 -1.7085
 7965TIP3    H224778   3.715   7.588  10.776 -1.1560 -0.4130  0.2568
 7966TIP3   OH224779   2.935   9.858   7.579 -0.6653 -0.4073 -0.3860
 7966TIP3    H124780   2.885   9.803   7.520 -1.7161 -2.0670  1.9050
 7966TIP3    H224781   2.881   9.936   7.591 -0.7518 -0.3586 -1.0741
 7967TIP3   OH224782   7.522   8.780   4.243  0.2957 -0.2682 -0.1468
 7967TIP3    H124783   7.543   8.853   4.186  2.2410 -0.8255 -0.2029
 7967TIP3    H224784   7.558   8.703   4.199 -2.2345 -1.4182 -0.4054
 7968TIP3   OH224785   7.418   7.575   5.745  0.1400  0.2170  0.1253
 7968TIP3    H124786   7.469   7.502   5.711 -1.6581 -0.3413 -1.5652
 7968TIP3    H224787   7.458   7.652   5.706 -0.5079 -0.2482 -1.5468
 7969TIP3   OH224788   5.903   0.462  10.421  0.0294 -0.5395  0.1069
 7969TIP3    H124789   5.903   0.408  10.342 -1.1720  1.4177 -1.3095
 7969TIP3    H224790   5.973   0.425  10.475  2.2231 -0.7995 -2.6876
 7970TIP3   OH224791   1.143   5.529   7.820 -0.4648 -0.0172 -0.2699
 7970TIP3    H124792   1.217   5.561   7.769 -0.5155 -0.6971 -0.7806
 7970TIP3    H224793   1.093   5.608   7.843  1.0058  0.5707  1.0405
 7971TIP3   OH224794   2.597  10.277   6.125  0.2367  0.0567 -0.4303
 7971TIP3    H124795   2.547  10.330   6.187 -1.3364 -0.5960 -1.0933
 7971TIP3    H224796   2.608  10.192   6.170  2.6491  0.8171  0.5830
 7972TIP3   OH224797  10.739   3.021   9.464 -0.5561 -0.3861  0.1787
 7972TIP3    H124798  10.786   3.103   9.451 -0.2879 -0.5297  0.2389
 7972TIP3    H224799  10.778   2.984   9.543 -1.1018 -0.2712  0.5093
 7973TIP3   OH224800   1.736   8.002   3.217  0.4207  0.0692 -0.2813
 7973TIP3    H124801   1.782   8.068   3.268  0.3589  0.1881 -0.3803
 7973TIP3    H224802   1.671   8.051   3.166 -1.1757 -0.2770  1.3268
 7974TIP3   OH224803   1.874   3.947   2.914 -0.9294 -0.1208  0.0573
 7974TIP3    H124804   1.872   3.948   2.818  0.6626 -0.1145  0.0020
 7974TIP3    H224805   1.843   3.859   2.937  0.7601 -0.9272 -0.5714
 7975TIP3   OH224806   0.193   1.922   6.062  0.0030 -0.2143 -0.3638
 7975TIP3    H124807   0.123   1.897   6.121 -0.5183 -0.8178 -1.2197
 7975TIP3    H224808   0.247   1.843   6.053  0.3120 -0.0048 -0.3734
 7976TIP3   OH224809   6.400   6.586   7.129 -0.0510 -0.1605 -0.2904
 7976TIP3    H124810   6.419   6.679   7.146 -2.8975  0.3842  0.4135
 7976TIP3    H224811   6.382   6.549   7.216 -1.0637 -0.8056 -0.7569
 7977TIP3   OH224812   5.108   5.951   5.736 -0.0634  0.0192  0.2389
 7977TIP3    H124813   5.182   5.932   5.793  0.0571  0.3225  0.1848
 7977TIP3    H224814   5.087   6.043   5.753  0.7097  0.4549 -1.0466
 7978TIP3   OH224815   5.676   5.323   5.014 -0.5424 -0.0800  0.0028
 7978TIP3    H124816   5.597   5.269   5.017 -1.1659  0.6516 -1.7152
 7978TIP3    H224817   5.748   5.261   5.018 -1.1915 -0.7927  1.1977
 7979TIP3   OH224818   4.308   0.148   4.514 -0.2992  0.0662 -0.0108
 7979TIP3    H124819   4.248   0.192   4.573  0.1210  0.5315  0.0838
 7979TIP3    H224820   4.362   0.092   4.570  0.6635  1.1451  0.1823
 7980TIP3   OH224821   7.772   3.750   3.067  0.1889 -0.2228  0.4101
 7980TIP3    H124822   7.734   3.835   3.045 -0.3641 -0.1282  1.6136
 7980TIP3    H224823   7.724   3.688   3.013  0.1110  0.1604  0.0301
 7981TIP3   OH224824   1.415   6.237   6.699  0.0300 -0.0065  0.3272
 7981TIP3    H124825   1.432   6.248   6.605 -1.3813  1.9158  0.2522
 7981TIP3    H224826   1.500   6.215   6.736  0.5729 -1.0426 -1.4159
 7982TIP3   OH224827   6.555   0.536   0.431  0.0046  0.1982 -0.1027
 7982TIP3    H124828   6.507   0.512   0.351 -0.7352 -0.9955  0.6705
 7982TIP3    H224829   6.631   0.585   0.399 -2.0345  2.8335 -1.3568
 7983TIP3   OH224830   2.145   7.620   9.232 -0.2421 -0.2715 -0.3725
 7983TIP3    H124831   2.128   7.629   9.139 -2.5031 -3.0998 -0.3826
 7983TIP3    H224832   2.058   7.613   9.272  0.6731 -1.4216  1.6046
 7984TIP3   OH224833   8.668   7.004   8.201 -0.6336  0.1126  0.2007
 7984TIP3    H124834   8.652   7.088   8.158 -1.0451  0.5729  1.2208
 7984TIP3    H224835   8.580   6.967   8.215 -0.5477  0.2404  1.1475
 7985TIP3   OH224836   0.397   0.393   2.635  0.0997 -0.3367  0.1678
 7985TIP3    H124837   0.453   0.447   2.691 -0.6552  2.5313 -1.6325
 7985TIP3    H224838   0.453   0.368   2.562 -0.8232  2.8597 -1.8348
 7986TIP3   OH224839   2.266   3.206   7.099  0.1932  0.3420 -0.0774
 7986TIP3    H124840   2.268   3.111   7.087 -1.0911  0.4040 -0.8982
 7986TIP3    H224841   2.280   3.242   7.011  2.6660  0.9815  0.4925
 7987TIP3   OH224842   1.613   4.943   1.599  0.5686 -0.0252  0.1887
 7987TIP3    H124843   1.653   4.859   1.621  0.7371  0.0494  0.1719
 7987TIP3    H224844   1.638   5.001   1.671 -1.1746 -0.4733  1.2312
 7988TIP3   OH224845  10.606   8.324   8.224 -0.2432  0.0047  0.0202
 7988TIP3    H124846  10.551   8.251   8.252 -0.0960  0.1743  0.7793
 7988TIP3    H224847  10.594   8.328   8.129 -0.6025 -0.7147  0.0278
 7989TIP3   OH224848   5.323   1.415   9.678  0.3266  0.3570  0.0534
 7989TIP3    H124849   5.263   1.488   9.692 -0.5589 -0.6253  1.6390
 7989TIP3    H224850   5.402   1.438   9.727 -0.6892 -0.5676  2.2520
 7990TIP3   OH224851   1.164   2.186   3.027 -0.1924  0.1686  0.2620
 7990TIP3    H124852   1.111   2.259   2.995 -0.6798  0.7724  2.3354
 7990TIP3    H224853   1.121   2.108   2.990  1.5181  0.8326 -3.7278
 7991TIP3   OH224854   3.391   8.988   1.152  0.2431  0.3276  0.3604
 7991TIP3    H124855   3.314   8.984   1.095 -0.0180 -1.3806  0.7685
 7991TIP3    H224856   3.441   8.909   1.130  1.8996  1.3841  0.1162
 7992TIP3   OH224857  10.290   7.294   1.958 -0.0491 -0.5097  0.2499
 7992TIP3    H124858  10.348   7.284   1.883  1.4029 -0.1165  1.2727
 7992TIP3    H224859  10.202   7.289   1.921  0.6137 -0.2011 -1.4810
 7993TIP3   OH224860   4.804   1.448   8.816  0.4775  0.2192  0.2669
 7993TIP3    H124861   4.774   1.383   8.880 -0.7387 -0.0375 -0.5304
 7993TIP3    H224862   4.874   1.496   8.861  1.8995 -2.0569  0.6775
 7994TIP3   OH224863   2.540   8.775   5.499  0.1221  0.4528 -0.5876
 7994TIP3    H124864   2.498   8.790   5.583 -0.6942 -1.6557 -0.5410
 7994TIP3    H224865   2.629   8.745   5.521 -0.1756 -0.3452 -0.4525
 7995TIP3   OH224866   7.677   9.605   8.892  0.6527  0.3639 -0.3506
 7995TIP3    H124867   7.664   9.629   8.983 -2.2817  0.8257 -0.8200
 7995TIP3    H224868   7.663   9.685   8.842 -3.2463 -0.7922 -1.4911
 7996TIP3   OH224869   2.339  10.052   6.757 -0.5133 -0.4112 -0.0721
 7996TIP3    H124870   2.356  10.000   6.837 -0.8231  1.7945  1.5156
 7996TIP3    H224871   2.250  10.084   6.768 -0.6210 -0.1925 -1.4313
 7997TIP3   OH224872   2.870   6.849   4.922  0.1442  0.2266 -0.4046
 7997TIP3    H124873   2.823   6.797   4.857  1.5998 -0.7665 -0.7222
 7997TIP3    H224874   2.804   6.867   4.990 -0.2868 -2.7490  0.1213
 7998TIP3   OH224875   0.814   3.306   8.558 -0.4777 -0.0519 -0.2469
 7998TIP3    H124876   0.750   3.361   8.604 -0.8887  0.8124 -1.7941
 7998TIP3    H224877   0.881   3.367   8.529  0.3971 -0.7699  0.2306
 7999TIP3   OH224878   4.802   6.073   0.781 -0.5422  0.1722  0.2668
 7999TIP3    H124879   4.805   6.001   0.717  1.5509  0.1059  0.3532
 7999TIP3    H224880   4.774   6.031   0.863  0.9370 -0.6563  0.3873
 8000TIP3   OH224881   5.010   9.543  10.549 -0.2687  0.3074 -0.1351
 8000TIP3    H124882   5.026   9.541  10.455 -1.0957 -1.4317 -0.2863
 8000TIP3    H224883   4.919   9.571  10.557 -0.5803 -0.6916  0.0429
 8001TIP3   OH224884   3.218   1.426  10.436  0.0175 -0.0039 -0.7605
 8001TIP3    H124885   3.173   1.344  10.459  0.1892 -0.3679 -1.6659
 8001TIP3    H224886   3.153   1.475  10.386 -0.5970  1.0918  1.0379
 8002TIP3   OH224887   2.566   5.846   7.849  0.8973 -0.0814 -0.1304
 8002TIP3    H124888   2.617   5.778   7.893  0.8502  0.2878  0.4961
 8002TIP3    H224889   2.475   5.817   7.858  0.9209 -0.2573 -0.4258
 8003TIP3   OH224890   3.300   3.393   5.885 -0.0394 -0.6001 -0.0803
 8003TIP3    H124891   3.313   3.298   5.888  0.9306 -0.4945 -0.5232
 8003TIP3    H224892   3.341   3.425   5.965 -0.8802 -0.6013  0.3579
 8004TIP3   OH224893   3.002   4.867   8.062 -0.0343 -0.0211  0.4469
 8004TIP3    H124894   3.066   4.854   8.132 -0.5714 -1.8936  0.6461
 8004TIP3    H224895   3.046   4.925   8.000  0.7307  1.0972  1.9544
 8005TIP3   OH224896   6.292   3.986  10.318 -0.4387 -0.3608 -0.8762
 8005TIP3    H124897   6.223   4.046  10.288 -0.9182  0.7978  2.2053
 8005TIP3    H224898   6.372   4.038  10.315 -0.4414 -0.3308 -0.4472
 8006TIP3   OH224899   4.383   2.416  10.336  0.2071 -0.8901 -0.1360
 8006TIP3    H124900   4.411   2.391  10.248 -0.4501  2.3833 -1.4305
 8006TIP3    H224901   4.442   2.487  10.360 -1.4301  0.2119  0.8043
 8007TIP3   OH224902   6.321   6.306   7.522  0.1830 -0.5143 -0.6232
 8007TIP3    H124903   6.297   6.357   7.444  0.0911  1.3517  0.5769
 8007TIP3    H224904   6.415   6.294   7.515  0.3086  0.4151 -0.5871
 8008TIP3   OH224905   0.038   2.085   4.491  0.2652 -0.7735 -0.4591
 8008TIP3    H124906   0.085   2.088   4.575  1.0958  0.9624 -0.9447
 8008TIP3    H224907   0.088   2.144   4.434 -2.7719  1.6641 -0.8470
 8009TIP3   OH224908  10.100   4.937   6.945  0.1933 -0.5734  0.1168
 8009TIP3    H124909  10.145   4.853   6.946 -1.3384 -1.4353 -0.2076
 8009TIP3    H224910  10.157   4.995   6.893  1.0776 -1.5075  0.0280
 8010TIP3   OH224911   3.899   9.092   1.158  0.3699 -0.0784 -0.2568
 8010TIP3    H124912   3.815   9.106   1.203  0.0170 -1.4159 -0.4505
 8010TIP3    H224913   3.883   9.124   1.069 -0.1145 -0.7705 -0.4331
 8011TIP3   OH224914   5.093   9.156   8.645 -0.3262  0.9708  0.5306
 8011TIP3    H124915   5.076   9.227   8.707  2.4881  0.7928  1.6550
 8011TIP3    H224916   5.164   9.190   8.589  0.8200 -0.7829  0.8548
 8012TIP3   OH224917   7.649   4.255   3.092  0.5545 -0.5063  0.6964
 8012TIP3    H124918   7.741   4.276   3.075  0.3163  0.0780  0.0840
 8012TIP3    H224919   7.603   4.337   3.074  0.2034  0.0570  3.6821
 8013TIP3   OH224920   6.277   3.777   0.940 -0.3941  0.1192  0.2583
 8013TIP3    H124921   6.297   3.850   0.998 -2.8187  1.1795 -0.1140
 8013TIP3    H224922   6.362   3.744   0.912  0.7813  1.8774  1.5671
 8014TIP3   OH224923   1.950   1.220   9.728 -0.2295  0.6456  0.0029
 8014TIP3    H124924   1.858   1.206   9.752  0.2569  0.4703  1.9516
 8014TIP3    H224925   1.951   1.305   9.685 -1.6240 -0.3693 -2.1974
 8015TIP3   OH224926  10.613   9.562   1.412  0.1700 -0.1080 -0.2003
 8015TIP3    H124927  10.626   9.540   1.320  0.8038 -1.3544  0.1696
 8015TIP3    H224928  10.582   9.480   1.452 -0.4469  0.5126  0.6325
 8016TIP3   OH224929   1.866   5.244   4.365  0.5550  0.4110 -0.1089
 8016TIP3    H124930   1.896   5.334   4.367 -2.1688  1.5041 -2.2948
 8016TIP3    H224931   1.917   5.202   4.296 -0.1654  1.1403 -1.1048
 8017TIP3   OH224932  10.662   4.401  10.081 -0.1087 -0.3718 -0.5560
 8017TIP3    H124933  10.717   4.337  10.036  0.7741  0.1584 -0.2749
 8017TIP3    H224934  10.723   4.471  10.105 -1.1702  0.9067 -1.4644
 8018TIP3   OH224935  10.199   8.177   9.971  0.0464  0.0369  0.3452
 8018TIP3    H124936  10.217   8.085   9.993 -1.8484 -0.0378  1.9281
 8018TIP3    H224937  10.179   8.218  10.055 -2.0283  1.1684 -0.6229
 8019TIP3   OH224938   0.830   6.970   1.142  0.0352 -0.2745 -0.4350
 8019TIP3    H124939   0.839   6.902   1.208 -1.5251  0.0518  0.1748
 8019TIP3    H224940   0.739   6.962   1.112  0.1250  0.8812 -1.0876
 8020TIP3   OH224941  10.592   0.227   9.574  0.1996  0.1860  0.1309
 8020TIP3    H124942  10.547   0.300   9.616  1.2251  0.3883  0.9200
 8020TIP3    H224943  10.632   0.265   9.496 -0.7313  0.0697 -0.4112
 8021TIP3   OH224944   1.713   7.123   9.903  0.2489 -0.2089 -0.5363
 8021TIP3    H124945   1.656   7.107   9.828 -0.2977 -1.3651  0.1071
 8021TIP3    H224946   1.801   7.106   9.869  0.0247 -0.5406 -0.9651
 8022TIP3   OH224947   6.897   4.951   8.967  0.3472 -0.1085 -0.0206
 8022TIP3    H124948   6.885   4.869   8.919  0.5495  0.1817 -0.5743
 8022TIP3    H224949   6.811   4.970   9.004  0.0593 -0.0608 -0.7050
 8023TIP3   OH224950   5.142   5.835   8.782 -0.3106 -0.0447  0.2943
 8023TIP3    H124951   5.071   5.774   8.762 -0.2727 -0.0310  0.1169
 8023TIP3    H224952   5.107   5.921   8.760 -0.0391 -0.0926 -0.3436
 8024TIP3   OH224953   5.011   8.057   7.895 -0.1707  0.2567  0.4965
 8024TIP3    H124954   4.983   8.148   7.888 -1.5128 -0.1858 -0.3381
 8024TIP3    H224955   5.033   8.031   7.806  2.6913  0.4558  1.0463
 8025TIP3   OH224956   6.825   0.915   2.913  0.2840  0.1349  0.6257
 8025TIP3    H124957   6.772   0.955   2.982  0.3956  1.4783 -0.0199
 8025TIP3    H224958   6.804   0.822   2.917 -1.1476  0.4501  1.2130
 8026TIP3   OH224959   7.560   2.263   0.071  0.6116  0.1218 -0.1200
 8026TIP3    H124960   7.594   2.243   0.159 -1.1801 -1.6976  0.2302
 8026TIP3    H224961   7.514   2.346   0.082 -0.9732 -0.8680  1.1028
 8027TIP3   OH224962   9.393   4.514   0.253  0.0671 -0.3262 -0.1029
 8027TIP3    H124963   9.311   4.484   0.290  1.0901 -1.4961  1.3360
 8027TIP3    H224964   9.406   4.459   0.176 -0.3675 -0.3132 -0.1873
 8028TIP3   OH224965   1.342   9.807   1.454  0.4760  0.2845 -0.1389
 8028TIP3    H124966   1.278   9.777   1.517  2.2397 -1.8076  0.7961
 8028TIP3    H224967   1.355   9.732   1.395  1.2938  1.0152 -0.9266
 8029TIP3   OH224968   6.179   7.243   1.940  0.6047 -0.5809 -0.2260
 8029TIP3    H124969   6.120   7.307   1.900  0.2520 -0.1811  0.8960
 8029TIP3    H224970   6.153   7.159   1.902  0.7402 -0.1368 -1.3363
 8030TIP3   OH224971   9.647   1.149   6.081  0.4375  0.2928 -0.4026
 8030TIP3    H124972   9.627   1.216   6.146  0.5577 -0.8358  0.8286
 8030TIP3    H224973   9.590   1.075   6.104  2.1612 -0.9934 -0.1164
 8031TIP3   OH224974   0.665   2.786   7.569  0.2698  0.3937 -0.4478
 8031TIP3    H124975   0.579   2.745   7.577  0.6531 -0.1094  5.1682
 8031TIP3    H224976   0.649   2.878   7.587  0.8691  0.1201  1.7780
 8032TIP3   OH224977   8.369   2.571   8.189 -1.1436 -0.6409 -0.0251
 8032TIP3    H124978   8.347   2.483   8.220 -0.4729 -0.8920 -0.2487
 8032TIP3    H224979   8.317   2.630   8.245 -1.7398 -1.1801  0.0016
 8033TIP3   OH224980   2.453   8.620   6.621 -0.9234  0.4606 -0.3790
 8033TIP3    H124981   2.412   8.694   6.575 -0.3333  0.2043 -1.3361
 8033TIP3    H224982   2.466   8.554   6.554 -1.8297 -0.7149  0.5410
 8034TIP3   OH224983   5.445   6.595   5.852  0.4863 -0.4314 -0.3624
 8034TIP3    H124984   5.439   6.668   5.914 -0.9764 -0.8372 -0.0007
 8034TIP3    H224985   5.536   6.597   5.822  1.1017  0.0711  1.4180
 8035TIP3   OH224986   6.654   3.189   4.630 -0.1584 -0.6422 -0.2047
 8035TIP3    H124987   6.596   3.265   4.628  0.7339  0.0312 -2.0641
 8035TIP3    H224988   6.604   3.119   4.586  0.0839 -0.3177 -1.0066
 8036TIP3   OH224989   8.992   7.493   7.146  0.6676 -0.1685  0.3454
 8036TIP3    H124990   9.043   7.528   7.073 -0.6401  0.2027 -0.4257
 8036TIP3    H224991   9.058   7.466   7.211  1.7956  1.1985 -0.1844
 8037TIP3   OH224992   5.858   5.115   1.583  0.1547  0.3096 -0.2904
 8037TIP3    H124993   5.800   5.191   1.575  0.9902  0.9818 -0.1115
 8037TIP3    H224994   5.801   5.040   1.567 -0.6018  0.9915 -0.8997
 8038TIP3   OH224995   9.178   8.724   8.580  0.1532  0.1236  0.0141
 8038TIP3    H124996   9.137   8.696   8.662 -0.4733  0.8240 -0.0507
 8038TIP3    H224997   9.111   8.708   8.513  0.3148  0.4409 -0.2245
 8039TIP3   OH224998   4.708   5.683   5.704  0.4437  0.1188  0.2707
 8039TIP3    H124999   4.755   5.647   5.629  0.8814 -0.1970  0.6920
 8039TIP3    H225000   4.630   5.724   5.666  0.6595 -0.0384 -0.3533
 8040TIP3   OH225001  10.087   7.671   1.162  0.0502 -0.4249  0.7905
 8040TIP3    H125002  10.007   7.647   1.210 -0.4569 -2.0709 -0.7836
 8040TIP3    H225003  10.155   7.617   1.201 -0.4460 -2.0823 -0.5717
 8041TIP3   OH225004   5.943   8.636   9.631  0.4440 -0.1903 -0.2504
 8041TIP3    H125005   5.892   8.591   9.699 -0.4213  0.3156 -0.5541
 8041TIP3    H225006   6.011   8.573   9.607 -1.2918 -1.7326 -1.3390
 8042TIP3   OH225007  10.263   6.084   3.616 -0.0542 -0.1573 -0.0179
 8042TIP3    H125008  10.223   6.160   3.576  3.9099  0.7748 -2.8425
 8042TIP3    H225009  10.316   6.120   3.687 -0.0408 -0.6249  0.2136
 8043TIP3   OH225010   2.658   2.082   4.427 -0.1982 -0.3767 -0.0516
 8043TIP3    H125011   2.641   2.043   4.342 -0.0027  1.6677 -1.0945
 8043TIP3    H225012   2.668   2.008   4.486 -1.1727 -1.8376 -1.6288
 8044TIP3   OH225013   0.685   9.581   6.680 -0.3955  0.4068 -0.0717
 8044TIP3    H125014   0.714   9.543   6.597  1.9193  2.2278 -0.2300
 8044TIP3    H225015   0.716   9.519   6.747  0.9658  0.6502 -0.4380
 8045TIP3   OH225016   1.665   9.854   3.835 -0.7413 -0.4097 -0.6771
 8045TIP3    H125017   1.598   9.922   3.846 -1.4355 -1.0736 -0.6619
 8045TIP3    H225018   1.701   9.841   3.922  0.9321  1.4378 -1.0401
 8046TIP3   OH225019   1.580   1.428   3.008  0.6127 -0.0553 -0.0988
 8046TIP3    H125020   1.647   1.364   2.985  0.3466 -0.0148 -0.9936
 8046TIP3    H225021   1.508   1.375   3.043  0.9435 -0.1297  0.4820
 8047TIP3   OH225022   2.905  10.062   7.843  0.1163  0.1193 -0.1152
 8047TIP3    H125023   2.864  10.119   7.909  1.6415 -0.8664  1.7860
 8047TIP3    H225024   2.997  10.088   7.843 -0.3103  2.5592 -4.5681
 8048TIP3   OH225025   5.915   3.797   8.871  0.1572 -0.4426  0.3817
 8048TIP3    H125026   5.954   3.776   8.787 -0.4739  0.6939 -0.2327
 8048TIP3    H225027   5.945   3.887   8.889  0.9904 -0.9775  1.8005
 8049TIP3   OH225028   8.200   1.127   2.899 -0.3510  0.1746  0.3297
 8049TIP3    H125029   8.155   1.079   2.829 -1.2770 -0.9478  1.6310
 8049TIP3    H225030   8.137   1.191   2.929 -0.2906  0.0514  0.7263
 8050TIP3   OH225031  10.177   3.284   7.499 -0.2437  0.2452 -0.1599
 8050TIP3    H125032  10.144   3.332   7.575  1.7948  1.6036 -0.0698
 8050TIP3    H225033  10.256   3.331   7.472  0.8581 -2.0216 -1.1975
 8051TIP3   OH225034   8.025   2.108   2.576  0.2950 -0.0326  0.8389
 8051TIP3    H125035   7.993   2.167   2.508 -1.8050 -1.0490  0.8464
 8051TIP3    H225036   8.016   2.157   2.657  0.8849  0.4791  0.5972
 8052TIP3   OH225037   3.790   2.851   2.616  0.4871  0.5310 -0.2564
 8052TIP3    H125038   3.839   2.770   2.603 -2.6480 -1.4883 -0.8392
 8052TIP3    H225039   3.776   2.856   2.710 -2.7356 -2.1109 -0.3852
 8053TIP3   OH225040   4.222  10.771   6.464  0.6037  0.7217 -0.1677
 8053TIP3    H125041   4.210  10.791   6.557  1.0906  2.3540 -0.4239
 8053TIP3    H225042   4.277  10.692   6.464  1.0393  0.9950  0.9397
 8054TIP3   OH225043   0.470   9.604   1.536  0.3527  0.4642 -0.2559
 8054TIP3    H125044   0.479   9.677   1.475 -0.5945 -0.4127 -1.5097
 8054TIP3    H225045   0.437   9.532   1.482  0.2824 -0.5947  1.1421
 8055TIP3   OH225046   5.747   4.396   1.189  0.2827  0.0701  0.0195
 8055TIP3    H125047   5.771   4.401   1.281  0.3729  0.6790 -0.0316
 8055TIP3    H225048   5.776   4.309   1.161 -0.7610 -0.5679  0.8437
 8056TIP3   OH225049   6.046   9.626   6.543 -1.4850 -0.4175  0.1456
 8056TIP3    H125050   6.061   9.616   6.637 -0.3675 -0.8082 -0.0615
 8056TIP3    H225051   6.084   9.712   6.522  0.6222 -1.3981 -0.3755
 8057TIP3   OH225052   1.541   8.885   4.796 -0.7138 -0.1611 -0.4009
 8057TIP3    H125053   1.473   8.822   4.770 -0.8344  0.2813 -1.1956
 8057TIP3    H225054   1.557   8.936   4.717  0.5608 -0.2672 -0.2365
 8058TIP3   OH225055   1.039   9.771   2.598  0.3556  0.0631 -0.3859
 8058TIP3    H125056   1.074   9.809   2.518  0.8150 -0.4262 -0.4207
 8058TIP3    H225057   1.094   9.695   2.616 -0.3299 -0.3901 -0.1301
 8059TIP3   OH225058   1.803   4.182   8.071 -0.0322  0.2580  0.6269
 8059TIP3    H125059   1.757   4.145   8.147  0.1337 -0.8525  0.2027
 8059TIP3    H225060   1.761   4.141   7.995 -0.8187  2.0379  0.0363
 8060TIP3   OH225061   4.434   1.372   4.592 -0.1108 -0.1765 -0.2924
 8060TIP3    H125062   4.384   1.429   4.534 -0.2852 -0.6085 -0.5777
 8060TIP3    H225063   4.386   1.289   4.591  0.2682 -0.4040 -0.0733
 8061TIP3   OH225064   4.675   6.574   4.262  0.2515  0.5515 -0.2959
 8061TIP3    H125065   4.583   6.594   4.280  0.5319  0.2678  1.6312
 8061TIP3    H225066   4.697   6.505   4.325  2.2253  1.7351  0.4093
 8062TIP3   OH225067   9.680   9.514   7.856  0.4282 -0.5283 -0.4417
 8062TIP3    H125068   9.651   9.555   7.775 -0.1834 -0.3457 -0.1395
 8062TIP3    H225069   9.694   9.422   7.832 -3.2438 -1.3573 -0.0268
 8063TIP3   OH225070   6.255   9.518   2.352  0.1217  0.2632 -0.2894
 8063TIP3    H125071   6.202   9.596   2.338  1.8261  1.5581  0.1178
 8063TIP3    H225072   6.246   9.499   2.445  0.3170  0.4576 -0.2290
 8064TIP3   OH225073   2.737   3.380   8.777  0.3263 -0.5352  0.1640
 8064TIP3    H125074   2.680   3.308   8.751 -1.0941  1.4069 -2.6778
 8064TIP3    H225075   2.704   3.407   8.863 -0.5168 -1.9008  0.2976
 8065TIP3   OH225076   9.159   2.989   2.534 -0.5191  0.2282  0.0620
 8065TIP3    H125077   9.135   3.069   2.580 -1.1079  0.4399 -0.5899
 8065TIP3    H225078   9.142   3.009   2.442 -3.9711 -1.7393  0.1142
 8066TIP3   OH225079   5.785   7.607   0.088  0.6376 -0.4431  0.0161
 8066TIP3    H125080   5.758   7.671   0.022  0.5489 -0.3823  0.1117
 8066TIP3    H225081   5.727   7.532   0.073  0.0697 -0.1175  0.5484
 8067TIP3   OH225082   3.571   2.383   4.048 -0.3363  0.6756 -0.2833
 8067TIP3    H125083   3.518   2.452   4.008  1.0393  0.0406 -3.5764
 8067TIP3    H225084   3.661   2.411   4.034  0.2536 -0.3422  1.1912
 8068TIP3   OH225085   2.902   9.772   3.925 -0.1364  0.0197  0.0219
 8068TIP3    H125086   2.994   9.767   3.952  0.0507 -0.1883 -0.6396
 8068TIP3    H225087   2.867   9.685   3.941 -0.8003  0.6223  2.2425
 8069TIP3   OH225088   2.010  10.814  10.378 -0.1355  0.5859  0.1449
 8069TIP3    H125089   2.065  10.884  10.412  1.3788 -0.0782 -0.8253
 8069TIP3    H225090   2.045  10.734  10.417 -0.6146  0.1803 -0.2375
 8070TIP3   OH225091   2.527   1.749   1.261  0.3076  0.0493 -0.1257
 8070TIP3    H125092   2.556   1.711   1.178  0.2443 -0.5976  0.1409
 8070TIP3    H225093   2.531   1.844   1.247 -0.4431 -0.0487 -1.1176
 8071TIP3   OH225094   9.675  10.571   9.383 -0.2706  0.1318  0.0309
 8071TIP3    H125095   9.629  10.525   9.313  0.5346 -0.0474 -0.3951
 8071TIP3    H225096   9.753  10.608   9.340  0.9869 -1.1665  1.0951
 8072TIP3   OH225097   2.562   4.126  10.614  0.4695 -0.3301 -0.4450
 8072TIP3    H125098   2.513   4.163  10.687  1.1466 -0.6928  0.1956
 8072TIP3    H225099   2.623   4.196  10.588 -0.3367  0.1056 -1.2152
 8073TIP3   OH225100   2.653  10.231   1.221  0.5001 -0.0575 -0.1702
 8073TIP3    H125101   2.742  10.267   1.219  0.0312  1.1676 -0.4594
 8073TIP3    H225102   2.661  10.148   1.268  1.8610 -0.1688 -0.5518
 8074TIP3   OH225103   6.242   3.025   4.937 -0.3079 -0.0705 -0.1712
 8074TIP3    H125104   6.147   3.019   4.929 -0.3462  0.7804 -0.4099
 8074TIP3    H225105   6.256   3.067   5.021 -0.0574 -2.6122  1.1439
 8075TIP3   OH225106   2.291  10.573   6.325  0.3562  0.0259 -0.3951
 8075TIP3    H125107   2.266  10.657   6.364 -1.3257 -0.3963 -0.4789
 8075TIP3    H225108   2.235  10.565   6.248  0.7107 -1.0428 -0.5570
 8076TIP3   OH225109   6.340   1.621  10.702 -0.0410 -0.2600  0.3448
 8076TIP3    H125110   6.356   1.606  10.795 -2.1156  0.4947  0.8841
 8076TIP3    H225111   6.276   1.692  10.700 -0.5256 -0.6898 -1.6235
 8077TIP3   OH225112  10.836  10.480   0.576 -0.2127 -0.8401 -0.0324
 8077TIP3    H125113  10.742  10.462   0.567 -0.7092  0.5881  1.5557
 8077TIP3    H225114  10.843  10.523   0.662  1.9541 -1.2447  0.0398
 8078TIP3   OH225115   0.468   9.320   5.816 -0.6164  0.1510  0.2834
 8078TIP3    H125116   0.522   9.386   5.773  1.9275 -1.5997  0.5705
 8078TIP3    H225117   0.398   9.301   5.754  0.6669  0.5516 -1.3287
 8079TIP3   OH225118   3.131   5.080   2.797  0.1907 -0.4715  0.0989
 8079TIP3    H125119   3.175   5.109   2.717  0.2340 -2.1146 -0.5007
 8079TIP3    H225120   3.071   5.152   2.818  0.3361  0.0883 -1.2723
 8080TIP3   OH225121   6.699   0.081   7.716 -0.0257  0.3616  0.0886
 8080TIP3    H125122   6.793   0.066   7.705  0.1707  0.3832  1.4945
 8080TIP3    H225123   6.676   0.145   7.649  0.6408 -0.7576 -1.2539
 8081TIP3   OH225124   3.287   9.472   1.162  0.5232  0.5220 -0.0262
 8081TIP3    H125125   3.217   9.503   1.220 -0.4844 -0.1136 -0.8699
 8081TIP3    H225126   3.358   9.535   1.175 -0.2346  1.2511  0.7671
 8082TIP3   OH225127   6.005   1.207   9.108  0.4124 -0.2308 -1.1337
 8082TIP3    H125128   5.995   1.144   9.036  0.8909 -0.7282 -0.7712
 8082TIP3    H225129   6.048   1.158   9.178  0.0356  0.2749 -0.5341
 8083TIP3   OH225130   5.825   7.355   9.707 -0.3297 -0.6232  0.1478
 8083TIP3    H125131   5.753   7.390   9.654  0.4558  0.8281 -0.0034
 8083TIP3    H225132   5.865   7.432   9.747  0.5291 -1.4957  1.0198
 8084TIP3   OH225133   0.333   0.967   8.218  0.1000 -0.3663  0.0347
 8084TIP3    H125134   0.301   0.946   8.130  0.3095  0.9199 -0.3769
 8084TIP3    H225135   0.257   1.002   8.264 -0.2339 -1.8914  0.6960
 8085TIP3   OH225136   4.803   7.322   5.480 -0.2909  0.4397  0.4721
 8085TIP3    H125137   4.895   7.313   5.505  0.2449  0.1795 -1.4048
 8085TIP3    H225138   4.776   7.405   5.518  0.9789  0.9242  0.3731
 8086TIP3   OH225139   7.689   0.420   5.933  0.4433 -0.0985 -0.0311
 8086TIP3    H125140   7.645   0.417   5.848 -0.5472 -0.0793  0.4646
 8086TIP3    H225141   7.637   0.481   5.985  0.5180 -0.7887  0.8776
 8087TIP3   OH225142   2.826   2.955   5.489 -0.1559 -0.3425 -0.3040
 8087TIP3    H125143   2.784   2.988   5.409  0.4586  0.7287 -0.2124
 8087TIP3    H225144   2.872   2.876   5.461 -2.0685 -1.4592 -0.4343
 8088TIP3   OH225145   1.654   3.332   7.156 -0.3672  0.5044 -0.1527
 8088TIP3    H125146   1.646   3.238   7.172  0.4076 -0.0371 -2.5594
 8088TIP3    H225147   1.709   3.364   7.228  0.7423 -1.1989 -0.1988
 8089TIP3   OH225148   4.265   1.970   6.262  0.0721 -0.1406  0.6614
 8089TIP3    H125149   4.179   1.972   6.306 -0.2454 -0.9616  0.0956
 8089TIP3    H225150   4.251   1.917   6.184  0.3349  2.2754 -1.1193
 8090TIP3   OH225151   3.185   9.614   2.314  0.4769 -0.1143 -0.4322
 8090TIP3    H125152   3.101   9.659   2.300  0.5231 -0.1986 -0.9780
 8090TIP3    H225153   3.178   9.534   2.262 -0.6312 -2.0804  2.4627
 8091TIP3   OH225154   6.896   6.101   2.019  0.1371 -0.2951 -0.3454
 8091TIP3    H125155   6.927   6.087   1.930  0.9635 -0.7111  0.0011
 8091TIP3    H225156   6.976   6.105   2.072 -0.2668  1.1955  0.2108
 8092TIP3   OH225157   9.471   2.959   8.054  0.8437 -0.2975  0.0958
 8092TIP3    H125158   9.529   2.888   8.025 -0.4650 -1.6916  0.7079
 8092TIP3    H225159   9.482   2.961   8.149  0.6796  0.1477  0.1058
 8093TIP3   OH225160   6.404   9.445   7.680 -0.2482 -0.4886 -0.0596
 8093TIP3    H125161   6.435   9.382   7.615  0.0103 -0.0243 -0.3922
 8093TIP3    H225162   6.330   9.489   7.637  0.1057  0.0213 -0.1503
 8094TIP3   OH225163   2.593   3.460   1.628 -0.1999  0.6623 -0.1933
 8094TIP3    H125164   2.501   3.448   1.604  0.2717 -1.2281 -1.2737
 8094TIP3    H225165   2.591   3.498   1.716 -2.0660 -2.1433  1.1007
 8095TIP3   OH225166   7.392   2.251   6.111 -0.5424 -0.1161  0.0819
 8095TIP3    H125167   7.486   2.255   6.092 -0.8653 -1.3379 -2.1843
 8095TIP3    H225168   7.382   2.174   6.167 -0.1581  0.2222  0.6194
 8096TIP3   OH225169   7.147   9.030   6.374 -0.0712 -0.1668  0.0017
 8096TIP3    H125170   7.227   9.072   6.342 -0.0998 -0.3217 -0.2765
 8096TIP3    H225171   7.110   8.987   6.297  0.1106 -0.9593  0.3449
 8097TIP3   OH225172   9.480   9.843   4.013  0.0658  0.2462  0.0421
 8097TIP3    H125173   9.491   9.861   4.107  0.2278  0.6513 -0.0557
 8097TIP3    H225174   9.398   9.794   4.009 -0.0162  0.3484  0.3826
 8098TIP3   OH225175   1.301   8.226   8.227 -0.6167  0.1964  0.0023
 8098TIP3    H125176   1.324   8.290   8.294  0.2323  0.0787 -0.1624
 8098TIP3    H225177   1.205   8.221   8.230 -0.5301 -1.2620  2.5605
 8099TIP3   OH225178   7.635  10.821   0.701 -0.1223  0.3488 -0.0818
 8099TIP3    H125179   7.697  10.872   0.753  2.2188 -2.7188  0.4000
 8099TIP3    H225180   7.553  10.826   0.750  0.9728  0.7599  1.8102
 8100TIP3   OH225181   2.536   3.466   7.655 -0.4503  0.3685  0.1868
 8100TIP3    H125182   2.502   3.410   7.724 -0.4033 -3.5135 -2.5858
 8100TIP3    H225183   2.486   3.547   7.662 -2.6820 -1.0876  2.7358
 8101TIP3   OH225184   9.905   5.129   5.476 -0.2596  0.7240  0.5672
 8101TIP3    H125185   9.893   5.153   5.384 -0.4088 -1.1825  0.0399
 8101TIP3    H225186   9.871   5.203   5.525 -2.8656  0.6110 -0.9051
 8102TIP3   OH225187   8.944   9.756   1.645 -0.0576  0.4692  0.3143
 8102TIP3    H125188   8.942   9.663   1.667  1.7513  0.4159  0.3931
 8102TIP3    H225189   9.002   9.762   1.569 -0.8785  1.4440 -0.2673
 8103TIP3   OH225190   4.392   6.207   2.665  0.3119 -0.7435  0.6209
 8103TIP3    H125191   4.379   6.120   2.626 -0.8416 -0.6382  0.7439
 8103TIP3    H225192   4.353   6.201   2.752  0.0802 -0.0515  0.5717
 8104TIP3   OH225193   2.410   7.615   5.562 -0.3594  0.2389 -0.4322
 8104TIP3    H125194   2.457   7.652   5.637  1.6365 -0.4680 -1.2727
 8104TIP3    H225195   2.463   7.640   5.486 -0.8030 -1.4358 -1.3360
 8105TIP3   OH225196   8.157   3.400   6.197  0.0955 -0.1440  0.4062
 8105TIP3    H125197   8.119   3.351   6.124  2.0804 -1.9193  0.4684
 8105TIP3    H225198   8.213   3.465   6.156  0.1097 -0.2036  0.3312
 8106TIP3   OH225199   0.883   0.484   4.783  0.4290  0.1195 -0.3594
 8106TIP3    H125200   0.873   0.401   4.737 -2.0453 -0.0063  0.2685
 8106TIP3    H225201   0.846   0.469   4.870  0.0343  1.8218 -0.1831
 8107TIP3   OH225202   0.938   8.032  10.165 -0.0668  0.1723 -0.4485
 8107TIP3    H125203   0.949   8.112  10.215 -2.2521 -0.2946  0.8843
 8107TIP3    H225204   0.939   7.962  10.230  1.5511 -0.9266 -1.5543
 8108TIP3   OH225205   0.392   1.030   6.778  0.4278  0.1765  0.0407
 8108TIP3    H125206   0.477   0.987   6.780  1.3381  1.8689  0.9264
 8108TIP3    H225207   0.369   1.043   6.870 -0.4160  0.4444 -0.1899
 8109TIP3   OH225208   0.939   4.586   0.047  0.3307 -0.3503 -0.5064
 8109TIP3    H125209   0.912   4.676   0.066  2.0221 -0.2581  2.1257
 8109TIP3    H225210   1.035   4.591   0.041  0.5163 -2.0187  0.3759
 8110TIP3   OH225211   9.031  10.664   2.484  0.3118  0.0170 -0.6058
 8110TIP3    H125212   9.082  10.739   2.515 -0.0342  0.1241 -0.2847
 8110TIP3    H225213   9.096  10.599   2.460  0.6010 -0.0645  0.3343
 8111TIP3   OH225214   7.119   7.620   1.143  0.3905 -0.3087  0.5294
 8111TIP3    H125215   7.037   7.579   1.114 -0.1743  0.8384  0.4563
 8111TIP3    H225216   7.176   7.615   1.066 -0.2200  0.4336  0.0179
 8112TIP3   OH225217   7.889  10.663   1.300  0.1207 -0.1755  0.2365
 8112TIP3    H125218   7.862  10.722   1.230 -0.0281 -0.2643  0.2180
 8112TIP3    H225219   7.974  10.628   1.272  0.3211  0.2100  0.3577
 8113TIP3   OH225220   4.195   3.763   6.141  0.6907  0.3161  0.1485
 8113TIP3    H125221   4.268   3.814   6.176 -0.0631  1.2572  0.3678
 8113TIP3    H225222   4.126   3.827   6.125 -0.6008 -0.7265  1.2824
 8114TIP3   OH225223   9.750   4.419   9.608 -0.2308 -0.4516  0.7913
 8114TIP3    H125224   9.838   4.448   9.629 -0.1374  0.2474 -0.4903
 8114TIP3    H225225   9.717   4.484   9.545 -0.5432 -2.3331 -1.0973
 8115TIP3   OH225226   5.097  10.203   8.630  0.5483  0.7876 -0.6443
 8115TIP3    H125227   5.135  10.194   8.718 -0.0538 -1.1159 -0.5445
 8115TIP3    H225228   5.010  10.164   8.637  0.5614  0.4553 -2.1339
 8116TIP3   OH225229   0.423   3.215   9.689 -0.2680  0.0700  0.0917
 8116TIP3    H125230   0.339   3.184   9.656 -0.2106 -0.5594  0.5261
 8116TIP3    H225231   0.481   3.140   9.682  0.1755  0.4073  0.0992
 8117TIP3   OH225232   2.573   8.711   0.793 -0.0127  0.4182 -0.0339
 8117TIP3    H125233   2.615   8.626   0.782 -0.9784  0.0439 -1.0358
 8117TIP3    H225234   2.481   8.689   0.808 -0.0511  1.2528  1.0190
 8118TIP3   OH225235   5.542   8.526   0.119  0.2014 -0.5151  0.2685
 8118TIP3    H125236   5.621   8.482   0.087  0.1600 -0.4356  0.0542
 8118TIP3    H225237   5.531   8.600   0.060 -0.4736 -0.9655 -0.1775
 8119TIP3   OH225238  10.241   5.640   5.149 -0.0080 -0.4060  0.4035
 8119TIP3    H125239  10.203   5.614   5.066 -0.1952 -0.4254  0.4943
 8119TIP3    H225240  10.254   5.734   5.142  1.0547 -0.5766 -0.0820
 8120TIP3   OH225241   9.766   6.549   6.442 -0.3105 -0.3753  0.1130
 8120TIP3    H125242   9.777   6.534   6.348  1.0531 -2.1414  0.5109
 8120TIP3    H225243   9.712   6.475   6.472 -0.3239 -0.0993  0.7941
 8121TIP3   OH225244   4.313  10.387   4.428 -0.3388  0.5619  0.7672
 8121TIP3    H125245   4.257  10.315   4.459  1.2159 -0.2032  1.9371
 8121TIP3    H225246   4.392  10.344   4.396 -0.4801  1.6094 -1.1138
 8122TIP3   OH225247   4.198   2.380   1.645  0.0498 -0.4356  0.0425
 8122TIP3    H125248   4.233   2.291   1.635 -1.5141 -1.1943  0.8391
 8122TIP3    H225249   4.121   2.381   1.587 -0.0654  0.3341  0.2047
 8123TIP3   OH225250   8.311   9.791   2.671 -0.2533 -0.3499  0.4796
 8123TIP3    H125251   8.225   9.800   2.630 -0.8541 -0.3853  1.6965
 8123TIP3    H225252   8.373   9.816   2.602 -1.2503 -0.0111 -0.3166
 8124TIP3   OH225253  10.268   8.298   8.152 -0.1917 -0.5365  0.0405
 8124TIP3    H125254  10.305   8.384   8.175  0.5266 -0.8514  0.1057
 8124TIP3    H225255  10.195   8.286   8.213 -1.1833  0.6242 -0.8800
 8125TIP3   OH225256   5.999  10.314  10.207  0.4918 -0.1594 -0.3857
 8125TIP3    H125257   6.039  10.363  10.278  2.5409 -0.7630 -1.0482
 8125TIP3    H225258   5.999  10.223  10.237  1.1894 -0.3906 -1.0572
 8126TIP3   OH225259   5.718   4.808   0.791 -0.1327  0.6852  0.0003
 8126TIP3    H125260   5.692   4.851   0.710 -1.5438  1.8927  1.0510
 8126TIP3    H225261   5.760   4.726   0.763  0.0819  1.4256 -1.9386
 8127TIP3   OH225262   7.305   2.179   7.994  0.0189  0.6113 -0.4992
 8127TIP3    H125263   7.378   2.236   7.971  0.7924 -1.0333 -2.4298
 8127TIP3    H225264   7.309   2.172   8.089  2.3414  0.6807 -0.5242
 8128TIP3   OH225265   3.243   3.342   0.972 -0.5276 -0.3078 -0.5316
 8128TIP3    H125266   3.273   3.397   0.900  0.6799 -0.5405 -0.2328
 8128TIP3    H225267   3.192   3.273   0.929 -0.0894 -0.2685 -1.1421
 8129TIP3   OH225268   4.672   2.166   4.296 -0.2476 -0.0724  0.1679
 8129TIP3    H125269   4.582   2.183   4.326 -0.8851 -1.5220 -0.8542
 8129TIP3    H225270   4.667   2.170   4.201 -0.0762 -3.8067 -0.1190
 8130TIP3   OH225271   1.815   1.425  10.106  0.2323  0.4896 -0.5080
 8130TIP3    H125272   1.903   1.434  10.143  0.7183 -1.6467 -0.9744
 8130TIP3    H225273   1.773   1.359  10.161 -1.3442  1.9237  0.0825
 8131TIP3   OH225274   6.776   3.938   0.547  0.0168 -0.1719 -0.2675
 8131TIP3    H125275   6.855   3.982   0.579 -1.4984  2.3064  0.3307
 8131TIP3    H225276   6.800   3.905   0.461  1.6907  0.5463 -0.1152
 8132TIP3   OH225277   7.160   5.773   8.357 -0.7603  0.1140  0.1161
 8132TIP3    H125278   7.092   5.799   8.419 -0.9336  1.0009 -0.4297
 8132TIP3    H225279   7.229   5.838   8.368  1.0191 -1.9428  2.1793
 8133TIP3   OH225280   7.753   9.303   9.448  0.8680  0.3845  0.1739
 8133TIP3    H125281   7.773   9.329   9.358 -0.7979  1.3881  0.0460
 8133TIP3    H225282   7.801   9.222   9.461  1.1922  0.2499 -1.6097
 8134TIP3   OH225283  10.518   9.182   0.034  0.4790 -0.3626  0.1690
 8134TIP3    H125284  10.423   9.183   0.041  0.4272 -0.7377 -0.4238
 8134TIP3    H225285  10.549   9.185   0.124 -0.0956 -0.3970  0.3702
 8135TIP3   OH225286   5.165   9.434   9.743  0.5374 -0.0883  0.4486
 8135TIP3    H125287   5.217   9.371   9.695  0.1866 -0.1842  0.1889
 8135TIP3    H225288   5.149   9.505   9.681 -1.7900 -1.2106 -0.3533
 8136TIP3   OH225289   9.828   3.620   8.385 -0.3664  0.1338  0.7150
 8136TIP3    H125290   9.886   3.564   8.436  1.1728  1.2351  0.2499
 8136TIP3    H225291   9.745   3.573   8.383 -0.0608 -0.6236  2.9734
 8137TIP3   OH225292   8.881   7.779   1.083 -0.1627 -0.1509 -0.1077
 8137TIP3    H125293   8.916   7.777   0.994 -1.0779  1.0477 -0.5187
 8137TIP3    H225294   8.908   7.863   1.118 -0.1665 -0.4400  0.6027
 8138TIP3   OH225295   8.993  10.698   9.351  0.6625 -0.8032 -0.1514
 8138TIP3    H125296   9.056  10.646   9.302  0.7658 -0.8814  0.0624
 8138TIP3    H225297   9.025  10.697   9.441  0.2986 -0.9328 -0.0224
 8139TIP3   OH225298   7.930   3.851   3.263 -0.0708  0.1270 -0.3561
 8139TIP3    H125299   7.883   3.810   3.190 -0.0259  0.0287 -0.3299
 8139TIP3    H225300   7.862   3.878   3.324 -0.0539 -0.5966 -0.0144
 8140TIP3   OH225301   0.638   9.307   1.284  0.5461 -0.2164  0.0915
 8140TIP3    H125302   0.563   9.353   1.247  0.6745  1.3373  1.6493
 8140TIP3    H225303   0.678   9.263   1.209 -2.0779 -1.3916 -0.7412
 8141TIP3   OH225304   2.364   0.070   4.514  0.0578  0.2073 -0.3021
 8141TIP3    H125305   2.452   0.045   4.540 -0.0675 -0.4386 -0.4961
 8141TIP3    H225306   2.372   0.161   4.484  0.5585  0.3148  0.1515
 8142TIP3   OH225307   0.385   1.757   2.959 -0.3027 -0.2222 -0.2388
 8142TIP3    H125308   0.338   1.748   3.043  1.1013  1.2522  0.7606
 8142TIP3    H225309   0.352   1.839   2.922  0.6556  0.2556 -0.0534
 8143TIP3   OH225310  10.233   6.727  10.595  0.4223 -0.3921  0.2207
 8143TIP3    H125311  10.162   6.707  10.656 -0.1299  1.5452  0.2654
 8143TIP3    H225312  10.300   6.770  10.649  1.3559 -1.5543  0.0431
 8144TIP3   OH225313   2.761   7.169   1.255  0.1116 -0.0270 -0.1595
 8144TIP3    H125314   2.725   7.163   1.167  0.3833 -1.1900 -0.2036
 8144TIP3    H225315   2.701   7.228   1.301 -0.4339  0.0299 -0.9194
 8145TIP3   OH225316   3.813   8.453   2.869 -0.0579  0.0654  0.0659
 8145TIP3    H125317   3.774   8.540   2.869  1.7360  0.9572 -1.9829
 8145TIP3    H225318   3.837   8.438   2.961 -2.6741  0.5463  0.9300
 8146TIP3   OH225319   1.515   7.625   2.341  0.0024 -0.4551 -0.5856
 8146TIP3    H125320   1.561   7.582   2.413  0.0240 -0.9799 -0.9071
 8146TIP3    H225321   1.585   7.656   2.283  0.0003  0.3442 -0.1798
 8147TIP3   OH225322   3.075   4.224   1.912 -0.0135 -0.6744 -0.7014
 8147TIP3    H125323   3.163   4.196   1.889 -0.2156 -1.1190 -0.9617
 8147TIP3    H225324   3.061   4.304   1.862  0.5595 -0.1145  0.0183
 8148TIP3   OH225325   8.938   4.259   3.525  0.0213 -0.2150 -1.0774
 8148TIP3    H125326   8.898   4.324   3.582  1.3287  0.6911 -1.1416
 8148TIP3    H225327   8.991   4.205   3.584 -1.9490 -2.0484 -0.8350
 8149TIP3   OH225328   4.657   6.131   2.296  0.1992  0.4667  0.2984
 8149TIP3    H125329   4.600   6.078   2.241 -0.9935  0.7428  1.2199
 8149TIP3    H225330   4.663   6.082   2.379 -0.8584  1.6764  1.1352
 8150TIP3   OH225331   1.840   0.607   2.909 -0.2055  0.0217 -0.4256
 8150TIP3    H125332   1.786   0.669   2.957  0.9054 -0.3648  1.4199
 8150TIP3    H225333   1.847   0.531   2.967  0.1617 -0.9917 -1.7512
 8151TIP3   OH225334   0.908   6.673   3.465  0.0181  0.6774  0.2623
 8151TIP3    H125335   0.894   6.700   3.375  0.4061 -0.2434 -0.0875
 8151TIP3    H225336   1.001   6.650   3.469 -0.3848 -1.0215  0.4165
 8152TIP3   OH225337   2.049   1.041   7.943 -0.0860  0.3673 -0.3867
 8152TIP3    H125338   2.031   0.987   8.019  0.5784  0.5139 -0.1169
 8152TIP3    H225339   2.004   0.997   7.871  1.5194 -1.3085 -0.4437
 8153TIP3   OH225340   0.813   5.178   6.845 -0.3274  0.2166 -1.0550
 8153TIP3    H125341   0.802   5.223   6.929 -1.2153 -0.9135 -0.5357
 8153TIP3    H225342   0.858   5.242   6.789  0.4853  0.9015  0.3397
 8154TIP3   OH225343  10.106   9.134   7.185  0.0865 -0.5932  0.2942
 8154TIP3    H125344  10.048   9.100   7.254 -0.5652 -0.1948 -0.0466
 8154TIP3    H225345  10.167   9.062   7.168 -0.5193 -1.1457  0.4296
 8155TIP3   OH225346   8.130   6.790   6.395  0.1600 -0.1322 -0.5706
 8155TIP3    H125347   8.128   6.697   6.416 -2.4066 -0.7836 -3.0405
 8155TIP3    H225348   8.058   6.802   6.332  1.3912  3.2356 -1.5602
 8156TIP3   OH225349   7.882   5.062   3.079 -0.2664  0.1178 -0.2686
 8156TIP3    H125350   7.866   5.154   3.097  1.5096  0.6045 -1.0019
 8156TIP3    H225351   7.831   5.044   2.999 -0.8692  0.3562  0.0522
 8157TIP3   OH225352   8.021   8.284   4.894  0.3516 -0.3742 -0.2791
 8157TIP3    H125353   7.945   8.238   4.930 -0.3388  2.2820  2.0247
 8157TIP3    H225354   7.986   8.338   4.823 -0.0059  0.9449  0.8646
 8158TIP3   OH225355   1.592   6.336   4.598  0.3013  0.4363  0.3354
 8158TIP3    H125356   1.541   6.324   4.518 -0.7680  0.0614  1.0552
 8158TIP3    H225357   1.558   6.416   4.637  0.1705  0.1182  0.8886
 8159TIP3   OH225358  10.119   1.424   8.160  0.3612 -0.2848 -0.2924
 8159TIP3    H125359  10.070   1.372   8.223 -1.0645  1.7249  0.3587
 8159TIP3    H225360  10.055   1.449   8.094  0.6338  1.7204  0.1384
 8160TIP3   OH225361  10.619   8.628   3.448  0.0832 -0.4184 -0.6666
 8160TIP3    H125362  10.563   8.706   3.439  0.5821 -0.0489 -0.6483
 8160TIP3    H225363  10.669   8.644   3.528  1.8918  0.3597 -1.8921
 8161TIP3   OH225364   6.312   7.277   5.581 -0.0094  0.1163 -0.0094
 8161TIP3    H125365   6.404   7.274   5.555 -0.0522 -0.6108 -0.1133
 8161TIP3    H225366   6.282   7.186   5.573 -0.8452  0.4157 -0.3715
 8162TIP3   OH225367   3.019   8.861   6.266  0.4326 -0.0014 -0.2096
 8162TIP3    H125368   2.959   8.927   6.302 -0.6054  0.0172 -1.8610
 8162TIP3    H225369   2.970   8.779   6.272  1.1360 -0.3723  0.4808
 8163TIP3   OH225370   5.558  10.116   5.188 -0.6602 -0.3064 -0.2697
 8163TIP3    H125371   5.554  10.111   5.283 -0.2001 -0.5218 -0.2600
 8163TIP3    H225372   5.601  10.199   5.170 -1.6389  0.2006 -0.3100
 8164TIP3   OH225373   2.731   5.264   1.597 -0.1050 -0.0965 -0.2240
 8164TIP3    H125374   2.701   5.311   1.519  0.1811 -0.0530 -0.3100
 8164TIP3    H225375   2.794   5.200   1.564  1.1687  0.9272  0.1184
 8165TIP3   OH225376   0.394   7.644   3.877  0.4444 -0.3607 -0.0011
 8165TIP3    H125377   0.388   7.631   3.971 -0.7115 -0.7547 -0.1119
 8165TIP3    H225378   0.375   7.737   3.864 -1.5181 -0.7305  0.0104
 8166TIP3   OH225379  10.193   5.164  10.188  0.4002 -0.2860 -0.2302
 8166TIP3    H125380  10.276   5.126  10.220  0.2905  0.9815  1.6971
 8166TIP3    H225381  10.146   5.089  10.151  0.9079 -1.7516  1.9064
 8167TIP3   OH225382   4.170   0.461   4.377 -0.1813 -0.2360 -0.1566
 8167TIP3    H125383   4.260   0.445   4.404 -0.1780 -1.6501 -0.9067
 8167TIP3    H225384   4.133   0.517   4.446  1.5330  1.1994 -0.3401
 8168TIP3   OH225385   1.630   9.380   2.987 -0.5764 -0.7090  0.4755
 8168TIP3    H125386   1.636   9.294   3.029 -0.0057  0.0999  2.1102
 8168TIP3    H225387   1.721   9.404   2.969 -0.7557 -0.5933 -0.3352
 8169TIP3   OH225388   6.387   0.490   8.664  0.0909  0.0730 -0.0104
 8169TIP3    H125389   6.482   0.505   8.664  0.2807 -0.9286 -0.9008
 8169TIP3    H225390   6.349   0.577   8.659  1.0646  0.4530 -3.0143
 8170TIP3   OH225391   1.125   2.607   7.463  0.0161 -0.1030 -0.4641
 8170TIP3    H125392   1.033   2.615   7.484 -0.1344 -2.0339 -0.2056
 8170TIP3    H225393   1.156   2.697   7.454 -1.5043  0.6150  1.0262
 8171TIP3   OH225394   4.315   8.312   2.532  0.3059 -0.4800 -0.0020
 8171TIP3    H125395   4.345   8.225   2.508  2.4675 -0.1762  1.3532
 8171TIP3    H225396   4.317   8.312   2.628 -0.7107  0.7365  0.0447
 8172TIP3   OH225397   5.335   8.892   6.023 -0.6375 -0.0140  0.0507
 8172TIP3    H125398   5.419   8.921   5.986 -0.3367 -1.7257 -0.6860
 8172TIP3    H225399   5.294   8.843   5.952 -0.9989 -1.5764  1.2966
 8173TIP3   OH225400   2.387   1.314  10.459  0.3037 -0.3370  0.2551
 8173TIP3    H125401   2.326   1.250  10.423  1.7324 -1.4758 -0.2560
 8173TIP3    H225402   2.431   1.267  10.530  0.2749  0.6082  0.9148
 8174TIP3   OH225403  10.669   5.556   3.491  0.1552 -0.0813 -0.3667
 8174TIP3    H125404  10.757   5.559   3.528  0.3465  0.2171 -0.8319
 8174TIP3    H225405  10.610   5.566   3.566  0.5124 -0.4566 -0.0334
 8175TIP3   OH225406   1.769   3.860   8.480 -0.1549  0.4799 -0.1073
 8175TIP3    H125407   1.739   3.785   8.531  1.0161 -1.6641 -2.3284
 8175TIP3    H225408   1.689   3.899   8.445 -0.8091  0.4879  1.3440
 8176TIP3   OH225409  10.163   0.675   2.358  0.1744 -0.2032  0.6030
 8176TIP3    H125410  10.069   0.664   2.347 -0.2264 -0.4680  3.4729
 8176TIP3    H225411  10.201   0.591   2.331 -0.6841 -0.8971  1.4665
 8177TIP3   OH225412   9.156   0.067   0.283 -0.4535 -0.3756 -0.3250
 8177TIP3    H125413   9.210  -0.011   0.278  0.3679  0.1312  0.2965
 8177TIP3    H225414   9.170   0.112   0.199  1.9884  0.9237  0.6571
 8178TIP3   OH225415  10.441   6.204   4.873  0.1717  0.0849  0.0898
 8178TIP3    H125416  10.442   6.132   4.809  1.2420  0.4916 -0.3685
 8178TIP3    H225417  10.349   6.229   4.878 -0.0411 -0.4802 -0.6956
 8179TIP3   OH225418   4.809   3.811   1.404 -0.2681 -0.4754 -0.1540
 8179TIP3    H125419   4.840   3.729   1.442  0.6871 -0.4107 -0.7746
 8179TIP3    H225420   4.714   3.800   1.398 -0.2971 -0.9785  1.0598
 8180TIP3   OH225421   3.807  10.307   6.768  0.4858  0.2380  0.0822
 8180TIP3    H125422   3.795  10.259   6.686  1.1030  1.1236 -0.5514
 8180TIP3    H225423   3.750  10.383   6.760  0.8437  0.5337  0.2981
 8181TIP3   OH225424   2.082   8.514   3.873  0.1442 -0.7945  0.3188
 8181TIP3    H125425   2.083   8.429   3.918  0.4945 -1.7025 -1.3325
 8181TIP3    H225426   2.166   8.553   3.895  1.2986 -2.2199 -1.2484
 8182TIP3   OH225427   7.471   5.221  10.256 -0.3752 -0.2023  0.0103
 8182TIP3    H125428   7.561   5.197  10.277 -0.6612 -0.0677  1.4885
 8182TIP3    H225429   7.475   5.312  10.229 -0.0794 -0.1650  0.1798
 8183TIP3   OH225430   2.348   1.173   9.990  0.1077 -0.7769 -0.0944
 8183TIP3    H125431   2.422   1.142   9.938  0.1204 -1.7063  0.4641
 8183TIP3    H225432   2.387   1.220  10.064  0.0880  1.5559 -1.4460
 8184TIP3   OH225433   1.799   9.764   9.589 -0.2752 -0.3723 -0.0888
 8184TIP3    H125434   1.801   9.859   9.580  0.4009 -0.3126  0.6207
 8184TIP3    H225435   1.876   9.743   9.642 -1.6762 -1.0940  1.7626
 8185TIP3   OH225436   2.279   2.129   5.848  0.1696 -0.5756 -0.4947
 8185TIP3    H125437   2.299   2.114   5.940  0.0801 -0.0795 -0.3938
 8185TIP3    H225438   2.188   2.159   5.848 -0.0767 -1.2997 -0.8122
 8186TIP3   OH225439   4.100  10.599   9.494  0.2043  0.1349 -0.5049
 8186TIP3    H125440   4.101  10.694   9.499  0.0079  0.1558 -0.8060
 8186TIP3    H225441   4.083  10.570   9.584  3.1120  0.2914  0.1918
 8187TIP3   OH225442   8.080   9.439   3.291  0.3264  0.3403 -0.1643
 8187TIP3    H125443   8.163   9.467   3.329 -0.2463  0.6783  0.8980
 8187TIP3    H225444   8.081   9.343   3.300  1.4755  0.1209 -2.0848
 8188TIP3   OH225445  10.861   9.498   7.362  0.4288  0.3776 -0.6853
 8188TIP3    H125446  10.771   9.465   7.363  0.4252  0.3909 -0.4100
 8188TIP3    H225447  10.889   9.494   7.453  1.3217 -1.3021 -0.9930
 8189TIP3   OH225448   0.435   0.409   0.551 -0.2540  0.1392 -0.4337
 8189TIP3    H125449   0.377   0.479   0.520 -1.2258  0.4958  1.9034
 8189TIP3    H225450   0.428   0.414   0.647  1.4434 -1.6995 -0.1511
 8190TIP3   OH225451   7.131   8.559   1.754 -0.2764 -0.1163 -0.2708
 8190TIP3    H125452   7.153   8.651   1.743  0.5294 -0.2287  0.3593
 8190TIP3    H225453   7.207   8.511   1.721  0.3206 -0.5121  1.5649
 8191TIP3   OH225454   5.691   8.994   2.737 -1.1267  0.0830 -0.2956
 8191TIP3    H125455   5.750   8.919   2.727  0.6355  0.9039  2.7652
 8191TIP3    H225456   5.625   8.964   2.799 -1.4848  0.5178 -0.4638
 8192TIP3   OH225457   5.642   9.390   1.927 -0.0977 -0.2312  0.2111
 8192TIP3    H125458   5.705   9.427   1.865 -1.9018  0.0186 -1.5882
 8192TIP3    H225459   5.573   9.457   1.934 -0.8185 -1.0301  1.1036
 8193TIP3   OH225460   5.439   1.575   7.204 -0.0077  0.0991  0.2090
 8193TIP3    H125461   5.405   1.619   7.126  0.1557 -0.2988 -0.0919
 8193TIP3    H225462   5.473   1.646   7.258 -0.2750  0.3952 -0.0059
 8194TIP3   OH225463   8.540   7.176   2.242  0.1221  0.3452 -0.2139
 8194TIP3    H125464   8.509   7.255   2.197  1.0393  0.7075 -0.2343
 8194TIP3    H225465   8.528   7.195   2.335  0.1784  0.4431 -0.2263
 8195TIP3   OH225466   8.274   3.394   6.681 -0.7310 -0.2184 -0.2949
 8195TIP3    H125467   8.204   3.394   6.616 -1.7731  0.3436  0.7731
 8195TIP3    H225468   8.354   3.410   6.631 -1.8719  4.3666 -1.1847
 8196TIP3   OH225469   5.220   7.868  10.819  0.1613 -0.0446 -0.6288
 8196TIP3    H125470   5.170   7.795  10.856 -0.5772  1.1152  0.7498
 8196TIP3    H225471   5.193   7.871  10.727 -0.5924 -0.8387 -0.4496
 8197TIP3   OH225472   3.377  10.613   8.311 -0.2375  1.0466 -0.4749
 8197TIP3    H125473   3.375  10.626   8.406  0.1781 -0.8011 -0.1787
 8197TIP3    H225474   3.294  10.650   8.280 -0.2470  1.9338  0.5473
 8198TIP3   OH225475   9.612   7.962   3.467 -0.1369 -0.4482 -0.3736
 8198TIP3    H125476   9.596   7.869   3.483 -1.9627 -0.0682  0.1263
 8198TIP3    H225477   9.644   7.996   3.551 -0.5615 -0.3873 -0.2385
 8199TIP3   OH225478   5.720   8.043   1.861 -0.0163 -0.1907  0.3398
 8199TIP3    H125479   5.762   8.128   1.874 -1.0083  0.0927  1.9885
 8199TIP3    H225480   5.776   7.981   1.909 -0.4048 -0.1111  0.9146
 8200TIP3   OH225481   6.607   4.485   2.805  0.0302 -0.0265 -0.0965
 8200TIP3    H125482   6.632   4.404   2.848  0.7849 -0.6132 -1.5635
 8200TIP3    H225483   6.512   4.491   2.817  0.1405 -0.4486  1.1190
 8201TIP3   OH225484   1.065   5.560  10.190  0.1337  0.2170  0.2234
 8201TIP3    H125485   1.013   5.604  10.123  1.1367  0.5107 -0.3908
 8201TIP3    H225486   1.146   5.534  10.144 -0.3079 -2.0828  0.6062
 8202TIP3   OH225487   4.648   7.381   9.512 -0.5993  0.1731  0.3807
 8202TIP3    H125488   4.655   7.380   9.607 -0.6527 -0.0088  0.3846
 8202TIP3    H225489   4.564   7.338   9.494  0.0159 -0.9917  0.2112
 8203TIP3   OH225490   0.920   5.795   0.770 -1.2304  0.1616 -0.0730
 8203TIP3    H125491   0.846   5.764   0.822 -1.9396  0.1908 -1.0393
 8203TIP3    H225492   0.964   5.858   0.826 -1.8012 -0.0359  0.6078
 8204TIP3   OH225493   5.654   5.678   9.134  0.3526 -0.0386 -0.6134
 8204TIP3    H125494   5.624   5.639   9.052 -1.7564  0.6639 -0.2371
 8204TIP3    H225495   5.676   5.768   9.111 -0.3495  0.1919 -0.3962
 8205TIP3   OH225496   3.608   4.590   3.670 -0.2575  0.1534  0.6394
 8205TIP3    H125497   3.661   4.627   3.741  0.5776 -1.7837  1.1118
 8205TIP3    H225498   3.651   4.619   3.590  0.2754  0.3507  0.9907
 8206TIP3   OH225499   9.763   3.397   8.929  0.4404 -0.3260 -0.4386
 8206TIP3    H125500   9.695   3.461   8.952  0.4049  0.8554 -3.3846
 8206TIP3    H225501   9.736   3.317   8.974 -1.7903  0.6343  0.0964
 8207TIP3   OH225502   2.771   2.843   0.191  0.0272 -0.4736  0.0337
 8207TIP3    H125503   2.759   2.830   0.097  1.4162 -1.0316 -0.0854
 8207TIP3    H225504   2.709   2.913   0.213 -1.7313 -1.6577 -0.8945
 8208TIP3   OH225505   7.953   6.034  10.265  0.0619 -0.0961 -0.1218
 8208TIP3    H125506   8.006   6.021  10.344 -1.1294 -0.6751  0.6126
 8208TIP3    H225507   8.009   6.085  10.207  1.1967 -0.1825  0.8546
 8209TIP3   OH225508   4.100   9.579   7.522 -0.6628  0.1115 -0.2438
 8209TIP3    H125509   4.083   9.647   7.587 -0.7029  1.6158 -1.7729
 8209TIP3    H225510   4.148   9.623   7.453 -0.4046 -1.5070 -1.1456
 8210TIP3   OH225511   8.034   3.044   4.038 -0.0190  0.3140  0.1119
 8210TIP3    H125512   7.958   3.103   4.043 -1.5329 -1.2466 -2.3534
 8210TIP3    H225513   8.093   3.086   3.976 -0.2763  0.1264 -0.2675
 8211TIP3   OH225514   8.759   1.800   7.633 -0.3655 -0.2889  0.6234
 8211TIP3    H125515   8.770   1.804   7.538 -1.7186  2.8192  0.4769
 8211TIP3    H225516   8.689   1.862   7.651  0.6517  0.0974  3.7975
 8212TIP3   OH225517   9.370   3.192   6.319  0.6226  0.3940 -0.6353
 8212TIP3    H125518   9.324   3.235   6.391 -1.0840  0.8206 -1.8989
 8212TIP3    H225519   9.396   3.107   6.354 -1.5905 -0.0570  0.0510
 8213TIP3   OH225520   8.877   0.932   6.803 -0.3509 -0.4853 -0.2104
 8213TIP3    H125521   8.957   0.930   6.856 -0.7555  0.3169  0.4541
 8213TIP3    H225522   8.821   0.865   6.843  0.8600 -2.8260 -2.1771
 8214TIP3   OH225523   1.213   2.400   3.959  0.2002 -0.1542 -0.2708
 8214TIP3    H125524   1.238   2.308   3.964 -0.7987 -0.3608  1.4495
 8214TIP3    H225525   1.187   2.413   3.868  1.1631 -1.3294 -0.7444
 8215TIP3   OH225526   8.171   8.172   3.062  0.2033 -0.3934 -0.1196
 8215TIP3    H125527   8.158   8.093   3.009 -1.0656 -0.1678 -0.1736
 8215TIP3    H225528   8.171   8.243   2.998  0.2399 -0.2547  0.0362
 8216TIP3   OH225529   5.410   7.579  10.831 -0.0403 -0.2187 -0.0272
 8216TIP3    H125530   5.475   7.626  10.779 -0.3056 -1.7484 -1.8339
 8216TIP3    H225531   5.349   7.543  10.766  0.1131 -2.9882  1.2631
 8217TIP3   OH225532   1.122   1.532   0.785  0.4326  0.0963  0.2215
 8217TIP3    H125533   1.206   1.499   0.751  0.6929  0.9341  0.0157
 8217TIP3    H225534   1.147   1.606   0.841  0.0090 -1.2301  2.2395
 8218TIP3   OH225535   8.212   3.040   6.096 -0.3761  0.3522  0.2297
 8218TIP3    H125536   8.146   2.970   6.092 -0.1082  0.0731  0.5940
 8218TIP3    H225537   8.161   3.121   6.088 -0.5955  0.1082 -1.2887
 8219TIP3   OH225538   4.374   4.900   3.465 -0.1261  0.3678 -0.5788
 8219TIP3    H125539   4.296   4.866   3.421  0.1695  0.4395 -1.1704
 8219TIP3    H225540   4.408   4.965   3.405  1.5923 -1.1529 -1.3246
 8220TIP3   OH225541   0.314   9.438   4.517  0.2093  0.4752  0.5829
 8220TIP3    H125542   0.231   9.469   4.552 -0.8119 -0.1187 -1.1864
 8220TIP3    H225543   0.358   9.517   4.485 -0.9724  0.5175 -1.0487
 8221TIP3   OH225544   4.588   5.551   1.699 -0.0160  0.2578  0.2891
 8221TIP3    H125545   4.535   5.596   1.765 -1.0376  0.6384 -0.7552
 8221TIP3    H225546   4.664   5.608   1.686  0.1101  0.2569  1.0124
 8222TIP3   OH225547   0.816   7.663   5.424 -0.1057  0.0765  0.1594
 8222TIP3    H125548   0.790   7.578   5.389  0.3958  0.6359 -1.6641
 8222TIP3    H225549   0.896   7.646   5.472 -0.1909 -0.5312  0.0876
 8223TIP3   OH225550   4.756   2.364  10.854  0.2524 -0.0807  0.1873
 8223TIP3    H125551   4.703   2.413  10.917 -1.1776 -1.6530  0.2685
 8223TIP3    H225552   4.807   2.303  10.907  0.9276  0.2694 -0.0327
 8224TIP3   OH225553   2.101   9.748   3.976 -0.6963  0.3058 -0.3441
 8224TIP3    H125554   2.160   9.821   3.994 -0.1290  0.0547 -1.1570
 8224TIP3    H225555   2.095   9.745   3.881 -0.1640 -1.1380 -0.3479
 8225TIP3   OH225556   1.794   1.895   1.565  0.1742 -0.6714 -0.4044
 8225TIP3    H125557   1.862   1.828   1.575  1.1549  0.4646  0.8470
 8225TIP3    H225558   1.833   1.975   1.601 -0.5185  0.9048 -2.8672
 8226TIP3   OH225559   5.410   1.574   8.372  0.1873  0.3545 -0.0310
 8226TIP3    H125560   5.392   1.579   8.278 -0.1064 -0.8329 -0.0483
 8226TIP3    H225561   5.487   1.518   8.378  0.9780  1.4427  0.3741
 8227TIP3   OH225562   3.920   8.728   6.164  0.1918  0.1388  0.7513
 8227TIP3    H125563   3.854   8.676   6.210 -0.0875  0.6603  0.9546
 8227TIP3    H225564   3.998   8.673   6.162 -0.0150 -0.1741  1.2125
 8228TIP3   OH225565   3.557   6.658   3.528 -0.5024 -0.5688 -0.1241
 8228TIP3    H125566   3.565   6.685   3.619  2.2087  0.0587 -0.4519
 8228TIP3    H225567   3.557   6.563   3.530 -0.7870 -0.5544  0.5460
 8229TIP3   OH225568   5.007   5.874   2.627 -0.0582  0.5495 -0.8040
 8229TIP3    H125569   5.074   5.859   2.560  0.9737 -1.8455  0.6184
 8229TIP3    H225570   5.043   5.944   2.682  0.9889 -0.2241 -0.4738
 8230TIP3   OH225571   1.123   2.041   7.924 -0.6436 -0.1387  0.1389
 8230TIP3    H125572   1.105   2.116   7.981 -0.8449  0.9933 -1.3287
 8230TIP3    H225573   1.215   2.020   7.941 -0.4363  0.7799  0.2261
 8231TIP3   OH225574   7.140   5.725  10.333 -0.4134 -0.0205 -0.2217
 8231TIP3    H125575   7.213   5.679  10.376 -1.9808  0.1092  2.8402
 8231TIP3    H225576   7.171   5.815  10.323  0.2679 -0.2334 -0.1028
 8232TIP3   OH225577   7.496   2.359   8.712  0.2573  0.3662 -0.1477
 8232TIP3    H125578   7.550   2.324   8.783  2.6983  1.1715 -1.5016
 8232TIP3    H225579   7.413   2.313   8.721  0.5056  0.2996  3.0934
 8233TIP3   OH225580   6.190   3.891   6.005 -0.3987  0.3162  1.0532
 8233TIP3    H125581   6.198   3.986   5.992  0.9095 -0.1025 -1.9374
 8233TIP3    H225582   6.096   3.874   5.999 -0.4420  1.0061 -3.1914
 8234TIP3   OH225583   9.496   6.543   6.272  0.0680  0.1898  0.1029
 8234TIP3    H125584   9.403   6.534   6.290  0.1341 -0.2535  0.2454
 8234TIP3    H225585   9.524   6.617   6.326 -0.4168  1.0468 -0.7848
 8235TIP3   OH225586  10.466   5.126   0.474  0.3811  0.2241  0.3652
 8235TIP3    H125587  10.417   5.054   0.434 -0.2598  0.2200  1.1448
 8235TIP3    H225588  10.424   5.205   0.438  1.0734  0.2254 -0.4768
 8236TIP3   OH225589   3.766   3.136   8.071 -0.8369 -0.2954  0.1527
 8236TIP3    H125590   3.797   3.110   7.984  0.1770  0.2475  0.3420
 8236TIP3    H225591   3.699   3.201   8.054  0.1327  0.6378 -0.2193
 8237TIP3   OH225592   1.174   4.803   3.546  0.5447  0.6503  0.1420
 8237TIP3    H125593   1.137   4.715   3.558  0.9931  0.6481  1.6909
 8237TIP3    H225594   1.249   4.806   3.605 -0.9861  2.9461  2.1635
 8238TIP3   OH225595   3.511   4.307   0.847 -0.6719  0.5510  0.2081
 8238TIP3    H125596   3.573   4.265   0.906 -0.3732  1.4951  0.5972
 8238TIP3    H225597   3.553   4.390   0.824 -1.8663  1.2996  0.6234
 8239TIP3   OH225598   0.820   2.734   7.059  0.0871 -0.0291 -0.2714
 8239TIP3    H125599   0.862   2.820   7.058 -0.1349  0.0772 -1.1224
 8239TIP3    H225600   0.881   2.678   7.106  1.0180  0.2213 -1.1412
 8240TIP3   OH225601   6.725   5.847   2.840 -0.1180  0.6362 -0.6006
 8240TIP3    H125602   6.636   5.820   2.821  0.0778  0.0093 -0.6392
 8240TIP3    H225603   6.765   5.861   2.754 -0.6746  2.6462 -0.5955
 8241TIP3   OH225604   4.018   0.042   4.660 -0.1998 -0.4286 -0.0551
 8241TIP3    H125605   3.981  -0.040   4.691 -0.0293 -0.3044  0.4913
 8241TIP3    H225606   4.063   0.019   4.578 -2.5825 -0.3471 -1.4909
 8242TIP3   OH225607   7.691   5.832   4.927  0.1932 -0.1921  0.6496
 8242TIP3    H125608   7.755   5.877   4.872  1.1617 -0.4779  1.5031
 8242TIP3    H225609   7.700   5.874   5.013 -0.4383 -0.5498  0.8934
 8243TIP3   OH225610   0.042   9.224  10.287  0.1515 -0.3976 -0.4805
 8243TIP3    H125611   0.064   9.261  10.372 -0.3192 -2.2516  0.5154
 8243TIP3    H225612  -0.032   9.276  10.255  0.7790  0.7489 -0.1043
 8244TIP3   OH225613   5.104   5.779   5.165 -0.4549 -0.6017  0.2077
 8244TIP3    H125614   5.141   5.806   5.249  0.7495 -1.8967  0.1462
 8244TIP3    H225615   5.019   5.822   5.160  0.4324  1.3496  1.0410
 8245TIP3   OH225616   9.698   0.700   8.837  0.0613  0.2143 -0.0109
 8245TIP3    H125617   9.693   0.714   8.932  0.2703 -0.2792  0.0760
 8245TIP3    H225618   9.654   0.777   8.799 -0.1025  0.3699  0.4854
 8246TIP3   OH225619   2.293   8.842   7.167  0.0548  0.2268  0.1816
 8246TIP3    H125620   2.329   8.873   7.084  0.0442 -0.3853 -0.0612
 8246TIP3    H225621   2.200   8.827   7.150  0.5069 -2.3800 -0.4923
 8247TIP3   OH225622   6.488  10.418  10.705 -0.0710 -0.5464  0.4736
 8247TIP3    H125623   6.493  10.504  10.663 -1.2856 -0.4772  0.4239
 8247TIP3    H225624   6.518  10.357  10.638  1.0545 -0.1471  0.5990
 8248TIP3   OH225625   0.856   5.478   2.961 -0.2550  0.0529 -0.5870
 8248TIP3    H125626   0.778   5.474   2.905  0.8004  1.6963 -2.2807
 8248TIP3    H225627   0.917   5.417   2.921  0.5301  1.2828 -1.3212
 8249TIP3   OH225628   7.418  10.514   3.689 -0.0746  0.7570 -0.1148
 8249TIP3    H125629   7.494  10.476   3.644 -0.1162 -1.1582  1.3128
 8249TIP3    H225630   7.455  10.563   3.762 -0.1517  1.4126 -0.5047
 8250TIP3   OH225631   5.716   5.831  10.611  0.1571  0.5116  0.1581
 8250TIP3    H125632   5.805   5.834  10.577 -0.4395 -0.5665 -1.5802
 8250TIP3    H225633   5.660   5.843  10.534 -1.2300 -1.1056  0.8559
 8251TIP3   OH225634   4.045   7.109   8.962 -0.2615 -0.3209  0.4270
 8251TIP3    H125635   3.984   7.171   8.922  0.7205  0.0907 -0.4911
 8251TIP3    H225636   4.129   7.128   8.921  0.4101 -1.1546  1.3522
 8252TIP3   OH225637   6.691   7.632   0.844  0.4277 -0.0397  0.1998
 8252TIP3    H125638   6.734   7.637   0.929  0.3131 -1.3095  0.3615
 8252TIP3    H225639   6.678   7.538   0.830  0.7378  0.1153 -1.3596
 8253TIP3   OH225640   9.529   8.721   6.093 -0.0480 -1.1436 -0.2124
 8253TIP3    H125641   9.435   8.739   6.101  0.3555  1.6421 -0.7746
 8253TIP3    H225642   9.567   8.754   6.175  0.6742 -0.0885 -0.9511
 8254TIP3   OH225643   3.856   5.124   8.383 -0.2149 -0.3958 -0.2775
 8254TIP3    H125644   3.873   5.049   8.440  0.3813  1.3878  2.0779
 8254TIP3    H225645   3.924   5.188   8.406 -1.5725  1.4401 -1.0674
 8255TIP3   OH225646   0.326   1.563  10.736  0.0633  0.5984 -0.7682
 8255TIP3    H125647   0.421   1.579  10.735  0.2517 -0.0751  1.6223
 8255TIP3    H225648   0.288   1.647  10.710  1.2854  1.2739 -0.4661
 8256TIP3   OH225649   5.412   6.705   3.316  0.4412 -0.5726 -0.1086
 8256TIP3    H125650   5.379   6.763   3.247  1.3424  0.1817  0.0817
 8256TIP3    H225651   5.422   6.762   3.392 -0.4089 -1.3678  0.6194
 8257TIP3   OH225652   1.071   1.349   9.922 -0.0273 -0.3864  0.5132
 8257TIP3    H125653   1.105   1.281   9.864  4.4037  0.2485  1.9880
 8257TIP3    H225654   1.087   1.315  10.010 -2.3324  0.5989  1.4047
 8258TIP3   OH225655  10.006   0.197   2.262  0.0114  0.0987 -0.5298
 8258TIP3    H125656   9.944   0.175   2.331 -1.6172 -1.0627 -2.2764
 8258TIP3    H225657   9.999   0.126   2.199  2.0004  0.7268 -1.5720
 8259TIP3   OH225658   9.045   3.746   0.313 -0.2329  0.3041  0.1575
 8259TIP3    H125659   9.071   3.787   0.230 -0.5480  0.1840 -0.0033
 8259TIP3    H225660   8.951   3.730   0.302 -0.0651 -0.6682  0.1259
 8260TIP3   OH225661   1.732   8.790   1.472 -0.3887  0.1311  0.4300
 8260TIP3    H125662   1.777   8.740   1.540 -2.8125 -1.0714  1.2646
 8260TIP3    H225663   1.645   8.805   1.507 -1.4063  0.3905 -2.0083
 8261TIP3   OH225664   7.979   0.868   4.745  0.1053 -0.1728  0.2116
 8261TIP3    H125665   7.997   0.774   4.743  1.2139  0.0080  0.7088
 8261TIP3    H225666   8.007   0.900   4.660  2.5700  0.1396  1.0485
 8262TIP3   OH225667   5.560   3.574   7.210 -0.3854  0.0580 -0.3381
 8262TIP3    H125668   5.557   3.555   7.116 -0.1236 -0.3132 -0.2724
 8262TIP3    H225669   5.469   3.574   7.238 -0.3992 -0.9414 -0.3708
 8263TIP3   OH225670   3.763   5.624   3.243 -0.0400 -0.5085  0.4336
 8263TIP3    H125671   3.671   5.652   3.249  0.0022  0.2015 -1.4455
 8263TIP3    H225672   3.760   5.544   3.190  0.4712 -0.0891 -0.2457
 8264TIP3   OH225673   3.671   5.559   8.138  0.4208  0.0270  0.3456
 8264TIP3    H125674   3.648   5.621   8.069  1.5358 -0.8831 -0.8658
 8264TIP3    H225675   3.587   5.541   8.182 -0.6233 -0.5390 -1.7414
 8265TIP3   OH225676   8.192   8.870  10.753 -0.2282  0.1932 -0.3613
 8265TIP3    H125677   8.264   8.834  10.805 -0.4081  0.2165 -0.0975
 8265TIP3    H225678   8.232   8.942  10.704  0.2583 -0.6777 -1.2863
 8266TIP3   OH225679   5.048   9.873  10.401 -0.6494 -0.1390  0.0222
 8266TIP3    H125680   5.117   9.861  10.336 -2.0006  0.0221 -1.5021
 8266TIP3    H225681   5.089   9.851  10.484  1.3219  0.2869 -0.7909
 8267TIP3   OH225682   8.534   1.042   4.312 -0.5193  0.1240  0.9156
 8267TIP3    H125683   8.576   1.059   4.396 -0.3624  1.2480  0.6361
 8267TIP3    H225684   8.441   1.058   4.328 -0.5437 -0.0830  0.9774
 8268TIP3   OH225685   3.929   0.101   5.612  0.6892  0.1680 -0.0534
 8268TIP3    H125686   3.902   0.192   5.623  1.4570  0.2413  1.5364
 8268TIP3    H225687   3.875   0.052   5.674 -1.8782 -0.9774 -2.9615
 8269TIP3   OH225688   8.234   9.676   0.608 -0.2752 -0.0764 -0.4313
 8269TIP3    H125689   8.200   9.611   0.669 -0.5724  0.9989  0.5878
 8269TIP3    H225690   8.249   9.628   0.527 -0.4683 -1.4072  0.3003
 8270TIP3   OH225691   4.014   9.359   7.940 -0.1234 -0.1145 -0.5317
 8270TIP3    H125692   4.088   9.320   7.892  0.6475 -0.7008  1.0502
 8270TIP3    H225693   3.938   9.310   7.910  0.1936  0.0823 -1.7383
 8271TIP3   OH225694   6.365   5.908   4.083 -0.7424  0.1436  0.1075
 8271TIP3    H125695   6.402   5.975   4.026 -1.3149  1.0243  0.7299
 8271TIP3    H225696   6.280   5.887   4.043 -1.7992  1.8055  1.3351
 8272TIP3   OH225697   4.571   4.978   6.544 -0.0395 -0.4605 -0.2720
 8272TIP3    H125698   4.602   5.032   6.617  3.5897  0.6008 -2.3489
 8272TIP3    H225699   4.477   4.994   6.541  0.0258  1.2917  2.6622
 8273TIP3   OH225700   7.837   0.374   0.051  0.1893 -0.2884  0.0231
 8273TIP3    H125701   7.921   0.344   0.088  0.8158 -0.0019 -1.1163
 8273TIP3    H225702   7.788   0.293   0.034 -0.3121 -0.4215  1.8464
 8274TIP3   OH225703   0.894   9.407   6.105 -0.5157 -0.5750  1.0203
 8274TIP3    H125704   0.929   9.319   6.091  0.7318 -0.2337  1.8230
 8274TIP3    H225705   0.801   9.399   6.082 -0.0461 -1.6192 -0.7872
 8275TIP3   OH225706   8.907   5.312   2.760 -0.2112  0.0509  0.4192
 8275TIP3    H125707   8.958   5.234   2.784  0.3419  0.4925  0.6961
 8275TIP3    H225708   8.972   5.379   2.742 -0.5660 -0.2194 -2.3570
 8276TIP3   OH225709   2.405   8.392   0.619  0.1511 -0.0512 -0.1930
 8276TIP3    H125710   2.393   8.426   0.707  1.4463  0.5364 -0.2259
 8276TIP3    H225711   2.376   8.462   0.561  1.3569  0.4277 -0.2424
 8277TIP3   OH225712   7.511   3.614   0.917 -0.3728  0.3115  0.7426
 8277TIP3    H125713   7.481   3.698   0.883  1.5448  1.0809  0.8554
 8277TIP3    H225714   7.606   3.614   0.903 -0.6065 -3.6695 -3.4739
 8278TIP3   OH225715   7.852  10.154   2.110 -0.2147  0.5835 -0.1785
 8278TIP3    H125716   7.777  10.166   2.053 -0.1572  0.1101 -0.3605
 8278TIP3    H225717   7.927  10.184   2.058  0.1001 -1.6463 -1.1238
 8279TIP3   OH225718  10.849  10.425   9.882 -0.3270 -0.2957  0.2597
 8279TIP3    H125719  10.922  10.487   9.890 -0.4927 -0.3444  3.2200
 8279TIP3    H225720  10.770  10.479   9.887 -0.4762 -0.5183  0.3172
 8280TIP3   OH225721   2.649   6.424   8.180 -0.2941 -0.6809 -0.1114
 8280TIP3    H125722   2.581   6.491   8.188 -0.7378 -1.1156 -0.1617
 8280TIP3    H225723   2.642   6.394   8.089  0.4649 -0.2110 -0.3335
 8281TIP3   OH225724   8.836   3.418   7.633  0.1594 -0.1751 -0.1709
 8281TIP3    H125725   8.906   3.480   7.653  0.4134 -0.1483 -1.0711
 8281TIP3    H225726   8.782   3.415   7.712  0.0025  1.3854 -0.1967
 8282TIP3   OH225727   1.571   9.899   8.426  0.2976  0.4273  0.4070
 8282TIP3    H125728   1.627   9.875   8.352 -0.3724  0.5526 -0.1404
 8282TIP3    H225729   1.491   9.933   8.386 -0.3854 -0.2425  1.1926
 8283TIP3   OH225730   9.220   4.559   0.734  0.6119 -0.8029 -0.5464
 8283TIP3    H125731   9.178   4.550   0.819  2.0917 -0.9734  0.2104
 8283TIP3    H225732   9.188   4.642   0.700  0.7268 -0.2596  0.6156
 8284TIP3   OH225733   5.058   6.668   8.315  0.1699  0.7336 -0.0020
 8284TIP3    H125734   5.006   6.738   8.353  0.4420  1.0554 -0.2159
 8284TIP3    H225735   5.050   6.680   8.221  3.1037  2.7236 -0.1274
 8285TIP3   OH225736   8.491   1.590  10.719  0.0232  0.0438 -0.4689
 8285TIP3    H125737   8.545   1.663  10.751  0.4001 -0.7713  0.8444
 8285TIP3    H225738   8.426   1.631  10.662  1.1541  1.2195 -0.9609
 8286TIP3   OH225739   5.017   5.761   7.088 -0.0031 -0.2947 -0.0908
 8286TIP3    H125740   4.999   5.830   7.023 -0.0193 -0.9543 -0.8021
 8286TIP3    H225741   5.020   5.807   7.171 -3.0402  0.1853 -0.1132
 8287TIP3   OH225742   4.183   8.915   7.520 -0.2468  0.6341  0.2512
 8287TIP3    H125743   4.268   8.950   7.547 -0.5937  1.7900 -0.1111
 8287TIP3    H225744   4.133   8.992   7.493 -0.9523 -0.1639 -0.7872
 8288TIP3   OH225745   6.977   6.984   5.111  0.4230  0.0114  0.2314
 8288TIP3    H125746   6.942   7.013   5.026  0.9010  0.3560  0.1470
 8288TIP3    H225747   6.905   6.998   5.172  0.3598  0.5971  0.0360
 8289TIP3   OH225748   0.204   4.037   9.938  0.1575 -0.0781 -0.1840
 8289TIP3    H125749   0.206   3.948   9.902  1.0111 -1.0469  2.0890
 8289TIP3    H225750   0.295   4.056   9.958 -0.1660  0.8642  0.4248
 8290TIP3   OH225751   0.618   9.143   7.351 -0.2173 -0.2315  0.2016
 8290TIP3    H125752   0.665   9.077   7.401 -0.1500 -1.7938 -1.8052
 8290TIP3    H225753   0.529   9.140   7.387  0.3580  0.3850  1.7752
 8291TIP3   OH225754   9.811   6.727  10.559  0.1740  0.6656  0.3725
 8291TIP3    H125755   9.841   6.749  10.647 -0.0058  1.0894  0.3262
 8291TIP3    H225756   9.753   6.799  10.534 -0.1069  0.3387  0.0729
 8292TIP3   OH225757   6.691   9.531   1.714  0.2087  0.5140 -0.0977
 8292TIP3    H125758   6.773   9.486   1.691 -1.1655 -1.9447 -0.5530
 8292TIP3    H225759   6.709   9.570   1.800  1.7160 -0.4043  0.0450
 8293TIP3   OH225760   8.588   2.081   7.427  0.1815  0.2838  0.0085
 8293TIP3    H125761   8.508   2.045   7.389  0.2640  0.3890 -0.2722
 8293TIP3    H225762   8.633   2.122   7.353 -0.5549  2.1736  0.5230
 8294TIP3   OH225763   3.834   6.455   4.555 -0.3262 -0.1998  0.2096
 8294TIP3    H125764   3.808   6.365   4.570  1.0951 -0.7220 -0.3002
 8294TIP3    H225765   3.812   6.472   4.463  0.9321 -0.6030 -0.1871
 8295TIP3   OH225766   7.292   0.687  10.094 -0.2378 -0.2426  0.4023
 8295TIP3    H125767   7.288   0.601  10.051  0.0071  0.4133 -1.0019
 8295TIP3    H225768   7.364   0.732  10.049 -2.0857  1.6945 -0.8441
 8296TIP3   OH225769   6.273   3.369  10.043  0.0884 -0.7374 -0.1257
 8296TIP3    H125770   6.182   3.351  10.065 -0.2189 -1.1378 -1.6002
 8296TIP3    H225771   6.276   3.464  10.031  0.6130 -0.2715  2.9253
 8297TIP3   OH225772   5.193   8.098   1.629 -0.4533 -0.2033 -0.1552
 8297TIP3    H125773   5.170   8.013   1.667  0.6411 -1.2499 -1.7332
 8297TIP3    H225774   5.239   8.077   1.548  1.1528  1.8671  0.1264
 8298TIP3   OH225775   8.150   6.957   2.701 -1.0487  0.0712 -0.3129
 8298TIP3    H125776   8.154   6.984   2.793  1.3521 -0.3300 -0.2184
 8298TIP3    H225777   8.057   6.952   2.681 -1.6528  2.8605  1.2768
 8299TIP3   OH225778   0.030   2.236   3.718  0.5303 -0.5102  0.3036
 8299TIP3    H125779  -0.003   2.146   3.720  1.5354 -0.8893  0.8116
 8299TIP3    H225780   0.061   2.248   3.628 -0.3057 -0.4004  0.0255
 8300TIP3   OH225781   9.022   4.701   3.474 -0.5674  0.4580  0.0465
 8300TIP3    H125782   9.015   4.662   3.562 -1.6744 -2.4081 -1.1706
 8300TIP3    H225783   9.111   4.678   3.445 -0.9524 -0.5855 -0.3695
 8301TIP3   OH225784  10.893  10.028   8.375 -0.2913  0.1346  0.1237
 8301TIP3    H125785  10.980  10.068   8.380 -0.3052  0.6325 -2.2885
 8301TIP3    H225786  10.905   9.941   8.415  1.0919  0.5213  0.6123
 8302TIP3   OH225787  10.015   6.950   5.495 -0.3366 -0.6626 -0.5516
 8302TIP3    H125788  10.006   6.925   5.403  0.6243  0.1365 -0.8814
 8302TIP3    H225789  10.104   6.983   5.502  0.2285 -2.4432  1.1019
 8303TIP3   OH225790   4.622   4.944   9.639  0.0892 -0.4562  0.4635
 8303TIP3    H125791   4.657   4.954   9.551 -1.4843 -1.0278 -0.2569
 8303TIP3    H225792   4.695   4.966   9.697  1.2461 -0.4253 -0.9725
 8304TIP3   OH225793   2.213   5.779  10.865  0.4700 -0.2065 -0.4937
 8304TIP3    H125794   2.220   5.797  10.959  1.3400 -0.2800 -0.5395
 8304TIP3    H225795   2.276   5.837  10.824  0.9656 -1.0273 -0.9226
 8305TIP3   OH225796   7.411   3.731  10.324  0.6198  0.1507  0.1352
 8305TIP3    H125797   7.326   3.769  10.301 -0.4762 -2.3394 -0.3070
 8305TIP3    H225798   7.413   3.732  10.420  0.1022  0.2301  0.1490
 8306TIP3   OH225799   9.863   9.022   3.700 -0.1220 -0.0965 -0.0343
 8306TIP3    H125800   9.857   9.111   3.734  0.1243 -0.5712  1.3103
 8306TIP3    H225801   9.955   9.011   3.677 -0.5027  0.6705 -2.2493
 8307TIP3   OH225802   9.769   6.356   0.816 -0.7046  0.0075  0.0570
 8307TIP3    H125803   9.739   6.418   0.750 -0.7750 -1.2426 -1.1369
 8307TIP3    H225804   9.857   6.332   0.788 -0.8666 -0.8022  0.2101
 8308TIP3   OH225805   0.738   7.969   5.367  0.0420  0.1937  0.5431
 8308TIP3    H125806   0.827   7.965   5.401  0.0823  0.0420  0.4210
 8308TIP3    H225807   0.682   7.971   5.444  0.0705 -1.2918  0.6275
 8309TIP3   OH225808   7.774   0.025   6.296 -0.0047  0.2537 -0.4211
 8309TIP3    H125809   7.706  -0.020   6.246 -1.3120 -0.0643  1.5260
 8309TIP3    H225810   7.828   0.069   6.230 -2.7908  1.4986 -2.0161
 8310TIP3   OH225811   9.697   1.142   2.932  0.1886  0.0867 -0.3718
 8310TIP3    H125812   9.632   1.101   2.989 -1.3643  1.0666 -1.3609
 8310TIP3    H225813   9.659   1.227   2.909  0.5043 -0.4475 -3.2301
 8311TIP3   OH225814   2.737   5.717   5.857 -0.5168 -0.1974 -0.8385
 8311TIP3    H125815   2.758   5.735   5.949  0.3776 -1.4087 -0.7832
 8311TIP3    H225816   2.753   5.623   5.847  0.9282  0.1886 -2.6163
 8312TIP3   OH225817   9.406  10.121  10.326  0.0139 -0.9816 -0.3476
 8312TIP3    H125818   9.322  10.162  10.346  0.1190 -1.0620  0.2886
 8312TIP3    H225819   9.382  10.036  10.288 -0.1921 -0.6677 -0.9440
 8313TIP3   OH225820  10.583   6.067   6.112  0.7827  0.0223  0.1213
 8313TIP3    H125821  10.576   6.158   6.085  2.5631  0.1954  0.1107
 8313TIP3    H225822  10.565   6.068   6.206 -2.0515 -0.0866 -0.3364
 8314TIP3   OH225823   0.057  10.497   6.829  0.0826 -0.9501 -0.1780
 8314TIP3    H125824   0.054  10.523   6.737 -0.9924 -1.0460 -0.1825
 8314TIP3    H225825   0.056  10.401   6.827 -0.3040 -0.9520 -0.0697
 8315TIP3   OH225826   1.223   7.884   3.616  0.4583 -0.4426  0.1357
 8315TIP3    H125827   1.157   7.834   3.665  1.3573 -0.7958  1.0185
 8315TIP3    H225828   1.180   7.967   3.597 -0.2179 -0.6215  0.7914
 8316TIP3   OH225829   2.178   5.763   0.406 -0.0987 -0.2086  0.3136
 8316TIP3    H125830   2.237   5.707   0.355  1.0761  1.4605 -0.2218
 8316TIP3    H225831   2.215   5.764   0.493  1.6668  2.1122 -0.3933
 8317TIP3   OH225832   7.398   4.580   5.191 -0.2480 -0.3878 -0.1662
 8317TIP3    H125833   7.469   4.601   5.129  0.5343  0.1930  0.8891
 8317TIP3    H225834   7.428   4.617   5.274 -0.9181 -1.8130  0.7419
 8318TIP3   OH225835   8.234   9.352  10.666  0.2779  0.3210  0.1253
 8318TIP3    H125836   8.207   9.432  10.621 -0.6375  1.8671  3.1635
 8318TIP3    H225837   8.167   9.338  10.732  2.9165 -0.0663  2.9371
 8319TIP3   OH225838   5.209   3.302   6.090  0.0196 -0.7131 -0.5402
 8319TIP3    H125839   5.255   3.369   6.040 -2.4943 -0.0110 -2.1300
 8319TIP3    H225840   5.259   3.222   6.075  2.6324  0.5474  0.7384
 8320TIP3   OH225841   5.021   8.710   9.598 -0.0517  0.6792 -0.0755
 8320TIP3    H125842   4.931   8.720   9.567  0.2157 -0.2863 -1.2595
 8320TIP3    H225843   5.034   8.782   9.659 -1.6913  0.7078  0.2861
 8321TIP3   OH225844   9.006   7.929   2.671  0.5666 -0.2103  0.1482
 8321TIP3    H125845   8.991   8.021   2.692 -0.7920 -0.3146 -0.2660
 8321TIP3    H225846   9.073   7.901   2.734  1.0708  1.0680  0.2214
 8322TIP3   OH225847   3.008   8.944   2.338  0.7867  0.0597 -0.1008
 8322TIP3    H125848   2.963   8.995   2.405 -0.4338  0.1720 -0.9676
 8322TIP3    H225849   2.975   8.854   2.351 -0.4255  0.2891 -1.2746
 8323TIP3   OH225850   4.385   5.694   0.801  0.0747 -0.4027 -0.5900
 8323TIP3    H125851   4.299   5.725   0.773  0.0826  0.2091  0.0360
 8323TIP3    H225852   4.427   5.664   0.720 -1.3510 -2.3111 -0.6941
 8324TIP3   OH225853   2.186   3.926   8.280  0.3920  0.0478  0.1529
 8324TIP3    H125854   2.127   3.867   8.328  0.3506 -0.1139 -0.0904
 8324TIP3    H225855   2.129   3.996   8.248  0.5149  0.4525  0.8039
 8325TIP3   OH225856   8.372   9.617   5.118  0.0814  0.1966 -0.0425
 8325TIP3    H125857   8.393   9.705   5.086 -0.0876 -0.1222 -1.0657
 8325TIP3    H225858   8.410   9.558   5.053 -2.7478 -0.4242 -1.3159
 8326TIP3   OH225859   3.767   7.477   7.199 -0.4962  0.9044  0.3182
 8326TIP3    H125860   3.729   7.511   7.118 -0.5734  0.4608  0.1667
 8326TIP3    H225861   3.862   7.489   7.188 -0.3213 -0.9777 -0.7098
 8327TIP3   OH225862   5.333   8.513   8.371  0.6765 -0.2015 -0.0597
 8327TIP3    H125863   5.319   8.428   8.413  1.0271 -1.0358 -1.5679
 8327TIP3    H225864   5.249   8.558   8.381  0.0725 -1.2193 -0.3093
 8328TIP3   OH225865   7.668   9.561   2.607  0.0940 -0.8814  0.3201
 8328TIP3    H125866   7.732   9.531   2.543  1.1529  2.6772 -0.5118
 8328TIP3    H225867   7.673   9.657   2.603 -3.7742 -0.4245  1.7777
 8329TIP3   OH225868   9.524   5.881   8.222 -0.2581  0.0352 -0.3367
 8329TIP3    H125869   9.539   5.827   8.300 -1.7009 -0.7229 -0.5517
 8329TIP3    H225870   9.528   5.971   8.254  0.8198 -0.2131  0.2876
 8330TIP3   OH225871  10.106   2.664   3.994  0.3953  0.4941 -0.1201
 8330TIP3    H125872  10.102   2.705   3.907  1.0848 -0.6580 -0.7255
 8330TIP3    H225873  10.096   2.570   3.976 -0.9759  0.3577  1.2041
 8331TIP3   OH225874  10.725  10.807   6.848 -0.1705  0.0812 -0.3535
 8331TIP3    H125875  10.723  10.895   6.884 -0.0197  0.2401 -0.7282
 8331TIP3    H225876  10.815  10.777   6.861  0.1210  0.4632 -1.3439
 8332TIP3   OH225877   3.778  10.024  10.268 -0.2531 -0.9941  0.2033
 8332TIP3    H125878   3.865   9.990  10.290  0.2497  0.2847  0.3001
 8332TIP3    H225879   3.785  10.049  10.176 -0.0112  0.5261  0.6019
 8333TIP3   OH225880   6.596   5.809   3.675  0.0400  0.4562 -0.1028
 8333TIP3    H125881   6.656   5.810   3.750  0.0895 -0.6495 -0.1099
 8333TIP3    H225882   6.561   5.720   3.674 -1.1861  0.9293 -0.4428
 8334TIP3   OH225883   7.507   0.053   8.682  0.4431 -0.0693 -0.4590
 8334TIP3    H125884   7.498   0.140   8.644 -0.2707 -0.5988 -1.5643
 8334TIP3    H225885   7.483   0.064   8.774  0.9318  1.0005 -0.4497
 8335TIP3   OH225886   1.175   8.042   4.680 -0.2387  0.1530  0.7468
 8335TIP3    H125887   1.155   8.100   4.607  1.5702  0.7827  0.7011
 8335TIP3    H225888   1.227   8.096   4.741 -0.8822 -0.6282  2.0446
 8336TIP3   OH225889  10.619   9.554   3.500  0.2114  0.4622  0.2578
 8336TIP3    H125890  10.663   9.484   3.451  0.2684  0.6250  0.0785
 8336TIP3    H225891  10.611   9.519   3.589  1.3872  0.7318  0.4838
 8337TIP3   OH225892   3.682   2.927   8.270 -0.4372  0.0072  0.5866
 8337TIP3    H125893   3.690   2.939   8.175  1.3387 -0.3287  0.6513
 8337TIP3    H225894   3.767   2.892   8.296 -0.9278  0.0289  2.3029
 8338TIP3   OH225895   4.481   1.244   5.134  0.3700 -0.1469  0.4355
 8338TIP3    H125896   4.409   1.269   5.076  0.8459  0.2599  0.0210
 8338TIP3    H225897   4.495   1.322   5.188  1.7259  0.4452 -0.7263
 8339TIP3   OH225898   7.409   4.662   4.561 -0.3575  0.3817 -0.5192
 8339TIP3    H125899   7.339   4.596   4.564  0.2121 -0.2355 -0.5978
 8339TIP3    H225900   7.417   4.693   4.651 -1.5408  1.3322 -0.7125
 8340TIP3   OH225901   7.166   2.532   4.249  0.0383  0.2607 -0.0596
 8340TIP3    H125902   7.230   2.489   4.305  0.3006 -1.3880 -1.5305
 8340TIP3    H225903   7.193   2.624   4.245  2.7173 -0.4957 -1.1343
 8341TIP3   OH225904   2.637   0.420  10.424  0.2803  0.4193 -0.3702
 8341TIP3    H125905   2.683   0.374  10.495 -1.2439  2.1107  1.8599
 8341TIP3    H225906   2.707   0.468  10.378  1.1296  0.7913  1.2212
 8342TIP3   OH225907   3.709   8.680   7.513  0.4782 -0.5828 -0.5158
 8342TIP3    H125908   3.659   8.715   7.440  0.4686  0.5915  0.0243
 8342TIP3    H225909   3.788   8.643   7.473  0.2965 -0.2913 -1.1501
 8343TIP3   OH225910   1.273   7.316   3.615  0.4748  0.0747 -0.0435
 8343TIP3    H125911   1.289   7.410   3.622 -0.8882  0.2780  0.5338
 8343TIP3    H225912   1.178   7.307   3.620  0.5666 -1.3154 -0.3783
 8344TIP3   OH225913  10.874   9.112   9.121  0.2217 -0.2498  0.2341
 8344TIP3    H125914  10.893   9.186   9.179  0.2579 -0.1768  0.1302
 8344TIP3    H225915  10.909   9.035   9.167  1.5513 -0.0163 -0.3363
 8345TIP3   OH225916   8.395   9.168  10.166  0.4419 -0.5797  0.1526
 8345TIP3    H125917   8.411   9.258  10.194  2.6758 -0.7409 -0.3644
 8345TIP3    H225918   8.481   9.126  10.172 -0.2407 -2.2570 -1.0719
 8346TIP3   OH225919  10.611   7.531   1.503  0.0795 -0.2995 -0.1783
 8346TIP3    H125920  10.622   7.450   1.553  2.3497 -0.4970 -0.8766
 8346TIP3    H225921  10.610   7.502   1.411  0.2778  0.4031 -0.4047
 8347TIP3   OH225922   6.949   3.550   1.829 -0.3963 -0.2601  0.3924
 8347TIP3    H125923   6.980   3.491   1.759 -0.3038  0.0650  0.1564
 8347TIP3    H225924   6.992   3.633   1.811 -0.9636  0.0401  0.3945
 8348TIP3   OH225925   3.602   3.237   6.374  0.1936  0.0300 -0.2581
 8348TIP3    H125926   3.613   3.257   6.467 -0.4785  0.1436 -0.1928
 8348TIP3    H225927   3.559   3.315   6.338 -3.3479 -1.4921  0.1854
 8349TIP3   OH225928   5.881   0.498   7.918  0.1660 -0.4928  0.1815
 8349TIP3    H125929   5.834   0.581   7.921  0.3524 -0.3568 -0.5300
 8349TIP3    H225930   5.900   0.483   7.826 -1.1610 -2.0775  0.1158
 8350TIP3   OH225931   3.799   9.078   7.342 -0.0929  0.8680 -0.0906
 8350TIP3    H125932   3.737   9.054   7.273  0.3861  1.1756 -0.6350
 8350TIP3    H225933   3.768   9.164   7.372  0.4816  1.3547 -0.8629
 8351TIP3   OH225934   2.022   7.436   3.798 -0.4450  0.7094  0.3458
 8351TIP3    H125935   1.975   7.519   3.790 -0.5638  0.5932 -0.1847
 8351TIP3    H225936   2.079   7.448   3.874  0.6008  1.8048 -0.5718
 8352TIP3   OH225937   8.071   9.079   5.631  0.8834  0.6188  0.2279
 8352TIP3    H125938   8.140   9.060   5.568 -0.1825 -1.5246 -0.3728
 8352TIP3    H225939   8.103   9.044   5.714  1.2290  1.2214  0.3611
 8353TIP3   OH225940   1.527   4.737   5.226 -0.3433 -0.3553  0.4506
 8353TIP3    H125941   1.525   4.830   5.248 -1.4830  0.0448 -1.1404
 8353TIP3    H225942   1.439   4.719   5.192  0.5694 -1.4291 -1.4775
 8354TIP3   OH225943   3.318   9.119   5.849  0.2092  0.3081 -0.0598
 8354TIP3    H125944   3.263   9.090   5.777 -0.1600  0.4300  0.1703
 8354TIP3    H225945   3.404   9.082   5.830 -0.6318 -2.5263  1.1707
 8355TIP3   OH225946   5.228   2.210   0.235  0.3790 -0.3448  0.3131
 8355TIP3    H125947   5.158   2.145   0.249  1.0327 -0.8324  1.4309
 8355TIP3    H225948   5.205   2.252   0.152 -1.0990 -0.6843  0.5211
 8356TIP3   OH225949   8.271   6.848   9.936 -0.0320 -0.3118 -0.1561
 8356TIP3    H125950   8.229   6.839   9.851 -0.3969 -2.2749  0.1814
 8356TIP3    H225951   8.311   6.762   9.952 -0.0279  0.0006  1.6807
 8357TIP3   OH225952   4.195   0.975   9.892  0.1356 -0.3672  0.3390
 8357TIP3    H125953   4.235   0.982   9.979 -1.2765 -1.6877  1.1191
 8357TIP3    H225954   4.137   0.900   9.897 -0.3931 -0.1498 -1.6061
 8358TIP3   OH225955   7.463   1.044   0.153  0.5333  0.1460  0.5936
 8358TIP3    H125956   7.419   0.967   0.117  0.9217  0.3712 -0.4137
 8358TIP3    H225957   7.432   1.050   0.243 -0.5468 -0.4091  0.2768
 8359TIP3   OH225958   3.249   0.464   2.255 -0.6940  0.0180 -0.1821
 8359TIP3    H125959   3.306   0.541   2.265  3.4313 -2.6682 -0.6687
 8359TIP3    H225960   3.243   0.452   2.160 -1.2292 -0.3397 -0.1045
 8360TIP3   OH225961   2.852   2.991   7.823 -0.2025 -0.3354 -0.2020
 8360TIP3    H125962   2.782   2.933   7.852 -1.7860  1.8299  0.5038
 8360TIP3    H225963   2.895   3.020   7.903  0.3176 -0.1816 -0.5248
 8361TIP3   OH225964   7.306   8.756   4.438  0.1508 -0.1243  0.1303
 8361TIP3    H125965   7.239   8.803   4.389  0.2379 -0.7609 -0.6177
 8361TIP3    H225966   7.389   8.785   4.401  0.2376 -0.2841  0.1963
 8362TIP3   OH225967   8.171   9.297   8.667 -0.0439  0.5779  0.0338
 8362TIP3    H125968   8.246   9.324   8.719 -1.3931  1.8406  1.4432
 8362TIP3    H225969   8.147   9.211   8.701 -0.3899  1.0228  0.9393
 8363TIP3   OH225970   6.727   6.685   2.533 -0.5865 -0.2985 -0.2695
 8363TIP3    H125971   6.760   6.597   2.521  1.0382  0.2153  0.1450
 8363TIP3    H225972   6.785   6.741   2.481 -2.7312  0.3911 -2.0884
 8364TIP3   OH225973   9.851   7.247   7.360  0.1080 -0.4293  0.0002
 8364TIP3    H125974   9.791   7.262   7.433 -0.1935 -0.7063 -0.1928
 8364TIP3    H225975   9.795   7.231   7.285  0.4217 -2.1147  0.0989
 8365TIP3   OH225976   4.704   2.692   8.754 -0.0537  0.3682 -0.1262
 8365TIP3    H125977   4.705   2.598   8.771 -0.3465  0.3898  0.0220
 8365TIP3    H225978   4.720   2.699   8.660  0.8903  0.2159  0.0058
 8366TIP3   OH225979   1.919  10.521   8.517 -0.1167  0.4145  0.1415
 8366TIP3    H125980   1.998  10.572   8.532  0.6850 -0.5591 -0.5971
 8366TIP3    H225981   1.948  10.430   8.524 -1.1803  0.0390 -0.1322
 8367TIP3   OH225982   3.288   8.668   8.063 -0.2711  0.1200 -0.0461
 8367TIP3    H125983   3.341   8.667   7.983 -0.3149  0.8659 -0.0942
 8367TIP3    H225984   3.200   8.693   8.033 -1.2423 -3.1587 -0.2736
 8368TIP3   OH225985   6.637   2.206   9.964  0.0787 -0.4705 -0.3707
 8368TIP3    H125986   6.676   2.285  10.001 -2.5236  1.6155 -1.7391
 8368TIP3    H225987   6.570   2.181  10.027 -0.3414 -0.4681 -0.8134
 8369TIP3   OH225988   2.488   3.002  10.903  0.2571  0.6468 -0.1732
 8369TIP3    H125989   2.500   2.912  10.874  0.1708 -0.3609  2.5922
 8369TIP3    H225990   2.551   3.053  10.852  1.9756 -1.3715 -0.1744
 8370TIP3   OH225991   4.060   7.777   2.775  0.7081 -0.4062  0.5139
 8370TIP3    H125992   4.131   7.825   2.818  0.5842 -0.1051  0.3914
 8370TIP3    H225993   4.002   7.846   2.743  1.0830 -0.5939 -0.6148
 8371TIP3   OH225994   8.841  10.815   1.219 -0.0404  0.7084 -0.0355
 8371TIP3    H125995   8.854  10.778   1.132  0.0934  0.2286  0.1808
 8371TIP3    H225996   8.872  10.905   1.213  1.1717  0.2931 -0.1550
 8372TIP3   OH225997   7.912   2.863   8.155  0.0879 -0.1588  0.0855
 8372TIP3    H125998   7.895   2.811   8.077 -2.9355  1.6195 -0.6359
 8372TIP3    H225999   7.871   2.814   8.227 -1.3759  0.3763 -0.3348
 8373TIP3   OH226000   3.944   8.027   2.262  0.4006 -0.0276 -0.2648
 8373TIP3    H126001   4.007   8.078   2.314 -0.6856  0.2410  0.8198
 8373TIP3    H226002   3.872   8.087   2.246  0.9660  0.1120 -2.7022
 8374TIP3   OH226003   1.269   1.099   9.465  0.3436 -0.3414 -0.4549
 8374TIP3    H126004   1.223   1.179   9.441  1.9543  0.6069 -0.5488
 8374TIP3    H226005   1.208   1.051   9.521 -0.1437  1.6390  0.7897
 8375TIP3   OH226006   1.670  10.868   7.889 -0.0504  0.0257 -0.4752
 8375TIP3    H126007   1.748  10.873   7.834  0.4553  0.5066  0.2742
 8375TIP3    H226008   1.688  10.795   7.948 -0.4055 -0.2088 -0.6546
 8376TIP3   OH226009  10.898   0.662   3.013 -0.0562 -0.0191  0.0143
 8376TIP3    H126010  10.973   0.607   2.992 -0.2453 -0.0957 -0.4824
 8376TIP3    H226011  10.896   0.728   2.943 -0.9937 -0.5772 -0.5152
 8377TIP3   OH226012   4.679   4.409   7.156 -0.2573  0.3520 -0.6117
 8377TIP3    H126013   4.639   4.398   7.070  0.1488 -1.7352 -0.6038
 8377TIP3    H226014   4.758   4.460   7.139  0.0857 -0.4570 -1.6000
 8378TIP3   OH226015   9.068   9.123   8.605 -0.1257 -0.2564 -0.3707
 8378TIP3    H126016   9.078   9.153   8.695  1.8002 -1.2593 -0.1788
 8378TIP3    H226017   9.088   9.200   8.552 -1.1300  0.3040  0.0552
 8379TIP3   OH226018   6.929   7.849   7.755  0.3162  0.0126 -0.1467
 8379TIP3    H126019   6.978   7.831   7.675  1.1787  1.2490  0.0726
 8379TIP3    H226020   6.886   7.933   7.739  0.8876  0.5194  0.8271
 8380TIP3   OH226021   6.554   7.058  10.686 -0.6837  0.3015 -0.0388
 8380TIP3    H126022   6.635   7.052  10.737  0.0685  2.1493 -0.9459
 8380TIP3    H226023   6.516   7.142  10.711 -1.0540  0.5752 -1.4493
 8381TIP3   OH226024   4.174   9.384   2.654 -0.0953 -1.1678  0.0035
 8381TIP3    H126025   4.183   9.302   2.605  1.9519 -1.2322  0.4040
 8381TIP3    H226026   4.262   9.401   2.689  0.0306  2.1059 -1.5080
 8382TIP3   OH226027   5.664   3.654   0.960 -0.1650  0.1620 -0.1665
 8382TIP3    H126028   5.712   3.658   0.877  0.8811 -1.8966  0.2539
 8382TIP3    H226029   5.623   3.740   0.968 -1.1976  0.1104 -3.3061
 8383TIP3   OH226030   9.804   0.364  10.087  0.8074 -0.1249  0.2317
 8383TIP3    H126031   9.842   0.279  10.111  1.0874  0.0179  0.2904
 8383TIP3    H226032   9.810   0.416  10.167 -0.1294 -0.3184  0.4467
 8384TIP3   OH226033   7.956   8.623  10.077 -0.1892 -0.1601  0.2707
 8384TIP3    H126034   7.872   8.578  10.090 -1.2070  1.2078 -1.1195
 8384TIP3    H226035   8.012   8.557  10.035 -0.9725 -0.7228  0.0788
 8385TIP3   OH226036   5.812   6.778   6.409 -0.0011 -0.3647 -0.1419
 8385TIP3    H126037   5.895   6.819   6.435  0.0008  0.5210 -1.4569
 8385TIP3    H226038   5.747   6.847   6.422 -0.6251 -1.1679  1.2359
 8386TIP3   OH226039   7.294  10.402   2.422 -0.2487 -0.2581 -0.0863
 8386TIP3    H126040   7.389  10.406   2.409 -0.3418  1.0066 -0.5503
 8386TIP3    H226041   7.263  10.490   2.399 -1.8118 -1.2742 -2.2136
 8387TIP3   OH226042   7.907  10.596   3.103  0.4714 -0.5460  0.3012
 8387TIP3    H126043   7.834  10.651   3.078  1.0028  0.2535  0.4814
 8387TIP3    H226044   7.917  10.534   3.030 -0.0589 -0.3329  0.0478
 8388TIP3   OH226045   6.970   7.680  10.681  0.0942  0.1997  0.2479
 8388TIP3    H126046   6.958   7.648  10.591 -0.0618 -0.4673  0.4999
 8388TIP3    H226047   6.882   7.686  10.717  0.2448 -1.4472  0.9919
 8389TIP3   OH226048   4.773   0.363   0.291 -0.3094 -0.5992 -0.0730
 8389TIP3    H126049   4.755   0.447   0.334 -2.0274 -0.9717  0.0307
 8389TIP3    H226050   4.867   0.351   0.300 -0.2156  0.7024  1.0584
 8390TIP3   OH226051   4.323   9.497   7.165 -0.0198  0.4271  0.4820
 8390TIP3    H126052   4.351   9.429   7.226 -0.7057  1.4972  2.0789
 8390TIP3    H226053   4.269   9.556   7.218  0.2235  1.9931 -0.9178
 8391TIP3   OH226054  10.711   6.155  10.592  0.1607  0.0379 -0.0489
 8391TIP3    H126055  10.779   6.133  10.655  1.7331 -0.9315 -1.9831
 8391TIP3    H226056  10.748   6.227  10.541 -0.6171  0.0667 -0.5924
 8392TIP3   OH226057   1.050   3.303  10.777  0.0163 -0.3304  0.1541
 8392TIP3    H126058   1.087   3.352  10.851 -0.1022 -1.8578  1.2711
 8392TIP3    H226059   1.102   3.223  10.773 -0.1859 -0.4092 -1.2431
 8393TIP3   OH226060   0.380   1.359   0.445  0.2356  0.0396 -0.6100
 8393TIP3    H126061   0.355   1.403   0.527  2.8540  0.1690  0.2314
 8393TIP3    H226062   0.391   1.430   0.382  0.6686  0.2199 -0.3392
 8394TIP3   OH226063   2.885   8.209   8.240  0.2888  0.0378  0.1651
 8394TIP3    H126064   2.873   8.147   8.169  2.8768  0.4885 -0.7609
 8394TIP3    H226065   2.924   8.286   8.199 -1.1601  1.6248  1.5779
 8395TIP3   OH226066   2.301  10.581   3.890  0.1864 -0.3023 -0.0770
 8395TIP3    H126067   2.307  10.539   3.804 -1.8178  1.6141 -1.2704
 8395TIP3    H226068   2.208  10.585   3.908  0.5399 -0.0139  1.8775
 8396TIP3   OH226069   1.589   6.685   2.485 -0.2344 -0.1672  0.1508
 8396TIP3    H126070   1.559   6.621   2.550 -1.0508  0.1848  0.1382
 8396TIP3    H226071   1.535   6.763   2.501 -1.0086 -0.3398 -1.4452
 8397TIP3   OH226072   9.233   8.565   1.075 -0.1376 -0.5911 -0.4270
 8397TIP3    H126073   9.264   8.477   1.095 -1.2482 -0.5690  1.6711
 8397TIP3    H226074   9.283   8.622   1.134 -0.5926  0.0016 -0.6084
 8398TIP3   OH226075   5.798   2.045   8.877  0.0212 -0.4962 -0.4544
 8398TIP3    H126076   5.872   2.099   8.906 -0.6937 -0.0927  0.6938
 8398TIP3    H226077   5.805   1.965   8.928 -0.4770 -0.3520 -0.1559
 8399TIP3   OH226078   6.257   6.342   4.189 -0.0466  0.2431 -0.3302
 8399TIP3    H126079   6.284   6.420   4.237  1.1712  0.4481 -1.2836
 8399TIP3    H226080   6.270   6.364   4.097 -0.7104 -0.7159 -0.6740
 8400TIP3   OH226081   2.668   4.526   1.927  0.4492  0.7412  0.0578
 8400TIP3    H126082   2.606   4.516   2.000  0.1629  2.6713  0.1171
 8400TIP3    H226083   2.689   4.619   1.925  1.7720  0.4575 -1.2800
 8401TIP3   OH226084   9.874   3.929   3.068  0.1370 -0.1215  0.1770
 8401TIP3    H126085   9.946   3.982   3.102  0.1333  0.6563 -0.9973
 8401TIP3    H226086   9.845   3.878   3.144  1.0779  0.4960  0.9797
 8402TIP3   OH226087   4.798   9.399   6.413 -0.2649  0.1150 -0.3265
 8402TIP3    H126088   4.730   9.414   6.347  0.1746  3.2096 -0.2034
 8402TIP3    H226089   4.870   9.358   6.364 -1.4718 -1.5799 -0.8032
 8403TIP3   OH226090   4.807   9.407   4.816  0.3746 -0.6335 -0.0739
 8403TIP3    H126091   4.872   9.427   4.884 -1.6209 -3.1143  2.8183
 8403TIP3    H226092   4.730   9.459   4.840  0.2994  0.1310 -1.8056
 8404TIP3   OH226093   8.174   1.033   9.453  0.2558 -0.5136  0.0346
 8404TIP3    H126094   8.148   1.034   9.545  0.3366 -2.6145  0.1085
 8404TIP3    H226095   8.206   0.944   9.437 -0.5762 -0.4633 -2.2590
 8405TIP3   OH226096   5.816   7.882  10.674  0.3409  0.3954  0.0168
 8405TIP3    H126097   5.803   7.887  10.769 -1.4524 -0.8420 -0.1193
 8405TIP3    H226098   5.765   7.956  10.640 -1.5162 -0.8778 -0.1201
 8406TIP3   OH226099   9.071   0.355   9.657  0.3126  0.0194 -0.3444
 8406TIP3    H126100   9.030   0.408   9.725  0.1204  0.0957 -0.5193
 8406TIP3    H226101   9.124   0.291   9.705  1.2024  0.8845 -0.1514
 8407TIP3   OH226102   7.143   0.315   7.235 -0.8523 -0.9133 -0.2541
 8407TIP3    H126103   7.051   0.297   7.216 -0.9891 -0.3421 -0.1309
 8407TIP3    H226104   7.142   0.383   7.302 -0.3411  0.2528 -1.3782
 8408TIP3   OH226105   6.311   6.580   7.379 -0.6477  0.1815 -0.4371
 8408TIP3    H126106   6.307   6.639   7.455  1.8591 -2.3239  1.8739
 8408TIP3    H226107   6.223   6.543   7.372 -0.6682 -0.3763  2.0419
 8409TIP3   OH226108   1.083   7.518  10.174  0.6324  0.8000  0.1338
 8409TIP3    H126109   1.022   7.506  10.101  0.3404  1.4782  0.2531
 8409TIP3    H226110   1.097   7.613  10.177  1.9652  0.6263 -0.1029
 8410TIP3   OH226111   9.040   4.518   8.550 -0.2536 -0.2371 -1.2164
 8410TIP3    H126112   9.120   4.544   8.596 -0.9748 -0.3308  0.1559
 8410TIP3    H226113   9.070   4.471   8.472  1.0182  0.5243 -1.1997
 8411TIP3   OH226114   0.037   3.627   7.528  0.0781  0.3450 -0.3479
 8411TIP3    H126115  -0.002   3.544   7.499  1.8405 -1.5629  2.2526
 8411TIP3    H226116   0.106   3.645   7.465  0.6975 -1.0722 -0.1175
 8412TIP3   OH226117   6.868   1.941   8.334 -0.7145 -0.3040  0.3056
 8412TIP3    H126118   6.871   1.888   8.414 -1.2060  1.1925  1.3590
 8412TIP3    H226119   6.777   1.938   8.306 -1.0890  1.2461  1.2818
 8413TIP3   OH226120   5.066   3.620   5.772 -0.0126 -0.5477  0.0413
 8413TIP3    H126121   4.986   3.573   5.796 -0.6377 -0.2853 -1.4208
 8413TIP3    H226122   5.100   3.653   5.855 -1.0972 -1.1692  0.7597
 8414TIP3   OH226123   8.996   6.693   8.594  0.1127  0.1238 -0.2868
 8414TIP3    H126124   8.948   6.776   8.588 -1.1177 -0.5260  0.2545
 8414TIP3    H226125   8.990   6.668   8.686  2.3569  0.4791  0.0241
 8415TIP3   OH226126   2.214   0.900   4.911 -0.4544  0.3555  0.2981
 8415TIP3    H126127   2.197   0.930   4.822 -1.1188 -3.5379 -1.0461
 8415TIP3    H226128   2.128   0.894   4.952 -0.3052  0.5156  0.6443
 8416TIP3   OH226129   6.509   4.780   3.963 -0.3537 -1.0410 -0.1361
 8416TIP3    H126130   6.491   4.788   4.057 -0.1526  0.8308 -0.2237
 8416TIP3    H226131   6.440   4.722   3.930 -1.2505 -0.5972  0.9292
 8417TIP3   OH226132   8.518  10.650   2.506  0.0297  0.3115 -0.4056
 8417TIP3    H126133   8.503  10.736   2.469 -0.1982 -0.7002 -2.8662
 8417TIP3    H226134   8.609  10.629   2.484  0.1381 -0.0174  0.3173
 8418TIP3   OH226135  10.761   5.689   4.930 -0.1620 -0.1832  0.0717
 8418TIP3    H126136  10.812   5.694   5.011  2.0208  0.2254 -1.2476
 8418TIP3    H226137  10.777   5.600   4.898 -2.0586 -0.7946  0.6594
 8419TIP3   OH226138  10.403   5.083  10.352  0.3605 -0.3559 -0.3734
 8419TIP3    H126139  10.411   5.077  10.447  0.6482 -0.0497 -0.3773
 8419TIP3    H226140  10.415   4.993  10.322 -0.0544 -0.5046 -0.0991
 8420TIP3   OH226141   7.437   1.395   3.846  0.2884 -0.0243  0.1471
 8420TIP3    H126142   7.370   1.345   3.891  1.0678 -0.6778  0.6033
 8420TIP3    H226143   7.417   1.487   3.867 -0.6913 -0.1755 -0.0724
 8421TIP3   OH226144   4.181  10.385   7.044 -0.4826 -0.3770 -0.3425
 8421TIP3    H126145   4.121  10.404   6.972 -1.8213  0.8879  1.0268
 8421TIP3    H226146   4.151  10.300   7.078 -1.5752  0.2394  0.3264
 8422TIP3   OH226147   4.455   8.925   6.593 -0.2886 -0.3132 -0.0627
 8422TIP3    H126148   4.444   8.968   6.508 -2.2229 -0.0915  0.2677
 8422TIP3    H226149   4.394   8.852   6.591 -1.3745  0.5069  1.6477
 8423TIP3   OH226150   8.791   5.580   9.877  0.2122 -0.3224  0.0589
 8423TIP3    H126151   8.699   5.586   9.854  0.5441  0.3705 -1.1913
 8423TIP3    H226152   8.801   5.635   9.954 -0.6908 -1.6347  1.1571
 8424TIP3   OH226153   7.678   4.298   6.996  0.7797 -0.5505 -0.2903
 8424TIP3    H126154   7.621   4.362   6.952  0.0096  0.3466  1.8788
 8424TIP3    H226155   7.619   4.229   7.025  1.0037 -0.3502  0.6722
 8425TIP3   OH226156   3.470   1.577   8.332  0.0537 -0.4226  0.1444
 8425TIP3    H126157   3.471   1.580   8.236  2.1416 -0.1325  0.1191
 8425TIP3    H226158   3.503   1.663   8.359  0.8533 -0.9921  1.0658
 8426TIP3   OH226159  10.444   3.221   8.292 -0.0403 -0.0513 -0.2528
 8426TIP3    H126160  10.454   3.292   8.356  0.9933  0.5705 -1.0629
 8426TIP3    H226161  10.534   3.195   8.271 -0.4058 -1.2647 -0.3384
 8427TIP3   OH226162   6.518   4.426   6.176 -0.3863 -0.1097  0.5914
 8427TIP3    H126163   6.473   4.352   6.136  0.7643 -1.2055  1.2255
 8427TIP3    H226164   6.461   4.453   6.248 -1.0394 -0.0643  0.0608
 8428TIP3   OH226165   0.424   0.969   9.424 -0.4296  0.1906 -0.2996
 8428TIP3    H126166   0.351   0.978   9.363 -2.0336  1.9649  1.6886
 8428TIP3    H226167   0.385   0.987   9.510  1.9666 -0.8324  1.1015
 8429TIP3   OH226168   4.704   0.921   6.181  0.3428 -0.0343  0.2482
 8429TIP3    H126169   4.750   0.837   6.176  0.5420  0.1097 -0.3537
 8429TIP3    H226170   4.731   0.957   6.266  3.0735  1.0228 -0.9572
 8430TIP3   OH226171   3.224   5.333   6.454  0.6330 -0.6154 -0.2884
 8430TIP3    H126172   3.222   5.259   6.515  0.2776 -0.3491  0.0258
 8430TIP3    H226173   3.209   5.409   6.509 -2.6318 -0.5653 -1.0483
 8431TIP3   OH226174   0.507   6.491   7.335 -0.1615  0.1756  0.4468
 8431TIP3    H126175   0.476   6.542   7.410 -1.2168  2.6567 -1.5174
 8431TIP3    H226176   0.443   6.421   7.325 -0.7525  0.6041  1.1146
 8432TIP3   OH226177   7.186   1.146   5.606 -0.2875  0.1519 -0.2090
 8432TIP3    H126178   7.254   1.186   5.552  0.5476  0.3047  0.9293
 8432TIP3    H226179   7.153   1.218   5.659  1.2587 -0.5962  1.9002
 8433TIP3   OH226180   3.278   1.213   4.672 -0.5590 -0.0305  0.4785
 8433TIP3    H126181   3.191   1.191   4.640 -0.7228  2.0444 -0.6875
 8433TIP3    H226182   3.338   1.160   4.620 -1.0375  0.2812 -0.4077
 8434TIP3   OH226183   1.656   8.301   1.191  0.3128 -0.1466 -0.0214
 8434TIP3    H126184   1.595   8.310   1.118  0.3756  0.7991  0.0350
 8434TIP3    H226185   1.733   8.259   1.153  0.3979  0.4640 -0.5381
 8435TIP3   OH226186   3.381   0.649   5.933 -0.4653 -0.1658  0.1916
 8435TIP3    H126187   3.375   0.704   5.855  0.6978  0.5940  0.6056
 8435TIP3    H226188   3.473   0.654   5.959 -1.1774  1.3319  2.8022
 8436TIP3   OH226189   5.795   9.243   7.274  0.0097  0.0224  0.6298
 8436TIP3    H126190   5.753   9.326   7.251  1.5491  0.5946 -0.2699
 8436TIP3    H226191   5.879   9.268   7.313  1.4783 -1.0642 -1.5971
 8437TIP3   OH226192   8.415  10.482   5.353 -0.2080 -0.0137 -0.7876
 8437TIP3    H126193   8.475  10.460   5.282  0.0207 -0.1221 -0.5614
 8437TIP3    H226194   8.471  10.507   5.426 -0.4441  0.1861 -0.6712
 8438TIP3   OH226195   4.009   5.420   0.560  0.0964 -0.0874  0.0083
 8438TIP3    H126196   4.020   5.476   0.483 -1.9689  0.5582  0.1320
 8438TIP3    H226197   3.918   5.390   0.555 -0.3805  0.7002  2.6549
 8439TIP3   OH226198   0.687   4.163   7.096 -0.0546  0.6685  0.2551
 8439TIP3    H126199   0.615   4.226   7.101  0.3813  1.0905  3.3495
 8439TIP3    H226200   0.765   4.216   7.083  0.2526  0.8323  2.3664
 8440TIP3   OH226201   3.361   4.391   6.205  0.3241 -0.2585 -0.2310
 8440TIP3    H126202   3.326   4.478   6.185 -0.5833 -0.5185  0.1720
 8440TIP3    H226203   3.298   4.353   6.267 -0.0271 -1.7073 -1.3828
 8441TIP3   OH226204   7.020   5.445   0.843 -0.0784  0.8198 -0.1263
 8441TIP3    H126205   7.076   5.431   0.920  0.0867 -1.3356 -0.5749
 8441TIP3    H226206   7.082   5.453   0.770 -0.2719  1.5582 -0.2105
 8442TIP3   OH226207   9.300   5.243   5.341  0.7401 -0.1472 -0.5488
 8442TIP3    H126208   9.258   5.232   5.426  1.1428 -2.4311 -0.5868
 8442TIP3    H226209   9.232   5.282   5.286 -0.3973 -1.0856  0.1452
 8443TIP3   OH226210   9.976   3.710   4.900  0.3169 -0.4258 -0.4772
 8443TIP3    H126211   9.943   3.765   4.971 -0.4266 -0.5144 -0.7437
 8443TIP3    H226212   9.973   3.766   4.822  0.6472 -0.4863 -0.5355
 8444TIP3   OH226213   4.173   5.912   8.364 -0.2249 -0.5783 -0.4216
 8444TIP3    H126214   4.094   5.956   8.395  0.0442  0.2131 -0.8111
 8444TIP3    H226215   4.239   5.981   8.362  0.4779 -1.2228 -0.1197
 8445TIP3   OH226216   3.374   2.211   3.486 -0.3102  0.3955 -0.0069
 8445TIP3    H126217   3.350   2.127   3.525 -3.4094  1.3657  0.4369
 8445TIP3    H226218   3.411   2.261   3.558 -0.7441  0.2482  0.3226
 8446TIP3   OH226219  10.887   9.422   8.104 -0.4350 -0.5420  0.0683
 8446TIP3    H126220  10.892   9.450   8.012 -0.1649  0.7873  0.4649
 8446TIP3    H226221  10.872   9.328   8.099 -0.4147 -0.5002 -1.3430
 8447TIP3   OH226222   2.435   2.246   0.014  0.1084  0.1207  0.1789
 8447TIP3    H126223   2.506   2.283   0.066 -1.0076  1.2029  0.9828
 8447TIP3    H226224   2.377   2.206   0.078 -0.8431  0.6938 -0.3097
 8448TIP3   OH226225   4.232   8.696   4.394  0.2676 -0.5551 -0.0622
 8448TIP3    H126226   4.304   8.638   4.419  0.1617 -0.6924 -0.0714
 8448TIP3    H226227   4.185   8.714   4.475  1.4306  1.1117  0.2965
 8449TIP3   OH226228   8.113   2.227   9.589  0.6058 -0.4790  0.4770
 8449TIP3    H126229   8.208   2.231   9.604  0.3933  1.5121  1.6169
 8449TIP3    H226230   8.083   2.317   9.599 -1.5606 -1.2118  1.1854
 8450TIP3   OH226231   6.161   4.222   6.276 -0.0765  0.8572  0.4089
 8450TIP3    H126232   6.124   4.261   6.197  0.0180  0.0510 -0.0302
 8450TIP3    H226233   6.147   4.128   6.267 -2.2580  0.8749  2.4485
 8451TIP3   OH226234   8.284   7.600   2.688  0.1139  0.1362  0.2765
 8451TIP3    H126235   8.304   7.633   2.600  2.1677  0.4902  0.8087
 8451TIP3    H226236   8.304   7.506   2.683  1.1893  0.3356  0.5928
 8452TIP3   OH226237  10.032   6.369   2.543  0.3462 -0.0684  0.3192
 8452TIP3    H126238  10.095   6.439   2.525  0.9699 -0.6351  0.2231
 8452TIP3    H226239  10.078   6.289   2.516 -1.8535 -0.2266 -3.5919
 8453TIP3   OH226240   7.569   1.850   8.185  0.2593 -0.2467 -0.4164
 8453TIP3    H126241   7.555   1.938   8.149  2.1713  0.3195  0.1092
 8453TIP3    H226242   7.604   1.865   8.272  0.1791 -1.5541 -0.1438
 8454TIP3   OH226243  10.197   5.699   3.589  0.6671  0.0659 -0.0340
 8454TIP3    H126244  10.233   5.723   3.503  2.7616  1.7722  1.2199
 8454TIP3    H226245  10.134   5.769   3.608 -1.5863 -1.5565 -1.1070
 8455TIP3   OH226246   9.063   2.648   2.025  0.4673  0.1802 -0.0197
 8455TIP3    H126247   8.975   2.664   1.989  0.7122  0.4433 -0.5064
 8455TIP3    H226248   9.056   2.677   2.116 -0.7264 -2.3243  0.7627
 8456TIP3   OH226249   1.823   0.390   9.760  0.1419  0.1909  0.0273
 8456TIP3    H126250   1.758   0.364   9.695 -0.6960  1.8387  0.1615
 8456TIP3    H226251   1.795   0.476   9.790  1.5270  0.2670  1.2514
 8457TIP3   OH226252   0.435   1.670   5.718 -0.3082  0.2843  0.3197
 8457TIP3    H126253   0.500   1.652   5.786 -0.6362 -1.5560  0.1868
 8457TIP3    H226254   0.376   1.595   5.721 -0.7594  0.5290 -1.4925
 8458TIP3   OH226255   0.553   2.486   1.624  0.0773  0.4913  0.9293
 8458TIP3    H126256   0.541   2.570   1.580  2.3555  0.3472 -0.1276
 8458TIP3    H226257   0.505   2.424   1.569 -0.5498  0.9158  0.9899
 8459TIP3   OH226258   5.104   5.798   7.614 -0.6366 -0.2487  0.0655
 8459TIP3    H126259   5.186   5.844   7.630 -1.3263  1.1192 -0.2129
 8459TIP3    H226260   5.121   5.744   7.536  0.5418 -1.4313  1.1013
 8460TIP3   OH226261   2.157   0.304   4.817 -0.1409 -0.6452  0.1623
 8460TIP3    H126262   2.097   0.341   4.751 -0.9094  0.7418  1.5561
 8460TIP3    H226263   2.243   0.337   4.791 -0.0811 -1.8067 -1.2759
 8461TIP3   OH226264  10.840   5.890   0.881 -0.1095 -0.1199  0.2074
 8461TIP3    H126265  10.824   5.983   0.898 -2.9397  0.1825 -3.0479
 8461TIP3    H226266  10.778   5.844   0.938  1.2739 -0.0949  1.8000
 8462TIP3   OH226267   3.435   2.346   3.724  0.3824  0.1086  0.4752
 8462TIP3    H126268   3.526   2.374   3.737  0.1637  0.1477  2.0930
 8462TIP3    H226269   3.416   2.290   3.799 -0.5659 -0.8829 -0.4785
 8463TIP3   OH226270   9.236   7.472   4.346 -0.0423  0.1671 -0.3411
 8463TIP3    H126271   9.266   7.563   4.341 -0.8732  0.5131  0.6214
 8463TIP3    H226272   9.157   7.470   4.293  0.2756 -0.1477 -0.8191
 8464TIP3   OH226273   1.429   7.054   0.546  0.0410  0.0600 -0.0139
 8464TIP3    H126274   1.509   7.106   0.540  1.6267 -2.2073  0.3247
 8464TIP3    H226275   1.459   6.966   0.568 -2.5829 -0.8316  0.3342
 8465TIP3   OH226276  10.828  10.258   2.274 -0.0060 -0.0693 -0.0899
 8465TIP3    H126277  10.863  10.296   2.193  0.0288 -0.0783 -0.0798
 8465TIP3    H226278  10.733  10.266   2.266  0.0366  1.1079  0.4436
 8466TIP3   OH226279   3.812   0.857   3.834 -0.0797 -0.1481 -0.3012
 8466TIP3    H126280   3.772   0.773   3.856 -1.0393  0.7748  1.6937
 8466TIP3    H226281   3.903   0.849   3.864 -0.1797 -0.4400 -0.0709
 8467TIP3   OH226282   0.444   1.609   9.657  0.0112  0.5260 -0.4488
 8467TIP3    H126283   0.442   1.678   9.724 -0.3949  1.2871 -1.2260
 8467TIP3    H226284   0.375   1.549   9.682 -0.0814  0.7578 -0.1362
 8468TIP3   OH226285   1.619   2.503   2.342 -0.5160 -0.0642  0.6245
 8468TIP3    H126286   1.583   2.546   2.420 -0.1997 -2.2674  2.1047
 8468TIP3    H226287   1.645   2.416   2.374  3.9255  0.4924 -0.8592
 8469TIP3   OH226288   7.871   8.159   7.397 -0.3436  0.9528  0.6190
 8469TIP3    H126289   7.889   8.154   7.490 -0.1556  1.8239  0.6443
 8469TIP3    H226290   7.958   8.169   7.356 -0.2585 -1.1401  0.1858
 8470TIP3   OH226291   2.349   7.123  10.138  0.5122 -0.2757  0.6007
 8470TIP3    H126292   2.372   7.208  10.101  0.9283 -0.2382  0.9334
 8470TIP3    H226293   2.331   7.141  10.230  1.4657 -0.6814  0.8780
 8471TIP3   OH226294   3.413   1.944   8.810  0.4677 -0.3074  0.6365
 8471TIP3    H126295   3.383   1.972   8.896 -0.1901 -1.0874  0.6625
 8471TIP3    H226296   3.394   2.019   8.753 -1.3000 -0.6696  0.6994
 8472TIP3   OH226297   0.288   5.386   5.981 -0.4226  0.3327 -0.2741
 8472TIP3    H126298   0.285   5.471   5.937 -1.2637  0.4259 -0.0565
 8472TIP3    H226299   0.198   5.371   6.010  0.1190  0.3534  1.5691
 8473TIP3   OH226300   9.919   2.228   9.011 -0.2279  0.5705 -0.5262
 8473TIP3    H126301   9.966   2.178   8.945 -1.4425  0.3458 -1.2633
 8473TIP3    H226302   9.973   2.304   9.028  2.0075 -1.2476  1.0955
 8474TIP3   OH226303   3.826   6.842   5.375 -0.1403  0.1257 -0.2658
 8474TIP3    H126304   3.917   6.871   5.377  0.3753 -1.4326  0.8357
 8474TIP3    H226305   3.831   6.750   5.347 -1.2194 -0.3687  1.0395
 8475TIP3   OH226306   9.631   3.908   8.061 -0.3728 -0.1714  0.0060
 8475TIP3    H126307   9.616   4.002   8.054  0.5534  0.5263  4.3988
 8475TIP3    H226308   9.547   3.873   8.091 -0.5334 -0.6766 -0.9998
 8476TIP3   OH226309   2.454   6.474   5.198  0.1975 -0.1857  0.0774
 8476TIP3    H126310   2.508   6.551   5.179 -0.3470  0.7209  1.9690
 8476TIP3    H226311   2.379   6.482   5.138 -0.5789  1.6056  1.1974
 8477TIP3   OH226312   2.248   4.709   8.084  0.0768 -0.7072  0.0601
 8477TIP3    H126313   2.300   4.672   8.013  0.6655 -0.6929  0.4799
 8477TIP3    H226314   2.193   4.775   8.041 -1.9657 -2.8880 -0.9450
 8478TIP3   OH226315   6.416   3.664   2.483 -0.5473  0.3290  0.0141
 8478TIP3    H126316   6.322   3.681   2.477 -0.6563 -0.2559  0.0479
 8478TIP3    H226317   6.428   3.624   2.569  0.0413  2.3116  0.9281
 8479TIP3   OH226318   7.995   8.650   8.817 -0.3534 -0.4456 -0.0306
 8479TIP3    H126319   7.903   8.670   8.803 -0.1198  1.4732  0.8838
 8479TIP3    H226320   8.000   8.619   8.907 -0.0957 -0.5405 -0.0745
 8480TIP3   OH226321   4.977   6.695   7.082  0.2120  0.0879 -0.7041
 8480TIP3    H126322   4.929   6.616   7.061 -0.6893  0.5077 -0.2618
 8480TIP3    H226323   4.927   6.766   7.042 -0.3686  0.6773  0.9758
 8481TIP3   OH226324   3.411   1.376   5.682 -0.5877  0.1850 -0.1335
 8481TIP3    H126325   3.399   1.444   5.615 -0.9989  0.7943  0.5379
 8481TIP3    H226326   3.417   1.424   5.764 -1.4139 -0.6189  0.4206
 8482TIP3   OH226327   9.284   9.612   4.228 -0.0266 -0.3533 -0.3532
 8482TIP3    H126328   9.270   9.633   4.136 -0.7789 -1.6096 -0.5515
 8482TIP3    H226329   9.214   9.658   4.274  0.1142 -0.0375 -0.4528
 8483TIP3   OH226330  10.096   0.176   5.922 -0.6627  0.1068 -0.4802
 8483TIP3    H126331  10.186   0.188   5.951 -1.0726  0.6296  0.6317
 8483TIP3    H226332  10.101   0.106   5.857  0.4809 -0.1628 -0.1289
 8484TIP3   OH226333   9.862   5.121   1.509 -0.3020 -0.5400  0.2762
 8484TIP3    H126334   9.885   5.187   1.444  0.8518  0.2773  1.4480
 8484TIP3    H226335   9.902   5.153   1.590 -1.6190 -1.5618  1.3701
 8485TIP3   OH226336   4.965   2.744   9.298  0.5112  0.5071  0.4861
 8485TIP3    H126337   5.023   2.680   9.257  0.1563 -0.6592  1.7156
 8485TIP3    H226338   5.021   2.819   9.316  1.8134 -0.7390  2.0028
 8486TIP3   OH226339   0.892   8.722   7.588 -0.3337  0.1394 -0.2184
 8486TIP3    H126340   0.824   8.661   7.560 -0.0573  0.2743 -1.2021
 8486TIP3    H226341   0.904   8.702   7.681  0.9978 -2.5694 -0.8632
 8487TIP3   OH226342   8.744   9.907   1.730  0.1113 -0.5590 -0.2784
 8487TIP3    H126343   8.815   9.845   1.711 -0.5139 -1.4390  0.1780
 8487TIP3    H226344   8.672   9.880   1.673  0.2771  0.6186 -1.0748
 8488TIP3   OH226345   3.979   0.882   1.157  1.1707  0.5826  0.0431
 8488TIP3    H126346   4.057   0.851   1.204  1.1717  0.6137  0.0622
 8488TIP3    H226347   3.945   0.953   1.212  0.9813  0.3992  0.1642
 8489TIP3   OH226348   9.354   6.070   2.279 -0.1301  0.0323  0.0811
 8489TIP3    H126349   9.361   6.114   2.364  0.6037 -0.6557  0.3897
 8489TIP3    H226350   9.442   6.039   2.261 -0.4077 -0.3410 -0.6602
 8490TIP3   OH226351   0.958   0.898   9.947  0.1517 -0.3228 -0.2351
 8490TIP3    H126352   0.881   0.954   9.941 -0.4863 -0.7480  2.5728
 8490TIP3    H226353   0.936   0.820   9.896 -0.6444  0.2096 -0.7192
 8491TIP3   OH226354   8.934   7.745   9.060 -0.1001  0.5050 -0.0045
 8491TIP3    H126355   9.011   7.757   9.005 -0.4713 -0.7193 -0.8387
 8491TIP3    H226356   8.862   7.733   8.998 -1.0705  2.1275  0.7473
 8492TIP3   OH226357   0.830   1.540   5.754  0.3501  0.1641  0.0074
 8492TIP3    H126358   0.825   1.473   5.687 -0.7030 -0.2692  0.4935
 8492TIP3    H226359   0.923   1.549   5.774  0.5050 -1.0623 -0.1491
 8493TIP3   OH226360   5.802   1.892   2.818 -0.6009  0.5124 -0.0509
 8493TIP3    H126361   5.749   1.826   2.863  0.2136  0.7236  1.2639
 8493TIP3    H226362   5.739   1.958   2.789 -1.2427 -0.0777 -0.0347
 8494TIP3   OH226363   8.000   0.728   7.741  0.3327  0.5120  0.1722
 8494TIP3    H126364   8.044   0.668   7.802  1.2859  1.3868  0.3834
 8494TIP3    H226365   8.070   0.757   7.682 -0.8949 -1.6768 -2.5552
 8495TIP3   OH226366   0.026   2.141   3.387 -0.1291  0.2598 -0.1747
 8495TIP3    H126367   0.032   2.196   3.309  1.3477  0.7930  0.2790
 8495TIP3    H226368   0.081   2.186   3.452  0.8420 -1.5498  0.3230
 8496TIP3   OH226369   6.674   1.471   8.721  0.1328 -0.1907 -0.0783
 8496TIP3    H126370   6.589   1.515   8.730  0.1750  0.1924 -1.4386
 8496TIP3    H226371   6.738   1.540   8.740  0.1743  0.0342 -1.0184
 8497TIP3   OH226372   9.044   3.131   8.795 -0.0382 -0.8370 -0.2556
 8497TIP3    H126373   9.084   3.107   8.878 -0.6180 -1.5514 -0.1718
 8497TIP3    H226374   9.073   3.063   8.734  1.1360  0.1761 -0.8788
 8498TIP3   OH226375   3.511   6.586   9.219 -0.3122 -0.3216  0.6729
 8498TIP3    H126376   3.458   6.655   9.259  0.3587  0.1543  0.7425
 8498TIP3    H226377   3.485   6.506   9.266  0.0494  0.1389  1.6739
 8499TIP3   OH226378   8.835  10.128   4.226 -0.1535  0.2008 -0.0063
 8499TIP3    H126379   8.787  10.080   4.293  1.0821 -0.1002  0.6777
 8499TIP3    H226380   8.924  10.137   4.260 -0.1076  2.1995 -0.5055
 8500TIP3   OH226381   9.447   7.751  10.167  0.7806 -0.1958 -0.0405
 8500TIP3    H126382   9.497   7.833  10.165  0.0743  0.2218 -0.7917
 8500TIP3    H226383   9.460   7.718  10.256  2.4782 -0.1521 -0.2368
 8501TIP3   OH226384  10.309   2.116   2.545  0.5069  0.3889 -0.6002
 8501TIP3    H126385  10.402   2.136   2.535  1.1403 -1.5066  0.8572
 8501TIP3    H226386  10.303   2.022   2.528 -1.0700  0.3914 -0.2023
 8502TIP3   OH226387   9.486   3.769   7.668 -0.0791  0.2600 -0.1519
 8502TIP3    H126388   9.449   3.846   7.709  3.3260  0.9606  1.9379
 8502TIP3    H226389   9.411   3.711   7.654 -2.1363  2.1125  2.3279
 8503TIP3   OH226390   0.241   0.371   3.402  0.1339 -0.7857 -0.3500
 8503TIP3    H126391   0.199   0.432   3.462  0.4958 -2.5242  1.8240
 8503TIP3    H226392   0.173   0.306   3.382  0.4187 -0.9801 -0.7015
 8504TIP3   OH226393   0.713   9.170   9.554  0.4240  0.1033  0.5461
 8504TIP3    H126394   0.668   9.204   9.477 -0.9439 -3.1472 -0.2446
 8504TIP3    H226395   0.805   9.191   9.539  0.2290 -0.5555 -2.1015
 8505TIP3   OH226396   7.595   5.835   0.912  0.0159  0.0463 -0.2979
 8505TIP3    H126397   7.623   5.750   0.947  0.7426  1.1555  2.0586
 8505TIP3    H226398   7.633   5.839   0.824 -0.2605 -2.1355 -0.5687
 8506TIP3   OH226399   4.341   7.636   3.994 -0.0446  0.3844 -0.0907
 8506TIP3    H126400   4.257   7.670   4.025 -0.2026 -1.2311  1.4096
 8506TIP3    H226401   4.351   7.673   3.906 -2.2609  0.7101 -0.2707
 8507TIP3   OH226402   9.182   4.330   2.173  0.1988 -0.9166  0.0625
 8507TIP3    H126403   9.148   4.357   2.258 -2.1466 -2.4221 -0.3045
 8507TIP3    H226404   9.253   4.391   2.155 -1.6181  1.8037  1.4239
 8508TIP3   OH226405   9.259   2.636   3.794  0.2229  0.8786  0.2687
 8508TIP3    H126406   9.205   2.591   3.730  1.5654 -0.7294  0.2032
 8508TIP3    H226407   9.349   2.612   3.772  0.7096 -0.7122  3.3543
 8509TIP3   OH226408   3.646   4.267   9.980  0.2445 -0.2717 -0.1117
 8509TIP3    H126409   3.604   4.193  10.024 -0.0263  1.5446  2.9919
 8509TIP3    H226410   3.609   4.267   9.892 -3.0080 -1.3550  1.1189
 8510TIP3   OH226411   5.928   5.151   3.764  0.1756 -0.3292  0.5129
 8510TIP3    H126412   5.962   5.078   3.815 -1.0440 -1.1499  0.2071
 8510TIP3    H226413   5.923   5.224   3.826  0.5628 -0.7509  1.0496
 8511TIP3   OH226414   3.158   9.165   7.814  0.0813 -0.8210  0.1136
 8511TIP3    H126415   3.098   9.236   7.836 -0.4606 -1.4898  0.9058
 8511TIP3    H226416   3.181   9.179   7.722  0.7392  0.8966  0.5162
 8512TIP3   OH226417   4.774   1.762   8.642 -0.4148  0.5802 -0.3835
 8512TIP3    H126418   4.798   1.783   8.733 -2.1152  0.8756  0.0287
 8512TIP3    H226419   4.837   1.810   8.589 -0.9372  2.4648  0.6190
 8513TIP3   OH226420   3.910   4.981   1.931  0.8359  0.0191 -0.2102
 8513TIP3    H126421   3.989   4.999   1.982  1.2130 -2.1522  0.0783
 8513TIP3    H226422   3.838   4.991   1.994  1.2033 -1.4816  0.4872
 8514TIP3   OH226423   7.627   5.291   5.704 -0.4810  0.2701  0.1816
 8514TIP3    H126424   7.644   5.353   5.633 -0.5361  0.7115  0.5538
 8514TIP3    H226425   7.589   5.215   5.660 -0.0383  0.3400 -0.3250
 8515TIP3   OH226426   8.155   5.866   8.888  0.2999  0.3530  0.1489
 8515TIP3    H126427   8.104   5.943   8.862  0.4665 -0.1730 -1.9424
 8515TIP3    H226428   8.212   5.849   8.813  0.1771 -1.8635  0.4928
 8516TIP3   OH226429   9.160   2.281   4.781  0.0428 -0.3491 -0.0673
 8516TIP3    H126430   9.203   2.261   4.864 -0.8055 -0.2583  0.4072
 8516TIP3    H226431   9.105   2.356   4.800  0.6301  0.3445 -0.9870
 8517TIP3   OH226432   9.435   3.639   6.422 -0.2436 -0.0082 -0.0706
 8517TIP3    H126433   9.487   3.648   6.502  2.5913 -0.4999 -1.7484
 8517TIP3    H226434   9.474   3.700   6.360 -1.0135 -1.1657 -1.7594
 8518TIP3   OH226435   5.492   7.722   5.951  0.2581  0.3333 -0.2811
 8518TIP3    H126436   5.399   7.742   5.937 -0.1604 -1.2667  0.0110
 8518TIP3    H226437   5.518   7.776   6.025 -0.6655  0.1925  0.1571
 8519TIP3   OH226438   6.168   5.279   3.542 -0.5376 -0.4785  0.1221
 8519TIP3    H126439   6.208   5.336   3.477  1.0346 -0.1647  1.2935
 8519TIP3    H226440   6.075   5.278   3.519 -0.3464  1.2055 -0.9321
 8520TIP3   OH226441   1.673   2.903   9.333  0.0540 -0.3046 -0.1980
 8520TIP3    H126442   1.667   2.816   9.373 -1.8000  0.1561  0.6510
 8520TIP3    H226443   1.582   2.928   9.317  0.5214  1.6196 -0.0945
 8521TIP3   OH226444   8.821   7.273   7.413  0.1099 -0.3988 -0.3445
 8521TIP3    H126445   8.739   7.225   7.425 -0.2647 -0.1122 -1.6456
 8521TIP3    H226446   8.865   7.267   7.498 -1.1865 -0.6927  0.3268
 8522TIP3   OH226447   8.630  10.748   7.812 -0.0162  0.2364  0.0292
 8522TIP3    H126448   8.609  10.841   7.808 -0.9074  0.0635  0.4458
 8522TIP3    H226449   8.626  10.726   7.905 -1.2822 -0.5289 -0.1869
 8523TIP3   OH226450   7.985   0.864   5.899  0.4469  0.5354 -0.1899
 8523TIP3    H126451   7.912   0.894   5.953  1.4080  0.5481  1.1384
 8523TIP3    H226452   7.970   0.769   5.890  0.0541  0.6021 -0.2849
 8524TIP3   OH226453   4.779  10.256   2.616  0.0885  0.0386  0.5330
 8524TIP3    H126454   4.870  10.257   2.646  0.3032  1.1614 -0.1028
 8524TIP3    H226455   4.763  10.345   2.586 -0.3593 -0.8032 -1.9318
 8525TIP3   OH226456   0.326   2.602   7.061  0.2125 -0.8653 -0.1162
 8525TIP3    H126457   0.330   2.670   7.128 -1.5955  2.6931 -3.2902
 8525TIP3    H226458   0.417   2.588   7.036  0.6476  0.1325  0.8375
 8526TIP3   OH226459   1.249   7.968  10.352 -0.2165  0.1497 -0.5806
 8526TIP3    H126460   1.209   8.014  10.426 -0.5119  0.1189 -0.7224
 8526TIP3    H226461   1.303   8.034  10.309  1.2411 -0.2147  0.5921
 8527TIP3   OH226462   8.083  10.643   3.312 -0.5850 -0.1315  0.2578
 8527TIP3    H126463   8.100  10.550   3.329 -1.1426 -0.1850  0.5616
 8527TIP3    H226464   8.019  10.642   3.240  2.2380  0.0959 -2.4288
 8528TIP3   OH226465   4.894   3.763   8.275 -0.4641 -0.4778 -0.2350
 8528TIP3    H126466   4.860   3.823   8.210 -0.3041 -0.2376 -0.0986
 8528TIP3    H226467   4.828   3.693   8.281 -0.3982 -0.5843 -0.7682
 8529TIP3   OH226468   3.307   3.319   3.317 -0.0417 -0.4062  0.0788
 8529TIP3    H126469   3.354   3.375   3.254  0.6999  0.2733  1.1931
 8529TIP3    H226470   3.220   3.359   3.323  0.1456  0.0086  0.0865
 8530TIP3   OH226471   0.940   4.074   0.479 -0.1590  0.4883  0.3565
 8530TIP3    H126472   0.940   4.166   0.453  3.3258  0.0963 -1.6699
 8530TIP3    H226473   0.952   4.026   0.398 -2.1501 -1.8682  1.3325
 8531TIP3   OH226474   1.907   1.493   0.446 -0.0672 -0.3237 -0.7033
 8531TIP3    H126475   1.816   1.486   0.474  0.4544 -0.1973  1.1609
 8531TIP3    H226476   1.957   1.454   0.518  1.4776  1.3869 -0.7925
 8532TIP3   OH226477   3.577   1.726   5.397  0.4559  0.1005  0.3836
 8532TIP3    H126478   3.523   1.708   5.321  0.6631  0.3416  0.1767
 8532TIP3    H226479   3.574   1.821   5.407  0.4858  0.0753  0.6332
 8533TIP3   OH226480  10.487   7.611   3.461 -0.1487  0.0098 -0.0542
 8533TIP3    H126481  10.396   7.607   3.431  0.2782  2.0786 -1.8816
 8533TIP3    H226482  10.482   7.657   3.545 -0.8465 -0.8151  0.3741
 8534TIP3   OH226483   6.337   0.604   2.336  0.2822  0.4751 -0.6231
 8534TIP3    H126484   6.329   0.533   2.272 -0.5576  0.7283 -0.8124
 8534TIP3    H226485   6.329   0.684   2.284 -0.7736  0.6826 -0.1666
 8535TIP3   OH226486   8.918   7.164  10.027  0.4371 -0.2964  0.6096
 8535TIP3    H126487   8.943   7.071  10.027 -1.4820 -0.8748  1.4952
 8535TIP3    H226488   8.830   7.164   9.989 -0.4123  0.8899  2.4544
 8536TIP3   OH226489   5.952   3.607   5.819  0.4279 -0.3593  0.5968
 8536TIP3    H126490   5.956   3.624   5.725  0.6692 -0.0357  0.6657
 8536TIP3    H226491   5.963   3.512   5.826 -3.1483 -0.9391  0.0824
 8537TIP3   OH226492   3.330   4.353   5.389  0.4206 -0.1660 -0.2562
 8537TIP3    H126493   3.312   4.333   5.481 -1.2491  0.7810 -0.3395
 8537TIP3    H226494   3.389   4.428   5.392 -0.0487  0.1933  0.0480
 8538TIP3   OH226495   3.747   9.634   0.962 -0.0261  0.0806  0.1912
 8538TIP3    H126496   3.795   9.710   0.926  0.7737 -0.2621  0.5102
 8538TIP3    H226497   3.657   9.665   0.971  0.4280  1.2434  0.9960
 8539TIP3   OH226498   8.328   5.711   6.583 -0.0683 -0.2531 -0.7913
 8539TIP3    H126499   8.316   5.799   6.546  1.8841 -0.1328 -1.2334
 8539TIP3    H226500   8.249   5.664   6.558  0.4525  0.2864 -3.8432
 8540TIP3   OH226501   9.173   2.222   8.143  0.2695 -0.0470 -0.7063
 8540TIP3    H126502   9.091   2.223   8.095 -0.3201  0.6423  0.2710
 8540TIP3    H226503   9.228   2.287   8.099  0.2372 -0.3755 -1.2441
 8541TIP3   OH226504   4.283   9.717   2.132  0.5081  0.2389  0.0047
 8541TIP3    H126505   4.284   9.626   2.163 -1.3541  0.7823  1.9558
 8541TIP3    H226506   4.318   9.713   2.044 -4.2393 -3.2858 -2.1556
 8542TIP3   OH226507   9.440   1.124   2.531 -0.1524 -0.1187  0.1586
 8542TIP3    H126508   9.347   1.103   2.529  0.0316 -1.0373  0.5101
 8542TIP3    H226509   9.483   1.040   2.512  0.6187  0.0530  1.0852
 8543TIP3   OH226510   6.954   0.493   8.455  0.0172 -0.3018  0.2968
 8543TIP3    H126511   6.860   0.496   8.472 -0.0480 -1.0355  0.1173
 8543TIP3    H226512   6.973   0.400   8.444  0.4546 -0.0448 -1.3374
 8544TIP3   OH226513   5.155   9.191   2.666  0.0031  0.3647 -0.2157
 8544TIP3    H126514   5.073   9.183   2.618  0.4697 -2.2465 -0.7062
 8544TIP3    H226515   5.142   9.267   2.723 -2.8083 -0.0673 -0.1587
 8545TIP3   OH226516   0.707   2.788   9.236 -0.6474 -0.6401  0.0197
 8545TIP3    H126517   0.734   2.744   9.155  0.3442 -0.3086  0.1628
 8545TIP3    H226518   0.731   2.880   9.223  1.1592 -0.8680  1.3516
 8546TIP3   OH226519   4.486   3.729   9.613  0.3302 -0.1004 -0.4629
 8546TIP3    H126520   4.540   3.804   9.591  0.9893 -0.6271 -0.6748
 8546TIP3    H226521   4.462   3.691   9.528  1.1784 -0.9457 -0.3444
 8547TIP3   OH226522   2.106   8.105   8.716 -0.1617 -0.5110  0.1228
 8547TIP3    H126523   2.157   8.185   8.708 -0.7497 -0.0655  0.7913
 8547TIP3    H226524   2.019   8.133   8.745 -0.1037 -1.4571  1.2914
 8548TIP3   OH226525   4.750   7.303   8.229 -0.7139 -0.3731  0.3225
 8548TIP3    H126526   4.721   7.295   8.138 -0.2697  0.3265  0.1105
 8548TIP3    H226527   4.806   7.381   8.229  0.3793 -1.1381  0.9182
 8549TIP3   OH226528   7.254   5.193   9.197  0.0205 -1.2230  0.1214
 8549TIP3    H126529   7.343   5.192   9.232 -0.6230  2.2248  2.3732
 8549TIP3    H226530   7.227   5.284   9.204 -3.7505 -2.1543 -0.3008
 8550TIP3   OH226531   0.924  10.125   8.595  0.4434 -0.0161  0.5865
 8550TIP3    H126532   1.012  10.094   8.618  0.7093  0.7229  0.5797
 8550TIP3    H226533   0.939  10.196   8.533 -0.1497  0.3730  0.8801
 8551TIP3   OH226534   2.323   0.530   3.865  0.4635  0.1738  0.4504
 8551TIP3    H126535   2.295   0.556   3.777 -0.3696 -1.5057  0.1774
 8551TIP3    H226536   2.391   0.593   3.888  0.9873  0.4227 -1.5704
 8552TIP3   OH226537   3.885   5.301   4.630 -0.6128 -0.2843  0.3221
 8552TIP3    H126538   3.857   5.332   4.543  1.0516 -0.2045 -0.2326
 8552TIP3    H226539   3.827   5.345   4.691 -1.8695 -0.3861 -0.7543
 8553TIP3   OH226540   7.096   0.535   9.332  0.2395 -0.2149  0.0261
 8553TIP3    H126541   7.120   0.589   9.256  0.5774 -1.1489 -0.5390
 8553TIP3    H226542   7.001   0.547   9.340  0.2050 -0.0890 -0.5234
 8554TIP3   OH226543   5.974   0.728   3.224  0.7722 -0.1598  0.1973
 8554TIP3    H126544   6.065   0.703   3.237  0.6151 -2.9130 -2.7570
 8554TIP3    H226545   5.977   0.811   3.178  1.9164 -0.9019 -1.1331
 8555TIP3   OH226546  10.219   6.356   3.788  0.2247 -0.3568 -0.0920
 8555TIP3    H126547  10.307   6.322   3.769 -0.1296 -1.3651  0.0048
 8555TIP3    H226548  10.234   6.445   3.820  1.2760 -0.7864  0.6714
 8556TIP3   OH226549   1.002   3.140   4.324 -0.5456 -0.6986 -0.3139
 8556TIP3    H126550   1.018   3.204   4.255 -0.2149 -0.5309 -0.0900
 8556TIP3    H226551   0.980   3.059   4.278  0.1509 -0.7178 -0.6326
 8557TIP3   OH226552   7.493   0.775   9.929  0.3892 -0.3350 -0.4722
 8557TIP3    H126553   7.553   0.714   9.888 -1.2140 -1.9450 -0.5218
 8557TIP3    H226554   7.412   0.767   9.879 -0.3196  0.7475  0.4396
 8558TIP3   OH226555   2.230   3.475   2.412  0.4244  0.7064  0.5857
 8558TIP3    H126556   2.299   3.417   2.379  1.5035  1.8387  0.7708
 8558TIP3    H226557   2.175   3.492   2.336 -0.8293 -1.7240  0.8449
 8559TIP3   OH226558   4.841   8.752   1.585  0.2489 -0.4259  0.6273
 8559TIP3    H126559   4.821   8.660   1.568 -0.3401 -0.3602  0.9461
 8559TIP3    H226560   4.790   8.774   1.663 -0.4327  0.4503 -0.0405
 8560TIP3   OH226561   8.094   2.349   6.451 -0.1200 -0.3128 -0.2830
 8560TIP3    H126562   8.122   2.380   6.365  0.1264  0.6514  0.1354
 8560TIP3    H226563   8.006   2.315   6.436 -0.3383  0.4521 -0.7929
 8561TIP3   OH226564   6.692   9.219   5.823 -0.0812 -0.2694 -0.0043
 8561TIP3    H126565   6.601   9.191   5.823 -0.4363  0.8250  0.1455
 8561TIP3    H226566   6.704   9.264   5.906  0.9525 -1.4468  0.5166
 8562TIP3   OH226567   5.218   7.104   1.338  0.2546 -0.3764 -0.2806
 8562TIP3    H126568   5.126   7.089   1.320  0.0034  1.3468 -0.6624
 8562TIP3    H226569   5.219   7.169   1.408  1.2104 -1.3149  0.6240
 8563TIP3   OH226570   3.099   6.331   2.043  0.2124  0.5549  0.1567
 8563TIP3    H126571   3.070   6.298   2.128  0.6303  1.1454  0.5346
 8563TIP3    H226572   3.017   6.350   1.996 -0.0244 -0.2903  0.2094
 8564TIP3   OH226573   2.556   1.408   9.370  0.4461  0.1384  0.3530
 8564TIP3    H126574   2.548   1.459   9.451  0.8847 -1.5617  1.5323
 8564TIP3    H226575   2.499   1.332   9.384  0.5219 -0.1747 -0.9383
 8565TIP3   OH226576   5.627   4.645   8.481 -0.0608  0.3568 -0.3200
 8565TIP3    H126577   5.692   4.580   8.453 -0.7503 -0.8788  0.8289
 8565TIP3    H226578   5.679   4.723   8.501  0.9835 -0.3446 -0.1877
 8566TIP3   OH226579   7.030   1.563   8.672  0.5300 -0.2469  0.0729
 8566TIP3    H126580   6.981   1.483   8.658  0.9688 -0.6098  0.5837
 8566TIP3    H226581   6.995   1.600   8.753  2.0110 -1.2334  1.2225
 8567TIP3   OH226582   7.224   8.111   8.870 -0.6798  0.4220  0.2888
 8567TIP3    H126583   7.176   8.030   8.885 -3.0057  1.3087 -1.7803
 8567TIP3    H226584   7.249   8.107   8.778 -0.1994  1.7521  0.3409
 8568TIP3   OH226585   9.109   2.156   8.922  0.1859 -0.7259  0.3806
 8568TIP3    H126586   9.105   2.133   9.015  0.0793 -1.1368  0.2767
 8568TIP3    H226587   9.086   2.075   8.876  2.0889 -1.0843 -0.0483
 8569TIP3   OH226588   3.654   7.382   6.794 -0.0879  0.2816  0.3158
 8569TIP3    H126589   3.656   7.380   6.698  0.2509 -2.2004  0.2955
 8569TIP3    H226590   3.634   7.291   6.819  1.0426  0.6019  2.6166
 8570TIP3   OH226591   4.975   1.327   6.293 -0.0968 -0.1956  0.2730
 8570TIP3    H126592   4.986   1.422   6.285 -0.5458 -0.0730  1.0239
 8570TIP3    H226593   5.050   1.298   6.343 -0.3018 -0.1414  0.6135
 8571TIP3   OH226594   5.062   2.409   9.872 -0.3294  0.0228 -0.4916
 8571TIP3    H126595   5.133   2.356   9.835 -0.8739 -1.3897  0.4025
 8571TIP3    H226596   5.033   2.360   9.949 -0.9447  1.5878  0.3105
 8572TIP3   OH226597   8.581  10.884   9.682 -0.0411  0.1294 -0.4796
 8572TIP3    H126598   8.595  10.979   9.674  1.9728 -0.1760 -1.2667
 8572TIP3    H226599   8.565  10.871   9.775 -0.1897  1.2324 -0.3307
 8573TIP3   OH226600   2.142   6.329   9.873 -0.0269 -0.7155  0.4735
 8573TIP3    H126601   2.078   6.295   9.809 -0.9462  1.6130  0.0644
 8573TIP3    H226602   2.147   6.422   9.854  2.7356 -0.6345  1.2299
 8574TIP3   OH226603   1.235   6.101   6.823  0.3964  0.4080  0.3020
 8574TIP3    H126604   1.278   6.165   6.765 -1.1644  1.0790 -0.1631
 8574TIP3    H226605   1.154   6.144   6.850 -0.5593 -1.2738  0.2243
 8575TIP3   OH226606   8.036   3.764  10.223  0.5112 -0.2111 -0.0166
 8575TIP3    H126607   8.129   3.783  10.207  0.3334  3.4791  2.2197
 8575TIP3    H226608   8.037   3.690  10.284  1.7981 -1.6562 -1.6758
 8576TIP3   OH226609   0.852   2.628   7.469  0.7549 -0.7559  0.0269
 8576TIP3    H126610   0.774   2.666   7.508 -0.4229  0.1415 -2.9244
 8576TIP3    H226611   0.825   2.539   7.446  1.2442 -1.0735  0.6422
 8577TIP3   OH226612   2.485   3.356   4.543 -0.0125  0.4647  0.0836
 8577TIP3    H126613   2.459   3.339   4.453  0.5408 -0.4106  0.0765
 8577TIP3    H226614   2.521   3.445   4.541 -0.2664  0.5576 -0.4988
 8578TIP3   OH226615   0.110   9.918   1.494  0.0401  0.1737 -0.3004
 8578TIP3    H126616   0.058   9.845   1.461  0.6629  0.0890 -1.1122
 8578TIP3    H226617   0.159   9.881   1.567 -0.7742  0.1689  0.2578
 8579TIP3   OH226618   0.674   4.071   7.366 -0.3086 -0.1244 -0.0084
 8579TIP3    H126619   0.702   4.141   7.425 -0.7798  0.7154 -0.7530
 8579TIP3    H226620   0.710   4.096   7.280  1.7914 -2.1585  0.1542
 8580TIP3   OH226621   7.909   3.320   2.766  0.7159  0.1306  0.9906
 8580TIP3    H126622   7.860   3.286   2.841  0.9854 -0.3965  0.9305
 8580TIP3    H226623   7.973   3.380   2.805  2.0739 -1.5086  1.3782
 8581TIP3   OH226624   7.170   9.586   3.197  0.5937  0.6308 -0.0252
 8581TIP3    H126625   7.156   9.622   3.109 -1.3059  1.9189  0.7339
 8581TIP3    H226626   7.102   9.627   3.251  0.1046 -1.9602  1.5414
 8582TIP3   OH226627   3.004   1.304  10.635  0.1788  0.8023 -0.1836
 8582TIP3    H126628   2.912   1.318  10.654  0.1239 -1.2954  1.4353
 8582TIP3    H226629   3.006   1.274  10.544 -0.6789  1.3074 -0.3720
 8583TIP3   OH226630   5.120   6.738   0.385  0.2326  0.0941 -0.0521
 8583TIP3    H126631   5.187   6.750   0.452  1.3623  0.1498 -1.1509
 8583TIP3    H226632   5.069   6.663   0.415  0.0619  0.7511  1.3665
 8584TIP3   OH226633   8.138   1.995   5.292 -0.1896 -0.0671  0.4067
 8584TIP3    H126634   8.123   1.915   5.343  0.7242 -1.2785 -1.1092
 8584TIP3    H226635   8.050   2.023   5.265 -0.5639 -0.2129  1.4585
 8585TIP3   OH226636   1.229   1.528   1.776 -0.0049 -0.2191  0.3090
 8585TIP3    H126637   1.230   1.571   1.861  0.1383 -0.0524  0.2248
 8585TIP3    H226638   1.313   1.553   1.735 -0.4380  0.4014 -0.2205
 8586TIP3   OH226639   9.183   9.957   1.925  0.3974  0.3991  0.1362
 8586TIP3    H126640   9.193   9.940   1.831  1.0398  0.2999  0.2213
 8586TIP3    H226641   9.250   9.904   1.967 -1.3176 -1.3418  0.8379
 8587TIP3   OH226642   3.426   8.041   1.425 -0.6627 -0.0350 -0.8652
 8587TIP3    H126643   3.451   8.117   1.478 -1.2523 -0.3360 -0.1271
 8587TIP3    H226644   3.363   7.994   1.480 -1.7823 -0.0292 -2.0809
 8588TIP3   OH226645   4.532   2.734   0.299 -0.5682 -0.3979  0.1407
 8588TIP3    H126646   4.449   2.782   0.298 -1.4484 -1.7693  1.6621
 8588TIP3    H226647   4.507   2.643   0.285  0.7574 -0.7604  0.0237
 8589TIP3   OH226648   6.468   2.971   9.727 -0.0534  0.4205 -0.8720
 8589TIP3    H126649   6.527   2.963   9.652 -0.4255  0.3634 -1.1589
 8589TIP3    H226650   6.389   3.013   9.692 -0.1184  0.6604 -0.4519
 8590TIP3   OH226651  10.365   7.201   3.327  0.5473  0.0439  0.1995
 8590TIP3    H126652  10.273   7.219   3.349 -0.2575 -1.5304 -1.6195
 8590TIP3    H226653  10.402   7.167   3.409 -0.4900  0.6008  0.9330
 8591TIP3   OH226654  10.018   7.292   1.874 -0.2456 -0.4482  0.3055
 8591TIP3    H126655   9.927   7.267   1.894  0.4860 -0.5785  4.5022
 8591TIP3    H226656  10.010   7.362   1.810 -3.3915 -0.0706  0.9361
 8592TIP3   OH226657   3.631   8.257   6.003  0.3131 -0.1360  0.2986
 8592TIP3    H126658   3.548   8.299   6.023  0.9631  1.0599  0.5783
 8592TIP3    H226659   3.669   8.236   6.088  1.2019  1.1994  0.2716
 8593TIP3   OH226660   2.910   9.375   5.487 -0.0960 -0.0872  0.6682
 8593TIP3    H126661   2.816   9.387   5.476 -0.1800 -1.0205  0.3565
 8593TIP3    H226662   2.918   9.294   5.537  0.5793 -0.5842 -0.2417
 8594TIP3   OH226663   0.013   9.687   1.998 -0.1164 -0.2704  0.2076
 8594TIP3    H126664  -0.059   9.629   2.024 -1.3572  1.2110  0.2132
 8594TIP3    H226665   0.023   9.673   1.904 -0.5509 -0.3453  0.1714
 8595TIP3   OH226666   8.462   9.265   7.244  0.6151  0.2627  0.7638
 8595TIP3    H126667   8.462   9.332   7.177  4.8707 -0.9131 -0.6980
 8595TIP3    H226668   8.533   9.290   7.303 -0.9235 -0.4608  3.0598
 8596TIP3   OH226669   8.784   2.293   4.758  0.1664 -0.3410  0.3100
 8596TIP3    H126670   8.834   2.343   4.694 -1.6238  0.9828 -0.1381
 8596TIP3    H226671   8.692   2.309   4.734 -0.5695  0.1052  3.1055
 8597TIP3   OH226672   3.316  10.233   2.962 -0.2735  0.4354 -0.1216
 8597TIP3    H126673   3.352  10.248   2.874  1.9255  2.1765  0.9662
 8597TIP3    H226674   3.231  10.277   2.961 -1.2239 -1.2917 -1.9188
 8598TIP3   OH226675   5.287  10.295   0.271  0.1433 -0.4413  0.7806
 8598TIP3    H126676   5.245  10.268   0.353 -0.6117 -0.3902  0.4196
 8598TIP3    H226677   5.299  10.389   0.280  0.6239 -0.5257  1.0762
 8599TIP3   OH226678   0.667   9.738  10.732 -0.1794  0.1989 -0.0616
 8599TIP3    H126679   0.687   9.667  10.793  2.6551  0.2268 -0.8372
 8599TIP3    H226680   0.622   9.803  10.786  2.1717  0.1958  2.1031
 8600TIP3   OH226681   0.234   8.333   6.765 -0.0453  0.2011 -0.1806
 8600TIP3    H126682   0.248   8.392   6.691  0.7701  0.0867 -0.1162
 8600TIP3    H226683   0.164   8.274   6.736 -2.2510  2.3376  0.4070
 8601TIP3   OH226684   9.769   9.889   5.802 -0.1031 -0.3700  0.5336
 8601TIP3    H126685   9.728   9.913   5.719 -0.6119 -2.8282  0.0095
 8601TIP3    H226686   9.697   9.860   5.858  0.4330 -0.4468  1.2054
 8602TIP3   OH226687   2.731   4.589   3.023 -0.3248 -0.1536  0.1204
 8602TIP3    H126688   2.777   4.673   3.029 -0.6613  0.0732 -0.4395
 8602TIP3    H226689   2.642   4.612   2.998 -1.3728 -0.4203  3.1773
 8603TIP3   OH226690   5.413   4.922   2.343 -0.2054  0.0174 -0.4513
 8603TIP3    H126691   5.338   4.863   2.345 -0.2801  0.1345  0.8332
 8603TIP3    H226692   5.485   4.871   2.380 -0.8159  1.3918  2.9740
 8604TIP3   OH226693   1.659  10.865  10.688  0.4188 -0.1872 -0.5107
 8604TIP3    H126694   1.681  10.931  10.754  1.0522 -0.7083 -0.1873
 8604TIP3    H226695   1.679  10.782  10.730 -3.9085 -0.9487  0.5435
 8605TIP3   OH226696  10.098   3.667   5.628 -0.2256  0.0480  0.3950
 8605TIP3    H126697  10.085   3.665   5.723  1.3545  1.9704  0.7138
 8605TIP3    H226698  10.081   3.758   5.604 -1.9224 -0.6771 -1.4400
 8606TIP3   OH226699   8.533   1.044   1.209  0.1516  0.7204 -0.1056
 8606TIP3    H126700   8.495   1.025   1.295 -1.6667 -1.0289 -1.2062
 8606TIP3    H226701   8.470   1.103   1.168 -0.6248 -0.8894 -1.3317
 8607TIP3   OH226702   7.633   4.307   2.740 -0.0057 -0.4797 -0.0311
 8607TIP3    H126703   7.669   4.235   2.689 -2.9471 -1.8445 -0.4105
 8607TIP3    H226704   7.601   4.266   2.820 -1.3942  0.4220 -0.0813
 8608TIP3   OH226705   0.922   0.426   9.434  0.3205 -0.0314  0.2786
 8608TIP3    H126706   0.877   0.467   9.508  0.5292  0.1436  0.3086
 8608TIP3    H226707   0.873   0.345   9.419  0.4164 -0.1856  0.7607
 8609TIP3   OH226708  10.335   3.471   7.956  1.0558  0.0836  0.4237
 8609TIP3    H126709  10.342   3.523   8.036  0.7743 -0.1648  0.6141
 8609TIP3    H226710  10.258   3.505   7.911 -0.9366 -2.0522  1.9807
 8610TIP3   OH226711   5.562   9.765   2.757 -0.0946 -0.8363 -0.1231
 8610TIP3    H126712   5.481   9.767   2.706 -0.8248 -0.6670  1.0156
 8610TIP3    H226713   5.606   9.847   2.734 -0.0614 -1.0835 -1.0032
 8611TIP3   OH226714   2.421   5.125   3.250 -0.4168 -0.0052 -0.2604
 8611TIP3    H126715   2.491   5.063   3.269  1.7213  1.9365 -1.2258
 8611TIP3    H226716   2.401   5.165   3.334 -1.4758 -1.6084  0.2820
 8612TIP3   OH226717   5.826   5.204   8.143 -0.3901  0.0084  0.0073
 8612TIP3    H126718   5.836   5.122   8.095 -0.0596 -1.1768  1.9847
 8612TIP3    H226719   5.745   5.192   8.193 -0.0422  0.6508  0.7371
 8613TIP3   OH226720   4.923   0.984   4.097 -0.4520  0.8195  0.3730
 8613TIP3    H126721   4.856   0.946   4.040 -0.4185  1.2494  0.0457
 8613TIP3    H226722   4.879   0.998   4.180 -0.5407  0.3173  0.4125
 8614TIP3   OH226723   7.309   2.433   0.216 -0.3829 -0.1554  0.4070
 8614TIP3    H126724   7.303   2.347   0.174 -1.0478 -0.4111  0.9979
 8614TIP3    H226725   7.323   2.413   0.309 -1.2238  0.3567  0.6577
 8615TIP3   OH226726   4.336   8.599   4.740  0.5523 -0.6326  0.2731
 8615TIP3    H126727   4.256   8.644   4.713  0.8643  0.0354  0.4519
 8615TIP3    H226728   4.385   8.587   4.658  1.4181  1.2416  0.4532
 8616TIP3   OH226729   1.239  10.031   6.375 -0.8763  0.4697  0.0065
 8616TIP3    H126730   1.250  10.032   6.280 -2.6568 -2.4135 -0.3574
 8616TIP3    H226731   1.227  10.123   6.399  4.1350  1.9617 -1.7918
 8617TIP3   OH226732   5.439   6.924   1.356 -0.2559 -0.0537  0.6811
 8617TIP3    H126733   5.370   6.988   1.337 -1.6868 -1.8283 -0.4587
 8617TIP3    H226734   5.486   6.915   1.273 -1.8500 -2.4433 -0.0615
 8618TIP3   OH226735  10.613   6.446   2.055  0.3476 -1.0177  0.5710
 8618TIP3    H126736  10.582   6.422   2.142 -1.2682 -0.5078  0.1883
 8618TIP3    H226737  10.552   6.402   1.995 -0.3014  0.8168 -0.2069
 8619TIP3   OH226738   2.271   2.810   2.871  0.5527 -0.4240 -0.6301
 8619TIP3    H126739   2.288   2.723   2.906  0.5257 -0.4098 -0.5807
 8619TIP3    H226740   2.302   2.807   2.780 -1.3253 -1.1120 -1.2827
 8620TIP3   OH226741   5.642   2.327   6.876 -0.3414  0.3035 -0.1004
 8620TIP3    H126742   5.666   2.373   6.956 -1.1144  0.4040  0.0854
 8620TIP3    H226743   5.683   2.377   6.805 -1.5318  1.5495  0.0564
 8621TIP3   OH226744   3.738   8.924   8.615  0.3545  0.4906 -0.3773
 8621TIP3    H126745   3.812   8.913   8.555  0.7018 -3.6290  0.5017
 8621TIP3    H226746   3.686   8.844   8.603 -0.4664  0.2436  3.5539
 8622TIP3   OH226747   7.915   0.245   0.515  0.6558  0.0878 -0.1478
 8622TIP3    H126748   7.936   0.331   0.551 -0.8466 -0.3253  1.8605
 8622TIP3    H226749   7.832   0.258   0.468  1.0143 -0.0426 -0.8324
 8623TIP3   OH226750   2.194   0.035   3.840  0.0443 -0.1284  0.2915
 8623TIP3    H126751   2.189   0.131   3.843 -1.2847 -0.0376 -2.1956
 8623TIP3    H226752   2.114   0.006   3.883 -0.0704 -0.1093  0.0874
 8624TIP3   OH226753   5.136   7.361   7.550 -0.2415  0.0144 -0.0045
 8624TIP3    H126754   5.198   7.310   7.498 -1.5420 -1.5265 -0.1053
 8624TIP3    H226755   5.121   7.440   7.499  0.3775 -0.3529 -0.7759
 8625TIP3   OH226756   7.384   4.592   6.801  0.2614 -0.0017 -0.1210
 8625TIP3    H126757   7.444   4.570   6.730 -0.2312  0.1135 -0.5803
 8625TIP3    H226758   7.298   4.598   6.759 -0.2391 -1.1578  0.6954
 8626TIP3   OH226759   0.292   8.504   1.545  0.4448  0.1218  0.0991
 8626TIP3    H126760   0.360   8.564   1.515  0.0144 -0.2958 -1.9152
 8626TIP3    H226761   0.332   8.455   1.616  0.5430  3.2735  2.4066
 8627TIP3   OH226762   0.391   4.376   2.177  0.7762 -0.4533 -0.1647
 8627TIP3    H126763   0.380   4.323   2.256 -2.1693  0.8198  0.4231
 8627TIP3    H226764   0.461   4.438   2.199 -0.0698 -0.0494  1.5181
 8628TIP3   OH226765   8.401   7.554   1.200 -0.2188  0.8520 -0.2921
 8628TIP3    H126766   8.489   7.567   1.164 -0.7525  1.9642 -1.2593
 8628TIP3    H226767   8.344   7.550   1.122 -1.5160  3.9809  0.3721
 8629TIP3   OH226768   2.327   0.080   1.395 -0.0903 -0.0948 -0.1203
 8629TIP3    H126769   2.412   0.080   1.351  0.7442 -0.8750  1.3959
 8629TIP3    H226770   2.265   0.105   1.327  1.2549 -0.2157 -1.4581
 8630TIP3   OH226771   0.589   4.089   2.362 -0.5735  0.0236 -0.1922
 8630TIP3    H126772   0.610   3.997   2.380 -1.7249  0.2509  3.1481
 8630TIP3    H226773   0.659   4.138   2.406 -1.6677  0.6956  0.8746
 8631TIP3   OH226774   2.796   2.876   6.487  0.4577 -0.5102  0.8228
 8631TIP3    H126775   2.810   2.875   6.582  0.5813  1.1418  0.8570
 8631TIP3    H226776   2.790   2.969   6.465 -0.9021 -0.8847 -0.6035
 8632TIP3   OH226777   4.480   7.671   0.227 -0.5960 -0.6021  0.3073
 8632TIP3    H126778   4.552   7.619   0.263 -1.6312 -1.6199  0.9658
 8632TIP3    H226779   4.417   7.678   0.298 -0.7260  1.1440  0.0585
 8633TIP3   OH226780   0.494   6.158   1.453  0.1121  0.1534 -0.1181
 8633TIP3    H126781   0.516   6.066   1.466 -0.8143 -0.0330  0.2440
 8633TIP3    H226782   0.445   6.182   1.532 -1.3357  0.4069 -1.0490
 8634TIP3   OH226783   5.779   9.447   5.460  0.1903 -0.2890  0.1766
 8634TIP3    H126784   5.845   9.383   5.437 -0.3407 -1.0584  0.7586
 8634TIP3    H226785   5.827   9.529   5.470  1.4566 -1.2291  2.8022
 8635TIP3   OH226786  10.076   1.285   8.716  0.2044  0.0853  0.3537
 8635TIP3    H126787  10.112   1.245   8.796 -0.1228 -0.6233  0.1608
 8635TIP3    H226788  10.124   1.241   8.645  0.1266  0.3379  0.1460
 8636TIP3   OH226789  10.031  10.534   9.126  0.1172 -0.5209  0.0710
 8636TIP3    H126790   9.949  10.582   9.112  0.9238  0.8845  0.0764
 8636TIP3    H226791  10.058  10.507   9.038  0.0859 -0.2406 -0.0265
 8637TIP3   OH226792   9.416   3.066   1.438 -0.0850 -0.6994  0.8072
 8637TIP3    H126793   9.428   3.008   1.513  0.1156 -0.7372  0.7466
 8637TIP3    H226794   9.462   3.022   1.366 -0.3492 -0.7083  0.6383
 8638TIP3   OH226795   9.651   4.257   1.943 -0.0255  0.5279 -0.7739
 8638TIP3    H126796   9.740   4.224   1.930 -0.8360 -0.8688 -3.3561
 8638TIP3    H226797   9.653   4.345   1.906 -0.2259 -0.4052 -3.2341
 8639TIP3   OH226798   3.841   2.202   6.617  0.1602 -0.1294 -0.6289
 8639TIP3    H126799   3.853   2.271   6.682  1.1062 -0.6928 -0.1770
 8639TIP3    H226800   3.927   2.160   6.610 -0.1643 -0.6888 -1.5545
 8640TIP3   OH226801   7.017  10.764  10.472 -0.5389 -0.4863 -0.2167
 8640TIP3    H126802   6.998  10.674  10.446  0.1019 -0.7096  0.0510
 8640TIP3    H226803   7.073  10.755  10.549 -0.9676  0.1490  0.1813
 8641TIP3   OH226804   5.021   7.617  10.462 -0.5308  0.1310  0.0876
 8641TIP3    H126805   5.048   7.577  10.379 -0.1691  1.2272 -0.3449
 8641TIP3    H226806   4.925   7.622  10.455 -0.6484 -1.2609  0.4487
 8642TIP3   OH226807   8.935   2.472   8.024 -0.4540 -0.0478 -0.2684
 8642TIP3    H126808   8.872   2.511   8.084  1.2890 -0.4321  1.9350
 8642TIP3    H226809   8.916   2.378   8.029 -0.1411 -0.1030 -0.0997
 8643TIP3   OH226810   0.153   5.950   1.759  0.3511 -0.1633 -0.7843
 8643TIP3    H126811   0.239   5.946   1.800 -1.0069 -0.2713  2.3129
 8643TIP3    H226812   0.123   5.859   1.757 -0.1483 -0.0011 -0.7626
 8644TIP3   OH226813   7.669   0.318   8.115  0.3311 -0.3938 -0.2615
 8644TIP3    H126814   7.669   0.242   8.057 -0.1578  0.8752 -2.0051
 8644TIP3    H226815   7.748   0.367   8.090  0.0394  0.2462  0.0507
 8645TIP3   OH226816   8.916   4.992   9.212  0.4698 -0.7265 -0.0908
 8645TIP3    H126817   8.898   5.021   9.123  0.8395 -1.3800 -0.3858
 8645TIP3    H226818   8.897   4.898   9.211 -0.7742 -0.5135  0.8611
 8646TIP3   OH226819   3.404   4.623   1.027 -0.0456  0.0735 -0.2658
 8646TIP3    H126820   3.316   4.584   1.031 -0.4041  0.5450 -2.4254
 8646TIP3    H226821   3.454   4.563   0.972  1.2732 -0.6059  1.5764
 8647TIP3   OH226822   9.584   0.892   7.385  0.6135 -0.5517 -0.1839
 8647TIP3    H126823   9.612   0.825   7.446 -0.5722 -0.8442  0.0685
 8647TIP3    H226824   9.623   0.973   7.418  1.0521 -0.9196  0.2084
 8648TIP3   OH226825   6.050   0.075   4.403  0.4620  0.4996 -0.1579
 8648TIP3    H126826   6.024   0.164   4.382  0.6305  0.2649 -1.4336
 8648TIP3    H226827   6.004   0.055   4.484 -0.8772  1.1663 -0.7304
 8649TIP3   OH226828   3.016   3.303   3.158  0.8692 -0.0797 -0.0933
 8649TIP3    H126829   3.105   3.314   3.123  1.7359 -2.4254  1.1500
 8649TIP3    H226830   2.979   3.230   3.108 -0.3908  0.8580 -0.5746
 8650TIP3   OH226831   1.395   0.972   1.848 -0.1244  0.1194  0.0728
 8650TIP3    H126832   1.355   0.905   1.793  1.6752 -1.1019  0.1451
 8650TIP3    H226833   1.347   0.968   1.930  0.9963 -2.3584  0.6969
 8651TIP3   OH226834   9.419   6.987   1.696 -0.1587  0.0861 -0.3404
 8651TIP3    H126835   9.488   7.050   1.677  0.9250 -0.1388  2.3748
 8651TIP3    H226836   9.363   7.032   1.760  0.3251 -1.4578  1.2261
 8652TIP3   OH226837   2.234  10.069   7.309 -0.2404  0.7037 -0.2846
 8652TIP3    H126838   2.162  10.119   7.270  0.1857 -0.0298 -2.0892
 8652TIP3    H226839   2.311  10.126   7.301 -0.1022  0.4534 -0.7402
 8653TIP3   OH226840   9.260   6.201   6.183 -0.6139 -0.0581  0.2349
 8653TIP3    H126841   9.206   6.259   6.129 -0.5602  0.5140  0.7826
 8653TIP3    H226842   9.253   6.115   6.141  1.5090  0.8613 -2.2644
 8654TIP3   OH226843   2.362   4.741   2.478 -0.2730 -0.1595 -0.0708
 8654TIP3    H126844   2.339   4.727   2.570 -2.2159 -1.1071 -0.6468
 8654TIP3    H226845   2.432   4.806   2.481  0.7948 -1.2618  2.1477
 8655TIP3   OH226846   8.813   4.790   4.283 -0.3222  0.2931  0.3909
 8655TIP3    H126847   8.855   4.875   4.290 -0.9771  0.7307 -0.7742
 8655TIP3    H226848   8.873   4.736   4.232 -1.2410  1.0133 -1.5514
 8656TIP3   OH226849  10.126   9.013   9.257  0.1241  0.1099 -0.2431
 8656TIP3    H126850  10.159   8.940   9.309 -1.8254 -0.4782  0.2603
 8656TIP3    H226851  10.134   9.089   9.314  0.3623 -0.0610 -0.0472
 8657TIP3   OH226852   8.542   1.707   1.214  0.1378  0.0712  0.2907
 8657TIP3    H126853   8.489   1.782   1.190  0.4329  0.8570  1.9306
 8657TIP3    H226854   8.566   1.666   1.131  0.0493  1.8425 -0.6445
 8658TIP3   OH226855   2.628   5.358   0.327 -0.0979  0.1220 -0.1472
 8658TIP3    H126856   2.688   5.396   0.263  0.6332 -0.1102  0.3852
 8658TIP3    H226857   2.603   5.274   0.289  0.9507 -0.3721  0.2052
 8659TIP3   OH226858   5.167   5.281   2.077 -0.1994 -0.1066 -0.0601
 8659TIP3    H126859   5.105   5.330   2.024 -0.3299 -0.7465 -0.5057
 8659TIP3    H226860   5.219   5.231   2.014  1.4337  1.1384  0.2163
 8660TIP3   OH226861   9.650   4.791  10.433  0.2694 -0.3291 -0.7793
 8660TIP3    H126862   9.680   4.826  10.517 -2.0053  1.7278 -0.7106
 8660TIP3    H226863   9.712   4.826  10.369 -1.0000  2.6979 -0.5083
 8661TIP3   OH226864   7.223   8.714  10.774 -0.5374 -0.0331 -0.7844
 8661TIP3    H126865   7.129   8.707  10.789 -0.3024 -1.1193  0.3583
 8661TIP3    H226866   7.233   8.789  10.716 -2.0788  0.2786 -0.6777
 8662TIP3   OH226867   2.350   3.887   5.891 -0.3850 -0.6180 -0.2396
 8662TIP3    H126868   2.344   3.958   5.955  2.2492 -0.5298  0.0052
 8662TIP3    H226869   2.326   3.808   5.940  0.9408 -0.4608  0.7089
 8663TIP3   OH226870   8.874   8.876   9.699  0.3195 -0.2470  0.1586
 8663TIP3    H126871   8.966   8.853   9.689  0.1805  0.0434 -2.6441
 8663TIP3    H226872   8.828   8.792   9.703  0.5283 -0.4265 -0.9731
 8664TIP3   OH226873   5.335   7.274  10.743  0.3646 -0.0692  0.0902
 8664TIP3    H126874   5.305   7.357  10.706 -0.5036  0.0762  1.0696
 8664TIP3    H226875   5.254   7.226  10.762  0.8592 -1.3215 -0.8389
 8665TIP3   OH226876  10.065   5.934   2.162 -0.3278 -0.5685 -0.3572
 8665TIP3    H126877  10.023   5.930   2.248 -0.9871  0.3042 -0.6211
 8665TIP3    H226878   9.993   5.929   2.099  0.2982 -4.7300 -1.0543
 8666TIP3   OH226879   1.658   2.644   3.881 -0.2473  0.4203 -0.8483
 8666TIP3    H126880   1.582   2.629   3.825 -0.6849  0.8408 -0.3741
 8666TIP3    H226881   1.693   2.557   3.899  0.0645  0.2908 -1.9972
 8667TIP3   OH226882   1.890   2.414   2.902 -0.0138  0.1459  0.1125
 8667TIP3    H126883   1.935   2.434   2.984  0.3305 -0.2988  0.0313
 8667TIP3    H226884   1.959   2.391   2.841 -0.3562 -0.7826  0.0542
 8668TIP3   OH226885  10.798   0.595   7.339 -0.2780 -0.5583 -0.4909
 8668TIP3    H126886  10.788   0.589   7.244  1.1147  0.8566 -0.7740
 8668TIP3    H226887  10.847   0.676   7.353  0.7686 -1.4479  1.3511
 8669TIP3   OH226888   0.124   1.511   5.280  0.0445  0.3308 -0.0133
 8669TIP3    H126889   0.170   1.594   5.294 -0.2471  0.6037 -0.6335
 8669TIP3    H226890   0.181   1.462   5.221 -0.2852  0.5220 -0.4937
 8670TIP3   OH226891  10.193   7.321   7.279 -0.6459  0.1316 -0.2291
 8670TIP3    H126892  10.185   7.279   7.364 -0.5688 -2.4198 -1.3686
 8670TIP3    H226893  10.120   7.382   7.275 -1.5688 -0.8218  1.0847
 8671TIP3   OH226894   5.486   0.761   8.192  0.0694  0.6295  0.3127
 8671TIP3    H126895   5.457   0.834   8.138 -0.1570  0.8862  0.7781
 8671TIP3    H226896   5.577   0.782   8.215  0.8203 -0.3796 -1.4984
 8672TIP3   OH226897   2.372  10.532   0.102  0.4849  0.0927  0.4671
 8672TIP3    H126898   2.358  10.592   0.028  1.0809  1.3453  1.3280
 8672TIP3    H226899   2.461  10.498   0.088  0.3540 -0.1645  0.2648
 8673TIP3   OH226900   3.589   8.032   6.352  0.5669  0.3521  0.2000
 8673TIP3    H126901   3.601   7.940   6.376 -2.2936 -0.2556 -0.2987
 8673TIP3    H226902   3.552   8.029   6.264 -0.3026  1.9284  0.4649
 8674TIP3   OH226903   3.097   1.061   7.679  0.2028 -0.2803  1.1829
 8674TIP3    H126904   3.034   1.031   7.615  0.5668  0.2240  0.5793
 8674TIP3    H226905   3.135   0.981   7.716 -2.5755 -0.7109  3.4435
 8675TIP3   OH226906  10.824   1.563   5.094  0.4181 -0.1197 -0.0315
 8675TIP3    H126907  10.749   1.558   5.153 -0.3596 -0.0779 -1.0006
 8675TIP3    H226908  10.900   1.555   5.152 -0.2965  0.7729  1.0716
 8676TIP3   OH226909   1.779   8.784   9.335 -0.4608 -0.5562 -0.6018
 8676TIP3    H126910   1.863   8.829   9.328 -0.5137 -0.3841 -0.1966
 8676TIP3    H226911   1.802   8.693   9.350 -0.3299 -0.3614  0.4639
 8677TIP3   OH226912   4.078   9.660   4.170 -0.5182 -0.1238  0.1869
 8677TIP3    H126913   4.124   9.600   4.229 -1.1628  0.8730  1.7822
 8677TIP3    H226914   4.116   9.643   4.084  0.9210 -1.1997  0.9853
 8678TIP3   OH226915   5.559  10.030  10.252  0.0978  0.2101  0.0834
 8678TIP3    H126916   5.491  10.094  10.276  0.5846  0.4560  0.8421
 8678TIP3    H226917   5.541   9.954  10.306 -1.3199 -0.8815 -1.7974
 8679TIP3   OH226918   2.450   1.600   3.964  0.1996 -0.2929 -0.2728
 8679TIP3    H126919   2.496   1.666   3.912 -0.3034 -0.2516 -0.6672
 8679TIP3    H226920   2.371   1.579   3.913  1.2163 -2.5370 -1.0820
 8680TIP3   OH226921   2.295   8.171   1.238  0.3086  0.3081 -0.2885
 8680TIP3    H126922   2.274   8.257   1.201 -0.2247  0.1806 -0.3019
 8680TIP3    H226923   2.221   8.152   1.297  1.4322  0.7800  1.3360
 8681TIP3   OH226924   9.814  10.267  10.557  1.0841 -0.4733  0.0721
 8681TIP3    H126925   9.880  10.317  10.509  0.0342  2.2655  1.2408
 8681TIP3    H226926   9.864  10.214  10.618  2.2658 -0.0031 -0.4389
 8682TIP3   OH226927   0.335   5.795   3.428 -0.0356  0.1357  0.5508
 8682TIP3    H126928   0.260   5.761   3.380  0.0130 -0.3628  0.8233
 8682TIP3    H226929   0.339   5.888   3.404 -0.0493 -0.0876 -0.3651
 8683TIP3   OH226930   3.231  10.774   1.214  0.2123  0.2070 -0.2329
 8683TIP3    H126931   3.294  10.835   1.175  1.4198 -0.9463 -0.1502
 8683TIP3    H226932   3.259  10.766   1.305 -0.3045 -0.0092 -0.0918
 8684TIP3   OH226933   2.382   6.227   5.318 -0.1961 -0.0890 -0.2503
 8684TIP3    H126934   2.322   6.169   5.272  2.1099 -0.7384 -2.7077
 8684TIP3    H226935   2.368   6.313   5.279 -0.5578  0.0772  0.2423
 8685TIP3   OH226936   3.877   7.256   8.746  0.5848  0.1704  0.0724
 8685TIP3    H126937   3.926   7.324   8.701  0.3216  0.0306 -0.4296
 8685TIP3    H226938   3.796   7.299   8.773  1.0724  0.4704  1.1236
 8686TIP3   OH226939   0.403   2.739  10.026 -0.3851 -0.1033  0.0961
 8686TIP3    H126940   0.335   2.806  10.040 -0.4231 -0.3080  0.9203
 8686TIP3    H226941   0.455   2.741  10.106  1.0823  0.5969 -0.8452
 8687TIP3   OH226942   8.300   9.992  10.230  0.0482 -0.6628  0.5963
 8687TIP3    H126943   8.218   9.943  10.229  1.3855 -3.1400  1.0540
 8687TIP3    H226944   8.334   9.985  10.141 -0.0295 -0.0352  0.5156
 8688TIP3   OH226945   3.351  10.652  10.445  0.5522 -0.2319 -0.5866
 8688TIP3    H126946   3.363  10.639  10.539  0.4544 -0.9818 -0.6703
 8688TIP3    H226947   3.326  10.744  10.436  1.0134 -0.0340  0.0748
 8689TIP3   OH226948   9.296   3.574   1.486 -0.3651 -0.4498  0.8062
 8689TIP3    H126949   9.351   3.512   1.438  0.0810 -0.8912  1.8584
 8689TIP3    H226950   9.352   3.605   1.558 -0.6889  0.9333  0.5037
 8690TIP3   OH226951   4.455   7.269   2.451  0.3529 -0.2409  0.3364
 8690TIP3    H126952   4.485   7.206   2.517 -0.5242 -1.2651 -0.2130
 8690TIP3    H226953   4.525   7.270   2.386  0.9995  0.4129  1.0030
 8691TIP3   OH226954   8.658  10.634   9.362  0.0933  0.7221 -0.2517
 8691TIP3    H126955   8.566  10.634   9.387 -0.0812 -0.5031 -0.8058
 8691TIP3    H226956   8.705  10.616   9.444 -0.1576  1.3162  0.0239
 8692TIP3   OH226957   4.587   4.568   0.399  0.1965  0.0841 -0.1617
 8692TIP3    H126958   4.563   4.561   0.306 -2.7192 -0.7264  0.5581
 8692TIP3    H226959   4.516   4.524   0.446  2.3078 -0.8329  2.4286
 8693TIP3   OH226960   6.495   8.974   2.592  0.3233 -0.4777  0.5380
 8693TIP3    H126961   6.401   8.983   2.603  0.5874  2.3568  1.2899
 8693TIP3    H226962   6.527   8.947   2.678  0.4924  2.3261  1.4367
 8694TIP3   OH226963   6.120   1.448   7.403 -0.0486 -0.4685  0.9699
 8694TIP3    H126964   6.118   1.531   7.450 -0.8400 -0.7099  1.3722
 8694TIP3    H226965   6.028   1.426   7.388  0.1505  0.6102 -2.5189
 8695TIP3   OH226966   4.116   5.077   2.105 -0.2226  0.6175 -0.2742
 8695TIP3    H126967   4.175   5.151   2.123  0.8670 -0.4329  0.6010
 8695TIP3    H226968   4.064   5.067   2.184 -1.1488  1.1121 -0.7980
 8696TIP3   OH226969   5.629   1.050  10.513  0.1226 -0.0381 -0.0006
 8696TIP3    H126970   5.632   1.014  10.425  1.6865  2.2817 -0.9905
 8696TIP3    H226971   5.712   1.095  10.524 -0.1927  0.1026  2.5350
 8697TIP3   OH226972   5.446   1.233   8.573 -0.1356  0.2300  0.3230
 8697TIP3    H126973   5.399   1.247   8.490 -0.0119  2.3205  0.5640
 8697TIP3    H226974   5.384   1.258   8.641 -0.1081 -1.1278  0.8790
 8698TIP3   OH226975   8.076   1.385   1.331 -0.5444  0.0849 -0.6632
 8698TIP3    H126976   7.996   1.379   1.279 -1.3308 -0.0419  0.5129
 8698TIP3    H226977   8.079   1.302   1.380 -0.8463  0.9444  0.8747
 8699TIP3   OH226978   9.385   1.008  10.081  0.1848 -0.0966 -0.3446
 8699TIP3    H126979   9.358   0.975  10.166 -0.1980  2.2719  0.5306
 8699TIP3    H226980   9.303   1.029  10.036  0.3843 -1.2557 -1.3255
 8700TIP3   OH226981   8.055   4.591   9.398  0.3918  0.0979  0.1333
 8700TIP3    H126982   8.138   4.638   9.407  0.3737  0.3374 -0.7910
 8700TIP3    H226983   8.015   4.595   9.485  1.3017  0.0594  0.5617
 8701TIP3   OH226984   9.411   7.169   0.753  0.5653  0.2475 -0.0187
 8701TIP3    H126985   9.341   7.228   0.779  0.2409 -0.1510  0.0256
 8701TIP3    H226986   9.395   7.089   0.803 -0.2055 -0.6177 -1.5708
 8702TIP3   OH226987   9.013   6.379   9.289 -0.2749 -1.0888 -0.3379
 8702TIP3    H126988   9.061   6.315   9.342  1.6464 -0.6472 -1.4237
 8702TIP3    H226989   9.053   6.463   9.312 -1.5924 -0.4954 -0.1781
 8703TIP3   OH226990   7.106   4.751   0.603 -0.0706 -0.1600  0.0802
 8703TIP3    H126991   7.197   4.758   0.577  0.1380 -0.5640  0.6801
 8703TIP3    H226992   7.073   4.842   0.601  0.3381 -0.0161 -0.1355
 8704TIP3   OH226993  10.755   8.483   8.400  0.0244 -0.1472  0.5907
 8704TIP3    H126994  10.734   8.568   8.364 -0.1224 -0.5103 -0.1958
 8704TIP3    H226995  10.723   8.420   8.335 -0.8329 -0.8385  1.6313
 8705TIP3   OH226996   7.055   3.071   2.279 -0.4523 -0.8184 -0.5840
 8705TIP3    H126997   6.976   3.087   2.330 -1.3866 -0.3478 -2.1361
 8705TIP3    H226998   7.054   2.977   2.261 -1.0482 -0.6954 -1.2078
 8706TIP3   OH226999   2.260   7.975   5.134 -0.0563  0.8898  0.7462
 8706TIP3    H127000   2.221   8.001   5.050  0.3306  0.6159  0.4766
 8706TIP3    H227001   2.189   7.984   5.197 -0.5252  0.4913  0.2830
 8707TIP3   OH227002   3.781   0.167   0.532  0.0790  0.1555 -0.7990
 8707TIP3    H127003   3.825   0.247   0.561 -0.2774  0.3096 -0.6653
 8707TIP3    H227004   3.786   0.170   0.437 -0.0642  0.4208 -0.8014
 8708TIP3   OH227005   8.561   8.972   2.433  0.4643  0.2823 -0.4123
 8708TIP3    H127006   8.505   9.012   2.366 -0.2408  0.6154  0.3607
 8708TIP3    H227007   8.562   8.879   2.410 -1.3163  0.0840  0.1700
 8709TIP3   OH227008   2.757   2.582   4.132 -0.2710  0.3014 -0.2831
 8709TIP3    H127009   2.746   2.651   4.197  1.1799  1.3311 -1.0971
 8709TIP3    H227010   2.697   2.606   4.061  1.5087  1.7877 -1.3729
 8710TIP3   OH227011   2.121  10.865   8.248 -1.1217 -0.7781 -0.0318
 8710TIP3    H127012   2.178  10.865   8.326 -0.3546  1.0011 -0.5481
 8710TIP3    H227013   2.140  10.781   8.205  1.6508 -0.0214 -0.4973
 8711TIP3   OH227014   8.645   3.362   5.480 -0.6060  0.4903  1.1140
 8711TIP3    H127015   8.684   3.282   5.517  0.3619  0.2883 -0.2886
 8711TIP3    H227016   8.569   3.378   5.536 -0.9622 -1.5286  1.3083
 8712TIP3   OH227017   9.272   1.439   6.747  0.5228 -0.1923  0.2335
 8712TIP3    H127018   9.316   1.523   6.759  1.6414 -0.5213 -1.2983
 8712TIP3    H227019   9.251   1.410   6.836  2.0525  0.7112  0.9223
 8713TIP3   OH227020   4.287   6.546   9.518 -0.1183 -0.0602 -0.2167
 8713TIP3    H127021   4.282   6.579   9.429 -0.3225  0.3113 -0.0690
 8713TIP3    H227022   4.242   6.461   9.515  0.4663 -0.3589 -0.6098
 8714TIP3   OH227023   7.325   7.653   2.381  0.0170  0.1521 -0.2015
 8714TIP3    H127024   7.240   7.627   2.345 -0.4001 -0.7149  1.3065
 8714TIP3    H227025   7.376   7.572   2.385 -0.1384  0.0918  1.5507
 8715TIP3   OH227026   6.751   0.290   5.352 -0.2148 -0.7341  0.0260
 8715TIP3    H127027   6.821   0.327   5.406 -0.2595 -0.3943 -0.1516
 8715TIP3    H227028   6.771   0.196   5.350  1.2682 -0.4391 -1.4977
 8716TIP3   OH227029   3.122   7.112   2.552 -0.1564  0.4386  0.4329
 8716TIP3    H127030   3.197   7.170   2.554  1.2252 -1.2446  2.8086
 8716TIP3    H227031   3.076   7.129   2.635 -0.1936 -1.1734  0.7787
 8717TIP3   OH227032   6.070   9.016   2.535  0.2284 -0.2305 -0.0195
 8717TIP3    H127033   6.132   9.010   2.463  0.9613 -0.9719  0.6521
 8717TIP3    H227034   6.125   9.015   2.614 -0.5888 -0.0305  0.5633
 8718TIP3   OH227035   4.333   3.378   0.392 -0.6303 -0.1503  0.0782
 8718TIP3    H127036   4.339   3.290   0.428 -1.2675  0.0568  0.7055
 8718TIP3    H227037   4.240   3.395   0.383 -0.4970  0.1502 -0.8320
 8719TIP3   OH227038   2.182   9.900   7.027  0.1192  0.1984  0.0313
 8719TIP3    H127039   2.145   9.816   7.056  2.2855 -0.5208  0.9534
 8719TIP3    H227040   2.110   9.944   6.983 -1.5474 -1.4466  0.9695
 8720TIP3   OH227041   9.890  10.416   5.005  0.3705  0.5210  0.3583
 8720TIP3    H127042   9.949  10.366   4.949 -1.3883 -0.3043 -0.8482
 8720TIP3    H227043   9.933  10.501   5.017  1.2408  0.3617 -1.4447
 8721TIP3   OH227044   5.230   3.800   3.734 -0.0827 -0.4081 -0.0210
 8721TIP3    H127045   5.237   3.890   3.701 -1.1337 -0.7771 -1.3582
 8721TIP3    H227046   5.163   3.805   3.802  0.2572 -0.0841  0.2929
 8722TIP3   OH227047   6.171   2.372   5.435  0.1272  0.8309 -0.5503
 8722TIP3    H127048   6.119   2.365   5.354 -0.5481  0.7609 -0.1186
 8722TIP3    H227049   6.228   2.296   5.433 -0.7144  0.1852 -0.3934
 8723TIP3   OH227050   3.130   2.442   5.787  0.6811 -0.1490 -0.6084
 8723TIP3    H127051   3.036   2.425   5.784  0.6647 -0.1594 -0.1071
 8723TIP3    H227052   3.137   2.535   5.809  0.7879 -0.0688 -0.9739
 8724TIP3   OH227053   2.310   7.197   6.454 -0.4144  0.1430 -1.3983
 8724TIP3    H127054   2.362   7.213   6.375  0.3592  0.5739 -0.8104
 8724TIP3    H227055   2.369   7.217   6.526 -1.0816 -0.3640 -0.7027
 8725TIP3   OH227056   2.493   6.418   3.668 -0.4251 -0.1247  0.9551
 8725TIP3    H127057   2.510   6.480   3.738 -0.9700  0.0506  0.9425
 8725TIP3    H227058   2.578   6.381   3.647 -0.1819  0.1951  1.3599
 8726TIP3   OH227059   3.322   4.707   9.559  0.1110  0.4634  0.8121
 8726TIP3    H127060   3.306   4.694   9.653 -0.9010  2.0373  0.9032
 8726TIP3    H227061   3.305   4.800   9.545  1.0079  0.4171 -0.8054
 8727TIP3   OH227062   6.371   5.718   3.263 -0.8344  0.0050 -0.2682
 8727TIP3    H127063   6.341   5.803   3.294  1.4896  1.3304 -1.3958
 8727TIP3    H227064   6.377   5.728   3.168  1.6788 -0.5796 -0.2431
 8728TIP3   OH227065   1.018   5.733   9.395  0.3495  0.1082  0.0926
 8728TIP3    H127066   1.105   5.736   9.436  0.5977 -0.6137 -0.3530
 8728TIP3    H227067   1.036   5.711   9.303 -0.2727  0.5336 -0.1316
 8729TIP3   OH227068  10.125   8.412   3.455  0.2538 -0.1602 -0.4210
 8729TIP3    H127069  10.041   8.385   3.491  0.2943  0.8828  0.5143
 8729TIP3    H227070  10.190   8.368   3.510  0.3270 -0.9084 -1.0965
 8730TIP3   OH227071   3.363   7.811   3.403  0.3368 -0.5852  0.0887
 8730TIP3    H127072   3.334   7.834   3.491 -0.0151 -2.3543  0.4763
 8730TIP3    H227073   3.369   7.895   3.356 -0.1353  0.3114  1.5810
 8731TIP3   OH227074   8.479   8.394   8.760  0.7192 -0.1522  0.6727
 8731TIP3    H127075   8.414   8.383   8.691 -1.1194 -1.8372  2.5366
 8731TIP3    H227076   8.552   8.338   8.733  0.3745 -0.1625 -0.2852
 8732TIP3   OH227077   1.786   1.578   5.494  0.2924 -0.3572 -0.2273
 8732TIP3    H127078   1.780   1.538   5.580 -0.4078  0.2685  0.0312
 8732TIP3    H227079   1.722   1.650   5.497 -0.0336 -0.5745 -1.3869
 8733TIP3   OH227080  10.104  10.730   3.390  0.0235  0.5537 -0.1476
 8733TIP3    H127081  10.031  10.774   3.347 -0.3913 -0.4212 -0.4572
 8733TIP3    H227082  10.113  10.775   3.474  0.4478  2.0714 -0.9676
 8734TIP3   OH227083   2.820   5.002   8.244  0.1144  1.0303  0.4795
 8734TIP3    H127084   2.895   4.971   8.194 -1.8397 -1.3977 -1.1857
 8734TIP3    H227085   2.816   4.944   8.320  0.2686  1.5886  0.9268
 8735TIP3   OH227086   6.951   2.907   5.367  0.3763  0.4199  0.3251
 8735TIP3    H127087   7.007   2.980   5.392  0.7324  0.0105  0.7250
 8735TIP3    H227088   6.882   2.948   5.314  1.1530  0.9029 -0.3385
 8736TIP3   OH227089   8.276   6.981   2.446 -0.1321  0.8456 -0.3189
 8736TIP3    H127090   8.250   6.983   2.538  0.8981  1.8430 -0.0361
 8736TIP3    H227091   8.202   6.938   2.402  0.1652 -1.3795  1.2069
 8737TIP3   OH227092   4.712   8.679   9.450 -0.1042  0.2586  0.0134
 8737TIP3    H127093   4.651   8.676   9.377  4.1924  0.9156 -4.1038
 8737TIP3    H227094   4.741   8.770   9.454  0.3732  0.0684  2.0955
 8738TIP3   OH227095   0.123  10.202   8.552 -0.1289 -0.0025 -0.2961
 8738TIP3    H127096   0.080  10.271   8.502 -0.2308 -1.2794 -2.0627
 8738TIP3    H227097   0.191  10.247   8.602 -1.3047  1.5839 -0.0727
 8739TIP3   OH227098   4.112   7.306   8.064  0.0070 -0.2156  0.1328
 8739TIP3    H127099   4.194   7.263   8.039 -0.5375 -0.6613 -0.9245
 8739TIP3    H227100   4.052   7.289   7.992 -0.7725  0.8327  0.4991
 8740TIP3   OH227101   0.255   6.815   1.016 -0.4842 -0.2473  0.0116
 8740TIP3    H127102   0.182   6.877   1.016  0.6015  1.1085 -1.5573
 8740TIP3    H227103   0.245   6.767   1.098 -3.0764 -0.0606 -0.1148
 8741TIP3   OH227104   3.045   9.197   1.302 -0.4843  0.4159  0.2900
 8741TIP3    H127105   3.022   9.128   1.364  2.4667 -0.2496  0.7966
 8741TIP3    H227106   3.079   9.150   1.226 -3.9034  1.2196 -1.9541
 8742TIP3   OH227107   0.996   7.300   3.674 -0.5157  0.9283 -0.3294
 8742TIP3    H127108   1.014   7.274   3.764  1.7984 -0.3761 -1.0706
 8742TIP3    H227109   0.962   7.221   3.632 -1.1861  1.4078 -0.7088
 8743TIP3   OH227110   9.295   5.424   4.711 -0.0652  0.6227 -0.1516
 8743TIP3    H127111   9.233   5.364   4.670  0.5141 -0.5097  0.5888
 8743TIP3    H227112   9.367   5.431   4.648 -0.1823  0.6160 -0.2863
 8744TIP3   OH227113  10.895   7.926   9.109  0.1188 -0.1630  0.6039
 8744TIP3    H127114  10.807   7.939   9.143 -0.1191 -1.8811  0.7225
 8744TIP3    H227115  10.952   7.937   9.185  0.1831  2.3954  0.2576
 8745TIP3   OH227116   7.401  10.232   4.791  0.6077 -0.1985  0.2547
 8745TIP3    H127117   7.317  10.269   4.820 -0.0085 -0.6287 -0.9109
 8745TIP3    H227118   7.383  10.199   4.702  1.3761 -2.4098  0.8544
 8746TIP3   OH227119   6.685   0.155   1.172 -0.5790  0.1645 -0.3032
 8746TIP3    H127120   6.727   0.101   1.105 -0.2107 -0.4110  0.3723
 8746TIP3    H227121   6.593   0.160   1.145 -0.5447 -0.4978 -0.5729
 8747TIP3   OH227122   3.286   4.747   9.838 -0.1415 -0.4781  0.0379
 8747TIP3    H127123   3.317   4.834   9.865  1.0807 -0.5714 -0.9623
 8747TIP3    H227124   3.278   4.698   9.920 -0.1202  0.3508  0.5462
 8748TIP3   OH227125   5.137   0.674   4.983 -0.5035 -0.1375  0.6051
 8748TIP3    H127126   5.091   0.681   5.066  0.2343 -0.0336  1.0101
 8748TIP3    H227127   5.229   0.664   5.007 -0.1804  0.7049 -0.2134
 8749TIP3   OH227128   3.149   6.150   4.613  0.3534  0.1518  0.1757
 8749TIP3    H127129   3.241   6.175   4.603  0.1046  0.6596 -1.1552
 8749TIP3    H227130   3.136   6.080   4.549 -0.1296 -0.0891  0.5286
 8750TIP3   OH227131   5.141   7.528   5.341 -0.5153  0.6844 -0.2265
 8750TIP3    H127132   5.125   7.456   5.402 -0.7456  0.5092 -0.4946
 8750TIP3    H227133   5.162   7.485   5.258  2.2176  0.8564  0.2774
 8751TIP3   OH227134   0.316   4.108  10.604  0.0287 -0.5601  0.3979
 8751TIP3    H127135   0.241   4.168  10.608 -0.0507 -0.4678 -1.3600
 8751TIP3    H227136   0.296   4.041  10.668 -0.1762  0.9452  1.9905
 8752TIP3   OH227137   2.501   8.489   2.748  0.7816  0.0424  0.1269
 8752TIP3    H127138   2.589   8.525   2.751  0.8635 -0.2345  1.2850
 8752TIP3    H227139   2.478   8.471   2.839 -0.3094 -0.2853 -0.1899
 8753TIP3   OH227140   3.610   7.937   9.681 -0.1979  0.1609 -0.3834
 8753TIP3    H127141   3.531   7.899   9.641  0.8385 -0.4623 -1.9773
 8753TIP3    H227142   3.680   7.916   9.618  0.9323  2.2575  0.1024
 8754TIP3   OH227143   7.292   0.292   7.868 -0.1630 -0.5871  0.3040
 8754TIP3    H127144   7.281   0.384   7.846 -0.6862 -0.3098  1.6596
 8754TIP3    H227145   7.385   0.274   7.848  0.0508  0.3352  0.4351
 8755TIP3   OH227146   1.859  10.202   6.680 -0.0977  0.1215 -0.0681
 8755TIP3    H127147   1.868  10.192   6.586  1.4660 -0.4877  0.1244
 8755TIP3    H227148   1.786  10.145   6.704  1.4916 -2.2283 -0.5156
 8756TIP3   OH227149   3.645   6.540   6.841 -0.3457  0.3273 -0.0657
 8756TIP3    H127150   3.597   6.602   6.787 -1.0559 -0.9724 -0.9936
 8756TIP3    H227151   3.669   6.470   6.780  1.4500  0.2269  0.6923
 8757TIP3   OH227152   3.954   8.852   5.576  0.0648  0.5409  0.0882
 8757TIP3    H127153   4.019   8.867   5.507  0.4363  1.4768  0.6372
 8757TIP3    H227154   3.875   8.828   5.528  1.0500 -1.7039 -0.5726
 8758TIP3   OH227155   9.910  10.367   6.822  0.0423 -0.4391 -0.0607
 8758TIP3    H127156   9.943  10.449   6.786 -2.5571  0.9107  0.3734
 8758TIP3    H227157   9.893  10.312   6.745  0.5818 -0.0789 -0.4448
 8759TIP3   OH227158   3.024  10.099   6.332 -0.2009  0.2368  0.4466
 8759TIP3    H127159   3.110  10.067   6.359 -0.6889 -0.9486  0.6457
 8759TIP3    H227160   3.020  10.189   6.366  1.3171  0.6586 -0.3902
 8760TIP3   OH227161   2.594   1.484   3.627  0.6823 -0.5680  0.4591
 8760TIP3    H127162   2.507   1.444   3.614  0.4596 -0.2167  0.8325
 8760TIP3    H227163   2.650   1.410   3.651  0.4466 -0.7720  0.3943
 8761TIP3   OH227164   7.135   7.363   6.383  0.1185 -0.1451  0.3974
 8761TIP3    H127165   7.211   7.398   6.429 -0.0900  0.2151  0.4690
 8761TIP3    H227166   7.077   7.333   6.453  0.1463 -0.3254  0.3450
 8762TIP3   OH227167  10.477   7.014   5.379  0.0556  0.1322  0.2651
 8762TIP3    H127168  10.396   7.008   5.430 -0.1170  0.1715 -0.0012
 8762TIP3    H227169  10.449   7.048   5.294 -0.1712 -2.9883 -1.0439
 8763TIP3   OH227170   1.728   7.097   9.153 -0.5398  0.1862  0.1710
 8763TIP3    H127171   1.789   7.023   9.153  0.4903  1.0020  1.0721
 8763TIP3    H227172   1.780   7.171   9.185 -1.9749  0.9399  0.8485
 8764TIP3   OH227173   8.862   8.340   9.904 -0.5050  0.1863  0.1847
 8764TIP3    H127174   8.824   8.317   9.989  1.5178  0.8369  1.3242
 8764TIP3    H227175   8.918   8.266   9.882  1.3550  1.2902  0.9612
 8765TIP3   OH227176   3.836   9.521   6.178  0.1335  0.4068  0.0224
 8765TIP3    H127177   3.896   9.446   6.181 -0.1343  0.2150  0.8371
 8765TIP3    H227178   3.755   9.488   6.216 -0.3432  0.8077 -0.6217
 8766TIP3   OH227179   1.135   2.671   9.154 -0.2500 -0.6090 -0.0357
 8766TIP3    H127180   1.176   2.600   9.203  0.0308 -0.4684 -0.0578
 8766TIP3    H227181   1.068   2.706   9.212  1.9412  1.4173  1.4455
 8767TIP3   OH227182   8.365   1.336  10.741 -0.0553  0.0955  0.4285
 8767TIP3    H127183   8.425   1.411  10.739 -2.6665  2.3594 -0.1767
 8767TIP3    H227184   8.362   1.305  10.650 -0.0585  0.2239  0.3845
 8768TIP3   OH227185   3.516   0.379   0.654  0.1343 -0.1265  0.2383
 8768TIP3    H127186   3.533   0.380   0.560 -0.4879 -0.7889  0.1079
 8768TIP3    H227187   3.421   0.372   0.661  0.2872 -2.4504  0.8762
 8769TIP3   OH227188   6.121   3.485   2.752  0.0598 -0.1180 -0.0416
 8769TIP3    H127189   6.213   3.459   2.746 -0.7633 -3.2130 -1.3114
 8769TIP3    H227190   6.092   3.450   2.836  0.0612  1.0259  0.4463
 8770TIP3   OH227191   6.010   0.051   2.287  0.2742  0.2445  0.0391
 8770TIP3    H127192   6.061  -0.008   2.231 -0.5182 -1.0192  0.6008
 8770TIP3    H227193   5.923   0.050   2.248  0.3279  1.3115 -0.1232
 8771TIP3   OH227194   2.273   9.584   9.797 -0.1828 -0.3348 -0.7852
 8771TIP3    H127195   2.343   9.523   9.819  2.3495  2.8821  0.7845
 8771TIP3    H227196   2.261   9.638   9.875 -1.8532  1.6114 -2.2539
 8772TIP3   OH227197   6.457   3.637   1.553  0.3780  0.1184  0.5531
 8772TIP3    H127198   6.381   3.685   1.519  0.5646 -0.4262 -0.6795
 8772TIP3    H227199   6.435   3.619   1.644 -0.3881  1.1349  0.5933
 8773TIP3   OH227200   2.436   5.660   2.361 -0.4196 -0.3166 -0.0553
 8773TIP3    H127201   2.489   5.622   2.291 -0.0414 -0.2060  0.1642
 8773TIP3    H227202   2.450   5.602   2.436  1.1473  0.8743  0.6563
 8774TIP3   OH227203   4.015   1.809   0.106  0.4019  0.0799  0.0436
 8774TIP3    H127204   4.057   1.742   0.161  0.3495 -0.7908 -0.9465
 8774TIP3    H227205   3.924   1.809   0.135  0.1221 -1.1716 -0.7614
 8775TIP3   OH227206   4.405  10.295   2.635  0.0588 -0.1521 -0.4629
 8775TIP3    H127207   4.459  10.306   2.557  0.0353 -1.9780 -0.7854
 8775TIP3    H227208   4.315  10.296   2.603 -0.0408  0.9455 -0.1859
 8776TIP3   OH227209   9.460   1.872   0.004 -0.1698 -0.0509 -0.5432
 8776TIP3    H127210   9.552   1.862  -0.021  0.2105 -0.6271  1.0098
 8776TIP3    H227211   9.454   1.961   0.038  0.0854 -0.3724  0.3753
 8777TIP3   OH227212   2.836   0.988   9.648  0.2647  0.0372  0.3896
 8777TIP3    H127213   2.852   1.066   9.701  0.3853  0.5448 -0.3841
 8777TIP3    H227214   2.795   1.021   9.568  0.0689 -0.7232  0.1731
 8778TIP3   OH227215   5.229   2.942   2.669  0.0458 -0.0939 -0.0386
 8778TIP3    H127216   5.147   2.928   2.716 -0.6063  0.5471 -0.9500
 8778TIP3    H227217   5.203   2.957   2.578  1.2599 -1.1158 -0.5875
 8779TIP3   OH227218   3.188   5.531   3.701  0.2471 -0.1948  0.4343
 8779TIP3    H127219   3.168   5.469   3.631 -0.8801  2.3113 -1.6266
 8779TIP3    H227220   3.103   5.550   3.740  0.7111 -0.6132  1.7064
 8780TIP3   OH227221   7.621   9.350   7.774  0.0534 -0.2201  0.3853
 8780TIP3    H127222   7.670   9.322   7.850 -1.2184  0.9431  1.6976
 8780TIP3    H227223   7.604   9.269   7.725 -0.4220 -1.2398  2.1423
 8781TIP3   OH227224  10.741   3.539   4.741 -0.0579 -0.3333  0.0280
 8781TIP3    H127225  10.658   3.562   4.698  0.4399  0.2757 -0.6439
 8781TIP3    H227226  10.750   3.603   4.811 -1.3497 -1.9255  1.7416
 8782TIP3   OH227227   8.670   1.147   6.274  0.3068 -0.2342  0.1069
 8782TIP3    H127228   8.734   1.152   6.203 -0.4864 -1.8205 -0.7600
 8782TIP3    H227229   8.663   1.054   6.294  0.5635  0.1747  2.3575
 8783TIP3   OH227230   5.618   0.713   4.461  0.2858  0.5123  0.0649
 8783TIP3    H127231   5.681   0.709   4.533 -0.3995  0.7482  0.6955
 8783TIP3    H227232   5.634   0.634   4.410  0.4186  0.0646  0.7896
 8784TIP3   OH227233   6.367   9.904   3.895 -0.1740 -0.0998 -0.1320
 8784TIP3    H127234   6.361   9.969   3.825 -2.6248  0.7999  0.7893
 8784TIP3    H227235   6.279   9.867   3.899 -0.1088 -0.1070  2.4650
 8785TIP3   OH227236   4.644   2.433   9.709  0.8521  0.5141 -0.1574
 8785TIP3    H127237   4.592   2.513   9.711  2.1638  1.5793 -3.2893
 8785TIP3    H227238   4.734   2.462   9.696  1.3885 -1.4174 -1.2674
 8786TIP3   OH227239   7.591   3.152   4.497 -0.0650  0.4771  0.0198
 8786TIP3    H127240   7.644   3.201   4.560  0.0993  0.6425 -0.2402
 8786TIP3    H227241   7.555   3.220   4.439 -1.2969  0.4454  0.7356
 8787TIP3   OH227242   3.106   4.094   0.252 -0.2060  0.4858  0.0204
 8787TIP3    H127243   3.125   4.187   0.261 -1.8283  0.9039 -0.5791
 8787TIP3    H227244   3.025   4.080   0.301 -1.3958 -0.0373 -1.9477
 8788TIP3   OH227245   0.972   7.249   3.136 -0.6568  0.1597 -0.4860
 8788TIP3    H127246   1.054   7.298   3.125 -0.5702 -0.3983 -3.2535
 8788TIP3    H227247   0.976   7.215   3.226  1.4175  1.4140 -0.0334
 8789TIP3   OH227248  10.858   7.208   2.276 -0.2857 -0.0197  0.7571
 8789TIP3    H127249  10.809   7.250   2.205  2.2963 -2.2566 -2.6850
 8789TIP3    H227250  10.875   7.279   2.339 -1.1835  2.6197 -1.7604
 8790TIP3   OH227251   9.165   4.772   4.484 -0.2429 -0.0590 -0.2761
 8790TIP3    H127252   9.231   4.707   4.461 -0.1149  0.8675 -2.9428
 8790TIP3    H227253   9.094   4.722   4.524  0.8189 -1.4924 -0.1272
 8791TIP3   OH227254   3.922   5.321   4.095 -0.0013  0.5719 -0.2094
 8791TIP3    H127255   3.937   5.289   4.005 -0.0391  0.1173 -0.0582
 8791TIP3    H227256   3.954   5.411   4.094  0.2758  0.4744 -0.6041
 8792TIP3   OH227257   1.374   7.850   6.310  0.2179  0.4917  0.0424
 8792TIP3    H127258   1.312   7.920   6.334  0.0399 -0.5378  2.8799
 8792TIP3    H227259   1.331   7.805   6.237 -1.5343  0.9433  0.7402
 8793TIP3   OH227260   3.906   1.798   9.474  0.2517 -0.4007  0.1803
 8793TIP3    H127261   3.825   1.752   9.451  0.2443 -1.3467  1.8997
 8793TIP3    H227262   3.936   1.755   9.554 -0.2045  3.0980  2.4563
 8794TIP3   OH227263   6.447   3.294   3.880 -0.5551 -0.2306 -0.3428
 8794TIP3    H127264   6.529   3.292   3.930 -1.4532  2.3707  1.4683
 8794TIP3    H227265   6.379   3.284   3.947 -1.7599 -1.9552 -1.7610
 8795TIP3   OH227266  10.094   3.264   8.499  0.0246 -0.1283  0.1267
 8795TIP3    H127267  10.035   3.273   8.424 -1.6030  3.4125  1.5611
 8795TIP3    H227268  10.059   3.190   8.548 -2.8109  1.2965  0.4571
 8796TIP3   OH227269   6.458   3.368   4.683  0.6737 -0.8247 -0.0829
 8796TIP3    H127270   6.465   3.397   4.774  2.1615 -1.6489  0.1120
 8796TIP3    H227271   6.408   3.287   4.688 -3.1288  1.2636 -0.5811
 8797TIP3   OH227272   1.785   6.448   5.071  0.2229 -0.2124  0.5844
 8797TIP3    H127273   1.774   6.354   5.090 -0.2042 -0.1944  0.4506
 8797TIP3    H227274   1.698   6.476   5.043  0.4056  0.1749  0.4024
 8798TIP3   OH227275   2.919   1.796  10.483  0.5063  0.1992  0.0082
 8798TIP3    H127276   2.898   1.774  10.573  1.3576 -2.7718 -0.4223
 8798TIP3    H227277   3.010   1.826  10.486 -0.1550  2.3246  0.3741
 8799TIP3   OH227278   9.073   7.990   0.931  0.1778  0.2471 -0.1692
 8799TIP3    H127279   9.087   7.957   0.843 -0.5357  0.7715 -0.4866
 8799TIP3    H227280   9.129   8.067   0.938  1.9335 -1.0304  0.6116
 8800TIP3   OH227281   6.131   5.574   8.857 -0.4335 -0.3047  0.0406
 8800TIP3    H127282   6.180   5.526   8.791  2.0994 -1.3809  2.5115
 8800TIP3    H227283   6.162   5.665   8.849 -1.6136  0.0133 -1.4314
 8801TIP3   OH227284   9.012   0.364   3.145  0.5281 -0.3689 -0.3132
 8801TIP3    H127285   9.039   0.297   3.083  0.7821 -0.5614  0.0023
 8801TIP3    H227286   9.085   0.372   3.206  0.0604 -0.5825  0.2902
 8802TIP3   OH227287   9.314   4.996   7.467 -0.6167 -0.4673  0.4498
 8802TIP3    H127288   9.376   5.051   7.515 -0.5552 -1.2995  1.3756
 8802TIP3    H227289   9.306   5.037   7.382  2.4461 -1.1684 -0.3052
 8803TIP3   OH227290   9.139   5.506   8.907  0.2449  0.0574 -0.2387
 8803TIP3    H127291   9.172   5.462   8.985  1.4904  0.6544 -0.4054
 8803TIP3    H227292   9.210   5.498   8.842  0.5599  2.2788 -0.2669
 8804TIP3   OH227293   0.752   6.040   6.425 -0.5047  0.1392 -0.5944
 8804TIP3    H127294   0.805   6.049   6.504  0.0854 -0.3516 -0.9153
 8804TIP3    H227295   0.700   6.120   6.420 -0.1419  0.4118 -0.0042
 8805TIP3   OH227296   1.471  10.373   4.261 -0.9017 -0.0983 -1.0727
 8805TIP3    H127297   1.389  10.421   4.257  0.8787  3.4326  0.2526
 8805TIP3    H227298   1.460  10.311   4.333 -1.6691  2.1901  0.9346
 8806TIP3   OH227299   3.273   4.928   2.961  0.4668 -0.5074  0.4541
 8806TIP3    H127300   3.212   4.961   2.895 -0.8351 -1.2479  1.2698
 8806TIP3    H227301   3.260   4.984   3.037  1.8003  0.1920  0.2140
 8807TIP3   OH227302   2.206   7.230   0.517 -0.0403  0.1845  0.8069
 8807TIP3    H127303   2.131   7.175   0.539 -0.9731  0.6156 -1.0962
 8807TIP3    H227304   2.277   7.168   0.501 -1.5020 -0.8105 -3.0580
 8808TIP3   OH227305   0.870   0.211   8.071 -0.4543 -0.4803  0.4276
 8808TIP3    H127306   0.960   0.181   8.083 -0.2863  0.2907  1.1793
 8808TIP3    H227307   0.860   0.217   7.976 -0.0067 -1.4147  0.3072
 8809TIP3   OH227308   4.421   0.223   7.670  0.1898 -0.1462  0.2339
 8809TIP3    H127309   4.412   0.184   7.583  3.5795  0.0543 -0.3312
 8809TIP3    H227310   4.422   0.149   7.730  0.0780 -0.4544 -0.1409
 8810TIP3   OH227311   7.085   0.910   1.345  0.3724  0.4491  0.5337
 8810TIP3    H127312   7.014   0.975   1.342  0.8244  1.0709  2.0779
 8810TIP3    H227313   7.041   0.827   1.326 -0.2132  1.1733 -1.4985
 8811TIP3   OH227314   6.212   2.634   1.321 -0.1244  0.1609  0.6625
 8811TIP3    H127315   6.264   2.660   1.397  3.1085 -1.8880 -0.6082
 8811TIP3    H227316   6.262   2.669   1.246 -2.0373  0.2890 -0.6094
 8812TIP3   OH227317   0.157   2.166   9.566 -0.7085  0.5212 -0.0246
 8812TIP3    H127318   0.068   2.151   9.598 -0.6906  1.6112  0.5761
 8812TIP3    H227319   0.154   2.253   9.526 -0.3975 -0.2684 -1.8569
 8813TIP3   OH227320   1.287   9.825   3.659 -0.1317  0.7820  0.2620
 8813TIP3    H127321   1.350   9.808   3.729 -0.4027  0.4253  0.4194
 8813TIP3    H227322   1.203   9.795   3.694 -0.2328  0.3893 -0.2995
 8814TIP3   OH227323   0.402   4.293   7.594  0.3771  0.3244 -0.2477
 8814TIP3    H127324   0.330   4.246   7.636  2.2652 -0.5059  2.3280
 8814TIP3    H227325   0.418   4.245   7.513 -1.4209  0.0595 -0.4872
 8815TIP3   OH227326   9.082   2.142  10.106 -0.8103 -0.4714 -0.4783
 8815TIP3    H127327   9.069   2.176  10.195  0.1111 -0.2946 -0.4005
 8815TIP3    H227328   8.994   2.139  10.068 -1.0986  0.4733  0.0768
 8816TIP3   OH227329   4.092   1.206   7.277  0.1148  0.5307  0.0475
 8816TIP3    H127330   4.049   1.291   7.275  0.6229  0.8680  1.7512
 8816TIP3    H227331   4.186   1.226   7.282  0.2835 -0.1464 -0.1892
 8817TIP3   OH227332   0.520   3.525   6.544 -0.6356  0.8266 -0.2390
 8817TIP3    H127333   0.560   3.591   6.600 -0.8313  1.1341 -0.4638
 8817TIP3    H227334   0.529   3.443   6.594 -0.1138  0.9660 -0.0983
 8818TIP3   OH227335   5.204   8.789   9.410 -0.2496 -0.2797  0.6901
 8818TIP3    H127336   5.296   8.767   9.427 -0.3956  0.3461  2.6072
 8818TIP3    H227337   5.156   8.742   9.479 -1.2806  0.0362  0.1962
 8819TIP3   OH227338   4.189   0.982  10.197 -0.0478  0.4120 -0.4830
 8819TIP3    H127339   4.196   0.895  10.238  0.4177  0.7010  0.0683
 8819TIP3    H227340   4.276   1.019  10.206 -0.2608  0.9606 -0.6675
 8820TIP3   OH227341   5.609   2.557   8.986 -0.0724 -0.1331  0.8042
 8820TIP3    H127342   5.655   2.579   8.905 -0.3404 -0.5073  0.5453
 8820TIP3    H227343   5.570   2.639   9.015  0.6996  0.1741  0.9946
 8821TIP3   OH227344   4.055   1.784  10.734 -0.4227  0.3484 -0.1501
 8821TIP3    H127345   4.144   1.753  10.715 -0.4347  0.7737 -0.9213
 8821TIP3    H227346   4.056   1.801  10.829 -0.0385 -0.7562  0.0656
 8822TIP3   OH227347   8.351   4.214   5.664 -0.1402 -0.3185 -0.0980
 8822TIP3    H127348   8.428   4.157   5.664  0.6372  0.5143  3.1434
 8822TIP3    H227349   8.294   4.178   5.731 -1.8254  0.0831 -1.2536
 8823TIP3   OH227350   9.569   7.502   4.581  0.1700 -0.2760 -0.1287
 8823TIP3    H127351   9.529   7.575   4.533  0.6168 -1.1759 -1.9579
 8823TIP3    H227352   9.499   7.469   4.637 -0.9307 -0.2851 -1.4590
 8824TIP3   OH227353   2.403  10.267   1.103 -0.2168 -0.1357  0.4195
 8824TIP3    H127354   2.477  10.260   1.164  0.0805 -1.8915 -0.1014
 8824TIP3    H227355   2.339  10.204   1.137 -0.0581 -1.1211 -1.0358
 8825TIP3   OH227356   2.978   7.815   1.053 -0.1358  0.4917 -0.6769
 8825TIP3    H127357   2.906   7.819   0.991 -1.5645  0.5198  0.9220
 8825TIP3    H227358   3.043   7.760   1.010 -0.3240  1.8534 -2.8858
 8826TIP3   OH227359   5.815   9.587   2.581 -0.0210  0.1340  0.0997
 8826TIP3    H127360   5.791   9.512   2.527  2.3405 -0.5819 -0.0671
 8826TIP3    H227361   5.791   9.663   2.528  1.1682 -0.5467 -1.5397
 8827TIP3   OH227362   9.546   5.180   0.029  0.4966  0.4396  0.0088
 8827TIP3    H127363   9.574   5.092   0.003  0.8904  0.4751  0.2918
 8827TIP3    H227364   9.561   5.234  -0.048  0.0306  0.2130 -0.2418
 8828TIP3   OH227365   2.161   2.030   8.671  0.1069  0.2704  0.3699
 8828TIP3    H127366   2.134   1.952   8.719  0.3617 -0.5611 -0.8175
 8828TIP3    H227367   2.209   2.082   8.736  1.4205 -1.3348  0.7538
 8829TIP3   OH227368   8.254   5.263   9.468 -0.8847  0.6526  0.0827
 8829TIP3    H127369   8.235   5.243   9.560 -0.9330  1.8809  0.3642
 8829TIP3    H227370   8.276   5.179   9.429 -0.5302  0.1498  1.3024
 8830TIP3   OH227371   7.641   0.951   5.586 -0.0803  0.1748 -0.4802
 8830TIP3    H127372   7.670   0.890   5.653 -2.1630 -1.2629 -0.7843
 8830TIP3    H227373   7.715   0.958   5.526  0.8104 -0.7246  0.4738
 8831TIP3   OH227374   6.359   2.310   4.198 -0.6485  0.5418 -0.8102
 8831TIP3    H127375   6.289   2.265   4.151  0.0275  0.3675 -1.6739
 8831TIP3    H227376   6.426   2.328   4.131 -0.2361  1.4612 -0.1821
 8832TIP3   OH227377   8.314   2.696   7.194 -0.1157 -0.1991 -0.1831
 8832TIP3    H127378   8.240   2.743   7.155  0.9069  1.1238 -0.6129
 8832TIP3    H227379   8.311   2.719   7.287 -0.6404 -0.7246 -0.0617
 8833TIP3   OH227380   4.891  10.701   9.715 -0.4402 -0.4983  0.3333
 8833TIP3    H127381   4.800  10.701   9.683  0.5597  1.9228 -3.1092
 8833TIP3    H227382   4.938  10.648   9.650  0.7954 -0.9996  1.6040
 8834TIP3   OH227383   7.476   3.690   7.665  0.3169  0.3792  0.4807
 8834TIP3    H127384   7.495   3.643   7.584  0.6426  1.2218  0.0588
 8834TIP3    H227385   7.561   3.716   7.698  0.0910  3.5310 -1.0303
 8835TIP3   OH227386   0.066   4.691  10.298  0.8152 -0.0762 -0.5480
 8835TIP3    H127387   0.082   4.784  10.309  2.0694 -0.4564  1.2755
 8835TIP3    H227388   0.149   4.654  10.269  0.6605 -0.7958 -0.1108
 8836TIP3   OH227389   9.667  10.148   3.115  0.0669 -0.1445  0.2877
 8836TIP3    H127390   9.625  10.232   3.130 -0.0161  0.0592 -0.9904
 8836TIP3    H227391   9.610  10.084   3.159 -0.3465  0.3659  0.4979
 8837TIP3   OH227392   2.625   7.007   6.451 -0.1143 -0.2644 -0.1517
 8837TIP3    H127393   2.692   6.948   6.417  1.5878  1.1900  0.5604
 8837TIP3    H227394   2.620   6.987   6.544  1.8250  1.8924  0.4828
 8838TIP3   OH227395   6.186   1.340   5.165 -0.1583 -0.0074  0.2455
 8838TIP3    H127396   6.239   1.307   5.238  1.3824 -0.5016 -1.0423
 8838TIP3    H227397   6.095   1.324   5.192  0.4343 -2.8944  0.8664
 8839TIP3   OH227398   8.538   0.773   3.864 -0.2181 -0.1364  0.2869
 8839TIP3    H127399   8.458   0.819   3.839 -0.5005 -0.6334  0.2655
 8839TIP3    H227400   8.558   0.807   3.952 -0.5928 -0.1898  0.3957
 8840TIP3   OH227401   0.850   7.571   7.748  0.3713 -0.4527 -0.1111
 8840TIP3    H127402   0.820   7.633   7.815  1.4958 -0.1500  0.1300
 8840TIP3    H227403   0.876   7.627   7.674 -0.5821 -0.7675 -0.7037
 8841TIP3   OH227404   9.041   2.273  10.363 -0.3936  0.1009  0.1803
 8841TIP3    H127405   9.134   2.270  10.386 -0.3437 -1.1619 -0.1326
 8841TIP3    H227406   9.029   2.359  10.324  0.4714  0.5809  0.9378
 8842TIP3   OH227407   9.365   6.396   4.382  0.0850 -0.0830  0.3938
 8842TIP3    H127408   9.298   6.328   4.370  1.2233 -1.1938  0.0179
 8842TIP3    H227409   9.437   6.368   4.325 -0.7780  3.4275 -2.8059
 8843TIP3   OH227410   2.167   6.632  10.135 -0.0711 -0.0310 -0.2829
 8843TIP3    H127411   2.160   6.644  10.230 -0.6336  1.1151 -0.4540
 8843TIP3    H227412   2.222   6.555  10.125 -0.4364 -0.4907  0.9894
 8844TIP3   OH227413   8.872   4.729   9.216  0.2776  0.4399 -0.8317
 8844TIP3    H127414   8.953   4.698   9.176  0.3671 -0.1630 -0.1944
 8844TIP3    H227415   8.883   4.713   9.309 -0.1097  1.4242 -0.6036
 8845TIP3   OH227416   9.700   5.165  10.443 -0.0048  0.2262 -0.8033
 8845TIP3    H127417   9.704   5.079  10.401 -0.5923 -0.4306  0.4259
 8845TIP3    H227418   9.631   5.156  10.509  0.0899  1.5769 -0.4945
 8846TIP3   OH227419   5.680   4.324   5.977 -0.0440  0.3151  0.3056
 8846TIP3    H127420   5.584   4.321   5.974 -0.0685  0.9779  0.2607
 8846TIP3    H227421   5.704   4.393   5.915  0.4526  0.2881  0.4618
 8847TIP3   OH227422   7.955   8.772   9.839  0.3735  0.2454  0.2300
 8847TIP3    H127423   7.970   8.751   9.931  2.5207  2.4582  0.4960
 8847TIP3    H227424   8.031   8.826   9.814 -1.6729  2.3620 -1.9410
 8848TIP3   OH227425   3.379  10.718   3.712 -0.9226 -0.0120 -0.6029
 8848TIP3    H127426   3.313  10.739   3.777 -1.8535 -1.6154 -0.9755
 8848TIP3    H227427   3.330  10.705   3.631  0.0095  0.1404 -1.2052
 8849TIP3   OH227428   9.824   4.696   0.182 -0.7846  0.8305 -0.6851
 8849TIP3    H127429   9.733   4.718   0.200 -0.8394 -0.4123  0.6888
 8849TIP3    H227430   9.823   4.604   0.157 -0.1284  1.3497 -2.9011
 8850TIP3   OH227431   9.753   9.720  10.623  0.2992  0.3084  0.2876
 8850TIP3    H127432   9.758   9.786  10.691  2.5616 -0.6760  1.1906
 8850TIP3    H227433   9.678   9.666  10.646  0.9941  0.0313  2.0218
 8851TIP3   OH227434   6.302   5.642   7.616  0.0065 -0.3665 -0.4018
 8851TIP3    H127435   6.391   5.644   7.580  0.8266 -0.5535  1.4875
 8851TIP3    H227436   6.288   5.729   7.652  0.1159 -0.8384  0.8240
 8852TIP3   OH227437   4.460   5.206   1.533 -1.0799 -0.0033 -0.4063
 8852TIP3    H127438   4.484   5.185   1.443 -2.7239 -0.6239 -0.7405
 8852TIP3    H227439   4.461   5.301   1.537 -4.6252  0.3078 -2.2759
 8853TIP3   OH227440   0.170   2.627   1.414 -0.1936 -0.6877 -0.2319
 8853TIP3    H127441   0.133   2.711   1.443  1.4243  0.3948 -1.1735
 8853TIP3    H227442   0.154   2.625   1.320 -0.8805 -1.8143 -0.1110
 8854TIP3   OH227443   8.029   3.500   9.299  0.3508  0.0112 -0.1360
 8854TIP3    H127444   7.984   3.516   9.216  0.3069  0.1159 -0.0923
 8854TIP3    H227445   8.019   3.406   9.314 -0.3422  0.1289  0.1576
 8855TIP3   OH227446   8.731   8.437   8.465  0.1828  0.4569 -0.2948
 8855TIP3    H127447   8.720   8.367   8.530 -0.9308  0.6190 -0.3013
 8855TIP3    H227448   8.769   8.510   8.515 -0.6410  0.5699  0.1881
 8856TIP3   OH227449   2.498   0.890   8.089 -0.5414  0.0765  0.7458
 8856TIP3    H127450   2.511   0.920   8.000  0.5253 -0.6537  0.6208
 8856TIP3    H227451   2.507   0.795   8.084  0.2222  0.0704  1.7165
 8857TIP3   OH227452   0.332   5.819   7.167  0.7459 -0.1834 -0.2865
 8857TIP3    H127453   0.414   5.832   7.120  0.9101 -0.4550 -0.0823
 8857TIP3    H227454   0.358   5.780   7.251  0.7054  2.6062  1.1404
 8858TIP3   OH227455   5.923   1.935   1.075  0.1657  0.0579 -0.1146
 8858TIP3    H127456   5.964   2.020   1.063 -2.1794  1.4260  0.8809
 8858TIP3    H227457   5.969   1.896   1.149  0.8117  0.7327 -0.1497
 8859TIP3   OH227458   1.637   3.603   5.255  0.0522 -0.0305 -0.6320
 8859TIP3    H127459   1.590   3.538   5.204 -2.1581  0.2966  0.8852
 8859TIP3    H227460   1.706   3.554   5.299 -1.0892 -1.2152 -0.1278
 8860TIP3   OH227461   9.003   8.596   2.943 -0.5551 -0.4577  0.1028
 8860TIP3    H127462   8.949   8.647   3.004  2.3584  0.4035  2.1757
 8860TIP3    H227463   9.020   8.656   2.870  0.0428  0.3575  0.8941
 8861TIP3   OH227464   8.458   7.852   3.760 -0.6603 -0.2831 -0.0504
 8861TIP3    H127465   8.519   7.884   3.694 -0.8211 -0.0151 -0.0703
 8861TIP3    H227466   8.488   7.890   3.842 -0.1942 -0.9814  0.1041
 8862TIP3   OH227467   0.944   7.976   5.838 -0.5119  0.5032  0.4321
 8862TIP3    H127468   0.892   7.946   5.913  0.8212 -1.3236  0.6771
 8862TIP3    H227469   0.910   7.926   5.764 -1.4575  1.9110 -0.1362
 8863TIP3   OH227470  10.421   3.184   6.798 -0.5046  1.0392  0.1819
 8863TIP3    H127471  10.515   3.171   6.789 -0.5655  0.5216  0.2514
 8863TIP3    H227472  10.412   3.256   6.861 -0.1376  2.1684 -1.0206
 8864TIP3   OH227473   8.980   5.044   4.776  0.1349  0.2536 -0.4302
 8864TIP3    H127474   8.964   4.962   4.730 -1.1221 -0.4080  1.0747
 8864TIP3    H227475   9.068   5.035   4.814 -0.2095 -0.6464  0.1782
 8865TIP3   OH227476   8.350   3.984   5.852 -0.1671  0.6022 -0.2916
 8865TIP3    H127477   8.291   4.028   5.913  0.4161 -0.6486  1.2165
 8865TIP3    H227478   8.316   3.895   5.844 -0.2042  0.7138 -1.7867
 8866TIP3   OH227479   9.419   3.635   0.485 -0.1669  0.3981 -0.2616
 8866TIP3    H127480   9.488   3.701   0.488  0.3287  0.0249 -2.1793
 8866TIP3    H227481   9.399   3.624   0.392 -2.0253 -0.3375  0.1610
 8867TIP3   OH227482   5.271   8.526   7.167  0.1337 -0.2992  0.0636
 8867TIP3    H127483   5.210   8.535   7.240  2.1763  0.3762  1.7598
 8867TIP3    H227484   5.236   8.585   7.099 -2.8336 -2.3185 -0.3807
 8868TIP3   OH227485   8.128   2.235   8.665 -0.4398 -0.2576 -0.3793
 8868TIP3    H127486   8.060   2.259   8.602 -0.3427  1.2255  0.0391
 8868TIP3    H227487   8.094   2.264   8.750 -0.2060 -1.4581  0.1463
 8869TIP3   OH227488   2.783   2.594   3.378  0.5047 -0.3630  0.1257
 8869TIP3    H127489   2.799   2.641   3.460  2.6986  0.7935 -0.8847
 8869TIP3    H227490   2.779   2.502   3.405 -1.0468  0.1130  1.7676
 8870TIP3   OH227491   9.642   6.956   1.408  0.0545 -0.3422  0.2339
 8870TIP3    H127492   9.620   6.890   1.474 -1.4591 -0.5735 -0.4758
 8870TIP3    H227493   9.659   7.035   1.459  0.8409 -0.9875  1.0224
 8871TIP3   OH227494   5.856   5.452   0.795  0.4879 -0.1563 -0.6646
 8871TIP3    H127495   5.842   5.361   0.770  0.5933 -0.6752  1.0220
 8871TIP3    H227496   5.885   5.495   0.715 -1.2620 -1.1883 -1.9224
 8872TIP3   OH227497   8.392   7.762   7.540 -0.0299 -0.2476 -0.1151
 8872TIP3    H127498   8.313   7.749   7.593  0.0113  0.8474  0.2501
 8872TIP3    H227499   8.363   7.750   7.450 -0.3180 -1.1559  0.0907
 8873TIP3   OH227500   3.803   5.805   6.814 -0.0490  0.2077 -0.1866
 8873TIP3    H127501   3.796   5.873   6.881  0.8033 -0.6974  0.8689
 8873TIP3    H227502   3.874   5.835   6.757  0.6123  0.0197  0.5206
 8874TIP3   OH227503   1.275   3.414   7.778  0.4402 -0.6436  0.0311
 8874TIP3    H127504   1.368   3.402   7.761  0.4596  0.2538 -0.5305
 8874TIP3    H227505   1.235   3.422   7.691 -0.3896 -2.4549  0.1801
 8875TIP3   OH227506  10.293   1.832   6.979 -0.5808  0.0316  0.5815
 8875TIP3    H127507  10.298   1.739   6.955  2.1490  0.2376 -0.0073
 8875TIP3    H227508  10.326   1.836   7.069 -0.6847  0.4346  0.6053
 8876TIP3   OH227509   9.256   3.142   0.603  0.0167  0.9044 -0.0284
 8876TIP3    H127510   9.329   3.203   0.597 -0.8893  2.2175  1.4246
 8876TIP3    H227511   9.220   3.156   0.691 -1.4635 -0.2911 -0.3997
 8877TIP3   OH227512   4.207   9.877   3.807  0.0399  0.2616 -0.7164
 8877TIP3    H127513   4.262   9.949   3.775  1.5272 -0.9516 -1.0094
 8877TIP3    H227514   4.214   9.809   3.740 -0.7720 -0.4442 -0.1175
 8878TIP3   OH227515  10.655   7.798   4.169  0.1731  0.4632 -0.4688
 8878TIP3    H127516  10.648   7.705   4.151  0.4563  0.2827  0.3273
 8878TIP3    H227517  10.742   7.809   4.208  0.0644  1.0293 -0.3668
 8879TIP3   OH227518   7.437   0.556   5.372  0.2826  0.1286 -0.3003
 8879TIP3    H127519   7.430   0.532   5.280 -0.8751  0.1991 -0.2534
 8879TIP3    H227520   7.524   0.527   5.398 -0.1270 -1.7734 -0.8836
 8880TIP3   OH227521   8.381  10.788   3.339  0.4989 -0.2741  0.2847
 8880TIP3    H127522   8.321  10.714   3.336  0.1740  0.0186 -1.1940
 8880TIP3    H227523   8.379  10.824   3.250  2.0917  0.3535  0.4750
 8881TIP3   OH227524   6.561   5.373   4.517 -0.7044  0.1913 -0.3887
 8881TIP3    H127525   6.562   5.460   4.476 -0.0089 -0.0432 -0.8740
 8881TIP3    H227526   6.536   5.313   4.446 -0.7979 -0.0592 -0.1455
 8882TIP3   OH227527   8.467   4.566   3.610 -0.1039  0.2723  0.0091
 8882TIP3    H127528   8.520   4.646   3.606 -0.0870  0.2483 -0.2672
 8882TIP3    H227529   8.509   4.506   3.549  0.3967 -0.2656  0.8674
 8883TIP3   OH227530   6.507   7.336   3.159 -0.8610 -0.3047  0.0268
 8883TIP3    H127531   6.475   7.246   3.153 -0.5151 -0.3323 -2.0601
 8883TIP3    H227532   6.437   7.384   3.204 -0.9795 -1.6049  1.2951
 8884TIP3   OH227533   7.831   7.619   2.967 -0.3645  0.3611  0.2366
 8884TIP3    H127534   7.890   7.656   3.033 -1.3082 -1.0195  1.9074
 8884TIP3    H227535   7.886   7.609   2.889  1.6403 -0.8462  1.7249
 8885TIP3   OH227536   3.729   2.398   5.585 -0.0257  0.7818 -0.2025
 8885TIP3    H127537   3.752   2.489   5.567  1.1269  0.7183  0.8131
 8885TIP3    H227538   3.657   2.403   5.647  1.1495  1.0443  1.1886
 8886TIP3   OH227539   8.384   1.635   7.429 -0.0219 -1.1268 -0.6150
 8886TIP3    H127540   8.366   1.680   7.511 -1.3216 -2.4387 -0.1308
 8886TIP3    H227541   8.376   1.703   7.362 -2.2396 -0.6469  0.0573
 8887TIP3   OH227542   8.404   4.044   3.691  1.0451 -0.2470  0.6008
 8887TIP3    H127543   8.349   4.034   3.769  1.0655  0.5410  0.7324
 8887TIP3    H227544   8.369   3.982   3.628 -0.4361  0.7159  0.4443
 8888TIP3   OH227545   9.101   4.955   6.789 -0.1210 -0.4252 -0.4697
 8888TIP3    H127546   9.055   5.030   6.826  0.0224  0.5569 -2.2175
 8888TIP3    H227547   9.186   4.954   6.834 -0.1259  0.4498 -0.4348
 8889TIP3   OH227548   2.227   9.347   6.183 -0.0047  0.0838  0.7096
 8889TIP3    H127549   2.276   9.275   6.144  1.4939  1.1057  0.5971
 8889TIP3    H227550   2.195   9.312   6.265 -0.0989 -0.9897  0.2397
 8890TIP3   OH227551   3.258   7.775   2.325 -0.4187 -0.0666  0.3670
 8890TIP3    H127552   3.204   7.850   2.300 -0.0208  0.1065 -0.0043
 8890TIP3    H227553   3.324   7.769   2.255 -0.3022 -0.6159  0.5176
 8891TIP3   OH227554   5.854   9.293   6.840  0.2597  0.6664  0.1672
 8891TIP3    H127555   5.841   9.385   6.865 -1.3015  0.3806  0.5156
 8891TIP3    H227556   5.850   9.246   6.923  0.1719  0.2077 -0.0958
 8892TIP3   OH227557   7.472   6.415   3.737 -0.1096  0.0742 -0.3133
 8892TIP3    H127558   7.442   6.357   3.807 -0.8987  1.1523  0.2837
 8892TIP3    H227559   7.545   6.464   3.775 -1.1780  1.3849  0.1579
 8893TIP3   OH227560   9.398   1.383   8.831 -0.0498 -0.0460  0.1463
 8893TIP3    H127561   9.485   1.421   8.844 -0.6834  1.2021  0.9425
 8893TIP3    H227562   9.340   1.435   8.887 -1.6763  0.5891 -1.9678
 8894TIP3   OH227563   8.795   1.081   2.360 -0.1910  0.1092 -0.5594
 8894TIP3    H127564   8.841   1.106   2.280  0.7715 -1.5381 -0.5494
 8894TIP3    H227565   8.837   1.000   2.388 -1.2003  0.1025  1.0553
 8895TIP3   OH227566   2.000   5.335   2.177  0.5929  0.4325  0.3704
 8895TIP3    H127567   1.945   5.291   2.241 -0.2691  2.3689  1.0471
 8895TIP3    H227568   2.066   5.380   2.230  1.5461 -0.1326 -0.3042
 8896TIP3   OH227569   5.268   0.714   6.600 -0.5142  0.3647  0.0579
 8896TIP3    H127570   5.339   0.654   6.626  0.1464  0.2503 -1.8135
 8896TIP3    H227571   5.309   0.801   6.600 -0.7948  0.4953  0.4475
 8897TIP3   OH227572  10.333   5.501   7.164 -0.0393  0.1156  0.0552
 8897TIP3    H127573  10.269   5.565   7.135 -2.6513 -0.1674  4.3686
 8897TIP3    H227574  10.409   5.516   7.108 -1.8623  4.2816 -1.7042
 8898TIP3   OH227575   5.932   0.520   4.599  0.2744 -0.0486  0.2692
 8898TIP3    H127576   5.957   0.539   4.690  0.8748 -0.6213  0.2315
 8898TIP3    H227577   5.893   0.602   4.568  1.1123  0.5302  0.6854
 8899TIP3   OH227578   1.041   1.900   1.883 -0.6998  0.3544 -0.7735
 8899TIP3    H127579   1.060   1.863   1.797  0.4985  2.1994 -1.3647
 8899TIP3    H227580   1.029   1.994   1.867  1.6749  1.1435  1.2798
 8900TIP3   OH227581   1.276   6.165   3.277  0.2880 -0.3470  0.0412
 8900TIP3    H127582   1.279   6.072   3.254 -1.4740 -0.5174  0.3554
 8900TIP3    H227583   1.297   6.210   3.195  1.2673 -1.0052 -0.0892
 8901TIP3   OH227584   2.698   4.702   7.438  0.1400  0.2227  0.4619
 8901TIP3    H127585   2.745   4.636   7.488  1.5087  1.4543  0.8601
 8901TIP3    H227586   2.761   4.772   7.424 -0.6924  0.6445 -1.6093
 8902TIP3   OH227587   9.215   8.256   5.929 -0.6931  0.1075  0.1415
 8902TIP3    H127588   9.231   8.185   5.867  0.3627  0.4361  0.0086
 8902TIP3    H227589   9.268   8.233   6.005 -1.2849  0.1538  0.5729
 8903TIP3   OH227590   5.540   3.319   9.607 -0.0332  0.1083 -0.0042
 8903TIP3    H127591   5.525   3.243   9.551 -0.2300  0.4496 -0.4212
 8903TIP3    H227592   5.633   3.341   9.594 -0.4918  1.2834 -1.6149
 8904TIP3   OH227593   3.160   4.526   5.690  0.2886 -0.0569  0.2300
 8904TIP3    H127594   3.186   4.476   5.612  2.1207  1.8296 -0.4618
 8904TIP3    H227595   3.087   4.580   5.660  0.3342 -0.0766  0.0785
 8905TIP3   OH227596   7.095   1.463   0.167  0.4644  0.3131 -0.0633
 8905TIP3    H127597   7.133   1.384   0.206  0.9117  0.8177  0.5340
 8905TIP3    H227598   7.112   1.454   0.074  0.5758 -0.2603  0.0054
 8906TIP3   OH227599   6.257   6.378  10.188  0.0860  0.0985  0.1915
 8906TIP3    H127600   6.301   6.463  10.184  1.7173 -0.7257 -0.0982
 8906TIP3    H227601   6.167   6.397  10.161  0.7252  1.5248 -1.1223
 8907TIP3   OH227602   3.478   4.800   4.876 -0.0231 -0.0932 -0.6314
 8907TIP3    H127603   3.496   4.752   4.957 -0.9871 -1.7038 -1.3045
 8907TIP3    H227604   3.451   4.887   4.905 -0.8434 -0.7859  0.8242
 8908TIP3   OH227605   8.320   9.794   1.047  0.7441 -0.0707  0.6427
 8908TIP3    H127606   8.352   9.750   1.126  1.7285 -0.0055  0.3016
 8908TIP3    H227607   8.225   9.782   1.049  0.9637 -2.2755  0.5378
 8909TIP3   OH227608   6.182   2.509   8.224 -0.2879  0.4888  0.1438
 8909TIP3    H127609   6.249   2.468   8.168 -0.2078 -0.3885  0.8638
 8909TIP3    H227610   6.100   2.492   8.178 -0.5572 -2.5821  1.4991
 8910TIP3   OH227611   8.732   5.172   4.067  0.1438 -0.4030 -0.0537
 8910TIP3    H127612   8.686   5.184   4.150 -0.7663 -0.9534 -0.4635
 8910TIP3    H227613   8.715   5.252   4.018 -0.9774 -0.8736 -0.4697
 8911TIP3   OH227614  10.503   2.874   2.262 -0.0985  0.3259  0.5338
 8911TIP3    H127615  10.412   2.859   2.289 -0.6349  1.8990 -0.2535
 8911TIP3    H227616  10.550   2.891   2.343 -0.4770 -0.6302  0.9631
 8912TIP3   OH227617   7.001   1.191   2.861 -0.2258  0.1895 -0.1309
 8912TIP3    H127618   6.950   1.122   2.818 -1.2484  0.3635  0.7566
 8912TIP3    H227619   7.056   1.144   2.924 -0.4820  0.1328  0.0516
 8913TIP3   OH227620   0.108   7.103   8.586  0.2278 -0.1351  0.5577
 8913TIP3    H127621   0.054   7.059   8.652 -0.2433  0.1542  0.3706
 8913TIP3    H227622   0.131   7.033   8.524 -0.6860 -0.0950  0.1519
 8914TIP3   OH227623   5.883  10.843   0.120  0.0457  0.4976 -0.2929
 8914TIP3    H127624   5.829  10.780   0.073  0.0061 -0.9987  1.6221
 8914TIP3    H227625   5.842  10.928   0.102  0.0696  0.0521 -2.8912
 8915TIP3   OH227626   1.363   8.154   9.055 -0.8590  0.2176  0.3637
 8915TIP3    H127627   1.304   8.194   8.991 -0.1204  0.9909  0.1566
 8915TIP3    H227628   1.315   8.078   9.087 -2.3608  1.3573  0.8982
 8916TIP3   OH227629   8.332   5.020  10.386  0.2121  0.0639  0.2365
 8916TIP3    H127630   8.268   5.089  10.400 -0.0170 -0.0665 -0.1534
 8916TIP3    H227631   8.395   5.030  10.457 -1.8313 -1.6715  2.4421
 8917TIP3   OH227632   7.720   3.444   6.122  0.0522 -0.1722 -0.7017
 8917TIP3    H127633   7.636   3.426   6.165 -0.5850  0.1903 -1.7601
 8917TIP3    H227634   7.750   3.358   6.092  1.6828 -0.8482  2.4273
 8918TIP3   OH227635   9.801   7.707  10.345  0.1557  0.1656 -0.0345
 8918TIP3    H127636   9.889   7.745  10.351 -0.0597  0.4905  1.5542
 8918TIP3    H227637   9.743   7.777  10.376 -0.7040  0.0150 -1.2334
 8919TIP3   OH227638   5.668   3.216   8.797  0.2673  0.7209  0.1350
 8919TIP3    H127639   5.723   3.259   8.732 -0.0952  0.3697 -0.4171
 8919TIP3    H227640   5.594   3.276   8.811  0.4976  0.9328  0.4501
 8920TIP3   OH227641   6.747   8.054   9.180 -0.0824 -0.1486  0.0255
 8920TIP3    H127642   6.667   8.002   9.170  1.0590 -2.1219  0.6195
 8920TIP3    H227643   6.758   8.061   9.275  0.3407  0.2821 -0.0567
 8921TIP3   OH227644  10.817   4.240   3.327 -0.5948  0.7861 -0.2874
 8921TIP3    H127645  10.817   4.145   3.322 -2.9425  0.7403 -0.7383
 8921TIP3    H227646  10.819   4.269   3.236  3.4423  1.3698 -0.2087
 8922TIP3   OH227647   6.088   7.733   6.092 -0.0616 -0.2473  0.7571
 8922TIP3    H127648   6.042   7.709   6.173 -0.8305 -0.0693  0.3784
 8922TIP3    H227649   6.168   7.776   6.122  0.8602 -2.2957  1.4636
 8923TIP3   OH227650   3.223   7.429   5.523  0.4852  0.3532  0.7622
 8923TIP3    H127651   3.203   7.336   5.532  0.0439  0.6523  3.5477
 8923TIP3    H227652   3.273   7.434   5.441 -0.9449 -2.0412 -0.3961
 8924TIP3   OH227653  10.655   3.090   2.933  0.3389 -0.0132  0.3555
 8924TIP3    H127654  10.735   3.142   2.940 -0.1163  0.6812  0.5300
 8924TIP3    H227655  10.585   3.155   2.920 -0.2227 -0.5900  0.4191
 8925TIP3   OH227656   0.546   5.548   3.707 -0.3945 -0.0172 -0.7448
 8925TIP3    H127657   0.496   5.537   3.787  0.7372 -2.4367 -0.2693
 8925TIP3    H227658   0.606   5.621   3.726 -0.3952 -0.3131  0.4806
 8926TIP3   OH227659   8.093   5.727   5.388 -0.4378 -0.5706  0.1914
 8926TIP3    H127660   8.090   5.631   5.397 -1.4912 -0.4434  1.4874
 8926TIP3    H227661   8.184   5.749   5.403 -0.0367 -1.4243 -0.8443
 8927TIP3   OH227662  10.427   2.149   8.463 -0.4994 -0.2595 -0.6751
 8927TIP3    H127663  10.349   2.204   8.467 -2.9456 -3.2022 -3.0346
 8927TIP3    H227664  10.431   2.105   8.548 -0.7816  0.6785 -0.1710
 8928TIP3   OH227665   7.748   1.166   3.290 -0.0000  0.1404  0.1473
 8928TIP3    H127666   7.659   1.158   3.254  0.0654 -1.0689  0.2181
 8928TIP3    H227667   7.768   1.079   3.325  0.6230  0.8200  1.5444
 8929TIP3   OH227668  10.450   8.161   7.808  0.1895  0.5453 -0.2126
 8929TIP3    H127669  10.404   8.104   7.870 -0.3518  1.4720  0.2604
 8929TIP3    H227670  10.416   8.135   7.722 -0.1242  0.2271  0.0036
 8930TIP3   OH227671   2.360   5.476   7.135  0.1742 -0.5872  0.0785
 8930TIP3    H127672   2.297   5.410   7.107 -2.4402  1.3494  1.0415
 8930TIP3    H227673   2.430   5.471   7.070 -1.9255 -1.4738 -2.2596
 8931TIP3   OH227674   9.975   3.530   9.357 -0.0131 -0.2091  0.4181
 8931TIP3    H127675   9.897   3.478   9.336  0.4029  0.0310 -1.9856
 8931TIP3    H227676   9.941   3.609   9.398 -1.1347  0.2005 -1.2270
 8932TIP3   OH227677   1.505   7.681   9.723 -0.4921  0.3314 -0.6491
 8932TIP3    H127678   1.439   7.708   9.660  0.0637  2.7233 -0.2914
 8932TIP3    H227679   1.455   7.636   9.792 -1.4502  0.2580 -1.3720
 8933TIP3   OH227680   2.826   1.115   7.544  0.0198 -1.1506  0.2893
 8933TIP3    H127681   2.818   1.207   7.570  1.8547 -1.1627  1.0184
 8933TIP3    H227682   2.756   1.102   7.480  0.4751  1.0952 -0.7645
 8934TIP3   OH227683   6.605  10.798   7.232 -0.4758 -0.6579 -0.4111
 8934TIP3    H127684   6.598  10.878   7.285  0.5494  0.0638 -1.3207
 8934TIP3    H227685   6.650  10.735   7.289 -0.6937 -0.3730  0.0841
 8935TIP3   OH227686   5.612   7.139   0.093 -0.1752  0.7491  0.6671
 8935TIP3    H127687   5.584   7.226   0.062 -1.0665  0.6051  1.0140
 8935TIP3    H227688   5.696   7.155   0.136 -0.1559  1.3816  0.4106
 8936TIP3   OH227689   4.345   5.283   4.901  0.5846  0.3968 -0.0340
 8936TIP3    H127690   4.257   5.260   4.871 -0.1814 -1.1701  2.9799
 8936TIP3    H227691   4.399   5.208   4.876  0.0005 -0.7898  2.0100
 8937TIP3   OH227692   5.265   4.105  10.673  0.4489  0.1403  0.3715
 8937TIP3    H127693   5.229   4.152  10.597 -0.3340 -1.7188 -0.4707
 8937TIP3    H227694   5.188   4.078  10.722  0.8601 -0.6632  0.5769
 8938TIP3   OH227695   6.645   6.820   0.738  0.0498  0.0450  0.0305
 8938TIP3    H127696   6.564   6.842   0.691 -0.3740  2.2461  1.6338
 8938TIP3    H227697   6.624   6.739   0.785 -1.7384  1.2227  1.4092
 8939TIP3   OH227698   4.544  10.422   1.966  0.5594 -0.5808 -0.3382
 8939TIP3    H127699   4.456  10.439   1.998 -0.2170 -1.6945 -1.7830
 8939TIP3    H227700   4.550  10.470   1.884  1.0941 -0.9714 -0.5404
 8940TIP3   OH227701   9.488   4.152   2.153  0.5945 -0.3487 -0.3666
 8940TIP3    H127702   9.397   4.180   2.163  0.3187 -0.6530 -1.7415
 8940TIP3    H227703   9.517   4.195   2.073  1.1798 -1.4126 -0.7383
 8941TIP3   OH227704   2.411   7.993   1.415 -0.0521  0.3666 -0.2241
 8941TIP3    H127705   2.359   8.052   1.360  0.7190  0.6125 -0.7052
 8941TIP3    H227706   2.411   7.910   1.368  1.5695  0.8898 -1.2183
 8942TIP3   OH227707   8.241  10.793   3.739 -0.4723  0.0361 -0.3335
 8942TIP3    H127708   8.215  10.774   3.829 -1.5327  1.5182 -0.2910
 8942TIP3    H227709   8.322  10.743   3.726 -1.0234 -1.2832  0.9752
 8943TIP3   OH227710   8.902   1.950   2.217 -0.3158 -0.4022 -0.4375
 8943TIP3    H127711   8.914   1.861   2.185  0.6803 -0.0091 -1.2147
 8943TIP3    H227712   8.982   1.996   2.191 -0.1423  0.3376  1.2913
 8944TIP3   OH227713   3.178  10.704   6.461  0.1443 -0.1786 -0.0567
 8944TIP3    H127714   3.141  10.679   6.376  1.3180  0.4062 -0.7572
 8944TIP3    H227715   3.241  10.635   6.480 -0.9450 -0.9440  0.9369
 8945TIP3   OH227716   0.887   8.559   0.364  0.5943 -0.2113 -0.7807
 8945TIP3    H127717   0.928   8.644   0.346 -1.1597  0.7203 -0.5089
 8945TIP3    H227718   0.838   8.539   0.285 -2.6279  1.2378  0.6819
 8946TIP3   OH227719  10.162   2.775   2.901 -0.4767  0.1329  0.0120
 8946TIP3    H127720  10.083   2.722   2.909  0.4007 -1.1204  0.7942
 8946TIP3    H227721  10.212   2.755   2.981  0.1697  1.6771  0.0299
 8947TIP3   OH227722   1.502   1.097   8.516 -0.2530  0.1668  0.8657
 8947TIP3    H127723   1.542   1.183   8.506 -0.4385  0.2727  1.0273
 8947TIP3    H227724   1.419   1.104   8.469  0.7520 -0.6425 -1.1549
 8948TIP3   OH227725   8.186   5.222   8.375 -0.1275 -0.3020  0.4370
 8948TIP3    H127726   8.169   5.135   8.339  0.6809 -0.9473  1.5625
 8948TIP3    H227727   8.191   5.209   8.469 -0.6547  1.0910  0.6785
 8949TIP3   OH227728   5.343   5.474   2.813 -0.0367  0.1309  0.6196
 8949TIP3    H127729   5.396   5.401   2.845  0.5884 -0.2104 -1.0826
 8949TIP3    H227730   5.400   5.550   2.819 -0.0605  0.1424  0.6963
 8950TIP3   OH227731   5.265   9.014   0.788 -0.4146 -0.6173  0.0388
 8950TIP3    H127732   5.285   9.058   0.706 -0.3057  0.4744  0.6297
 8950TIP3    H227733   5.170   9.021   0.798 -0.2608  0.8017  0.8192
 8951TIP3   OH227734   0.512   4.766   6.026  0.3424 -0.9630 -0.4059
 8951TIP3    H127735   0.452   4.786   5.955  0.2870  0.0538 -0.0879
 8951TIP3    H227736   0.461   4.711   6.086 -0.0024 -0.7911 -0.5407
 8952TIP3   OH227737   4.080   3.425   1.119 -0.2740 -0.7162  0.2016
 8952TIP3    H127738   4.070   3.370   1.041 -1.4759  1.8527 -1.6373
 8952TIP3    H227739   4.171   3.457   1.114 -0.1767 -0.9950  0.1782
 8953TIP3   OH227740   3.879   7.338   3.797 -0.1485 -0.0940 -0.0447
 8953TIP3    H127741   3.823   7.344   3.720 -0.5946 -0.6079  0.2265
 8953TIP3    H227742   3.887   7.428   3.828 -0.5053  0.0359 -0.3160
 8954TIP3   OH227743   6.510   9.674   7.389 -0.0071  0.3650  0.0469
 8954TIP3    H127744   6.417   9.698   7.389 -0.1981 -0.2443  1.9858
 8954TIP3    H227745   6.548   9.723   7.461  0.5480 -1.5364  1.1264
 8955TIP3   OH227746   0.423   5.318   7.701  0.1096 -0.1001 -0.1844
 8955TIP3    H127747   0.366   5.243   7.719 -0.6898  0.6736  0.6860
 8955TIP3    H227748   0.478   5.325   7.779  0.1525  0.2276 -0.2428
 8956TIP3   OH227749   7.817   3.056   8.841 -0.3108  0.3612 -0.7131
 8956TIP3    H127750   7.862   3.140   8.833  0.8526  0.2262  2.7422
 8956TIP3    H227751   7.726   3.079   8.858 -0.5141  0.8013 -2.2705
 8957TIP3   OH227752   1.824   8.532   9.955  0.2688  0.5427  0.1013
 8957TIP3    H127753   1.793   8.598   9.892 -0.7113  0.5786  0.6056
 8957TIP3    H227754   1.765   8.541  10.029 -0.4430 -1.5020 -0.1772
 8958TIP3   OH227755   3.658   5.364   5.710 -0.2189  0.2599 -0.1980
 8958TIP3    H127756   3.643   5.456   5.689 -0.1487  0.1968 -0.5243
 8958TIP3    H227757   3.744   5.362   5.751 -0.5571  0.4503  0.5507
 8959TIP3   OH227758   9.202   0.919   3.957 -0.4202 -0.3667  0.7459
 8959TIP3    H127759   9.173   0.829   3.940 -1.0406 -0.3354  1.5444
 8959TIP3    H227760   9.287   0.926   3.914 -2.2278  0.0576 -3.1679
 8960TIP3   OH227761   4.581  10.547   9.866  0.2088 -0.5145  0.8178
 8960TIP3    H127762   4.513  10.518   9.927 -0.4855 -0.7829 -0.0700
 8960TIP3    H227763   4.655  10.491   9.885 -0.3812 -1.3669  0.6493
 8961TIP3   OH227764   8.688  10.502   6.099  0.1869  0.1187  0.2367
 8961TIP3    H127765   8.685  10.593   6.129  0.6092 -0.0391  0.7746
 8961TIP3    H227766   8.601  10.486   6.064  0.7604  1.4254 -1.9553
 8962TIP3   OH227767   1.923   4.216   2.355 -0.3301 -0.3103  0.0232
 8962TIP3    H127768   1.954   4.283   2.416 -0.6776 -0.7305  0.6722
 8962TIP3    H227769   1.997   4.156   2.346  0.4053  0.7474 -1.4650
 8963TIP3   OH227770   2.316   0.623   9.213 -0.5535  0.6025 -1.0154
 8963TIP3    H127771   2.283   0.709   9.189 -0.0580  0.5990 -1.7210
 8963TIP3    H227772   2.254   0.591   9.279  0.7572  2.6525  1.3699
 8964TIP3   OH227773   3.409   8.570   9.180  0.7248 -0.0056 -0.6835
 8964TIP3    H127774   3.352   8.597   9.252  0.8215  1.2394 -1.0453
 8964TIP3    H227775   3.409   8.475   9.184  0.2834  0.0270  0.6112
 8965TIP3   OH227776   7.669   5.411   9.616  0.4594 -0.0850  0.5659
 8965TIP3    H127777   7.739   5.470   9.644 -0.9320  1.8684  0.0826
 8965TIP3    H227778   7.588   5.453   9.646 -0.6289 -1.4806 -0.2622
 8966TIP3   OH227779   9.472   9.512   7.405 -0.4941  0.1452  0.3493
 8966TIP3    H127780   9.490   9.450   7.334  0.3477  0.0759  0.6135
 8966TIP3    H227781   9.496   9.597   7.369 -0.8436  0.2151  0.2772
 8967TIP3   OH227782   1.981   2.252   4.789 -0.6484  0.0085 -0.4033
 8967TIP3    H127783   2.055   2.278   4.844  0.8764 -0.0790 -2.2804
 8967TIP3    H227784   1.934   2.186   4.840  0.4495  0.2364  0.9438
 8968TIP3   OH227785   9.381   2.954   7.784 -0.0717 -0.2301  0.4733
 8968TIP3    H127786   9.413   3.020   7.723  2.0261 -0.9197  0.7390
 8968TIP3    H227787   9.367   3.002   7.866  1.0293 -0.0238  0.5478
 8969TIP3   OH227788  10.622   4.873   3.557  0.3974 -0.7398  0.1442
 8969TIP3    H127789  10.554   4.886   3.492 -0.0820 -0.9435  0.6026
 8969TIP3    H227790  10.681   4.948   3.545 -0.6912  0.2372  0.7097
 8970TIP3   OH227791   5.486   9.550   5.524 -0.0912  0.6449  0.2204
 8970TIP3    H127792   5.509   9.573   5.434  0.7137 -1.6508 -0.2295
 8970TIP3    H227793   5.539   9.473   5.544 -2.6218 -0.9179  1.4994
 8971TIP3   OH227794   4.980   2.380   5.843  0.3465  1.0022  0.4203
 8971TIP3    H127795   5.047   2.448   5.846 -0.3721  1.6953  1.8815
 8971TIP3    H227796   4.899   2.424   5.871 -0.5826  0.0255 -0.6124
 8972TIP3   OH227797   1.913   4.479   7.402  0.0849 -0.1101 -0.0146
 8972TIP3    H127798   1.938   4.564   7.438 -1.0104 -0.1978  1.0318
 8972TIP3    H227799   1.921   4.489   7.308  1.0048  0.8115  0.1517
 8973TIP3   OH227800   3.950   3.622   2.507 -0.5850  0.5018 -0.1969
 8973TIP3    H127801   3.871   3.651   2.553 -0.2993  0.1332  0.5322
 8973TIP3    H227802   3.918   3.557   2.444 -0.7949 -0.0496  0.4719
 8974TIP3   OH227803   3.849   4.420   8.812 -0.1031  0.1837  0.6671
 8974TIP3    H127804   3.836   4.395   8.903  2.2592 -0.0654  1.0074
 8974TIP3    H227805   3.770   4.391   8.767 -1.2642  0.2064  2.6004
 8975TIP3   OH227806   3.273   9.389   4.753  0.2989  0.2673  0.6985
 8975TIP3    H127807   3.246   9.422   4.668 -1.7670  1.6217  1.7963
 8975TIP3    H227808   3.242   9.299   4.755  1.1705 -0.0783 -0.2791
 8976TIP3   OH227809   2.180   9.650   5.143  0.4481 -0.5787  0.2438
 8976TIP3    H127810   2.215   9.689   5.063 -2.8461  0.4450 -0.8897
 8976TIP3    H227811   2.231   9.571   5.156  1.9985 -0.0560 -2.0890
 8977TIP3   OH227812   5.323   5.093  10.330 -0.1525 -0.2259  0.3231
 8977TIP3    H127813   5.268   5.015  10.320  0.4822 -1.0726  2.6635
 8977TIP3    H227814   5.393   5.065  10.389  1.5309  1.4599 -0.7638
 8978TIP3   OH227815   9.807   7.645   2.322  0.3105  0.4952 -0.4121
 8978TIP3    H127816   9.859   7.580   2.274  1.2425  1.3791 -0.6422
 8978TIP3    H227817   9.732   7.663   2.266 -0.5460 -1.1502  0.1296
 8979TIP3   OH227818   3.334  10.885   4.048  0.2065 -0.2885  1.2997
 8979TIP3    H127819   3.322  10.829   3.971  2.3932  3.2188 -1.9057
 8979TIP3    H227820   3.250  10.929   4.059 -0.1544 -0.8939  1.0128
 8980TIP3   OH227821   2.687   0.981   0.042 -0.3866 -0.0136 -0.2012
 8980TIP3    H127822   2.735   1.027   0.110  1.6905 -1.1429 -0.8046
 8980TIP3    H227823   2.734   1.002  -0.039 -0.7235 -1.3899 -0.7828
 8981TIP3   OH227824   9.124   6.362   2.421 -0.1634 -0.5655  0.1909
 8981TIP3    H127825   9.121   6.271   2.451  1.5716 -0.5905  0.4072
 8981TIP3    H227826   9.173   6.358   2.338 -0.2249  0.1489  0.1105
 8982TIP3   OH227827   1.243  10.128   2.738  0.1980 -0.3440 -0.3183
 8982TIP3    H127828   1.195  10.192   2.791  0.4841  0.0621 -0.5345
 8982TIP3    H227829   1.332  10.131   2.773  0.4958  0.2596 -1.1001
 8983TIP3   OH227830  10.062   2.721   0.910 -0.1150  0.0671 -0.1936
 8983TIP3    H127831  10.014   2.800   0.934 -0.9095  0.2579 -2.2051
 8983TIP3    H227832  10.135   2.717   0.972  0.3140  2.7359 -0.4037
 8984TIP3   OH227833   8.364   8.171   9.783  0.2430  0.0894  0.1258
 8984TIP3    H127834   8.429   8.237   9.806 -0.0558  0.2080  0.6412
 8984TIP3    H227835   8.309   8.213   9.717 -0.0004  0.3837  0.5187
 8985TIP3   OH227836   5.623   7.656   9.411  0.0949  0.3317  0.1975
 8985TIP3    H127837   5.536   7.624   9.388  0.1417 -0.1338  0.6500
 8985TIP3    H227838   5.607   7.734   9.465 -0.1227 -1.1625  2.4169
 8986TIP3   OH227839   3.831   2.572   0.168  0.1493 -0.3598 -0.3537
 8986TIP3    H127840   3.747   2.579   0.122  0.2935  0.1671 -0.5435
 8986TIP3    H227841   3.868   2.660   0.164  1.6895 -1.0223 -2.1274
 8987TIP3   OH227842   0.871  10.267  10.719 -0.0816 -0.1520  0.3910
 8987TIP3    H127843   0.843  10.323  10.791  1.0066  1.1269 -0.1242
 8987TIP3    H227844   0.803  10.278  10.652  1.2504  2.5559 -0.6662
 8988TIP3   OH227845   1.624   8.536   2.927  0.1141  0.1157  0.3514
 8988TIP3    H127846   1.669   8.455   2.901 -1.3648  0.1085 -2.6031
 8988TIP3    H227847   1.543   8.506   2.969 -0.1153  0.0603 -0.1275
 8989TIP3   OH227848   4.530   7.944   1.028 -0.1047 -0.1570 -0.0870
 8989TIP3    H127849   4.457   8.000   1.003 -0.0428  0.4758  1.0659
 8989TIP3    H227850   4.608   7.998   1.014  0.0824 -0.5320 -0.5135
 8990TIP3   OH227851   7.674   5.974   8.739 -0.3481  0.9264 -0.2774
 8990TIP3    H127852   7.677   5.886   8.701  1.4995  0.0684  1.6497
 8990TIP3    H227853   7.744   6.022   8.694  0.9193  0.3248  0.9708
 8991TIP3   OH227854   3.533   5.229   4.731  0.2693 -0.3218 -0.5099
 8991TIP3    H127855   3.570   5.169   4.796 -0.3849  0.6986  0.8501
 8991TIP3    H227856   3.462   5.274   4.777 -2.0146 -1.4254 -2.7035
 8992TIP3   OH227857   2.861   2.356   7.941 -0.5348  0.3235  0.0463
 8992TIP3    H127858   2.769   2.372   7.964 -0.1679  0.3939  1.6067
 8992TIP3    H227859   2.910   2.410   8.003  0.5561  1.4947 -1.7773
 8993TIP3   OH227860   4.795   8.334   8.978 -0.3309  0.3703  0.8634
 8993TIP3    H127861   4.845   8.409   9.011 -0.7589  1.0135  0.0877
 8993TIP3    H227862   4.806   8.337   8.883  0.2512 -1.0023  0.8606
 8994TIP3   OH227863   7.884   3.039   1.078  0.2283 -0.7698  0.2718
 8994TIP3    H127864   7.835   3.022   0.997 -1.8736  0.2679  1.2430
 8994TIP3    H227865   7.969   2.996   1.064  0.5385  0.6029 -3.0687
 8995TIP3   OH227866   7.420   0.059   1.963 -0.1611 -0.0951 -0.2634
 8995TIP3    H127867   7.399   0.151   1.979  2.6589  0.6643 -0.4171
 8995TIP3    H227868   7.438   0.054   1.870 -0.3389 -0.8439 -0.2686
 8996TIP3   OH227869   0.743   5.600   4.731 -0.0697  0.3053  0.3065
 8996TIP3    H127870   0.697   5.680   4.706 -0.1861  0.3399  0.6394
 8996TIP3    H227871   0.780   5.567   4.648 -0.7914  0.2097  0.0139
 8997TIP3   OH227872   0.980   2.729   9.373 -0.2686  0.3309 -0.0446
 8997TIP3    H127873   1.042   2.801   9.380 -0.1563  0.2628 -0.3195
 8997TIP3    H227874   0.894   2.771   9.373 -0.1774  0.5533 -1.2615
 8998TIP3   OH227875   3.971   5.037   1.147  0.3467 -0.1947  0.2537
 8998TIP3    H127876   3.961   4.956   1.198 -2.5854 -0.7188 -0.9718
 8998TIP3    H227877   3.988   5.007   1.058 -0.0122  0.5641 -0.0728
 8999TIP3   OH227878   3.976   7.441   1.864 -0.0460 -0.2415  0.1833
 8999TIP3    H127879   3.993   7.347   1.870  0.7504 -0.0785  0.5989
 8999TIP3    H227880   4.031   7.471   1.791  0.8413  0.1449  0.9921
 9000TIP3   OH227881   9.567   3.135   4.228 -0.0430  0.1757 -1.2204
 9000TIP3    H127882   9.574   3.080   4.307  0.9443 -0.6452 -1.8486
 9000TIP3    H227883   9.608   3.082   4.159 -1.8958  0.3936 -2.5548
 9001TIP3   OH227884   5.258   6.603   7.945 -0.1676 -0.3829 -0.0743
 9001TIP3    H127885   5.193   6.624   7.878 -1.6215 -0.8675  1.1383
 9001TIP3    H227886   5.258   6.679   8.003 -1.0078 -1.1268  0.9342
 9002TIP3   OH227887   9.031   2.747   2.308 -0.3910 -0.1869 -0.3438
 9002TIP3    H127888   9.066   2.830   2.341 -0.2235  0.2400 -1.5585
 9002TIP3    H227889   8.973   2.716   2.378 -0.0203  0.6675  0.3575
 9003TIP3   OH227890   4.799   9.478   3.461 -0.1193 -0.0413 -0.6069
 9003TIP3    H127891   4.875   9.422   3.474  0.0221  0.2984  0.1319
 9003TIP3    H227892   4.773   9.503   3.550 -0.2824  0.9086 -0.9125
 9004TIP3   OH227893   0.203   6.412   3.583  0.2798 -0.7162  0.4133
 9004TIP3    H127894   0.220   6.483   3.645 -1.0610 -0.8970  1.0264
 9004TIP3    H227895   0.257   6.433   3.506  2.8690 -1.0767  2.0141
 9005TIP3   OH227896   9.078   1.976   1.619 -0.3801 -0.1662  0.0755
 9005TIP3    H127897   9.107   2.000   1.707 -0.8247  2.6489 -0.4394
 9005TIP3    H227898   8.984   1.962   1.627 -0.1380 -1.8427  0.3528
 9006TIP3   OH227899   6.530   6.438   2.647  0.5435 -0.0051  0.2822
 9006TIP3    H127900   6.477   6.467   2.572 -1.5046  0.0256  1.6721
 9006TIP3    H227901   6.519   6.506   2.713  1.4547 -0.5505  1.0334
 9007TIP3   OH227902   2.462   1.023   6.458 -0.7135  0.0539  0.0142
 9007TIP3    H127903   2.460   0.974   6.376  0.0859  0.7984 -0.4683
 9007TIP3    H227904   2.378   1.004   6.500 -0.8966 -0.7830 -0.7029
 9008TIP3   OH227905   2.422   9.009   7.807 -0.0739 -0.3175  0.3644
 9008TIP3    H127906   2.405   9.089   7.858 -1.0453  1.1747 -2.1124
 9008TIP3    H227907   2.514   8.989   7.823  0.4965  1.9594  0.2463
 9009TIP3   OH227908   0.224   6.121  10.039  0.1357  0.5691  0.2413
 9009TIP3    H127909   0.193   6.068  10.112  0.1908  0.4548  0.1826
 9009TIP3    H227910   0.258   6.057   9.976 -2.3316  0.4507 -1.0717
 9010TIP3   OH227911   7.484  10.419  10.747 -0.0793  0.3522  0.2114
 9010TIP3    H127912   7.559  10.363  10.767 -1.4271 -1.9635 -0.7606
 9010TIP3    H227913   7.462  10.397  10.656 -1.1767  1.8809  0.0768
 9011TIP3   OH227914   0.070   9.606  10.543  0.7586  0.3662  0.0718
 9011TIP3    H127915   0.157   9.615  10.505 -0.0531  2.1104 -1.5039
 9011TIP3    H227916   0.055   9.689  10.588 -0.5519  0.5805 -0.7226
 9012TIP3   OH227917   6.921   2.758   3.126  0.4094 -0.1797  0.8619
 9012TIP3    H127918   7.002   2.767   3.076  0.6728  1.0448  1.4705
 9012TIP3    H227919   6.852   2.782   3.063  0.7219  1.1389  0.9820
 9013TIP3   OH227920   2.178   2.367   4.937  0.3098 -0.4376  0.0926
 9013TIP3    H127921   2.229   2.444   4.909 -0.6497  0.7701  1.5047
 9013TIP3    H227922   2.141   2.392   5.021  0.9426 -2.9298  1.2003
 9014TIP3   OH227923  10.522   4.931   2.014 -0.4008 -1.0167  0.1159
 9014TIP3    H127924  10.608   4.890   2.024 -0.2178 -0.3271  1.7381
 9014TIP3    H227925  10.513   4.945   1.919  1.6586 -0.3422 -0.0312
 9015TIP3   OH227926   0.905   3.085   3.975 -0.4243  0.0727 -0.0315
 9015TIP3    H127927   0.954   3.158   4.012 -0.5392  0.6377 -0.9631
 9015TIP3    H227928   0.822   3.123   3.947 -0.6692 -0.5129 -0.1257
 9016TIP3   OH227929   0.036   7.705   6.309 -0.2765 -0.1531  0.0181
 9016TIP3    H127930   0.123   7.724   6.273 -0.3825  0.3992  0.0433
 9016TIP3    H227931  -0.021   7.767   6.265 -0.5887 -0.2185  0.3354
 9017TIP3   OH227932   7.295   1.928   3.381  0.0787 -0.2762 -0.1736
 9017TIP3    H127933   7.236   1.976   3.439  0.3885  0.0180 -0.0957
 9017TIP3    H227934   7.374   1.913   3.433 -1.2599 -4.1057  1.1159
 9018TIP3   OH227935   4.148   5.081   8.985 -0.3963 -0.6611  0.0276
 9018TIP3    H127936   4.154   5.095   9.080 -0.3771  0.3971 -0.1229
 9018TIP3    H227937   4.215   5.139   8.948  0.1069 -1.6095 -0.5983
 9019TIP3   OH227938   7.744   7.722   7.387  0.4698 -0.1956  0.1571
 9019TIP3    H127939   7.686   7.647   7.403  0.5869 -0.2852  0.1631
 9019TIP3    H227940   7.823   7.683   7.349  0.0029  0.0618 -1.1062
 9020TIP3   OH227941   0.090   3.636   5.562 -0.1606  0.1680 -0.0425
 9020TIP3    H127942   0.016   3.627   5.622  0.5087 -1.0000  0.6388
 9020TIP3    H227943   0.101   3.549   5.525  1.7275 -0.0557  0.9244
 9021TIP3   OH227944  10.180   8.990   5.944  0.2900 -0.2578 -0.1450
 9021TIP3    H127945  10.234   8.921   5.905  0.4258  0.5846 -1.5120
 9021TIP3    H227946  10.091   8.969   5.916  0.3331  0.1190 -0.5702
 9022TIP3   OH227947   5.747   7.141   2.779 -0.2615 -0.0518  0.1920
 9022TIP3    H127948   5.763   7.050   2.803  1.7508 -0.4924 -2.3539
 9022TIP3    H227949   5.808   7.158   2.708 -3.6932  1.8834 -2.6097
 9023TIP3   OH227950   4.597   0.714   1.496 -0.4235 -0.0020 -0.0558
 9023TIP3    H127951   4.511   0.695   1.457 -1.2014 -0.4721  1.7840
 9023TIP3    H227952   4.631   0.787   1.443 -2.8550  1.5516  0.3626
 9024TIP3   OH227953   0.808   0.444   8.752  0.0635  0.1749 -0.3234
 9024TIP3    H127954   0.740   0.465   8.817 -0.0803  1.2809 -0.8212
 9024TIP3    H227955   0.887   0.429   8.805 -0.2285  0.3109  0.1628
 9025TIP3   OH227956  10.201   0.380   5.617  0.0531  0.7519 -0.1129
 9025TIP3    H127957  10.111   0.408   5.631 -0.2154  0.3219 -0.9151
 9025TIP3    H227958  10.253   0.434   5.677 -0.8809 -0.1298  1.5517
 9026TIP3   OH227959  10.739   7.407   6.347  0.0728 -0.8530  0.4568
 9026TIP3    H127960  10.660   7.357   6.326  0.6295 -0.9349 -1.6025
 9026TIP3    H227961  10.729   7.428   6.440 -1.7562 -1.9381  0.5632
 9027TIP3   OH227962   8.791   7.493   9.570 -0.1053 -0.0197  0.2279
 9027TIP3    H127963   8.797   7.577   9.616 -2.0618  0.8790 -1.0194
 9027TIP3    H227964   8.834   7.509   9.486  3.1262 -1.5429  1.4128
 9028TIP3   OH227965   7.696   6.974   6.039  0.5989  0.4420 -0.1591
 9028TIP3    H127966   7.735   7.051   5.998  0.0149  0.9373  0.2094
 9028TIP3    H227967   7.632   7.009   6.101 -0.2788 -0.3481 -0.5875
 9029TIP3   OH227968   3.528   5.580   8.778  0.2378 -0.0015 -0.7869
 9029TIP3    H127969   3.458   5.636   8.813  1.1199  0.0002  1.1156
 9029TIP3    H227970   3.510   5.494   8.815 -0.4967 -0.7906 -2.8325
 9030TIP3   OH227971   1.753   6.302   5.920 -0.3275  0.5357  0.4957
 9030TIP3    H127972   1.796   6.386   5.933 -0.0987  0.2432  1.7366
 9030TIP3    H227973   1.672   6.324   5.872  1.9108  0.8918 -3.5646
 9031TIP3   OH227974   8.166   1.319   1.714 -0.4359  0.9480 -0.5780
 9031TIP3    H127975   8.091   1.374   1.691  0.6355  2.1673 -1.3365
 9031TIP3    H227976   8.196   1.353   1.798  0.7996  2.2132 -1.4901
 9032TIP3   OH227977   9.646   5.723  10.085  0.2761 -0.3556  0.2396
 9032TIP3    H127978   9.685   5.810  10.091 -0.0375 -0.0689 -1.4845
 9032TIP3    H227979   9.566   5.728  10.137  0.3646  0.3212  0.3085
 9033TIP3   OH227980   0.512   7.156   9.850 -0.0861 -0.1880  0.2671
 9033TIP3    H127981   0.453   7.108   9.908  0.5650  0.4863  1.5319
 9033TIP3    H227982   0.468   7.239   9.834 -0.6453 -0.6860 -0.9186
 9034TIP3   OH227983   7.690   0.132   2.621 -0.1566  0.2763  0.0126
 9034TIP3    H127984   7.737   0.083   2.554  0.5423  1.1197 -0.1360
 9034TIP3    H227985   7.741   0.117   2.701  0.2530  1.0053 -0.1012
 9035TIP3   OH227986   4.068   4.561  10.488  0.2511  0.2062 -0.4648
 9035TIP3    H127987   4.006   4.529  10.423  0.4076 -1.3786  0.1339
 9035TIP3    H227988   4.013   4.591  10.560  0.1277 -1.9122  0.3958
 9036TIP3   OH227989   0.868   3.284   3.518  0.0725 -0.4667  0.4206
 9036TIP3    H127990   0.862   3.379   3.534 -0.7585 -0.5698  0.7801
 9036TIP3    H227991   0.794   3.265   3.460 -0.8594 -1.1829  1.7976
 9037TIP3   OH227992   6.601   9.909   4.046  0.0182  0.6343 -0.5552
 9037TIP3    H127993   6.515   9.884   4.011 -0.6109  0.2533  1.1679
 9037TIP3    H227994   6.591  10.001   4.069 -0.3474  0.2881  0.7561
 9038TIP3   OH227995   1.734   9.738   5.795  0.2232  0.3111 -0.8285
 9038TIP3    H127996   1.695   9.684   5.726 -0.6956 -1.5340  1.0201
 9038TIP3    H227997   1.827   9.714   5.795 -0.1011 -1.0412 -0.3104
 9039TIP3   OH227998   2.235   4.379   8.599  0.0927 -0.5159 -0.3154
 9039TIP3    H127999   2.198   4.330   8.672  1.6830  0.4341  1.1931
 9039TIP3    H228000   2.174   4.363   8.526 -0.5043 -3.0566  0.6332
 9040TIP3   OH228001   5.307   7.479   4.855 -0.0853  0.6121  0.3323
 9040TIP3    H128002   5.261   7.482   4.938 -4.4696 -1.4823 -1.6838
 9040TIP3    H228003   5.298   7.567   4.818 -1.5281  0.5777  0.5432
 9041TIP3   OH228004   2.780   8.793   4.478 -0.2802 -0.2359  0.1879
 9041TIP3    H128005   2.787   8.888   4.477  0.3453 -0.2680  0.5298
 9041TIP3    H228006   2.724   8.773   4.553  0.3166 -0.1682  0.6555
 9042TIP3   OH228007   6.406   1.297   7.016  0.0964  0.1569 -0.0446
 9042TIP3    H128008   6.391   1.365   6.950  1.7217  1.2443  0.6402
 9042TIP3    H228009   6.383   1.339   7.099  1.4331  0.0144  0.4209
 9043TIP3   OH228010   9.799   1.792   4.699  0.7560 -0.5391  0.0895
 9043TIP3    H128011   9.708   1.821   4.700  0.7526 -0.5406  0.8234
 9043TIP3    H228012   9.848   1.867   4.663  0.8205  0.7052  2.5305
 9044TIP3   OH228013   7.132   0.816   1.874  0.3467  0.4093  0.1707
 9044TIP3    H128014   7.057   0.845   1.926 -1.0892 -0.5528 -1.2962
 9044TIP3    H228015   7.170   0.897   1.840 -0.4099  0.8818  0.4283
 9045TIP3   OH228016   0.346   6.996   4.596 -0.3595  0.5798  0.8472
 9045TIP3    H128017   0.378   7.033   4.678 -0.6427 -0.1622  1.3109
 9045TIP3    H228018   0.359   6.902   4.606  1.8429  0.6209 -0.9485
 9046TIP3   OH228019   5.684   9.847   4.406  0.6342  0.4410 -0.7041
 9046TIP3    H128020   5.617   9.882   4.465  0.1961  1.7671 -1.9381
 9046TIP3    H228021   5.647   9.764   4.375  0.4311  0.2215  0.0923
 9047TIP3   OH228022   2.231   5.810   6.605  0.3839 -0.1616  0.3120
 9047TIP3    H128023   2.241   5.715   6.599 -0.6790 -0.4304  2.1463
 9047TIP3    H228024   2.144   5.823   6.641  0.3115  1.5456 -0.3966
 9048TIP3   OH228025   7.474   6.865   4.450 -0.7546 -0.0663  0.4025
 9048TIP3    H128026   7.472   6.783   4.401 -0.5165  0.8963 -1.2845
 9048TIP3    H228027   7.382   6.880   4.474 -1.2074  0.4249 -1.5033
 9049TIP3   OH228028   0.184   6.370  10.630 -0.3170 -0.4421 -0.2434
 9049TIP3    H128029   0.264   6.421  10.647  0.2268 -1.2046 -0.4757
 9049TIP3    H228030   0.149   6.351  10.717 -0.5927  0.4170 -0.1534
 9050TIP3   OH228031   8.746   3.290   6.064 -0.0065  0.4500 -0.1219
 9050TIP3    H128032   8.677   3.284   6.131 -0.1436  0.3745 -0.2691
 9050TIP3    H228033   8.737   3.210   6.013  0.2648  0.3867 -0.0725
 9051TIP3   OH228034   5.317   9.155   5.012  0.2780  0.1812 -0.1147
 9051TIP3    H128035   5.323   9.238   5.060  0.4844  0.8508 -1.2422
 9051TIP3    H228036   5.293   9.182   4.923  2.8965 -0.7366 -1.1961
 9052TIP3   OH228037   4.102   5.794   8.130 -0.5441  0.3444  0.0174
 9052TIP3    H128038   4.157   5.842   8.192 -1.3652 -0.8286  1.7276
 9052TIP3    H228039   4.013   5.802   8.164 -1.0117 -0.4076 -0.9633
 9053TIP3   OH228040   0.071   1.757   7.317 -0.4910 -0.2860  0.2018
 9053TIP3    H128041  -0.002   1.730   7.373 -1.4842  0.8286 -0.5230
 9053TIP3    H228042   0.031   1.778   7.233  0.2357  2.8180  0.4950
 9054TIP3   OH228043   5.127   8.112   8.532 -0.2815 -0.3537 -0.1536
 9054TIP3    H128044   5.053   8.122   8.592 -0.7888 -0.0272 -0.8126
 9054TIP3    H228045   5.097   8.044   8.470 -0.9003  1.2249 -1.6727
 9055TIP3   OH228046   8.762   2.120   9.685 -0.0965 -0.3446 -0.0603
 9055TIP3    H128047   8.842   2.077   9.715 -0.2064  0.0824  0.8805
 9055TIP3    H228048   8.707   2.127   9.763 -0.1733  1.3171 -0.2186
 9056TIP3   OH228049   2.525   6.741   5.177  0.3235 -0.8050  0.5639
 9056TIP3    H128050   2.506   6.770   5.266 -1.5821  0.1339 -0.1127
 9056TIP3    H228051   2.536   6.822   5.127  0.0902 -1.3137 -0.3256
 9057TIP3   OH228052   4.594   5.562   2.690  0.0046 -0.0302  0.2321
 9057TIP3    H128053   4.675   5.604   2.662  0.2623  0.0938  1.1421
 9057TIP3    H228054   4.601   5.472   2.659 -0.2361  0.3940 -1.1097
 9058TIP3   OH228055   4.236  10.817   9.258  0.2531  0.4542 -0.1268
 9058TIP3    H128056   4.199  10.814   9.346  0.5133  0.2462 -0.0242
 9058TIP3    H228057   4.169  10.860   9.205 -0.3155 -0.2936 -0.0318
 9059TIP3   OH228058   5.451   0.499   2.655  0.1478 -0.0408 -0.1670
 9059TIP3    H128059   5.421   0.469   2.569  2.0452 -1.8900 -0.2814
 9059TIP3    H228060   5.401   0.447   2.718 -1.5056  1.5721 -0.0804
 9060TIP3   OH228061   4.639   0.936   6.769  0.0960 -0.4552 -0.1418
 9060TIP3    H128062   4.621   0.991   6.692 -1.4091 -0.0472  0.4609
 9060TIP3    H228063   4.554   0.898   6.791  0.7023 -1.3175  0.7514
 9061TIP3   OH228064   4.748   3.465   6.157 -0.3803  0.6374  0.4220
 9061TIP3    H128065   4.687   3.538   6.174 -0.8660  0.9284 -2.1915
 9061TIP3    H228066   4.698   3.387   6.179 -0.0088  0.9916  2.8234
 9062TIP3   OH228067   3.999   5.176  10.108 -0.3745  0.1939  0.6388
 9062TIP3    H128068   3.993   5.190  10.202 -0.5646  0.0565  0.6459
 9062TIP3    H228069   3.928   5.227  10.070  0.0947  0.7673  0.5175
 9063TIP3   OH228070   0.895   1.049   7.317  0.5660 -0.2690 -0.5993
 9063TIP3    H128071   0.828   1.041   7.249  0.3544 -0.7115 -0.3476
 9063TIP3    H228072   0.852   1.017   7.396  1.0415 -0.4465 -0.4102
 9064TIP3   OH228073   1.747   3.385   2.556  0.3290 -0.3885  0.1953
 9064TIP3    H128074   1.790   3.404   2.473  0.5562 -1.1862  0.1254
 9064TIP3    H228075   1.735   3.290   2.556 -0.0764 -0.3435  0.8749
 9065TIP3   OH228076   2.824   9.800   5.403 -0.0619 -0.3121  0.3730
 9065TIP3    H128077   2.792   9.882   5.441 -1.7859 -1.3285  1.2309
 9065TIP3    H228078   2.915   9.793   5.433  0.2119  1.3799  0.0522
 9066TIP3   OH228079   8.804   1.245   1.622  0.0321  0.8104  0.4834
 9066TIP3    H128080   8.820   1.327   1.575  1.6149  1.1806  1.6022
 9066TIP3    H228081   8.880   1.234   1.679  0.2970 -1.8605 -0.2086
 9067TIP3   OH228082   0.295   2.124   1.527  0.4748 -0.8489  0.5693
 9067TIP3    H128083   0.343   2.175   1.461  0.4969 -0.2555  1.0332
 9067TIP3    H228084   0.300   2.177   1.606 -1.2002 -0.6190  0.5645
 9068TIP3   OH228085   6.466   6.888   7.134 -0.7951  0.0114 -0.0351
 9068TIP3    H128086   6.453   6.945   7.058 -1.6204 -0.0467  0.0599
 9068TIP3    H228087   6.559   6.867   7.131 -0.6002  0.8612 -0.4314
 9069TIP3   OH228088   1.341  10.794   9.358  0.1778  0.6895 -0.1298
 9069TIP3    H128089   1.412  10.776   9.295 -1.9072  0.4596 -2.5939
 9069TIP3    H228090   1.305  10.708   9.378 -1.0645  0.9582 -1.0623
 9070TIP3   OH228091   4.709   0.603   8.080 -0.6539 -0.4573 -0.2234
 9070TIP3    H128092   4.738   0.515   8.054 -1.0948 -1.0518  1.1972
 9070TIP3    H228093   4.752   0.661   8.017 -1.7818 -1.7788 -2.3439
 9071TIP3   OH228094   1.209  10.300   7.755 -0.3620 -0.5593 -0.1325
 9071TIP3    H128095   1.219  10.310   7.660  0.0685 -1.2089 -0.1623
 9071TIP3    H228096   1.227  10.387   7.790 -0.1878 -0.3937 -0.6198
 9072TIP3   OH228097   2.011   1.827   6.493  0.3904  0.2010  0.2418
 9072TIP3    H128098   2.084   1.865   6.541  0.1762  1.0666 -0.0855
 9072TIP3    H228099   1.997   1.888   6.420  0.0681 -0.5538 -0.3380
 9073TIP3   OH228100   6.067   2.482   7.006 -0.0371 -0.3969 -0.0215
 9073TIP3    H128101   6.035   2.396   6.977  1.3284 -1.7550  2.2575
 9073TIP3    H228102   6.095   2.525   6.925 -3.1970 -0.9245 -1.5687
 9074TIP3   OH228103   7.656   5.022   5.947 -0.5551  0.5197 -0.3489
 9074TIP3    H128104   7.749   5.005   5.929 -0.9913 -2.8562 -0.0209
 9074TIP3    H228105   7.656   5.068   6.031  0.8472 -0.0170 -0.0165
 9075TIP3   OH228106   6.296   6.327   3.216 -0.1176 -0.2525  0.1779
 9075TIP3    H128107   6.250   6.252   3.177  1.8393 -0.3011 -2.2825
 9075TIP3    H228108   6.389   6.308   3.204  0.4745  1.9787  0.6488
 9076TIP3   OH228109   3.497   5.405  10.589  0.6017 -0.2949  0.1026
 9076TIP3    H128110   3.515   5.477  10.649 -2.1484 -0.6927  1.5325
 9076TIP3    H228111   3.582   5.362  10.577  1.6510  1.1747  1.8811
 9077TIP3   OH228112   6.257   9.623   7.925 -0.2578 -0.2190 -0.2623
 9077TIP3    H128113   6.335   9.573   7.950  0.5075  1.1710  0.2377
 9077TIP3    H228114   6.290   9.691   7.866 -0.7635  1.4558  1.2965
 9078TIP3   OH228115   6.982   6.388   1.584  0.1162  0.1537  0.1565
 9078TIP3    H128116   6.973   6.479   1.556 -0.0169 -0.2663 -1.2833
 9078TIP3    H228117   7.055   6.388   1.645  0.0823  1.2278  0.2098
 9079TIP3   OH228118   6.976   5.833   5.884  0.0664 -0.3889 -0.0338
 9079TIP3    H128119   6.884   5.848   5.910  0.2809  2.5303 -0.5804
 9079TIP3    H228120   7.012   5.780   5.954 -1.9567 -1.3224  0.3740
 9080TIP3   OH228121   3.596   6.245   7.508 -0.1836  0.5564  0.9138
 9080TIP3    H128122   3.619   6.244   7.601  1.1599  0.8155  0.6001
 9080TIP3    H228123   3.508   6.283   7.506 -1.7560 -2.6128  2.3648
 9081TIP3   OH228124   3.491   5.069   5.335 -0.4094  0.0986  0.1169
 9081TIP3    H128125   3.551   5.132   5.374 -1.0964  0.7523  0.1451
 9081TIP3    H228126   3.538   4.986   5.337  0.5414  0.6250  0.0042
 9082TIP3   OH228127   3.506   2.974   3.400 -0.0824  0.2996 -0.7306
 9082TIP3    H128128   3.418   3.010   3.394 -0.3076  0.1497  1.0634
 9082TIP3    H228129   3.492   2.879   3.404  0.1292  0.2955 -0.0693
 9083TIP3   OH228130   4.322   5.590   4.395 -0.0279 -0.4242  0.1681
 9083TIP3    H128131   4.355   5.509   4.357  0.2067 -0.5999  0.7384
 9083TIP3    H228132   4.366   5.659   4.346 -0.4457 -0.6330 -0.5137
 9084TIP3   OH228133   7.695   7.650   0.444 -0.1538 -0.3981 -0.5884
 9084TIP3    H128134   7.604   7.620   0.435 -1.2247  2.6013 -0.7167
 9084TIP3    H228135   7.740   7.611   0.369 -0.4913 -4.3066  0.9979
 9085TIP3   OH228136   6.107  10.100   5.805  0.2655 -0.7878  0.3763
 9085TIP3    H128137   6.052  10.178   5.803 -1.3175 -1.8694 -0.9387
 9085TIP3    H228138   6.096  10.060   5.719  3.2793 -1.0131 -0.0155
 9086TIP3   OH228139   1.474   8.264   0.990  0.4396 -0.6028  0.3220
 9086TIP3    H128140   1.454   8.316   0.913  0.7285 -1.4892 -0.3690
 9086TIP3    H228141   1.390   8.223   1.014  0.6514 -1.5214 -0.4469
 9087TIP3   OH228142   9.221   0.756   9.915  0.4189  0.0581 -0.2176
 9087TIP3    H128143   9.232   0.848   9.939  0.5754  0.7113 -2.5669
 9087TIP3    H228144   9.204   0.758   9.821  0.3640 -2.3306 -0.3049
 9088TIP3   OH228145   4.390   7.097   5.784  0.1918  0.1376 -0.1619
 9088TIP3    H128146   4.440   7.141   5.715 -1.2427 -0.0780 -1.3809
 9088TIP3    H228147   4.385   7.006   5.755  1.4316 -0.4749  1.3524
 9089TIP3   OH228148   3.116   1.912   5.283 -0.2710 -0.4797 -0.6453
 9089TIP3    H128149   3.149   2.001   5.295  0.2848 -0.8209  0.4524
 9089TIP3    H228150   3.025   1.923   5.257 -0.5984  0.4010  0.8034
 9090TIP3   OH228151   9.457   5.676   2.320  0.6225 -0.1017  0.0087
 9090TIP3    H128152   9.515   5.602   2.301 -0.0039 -0.0458 -2.4689
 9090TIP3    H228153   9.401   5.682   2.243 -2.4000  0.1609  2.0541
 9091TIP3   OH228154   1.156   0.961   8.807  0.1432 -0.1829  0.4542
 9091TIP3    H128155   1.150   0.865   8.813 -3.1826 -0.0793  0.6734
 9091TIP3    H228156   1.226   0.984   8.868 -0.0245 -2.3992  1.6121
 9092TIP3   OH228157   1.785   5.659   4.648 -0.3056  0.3590 -0.0701
 9092TIP3    H128158   1.849   5.643   4.579 -1.4257  2.3442 -1.6749
 9092TIP3    H228159   1.713   5.598   4.628  0.2541 -0.5343  0.6047
 9093TIP3   OH228160   9.089   9.802   8.846 -0.0594 -0.0005  0.2993
 9093TIP3    H128161   9.165   9.791   8.903 -0.8522 -1.5292  1.1230
 9093TIP3    H228162   9.050   9.885   8.875  1.3637  0.9016 -0.2665
 9094TIP3   OH228163   2.159   9.882  10.223 -0.0728  0.4502  0.0633
 9094TIP3    H128164   2.121   9.967  10.243  1.5745  1.3060 -0.3093
 9094TIP3    H228165   2.196   9.851  10.305 -0.6700  0.0687  0.1987
 9095TIP3   OH228166   2.855   9.048   4.416 -0.4296 -0.5193  0.2534
 9095TIP3    H128167   2.798   9.099   4.359 -1.7659 -0.0576  1.9357
 9095TIP3    H228168   2.897   9.113   4.473  0.5930 -0.9982  0.0761
 9096TIP3   OH228169   0.314   7.273   2.762 -0.2876  0.0645  0.2766
 9096TIP3    H128170   0.363   7.298   2.841  1.2799  0.5468 -0.7991
 9096TIP3    H228171   0.262   7.350   2.741 -1.4464 -0.3958  1.3392
 9097TIP3   OH228172  10.330   7.997   9.019 -0.0641 -0.0085  0.7795
 9097TIP3    H128173  10.390   7.923   9.013  1.0087  0.9102 -0.1396
 9097TIP3    H228174  10.244   7.957   9.033  0.1875 -1.5324 -1.5660
 9098TIP3   OH228175   8.197   0.661   6.897  0.3042 -0.5272 -0.1758
 9098TIP3    H128176   8.225   0.612   6.820 -0.3501 -0.6786 -0.3236
 9098TIP3    H228177   8.207   0.601   6.970  0.5273 -0.5206 -0.1999
 9099TIP3   OH228178   5.916   6.514   9.028 -0.1934 -0.5266 -0.1308
 9099TIP3    H128179   5.941   6.547   8.942  1.1478 -0.2159  0.3428
 9099TIP3    H228180   5.925   6.590   9.086 -1.6795 -0.5738  0.1902
 9100TIP3   OH228181   4.193   8.852   0.224 -0.0068 -0.4964 -0.2587
 9100TIP3    H128182   4.107   8.889   0.203 -0.2936 -1.5288 -1.0135
 9100TIP3    H228183   4.250   8.928   0.237 -1.2485  0.2205  1.2913
 9101TIP3   OH228184   4.332   0.364   3.300  0.1705 -0.3612 -0.3719
 9101TIP3    H128185   4.324   0.352   3.395 -1.8263  0.0091 -0.4445
 9101TIP3    H228186   4.362   0.454   3.290  0.5570 -0.4558 -0.0976
 9102TIP3   OH228187   1.383   0.037   1.939  0.6836  0.3545  0.2064
 9102TIP3    H128188   1.438  -0.033   1.973 -0.6974 -0.7958  0.1269
 9102TIP3    H228189   1.311  -0.007   1.894 -0.0933  1.8174 -0.0655
 9103TIP3   OH228190   8.835   8.621  10.746  0.5733 -0.0158  0.8312
 9103TIP3    H128191   8.801   8.706  10.717  0.4648  0.1136  1.3144
 9103TIP3    H228192   8.774   8.557  10.711  0.7954  0.0878  0.2518
 9104TIP3   OH228193   2.294   8.716   3.087  0.2239  0.1291 -0.6849
 9104TIP3    H128194   2.200   8.697   3.090  0.5274 -1.4926  1.4142
 9104TIP3    H228195   2.299   8.811   3.077 -1.7455  0.6717  2.2326
 9105TIP3   OH228196   1.820   1.899   3.409 -0.0506  0.1686  0.3589
 9105TIP3    H128197   1.809   1.812   3.447 -0.8301  0.6742  1.3299
 9105TIP3    H228198   1.889   1.940   3.461 -0.3193  0.4569  0.4885
 9106TIP3   OH228199   1.298   1.168   1.188 -0.3328 -0.2356  0.3645
 9106TIP3    H128200   1.380   1.119   1.185 -0.8690 -1.1487  0.5348
 9106TIP3    H228201   1.301   1.224   1.110  0.3796 -0.3621  0.2926
 9107TIP3   OH228202   4.220   7.392  10.313  0.3880  0.0075 -0.1287
 9107TIP3    H128203   4.302   7.392  10.362 -0.0254 -0.9882  0.5931
 9107TIP3    H228204   4.214   7.305  10.275  0.6550  0.7393 -1.9188
 9108TIP3   OH228205   9.959   2.788   9.685  0.2516  0.3893  0.3828
 9108TIP3    H128206   9.928   2.744   9.605 -1.0086 -0.9875  1.5768
 9108TIP3    H228207  10.014   2.860   9.652 -0.3484 -0.0273 -1.7194
 9109TIP3   OH228208   1.014   1.430   6.599  0.4707  0.2447 -0.2928
 9109TIP3    H128209   1.077   1.391   6.660 -0.5267 -2.8396 -1.0614
 9109TIP3    H228210   1.065   1.451   6.521  0.7203 -1.6772 -0.6904
 9110TIP3   OH228211   3.505   0.041   3.759 -0.2835  0.0910 -0.4841
 9110TIP3    H128212   3.463  -0.044   3.751 -0.5149  0.2580 -1.1423
 9110TIP3    H228213   3.555   0.051   3.678  0.6068  0.1206  0.0551
 9111TIP3   OH228214   9.717   4.211   6.353 -1.1484 -0.1851  0.5694
 9111TIP3    H128215   9.664   4.279   6.310  0.1292  1.8892  2.0784
 9111TIP3    H228216   9.662   4.133   6.350 -3.4077  1.3032  0.1754
 9112TIP3   OH228217   5.549  10.749   3.313  0.3732 -0.0147  0.1729
 9112TIP3    H128218   5.457  10.728   3.298  0.1738  0.6743  0.4064
 9112TIP3    H228219   5.595  10.708   3.240 -0.0838 -0.6121  0.2134
 9113TIP3   OH228220   0.465   5.724   6.201  0.3877 -0.2120  0.8118
 9113TIP3    H128221   0.517   5.797   6.166 -0.6797 -0.0942 -0.6503
 9113TIP3    H228222   0.524   5.649   6.197  0.4297 -0.1386 -1.0488
 9114TIP3   OH228223   2.799   6.479   5.248  0.0182  0.0046 -0.0768
 9114TIP3    H128224   2.784   6.546   5.314  1.0668 -0.1194  0.3122
 9114TIP3    H228225   2.782   6.396   5.294  2.5814 -0.1988  0.6590
 9115TIP3   OH228226   6.491   7.480   1.100  0.2573  0.2425 -0.2915
 9115TIP3    H128227   6.472   7.411   1.164 -1.3609 -0.0972 -1.0889
 9115TIP3    H228228   6.554   7.441   1.040 -0.9666 -0.7482 -0.9926
 9116TIP3   OH228229   1.089  10.574   6.787  0.1376 -0.2048  0.5111
 9116TIP3    H128230   1.134  10.641   6.735 -0.5285  0.3957  0.6908
 9116TIP3    H228231   1.156  10.508   6.804  1.3466  1.2910  1.8923
 9117TIP3   OH228232   7.444   9.966   3.653 -0.1231 -0.2258 -0.5325
 9117TIP3    H128233   7.524  10.018   3.642 -0.2428 -0.3704 -2.3035
 9117TIP3    H228234   7.382  10.025   3.695  0.2972  0.5198 -0.9506
 9118TIP3   OH228235   1.882   6.383   0.928  0.0441 -0.7091 -0.7672
 9118TIP3    H128236   1.941   6.374   1.003 -1.0200  2.8307  0.7047
 9118TIP3    H228237   1.819   6.312   0.939  0.4068 -0.7946  1.2506
 9119TIP3   OH228238   7.367   7.741   8.337  0.0242  0.5015  0.2877
 9119TIP3    H128239   7.401   7.754   8.425  0.8634  2.3803 -0.2516
 9119TIP3    H228240   7.445   7.729   8.283 -0.4092  0.5070 -0.3543
 9120TIP3   OH228241   7.582   3.276   7.928 -0.0884 -0.1194 -0.0805
 9120TIP3    H128242   7.594   3.185   7.954  0.2040 -0.2728 -0.7428
 9120TIP3    H228243   7.582   3.325   8.011  0.7738 -0.6059  0.2174
 9121TIP3   OH228244   1.921   7.269   9.296  0.1800  0.6693  0.3620
 9121TIP3    H128245   2.016   7.270   9.304  0.2126 -0.4703  0.2690
 9121TIP3    H228246   1.890   7.237   9.381 -0.0574  0.0014  0.0332
 9122TIP3   OH228247   3.799   9.752   6.820  0.0543  0.1171 -0.0876
 9122TIP3    H128248   3.721   9.768   6.765  0.0033 -1.5721 -0.5708
 9122TIP3    H228249   3.858   9.702   6.763  0.0172 -1.6603  1.3422
 9123TIP3   OH228250   3.743   7.346   8.064  0.4901 -0.7727 -0.2451
 9123TIP3    H128251   3.812   7.395   8.020  0.3320  0.3124  0.6703
 9123TIP3    H228252   3.697   7.411   8.116  0.4338 -1.9266  1.2197
 9124TIP3   OH228253  10.812   0.446   9.370  0.2485  0.7264 -0.5397
 9124TIP3    H128254  10.851   0.364   9.401 -1.5473  0.4442  1.1975
 9124TIP3    H228255  10.836   0.450   9.278 -0.3947 -2.3077 -0.9598
 9125TIP3   OH228256   7.941   9.173   1.420  0.1615  0.7255  0.7396
 9125TIP3    H128257   7.853   9.209   1.427 -0.9922 -1.1328 -2.3299
 9125TIP3    H228258   7.997   9.249   1.402 -1.7492  1.5325 -2.8064
 9126TIP3   OH228259  10.808   6.267   7.866 -0.0219  0.2483  0.6600
 9126TIP3    H128260  10.865   6.320   7.811  0.0313  1.6992  2.0413
 9126TIP3    H228261  10.730   6.322   7.880 -0.5064 -0.5335  1.1228
 9127TIP3   OH228262   8.455   5.046   7.788  0.0873  0.2583 -0.2521
 9127TIP3    H128263   8.436   5.122   7.844  2.3453 -0.6242  1.9279
 9127TIP3    H228264   8.531   5.073   7.736  1.5959 -0.7380  1.3121
 9128TIP3   OH228265   5.181   7.837   2.122  0.0444  0.3898  0.3575
 9128TIP3    H128266   5.101   7.784   2.129 -0.7995  1.7555  1.8869
 9128TIP3    H228267   5.235   7.791   2.059 -0.0071 -3.0933  2.5853
 9129TIP3   OH228268   7.045   3.224   6.152 -0.0495 -0.4463  0.4642
 9129TIP3    H128269   6.970   3.166   6.140 -1.4416  1.2666  0.4790
 9129TIP3    H228270   7.039   3.287   6.080  0.9528  0.1613  0.8873
 9130TIP3   OH228271  10.331   1.927   1.118  0.0810  0.0643  0.3094
 9130TIP3    H128272  10.323   1.893   1.029 -0.3116  0.5067  0.1709
 9130TIP3    H228273  10.358   2.018   1.107  0.7524 -0.0873  0.6629
 9131TIP3   OH228274   7.294   2.738  10.551 -0.8472  0.7009  0.2740
 9131TIP3    H128275   7.356   2.692  10.607 -0.2976  0.4231 -0.5387
 9131TIP3    H228276   7.229   2.671  10.528  0.8874 -0.2247 -2.3101
 9132TIP3   OH228277  10.059   2.543   9.772  0.8337 -0.3865 -0.6426
 9132TIP3    H128278  10.038   2.637   9.770 -2.0586 -0.8614  1.2039
 9132TIP3    H228279   9.990   2.502   9.719  0.0539 -1.6901  1.2790
 9133TIP3   OH228280   0.007   6.402   1.452  0.2447 -0.6060 -0.1261
 9133TIP3    H128281   0.095   6.365   1.440  1.5880  1.8945  1.3700
 9133TIP3    H228282  -0.032   6.347   1.519  1.4737 -0.4908  0.7178
 9134TIP3   OH228283   8.243   3.649   2.478 -0.1644  0.2340  0.6444
 9134TIP3    H128284   8.202   3.735   2.490 -0.0958  0.5535 -1.1140
 9134TIP3    H228285   8.329   3.658   2.519  0.5494  1.6267 -1.0194
 9135TIP3   OH228286   3.626   9.924   2.631 -0.4760  0.4102  0.9481
 9135TIP3    H128287   3.537   9.929   2.598 -0.2175  1.1343  0.3027
 9135TIP3    H228288   3.620   9.949   2.723 -0.9691  0.2002  0.9730
 9136TIP3   OH228289   0.179   5.923   2.365  0.1353  0.4210  0.7028
 9136TIP3    H128290   0.123   6.000   2.365 -3.6652 -2.0735  1.8553
 9136TIP3    H228291   0.204   5.910   2.457  1.7648  0.8522  0.3585
 9137TIP3   OH228292   0.439   0.166   3.253 -0.0040  0.1189  0.2889
 9137TIP3    H128293   0.364   0.123   3.210 -1.3360  1.0561  1.5596
 9137TIP3    H228294   0.407   0.253   3.276  0.6499 -0.2496  2.9715
 9138TIP3   OH228295   2.791   5.565   5.389 -0.1522  0.3835  0.3571
 9138TIP3    H128296   2.868   5.619   5.370  0.0358 -0.6505 -2.3591
 9138TIP3    H228297   2.827   5.477   5.403 -0.6579  0.4059  1.9567
 9139TIP3   OH228298   5.677   0.133   2.657  0.2303  0.0024 -0.0417
 9139TIP3    H128299   5.772   0.120   2.658  0.5311  1.7341 -1.3544
 9139TIP3    H228300   5.666   0.228   2.663 -1.3874 -0.1196 -0.6214
 9140TIP3   OH228301   2.101   0.428   5.073  0.1211 -0.5822  0.0094
 9140TIP3    H128302   2.015   0.464   5.094  0.4371 -0.4826  1.2153
 9140TIP3    H228303   2.098   0.413   4.979 -1.0423 -0.1254 -0.0491
 9141TIP3   OH228304   8.264   9.009   6.574  0.5767 -0.3444 -0.3774
 9141TIP3    H128305   8.352   8.989   6.542  0.8828  0.8737 -0.3364
 9141TIP3    H228306   8.270   9.099   6.606 -0.6122 -0.3528 -0.0940
 9142TIP3   OH228307   1.462   4.399   0.699 -1.1095 -0.4394 -0.0290
 9142TIP3    H128308   1.554   4.424   0.697 -1.3754  0.6167  0.3497
 9142TIP3    H228309   1.448   4.353   0.617 -0.0329 -1.4211  0.3119
 9143TIP3   OH228310   7.649   8.309   2.832  0.4217 -0.1098  0.1279
 9143TIP3    H128311   7.743   8.293   2.834  0.2759 -1.3392 -1.4123
 9143TIP3    H228312   7.637   8.373   2.762  0.0659 -0.2357  0.0744
 9144TIP3   OH228313   6.195   9.566   0.943 -0.1224  0.1025 -0.0160
 9144TIP3    H128314   6.281   9.551   0.904 -0.4673 -1.0797 -0.3587
 9144TIP3    H228315   6.215   9.596   1.032  0.6405  0.1019 -0.1759
 9145TIP3   OH228316   3.738   9.148   9.414 -0.4924  0.3746  0.4459
 9145TIP3    H128317   3.745   9.081   9.483 -1.3740 -2.0602 -1.6607
 9145TIP3    H228318   3.745   9.099   9.332  0.0489  3.0790 -1.2494
 9146TIP3   OH228319   1.634   7.643   0.076 -0.1226 -0.3864 -0.3531
 9146TIP3    H128320   1.620   7.550   0.096  0.9066 -0.8039 -1.4312
 9146TIP3    H228321   1.728   7.650   0.061  0.0111  1.1066  0.9123
 9147TIP3   OH228322   5.230   6.208   7.747  0.1232 -0.4122  0.2097
 9147TIP3    H128323   5.182   6.198   7.665  0.4133 -0.7564  0.0788
 9147TIP3    H228324   5.319   6.234   7.721 -0.1139  0.7284  0.4714
 9148TIP3   OH228325   7.681   2.743   5.888  0.2837  0.7665  0.3077
 9148TIP3    H128326   7.724   2.802   5.826  0.2843  0.4976  0.0520
 9148TIP3    H228327   7.592   2.778   5.896  0.8825  2.0704  1.7930
 9149TIP3   OH228328   1.631   2.644   4.456  0.2855 -0.2398  0.2684
 9149TIP3    H128329   1.627   2.568   4.514 -1.5716 -0.4595 -0.0838
 9149TIP3    H228330   1.677   2.710   4.507  1.6794 -1.4802  0.6879
 9150TIP3   OH228331   0.796  10.777   8.045 -0.5205  0.0054  0.5812
 9150TIP3    H128332   0.869  10.782   8.107  1.0922 -0.9229 -1.1469
 9150TIP3    H228333   0.752  10.862   8.053  2.2245  1.6120  0.0162
 9151TIP3   OH228334   6.506   6.037   9.551 -0.2519  0.2104 -0.5019
 9151TIP3    H128335   6.597   6.043   9.579 -0.3270  1.2950 -0.4431
 9151TIP3    H228336   6.473   5.958   9.594 -0.4685  1.9431  2.8619
 9152TIP3   OH228337  10.113   8.573   1.429 -0.2101 -0.5331  0.5943
 9152TIP3    H128338  10.107   8.627   1.508  0.1972 -0.0827  0.3301
 9152TIP3    H228339  10.203   8.585   1.399  0.1607 -2.0806  1.0149
 9153TIP3   OH228340   1.548   3.186   8.043 -0.0021 -0.0117  0.6868
 9153TIP3    H128341   1.561   3.169   8.136  3.8125 -3.0646 -0.1803
 9153TIP3    H228342   1.611   3.256   8.023 -2.4148  2.3144  0.6531
 9154TIP3   OH228343   9.976   3.278   4.941 -0.2719  0.3128 -0.0975
 9154TIP3    H128344  10.027   3.225   4.880  0.2474  1.4051 -0.6337
 9154TIP3    H228345   9.922   3.214   4.988  0.7361 -0.7433 -0.3237
 9155TIP3   OH228346   9.096  10.772   4.618  0.4349 -0.1358  0.4528
 9155TIP3    H128347   9.144  10.703   4.573  0.0471 -0.8884  1.1605
 9155TIP3    H228348   9.155  10.847   4.616  2.4134 -1.4794  2.7289
 9156TIP3   OH228349   3.520   0.960   5.053  0.1339 -1.0475  0.3860
 9156TIP3    H128350   3.457   1.014   5.102 -0.0195 -0.8670 -0.0054
 9156TIP3    H228351   3.602   0.969   5.103 -0.0679 -1.0220  0.7178
 9157TIP3   OH228352   5.810   8.116   8.779  0.3709 -0.1685  0.0349
 9157TIP3    H128353   5.808   8.134   8.873 -0.9816 -1.8139  0.3611
 9157TIP3    H228354   5.862   8.188   8.742 -0.4659  1.4463  1.8137
 9158TIP3   OH228355   1.024   4.090   7.048  0.4333  0.2774 -0.1943
 9158TIP3    H128356   0.984   4.145   7.115  1.1525 -1.5034  1.8202
 9158TIP3    H228357   1.061   4.152   6.985 -0.4235  2.0308  0.9353
 9159TIP3   OH228358   7.077   5.005   3.771  0.4098  0.6889  0.0178
 9159TIP3    H128359   7.008   5.000   3.836  0.0631 -1.9481 -0.4346
 9159TIP3    H228360   7.158   5.014   3.822  0.2158 -2.0374  0.9453
 9160TIP3   OH228361   1.177   0.904   8.313 -0.4215 -0.0718 -0.0233
 9160TIP3    H128362   1.177   0.883   8.219 -1.2102  0.7600 -0.2191
 9160TIP3    H228363   1.177   0.818   8.356 -1.6164 -0.4809 -0.7850
 9161TIP3   OH228364   6.950  10.283   0.974  0.1608  0.2454 -0.1332
 9161TIP3    H128365   7.017  10.351   0.966 -0.3211  0.7977  0.3838
 9161TIP3    H228366   6.883  10.322   1.030  0.5969 -1.2076  1.5076
 9162TIP3   OH228367   7.945   1.841   0.499 -0.0232  0.0162  0.5441
 9162TIP3    H128368   7.915   1.906   0.561  0.3431 -0.1604  0.9147
 9162TIP3    H228369   7.947   1.886   0.415  0.3496  0.5247  0.8208
 9163TIP3   OH228370   5.921   7.863   1.354  0.4209 -0.4640 -0.4611
 9163TIP3    H128371   5.945   7.775   1.325  0.4898  0.1302 -2.3299
 9163TIP3    H228372   5.971   7.876   1.435  0.3638 -2.1421 -0.1119
 9164TIP3   OH228373   4.963   5.722   3.555 -0.1127 -0.2781  0.3204
 9164TIP3    H128374   5.037   5.689   3.606 -0.9226 -1.8190  0.5546
 9164TIP3    H228375   4.963   5.667   3.476 -0.4655  0.3117 -0.0915
 9165TIP3   OH228376   9.254   8.032   9.826  0.4574  0.5964 -0.0571
 9165TIP3    H128377   9.334   8.034   9.773 -0.7964 -0.0639 -2.1217
 9165TIP3    H228378   9.244   7.940   9.851 -0.4938  0.3445 -1.2611
 9166TIP3   OH228379   1.032   8.509   1.178  0.0170  0.5383 -0.1392
 9166TIP3    H128380   1.057   8.600   1.197  0.2822  0.2028  1.1792
 9166TIP3    H228381   1.114   8.460   1.183 -0.1095  0.2201 -0.9466
 9167TIP3   OH228382   1.022   6.332   0.518 -0.2312  0.0128  0.5952
 9167TIP3    H128383   0.939   6.372   0.491 -0.4452 -0.8207 -0.0590
 9167TIP3    H228384   1.047   6.378   0.597 -1.2819  0.3453  0.7465
 9168TIP3   OH228385   0.614   7.900  10.073 -0.2343  0.4977 -0.3052
 9168TIP3    H128386   0.637   7.807  10.071  0.6176  0.7028 -0.6127
 9168TIP3    H228387   0.532   7.905  10.024 -0.3288 -0.1043 -0.2182
 9169TIP3   OH228388   6.283   7.295   2.948  0.3093  0.1415  0.3221
 9169TIP3    H128389   6.287   7.366   3.012 -0.9602 -0.5568  1.2136
 9169TIP3    H228390   6.291   7.215   3.000 -1.5777 -0.4730 -0.2631
 9170TIP3   OH228391   9.149   9.858   4.932  0.4097 -1.0069 -0.7740
 9170TIP3    H128392   9.146   9.944   4.888  0.3957 -0.9447 -0.6515
 9170TIP3    H228393   9.173   9.879   5.022  0.8808 -1.1736 -0.8583
 9171TIP3   OH228394   0.641   5.945   0.661 -0.1247 -0.3694 -0.1865
 9171TIP3    H128395   0.685   6.030   0.657 -1.1030  0.1978  0.7053
 9171TIP3    H228396   0.548   5.966   0.662 -0.3693 -1.3110  2.2512
 9172TIP3   OH228397   1.763   7.924   0.293  0.2119 -0.0221 -0.0657
 9172TIP3    H128398   1.793   7.931   0.203  0.2893  0.6534  0.0015
 9172TIP3    H228399   1.764   7.831   0.313  0.3061 -0.1614 -0.7240
 9173TIP3   OH228400   4.421   8.676   1.423 -0.0038  0.0111  0.3856
 9173TIP3    H128401   4.361   8.719   1.362  0.3801 -0.0171 -0.0082
 9173TIP3    H228402   4.488   8.636   1.368  2.0195  2.4596  0.8970
 9174TIP3   OH228403   4.189   7.629   4.972  0.1108  0.0043  0.2027
 9174TIP3    H128404   4.133   7.688   5.022  0.0275 -0.3613  0.5398
 9174TIP3    H228405   4.174   7.654   4.881 -0.9267 -0.3580  0.2562
 9175TIP3   OH228406  10.511   7.593   5.073 -0.0956  0.0701  0.5618
 9175TIP3    H128407  10.480   7.636   4.994 -0.2562 -0.2474  0.4471
 9175TIP3    H228408  10.587   7.541   5.044 -0.3282 -0.2711  0.5549
 9176TIP3   OH228409   8.247   2.244   5.868 -0.1206  0.5035 -0.2297
 9176TIP3    H128410   8.244   2.156   5.833 -2.3108  0.9988 -1.4330
 9176TIP3    H228411   8.236   2.233   5.963  2.5213 -0.6167  0.0562
 9177TIP3   OH228412  10.639   9.458   3.757 -0.6182  0.4259 -0.2682
 9177TIP3    H128413  10.644   9.484   3.849  3.0864  0.6944 -0.4062
 9177TIP3    H228414  10.652   9.363   3.758  0.5547  0.5661 -0.5176
 9178TIP3   OH228415   2.866   6.415   3.407  0.5261 -0.6602 -0.1903
 9178TIP3    H128416   2.905   6.464   3.335  0.1479 -0.2095 -0.0909
 9178TIP3    H228417   2.792   6.369   3.367  0.8549 -1.1291 -0.2748
 9179TIP3   OH228418   7.649   5.346  10.867 -0.5641  1.1788 -0.3880
 9179TIP3    H128419   7.595   5.293  10.809  0.8474 -1.0521  0.2018
 9179TIP3    H228420   7.601   5.348  10.949  0.9327 -2.5672  0.8123
 9180TIP3   OH228421   6.816   6.210   6.657 -0.3573 -0.7350  0.4526
 9180TIP3    H128422   6.733   6.163   6.665 -0.7835 -0.4667 -1.8025
 9180TIP3    H228423   6.843   6.227   6.748 -2.7020 -0.9291  1.2512
 9181TIP3   OH228424   8.345  10.585   7.380 -0.0177 -0.2336 -0.1677
 9181TIP3    H128425   8.319  10.672   7.349 -0.2154 -0.7066 -1.3941
 9181TIP3    H228426   8.418  10.559   7.323 -1.7076 -1.9684 -1.7173
 9182TIP3   OH228427   2.740   3.946   3.246 -0.7943  0.0192 -0.0751
 9182TIP3    H128428   2.762   3.905   3.330  0.2489 -0.3911 -0.5309
 9182TIP3    H228429   2.647   3.930   3.235 -1.3476  1.5292  1.7815
 9183TIP3   OH228430   3.120   1.650   4.098 -0.3756 -0.0258  0.4072
 9183TIP3    H128431   3.177   1.622   4.169 -1.7603 -0.7533  1.2903
 9183TIP3    H228432   3.032   1.623   4.126 -1.2961  1.8302 -0.4795
 9184TIP3   OH228433   6.091   9.387   8.630 -0.0763 -0.1977 -0.4848
 9184TIP3    H128434   6.099   9.477   8.659 -0.7874 -0.1061 -0.5416
 9184TIP3    H228435   6.153   9.379   8.557  0.6510 -0.0226  0.1120
 9185TIP3   OH228436   1.108   2.519   2.754 -0.6221 -0.2638  0.0733
 9185TIP3    H128437   1.194   2.506   2.792 -0.8033  0.7935  0.8885
 9185TIP3    H228438   1.049   2.526   2.829 -1.2589  0.0650 -0.4447
 9186TIP3   OH228439  10.006   7.106   0.041 -0.3469  0.2672 -0.0993
 9186TIP3    H128440  10.068   7.100   0.114 -2.1309 -1.0011  1.3972
 9186TIP3    H228441   9.931   7.152   0.077 -1.7980 -1.5089 -0.7015
 9187TIP3   OH228442   0.432   8.342   1.315 -0.6348  0.2408  0.5064
 9187TIP3    H128443   0.419   8.290   1.395 -0.4383  1.1057  1.1029
 9187TIP3    H228444   0.492   8.289   1.262 -0.3448 -0.0934  1.1534
 9188TIP3   OH228445   8.907   7.778   7.347 -0.3892  0.0451  0.0441
 9188TIP3    H128446   8.846   7.836   7.392 -0.1027  0.5623 -0.2183
 9188TIP3    H228447   8.990   7.790   7.393  0.4492  2.1495 -1.8091
 9189TIP3   OH228448   0.442   0.096  10.720  0.2435  0.2975  0.4894
 9189TIP3    H128449   0.389   0.169  10.752  0.2826 -0.0835  1.4735
 9189TIP3    H228450   0.517   0.138  10.677 -0.3684  0.8303 -0.0773
 9190TIP3   OH228451   6.994   4.159   2.212 -0.0154  0.1037  0.7506
 9190TIP3    H128452   7.016   4.086   2.155  0.0811 -0.1655  1.1348
 9190TIP3    H228453   6.960   4.226   2.152 -0.5973 -0.4461  0.4586
 9191TIP3   OH228454   3.482   8.870   8.938  0.3150  0.2251 -0.3818
 9191TIP3    H128455   3.527   8.812   8.999 -0.2658 -0.4729 -0.6058
 9191TIP3    H228456   3.466   8.817   8.861 -0.5643  0.5551 -0.4426
 9192TIP3   OH228457   9.287   1.758   7.493  0.1256 -0.0240  0.5153
 9192TIP3    H128458   9.228   1.830   7.516  0.3717  0.7308 -1.0303
 9192TIP3    H228459   9.357   1.761   7.559 -0.8140 -0.0190  1.5233
 9193TIP3   OH228460   2.440   5.706  10.318 -0.7884 -0.2108  0.0998
 9193TIP3    H128461   2.345   5.700  10.310 -0.9991  0.3804  1.8297
 9193TIP3    H228462   2.460   5.799  10.303 -0.2770 -0.5776 -1.7897
 9194TIP3   OH228463   0.115   0.519   2.413  0.3600  0.1949  0.2058
 9194TIP3    H128464   0.108   0.448   2.476 -0.0639 -1.1852 -1.3470
 9194TIP3    H228465   0.049   0.583   2.442  1.3842  0.4400  2.1420
 9195TIP3   OH228466   5.264   5.849   0.635  0.0344 -0.4910 -0.3308
 9195TIP3    H128467   5.277   5.927   0.581  1.1158 -1.6288 -1.7924
 9195TIP3    H228468   5.169   5.841   0.644 -0.1064  0.6920 -0.5736
 9196TIP3   OH228469   8.035   2.427   5.418  0.2402 -0.7461  0.6358
 9196TIP3    H128470   8.030   2.510   5.370 -1.1749 -0.7843  0.6922
 9196TIP3    H228471   8.096   2.374   5.367  0.1891 -0.1139 -0.0965
 9197TIP3   OH228472   8.589   5.914   1.720  0.4778  0.0756  0.4580
 9197TIP3    H128473   8.502   5.940   1.689  1.4047  3.4872  0.3889
 9197TIP3    H228474   8.571   5.857   1.794 -1.9213  2.3267  1.7860
 9198TIP3   OH228475   4.849   9.612   5.873 -0.7368  0.3008  0.4195
 9198TIP3    H128476   4.771   9.580   5.919 -0.9248 -0.3762 -0.3513
 9198TIP3    H228477   4.850   9.564   5.791  0.7986 -0.0842  0.6391
 9199TIP3   OH228478   4.217   1.511   8.387  0.1380 -0.3027  0.3165
 9199TIP3    H128479   4.211   1.473   8.300 -0.9860  2.2922 -0.8330
 9199TIP3    H228480   4.156   1.584   8.386  1.0668  0.6349  2.8666
 9200TIP3   OH228481   5.848   6.450   5.807  0.5457 -0.5449  0.0409
 9200TIP3    H128482   5.819   6.469   5.896  0.4003 -0.8618  0.0597
 9200TIP3    H228483   5.812   6.364   5.786  0.3260 -0.3447 -0.4328
 9201TIP3   OH228484   7.252   0.238   3.552 -0.1916  0.2740  0.2957
 9201TIP3    H128485   7.255   0.257   3.646 -0.4219  0.9603  0.1706
 9201TIP3    H228486   7.343   0.229   3.526 -0.1353 -0.0906  0.6187
 9202TIP3   OH228487   7.423   3.096   4.089  0.0403  0.0420 -0.1100
 9202TIP3    H128488   7.458   3.015   4.128  2.2633  0.0884 -1.8031
 9202TIP3    H228489   7.357   3.067   4.027 -1.1163 -0.2428  1.2034
 9203TIP3   OH228490   1.723   4.251   5.591 -0.1681 -0.9153 -0.1319
 9203TIP3    H128491   1.802   4.272   5.641 -1.0087  3.0978 -0.1483
 9203TIP3    H228492   1.743   4.280   5.502 -0.7827 -2.4477 -0.8092
 9204TIP3   OH228493   7.834   1.841   4.100  0.1203 -0.3092 -0.5122
 9204TIP3    H128494   7.882   1.764   4.070  0.3399  0.0669 -1.1403
 9204TIP3    H228495   7.772   1.807   4.164  2.4849 -0.5914  1.8120
 9205TIP3   OH228496   0.136   4.785   8.036  0.6556  0.7375  0.1122
 9205TIP3    H128497   0.182   4.736   7.967  0.1052  0.0841  0.2036
 9205TIP3    H228498   0.121   4.871   7.997 -0.1855  0.1916 -0.8285
 9206TIP3   OH228499   0.976   7.597   6.357  1.0318  0.3214  0.5775
 9206TIP3    H128500   0.995   7.678   6.405  0.7634 -0.2543  1.6852
 9206TIP3    H228501   1.047   7.537   6.381  1.5617  0.4010 -0.7059
 9207TIP3   OH228502   5.959   3.041   6.222  0.1263 -0.1004 -0.5683
 9207TIP3    H128503   5.998   2.975   6.164 -1.4034 -0.3643 -1.3816
 9207TIP3    H228504   5.876   3.062   6.179 -1.2329 -0.5410  1.6969
 9208TIP3   OH228505   8.472   4.065   6.666  0.4172  0.4628 -0.3700
 9208TIP3    H128506   8.406   4.004   6.699  0.9219 -0.6254 -1.2771
 9208TIP3    H228507   8.479   4.133   6.733 -1.1638  0.2679  0.0232
 9209TIP3   OH228508   3.933   5.257   2.916 -0.1579 -0.0907 -0.0199
 9209TIP3    H128509   3.996   5.296   2.976  0.4692 -0.5077 -0.3976
 9209TIP3    H228510   3.903   5.330   2.862  0.2033  0.0618 -0.0156
 9210TIP3   OH228511   4.531   5.934   0.708  0.0083 -0.0529 -0.2317
 9210TIP3    H128512   4.476   5.874   0.757 -0.7628  1.3222  0.6712
 9210TIP3    H228513   4.563   5.996   0.774  3.4650 -1.3070 -0.5283
 9211TIP3   OH228514   1.012   6.807   8.450 -0.2342  0.0325  0.0751
 9211TIP3    H128515   1.027   6.764   8.535  0.2650  1.9333  0.9879
 9211TIP3    H228516   1.099   6.812   8.410  0.0413  1.7796  0.8010
 9212TIP3   OH228517   3.079   3.262   6.088  0.1896  0.3301  0.4636
 9212TIP3    H128518   3.118   3.294   6.007  1.1354  0.8942  1.1391
 9212TIP3    H228519   2.987   3.288   6.082 -0.0472 -0.6927 -0.9678
 9213TIP3   OH228520   4.887   7.906   4.874 -0.2887 -0.0959 -0.2110
 9213TIP3    H128521   4.976   7.927   4.846 -0.0417  0.7605  1.0911
 9213TIP3    H228522   4.876   7.813   4.852  1.2877 -0.4863  0.4795
 9214TIP3   OH228523   6.994  10.732   5.723  0.4141  0.3247 -0.9154
 9214TIP3    H128524   6.925  10.673   5.692  0.0598  0.9458 -1.3348
 9214TIP3    H228525   6.947  10.805   5.762  0.8543  0.2068 -0.1274
 9215TIP3   OH228526   5.986   3.635   4.388 -0.0293 -1.0529 -0.1257
 9215TIP3    H128527   6.002   3.588   4.306  0.3471 -2.7164  0.8600
 9215TIP3    H228528   5.892   3.651   4.389  0.2510  1.3310 -2.0592
 9216TIP3   OH228529   8.157  10.892   1.035 -0.2268 -0.1304 -0.0371
 9216TIP3    H128530   8.159  10.940   1.118  0.0755 -0.5236  0.1891
 9216TIP3    H228531   8.201  10.950   0.973  0.2947 -0.1807  0.2778
 9217TIP3   OH228532  10.826   4.130   5.466 -0.7002  0.8790 -0.0035
 9217TIP3    H128533  10.871   4.052   5.434  1.2522  1.9306  0.0126
 9217TIP3    H228534  10.733   4.106   5.466 -0.3318 -0.8119 -1.7319
 9218TIP3   OH228535   7.536   2.741   9.880 -0.2885 -0.2192  0.1990
 9218TIP3    H128536   7.505   2.675   9.818 -0.4799  1.5911 -1.7734
 9218TIP3    H228537   7.464   2.805   9.883  0.4695  0.6170  0.8989
 9219TIP3   OH228538   1.109  10.217  10.342 -0.4097 -0.3030  0.3365
 9219TIP3    H128539   1.140  10.145  10.398 -0.0872  0.3107  0.9730
 9219TIP3    H228540   1.189  10.253  10.303 -0.6048 -0.5196 -0.2727
 9220TIP3   OH228541   6.692  10.556   7.702  0.2314 -0.2413 -0.5182
 9220TIP3    H128542   6.711  10.570   7.795  0.6467 -2.8771 -0.1306
 9220TIP3    H228543   6.597  10.542   7.700  0.4309 -1.8622 -0.1801
 9221TIP3   OH228544   1.779   8.836   5.779 -0.0941 -0.2733  0.2318
 9221TIP3    H128545   1.850   8.858   5.719 -0.5355 -0.7778 -0.4951
 9221TIP3    H228546   1.797   8.887   5.858  1.2596 -0.6507  0.1884
 9222TIP3   OH228547   5.421   4.249   0.427 -0.4103 -0.3801  0.0445
 9222TIP3    H128548   5.374   4.165   0.429 -3.1925  1.0716  0.4261
 9222TIP3    H228549   5.449   4.263   0.517  2.3011 -1.9496 -0.4390
 9223TIP3   OH228550   3.760   0.059   9.204  0.7881  0.1395 -0.0986
 9223TIP3    H128551   3.752  -0.033   9.228  0.1376  0.2596  0.1884
 9223TIP3    H228552   3.674   0.096   9.226  0.4298  0.4419 -1.8547
 9224TIP3   OH228553   4.385   8.099   8.405  0.3099  0.3763 -0.4905
 9224TIP3    H128554   4.475   8.093   8.372 -0.0191 -0.7497 -1.2177
 9224TIP3    H228555   4.383   8.039   8.480 -0.0909 -0.3604 -1.0826
 9225TIP3   OH228556   7.750   0.662   7.881  0.1105 -0.1247 -0.4239
 9225TIP3    H128557   7.809   0.692   7.811  1.2696  0.6211  0.8238
 9225TIP3    H228558   7.799   0.678   7.961 -1.8479  0.5897  0.6881
 9226TIP3   OH228559   0.824   8.248   8.669 -0.2101 -0.0242  0.2191
 9226TIP3    H128560   0.796   8.172   8.619  1.4946 -0.0633 -0.7294
 9226TIP3    H228561   0.742   8.290   8.696 -1.1727 -0.9225 -1.1764
 9227TIP3   OH228562   9.891   8.554   2.441 -0.3661  0.6120 -0.0191
 9227TIP3    H128563   9.947   8.564   2.518 -1.2410 -0.1502  0.7398
 9227TIP3    H228564   9.875   8.459   2.435 -0.7611  0.7164 -0.8169
 9228TIP3   OH228565   4.432   2.731  10.461 -0.2191  0.4271 -0.6064
 9228TIP3    H128566   4.367   2.662  10.474 -0.2754  0.9081  2.1879
 9228TIP3    H228567   4.421   2.789  10.536  2.4986  1.3126 -0.7978
 9229TIP3   OH228568   5.123   6.963   5.692  0.6075  0.2214  0.0897
 9229TIP3    H128569   5.031   6.973   5.718  0.5272  1.0582 -0.4636
 9229TIP3    H228570   5.172   6.995   5.768  0.5380 -2.3592  1.3219
 9230TIP3   OH228571   6.832   4.342   0.077  0.0629 -0.6668  0.5830
 9230TIP3    H128572   6.826   4.266   0.135  1.9246 -1.5770 -0.3262
 9230TIP3    H228573   6.923   4.372   0.085  0.3119 -0.6746 -1.6231
 9231TIP3   OH228574   4.460   0.991  10.114 -0.6011 -0.0942 -0.5715
 9231TIP3    H128575   4.532   0.979  10.052  1.8013  0.6540  1.8717
 9231TIP3    H228576   4.489   1.064  10.170 -3.4583  0.4755  0.3152
 9232TIP3   OH228577   4.222   6.527   2.518  0.1452  0.3419 -0.0748
 9232TIP3    H128578   4.158   6.560   2.456  0.7819  0.7828 -0.5104
 9232TIP3    H228579   4.281   6.473   2.465 -1.2911 -2.1984  0.7150
 9233TIP3   OH228580   3.446   1.120   3.640  0.3718 -0.1451  0.3749
 9233TIP3    H128581   3.407   1.090   3.722 -1.7068  1.4410  0.0666
 9233TIP3    H228582   3.461   1.214   3.654  1.0410 -0.0820 -0.6621
 9234TIP3   OH228583   8.696   1.016   0.326  0.1274  0.0199 -1.0896
 9234TIP3    H128584   8.773   1.021   0.382  0.1833  0.9405 -1.2293
 9234TIP3    H228585   8.670   1.108   0.313 -1.7718 -0.3092  0.0313
 9235TIP3   OH228586  10.338   2.236   1.159 -0.6814  0.6809  0.3212
 9235TIP3    H128587  10.274   2.305   1.146 -0.7095  0.3388 -1.6820
 9235TIP3    H228588  10.408   2.255   1.097  0.6075  0.3701  1.6116
 9236TIP3   OH228589   3.689   6.446  10.108 -0.3890  0.3456  0.0517
 9236TIP3    H128590   3.635   6.510  10.061 -0.4928 -0.3173 -0.7493
 9236TIP3    H228591   3.694   6.480  10.198 -1.3335  0.9185 -0.1015
 9237TIP3   OH228592   2.690   6.525  10.854  0.4017  0.2342  0.3634
 9237TIP3    H128593   2.655   6.567  10.776  0.0301 -0.8226 -0.0491
 9237TIP3    H228594   2.631   6.552  10.924 -0.5534 -0.5588 -0.1145
 9238TIP3   OH228595   5.548   8.870   7.855 -1.0959 -0.8552  0.0894
 9238TIP3    H128596   5.627   8.852   7.905 -1.2208 -1.4631  0.0695
 9238TIP3    H228597   5.503   8.786   7.849 -1.0212 -0.8346 -1.1448
 9239TIP3   OH228598   6.549  10.244   3.545  0.2287 -0.0888 -0.2219
 9239TIP3    H128599   6.575  10.281   3.630 -0.4944 -1.4464  0.6261
 9239TIP3    H228600   6.625  10.194   3.516  1.0518  1.6049 -1.1666
 9240TIP3   OH228601  10.432   7.743   5.424  0.0195 -0.3143  0.6734
 9240TIP3    H128602  10.479   7.768   5.344  0.5957 -0.2737  1.0143
 9240TIP3    H228603  10.497   7.696   5.476  0.5692  2.1330  2.3957
 9241TIP3   OH228604   2.714   3.378   1.125 -0.5558  0.2227 -0.0343
 9241TIP3    H128605   2.634   3.431   1.127 -0.0013  1.0720  2.1325
 9241TIP3    H228606   2.750   3.385   1.213  1.0224 -1.5526 -0.4766
 9242TIP3   OH228607   3.147   4.824   8.289  0.1282 -0.4761 -0.2919
 9242TIP3    H128608   3.143   4.731   8.310 -0.4790 -0.0790  1.6431
 9242TIP3    H228609   3.185   4.864   8.368  0.0077  0.9442 -0.9275
 9243TIP3   OH228610   0.832   1.641   6.557 -0.1397 -0.5113 -0.4317
 9243TIP3    H128611   0.822   1.633   6.462  0.3408  0.4794 -0.5725
 9243TIP3    H228612   0.923   1.617   6.573 -0.5110 -1.7802 -0.0711
 9244TIP3   OH228613   3.858   5.952   4.069 -0.2021  0.4125  0.7584
 9244TIP3    H128614   3.940   5.928   4.112  1.3426  0.0007 -2.2193
 9244TIP3    H228615   3.845   6.044   4.092  2.3097  1.1507 -0.4349
 9245TIP3   OH228616   7.341   8.053   0.097  0.0758 -0.2754 -0.2492
 9245TIP3    H128617   7.277   8.101   0.045  0.6258  0.6115 -0.1346
 9245TIP3    H228618   7.360   7.974   0.047  0.8729  0.7357 -1.6097
 9246TIP3   OH228619   7.510   1.947   9.057 -0.0179 -0.5541 -0.1064
 9246TIP3    H128620   7.418   1.965   9.038 -0.0311 -0.6219 -0.1085
 9246TIP3    H228621   7.508   1.903   9.142  0.1514  0.9990  0.7346
 9247TIP3   OH228622   9.611   2.580   3.473  0.3629  0.2099  0.0148
 9247TIP3    H128623   9.631   2.585   3.379  0.0926 -0.3206 -0.0773
 9247TIP3    H228624   9.592   2.670   3.498 -2.7956  0.0162 -1.1809
 9248TIP3   OH228625   8.200   5.679   7.043  0.1060 -0.3544  0.0297
 9248TIP3    H128626   8.198   5.773   7.027  0.9463 -0.0758  1.3998
 9248TIP3    H228627   8.243   5.643   6.966  0.4409  0.4758 -0.1872
 9249TIP3   OH228628   0.514   9.859   0.507  0.3934 -0.1658 -0.6933
 9249TIP3    H128629   0.512   9.930   0.571  1.5327 -1.1829  0.5332
 9249TIP3    H228630   0.577   9.888   0.441  1.3895 -0.3037  0.1694
 9250TIP3   OH228631   4.546   1.999   7.079  0.3263  0.1333  0.1070
 9250TIP3    H128632   4.583   1.992   7.167 -0.5911  1.1924  0.5999
 9250TIP3    H228633   4.596   1.937   7.027 -0.3681 -1.9563  1.7864
 9251TIP3   OH228634   4.711   0.427   8.719  0.2478 -0.2589  0.4258
 9251TIP3    H128635   4.713   0.358   8.652  1.0661  0.3840 -0.2464
 9251TIP3    H228636   4.744   0.385   8.798 -0.6218 -1.0048  0.4029
 9252TIP3   OH228637   8.848   2.039   5.560  0.0325 -0.5236 -0.6368
 9252TIP3    H128638   8.757   2.019   5.539 -1.0674  3.8065 -1.0076
 9252TIP3    H228639   8.853   2.032   5.655 -0.4517 -1.4089 -0.6627
 9253TIP3   OH228640  10.308   2.682   2.351  0.2267  0.0850  0.1104
 9253TIP3    H128641  10.364   2.605   2.358  1.1544  0.7394  0.0686
 9253TIP3    H228642  10.322   2.729   2.433 -1.6793 -0.6466  0.9218
 9254TIP3   OH228643   7.127   5.715  10.627 -0.3121  0.3512  0.3645
 9254TIP3    H128644   7.095   5.627  10.607  0.3916  0.7750 -3.2289
 9254TIP3    H228645   7.050   5.771  10.615 -0.8996  0.3290  3.1689
 9255TIP3   OH228646   5.712   8.763   4.709  0.0391 -0.3164 -0.0362
 9255TIP3    H128647   5.641   8.828   4.709 -1.9603 -2.3601  0.3787
 9255TIP3    H228648   5.739   8.758   4.617 -2.7764 -1.8512 -0.9030
 9256TIP3   OH228649   9.585   2.905  10.699  0.7045  0.1098 -0.5781
 9256TIP3    H128650   9.634   2.842  10.752 -2.1257  0.1295  2.3182
 9256TIP3    H228651   9.623   2.990  10.723  0.3465 -0.0029  0.4441
 9257TIP3   OH228652   9.911   2.092   1.336  0.5900  0.2322  0.2575
 9257TIP3    H128653   9.836   2.033   1.336  0.4805  0.3673  0.6970
 9257TIP3    H228654   9.983   2.039   1.303  0.0996  0.3760 -1.0792
 9258TIP3   OH228655   7.190   9.171   3.968  0.3470  0.0827 -0.1790
 9258TIP3    H128656   7.146   9.246   4.006 -0.0529  0.3602 -1.1645
 9258TIP3    H228657   7.252   9.209   3.905  1.2086 -0.3495  0.3929
 9259TIP3   OH228658   3.838   2.946   5.745  0.1860  0.3435 -1.0918
 9259TIP3    H128659   3.807   2.948   5.654 -0.4375 -2.2388 -0.9962
 9259TIP3    H228660   3.930   2.972   5.739 -0.2094  1.5905 -2.2488
 9260TIP3   OH228661   1.977   9.551   1.094  0.0166 -0.3910  0.1926
 9260TIP3    H128662   1.986   9.555   0.999 -2.3425 -2.1029 -0.1770
 9260TIP3    H228663   1.906   9.613   1.114 -0.2130 -0.8198  0.7125
 9261TIP3   OH228664   6.540  10.661   2.835  0.4238 -0.1430 -0.5174
 9261TIP3    H128665   6.449  10.689   2.850  0.5555 -0.4410  0.9451
 9261TIP3    H228666   6.539  10.567   2.848  0.6132 -0.4168 -2.2981
 9262TIP3   OH228667   3.808   1.770   1.128 -0.8844  0.1505  0.1145
 9262TIP3    H128668   3.732   1.722   1.163  0.1293 -0.9022  0.9448
 9262TIP3    H228669   3.815   1.846   1.186 -0.8901 -0.1189  0.4775
 9263TIP3   OH228670   3.843  10.156   6.478  0.3115 -0.5660  0.2843
 9263TIP3    H128671   3.796  10.075   6.459  0.4182 -0.2386 -1.4720
 9263TIP3    H228672   3.908  10.131   6.543  0.5347 -1.9614 -0.4487
 9264TIP3   OH228673   3.257   8.581   9.675 -0.3477  0.0652  0.5215
 9264TIP3    H128674   3.352   8.586   9.670 -0.2113  3.9248  3.1634
 9264TIP3    H228675   3.239   8.520   9.746  0.1785 -0.0072  0.5920
 9265TIP3   OH228676   2.373   4.154   4.640 -0.2058 -0.5643  0.1948
 9265TIP3    H128677   2.419   4.210   4.578  2.3844 -0.8215  1.7540
 9265TIP3    H228678   2.427   4.075   4.647  0.8527  0.3085  4.2809
 9266TIP3   OH228679   1.575   5.955   0.455 -0.0015  0.2942  0.4347
 9266TIP3    H128680   1.564   6.008   0.533 -0.8910  0.0137  0.5157
 9266TIP3    H228681   1.554   6.014   0.382 -1.9372 -0.1438  0.5697
 9267TIP3   OH228682   8.849   1.126  10.367  0.6404 -0.2745  0.0416
 9267TIP3    H128683   8.832   1.195  10.431  0.9267  0.5371 -0.7314
 9267TIP3    H228684   8.783   1.140  10.299  1.2857 -0.1838 -0.5703
 9268TIP3   OH228685   5.224   7.366   5.133  0.3293 -0.1066 -0.0802
 9268TIP3    H128686   5.164   7.293   5.120  0.0101  0.2675 -0.8004
 9268TIP3    H228687   5.309   7.325   5.151  0.1506 -0.6533 -0.4558
 9269TIP3   OH228688   1.342   7.793   4.635 -0.2122 -0.2308 -0.0615
 9269TIP3    H128689   1.289   7.866   4.668  0.9611  0.5945  0.0880
 9269TIP3    H228690   1.319   7.719   4.690 -0.5252  0.3574  0.6134
 9270TIP3   OH228691   7.381   4.642   6.004  0.5065  0.3711  0.8726
 9270TIP3    H128692   7.368   4.630   5.910  2.2436 -2.4142  0.8426
 9270TIP3    H228693   7.455   4.585   6.025  0.1764  0.8830  3.9499
 9271TIP3   OH228694   6.059   0.559   6.980 -0.6590 -0.4428 -0.0428
 9271TIP3    H128695   5.969   0.570   7.010 -1.0418 -0.2523 -1.2086
 9271TIP3    H228696   6.052   0.552   6.885  0.6610  0.7852 -0.2640
 9272TIP3   OH228697   4.343   7.605   0.474  1.1546  0.2104 -0.0637
 9272TIP3    H128698   4.263   7.647   0.508  1.7285  1.5048 -0.2544
 9272TIP3    H228699   4.314   7.518   0.447  0.2818 -0.2175  2.0250
 9273TIP3   OH228700   0.593  10.869   7.689 -0.3945 -0.5544  0.4142
 9273TIP3    H128701   0.628  10.923   7.760  0.0819 -1.4715  0.8935
 9273TIP3    H228702   0.607  10.922   7.610 -1.2616  0.6368  1.0107
 9274TIP3   OH228703   1.415   6.400   5.583 -0.4799  0.2550  0.8057
 9274TIP3    H128704   1.384   6.324   5.534  2.2716 -0.7078  0.4087
 9274TIP3    H228705   1.422   6.368   5.673  2.7459 -0.7640  0.2982
 9275TIP3   OH228706   9.557   2.899   1.257  0.1275 -0.1037 -0.3213
 9275TIP3    H128707   9.548   2.836   1.186 -0.8796  0.1477 -0.4229
 9275TIP3    H228708   9.566   2.846   1.336  0.5240 -0.3720 -0.5419
 9276TIP3   OH228709   7.728  10.794   3.632 -0.6432 -0.3843 -0.4431
 9276TIP3    H128710   7.712  10.785   3.726 -1.1315  0.1383 -0.4729
 9276TIP3    H228711   7.819  10.823   3.626 -1.0019  0.8688 -0.0695
 9277TIP3   OH228712   9.584  10.870   8.350 -0.6349 -0.6245 -0.2089
 9277TIP3    H128713   9.639  10.944   8.376 -0.7187 -0.7239  0.2680
 9277TIP3    H228714   9.600  10.804   8.417 -1.5927 -0.5284  0.1366
 9278TIP3   OH228715   7.405   2.220   1.506  0.5351 -0.3282  0.2185
 9278TIP3    H128716   7.445   2.267   1.433  1.1274  0.2288  0.8855
 9278TIP3    H228717   7.417   2.127   1.485  1.3576 -0.1706 -0.0470
 9279TIP3   OH228718   4.195   1.163   5.612  0.2951  0.1928  0.1640
 9279TIP3    H128719   4.225   1.072   5.615 -0.2452 -0.0470 -1.0008
 9279TIP3    H228720   4.259   1.208   5.557 -0.2417  0.1613 -0.5106
 9280TIP3   OH228721   4.898   6.089   7.650  0.0963 -0.1705  0.3386
 9280TIP3    H128722   4.819   6.107   7.599 -1.3209  0.5934  2.6935
 9280TIP3    H228723   4.879   6.009   7.698  2.0762 -1.8633 -1.4846
 9281TIP3   OH228724   6.854   3.511  10.366  0.6936 -0.0624  0.1908
 9281TIP3    H128725   6.843   3.542  10.456 -0.3910 -1.0057  0.4014
 9281TIP3    H228726   6.774   3.462  10.347  1.5243 -1.1007 -0.7884
 9282TIP3   OH228727   6.829  10.827   9.274 -0.2473 -1.0453 -0.2182
 9282TIP3    H128728   6.837  10.805   9.366  0.2139 -2.7390 -0.6336
 9282TIP3    H228729   6.772  10.905   9.273  1.2620  0.1678  1.5840
 9283TIP3   OH228730   7.970   6.313   5.747 -0.1858 -0.3562 -0.4136
 9283TIP3    H128731   7.976   6.396   5.795 -0.5293  0.4118 -1.6271
 9283TIP3    H228732   8.038   6.258   5.785 -1.7686 -0.5857  2.3742
 9284TIP3   OH228733   6.065   8.287   0.510 -0.1600 -0.4074  0.9888
 9284TIP3    H128734   6.137   8.298   0.573  0.4579 -2.0649  0.6160
 9284TIP3    H228735   6.098   8.222   0.448 -1.6892 -0.5827  0.3372
 9285TIP3   OH228736   7.739   8.662   7.663  0.6147  0.1663 -0.1316
 9285TIP3    H128737   7.762   8.755   7.668  0.8594  0.1435 -0.7721
 9285TIP3    H228738   7.732   8.644   7.569  1.1954 -0.6148 -0.0357
 9286TIP3   OH228739   0.490   8.385   9.567  0.0923  0.4726  0.2634
 9286TIP3    H128740   0.434   8.399   9.644  0.0911 -0.0995  0.3739
 9286TIP3    H228741   0.450   8.311   9.521 -0.2174  1.1616 -0.5944
 9287TIP3   OH228742   3.742   6.614   0.574  0.3665  0.3096  0.1437
 9287TIP3    H128743   3.783   6.546   0.627 -1.8641  0.1777  1.8282
 9287TIP3    H228744   3.816   6.665   0.540  1.9934 -1.4485  0.8402
 9288TIP3   OH228745   1.780   6.471   7.508  0.0277  0.4238 -0.2453
 9288TIP3    H128746   1.789   6.554   7.461 -1.5303  0.1678 -1.0685
 9288TIP3    H228747   1.717   6.421   7.457 -1.4266 -0.0501  1.8868
 9289TIP3   OH228748   4.244   5.616   8.484  0.0402 -0.6431 -0.2384
 9289TIP3    H128749   4.187   5.642   8.556  0.7923  1.2648 -0.2652
 9289TIP3    H228750   4.222   5.678   8.414  0.7797 -1.1331 -0.9178
 9290TIP3   OH228751  10.427   8.175   5.642  0.1444  0.1449  0.0679
 9290TIP3    H128752  10.357   8.227   5.683  1.1356  0.4301  1.4968
 9290TIP3    H228753  10.454   8.228   5.567  0.1689  1.0332  0.6759
 9291TIP3   OH228754   1.307   5.545   8.049  0.8277 -0.0548 -0.4907
 9291TIP3    H128755   1.286   5.509   7.963 -1.9336 -0.0811  0.0987
 9291TIP3    H228756   1.341   5.633   8.030 -0.9612  0.4521 -1.6241
 9292TIP3   OH228757   8.935   8.464   6.517 -0.1019 -0.4446 -0.0674
 9292TIP3    H128758   8.921   8.552   6.484 -0.7439 -0.7942 -0.7644
 9292TIP3    H228759   8.852   8.418   6.499  0.9778 -1.8491 -1.9327
 9293TIP3   OH228760   3.062  10.556   3.266  0.1824  0.1572  0.3952
 9293TIP3    H128761   2.993  10.595   3.214  0.5299  0.6036  0.2572
 9293TIP3    H228762   3.105  10.493   3.207 -0.0897 -0.1013  0.4741
 9294TIP3   OH228763   8.342  10.802  10.633 -0.0456 -0.6269 -0.5779
 9294TIP3    H128764   8.303  10.799  10.721 -0.2707 -2.5102 -0.7116
 9294TIP3    H228765   8.353  10.710  10.609  1.2686 -0.1271 -1.9814
 9295TIP3   OH228766   5.353   9.552   8.222 -0.5406 -0.1948 -0.3371
 9295TIP3    H128767   5.375   9.645   8.215  1.1205 -0.2670  2.2637
 9295TIP3    H228768   5.418   9.508   8.168 -0.1412  0.0932 -0.1021
 9296TIP3   OH228769   5.982   2.757  10.042 -0.1793 -0.2503 -0.1836
 9296TIP3    H128770   5.987   2.689  10.109  1.4338 -0.7766 -0.8052
 9296TIP3    H228771   6.064   2.750   9.994 -1.1535  0.2994 -2.0468
 9297TIP3   OH228772   8.625   8.512   4.768 -0.1819  0.1678  0.0156
 9297TIP3    H128773   8.697   8.459   4.735  0.2882  1.3616 -0.9714
 9297TIP3    H228774   8.638   8.598   4.728 -1.8119  0.5900  0.3094
 9298TIP3   OH228775   7.449   9.128   4.595 -0.6803  0.2084 -0.3229
 9298TIP3    H128776   7.442   9.040   4.631 -0.1701  0.9875  1.8319
 9298TIP3    H228777   7.418   9.120   4.504 -0.4903 -2.1825 -0.2269
 9299TIP3   OH228778   1.093   3.193   4.955  0.1905  0.6204 -0.7661
 9299TIP3    H128779   1.167   3.196   5.016 -0.7051 -0.8522  0.4636
 9299TIP3    H228780   1.099   3.107   4.914 -1.3992  0.0290  0.1467
 9300TIP3   OH228781   7.992   8.900   3.966  0.0920  0.5906 -0.1253
 9300TIP3    H128782   7.944   8.909   4.048 -2.1245  0.0732 -1.3007
 9300TIP3    H228783   7.962   8.817   3.929 -0.2742  1.6015 -2.2679
 9301TIP3   OH228784   0.991   4.839   1.670 -0.7975  0.1195  0.0315
 9301TIP3    H128785   1.016   4.747   1.684 -3.0924 -0.3062  1.9227
 9301TIP3    H228786   0.981   4.875   1.758 -0.4625  2.0752 -0.6804
 9302TIP3   OH228787   3.566   4.638   1.688  0.3610 -0.2780 -0.2584
 9302TIP3    H128788   3.576   4.709   1.750 -4.8393  0.7885 -0.1414
 9302TIP3    H228789   3.574   4.680   1.602 -2.1406  0.5643 -0.1819
 9303TIP3   OH228790   5.461   0.395   2.152 -0.0347  0.1595  0.0991
 9303TIP3    H128791   5.390   0.442   2.197 -0.2833  0.7969 -0.9238
 9303TIP3    H228792   5.480   0.449   2.075  2.0577  0.3953  0.7007
 9304TIP3   OH228793   7.715   4.256   9.963  0.4853  0.1720  0.4585
 9304TIP3    H128794   7.656   4.253  10.038  0.0658 -1.7361  0.1202
 9304TIP3    H228795   7.681   4.189   9.904  0.5746  1.8593 -1.6368
 9305TIP3   OH228796   6.840   8.647   0.210 -0.5397 -0.2034  0.6593
 9305TIP3    H128797   6.757   8.687   0.238 -0.2457 -0.6170  2.1640
 9305TIP3    H228798   6.908   8.702   0.248 -0.1196 -0.4382  0.2603
 9306TIP3   OH228799   1.191   4.386   8.236 -0.4359 -0.5251  0.0046
 9306TIP3    H128800   1.143   4.353   8.160 -0.7500  1.8542 -0.9228
 9306TIP3    H228801   1.123   4.416   8.296 -0.1800  0.5745 -0.2282
 9307TIP3   OH228802   8.057   5.744   1.655 -0.3259  0.5214 -0.2035
 9307TIP3    H128803   8.118   5.684   1.698 -1.1996 -0.5224 -0.3774
 9307TIP3    H228804   7.975   5.734   1.703 -1.1343 -0.1744 -1.6491
 9308TIP3   OH228805   2.197  10.473   6.759  0.3495  0.0384  0.1813
 9308TIP3    H128806   2.220  10.441   6.672  2.2185 -0.1700  0.7042
 9308TIP3    H228807   2.282  10.491   6.801 -0.4827 -0.3864  2.1493
 9309TIP3   OH228808   2.595   6.953  10.745  0.2851  0.4918  0.4232
 9309TIP3    H128809   2.503   6.971  10.762  0.2776  2.2201 -1.1485
 9309TIP3    H228810   2.625   7.028  10.693  1.5181 -1.8853 -2.6082
 9310TIP3   OH228811   0.687   5.129   1.519  0.3330 -0.2577  0.1161
 9310TIP3    H128812   0.666   5.209   1.472 -1.6139 -1.1183 -0.6268
 9310TIP3    H228813   0.718   5.158   1.605  1.5367  1.2867 -0.7888
 9311TIP3   OH228814   7.342   9.436   2.665 -0.2740 -0.8080  0.1019
 9311TIP3    H128815   7.266   9.381   2.687  0.7825 -2.1066  0.6223
 9311TIP3    H228816   7.326   9.462   2.575 -1.4509 -0.8739  0.2645
 9312TIP3   OH228817   3.448   4.075   0.749  0.0570  0.6511 -0.3873
 9312TIP3    H128818   3.466   4.153   0.801  1.4806 -0.2061  0.4649
 9312TIP3    H228819   3.368   4.096   0.701 -0.7650  1.8386  1.4028
 9313TIP3   OH228820   4.514   5.858   9.646 -0.6886 -0.4079  0.2059
 9313TIP3    H128821   4.531   5.808   9.566  0.3398 -1.0076  0.7697
 9313TIP3    H228822   4.538   5.948   9.623 -1.9546 -0.2681 -0.6310
 9314TIP3   OH228823   4.827   4.153   2.284  0.4739  0.3018 -0.1497
 9314TIP3    H128824   4.771   4.186   2.214  1.0212 -1.1673 -1.3137
 9314TIP3    H228825   4.875   4.081   2.245  2.5352  0.9239  1.0693
 9315TIP3   OH228826   0.470   3.215   0.666  0.6907 -0.2744  0.2216
 9315TIP3    H128827   0.399   3.257   0.617  0.0187 -1.1315  0.4348
 9315TIP3    H228828   0.544   3.275   0.656  0.4206 -0.1578 -1.3797
 9316TIP3   OH228829   5.844   4.183   1.723  0.2298  1.0103 -0.4063
 9316TIP3    H128830   5.853   4.089   1.734  0.5696  0.7826 -2.2380
 9316TIP3    H228831   5.928   4.219   1.752 -0.4624  0.9581  1.8306
 9317TIP3   OH228832   1.701   7.352   3.163 -0.4271  0.5640  0.0025
 9317TIP3    H128833   1.675   7.436   3.201  0.3883  1.4777 -1.3480
 9317TIP3    H228834   1.708   7.293   3.238  2.0306  2.4904  1.4539
 9318TIP3   OH228835   8.414   4.470   4.425  0.0304  0.4928 -0.2807
 9318TIP3    H128836   8.449   4.432   4.505  1.5501 -0.9900 -1.5748
 9318TIP3    H228837   8.428   4.564   4.435 -2.5746  0.7292  2.4214
 9319TIP3   OH228838   6.373   6.704   8.379  0.0088  0.4760 -0.1968
 9319TIP3    H128839   6.386   6.611   8.357 -0.4834  0.2236  0.5465
 9319TIP3    H228840   6.349   6.703   8.472  0.4494  1.3875 -0.0658
 9320TIP3   OH228841   1.575   5.492   4.597  0.0320  0.2031 -0.3636
 9320TIP3    H128842   1.576   5.462   4.506 -0.1159 -2.0795  0.3270
 9320TIP3    H228843   1.569   5.412   4.649  1.4044  1.3490  1.7197
 9321TIP3   OH228844   5.275   4.319   6.978 -0.3137  0.0515  0.5500
 9321TIP3    H128845   5.262   4.407   6.942 -0.4548 -0.2138 -0.0541
 9321TIP3    H228846   5.348   4.283   6.927 -0.9422 -0.5727  0.0801
 9322TIP3   OH228847   7.679   5.093   8.179  1.0589  0.5896  0.4369
 9322TIP3    H128848   7.771   5.076   8.158  1.1573  0.2732  1.1001
 9322TIP3    H228849   7.681   5.132   8.267  0.6402  1.6656 -0.0082
 9323TIP3   OH228850   2.259   4.042   6.325 -0.2461  0.5885 -0.0558
 9323TIP3    H128851   2.279   4.136   6.327  0.7734  0.4191  3.1226
 9323TIP3    H228852   2.169   4.037   6.294 -0.4356  2.6525  0.0382
 9324TIP3   OH228853   0.218   3.193   2.113 -0.6685  0.0661 -0.1079
 9324TIP3    H128854   0.184   3.270   2.067  0.2813  0.2192 -0.5841
 9324TIP3    H228855   0.193   3.119   2.058  0.6993  0.2696 -1.0602
 9325TIP3   OH228856   8.459   3.171   1.466  0.0918 -0.0239 -0.3886
 9325TIP3    H128857   8.366   3.186   1.486 -0.0053 -0.4847 -0.4816
 9325TIP3    H228858   8.504   3.246   1.504 -0.3773  0.4904 -0.8378
 9326TIP3   OH228859   5.790   8.413   7.462 -0.1632 -0.6594 -0.4449
 9326TIP3    H128860   5.766   8.503   7.484  0.5196  0.1973 -2.8969
 9326TIP3    H228861   5.712   8.362   7.483 -0.0179  0.1442  2.5741
 9327TIP3   OH228862   3.940   2.998   3.943  0.5202 -0.5703 -0.3509
 9327TIP3    H128863   3.979   3.079   3.909  0.2061 -0.6235 -0.8451
 9327TIP3    H228864   3.980   2.929   3.891  1.0313 -0.7702  0.2880
 9328TIP3   OH228865   4.061   1.161   2.992 -0.2246 -0.6188 -0.0564
 9328TIP3    H128866   3.989   1.102   2.969 -0.4864 -0.6882  0.8830
 9328TIP3    H228867   4.138   1.122   2.952 -0.8134 -0.1061 -1.7994
 9329TIP3   OH228868   6.889   5.722   8.243 -0.1359 -0.1298 -0.3909
 9329TIP3    H128869   6.961   5.659   8.240  0.2113  0.2057  0.4917
 9329TIP3    H228870   6.820   5.677   8.292 -0.6418 -0.5573 -1.4853
 9330TIP3   OH228871  10.150   8.646   5.986  0.0867  0.1183  0.2874
 9330TIP3    H128872  10.072   8.612   5.942 -0.3490  1.8610 -0.3499
 9330TIP3    H228873  10.218   8.645   5.918 -0.1073  1.1165  0.0700
 9331TIP3   OH228874   3.618   9.952   5.769 -0.0957  0.1495 -0.2971
 9331TIP3    H128875   3.692   9.951   5.830 -0.5268  0.0833  0.2410
 9331TIP3    H228876   3.545   9.916   5.820 -0.6114  0.6423 -0.6742
 9332TIP3   OH228877   5.206   2.290   9.645  0.0583  0.3567  0.4385
 9332TIP3    H128878   5.170   2.349   9.579  1.0887  2.3734  1.5696
 9332TIP3    H228879   5.297   2.274   9.616 -0.2079 -0.7218  0.1456
 9333TIP3   OH228880   8.327   2.129   2.579 -0.2926 -0.1455  0.6545
 9333TIP3    H128881   8.236   2.099   2.581  0.0069 -1.0663  2.1477
 9333TIP3    H228882   8.358   2.116   2.668  1.2864  0.2564  0.1895
 9334TIP3   OH228883   1.246   5.846   7.386  0.1081 -0.6279  0.4372
 9334TIP3    H128884   1.312   5.904   7.423 -0.0841 -0.5746  0.6986
 9334TIP3    H228885   1.294   5.792   7.324  0.2152  0.0939 -0.1218
 9335TIP3   OH228886   7.116   4.112   7.304 -0.5190 -0.3887 -0.2779
 9335TIP3    H128887   7.026   4.137   7.285 -0.5398 -0.1442  0.1281
 9335TIP3    H228888   7.151   4.186   7.355  0.1572 -0.1152 -1.1217
 9336TIP3   OH228889   7.041   7.473  10.121  0.2123  0.1810 -0.0707
 9336TIP3    H128890   7.084   7.436  10.044 -1.8610  1.8111 -2.1846
 9336TIP3    H228891   7.041   7.568  10.105 -4.3706  0.3639 -0.5937
 9337TIP3   OH228892   4.351   2.654   8.787 -0.0914 -0.2747  0.0817
 9337TIP3    H128893   4.392   2.610   8.713  0.6016  0.3424  0.0911
 9337TIP3    H228894   4.266   2.683   8.754 -0.5700 -1.6198  0.0890
 9338TIP3   OH228895   7.043  10.882   2.887  0.6144  0.4941 -0.4033
 9338TIP3    H128896   6.993  10.891   2.968 -0.4320 -0.3159 -0.9380
 9338TIP3    H228897   6.984  10.837   2.827  1.9963 -0.5225 -1.0583
 9339TIP3   OH228898   3.289   1.960   1.133  0.1080  0.3037 -0.5592
 9339TIP3    H128899   3.314   1.973   1.042  0.8155 -0.5451 -0.4921
 9339TIP3    H228900   3.243   1.876   1.134  3.0969 -1.4902  0.3606
 9340TIP3   OH228901   8.755   3.365   1.275 -0.6517 -0.3940  0.2268
 9340TIP3    H128902   8.721   3.279   1.251 -0.5145 -0.0380 -1.3563
 9340TIP3    H228903   8.850   3.351   1.283 -0.8304 -0.7903  1.9102
 9341TIP3   OH228904   8.140   1.049   4.936  0.1017 -0.3050  0.5131
 9341TIP3    H128905   8.077   1.020   4.870  0.0050 -1.6094  1.1467
 9341TIP3    H228906   8.120   0.995   5.013  1.8801 -0.6398  0.7743
 9342TIP3   OH228907  10.057   8.866   3.076  0.4357  0.3617  0.0500
 9342TIP3    H128908  10.010   8.784   3.091  1.7016 -0.4451 -0.2701
 9342TIP3    H228909  10.146   8.850   3.109  1.2291  0.9630 -1.6879
 9343TIP3   OH228910   1.092  10.752   3.634  0.0313  0.1618  0.4755
 9343TIP3    H128911   1.030  10.687   3.601  1.1014 -0.4035 -0.5177
 9343TIP3    H228912   1.119  10.719   3.719  0.2504 -0.4879  0.1596
 9344TIP3   OH228913   2.254   5.506   7.714 -0.7098 -0.3540 -0.4627
 9344TIP3    H128914   2.234   5.413   7.702  1.1571 -0.6033 -2.1083
 9344TIP3    H228915   2.339   5.518   7.672 -0.5882  1.9762  0.3152
 9345TIP3   OH228916   5.632   4.413   7.874 -0.0633  0.1790  0.1299
 9345TIP3    H128917   5.703   4.470   7.843 -0.8467  0.9120 -0.3447
 9345TIP3    H228918   5.561   4.427   7.812 -0.5526 -0.7381  0.4634
 9346TIP3   OH228919  10.828   1.281   0.655 -0.8025 -0.0046  0.3037
 9346TIP3    H128920  10.814   1.190   0.683 -1.3892  0.3064  1.0573
 9346TIP3    H228921  10.860   1.325   0.734  0.1518  0.2965 -0.2423
 9347TIP3   OH228922   5.949   4.847   0.271 -0.1735  0.0923 -0.0374
 9347TIP3    H128923   6.036   4.809   0.257  0.5076  1.8324 -0.7515
 9347TIP3    H228924   5.958   4.899   0.351 -0.5275  0.3851 -0.1882
 9348TIP3   OH228925   4.063  10.422   6.520  0.5484 -0.4772  0.3438
 9348TIP3    H128926   4.064  10.356   6.451  3.2942 -0.2377  0.0611
 9348TIP3    H228927   4.043  10.373   6.600  1.1869 -1.4175 -0.0609
 9349TIP3   OH228928   2.468  10.718   1.594  0.0184 -0.0388  0.3360
 9349TIP3    H128929   2.555  10.719   1.633 -0.5933  0.4442  1.7813
 9349TIP3    H228930   2.424  10.794   1.633 -0.5748  0.6239 -1.5312
 9350TIP3   OH228931   2.353   9.788   6.849  0.2982 -0.0475  0.4388
 9350TIP3    H128932   2.299   9.814   6.923 -0.0972  1.1776 -0.2516
 9350TIP3    H228933   2.308   9.713   6.811 -0.5386  0.5215  0.3007
 9351TIP3   OH228934   6.024   4.902   9.205 -0.1609  0.3508  0.2566
 9351TIP3    H128935   5.966   4.977   9.191 -0.2716  0.5850  1.8340
 9351TIP3    H228936   5.981   4.850   9.273  0.6225 -0.3940  0.1968
 9352TIP3   OH228937   6.563   8.276   6.728  0.0110  0.1325 -0.5657
 9352TIP3    H128938   6.597   8.351   6.678 -0.8823  0.0576 -1.3066
 9352TIP3    H228939   6.599   8.199   6.684 -0.0859  0.0842 -0.5602
 9353TIP3   OH228940   9.410   7.753   3.071  0.4015 -0.3856  0.3245
 9353TIP3    H128941   9.403   7.662   3.102  0.6525  0.0955  1.8660
 9353TIP3    H228942   9.327   7.770   3.027  0.2796 -1.3006  0.1790
 9354TIP3   OH228943   7.126   0.615   7.835  0.4098  0.7623  0.3420
 9354TIP3    H128944   7.129   0.602   7.930  0.7521 -1.9076  0.0199
 9354TIP3    H228945   7.037   0.589   7.810  0.0807  2.1406 -0.0311
 9355TIP3   OH228946   8.427   7.984   3.099  0.4549 -0.2487  0.1973
 9355TIP3    H128947   8.338   7.970   3.066  0.1820  0.7301  0.4777
 9355TIP3    H228948   8.459   7.897   3.121  0.1163 -0.7803 -1.3067
 9356TIP3   OH228949   7.597   6.405   1.859 -0.3622  0.3460 -0.5289
 9356TIP3    H128950   7.658   6.453   1.915 -0.1642  1.4365 -1.6349
 9356TIP3    H228951   7.611   6.313   1.882  1.1348  0.6310 -0.1874
 9357TIP3   OH228952   5.742   9.811   6.340  0.2832  0.5013 -0.0491
 9357TIP3    H128953   5.774   9.845   6.424  0.1745  0.6726 -0.0772
 9357TIP3    H228954   5.651   9.786   6.358  0.1769  0.7835 -0.1825
 9358TIP3   OH228955   5.440   0.578   1.964  0.0890 -0.0724  0.3493
 9358TIP3    H128956   5.395   0.558   1.882  0.3055  0.0235  0.2066
 9358TIP3    H228957   5.501   0.649   1.941 -0.0506  0.1499  0.6531
 9359TIP3   OH228958   3.121  10.689   4.573  0.4728  0.5181 -0.2487
 9359TIP3    H128959   3.111  10.714   4.482 -0.1431  0.0682 -0.3123
 9359TIP3    H228960   3.191  10.745   4.606  1.4656 -0.0701 -1.2906
 9360TIP3   OH228961   6.020   1.233   4.233  0.0126 -0.3385 -0.0943
 9360TIP3    H128962   6.039   1.215   4.325  0.9093 -0.0157 -0.2040
 9360TIP3    H228963   5.950   1.173   4.210 -0.6213 -0.0138  0.9645
 9361TIP3   OH228964   5.567   2.772   9.735  0.5485 -0.2076  0.3288
 9361TIP3    H128965   5.506   2.839   9.704  1.8988  1.3088  0.8412
 9361TIP3    H228966   5.605   2.809   9.814  2.6901 -0.7552 -0.3777
 9362TIP3   OH228967   8.051   6.142   5.094  0.3911 -0.4276 -0.0722
 9362TIP3    H128968   7.999   6.063   5.111  1.6249 -1.7631 -1.9706
 9362TIP3    H228969   8.138   6.120   5.126  0.9061 -0.1219 -1.2136
 9363TIP3   OH228970   4.302   1.287   2.568  0.1072  0.6065  0.0103
 9363TIP3    H128971   4.361   1.235   2.622 -0.7483 -0.3975  0.0301
 9363TIP3    H228972   4.265   1.223   2.507  0.0941  1.4801 -0.9105
 9364TIP3   OH228973   1.054   5.268   1.331  0.0665 -0.3568  0.0460
 9364TIP3    H128974   1.043   5.302   1.419  0.6842 -0.4866  0.1814
 9364TIP3    H228975   0.967   5.272   1.292 -0.4280 -1.2876  1.0032
 9365TIP3   OH228976   8.558   4.988   4.641 -0.2613  0.5838  0.1406
 9365TIP3    H128977   8.466   4.961   4.637 -0.8235  2.3791  0.1467
 9365TIP3    H228978   8.574   5.003   4.734  0.5317 -1.2110  0.3315
 9366TIP3   OH228979   6.022   8.440   4.982  0.1394  0.0729  0.3078
 9366TIP3    H128980   6.089   8.507   4.969  0.6415 -0.4306  0.2731
 9366TIP3    H228981   5.987   8.458   5.069 -0.0747  0.6813  0.1042
 9367TIP3   OH228982   4.834   6.633   2.464 -0.5247  0.2708  0.3828
 9367TIP3    H128983   4.927   6.657   2.459 -1.1033  2.4407 -2.1428
 9367TIP3    H228984   4.835   6.537   2.473  1.9317  0.3433  1.6790
 9368TIP3   OH228985   1.277   7.320  10.166 -0.2164  0.8989  0.1442
 9368TIP3    H128986   1.236   7.235  10.153 -1.8221  1.4707  1.0822
 9368TIP3    H228987   1.211   7.383  10.138  0.7905  1.8486 -0.1595
 9369TIP3   OH228988   6.465   8.798   9.550  0.0167  0.7571 -0.0162
 9369TIP3    H128989   6.480   8.838   9.465  0.9756 -0.1300 -0.2911
 9369TIP3    H228990   6.499   8.862   9.613  0.0400  1.0799 -0.3520
 9370TIP3   OH228991   2.299   2.437  10.765  0.6670  0.4016  0.1155
 9370TIP3    H128992   2.281   2.352  10.725 -0.9752  1.1150 -0.7414
 9370TIP3    H228993   2.367   2.419  10.830  1.0570 -1.3791 -0.7276
 9371TIP3   OH228994   3.133   8.820   5.527 -0.0266 -0.5246 -0.3703
 9371TIP3    H128995   3.047   8.818   5.485 -2.1162 -0.2634  3.4291
 9371TIP3    H228996   3.148   8.730   5.555  1.0470 -0.5817 -1.0579
 9372TIP3   OH228997   5.391  10.275  10.814 -0.7762  0.0102  0.2199
 9372TIP3    H128998   5.337  10.208  10.773 -1.8941  0.9244  0.1253
 9372TIP3    H228999   5.463  10.227  10.854 -1.9837 -1.3494  0.8769
 9373TIP3   OH229000   9.824   2.075   3.505 -0.3041  0.5735 -0.5091
 9373TIP3    H129001   9.891   2.011   3.530  1.0491  2.0585 -0.1499
 9373TIP3    H229002   9.789   2.043   3.422 -0.7721 -1.4140  0.3924
 9374TIP3   OH229003   5.828   0.600   2.792  0.5172 -0.0372  0.0089
 9374TIP3    H129004   5.771   0.653   2.736  0.9257 -0.4138 -0.7675
 9374TIP3    H229005   5.825   0.645   2.877  1.6706  1.8796 -0.8843
 9375TIP3   OH229006   4.864   0.379   4.506  0.2855 -0.0380 -0.2792
 9375TIP3    H129007   4.802   0.306   4.504  1.4897 -1.1108 -0.0375
 9375TIP3    H229008   4.821   0.446   4.558  0.1945 -1.6031  1.8060
 9376TIP3   OH229009   8.225   9.716   7.534  0.0959  0.1912  0.3991
 9376TIP3    H129010   8.237   9.807   7.561  1.2993 -0.3443  1.8331
 9376TIP3    H229011   8.198   9.671   7.614  0.2839 -0.8446 -0.1068
 9377TIP3   OH229012  10.361   4.042   1.381  0.1465 -0.1994  0.1874
 9377TIP3    H129013  10.366   4.136   1.396 -0.7475 -0.2413  0.8482
 9377TIP3    H229014  10.446   4.019   1.342 -0.4816  1.2621 -2.2798
 9378TIP3   OH229015   3.184   4.030   2.339 -0.3298 -0.9215 -0.1861
 9378TIP3    H129016   3.128   4.038   2.261 -1.1196  2.0873  0.5742
 9378TIP3    H229017   3.123   4.017   2.411  0.1293 -0.2213  0.3405
 9379TIP3   OH229018   7.843   5.333  10.414  0.6832  0.4037  0.4017
 9379TIP3    H129019   7.802   5.385  10.483 -1.2571  0.4931 -0.7679
 9379TIP3    H229020   7.828   5.383  10.334  1.3040 -0.5830 -0.3488
 9380TIP3   OH229021   5.594   8.705   1.535 -0.3979 -0.2586  0.0239
 9380TIP3    H129022   5.666   8.679   1.592 -1.5382 -1.1142  1.1403
 9380TIP3    H229023   5.605   8.652   1.456  1.4209  1.2190 -0.7865
 9381TIP3   OH229024   8.664   4.721   3.625  0.4472  0.1888  0.3686
 9381TIP3    H129025   8.688   4.794   3.567  0.1511  1.4350  1.7360
 9381TIP3    H229026   8.746   4.699   3.670  0.9116 -1.4687 -1.2121
 9382TIP3   OH229027   1.844   4.923   0.916 -0.1189 -0.4739 -0.0220
 9382TIP3    H129028   1.880   4.854   0.972 -0.0747 -1.6221 -1.3967
 9382TIP3    H229029   1.902   4.998   0.931  0.1262 -0.8665  1.1444
 9383TIP3   OH229030   2.870   6.384   5.919 -0.1384 -0.2773  0.2267
 9383TIP3    H129031   2.925   6.431   5.856  0.2364  0.8073  1.3317
 9383TIP3    H229032   2.912   6.299   5.930  1.6114  0.6709  1.3651
 9384TIP3   OH229033   6.320   4.088   1.640  0.0534  0.3242  0.0758
 9384TIP3    H129034   6.259   4.132   1.580 -0.9960 -0.9632  0.1257
 9384TIP3    H229035   6.389   4.055   1.583 -0.3790  0.0332 -0.2933
 9385TIP3   OH229036   5.358   7.411  10.066  0.5941  0.0247  0.1095
 9385TIP3    H129037   5.334   7.326  10.030 -0.5618  0.6030 -0.5208
 9385TIP3    H229038   5.372   7.467   9.989 -1.1781  1.0806  0.4968
 9386TIP3   OH229039   9.293   3.463   7.275  0.2373 -0.3712  0.6505
 9386TIP3    H129040   9.314   3.422   7.190  1.7243  0.4410  0.5962
 9386TIP3    H229041   9.248   3.544   7.252  1.4146  0.2865  0.5701
 9387TIP3   OH229042   2.929   0.808   9.169 -0.3182 -0.3920 -0.7773
 9387TIP3    H129043   2.977   0.883   9.133  1.9555 -0.0801  2.4523
 9387TIP3    H229044   2.932   0.821   9.264 -2.7975 -2.9139 -0.2193
 9388TIP3   OH229045   5.862   4.059   1.286 -0.1039  0.6791 -0.0064
 9388TIP3    H129046   5.836   4.004   1.212 -1.2808  1.2278 -0.0259
 9388TIP3    H229047   5.814   4.022   1.360  2.1301 -0.7453  0.8271
 9389TIP3   OH229048   4.812   5.075   5.985 -0.2702  0.4183  0.6407
 9389TIP3    H129049   4.842   5.043   5.901  0.9133  1.5195  0.6045
 9389TIP3    H229050   4.788   4.997   6.035  0.1288 -0.3112 -0.3040
 9390TIP3   OH229051   3.860   8.642   9.472 -0.6973 -0.6861  0.1077
 9390TIP3    H129052   3.886   8.570   9.530  2.2986 -0.2692 -0.5522
 9390TIP3    H229053   3.832   8.598   9.391 -0.3072 -1.1794  0.2285
 9391TIP3   OH229054   3.405   3.489   7.846 -0.2006  0.2678 -0.2711
 9391TIP3    H129055   3.438   3.554   7.785 -0.2230  0.0911 -0.4728
 9391TIP3    H229056   3.310   3.500   7.843 -0.1735  0.6639  0.1842
 9392TIP3   OH229057   1.425   3.903   6.531 -0.6370 -0.2281  0.3743
 9392TIP3    H129058   1.484   3.965   6.488 -0.2747 -0.2566  0.8280
 9392TIP3    H229059   1.365   3.876   6.462 -0.9418  0.7946  0.2256
 9393TIP3   OH229060   7.954   0.101   2.975  0.2342  0.4281 -0.5291
 9393TIP3    H129061   7.963   0.102   3.070 -2.1305  1.3717 -0.2242
 9393TIP3    H229062   8.020   0.040   2.945  2.7814  1.9575  1.4810
 9394TIP3   OH229063   3.855   2.835   1.742  0.3580  0.1559  0.4039
 9394TIP3    H129064   3.790   2.799   1.682  0.1955 -1.2014  1.3462
 9394TIP3    H229065   3.804   2.889   1.803  0.5271  1.5610 -0.6444
 9395TIP3   OH229066   0.762   0.808   7.522 -0.6806  0.3703 -0.2043
 9395TIP3    H129067   0.711   0.752   7.463 -0.7365  0.6848 -0.4553
 9395TIP3    H229068   0.701   0.876   7.549 -1.0861 -0.5432  1.3342
 9396TIP3   OH229069   1.520   5.298   5.666 -0.3427 -0.3071  0.3607
 9396TIP3    H129070   1.529   5.341   5.581 -0.4221 -0.4799  0.2669
 9396TIP3    H229071   1.523   5.370   5.729 -0.3038 -0.1775  0.2111
 9397TIP3   OH229072   8.360   0.842   5.527  0.6069 -0.6392 -0.2201
 9397TIP3    H129073   8.367   0.937   5.533  1.9267 -0.5965 -1.8368
 9397TIP3    H229074   8.399   0.820   5.442  0.0847 -2.6069 -0.0037
 9398TIP3   OH229075   9.336  10.213   4.669  0.1111  0.3893  0.2855
 9398TIP3    H129076   9.426  10.231   4.696  0.1465 -1.2353  1.4073
 9398TIP3    H229077   9.345  10.159   4.591  0.0776  1.0055 -0.1525
 9399TIP3   OH229078   1.537   6.880   3.576  0.4320 -0.2824  0.5054
 9399TIP3    H129079   1.544   6.925   3.492  0.8559  0.5483  0.9750
 9399TIP3    H229080   1.457   6.916   3.616 -0.3412 -1.4144  0.0453
 9400TIP3   OH229081   2.228   5.436   0.236 -0.2151 -0.6714 -0.0221
 9400TIP3    H129082   2.282   5.503   0.277 -0.6064 -1.2423  1.5144
 9400TIP3    H229083   2.281   5.402   0.165  1.1516 -0.6863  0.9730
 9401TIP3   OH229084   3.845   2.282   5.265  0.2238 -0.3392 -0.2569
 9401TIP3    H129085   3.934   2.248   5.274  0.7086  0.5645 -1.3546
 9401TIP3    H229086   3.855   2.362   5.213 -0.9485  1.1029  1.6310
 9402TIP3   OH229087   9.812   2.927   7.528 -0.3681  0.4326 -0.1491
 9402TIP3    H129088   9.903   2.943   7.504 -0.4934  0.1902 -0.7981
 9402TIP3    H229089   9.813   2.841   7.570 -0.2626  0.5336  0.0570
 9403TIP3   OH229090   0.553   6.155   8.458 -0.2512 -0.0200 -0.1862
 9403TIP3    H129091   0.490   6.102   8.409 -1.7801  1.4014  0.1640
 9403TIP3    H229092   0.505   6.186   8.535  1.1462  0.3832  0.5601
 9404TIP3   OH229093   0.029   1.384   9.554 -0.7028 -0.1190 -0.2206
 9404TIP3    H129094   0.019   1.348   9.466  1.4324 -0.1225 -0.5239
 9404TIP3    H229095   0.017   1.478   9.543 -0.1575 -0.0861 -0.5929
 9405TIP3   OH229096   7.979   2.384   8.834  0.1689  0.6190  0.2862
 9405TIP3    H129097   7.886   2.402   8.816  0.4211  1.6931 -0.0388
 9405TIP3    H229098   8.023   2.466   8.812  1.0858  0.4181  1.3111
 9406TIP3   OH229099   0.928   2.929   0.881 -0.2408  0.0094 -0.4718
 9406TIP3    H129100   0.860   2.996   0.873 -0.9691 -0.4204  1.4781
 9406TIP3    H229101   0.959   2.938   0.972 -0.1050 -2.0327 -0.2785
 9407TIP3   OH229102   6.993   0.746  10.520 -0.1830  0.2070  0.0587
 9407TIP3    H129103   6.955   0.833  10.507  0.6609  0.6370  0.4056
 9407TIP3    H229104   7.038   0.727  10.438 -1.9934 -0.7764 -0.7774
 9408TIP3   OH229105   4.301   9.078   3.246  0.7863  0.1255 -0.0386
 9408TIP3    H129106   4.316   8.984   3.260  1.0662  0.3993  1.7847
 9408TIP3    H229107   4.219   9.082   3.197  0.2891 -1.0669  0.6444
 9409TIP3   OH229108   4.880   8.042   9.194 -0.0427 -0.9648 -0.4950
 9409TIP3    H129109   4.857   7.994   9.273 -2.0726 -0.8014 -0.9178
 9409TIP3    H229110   4.881   8.134   9.221  0.8906 -1.0102 -0.3328
 9410TIP3   OH229111  10.672   5.025   6.290  0.3643  0.1079  0.5364
 9410TIP3    H129112  10.702   5.116   6.289  0.9005 -0.0578 -0.9309
 9410TIP3    H229113  10.650   5.005   6.199  0.7269 -1.3680  0.7311
 9411TIP3   OH229114   7.963   9.878   9.878  0.2149  0.3388 -0.0168
 9411TIP3    H129115   7.913   9.841   9.805 -0.6529 -1.8775  1.5906
 9411TIP3    H229116   8.038   9.820   9.888  0.6090  0.9294  0.5215
 9412TIP3   OH229117   1.386  10.006   2.507  0.1940 -0.3180 -0.2058
 9412TIP3    H129118   1.398  10.036   2.598 -2.4555  0.5967 -0.0613
 9412TIP3    H229119   1.325  10.069   2.469 -0.6066 -2.0188 -1.9102
 9413TIP3   OH229120   2.696   3.748   3.686  0.0844 -0.0325  0.2842
 9413TIP3    H129121   2.692   3.721   3.594  1.1421  0.4157  0.0941
 9413TIP3    H229122   2.706   3.843   3.682 -2.3273  0.3091  0.9234
 9414TIP3   OH229123   0.410   0.973   9.722  0.2469  0.1119  0.0428
 9414TIP3    H129124   0.496   0.956   9.684  0.1839 -0.7226  0.2676
 9414TIP3    H229125   0.424   1.051   9.776  1.1611 -0.6971  1.0238
 9415TIP3   OH229126   7.500   0.732   1.555  0.0594  0.6201  0.4496
 9415TIP3    H129127   7.434   0.736   1.624  0.2455  0.2057  0.6547
 9415TIP3    H229128   7.582   0.719   1.601  0.3123  1.3250  0.2046
 9416TIP3   OH229129   9.290  10.386   3.555  0.1335  0.9964 -0.0950
 9416TIP3    H129130   9.320  10.309   3.507 -2.4948  0.5593 -1.1679
 9416TIP3    H229131   9.370  10.438   3.568  1.6501 -0.9665 -1.0292
 9417TIP3   OH229132   5.256   0.107   2.397 -0.0008 -0.2672 -0.5487
 9417TIP3    H129133   5.262   0.198   2.428  0.8533 -0.5079  0.0401
 9417TIP3    H229134   5.301   0.107   2.313 -0.7669  0.0245 -0.9705
 9418TIP3   OH229135   4.601   3.242   0.120  0.0835  0.7033  0.6143
 9418TIP3    H129136   4.586   3.332   0.152  0.2540  1.3984 -1.1769
 9418TIP3    H229137   4.605   3.251   0.025  2.3655 -0.8912  0.5057
 9419TIP3   OH229138   7.773   2.924   0.223  0.2543  0.5098  0.1627
 9419TIP3    H129139   7.796   2.912   0.316  0.5891  0.9735  0.1418
 9419TIP3    H229140   7.699   2.985   0.224 -0.2768 -0.1253  0.1668
 9420TIP3   OH229141   4.634   6.757   1.444 -0.2367 -0.3610  0.6220
 9420TIP3    H129142   4.563   6.695   1.461  0.0731 -0.7883  0.4141
 9420TIP3    H229143   4.591   6.835   1.411 -0.4645 -1.9601 -3.4557
 9421TIP3   OH229144  10.466   6.910  10.098 -0.0090  0.7723  0.3993
 9421TIP3    H129145  10.518   6.842  10.056 -0.7509  0.6592 -0.3519
 9421TIP3    H229146  10.460   6.980  10.033  0.7072  1.5666  1.1436
 9422TIP3   OH229147   2.629   9.036   5.444 -0.4997 -0.0736  0.8118
 9422TIP3    H129148   2.587   8.952   5.464  0.0377 -0.3147  0.9408
 9422TIP3    H229149   2.718   9.013   5.418  0.3143  0.5713  2.8159
 9423TIP3   OH229150   3.136   9.554  10.665 -0.2937 -0.5690  0.2435
 9423TIP3    H129151   3.073   9.585  10.730 -0.3093 -0.1559  0.0294
 9423TIP3    H229152   3.136   9.459  10.676  0.9999 -0.4130  2.0550
 9424TIP3   OH229153   9.061   9.460   4.198 -0.4724 -0.1190  0.3456
 9424TIP3    H129154   9.151   9.461   4.165 -0.1963 -1.7288  0.9386
 9424TIP3    H229155   9.024   9.543   4.169  1.3474  0.8041  0.4883
 9425TIP3   OH229156   2.940   6.367  10.766  0.4788  0.5413 -0.2971
 9425TIP3    H129157   2.890   6.379  10.685 -0.3850  0.4863  0.2165
 9425TIP3    H229158   2.884   6.313  10.822  0.9082  0.8705  0.4755
 9426TIP3   OH229159   5.497   9.895   3.207  0.0435  0.4279  0.2922
 9426TIP3    H129160   5.538   9.865   3.126  0.7570  0.5005  0.6162
 9426TIP3    H229161   5.518   9.826   3.271 -0.3882  0.4425  0.4516
 9427TIP3   OH229162   1.765   0.947   3.499 -0.8504 -0.2992 -0.0465
 9427TIP3    H129163   1.770   1.011   3.429  0.3116  0.0453  0.3234
 9427TIP3    H229164   1.717   0.873   3.461  0.8015 -0.6341 -1.6459
 9428TIP3   OH229165   3.553   7.526   0.315  0.2472  0.9314  0.0907
 9428TIP3    H129166   3.557   7.434   0.289 -0.4929  0.8949  0.0859
 9428TIP3    H229167   3.534   7.573   0.233 -2.0307  0.8227  0.4835
 9429TIP3   OH229168   9.946   3.827   1.942 -0.5474  0.3168 -0.0120
 9429TIP3    H129169   9.858   3.837   1.906 -1.2788 -1.5503  1.1188
 9429TIP3    H229170   9.949   3.737   1.975  1.1634  0.9009  1.6433
 9430TIP3   OH229171   3.671  10.686   8.425  0.3991 -0.1371  0.2697
 9430TIP3    H129172   3.736  10.619   8.448 -0.6891 -1.3250 -0.0165
 9430TIP3    H229173   3.592  10.637   8.404 -0.0161  1.1664 -1.4185
 9431TIP3   OH229174   6.403   5.079   9.720 -0.2452  0.0840  0.0659
 9431TIP3    H129175   6.338   5.079   9.790  0.9286  1.0661  1.1964
 9431TIP3    H229176   6.483   5.049   9.762  0.2110 -0.4686 -1.1535
 9432TIP3   OH229177   2.745   2.945   0.807 -0.2376  0.3913  0.8276
 9432TIP3    H129178   2.797   2.964   0.885  1.7718  1.4299 -0.6629
 9432TIP3    H229179   2.781   3.002   0.740 -1.6681 -0.7067 -0.9705
 9433TIP3   OH229180   2.147   8.721   2.770  0.7095 -0.4590 -0.0359
 9433TIP3    H129181   2.067   8.678   2.741  1.7462 -1.4733 -1.5472
 9433TIP3    H229182   2.127   8.753   2.858 -1.7277  0.4115 -0.8288
 9434TIP3   OH229183   7.144   4.479   4.176 -0.1649 -0.0357 -0.1164
 9434TIP3    H129184   7.231   4.443   4.191 -0.4757 -1.3546 -1.3578
 9434TIP3    H229185   7.088   4.403   4.163 -1.0884  0.8468 -1.4919
 9435TIP3   OH229186   1.355   0.297   7.897  0.5609  0.0821 -0.1370
 9435TIP3    H129187   1.280   0.355   7.887 -0.6643 -1.6443 -1.7943
 9435TIP3    H229188   1.354   0.271   7.989 -0.2890  0.8048  0.0644
 9436TIP3   OH229189   6.440   1.793   5.047 -0.1623  0.3937 -0.1241
 9436TIP3    H129190   6.439   1.722   4.983 -1.0521  0.2803 -0.0008
 9436TIP3    H229191   6.359   1.782   5.097 -0.1165  1.2504  0.1667
 9437TIP3   OH229192   2.464   0.788  10.241  0.0035  0.4382 -0.4663
 9437TIP3    H129193   2.540   0.775  10.185  1.0791  1.2207  0.7339
 9437TIP3    H229194   2.394   0.814  10.182  0.1925 -1.8122 -1.8045
 9438TIP3   OH229195   4.744   4.446   7.634  0.4784 -0.1135 -0.2024
 9438TIP3    H129196   4.678   4.495   7.683  0.1636  0.2790 -1.0071
 9438TIP3    H229197   4.694   4.380   7.586  1.0026 -2.1252  1.8613
 9439TIP3   OH229198   8.320   9.367   1.922 -0.3524 -0.1378  0.0609
 9439TIP3    H129199   8.267   9.324   1.989 -0.1771 -2.1246 -1.0117
 9439TIP3    H229200   8.268   9.361   1.842 -0.2599  1.5922 -0.1870
 9440TIP3   OH229201   2.904  10.531   5.965  0.1636  0.0930 -0.0481
 9440TIP3    H129202   2.889  10.449   6.013  0.1410  1.0103  1.5776
 9440TIP3    H229203   2.994  10.555   5.988  0.4786  0.0909 -1.2236
 9441TIP3   OH229204   4.027   9.859   2.403  0.4102  0.1064 -0.5458
 9441TIP3    H129205   4.062   9.771   2.390  0.9614 -0.2509  2.6107
 9441TIP3    H229206   4.095   9.904   2.453 -0.4945  1.8765 -0.8510
 9442TIP3   OH229207   3.135   7.780   7.270  0.0775 -0.2615  0.2786
 9442TIP3    H129208   3.068   7.836   7.308  0.8580  0.4571  0.6064
 9442TIP3    H229209   3.109   7.691   7.295  0.1748  0.1372  1.8790
 9443TIP3   OH229210   7.777   7.253   1.454  0.5110  0.4778 -0.1173
 9443TIP3    H129211   7.717   7.323   1.478  0.7777  0.8329 -0.4729
 9443TIP3    H229212   7.823   7.232   1.536 -1.3981 -1.1115  0.6118
 9444TIP3   OH229213  10.122   9.484  10.643 -0.3961  0.2856 -0.1074
 9444TIP3    H129214  10.142   9.557  10.584  0.2656  0.3490  0.1787
 9444TIP3    H229215  10.050   9.437  10.601 -1.0610  1.2964 -0.1285
 9445TIP3   OH229216   1.663   0.864   5.244 -0.4523 -0.1226 -0.3044
 9445TIP3    H129217   1.740   0.918   5.227 -0.0602 -1.1738 -2.1640
 9445TIP3    H229218   1.644   0.876   5.337  1.7355  0.4424  0.1070
 9446TIP3   OH229219   1.270   7.694   1.897  0.1691  0.6862  0.0729
 9446TIP3    H129220   1.350   7.650   1.926 -0.7226 -1.1527 -0.0982
 9446TIP3    H229221   1.278   7.783   1.931  1.5929  0.1205  1.3458
 9447TIP3   OH229222   4.427   5.566  10.181 -0.1172  0.7342 -0.6285
 9447TIP3    H129223   4.396   5.529  10.264  0.9541  1.0673 -0.0660
 9447TIP3    H229224   4.398   5.503  10.114  0.0573 -0.1632  0.1232
 9448TIP3   OH229225   7.904   7.406   3.244  0.0371  0.5320  0.0825
 9448TIP3    H129226   7.812   7.382   3.231  0.6744 -1.2823 -1.6085
 9448TIP3    H229227   7.936   7.427   3.156  1.1722  1.4613  0.6852
 9449TIP3   OH229228  10.685   8.087   8.941 -0.0925 -0.3351 -0.5743
 9449TIP3    H129229  10.665   8.052   9.028 -0.1140 -1.9100 -1.1910
 9449TIP3    H229230  10.749   8.156   8.958 -0.2388 -0.4805  0.7048
 9450TIP3   OH229231   1.293   5.800   9.528 -0.2004 -0.3031 -0.4933
 9450TIP3    H129232   1.326   5.856   9.458  0.2718  0.2970  0.1983
 9450TIP3    H229233   1.311   5.711   9.498  0.2779 -0.0420 -0.9941
 9451TIP3   OH229234   0.258   7.812   7.824 -0.1727 -0.1642  0.5741
 9451TIP3    H129235   0.345   7.852   7.834 -0.5598  0.9528 -0.3604
 9451TIP3    H229236   0.198   7.875   7.863 -0.8427  0.4582 -1.3789
 9452TIP3   OH229237   0.993   0.823   2.102 -0.4108  0.3479  0.4772
 9452TIP3    H129238   0.990   0.815   2.198  0.8449 -1.6405  0.4044
 9452TIP3    H229239   1.086   0.832   2.082 -0.4503 -1.4189 -0.6704
 9453TIP3   OH229240   4.237   7.145   4.410  0.3134 -0.0188 -0.3452
 9453TIP3    H129241   4.221   7.051   4.398  1.1729 -0.1018 -0.9636
 9453TIP3    H229242   4.329   7.150   4.437  0.4348  0.6683 -0.8579
 9454TIP3   OH229243   3.904   1.031   1.354  0.3057  0.1814 -1.0233
 9454TIP3    H129244   3.991   1.064   1.376 -0.4556  2.7003 -1.4726
 9454TIP3    H229245   3.877   0.980   1.430  0.8589  2.1446  0.5645
 9455TIP3   OH229246   6.233   3.792   5.562 -0.4253 -0.2155 -0.0627
 9455TIP3    H129247   6.214   3.710   5.516  1.1982 -1.1971  0.9175
 9455TIP3    H229248   6.304   3.832   5.512  0.2145 -0.4617  0.6460
 9456TIP3   OH229249   1.620   1.417   8.989  0.6581  0.0994 -0.3348
 9456TIP3    H129250   1.565   1.350   8.950  0.2226  0.5716 -0.5453
 9456TIP3    H229251   1.657   1.465   8.915  2.6589 -1.2078 -0.2662
 9457TIP3   OH229252   9.223  10.234  10.078 -0.0183 -0.1848  0.1342
 9457TIP3    H129253   9.298  10.189  10.038 -2.2685 -2.7343 -1.6539
 9457TIP3    H229254   9.189  10.172  10.143 -0.1955  1.2254  1.4474
 9458TIP3   OH229255  10.367   9.320   3.540  0.1471  0.5202  0.2004
 9458TIP3    H129256  10.346   9.406   3.576 -1.1843 -0.1856  1.1927
 9458TIP3    H229257  10.456   9.302   3.571 -0.0543  0.9809  1.0636
 9459TIP3   OH229258   8.651   0.879   6.326  0.3054  0.3216  0.1703
 9459TIP3    H129259   8.675   0.823   6.400 -1.9002  0.2800  0.9189
 9459TIP3    H229260   8.663   0.823   6.249  2.0393  0.1703  0.4895
 9460TIP3   OH229261   2.351   6.879   4.629  0.0778  0.3986 -0.0698
 9460TIP3    H129262   2.374   6.924   4.711 -1.1653  1.5670 -0.3060
 9460TIP3    H229263   2.433   6.873   4.580  0.4533  1.6880  0.3502
 9461TIP3   OH229264   4.464   8.905   0.429  0.7260 -0.0210 -0.2473
 9461TIP3    H129265   4.433   8.968   0.494  0.2709 -0.1411 -0.3450
 9461TIP3    H229266   4.445   8.819   0.468 -0.4634 -0.0960 -0.9570
 9462TIP3   OH229267   4.775   4.406   6.805  0.2553  0.3779 -0.1194
 9462TIP3    H129268   4.712   4.472   6.836  1.4937  2.0750 -1.0100
 9462TIP3    H229269   4.851   4.458   6.776  0.8112 -1.3609 -2.0270
 9463TIP3   OH229270   2.259   6.744   8.559  0.2274  0.1589  0.0396
 9463TIP3    H129271   2.223   6.669   8.606  2.0461 -0.0675  1.1859
 9463TIP3    H229272   2.332   6.709   8.508  0.6000  0.9880 -0.0274
 9464TIP3   OH229273   6.793   3.730   7.730  0.2653 -0.4668 -0.0841
 9464TIP3    H129274   6.832   3.764   7.811 -0.2851 -0.9934  0.4136
 9464TIP3    H229275   6.836   3.646   7.716 -1.1675 -1.4010  0.8740
 9465TIP3   OH229276  10.842   5.772   4.248  0.2928 -0.5688  0.3356
 9465TIP3    H129277  10.757   5.814   4.262 -0.0341 -0.9337 -0.4548
 9465TIP3    H229278  10.903   5.845   4.238 -0.2218 -0.2645 -0.7439
 9466TIP3   OH229279   6.730   4.015   2.963  0.4846 -0.2795  0.1875
 9466TIP3    H129280   6.803   4.022   3.024  0.0547 -0.8006  0.7701
 9466TIP3    H229281   6.744   4.086   2.900  2.2676 -1.2222 -0.5469
 9467TIP3   OH229282   1.503   6.876   4.052  0.8131 -0.3324  0.3552
 9467TIP3    H129283   1.464   6.819   4.118  0.2082 -0.8776 -0.4519
 9467TIP3    H229284   1.587   6.835   4.032  2.8352  1.8708  3.4921
 9468TIP3   OH229285   4.680   5.877   5.954 -0.0052  0.2236  0.2687
 9468TIP3    H129286   4.657   5.961   5.993  0.2576  0.5639 -0.2867
 9468TIP3    H229287   4.632   5.875   5.871 -2.0330 -1.3055  1.4062
 9469TIP3   OH229288  10.209   9.815   4.521  0.0207  0.5716  0.0521
 9469TIP3    H129289  10.281   9.877   4.535  2.1003 -1.1704 -2.0471
 9469TIP3    H229290  10.229   9.742   4.580 -0.8993  0.6815  0.5228
 9470TIP3   OH229291   6.770   4.205   6.784  0.1320 -0.0035  0.4585
 9470TIP3    H129292   6.786   4.137   6.718 -0.8756  0.4379 -0.2641
 9470TIP3    H229293   6.805   4.168   6.865  0.9668 -0.7567 -0.2184
 9471TIP3   OH229294   7.779   8.428  10.040  0.2076 -0.2436  0.7448
 9471TIP3    H129295   7.702   8.373  10.029  1.2243 -1.5727 -0.0626
 9471TIP3    H229296   7.803   8.455   9.952  0.3446  0.6177  1.0371
 9472TIP3   OH229297   1.821   8.227   9.329  0.4543  0.4763  0.0034
 9472TIP3    H129298   1.769   8.199   9.404  1.8378  1.1055  1.2617
 9472TIP3    H229299   1.877   8.152   9.309 -0.8582 -0.2071 -1.3607
 9473TIP3   OH229300   2.918   5.601   8.647 -0.0068  0.3231 -1.0208
 9473TIP3    H129301   2.969   5.537   8.597  2.3037  2.3009 -1.3926
 9473TIP3    H229302   2.867   5.548   8.709  1.5654 -1.8866 -1.4941
 9474TIP3   OH229303   8.334   8.473   3.842 -0.2466 -0.0527  0.0910
 9474TIP3    H129304   8.335   8.536   3.914  0.2740  1.0105 -0.8123
 9474TIP3    H229305   8.342   8.527   3.763 -2.1901 -1.0570 -0.8730
 9475TIP3   OH229306   7.459  10.007  10.633 -0.1449 -0.5813  0.0937
 9475TIP3    H129307   7.554  10.016  10.644 -0.1833 -0.5098  0.3717
 9475TIP3    H229308   7.434  10.080  10.577 -0.1705 -0.0845  0.7530
 9476TIP3   OH229309   6.046   9.113   0.022  0.4620 -0.1892  0.6683
 9476TIP3    H129310   5.999   9.161   0.090 -2.4127 -0.1494 -1.1617
 9476TIP3    H229311   6.006   9.026   0.022 -0.8033  0.2942 -1.9091
 9477TIP3   OH229312   7.313   7.244   6.168 -0.2813 -0.4860  0.1124
 9477TIP3    H129313   7.252   7.230   6.240 -1.4303  0.1522 -0.7076
 9477TIP3    H229314   7.260   7.282   6.098  1.0279 -0.0313 -0.6751
 9478TIP3   OH229315   9.610   7.473   5.923  0.7334 -0.3010 -0.0858
 9478TIP3    H129316   9.623   7.396   5.867 -0.7643 -1.0182  0.5099
 9478TIP3    H229317   9.562   7.535   5.868 -1.9862 -1.5390  0.7175
 9479TIP3   OH229318   3.266   0.178   3.750 -0.6069 -0.9045  0.3460
 9479TIP3    H129319   3.268   0.188   3.655  1.7651  1.9231  0.5469
 9479TIP3    H229320   3.356   0.151   3.773 -0.5181  0.5832  1.9015
 9480TIP3   OH229321   5.969   7.885  10.337 -0.2133 -0.3806 -0.5314
 9480TIP3    H129322   6.033   7.854  10.400  0.6782 -0.4828 -1.4683
 9480TIP3    H229323   5.946   7.973  10.366 -0.5180 -0.7676  0.4475
 9481TIP3   OH229324   8.713   5.806   5.922  0.0982  0.0990  0.3777
 9481TIP3    H129325   8.713   5.898   5.951 -0.7485  0.2363 -0.0470
 9481TIP3    H229326   8.625   5.791   5.888  0.3339 -0.7786  0.1300
 9482TIP3   OH229327   7.360   5.988   8.374  0.0961 -0.0500 -0.3285
 9482TIP3    H129328   7.323   6.048   8.309 -2.0186 -0.3349  0.5450
 9482TIP3    H229329   7.315   6.009   8.456  1.3897 -0.9099  0.6511
 9483TIP3   OH229330   7.856   0.940   2.598 -0.0717  0.2905 -0.1291
 9483TIP3    H129331   7.797   0.890   2.542  0.4435 -1.7254  1.0463
 9483TIP3    H229332   7.804   0.964   2.674  0.2140 -0.2009  0.2260
 9484TIP3   OH229333   5.283   9.650   4.380  0.3397  0.2050 -0.5793
 9484TIP3    H129334   5.230   9.728   4.392  0.3766  0.3184 -1.1474
 9484TIP3    H229335   5.231   9.594   4.322  0.2439 -0.2612 -0.0598
 9485TIP3   OH229336   9.652   7.693   3.587 -0.0945  0.5776  0.1986
 9485TIP3    H129337   9.658   7.718   3.679 -0.5939 -2.4546  1.1649
 9485TIP3    H229338   9.738   7.713   3.551 -0.4113  3.3784  0.8268
 9486TIP3   OH229339   5.461   4.692   6.470  0.2044  0.3761  0.1646
 9486TIP3    H129340   5.432   4.640   6.395 -1.0247 -0.6194  1.2730
 9486TIP3    H229341   5.466   4.782   6.437 -1.4678  0.1429 -0.8270
 9487TIP3   OH229342   4.694   9.266   0.175  0.6502  0.3072 -0.5702
 9487TIP3    H129343   4.752   9.232   0.243  1.0506 -0.1426 -1.1270
 9487TIP3    H229344   4.739   9.246   0.093 -1.4829 -2.5089 -1.1989
 9488TIP3   OH229345   0.812   7.742   6.730 -0.5240  0.0091  0.3622
 9488TIP3    H129346   0.854   7.735   6.816 -1.2242 -0.1338  0.7009
 9488TIP3    H229347   0.782   7.833   6.725  0.0465  0.1863  0.0065
 9489TIP3   OH229348   3.349   4.742   6.280 -0.1402 -0.0412 -0.2238
 9489TIP3    H129349   3.279   4.700   6.231  0.9124 -0.6161 -1.3004
 9489TIP3    H229350   3.379   4.676   6.343 -0.6007  0.2302  0.2879
 9490TIP3   OH229351  10.449   7.464   2.109  0.0691  0.3685 -0.2648
 9490TIP3    H129352  10.413   7.545   2.071  1.0095 -0.1777 -2.4634
 9490TIP3    H229353  10.408   7.394   2.059  2.2364 -0.3556 -1.1364
 9491TIP3   OH229354   0.294   8.430   4.803 -0.4819 -0.2823 -0.6368
 9491TIP3    H129355   0.226   8.497   4.794 -1.2304 -1.0269 -0.6023
 9491TIP3    H229356   0.363   8.457   4.742 -1.2254 -0.0346 -1.3806
 9492TIP3   OH229357   2.351   1.414   4.874 -0.2740  0.1301  0.3103
 9492TIP3    H129358   2.396   1.332   4.896  3.0724  1.0422 -2.2171
 9492TIP3    H229359   2.282   1.388   4.813 -0.2666 -0.9235  0.7279
 9493TIP3   OH229360   6.981   2.276  10.446  0.6847  0.2311 -0.0243
 9493TIP3    H129361   6.892   2.242  10.454 -0.0285  1.8950 -0.5229
 9493TIP3    H229362   7.028   2.238  10.520 -0.9536  0.8758  1.4153
 9494TIP3   OH229363   4.534   0.635   6.235 -0.4522 -0.2996  0.3873
 9494TIP3    H129364   4.448   0.605   6.267  0.1910 -2.9018 -0.0446
 9494TIP3    H229365   4.594   0.565   6.261  1.1005  0.2524 -1.5037
 9495TIP3   OH229366   3.154   2.485   8.488  0.1834 -0.1435 -0.0722
 9495TIP3    H129367   3.114   2.398   8.485  0.7987 -0.4713  0.8123
 9495TIP3    H229368   3.205   2.491   8.408  1.2282 -1.1551  0.4821
 9496TIP3   OH229369   7.922   8.708   1.953 -0.1232  0.0077 -0.5968
 9496TIP3    H129370   8.016   8.723   1.947 -0.1531  0.7534  0.5008
 9496TIP3    H229371   7.908   8.624   1.908  1.2829 -0.8925  0.5701
 9497TIP3   OH229372   4.063   8.282   3.790 -0.7422  0.1876 -0.2374
 9497TIP3    H129373   3.986   8.294   3.734 -1.2192 -1.4119  0.0212
 9497TIP3    H229374   4.027   8.259   3.876  0.0120  0.6152  0.2014
 9498TIP3   OH229375   0.868   3.488   5.362 -0.0084 -0.2388 -0.1387
 9498TIP3    H129376   0.812   3.554   5.402  0.0206  0.6674 -1.5096
 9498TIP3    H229377   0.912   3.445   5.435 -3.9668 -2.4463  1.2264
 9499TIP3   OH229378   9.461   8.268   0.538  0.5449  0.4412 -0.3076
 9499TIP3    H129379   9.429   8.318   0.462 -0.0796 -0.6630 -0.7969
 9499TIP3    H229380   9.419   8.310   0.613  2.0444  2.2693 -0.4120
 9500TIP3   OH229381   1.746   3.844   5.977 -0.0369  0.7358 -0.2344
 9500TIP3    H129382   1.702   3.890   6.049 -0.2022 -0.0804  0.1982
 9500TIP3    H229383   1.839   3.850   6.000 -0.2243 -2.2949  1.8282
 9501TIP3   OH229384   8.690   4.825   2.364  0.6238  0.1272  0.7873
 9501TIP3    H129385   8.628   4.761   2.328 -0.6067  0.8694  1.4838
 9501TIP3    H229386   8.667   4.831   2.457  0.8106  1.4339  0.7772
 9502TIP3   OH229387   5.702   8.169   9.892 -0.4213 -0.3418  0.2085
 9502TIP3    H129388   5.656   8.225   9.829 -2.7695 -1.3706  0.9016
 9502TIP3    H229389   5.719   8.088   9.843 -0.4084 -0.3994  0.3093
 9503TIP3   OH229390   4.546   0.673   9.249 -0.1067 -0.1659  0.3961
 9503TIP3    H129391   4.571   0.701   9.337  1.2164  0.3914 -0.1389
 9503TIP3    H229392   4.618   0.701   9.193 -1.4198  0.4592 -1.0528
 9504TIP3   OH229393   7.328   5.719   1.607  0.3416 -0.2299  0.7736
 9504TIP3    H129394   7.282   5.788   1.558  0.1239 -0.7884  0.1784
 9504TIP3    H229395   7.347   5.759   1.692 -0.0450  0.4658  0.5447
 9505TIP3   OH229396   3.010   1.757   5.914  0.0179  0.0701  0.5632
 9505TIP3    H129397   3.030   1.663   5.915  1.3171  0.3252  0.7380
 9505TIP3    H229398   3.035   1.787   6.001  0.1129  0.6713  0.3319
 9506TIP3   OH229399   0.222   6.138   3.518 -0.1617  0.2193  0.0866
 9506TIP3    H129400   0.205   6.226   3.550 -0.5984  0.3351 -0.4385
 9506TIP3    H229401   0.233   6.148   3.423  0.6750 -0.1694  0.1356
 9507TIP3   OH229402   5.047   9.121   4.659 -0.0068 -0.5639  0.1629
 9507TIP3    H129403   5.026   9.077   4.577 -0.8950  0.8897 -0.4202
 9507TIP3    H229404   4.984   9.086   4.722  1.7879 -3.0136  0.7610
 9508TIP3   OH229405   1.849   6.825   7.222  0.2852 -0.1882  0.5194
 9508TIP3    H129406   1.893   6.743   7.198  0.7805  0.5555 -1.1747
 9508TIP3    H229407   1.760   6.798   7.245 -0.0884 -1.0281 -1.7440
 9509TIP3   OH229408   6.873   5.555   5.620 -0.5073 -0.2254  0.1658
 9509TIP3    H129409   6.924   5.553   5.702 -0.2479 -0.8540 -0.0055
 9509TIP3    H229410   6.910   5.484   5.568 -0.3345  0.4958 -0.7100
 9510TIP3   OH229411   3.492   7.256   3.857  0.0532  0.0275 -0.5139
 9510TIP3    H129412   3.534   7.281   3.775  0.4270  1.3286  0.0441
 9510TIP3    H229413   3.401   7.239   3.833  0.0300  0.9338 -1.1124
 9511TIP3   OH229414   6.921   5.802   2.069  0.6113 -0.2413 -0.6483
 9511TIP3    H129415   6.870   5.799   2.149  0.7728 -0.3923 -0.5503
 9511TIP3    H229416   6.915   5.892   2.039 -0.5324 -0.4737 -1.1664
 9512TIP3   OH229417   3.419   4.665   2.432 -0.5110 -0.0923  0.1193
 9512TIP3    H129418   3.449   4.723   2.502 -0.3576 -0.6347  0.5123
 9512TIP3    H229419   3.326   4.654   2.449 -0.3758 -0.6326  0.5520
 9513TIP3   OH229420   5.129   3.166   5.001  0.0846 -0.3731 -0.3820
 9513TIP3    H129421   5.057   3.229   5.003  0.4446  0.0536 -0.6580
 9513TIP3    H229422   5.093   3.090   4.955 -0.3567 -0.3761 -0.0353
 9514TIP3   OH229423   4.800   1.310   9.916 -0.6975 -0.4773  0.5537
 9514TIP3    H129424   4.785   1.370   9.843  0.6603 -1.4786 -0.6042
 9514TIP3    H229425   4.734   1.242   9.905 -0.8018 -0.3777  0.5575
 9515TIP3   OH229426  10.284   5.391   1.682  0.0767  0.1193 -0.4378
 9515TIP3    H129427  10.264   5.439   1.763 -0.0911 -0.7644  0.0480
 9515TIP3    H229428  10.371   5.354   1.698  0.0305 -0.0799 -0.6566
 9516TIP3   OH229429   1.338   2.349   1.466  0.0554  0.2101  0.3210
 9516TIP3    H129430   1.421   2.329   1.509  0.5670 -0.2700 -0.8397
 9516TIP3    H229431   1.272   2.304   1.519  0.8439 -1.8120 -0.3056
 9517TIP3   OH229432   8.748   0.182   5.413 -0.2857 -0.0121 -0.2355
 9517TIP3    H129433   8.765   0.264   5.460 -0.5401  0.2048 -0.5158
 9517TIP3    H229434   8.679   0.140   5.463 -1.0852  0.5689 -0.8052
 9518TIP3   OH229435   3.342   7.543   9.923 -0.0272  0.1354  0.1819
 9518TIP3    H129436   3.293   7.480   9.871 -0.5292 -0.2197  1.0612
 9518TIP3    H229437   3.305   7.536  10.011 -1.4869  3.0649 -0.0668
 9519TIP3   OH229438   2.714   6.233   1.273 -0.0632 -0.0705  0.1893
 9519TIP3    H129439   2.798   6.245   1.319  1.0342 -0.3398 -1.6469
 9519TIP3    H229440   2.657   6.300   1.310  1.4631  1.1758  0.3934
 9520TIP3   OH229441   7.379   4.579   7.674 -0.0670 -0.1552  0.5602
 9520TIP3    H129442   7.355   4.525   7.749 -1.0006 -0.2137  0.2371
 9520TIP3    H229443   7.470   4.604   7.690 -0.4142  0.2956  1.9934
 9521TIP3   OH229444   4.016   1.520   5.943  0.4636 -0.3277 -0.1199
 9521TIP3    H129445   4.006   1.578   5.867  2.0349  0.0290 -0.0901
 9521TIP3    H229446   4.022   1.579   6.018 -0.3693 -0.6501  0.2111
 9522TIP3   OH229447   0.882   5.462   4.498  0.2152  0.0004 -0.4444
 9522TIP3    H129448   0.930   5.543   4.480  0.2557  0.1782  0.4211
 9522TIP3    H229449   0.832   5.446   4.418  0.8626  0.4167 -0.9406
 9523TIP3   OH229450   6.375   3.202   8.979  0.1740  0.0746  0.4642
 9523TIP3    H129451   6.285   3.185   9.007 -0.3528  2.0647  0.1961
 9523TIP3    H229452   6.430   3.157   9.043 -1.0271  0.6362  1.9505
 9524TIP3   OH229453   8.170   5.992  10.446 -0.1363  0.1332 -0.3086
 9524TIP3    H129454   8.181   5.899  10.429 -1.7184 -0.6269  2.2078
 9524TIP3    H229455   8.252   6.020  10.487 -0.3286 -0.6710  0.6690
 9525TIP3   OH229456   2.784   0.701   6.270 -1.0922 -0.1502  0.3259
 9525TIP3    H129457   2.739   0.655   6.200  0.5790 -0.7122 -0.4156
 9525TIP3    H229458   2.858   0.645   6.293 -2.7139 -1.0885  4.0624
 9526TIP3   OH229459  10.005   1.488   4.717 -0.3715 -0.6516  0.0483
 9526TIP3    H129460  10.006   1.538   4.799  0.0425 -0.6798  0.0647
 9526TIP3    H229461   9.992   1.397   4.745  1.6231 -0.9248  0.2517
 9527TIP3   OH229462   8.853   7.097   4.961  0.5712  0.1233 -0.0783
 9527TIP3    H129463   8.778   7.129   5.010  0.9005  1.2110 -0.2631
 9527TIP3    H229464   8.922   7.162   4.976  1.4979 -0.8666  0.1136
 9528TIP3   OH229465   1.720   7.641   2.147 -0.2940  0.1452  0.5092
 9528TIP3    H129466   1.787   7.605   2.089 -0.5647  0.4752 -0.0147
 9528TIP3    H229467   1.769   7.689   2.214  0.0663 -0.9953  1.1015
 9529TIP3   OH229468   2.507   0.652   7.595 -0.6951  0.2624  0.1977
 9529TIP3    H129469   2.461   0.649   7.679 -0.6171  0.3686  0.2432
 9529TIP3    H229470   2.511   0.561   7.567 -0.9741  0.2560  0.1721
 9530TIP3   OH229471  10.600   3.637   6.670 -0.1596  0.1768 -0.0129
 9530TIP3    H129472  10.527   3.638   6.732  0.5439 -0.6087  0.8603
 9530TIP3    H229473  10.584   3.561   6.615  0.4991 -0.5905  0.8263
 9531TIP3   OH229474   1.657   2.405   6.819 -0.4904  0.2746 -0.2868
 9531TIP3    H129475   1.731   2.462   6.840 -0.4767  0.4635 -0.8356
 9531TIP3    H229476   1.692   2.340   6.758 -0.7775  0.3778 -0.5695
 9532TIP3   OH229477  10.752   2.354   2.926  0.3059 -0.5592 -0.2997
 9532TIP3    H129478  10.820   2.313   2.872  0.8411  0.0012 -0.0710
 9532TIP3    H229479  10.758   2.310   3.010  0.6855 -0.2234 -0.1449
 9533TIP3   OH229480   1.249   6.723   9.237  0.0206 -0.6141 -0.4160
 9533TIP3    H129481   1.300   6.747   9.161  0.8643  0.5432  0.4796
 9533TIP3    H229482   1.272   6.787   9.304 -0.7222 -1.5569  0.8146
 9534TIP3   OH229483   8.889   9.454   1.632 -0.0806 -0.1811 -0.6609
 9534TIP3    H129484   8.812   9.508   1.615  0.3713  1.2408  1.4481
 9534TIP3    H229485   8.861   9.364   1.613 -2.2459  0.2963  0.0423
 9535TIP3   OH229486   9.597   9.139  10.079  0.1326 -0.5631 -1.4951
 9535TIP3    H129487   9.637   9.131  10.165 -1.8919  0.8950 -0.3044
 9535TIP3    H229488   9.670   9.153  10.019  1.4989  0.4135  0.2947
 9536TIP3   OH229489   0.527  10.575   2.726 -0.3305 -0.6088  0.3089
 9536TIP3    H129490   0.436  10.603   2.725 -0.7447 -1.9023 -0.0133
 9536TIP3    H229491   0.576  10.651   2.693 -1.1734  0.4171  1.3310
 9537TIP3   OH229492   3.774   2.654   5.458 -0.1083 -0.0299  0.3708
 9537TIP3    H129493   3.693   2.701   5.479  1.1575  3.4382 -1.6636
 9537TIP3    H229494   3.842   2.702   5.505  1.2325 -0.1179 -1.3767
 9538TIP3   OH229495   7.913   7.110   8.105 -0.1435 -0.1169  0.1723
 9538TIP3    H129496   7.961   7.027   8.115  0.0722 -0.3006 -1.9029
 9538TIP3    H229497   7.835   7.099   8.158  1.3308 -0.4140  2.4066
 9539TIP3   OH229498   5.990   8.420   6.042 -0.0256 -0.2440 -0.3700
 9539TIP3    H129499   6.079   8.399   6.069 -0.2332  1.0019  1.4488
 9539TIP3    H229500   5.936   8.351   6.081 -0.1366  0.5870  0.9915
 9540TIP3   OH229501   7.638   6.154   0.607 -0.1710  0.3438  0.3720
 9540TIP3    H129502   7.688   6.103   0.670 -0.3275  1.0437  1.0867
 9540TIP3    H229503   7.608   6.230   0.657  2.0160  2.3812 -1.1685
 9541TIP3   OH229504   9.685   8.921   7.880 -0.1295 -0.3389  0.4353
 9541TIP3    H129505   9.773   8.926   7.917 -0.0044  0.0830  0.0851
 9541TIP3    H229506   9.694   8.862   7.806  0.5855  2.1042 -1.5759
 9542TIP3   OH229507  10.544   5.748   7.284  0.3207  0.2617 -0.3643
 9542TIP3    H129508  10.505   5.700   7.357  2.6779  0.9623  1.5101
 9542TIP3    H229509  10.524   5.696   7.207 -0.2521 -1.8345  1.1089
 9543TIP3   OH229510   6.594   0.351   7.197  0.3631  0.4143  0.0234
 9543TIP3    H129511   6.623   0.440   7.220 -1.6705  1.1833 -0.1875
 9543TIP3    H229512   6.666   0.314   7.147  1.8515  1.4006  1.3406
 9544TIP3   OH229513   9.692   8.836   3.794  0.0820 -0.2300  0.2642
 9544TIP3    H129514   9.757   8.884   3.742  0.6286 -0.3283  0.8523
 9544TIP3    H229515   9.671   8.894   3.867 -1.9844  0.6668 -0.9333
 9545TIP3   OH229516   5.406   5.627  10.477  0.4806 -0.1053 -0.4354
 9545TIP3    H129517   5.465   5.562  10.515 -0.0125  1.6837  4.0042
 9545TIP3    H229518   5.319   5.599  10.506  0.1239  1.6911  0.3231
 9546TIP3   OH229519   9.192   0.734   2.285  0.4226 -0.1163  0.0326
 9546TIP3    H129520   9.252   0.725   2.359  0.7821 -1.2467 -0.3727
 9546TIP3    H229521   9.186   0.646   2.248 -1.4377 -0.0241  0.0115
 9547TIP3   OH229522   6.766   2.400   4.404  1.0260  0.1133  0.2206
 9547TIP3    H129523   6.762   2.317   4.357 -0.1209  1.7698 -2.8819
 9547TIP3    H229524   6.691   2.397   4.463  0.6064 -0.8075 -0.3256
 9548TIP3   OH229525   5.943   6.274   8.096 -0.5606  0.4010 -0.2296
 9548TIP3    H129526   5.940   6.269   8.191  0.2968 -3.1142 -0.2363
 9548TIP3    H229527   5.856   6.301   8.070 -1.5758 -0.9254  1.5552
 9549TIP3   OH229528   4.681   7.504   0.861  0.2998 -0.3037  0.7239
 9549TIP3    H129529   4.645   7.567   0.798 -0.8652 -0.0655  1.6099
 9549TIP3    H229530   4.716   7.558   0.932 -1.1692 -0.6398  1.7390
 9550TIP3   OH229531  10.523   3.346   9.625 -0.5044 -0.2815 -0.3097
 9550TIP3    H129532  10.526   3.385   9.712 -2.4144  0.8096 -0.6804
 9550TIP3    H229533  10.569   3.408   9.569 -1.4961  0.3259 -0.4856
 9551TIP3   OH229534  10.123   4.134   6.918 -0.1278  0.1411 -0.2800
 9551TIP3    H129535  10.136   4.229   6.924  2.2653 -0.1088 -0.6019
 9551TIP3    H229536  10.153   4.101   7.003 -0.6390 -0.3748 -0.2957
 9552TIP3   OH229537   8.997   0.258   4.610 -0.2681 -0.5877  0.1324
 9552TIP3    H129538   8.964   0.169   4.606  0.2196 -0.7473 -0.6304
 9552TIP3    H229539   9.057   0.265   4.535 -1.7091  0.9619 -0.9727
 9553TIP3   OH229540  10.026   5.298   2.271  0.0226 -0.9874 -0.6348
 9553TIP3    H129541  10.041   5.359   2.342 -2.8369 -1.8325  0.8523
 9553TIP3    H229542  10.056   5.214   2.304 -1.5132 -1.4252 -0.2325
 9554TIP3   OH229543   2.600   7.395   9.991  0.2789 -0.0595 -0.1985
 9554TIP3    H129544   2.616   7.471   9.934  1.0204  0.2537  0.4166
 9554TIP3    H229545   2.529   7.422  10.049 -1.0319 -0.6568 -1.4590
 9555TIP3   OH229546   4.576   3.803   5.957  0.1308  0.1750 -0.0921
 9555TIP3    H129547   4.577   3.889   5.917  1.1511  0.2387  0.0491
 9555TIP3    H229548   4.627   3.813   6.037 -0.8607 -0.2406  0.6141
 9556TIP3   OH229549   9.763   3.369   2.335 -0.3297  0.1867  0.0578
 9556TIP3    H129550   9.672   3.358   2.308 -0.1608 -0.0716 -0.4172
 9556TIP3    H229551   9.781   3.294   2.391  0.1980 -0.9130 -1.5119
 9557TIP3   OH229552   4.494   0.397   9.756  0.2939  0.0007  0.6636
 9557TIP3    H129553   4.563   0.330   9.757  0.9512  0.6590  0.7438
 9557TIP3    H229554   4.412   0.348   9.749  0.7232 -0.8376  1.3460
 9558TIP3   OH229555   5.766   9.715   1.345  0.3580 -0.8186 -0.0410
 9558TIP3    H129556   5.784   9.641   1.404 -0.2398 -0.6825  0.3162
 9558TIP3    H229557   5.671   9.727   1.350  0.4172 -0.2071 -0.3215
 9559TIP3   OH229558   9.392   9.350   4.111  0.3388 -0.0573  0.1637
 9559TIP3    H129559   9.388   9.289   4.185  0.2887 -1.2062 -0.7658
 9559TIP3    H229560   9.461   9.315   4.055  0.4784  0.8864 -0.2721
 9560TIP3   OH229561   4.309   4.507   1.274 -0.1094  0.1629  0.0305
 9560TIP3    H129562   4.383   4.485   1.218  0.7030 -1.5246  1.6413
 9560TIP3    H229563   4.342   4.572   1.335 -0.6633  1.1530 -0.6988
 9561TIP3   OH229564   4.602   6.401   0.081  0.0420  0.4020  0.0413
 9561TIP3    H129565   4.576   6.482   0.125 -0.1149  1.1336 -1.3065
 9561TIP3    H229566   4.521   6.355   0.063  0.0888  0.1970  0.3622
 9562TIP3   OH229567   0.598   0.516  10.141 -0.0458  0.4249 -0.1781
 9562TIP3    H129568   0.597   0.597  10.191 -2.1124  0.8776 -0.8866
 9562TIP3    H229569   0.540   0.531  10.067 -0.8880 -1.8425 -0.0723
 9563TIP3   OH229570   0.115   0.907   0.618  0.0140 -0.1324  0.3305
 9563TIP3    H129571   0.072   0.841   0.672  0.0460 -0.7699 -0.4076
 9563TIP3    H229572   0.044   0.947   0.568  0.4064 -2.5372 -2.3560
 9564TIP3   OH229573   5.035  10.589   5.240 -0.3482  0.3175  0.0589
 9564TIP3    H129574   5.038  10.680   5.213 -0.5045  0.1847 -0.4091
 9564TIP3    H229575   4.998  10.542   5.166 -0.3048 -0.1238  0.3073
 9565TIP3   OH229576   7.621   8.397   3.462 -0.0387 -0.0432 -0.3295
 9565TIP3    H129577   7.556   8.348   3.511 -0.2501 -2.0517 -2.4344
 9565TIP3    H229578   7.570   8.463   3.415 -0.3617 -0.5542 -0.7120
 9566TIP3   OH229579  10.199  10.057   4.971 -0.5468  0.2468  0.1627
 9566TIP3    H129580  10.169  10.136   4.925 -2.8279 -0.7270 -0.1747
 9566TIP3    H229581  10.195  10.081   5.064  0.9556  1.1913  0.0228
 9567TIP3   OH229582   5.652   7.446   4.439 -0.2032  0.6532  0.5802
 9567TIP3    H129583   5.712   7.379   4.407  1.6814  1.2435  2.6323
 9567TIP3    H229584   5.631   7.498   4.361 -0.1387 -1.0969 -0.6643
 9568TIP3   OH229585   8.152   6.931   9.158  0.1896  0.5418 -0.5833
 9568TIP3    H129586   8.190   6.844   9.172 -1.1347 -0.0433 -0.4490
 9568TIP3    H229587   8.182   6.982   9.233  1.5783  0.4289 -1.0390
 9569TIP3   OH229588   5.146   2.511   6.474 -0.5498  0.1098  0.1491
 9569TIP3    H129589   5.126   2.538   6.564  0.2624  0.9649  0.0875
 9569TIP3    H229590   5.190   2.587   6.436 -0.4661 -0.4206 -0.8279
 9570TIP3   OH229591  10.084   6.003   9.988  0.0416  0.4374 -0.2730
 9570TIP3    H129592  10.169   5.976   9.953 -0.4533 -1.3661 -0.1390
 9570TIP3    H229593  10.041   5.922  10.013 -1.9828  1.2616 -0.8831
 9571TIP3   OH229594   5.082   2.086   9.773 -0.3334  0.2305 -0.0568
 9571TIP3    H129595   4.988   2.105   9.781 -0.5704 -0.7114 -0.4870
 9571TIP3    H229596   5.120   2.169   9.744 -1.0089  0.6643  0.2567
 9572TIP3   OH229597   4.567  10.666   2.652  0.0493  0.4766 -0.0148
 9572TIP3    H129598   4.479  10.647   2.617 -0.3224  2.0881 -0.0292
 9572TIP3    H229599   4.617  10.695   2.576  0.3411  0.3873  0.1438
 9573TIP3   OH229600   8.403   6.207   6.895  0.4336  0.7056 -0.1799
 9573TIP3    H129601   8.476   6.152   6.867 -0.3369 -0.5370  0.2109
 9573TIP3    H229602   8.328   6.176   6.845 -0.3877  0.2091  1.3209
 9574TIP3   OH229603   6.511   3.509  10.272 -0.1564 -0.3627 -0.1769
 9574TIP3    H129604   6.477   3.568  10.204  0.0340 -1.2932 -1.0989
 9574TIP3    H229605   6.580   3.459  10.228 -0.2181 -1.1720  0.6267
 9575TIP3   OH229606  10.035   4.381   5.830  0.5748 -0.1338 -0.4021
 9575TIP3    H129607  10.059   4.326   5.905 -1.2123 -1.0785 -0.4841
 9575TIP3    H229608  10.017   4.467   5.868 -0.3724 -0.6207  0.2790
 9576TIP3   OH229609   6.380   5.632   2.493  0.2149 -0.3432 -0.4711
 9576TIP3    H129610   6.401   5.577   2.418  1.5992  1.1435 -1.2599
 9576TIP3    H229611   6.412   5.719   2.468  0.3430  0.2885  1.6730
 9577TIP3   OH229612   4.209   6.425   9.888 -0.6370  0.1246  0.6012
 9577TIP3    H129613   4.201   6.467   9.973 -2.3422  0.5572  0.2635
 9577TIP3    H229614   4.288   6.465   9.850 -1.6635  2.4129  0.6734
 9578TIP3   OH229615   2.078   6.724   5.639 -0.0528 -0.7157  0.0882
 9578TIP3    H129616   2.092   6.690   5.727 -0.6480  0.0733  0.5067
 9578TIP3    H229617   2.019   6.661   5.598  1.2818 -1.8041 -0.2337
 9579TIP3   OH229618   5.624   4.839   1.927 -0.2284  0.7200  0.4201
 9579TIP3    H129619   5.616   4.758   1.877  1.1549  1.4093 -1.0180
 9579TIP3    H229620   5.536   4.856   1.961 -1.3715  0.4542 -2.1899
 9580TIP3   OH229621   7.603   4.265   6.530 -0.1584  0.4161  0.2160
 9580TIP3    H129622   7.585   4.181   6.572 -0.6394 -0.1513 -1.0783
 9580TIP3    H229623   7.540   4.271   6.459  0.9445  1.0991 -0.7597
 9581TIP3   OH229624  10.418   0.178   7.215  0.3743  0.3182  0.7487
 9581TIP3    H129625  10.370   0.128   7.281  0.9069  0.1534  1.0229
 9581TIP3    H229626  10.417   0.123   7.137  0.4607  0.1370  0.8752
 9582TIP3   OH229627   3.926   1.315   1.250 -0.5657 -0.0666 -0.1010
 9582TIP3    H129628   3.837   1.349   1.258  0.1423  1.8217  0.2380
 9582TIP3    H229629   3.915   1.223   1.226 -2.5845  0.4963 -1.5520
 9583TIP3   OH229630  10.309   7.145   1.164  0.3874  0.3265  0.7036
 9583TIP3    H129631  10.344   7.232   1.145 -0.1314  0.4469  0.2887
 9583TIP3    H229632  10.387   7.089   1.169  0.8112  0.9678  1.9148
 9584TIP3   OH229633   0.692   4.432   9.068 -0.4023  0.1589 -0.1704
 9584TIP3    H129634   0.702   4.527   9.080 -0.9319  0.0146  1.7379
 9584TIP3    H229635   0.781   4.400   9.053  0.2061  0.6273  2.0932
 9585TIP3   OH229636   1.575   0.958   9.882  0.8622 -0.2157  0.0487
 9585TIP3    H129637   1.520   1.016   9.935 -0.3126 -0.7202 -0.5733
 9585TIP3    H229638   1.513   0.905   9.833  1.9067 -2.2526  0.8272
 9586TIP3   OH229639   8.663   6.495   5.886 -0.0082 -0.0134  0.4988
 9586TIP3    H129640   8.747   6.452   5.898 -0.9018 -1.5365  1.7743
 9586TIP3    H229641   8.629   6.460   5.804  0.7362  0.8721 -0.1963
 9587TIP3   OH229642   8.626   6.586   3.418 -0.4639 -0.0985 -0.2210
 9587TIP3    H129643   8.606   6.494   3.406 -0.1981 -0.0727 -0.9571
 9587TIP3    H229644   8.560   6.632   3.365  1.2487 -0.0051 -2.4216
 9588TIP3   OH229645   3.762  10.662   3.520  0.1885 -0.0909 -0.3960
 9588TIP3    H129646   3.687  10.626   3.566  0.4976  0.4997  0.5909
 9588TIP3    H229647   3.815  10.704   3.588  0.5343  1.0112 -1.3082
 9589TIP3   OH229648   1.269   5.134   2.234  0.1169 -0.5624 -0.8164
 9589TIP3    H129649   1.259   5.203   2.170 -0.9926  0.3159  0.2633
 9589TIP3    H229650   1.184   5.128   2.277  1.1608 -0.2136  1.4487
 9590TIP3   OH229651   9.440   4.173   3.338 -0.0696 -0.9196 -0.0721
 9590TIP3    H129652   9.352   4.159   3.372  0.0672 -1.8454 -0.0626
 9590TIP3    H229653   9.455   4.099   3.279  1.0101 -1.2367  0.5647
 9591TIP3   OH229654   7.553   2.687   4.953 -0.5270 -0.3352 -0.8053
 9591TIP3    H129655   7.588   2.759   5.005 -0.8313 -1.4312  1.0241
 9591TIP3    H229656   7.510   2.729   4.879 -0.1701  1.3183 -0.1113
 9592TIP3   OH229657   9.857   2.002   4.376  0.0407 -0.1824 -0.1912
 9592TIP3    H129658   9.772   2.033   4.406  0.1250 -0.9394  0.8801
 9592TIP3    H229659   9.839   1.963   4.290 -0.4906  0.6183 -0.4519
 9593TIP3   OH229660   7.412   4.401   4.231  0.2153  0.8057  0.0459
 9593TIP3    H129661   7.448   4.423   4.145  0.3772 -0.2537 -0.1804
 9593TIP3    H229662   7.455   4.319   4.254 -1.1455  0.1335  0.3208
 9594TIP3   OH229663   8.785   4.146   1.305  0.0844 -0.2850  0.4880
 9594TIP3    H129664   8.854   4.081   1.317  0.7488  0.5001  1.0627
 9594TIP3    H229665   8.830   4.222   1.268 -0.5117  0.1721  0.6919
 9595TIP3   OH229666   2.985   8.742   1.290  0.7499  0.3042  0.1123
 9595TIP3    H129667   2.964   8.756   1.198  0.0073  0.1779  0.2559
 9595TIP3    H229668   2.904   8.762   1.336  1.1796  0.5762  0.7597
 9596TIP3   OH229669   9.048   3.175   4.509 -0.2523 -0.5173  0.0894
 9596TIP3    H129670   9.073   3.154   4.599 -0.3825 -1.6578 -0.1261
 9596TIP3    H229671   9.131   3.194   4.465 -0.1579 -0.3177  0.3487
 9597TIP3   OH229672   9.937   8.817   6.239  0.6584  0.3739 -0.3575
 9597TIP3    H129673   9.966   8.743   6.293 -0.8939 -0.0522 -0.0796
 9597TIP3    H229674   9.908   8.777   6.157  2.5154  0.9715 -1.3914
 9598TIP3   OH229675   2.364   7.222   6.974  0.4926  0.0680  0.0962
 9598TIP3    H129676   2.412   7.221   6.891 -0.9752 -0.9040 -0.7910
 9598TIP3    H229677   2.431   7.210   7.040  1.6498  0.3722 -0.9753
 9599TIP3   OH229678   2.119   5.466  10.678  0.0229 -0.2638  0.0466
 9599TIP3    H129679   2.046   5.526  10.695 -0.7220 -1.5205  1.4862
 9599TIP3    H229680   2.099   5.427  10.593 -0.5250  0.0379  0.0362
 9600TIP3   OH229681   2.108   4.175   8.044 -0.2501 -0.3676 -0.3474
 9600TIP3    H129682   2.090   4.263   8.013  0.0252  0.4639  1.6641
 9600TIP3    H229683   2.053   4.165   8.121 -0.7910 -2.2422 -0.9307
 9601TIP3   OH229684   8.131   1.407   1.992  0.8104 -0.1702  0.1839
 9601TIP3    H129685   8.098   1.488   2.030  0.7284 -1.2902  2.6942
 9601TIP3    H229686   8.188   1.369   2.060  0.4254 -2.4721 -0.6605
 9602TIP3   OH229687   2.968   4.947   5.414 -0.2827 -0.2454  0.8434
 9602TIP3    H129688   2.949   4.955   5.507 -0.9239  0.9064  0.6308
 9602TIP3    H229689   3.059   4.916   5.410  0.6424  2.1498  1.8556
 9603TIP3   OH229690   4.821   1.207   1.929 -0.1384  0.0900 -0.2849
 9603TIP3    H129691   4.772   1.200   2.010 -1.0975 -0.5908 -0.9100
 9603TIP3    H229692   4.758   1.240   1.865  0.2607 -0.5821 -1.0513
 9604TIP3   OH229693   2.631   7.337   1.427 -0.7121 -0.3558 -0.3072
 9604TIP3    H129694   2.604   7.429   1.438 -0.4168 -0.4245  1.2471
 9604TIP3    H229695   2.723   7.337   1.454 -1.3260 -1.5013  1.9904
 9605TIP3   OH229696   2.266   7.388   5.715  0.1318 -0.3886 -0.0426
 9605TIP3    H129697   2.354   7.421   5.699 -0.7436  1.1692 -2.1144
 9605TIP3    H229698   2.221   7.399   5.631 -2.6652  0.9539  1.5025
 9606TIP3   OH229699   9.538  10.291   5.980 -0.5859  0.0649  0.2838
 9606TIP3    H129700   9.572  10.201   5.983  0.7636  0.4767 -1.0830
 9606TIP3    H229701   9.569  10.331   6.061  1.6321  0.1853 -0.5553
 9607TIP3   OH229702   7.761   3.459   2.325 -0.5830  0.5745  0.5431
 9607TIP3    H129703   7.835   3.400   2.338  0.1056  0.8617 -1.7318
 9607TIP3    H229704   7.798   3.546   2.337 -0.7579  0.6807  0.3142
 9608TIP3   OH229705  10.557   9.639   3.112  0.0247 -0.1716  0.2697
 9608TIP3    H129706  10.499   9.713   3.093  2.7004  1.7464 -0.9583
 9608TIP3    H229707  10.510   9.563   3.077 -2.4405  0.9933  0.8070
 9609TIP3   OH229708   9.269  10.767   1.456 -0.3897  0.4429  0.6316
 9609TIP3    H129709   9.300  10.825   1.525 -0.6512  3.8130 -1.8404
 9609TIP3    H229710   9.174  10.766   1.466 -0.6771  2.9100 -0.8978
 9610TIP3   OH229711   6.451   1.158  10.565 -0.6891  0.5153  0.8425
 9610TIP3    H129712   6.388   1.228  10.580 -2.5302 -1.4003  2.5381
 9610TIP3    H229713   6.481   1.133  10.652 -0.7889 -1.4146  0.3696
 9611TIP3   OH229714   8.552   4.425   2.548 -0.3275  0.0696 -0.3799
 9611TIP3    H129715   8.589   4.513   2.547  0.4087 -0.2302 -1.0087
 9611TIP3    H229716   8.500   4.420   2.468 -3.1484  1.0258  1.2554
 9612TIP3   OH229717   4.734   1.391   0.139  0.9362  0.1505  0.4652
 9612TIP3    H129718   4.668   1.343   0.190 -0.8571  2.1631  0.1611
 9612TIP3    H229719   4.772   1.324   0.081  0.3208 -1.3889  1.7468
 9613TIP3   OH229720   6.834   3.259   1.647 -0.0484 -0.1001 -0.0685
 9613TIP3    H129721   6.829   3.219   1.560 -1.5055  1.3223 -0.6912
 9613TIP3    H229722   6.743   3.267   1.674  0.2568  1.7012  0.5289
 9614TIP3   OH229723  10.275   3.560   4.187 -0.0492 -0.0018  0.3339
 9614TIP3    H129724  10.190   3.597   4.163  1.1318  1.2551 -2.3293
 9614TIP3    H229725  10.293   3.597   4.274 -1.4408  1.0933  0.1959
 9615TIP3   OH229726   1.260   1.215   4.192  0.0399  0.9510 -0.3854
 9615TIP3    H129727   1.171   1.244   4.169 -0.6071 -1.1565 -0.7409
 9615TIP3    H229728   1.250   1.176   4.279  0.8393  1.5237 -0.0181
 9616TIP3   OH229729   7.061   7.478   6.961 -0.4559 -0.5811 -0.4008
 9616TIP3    H129730   7.066   7.474   7.056 -0.7634 -1.1322 -0.4075
 9616TIP3    H229731   6.967   7.481   6.942 -0.3959 -0.4869 -0.6910
 9617TIP3   OH229732   6.394   2.777   4.975  0.6904 -0.5602  0.2020
 9617TIP3    H129733   6.349   2.857   4.947  0.9763 -0.8016 -1.0033
 9617TIP3    H229734   6.337   2.739   5.042 -1.1996 -1.1421 -1.6426
 9618TIP3   OH229735   8.290   0.161   3.667 -0.1427 -0.0434  0.3931
 9618TIP3    H129736   8.276   0.072   3.698  0.0061 -0.6201 -1.1151
 9618TIP3    H229737   8.228   0.171   3.595 -0.2557  1.1278  0.6325
 9619TIP3   OH229738   2.138   1.499   6.599 -0.1247  0.1879  0.0535
 9619TIP3    H129739   2.134   1.509   6.504  1.5832 -0.0199 -0.0731
 9619TIP3    H229740   2.130   1.404   6.613 -0.5334  0.2322  0.1410
 9620TIP3   OH229741   8.299   9.085   3.067  0.0994  0.2358  0.1161
 9620TIP3    H129742   8.357   9.043   3.004 -1.0952  0.5310 -1.2253
 9620TIP3    H229743   8.344   9.166   3.091 -0.2191  1.0135 -1.7659
 9621TIP3   OH229744   3.127   5.723   1.348 -0.0402  0.5382  0.0384
 9621TIP3    H129745   3.067   5.681   1.286  0.9472 -0.3392 -0.3620
 9621TIP3    H229746   3.211   5.723   1.303  0.7937 -0.4579  1.5039
 9622TIP3   OH229747   3.291   9.850  10.436  0.3386 -0.0880 -0.3439
 9622TIP3    H129748   3.303   9.772  10.382 -2.4935  1.5074 -3.5981
 9622TIP3    H229749   3.348   9.916  10.396  2.1790 -0.1639  1.9522
 9623TIP3   OH229750   2.139   3.704   4.593 -0.1122 -0.0898 -0.0259
 9623TIP3    H129751   2.065   3.751   4.632 -0.3318 -0.0697 -0.4602
 9623TIP3    H229752   2.118   3.700   4.500 -0.3140 -1.4533  0.0584
 9624TIP3   OH229753   0.168   6.379   7.647 -0.0531 -0.4787 -0.1039
 9624TIP3    H129754   0.113   6.457   7.637  1.8676  0.8528 -0.9240
 9624TIP3    H229755   0.244   6.410   7.697  2.1244 -1.0030 -2.8119
 9625TIP3   OH229756   1.712   2.165   3.633 -0.1007 -0.2829  0.1276
 9625TIP3    H129757   1.667   2.133   3.555  0.0333 -0.7763  0.2491
 9625TIP3    H229758   1.645   2.215   3.681 -0.7800 -1.7339  0.7450
 9626TIP3   OH229759   8.754   1.476   6.438 -0.2237  0.1257 -0.0069
 9626TIP3    H129760   8.724   1.490   6.348  1.5292  0.0152 -0.6482
 9626TIP3    H229761   8.803   1.555   6.459 -0.5170  0.0971  0.8289
 9627TIP3   OH229762  10.235   9.449   5.492 -0.0372 -0.2989  0.0958
 9627TIP3    H129763  10.226   9.539   5.460 -1.8849 -1.3220 -2.6359
 9627TIP3    H229764  10.319   9.449   5.539  1.5106  2.1709 -2.3580
 9628TIP3   OH229765   9.191   8.229   1.409  0.3214 -0.0000 -0.2204
 9628TIP3    H129766   9.113   8.284   1.410 -0.1264 -0.6188  0.6815
 9628TIP3    H229767   9.160   8.143   1.380  0.8683  0.0145 -0.8676
 9629TIP3   OH229768   4.546   2.688   8.337  0.2380  0.2152  0.4854
 9629TIP3    H129769   4.580   2.630   8.269 -0.6610  0.7289 -0.4245
 9629TIP3    H229770   4.621   2.703   8.395  1.2448  0.3869 -0.8108
 9630TIP3   OH229771   7.690   0.230   0.348 -0.6165 -0.3067  0.1144
 9630TIP3    H129772   7.736   0.313   0.361 -2.5528  0.5611  2.1363
 9630TIP3    H229773   7.649   0.239   0.262 -0.4159  0.6290  0.1001
 9631TIP3   OH229774   3.754  10.424   8.755 -0.3967 -0.4731 -0.9801
 9631TIP3    H129775   3.828  10.423   8.816  0.8157  2.5434 -2.1938
 9631TIP3    H229776   3.680  10.451   8.809  0.1428 -0.1947 -0.3530
 9632TIP3   OH229777   4.888   4.927   8.768  0.1556 -0.6001 -0.2254
 9632TIP3    H129778   4.805   4.881   8.779  0.4409 -1.0859 -0.0972
 9632TIP3    H229779   4.866   5.003   8.714 -0.5970 -0.0927  0.7425
 9633TIP3   OH229780   0.590   8.528   6.197 -0.2784 -0.7498 -0.3180
 9633TIP3    H129781   0.539   8.608   6.185 -1.7592 -1.7605 -0.9922
 9633TIP3    H229782   0.546   8.482   6.269  0.1221 -1.2864 -0.4118
 9634TIP3   OH229783   2.254   0.750   9.607 -0.2590 -0.1474 -0.4109
 9634TIP3    H129784   2.292   0.835   9.629 -0.8324 -0.6585  3.2260
 9634TIP3    H229785   2.329   0.696   9.582  0.7327  0.3643  1.2914
 9635TIP3   OH229786   9.281   6.217   7.037  0.0083 -0.2741  0.1060
 9635TIP3    H129787   9.311   6.305   7.059 -0.5543 -0.0239 -0.0994
 9635TIP3    H229788   9.307   6.205   6.945 -2.1827  0.7130 -0.7195
 9636TIP3   OH229789   6.620   5.248   0.994 -0.0783  0.0271  0.0660
 9636TIP3    H129790   6.533   5.268   0.959  0.3708 -1.0256 -1.8338
 9636TIP3    H229791   6.678   5.311   0.951  0.3098 -0.3609  0.0087
 9637TIP3   OH229792   1.755   8.752  10.578  0.0847  0.2900  0.3170
 9637TIP3    H129793   1.777   8.661  10.562  2.2161  0.4065  2.0215
 9637TIP3    H229794   1.682   8.749  10.639 -2.1641 -0.1618 -2.2215
 9638TIP3   OH229795   0.355   0.167   7.312  0.2462  0.2848 -0.3162
 9638TIP3    H129796   0.319   0.112   7.242  0.4875  0.9584 -0.9825
 9638TIP3    H229797   0.320   0.129   7.393  1.5148 -1.7158 -0.6445
 9639TIP3   OH229798   4.634  10.008   2.635 -0.3248  0.2108 -0.0740
 9639TIP3    H129799   4.665  10.097   2.618 -0.0114  0.2074  0.4692
 9639TIP3    H229800   4.558  10.019   2.692 -0.7271  0.1647 -0.5918
 9640TIP3   OH229801   4.032   4.094   0.795  0.1281 -0.4887  0.3056
 9640TIP3    H129802   4.079   4.174   0.771 -0.1341 -0.6197 -0.6767
 9640TIP3    H229803   4.090   4.023   0.769 -1.0667 -0.6853 -2.0680
 9641TIP3   OH229804  10.902   2.014  10.039 -0.2281 -0.6033  0.1103
 9641TIP3    H129805  10.924   2.019  10.132  0.8412 -1.0342 -0.1115
 9641TIP3    H229806  10.973   1.963   9.999  1.2591  2.4291 -1.5331
 9642TIP3   OH229807   5.247   3.562   3.570  0.1563  0.1050  0.1079
 9642TIP3    H129808   5.242   3.626   3.640 -0.9011  0.3775 -0.1931
 9642TIP3    H229809   5.281   3.610   3.495 -0.6714  0.3505 -0.1281
 9643TIP3   OH229810   8.268   8.531  10.110 -0.1490 -0.1082  0.3665
 9643TIP3    H129811   8.322   8.577  10.046  1.0095 -0.1998  1.2517
 9643TIP3    H229812   8.199   8.490  10.058 -0.9452  2.1656 -0.5215
 9644TIP3   OH229813   1.777  10.795   6.403  0.2468  0.1426  0.0510
 9644TIP3    H129814   1.800  10.846   6.325  1.2835 -0.1767  0.1342
 9644TIP3    H229815   1.846  10.728   6.409  0.5930  0.6102  1.6417
 9645TIP3   OH229816   5.662   2.028   8.476 -0.3580  0.2731 -0.4349
 9645TIP3    H129817   5.670   2.101   8.416  2.5716 -0.6124 -1.3018
 9645TIP3    H229818   5.661   1.950   8.420 -2.2964 -0.4486  0.5044
 9646TIP3   OH229819   3.990   3.600   0.271  0.3270  0.0123 -0.1863
 9646TIP3    H129820   3.902   3.624   0.301  0.7281  1.7486 -0.2847
 9646TIP3    H229821   4.002   3.510   0.301 -1.6996 -0.4724 -0.6744
 9647TIP3   OH229822   4.449   5.950   0.176  0.3017 -0.5118  0.1316
 9647TIP3    H129823   4.466   5.889   0.104  1.6214 -1.3246  1.0819
 9647TIP3    H229824   4.372   5.913   0.221 -0.9144  0.3405 -1.1785
 9648TIP3   OH229825   2.094   4.751   1.355  0.0439  0.1686 -0.0435
 9648TIP3    H129826   2.105   4.838   1.316  1.5578 -0.1898 -0.4872
 9648TIP3    H229827   2.138   4.692   1.294 -1.1900 -0.9705  0.1212
 9649TIP3   OH229828   8.417   9.577   9.978 -0.4351  0.4749  0.1492
 9649TIP3    H129829   8.484   9.634  10.016  0.4658 -1.3742  1.4905
 9649TIP3    H229830   8.460   9.537   9.902 -0.7229  0.8249 -0.2007
 9650TIP3   OH229831  10.336   9.260   4.934 -0.1914 -0.0334 -0.0102
 9650TIP3    H129832  10.266   9.198   4.913 -1.5280  1.7895 -1.3517
 9650TIP3    H229833  10.354   9.245   5.027  0.4415 -3.1961 -0.5500
 9651TIP3   OH229834   7.969   0.481   4.346  0.3104  0.3194 -0.8053
 9651TIP3    H129835   7.903   0.463   4.412  1.5155  1.9923  0.9865
 9651TIP3    H229836   7.927   0.461   4.262 -1.2789 -1.8695  0.4229
 9652TIP3   OH229837   6.122   6.118   8.683  0.2092 -0.1259  0.2205
 9652TIP3    H129838   6.039   6.105   8.637  0.8362 -3.7693 -0.2421
 9652TIP3    H229839   6.097   6.139   8.773 -1.1850 -0.3749 -0.0822
 9653TIP3   OH229840   8.511   1.605   6.064 -0.2139 -0.0312  0.4465
 9653TIP3    H129841   8.424   1.569   6.079 -0.5797  1.0668  1.0279
 9653TIP3    H229842   8.568   1.528   6.057 -1.1763 -0.7481  0.3338
 9654TIP3   OH229843   9.396   4.154   5.495 -0.4004  0.4875  0.2705
 9654TIP3    H129844   9.477   4.103   5.491 -1.0404 -0.5074 -0.9482
 9654TIP3    H229845   9.407   4.222   5.429 -0.3727  0.6432  0.4350
 9655TIP3   OH229846   3.489   7.574   6.103  0.1843  0.4363 -0.1968
 9655TIP3    H129847   3.443   7.491   6.115 -1.8427  1.1430 -2.2039
 9655TIP3    H229848   3.576   7.549   6.074  0.5702 -0.9558  1.9466
 9656TIP3   OH229849  10.684   9.728   6.949  0.1128  0.6301  0.7170
 9656TIP3    H129850  10.631   9.657   6.913  1.5655  0.3832 -1.0764
 9656TIP3    H229851  10.762   9.685   6.984  0.9251  1.2708 -0.2275
 9657TIP3   OH229852   9.887   2.310   1.148  0.4088 -0.2563 -0.1548
 9657TIP3    H129853   9.910   2.260   1.226  2.2831 -1.3913 -1.3489
 9657TIP3    H229854   9.969   2.350   1.120 -0.5482  1.4397 -0.6795
 9658TIP3   OH229855   1.348   3.598   2.233  0.3984 -0.1490 -0.0991
 9658TIP3    H129856   1.263   3.629   2.203  0.5144  0.7579  0.4588
 9658TIP3    H229857   1.367   3.652   2.309  0.4145 -1.9336  1.2193
 9659TIP3   OH229858   1.746  10.609   7.745  0.0063 -0.3343 -0.0992
 9659TIP3    H129859   1.728  10.602   7.838  0.3187 -1.2810 -0.1082
 9659TIP3    H229860   1.807  10.538   7.726 -0.7650 -0.7208 -1.2027
 9660TIP3   OH229861   9.270   0.118   6.112  0.1560  0.2310 -0.1647
 9660TIP3    H129862   9.278   0.146   6.203 -0.7551  1.9975 -0.5742
 9660TIP3    H229863   9.281   0.023   6.114  3.1460  0.4907  1.3846
 9661TIP3   OH229864   9.873  10.898   8.205  0.1151 -0.1813  0.2786
 9661TIP3    H129865   9.806  10.867   8.144  0.1627  1.4938 -0.6918
 9661TIP3    H229866   9.859  10.993   8.209  1.9423  0.1069  0.6378
 9662TIP3   OH229867   4.777   9.188   7.276 -0.2132 -0.1092 -0.2750
 9662TIP3    H129868   4.817   9.274   7.272  0.5227 -0.4947 -2.1457
 9662TIP3    H229869   4.720   9.192   7.353  1.0103  1.4861  0.6132
 9663TIP3   OH229870   9.190   5.056   4.457 -0.9508  0.3295 -0.4070
 9663TIP3    H129871   9.134   5.054   4.379 -0.7437 -1.6752 -0.5553
 9663TIP3    H229872   9.193   4.965   4.487  1.2046  0.5836  0.3315
 9664TIP3   OH229873   6.963   9.973  10.239  0.0709 -0.3851 -0.0724
 9664TIP3    H129874   6.989   9.969  10.147  2.4141 -0.7125  0.5304
 9664TIP3    H229875   6.940  10.065  10.253 -1.9778 -0.6333 -1.3262
 9665TIP3   OH229876  10.738   8.055   2.515  0.6171 -0.1766 -0.0246
 9665TIP3    H129877  10.674   8.090   2.577  0.0802  0.5181 -0.9439
 9665TIP3    H229878  10.764   7.971   2.553 -2.8619 -1.8503 -0.8607
 9666TIP3   OH229879   2.957   8.700   8.879 -0.3789 -0.4814 -0.1214
 9666TIP3    H129880   3.002   8.661   8.805  2.6754  1.6532  0.4264
 9666TIP3    H229881   3.015   8.685   8.954 -1.3122  1.0394  0.9838
 9667TIP3   OH229882   1.482   3.427   5.041 -0.4995  0.6745  0.1140
 9667TIP3    H129883   1.397   3.428   4.997 -1.5571 -3.4786  1.6315
 9667TIP3    H229884   1.546   3.435   4.970 -2.1068  1.3294 -1.3330
 9668TIP3   OH229885   6.063   9.916   2.145 -0.4958 -0.3694  0.4530
 9668TIP3    H129886   6.091   9.996   2.100 -1.7196  0.3949  0.9924
 9668TIP3    H229887   6.083   9.846   2.083  0.0159  0.4165 -0.2982
 9669TIP3   OH229888  10.481   9.497   7.021 -0.1008 -0.5612  0.4614
 9669TIP3    H129889  10.413   9.471   6.960  0.0669  0.7786 -0.3360
 9669TIP3    H229890  10.536   9.419   7.031 -1.8346 -1.7455  1.3016
 9670TIP3   OH229891   0.965   5.052   3.116 -0.3643  0.4676 -0.0639
 9670TIP3    H129892   0.946   5.002   3.196 -0.3238  0.9267  0.2379
 9670TIP3    H229893   0.882   5.094   3.094 -0.1985  0.9072  0.1401
 9671TIP3   OH229894   0.838   2.012   9.494 -0.1640  0.2695 -0.0009
 9671TIP3    H129895   0.756   2.061   9.493 -0.3875 -0.0791 -1.5303
 9671TIP3    H229896   0.879   2.032   9.410  0.6216 -0.7074  0.1252
 9672TIP3   OH229897   2.033   3.079   9.778  0.0516  0.3529  0.2835
 9672TIP3    H129898   2.104   3.104   9.720 -0.1919  2.1800  0.7166
 9672TIP3    H229899   2.027   3.150   9.842 -0.8847 -0.7062  1.4486
 9673TIP3   OH229900   9.373   3.760  10.424 -0.2101  0.5110 -0.0816
 9673TIP3    H129901   9.291   3.748  10.473  0.1161  3.2270  1.3594
 9673TIP3    H229902   9.425   3.682  10.445 -1.7928 -0.5052  0.2584
 9674TIP3   OH229903   2.890   8.271   1.350 -0.0442  0.0107 -0.1864
 9674TIP3    H129904   2.870   8.271   1.444 -0.1890 -0.2949 -0.2160
 9674TIP3    H229905   2.947   8.196   1.337 -1.1212 -0.7780 -0.5626
 9675TIP3   OH229906   7.829   2.453   9.718  0.5984  0.2049  0.1078
 9675TIP3    H129907   7.746   2.465   9.673  1.4438 -0.5244 -1.7666
 9675TIP3    H229908   7.810   2.390   9.787 -0.5247  0.4799  0.0703
 9676TIP3   OH229909   5.539   0.710   6.053  0.0296 -0.1154  0.2587
 9676TIP3    H129910   5.524   0.616   6.052  1.3873 -0.3496  0.2554
 9676TIP3    H229911   5.501   0.742   5.971  1.6417 -1.0181 -0.8830
 9677TIP3   OH229912  10.021   4.243  10.164  0.2054  0.2654 -0.2065
 9677TIP3    H129913  10.033   4.148  10.170  1.4462  0.4446  0.2796
 9677TIP3    H229914   9.940   4.253  10.114 -1.0057 -1.0710  1.3528
 9678TIP3   OH229915   5.374   8.215   2.727 -0.5080  0.0634 -0.3427
 9678TIP3    H129916   5.308   8.267   2.681 -1.4032 -0.7548 -0.0140
 9678TIP3    H229917   5.406   8.153   2.661 -0.4186  0.1421 -0.3733
 9679TIP3   OH229918   3.760   4.861   0.084  0.1452  0.2885 -0.0293
 9679TIP3    H129919   3.688   4.910   0.125  0.4839  0.8878 -0.1381
 9679TIP3    H229920   3.735   4.857  -0.009 -0.3597 -0.6039  0.1356
 9680TIP3   OH229921   3.719   3.788   3.163 -0.5565 -0.2459 -0.0829
 9680TIP3    H129922   3.731   3.844   3.240  2.6239  3.1169 -2.6583
 9680TIP3    H229923   3.679   3.846   3.098  1.1736 -1.4260 -2.3373
 9681TIP3   OH229924   7.693   5.742   2.612  0.7248 -0.3851  0.3487
 9681TIP3    H129925   7.670   5.713   2.701 -0.7732 -0.7921 -0.1401
 9681TIP3    H229926   7.697   5.838   2.620 -3.3031  0.0127  0.1580
 9682TIP3   OH229927  10.195   7.862   6.851  0.4765  0.0655 -0.1579
 9682TIP3    H129928  10.256   7.918   6.898 -1.7283  3.3855 -0.9311
 9682TIP3    H229929  10.223   7.868   6.759 -0.4002  0.8100 -0.3856
 9683TIP3   OH229930   0.009   3.100   0.562  0.9366  0.2035  0.3864
 9683TIP3    H129931   0.031   3.161   0.632 -0.6845 -1.5894  2.6099
 9683TIP3    H229932   0.040   3.015   0.594 -0.8949 -0.8672 -0.5397
 9684TIP3   OH229933   7.030   2.273  10.164  0.8225 -0.0742 -0.0179
 9684TIP3    H129934   7.077   2.351  10.134  1.9448 -0.8406 -0.2964
 9684TIP3    H229935   7.017   2.288  10.258 -1.0360  1.4756 -0.4542
 9685TIP3   OH229936   9.672   8.736   3.043 -0.2520 -0.2333 -0.3359
 9685TIP3    H129937   9.689   8.672   3.112 -0.0513 -2.1748 -2.0729
 9685TIP3    H229938   9.599   8.698   2.993 -1.0792  1.6191 -0.6100
 9686TIP3   OH229939   8.739   7.360   6.662 -0.1236  0.0941  0.2132
 9686TIP3    H129940   8.693   7.287   6.620 -0.1135  0.5995 -0.6936
 9686TIP3    H229941   8.798   7.317   6.724 -0.2646 -0.6614 -0.1561
 9687TIP3   OH229942   1.294   4.776   9.038  0.0735 -0.8005  0.2595
 9687TIP3    H129943   1.287   4.694   8.988 -2.0339 -0.4608 -0.0792
 9687TIP3    H229944   1.386   4.779   9.066  0.9190 -1.8662 -2.1155
 9688TIP3   OH229945   6.862   4.484  10.473 -0.8543 -0.0871 -0.2812
 9688TIP3    H129946   6.907   4.459  10.553 -1.6912  0.5826  0.4289
 9688TIP3    H229947   6.769   4.489  10.499 -1.1129  0.3104 -1.2395
 9689TIP3   OH229948   0.024   2.246   2.761  0.3536 -0.2868  0.1423
 9689TIP3    H129949  -0.031   2.177   2.724  0.9146 -1.1301  0.8192
 9689TIP3    H229950   0.084   2.199   2.820  0.9557  0.7485  0.3778
 9690TIP3   OH229951   9.303  10.265   9.043  0.3172  0.1362  0.2355
 9690TIP3    H129952   9.307  10.184   8.991  2.0684  0.6799 -0.5513
 9690TIP3    H229953   9.370  10.254   9.110 -0.3542  0.3970  0.9563
 9691TIP3   OH229954   1.508   9.366   2.141  0.8036  0.5933 -0.2384
 9691TIP3    H129955   1.577   9.335   2.200  1.0151 -0.0986 -0.8353
 9691TIP3    H229956   1.532   9.331   2.055  0.5939  1.7363 -0.7797
 9692TIP3   OH229957   3.154   7.608   6.460  0.2392  0.3555  0.8456
 9692TIP3    H129958   3.205   7.682   6.427  0.1824 -0.1189 -0.3512
 9692TIP3    H229959   3.147   7.625   6.554  0.3717  1.7832  0.6350
 9693TIP3   OH229960   3.248   4.923   5.173  0.5493  0.0696 -0.3666
 9693TIP3    H129961   3.321   4.928   5.111  1.0121 -0.6546  0.0938
 9693TIP3    H229962   3.196   4.849   5.143 -0.2213  0.8175 -0.9129
 9694TIP3   OH229963   5.976   8.658   2.905 -0.3246 -0.0841  0.3782
 9694TIP3    H129964   5.899   8.610   2.935  0.5055 -1.0175  1.0799
 9694TIP3    H229965   5.974   8.740   2.954 -0.3926 -0.4906  1.0682
 9695TIP3   OH229966  10.885   5.182   5.877 -0.1124  0.3272 -0.7643
 9695TIP3    H129967  10.912   5.103   5.923 -0.1269 -0.3184 -1.8327
 9695TIP3    H229968  10.813   5.154   5.820 -0.4844  1.2238 -0.7530
 9696TIP3   OH229969   5.839   3.287  10.602 -0.4789 -0.1136  0.4189
 9696TIP3    H129970   5.771   3.296  10.535  0.6280  5.0120 -0.4545
 9696TIP3    H229971   5.898   3.221  10.568 -1.4863  0.2274 -2.2328
 9697TIP3   OH229972   7.146   9.896   2.429  0.1769 -0.1181  0.2792
 9697TIP3    H129973   7.161   9.817   2.377 -1.3594 -0.1786 -0.0918
 9697TIP3    H229974   7.052   9.912   2.424  0.5160  2.1112 -0.1991
 9698TIP3   OH229975   2.567  10.734   7.542 -0.3009  0.2397 -0.0182
 9698TIP3    H129976   2.492  10.793   7.537 -1.5960 -1.4099 -1.5775
 9698TIP3    H229977   2.536  10.661   7.595  1.1917  0.7523  1.6612
 9699TIP3   OH229978   6.279   1.410   0.973  0.3108  0.9443  0.0971
 9699TIP3    H129979   6.310   1.393   0.884  2.0799  1.4778  0.5696
 9699TIP3    H229980   6.298   1.329   1.021  0.5567  1.1022  0.2729
 9700TIP3   OH229981   5.825  10.680   0.935  0.1869 -0.8513  0.2073
 9700TIP3    H129982   5.858  10.655   0.848 -0.0315 -0.9800  0.1611
 9700TIP3    H229983   5.900  10.671   0.993  0.7235  0.5886 -0.2153
 9701TIP3   OH229984   1.376   4.867   3.751  0.4602 -0.1295 -0.5112
 9701TIP3    H129985   1.335   4.945   3.714 -4.2459 -2.7123 -1.5721
 9701TIP3    H229986   1.394   4.890   3.842 -0.9769  2.1675 -0.7188
 9702TIP3   OH229987   1.718   8.513  10.428 -0.2432  0.0015  0.0768
 9702TIP3    H129988   1.810   8.497  10.408 -1.0158 -2.1890 -2.2303
 9702TIP3    H229989   1.699   8.456  10.503  0.4858  1.3345  1.3238
 9703TIP3   OH229990   4.741   0.472   5.865  0.0179  0.1614 -0.2144
 9703TIP3    H129991   4.831   0.448   5.841  0.0590 -0.1062  0.1790
 9703TIP3    H229992   4.751   0.522   5.946 -0.0760  1.4978 -1.0013
 9704TIP3   OH229993   8.172   8.279   8.444 -0.0581 -0.1664  0.7975
 9704TIP3    H129994   8.101   8.308   8.387 -0.2354 -3.0566 -0.6120
 9704TIP3    H229995   8.128   8.239   8.519 -0.0259 -2.4575 -0.3377
 9705TIP3   OH229996   7.946   4.428   9.824  0.0070  0.0310 -0.6103
 9705TIP3    H129997   7.850   4.424   9.814 -0.2192 -1.8429  1.4630
 9705TIP3    H229998   7.963   4.385   9.908  2.7371 -0.1639 -1.1741
 9706TIP3   OH229999   4.627   2.463   5.317  0.5964 -0.2495  0.0079
 9706TIP3    H130000   4.650   2.493   5.229  2.5047 -0.9810  0.1939
 9706TIP3    H230001   4.664   2.529   5.375 -1.1505  0.5301  0.2888
 9707TIP3   OH230002   3.422   5.759   8.463  0.5440 -0.4028  0.0062
 9707TIP3    H130003   3.507   5.801   8.447  0.4643 -0.2357  0.0221
 9707TIP3    H230004   3.444   5.669   8.485  0.6942 -0.4755 -0.4266
 9708TIP3   OH230005   3.575  10.584   7.078 -0.8419 -0.3094 -0.3083
 9708TIP3    H130006   3.602  10.658   7.131  0.3223 -1.7489  1.2401
 9708TIP3    H230007   3.616  10.598   6.993 -1.2301  1.1401 -0.2703
 9709TIP3   OH230008   9.178   3.461   2.830 -0.1060  0.0500  0.1122
 9709TIP3    H130009   9.102   3.507   2.795 -0.6335  0.8694  2.1582
 9709TIP3    H230010   9.252   3.517   2.807 -0.5112  0.8891  0.7944
 9710TIP3   OH230011   5.520   0.497   7.087  0.6635  0.6252  0.7885
 9710TIP3    H130012   5.579   0.493   7.162 -0.6684 -2.0408  1.8470
 9710TIP3    H230013   5.535   0.415   7.040 -2.7422 -0.6597  1.6604
 9711TIP3   OH230014   2.150   7.492   4.040 -0.0705  0.2000  0.4001
 9711TIP3    H130015   2.221   7.436   4.009  0.1170  1.0144 -0.7249
 9711TIP3    H230016   2.132   7.463   4.129  1.4335 -0.2528  0.5703
 9712TIP3   OH230017   2.727   6.054   3.818 -0.2473 -0.1973  0.3456
 9712TIP3    H130018   2.807   6.002   3.830 -0.5081 -0.6232  0.2420
 9712TIP3    H230019   2.758   6.144   3.817  0.2329 -0.3575  0.3459
 9713TIP3   OH230020   9.911   7.676   7.726  0.0552  0.1103  0.0108
 9713TIP3    H130021   9.965   7.722   7.662  0.2024  1.8509  1.3388
 9713TIP3    H230022   9.969   7.660   7.800 -0.7330  0.2453  0.6711
 9714TIP3   OH230023   8.253   1.544   6.556  0.2381 -0.0291  0.0530
 9714TIP3    H130024   8.190   1.609   6.587 -0.0120  0.5822 -1.6277
 9714TIP3    H230025   8.338   1.589   6.560 -0.0599  0.8657 -2.1177
 9715TIP3   OH230026   6.602   1.477   4.358 -0.1718 -0.1979  0.0359
 9715TIP3    H130027   6.628   1.561   4.321  1.6401 -1.0179 -0.6838
 9715TIP3    H230028   6.552   1.434   4.289 -1.2220  0.3205  0.4562
 9716TIP3   OH230029  10.469  10.402   5.322  0.0266  0.2995  0.1094
 9716TIP3    H130030  10.398  10.408   5.257 -0.2055  2.6585  0.4945
 9716TIP3    H230031  10.427  10.425   5.405  0.5994 -1.4645  0.9324
 9717TIP3   OH230032   6.936   4.012  10.091 -1.0037  0.4910 -0.4511
 9717TIP3    H130033   7.006   3.982  10.148 -1.4925  1.0510  0.4726
 9717TIP3    H230034   6.861   3.958  10.115 -1.0796  0.3715 -0.9389
 9718TIP3   OH230035   8.307   1.092   0.779  0.1841  0.2483 -0.3612
 9718TIP3    H130036   8.344   1.004   0.786 -0.2113  0.1300  0.3630
 9718TIP3    H230037   8.340   1.125   0.696  2.7754  0.5394  0.6816
 9719TIP3   OH230038   4.005   5.119   0.139 -0.1260 -0.4603 -0.0449
 9719TIP3    H130039   4.059   5.053   0.182 -0.6031 -1.2618 -0.6325
 9719TIP3    H230040   4.064   5.162   0.077 -0.0948 -1.2121 -0.5606
 9720TIP3   OH230041   9.247   2.180   2.878 -0.0712 -0.3272  0.0682
 9720TIP3    H130042   9.202   2.174   2.794 -1.2105 -0.0979  0.6384
 9720TIP3    H230043   9.338   2.157   2.859 -0.0814  0.7460 -1.4162
 9721TIP3   OH230044   9.433   8.058   5.828  0.0336 -0.2152  0.1592
 9721TIP3    H130045   9.502   8.060   5.762  0.8556  0.1881  1.0068
 9721TIP3    H230046   9.400   7.968   5.826  0.9230 -0.5515  0.0759
 9722TIP3   OH230047   7.506   8.648   2.328  0.3384  0.1377  0.5182
 9722TIP3    H130048   7.484   8.721   2.386  0.2909  0.0624  0.5939
 9722TIP3    H230049   7.567   8.594   2.379  0.9733  0.5281  0.1841
 9723TIP3   OH230050   9.882   1.392   8.311 -0.0441 -0.6649 -0.1788
 9723TIP3    H130051   9.788   1.378   8.323 -0.0096 -0.0401  0.8934
 9723TIP3    H230052   9.922   1.307   8.333 -0.3560 -0.9654 -0.7505
 9724TIP3   OH230053   9.899   3.222   3.974  0.1436 -0.0078  0.9155
 9724TIP3    H130054   9.986   3.189   3.998 -0.3382  0.5012  3.7647
 9724TIP3    H230055   9.838   3.163   4.020 -1.0350 -0.1227 -0.7259
 9725TIP3   OH230056   3.552   3.194  10.678 -0.3725 -0.0110  0.1972
 9725TIP3    H130057   3.533   3.285  10.655 -0.3387 -0.1366 -0.3523
 9725TIP3    H230058   3.469   3.160  10.714 -0.3420  0.2765  0.5372
 9726TIP3   OH230059   2.318   4.521   7.321  0.0831  0.0598 -0.2284
 9726TIP3    H130060   2.251   4.472   7.368  2.0307  0.2572  3.0446
 9726TIP3    H230061   2.383   4.455   7.296 -0.1072  0.2129 -1.1873
 9727TIP3   OH230062   3.773   0.953   9.912  0.0089  0.2302 -0.8358
 9727TIP3    H130063   3.783   0.991   9.825 -1.8689 -0.2269 -1.2870
 9727TIP3    H230064   3.679   0.939   9.922  0.3677 -1.6924  0.4274
 9728TIP3   OH230065  10.555  10.906   2.980 -0.4704 -0.1888  0.5153
 9728TIP3    H130066  10.557  10.995   2.945 -0.7165 -0.2245  0.4132
 9728TIP3    H230067  10.563  10.917   3.075 -1.0846 -0.0282  0.5485
 9729TIP3   OH230068   8.289   2.856   3.979 -0.3488  0.4815 -0.5220
 9729TIP3    H130069   8.277   2.899   3.894  1.3628 -2.3603 -2.3698
 9729TIP3    H230070   8.216   2.794   3.984 -0.4318  0.6272  0.0864
 9730TIP3   OH230071   0.111   0.168   7.522 -0.5024 -0.1641  0.2270
 9730TIP3    H130072   0.072   0.082   7.507 -1.0556  0.1291 -0.0245
 9730TIP3    H230073   0.048   0.230   7.486 -0.9844  0.4683  2.0946
 9731TIP3   OH230074   3.097  10.081   0.145  0.0415 -0.0454  0.0909
 9731TIP3    H130075   3.102  10.003   0.201  0.6986  1.2552  1.9290
 9731TIP3    H230076   3.064  10.150   0.203 -1.4320  0.8633 -1.7282
 9732TIP3   OH230077   0.968   7.212   7.752 -0.9027 -0.1878 -0.3447
 9732TIP3    H130078   0.949   7.141   7.690  0.6413 -0.5451 -0.4483
 9732TIP3    H230079   1.049   7.251   7.720  0.0649 -0.5143  1.5191
 9733TIP3   OH230080   2.606   0.931   3.906 -0.0728 -0.6327 -0.1535
 9733TIP3    H130081   2.588   1.017   3.945 -1.6232 -0.8854 -0.2363
 9733TIP3    H230082   2.701   0.928   3.896  0.0524  0.8342  0.3958
 9734TIP3   OH230083   3.610   9.347   6.271  0.1036  0.2300 -0.6943
 9734TIP3    H130084   3.604   9.286   6.199 -2.6455 -0.6507  0.1364
 9734TIP3    H230085   3.545   9.415   6.251 -0.2185  0.3378  0.5751
 9735TIP3   OH230086   0.951   9.732  10.682 -0.5865  0.0729  0.2650
 9735TIP3    H130087   0.966   9.762  10.771 -0.6701  0.9668 -0.0111
 9735TIP3    H230088   0.857   9.745  10.668 -0.3574  1.1227 -0.3699
 9736TIP3   OH230089   6.149   5.834   9.352  0.2043 -0.9116  0.4238
 9736TIP3    H130090   6.136   5.927   9.371  1.2828 -1.1487  2.5330
 9736TIP3    H230091   6.221   5.832   9.288 -0.7817 -0.2767 -0.7542
 9737TIP3   OH230092   1.760   8.381  10.677  0.3845  0.0014 -0.3579
 9737TIP3    H130093   1.682   8.328  10.692  0.3398  0.1339 -0.1101
 9737TIP3    H230094   1.820   8.357  10.748  0.5371 -0.0421 -0.5021
 9738TIP3   OH230095   1.684   4.899   4.309  0.6200  0.2689 -0.1421
 9738TIP3    H130096   1.729   4.833   4.257 -0.1413  0.5325 -1.1839
 9738TIP3    H230097   1.649   4.852   4.384  2.8160  0.1137  0.8361
 9739TIP3   OH230098   8.357   3.207   0.099  0.3777  1.2797  0.4190
 9739TIP3    H130099   8.341   3.259   0.178 -0.8185  1.9205 -0.2265
 9739TIP3    H230100   8.306   3.250   0.031  0.2236 -0.1176 -0.3856
 9740TIP3   OH230101  10.378   9.801   9.471 -0.8314  0.1404 -0.1001
 9740TIP3    H130102  10.419   9.882   9.501 -0.6113  0.0952 -0.2765
 9740TIP3    H230103  10.436   9.769   9.402 -1.3571  0.2714 -0.6120
 9741TIP3   OH230104   2.241   3.399   6.368  0.4146  0.5476 -0.2703
 9741TIP3    H130105   2.235   3.436   6.280  1.0710 -0.5819 -0.8103
 9741TIP3    H230106   2.177   3.327   6.369 -1.7663  2.3494  1.1664
 9742TIP3   OH230107   7.525   9.755   9.374 -0.1159 -0.5129 -0.4008
 9742TIP3    H130108   7.441   9.801   9.376  0.2428  0.1625  1.6908
 9742TIP3    H230109   7.583   9.809   9.427  2.1509 -0.1371 -3.0586
 9743TIP3   OH230110   2.616   1.694   3.216 -0.2724 -0.2369 -0.5114
 9743TIP3    H130111   2.649   1.619   3.267  3.0834  1.3481 -0.0641
 9743TIP3    H230112   2.681   1.707   3.147 -2.4382  0.3937 -2.5560
 9744TIP3   OH230113   8.246   8.148   4.171 -0.2146  0.2966  0.4752
 9744TIP3    H130114   8.254   8.158   4.076  0.1692  0.3688  0.5170
 9744TIP3    H230115   8.322   8.192   4.207  1.0709 -1.9511  0.7055
 9745TIP3   OH230116   4.072   7.133  10.167 -0.0309  0.3547 -0.2208
 9745TIP3    H130117   3.996   7.140  10.109  0.4990 -2.4880 -1.3968
 9745TIP3    H230118   4.035   7.142  10.255 -1.8234 -1.1086 -0.7455
 9746TIP3   OH230119   1.455   8.942   7.117  0.6706 -0.2756  0.1163
 9746TIP3    H130120   1.471   9.015   7.056 -1.1660  0.7541  0.8002
 9746TIP3    H230121   1.485   8.974   7.202 -1.5621  0.3561  0.7311
 9747TIP3   OH230122   0.245   8.915   2.483  0.9560  0.0880 -0.5464
 9747TIP3    H130123   0.173   8.932   2.544  0.5279  0.3257 -1.1059
 9747TIP3    H230124   0.212   8.845   2.426  0.9711  0.5307 -1.1141
 9748TIP3   OH230125   1.096   9.213   3.764 -0.3794 -0.1216 -0.0643
 9748TIP3    H130126   1.006   9.230   3.792  0.1121 -1.4563  2.7639
 9748TIP3    H230127   1.089   9.135   3.709 -0.8090 -1.8224  2.2377
 9749TIP3   OH230128  10.037   0.100   8.803  0.1788  0.0721 -0.2390
 9749TIP3    H130129  10.000   0.147   8.728  1.4047  0.1276 -0.8240
 9749TIP3    H230130  10.073   0.019   8.765 -0.6342 -0.6767  0.5422
 9750TIP3   OH230131   3.910   7.351   0.861  0.4871 -0.3243 -0.5112
 9750TIP3    H130132   3.890   7.258   0.852  3.6348 -1.0641 -1.2113
 9750TIP3    H230133   3.956   7.357   0.945  1.4898  0.3059 -1.0814
 9751TIP3   OH230134   5.167   1.995   7.174  0.4977 -0.0756 -0.1047
 9751TIP3    H130135   5.096   1.933   7.191  0.6710 -0.1350  0.4130
 9751TIP3    H230136   5.237   1.969   7.234  0.7952  0.2479 -0.3087
 9752TIP3   OH230137   0.417   9.606   8.119  0.1243 -0.2789 -0.5493
 9752TIP3    H130138   0.478   9.679   8.107  0.9799 -0.4614  2.0454
 9752TIP3    H230139   0.359   9.611   8.044  2.7388  0.4807 -2.6698
 9753TIP3   OH230140   3.375   8.299   9.232  0.5001  0.1629 -0.0035
 9753TIP3    H130141   3.359   8.317   9.324  1.1218  0.6322  0.0232
 9753TIP3    H230142   3.470   8.291   9.225  0.3673 -1.2663 -0.3617
 9754TIP3   OH230143   1.656   4.258   3.149  0.0924 -0.2921  0.0765
 9754TIP3    H130144   1.728   4.317   3.126  0.7459 -1.3984 -0.8067
 9754TIP3    H230145   1.671   4.180   3.097 -1.0855 -1.0278  0.7859
 9755TIP3   OH230146   0.550   4.991   1.728 -0.2441  0.0432 -0.0519
 9755TIP3    H130147   0.645   4.990   1.739 -0.2915  0.6526  0.4572
 9755TIP3    H230148   0.523   4.899   1.739  0.3736 -0.2818 -1.1150
 9756TIP3   OH230149   6.887   2.917   1.127  0.0419  0.2477 -0.6911
 9756TIP3    H130150   6.909   2.935   1.218 -1.7994  2.1719 -0.5562
 9756TIP3    H230151   6.802   2.874   1.131  0.1002  0.0436 -1.5028
 9757TIP3   OH230152   0.296   5.092   5.962 -0.0774  0.1665 -0.1554
 9757TIP3    H130153   0.276   5.072   6.054  1.6875  0.5620  0.3483
 9757TIP3    H230154   0.311   5.187   5.962  0.5355  0.0679 -0.7389
 9758TIP3   OH230155   6.916   4.123   5.256  0.0936 -0.0439 -0.2256
 9758TIP3    H130156   6.994   4.119   5.201  2.0257  0.6717  2.3050
 9758TIP3    H230157   6.890   4.031   5.268  1.9263 -0.4710  0.7209
 9759TIP3   OH230158   1.122   9.288   7.969  0.1161  0.0819 -0.1509
 9759TIP3    H130159   1.110   9.381   7.954  0.4459  0.7964  3.1995
 9759TIP3    H230160   1.113   9.248   7.882 -1.1233  3.0629 -1.5335
 9760TIP3   OH230161   3.126  10.602   8.225  0.0005 -0.0030  0.3435
 9760TIP3    H130162   3.113  10.509   8.241  1.4821 -0.4629 -0.8202
 9760TIP3    H230163   3.062  10.625   8.158 -1.2266  0.1584  1.5272
 9761TIP3   OH230164   0.592   8.406   5.541 -0.1627  0.1639  0.5830
 9761TIP3    H130165   0.558   8.400   5.452 -0.5957  2.0324  0.5845
 9761TIP3    H230166   0.562   8.326   5.584 -0.2497 -0.5999 -0.8220
 9762TIP3   OH230167   0.885   2.054   2.693 -0.2773  0.0020  0.5288
 9762TIP3    H130168   0.790   2.043   2.703 -0.4212  0.9614  0.2621
 9762TIP3    H230169   0.922   1.974   2.731 -1.2482 -1.0929 -0.7226
 9763TIP3   OH230170   7.640   4.322   3.645  0.5314  0.0935 -0.2372
 9763TIP3    H130171   7.691   4.396   3.612  2.6688  0.1602  2.8275
 9763TIP3    H230172   7.621   4.344   3.736  0.2298 -2.6276  0.4438
 9764TIP3   OH230173  10.467   1.443   8.717  0.2333 -0.1323  0.1673
 9764TIP3    H130174  10.509   1.357   8.723 -1.1160 -0.8728 -0.5972
 9764TIP3    H230175  10.509   1.484   8.641 -1.0041 -1.2443 -1.1779
 9765TIP3   OH230176   1.611   5.671   5.317  0.1199  0.2636  0.1024
 9765TIP3    H130177   1.610   5.694   5.224 -0.3720  0.1294  0.0713
 9765TIP3    H230178   1.536   5.613   5.328  0.0423  0.4570  0.6297
 9766TIP3   OH230179   2.530   6.892   3.093  0.1043 -0.4500  0.3032
 9766TIP3    H130180   2.551   6.977   3.132 -0.1491  0.9029 -2.3410
 9766TIP3    H230181   2.614   6.861   3.058  0.3221 -1.6392  1.7819
 9767TIP3   OH230182   2.226   8.227   5.376  0.0808 -0.2459 -0.3192
 9767TIP3    H130183   2.273   8.153   5.415 -1.0729 -0.6134  0.4102
 9767TIP3    H230184   2.265   8.304   5.417 -0.0483 -0.5495  0.3840
 9768TIP3   OH230185   5.647   0.489   4.282 -0.4320 -0.4794 -0.0415
 9768TIP3    H130186   5.735   0.501   4.247 -0.3528 -0.7088  0.0761
 9768TIP3    H230187   5.589   0.509   4.209 -0.2904 -0.0091 -0.0290
 9769TIP3   OH230188   1.277  10.718   1.114 -0.3279 -0.4597  0.0640
 9769TIP3    H130189   1.350  10.712   1.176 -1.4594 -1.3170  1.3783
 9769TIP3    H230190   1.293  10.800   1.066  0.8691 -0.0338  1.1316
 9770TIP3   OH230191   5.436  10.303   2.578 -0.3843 -0.6442 -0.0126
 9770TIP3    H130192   5.418  10.233   2.640  0.7220 -0.8273  0.1145
 9770TIP3    H230193   5.423  10.383   2.628  0.7834 -0.7925  0.5539
 9771TIP3   OH230194   6.264   0.629   0.943  0.7972  0.4986 -0.1700
 9771TIP3    H130195   6.234   0.569   0.876 -0.3486 -0.1673  0.8996
 9771TIP3    H230196   6.359   0.621   0.942  0.7606  0.1226 -1.3494
 9772TIP3   OH230197   7.246   4.215   2.047 -0.1255 -0.3265  0.0453
 9772TIP3    H130198   7.187   4.261   2.106 -1.0278 -1.5963  0.1786
 9772TIP3    H230199   7.197   4.208   1.965  0.3281 -0.3161 -0.2285
 9773TIP3   OH230200  10.784   0.794   6.858  0.2661 -0.2311  0.2591
 9773TIP3    H130201  10.868   0.802   6.902  0.0535 -2.3685  1.1974
 9773TIP3    H230202  10.806   0.768   6.768  0.6080 -0.4798  0.4152
 9774TIP3   OH230203  10.275   6.227   9.562 -0.2902 -0.2748 -0.4246
 9774TIP3    H130204  10.183   6.251   9.550 -0.8721 -1.6551  0.9524
 9774TIP3    H230205  10.298   6.263   9.648  0.5231  0.1988 -0.8267
 9775TIP3   OH230206   5.358   2.905   6.722 -0.0662  0.0120 -0.4755
 9775TIP3    H130207   5.363   2.939   6.633 -0.8751 -0.6360 -0.7760
 9775TIP3    H230208   5.267   2.918   6.748  0.2105  0.4016  0.3460
 9776TIP3   OH230209   2.107   8.941   3.576 -0.5276 -0.2337  0.2195
 9776TIP3    H130210   2.042   8.871   3.582  0.8722 -1.6014  0.1742
 9776TIP3    H230211   2.182   8.901   3.532  0.1084  1.4835 -0.3702
 9777TIP3   OH230212   8.192   4.060   1.545 -0.1154  0.3286  0.1605
 9777TIP3    H130213   8.130   4.126   1.513  0.5834  2.0193  2.0247
 9777TIP3    H230214   8.153   4.029   1.627  1.1542  0.9659  1.0378
 9778TIP3   OH230215   6.868   8.548   1.531 -0.0949  0.1951  0.0913
 9778TIP3    H130216   6.782   8.574   1.497  0.0215 -0.3717 -0.6544
 9778TIP3    H230217   6.890   8.616   1.595 -2.3471 -1.1127  2.4040
 9779TIP3   OH230218   8.023   4.054   0.857 -0.4591  0.2350 -0.5160
 9779TIP3    H130219   8.088   4.040   0.925 -1.4568 -0.1691  0.3876
 9779TIP3    H230220   7.940   4.062   0.905 -1.2286 -0.4259 -1.7057
 9780TIP3   OH230221   4.093   5.550   4.163 -0.5309 -0.3492  0.5260
 9780TIP3    H130222   4.128   5.629   4.205 -0.3645  1.4621 -2.7101
 9780TIP3    H230223   4.164   5.486   4.168 -0.1556  0.1479  1.9805
 9781TIP3   OH230224   2.420   6.554   8.152  0.2679 -0.3038 -0.2726
 9781TIP3    H130225   2.329   6.579   8.136 -0.2096 -1.8963 -0.2605
 9781TIP3    H230226   2.445   6.504   8.075  0.3286 -1.8789  0.7062
 9782TIP3   OH230227  10.535   6.965   9.229  0.2242  0.4278 -0.4982
 9782TIP3    H130228  10.548   7.059   9.226  1.0284  0.4059  1.0877
 9782TIP3    H230229  10.525   6.939   9.137 -1.9083  2.2555 -0.8813
 9783TIP3   OH230230   0.561   4.413   7.787 -0.2100 -0.1261  0.9628
 9783TIP3    H130231   0.479   4.377   7.753 -0.5288  1.6906 -0.3231
 9783TIP3    H230232   0.561   4.504   7.759  2.9519 -0.4176 -0.3963
 9784TIP3   OH230233   4.833   4.177   8.963 -0.1609 -0.0250  0.1471
 9784TIP3    H130234   4.860   4.227   9.040  1.9217 -0.9634  0.1043
 9784TIP3    H230235   4.761   4.227   8.926  0.8831  2.1832  0.9092
 9785TIP3   OH230236   0.776   7.951   0.814  0.1065  0.2275  0.0203
 9785TIP3    H130237   0.821   7.887   0.759 -0.9935 -1.6320  1.1546
 9785TIP3    H230238   0.701   7.979   0.762  1.8323  2.4467 -1.4066
 9786TIP3   OH230239   4.779   9.683   6.812 -0.2906  0.1506 -0.3483
 9786TIP3    H130240   4.768   9.701   6.719 -1.2156  2.7574  0.1749
 9786TIP3    H230241   4.872   9.699   6.829 -0.5297  1.9217 -0.4812
 9787TIP3   OH230242   2.744  10.200   8.661 -0.3792 -0.3603  1.0598
 9787TIP3    H130243   2.697  10.157   8.732 -0.6957 -0.1692  0.9670
 9787TIP3    H230244   2.786  10.275   8.702  0.1650 -0.7466  1.2214
 9788TIP3   OH230245  10.394   8.291   2.681 -0.4814  0.2007 -0.3932
 9788TIP3    H130246  10.475   8.247   2.709 -2.0444 -1.2065  2.2649
 9788TIP3    H230247  10.416   8.328   2.595  1.9381 -3.0283 -1.3529
 9789TIP3   OH230248   8.363   1.486   8.474 -0.2400  0.4743  0.2606
 9789TIP3    H130249   8.385   1.436   8.553 -0.3328 -0.3777 -0.2436
 9789TIP3    H230250   8.269   1.473   8.462 -0.1266  0.1296 -0.3032
 9790TIP3   OH230251   8.971  10.671   8.715 -0.2416 -0.2063 -0.0629
 9790TIP3    H130252   9.001  10.651   8.626 -1.8660 -0.2140 -0.6329
 9790TIP3    H230253   8.900  10.609   8.732 -0.2827  0.1187  1.0603
 9791TIP3   OH230254   4.274   6.386   8.413 -0.2747 -0.5309 -0.5127
 9791TIP3    H130255   4.235   6.346   8.491  1.2958  0.9251  1.1015
 9791TIP3    H230256   4.217   6.461   8.394  0.2009  0.0340  0.2234
 9792TIP3   OH230257   7.260   6.256   7.870  0.6489 -0.1588  0.0704
 9792TIP3    H130258   7.172   6.222   7.855  0.0306  0.9318  1.0858
 9792TIP3    H230259   7.284   6.299   7.788  0.1765 -0.3465 -0.1658
 9793TIP3   OH230260   3.380   2.626   1.432 -0.1715  0.1594 -0.1370
 9793TIP3    H130261   3.384   2.656   1.341  0.2949 -2.0824 -0.9322
 9793TIP3    H230262   3.353   2.703   1.482 -0.5435  1.4272 -2.1771
 9794TIP3   OH230263   0.219   8.226   5.079  0.4033  0.1672 -0.4863
 9794TIP3    H130264   0.238   8.318   5.061  2.2488  0.4589  2.2937
 9794TIP3    H230265   0.133   8.227   5.122  0.0463  0.4694 -1.1931
 9795TIP3   OH230266   7.782   4.127   7.648  0.7551  0.2614  0.3437
 9795TIP3    H130267   7.740   4.213   7.658  0.8775  0.3484  0.0972
 9795TIP3    H230268   7.832   4.116   7.729  0.4925  0.2862  0.5113
 9796TIP3   OH230269   2.024   8.681  10.078 -0.0821 -0.3150 -0.4020
 9796TIP3    H130270   1.981   8.725  10.151  0.7087  0.5063 -0.4201
 9796TIP3    H230271   1.964   8.610  10.055 -1.3714  0.7319 -0.3701
 9797TIP3   OH230272  10.788   7.516   9.480 -0.4433 -1.3571 -0.0691
 9797TIP3    H130273  10.712   7.525   9.423 -0.1214  0.0682 -0.3101
 9797TIP3    H230274  10.862   7.509   9.420  0.1393  2.1455  0.0217
 9798TIP3   OH230275   6.826   9.589   5.708 -0.0716 -0.1857  0.5107
 9798TIP3    H130276   6.877   9.612   5.786  0.1060  3.4600 -0.5192
 9798TIP3    H230277   6.749   9.544   5.742 -0.3883  1.9588  2.9620
 9799TIP3   OH230278   0.541   0.718  10.485  0.1485  0.6462 -0.2396
 9799TIP3    H130279   0.606   0.667  10.534 -3.2441 -2.0208  1.9984
 9799TIP3    H230280   0.527   0.797  10.538  0.6996  0.6650 -0.1193
 9800TIP3   OH230281   4.516   0.470   7.486  0.1924  0.3382  0.3029
 9800TIP3    H130282   4.545   0.537   7.549  0.5539  0.0148  0.4858
 9800TIP3    H230283   4.461   0.518   7.424  3.7265  1.7308 -2.0769
 9801TIP3   OH230284   0.551   3.584   7.767  1.1787  0.2933 -0.2942
 9801TIP3    H130285   0.455   3.587   7.771  1.0702 -1.9244  0.0466
 9801TIP3    H230286   0.575   3.515   7.829  2.9920  0.6805 -0.5226
 9802TIP3   OH230287   0.151   2.151   0.107 -0.3004 -0.5564  0.5380
 9802TIP3    H130288   0.239   2.128   0.137 -0.8458 -0.9038  1.9835
 9802TIP3    H230289   0.131   2.233   0.152  0.3092  1.0825 -1.9546
 9803TIP3   OH230290   3.909   6.902   4.805 -0.3414 -0.2448  0.1628
 9803TIP3    H130291   3.841   6.839   4.826  1.6201 -3.0843 -1.3494
 9803TIP3    H230292   3.877   6.946   4.726 -0.4188 -1.6003 -0.5800
 9804TIP3   OH230293   2.675   3.933   5.240  0.0797  0.2245 -0.3422
 9804TIP3    H130294   2.648   3.981   5.319  1.2223  2.0280 -0.9757
 9804TIP3    H230295   2.755   3.978   5.211  0.7975 -1.6356 -1.4381
 9805TIP3   OH230296   3.342   6.024  10.899  0.1250 -0.1341 -0.4493
 9805TIP3    H130297   3.321   6.111  10.867  0.8926  0.3107  0.2232
 9805TIP3    H230298   3.425   6.002  10.855 -0.2134 -0.6534 -0.8430
 9806TIP3   OH230299   2.146   4.647   6.804  0.1038 -0.3150 -0.9483
 9806TIP3    H130300   2.209   4.581   6.777  1.7163  0.0112  1.6520
 9806TIP3    H230301   2.122   4.622   6.894 -0.2768  1.8258 -0.3936
 9807TIP3   OH230302  10.757   9.069  10.845  1.1287  0.1121  0.5710
 9807TIP3    H130303  10.678   9.108  10.883  1.1793  0.0275  0.7620
 9807TIP3    H230304  10.828   9.129  10.870  1.2503 -0.2482  1.1136
 9808TIP3   OH230305   9.287   1.949  10.178 -0.3494  0.2537 -0.0991
 9808TIP3    H130306   9.298   1.935  10.084  2.8153  2.0682 -0.1393
 9808TIP3    H230307   9.230   2.025  10.185 -1.3871 -0.4743 -0.4842
 9809TIP3   OH230308   7.439   9.365   8.598  0.0485 -0.0033 -0.1290
 9809TIP3    H130309   7.513   9.321   8.641 -0.5169 -0.8199  0.0209
 9809TIP3    H230310   7.370   9.367   8.664 -0.2698  0.2288 -0.4646
 9810TIP3   OH230311   8.653   5.399   3.961  0.4310  0.2833 -0.1182
 9810TIP3    H130312   8.643   5.444   3.877 -0.8043 -0.6147 -0.4791
 9810TIP3    H230313   8.681   5.468   4.022  0.6682  1.0864 -1.1140
 9811TIP3   OH230314   6.675   1.791   3.493 -0.1110 -0.5500 -0.2341
 9811TIP3    H130315   6.611   1.735   3.538  1.6749 -2.0044  0.6070
 9811TIP3    H230316   6.655   1.879   3.526 -1.1365 -1.0770  0.6566
 9812TIP3   OH230317   8.621   8.411   7.936 -0.1555 -0.2317 -0.3213
 9812TIP3    H130318   8.644   8.368   7.853 -1.8756  0.5746 -1.2704
 9812TIP3    H230319   8.704   8.446   7.969  0.7250 -1.4545 -1.1735
 9813TIP3   OH230320   1.433  10.460   8.751 -0.5942 -0.2055 -0.4978
 9813TIP3    H130321   1.374  10.424   8.816  0.6450 -0.4132  0.5529
 9813TIP3    H230322   1.456  10.385   8.695  0.5132 -0.6982  0.5537
 9814TIP3   OH230323   9.923   6.688   9.884  0.7019  0.6115  0.3905
 9814TIP3    H130324   9.953   6.728   9.965 -1.6958  0.9820  1.1773
 9814TIP3    H230325   9.833   6.718   9.874  0.5558 -0.3468 -1.8268
 9815TIP3   OH230326   1.032  10.823   0.756 -0.4754  0.3613 -0.4700
 9815TIP3    H130327   1.076  10.768   0.821  0.4420  1.8331  0.1798
 9815TIP3    H230328   1.082  10.904   0.754 -2.1478  1.4314 -0.9774
 9816TIP3   OH230329   9.115   8.876   9.840 -0.6759 -0.5401  0.2235
 9816TIP3    H130330   9.175   8.815   9.797 -0.4785 -1.3340  1.5924
 9816TIP3    H230331   9.131   8.864   9.933 -0.1882  2.0715  0.5486
 9817TIP3   OH230332   7.121   0.803   0.156  0.1172 -0.2618  0.6629
 9817TIP3    H130333   7.099   0.710   0.147  0.7320 -0.2151 -2.3069
 9817TIP3    H230334   7.183   0.806   0.229  0.0036 -2.1634  0.8792
 9818TIP3   OH230335   3.397   0.942   0.731  0.0234  0.0598 -0.5254
 9818TIP3    H130336   3.409   0.949   0.826  0.1672 -2.1323 -0.3200
 9818TIP3    H230337   3.313   0.983   0.714  1.1102  2.7367  0.1457
 9819TIP3   OH230338   3.330   6.123   8.252 -0.1804  0.3857  0.3008
 9819TIP3    H130339   3.319   6.215   8.277  1.1268  0.0626  2.3371
 9819TIP3    H230340   3.285   6.073   8.319  1.7914 -0.5022  1.0552
 9820TIP3   OH230341   1.021   0.524   1.828  0.6465 -0.2059  0.2742
 9820TIP3    H130342   0.979   0.581   1.893 -1.3456 -0.9262 -0.3289
 9820TIP3    H230343   0.969   0.536   1.748  1.3014 -1.5061 -0.3675
 9821TIP3   OH230344   4.952   8.422   3.701 -0.1250 -0.4442  0.0295
 9821TIP3    H130345   4.895   8.354   3.736  0.5906 -0.5555  1.0510
 9821TIP3    H230346   4.894   8.479   3.651 -0.4631 -2.9027 -2.6834
 9822TIP3   OH230347   7.652   6.087   6.600  0.7817  0.2817  0.3021
 9822TIP3    H130348   7.646   6.132   6.515  0.2087 -1.3307 -0.5610
 9822TIP3    H230349   7.566   6.100   6.639 -0.2623 -1.9993 -1.0334
 9823TIP3   OH230350   8.750   2.803   1.548  0.3637  0.1499  0.4026
 9823TIP3    H130351   8.712   2.876   1.500 -2.4366 -2.6880 -2.1679
 9823TIP3    H230352   8.811   2.762   1.485  0.9838 -0.4237  1.3475
 9824TIP3   OH230353   2.219   6.507   2.212  0.4635  0.1840  0.7818
 9824TIP3    H130354   2.222   6.460   2.295 -1.1291  1.9355  1.9138
 9824TIP3    H230355   2.278   6.458   2.154  1.0498 -1.5042  2.7010
 9825TIP3   OH230356   6.967   7.606   6.268  0.0255 -0.2510  0.0490
 9825TIP3    H130357   7.033   7.544   6.298  0.5690  0.1675 -0.2658
 9825TIP3    H230358   6.885   7.556   6.267  0.5437 -1.1010 -0.6801
 9826TIP3   OH230359   3.309   0.512  10.373 -0.3363 -0.2921 -0.1505
 9826TIP3    H130360   3.356   0.591  10.347 -1.1456  0.4014  0.4432
 9826TIP3    H230361   3.240   0.502  10.308 -0.9811  0.1854  0.4457
 9827TIP3   OH230362   7.487   1.053   7.843  0.1251 -0.3252  0.1375
 9827TIP3    H130363   7.442   1.060   7.759  0.4056 -2.4362 -0.2691
 9827TIP3    H230364   7.579   1.067   7.822  0.3808 -2.2450 -0.2334
 9828TIP3   OH230365   8.889   5.550   7.040  0.2042  0.7818  0.1082
 9828TIP3    H130366   8.931   5.625   6.999  0.3967  0.0037 -1.1861
 9828TIP3    H230367   8.929   5.474   6.998 -0.7355 -0.0258  0.6172
 9829TIP3   OH230368   1.946   2.171   9.406 -0.0833 -0.1393  0.3028
 9829TIP3    H130369   2.026   2.117   9.404 -0.1400 -0.2078 -0.5847
 9829TIP3    H230370   1.882   2.117   9.453  0.0904 -0.5297  0.0981
 9830TIP3   OH230371   8.078   5.357   3.403  0.4809  0.2750 -0.0183
 9830TIP3    H130372   8.022   5.292   3.361  2.0063  1.2342 -4.0394
 9830TIP3    H230373   8.153   5.307   3.434  1.1721 -0.1477 -2.1830
 9831TIP3   OH230374   8.322   3.582   6.046 -0.3317  0.3382  0.7842
 9831TIP3    H130375   8.396   3.532   6.013 -1.4387 -0.0627 -1.2417
 9831TIP3    H230376   8.355   3.671   6.057  1.0471 -0.3132  2.2187
 9832TIP3   OH230377  10.648   5.936   9.322 -0.0976  0.4662 -0.1328
 9832TIP3    H130378  10.605   5.962   9.241 -1.2491  0.1128  0.3335
 9832TIP3    H230379  10.580   5.948   9.389  0.7510  0.5206  0.7382
 9833TIP3   OH230380  10.283   4.387   8.176 -0.3587 -0.2825  0.0131
 9833TIP3    H130381  10.252   4.298   8.157 -1.1777  0.1670 -0.8273
 9833TIP3    H230382  10.273   4.397   8.270 -0.5068 -0.9840  0.0778
 9834TIP3   OH230383   8.612   3.206   2.960  0.4335 -0.6015 -0.0232
 9834TIP3    H130384   8.557   3.182   2.885 -2.3551 -0.5730  1.8745
 9834TIP3    H230385   8.701   3.182   2.933 -0.3330 -0.0948 -3.5073
 9835TIP3   OH230386   9.759   6.024   0.771  0.0956  0.3750  0.2411
 9835TIP3    H130387   9.762   6.001   0.864 -0.1300  0.1917  0.2064
 9835TIP3    H230388   9.684   6.084   0.763 -1.1933 -1.1924 -0.1381
 9836TIP3   OH230389   1.296   7.096   2.828  0.3655  0.4686  0.5769
 9836TIP3    H130390   1.295   7.007   2.793  0.6020  0.3215  0.9430
 9836TIP3    H230391   1.314   7.086   2.921 -1.2354  0.7939  0.9614
 9837TIP3   OH230392   6.920   9.703   7.873  0.7779  0.1405 -0.1967
 9837TIP3    H130393   6.848   9.687   7.934  1.2035  1.0745  0.5737
 9837TIP3    H230394   6.890   9.666   7.790 -1.8778  3.0448 -0.7231
 9838TIP3   OH230395  10.021   2.478   7.600 -0.4764 -0.0065 -0.1956
 9838TIP3    H130396   9.927   2.479   7.623  0.0898 -0.0250  2.5177
 9838TIP3    H230397  10.039   2.386   7.578 -0.8629 -0.2622  0.5102
 9839TIP3   OH230398   3.923   1.036   4.791 -0.2157  0.2076 -0.2839
 9839TIP3    H130399   3.840   1.004   4.755  0.2237 -0.1097 -1.0495
 9839TIP3    H230400   3.979   1.050   4.714  0.2230  1.0644  0.1655
 9840TIP3   OH230401   7.425   0.051   1.048 -0.0054 -0.4155 -0.1893
 9840TIP3    H130402   7.340   0.041   1.092 -1.0925  2.2094 -1.4498
 9840TIP3    H230403   7.404   0.044   0.955  1.3423 -0.6123 -0.4916
 9841TIP3   OH230404   4.254   8.667   8.911 -0.2208 -0.5101  0.0852
 9841TIP3    H130405   4.285   8.694   8.997  0.1998  1.5605 -0.6636
 9841TIP3    H230406   4.186   8.731   8.889 -0.9757 -1.5682 -0.7442
 9842TIP3   OH230407   8.833   7.870   2.045  0.0523  0.2867 -0.4003
 9842TIP3    H130408   8.904   7.810   2.068  0.2329  0.0900 -1.4436
 9842TIP3    H230409   8.877   7.946   2.008 -0.1510  1.2683  1.2668
 9843TIP3   OH230410   5.333   7.711   9.634 -0.3653 -0.6686 -0.5602
 9843TIP3    H130411   5.381   7.790   9.612 -2.0057  0.5999  0.2124
 9843TIP3    H230412   5.247   7.722   9.592 -1.0623 -1.4374  0.5964
 9844TIP3   OH230413   9.672   0.672   6.355  0.0447 -0.4315 -0.3515
 9844TIP3    H130414   9.721   0.753   6.343  1.7218 -1.2721  0.3606
 9844TIP3    H230415   9.700   0.617   6.281  1.0639 -1.2966  0.6339
 9845TIP3   OH230416   3.731   9.745   9.185 -0.3450  1.1404 -0.1760
 9845TIP3    H130417   3.768   9.671   9.233 -2.2884 -0.3273 -0.7840
 9845TIP3    H230418   3.804   9.806   9.173  1.9255 -1.6077 -1.5202
 9846TIP3   OH230419   8.563   1.978   5.487 -0.1090  0.5530  0.2020
 9846TIP3    H130420   8.537   1.924   5.562  0.4408  0.9277  0.6644
 9846TIP3    H230421   8.487   2.035   5.471 -0.9109 -0.6850 -0.6193
 9847TIP3   OH230422   9.082   1.818   3.307 -0.1583  0.2903 -0.5072
 9847TIP3    H130423   9.106   1.882   3.374 -1.3435  1.0665 -0.7931
 9847TIP3    H230424   9.160   1.809   3.253  0.4479  0.4932  0.3159
 9848TIP3   OH230425   5.865   3.034   8.481  0.4503 -0.6346  0.0336
 9848TIP3    H130426   5.827   3.067   8.400 -0.5456 -0.1970  0.6541
 9848TIP3    H230427   5.800   2.974   8.516  0.0672  0.4833  1.3515
 9849TIP3   OH230428   7.438   4.998  10.495  0.8943 -0.5364 -0.4206
 9849TIP3    H130429   7.495   4.990  10.418  0.6539  1.3029 -0.8377
 9849TIP3    H230430   7.456   5.085  10.529 -1.9654  0.3010 -0.8242
 9850TIP3   OH230431  10.558  10.825   3.965  0.1113 -0.4645  0.0867
 9850TIP3    H130432  10.597  10.739   3.953  1.7410  0.1131  0.9332
 9850TIP3    H230433  10.633  10.885   3.969 -0.8309  0.6761  2.1160
 9851TIP3   OH230434   1.344   6.224   1.166 -0.5868 -0.2747 -0.6537
 9851TIP3    H130435   1.253   6.202   1.187 -0.6145  1.4730  1.4089
 9851TIP3    H230436   1.390   6.216   1.250  0.6093  1.4035 -1.1060
 9852TIP3   OH230437   8.059   0.398   7.689 -0.0862 -0.2267  0.4224
 9852TIP3    H130438   8.125   0.372   7.625 -1.1442 -1.7527 -0.1113
 9852TIP3    H230439   8.103   0.393   7.774  0.9502  0.4859 -0.0633
 9853TIP3   OH230440   8.117   3.604   1.749  0.1322  0.6631  0.2224
 9853TIP3    H130441   8.210   3.608   1.771  0.5230  0.0672 -1.2166
 9853TIP3    H230442   8.090   3.516   1.772  0.1968  0.4928 -0.3317
 9854TIP3   OH230443   2.063   7.293   8.138  0.2917  0.7958 -0.0181
 9854TIP3    H130444   2.086   7.210   8.097 -0.6465 -0.4248  1.7696
 9854TIP3    H230445   2.067   7.357   8.067  2.4021 -0.4896 -1.1816
 9855TIP3   OH230446   1.532   4.394   4.712  0.2145 -0.3151  0.0420
 9855TIP3    H130447   1.504   4.305   4.690 -0.0612 -0.4585  0.9330
 9855TIP3    H230448   1.618   4.383   4.751  0.1413 -0.1955  0.2368
 9856TIP3   OH230449  10.710  10.339   6.732 -0.0169 -0.2576 -0.2072
 9856TIP3    H130450  10.755  10.326   6.648  0.3027  0.0943 -0.0927
 9856TIP3    H230451  10.731  10.261   6.783  0.7112  0.0341 -0.0501
 9857TIP3   OH230452   1.196   2.725   6.793 -0.1909  0.5108  0.1979
 9857TIP3    H130453   1.233   2.760   6.874 -0.6114  2.4319 -0.3917
 9857TIP3    H230454   1.266   2.735   6.729 -0.1142 -0.3267  0.1351
 9858TIP3   OH230455   0.716   4.965   0.839 -0.0243  0.5917 -0.2215
 9858TIP3    H130456   0.812   4.969   0.843 -0.0532  0.7856  0.6344
 9858TIP3    H230457   0.688   5.002   0.923 -0.7939 -1.6870  0.5970
 9859TIP3   OH230458   6.333   5.497   1.129 -0.8315  0.4434  0.9275
 9859TIP3    H130459   6.395   5.537   1.069 -2.1092  1.6018  0.3101
 9859TIP3    H230460   6.315   5.410   1.093 -1.2280  0.9515 -0.1281
 9860TIP3   OH230461   6.141   8.573   8.070 -0.6720  0.1653 -0.4937
 9860TIP3    H130462   6.139   8.650   8.013 -2.9464  0.5539  0.0313
 9860TIP3    H230463   6.138   8.608   8.159  1.6555 -0.4792 -0.0898
 9861TIP3   OH230464   1.629   0.349   6.844  0.3275 -0.6832 -0.4828
 9861TIP3    H130465   1.643   0.406   6.768  0.6104 -0.4401 -0.2498
 9861TIP3    H230466   1.564   0.394   6.897  0.2931 -0.7483 -0.4693
 9862TIP3   OH230467   6.486   9.245   1.061  0.5085 -0.3018 -0.4032
 9862TIP3    H130468   6.460   9.298   1.137  0.6446 -0.0183 -0.5540
 9862TIP3    H230469   6.445   9.160   1.077 -1.7318  0.5353 -1.3348
 9863TIP3   OH230470   0.996   3.617   9.175  0.2976  0.1927  0.3481
 9863TIP3    H130471   0.922   3.566   9.207  1.1990  0.5379  3.2234
 9863TIP3    H230472   0.964   3.707   9.173  0.5930  0.3510  1.6555
 9864TIP3   OH230473   1.624   8.210   3.096 -0.1155  0.0331 -0.0704
 9864TIP3    H130474   1.533   8.219   3.068 -0.6343 -2.6784  0.3998
 9864TIP3    H230475   1.675   8.236   3.020 -1.2738  1.3384 -0.4389
 9865TIP3   OH230476   1.139   7.505   7.755  0.2571  0.7853 -0.0255
 9865TIP3    H130477   1.047   7.528   7.763 -0.3046 -1.1492 -0.3584
 9865TIP3    H230478   1.179   7.534   7.837 -0.7512  1.2013  0.3281
 9866TIP3   OH230479   7.345   6.893   9.242  0.0732  0.7792 -0.2045
 9866TIP3    H130480   7.301   6.812   9.216  0.4119  0.3117  0.6336
 9866TIP3    H230481   7.428   6.892   9.193  0.1364  0.5457 -0.0976
 9867TIP3   OH230482   1.679   1.404   1.991  0.2094 -0.1037  0.0351
 9867TIP3    H130483   1.743   1.338   2.018  1.0269  0.1119 -1.3137
 9867TIP3    H230484   1.707   1.430   1.904 -1.6269  0.1294 -0.5159
 9868TIP3   OH230485  10.368  10.754   5.739 -0.4062 -0.1394  0.0713
 9868TIP3    H130486  10.391  10.785   5.826 -0.8093 -0.8327  0.4346
 9868TIP3    H230487  10.274  10.771   5.731 -0.6535 -1.2952  0.3082
 9869TIP3   OH230488   7.943   7.578   7.249  0.2803  0.4232 -0.5959
 9869TIP3    H130489   7.979   7.490   7.249 -0.6789  0.0169 -0.1219
 9869TIP3    H230490   7.859   7.570   7.204 -0.9320  0.6005  1.4963
 9870TIP3   OH230491   1.553   1.913   0.140  0.0889 -0.5727 -0.1472
 9870TIP3    H130492   1.518   1.828   0.165  0.2267 -1.3073 -2.2913
 9870TIP3    H230493   1.648   1.902   0.144  0.1068 -0.5423 -0.4477
 9871TIP3   OH230494   5.043   8.274   7.134  0.3632  0.0390 -0.7628
 9871TIP3    H130495   5.068   8.308   7.049  0.9220 -0.1834 -0.6916
 9871TIP3    H230496   4.999   8.191   7.115 -1.4968  1.0224 -0.9736
 9872TIP3   OH230497   7.641   4.065   9.776  0.1489 -0.0524 -0.1962
 9872TIP3    H130498   7.660   4.110   9.694  0.6047  0.8497  0.3806
 9872TIP3    H230499   7.622   3.975   9.751  0.3346  0.2014 -1.2817
 9873TIP3   OH230500   7.591   5.754   0.468 -0.1964  0.6270 -0.6154
 9873TIP3    H130501   7.648   5.795   0.532 -0.7786  1.5272 -0.6627
 9873TIP3    H230502   7.538   5.825   0.433 -1.3786 -0.1804 -0.5396
 9874TIP3   OH230503   8.109   6.465   8.364 -0.2452 -0.8136  0.0081
 9874TIP3    H130504   8.205   6.471   8.359 -0.3772  1.2198 -1.0857
 9874TIP3    H230505   8.084   6.413   8.288 -0.0513 -1.1011  0.1356
 9875TIP3   OH230506   8.778   5.490   6.697  0.8475 -0.3014 -0.1849
 9875TIP3    H130507   8.706   5.436   6.730 -0.2764  0.1186 -1.8258
 9875TIP3    H230508   8.779   5.566   6.755 -0.9157  0.3012 -0.8643
 9876TIP3   OH230509   3.303   9.774   8.233 -0.2912 -0.1617 -0.1078
 9876TIP3    H130510   3.272   9.847   8.286  2.0513  0.9360 -0.1177
 9876TIP3    H230511   3.372   9.812   8.177  1.1866 -2.3887  0.0712
 9877TIP3   OH230512   9.332   6.611   4.565  0.3811  0.9258 -0.4837
 9877TIP3    H130513   9.369   6.549   4.503  0.5421 -0.4674  0.9533
 9877TIP3    H230514   9.298   6.557   4.636  0.4577  2.4810  0.7919
 9878TIP3   OH230515   7.419  10.431   5.950 -0.2761  0.5671 -0.1257
 9878TIP3    H130516   7.363  10.498   5.989 -1.9856  0.4557 -2.1825
 9878TIP3    H230517   7.359  10.360   5.926  1.0327 -0.3818 -0.7411
 9879TIP3   OH230518   6.618   1.949   8.218 -0.2108 -0.2128 -0.4063
 9879TIP3    H130519   6.524   1.954   8.200 -0.0472 -1.2041 -1.7320
 9879TIP3    H230520   6.658   1.933   8.132  1.2406  0.8894  0.0227
 9880TIP3   OH230521   9.857   3.255   7.627  0.1201  0.1606  0.3869
 9880TIP3    H130522   9.832   3.180   7.574 -2.2852  0.2993  1.2140
 9880TIP3    H230523   9.813   3.241   7.711  1.5172  1.3549  1.3691
 9881TIP3   OH230524   4.914   2.169   3.734  0.8350 -0.1355  0.2124
 9881TIP3    H130525   4.977   2.102   3.759 -0.7431 -2.1412 -0.8196
 9881TIP3    H230526   4.849   2.122   3.681  1.1783  2.7646 -3.1300
 9882TIP3   OH230527   1.480   3.113   5.687  0.9429  0.0974  0.5320
 9882TIP3    H130528   1.514   3.029   5.658 -2.2650 -1.1218 -0.1623
 9882TIP3    H230529   1.429   3.145   5.613  0.3859  1.6193  1.5324
 9883TIP3   OH230530   0.111   0.237   9.134  0.0790  0.0679  0.2817
 9883TIP3    H130531   0.140   0.280   9.214  2.1163 -0.0215 -0.3485
 9883TIP3    H230532   0.118   0.304   9.066 -0.4876 -0.1821 -0.0343
 9884TIP3   OH230533   4.853  10.121   9.199 -0.0938  0.2825  0.3268
 9884TIP3    H130534   4.911  10.049   9.222 -0.4995  0.1729  1.0657
 9884TIP3    H230535   4.911  10.192   9.174  0.3046 -0.6009 -1.4347
 9885TIP3   OH230536   5.375   5.247   8.081 -0.0173  0.3007  0.4434
 9885TIP3    H130537   5.360   5.302   8.005  0.0019  0.1954  0.3643
 9885TIP3    H230538   5.288   5.217   8.108 -0.1215  1.1026  1.0312
 9886TIP3   OH230539   7.922   6.537  10.595  0.1054 -0.3327  0.3099
 9886TIP3    H130540   7.875   6.518  10.514  2.0900 -1.4882 -0.6392
 9886TIP3    H230541   7.936   6.451  10.635 -1.4734  0.2593  2.3276
 9887TIP3   OH230542   1.482   3.992   0.711 -0.2466 -0.3547 -0.0754
 9887TIP3    H130543   1.404   4.016   0.662 -0.9256 -1.4223  0.4602
 9887TIP3    H230544   1.486   4.056   0.783 -0.7582 -0.4484  0.0339
 9888TIP3   OH230545   9.411  10.798  10.881  0.1515  0.6861  0.7314
 9888TIP3    H130546   9.451  10.790  10.795 -0.3498 -3.0812  0.6785
 9888TIP3    H230547   9.485  10.801  10.942  0.4852  2.4382  0.3164
 9889TIP3   OH230548  10.656   3.097   3.684  0.1006  0.2844 -0.1289
 9889TIP3    H130549  10.733   3.137   3.643 -0.8292  1.7430 -0.5132
 9889TIP3    H230550  10.644   3.145   3.766 -0.1700 -0.2053  0.1253
 9890TIP3   OH230551   0.401   9.143  10.537  0.5957 -0.2625 -0.6500
 9890TIP3    H130552   0.369   9.171  10.452 -1.0847 -0.5119 -0.1371
 9890TIP3    H230553   0.404   9.048  10.532  1.5838 -0.2423 -0.7736
 9891TIP3   OH230554   5.679   3.655   8.530  0.0359  0.2278 -0.1373
 9891TIP3    H130555   5.702   3.695   8.446  0.6567 -1.0960 -0.6163
 9891TIP3    H230556   5.622   3.582   8.507 -0.1663  0.1382  0.6308
 9892TIP3   OH230557   7.109  10.074   3.216  0.0617  0.1451 -0.0870
 9892TIP3    H130558   7.181  10.025   3.176  0.7589  0.1000  1.1712
 9892TIP3    H230559   7.151  10.151   3.255 -0.7493  0.7540 -0.3892
 9893TIP3   OH230560   1.898   1.881   3.150 -0.2014  0.2078 -0.1748
 9893TIP3    H130561   1.825   1.841   3.103 -1.0506  2.2592 -0.7109
 9893TIP3    H230562   1.868   1.885   3.241 -0.4198  0.2323 -0.2453
 9894TIP3   OH230563   6.212   3.385   8.527  0.5047  0.5003  0.1087
 9894TIP3    H130564   6.303   3.354   8.529  0.0233 -0.9681  1.3708
 9894TIP3    H230565   6.210   3.457   8.589  0.6417 -0.0294  0.7420
 9895TIP3   OH230566   5.615   1.792   2.357  0.1135  0.6354  0.1386
 9895TIP3    H130567   5.554   1.795   2.284 -0.6783 -1.3392  0.6729
 9895TIP3    H230568   5.599   1.874   2.405 -3.9975 -0.8256  1.6851
 9896TIP3   OH230569   4.573   7.497   5.280 -0.0740  0.4082  0.2395
 9896TIP3    H130570   4.512   7.436   5.240 -0.0519 -0.6606  1.7199
 9896TIP3    H230571   4.583   7.568   5.217 -0.9945 -0.5666 -1.0343
 9897TIP3   OH230572   2.224   1.261   6.156  0.2594  0.6206 -0.1198
 9897TIP3    H130573   2.207   1.167   6.165 -1.5355  0.9910  1.0846
 9897TIP3    H230574   2.296   1.278   6.217 -0.5131  0.2591  0.9365
 9898TIP3   OH230575   4.486   7.051   2.217  0.2142  0.4766  0.6242
 9898TIP3    H130576   4.532   7.132   2.239 -0.6239  2.9436 -4.8934
 9898TIP3    H230577   4.542   7.008   2.152 -2.0939  0.0287 -1.2186
 9899TIP3   OH230578   0.523   2.942   5.805  0.1557  0.1858 -0.7496
 9899TIP3    H130579   0.495   2.864   5.854  1.2072 -0.3392 -0.9449
 9899TIP3    H230580   0.586   2.908   5.741  0.6423  1.2017 -0.8193
 9900TIP3   OH230581   3.222   8.193   8.534 -0.0263 -0.9037 -0.2745
 9900TIP3    H130582   3.205   8.277   8.492  1.9624 -0.0812  0.4085
 9900TIP3    H230583   3.144   8.141   8.517 -0.4221  0.3066 -2.6112
 9901TIP3   OH230584   4.596   8.972   3.450  0.4459 -0.1187  0.8948
 9901TIP3    H130585   4.686   8.943   3.436 -0.1127 -1.8131  0.4974
 9901TIP3    H230586   4.592   8.992   3.544  1.0412 -0.8430  1.0911
 9902TIP3   OH230587   3.046   6.251   5.447 -1.0029  0.1320 -0.3398
 9902TIP3    H130588   3.018   6.178   5.503 -1.8203  0.8870  0.2742
 9902TIP3    H230589   2.969   6.270   5.393 -0.9757  0.8598 -0.1350
 9903TIP3   OH230590   9.186   1.855   9.883 -0.0473  0.2923  0.7370
 9903TIP3    H130591   9.194   1.778   9.940 -0.5731  0.6852  1.3616
 9903TIP3    H230592   9.253   1.843   9.816  0.9252  0.0508  1.7203
 9904TIP3   OH230593   4.877   0.283   1.977  0.0454  0.2362 -0.4719
 9904TIP3    H130594   4.936   0.234   2.035  0.7246  1.2030 -0.3097
 9904TIP3    H230595   4.929   0.359   1.950 -0.7853  0.5693 -1.1555
 9905TIP3   OH230596   9.480  10.525   0.818 -0.1951  0.5021 -0.3751
 9905TIP3    H130597   9.435  10.528   0.903  1.8530  0.9574  0.7389
 9905TIP3    H230598   9.454  10.606   0.775 -0.4501  0.7568  0.2376
 9906TIP3   OH230599   1.254   7.481   1.709  0.9433  0.9797 -0.3786
 9906TIP3    H130600   1.232   7.561   1.757  0.2084  0.5539  0.0013
 9906TIP3    H230601   1.177   7.426   1.717  1.4490  0.2210 -0.6390
 9907TIP3   OH230602   0.356   7.111   2.503 -0.0777 -0.2744 -0.2956
 9907TIP3    H130603   0.266   7.142   2.495  0.1492  0.4567 -0.0809
 9907TIP3    H230604   0.385   7.142   2.589  0.7420  0.4568 -0.8210
 9908TIP3   OH230605   5.358   8.212   9.555  0.2162 -0.2235  0.0367
 9908TIP3    H130606   5.300   8.144   9.521 -1.8643  1.2932  0.3681
 9908TIP3    H230607   5.358   8.279   9.486  0.7032  0.2751  0.5172
 9909TIP3   OH230608   9.953   5.497   0.668 -0.1931 -0.4208 -0.3416
 9909TIP3    H130609  10.048   5.491   0.657 -0.3437 -1.8333 -1.1300
 9909TIP3    H230610   9.941   5.551   0.745  1.2160  1.3149 -1.2659
 9910TIP3   OH230611   8.282   1.992   6.404 -0.3296 -0.4486 -0.3496
 9910TIP3    H130612   8.376   1.990   6.422 -0.2952 -2.3169 -0.4727
 9910TIP3    H230613   8.276   2.016   6.311 -0.1412  1.9970  0.2034
 9911TIP3   OH230614   3.707   8.572   5.112  0.0300  0.5629 -0.6635
 9911TIP3    H130615   3.708   8.495   5.055 -0.9632  1.3575 -1.8363
 9911TIP3    H230616   3.780   8.626   5.081  0.6795  0.1350  0.1067
 9912TIP3   OH230617   7.865   5.631   1.119 -0.3652 -0.5979 -0.4285
 9912TIP3    H130618   7.908   5.706   1.077 -0.4697 -0.2154  0.1441
 9912TIP3    H230619   7.901   5.629   1.207  0.3549 -1.8113 -0.7315
 9913TIP3   OH230620  10.685   4.897  10.557  0.0443 -0.9843 -0.0776
 9913TIP3    H130621  10.637   4.911  10.639 -0.4387  1.0907 -0.6582
 9913TIP3    H230622  10.719   4.984  10.534  1.8603 -1.8961 -1.0763
 9914TIP3   OH230623   5.772   8.393   0.129 -0.1472  0.4997 -0.9501
 9914TIP3    H130624   5.795   8.457   0.061  0.8210  0.3963 -0.7400
 9914TIP3    H230625   5.762   8.310   0.082  2.5326 -0.0138 -0.7877
 9915TIP3   OH230626   8.083   3.009   8.624 -0.2165 -0.3284 -0.0350
 9915TIP3    H130627   8.052   3.100   8.633 -1.0810 -0.7858  2.8968
 9915TIP3    H230628   8.170   3.017   8.585 -0.4128  1.7312 -0.1914
 9916TIP3   OH230629   2.863   0.452   2.924  0.2890 -0.8701 -0.2575
 9916TIP3    H130630   2.930   0.470   2.990 -0.4680 -1.5078  0.7004
 9916TIP3    H230631   2.782   0.445   2.973 -0.6117  0.4681 -1.4644
 9917TIP3   OH230632   3.114   7.980   9.447 -0.0378  0.0987 -0.4047
 9917TIP3    H130633   3.066   7.980   9.530 -0.1636 -1.0778 -0.4681
 9917TIP3    H230634   3.066   8.042   9.392 -0.1120  0.6810  0.3002
 9918TIP3   OH230635   5.456   7.523   5.406  0.2824 -0.1340 -0.2064
 9918TIP3    H130636   5.434   7.578   5.481 -0.1804  0.7930 -0.9909
 9918TIP3    H230637   5.502   7.448   5.443  0.5926  0.5982  0.9328
 9919TIP3   OH230638   6.353   8.317   2.464 -0.1701  0.0179  0.2575
 9919TIP3    H130639   6.315   8.286   2.546 -1.2522 -2.0400 -0.9255
 9919TIP3    H230640   6.376   8.237   2.416 -0.2767  1.1038 -1.7515
 9920TIP3   OH230641   2.102   9.403   0.064  0.3384 -0.1534  0.0189
 9920TIP3    H130642   2.141   9.339   0.124  0.0202 -0.9123 -0.5636
 9920TIP3    H230643   2.156   9.481   0.074  0.0843 -0.1427  1.5422
 9921TIP3   OH230644   5.133   6.506   6.887 -0.6089 -0.2127  0.0615
 9921TIP3    H130645   5.223   6.489   6.859 -0.4321  2.1244 -1.0652
 9921TIP3    H230646   5.117   6.442   6.956  1.7694 -0.9590  0.0272
 9922TIP3   OH230647   8.817   2.702   4.709 -0.0075  0.2528 -0.2956
 9922TIP3    H130648   8.901   2.721   4.667 -0.2628  0.0190 -0.9201
 9922TIP3    H230649   8.774   2.639   4.651 -0.6615  0.4536 -0.0439
 9923TIP3   OH230650   4.081   4.475   6.477  0.0756  0.2592  0.5188
 9923TIP3    H130651   4.022   4.477   6.552  1.0346 -1.3491  1.3809
 9923TIP3    H230652   4.134   4.397   6.491  2.0807  1.3758 -0.4799
 9924TIP3   OH230653   6.198   2.203   8.146 -0.5967 -0.1520  0.7142
 9924TIP3    H130654   6.221   2.247   8.228  0.2721  0.2017  0.2887
 9924TIP3    H230655   6.251   2.123   8.147  0.2730  0.3943 -0.0094
 9925TIP3   OH230656   7.918   8.704   0.054 -0.2992  0.1328 -0.3499
 9925TIP3    H130657   7.935   8.795   0.031 -0.1980  0.1076 -0.3768
 9925TIP3    H230658   7.835   8.706   0.100 -1.2345  0.0118 -1.9556
 9926TIP3   OH230659   2.781   7.474   2.107  0.0365  0.3248 -0.0922
 9926TIP3    H130660   2.700   7.512   2.072 -0.6070  2.7846  3.4451
 9926TIP3    H230661   2.847   7.494   2.041 -1.7076  0.8051 -1.8125
 9927TIP3   OH230662   4.965   0.116   9.091 -0.1867  0.3798  0.8761
 9927TIP3    H130663   5.055   0.089   9.106 -0.5051 -0.7051  0.9500
 9927TIP3    H230664   4.926   0.120   9.178 -1.6245 -4.4509  0.7546
 9928TIP3   OH230665   2.835   0.595   8.598 -0.5706 -0.6426 -0.7538
 9928TIP3    H130666   2.809   0.589   8.690 -0.5421 -1.3796 -0.7865
 9928TIP3    H230667   2.770   0.542   8.551 -0.4727 -0.4295 -1.1342
 9929TIP3   OH230668   9.740   2.702   9.027 -0.2706 -0.3220 -0.4211
 9929TIP3    H130669   9.659   2.662   8.994 -0.6880  0.2574 -0.1242
 9929TIP3    H230670   9.807   2.674   8.966 -1.0267  0.7459 -1.7998
 9930TIP3   OH230671   4.991   1.164   8.056 -0.0048  0.2878 -0.4521
 9930TIP3    H130672   4.903   1.184   8.090  0.2359  0.6582 -0.0476
 9930TIP3    H230673   5.006   1.073   8.082  0.4632  0.7793  1.0763
 9931TIP3   OH230674   4.746   6.956  10.365 -0.3880  0.2086 -0.1628
 9931TIP3    H130675   4.759   7.034  10.311  0.2805  0.0920 -0.1785
 9931TIP3    H230676   4.834   6.931  10.393 -0.4132 -1.3790 -1.3390
 9932TIP3   OH230677   5.050  10.336   5.580  0.3399 -0.1912  0.1583
 9932TIP3    H130678   5.098  10.418   5.571  0.6085 -0.5202 -1.5751
 9932TIP3    H230679   5.023  10.335   5.672  0.9518  1.4825  0.3922
 9933TIP3   OH230680   8.727   4.777   5.160  0.1173  0.5082  0.0535
 9933TIP3    H130681   8.755   4.703   5.215  1.8402  0.4044 -0.8867
 9933TIP3    H230682   8.666   4.826   5.215  0.4834 -0.5195  1.4273
 9934TIP3   OH230683   4.515   9.727   4.475 -0.4806 -0.2664  0.3014
 9934TIP3    H130684   4.514   9.659   4.542 -2.6107  0.1926  0.8076
 9934TIP3    H230685   4.488   9.682   4.395  2.1748 -0.8391 -0.3573
 9935TIP3   OH230686   2.995   6.305   7.075 -0.2228 -0.2995  0.5558
 9935TIP3    H130687   3.061   6.268   7.132  0.0015  1.4403  1.4887
 9935TIP3    H230688   2.914   6.262   7.100  0.1283 -0.5925  1.1954
 9936TIP3   OH230689   6.801   3.231   4.930  0.2153 -0.2732  0.0508
 9936TIP3    H130690   6.710   3.203   4.920  0.1339  0.0003  0.0329
 9936TIP3    H230691   6.797   3.307   4.988  0.3324  0.3865 -0.8015
 9937TIP3   OH230692   3.346  10.338   6.764  0.2305  0.7165 -0.1479
 9937TIP3    H130693   3.352  10.259   6.817  3.6470  1.2005  0.4272
 9937TIP3    H230694   3.391  10.317   6.683  1.5673  2.1004  0.1731
 9938TIP3   OH230695   0.449   1.168   9.888  0.1770 -0.3994 -0.1928
 9938TIP3    H130696   0.481   1.257   9.876 -0.3366 -0.2068 -0.1807
 9938TIP3    H230697   0.468   1.148   9.980  2.7259 -1.3110 -0.8267
 9939TIP3   OH230698   4.400   2.286   5.781  0.2898 -0.1142 -0.3053
 9939TIP3    H130699   4.464   2.278   5.710  1.3426 -1.9951  0.7777
 9939TIP3    H230700   4.383   2.195   5.808  0.2536  0.5483  2.1237
 9940TIP3   OH230701   8.916   4.586   6.302  0.5302  0.3844 -0.1896
 9940TIP3    H130702   8.828   4.564   6.334  0.8332  0.7626  0.9500
 9940TIP3    H230703   8.939   4.513   6.245 -1.3874  1.3146 -2.3208
 9941TIP3   OH230704   3.618   5.473   9.405  0.0944  0.0441 -0.2511
 9941TIP3    H130705   3.598   5.384   9.377  1.9037  0.3887 -2.9355
 9941TIP3    H230706   3.583   5.529   9.336  0.7552  1.2960  0.3823
 9942TIP3   OH230707   2.649   1.441   4.372  0.0485  0.1627 -0.0026
 9942TIP3    H130708   2.646   1.528   4.411  1.1620  1.3053 -2.2487
 9942TIP3    H230709   2.602   1.451   4.289  0.3545 -1.3284 -0.3793
 9943TIP3   OH230710   0.803   5.817   9.698 -0.0153  0.1502  0.2962
 9943TIP3    H130711   0.758   5.902   9.704 -0.1268  0.3343 -2.0821
 9943TIP3    H230712   0.732   5.754   9.684  0.1993 -0.0482  0.0940
 9944TIP3   OH230713   4.274   9.731  10.028 -0.0568 -0.0690  0.9015
 9944TIP3    H130714   4.220   9.684  10.091  0.0624 -0.6010  0.6191
 9944TIP3    H230715   4.270   9.677   9.949  1.0971 -0.2615  0.9531
 9945TIP3   OH230716   4.890   7.647   4.918 -0.6011 -0.7315 -0.4254
 9945TIP3    H130717   4.950   7.702   4.969 -0.8270  0.3124 -1.2676
 9945TIP3    H230718   4.926   7.559   4.927  1.0340 -0.1464 -0.8482
 9946TIP3   OH230719   1.178   0.015   4.445  0.1596 -0.0120  0.3917
 9946TIP3    H130720   1.212  -0.045   4.379  1.0778 -0.6983  1.4450
 9946TIP3    H230721   1.093  -0.021   4.468  0.9509 -1.3142  1.4472
 9947TIP3   OH230722   8.918   1.693   6.498 -0.0546 -0.1325 -0.8859
 9947TIP3    H130723   8.951   1.780   6.523 -0.7142 -0.0424 -0.3351
 9947TIP3    H230724   8.994   1.635   6.509  0.4173  0.3868 -1.3518
 9948TIP3   OH230725   2.902   1.008   7.038 -0.0339 -0.4938  0.2801
 9948TIP3    H130726   2.851   0.961   6.973 -2.8890  2.0820  0.4357
 9948TIP3    H230727   2.871   0.974   7.122  0.5061 -0.7941  0.3633
 9949TIP3   OH230728   4.264   7.511   9.836  0.4562 -0.1217 -0.0350
 9949TIP3    H130729   4.284   7.530   9.927 -1.3766 -0.0681  0.4065
 9949TIP3    H230730   4.349   7.500   9.794  1.4263  2.1804  1.1558
 9950TIP3   OH230731   8.976   0.117   7.674 -0.4726  0.3652 -0.6448
 9950TIP3    H130732   9.010   0.172   7.603 -1.5922  1.2364 -0.5227
 9950TIP3    H230733   8.988   0.169   7.753  1.2744 -0.8188 -0.0515
 9951TIP3   OH230734   5.898   7.204   2.274 -0.2527 -0.0951  0.9584
 9951TIP3    H130735   5.930   7.181   2.186 -0.6768 -1.5793  1.1745
 9951TIP3    H230736   5.806   7.226   2.260 -0.3372 -0.3965  1.0361
 9952TIP3   OH230737   6.663   6.170   0.709  0.2203  0.4023 -0.5503
 9952TIP3    H130738   6.574   6.138   0.694  0.3736 -0.3703  0.0985
 9952TIP3    H230739   6.650   6.254   0.754 -0.2006 -0.1360  0.3878
 9953TIP3   OH230740   4.326  10.732   4.172 -0.2565 -0.3003 -1.1377
 9953TIP3    H130741   4.306  10.820   4.203 -0.0406 -1.0603  1.3179
 9953TIP3    H230742   4.421  10.727   4.173 -0.2844 -1.2163  0.8558
 9954TIP3   OH230743   5.755   1.040   4.716  0.0178  0.1739  0.2189
 9954TIP3    H130744   5.714   1.032   4.630 -0.0084  1.0289  0.1482
 9954TIP3    H230745   5.779   1.132   4.723 -0.5702  0.2498  1.4031
 9955TIP3   OH230746   4.363   5.697   7.011  0.1063  0.2987 -0.2326
 9955TIP3    H130747   4.358   5.717   7.104 -1.6461 -2.6066  0.4151
 9955TIP3    H230748   4.428   5.626   7.005 -0.2601  0.0214 -1.1251
 9956TIP3   OH230749   7.979   1.621   6.830 -0.4152 -0.3132  0.1940
 9956TIP3    H130750   8.069   1.626   6.798 -1.1636 -0.9677 -2.2649
 9956TIP3    H230751   7.956   1.711   6.853  0.4486  0.0674 -0.3864
 9957TIP3   OH230752   9.144   8.225   3.592 -0.0905 -0.1310 -0.5214
 9957TIP3    H130753   9.207   8.205   3.660 -1.2363 -1.1549  0.2681
 9957TIP3    H230754   9.092   8.298   3.627  0.8718  0.9980 -1.3412
 9958TIP3   OH230755  10.729   2.627   9.367 -0.3278 -0.1799 -0.3772
 9958TIP3    H130756  10.665   2.696   9.348 -0.5273  0.0006  0.8808
 9958TIP3    H230757  10.813   2.665   9.340 -0.3279  0.8977  0.9755
 9959TIP3   OH230758   5.923   9.838   5.830 -0.2296 -0.4310  0.1408
 9959TIP3    H130759   5.905   9.922   5.787 -0.3005 -0.8247 -0.6116
 9959TIP3    H230760   5.876   9.843   5.913 -3.9382 -1.3957 -1.6904
 9960TIP3   OH230761   3.705   5.471   4.779 -0.7182 -0.5965 -0.2928
 9960TIP3    H130762   3.619   5.428   4.774 -1.5892  0.9410  0.5867
 9960TIP3    H230763   3.705   5.514   4.865  1.5640 -1.7810  0.4020
 9961TIP3   OH230764   3.500  10.465   1.860 -0.4929  0.7486  0.4048
 9961TIP3    H130765   3.550  10.437   1.782 -0.5017  0.1458  0.6060
 9961TIP3    H230766   3.564  10.507   1.916 -0.5814  1.6393 -0.1384
 9962TIP3   OH230767   9.347   0.760   0.945 -0.0937  0.3935 -0.0553
 9962TIP3    H130768   9.362   0.696   0.875 -3.5369 -1.6746  0.8580
 9962TIP3    H230769   9.382   0.719   1.024 -2.8476 -0.7924  0.6432
 9963TIP3   OH230770   0.678   7.312   4.736 -0.1763 -0.1232 -0.2466
 9963TIP3    H130771   0.633   7.347   4.659  0.0149 -1.3746 -0.9496
 9963TIP3    H230772   0.617   7.249   4.772 -1.6163  2.5827  2.5041
 9964TIP3   OH230773   3.684   2.733   5.061 -0.4830 -0.2198 -0.3785
 9964TIP3    H130774   3.633   2.801   5.107 -0.7178 -0.3459 -0.4487
 9964TIP3    H230775   3.621   2.662   5.048 -0.8274  0.3556 -2.1488
 9965TIP3   OH230776   2.152   4.851   7.336  0.0206 -0.4090  0.0304
 9965TIP3    H130777   2.073   4.820   7.381 -1.1323  1.7465 -0.3988
 9965TIP3    H230778   2.188   4.918   7.394  0.1681  0.3372 -0.9155
 9966TIP3   OH230779   5.909   8.658   0.522  0.0804  0.1129 -0.1384
 9966TIP3    H130780   5.910   8.754   0.518  2.2343  0.1855  0.8157
 9966TIP3    H230781   5.967   8.630   0.452  1.8938 -0.3131  1.4466
 9967TIP3   OH230782   1.871   2.714   2.357 -0.0986 -0.0946 -0.3091
 9967TIP3    H130783   1.900   2.771   2.428  0.4677  0.7537 -1.1922
 9967TIP3    H230784   1.801   2.764   2.314 -0.7865 -0.8182 -0.0616
 9968TIP3   OH230785   4.897   1.167   0.964  0.1579 -0.0207  0.2780
 9968TIP3    H130786   4.897   1.130   0.876 -0.7810 -0.9802  0.6539
 9968TIP3    H230787   4.961   1.114   1.012  0.5269  0.3734  0.2229
 9969TIP3   OH230788   8.053   9.981   7.431 -0.0869  0.4514 -0.1472
 9969TIP3    H130789   8.044   9.945   7.343 -1.0834  0.6907 -0.1516
 9969TIP3    H230790   8.127   9.934   7.468 -0.6385 -0.7786 -0.5552
 9970TIP3   OH230791  10.179   1.640   0.704  0.9846 -0.2947  0.0544
 9970TIP3    H130792  10.172   1.561   0.758 -1.4192  0.5337  1.0863
 9970TIP3    H230793  10.108   1.632   0.640  1.3365  0.5751 -0.4655
 9971TIP3   OH230794   0.361   1.046  10.607 -0.2626 -0.1738  0.4866
 9971TIP3    H130795   0.311   1.128  10.607 -0.7633 -0.4790  0.6003
 9971TIP3    H230796   0.324   0.994  10.536 -1.3289 -1.1226  1.6790
 9972TIP3   OH230797   2.542   6.349   3.007  0.0702 -0.1849  0.6509
 9972TIP3    H130798   2.583   6.283   2.952 -0.1941  0.8064 -0.7980
 9972TIP3    H230799   2.449   6.327   3.005 -0.1356  0.6931 -0.5537
 9973TIP3   OH230800   7.812   9.690   2.117 -0.1078  0.4249 -0.4162
 9973TIP3    H130801   7.722   9.669   2.093 -0.7981  0.0589  2.1389
 9973TIP3    H230802   7.850   9.607   2.145  1.2052  0.4971 -1.8668
 9974TIP3   OH230803   4.847   1.632   1.658 -0.1334  0.1326  0.0361
 9974TIP3    H130804   4.800   1.571   1.600  0.1633 -0.9459  0.8917
 9974TIP3    H230805   4.880   1.576   1.728  0.9865  1.1416  0.3315
 9975TIP3   OH230806   4.192   4.321   2.183 -1.0094 -0.8097 -0.2893
 9975TIP3    H130807   4.191   4.396   2.124  2.1164  0.6952  1.3513
 9975TIP3    H230808   4.105   4.281   2.173 -2.0403  1.7509 -2.7637
 9976TIP3   OH230809   0.514   9.039   3.352 -0.0271  0.0863 -0.1876
 9976TIP3    H130810   0.494   8.979   3.423 -1.2810 -0.4736 -0.9763
 9976TIP3    H230811   0.478   9.123   3.381 -0.6008 -0.1569 -0.1872
 9977TIP3   OH230812   0.057   8.206   0.879 -0.3194 -0.5524  0.4694
 9977TIP3    H130813  -0.009   8.183   0.945 -0.9612 -1.3149 -0.4189
 9977TIP3    H230814   0.104   8.281   0.918 -0.8525 -0.8113  1.6663
 9978TIP3   OH230815   2.225  10.697   7.306  0.6628  0.7962  0.2094
 9978TIP3    H130816   2.154  10.682   7.368  2.6644 -0.6412  2.3770
 9978TIP3    H230817   2.188  10.752   7.238 -1.6112  2.8541  2.9015
 9979TIP3   OH230818  10.623   6.070   0.111 -0.2321 -0.2612  0.3046
 9979TIP3    H130819  10.558   6.081   0.042 -1.1638  0.7912  1.3129
 9979TIP3    H230820  10.596   6.129   0.180  1.4963 -0.2144  1.0089
 9980TIP3   OH230821   8.458  10.104   6.493  0.1038  0.6610  0.0340
 9980TIP3    H130822   8.516  10.067   6.559  0.7423  0.9968 -0.3245
 9980TIP3    H230823   8.439  10.031   6.434  0.5120  0.6378 -0.0786
 9981TIP3   OH230824   4.912   1.699   6.147  0.0898  0.7155 -0.0792
 9981TIP3    H130825   4.921   1.776   6.090 -0.1440  0.9000  0.1273
 9981TIP3    H230826   4.977   1.712   6.216  0.0831  0.7058 -0.0708
 9982TIP3   OH230827   0.981   8.270   0.629 -0.6942  0.4010 -0.0461
 9982TIP3    H130828   0.984   8.270   0.533  0.1510  1.9546 -0.0532
 9982TIP3    H230829   1.027   8.191   0.654 -1.5134 -0.3792 -0.9220
 9983TIP3   OH230830   4.540   2.199   5.328 -0.6135 -0.3441  0.3049
 9983TIP3    H130831   4.546   2.294   5.330  0.7298 -0.3660 -1.1443
 9983TIP3    H230832   4.617   2.169   5.377  1.5385 -0.6208 -2.9551
 9984TIP3   OH230833   5.107   6.425   0.976 -0.0286 -0.0292  0.3545
 9984TIP3    H130834   5.021   6.447   1.012 -0.6616  1.1177 -1.6669
 9984TIP3    H230835   5.092   6.344   0.926 -0.0975  0.4863 -0.4767
 9985TIP3   OH230836   5.413   1.389   7.880  0.0611  0.3049  0.8735
 9985TIP3    H130837   5.466   1.364   7.955  1.2946  0.6431  0.1490
 9985TIP3    H230838   5.475   1.431   7.820 -1.6210  4.2490  1.5887
 9986TIP3   OH230839   2.538   1.159   2.834 -0.5285 -0.2186  1.1823
 9986TIP3    H130840   2.449   1.141   2.803 -0.1596 -2.9609  1.4551
 9986TIP3    H230841   2.526   1.185   2.925 -1.1123  1.0050  0.7891
 9987TIP3   OH230842   8.475   7.420   2.054  0.4352  0.1667  0.5424
 9987TIP3    H130843   8.458   7.510   2.084 -0.0447  0.0213  0.7090
 9987TIP3    H230844   8.557   7.396   2.097  0.4390  0.4367  0.6900
 9988TIP3   OH230845   7.104   6.662   5.752  0.3533 -0.0124 -0.4482
 9988TIP3    H130846   7.077   6.610   5.827  0.4409  1.5944  0.7609
 9988TIP3    H230847   7.190   6.696   5.777 -0.2948  1.8144 -0.5527
 9989TIP3   OH230848   0.053   2.831   4.625 -0.7095  0.3472 -0.8500
 9989TIP3    H130849  -0.027   2.795   4.585 -2.4088  2.0031  0.8575
 9989TIP3    H230850   0.102   2.754   4.653 -2.1386 -0.7299 -1.1560
 9990TIP3   OH230851   0.269   0.352   1.574  0.2551  0.2091  0.0717
 9990TIP3    H130852   0.293   0.274   1.524  0.9098  0.8443 -0.6470
 9990TIP3    H230853   0.332   0.355   1.646  0.1489  0.0073  0.1739
 9991TIP3   OH230854   5.317   7.167   9.127 -0.2573  0.3429 -1.1051
 9991TIP3    H130855   5.352   7.185   9.040  2.7793  0.1798 -0.0415
 9991TIP3    H230856   5.314   7.071   9.132  0.3050  0.3373 -0.7917
 9992TIP3   OH230857   8.032   3.009   0.232  0.0189 -0.7519  0.5647
 9992TIP3    H130858   8.056   3.081   0.175  1.8076 -2.2321 -0.6699
 9992TIP3    H230859   7.944   2.984   0.203  0.4326 -0.7326 -0.7721
 9993TIP3   OH230860   4.267   6.238   8.667 -0.4028 -0.1283 -0.1712
 9993TIP3    H130861   4.330   6.171   8.641 -0.7422 -0.4492 -0.1621
 9993TIP3    H230862   4.261   6.230   8.762  0.0726  0.3753 -0.0894
 9994TIP3   OH230863   8.331   3.244   1.846 -0.4047  0.0622 -0.6545
 9994TIP3    H130864   8.419   3.209   1.860  0.8364  3.5311  1.4029
 9994TIP3    H230865   8.279   3.207   1.917 -0.1133 -0.4194 -0.6837
 9995TIP3   OH230866   3.176   0.892  10.505 -0.1309  0.2848  0.4035
 9995TIP3    H130867   3.267   0.864  10.504  0.5046  2.2439  0.4854
 9995TIP3    H230868   3.179   0.986  10.487 -2.3947 -0.2163 -3.8083
 9996TIP3   OH230869   8.981   6.239   3.931 -0.4067  0.7134  0.0330
 9996TIP3    H130870   8.969   6.158   3.982 -0.3793  1.7422  1.7628
 9996TIP3    H230871   9.050   6.217   3.868  0.8479 -0.1469  1.6162
 9997TIP3   OH230872   7.300  10.441   0.423 -0.2035  0.1826 -0.4588
 9997TIP3    H130873   7.346  10.525   0.425  0.9604 -0.4120 -1.1140
 9997TIP3    H230874   7.362  10.381   0.381 -0.5095 -1.3019  1.1031
 9998TIP3   OH230875   1.491   0.785   9.282  0.1301 -0.0204 -0.0803
 9998TIP3    H130876   1.540   0.758   9.205  0.8428  1.8749 -0.3381
 9998TIP3    H230877   1.407   0.816   9.248 -0.1824 -0.6777  0.0795
 9999TIP3   OH230878   9.990   4.369   2.029 -0.5537  0.3994 -1.0615
 9999TIP3    H130879  10.054   4.394   1.963 -0.4651  0.0471 -1.1114
 9999TIP3    H230880   9.981   4.274   2.019 -0.2773  0.2856 -0.3454
10000TIP3   OH230881   7.079   3.897   5.772  0.0572 -0.2741  0.1224
10000TIP3    H130882   7.046   3.909   5.860  0.2578  0.4247  0.1105
10000TIP3    H230883   7.146   3.965   5.762  1.0239 -1.2172 -0.0862
10001TIP3   OH230884   4.211   5.470   6.512  0.2387  1.1379 -0.3564
10001TIP3    H130885   4.286   5.530   6.503  1.3532 -0.2516 -0.8052
10001TIP3    H230886   4.153   5.513   6.575  1.7983  1.9107  0.6219
10002TIP3   OH230887   9.834   8.050   5.917 -0.3910 -0.0388 -0.0134
10002TIP3    H130888   9.747   8.036   5.880 -1.0092  0.3041  1.2597
10002TIP3    H230889   9.851   7.970   5.968  0.3074 -0.3642 -0.7378
10003TIP3   OH230890   6.806   7.436   6.898 -0.0515  0.0515  0.5221
10003TIP3    H130891   6.806   7.379   6.975 -0.1976  0.0125  0.4931
10003TIP3    H230892   6.716   7.470   6.893 -0.0051  0.1672  0.4532
10004TIP3   OH230893   3.452   9.481   7.932  0.5909  0.1221  0.1857
10004TIP3    H130894   3.452   9.389   7.906 -1.9008  0.6342 -2.2096
10004TIP3    H230895   3.521   9.521   7.880 -0.5972  0.1198 -1.4830
10005TIP3   OH230896   7.284   4.758   4.266  0.1832 -0.0792  0.0477
10005TIP3    H130897   7.230   4.679   4.262  0.1792 -0.2146  1.8194
10005TIP3    H230898   7.264   4.796   4.352  3.0911 -0.2965  0.9123
10006TIP3   OH230899   6.603   5.333   3.017 -0.5352  0.2351  0.1596
10006TIP3    H130900   6.620   5.243   3.045 -1.2002 -0.2051 -0.8245
10006TIP3    H230901   6.686   5.362   2.978 -1.0375 -0.8484 -1.8261
10007TIP3   OH230902   3.675   8.740  10.662  0.0182 -0.1106  0.8094
10007TIP3    H130903   3.767   8.717  10.646  0.0104  0.1444  0.3775
10007TIP3    H230904   3.670   8.753  10.756  0.4443 -0.0761  0.8315
10008TIP3   OH230905   8.906   7.315   8.812  0.1885 -0.3321 -0.6326
10008TIP3    H130906   8.907   7.224   8.840 -1.5982 -0.6136 -1.3129
10008TIP3    H230907   8.976   7.321   8.747  1.2355 -0.8448  0.4141
10009TIP3   OH230908   3.180  10.029  10.801 -0.3074  0.7512  0.2130
10009TIP3    H130909   3.265   9.994  10.826 -0.4410  0.1008 -0.1974
10009TIP3    H230910   3.132  10.039  10.884 -1.1701 -2.4977  0.2449
10010TIP3   OH230911   4.470   7.655   7.552 -0.1319  0.0502 -0.0273
10010TIP3    H130912   4.561   7.683   7.550  0.2804 -1.2193  0.0372
10010TIP3    H230913   4.425   7.721   7.605  0.4321  1.5170 -1.3251
10011TIP3   OH230914   7.674   0.069   7.976 -0.0250  0.1416 -0.3342
10011TIP3    H130915   7.699  -0.022   7.995  0.1923  0.6703  2.3605
10011TIP3    H230916   7.588   0.079   8.018  0.8106  1.6639  1.1077
10012TIP3   OH230917   4.694  10.134   8.988  0.1027 -0.0640  0.0356
10012TIP3    H130918   4.658  10.051   8.959  0.3823  0.4758 -1.9832
10012TIP3    H230919   4.734  10.114   9.073 -1.8217 -1.4410  0.6753
10013TIP3   OH230920   3.340   1.970   9.989 -0.1992  0.1318  0.4579
10013TIP3    H130921   3.371   2.038  10.049  2.0645  0.3999 -0.8975
10013TIP3    H230922   3.367   1.888  10.030 -1.7476  0.0849  1.4463
10014TIP3   OH230923   3.247   1.862   7.778 -0.2373 -0.6892  0.4822
10014TIP3    H130924   3.206   1.820   7.853 -3.7606 -1.7154 -1.7413
10014TIP3    H230925   3.209   1.818   7.702  0.9060  2.1661 -1.9764
10015TIP3   OH230926   8.391   6.391   5.153 -0.0208 -0.1427  0.0872
10015TIP3    H130927   8.442   6.311   5.144  1.6514  0.7439  1.1456
10015TIP3    H230928   8.396   6.432   5.067 -1.7074 -1.5637 -0.7602
10016TIP3   OH230929   1.905   3.159   3.466 -0.6323  0.3088  0.1653
10016TIP3    H130930   1.877   3.069   3.449 -3.1232  1.0155  0.1327
10016TIP3    H230931   1.871   3.210   3.392  1.5534  1.1860 -0.3116
10017TIP3   OH230932   6.254   4.868   2.405  0.2921  0.2936 -0.3037
10017TIP3    H130933   6.340   4.882   2.443  0.1302  0.7411 -0.0937
10017TIP3    H230934   6.195   4.865   2.481  0.1398 -0.1231 -0.4387
10018TIP3   OH230935   8.771   8.743   0.475 -0.1549  0.1635  0.5627
10018TIP3    H130936   8.696   8.699   0.436  0.3365 -1.2397  1.1307
10018TIP3    H230937   8.842   8.680   0.468  0.9074  1.3505  0.3165
10019TIP3   OH230938   1.981   4.822   1.600 -0.5683 -0.5276 -0.1393
10019TIP3    H130939   2.015   4.802   1.513 -0.7817 -0.0828 -0.3258
10019TIP3    H230940   1.995   4.916   1.611 -0.1640 -0.6524  0.4741
10020TIP3   OH230941   1.299   6.378   2.137  0.1439 -0.4680  0.2785
10020TIP3    H130942   1.314   6.443   2.205 -1.2633  1.2949 -0.9988
10020TIP3    H230943   1.342   6.414   2.059  0.3820 -1.6765 -0.1829
10021TIP3   OH230944   5.348   1.951  10.852  0.3203 -0.1773 -0.9147
10021TIP3    H130945   5.322   1.865  10.887 -0.1699  0.4474  0.3362
10021TIP3    H230946   5.336   2.011  10.926 -3.2817  1.7443 -2.7588
10022TIP3   OH230947   4.796   7.841   2.632 -0.0590  0.1064  0.6011
10022TIP3    H130948   4.752   7.758   2.614 -0.7378  0.1410  1.9342
10022TIP3    H230949   4.879   7.836   2.585 -0.6694 -0.7594 -0.4272
10023TIP3   OH230950   8.701   2.198   2.681  0.4943  0.7117  0.4864
10023TIP3    H130951   8.772   2.199   2.746 -1.1999 -0.7846  2.5092
10023TIP3    H230952   8.634   2.257   2.717 -0.1847  0.4349 -0.2890
10024TIP3   OH230953   7.191   8.049  10.390  0.0543  0.1794 -0.1470
10024TIP3    H130954   7.106   8.005  10.383 -0.4612  1.3744 -1.9840
10024TIP3    H230955   7.252   7.990  10.347  0.1879 -0.6464  1.1085
10025TIP3   OH230956   5.293   0.775   0.648 -0.8076  0.0825  0.0123
10025TIP3    H130957   5.289   0.739   0.560 -1.9898 -0.0346  0.0977
10025TIP3    H230958   5.239   0.853   0.645 -1.0917 -0.0807  0.7072
10026TIP3   OH230959   8.839   2.109   6.713  0.4208  0.0162 -0.0285
10026TIP3    H130960   8.844   2.083   6.805  0.7824 -0.7552 -0.2594
10026TIP3    H230961   8.772   2.052   6.676  0.0071  0.5858 -0.1589
10027TIP3   OH230962   9.573   6.569   8.598  0.0192  0.5392 -0.7380
10027TIP3    H130963   9.574   6.551   8.692  2.2370 -1.1113 -1.0070
10027TIP3    H230964   9.503   6.513   8.564 -0.3623  0.6630 -0.1799
10028TIP3   OH230965   6.032   7.055   3.131  0.0199  0.0308  0.0967
10028TIP3    H130966   6.068   7.116   3.067  0.5512  1.5126  1.7314
10028TIP3    H230967   6.106   6.998   3.154  0.0454  0.0084 -0.0422
10029TIP3   OH230968   0.275   0.537   8.016  1.3773 -0.0340  0.6527
10029TIP3    H130969   0.299   0.517   7.925  1.4546  0.3258  0.5932
10029TIP3    H230970   0.195   0.486   8.031  1.1380  0.2184  0.2503
10030TIP3   OH230971   0.529   9.834  10.458  0.1154  0.1532  0.2281
10030TIP3    H130972   0.583   9.866  10.385  0.0122 -0.1922 -0.0029
10030TIP3    H230973   0.583   9.768  10.501 -0.5462 -1.0387 -0.7071
10031TIP3   OH230974   4.490  10.873   5.837  0.1164 -0.3108 -0.9469
10031TIP3    H130975   4.437  10.809   5.883  1.3711 -0.2284  0.6973
10031TIP3    H230976   4.429  10.945   5.816 -0.1270  0.7429  2.7139
10032TIP3   OH230977   8.324  10.037   0.556 -0.2238  0.2749  0.3543
10032TIP3    H130978   8.303   9.980   0.630  4.7596 -3.0768 -0.3383
10032TIP3    H230979   8.270  10.004   0.484 -0.2620 -0.9696  0.9335
10033TIP3   OH230980   7.381   8.754   7.375 -0.1163 -0.0267  0.2366
10033TIP3    H130981   7.419   8.706   7.449  0.3463 -0.2418 -0.1313
10033TIP3    H230982   7.370   8.688   7.307 -0.3979  0.2005  0.0638
10034TIP3   OH230983   2.758   5.727   8.433 -0.3380 -0.1568 -0.1111
10034TIP3    H130984   2.791   5.813   8.457  1.7307 -0.7541 -0.5702
10034TIP3    H230985   2.795   5.668   8.500 -1.7775 -0.6914  0.2466
10035TIP3   OH230986   3.504  10.078   1.783 -0.0466 -0.0953  0.3020
10035TIP3    H130987   3.437  10.014   1.806  0.8016 -0.7820  0.8998
10035TIP3    H230988   3.490  10.151   1.844 -1.5484  0.7217 -0.9159
10036TIP3   OH230989   1.967   6.156   8.788  0.0948 -0.0450 -0.4796
10036TIP3    H130990   2.047   6.105   8.805 -1.5628 -2.8818 -0.5652
10036TIP3    H230991   1.959   6.213   8.865  1.7340 -0.2878 -0.0681
10037TIP3   OH230992  10.508  10.290   9.810 -0.4407 -0.0839  0.2537
10037TIP3    H130993  10.590  10.269   9.765 -0.6722 -0.1385 -0.1493
10037TIP3    H230994  10.528  10.277   9.903  0.1132  0.2614  0.1892
10038TIP3   OH230995   4.413   6.909  10.056 -0.3489 -0.0236 -0.0516
10038TIP3    H130996   4.476   6.851  10.099 -0.6770 -1.8219 -1.8879
10038TIP3    H230997   4.328   6.868  10.071 -1.0107  1.6724  1.2326
10039TIP3   OH230998   2.029   8.828   9.205  0.1036 -0.0247 -0.0309
10039TIP3    H130999   2.048   8.830   9.111 -0.1823 -0.9813 -0.1159
10039TIP3    H231000   2.097   8.771   9.242 -0.3617 -0.4252  0.2044
10040TIP3   OH231001   5.952   4.420   5.669 -0.1726 -0.1756 -0.0412
10040TIP3    H131002   5.955   4.392   5.760 -1.1337  0.1801  0.1135
10040TIP3    H231003   6.044   4.423   5.642  0.1389 -0.0405  0.9865
10041TIP3   OH231004   2.450   4.075   3.717  0.3264  0.3204  0.5742
10041TIP3    H131005   2.388   4.128   3.667  2.0778  1.6847 -0.2725
10041TIP3    H231006   2.405   3.992   3.732 -0.9303  0.5084 -1.7492
10042TIP3   OH231007   1.597  10.743   4.884  0.5520  0.3295 -0.2977
10042TIP3    H131008   1.676  10.760   4.833 -0.0956  0.5658 -1.2592
10042TIP3    H231009   1.582  10.649   4.873  0.4863  0.3563 -0.4561
10043TIP3   OH231010  10.697   2.626   7.698 -0.1635  0.1801 -0.3950
10043TIP3    H131011  10.606   2.606   7.678 -0.5550 -0.5620  1.8357
10043TIP3    H231012  10.698   2.719   7.719 -0.3122  0.2786 -0.8137
10044TIP3   OH231013   6.564   4.370   6.754 -0.6677  0.6687 -0.0793
10044TIP3    H131014   6.637   4.310   6.762 -0.7458  0.4711 -0.8329
10044TIP3    H231015   6.604   4.455   6.738 -0.5804  0.7130  0.3521
10045TIP3   OH231016   3.520   9.593   4.151  0.1736 -0.4017  0.0176
10045TIP3    H131017   3.477   9.623   4.230  2.5140  0.0935  1.1942
10045TIP3    H231018   3.486   9.505   4.136  0.7242 -1.0618  2.3978
10046TIP3   OH231019   2.265  10.831   1.762 -1.0261 -0.7867 -0.4854
10046TIP3    H131020   2.285  10.853   1.853  0.2369 -0.9840 -0.7040
10046TIP3    H231021   2.206  10.901   1.733  0.5646  0.7032 -0.2723
10047TIP3   OH231022   1.706   6.833   1.082 -1.0179 -0.2961 -0.3321
10047TIP3    H131023   1.738   6.911   1.127  0.7876 -1.0302 -0.2519
10047TIP3    H231024   1.639   6.866   1.022 -0.9499  1.1799  0.3643
10048TIP3   OH231025   8.368   5.767   4.473  0.1447  0.1885 -0.1307
10048TIP3    H131026   8.359   5.862   4.480  0.5399  0.3046 -1.0188
10048TIP3    H231027   8.412   5.753   4.389 -0.5349 -0.8199 -0.3372
10049TIP3   OH231028   3.699   3.582   5.816  0.3905  0.4635 -0.1880
10049TIP3    H131029   3.623   3.640   5.814  0.4493  0.5255 -1.2233
10049TIP3    H231030   3.769   3.635   5.853 -0.2722  0.1151  1.7108
10050TIP3   OH231031   2.691   7.632   8.047  0.0511 -0.0177 -0.1079
10050TIP3    H131032   2.641   7.570   8.101  1.8018 -0.5997  0.9249
10050TIP3    H231033   2.761   7.579   8.009 -0.9943  0.3981 -2.9299
10051TIP3   OH231034  10.402   1.780   0.674  0.5275  0.0882 -0.0212
10051TIP3    H131035  10.323   1.750   0.719  1.7760 -2.3033  0.7626
10051TIP3    H231036  10.376   1.789   0.583 -1.0842  1.1875  0.5081
10052TIP3   OH231037   3.760  10.859   9.670  0.6195  0.2914  0.3048
10052TIP3    H131038   3.833  10.865   9.609  0.7565 -0.0212  0.4337
10052TIP3    H231039   3.746  10.764   9.681  1.5926  0.2960  1.9442
10053TIP3   OH231040   4.510   4.564   4.194 -0.0576 -0.0134  0.2467
10053TIP3    H131041   4.598   4.535   4.217  1.3870  3.0935 -0.7093
10053TIP3    H231042   4.483   4.618   4.268 -1.2697 -1.0464  0.5907
10054TIP3   OH231043   1.536   9.197   5.285 -0.2230  0.0493 -0.2471
10054TIP3    H131044   1.566   9.140   5.355  0.4584  0.8525  0.1354
10054TIP3    H231045   1.615   9.216   5.234 -0.4105  0.7538 -0.2884
10055TIP3   OH231046   3.821   2.604   4.437 -0.4522 -0.7697  0.2712
10055TIP3    H131047   3.884   2.534   4.450 -0.0911 -0.3589  0.7921
10055TIP3    H231048   3.869   2.684   4.458 -0.8780 -0.3689 -0.2344
10056TIP3   OH231049   6.060   6.867   9.311  0.6596  0.5320  0.5192
10056TIP3    H131050   5.985   6.879   9.370  0.0415  1.3478 -0.4018
10056TIP3    H231051   6.123   6.933   9.338  0.5396  0.6493  0.5132
10057TIP3   OH231052   7.674   0.151   9.949  0.1753  0.0649  1.3046
10057TIP3    H131053   7.623   0.118  10.023 -0.0725  1.1769  1.6458
10057TIP3    H231054   7.665   0.246   9.954  0.7068  0.1865  0.2323
10058TIP3   OH231055   1.303  10.830   4.687  0.3048  0.4805  0.4625
10058TIP3    H131056   1.378  10.879   4.722  1.0767  0.2332 -0.7948
10058TIP3    H231057   1.278  10.877   4.607 -0.4406  0.1534  0.4941
10059TIP3   OH231058   6.342   9.093   2.150 -0.1207 -0.3952 -0.0342
10059TIP3    H131059   6.372   9.182   2.170  1.1881 -0.6980 -0.5705
10059TIP3    H231060   6.274   9.076   2.216 -0.0878  0.8310  0.3480
10060TIP3   OH231061   7.615   9.132   8.454  0.4071 -0.5098 -0.7494
10060TIP3    H131062   7.632   9.187   8.530  0.6210  0.3877 -1.4236
10060TIP3    H231063   7.672   9.056   8.466 -0.9207 -1.3117  0.8944
10061TIP3   OH231064   4.891   4.675   5.784 -0.1282 -0.2045  0.4590
10061TIP3    H131065   4.869   4.752   5.838  0.0118  0.0568  0.1484
10061TIP3    H231066   4.889   4.708   5.694 -0.0530 -0.5649  0.3261
10062TIP3   OH231067   0.322   4.765  10.708 -0.2814  0.1589 -0.2062
10062TIP3    H131068   0.326   4.809  10.623  1.7272  0.2790 -0.0826
10062TIP3    H231069   0.389   4.808  10.761 -1.4288  0.0254  1.4441
10063TIP3   OH231070   4.804   5.282  10.455 -0.2394 -0.0610 -0.1708
10063TIP3    H131071   4.745   5.225  10.405 -0.1800 -0.6121  0.3910
10063TIP3    H231072   4.892   5.258  10.425 -0.1064 -1.3431  1.1520
10064TIP3   OH231073   9.383   6.846   6.221  0.2266 -0.2274  0.1603
10064TIP3    H131074   9.429   6.878   6.144 -0.3188  0.7246  0.2149
10064TIP3    H231075   9.439   6.874   6.295  2.7104 -4.2427  0.1061
10065TIP3   OH231076   7.794   4.760   1.910  0.0910  0.2970  0.1769
10065TIP3    H131077   7.840   4.738   1.992  0.1834 -0.1623  0.0032
10065TIP3    H231078   7.828   4.846   1.886  1.5592 -0.4210 -0.4359
10066TIP3   OH231079   0.784   3.790   9.096 -0.5681 -0.4802  0.0345
10066TIP3    H131080   0.746   3.851   9.160 -0.1665 -0.8088  0.5963
10066TIP3    H231081   0.723   3.716   9.094 -1.4350  0.2287 -1.1789
10067TIP3   OH231082   1.248   6.675   4.751  0.4017 -0.4253  0.4471
10067TIP3    H131083   1.200   6.706   4.827 -0.5218 -1.3276  0.2586
10067TIP3    H231084   1.182   6.632   4.697  1.4190 -1.7878  0.2295
10068TIP3   OH231085   3.426   0.774   7.234 -0.1186  0.4735 -0.2098
10068TIP3    H131086   3.342   0.817   7.220 -0.3672  0.5999  1.5245
10068TIP3    H231087   3.454   0.802   7.321  0.2796 -1.8870  0.5108
10069TIP3   OH231088   6.467   9.450   7.958 -1.2118  0.1011 -0.4656
10069TIP3    H131089   6.489   9.379   8.017 -0.6608  0.0937 -0.6690
10069TIP3    H231090   6.450   9.407   7.874  3.0436  0.3547 -1.7436
10070TIP3   OH231091   0.440   7.857   5.058  0.3427 -0.5211  0.0085
10070TIP3    H131092   0.382   7.923   5.096  0.4570 -0.5740  0.2771
10070TIP3    H231093   0.481   7.815   5.134  0.1442 -1.0154 -0.1550
10071TIP3   OH231094   9.854   6.268   2.713 -0.6952  0.4739 -0.0447
10071TIP3    H131095   9.846   6.333   2.783 -0.0542  0.7424 -0.2225
10071TIP3    H231096   9.913   6.307   2.649 -1.4573  0.3250 -0.8595
10072TIP3   OH231097   7.057   7.296   8.428  0.1109  0.1167 -0.4113
10072TIP3    H131098   6.991   7.237   8.391  0.2688  0.7298 -1.7335
10072TIP3    H231099   7.056   7.372   8.370  1.7129  0.2974 -0.2310
10073TIP3   OH231100   0.334   8.214   8.881 -0.3374 -0.0315 -0.4609
10073TIP3    H131101   0.257   8.162   8.906 -1.0133  1.1004 -0.1430
10073TIP3    H231102   0.321   8.298   8.923  0.4301  0.6262 -1.4908
10074TIP3   OH231103   2.339   7.046   8.183 -0.5088 -0.1279  0.3753
10074TIP3    H131104   2.377   6.959   8.195 -1.9553 -0.6999  1.0520
10074TIP3    H231105   2.286   7.038   8.104  1.7521  1.0624 -1.4020
10075TIP3   OH231106   8.525   8.638   6.858  0.3894  0.2397 -0.3378
10075TIP3    H131107   8.487   8.630   6.770 -0.2821  0.1518 -0.0440
10075TIP3    H231108   8.592   8.570   6.862  0.3598  0.1856 -0.7506
10076TIP3   OH231109   4.590   4.243   8.355  0.0595  0.3656  0.1195
10076TIP3    H131110   4.677   4.256   8.317 -0.3505  0.4850 -0.8095
10076TIP3    H231111   4.577   4.319   8.412  0.9502 -0.1507  1.0390
10077TIP3   OH231112   5.803   6.683  10.094 -0.0486 -0.5300  0.8521
10077TIP3    H131113   5.798   6.616  10.026  0.9527 -1.4635  1.6705
10077TIP3    H231114   5.795   6.636  10.176 -0.8673  0.5436  1.4145
10078TIP3   OH231115  10.720   3.701   5.066  0.9579 -0.2738 -0.0764
10078TIP3    H131116  10.717   3.724   5.159 -0.4825 -1.0744  0.1107
10078TIP3    H231117  10.808   3.665   5.052  1.6961  1.2155  0.6161
10079TIP3   OH231118   4.357   8.567   1.035 -0.1541  0.6642 -0.4963
10079TIP3    H131119   4.443   8.605   1.052 -0.0261  1.3536 -2.4355
10079TIP3    H231120   4.317   8.627   0.972 -2.8208  1.3980  1.7070
10080TIP3   OH231121  10.615  10.169   5.254  0.1672  0.7492 -0.0154
10080TIP3    H131122  10.568  10.248   5.280  1.1808  1.4184 -0.1681
10080TIP3    H231123  10.694  10.201   5.210  0.0136 -0.3403 -1.1537
10081TIP3   OH231124   4.860   8.945   3.438 -0.3298  0.2676  0.0188
10081TIP3    H131125   4.891   8.877   3.378 -0.0541  0.3537  0.0611
10081TIP3    H231126   4.928   8.949   3.505 -0.7510  0.0141  0.4611
10082TIP3   OH231127   8.813   9.903   9.152  0.0822 -0.1610  0.0826
10082TIP3    H131128   8.850   9.898   9.064  1.9369 -1.5464  0.8900
10082TIP3    H231129   8.777   9.816   9.168 -0.4078  0.1376  0.6390
10083TIP3   OH231130   2.244   3.763   9.956 -0.1888 -0.8246  0.0983
10083TIP3    H131131   2.283   3.676   9.961  0.3430 -0.6336 -0.5741
10083TIP3    H231132   2.315   3.820   9.927 -0.2970  0.0058  1.3878
10084TIP3   OH231133   3.106  10.861   7.315  0.2659 -0.1467  0.0546
10084TIP3    H131134   3.081  10.784   7.264  0.1056  0.5813 -1.0045
10084TIP3    H231135   3.068  10.846   7.402  1.8821 -2.1513  0.4994
10085TIP3   OH231136   7.577   9.203   1.298  0.4879 -0.0539 -0.2511
10085TIP3    H131137   7.524   9.166   1.228 -0.6441 -0.4987  0.8062
10085TIP3    H231138   7.616   9.127   1.341  2.1707  0.2714 -1.1147
10086TIP3   OH231139   8.567   3.927  10.330 -0.1481 -0.3013 -0.3032
10086TIP3    H131140   8.601   3.846  10.368 -2.0266 -0.6890  0.6909
10086TIP3    H231141   8.615   3.997  10.374  0.0485 -0.8349  0.3412
10087TIP3   OH231142   9.047   9.131   6.433  0.2815 -0.3019 -0.2514
10087TIP3    H131143   9.135   9.116   6.469  0.0089 -1.4746 -0.0416
10087TIP3    H231144   9.045   9.080   6.352 -1.0598 -2.4740  1.0558
10088TIP3   OH231145   7.486  10.703   9.830  0.2736  0.6474  0.1537
10088TIP3    H131146   7.563  10.716   9.885  0.7259 -0.7632 -0.0803
10088TIP3    H231147   7.477  10.784   9.780  2.0934  0.5708 -0.3775
10089TIP3   OH231148   7.128   4.937   5.458 -0.5872 -0.2272  0.2144
10089TIP3    H131149   7.117   4.843   5.467  0.0938 -0.2499  0.9433
10089TIP3    H231150   7.161   4.965   5.544  2.1757  0.2322 -0.8940
10090TIP3   OH231151   0.260   8.878  10.669 -0.4162 -0.0388 -0.2347
10090TIP3    H131152   0.211   8.886  10.751 -1.3445 -0.2629 -0.7478
10090TIP3    H231153   0.352   8.878  10.695 -0.7125 -1.8584  0.9866
10091TIP3   OH231154   8.348   8.098   5.394 -0.0635 -0.2172 -0.2738
10091TIP3    H131155   8.374   8.009   5.416  0.1983  0.0338  0.4660
10091TIP3    H231156   8.387   8.114   5.308 -1.7280 -1.4875 -1.3381
10092TIP3   OH231157   1.835   8.005   5.461  0.2753 -0.0943  0.5479
10092TIP3    H131158   1.765   8.015   5.526 -0.5739 -1.9040 -0.0187
10092TIP3    H231159   1.843   7.910   5.450  1.7576  0.1407 -0.5551
10093TIP3   OH231160   3.341   2.039   4.185 -0.1282 -0.7278 -0.6900
10093TIP3    H131161   3.371   1.962   4.233  0.2522 -0.0451  0.1800
10093TIP3    H231162   3.264   2.070   4.233  0.9569  0.6613  0.2230
10094TIP3   OH231163   5.398   7.150   0.584  0.2089 -0.1497 -0.1614
10094TIP3    H131164   5.463   7.157   0.514  0.0483  1.4722 -0.1929
10094TIP3    H231165   5.319   7.191   0.548  0.1473  0.7833  0.9612
10095TIP3   OH231166   7.093   3.680   6.468  0.0412  0.0356  0.0353
10095TIP3    H131167   7.181   3.720   6.466 -0.2765  0.7321 -0.4939
10095TIP3    H231168   7.041   3.735   6.409 -0.6501 -0.6222  0.0277
10096TIP3   OH231169   3.937   8.710   5.829  0.1658  0.6733  0.2839
10096TIP3    H131170   4.012   8.698   5.887  0.5121  1.8242  0.0912
10096TIP3    H231171   3.968   8.770   5.761 -1.2501  2.0401  0.8139
10097TIP3   OH231172   0.044   8.468   8.624 -0.1218 -0.4951 -0.4693
10097TIP3    H131173   0.128   8.433   8.595  1.1951  2.0390 -0.0278
10097TIP3    H231174  -0.004   8.485   8.543 -0.6149 -2.7264 -0.7012
10098TIP3   OH231175   1.316  10.686   8.652 -0.2518  0.1510 -0.1630
10098TIP3    H131176   1.323  10.678   8.557 -0.3866 -1.1842 -0.0731
10098TIP3    H231177   1.366  10.612   8.687 -0.3883  0.4968  0.8061
10099TIP3   OH231178   9.589   0.423   0.946 -0.2068  0.7716  0.0115
10099TIP3    H131179   9.661   0.455   1.000  0.5625 -1.0375  0.1349
10099TIP3    H231180   9.596   0.328   0.950 -2.0681  0.5537 -0.7205
10100TIP3   OH231181   7.704   1.804   5.030  0.1903  0.2949 -0.2636
10100TIP3    H131182   7.642   1.739   5.063  1.0571 -0.6100 -0.3689
10100TIP3    H231183   7.651   1.860   4.973 -0.7059  0.0692  0.3227
10101TIP3   OH231184   9.348   6.389   5.562 -0.5835 -0.1818 -0.3984
10101TIP3    H131185   9.331   6.401   5.656 -1.0546 -0.7019 -0.4154
10101TIP3    H231186   9.391   6.304   5.556 -0.4156 -0.0816 -0.6412
10102TIP3   OH231187   8.813   8.343   3.343 -0.6073  0.0995  0.0238
10102TIP3    H131188   8.786   8.292   3.266  1.1894  1.1119 -1.3551
10102TIP3    H231189   8.818   8.278   3.413 -2.5428 -0.8108 -0.5985
10103TIP3   OH231190   8.367  10.027   8.759 -0.2963  0.2336  0.1194
10103TIP3    H131191   8.320  10.009   8.678 -1.4534  1.8211  0.4004
10103TIP3    H231192   8.304  10.005   8.828  0.1322  0.3587  0.5514
10104TIP3   OH231193   2.602   0.555   5.389 -0.0514  0.2906  0.1442
10104TIP3    H131194   2.588   0.467   5.354  0.6750 -0.8199  2.4538
10104TIP3    H231195   2.676   0.546   5.449 -0.8121  2.1795  1.4821
10105TIP3   OH231196   3.580   5.753   2.312  0.3011 -0.7452  0.0391
10105TIP3    H131197   3.671   5.784   2.311  0.8224 -2.0335  1.9932
10105TIP3    H231198   3.530   5.827   2.348  0.8945 -0.7312  0.8553
10106TIP3   OH231199   9.696   1.544   4.416 -0.4962 -0.2449 -0.6548
10106TIP3    H131200   9.722   1.636   4.417  0.8009 -0.3661 -4.4755
10106TIP3    H231201   9.616   1.542   4.364 -1.1771 -1.1979  0.3846
10107TIP3   OH231202  10.477   7.153   8.011  0.0030  0.1558 -0.5275
10107TIP3    H131203  10.547   7.102   7.971  1.1658  1.0152  0.3573
10107TIP3    H231204  10.399   7.099   7.998  1.3094 -2.3560  1.1731
10108TIP3   OH231205   4.484   5.761  10.892  0.5084  0.3438  0.7270
10108TIP3    H131206   4.523   5.823  10.831  0.5785  0.2434  0.6690
10108TIP3    H231207   4.507   5.675  10.857  0.8213  0.2858  1.0729
10109TIP3   OH231208   4.460   5.147   5.864  0.2371 -0.3722 -0.0638
10109TIP3    H131209   4.423   5.108   5.784 -0.2889  2.2136 -1.1937
10109TIP3    H231210   4.543   5.185   5.836 -1.5071  3.6482 -0.4402
10110TIP3   OH231211   7.496   5.751  10.174  0.2002 -0.2720 -0.1025
10110TIP3    H131212   7.537   5.776  10.091  1.4730 -3.2143 -0.4622
10110TIP3    H231213   7.532   5.812  10.238  0.1326  1.2740 -1.4685
10111TIP3   OH231214   0.635   0.829   1.597  0.2784  0.1569 -0.1239
10111TIP3    H131215   0.715   0.781   1.617 -1.4584 -3.5571 -1.2961
10111TIP3    H231216   0.569   0.791   1.654 -1.0591  1.8311 -0.4888
10112TIP3   OH231217   6.114   6.292   1.757  0.4674  0.3501  0.3458
10112TIP3    H131218   6.149   6.375   1.723  0.5160 -0.5649 -2.0126
10112TIP3    H231219   6.188   6.250   1.800  0.3460  1.6610  1.9279
10113TIP3   OH231220   5.786  10.404  10.032 -0.2765  0.2043 -0.2137
10113TIP3    H131221   5.812  10.493  10.010  0.6938  0.3123  1.2769
10113TIP3    H231222   5.850  10.375  10.097 -0.9450 -1.3614 -0.2049
10114TIP3   OH231223   4.089   6.659   0.331  0.5183  0.2034 -0.0164
10114TIP3    H131224   4.007   6.694   0.295 -0.9865 -1.2340  1.8116
10114TIP3    H231225   4.100   6.704   0.415  0.7459 -0.7506  0.4772
10115TIP3   OH231226   4.790  10.587   8.376  0.7289  0.2161 -0.0869
10115TIP3    H131227   4.809  10.675   8.344 -3.6271  1.7194  0.6852
10115TIP3    H231228   4.766  10.600   8.468 -1.7672 -1.3747 -0.4159
10116TIP3   OH231229   1.556   6.193   0.281 -0.0796 -0.1610  0.0702
10116TIP3    H131230   1.591   6.253   0.215  0.3743  0.0931  0.5358
10116TIP3    H231231   1.461   6.205   0.275 -0.0484 -0.1982 -0.5880
10117TIP3   OH231232   7.307   4.622   3.043 -0.4847 -0.5220 -0.3811
10117TIP3    H131233   7.375   4.555   3.032  1.3275  1.1290  0.0738
10117TIP3    H231234   7.312   4.674   2.963 -0.0645  0.5673  0.3335
10118TIP3   OH231235   2.134  10.028   5.812  0.4226  0.2979 -0.1171
10118TIP3    H131236   2.162  10.042   5.722  0.9852  0.1922  0.0365
10118TIP3    H231237   2.203   9.974   5.851  0.4382  0.7603  0.5173
10119TIP3   OH231238   3.114   1.917   8.575 -0.1749 -0.3561 -0.5990
10119TIP3    H131239   3.096   1.903   8.668  0.0203 -0.8994 -0.6408
10119TIP3    H231240   3.110   1.829   8.536  2.6953 -0.5686 -0.5997
10120TIP3   OH231241   4.125   9.873   7.543  0.4326  0.3177  0.2142
10120TIP3    H131242   4.106   9.922   7.463 -0.1792 -1.5282 -0.8240
10120TIP3    H231243   4.220   9.870   7.547  0.4909 -0.7553 -1.2448
10121TIP3   OH231244   2.976  10.516   0.263  0.1953  0.0887  0.0539
10121TIP3    H131245   3.008  10.594   0.308  0.5604 -0.3936  0.6562
10121TIP3    H231246   2.881  10.526   0.261  0.3283  1.3714 -1.4397
10122TIP3   OH231247   7.723   7.339   0.898 -0.6459 -0.1159 -0.0418
10122TIP3    H131248   7.634   7.306   0.904 -0.6929  0.3169  2.6392
10122TIP3    H231249   7.757   7.334   0.987  1.5184  1.1188 -0.7171
10123TIP3   OH231250   3.933   8.966   4.083 -0.1328 -0.9020  0.3018
10123TIP3    H131251   3.991   9.035   4.052 -1.5885  0.6276  0.8348
10123TIP3    H231252   3.979   8.884   4.062  1.7494  0.2136 -0.1292
10124TIP3   OH231253   9.655   5.132   4.068 -0.5373  0.4983  0.1961
10124TIP3    H131254   9.579   5.097   4.115  0.3922  0.7907  2.0442
10124TIP3    H231255   9.723   5.065   4.080  0.3718  1.5666  1.2180
10125TIP3   OH231256   2.884   0.070   6.899  1.0064 -0.0265  0.4578
10125TIP3    H131257   2.951   0.088   6.833  2.6596 -2.0854  1.4482
10125TIP3    H231258   2.927   0.090   6.982 -0.2295  0.2870  1.0395
10126TIP3   OH231259   6.362   6.421   2.429 -0.1432  0.1745  0.5803
10126TIP3    H131260   6.296   6.358   2.458  0.0169  0.6717  2.0961
10126TIP3    H231261   6.312   6.499   2.408 -0.4823 -0.7112 -2.4019
10127TIP3   OH231262   4.613   3.858   1.883  0.3532 -0.2662 -0.3267
10127TIP3    H131263   4.543   3.817   1.832 -0.8340  1.1555  0.0899
10127TIP3    H231264   4.614   3.950   1.854 -0.7357  0.7512  2.5074
10128TIP3   OH231265   4.716   1.320   6.321  0.0314 -0.1744  0.0882
10128TIP3    H131266   4.810   1.319   6.300 -0.0852  0.1371 -0.4406
10128TIP3    H231267   4.689   1.410   6.306 -0.2477 -0.1412  0.7447
10129TIP3   OH231268   0.565   0.435   8.066  0.4135  0.7329  0.1986
10129TIP3    H131269   0.510   0.375   8.116  0.7153 -1.4212 -1.8971
10129TIP3    H231270   0.504   0.480   8.007  0.6768 -0.6603 -1.1751
10130TIP3   OH231271   2.326   1.455   5.295  0.0578 -0.2024 -0.2511
10130TIP3    H131272   2.419   1.475   5.283 -0.2258  0.8275 -0.7685
10130TIP3    H231273   2.281   1.511   5.233 -0.9311 -0.5933  0.1000
10131TIP3   OH231274   7.174   0.880   5.686 -0.6580 -0.3239 -0.4251
10131TIP3    H131275   7.237   0.830   5.634 -1.1065 -0.8563 -0.4516
10131TIP3    H231276   7.183   0.970   5.653 -0.8773 -0.6361 -1.3592
10132TIP3   OH231277   6.120   7.333   5.262 -0.9474  0.5750  0.4776
10132TIP3    H131278   6.203   7.376   5.241 -1.2725  0.8675 -0.2478
10132TIP3    H231279   6.061   7.405   5.285 -1.8308  0.6961 -1.8711
10133TIP3   OH231280   4.740   0.252   8.281  0.1608 -0.3462  0.2508
10133TIP3    H131281   4.675   0.278   8.214 -0.8372 -0.0724  1.2941
10133TIP3    H231282   4.777   0.335   8.311 -0.3266 -0.3766  0.9429
10134TIP3   OH231283   4.802   6.105   7.355 -0.2881 -0.3150  0.3681
10134TIP3    H131284   4.778   6.192   7.325 -1.6414 -0.9016 -0.3089
10134TIP3    H231285   4.720   6.064   7.382  0.2610 -1.5198  0.3141
10135TIP3   OH231286   1.287   4.548   1.415 -0.1544 -0.1220  0.5272
10135TIP3    H131287   1.282   4.517   1.325  2.2267 -0.6633  0.5213
10135TIP3    H231288   1.320   4.638   1.407  1.0790 -0.5194  0.8486
10136TIP3   OH231289   4.638   8.505   7.863 -0.1321 -0.3112 -0.3186
10136TIP3    H131290   4.569   8.555   7.906 -0.2712 -1.2478  0.5959
10136TIP3    H231291   4.706   8.569   7.844 -0.5365  0.3250  0.3238
10137TIP3   OH231292  10.169   2.667   1.215  0.5107  0.6199  0.1990
10137TIP3    H131293  10.164   2.725   1.291  1.6922  1.5724 -0.4272
10137TIP3    H231294  10.238   2.704   1.160  0.5525 -0.7704 -0.7455
10138TIP3   OH231295   6.508   1.145   8.193  0.0919  0.1378 -0.5642
10138TIP3    H131296   6.519   1.096   8.111 -0.4257  0.2600 -0.7161
10138TIP3    H231297   6.415   1.135   8.214  0.0829  0.6503 -0.3398
10139TIP3   OH231298   4.113   8.875   0.679  0.2212  0.5183  0.8059
10139TIP3    H131299   4.187   8.937   0.677 -0.4986  1.3970  0.6500
10139TIP3    H231300   4.036   8.930   0.667 -0.3929 -0.5001 -0.0912
10140TIP3   OH231301  10.117   4.388   6.958  0.8222 -0.1230 -0.1808
10140TIP3    H131302  10.043   4.411   7.015  0.4430 -2.2358  0.2666
10140TIP3    H231303  10.142   4.470   6.917 -2.9132  0.4460 -1.7359
10141TIP3   OH231304   4.610   5.769   2.427 -0.5563  0.2749 -0.0846
10141TIP3    H131305   4.696   5.756   2.466 -1.0560  0.1399  0.9866
10141TIP3    H231306   4.583   5.681   2.399  0.1508  0.4822 -1.5419
10142TIP3   OH231307   6.557   8.132   8.380 -0.1541  0.9993 -0.0786
10142TIP3    H131308   6.572   8.046   8.420 -1.0363  0.5588 -0.6532
10142TIP3    H231309   6.643   8.160   8.350  0.2892  0.7108  0.8775
10143TIP3   OH231310   1.288   5.180   5.653  0.3837 -0.1876  0.1810
10143TIP3    H131311   1.215   5.240   5.637 -0.0751 -0.9366 -0.6597
10143TIP3    H231312   1.366   5.233   5.640  0.0384  0.8709  2.0194
10144TIP3   OH231313  10.898  10.363   1.147 -0.3579 -0.2407 -0.3561
10144TIP3    H131314  10.952  10.434   1.182 -0.0689 -0.8106  0.3683
10144TIP3    H231315  10.828  10.353   1.211  0.3459 -1.5011  0.2428
10145TIP3   OH231316   5.942   5.919   3.180  0.5412 -0.1755  0.1908
10145TIP3    H131317   5.893   5.848   3.139 -0.3521 -0.0904  1.0742
10145TIP3    H231318   5.953   5.893   3.271 -0.9218  1.3321  0.8652
10146TIP3   OH231319   2.001   6.323   0.687  0.0208 -0.3333 -0.0112
10146TIP3    H131320   1.955   6.327   0.771 -1.4453  0.4589 -0.8111
10146TIP3    H231321   1.968   6.244   0.646 -1.0486  0.4786 -0.7838
10147TIP3   OH231322   5.540   0.602   0.696  0.2981 -0.0527  0.1087
10147TIP3    H131323   5.521   0.685   0.652  0.3323  0.5457  1.1920
10147TIP3    H231324   5.526   0.620   0.789 -0.8502 -1.5846  0.2817
10148TIP3   OH231325   7.624   1.847   5.656  0.1704 -0.0490  0.0292
10148TIP3    H131326   7.615   1.941   5.675  1.1384  0.2484 -0.9138
10148TIP3    H231327   7.596   1.839   5.564  0.4228 -0.6287  0.0023
10149TIP3   OH231328  10.806   9.398   4.894 -0.1879  0.2526 -0.0281
10149TIP3    H131329  10.715   9.421   4.911  0.5095  1.4021  2.8988
10149TIP3    H231330  10.841   9.376   4.980  2.1759 -0.6970 -1.1494
10150TIP3   OH231331   3.438   3.769   3.060  0.3636 -0.0022  0.4722
10150TIP3    H131332   3.484   3.687   3.076 -0.9106 -0.8236  0.1346
10150TIP3    H231333   3.494   3.816   2.999  1.4401 -0.3197  1.2024
10151TIP3   OH231334   5.625   4.283   2.311  0.1598  0.0401  0.4575
10151TIP3    H131335   5.693   4.234   2.357 -0.9163 -1.8095  0.1568
10151TIP3    H231336   5.613   4.237   2.228  0.3650  1.9037 -0.6786
10152TIP3   OH231337   6.591   9.222   9.596 -0.5902  1.2443 -0.2160
10152TIP3    H131338   6.664   9.251   9.542 -0.3272  2.2790  0.6601
10152TIP3    H231339   6.584   9.128   9.579  0.3469  1.3051 -1.0021
10153TIP3   OH231340   8.629   3.272   0.263  0.4643  0.6261  0.3391
10153TIP3    H131341   8.652   3.257   0.171  1.1565  2.4663  0.1685
10153TIP3    H231342   8.697   3.330   0.296  0.8438 -0.8427  2.3690
10154TIP3   OH231343   0.723   9.343   7.974  0.7233 -0.3492  0.2868
10154TIP3    H131344   0.756   9.430   7.996  0.2774  0.6553 -2.5763
10154TIP3    H231345   0.781   9.312   7.904 -0.2904 -1.5187 -0.0871
10155TIP3   OH231346   0.612   9.350   1.851 -0.3827  0.5008  1.1107
10155TIP3    H131347   0.619   9.357   1.947 -0.1075 -1.3349  1.2528
10155TIP3    H231348   0.630   9.258   1.832  1.2651  1.1376 -0.8634
10156TIP3   OH231349   1.317   6.751   2.253 -0.3958 -0.0605  0.2246
10156TIP3    H131350   1.351   6.812   2.187 -0.0296  0.0011  0.4734
10156TIP3    H231351   1.222   6.753   2.238 -0.5209  1.4509  0.9708
10157TIP3   OH231352   2.862   9.190   3.655  0.0276  0.4820  0.5917
10157TIP3    H131353   2.821   9.270   3.624 -0.0735  0.8514  1.6258
10157TIP3    H231354   2.901   9.214   3.739  2.5846  0.1938 -0.4488
10158TIP3   OH231355   4.402   7.187   8.104  0.6288 -0.8705  0.0755
10158TIP3    H131356   4.475   7.202   8.044 -0.6293 -0.3144 -1.3698
10158TIP3    H231357   4.391   7.271   8.150  0.9286 -0.9745  0.3397
10159TIP3   OH231358   8.095   0.101   9.749 -0.2162 -0.2141  0.4052
10159TIP3    H131359   8.126   0.011   9.761  2.1055  0.2716 -1.1778
10159TIP3    H231360   8.045   0.099   9.668  1.7882  0.2528 -0.9215
10160TIP3   OH231361   0.876   4.226   9.233 -0.5738  0.5313 -0.6212
10160TIP3    H131362   0.926   4.303   9.260 -0.1035 -0.0021  0.0550
10160TIP3    H231363   0.943   4.161   9.211 -0.9675 -0.0874 -0.0192
10161TIP3   OH231364   0.754   1.564   1.403  0.1639 -0.4465  0.5420
10161TIP3    H131365   0.822   1.515   1.450  1.1288  0.4417  0.1297
10161TIP3    H231366   0.742   1.643   1.455 -0.9319 -0.8200  0.8719
10162TIP3   OH231367   0.558   7.681   7.905 -0.2186 -0.6648 -0.1326
10162TIP3    H131368   0.548   7.776   7.908 -1.3060 -0.7889  0.5825
10162TIP3    H231369   0.582   7.657   7.995 -1.5402 -1.2172  0.0939
10163TIP3   OH231370   9.602   5.290   5.218  1.2750 -0.1450 -0.2583
10163TIP3    H131371   9.576   5.377   5.248  0.5737 -0.3066 -0.3695
10163TIP3    H231372   9.597   5.296   5.122  0.7066 -0.4469 -0.2564
10164TIP3   OH231373   9.766   1.223   2.546 -0.0807 -0.1034 -0.3773
10164TIP3    H131374   9.736   1.142   2.585  1.1130  0.8239  2.8312
10164TIP3    H231375   9.862   1.218   2.552  0.0068  1.9090  0.9743
10165TIP3   OH231376   7.889   3.183   8.565  0.3729  0.1804  0.2359
10165TIP3    H131377   7.841   3.263   8.587 -0.3074  0.0263 -0.6087
10165TIP3    H231378   7.828   3.113   8.587  0.3792 -0.0384 -0.4358
10166TIP3   OH231379   4.799   9.924   6.078 -0.4967 -0.7091 -0.3227
10166TIP3    H131380   4.727   9.893   6.023 -0.5191  1.6366 -1.7137
10166TIP3    H231381   4.871   9.942   6.018 -0.0916  0.7310  0.5372
10167TIP3   OH231382   7.322   1.360   7.035  0.7632  0.0899  0.2821
10167TIP3    H131383   7.288   1.398   6.955  2.4912  2.0071  0.3876
10167TIP3    H231384   7.328   1.434   7.096  0.8105 -1.0604  1.7273
10168TIP3   OH231385   0.450   6.821   7.899 -0.1091 -0.6203  0.3237
10168TIP3    H131386   0.393   6.877   7.952  0.3325  0.9762 -0.8017
10168TIP3    H231387   0.502   6.773   7.963 -0.8152 -0.0814  1.3425
10169TIP3   OH231388   9.301   5.406   9.879  0.1721  1.4163 -0.0807
10169TIP3    H131389   9.395   5.388   9.888  0.0502  0.3849 -0.6660
10169TIP3    H231390   9.292   5.443   9.791 -0.0883  0.5544 -0.4248
10170TIP3   OH231391   9.824   8.187   3.059  0.4795 -0.5728  0.6044
10170TIP3    H131392   9.818   8.171   3.154  1.4721 -0.2285  0.7369
10170TIP3    H231393   9.864   8.108   3.024 -1.5262 -1.4449  0.2087
10171TIP3   OH231394   2.135   4.026   7.405  0.1446  0.2126  0.5919
10171TIP3    H131395   2.209   4.058   7.353 -1.0215  2.9466  0.4386
10171TIP3    H231396   2.074   3.992   7.341  0.5857 -0.5665  0.5790
10172TIP3   OH231397   4.178   4.200   8.998 -0.3237 -0.1633 -0.4521
10172TIP3    H131398   4.098   4.184   9.047 -0.4730  0.2842 -0.5493
10172TIP3    H231399   4.159   4.167   8.910 -0.0738 -0.9177 -0.2351
10173TIP3   OH231400   0.313   5.246   4.537  0.4692  0.0829  0.9344
10173TIP3    H131401   0.284   5.260   4.627  1.2370  1.0082  1.0453
10173TIP3    H231402   0.333   5.152   4.533 -1.2637 -0.3353  1.2046
10174TIP3   OH231403   1.718   6.138   8.643  0.0112 -0.5627  0.2678
10174TIP3    H131404   1.704   6.192   8.566 -1.1583 -2.3251 -0.8244
10174TIP3    H231405   1.798   6.173   8.683  0.4234  0.6389 -1.5027
10175TIP3   OH231406   4.330   6.815   5.704  0.1573  0.4887 -0.1625
10175TIP3    H131407   4.264   6.747   5.718 -0.7830  1.3965 -0.0427
10175TIP3    H231408   4.341   6.819   5.609  0.8104 -0.3557 -0.1380
10176TIP3   OH231409   1.411   7.102  10.433 -0.3279 -0.4143 -0.2568
10176TIP3    H131410   1.387   7.087  10.524 -0.8435  0.7137 -0.1775
10176TIP3    H231411   1.377   7.190  10.414  0.5612 -0.2689 -1.2679
10177TIP3   OH231412   9.397   8.899   7.765  0.4345 -0.1726 -0.2751
10177TIP3    H131413   9.484   8.922   7.799  0.4025  2.4686 -1.6722
10177TIP3    H231414   9.336   8.950   7.819 -0.3080 -1.9601  0.6547
10178TIP3   OH231415   9.216   1.465   3.524  0.1919 -0.1281  0.3721
10178TIP3    H131416   9.151   1.417   3.473 -0.7999  1.4486  0.0793
10178TIP3    H231417   9.167   1.501   3.598  0.7515  0.9437  0.2440
10179TIP3   OH231418   2.131   7.839   4.888  0.0214  0.3177 -0.3749
10179TIP3    H131419   2.185   7.825   4.810 -0.6769  0.7557 -0.9541
10179TIP3    H231420   2.144   7.932   4.909 -0.5684  0.4537 -0.5807
10180TIP3   OH231421   2.509   7.036   1.803 -0.2524 -0.1100  0.5923
10180TIP3    H131422   2.494   6.951   1.761 -0.3535 -0.4518  1.3005
10180TIP3    H231423   2.507   7.099   1.731 -0.5254 -0.6691  0.0986
10181TIP3   OH231424   9.129   0.215   1.570 -0.5080 -0.5699  0.1417
10181TIP3    H131425   9.113   0.289   1.628  0.6080 -0.7327  0.6805
10181TIP3    H231426   9.172   0.149   1.625  0.9778 -0.5518 -0.9228
10182TIP3   OH231427   8.761   1.316   3.283  0.1149 -0.1745 -0.3921
10182TIP3    H131428   8.801   1.244   3.332 -0.2547 -0.8273 -1.0251
10182TIP3    H231429   8.674   1.326   3.323  1.0495  1.6061  1.3440
10183TIP3   OH231430   2.359   1.675   3.339 -0.8494 -0.5553 -0.1145
10183TIP3    H131431   2.330   1.766   3.349 -0.9338 -0.6878  1.0295
10183TIP3    H231432   2.442   1.681   3.292 -1.1483  0.0680 -0.5727
10184TIP3   OH231433   8.136   4.874   5.486 -0.2929 -0.5359 -0.2521
10184TIP3    H131434   8.133   4.779   5.490 -0.9002 -0.4907  0.5118
10184TIP3    H231435   8.230   4.895   5.485 -0.1356 -1.0797  1.3078
10185TIP3   OH231436   3.888   8.980  10.774 -0.0419  0.1890  0.4578
10185TIP3    H131437   3.959   8.998  10.835 -0.0629  2.1299 -0.0097
10185TIP3    H231438   3.808   8.994  10.825 -0.0883 -0.4756  0.5770
10186TIP3   OH231439   2.973   3.226  10.591 -0.5996  0.0023  0.3064
10186TIP3    H131440   2.918   3.154  10.559  0.4233 -0.9445  0.6476
10186TIP3    H231441   2.987   3.281  10.514 -0.9826 -0.4174 -0.0723
10187TIP3   OH231442   8.289   6.390   0.486 -0.1764  0.6122  0.0707
10187TIP3    H131443   8.260   6.416   0.573 -1.3357  3.5063 -1.0572
10187TIP3    H231444   8.380   6.362   0.497 -0.5489  0.1247  2.2819
10188TIP3   OH231445   7.472   6.651   6.437  0.0194  0.7112 -0.4825
10188TIP3    H131446   7.497   6.564   6.467  1.8554  1.4324  0.2302
10188TIP3    H231447   7.464   6.703   6.517  0.0602  1.4664 -0.9541
10189TIP3   OH231448   6.360   7.689   7.153  0.2220  0.5404 -0.1327
10189TIP3    H131449   6.423   7.655   7.090  0.4402  1.1422 -0.2373
10189TIP3    H231450   6.365   7.627   7.226  2.1259  1.4554  0.5703
10190TIP3   OH231451   9.609   8.452   6.014  0.3792 -0.2404  0.2204
10190TIP3    H131452   9.546   8.525   6.021 -1.7284 -1.8227 -1.0059
10190TIP3    H231453   9.635   8.434   6.104 -0.8751  0.5507  0.7742
10191TIP3   OH231454   8.265   4.911   6.484  0.1562  0.6333  0.0362
10191TIP3    H131455   8.295   4.886   6.397 -0.8137  1.0156 -0.4202
10191TIP3    H231456   8.195   4.975   6.468 -1.5330 -0.8686  1.0032
10192TIP3   OH231457   3.710   8.083   3.880 -0.0960 -0.0466 -0.0651
10192TIP3    H131458   3.667   7.998   3.892  2.2538 -1.0566  2.4681
10192TIP3    H231459   3.639   8.146   3.881 -1.7862 -1.8349  0.0064
10193TIP3   OH231460  10.526   4.225   8.859  0.6670  0.1552  0.4367
10193TIP3    H131461  10.556   4.169   8.787  0.3388  0.6078 -0.0601
10193TIP3    H231462  10.524   4.167   8.935 -0.1704 -0.6533 -0.1681
10194TIP3   OH231463   0.977   1.929   3.805  0.0582 -0.1575 -0.2319
10194TIP3    H131464   0.996   1.952   3.714 -1.6595 -0.4664 -0.7057
10194TIP3    H231465   1.005   1.837   3.812  2.2175  0.4611  0.2296
10195TIP3   OH231466   6.648   5.698   6.076 -0.7140 -0.5858 -0.0762
10195TIP3    H131467   6.684   5.638   6.141 -1.1729 -0.9150 -0.1228
10195TIP3    H231468   6.653   5.784   6.118  0.0974 -0.6257 -0.0732
10196TIP3   OH231469   4.531   5.224   9.247 -0.0010  0.3069  0.2197
10196TIP3    H131470   4.624   5.201   9.239 -0.7699 -3.0170 -1.0203
10196TIP3    H231471   4.511   5.211   9.340  0.7270  0.8874  0.4626
10197TIP3   OH231472   1.190   8.317   2.712  0.3553 -0.0448 -0.2089
10197TIP3    H131473   1.191   8.412   2.707 -0.9720  0.0206  0.3278
10197TIP3    H231474   1.098   8.295   2.730  0.5494 -1.4423 -0.7881
10198TIP3   OH231475   9.110   7.765   0.095 -0.4281 -0.4554 -0.0671
10198TIP3    H131476   9.148   7.779   0.008  1.5659  3.2604  1.1504
10198TIP3    H231477   9.020   7.799   0.087  0.0938  0.9160 -0.4986
10199TIP3   OH231478   6.515   6.888   1.627 -0.4190  0.2014 -0.4049
10199TIP3    H131479   6.460   6.847   1.561 -0.2734  0.1190 -0.4744
10199TIP3    H231480   6.568   6.817   1.662 -1.4334 -0.0303  0.7581
10200TIP3   OH231481   9.055   4.650   0.457 -0.0251 -0.1929 -0.4427
10200TIP3    H131482   9.122   4.711   0.488 -1.2180  1.5715 -1.1246
10200TIP3    H231483   9.029   4.685   0.372 -2.6147 -0.1016  0.3042
10201TIP3   OH231484   0.952   2.219   1.936 -0.4097 -0.1809 -0.3563
10201TIP3    H131485   0.931   2.281   2.006  1.2335 -0.5170  0.4710
10201TIP3    H231486   0.870   2.173   1.920 -0.9302  0.1871  1.0784
10202TIP3   OH231487   1.686  10.337   1.433  0.2160 -0.2386 -1.3523
10202TIP3    H131488   1.712  10.246   1.449  1.7845  0.1076 -1.7393
10202TIP3    H231489   1.681  10.344   1.337 -0.1163  0.0283 -1.3170
10203TIP3   OH231490   5.595   1.791   0.186  0.2165  0.5677  0.3200
10203TIP3    H131491   5.546   1.866   0.150 -2.0262 -0.4211  1.1263
10203TIP3    H231492   5.534   1.749   0.246  1.9641 -1.0285  1.0817
10204TIP3   OH231493  10.595   7.430   1.259 -0.2374  0.5069  0.5930
10204TIP3    H131494  10.529   7.382   1.211 -1.1879  1.1108  1.2639
10204TIP3    H231495  10.653   7.466   1.192  0.7087 -1.7973  0.0690
10205TIP3   OH231496   1.189   3.044   9.709 -0.1015  0.1852 -0.0663
10205TIP3    H131497   1.203   3.138   9.708 -2.5356  0.6476  1.4737
10205TIP3    H231498   1.103   3.032   9.750  0.4625 -2.7452  0.5325
10206TIP3   OH231499   9.698   2.251   5.187 -0.2439  0.1452  0.2163
10206TIP3    H131500   9.735   2.240   5.275  1.8326  1.3803 -0.4057
10206TIP3    H231501   9.608   2.280   5.202 -0.4307 -1.1631  1.8874
10207TIP3   OH231502   0.480   2.234   7.058  0.0044  0.0743 -0.1000
10207TIP3    H131503   0.495   2.328   7.066 -0.0989  0.0540  0.3576
10207TIP3    H231504   0.400   2.227   7.006 -0.7392  0.2776  0.9858
10208TIP3   OH231505   7.476   5.143   6.591 -0.3642 -0.1986 -0.3982
10208TIP3    H131506   7.441   5.054   6.588  0.4185 -0.5033 -0.5095
10208TIP3    H231507   7.515   5.151   6.678 -0.2141 -0.0471 -0.4785
10209TIP3   OH231508   3.186   0.278   4.911  0.2538  0.0177  0.2774
10209TIP3    H131509   3.146   0.287   4.998  0.4516 -0.6024  0.4370
10209TIP3    H231510   3.278   0.257   4.929  0.4740  0.6585 -0.0850
10210TIP3   OH231511   9.884  10.568   7.614  0.0109  0.6326 -0.3755
10210TIP3    H131512   9.881  10.592   7.521 -2.4141  1.3839 -0.1680
10210TIP3    H231513   9.885  10.652   7.660  0.7952  0.2626  0.3102
10211TIP3   OH231514  10.481   1.402   9.288 -0.3036 -0.0302 -0.6035
10211TIP3    H131515  10.537   1.429   9.360  1.6009 -0.2951 -1.9303
10211TIP3    H231516  10.478   1.479   9.230 -1.5817  0.0820 -0.4206
10212TIP3   OH231517   7.363   1.682   2.905  0.2796 -0.2724 -0.2744
10212TIP3    H131518   7.355   1.763   2.854  1.1848  1.4621  2.1804
10212TIP3    H231519   7.277   1.670   2.945  0.0951 -0.6514 -0.7707
10213TIP3   OH231520   1.558  10.488   3.668  0.2247 -0.0129  0.6726
10213TIP3    H131521   1.473  10.443   3.670  0.0726  0.2648  0.5986
10213TIP3    H231522   1.606  10.446   3.597 -1.0500  1.9117 -1.4752
10214TIP3   OH231523   5.123   4.238   9.883  0.0755  0.3345  0.6311
10214TIP3    H131524   5.071   4.184   9.824  1.5793 -0.9141  0.3837
10214TIP3    H231525   5.123   4.325   9.843 -0.6556  0.0200 -0.0709
10215TIP3   OH231526   5.345   2.152   4.878  0.7805  0.0228  0.0377
10215TIP3    H131527   5.316   2.243   4.892  0.1384 -0.0460 -0.8050
10215TIP3    H231528   5.435   2.161   4.847  0.0488  0.5094 -2.1027
10216TIP3   OH231529   7.032   3.403   7.948 -0.3042 -0.5438 -0.2684
10216TIP3    H131530   6.999   3.446   7.869 -0.7868  0.9972  0.7462
10216TIP3    H231531   6.969   3.333   7.965 -1.0951  0.1264 -0.3611
10217TIP3   OH231532   4.391   7.664   7.291  0.2552 -0.4048 -0.0415
10217TIP3    H131533   4.419   7.666   7.382 -0.7339 -0.8341  0.2732
10217TIP3    H231534   4.311   7.716   7.289  0.8819  0.5874 -0.8967
10218TIP3   OH231535   9.239   7.881   1.973 -0.4329  0.2872 -0.3848
10218TIP3    H131536   9.221   7.941   1.900 -0.8332 -0.4756 -0.9223
10218TIP3    H231537   9.267   7.799   1.930  0.8083  0.2961  0.3453
10219TIP3   OH231538   4.418   1.779   4.443  0.4892  0.0676 -0.6180
10219TIP3    H131539   4.483   1.795   4.512 -1.6389  0.4941  1.4101
10219TIP3    H231540   4.411   1.684   4.439 -1.4305 -0.0182  1.9777
10220TIP3   OH231541   5.016   4.746   5.536  0.0089 -0.1204 -0.1096
10220TIP3    H131542   4.949   4.709   5.478  0.6596 -3.4649  1.0965
10220TIP3    H231543   5.059   4.812   5.482 -0.7713 -1.5973 -2.7459
10221TIP3   OH231544   4.677   3.166   7.280  0.0057 -0.3105 -0.4151
10221TIP3    H131545   4.660   3.256   7.307 -0.0558 -0.2430 -0.6760
10221TIP3    H231546   4.590   3.129   7.265  0.0529 -0.2533 -0.8239
10222TIP3   OH231547   2.703   9.674   3.197 -0.2145  0.4035 -0.3654
10222TIP3    H131548   2.656   9.757   3.209  0.0981  0.7784 -1.5259
10222TIP3    H231549   2.646   9.621   3.142  0.2350  0.4422 -0.8810
10223TIP3   OH231550   7.195   7.271   1.717  0.1120 -0.5992  0.2345
10223TIP3    H131551   7.252   7.270   1.794 -0.2868 -1.6486  0.5374
10223TIP3    H231552   7.200   7.181   1.683  0.6747 -0.0375 -1.2703
10224TIP3   OH231553  10.237   5.461   4.873 -1.1663 -0.0540 -0.4755
10224TIP3    H131554  10.187   5.379   4.877 -1.5609  0.2086 -0.0600
10224TIP3    H231555  10.171   5.529   4.864 -0.7936  0.1579 -1.8347
10225TIP3   OH231556   7.923   9.344   8.532  0.2431  0.1623 -0.1507
10225TIP3    H131557   7.944   9.339   8.439  2.8082 -1.0704  0.3914
10225TIP3    H231558   8.005   9.321   8.576 -0.5932  1.7291  2.4503
10226TIP3   OH231559   9.547   1.247   0.080  0.3860  0.0581 -0.3700
10226TIP3    H131560   9.558   1.292   0.163  1.6862  0.4468 -0.7285
10226TIP3    H231561   9.452   1.244   0.067  0.2183  1.8131  0.1396
10227TIP3   OH231562   7.385   4.098   0.791 -0.0274 -0.2882 -0.4748
10227TIP3    H131563   7.321   4.168   0.780  0.2635  0.2233  0.8323
10227TIP3    H231564   7.463   4.141   0.825 -0.1157 -1.3016  1.1646
10228TIP3   OH231565   7.286   7.966   3.914 -0.1881 -0.4098 -0.6339
10228TIP3    H131566   7.268   8.051   3.954  0.6458  0.5728 -2.2011
10228TIP3    H231567   7.229   7.964   3.837  1.1703 -0.3873 -1.6777
10229TIP3   OH231568   2.058   1.395   0.700  0.0880 -0.1892  0.3789
10229TIP3    H131569   2.108   1.462   0.747 -1.4571  0.3810  1.3042
10229TIP3    H231570   2.000   1.358   0.766  0.7541 -2.3420 -0.1674
10230TIP3   OH231571  10.796   2.063   2.629  0.5237 -0.7665 -0.5309
10230TIP3    H131572  10.797   1.967   2.633  0.2037 -0.8254 -1.5357
10230TIP3    H231573  10.710   2.084   2.592  0.6322 -0.0985 -0.3987
10231TIP3   OH231574   2.392  10.817   4.300  0.1670  0.0436  0.0756
10231TIP3    H131575   2.488  10.823   4.298  0.0884  2.1872  0.3640
10231TIP3    H231576   2.368  10.858   4.384 -0.9795 -1.2233  0.3895
10232TIP3   OH231577   3.442   7.990   4.538  0.7278  0.2732  0.0650
10232TIP3    H131578   3.432   7.941   4.620 -0.4033  1.1112  0.4600
10232TIP3    H231579   3.428   7.925   4.469  2.6098 -0.6440  0.4779
10233TIP3   OH231580   4.287   4.943   6.532 -0.3155 -0.1381  0.4020
10233TIP3    H131581   4.243   5.022   6.503 -0.4612 -0.4848 -0.3523
10233TIP3    H231582   4.226   4.901   6.592 -0.5211 -0.0267  0.2695
10234TIP3   OH231583   1.171   0.510   7.953  0.0570 -0.6347  0.1689
10234TIP3    H131584   1.149   0.486   8.043 -1.1048  1.0849  0.3716
10234TIP3    H231585   1.186   0.604   7.956 -0.9091 -0.3956 -1.6120
10235TIP3   OH231586   7.075  10.844   6.882 -0.1086 -0.0002 -0.0277
10235TIP3    H131587   7.117  10.903   6.945  0.8236 -0.2794 -0.3650
10235TIP3    H231588   7.126  10.856   6.802 -0.3986 -0.6944 -0.3206
10236TIP3   OH231589   3.687   9.469  10.060  0.4667 -0.2589  0.2957
10236TIP3    H131590   3.696   9.471   9.965  1.3192  1.7905  0.3577
10236TIP3    H231591   3.593   9.472  10.076  0.3379  0.9924 -0.5326
10237TIP3   OH231592   3.185   2.404  10.794 -0.6226 -0.3132 -0.1162
10237TIP3    H131593   3.090   2.417  10.793 -1.0131 -1.4784  4.3011
10237TIP3    H231594   3.219   2.480  10.840  0.7065  0.1310 -1.7282
10238TIP3   OH231595  10.482   6.762   9.409 -0.5301 -0.6092  0.6039
10238TIP3    H131596  10.501   6.834   9.349  1.8573 -0.3570  1.5472
10238TIP3    H231597  10.427   6.802   9.477  1.1042  0.5183  1.3381
10239TIP3   OH231598   7.217   1.724   7.191 -0.5934  0.5318 -1.2198
10239TIP3    H131599   7.147   1.668   7.222  1.0102 -2.3724 -2.4220
10239TIP3    H231600   7.175   1.782   7.127 -2.0102 -0.6062 -1.3639
10240TIP3   OH231601   5.237   7.349   3.490 -0.5906  0.1993 -0.4021
10240TIP3    H131602   5.296   7.276   3.472  1.4609  1.2008  1.7706
10240TIP3    H231603   5.243   7.405   3.412  0.1988 -0.4392 -0.8069
10241TIP3   OH231604   2.081  10.222   7.572  0.5369 -0.5992  0.5258
10241TIP3    H131605   2.093  10.264   7.486 -1.1361  2.9112  1.8047
10241TIP3    H231606   1.999  10.174   7.564 -0.2071  0.6412  0.3966
10242TIP3   OH231607   4.494  10.098   5.997 -0.5716 -0.2291 -0.4275
10242TIP3    H131608   4.408  10.058   6.010 -0.7713  0.4660  0.4474
10242TIP3    H231609   4.505  10.156   6.072 -0.5090  1.7499 -1.8896
10243TIP3   OH231610   0.284  10.298   7.132 -0.1514 -0.1948 -0.1481
10243TIP3    H131611   0.238  10.366   7.181  0.9252  0.7271 -0.3838
10243TIP3    H231612   0.285  10.223   7.191  1.5856  1.0502  1.5320
10244TIP3   OH231613   5.062   0.574   5.237  0.0741  0.8257 -0.0399
10244TIP3    H131614   5.024   0.507   5.181 -2.2116  3.1102 -1.3835
10244TIP3    H231615   4.995   0.591   5.304 -0.1427  2.8979 -0.7238
10245TIP3   OH231616   8.198   3.307   2.555  0.1935 -0.5281 -0.2087
10245TIP3    H131617   8.149   3.227   2.576 -1.7883  0.6770  0.0128
10245TIP3    H231618   8.243   3.329   2.637  0.1407 -1.0123 -0.0427
10246TIP3   OH231619   7.576  10.256   7.651  0.5358  0.5057  0.4049
10246TIP3    H131620   7.560  10.164   7.670  1.0641  0.1418 -0.8123
10246TIP3    H231621   7.671  10.266   7.655  0.9169  0.0020 -3.3612
10247TIP3   OH231622   2.291   9.159   6.400 -0.1759 -0.1144 -0.7829
10247TIP3    H131623   2.338   9.081   6.428 -0.9336 -0.3863 -0.2584
10247TIP3    H231624   2.281   9.211   6.479  0.2607  0.4940 -1.1158
10248TIP3   OH231625   1.117   7.699   9.834 -0.1326  0.1664  0.7278
10248TIP3    H131626   1.082   7.727   9.750  1.5149  0.8269  0.2299
10248TIP3    H231627   1.064   7.622   9.857  1.3918 -2.0813 -2.4866
10249TIP3   OH231628   9.832   3.723   4.384 -0.2357  0.3534 -0.7370
10249TIP3    H131629   9.850   3.714   4.290 -0.0689  0.3869 -0.7080
10249TIP3    H231630   9.827   3.817   4.399 -1.0769  0.3409 -0.8651
10250TIP3   OH231631   0.817   4.355   0.136  0.2973  0.2327 -0.5974
10250TIP3    H131632   0.794   4.369   0.228  0.0073  0.6975 -0.7341
10250TIP3    H231633   0.844   4.442   0.105 -0.4241  0.2641 -1.1708
10251TIP3   OH231634   8.746   5.349   1.810 -0.2635  0.1134 -0.3971
10251TIP3    H131635   8.822   5.319   1.861  0.1321 -0.5514 -1.3354
10251TIP3    H231636   8.714   5.425   1.857  1.2570  0.6727 -0.1955
10252TIP3   OH231637   0.982   0.909  10.349  0.0442 -0.3454 -0.0193
10252TIP3    H131638   1.047   0.859  10.299  0.8546 -0.4708  1.1109
10252TIP3    H231639   0.949   0.846  10.413 -0.7091 -0.0838 -0.1468
10253TIP3   OH231640   1.748   7.730   4.682  0.0106 -0.4968  1.0923
10253TIP3    H131641   1.736   7.646   4.638  1.1116 -0.7328  1.2088
10253TIP3    H231642   1.684   7.788   4.641 -1.8775 -1.7591  2.0753
10254TIP3   OH231643   2.392   4.194   5.241 -0.2543  0.0685  0.4947
10254TIP3    H131644   2.405   4.167   5.151  1.3703 -0.3992  0.8283
10254TIP3    H231645   2.298   4.204   5.251 -0.4035  1.1189 -1.5201
10255TIP3   OH231646   7.188   1.932   9.138  0.0314  0.0002 -0.5471
10255TIP3    H131647   7.140   1.924   9.056 -1.5063  0.9904  0.1917
10255TIP3    H231648   7.128   1.979   9.196  0.6926 -1.4279  1.4306
10256TIP3   OH231649   1.173   8.499   2.307  0.0797 -0.2716 -0.1886
10256TIP3    H131650   1.223   8.517   2.386 -1.0380  0.4954  0.3751
10256TIP3    H231651   1.191   8.407   2.288  1.6823 -0.0200 -0.0256
10257TIP3   OH231652   8.584   2.702   1.247 -0.2494  0.3287 -0.6311
10257TIP3    H131653   8.594   2.642   1.321  0.6375  1.6712  0.3828
10257TIP3    H231654   8.607   2.788   1.282 -0.5128  1.1269 -2.2971
10258TIP3   OH231655   2.719   7.822   5.653  0.4513 -0.1703 -0.2101
10258TIP3    H131656   2.763   7.747   5.611 -0.4677 -0.4675 -0.6806
10258TIP3    H231657   2.664   7.782   5.720  0.8083  0.1919  0.3066
10259TIP3   OH231658   6.896   5.439   4.220 -0.4471  0.1282  0.4690
10259TIP3    H131659   6.941   5.371   4.171 -0.7088  0.0301  0.3610
10259TIP3    H231660   6.804   5.412   4.220 -0.7648  1.1371 -0.6918
10260TIP3   OH231661   1.264   0.852   2.106  0.0735 -0.2088 -0.0167
10260TIP3    H131662   1.239   0.814   2.190  0.2576 -0.1933  0.0459
10260TIP3    H231663   1.342   0.803   2.079 -0.2006 -0.4666 -0.3575
10261TIP3   OH231664   2.254  10.021   0.004  0.1661  0.0785  0.1551
10261TIP3    H131665   2.170  10.065   0.016  0.1537 -0.2681  1.4608
10261TIP3    H231666   2.297  10.071  -0.066 -0.4057  1.3464  0.6712
10262TIP3   OH231667   3.712   8.867   6.440 -0.2932 -0.2933  0.2688
10262TIP3    H131668   3.690   8.914   6.359  1.3831  0.9147  0.4548
10262TIP3    H231669   3.770   8.927   6.487  1.3311 -2.2507  0.8990
10263TIP3   OH231670   7.751   9.100   5.035  0.0995 -0.5943 -0.0147
10263TIP3    H131671   7.797   9.151   5.101 -0.0339  1.2842 -1.2857
10263TIP3    H231672   7.729   9.018   5.079 -0.1581  0.6383  2.3034
10264TIP3   OH231673   4.439   3.845   0.203 -0.2318 -0.1986 -0.5686
10264TIP3    H131674   4.401   3.881   0.283  0.6620 -0.8126  0.1458
10264TIP3    H231675   4.374   3.865   0.135 -1.1443  0.0637  0.3517
10265TIP3   OH231676   6.115   5.343  10.307 -0.6033 -0.3940  0.4713
10265TIP3    H131677   6.198   5.322  10.264 -0.5926 -0.2013  0.3951
10265TIP3    H231678   6.050   5.289  10.261 -0.2063 -2.2967  2.0433
10266TIP3   OH231679   5.781   9.072   3.800  0.1366  0.2381 -0.0014
10266TIP3    H131680   5.797   8.981   3.778  0.4460  0.3708 -0.3373
10266TIP3    H231681   5.843   9.092   3.870 -0.2039  0.0814  0.3506
10267TIP3   OH231682   3.778   4.791   4.164  0.3309  0.2614  0.3483
10267TIP3    H131683   3.847   4.836   4.213  1.3254 -2.4903  1.6782
10267TIP3    H231684   3.697   4.820   4.207  0.8123  1.5867  0.4295
10268TIP3   OH231685  10.581   2.226   9.450 -0.0749 -0.0387 -0.0334
10268TIP3    H131686  10.643   2.270   9.392 -0.2179 -1.9207 -1.7209
10268TIP3    H231687  10.627   2.148   9.480 -1.1224 -0.7354 -0.1942
10269TIP3   OH231688   9.651   8.565  10.445 -0.5712  0.6536 -0.1855
10269TIP3    H131689   9.582   8.575  10.510  0.8588  0.0871  1.4839
10269TIP3    H231690   9.611   8.513  10.375 -1.6545 -0.2311  1.0555
10270TIP3   OH231691   9.616   4.359   4.748  0.2991  0.0927 -0.6066
10270TIP3    H131692   9.709   4.341   4.764  0.0296 -0.4215  0.4724
10270TIP3    H231693   9.599   4.323   4.661  1.0517 -0.0050 -0.7230
10271TIP3   OH231694   7.416   4.803   2.856 -0.6120 -0.6527 -0.2748
10271TIP3    H131695   7.446   4.723   2.814 -1.2913 -0.7898 -0.5031
10271TIP3    H231696   7.379   4.856   2.786 -0.2839 -0.1944 -0.1046
10272TIP3   OH231697   4.755   0.861   0.800 -0.0915 -0.1574  0.1824
10272TIP3    H131698   4.679   0.913   0.774 -0.3562 -0.5456  0.1713
10272TIP3    H231699   4.817   0.871   0.727  0.1399  0.6845  0.4820
10273TIP3   OH231700   2.517   9.119   4.591  0.1347 -1.1196  0.0774
10273TIP3    H131701   2.592   9.162   4.632 -0.6011  1.1429 -0.8145
10273TIP3    H231702   2.537   9.118   4.498 -0.9521 -0.3372 -0.1945
10274TIP3   OH231703   0.314   5.894   9.899 -0.2600  0.6317 -0.3158
10274TIP3    H131704   0.391   5.844   9.926  0.1310  1.3598 -0.0593
10274TIP3    H231705   0.245   5.829   9.892  0.8228 -0.3943 -2.5233
10275TIP3   OH231706   3.943   6.834   3.323 -0.0267 -0.0737 -0.2295
10275TIP3    H131707   3.871   6.789   3.278 -2.5907  0.9025  2.5126
10275TIP3    H231708   3.963   6.909   3.267 -1.4410 -0.1705 -0.9187
10276TIP3   OH231709   5.997   1.097   1.834  0.1776  0.1389 -0.4177
10276TIP3    H131710   6.051   1.133   1.905  0.7114 -1.0542 -0.1925
10276TIP3    H231711   6.060   1.063   1.771 -0.0489 -4.3076  1.3495
10277TIP3   OH231712  10.367   3.603   2.381  0.8520  0.2701 -0.1446
10277TIP3    H131713  10.296   3.583   2.321  1.9044 -5.2473 -0.0718
10277TIP3    H231714  10.444   3.615   2.325  0.7222  1.8031 -0.0412
10278TIP3   OH231715   0.023   9.464   3.723 -0.0610  0.0712 -0.1603
10278TIP3    H131716   0.021   9.548   3.769 -0.3807  0.7087 -1.3207
10278TIP3    H231717  -0.068   9.445   3.702  0.1908  0.4793 -1.7346
10279TIP3   OH231718   6.251   3.207   7.126  0.4729 -0.0405  0.3320
10279TIP3    H131719   6.336   3.164   7.119 -0.2731 -1.3539 -2.5962
10279TIP3    H231720   6.257   3.281   7.065 -0.4837 -0.1875  0.0427
10280TIP3   OH231721   1.031   1.928   6.453  0.1277  0.4622 -0.8309
10280TIP3    H131722   0.939   1.947   6.472  0.7152  2.7554  0.0553
10280TIP3    H231723   1.075   1.940   6.537  1.1029 -1.8759 -0.9483
10281TIP3   OH231724   3.954   1.097   0.719 -0.3245  0.6584 -0.0074
10281TIP3    H131725   3.982   1.092   0.628  0.4233  0.5013  0.2202
10281TIP3    H231726   4.014   1.039   0.766 -0.1504  1.3979  0.7096
10282TIP3   OH231727   3.589   5.996   0.200  0.4799  0.4862  0.6246
10282TIP3    H131728   3.680   5.996   0.171  1.3247 -0.2578  3.0390
10282TIP3    H231729   3.554   6.080   0.172  1.5826  0.3951 -1.1903
10283TIP3   OH231730   6.661   1.378  10.524 -0.0118 -0.1115  0.0447
10283TIP3    H131731   6.597   1.313  10.495 -0.1465  0.6233 -1.3942
10283TIP3    H231732   6.744   1.330  10.525  0.2512  0.0877 -2.9492
10284TIP3   OH231733   8.237   6.226   2.298  0.8346 -0.2033 -0.4156
10284TIP3    H131734   8.259   6.257   2.386  0.6886  0.5370 -0.6261
10284TIP3    H231735   8.282   6.287   2.239  0.1782 -0.1095 -0.8461
10285TIP3   OH231736   1.512   5.777  10.438  0.0092 -0.1849  0.2171
10285TIP3    H131737   1.428   5.822  10.430 -0.6822 -1.4343  0.2051
10285TIP3    H231738   1.525   5.768  10.532 -0.4766 -1.0459  0.2151
10286TIP3   OH231739   2.980   2.007   5.762 -1.1634 -0.0650  0.4607
10286TIP3    H131740   3.048   2.054   5.810 -0.0932  0.1471 -1.1878
10286TIP3    H231741   3.008   1.916   5.765 -0.8577  0.0055 -0.1052
10287TIP3   OH231742   8.621   7.332   4.888  0.0895  0.3694  0.6898
10287TIP3    H131743   8.630   7.301   4.979 -2.2992 -1.4590  0.3906
10287TIP3    H231744   8.579   7.260   4.842 -0.6927  2.0626 -1.4147
10288TIP3   OH231745   4.527   9.633  10.197  0.1211  0.1592 -0.0798
10288TIP3    H131746   4.455   9.580  10.232  0.6270 -0.2182  0.4003
10288TIP3    H231747   4.489   9.721  10.188 -0.8030 -0.3062 -1.1277
10289TIP3   OH231748   1.640   5.809   2.747 -0.2266 -0.0527 -0.3226
10289TIP3    H131749   1.649   5.875   2.677  0.0866 -0.2524 -0.4732
10289TIP3    H231750   1.565   5.839   2.798  0.6368  1.0971  0.3343
10290TIP3   OH231751   6.937   4.385   8.969  0.3504 -0.2279 -0.2336
10290TIP3    H131752   6.998   4.411   8.900 -1.4081 -0.4313 -1.9421
10290TIP3    H231753   6.886   4.464   8.988  1.7924  0.2594  1.9936
10291TIP3   OH231754   6.014   4.153   3.393 -0.2320 -0.0977  0.1644
10291TIP3    H131755   6.107   4.159   3.414 -0.5193 -0.0740  1.5128
10291TIP3    H231756   5.995   4.059   3.393 -0.7745 -0.0817  2.7863
10292TIP3   OH231757   9.044   1.369   1.318 -0.4509  0.0510 -0.1421
10292TIP3    H131758   9.104   1.333   1.252 -2.0521  0.8588 -2.1515
10292TIP3    H231759   8.979   1.300   1.331 -0.1882 -0.0722  0.5801
10293TIP3   OH231760   1.814   5.311   3.707  0.3993  0.7380 -0.0009
10293TIP3    H131761   1.724   5.342   3.707  0.3348  0.5671 -0.8884
10293TIP3    H231762   1.867   5.391   3.699  0.4046  0.9722  1.8551
10294TIP3   OH231763   2.451   3.755   5.201  0.7298  0.3398 -0.6428
10294TIP3    H131764   2.526   3.813   5.188  2.2200 -1.5310 -0.8735
10294TIP3    H231765   2.439   3.712   5.116 -0.5224  0.4967 -0.5605
10295TIP3   OH231766   1.091   2.926   3.671 -0.3510 -0.6274  0.2560
10295TIP3    H131767   1.011   2.977   3.658 -0.0927 -0.4284 -0.5748
10295TIP3    H231768   1.083   2.853   3.610  0.5954 -0.0082 -0.6401
10296TIP3   OH231769   2.190   3.116   2.715 -0.3955 -0.6243  0.4584
10296TIP3    H131770   2.152   3.203   2.727  0.3852 -0.3197  0.7991
10296TIP3    H231771   2.159   3.066   2.790 -0.5478 -0.5331  0.4564
10297TIP3   OH231772   2.869   6.185   2.229  0.3423 -0.0834  0.2769
10297TIP3    H131773   2.797   6.237   2.263  0.0324 -1.2357  1.4706
10297TIP3    H231774   2.828   6.128   2.164  0.1402 -0.7901  1.0088
10298TIP3   OH231775   5.640   5.324   9.400 -0.2739 -0.0706  0.2411
10298TIP3    H131776   5.690   5.245   9.421 -0.6067 -0.4072 -0.2128
10298TIP3    H231777   5.704   5.384   9.362 -0.2691 -0.6397 -0.6919
10299TIP3   OH231778  10.345   2.767   8.814 -0.5680  0.1489  0.5510
10299TIP3    H131779  10.284   2.774   8.887 -0.4567 -1.7942  0.8779
10299TIP3    H231780  10.292   2.789   8.737 -1.3022 -0.0910  0.9773
10300TIP3   OH231781   5.730   2.600   7.732 -0.1825 -0.1656  0.3628
10300TIP3    H131782   5.784   2.529   7.767 -0.9097 -1.1627 -0.4819
10300TIP3    H231783   5.750   2.675   7.788  1.4942 -0.7074  0.5460
10301TIP3   OH231784   1.027   8.263   8.194 -0.0233 -0.4861  0.4096
10301TIP3    H131785   0.951   8.271   8.252  0.9437  2.2546  1.4523
10301TIP3    H231786   1.006   8.317   8.118  1.3860  1.5230  1.3746
10302TIP3   OH231787   1.493   4.590  10.853  0.3058  0.2704  0.1081
10302TIP3    H131788   1.576   4.544  10.869 -0.1239 -0.6983 -0.3554
10302TIP3    H231789   1.503   4.629  10.766  0.6754  1.0850  0.5074
10303TIP3   OH231790   5.662  10.405   8.075 -0.1124 -0.3060  0.4718
10303TIP3    H131791   5.583  10.439   8.116 -0.4556 -1.1370  0.5302
10303TIP3    H231792   5.693  10.336   8.134  0.9272  0.3260  0.6870
10304TIP3   OH231793   1.584   5.459   3.734  0.0147 -0.3137 -0.4236
10304TIP3    H131794   1.594   5.521   3.661 -1.4505 -1.5350 -1.7547
10304TIP3    H231795   1.493   5.467   3.760  0.8604  1.2506  2.4775
10305TIP3   OH231796   7.356  10.139   3.032  0.0156  0.0226  0.9170
10305TIP3    H131797   7.305  10.171   2.958  0.8579  0.3512  0.4675
10305TIP3    H231798   7.392  10.218   3.074  2.7881 -0.2409 -0.6890
10306TIP3   OH231799   5.508   2.507   8.273 -0.0400  0.1001  0.2914
10306TIP3    H131800   5.587   2.469   8.310 -0.0983  0.2212  0.5457
10306TIP3    H231801   5.539   2.560   8.199  0.2773  1.2118  1.1818
10307TIP3   OH231802   0.760   9.132   9.900 -0.5096 -0.0781  0.6496
10307TIP3    H131803   0.848   9.167   9.912 -1.1202  1.4650  0.8597
10307TIP3    H231804   0.772   9.037   9.899  0.9748  0.0440  2.1187
10308TIP3   OH231805   4.616   6.326   7.238 -0.4163  0.2653 -0.1874
10308TIP3    H131806   4.572   6.406   7.208 -2.6347 -0.9022 -0.3128
10308TIP3    H231807   4.637   6.279   7.157 -0.8097 -0.0864 -0.0933
10309TIP3   OH231808  10.557   4.989   9.861 -0.3117  0.2078 -0.4283
10309TIP3    H131809  10.618   4.975   9.788 -1.4684 -2.3750 -1.0080
10309TIP3    H231810  10.576   4.918   9.922 -1.4072  0.5374  0.3318
10310TIP3   OH231811   8.965   3.765   1.682 -0.0122  0.6191  0.3052
10310TIP3    H131812   8.942   3.856   1.666  0.9565  0.9118  0.5600
10310TIP3    H231813   8.903   3.737   1.750  1.4181  1.9046  2.2333
10311TIP3   OH231814   1.384   1.140   3.353 -0.1729 -0.2515 -0.5756
10311TIP3    H131815   1.377   1.045   3.363 -0.3464 -0.2771 -0.9142
10311TIP3    H231816   1.301   1.174   3.385 -0.4732 -0.2866 -1.2827
10312TIP3   OH231817   2.812   3.562   9.761 -0.1656 -0.6104  0.0851
10312TIP3    H131818   2.805   3.565   9.856 -2.7732  0.4531 -0.0622
10312TIP3    H231819   2.881   3.625   9.739 -0.2112 -0.1560  1.2057
10313TIP3   OH231820   9.776   6.602   7.400 -0.1739 -0.2968 -0.6971
10313TIP3    H131821   9.851   6.652   7.369  2.9299 -3.7781  0.5321
10313TIP3    H231822   9.781   6.519   7.353 -2.6091 -1.1040  0.2928
10314TIP3   OH231823   7.565   4.782   4.783 -0.9354  0.0240  0.3698
10314TIP3    H131824   7.587   4.865   4.742  0.8764  0.1693  1.5209
10314TIP3    H231825   7.624   4.776   4.858 -0.5103 -2.6322 -0.0769
10315TIP3   OH231826   9.415   4.664   9.306 -0.2659  0.4515  0.5568
10315TIP3    H131827   9.384   4.576   9.283  1.4486  0.1254 -0.7248
10315TIP3    H231828   9.370   4.685   9.388 -1.4043 -1.2335  0.4089
10316TIP3   OH231829   3.818   2.311   7.295 -0.0129 -0.2863  0.6930
10316TIP3    H131830   3.889   2.267   7.249  1.5917  1.0876  1.7442
10316TIP3    H231831   3.782   2.244   7.353 -1.1220 -1.6280 -1.4272
10317TIP3   OH231832   7.529   9.892   1.939  0.4760 -0.3494  0.2624
10317TIP3    H131833   7.577   9.824   1.893 -2.3888 -2.5464  0.2611
10317TIP3    H231834   7.463   9.922   1.876  0.3541  0.9589  0.9742
10318TIP3   OH231835  10.424   3.062   5.365  0.6945  0.2123 -0.3858
10318TIP3    H131836  10.477   3.131   5.324  2.5698 -1.1402 -0.3298
10318TIP3    H231837  10.439   2.985   5.311  0.4861 -0.7492  0.9013
10319TIP3   OH231838  10.788   1.023   2.105  0.4919 -0.1967  0.1129
10319TIP3    H131839  10.835   1.061   2.030 -1.6163  0.8311 -0.7771
10319TIP3    H231840  10.806   1.084   2.177 -0.9588  1.2868 -0.7130
10320TIP3   OH231841   8.011   3.240   6.036 -0.3700 -0.3831 -0.1025
10320TIP3    H131842   7.925   3.215   6.071 -0.1320 -1.4279 -0.2180
10320TIP3    H231843   8.013   3.200   5.949  0.9634 -2.0323  0.6253
10321TIP3   OH231844   7.046   4.082   8.729  0.4452 -0.1007 -0.1590
10321TIP3    H131845   7.010   4.001   8.765 -2.5689  0.1557 -2.2807
10321TIP3    H231846   7.124   4.055   8.682 -0.6734 -1.8696 -1.0908
10322TIP3   OH231847   6.306  10.854   7.219 -0.4044  0.1385 -0.0087
10322TIP3    H131848   6.345  10.940   7.206  0.6330 -0.0783  1.4025
10322TIP3    H231849   6.241  10.846   7.149 -0.7449  2.1744  0.0146
10323TIP3   OH231850   8.210   8.747   1.223 -0.2269 -0.4306 -0.2337
10323TIP3    H131851   8.241   8.730   1.134 -0.6918  0.0444 -0.5018
10323TIP3    H231852   8.267   8.696   1.280  0.2412 -0.5323 -0.7905
10324TIP3   OH231853  10.272   9.077   2.313  0.4659 -0.1260 -0.0887
10324TIP3    H131854  10.295   9.164   2.344  1.8678 -0.7880  0.8164
10324TIP3    H231855  10.252   9.027   2.392 -1.4947 -0.3431 -0.6617
10325TIP3   OH231856   4.613   8.561   1.252 -0.4675 -0.1205  0.1259
10325TIP3    H131857   4.584   8.489   1.197  3.0517 -0.7398 -1.1726
10325TIP3    H231858   4.615   8.637   1.194 -1.5046  0.4441  0.7861
10326TIP3   OH231859   4.534   8.067   1.873 -0.3588  0.2228  0.0992
10326TIP3    H131860   4.469   8.112   1.820 -1.4370  0.2081  1.3676
10326TIP3    H231861   4.590   8.137   1.907 -1.3913  0.5346  1.2129
10327TIP3   OH231862   2.970   3.281   1.292  0.4568  0.1039  0.4787
10327TIP3    H131863   3.056   3.301   1.330 -0.4004  2.4252  1.3836
10327TIP3    H231864   2.909   3.338   1.340 -1.7784 -2.2105  0.5780
10328TIP3   OH231865  10.571   4.548   1.730  0.2661 -0.3777 -0.2218
10328TIP3    H131866  10.625   4.625   1.711 -0.8468  0.3258 -0.5818
10328TIP3    H231867  10.624   4.474   1.699  0.0838  0.4441 -2.7392
10329TIP3   OH231868  10.523   3.992  10.662  0.5603 -0.4967  0.4290
10329TIP3    H131869  10.546   3.924  10.599  0.4023 -0.1579  0.0012
10329TIP3    H231870  10.431   4.010  10.646  0.6760  0.0376  0.3183
10330TIP3   OH231871   2.419   9.067   3.599  0.2606 -0.2317 -0.4024
10330TIP3    H131872   2.388   8.995   3.653  1.2462 -0.6299 -0.3495
10330TIP3    H231873   2.427   9.030   3.511  0.4023 -0.0830 -0.4530
10331TIP3   OH231874   0.796   1.957   5.050  0.5599  0.0775  0.5222
10331TIP3    H131875   0.881   1.972   5.008 -0.4489  1.0521 -1.2835
10331TIP3    H231876   0.740   1.922   4.980 -0.7681  0.2723  1.4529
10332TIP3   OH231877   2.540   7.405   0.536  0.1458 -0.5155 -0.1656
10332TIP3    H131878   2.568   7.313   0.540 -1.9454 -1.2142 -0.1085
10332TIP3    H231879   2.586   7.446   0.609  0.1231 -1.8341  0.6383
10333TIP3   OH231880   1.945   0.521   8.507 -0.1545 -0.2160  0.1551
10333TIP3    H131881   1.908   0.608   8.491  1.3034  0.3612 -0.2879
10333TIP3    H231882   2.011   0.511   8.439  0.2545 -1.3418  0.6994
10334TIP3   OH231883   3.142   9.462   0.524 -0.1785  0.3109  0.3902
10334TIP3    H131884   3.217   9.421   0.483  0.0661 -0.8954  1.9448
10334TIP3    H231885   3.067   9.411   0.494  0.0608 -0.9628  1.8054
10335TIP3   OH231886   2.173   4.080   2.847 -0.1048  0.4858 -0.5739
10335TIP3    H131887   2.096   4.048   2.799 -0.5010  0.7663 -0.1346
10335TIP3    H231888   2.240   4.014   2.831 -0.3517  0.3668 -1.1789
10336TIP3   OH231889   0.864   3.518   2.929  0.2592  0.2360 -0.3362
10336TIP3    H131890   0.812   3.440   2.910 -2.0305  1.5171  0.3531
10336TIP3    H231891   0.850   3.534   3.022  0.2051  1.8013 -0.5902
10337TIP3   OH231892   2.581   5.517   3.571 -0.1542  0.6262 -0.1030
10337TIP3    H131893   2.486   5.526   3.574 -0.3851 -1.3172  0.1655
10337TIP3    H231894   2.614   5.590   3.623 -1.5026  1.1779  0.0356
10338TIP3   OH231895   1.096   9.421   0.511  0.2326  0.5151  0.3666
10338TIP3    H131896   1.146   9.430   0.592 -1.2574  1.2142  1.2317
10338TIP3    H231897   1.014   9.466   0.527 -0.9155 -1.0094 -0.8544
10339TIP3   OH231898   3.072   2.063   7.249 -0.3250 -0.5623  0.4925
10339TIP3    H131899   3.153   2.013   7.244 -0.8810 -1.3828 -0.9482
10339TIP3    H231900   3.010   2.004   7.291 -0.6390 -0.6031 -0.0216
10340TIP3   OH231901   9.355   3.799  10.841 -0.2291  0.3471 -0.3065
10340TIP3    H131902   9.362   3.881  10.791  1.8856  0.0062 -0.6606
10340TIP3    H231903   9.390   3.732  10.782 -2.1274 -0.9070 -0.1082
10341TIP3   OH231904   7.519   2.702   3.136 -0.4165  0.2242  0.1444
10341TIP3    H131905   7.483   2.620   3.103 -0.6386  1.0609 -1.8173
10341TIP3    H231906   7.594   2.676   3.189 -1.5637 -1.3275  1.0637
10342TIP3   OH231907  10.588   8.204   6.825 -0.0221 -0.0979 -0.0450
10342TIP3    H131908  10.558   8.119   6.858 -0.6602 -0.1956 -0.8677
10342TIP3    H231909  10.523   8.230   6.760  1.8675 -0.5361 -2.2318
10343TIP3   OH231910   6.245   9.347  10.431 -0.2629 -0.0135 -0.0228
10343TIP3    H131911   6.188   9.410  10.475 -0.1768 -0.4436  0.7327
10343TIP3    H231912   6.194   9.316  10.356 -0.2068  1.1197 -0.5484
10344TIP3   OH231913   9.568   4.676   6.695 -0.4120 -0.3687 -0.3370
10344TIP3    H131914   9.565   4.603   6.757 -0.1516  0.4896  0.7162
10344TIP3    H231915   9.478   4.708   6.692 -0.2374  0.2082  0.3716
10345TIP3   OH231916  10.763   5.584  10.199 -0.2017 -0.1589 -0.4405
10345TIP3    H131917  10.685   5.531  10.180 -0.7359  0.9807 -1.5819
10345TIP3    H231918  10.819   5.573  10.123  1.2743 -1.7899  0.8177
10346TIP3   OH231919   9.447   8.247   1.696 -0.2020  0.2795 -0.4555
10346TIP3    H131920   9.487   8.256   1.783  1.4937 -1.1737 -1.0355
10346TIP3    H231921   9.392   8.325   1.688  1.3798  1.6457  1.0083
10347TIP3   OH231922   0.867   0.166   7.771 -0.1323 -0.3783  0.1703
10347TIP3    H131923   0.824   0.183   7.687  0.7753  0.3402 -0.1682
10347TIP3    H231924   0.897   0.076   7.764  0.6996 -0.0596 -0.6480
10348TIP3   OH231925   5.183   9.433   6.838 -0.1927  0.1483  0.4233
10348TIP3    H131926   5.122   9.477   6.779  0.1832  2.6152  1.7515
10348TIP3    H231927   5.150   9.452   6.926 -0.0935 -2.4562  1.1073
10349TIP3   OH231928   8.245   1.437   7.263 -0.0490 -0.9331 -0.0393
10349TIP3    H131929   8.154   1.427   7.291 -0.2599 -0.4667 -0.5399
10349TIP3    H231930   8.290   1.468   7.342 -1.2721  3.6981 -0.8341
10350TIP3   OH231931   7.318   8.432   8.803  0.0044  0.0957 -0.4210
10350TIP3    H131932   7.293   8.521   8.777 -0.2598 -0.5426 -2.5302
10350TIP3    H231933   7.246   8.377   8.771  1.5750 -1.1877 -1.9140
10351TIP3   OH231934   6.848   8.264   4.820 -0.2742 -0.1241  0.7658
10351TIP3    H131935   6.772   8.293   4.770  0.5192  1.7933  0.5751
10351TIP3    H231936   6.884   8.191   4.769 -1.1830 -0.1555  0.1431
10352TIP3   OH231937   7.890   8.972   2.042 -0.6568 -0.0017 -0.3047
10352TIP3    H131938   7.883   8.908   1.971 -0.9445 -0.0513 -0.2320
10352TIP3    H231939   7.817   8.951   2.100 -0.2616 -0.1372  0.1491
10353TIP3   OH231940   1.107   1.075   1.811 -0.1771 -0.8027 -0.2369
10353TIP3    H131941   1.188   1.122   1.833 -0.2710 -0.8999  0.3361
10353TIP3    H231942   1.136   0.996   1.766 -0.0449  0.1903 -2.0057
10354TIP3   OH231943   3.246   6.840   4.571 -0.3999  0.6115  0.6710
10354TIP3    H131944   3.265   6.753   4.535  0.7521  1.1743 -0.1623
10354TIP3    H231945   3.214   6.822   4.660  0.9233 -0.6292  0.9517
10355TIP3   OH231946   9.830   9.785   3.290 -0.4177 -0.4959 -0.2469
10355TIP3    H131947   9.867   9.698   3.300  1.5400  0.3519  0.2328
10355TIP3    H231948   9.855   9.831   3.370  1.0073  1.3373 -1.6663
10356TIP3   OH231949   9.446   7.280  10.375  0.8328 -0.3060 -0.4853
10356TIP3    H131950   9.503   7.208  10.350  1.1615 -0.3318  0.3091
10356TIP3    H231951   9.496   7.329  10.441 -0.4415 -0.9297  1.0132
10357TIP3   OH231952   6.327   2.482   9.298  0.5202 -0.4471  0.2446
10357TIP3    H131953   6.233   2.486   9.316  0.4134 -0.4159 -0.3087
10357TIP3    H231954   6.333   2.481   9.203  1.1187  0.4264  0.2708
10358TIP3   OH231955   4.959   5.200   7.211  0.1338 -0.1470 -0.1809
10358TIP3    H131956   5.050   5.179   7.190  0.3101 -1.6287  1.7851
10358TIP3    H231957   4.910   5.171   7.135  1.1963 -0.4936 -0.7558
10359TIP3   OH231958   6.121   3.722   9.148 -0.1814  0.0064 -0.1945
10359TIP3    H131959   6.159   3.782   9.083 -1.0219  0.5173 -0.2332
10359TIP3    H231960   6.136   3.635   9.112  0.0143  0.2470 -0.7118
10360TIP3   OH231961   8.409   3.660   5.690  0.1827  0.4337 -0.1987
10360TIP3    H131962   8.407   3.566   5.671 -0.2144  0.3592  0.2137
10360TIP3    H231963   8.321   3.691   5.669  0.0394  0.5432  0.5393
10361TIP3   OH231964   3.505   8.959   7.836  0.4281 -0.0086 -0.2691
10361TIP3    H131965   3.419   8.952   7.794  0.0300 -0.7950  0.6451
10361TIP3    H231966   3.563   8.906   7.780 -0.0500 -0.8600  0.0193
10362TIP3   OH231967  10.217   6.164   2.469 -0.3007 -0.1497 -0.0218
10362TIP3    H131968  10.263   6.174   2.385  1.4781  0.3174  0.9490
10362TIP3    H231969  10.249   6.080   2.503  1.2275  0.9895  1.4572
10363TIP3   OH231970   8.309   9.533   7.350 -0.0292 -0.3812 -0.0267
10363TIP3    H131971   8.363   9.465   7.391  2.2698  0.1099 -1.9589
10363TIP3    H231972   8.303   9.602   7.415 -0.7511 -1.6054  1.2581
10364TIP3   OH231973   3.597   9.157   1.787 -0.0464 -0.2530  0.2139
10364TIP3    H131974   3.584   9.064   1.805  0.0501 -0.0755  1.2282
10364TIP3    H231975   3.559   9.169   1.700 -2.2404 -0.7711  1.0378
10365TIP3   OH231976   7.760  10.675   0.954  0.2633  0.1542 -0.2111
10365TIP3    H131977   7.852  10.651   0.954  0.0141 -0.8315 -0.5834
10365TIP3    H231978   7.760  10.771   0.955  1.2811  0.1602 -0.0526
10366TIP3   OH231979   9.557   5.807   0.499  0.1587  0.5031  0.1880
10366TIP3    H131980   9.633   5.760   0.533 -1.3634 -0.1527  3.0453
10366TIP3    H231981   9.491   5.738   0.485 -1.0644  1.3873  1.3303
10367TIP3   OH231982   0.080   7.968   5.982 -0.4289 -0.2751 -0.2963
10367TIP3    H131983   0.163   8.002   6.015 -0.5150  1.1137 -1.4551
10367TIP3    H231984   0.021   7.975   6.057  0.1468  0.0174  0.1417
10368TIP3   OH231985   1.244   3.496   4.872  0.0756  0.0152  0.4536
10368TIP3    H131986   1.174   3.511   4.936 -1.8163 -0.8406 -1.3348
10368TIP3    H231987   1.201   3.500   4.787  2.6083  1.6574 -0.9004
10369TIP3   OH231988   7.827   7.512   4.630  0.0405 -0.5676  0.5131
10369TIP3    H131989   7.799   7.567   4.557  1.7994 -0.4812 -0.1483
10369TIP3    H231990   7.759   7.523   4.696 -0.6422  0.8526 -0.3795
10370TIP3   OH231991   1.533   7.638   5.897  0.0831 -0.1221 -0.0237
10370TIP3    H131992   1.511   7.586   5.820  0.2967 -0.4161  0.1145
10370TIP3    H231993   1.590   7.708   5.864  0.5133 -0.4901 -0.0673
10371TIP3   OH231994   1.648   6.500   1.622  0.2216 -0.2650 -0.5481
10371TIP3    H131995   1.712   6.493   1.551  0.0744 -0.2213 -0.6831
10371TIP3    H231996   1.700   6.486   1.701  0.8816  2.2310 -0.4531
10372TIP3   OH231997   3.337   5.491   0.096 -0.0417  0.1956 -0.5665
10372TIP3    H131998   3.318   5.541   0.017  1.0954  1.7195  0.0755
10372TIP3    H231999   3.402   5.543   0.142  0.1121 -1.1910  0.8632
10373TIP3   OH232000   3.414   3.261   8.500 -0.4402  0.6979 -0.0609
10373TIP3    H132001   3.467   3.211   8.437 -2.9682 -2.1777 -0.1671
10373TIP3    H232002   3.345   3.300   8.447 -0.8250  0.8367  0.5393
10374TIP3   OH232003   3.208   8.567   6.476  0.3714 -0.0299  0.0533
10374TIP3    H132004   3.181   8.656   6.496 -1.4786 -0.9975  2.2537
10374TIP3    H232005   3.304   8.570   6.475  0.4245  1.5186  2.6832
10375TIP3   OH232006   9.674   3.929   5.881 -0.1841 -0.5469 -0.0795
10375TIP3    H132007   9.729   3.889   5.949  1.4887 -0.6069 -1.3918
10375TIP3    H232008   9.674   4.022   5.901  2.0773 -0.2610 -1.1115
10376TIP3   OH232009   9.948   8.452   8.532  0.4898 -0.1531  0.4404
10376TIP3    H132010   9.973   8.493   8.615  0.7231  0.8547 -0.0987
10376TIP3    H232011   9.863   8.490   8.511  1.9534  2.4214 -1.4961
10377TIP3   OH232012   6.210  10.164   2.277  0.4405 -0.3523 -0.1086
10377TIP3    H132013   6.245  10.214   2.351  0.1343 -1.2076  0.6286
10377TIP3    H232014   6.247  10.077   2.287 -0.8927 -0.9294 -0.0412
10378TIP3   OH232015   2.769   1.376  10.290  0.3097 -0.0922 -0.6675
10378TIP3    H132016   2.711   1.425  10.348  0.0189 -1.7391  0.5028
10378TIP3    H232017   2.723   1.374  10.206  0.5136  1.8980 -0.8871
10379TIP3   OH232018  10.817   4.836   1.394 -0.4204  0.3449  0.0807
10379TIP3    H132019  10.886   4.895   1.363 -0.7369  0.9069  0.4275
10379TIP3    H232020  10.735   4.876   1.365 -0.7624  1.1115  1.9108
10380TIP3   OH232021   4.597   6.790   3.002  0.0380  0.1323 -0.2354
10380TIP3    H132022   4.542   6.801   2.925  1.8609  0.0824 -1.5930
10380TIP3    H232023   4.597   6.696   3.019 -1.4780  0.2688  0.7223
10381TIP3   OH232024   4.576   8.434   5.534 -0.0417  0.5311 -0.4754
10381TIP3    H132025   4.648   8.379   5.567  0.5283 -0.0656 -2.6016
10381TIP3    H232026   4.615   8.483   5.462 -1.6708  0.5332 -1.3780
10382TIP3   OH232027   7.896   5.388   7.987 -0.2268  0.3914  0.4340
10382TIP3    H132028   7.945   5.312   7.955 -2.2874 -0.7177 -0.3141
10382TIP3    H232029   7.935   5.463   7.942 -0.0844 -0.6041 -1.1987
10383TIP3   OH232030   1.611   9.327  10.290 -0.0220  0.3166 -0.2582
10383TIP3    H132031   1.656   9.262  10.343  0.8129  0.0626 -1.2363
10383TIP3    H232032   1.537   9.281  10.252  0.3442  0.0263 -0.6351
10384TIP3   OH232033   5.495   9.674   3.377  0.5269 -0.1575 -0.5250
10384TIP3    H132034   5.541   9.590   3.373 -0.5323 -0.8200  0.5350
10384TIP3    H232035   5.463   9.680   3.467 -1.9496 -0.0192 -1.3446
10385TIP3   OH232036   4.286  10.431   0.165  0.3921  0.0097 -0.5951
10385TIP3    H132037   4.344  10.453   0.237  0.8945  1.3061 -1.3663
10385TIP3    H232038   4.198  10.447   0.199  0.6705  1.6781 -0.5820
10386TIP3   OH232039   6.320   8.645   2.125 -0.1030 -0.9745 -0.2351
10386TIP3    H132040   6.314   8.713   2.192  0.0555 -1.3563  0.1748
10386TIP3    H232041   6.277   8.569   2.165  1.2485 -1.6400  0.0164
10387TIP3   OH232042   2.516   5.425   7.612  0.2320 -0.1470 -0.1239
10387TIP3    H132043   2.533   5.386   7.526  2.9223 -2.1725  1.1390
10387TIP3    H232044   2.493   5.350   7.668  1.4538  0.6392  1.5182
10388TIP3   OH232045   1.584   7.933   2.907  0.3997  0.2786 -0.0386
10388TIP3    H132046   1.636   7.966   2.834  0.4938  1.9640  0.7391
10388TIP3    H232047   1.511   7.995   2.914  0.3229  0.0783  1.1907
10389TIP3   OH232048   3.107   2.218   9.657  0.3527 -0.1065  0.8601
10389TIP3    H132049   3.134   2.282   9.723 -1.3808  1.9025 -0.2703
10389TIP3    H232050   3.097   2.136   9.706  2.6432  0.4212  2.3496
10390TIP3   OH232051   3.461   1.128   7.842 -0.4693  0.8004 -0.0639
10390TIP3    H132052   3.539   1.157   7.795 -0.1409  0.6328  0.3760
10390TIP3    H232053   3.409   1.082   7.777  0.6798 -0.7537  0.0718
10391TIP3   OH232054   5.287   3.623   6.415  0.4441  0.2053  0.6115
10391TIP3    H132055   5.339   3.581   6.347 -1.3712 -0.7530 -0.2445
10391TIP3    H232056   5.202   3.639   6.375 -1.1082 -1.4900  2.9177
10392TIP3   OH232057   2.425   3.150   0.705  0.1429  0.6185 -0.4740
10392TIP3    H132058   2.358   3.198   0.656  1.3376  2.3172 -0.5370
10392TIP3    H232059   2.439   3.203   0.783 -0.8641 -1.4258  1.1736
10393TIP3   OH232060   5.753   4.895   4.993  0.3673  0.0498 -0.0599
10393TIP3    H132061   5.697   4.881   4.917 -0.3372  0.8801  0.2755
10393TIP3    H232062   5.842   4.894   4.959  0.1305 -0.8464 -0.6797
10394TIP3   OH232063  10.415   7.302   7.119 -0.3797 -0.2505  0.2346
10394TIP3    H132064  10.433   7.396   7.128  0.5959 -0.6361  3.7460
10394TIP3    H232065  10.326   7.292   7.153 -0.4079 -0.6001  0.0544
10395TIP3   OH232066   7.084   3.177   0.483  0.2540 -0.9513 -0.8762
10395TIP3    H132067   7.064   3.153   0.573 -0.2246  1.1843 -0.3708
10395TIP3    H232068   7.100   3.093   0.439  1.5309 -1.9908  1.4006
10396TIP3   OH232069   4.355   9.569   4.670  0.2118  0.2821  0.6184
10396TIP3    H132070   4.285   9.633   4.659  0.8510  0.7243 -1.1157
10396TIP3    H232071   4.320   9.488   4.634 -0.0069  0.0566  1.3205
10397TIP3   OH232072   2.891   0.512   9.988 -0.0590 -0.1761  0.0525
10397TIP3    H132073   2.804   0.491   9.954 -1.2020  0.0999  2.5667
10397TIP3    H232074   2.916   0.592   9.941 -1.8499  0.5975  0.3345
10398TIP3   OH232075   1.829   3.917   2.317  0.0426 -0.0357  0.3490
10398TIP3    H132076   1.749   3.887   2.360  0.5656 -1.0841  0.6408
10398TIP3    H232077   1.824   4.012   2.320 -1.0641 -0.0882  0.5928
10399TIP3   OH232078   5.812   8.341   5.794  0.3235 -0.0591  0.2304
10399TIP3    H132079   5.881   8.405   5.773  0.4670 -0.1615  0.3894
10399TIP3    H232080   5.829   8.317   5.885  0.7494 -0.9087 -0.0621
10400TIP3   OH232081   9.415   5.315   2.807  0.6021  0.1314  0.0061
10400TIP3    H132082   9.431   5.398   2.763 -1.1947  0.9165  0.7114
10400TIP3    H232083   9.418   5.249   2.738 -0.5770  1.1387 -1.0469
10401TIP3   OH232084  10.600  10.580  10.364 -0.4322  0.0109  0.1974
10401TIP3    H132085  10.583  10.610  10.275  3.0224  3.0280  0.3286
10401TIP3    H232086  10.643  10.495  10.353  2.2377  1.4168 -1.3848
10402TIP3   OH232087   6.377   1.500  10.206  0.8007 -0.8793  0.1248
10402TIP3    H132088   6.288   1.471  10.225  0.5534 -0.0148  0.3077
10402TIP3    H232089   6.388   1.580  10.257  1.1025 -0.0513 -1.2023
10403TIP3   OH232090  10.517   6.667   2.662  0.1051 -0.0803 -0.3399
10403TIP3    H132091  10.428   6.661   2.697  0.1281  2.1706  0.2350
10403TIP3    H232092  10.508   6.649   2.569 -0.3566 -3.4971  0.2381
10404TIP3   OH232093   1.349   4.080   0.162  0.7015 -0.0920 -0.0457
10404TIP3    H132094   1.323   4.029   0.239  1.2526  0.8639  0.7914
10404TIP3    H232095   1.392   4.016   0.105 -0.3012 -0.9495  0.1258
10405TIP3   OH232096   7.546   4.817   8.269 -0.2387 -0.5569  0.3763
10405TIP3    H132097   7.519   4.855   8.352 -0.6705 -1.6346  0.7484
10405TIP3    H232098   7.539   4.889   8.206 -1.9545 -0.2416  0.8673
10406TIP3   OH232099   7.886   8.141   4.459  0.0118 -0.0215 -0.2750
10406TIP3    H132100   7.899   8.047   4.450 -1.3434 -0.0984 -1.7779
10406TIP3    H232101   7.909   8.176   4.373  0.8675  1.0898  0.3773
10407TIP3   OH232102   9.595   3.791   6.275  0.0815  0.5820  0.1702
10407TIP3    H132103   9.668   3.805   6.335  2.2164  0.6191 -2.2196
10407TIP3    H232104   9.538   3.867   6.287  0.9730  1.0742  1.4091
10408TIP3   OH232105   0.412  10.010   6.053 -0.5790  0.1292  0.0900
10408TIP3    H132106   0.483   9.982   6.111  0.9666  0.5474 -1.5270
10408TIP3    H232107   0.337  10.023   6.112  1.2748  1.9989  2.2386
10409TIP3   OH232108   0.514   7.391   9.080  0.4705 -0.5053  0.1986
10409TIP3    H132109   0.510   7.318   9.141 -1.4879 -0.9026 -0.3145
10409TIP3    H232110   0.422   7.411   9.061  0.9189  2.2023  0.4277
10410TIP3   OH232111   4.835   0.070   3.482  0.3469  1.0121  0.4157
10410TIP3    H132112   4.798  -0.018   3.491  1.3652  0.5045 -0.0938
10410TIP3    H232113   4.921   0.064   3.524  0.4576  1.7380  0.3002
10411TIP3   OH232114   0.812   1.907   6.937 -0.5313  0.1333  0.1088
10411TIP3    H132115   0.790   1.999   6.957 -0.8317 -0.0079  0.4386
10411TIP3    H232116   0.762   1.856   7.001 -0.8753 -0.2990 -0.4930
10412TIP3   OH232117   8.474  10.110   3.712  0.0679  0.2811 -0.7703
10412TIP3    H132118   8.460  10.025   3.754 -2.8295 -0.7385 -3.4026
10412TIP3    H232119   8.557  10.140   3.747  0.0284 -2.4546  2.1719
10413TIP3   OH232120   7.356   0.902   8.019 -0.7957 -0.0220 -0.0474
10413TIP3    H132121   7.422   0.958   7.978 -1.1727  1.1230  0.8373
10413TIP3    H232122   7.344   0.829   7.958 -0.0421  0.6910 -1.0799
10414TIP3   OH232123   1.354   8.709   4.755  0.4422  0.3371 -0.0751
10414TIP3    H132124   1.331   8.643   4.690 -0.3152 -0.3667  0.8886
10414TIP3    H232125   1.344   8.665   4.840  2.5250  0.8692  0.5235
10415TIP3   OH232126   9.966   2.280   6.867  0.4034  0.1888  0.1480
10415TIP3    H132127  10.003   2.352   6.918  1.6036 -1.1798  1.2799
10415TIP3    H232128   9.984   2.201   6.918 -2.7450 -0.7737  0.0168
10416TIP3   OH232129  10.779   4.632   9.593  0.0112  0.2299 -0.0140
10416TIP3    H132130  10.766   4.539   9.579 -0.3462  0.0211  1.5481
10416TIP3    H232131  10.707   4.659   9.650  0.2026  1.4272 -0.2984
10417TIP3   OH232132   1.170   2.871   0.070 -0.0832  0.1970 -0.5351
10417TIP3    H132133   1.259   2.836   0.072 -0.0768  0.0410 -2.1962
10417TIP3    H232134   1.175   2.947   0.012 -0.9476  0.4842 -0.2516
10418TIP3   OH232135   6.316   2.401   2.125  0.3514  0.0933  0.3240
10418TIP3    H132136   6.244   2.431   2.181  0.1510 -0.2817  0.2673
10418TIP3    H232137   6.394   2.436   2.167  0.1166  0.7547  0.2217
10419TIP3   OH232138   7.743   8.259   4.956  0.0152 -0.2065  0.8253
10419TIP3    H132139   7.664   8.313   4.947 -0.0107 -0.5377 -1.6205
10419TIP3    H232140   7.709   8.170   4.966 -0.0437 -0.6028 -2.0216
10420TIP3   OH232141   7.738   4.564   9.076 -0.0924 -0.2852  0.4068
10420TIP3    H132142   7.707   4.574   9.166 -0.3681 -0.2221  0.3041
10420TIP3    H232143   7.702   4.480   9.047  1.9986 -1.5326  1.1776
10421TIP3   OH232144   1.766   2.377  10.713  0.6783  0.3588  0.6890
10421TIP3    H132145   1.735   2.339  10.630  0.6865  1.4347  0.1761
10421TIP3    H232146   1.727   2.464  10.715  1.3996  0.6716  1.4075
10422TIP3   OH232147   7.155  10.721  10.698  0.3788 -0.2537 -0.3581
10422TIP3    H132148   7.104  10.762  10.768  1.8344 -0.6438  0.9819
10422TIP3    H232149   7.244  10.716  10.733  1.0628 -0.8532 -2.0848
10423TIP3   OH232150   6.097   5.929   2.246 -0.0108 -0.2764 -0.1678
10423TIP3    H132151   6.138   5.880   2.318 -1.1266 -0.6106  0.2689
10423TIP3    H232152   6.166   5.936   2.179  1.3267  0.7930  1.2488
10424TIP3   OH232153   7.071  10.285   0.388  0.6518 -0.0341  0.2873
10424TIP3    H132154   7.063  10.206   0.335  1.4100  0.2642 -0.2785
10424TIP3    H232155   7.165  10.299   0.398  0.5272  0.4339  0.9385
10425TIP3   OH232156   7.070   2.974   9.090 -0.0428 -0.0276 -0.0512
10425TIP3    H132157   7.043   3.043   9.150 -2.5575 -0.5910 -0.3838
10425TIP3    H232158   6.989   2.925   9.072  1.1603 -1.5733 -1.7101
10426TIP3   OH232159   5.644   0.054   1.522  0.1909  0.3568 -0.0697
10426TIP3    H132160   5.558   0.096   1.516 -0.5335 -1.0455  0.0208
10426TIP3    H232161   5.634  -0.025   1.469  1.7581  0.6753 -0.8928
10427TIP3   OH232162   7.417   7.482  10.802  0.1258 -0.0461  0.1828
10427TIP3    H132163   7.506   7.480  10.837 -0.4266  0.4637  1.6998
10427TIP3    H232164   7.423   7.534  10.722  1.2370 -0.2544  0.1244
10428TIP3   OH232165   8.171   3.046   7.733 -0.3494  0.1481 -0.1876
10428TIP3    H132166   8.174   3.141   7.732 -1.0454  0.2574  1.9804
10428TIP3    H232167   8.259   3.020   7.762  0.0962  0.0658 -1.5611
10429TIP3   OH232168   1.972   5.678   0.038  0.4244  0.6564 -0.9007
10429TIP3    H132169   1.927   5.739   0.096  0.6427 -0.0985  0.0977
10429TIP3    H232170   2.062   5.709   0.036  0.0262  1.8131 -2.4151
10430TIP3   OH232171   8.643   0.304   4.054  0.1313 -0.3518  0.7127
10430TIP3    H132172   8.654   0.385   4.005  0.7544 -0.8812 -0.0400
10430TIP3    H232173   8.558   0.270   4.026  0.7680 -0.9816 -0.5174
10431TIP3   OH232174   7.355  10.506   8.766 -0.2189 -0.5266 -0.2184
10431TIP3    H132175   7.371  10.557   8.687 -0.7788 -0.6580 -0.4187
10431TIP3    H232176   7.412  10.546   8.832 -0.7903  0.4776 -0.3162
10432TIP3   OH232177   4.086   8.607   9.904 -0.1988 -0.1921  0.4463
10432TIP3    H132178   4.177   8.580   9.896  0.1686  0.9812  0.4757
10432TIP3    H232179   4.042   8.533   9.946  0.2455 -1.6910 -1.6045
10433TIP3   OH232180   1.817   0.077   3.541 -0.0002 -0.1997  0.3010
10433TIP3    H132181   1.814   0.092   3.636  0.2790 -0.5753  0.3739
10433TIP3    H232182   1.837  -0.017   3.533  0.9802  0.0344 -0.1284
10434TIP3   OH232183   8.999   4.609   8.017 -0.2122 -0.0467  0.2625
10434TIP3    H132184   9.018   4.686   8.070 -1.6738 -1.1297  2.5435
10434TIP3    H232185   8.932   4.638   7.955 -1.3836  0.3722  1.6644
10435TIP3   OH232186   3.031   2.443   5.265 -0.1189 -0.8058  0.0226
10435TIP3    H132187   3.047   2.371   5.204 -1.6912 -0.6808 -0.5761
10435TIP3    H232188   2.943   2.427   5.300  0.1594 -0.0595  1.1297
10436TIP3   OH232189   9.136   1.568   3.025  0.1671  0.3577 -0.0476
10436TIP3    H132190   9.119   1.597   3.115  0.2129 -1.9591  0.7976
10436TIP3    H232191   9.196   1.494   3.036 -0.8904 -0.8291 -1.8665
10437TIP3   OH232192   1.927   2.613   9.937  0.1861  0.3662 -0.7583
10437TIP3    H132193   1.982   2.643   9.865  1.2211 -0.8767 -0.5145
10437TIP3    H232194   1.986   2.606  10.012 -0.9454  2.0198  0.3568
10438TIP3   OH232195   2.663   7.358   4.549  0.0103  0.0343 -0.1044
10438TIP3    H132196   2.599   7.349   4.477 -0.9994 -1.9335  0.9416
10438TIP3    H232197   2.739   7.307   4.520 -1.1292 -2.4174  0.8951
10439TIP3   OH232198   0.111   0.974   6.188  0.4753 -0.1859 -0.4243
10439TIP3    H132199   0.175   1.035   6.152 -0.0242  0.4416 -0.2589
10439TIP3    H232200   0.162   0.916   6.244  0.9764 -0.0231 -0.7079
10440TIP3   OH232201   1.263   6.223   3.878 -0.0078 -0.0350  0.0676
10440TIP3    H132202   1.270   6.319   3.873 -0.7131 -0.0015 -4.8759
10440TIP3    H232203   1.351   6.191   3.858 -0.0938 -0.4225  0.2938
10441TIP3   OH232204   1.348   5.303   2.987  0.6190  0.2822 -0.1720
10441TIP3    H132205   1.341   5.396   2.968  0.7511  0.2577 -0.3477
10441TIP3    H232206   1.440   5.289   3.010  0.6072  0.1921 -0.1766
10442TIP3   OH232207   8.895  10.466   0.389 -0.6969  0.0647 -0.1347
10442TIP3    H132208   8.982  10.431   0.372 -1.5340 -1.9472 -0.5212
10442TIP3    H232209   8.903  10.513   0.472  0.6902 -0.3099 -0.0470
10443TIP3   OH232210   2.316   0.178   8.714  0.5364 -0.1449  0.4437
10443TIP3    H132211   2.382   0.117   8.747  2.9957  2.1138  0.0170
10443TIP3    H232212   2.275   0.213   8.793  2.1567  0.7776  0.9182
10444TIP3   OH232213   7.208  10.859   1.658  0.6605 -0.6737 -0.7657
10444TIP3    H132214   7.205  10.807   1.738 -0.9211  1.8254  0.9151
10444TIP3    H232215   7.290  10.908   1.665  0.3193 -0.1468 -0.4776
10445TIP3   OH232216   3.638   8.776   1.668  0.1725 -0.3044 -0.9043
10445TIP3    H132217   3.565   8.791   1.608 -0.2498 -0.5047 -0.4442
10445TIP3    H232218   3.712   8.757   1.610 -0.3182 -0.8830 -1.3611
10446TIP3   OH232219   4.046   2.622   0.623 -0.3703  0.0854 -0.3416
10446TIP3    H132220   4.049   2.671   0.541  0.9922  0.4851 -0.0760
10446TIP3    H232221   4.128   2.644   0.668 -0.3926 -1.3054  0.4431
10447TIP3   OH232222   9.438   0.935   6.606  0.4343  0.2715 -0.1302
10447TIP3    H132223   9.411   1.019   6.567 -0.3696  0.0068 -0.1617
10447TIP3    H232224   9.505   0.959   6.671  0.4423  0.9018 -0.3639
10448TIP3   OH232225  10.777  10.294   4.564 -0.1422 -0.0581  0.6500
10448TIP3    H132226  10.700  10.344   4.536 -0.6658 -0.8417  0.6613
10448TIP3    H232227  10.819  10.266   4.482  0.4383  0.8070  0.6361
10449TIP3   OH232228   5.597   8.746   2.890  0.1275 -0.0994  0.1027
10449TIP3    H132229   5.545   8.738   2.969  0.0542  1.0774  0.1939
10449TIP3    H232230   5.675   8.693   2.906 -1.2671 -2.4218 -0.2838
10450TIP3   OH232231   1.712   7.308   7.569  0.1999 -0.0603  0.4236
10450TIP3    H132232   1.687   7.266   7.487 -2.1496  0.5974  0.7445
10450TIP3    H232233   1.719   7.401   7.547 -0.3807  0.1105  0.9291
10451TIP3   OH232234   8.089   4.122   5.145 -0.6377  0.0748 -0.3630
10451TIP3    H132235   8.007   4.159   5.112  0.1063  2.1439 -0.0812
10451TIP3    H232236   8.077   4.118   5.240 -0.2760  0.7957 -0.2806
10452TIP3   OH232237   7.508   9.055   0.274  0.2335 -0.7366 -0.2625
10452TIP3    H132238   7.512   9.007   0.192 -1.4838  0.9566 -1.4381
10452TIP3    H232239   7.423   9.033   0.311 -0.9979  1.8723 -1.2664
10453TIP3   OH232240   4.115   8.266   0.280  0.4345 -0.4677 -0.1837
10453TIP3    H132241   4.191   8.244   0.334  0.6726 -1.0948 -0.7553
10453TIP3    H232242   4.147   8.258   0.190 -0.2001 -0.3194 -0.4270
10454TIP3   OH232243   4.480   2.587   3.330 -0.4964 -0.8256 -0.3734
10454TIP3    H132244   4.446   2.618   3.245  0.2951  0.2123 -0.3360
10454TIP3    H232245   4.567   2.553   3.309 -0.1871 -0.3087  0.0610
10455TIP3   OH232246   8.120   0.675   4.052  0.5563 -0.6436 -0.0810
10455TIP3    H132247   8.135   0.717   4.137  1.6994  0.7945 -0.9503
10455TIP3    H232248   8.186   0.606   4.047  0.0995 -1.1282  0.4337
10456TIP3   OH232249   2.685   9.044   7.534 -0.1339 -0.0598 -0.2030
10456TIP3    H132250   2.631   9.022   7.458 -1.9969  0.4880  0.9056
10456TIP3    H232251   2.656   9.132   7.559 -0.3812 -0.6600  1.8015
10457TIP3   OH232252   9.543   1.211   3.135 -0.0944  0.6900  0.1427
10457TIP3    H132253   9.566   1.237   3.224 -0.3009  0.9594  0.1185
10457TIP3    H232254   9.506   1.123   3.145  1.3171  0.0639  0.1295
10458TIP3   OH232255   5.410   7.263   5.641 -0.6237  0.2600  0.1025
10458TIP3    H132256   5.412   7.182   5.693  0.7816  1.0278  1.3057
10458TIP3    H232257   5.371   7.237   5.558 -2.5894 -1.1125  1.3589
10459TIP3   OH232258   4.656   4.235   2.088 -0.0689 -0.0587  0.1674
10459TIP3    H132259   4.608   4.315   2.070 -0.2126 -0.6413 -2.2571
10459TIP3    H232260   4.589   4.171   2.111  0.0430  0.4301  2.0597
10460TIP3   OH232261   8.456   9.016   0.872  0.2787  0.0170 -0.3752
10460TIP3    H132262   8.363   9.039   0.875  0.5085  0.8774  1.3048
10460TIP3    H232263   8.476   9.009   0.779 -1.1771  1.0072 -0.8004
10461TIP3   OH232264   2.432  10.203   9.432 -0.3014  0.5119 -0.0659
10461TIP3    H132265   2.341  10.188   9.409 -0.4781 -0.4753  1.1694
10461TIP3    H232266   2.474  10.117   9.419  0.7370  1.2230 -1.7606
10462TIP3   OH232267   8.820   6.370   5.281  0.0699  0.7210 -0.0928
10462TIP3    H132268   8.887   6.314   5.242  0.4235  1.1951 -0.1821
10462TIP3    H232269   8.869   6.430   5.338 -0.4891 -0.2957  1.5068
10463TIP3   OH232270   3.175   9.171   6.597 -0.1274 -0.0137  0.0359
10463TIP3    H132271   3.125   9.112   6.654 -0.3903  0.0232 -0.1525
10463TIP3    H232272   3.266   9.154   6.620 -0.2578  0.9085  1.3789
10464TIP3   OH232273   4.673   5.295   1.792 -0.4425 -0.3906  0.0185
10464TIP3    H132274   4.701   5.263   1.707  0.0612 -0.5714  0.2486
10464TIP3    H232275   4.662   5.390   1.780  0.1415 -0.3348 -0.1138
10465TIP3   OH232276   6.727   6.040   7.972  0.0719  0.1927  0.0622
10465TIP3    H132277   6.668   6.075   8.039 -2.6143 -1.6119 -1.1880
10465TIP3    H232278   6.709   6.093   7.895  1.1918  0.5246  0.0048
10466TIP3   OH232279   4.071   1.481   6.945  0.0371 -0.4709 -0.6552
10466TIP3    H132280   4.114   1.462   6.861  0.8920 -2.0246  0.0953
10466TIP3    H232281   4.008   1.410   6.957  2.2403 -2.2322  1.5144
10467TIP3   OH232282   2.599   7.380   7.512  0.3186 -0.1215 -0.4384
10467TIP3    H132283   2.675   7.432   7.537  0.0371  0.4120 -0.6560
10467TIP3    H232284   2.624   7.338   7.430  0.2538  0.3541 -0.7105
10468TIP3   OH232285   2.491   3.067   8.931 -0.2937 -0.0857  0.1888
10468TIP3    H132286   2.425   2.997   8.931 -0.2670 -0.1442  2.0002
10468TIP3    H232287   2.453   3.136   8.985 -1.2496  2.3066 -3.1958
10469TIP3   OH232288   0.290   9.696   6.745 -0.7653  0.6696  0.1005
10469TIP3    H132289   0.367   9.752   6.749  0.6099 -1.1923  1.1362
10469TIP3    H232290   0.275   9.683   6.651  1.2803 -0.2957 -0.1585
10470TIP3   OH232291   7.897   0.953   7.322 -0.5790 -0.2247  0.3269
10470TIP3    H132292   7.972   0.986   7.371 -1.8951  0.5297  1.9361
10470TIP3    H232293   7.935   0.908   7.246  1.4867 -0.2937  1.3509
10471TIP3   OH232294   5.815   9.713   4.818  0.0984 -0.0341  0.2179
10471TIP3    H132295   5.816   9.645   4.886  0.7129 -0.3001 -0.0451
10471TIP3    H232296   5.816   9.664   4.736 -0.8125  0.2831  0.0114
10472TIP3   OH232297   1.255   5.152   1.538  0.4682  0.0046 -0.0640
10472TIP3    H132298   1.258   5.229   1.482  0.1930  0.2346  0.2319
10472TIP3    H232299   1.184   5.099   1.502 -0.0955  0.4214  0.3979
10473TIP3   OH232300   1.551   5.726   2.071 -0.4891  0.0398  0.0859
10473TIP3    H132301   1.602   5.807   2.066 -0.4844  0.0556 -4.5568
10473TIP3    H232302   1.614   5.659   2.097 -0.7079  1.3938  5.0970
10474TIP3   OH232303   4.908   5.414   8.491  0.2690 -0.2720 -0.6180
10474TIP3    H132304   4.895   5.334   8.542 -1.0116 -0.7536 -1.6392
10474TIP3    H232305   4.933   5.382   8.404  0.3258  0.4609 -0.8740
10475TIP3   OH232306   5.067   3.689   0.110  0.5549 -0.5605 -0.3950
10475TIP3    H132307   5.150   3.646   0.130  0.6291 -0.5687 -0.7107
10475TIP3    H232308   5.068   3.698   0.015  1.6448  2.3126 -0.2107
10476TIP3   OH232309  10.765   2.028  10.730 -0.2137  0.5730 -0.4966
10476TIP3    H132310  10.764   2.086  10.806 -0.4762 -0.0892  0.0063
10476TIP3    H232311  10.792   2.085  10.658  0.6429  1.0711  0.1966
10477TIP3   OH232312   9.653  10.888   4.700  0.5264  0.9035  0.3107
10477TIP3    H132313   9.649  10.957   4.766 -1.6809  0.4208  0.7536
10477TIP3    H232314   9.607  10.814   4.739 -0.2700  0.3877 -1.4940
10478TIP3   OH232315   8.661   3.988   3.106  0.0560  0.6231 -0.1977
10478TIP3    H132316   8.613   3.959   3.184 -0.8699 -0.3396 -1.0752
10478TIP3    H232317   8.731   3.924   3.096  0.1823  0.7537 -0.1370
10479TIP3   OH232318   0.069   9.552   5.892 -0.8290 -0.4678 -0.0732
10479TIP3    H132319  -0.024   9.537   5.880 -0.4730 -1.5078 -1.8453
10479TIP3    H232320   0.108   9.534   5.806  0.9638  0.2958  0.5255
10480TIP3   OH232321   9.992   3.451   1.738  0.5753 -0.1913 -1.1024
10480TIP3    H132322   9.981   3.365   1.778  2.7665 -0.0218  0.0295
10480TIP3    H232323  10.077   3.481   1.770 -0.5511  2.8335 -0.6697
10481TIP3   OH232324   7.957   2.281   7.628 -0.1799  0.1511  0.0511
10481TIP3    H132325   7.873   2.294   7.585 -0.8441  0.1326  1.2906
10481TIP3    H232326   7.945   2.319   7.715  0.2230 -2.0987  1.1691
10482TIP3   OH232327   4.563   9.227   7.700  0.4007 -0.2693 -0.6050
10482TIP3    H132328   4.536   9.294   7.763 -0.4181 -0.5010 -0.7091
10482TIP3    H232329   4.614   9.165   7.752 -2.4399 -1.8822  0.4411
10483TIP3   OH232330   3.393   5.601   4.719  0.2057 -0.3876 -0.3830
10483TIP3    H132331   3.347   5.677   4.754 -0.1040 -0.2441 -1.0894
10483TIP3    H232332   3.404   5.620   4.626 -1.6153 -2.0534 -1.0063
10484TIP3   OH232333   7.559   1.122   9.719 -0.6046 -0.3484 -0.3688
10484TIP3    H132334   7.501   1.135   9.794 -1.4185 -1.2739 -0.8047
10484TIP3    H232335   7.529   1.187   9.655 -0.0624  0.2845  0.0076
10485TIP3   OH232336   1.273   6.447   4.443  0.0455  0.5941 -0.0358
10485TIP3    H132337   1.188   6.492   4.445 -0.2121  0.1593 -0.7888
10485TIP3    H232338   1.258   6.371   4.387  1.2579  1.1563 -1.1821
10486TIP3   OH232339   5.426   0.170   0.500  0.5542 -0.4139  0.0053
10486TIP3    H132340   5.436   0.165   0.405 -0.5885 -1.1083 -0.0854
10486TIP3    H232341   5.428   0.079   0.530 -2.3762 -0.4773  0.2687
10487TIP3   OH232342   4.128   3.510   8.449 -0.1179 -0.4558  0.2478
10487TIP3    H132343   4.203   3.570   8.457  0.6286 -1.0646 -1.4549
10487TIP3    H232344   4.148   3.459   8.370 -2.7162 -0.1076 -0.7400
10488TIP3   OH232345   1.109   9.899   2.382 -0.0310  0.2653 -0.1513
10488TIP3    H132346   1.178   9.895   2.316 -1.7285  0.7100 -2.0501
10488TIP3    H232347   1.060   9.979   2.360 -2.0132 -0.7941  0.1945
10489TIP3   OH232348   8.519   5.565   6.892 -0.0976  0.0396  0.1920
10489TIP3    H132349   8.427   5.554   6.867 -0.0664 -0.6037  0.3506
10489TIP3    H232350   8.559   5.480   6.874  0.7500  0.6582 -1.0222
10490TIP3   OH232351   0.610   4.215  10.103  0.5304 -0.2305 -0.3911
10490TIP3    H132352   0.683   4.224  10.164  1.6428 -0.5169 -1.6085
10490TIP3    H232353   0.642   4.254  10.022 -0.2664 -1.2981 -1.2612
10491TIP3   OH232354   4.431   0.754   0.782 -0.0036 -0.5910 -0.4072
10491TIP3    H132355   4.429   0.720   0.693  0.9268 -0.0290 -0.6567
10491TIP3    H232356   4.342   0.743   0.814 -1.2482  2.1872 -2.5147
10492TIP3   OH232357   6.113   3.564   5.153  0.4275 -0.2861 -0.0682
10492TIP3    H132358   6.203   3.534   5.142  0.1234 -1.3637  0.2643
10492TIP3    H232359   6.101   3.629   5.084  2.5905  2.6212  2.0418
10493TIP3   OH232360   2.615   4.568   6.152 -0.3864  0.3121  0.2775
10493TIP3    H132361   2.682   4.604   6.210  1.3105  0.5283 -1.7288
10493TIP3    H232362   2.640   4.477   6.139 -1.2439  0.0286  0.5166
10494TIP3   OH232363   9.971   8.914   0.003  0.4879 -0.2590 -0.1380
10494TIP3    H132364   9.964   9.009  -0.008  0.4640 -0.2402  0.0364
10494TIP3    H232365  10.065   8.897   0.002  0.4850 -0.5109 -2.4764
10495TIP3   OH232366   7.912   1.231   7.211 -0.3665 -0.2895 -0.3330
10495TIP3    H132367   7.940   1.143   7.236  0.9318  0.6454  1.7630
10495TIP3    H232368   7.943   1.242   7.121 -0.2869 -1.8375 -0.5191
10496TIP3   OH232369   5.734   7.974   1.143 -0.4167  0.6693 -0.1472
10496TIP3    H132370   5.779   7.903   1.188  0.3053 -0.0540 -1.9215
10496TIP3    H232371   5.803   8.035   1.119 -0.9690  1.7672  0.9035
10497TIP3   OH232372   9.374   8.875   5.097  0.3330  0.5061  0.4599
10497TIP3    H132373   9.426   8.859   5.019 -0.3861  0.3797 -0.0066
10497TIP3    H232374   9.384   8.796   5.150  0.9897  0.6781  0.5998
10498TIP3   OH232375   7.605   7.478   3.806  0.3311  0.6498  0.2740
10498TIP3    H132376   7.639   7.551   3.754  0.6573 -1.7111 -3.1757
10498TIP3    H232377   7.531   7.515   3.854 -1.8504  2.6639 -4.0355
10499TIP3   OH232378   7.514   1.225   2.556 -0.7183  0.2621  0.1947
10499TIP3    H132379   7.500   1.136   2.525  0.1826  0.0165  0.4628
10499TIP3    H232380   7.503   1.220   2.651  0.9092  0.0798  0.4106
10500TIP3   OH232381   7.350   9.913   6.206  0.8399 -0.0464 -0.3310
10500TIP3    H132382   7.395   9.998   6.207 -0.0512  0.4348 -0.4882
10500TIP3    H232383   7.322   9.900   6.297 -0.1977  0.4748 -0.5630
10501TIP3   OH232384   2.299   2.326  10.124 -0.5301  0.8981  0.2423
10501TIP3    H132385   2.341   2.286  10.048  1.5284  0.7600  1.3702
10501TIP3    H232386   2.290   2.253  10.186 -0.9015  1.2862  0.6458
10502TIP3   OH232387   4.009   9.080   2.172  0.0544  0.5529  0.7038
10502TIP3    H132388   3.934   9.075   2.232  0.3399  1.1407  1.1171
10502TIP3    H232389   4.070   9.015   2.205 -0.1840  0.2129  0.4848
10503TIP3   OH232390  10.223   0.978   3.368  0.2684 -0.1977 -0.2087
10503TIP3    H132391  10.152   1.020   3.320  1.3253  1.5197 -0.3593
10503TIP3    H232392  10.248   0.903   3.314 -0.7674 -0.2266 -0.6564
10504TIP3   OH232393   1.360   6.135   5.475  0.8498  0.2225 -0.1735
10504TIP3    H132394   1.322   6.081   5.544  1.7559 -1.1536 -0.6942
10504TIP3    H232395   1.408   6.073   5.420  1.0857  1.4331 -1.3991
10505TIP3   OH232396  10.180   7.229   2.254  0.3538 -0.3676  0.1857
10505TIP3    H132397  10.203   7.139   2.231  0.5536 -0.4592  0.7260
10505TIP3    H232398  10.199   7.280   2.175 -0.6116 -0.9296 -0.4288
10506TIP3   OH232399   8.080   5.514   5.087 -0.1708 -0.3502  0.2056
10506TIP3    H132400   8.101   5.423   5.063  0.2460  0.4954 -3.0837
10506TIP3    H232401   7.988   5.511   5.113 -0.0373 -1.7914  0.5870
10507TIP3   OH232402   8.978  10.844   2.887 -0.0522 -0.0917 -0.3202
10507TIP3    H132403   8.914  10.858   2.817 -0.3230  0.0235 -0.0540
10507TIP3    H232404   8.930  10.795   2.954 -0.1298  0.7452  0.2607
10508TIP3   OH232405   9.756  10.180   2.437  0.2830 -0.2147 -0.6776
10508TIP3    H132406   9.771  10.274   2.425 -0.5113  0.1156  0.7493
10508TIP3    H232407   9.674  10.163   2.392  0.4839 -0.2645 -1.0327
10509TIP3   OH232408   6.298   1.507   4.443  0.1522 -0.3130  0.6159
10509TIP3    H132409   6.226   1.520   4.381 -0.7850 -0.3909  1.6582
10509TIP3    H232410   6.366   1.464   4.391 -0.6391 -0.4623 -0.3418
10510TIP3   OH232411   7.191   3.885   4.135  0.3823 -0.1110  1.6587
10510TIP3    H132412   7.148   3.830   4.070  1.0689  0.1296  0.9785
10510TIP3    H232413   7.129   3.890   4.208  0.2497 -1.6621  1.6849
10511TIP3   OH232414   9.693   3.443  10.658 -0.8874  0.2551  0.1825
10511TIP3    H132415   9.775   3.411  10.620 -1.1875  0.1694 -0.3962
10511TIP3    H232416   9.721   3.499  10.730 -0.3408 -0.9053  0.9044
10512TIP3   OH232417   0.843  10.855   0.376  0.2277 -0.6970 -0.6265
10512TIP3    H132418   0.938  10.858   0.380  0.3188 -2.2430 -0.9917
10512TIP3    H232419   0.819  10.918   0.308  0.6734  2.5504  1.9777
10513TIP3   OH232420   4.621   3.377   9.597  0.0779  0.5463 -0.0818
10513TIP3    H132421   4.687   3.416   9.539  0.1691 -0.7532 -0.8937
10513TIP3    H232422   4.552   3.443   9.602  0.9984  1.5432  0.0231
10514TIP3   OH232423   0.876   1.842   0.656  0.0608  0.3645  0.1846
10514TIP3    H132424   0.799   1.788   0.641  1.9334 -2.5401  0.2007
10514TIP3    H232425   0.907   1.864   0.568  1.7406 -2.5740 -0.1204
10515TIP3   OH232426  10.267  10.089   0.897  0.5180 -0.0063  0.5626
10515TIP3    H132427  10.309  10.174   0.885 -0.8169  0.6220  0.2444
10515TIP3    H232428  10.215  10.099   0.977 -0.5687 -0.1476 -0.1196
10516TIP3   OH232429   9.692   6.361   6.615  0.2560  0.1586 -0.4018
10516TIP3    H132430   9.771   6.353   6.668  0.9513  0.2242 -1.3969
10516TIP3    H232431   9.644   6.279   6.630  0.5649  0.0718  0.1138
10517TIP3   OH232432   6.683   6.336  10.556 -0.6904  0.3249 -0.6187
10517TIP3    H132433   6.631   6.336  10.636 -0.3112 -0.0811 -0.3726
10517TIP3    H232434   6.717   6.425  10.549  1.4921 -0.2820  1.1169
10518TIP3   OH232435   7.088   9.125   3.293  0.2171 -0.2067  0.0590
10518TIP3    H132436   7.116   9.200   3.346  0.5214  1.0675 -1.8136
10518TIP3    H232437   7.164   9.067   3.292  0.7989  0.5383 -0.2994
10519TIP3   OH232438   2.000   5.883   9.656  0.2437  0.1532  0.3724
10519TIP3    H132439   2.088   5.896   9.692  0.2212  2.1323 -0.2003
10519TIP3    H232440   1.944   5.873   9.733  0.5847  1.6858  0.8414
10520TIP3   OH232441   4.717   0.396   4.009 -0.0915  0.2351 -0.2434
10520TIP3    H132442   4.741   0.307   4.036 -2.4273  0.0737  1.6185
10520TIP3    H232443   4.768   0.453   4.067 -0.2221  0.0300  0.0809
10521TIP3   OH232444   4.472   3.337  10.284  0.5977  0.1786 -0.3552
10521TIP3    H132445   4.480   3.305  10.194 -1.2088  0.7885 -0.7830
10521TIP3    H232446   4.397   3.397  10.282  0.1323 -0.2358  1.6680
10522TIP3   OH232447   4.708   2.422   1.698 -0.7980 -0.2148 -0.0921
10522TIP3    H132448   4.769   2.438   1.770 -0.2535  1.3459 -0.8559
10522TIP3    H232449   4.737   2.339   1.660 -1.3257 -1.2478  1.6773
10523TIP3   OH232450   8.940   5.872   2.817  0.4016  0.2524  0.0574
10523TIP3    H132451   8.993   5.871   2.897  1.0936  1.3013 -0.3748
10523TIP3    H232452   8.919   5.964   2.803  1.3154  0.2297 -1.6389
10524TIP3   OH232453   6.403   6.446  10.565 -0.3029  0.3326  0.4405
10524TIP3    H132454   6.418   6.524  10.512 -2.4174  1.5607  1.5193
10524TIP3    H232455   6.459   6.459  10.642  0.0423  0.3293  0.1908
10525TIP3   OH232456   2.054   3.483   8.568  0.2935  0.9052  0.3706
10525TIP3    H132457   2.114   3.491   8.643  1.7505  1.1480 -0.7754
10525TIP3    H232458   2.094   3.536   8.499 -1.5197  1.4693 -0.3056
10526TIP3   OH232459   1.448   2.038   8.322  0.0557  0.3849  0.4270
10526TIP3    H132460   1.352   2.037   8.321  0.0054 -0.9096  2.3815
10526TIP3    H232461   1.473   1.946   8.324  1.3356  0.7209  0.6135
10527TIP3   OH232462   1.961   7.395   3.379  0.0920  0.2429  0.0182
10527TIP3    H132463   1.887   7.341   3.406  0.1612 -0.1209 -0.4989
10527TIP3    H232464   2.036   7.356   3.425  0.4038 -1.0969 -1.5106
10528TIP3   OH232465   0.744   5.276   2.634  0.1138  0.2720 -0.3137
10528TIP3    H132466   0.746   5.275   2.538 -0.0205  0.1170 -0.3156
10528TIP3    H232467   0.677   5.340   2.657  0.3563  0.5269 -0.3208
10529TIP3   OH232468   5.206   2.798   3.643  0.0523  0.4009  0.2174
10529TIP3    H132469   5.260   2.847   3.706  0.9490  0.8043 -0.8495
10529TIP3    H232470   5.268   2.749   3.591 -0.7086 -0.1233 -0.2031
10530TIP3   OH232471   8.020   3.644   1.076  0.4381 -0.2253 -0.7520
10530TIP3    H132472   8.043   3.552   1.092 -0.5203 -0.1926  1.0678
10530TIP3    H232473   8.103   3.691   1.080  0.6617 -0.6782  1.2635
10531TIP3   OH232474  10.851  10.339   3.853 -0.6291 -0.7286 -0.1485
10531TIP3    H132475  10.827  10.394   3.778 -3.0919  1.3807  1.9546
10531TIP3    H232476  10.944  10.322   3.842  0.1920  3.3438 -1.4108
10532TIP3   OH232477   3.565  10.447   4.515  0.3100  0.4341 -0.1184
10532TIP3    H132478   3.471  10.457   4.496 -0.0034  1.9943  1.9195
10532TIP3    H232479   3.567  10.406   4.602  1.5224  0.8646  0.0706
10533TIP3   OH232480   0.392   0.659   0.714  0.5163  0.1475 -0.3466
10533TIP3    H132481   0.393   0.749   0.681 -1.3740  0.1301 -0.5388
10533TIP3    H232482   0.448   0.662   0.792  1.1566  1.2757 -0.8153
10534TIP3   OH232483   9.628   6.958   9.739 -0.2739 -0.0127  0.4687
10534TIP3    H132484   9.710   6.916   9.715  0.0670  1.0454 -0.3012
10534TIP3    H232485   9.640   6.987   9.829 -0.3539 -1.1404  0.8547
10535TIP3   OH232486   0.710   1.277   1.923  0.1882 -0.0472 -0.4690
10535TIP3    H132487   0.744   1.198   1.881 -2.3026 -0.6135 -1.6490
10535TIP3    H232488   0.659   1.244   1.997  1.4596  0.7066  0.7857
10536TIP3   OH232489  10.709  10.493   3.112 -0.1536  0.2681  0.6366
10536TIP3    H132490  10.756  10.413   3.136 -0.3105  0.6966  2.5075
10536TIP3    H232491  10.640  10.464   3.052  0.2780 -0.8728  0.6757
10537TIP3   OH232492   1.793   0.018   5.264 -0.4416 -0.6147  0.3533
10537TIP3    H132493   1.840  -0.062   5.243 -0.9643 -0.8779  0.1643
10537TIP3    H232494   1.855   0.069   5.316 -0.9021 -2.1435  2.5434
10538TIP3   OH232495   1.299   5.344   2.647  0.4848 -0.3983  0.3228
10538TIP3    H132496   1.336   5.372   2.563  0.1888 -2.1421 -0.4202
10538TIP3    H232497   1.324   5.414   2.708 -0.8849  1.8889 -1.5597
10539TIP3   OH232498   7.218   0.328   6.790  0.7033  0.0078  0.3697
10539TIP3    H132499   7.253   0.314   6.878  0.2001  0.3460  0.6295
10539TIP3    H232500   7.185   0.242   6.763  0.6625 -0.0513  0.6032
10540TIP3   OH232501   9.938   8.327   6.882 -0.2752 -0.2757 -0.3492
10540TIP3    H132502   9.885   8.364   6.953  1.9512 -1.4574  2.1296
10540TIP3    H232503   9.925   8.233   6.889  3.8554 -0.9007  2.1274
10541TIP3   OH232504   0.144   0.756   7.750  0.0586 -0.1232 -0.1273
10541TIP3    H132505   0.160   0.713   7.667  1.5648  0.7975 -0.3616
10541TIP3    H232506   0.229   0.793   7.775 -0.3303 -0.4044  1.8412
10542TIP3   OH232507   4.972   4.872   6.756 -0.0079 -0.3480  0.0200
10542TIP3    H132508   4.998   4.962   6.736 -1.3286  0.3643  1.2521
10542TIP3    H232509   4.986   4.864   6.850 -1.1471 -0.9787  0.1518
10543TIP3   OH232510   1.592   1.375   0.466  0.3370 -0.3848 -0.5646
10543TIP3    H132511   1.505   1.344   0.492  0.5564 -0.0830  0.6112
10543TIP3    H232512   1.651   1.337   0.531  0.9580  0.1846 -0.7898
10544TIP3   OH232513   5.824   1.387   1.759  0.2649 -0.6044  0.8974
10544TIP3    H132514   5.895   1.372   1.822  2.8173 -1.1304 -1.8450
10544TIP3    H232515   5.788   1.301   1.742  0.9753 -0.7770  0.1956
10545TIP3   OH232516   2.282   8.548   1.559  0.0848 -0.4168  0.1369
10545TIP3    H132517   2.249   8.468   1.599  0.0565 -0.3974  0.1526
10545TIP3    H232518   2.366   8.563   1.601  0.2480 -0.6277 -0.1101
10546TIP3   OH232519  10.316  10.276   9.384 -0.1906 -0.3527  0.1784
10546TIP3    H132520  10.309  10.349   9.445 -0.2351 -0.6045  0.4782
10546TIP3    H232521  10.230  10.272   9.342  0.2306  0.6093 -0.8209
10547TIP3   OH232522   9.717   3.882   9.657 -0.1968  0.8127  0.1722
10547TIP3    H132523   9.659   3.827   9.708  2.2625 -1.8925  0.3046
10547TIP3    H232524   9.759   3.940   9.721  1.0858 -0.9040  0.9566
10548TIP3   OH232525  10.422   5.784   0.352 -0.2762 -0.1175  0.3049
10548TIP3    H132526  10.438   5.734   0.432  1.3903 -0.3031 -0.1048
10548TIP3    H232527  10.502   5.835   0.339 -0.7357  0.3356 -0.9525
10549TIP3   OH232528   5.919   8.598   5.787 -0.5002  0.4216  0.6353
10549TIP3    H132529   5.887   8.681   5.823  1.3641  2.0610 -1.2006
10549TIP3    H232530   5.989   8.572   5.846  0.3919  1.3923  0.0517
10550TIP3   OH232531   3.474   7.004   9.672 -0.3231  0.5686  0.2407
10550TIP3    H132532   3.468   6.923   9.723 -1.1143  1.0196  0.8819
10550TIP3    H232533   3.505   7.070   9.734  0.4079  0.7494 -0.3022
10551TIP3   OH232534   3.659   0.662   5.933  0.4192 -0.3964 -0.0019
10551TIP3    H132535   3.726   0.604   5.897  1.3448 -0.1419  1.2509
10551TIP3    H232536   3.696   0.693   6.015 -0.8724  0.4662  0.2783
10552TIP3   OH232537   5.686   6.047   6.968 -0.1344 -1.0492 -0.0095
10552TIP3    H132538   5.754   5.980   6.976  0.6462 -0.5110 -1.8331
10552TIP3    H232539   5.727   6.119   6.922 -1.2897  0.2725  0.9339
10553TIP3   OH232540   4.661  10.775   3.989 -0.3994 -0.1129  0.1849
10553TIP3    H132541   4.593  10.793   3.923  0.2860  0.7295 -0.3295
10553TIP3    H232542   4.729  10.727   3.941 -0.9695 -1.6935  0.8949
10554TIP3   OH232543   2.690   6.206   1.687  0.3582  0.0726 -0.2661
10554TIP3    H132544   2.745   6.170   1.757 -0.3417 -0.4553  0.0286
10554TIP3    H232545   2.746   6.205   1.610  1.5863  1.8882  0.5280
10555TIP3   OH232546  10.482   9.340   0.904  0.1581 -0.3018  0.0221
10555TIP3    H132547  10.551   9.276   0.924  0.1561  0.0011  1.0873
10555TIP3    H232548  10.400   9.290   0.914  0.1941 -0.4279 -0.3176
10556TIP3   OH232549   6.466   6.843   5.594  0.0468  0.2159  0.2672
10556TIP3    H132550   6.456   6.814   5.684  1.1222 -0.9572  0.0468
10556TIP3    H232551   6.547   6.894   5.593  1.0476 -1.3115 -0.3380
10557TIP3   OH232552   1.820   1.158   6.155  0.3595 -0.4378 -0.3004
10557TIP3    H132553   1.780   1.244   6.165  0.4948 -0.4611  0.5325
10557TIP3    H232554   1.875   1.166   6.077 -0.8849 -0.2737 -1.1833
10558TIP3   OH232555   6.422   5.661   8.898  0.1542  0.9915  0.0397
10558TIP3    H132556   6.466   5.630   8.978 -0.3098  0.1497 -0.0223
10558TIP3    H232557   6.364   5.730   8.928  0.0367  0.7284  0.4223
10559TIP3   OH232558   8.181   8.492   4.200 -0.2747  0.3160 -0.4068
10559TIP3    H132559   8.121   8.567   4.206 -0.0851  0.3825  1.2970
10559TIP3    H232560   8.253   8.523   4.146  0.7178  2.0932  1.7462
10560TIP3   OH232561   4.466   4.173   6.270  0.0138  0.2006  0.2926
10560TIP3    H132562   4.522   4.174   6.348  1.3032 -0.7165 -0.5888
10560TIP3    H232563   4.521   4.208   6.200 -0.6674 -0.2820 -0.4984
10561TIP3   OH232564   5.616   3.438   4.874  0.4625  0.3953 -0.2608
10561TIP3    H132565   5.707   3.422   4.898  0.1558 -0.6781  0.2158
10561TIP3    H232566   5.593   3.366   4.815 -0.5357 -0.2497  0.8578
10562TIP3   OH232567   8.980   5.969   9.157 -0.0791  0.1199  0.0093
10562TIP3    H132568   8.914   5.901   9.143 -0.2915  0.3742 -0.2157
10562TIP3    H232569   8.962   6.002   9.245  1.2155 -1.4300  0.9228
10563TIP3   OH232570   2.535   5.881   1.451  0.1295  0.0589  0.1570
10563TIP3    H132571   2.522   5.787   1.444 -0.1416  0.1932 -1.5616
10563TIP3    H232572   2.479   5.919   1.382  0.8719  1.4113  0.2548
10564TIP3   OH232573   7.434   0.033  10.090 -0.0898 -0.2448 -0.3316
10564TIP3    H132574   7.431   0.098  10.160  0.1317 -0.2650 -0.3019
10564TIP3    H232575   7.346   0.033  10.054  0.1791  0.8591 -1.0554
10565TIP3   OH232576   9.772   4.360   6.877  0.0905 -0.1496 -1.5606
10565TIP3    H132577   9.814   4.303   6.940 -1.9348 -0.8754 -0.7859
10565TIP3    H232578   9.828   4.355   6.799  1.5436 -0.8015 -0.5253
10566TIP3   OH232579   8.420   5.327  10.535  0.6992  0.3645 -0.2908
10566TIP3    H132580   8.459   5.250  10.494  0.0102  0.8001 -1.8245
10566TIP3    H232581   8.449   5.322  10.626  2.0304 -0.8012 -0.7349
10567TIP3   OH232582   2.912   7.974   4.031  0.5868 -0.1377  0.2224
10567TIP3    H132583   2.891   8.066   4.045  0.0535 -0.2113 -0.0419
10567TIP3    H232584   2.968   7.950   4.105 -0.4731  0.0198  1.1110
10568TIP3   OH232585   3.772   0.933   8.416 -0.6810  0.1341  0.1917
10568TIP3    H132586   3.835   0.943   8.487 -2.0153 -0.2086  1.4964
10568TIP3    H232587   3.691   0.972   8.451 -0.5533  3.1225 -2.4210
10569TIP3   OH232588   0.688   9.545   3.433  0.0155 -0.3909 -0.5967
10569TIP3    H132589   0.670   9.529   3.340 -1.1678 -0.1780 -0.4206
10569TIP3    H232590   0.603   9.536   3.476 -0.2008  2.9359 -0.0310
10570TIP3   OH232591   2.736   2.143   3.529  0.3088  0.1576 -1.0605
10570TIP3    H132592   2.795   2.123   3.457  0.2523  0.6123 -1.2368
10570TIP3    H232593   2.675   2.208   3.493  0.6917  0.8941 -0.4202
10571TIP3   OH232594  10.873   9.310   2.244 -0.2170  0.7590  0.5972
10571TIP3    H132595  10.852   9.298   2.152 -0.0163  1.2200  0.4909
10571TIP3    H232596  10.788   9.310   2.288 -0.2541 -1.1079  0.6281
10572TIP3   OH232597   5.961   1.891   1.814 -0.6154 -0.0369  0.9094
10572TIP3    H132598   5.874   1.867   1.844 -0.6639  0.0633  0.8492
10572TIP3    H232599   5.968   1.852   1.727 -2.0538  3.0685 -0.7852
10573TIP3   OH232600   8.571   4.496   5.689 -0.1302 -0.6036 -0.1636
10573TIP3    H132601   8.583   4.404   5.665 -1.0062 -0.2005 -2.3622
10573TIP3    H232602   8.479   4.515   5.669  0.6139  1.3704 -2.1880
10574TIP3   OH232603   8.689   3.390   2.639  0.6933  0.1108  0.0341
10574TIP3    H132604   8.634   3.327   2.594  1.6090  0.6009 -1.8885
10574TIP3    H232605   8.631   3.432   2.702 -0.1870 -1.8644  0.6086
10575TIP3   OH232606   6.822  10.643   9.930 -0.4172 -0.5440 -0.1952
10575TIP3    H132607   6.875  10.568   9.906  1.4658  0.8490 -0.6340
10575TIP3    H232608   6.750  10.643   9.866  0.9553 -0.5546 -1.7897
10576TIP3   OH232609   4.824   8.864   2.673  0.6193  0.3940  0.2177
10576TIP3    H132610   4.779   8.850   2.757 -2.0095 -1.7853 -1.4130
10576TIP3    H232611   4.838   8.776   2.638  1.6730  1.2470 -1.6719
10577TIP3   OH232612   9.493   5.082  10.594  0.2071 -0.8864  0.4342
10577TIP3    H132613   9.443   5.060  10.673 -1.1409 -0.8141 -0.3624
10577TIP3    H232614   9.452   5.029  10.525 -0.2007  0.7810 -0.6661
10578TIP3   OH232615   3.730   8.307   7.347 -0.3591 -0.2461  0.5491
10578TIP3    H132616   3.658   8.269   7.398  0.7455 -1.7747  1.0602
10578TIP3    H232617   3.806   8.299   7.405  0.5994 -0.4550 -0.7003
10579TIP3   OH232618   0.484   1.055   7.342 -0.2051  0.0513  0.3448
10579TIP3    H132619   0.418   0.998   7.381  1.4116 -2.5413 -0.4462
10579TIP3    H232620   0.510   1.112   7.414 -1.8441 -0.2253  1.2236
10580TIP3   OH232621   0.497   5.940   3.714 -0.6698 -0.2387  0.0038
10580TIP3    H132622   0.538   5.923   3.629 -0.1053  0.0525  0.2115
10580TIP3    H232623   0.528   6.027   3.739 -0.6260 -0.4224  0.6165
10581TIP3   OH232624   6.658   0.726   7.635 -0.5876 -0.1411  0.1173
10581TIP3    H132625   6.626   0.639   7.659 -1.1051  0.0599  0.1596
10581TIP3    H232626   6.735   0.708   7.581 -1.4842 -0.6696 -1.0455
10582TIP3   OH232627   3.011  10.274   1.559  0.2522 -0.0782 -0.1332
10582TIP3    H132628   2.974  10.190   1.585 -0.4517  0.2842  0.0926
10582TIP3    H232629   3.096  10.253   1.521 -0.4274 -1.0017 -1.1940
10583TIP3   OH232630   2.708   2.609   6.971  0.2263  0.6391 -0.0459
10583TIP3    H132631   2.795   2.579   6.947  0.2942  0.5251  0.3354
10583TIP3    H232632   2.657   2.528   6.980  0.0690  0.7078 -0.3088
10584TIP3   OH232633   8.698   6.593   2.929  0.6821  0.4942 -0.0509
10584TIP3    H132634   8.709   6.687   2.912 -0.3591  0.5378 -0.5566
10584TIP3    H232635   8.610   6.573   2.897 -0.5998  0.1013  3.3642
10585TIP3   OH232636   6.169   6.170   3.938  0.2065  0.8768  0.2737
10585TIP3    H132637   6.240   6.227   3.909 -2.0752  2.9569 -1.5497
10585TIP3    H232638   6.133   6.214   4.015 -0.4088  0.8976 -0.0285
10586TIP3   OH232639   9.160   1.792   0.008  0.1401  0.2721  0.0571
10586TIP3    H132640   9.208   1.763   0.086 -0.2326 -1.6105 -0.3619
10586TIP3    H232641   9.222   1.781  -0.064 -0.5019 -1.1203 -0.3307
10587TIP3   OH232642   7.290   0.129   4.616  0.1952  0.2062 -0.3305
10587TIP3    H132643   7.288   0.222   4.636  0.6362  0.6666 -2.2323
10587TIP3    H232644   7.372   0.098   4.654  0.8539  0.9713 -1.0977
10588TIP3   OH232645   7.209   8.163   4.984 -0.0899  0.1334 -0.1468
10588TIP3    H132646   7.145   8.232   5.002  0.5027  0.5557  0.3777
10588TIP3    H232647   7.244   8.185   4.897 -1.0784 -0.4457 -0.7154
10589TIP3   OH232648   7.843   9.971   6.519  0.0036  0.3974  0.2860
10589TIP3    H132649   7.848   9.882   6.482  2.0137  0.1359  1.0789
10589TIP3    H232650   7.811  10.024   6.446  0.3808 -0.7049 -0.7340
10590TIP3   OH232651   7.385   2.475   9.259  0.4470  0.8064  0.1922
10590TIP3    H132652   7.312   2.450   9.316  1.5537 -1.5389  0.6580
10590TIP3    H232653   7.358   2.445   9.172 -0.4656  2.8154 -0.2915
10591TIP3   OH232654   2.968  10.311   7.191 -0.0151 -0.0001  0.5584
10591TIP3    H132655   2.915  10.345   7.262 -0.4912 -1.1617  0.7874
10591TIP3    H232656   2.923  10.231   7.163 -0.6885  1.1779 -2.0704
10592TIP3   OH232657   3.375   7.275   8.818  0.4175  0.1480 -0.0713
10592TIP3    H132658   3.426   7.257   8.897  0.9531  2.1365  0.0740
10592TIP3    H232659   3.303   7.331   8.848  1.1630  1.7183 -1.0981
10593TIP3   OH232660   9.579   1.975  10.371 -0.5947  0.1193  0.1980
10593TIP3    H132661   9.517   1.971  10.444  0.4055  1.3791  1.1595
10593TIP3    H232662   9.629   2.055  10.386 -1.4864  1.4010 -2.8459
10594TIP3   OH232663   7.951   3.770   7.315 -0.2948  0.1097 -0.5304
10594TIP3    H132664   7.857   3.788   7.305 -0.9486 -2.3755  0.5009
10594TIP3    H232665   7.959   3.733   7.403  2.0332  2.1776  0.2469
10595TIP3   OH232666   9.979  10.043   6.851  0.1981 -0.2517  0.5931
10595TIP3    H132667   9.887  10.066   6.863 -0.3824 -0.6636 -2.3550
10595TIP3    H232668  10.025  10.127   6.855 -0.5515  0.1916  0.2221
10596TIP3   OH232669   3.716   8.237   3.453 -1.2723  0.9104  0.3203
10596TIP3    H132670   3.648   8.186   3.495 -1.9424  0.9384 -0.6920
10596TIP3    H232671   3.784   8.174   3.432 -0.1738  1.1298  2.8128
10597TIP3   OH232672   8.962   6.613   6.547 -0.3170 -0.4197 -0.1345
10597TIP3    H132673   9.011   6.591   6.467  0.7043  2.3266 -0.3853
10597TIP3    H232674   8.871   6.615   6.520  0.0161  0.4588 -1.2727
10598TIP3   OH232675   9.401   3.332   3.000 -0.7829  0.2353 -0.1851
10598TIP3    H132676   9.311   3.311   2.975 -0.6958 -0.6435  0.1933
10598TIP3    H232677   9.422   3.269   3.069  1.1507 -1.6833 -2.3433
10599TIP3   OH232678  10.341   6.058   5.920  0.2471 -0.0278 -0.1918
10599TIP3    H132679  10.312   6.145   5.946  0.4513 -0.2173  0.6930
10599TIP3    H232680  10.425   6.046   5.963  0.4985 -0.4360 -0.7788
10600TIP3   OH232681  10.042   3.512   6.866 -0.5183 -0.3140  0.1848
10600TIP3    H132682   9.949   3.532   6.877 -0.8007  1.8045 -4.1017
10600TIP3    H232683  10.044   3.430   6.816 -0.1891  0.2515 -0.7589
10601TIP3   OH232684   4.267   1.374   3.326  0.3609 -0.0757  0.2190
10601TIP3    H132685   4.348   1.343   3.284  0.2909 -0.1005  0.1003
10601TIP3    H232686   4.218   1.415   3.254  0.1799 -0.2378  0.2508
10602TIP3   OH232687   3.897  10.828   4.345 -0.3045  0.4054  0.2738
10602TIP3    H132688   3.928  10.763   4.409 -0.3627  0.7679  0.6783
10602TIP3    H232689   3.802  10.827   4.355 -0.3338  0.2399 -0.0291
10603TIP3   OH232690   8.177   0.216   6.911 -0.0973 -0.2775  0.2196
10603TIP3    H132691   8.245   0.188   6.850  0.2034  0.6029  0.1461
10603TIP3    H232692   8.095   0.186   6.870  0.1758 -0.5273 -0.1489
10604TIP3   OH232693   0.694   0.767  10.062 -0.1834  0.1698  0.1398
10604TIP3    H132694   0.630   0.834  10.088 -1.3908 -1.3864  1.3650
10604TIP3    H232695   0.766   0.778  10.124  0.5908  1.6068 -0.9390
10605TIP3   OH232696   1.226   6.720   7.075 -0.3298 -0.5585  0.1894
10605TIP3    H132697   1.130   6.717   7.066 -0.3851  0.7726  0.0316
10605TIP3    H232698   1.239   6.763   7.160  0.0851  1.1251 -0.6709
10606TIP3   OH232699   7.283   8.154   8.077 -0.3372  0.0338 -0.1643
10606TIP3    H132700   7.317   8.242   8.067 -0.3356 -0.0148 -0.6202
10606TIP3    H232701   7.193   8.159   8.045 -0.0279 -0.3396 -1.1648
10607TIP3   OH232702   1.757   4.137   9.947 -0.4169  0.2891 -0.0947
10607TIP3    H132703   1.666   4.165   9.948 -0.1623  1.2034  1.7862
10607TIP3    H232704   1.752   4.041   9.945 -1.4429  0.3125  0.6328
10608TIP3   OH232705   3.997   6.445  10.373 -0.0306  0.1645  0.0710
10608TIP3    H132706   3.987   6.525  10.423 -1.1315 -1.3795  2.5437
10608TIP3    H232707   4.079   6.406  10.404 -1.1801 -1.2630  1.4840
10609TIP3   OH232708   9.034   4.630   5.442  0.1401  0.3610  0.4915
10609TIP3    H132709   8.974   4.632   5.368 -1.5863 -2.9475  1.5955
10609TIP3    H232710   9.099   4.564   5.418 -0.1926 -0.4273  1.6781
10610TIP3   OH232711   7.881   9.533   7.449  0.7325  0.4086 -0.5260
10610TIP3    H132712   7.951   9.495   7.501  1.9668  3.0434 -0.1331
10610TIP3    H232713   7.869   9.621   7.484 -1.4741  0.7254 -1.8428
10611TIP3   OH232714   0.254   2.368  10.105  0.2095  0.3054 -0.1793
10611TIP3    H132715   0.313   2.437  10.074  1.0598 -1.0264 -1.6815
10611TIP3    H232716   0.273   2.293  10.048 -1.3741 -0.8688  0.7609
10612TIP3   OH232717   9.340   3.266  10.724  0.1466 -0.0335  0.2836
10612TIP3    H132718   9.266   3.317  10.691  1.1121  1.5129  0.4209
10612TIP3    H232719   9.350   3.294  10.815  1.3721  0.3667  0.0444
10613TIP3   OH232720   3.893   5.856   1.658 -0.6069 -0.0183  0.7667
10613TIP3    H132721   3.952   5.814   1.720  0.1155  1.2357  0.9716
10613TIP3    H232722   3.878   5.790   1.590  2.0625 -0.0003  0.0366
10614TIP3   OH232723   1.141   3.236   1.051 -0.0898 -0.1335 -0.5715
10614TIP3    H132724   1.078   3.275   0.990  1.2163 -1.0161 -2.5925
10614TIP3    H232725   1.106   3.149   1.070 -0.6061  0.2212  0.1392
10615TIP3   OH232726   0.114   5.982  10.576 -0.1794 -0.9483 -0.7164
10615TIP3    H132727   0.059   5.994  10.653 -0.5599 -1.7661 -0.8480
10615TIP3    H232728   0.119   6.068  10.535 -2.5259 -1.1036 -1.4891
10616TIP3   OH232729   7.628   4.799   1.456  0.5221  0.6596 -0.0703
10616TIP3    H132730   7.588   4.717   1.427  0.5964  0.4569  0.3770
10616TIP3    H232731   7.584   4.867   1.407  1.5642  0.2475 -1.6481
10617TIP3   OH232732   4.855   8.993   5.610  0.1456  0.0820  0.3418
10617TIP3    H132733   4.838   9.060   5.544  0.4063 -1.3865 -1.3012
10617TIP3    H232734   4.784   8.930   5.599  0.2979 -0.2843  1.3514
10618TIP3   OH232735   4.143   6.181   4.739 -0.2753 -0.1947  0.4122
10618TIP3    H132736   4.079   6.179   4.810 -0.1312 -2.2029  0.5429
10618TIP3    H232737   4.212   6.240   4.771 -0.8928  0.0590  1.3183
10619TIP3   OH232738   6.557   2.171   2.311 -0.1166 -0.5602 -0.2180
10619TIP3    H132739   6.469   2.150   2.281 -0.2605 -0.4004  0.0937
10619TIP3    H232740   6.587   2.094   2.358 -0.4792 -0.2411  0.5511
10620TIP3   OH232741   6.381   3.531   4.493  0.0562 -0.7688 -0.1367
10620TIP3    H132742   6.414   3.482   4.569  1.6921 -0.8601 -0.8654
10620TIP3    H232743   6.407   3.479   4.418  1.2901  0.8481 -0.9103
10621TIP3   OH232744   9.154   5.871  10.230 -0.4390  0.2751  0.2058
10621TIP3    H132745   9.080   5.912  10.275 -0.3280 -2.0639  2.8287
10621TIP3    H232746   9.221   5.862  10.298  1.3016  0.0124 -1.4527
10622TIP3   OH232747   9.371   6.066   8.464 -0.2210  0.0744  0.3502
10622TIP3    H132748   9.464   6.050   8.475 -0.0960  0.2866 -0.3627
10622TIP3    H232749   9.334   6.057   8.552  0.4510 -0.1231  0.6131
10623TIP3   OH232750   8.686   0.934   1.670 -0.4746 -0.1318 -0.0560
10623TIP3    H132751   8.729   0.936   1.755  1.8093  0.3698 -1.1658
10623TIP3    H232752   8.698   1.022   1.634  1.1471 -1.0998 -2.0703
10624TIP3   OH232753   8.112   7.003   0.230 -0.3772 -0.0877 -0.6634
10624TIP3    H132754   8.190   7.015   0.176  0.1029 -1.0915 -0.2342
10624TIP3    H232755   8.051   7.070   0.201  0.4009  0.2812 -1.4735
10625TIP3   OH232756   7.065  10.396   2.180  0.1329  0.5106  0.5013
10625TIP3    H132757   7.146  10.435   2.146 -0.4258  0.4718 -0.9560
10625TIP3    H232758   7.060  10.311   2.136 -1.9320  1.5191 -1.4495
10626TIP3   OH232759   9.158   9.919   5.182  0.2237  0.1928  0.5213
10626TIP3    H132760   9.096   9.954   5.245  1.7344  1.8817  1.1691
10626TIP3    H232761   9.225   9.987   5.174  0.9331 -0.6752 -1.6884
10627TIP3   OH232762   1.590   9.278   9.459  0.7594 -0.0973 -0.4750
10627TIP3    H132763   1.618   9.360   9.418 -0.0952  2.6211  3.6624
10627TIP3    H232764   1.668   9.246   9.503  0.9042 -1.1468 -1.4649
10628TIP3   OH232765   9.893   6.759   1.940  0.9183 -0.1038 -0.1760
10628TIP3    H132766   9.845   6.738   1.861 -2.2248 -0.8129  1.7538
10628TIP3    H232767   9.982   6.729   1.923 -0.2156 -2.5243 -2.5082
10629TIP3   OH232768   1.867   9.367   7.983 -0.5695  0.2635  0.2222
10629TIP3    H132769   1.790   9.404   8.025  0.2939  2.7263 -0.1861
10629TIP3    H232770   1.926   9.348   8.056  0.0055  2.3320  0.3786
10630TIP3   OH232771   8.215   8.732   6.742  0.1350  0.2033  0.2897
10630TIP3    H132772   8.219   8.638   6.722 -0.2394  0.1070  0.6598
10630TIP3    H232773   8.235   8.775   6.659 -1.4452 -0.1903 -0.3368
10631TIP3   OH232774   6.185   9.000   7.644  0.4945  0.1595  0.1622
10631TIP3    H132775   6.090   9.013   7.642  0.3448 -0.8814 -1.0282
10631TIP3    H232776   6.207   8.970   7.556  1.8147 -0.3545  0.6374
10632TIP3   OH232777   2.019   7.210   3.163 -0.4807  0.2176 -0.7397
10632TIP3    H132778   2.042   7.262   3.086  0.7384  3.1604  1.4249
10632TIP3    H232779   2.034   7.268   3.237  0.5724 -3.1039  1.9536
10633TIP3   OH232780   6.546   2.328   7.992  0.8755  0.0323  0.6447
10633TIP3    H132781   6.562   2.363   8.080  2.8260 -0.1216  0.3741
10633TIP3    H232782   6.620   2.359   7.940  1.4411 -2.5102 -0.1706
10634TIP3   OH232783   8.090   8.484   5.970 -0.1713 -0.0268 -0.3635
10634TIP3    H132784   8.095   8.389   5.983  0.1479  0.0705  0.2629
10634TIP3    H232785   8.055   8.518   6.052 -2.2518  0.2251 -1.2756
10635TIP3   OH232786   2.444   8.679   7.619  0.2860 -0.0231  0.1396
10635TIP3    H132787   2.401   8.641   7.542  0.5530  0.3182 -0.1803
10635TIP3    H232788   2.376   8.680   7.686  0.5838 -2.1683  0.5298
10636TIP3   OH232789   2.223   6.353   5.567 -0.6360 -0.4524 -0.2326
10636TIP3    H132790   2.266   6.411   5.504 -2.0845  0.9112 -0.0223
10636TIP3    H232791   2.267   6.269   5.555  1.7345  0.7021 -0.3649
10637TIP3   OH232792   7.956   6.465   4.765 -0.3005 -0.4617 -0.2276
10637TIP3    H132793   7.947   6.552   4.805  0.8113 -1.2424  1.8835
10637TIP3    H232794   7.883   6.415   4.801  0.5515 -1.0968  0.6662
10638TIP3   OH232795   3.218   1.070   0.208 -0.0775 -0.1303  0.2255
10638TIP3    H132796   3.307   1.072   0.173  0.2803 -0.2698  1.0879
10638TIP3    H232797   3.169   1.132   0.153 -0.2367 -2.2869 -2.2442
10639TIP3   OH232798   2.340   3.683   6.750 -0.5330 -0.5295  0.0693
10639TIP3    H132799   2.294   3.610   6.708 -1.5385  0.1282  0.0010
10639TIP3    H232800   2.417   3.697   6.695 -0.8206 -0.9394 -0.4538
10640TIP3   OH232801   8.270   1.279   4.869  0.3259  0.0898 -0.6880
10640TIP3    H132802   8.215   1.210   4.907 -0.8986  0.5358 -1.5889
10640TIP3    H232803   8.340   1.231   4.825  0.0395 -0.5482 -0.4741
10641TIP3   OH232804   5.738  10.102  10.849  0.2966  0.5787 -0.2264
10641TIP3    H132805   5.673  10.096  10.919 -0.3443 -0.1847 -0.8611
10641TIP3    H232806   5.733  10.018  10.804  2.6556 -0.0220  0.4925
10642TIP3   OH232807   5.929   8.474   0.976 -0.5709  0.4398 -0.2771
10642TIP3    H132808   5.842   8.461   0.939 -0.7846  1.3846 -0.1364
10642TIP3    H232809   5.922   8.443   1.066 -0.0745 -1.7810 -0.9495
10643TIP3   OH232810   9.555  10.615   2.063  0.2430 -0.3523  0.3167
10643TIP3    H132811   9.580  10.665   2.140 -0.0153  1.6460 -0.8246
10643TIP3    H232812   9.622  10.547   2.055  0.7499 -0.0565  1.7781
10644TIP3   OH232813   1.448   3.940   3.733  0.2338  0.0876 -0.6725
10644TIP3    H132814   1.375   4.002   3.729  0.7889  0.7169 -1.7457
10644TIP3    H232815   1.469   3.932   3.826  0.9271  2.4786 -0.5434
10645TIP3   OH232816   7.986   4.863   7.511  0.0237  0.6032 -0.2571
10645TIP3    H132817   8.001   4.938   7.454 -1.0810  0.7942 -0.3207
10645TIP3    H232818   8.059   4.804   7.493 -0.1058  0.8300 -1.5855
10646TIP3   OH232819   4.853   8.983   9.100  0.0187 -0.2709  0.5363
10646TIP3    H132820   4.906   8.926   9.044  1.1607 -0.0181  1.3285
10646TIP3    H232821   4.763   8.964   9.074  0.4916 -0.1879 -1.3447
10647TIP3   OH232822   2.877   2.326   8.290  0.0012  0.7525  0.2229
10647TIP3    H132823   2.830   2.408   8.277 -0.9509  0.0858 -0.6891
10647TIP3    H232824   2.967   2.346   8.264 -0.1794  1.5579  0.1908
10648TIP3   OH232825   6.231   0.330   3.467 -0.2932  0.0802  0.2511
10648TIP3    H132826   6.238   0.310   3.374 -0.6023 -0.0771  0.2628
10648TIP3    H232827   6.168   0.267   3.501 -0.4228  0.3437  0.5052
10649TIP3   OH232828   3.239   2.389   4.426 -0.7205 -0.5102 -0.1998
10649TIP3    H132829   3.333   2.371   4.422 -0.4992 -0.0015  1.7224
10649TIP3    H232830   3.198   2.303   4.438 -0.4693 -0.6756 -0.5104
10650TIP3   OH232831   2.180   6.099   5.169 -0.5140 -0.1265  0.2480
10650TIP3    H132832   2.200   6.009   5.146 -0.2560  0.4113 -1.8684
10650TIP3    H232833   2.113   6.126   5.106 -0.6855  1.1379  0.9182
10651TIP3   OH232834   2.002   4.639   2.675  0.3453 -0.4081  0.2450
10651TIP3    H132835   1.907   4.642   2.689  0.3799 -0.1187  0.4146
10651TIP3    H232836   2.029   4.558   2.719  0.1335 -0.6605 -0.0817
10652TIP3   OH232837  10.442   0.174   7.837 -0.5217 -0.3888 -0.1146
10652TIP3    H132838  10.430   0.128   7.919  0.0089 -1.6558 -0.7286
10652TIP3    H232839  10.525   0.142   7.803 -1.1150 -0.5083 -1.5306
10653TIP3   OH232840  10.318   3.180  10.544 -0.5817  0.5139  0.1041
10653TIP3    H132841  10.348   3.179  10.635  0.2236 -1.0577 -0.1528
10653TIP3    H232842  10.295   3.089  10.525 -0.1436  0.7012 -1.4620
10654TIP3   OH232843   0.696   4.770   1.983  0.7725  0.4165  0.7334
10654TIP3    H132844   0.716   4.856   1.946  1.6638  0.7289  1.8667
10654TIP3    H232845   0.719   4.708   1.914 -0.7718  1.0945 -0.4496
10655TIP3   OH232846   6.617   2.129   6.774 -0.2299  0.2651 -0.2654
10655TIP3    H132847   6.631   2.200   6.837  0.8661  0.4423 -0.6845
10655TIP3    H232848   6.633   2.170   6.689  0.8005 -0.5700 -0.4861
10656TIP3   OH232849   3.507   3.522   3.133  0.5054 -0.3244 -0.1037
10656TIP3    H132850   3.586   3.472   3.110  1.6601  1.5354 -0.3928
10656TIP3    H232851   3.530   3.567   3.214 -1.0617 -1.3974  0.9872
10657TIP3   OH232852   1.756  10.460   4.822 -0.7672  0.7531  0.5290
10657TIP3    H132853   1.822  10.438   4.888 -1.4896  3.2037  2.2161
10657TIP3    H232854   1.672  10.439   4.863 -1.1910  1.4194  0.0322
10658TIP3   OH232855   6.292   1.112   5.829  0.1592 -0.1515  0.1720
10658TIP3    H132856   6.364   1.105   5.766 -0.5751 -3.0675 -0.4875
10658TIP3    H232857   6.215   1.131   5.776  0.3215  3.0390  0.8830
10659TIP3   OH232858   8.407   4.130   3.342  0.1774 -0.1760  0.4867
10659TIP3    H132859   8.477   4.066   3.355  1.2537  1.0241  0.7680
10659TIP3    H232860   8.337   4.080   3.301  0.4474 -1.8574  1.9437
10660TIP3   OH232861  10.391   5.145   6.306 -0.8495  0.8536 -0.2309
10660TIP3    H132862  10.315   5.154   6.364  0.1312  0.2581  1.2275
10660TIP3    H232863  10.457   5.103   6.361  0.7429  1.9041 -1.2623
10661TIP3   OH232864   7.512   6.711   6.138  0.6377 -0.0685 -0.1556
10661TIP3    H132865   7.449   6.775   6.103  0.0327 -0.5922 -0.0385
10661TIP3    H232866   7.543   6.751   6.219 -0.4593 -0.3422  0.4150
10662TIP3   OH232867   2.690   4.988   6.289 -0.1861  0.3264  0.0451
10662TIP3    H132868   2.655   5.025   6.371  0.3502 -0.7767  0.7862
10662TIP3    H232869   2.710   4.897   6.310  0.7408  0.2472 -1.0946
10663TIP3   OH232870   2.689   1.000  10.088  0.3690 -0.2591  0.5043
10663TIP3    H132871   2.723   0.914  10.062 -0.1374 -0.7427  1.4067
10663TIP3    H232872   2.641   1.031  10.011  0.9232 -0.5783  0.0161
10664TIP3   OH232873   4.475   7.216   1.736 -0.0917  0.1184  0.1243
10664TIP3    H132874   4.450   7.139   1.684 -0.9444  0.6978 -0.3460
10664TIP3    H232875   4.483   7.286   1.671  0.7098  0.4256  0.5493
10665TIP3   OH232876   4.697  10.744   2.417  0.3531  0.5217  0.0673
10665TIP3    H132877   4.774  10.800   2.417  2.1434 -1.6440 -2.9175
10665TIP3    H232878   4.654  10.763   2.334  0.7405 -2.0003 -0.8069
10666TIP3   OH232879   5.799   7.630   7.627  0.4989  0.2361 -0.3436
10666TIP3    H132880   5.742   7.704   7.606 -1.0299 -0.8838 -0.3344
10666TIP3    H232881   5.887   7.667   7.629 -0.0362  1.7159 -1.9690
10667TIP3   OH232882   4.401   3.753   2.609 -0.1108  0.2410  0.4188
10667TIP3    H132883   4.405   3.701   2.529  0.5726 -1.3206  1.4109
10667TIP3    H232884   4.366   3.837   2.581  0.3355 -0.1739 -1.5519
10668TIP3   OH232885   5.222   3.018   8.669  0.1743  0.1232 -0.0468
10668TIP3    H132886   5.159   3.048   8.603  0.0126  0.1450  0.1182
10668TIP3    H232887   5.244   3.097   8.719 -0.6204 -0.1154  0.7017
10669TIP3   OH232888  10.158   6.956   8.790 -0.1780  0.0648  0.2157
10669TIP3    H132889  10.216   7.028   8.767  0.7662 -0.9435 -0.7072
10669TIP3    H232890  10.207   6.907   8.857 -0.1332 -0.5423 -0.2483
10670TIP3   OH232891   2.142   1.639   6.832 -0.3090 -0.1552 -0.4437
10670TIP3    H132892   2.144   1.562   6.889  1.0647 -0.4578 -0.8615
10670TIP3    H232893   2.127   1.604   6.744  0.4780  0.0216 -0.6576
10671TIP3   OH232894   3.110   1.213   8.765  0.0501 -0.1420  0.4469
10671TIP3    H132895   3.172   1.274   8.724  0.6662 -0.6843  0.5438
10671TIP3    H232896   3.030   1.222   8.714 -0.7266  2.5321  1.9324
10672TIP3   OH232897   8.591   5.105   5.126 -0.3029  0.1915 -0.0802
10672TIP3    H132898   8.657   5.158   5.170 -0.1228 -0.5339  0.5503
10672TIP3    H232899   8.580   5.028   5.183 -2.4401  0.7628  0.3828
10673TIP3   OH232900   0.537  10.387   9.449  0.3823 -0.1672  0.2532
10673TIP3    H132901   0.557  10.301   9.412 -1.4905 -0.5486 -0.0161
10673TIP3    H232902   0.552  10.376   9.543 -0.8076 -1.1581  0.3701
10674TIP3   OH232903   5.455   2.917   4.109 -0.2809 -0.4099  0.5389
10674TIP3    H132904   5.370   2.909   4.066  0.5855 -2.2878 -0.9515
10674TIP3    H232905   5.507   2.845   4.074  0.5352 -2.1841  4.7423
10675TIP3   OH232906   3.021   6.139   9.118 -0.2851  0.0165  0.1648
10675TIP3    H132907   3.039   6.220   9.071  0.4038 -0.4351 -0.3598
10675TIP3    H232908   3.104   6.091   9.117 -0.7563 -0.8210  0.2249
10676TIP3   OH232909   0.158   6.255   3.274 -0.0543  0.3336 -0.0392
10676TIP3    H132910   0.065   6.276   3.270 -0.0071  0.3400 -1.5275
10676TIP3    H232911   0.177   6.212   3.191  1.3066  0.4558  0.1829
10677TIP3   OH232912   8.200   6.639   5.173 -0.1252 -0.1270  0.5813
10677TIP3    H132913   8.136   6.569   5.166 -0.7878  0.5305 -0.1243
10677TIP3    H232914   8.275   6.608   5.121 -0.1073 -0.6321  0.9060
10678TIP3   OH232915   2.006  10.387   6.319  0.3430  0.5462  0.4715
10678TIP3    H132916   1.944  10.324   6.355  1.2085 -0.8731 -0.4493
10678TIP3    H232917   2.027  10.353   6.232  2.3441  1.0352  0.7334
10679TIP3   OH232918  10.221   2.377   8.555  0.0999  0.4001 -0.2259
10679TIP3    H132919  10.149   2.425   8.514 -1.3394 -0.9747  0.6145
10679TIP3    H232920  10.207   2.388   8.649  0.1611 -1.0369 -0.0362
10680TIP3   OH232921   3.898   4.457   7.110 -0.0961  0.3139 -0.2534
10680TIP3    H132922   3.882   4.366   7.082  0.0124 -0.0820  0.9159
10680TIP3    H232923   3.845   4.467   7.189 -0.1622  1.2979 -0.4219
10681TIP3   OH232924   1.520   4.444   2.202 -0.0607 -0.2848 -0.1845
10681TIP3    H132925   1.550   4.404   2.283  4.9437 -0.6015 -1.7986
10681TIP3    H232926   1.463   4.515   2.229 -0.0876 -1.4988  3.4402
10682TIP3   OH232927   5.649   2.207   3.042  0.6203 -0.1164  0.1334
10682TIP3    H132928   5.626   2.126   3.088  0.3064  0.3190  0.7562
10682TIP3    H232929   5.614   2.196   2.954  0.2123 -0.4916  0.3377
10683TIP3   OH232930   0.829   4.842   0.086  0.0403 -0.2526  0.0016
10683TIP3    H132931   0.833   4.877   0.175 -1.3107  0.0772 -0.0472
10683TIP3    H232932   0.827   4.919   0.029 -1.4263 -0.3797 -0.1768
10684TIP3   OH232933   9.504   2.116   4.851 -0.3452  0.1916  0.1882
10684TIP3    H132934   9.453   2.163   4.917 -1.5470 -2.2179  1.1143
10684TIP3    H232935   9.593   2.115   4.885 -0.4489  1.1238  0.5055
10685TIP3   OH232936  10.045   9.001   5.146  0.0031  0.3362 -0.1247
10685TIP3    H132937  10.099   9.000   5.225  1.3958  0.6285 -1.0265
10685TIP3    H232938   9.955   9.001   5.178  0.5157 -1.0296  1.4248
10686TIP3   OH232939   2.691   5.820   5.226 -0.0971 -0.2798 -0.2572
10686TIP3    H132940   2.681   5.740   5.277 -1.3933 -0.9975 -1.5766
10686TIP3    H232941   2.601   5.849   5.208  0.3308  1.4943  0.1901
10687TIP3   OH232942   9.941   0.525   5.316 -0.3481 -0.1976 -0.3917
10687TIP3    H132943   9.973   0.602   5.268 -2.8067  1.0604 -0.1986
10687TIP3    H232944   9.846   0.527   5.303 -0.8156 -1.4211  2.1995
10688TIP3   OH232945   8.659   2.973   9.630 -0.1004 -0.2624 -0.3787
10688TIP3    H132946   8.663   2.968   9.534  2.2555  0.9383 -0.4237
10688TIP3    H232947   8.582   3.026   9.649 -0.2605 -0.0198 -1.6304
10689TIP3   OH232948   6.937   2.817   8.429 -0.6513 -0.2711  0.1626
10689TIP3    H132949   7.010   2.878   8.418  0.5253 -1.8623 -1.6427
10689TIP3    H232950   6.941   2.761   8.352 -1.8076 -2.4675  1.5820
10690TIP3   OH232951   0.518   0.059   8.491  0.1473  0.3128  0.0078
10690TIP3    H132952   0.510   0.155   8.494  1.4427  0.4225  0.6536
10690TIP3    H232953   0.540   0.034   8.581  0.9154 -0.4617 -0.3755
10691TIP3   OH232954   5.856   6.931   9.928 -0.4017  0.4542 -0.0001
10691TIP3    H132955   5.843   6.849   9.975  0.7639  0.7281  0.8396
10691TIP3    H232956   5.770   6.951   9.891 -0.5069 -1.6725 -1.1219
10692TIP3   OH232957   5.476   8.993   7.109  0.3375 -0.1224  0.4779
10692TIP3    H132958   5.414   8.925   7.137 -0.3301  0.7705  1.2209
10692TIP3    H232959   5.458   9.067   7.167  1.1258  0.6601 -0.2543
10693TIP3   OH232960   2.568   4.559   3.361 -0.0165  0.2409 -0.4326
10693TIP3    H132961   2.478   4.540   3.334  0.9805 -0.9547 -3.3057
10693TIP3    H232962   2.599   4.624   3.298  1.2730  0.3720  0.2872
10694TIP3   OH232963   5.815   3.275   9.564 -0.1465 -0.7776  0.6326
10694TIP3    H132964   5.908   3.288   9.584 -0.0678  0.1193 -0.2274
10694TIP3    H232965   5.815   3.219   9.487 -0.3448 -1.4179  1.0964
10695TIP3   OH232966  10.311   8.415   9.774 -0.0870  0.0547 -0.3867
10695TIP3    H132967  10.262   8.357   9.833 -0.7007 -1.3389 -2.1884
10695TIP3    H232968  10.258   8.494   9.770 -1.5148 -0.9043 -1.2044
10696TIP3   OH232969   9.388   4.170   0.261  0.2047  0.0028 -0.2299
10696TIP3    H132970   9.363   4.259   0.235  1.9823  0.6602  0.1717
10696TIP3    H232971   9.441   4.183   0.340  2.1112 -1.2210 -1.2294
10697TIP3   OH232972   3.564   1.008  10.526  0.3195  0.2505 -0.6586
10697TIP3    H132973   3.604   0.992  10.612  3.0251 -3.8667 -2.3719
10697TIP3    H232974   3.636   1.036  10.470 -1.0071  1.0108 -2.0864
10698TIP3   OH232975   1.706   7.994   8.410  0.0546  0.3149 -0.1726
10698TIP3    H132976   1.723   7.910   8.453 -1.2666 -0.5851 -1.2984
10698TIP3    H232977   1.689   8.055   8.482 -2.3726 -1.2089  0.6865
10699TIP3   OH232978   5.518   2.525   5.822  0.7011 -0.1149 -0.6113
10699TIP3    H132979   5.499   2.618   5.818 -1.8902 -0.5778 -0.9357
10699TIP3    H232980   5.537   2.499   5.732  1.2025  0.0538 -0.5553
10700TIP3   OH232981   8.641   1.929   0.927  0.6084 -0.1561 -0.5661
10700TIP3    H132982   8.555   1.938   0.967  0.0414 -0.1917 -1.7382
10700TIP3    H232983   8.651   2.007   0.872  1.1524 -0.3388 -0.7391
10701TIP3   OH232984   5.533  10.114   9.476  0.3795 -0.1550  0.4958
10701TIP3    H132985   5.554  10.038   9.423  0.4348  0.5374 -0.4997
10701TIP3    H232986   5.535  10.188   9.415 -0.1936  0.5781  1.3271
10702TIP3   OH232987   5.582   9.692  10.850  0.2555  0.0456  0.4021
10702TIP3    H132988   5.626   9.631  10.792 -1.0131 -0.1995 -0.3519
10702TIP3    H232989   5.513   9.640  10.892  0.6120  0.4274  1.4896
10703TIP3   OH232990   0.664  10.053   2.333  0.0517 -0.1546 -0.4381
10703TIP3    H132991   0.656  10.142   2.366 -0.5382 -0.0161 -0.9422
10703TIP3    H232992   0.575  10.027   2.310  0.5142  0.1235 -2.8196
10704TIP3   OH232993   5.967   0.346   4.387  0.4973 -0.3961  0.4644
10704TIP3    H132994   6.030   0.385   4.327  0.5668 -1.9924 -0.5707
10704TIP3    H232995   5.956   0.411   4.456  0.5659  1.4236 -1.1550
10705TIP3   OH232996   5.104   4.028   7.928  0.2081 -0.3818 -0.2974
10705TIP3    H132997   5.012   4.030   7.904  0.4206 -0.8468 -1.1967
10705TIP3    H232998   5.114   3.949   7.981  0.7233 -2.3710 -3.1163
10706TIP3   OH232999   7.153   5.983   4.130  0.0657  0.1247 -0.2576
10706TIP3    H133000   7.142   6.003   4.037  3.5917 -0.4753 -0.9582
10706TIP3    H233001   7.143   5.889   4.135 -0.3412  0.1833  0.0041
10707TIP3   OH233002   7.654  10.712   3.118  0.6129 -0.9109  0.0541
10707TIP3    H133003   7.597  10.638   3.141  0.5189 -0.4797  1.2656
10707TIP3    H233004   7.674  10.753   3.202  0.0896  0.8740 -0.6525
10708TIP3   OH233005   7.805   4.315   2.237  0.6619 -0.0488  0.5564
10708TIP3    H133006   7.776   4.323   2.146  2.0509 -1.1620 -0.0239
10708TIP3    H233007   7.742   4.367   2.287  0.2789  1.1859 -1.1123
10709TIP3   OH233008   7.477   2.708   0.133  0.2411  0.1070 -0.4956
10709TIP3    H133009   7.462   2.795   0.097  0.5630 -0.3307 -1.7411
10709TIP3    H233010   7.567   2.687   0.110 -0.2562 -1.1071 -1.4820
10710TIP3   OH233011   9.865  10.088   0.944 -0.1143 -0.0407 -0.3909
10710TIP3    H133012   9.901  10.159   0.997 -1.1195  0.5722 -0.4949
10710TIP3    H233013   9.800  10.047   1.002  1.2278 -1.6291  0.0833
10711TIP3   OH233014   6.734   1.679   4.107  0.4663 -0.1502  0.1050
10711TIP3    H133015   6.705   1.729   4.030  0.0080  0.4157  0.6279
10711TIP3    H233016   6.661   1.686   4.168  0.9356 -0.3574  0.6982
10712TIP3   OH233017   0.294  10.123   0.744  0.2130  0.3551  0.4850
10712TIP3    H133018   0.262  10.049   0.795  0.5713  1.0751  1.7937
10712TIP3    H233019   0.261  10.107   0.656 -2.6277  0.3633  1.4368
10713TIP3   OH233020   8.979   4.428   4.900  0.0104 -0.2888 -0.4231
10713TIP3    H133021   9.032   4.451   4.977 -1.5766 -2.0538  1.2997
10713TIP3    H233022   8.945   4.341   4.920 -0.6023 -0.7355 -3.1012
10714TIP3   OH233023   2.597  10.417   9.967  0.2242 -0.3857  0.8263
10714TIP3    H133024   2.615  10.328   9.997  2.2054 -0.4810 -0.4988
10714TIP3    H233025   2.664  10.435   9.902  0.3813  2.3798  1.6376
10715TIP3   OH233026   5.821   5.822   8.224 -0.2352  0.0146  0.6016
10715TIP3    H133027   5.731   5.827   8.193 -0.9411 -2.6122  1.8634
10715TIP3    H233028   5.871   5.791   8.149 -0.3608  1.4601 -0.0988
10716TIP3   OH233029   0.150   2.690   8.923 -0.2603 -0.0387  0.2355
10716TIP3    H133030   0.165   2.784   8.921  1.2447 -0.2045  1.6319
10716TIP3    H233031   0.171   2.664   9.012 -0.8728 -1.6709 -0.0622
10717TIP3   OH233032   5.706   0.705   1.166 -0.2756 -0.0702 -0.0182
10717TIP3    H133033   5.736   0.794   1.148  2.4462 -0.9513 -0.3183
10717TIP3    H233034   5.638   0.689   1.100 -1.0901  1.8538  0.2787
10718TIP3   OH233035   8.773   3.174   1.669 -0.2781  0.3047 -0.1489
10718TIP3    H133036   8.719   3.252   1.657  0.0799  1.1882  3.0258
10718TIP3    H233037   8.860   3.200   1.639 -0.4212  0.7471 -0.1906
10719TIP3   OH233038   7.026   5.101   1.136 -0.1982 -0.5866  0.9230
10719TIP3    H133039   7.118   5.099   1.110  0.0473 -1.8053  1.8060
10719TIP3    H233040   7.019   5.178   1.193  0.1041 -0.0770  0.2800
10720TIP3   OH233041   1.363   7.086   5.842 -0.3533  0.4960 -0.0171
10720TIP3    H133042   1.324   7.131   5.917  0.2482 -0.0398  0.6378
10720TIP3    H233043   1.433   7.144   5.813 -1.2291  1.1745 -0.8099
10721TIP3   OH233044   8.140   2.942   5.304 -0.2634  0.0998 -0.4059
10721TIP3    H133045   8.099   2.929   5.390 -0.3103 -0.7456 -0.5533
10721TIP3    H233046   8.231   2.963   5.325 -0.3264  0.1237 -0.1411
10722TIP3   OH233047   0.313   4.370   4.889 -0.2761 -0.2849 -0.4310
10722TIP3    H133048   0.343   4.296   4.835  1.7008  0.2038 -0.0628
10722TIP3    H233049   0.391   4.398   4.936 -1.0079  1.9876 -0.4849
10723TIP3   OH233050   0.978  10.264   0.408  0.1394 -0.5526  0.0622
10723TIP3    H133051   0.905  10.239   0.351 -0.3303  0.4227  0.2084
10723TIP3    H233052   0.978  10.199   0.478  0.3761 -1.4466 -0.7395
10724TIP3   OH233053   0.688   2.999   3.156 -0.0012 -0.4705 -0.1772
10724TIP3    H133054   0.755   2.996   3.087 -1.5525 -1.0603 -1.7571
10724TIP3    H233055   0.681   2.908   3.186 -1.1143 -0.7362 -1.1339
10725TIP3   OH233056   7.850  10.901   4.728 -0.4171 -0.2044 -0.0564
10725TIP3    H133057   7.766  10.857   4.713 -0.0488 -0.4057 -1.5982
10725TIP3    H233058   7.916  10.833   4.719  0.2191  0.6681 -3.1811
10726TIP3   OH233059   2.936   7.722   9.560  0.7882 -0.2877 -0.4814
10726TIP3    H133060   2.868   7.661   9.530  2.1803 -0.8529 -2.7750
10726TIP3    H233061   2.900   7.809   9.541  0.8876 -0.5961 -2.3003
10727TIP3   OH233062   3.896   0.151   2.326  0.8518 -0.3532  0.4606
10727TIP3    H133063   3.953   0.086   2.367 -0.2054 -0.7111  1.4419
10727TIP3    H233064   3.834   0.100   2.275  2.4435  0.1114 -2.0949
10728TIP3   OH233065   0.933   0.897   0.631 -0.1852  0.3249 -0.1235
10728TIP3    H133066   0.877   0.823   0.651  0.3485  0.7780  3.9849
10728TIP3    H233067   0.873   0.965   0.599 -1.0096 -1.0299 -1.5590
10729TIP3   OH233068  10.410   2.892   0.468 -0.0806  0.1322 -0.1980
10729TIP3    H133069  10.457   2.861   0.546 -0.6611  0.3161  0.2306
10729TIP3    H233070  10.428   2.826   0.401 -1.4298 -1.2488  0.7268
10730TIP3   OH233071   2.848   2.712   1.621 -0.6755  0.4725 -0.3834
10730TIP3    H133072   2.836   2.800   1.585  0.5499 -0.0887 -2.3028
10730TIP3    H233073   2.759   2.683   1.643 -1.2380  1.6700 -0.9693
10731TIP3   OH233074   2.026   2.739   6.522 -0.5022  0.2447 -0.1435
10731TIP3    H133075   2.013   2.834   6.531 -0.9728  0.1262  0.5033
10731TIP3    H233076   1.988   2.718   6.437  0.8974  0.8554 -0.9543
10732TIP3   OH233077   2.778   9.878   2.697  0.5288 -0.0959 -0.2210
10732TIP3    H133078   2.744   9.967   2.702  1.1382  0.0919  1.0525
10732TIP3    H233079   2.711   9.825   2.741  0.8777 -0.0334  0.3967
10733TIP3   OH233080   0.167  10.455   0.418 -0.3649  0.2972 -0.0146
10733TIP3    H133081   0.242  10.472   0.475  0.3774 -3.1621  0.3009
10733TIP3    H233082   0.092  10.447   0.478 -0.3714  0.7096  0.0287
10734TIP3   OH233083   5.606   8.351   7.107  0.2935  0.1920 -0.0844
10734TIP3    H133084   5.553   8.280   7.143  1.0493 -0.7976 -0.8656
10734TIP3    H233085   5.620   8.327   7.016  1.2418  0.9367 -0.1501
10735TIP3   OH233086   0.021   7.002   7.244 -0.3085 -0.3982 -0.2167
10735TIP3    H133087   0.092   7.014   7.307 -0.6328  0.0217  0.0678
10735TIP3    H233088   0.065   7.005   7.159  0.0777 -0.5865 -0.0285
10736TIP3   OH233089   1.287   0.454  10.848 -0.0258  0.0075 -0.7493
10736TIP3    H133090   1.226   0.405  10.793  0.0612 -0.1408 -0.7145
10736TIP3    H233091   1.256   0.544  10.843 -1.0755 -0.2665  0.3469
10737TIP3   OH233092   2.016   5.707   2.110  0.2280  0.1520 -0.0795
10737TIP3    H133093   2.082   5.705   2.041  0.8941  0.0630  0.5447
10737TIP3    H233094   2.066   5.719   2.191 -0.4213 -1.0178  0.5246
10738TIP3   OH233095   6.867  10.652   3.880  0.4770  0.2472 -0.4593
10738TIP3    H133096   6.951  10.655   3.833  0.2816  1.7412 -0.7674
10738TIP3    H233097   6.866  10.732   3.932  0.0467 -0.6800  1.0144
10739TIP3   OH233098   2.597   1.490   8.589  0.6497  0.2393 -0.2211
10739TIP3    H133099   2.545   1.493   8.508 -0.5795  1.0423  0.5759
10739TIP3    H233100   2.565   1.412   8.635  0.9531  0.1034 -0.2357
10740TIP3   OH233101   2.629  10.756   8.272  0.0202  0.2273 -0.1382
10740TIP3    H133102   2.549  10.729   8.318  0.3821  1.4201  1.2644
10740TIP3    H233103   2.674  10.673   8.253 -1.4134 -0.4433 -0.7290
10741TIP3   OH233104   6.596   5.473   2.713  0.3711  0.0678 -0.2056
10741TIP3    H133105   6.507   5.444   2.735  0.6618 -0.2118  0.6650
10741TIP3    H233106   6.641   5.480   2.798  1.3830 -0.4794 -0.6714
10742TIP3   OH233107   5.860   3.685  10.229 -0.1694 -0.1589  0.1496
10742TIP3    H133108   5.954   3.698  10.241 -0.0867 -0.1569 -0.4485
10742TIP3    H233109   5.838   3.739  10.153 -0.5710 -0.4862  0.0267
10743TIP3   OH233110   5.248   1.736   7.545 -0.5272 -0.0309  0.2694
10743TIP3    H133111   5.167   1.685   7.553 -1.1245  0.8462 -0.0855
10743TIP3    H233112   5.257   1.780   7.630  0.4455 -1.3309  0.8978
10744TIP3   OH233113   8.286   0.591   2.536  0.5089  0.3200 -0.5637
10744TIP3    H133114   8.381   0.601   2.528  0.7871 -0.6191  0.9935
10744TIP3    H233115   8.252   0.607   2.448  2.5090 -3.4027 -2.2586
10745TIP3   OH233116   8.447   2.386   6.452 -0.3308 -0.0904 -0.4230
10745TIP3    H133117   8.540   2.361   6.453 -0.6475 -1.5859 -2.1810
10745TIP3    H233118   8.408   2.335   6.522  0.5668  2.7909  2.4205
10746TIP3   OH233119   5.773   2.402   5.854  0.3421  0.0511 -0.1578
10746TIP3    H133120   5.690   2.444   5.877  0.8748  0.5387  0.9594
10746TIP3    H233121   5.837   2.444   5.911  1.2612 -0.7418 -0.5864
10747TIP3   OH233122   4.015   6.133  10.719 -0.0915  0.3983 -0.1841
10747TIP3    H133123   4.089   6.103  10.772 -1.5791  1.5878  2.8237
10747TIP3    H233124   3.983   6.055  10.675  0.7399 -0.8782  1.3766
10748TIP3   OH233125  10.221   1.258   4.840  0.2415  0.0694  0.6816
10748TIP3    H133126  10.131   1.280   4.862 -0.1811 -0.4524 -0.4212
10748TIP3    H233127  10.250   1.200   4.910 -0.1983  0.4385  1.1693
10749TIP3   OH233128   0.837   6.397   3.026 -0.3576 -0.2373  0.8707
10749TIP3    H133129   0.864   6.352   2.946 -1.1385 -0.1308  0.5397
10749TIP3    H233130   0.796   6.478   2.996  1.8877  1.2180  1.4904
10750TIP3   OH233131   3.238   8.000  10.803 -0.1569  0.4868  0.4129
10750TIP3    H133132   3.279   7.928  10.851 -0.3641 -0.8303 -1.2713
10750TIP3    H233133   3.214   8.064  10.870 -1.0326 -1.5160  2.1224
10751TIP3   OH233134   9.959  10.118   8.083 -0.1254 -0.5052  0.5476
10751TIP3    H133135   9.916  10.189   8.036  0.1812 -0.8973 -0.3317
10751TIP3    H233136  10.052  10.129   8.064 -0.1870 -1.9624 -0.7623
10752TIP3   OH233137   7.999   4.369   8.471 -0.2465 -0.0725 -0.3616
10752TIP3    H133138   7.979   4.286   8.515  1.7856  0.3233  1.4527
10752TIP3    H233139   7.999   4.347   8.378  0.3314 -2.1415  0.0747
10753TIP3   OH233140   4.303  10.604   9.864  0.1773 -0.5205 -0.1158
10753TIP3    H133141   4.244  10.529   9.854  0.7594 -0.7763 -2.0036
10753TIP3    H233142   4.316  10.637   9.775  0.3658  1.5247  0.6105
10754TIP3   OH233143   4.420   2.847   1.975  0.1537  0.5195 -0.0578
10754TIP3    H133144   4.328   2.820   1.979  0.1311  0.5845 -0.1414
10754TIP3    H233145   4.439   2.879   2.063  0.0058  0.7962 -0.1252
10755TIP3   OH233146   8.061   7.172   0.973  0.1190  0.0688  0.3468
10755TIP3    H133147   7.985   7.141   1.022 -0.6877  1.0574 -0.2447
10755TIP3    H233148   8.026   7.198   0.888  1.0667  0.7944  0.1594
10756TIP3   OH233149   8.485   6.633  10.127 -0.5763  0.4142 -0.5345
10756TIP3    H133150   8.498   6.628  10.032 -0.6239 -1.1432 -0.4767
10756TIP3    H233151   8.406   6.582  10.143 -1.0114  1.3240  0.2668
10757TIP3   OH233152   6.962   9.338  10.333 -0.3786  0.4416  0.1355
10757TIP3    H133153   7.038   9.295  10.295  0.2171  1.9155 -0.4105
10757TIP3    H233154   6.998   9.404  10.392 -1.2805 -0.4036  1.6795
10758TIP3   OH233155   5.995   4.906   2.586 -0.4289 -0.0990 -0.0097
10758TIP3    H133156   5.931   4.859   2.532 -0.1892  0.2767 -0.6311
10758TIP3    H233157   5.972   4.882   2.676  0.5145 -2.5140 -0.3179
10759TIP3   OH233158   9.166   8.867   3.143 -0.8183  0.1915 -0.3040
10759TIP3    H133159   9.199   8.834   3.060  1.9595  0.1786  0.7100
10759TIP3    H233160   9.173   8.963   3.136  0.8437  0.1608  0.3659
10760TIP3   OH233161   7.434   5.548   8.854 -0.2498  0.4592 -0.1398
10760TIP3    H133162   7.348   5.579   8.827 -1.0960 -0.8950  0.9130
10760TIP3    H233163   7.443   5.462   8.812 -0.6731 -0.7071  2.0168
10761TIP3   OH233164   1.492   8.241   2.471  0.2662 -0.0065  0.4186
10761TIP3    H133165   1.511   8.242   2.377  0.8791  2.2266  0.5166
10761TIP3    H233166   1.412   8.189   2.479 -0.1964  0.3530 -1.4252
10762TIP3   OH233167   6.435   7.406   9.952  0.0729  0.2604 -0.1008
10762TIP3    H133168   6.381   7.459  10.011 -0.7482 -2.0021  1.2948
10762TIP3    H233169   6.406   7.316   9.967  2.6208 -0.8030 -1.0411
10763TIP3   OH233170   1.297   9.562   7.849  0.0669  0.0033 -0.4157
10763TIP3    H133171   1.224   9.505   7.827 -0.0673 -0.0529  0.1697
10763TIP3    H233172   1.259   9.650   7.853  0.0337 -0.0226 -0.1408
10764TIP3   OH233173   1.425   7.433   4.396  0.5898  0.0562  0.0142
10764TIP3    H133174   1.443   7.466   4.308 -0.8270 -1.0963 -0.7455
10764TIP3    H233175   1.337   7.466   4.416  0.1909 -1.1257  0.2719
10765TIP3   OH233176   0.175   9.898   0.828  0.1737 -0.0910 -0.1688
10765TIP3    H133177   0.176   9.828   0.894 -4.9118 -1.2028 -0.8316
10765TIP3    H233178   0.103   9.874   0.769  1.3627  3.3122 -3.3529
10766TIP3   OH233179   0.676   9.277   5.592 -0.3241 -0.2252  0.3170
10766TIP3    H133180   0.637   9.194   5.620  0.4525 -0.8676 -0.4663
10766TIP3    H233181   0.746   9.293   5.656  0.4391 -0.9055 -0.3215
10767TIP3   OH233182   8.099   4.560  10.672 -0.0831 -0.5289 -0.1536
10767TIP3    H133183   8.122   4.467  10.682 -1.7590 -0.8186  1.5874
10767TIP3    H233184   8.096   4.593  10.762  0.5583  1.2740 -0.7520
10768TIP3   OH233185   2.174   3.228   7.362 -0.4382 -0.3683  0.4984
10768TIP3    H133186   2.251   3.215   7.417  0.1494 -0.8251 -0.3896
10768TIP3    H233187   2.207   3.221   7.272 -1.5861 -1.1015  0.0919
10769TIP3   OH233188   0.990   0.020   1.212 -0.0727  0.0538 -0.4183
10769TIP3    H133189   0.985   0.092   1.150  1.5473 -0.0305 -0.7006
10769TIP3    H233190   0.903  -0.021   1.210 -0.9643  1.8690 -0.3697
10770TIP3   OH233191   2.578   6.370  10.609 -0.0811 -0.1999  0.5794
10770TIP3    H133192   2.519   6.439  10.579  0.4397 -0.0807 -0.2042
10770TIP3    H233193   2.536   6.335  10.688 -1.6704 -0.7667 -0.4718
10771TIP3   OH233194  10.562   2.286   6.190  0.3482  0.0155  0.7533
10771TIP3    H133195  10.650   2.321   6.177  0.1955  0.6385  1.3255
10771TIP3    H233196  10.510   2.324   6.119  0.5837 -0.5262  0.2877
10772TIP3   OH233197   2.760   1.666   6.223  0.4216  0.3369  0.1172
10772TIP3    H133198   2.684   1.723   6.212 -1.1267 -1.4434  0.9161
10772TIP3    H233199   2.812   1.708   6.291 -0.7534  0.7398  0.8032
10773TIP3   OH233200   8.004   0.750   8.466 -0.4076  0.8914  0.0893
10773TIP3    H133201   8.079   0.808   8.468 -0.2778  0.9409 -2.4169
10773TIP3    H233202   7.931   0.806   8.438  0.1262 -0.2988 -4.4616
10774TIP3   OH233203   6.377   8.454   7.826  0.2381  0.1926 -0.1300
10774TIP3    H133204   6.315   8.481   7.894  0.1902 -1.6121  0.6028
10774TIP3    H233205   6.402   8.535   7.782  0.4840  1.4559  2.2146
10775TIP3   OH233206   9.926   8.718   7.380  0.2615  0.4909 -0.4530
10775TIP3    H133207   9.851   8.658   7.373  0.4454 -0.1441  2.0273
10775TIP3    H233208   9.999   8.669   7.344 -0.1315  0.3093 -1.0108
10776TIP3   OH233209   8.892   5.849   0.756 -0.3128  0.7546 -0.0090
10776TIP3    H133210   8.907   5.907   0.681 -0.7401 -0.8416 -1.3759
10776TIP3    H233211   8.842   5.776   0.720  0.8975 -0.8831  1.4816
10777TIP3   OH233212   1.531   6.212   2.438  0.7264 -0.2394 -0.0193
10777TIP3    H133213   1.595   6.244   2.375 -0.2818 -1.6330 -1.8628
10777TIP3    H233214   1.447   6.218   2.392 -0.0416 -1.3428  1.1748
10778TIP3   OH233215   8.454   4.278  10.890  0.0779  0.2398 -0.2684
10778TIP3    H133216   8.482   4.357  10.936  1.6944 -0.5132  0.0809
10778TIP3    H233217   8.358   4.279  10.898  0.1689  1.3206  1.1150
10779TIP3   OH233218   1.370   3.235   3.197  0.3477 -0.1985 -0.1004
10779TIP3    H133219   1.437   3.298   3.223  0.9226 -0.8670  0.0833
10779TIP3    H233220   1.295   3.254   3.253 -0.2501  1.6307 -1.3994
10780TIP3   OH233221   3.465  10.052   6.355  0.3202 -0.3229  0.4668
10780TIP3    H133222   3.488  10.120   6.418 -1.4097  0.5474  0.2205
10780TIP3    H233223   3.394  10.003   6.396 -0.5355 -0.0202 -0.5950
10781TIP3   OH233224   0.509   2.518   2.241  0.3731  0.3380  0.1609
10781TIP3    H133225   0.582   2.560   2.196 -0.5448  2.0329  0.1617
10781TIP3    H233226   0.509   2.429   2.208  2.5340  0.2233  0.2993
10782TIP3   OH233227   6.944   0.213   5.682 -0.0619  0.3367  0.1847
10782TIP3    H133228   6.933   0.295   5.633  0.1445 -0.3418 -1.0244
10782TIP3    H233229   6.951   0.241   5.774 -0.8601  1.6079 -0.1101
10783TIP3   OH233230   8.293   7.608   1.447  0.3711 -0.5634  0.0013
10783TIP3    H133231   8.248   7.691   1.431  1.0877 -0.0027  0.8056
10783TIP3    H233232   8.332   7.586   1.362 -0.8985 -0.7528 -0.5486
10784TIP3   OH233233   4.582   1.030   1.736 -0.1226  0.5782  0.6094
10784TIP3    H133234   4.669   1.056   1.706 -0.8090  2.0108 -0.2596
10784TIP3    H233235   4.562   1.093   1.806 -0.2596 -0.0924  1.1903
10785TIP3   OH233236   0.646   3.773   8.398  0.2912  0.0501  0.2346
10785TIP3    H133237   0.662   3.713   8.325 -0.5686  0.9196 -0.6976
10785TIP3    H233238   0.677   3.858   8.367 -0.3944  0.4979  0.7382
10786TIP3   OH233239   5.838   8.131   8.171  0.0768  0.5745 -0.3368
10786TIP3    H133240   5.875   8.208   8.128  1.6068  0.0882  0.0308
10786TIP3    H233241   5.911   8.069   8.175 -0.8458 -0.5081  0.2970
10787TIP3   OH233242   8.392   0.035   5.255 -0.1681  0.2572 -0.5250
10787TIP3    H133243   8.372  -0.059   5.255  0.0916  0.0872  2.7714
10787TIP3    H233244   8.384   0.061   5.347  2.7887  2.7860 -0.8065
10788TIP3   OH233245   1.419   4.755   2.884  0.2421 -0.6066  0.0291
10788TIP3    H133246   1.330   4.760   2.919  0.0044  0.2422 -0.6672
10788TIP3    H233247   1.474   4.787   2.955 -0.1139 -0.1661  0.1138
10789TIP3   OH233248   0.717   7.959   7.644  0.1934  0.0303 -0.1148
10789TIP3    H133249   0.712   7.877   7.595  0.1334  0.0651 -0.1659
10789TIP3    H233250   0.810   7.971   7.661  0.1343 -0.4858  0.6276
10790TIP3   OH233251  10.153   6.451   5.241  0.4083 -0.0327  0.0108
10790TIP3    H133252  10.187   6.364   5.262  0.6293 -0.3382 -1.4871
10790TIP3    H233253  10.132   6.490   5.326  0.5966 -1.4248  0.7256
10791TIP3   OH233254   6.494   5.854   9.971  0.4129 -0.0599 -0.2406
10791TIP3    H133255   6.539   5.939   9.975  0.0989  0.0569  2.2544
10791TIP3    H233256   6.511   5.814  10.056 -0.7055 -1.8599 -0.8213
10792TIP3   OH233257   9.043   3.679   1.435  0.3363 -0.6000  0.4625
10792TIP3    H133258   9.012   3.716   1.518  0.0658  2.1466 -0.7868
10792TIP3    H233259   9.124   3.633   1.459  1.2219  1.5933  2.0547
10793TIP3   OH233260   6.959   3.479   8.621 -0.0018 -0.5167 -0.3993
10793TIP3    H133261   6.945   3.485   8.715 -1.0950  0.9540 -0.6230
10793TIP3    H233262   7.048   3.444   8.612 -0.2721 -1.7021  1.1506
10794TIP3   OH233263   8.425   7.766   7.175 -0.0175  0.3190  0.0262
10794TIP3    H133264   8.506   7.714   7.175 -0.0660  0.2432  0.1806
10794TIP3    H233265   8.414   7.792   7.084  0.3253  0.5558  0.0503
10795TIP3   OH233266  10.077   5.917   3.987  0.4080  0.0143  0.0175
10795TIP3    H133267  10.097   6.001   4.028 -0.5681 -0.3145  1.2461
10795TIP3    H233268  10.140   5.856   4.027  0.3442 -0.0524  0.0163
10796TIP3   OH233269   2.448   1.924   8.243 -0.2344  0.1885 -0.1233
10796TIP3    H133270   2.371   1.898   8.295 -0.0401 -1.0219 -0.4108
10796TIP3    H233271   2.521   1.880   8.286  0.1040  0.1872 -0.7025
10797TIP3   OH233272   7.423  10.179   2.205 -0.4258 -0.2023  0.7722
10797TIP3    H133273   7.393  10.268   2.218 -0.2817 -0.1028  0.4379
10797TIP3    H233274   7.398  10.133   2.285 -1.5751 -0.1507  0.4667
10798TIP3   OH233275   2.310   5.687   7.910 -0.1119 -0.1939  0.8455
10798TIP3    H133276   2.286   5.612   7.964 -1.9233  0.3808  0.8808
10798TIP3    H233277   2.293   5.659   7.820 -0.6499  0.1103  0.8480
10799TIP3   OH233278   6.700   2.355   7.257  0.7792  0.1501 -0.3559
10799TIP3    H133279   6.743   2.436   7.284  0.9540 -0.3483  0.9323
10799TIP3    H233280   6.687   2.307   7.339  0.2492 -0.9118 -1.0509
10800TIP3   OH233281   3.889   3.278   3.852 -0.1814 -0.1937 -0.1986
10800TIP3    H133282   3.874   3.363   3.811 -1.9772  0.3468  1.4018
10800TIP3    H233283   3.809   3.229   3.836  0.7944 -1.5769 -1.0057
10801TIP3   OH233284   6.647   0.869   9.195  0.0296  0.0587  0.3310
10801TIP3    H133285   6.604   0.823   9.123 -1.8315  0.8089  0.9188
10801TIP3    H233286   6.671   0.954   9.159  2.9254 -0.9922 -0.5740
10802TIP3   OH233287  10.688   4.245   0.202 -0.3001  0.0980  0.6434
10802TIP3    H133288  10.758   4.208   0.255  0.2521 -0.1030 -0.2123
10802TIP3    H233289  10.682   4.188   0.125 -1.9284 -0.3430  1.0568
10803TIP3   OH233290   1.532   7.724   6.640  0.2161  0.3221 -0.1925
10803TIP3    H133291   1.587   7.711   6.563  1.2332  0.9133  0.4120
10803TIP3    H233292   1.552   7.649   6.697 -0.5906 -0.1555 -0.5259
10804TIP3   OH233293   4.291   8.397   3.604  0.6869  0.2224  0.4633
10804TIP3    H133294   4.225   8.362   3.544  1.1883  1.7653 -1.0616
10804TIP3    H233295   4.355   8.327   3.613 -0.0051 -0.4639  0.1730
10805TIP3   OH233296   3.692   1.738   0.028 -0.1047 -0.1628 -0.0526
10805TIP3    H133297   3.737   1.815  -0.005  0.5557  0.0810  1.3405
10805TIP3    H233298   3.613   1.731  -0.026 -0.3082  1.6320 -0.0353
10806TIP3   OH233299   0.811  10.160   0.192 -0.5650 -0.5682 -0.1343
10806TIP3    H133300   0.809  10.085   0.132 -1.3189  0.8672 -2.0235
10806TIP3    H233301   0.844  10.232   0.138 -1.8334  0.9388  1.0073
10807TIP3   OH233302   3.679   5.469   0.383 -0.2095  0.2876  0.0826
10807TIP3    H133303   3.698   5.541   0.323  2.2736  0.5537  1.0751
10807TIP3    H233304   3.706   5.390   0.337  2.8058  0.5855  1.1351
10808TIP3   OH233305   8.827   8.758  10.104  0.3540 -0.6083 -0.6603
10808TIP3    H133306   8.894   8.825  10.117 -0.8556  0.2441  1.9949
10808TIP3    H233307   8.855   8.685  10.159 -0.1951 -0.8010 -0.6311
10809TIP3   OH233308   8.773   2.722  10.558 -0.1664  0.0972 -0.7095
10809TIP3    H133309   8.868   2.731  10.570  0.1762 -3.4432  0.6044
10809TIP3    H233310   8.762   2.712  10.464  0.9268 -0.3213 -0.8189
10810TIP3   OH233311   4.132   3.046   2.080 -0.3774  0.0366  0.4908
10810TIP3    H133312   4.170   2.958   2.089 -0.7717 -0.0070  2.0659
10810TIP3    H233313   4.042   3.036   2.110 -0.2809  1.0747  1.1861
10811TIP3   OH233314   5.605   5.542   6.281  0.4173  0.7995  0.1915
10811TIP3    H133315   5.606   5.449   6.256  0.7656  0.5205  1.1790
10811TIP3    H233316   5.692   5.557   6.319 -0.3448  0.9554  1.9725
10812TIP3   OH233317   5.685   1.850   7.741  0.4390  0.3495  0.4388
10812TIP3    H133318   5.671   1.945   7.742 -2.3449  0.0198  0.5526
10812TIP3    H233319   5.778   1.840   7.722  0.5036  3.0878 -1.3294
10813TIP3   OH233320   2.596   4.355   1.045  0.0647  0.4261 -0.6306
10813TIP3    H133321   2.577   4.417   0.975 -0.0466  0.9750 -0.1224
10813TIP3    H233322   2.521   4.363   1.105 -1.2547 -2.0225 -1.7916
10814TIP3   OH233323   0.009   2.783   9.225  0.1148 -0.1404  0.2911
10814TIP3    H133324  -0.045   2.841   9.171  0.0164 -1.3051 -0.8957
10814TIP3    H233325   0.054   2.842   9.285  1.1872  1.3605 -1.8616
10815TIP3   OH233326   4.111   5.005   9.572 -0.0085 -0.3904  0.2207
10815TIP3    H133327   4.187   5.005   9.629 -0.9952 -0.6846  1.5863
10815TIP3    H233328   4.058   5.079   9.602 -1.4622 -1.6906  1.0152
10816TIP3   OH233329   7.585   6.505   5.579 -0.0732 -0.4936  0.0040
10816TIP3    H133330   7.620   6.444   5.513 -1.5740 -0.4051 -0.9288
10816TIP3    H233331   7.554   6.448   5.649  1.0583 -0.6204  0.4224
10817TIP3   OH233332   5.705   4.797   9.058  0.5949  0.3799 -0.0460
10817TIP3    H133333   5.740   4.799   8.969 -1.1737 -0.5573 -0.8209
10817TIP3    H233334   5.731   4.711   9.092 -2.3953 -1.1612 -1.3350
10818TIP3   OH233335   0.512   7.872   8.315 -0.5557 -0.2768  0.1360
10818TIP3    H133336   0.427   7.834   8.292 -0.2395 -1.0010  0.1467
10818TIP3    H233337   0.572   7.798   8.313 -0.3331 -0.2032  2.4116
10819TIP3   OH233338   5.991   7.596   1.399 -0.0539  0.5661  0.3020
10819TIP3    H133339   6.041   7.560   1.472 -0.5595 -0.4207  0.1789
10819TIP3    H233340   6.046   7.581   1.322 -0.6694 -0.8817  0.1087
10820TIP3   OH233341   7.183  10.579   8.268 -0.2873 -0.7065 -0.3147
10820TIP3    H133342   7.166  10.548   8.179  1.0403 -0.0599 -0.8181
10820TIP3    H233343   7.246  10.650   8.257  0.2481 -0.9143  1.1690
10821TIP3   OH233344   8.880   9.581   1.996  0.6350 -0.2892 -0.0717
10821TIP3    H133345   8.816   9.647   1.968  1.6669  0.0326 -1.8463
10821TIP3    H233346   8.833   9.498   1.990 -0.4637  0.1740  1.4961
10822TIP3   OH233347   2.154   9.159   3.246  0.8780  0.0399  0.4573
10822TIP3    H133348   2.073   9.198   3.214 -0.4913 -1.6975  1.5865
10822TIP3    H233349   2.211   9.233   3.265  0.5527  1.2416 -2.7113
10823TIP3   OH233350   3.917   8.539   6.707  0.1897  0.4493  0.5152
10823TIP3    H133351   3.921   8.458   6.657 -0.9505 -0.1252  1.3181
10823TIP3    H233352   3.989   8.532   6.770  0.6715  0.4975 -0.0177
10824TIP3   OH233353   7.730   7.003   0.664 -0.5833 -0.0887  0.7957
10824TIP3    H133354   7.741   6.910   0.645 -0.2534  0.0952  0.0403
10824TIP3    H233355   7.718   7.043   0.578  0.2239  0.6887  1.0348
10825TIP3   OH233356   3.482   2.750   1.188 -0.0892 -0.6293  0.1492
10825TIP3    H133357   3.515   2.740   1.099  0.7457 -0.1631  0.3930
10825TIP3    H233358   3.497   2.842   1.209 -0.8291 -0.5904  0.5662
10826TIP3   OH233359   2.463   4.262   2.252 -0.4158 -0.5755  0.0093
10826TIP3    H133360   2.515   4.184   2.232  0.7616 -0.0205  0.8318
10826TIP3    H233361   2.509   4.334   2.210 -2.2153 -0.4308 -1.9056
10827TIP3   OH233362   9.192   1.486   1.008  0.2197  0.3628 -0.2457
10827TIP3    H133363   9.227   1.575   0.995 -0.7197  0.8470  0.3791
10827TIP3    H233364   9.127   1.497   1.078 -2.3767 -0.1607 -2.4149
10828TIP3   OH233365   2.021   1.679   0.265 -0.2039  0.2559 -0.0170
10828TIP3    H133366   1.970   1.607   0.302  0.0844  0.5357  0.9739
10828TIP3    H233367   2.097   1.638   0.225  0.6458  0.0551  1.6884
10829TIP3   OH233368   2.427   8.878   6.906  0.1158  0.3318 -0.0555
10829TIP3    H133369   2.354   8.896   6.846 -2.0568 -0.0580  2.2686
10829TIP3    H233370   2.424   8.783   6.918  2.6153 -0.0287 -1.7209
10830TIP3   OH233371   7.373   8.561   8.552 -0.1607 -0.5084 -0.1099
10830TIP3    H133372   7.439   8.631   8.552 -0.5806 -0.0936  0.6612
10830TIP3    H233373   7.386   8.516   8.635 -1.6250  0.3567  0.6359
10831TIP3   OH233374   3.309   6.968   0.850  0.6666  0.3755  0.0245
10831TIP3    H133375   3.280   6.975   0.941 -1.4107  0.4343 -0.5921
10831TIP3    H233376   3.299   6.876   0.828  1.8725  0.2219  0.0417
10832TIP3   OH233377   1.939   3.142   4.434  0.2716 -0.0909 -0.0927
10832TIP3    H133378   1.987   3.060   4.441  1.1115  0.4263  0.3051
10832TIP3    H233379   1.876   3.139   4.506  0.3495 -0.3533 -0.0357
10833TIP3   OH233380   8.390   0.669   4.211 -0.1614 -0.2637 -0.1951
10833TIP3    H133381   8.386   0.579   4.242  0.1235 -0.0327  0.5216
10833TIP3    H233382   8.472   0.703   4.244 -0.6760  0.5335  0.2912
10834TIP3   OH233383   8.873   4.669   5.645  0.5330 -0.6878 -0.1050
10834TIP3    H133384   8.911   4.659   5.558 -1.4584 -1.9506 -0.9175
10834TIP3    H233385   8.878   4.582   5.684  2.3488  0.0812  1.5327
10835TIP3   OH233386   8.020   6.646   1.870  0.1090 -0.3892 -0.5017
10835TIP3    H133387   8.066   6.670   1.790 -0.3086 -0.9081 -0.9036
10835TIP3    H233388   8.071   6.687   1.940 -0.2697  1.1977 -1.1173
10836TIP3   OH233389   3.066   3.045   7.006 -0.4389 -0.0257  0.6538
10836TIP3    H133390   3.010   3.058   6.930 -0.8632 -1.0448  0.7717
10836TIP3    H233391   3.025   2.973   7.054  0.4984 -0.2192  1.1933
10837TIP3   OH233392   6.594   3.223   2.661 -0.2286 -0.2292 -0.3587
10837TIP3    H133393   6.641   3.287   2.714  0.5008 -0.2468 -0.9628
10837TIP3    H233394   6.525   3.274   2.618 -0.1614 -0.0109 -0.2091
10838TIP3   OH233395  10.127  10.784   8.683  0.5128  0.5399 -0.6014
10838TIP3    H133396  10.085  10.784   8.597  1.2056  1.2859 -0.9537
10838TIP3    H233397  10.125  10.693   8.711 -0.0064  0.3426 -1.2633
10839TIP3   OH233398   2.758  10.590   2.038  0.0027 -0.3753  0.7945
10839TIP3    H133399   2.811  10.581   2.117  0.1502  0.6535  0.8281
10839TIP3    H233400   2.705  10.510   2.035  1.6869 -1.5542  0.6526
10840TIP3   OH233401   7.760   4.327  10.608 -0.6057 -0.2348  0.3423
10840TIP3    H133402   7.747   4.269  10.533 -2.5735 -1.2474  1.3819
10840TIP3    H233403   7.849   4.361  10.598 -0.5254 -1.0002 -1.9679
10841TIP3   OH233404   5.183   0.046  10.810 -0.2848 -0.2077  0.1156
10841TIP3    H133405   5.255   0.108  10.801  0.3529 -0.4429  2.7100
10841TIP3    H233406   5.222  -0.040  10.791 -0.6946 -0.0627 -1.5414
10842TIP3   OH233407   8.507   4.921   8.952 -0.3916  0.1117  0.3749
10842TIP3    H133408   8.434   4.864   8.975  1.0014 -1.3976  1.2856
10842TIP3    H233409   8.569   4.911   9.024  1.2946  0.2934 -0.9818
10843TIP3   OH233410   1.790   0.723   1.061 -0.1110 -0.0411 -0.1599
10843TIP3    H133411   1.860   0.664   1.088 -0.1517 -1.2285 -2.4262
10843TIP3    H233412   1.764   0.692   0.974 -0.4621  3.0115 -1.2809
10844TIP3   OH233413   5.726   1.242   0.565  0.7690  1.0923  0.0773
10844TIP3    H133414   5.673   1.277   0.493 -0.5032  0.9010  0.8996
10844TIP3    H233415   5.794   1.308   0.578  1.4960  0.7850 -1.7765
10845TIP3   OH233416   7.478   5.574   0.309  0.1306 -0.0135  0.0819
10845TIP3    H133417   7.529   5.646   0.345 -0.3334 -0.1015  0.9287
10845TIP3    H233418   7.397   5.614   0.279  0.2694 -0.0360 -0.3324
10846TIP3   OH233419   2.501   1.512   3.034  1.2697  0.1562  0.2141
10846TIP3    H133420   2.547   1.589   3.066  0.6136  0.7541 -0.2413
10846TIP3    H233421   2.414   1.544   3.011  1.9007 -0.0456 -2.8922
10847TIP3   OH233422   9.564   0.863   3.397  0.0884 -0.1785 -0.1320
10847TIP3    H133423   9.485   0.907   3.363  0.1312  0.3438  0.4164
10847TIP3    H233424   9.628   0.934   3.407  0.3716 -0.4721  0.1504
10848TIP3   OH233425   0.594   3.017   0.319  0.1791  0.5287  0.2907
10848TIP3    H133426   0.590   3.113   0.320  2.7448  0.7327  1.6638
10848TIP3    H233427   0.624   2.996   0.231  3.3689  1.3931  1.0261
10849TIP3   OH233428   4.070   2.178   4.470  0.4402  0.0140 -0.0932
10849TIP3    H133429   4.128   2.132   4.410  0.6688 -0.8510  0.7519
10849TIP3    H233430   4.005   2.112   4.496  0.1187  0.4736  0.3091
10850TIP3   OH233431   0.210   4.211   3.058  0.0972 -0.3280  0.3221
10850TIP3    H133432   0.185   4.163   3.138  2.4899 -0.7637  0.8789
10850TIP3    H233433   0.276   4.273   3.088  0.3748  0.1219 -1.1880
10851TIP3   OH233434   6.339   5.905  10.844 -0.3684  0.1791 -0.1102
10851TIP3    H133435   6.271   5.969  10.864 -2.0924 -0.9009 -2.1415
10851TIP3    H233436   6.310   5.825  10.886 -0.3018 -0.2542 -0.8733
10852TIP3   OH233437   0.553   8.682   7.956 -0.5956  0.0812  1.0064
10852TIP3    H133438   0.459   8.668   7.940 -0.0118 -2.5806 -0.7750
10852TIP3    H233439   0.561   8.682   8.051 -2.1526 -2.5341  1.2504
10853TIP3   OH233440   6.441   1.271   7.564 -0.1854 -0.1519  0.6673
10853TIP3    H133441   6.359   1.290   7.609 -0.6047  0.3775 -0.2903
10853TIP3    H233442   6.510   1.295   7.626 -0.7288 -1.4529  1.8361
10854TIP3   OH233443   9.098   2.903   2.799 -0.0640  0.0178 -0.1316
10854TIP3    H133444   9.060   2.931   2.715 -0.0557 -0.4433 -0.2930
10854TIP3    H233445   9.097   2.982   2.853 -3.7178 -0.5174  0.8228
10855TIP3   OH233446   9.172   6.165   0.971 -0.4546  0.4073 -0.1641
10855TIP3    H133447   9.252   6.133   0.929  1.0015  1.1771  1.8633
10855TIP3    H233448   9.145   6.094   1.030 -1.6535 -0.0766 -1.2273
10856TIP3   OH233449   0.403   9.875  10.000  0.3176 -0.0840  0.1661
10856TIP3    H133450   0.381   9.822   9.923 -2.4661  0.8583  0.2008
10856TIP3    H233451   0.394   9.816  10.074 -1.6271  0.0977  0.1091
10857TIP3   OH233452   7.922   9.336   5.214 -0.2294 -0.8133  0.1515
10857TIP3    H133453   7.891   9.424   5.238  1.7605 -0.3934  1.4682
10857TIP3    H233454   7.867   9.277   5.266 -1.1786 -0.3268 -0.2763
10858TIP3   OH233455   0.918   6.747   7.520 -0.1653 -0.0238  0.1720
10858TIP3    H133456   0.979   6.697   7.573 -0.3112  1.8738  2.2827
10858TIP3    H233457   0.841   6.691   7.513 -0.0455 -0.4477  1.8002
10859TIP3   OH233458   7.929  10.211   6.338  0.1124 -0.7725  0.0121
10859TIP3    H133459   7.834  10.207   6.328  0.1375  0.5642 -0.9346
10859TIP3    H233460   7.943  10.274   6.408  0.3188 -0.8795  0.0692
10860TIP3   OH233461   6.445   3.682   4.792 -0.1884 -0.2685  0.0481
10860TIP3    H133462   6.464   3.769   4.828  1.5707 -0.6751  0.2196
10860TIP3    H233463   6.351   3.682   4.778 -0.0048  2.5175 -2.1477
10861TIP3   OH233464   4.845   1.825   5.439  0.1453  0.4666  0.2659
10861TIP3    H133465   4.921   1.771   5.417 -2.0017 -2.8221  0.2567
10861TIP3    H233466   4.782   1.808   5.369 -1.8632  0.3061  2.0127
10862TIP3   OH233467   1.787  10.458   1.709 -0.3331  0.1436  0.2340
10862TIP3    H133468   1.704  10.417   1.732  0.0952  0.1234  1.8777
10862TIP3    H233469   1.809  10.420   1.624 -3.0053  1.7669 -1.2993
10863TIP3   OH233470   7.516   0.137   2.400  0.4713  0.0317  0.0280
10863TIP3    H133471   7.528   0.228   2.376 -1.9293  0.5417  0.5978
10863TIP3    H233472   7.556   0.130   2.487  0.6934  0.5156 -0.0307
10864TIP3   OH233473   5.491   3.419   8.841 -0.3422 -0.0403  0.1882
10864TIP3    H133474   5.447   3.396   8.923  0.3094  0.8231  0.7927
10864TIP3    H233475   5.527   3.506   8.856  1.0700 -0.4783 -0.5038
10865TIP3   OH233476   2.873   8.253   6.950 -0.5648  0.2938  0.4459
10865TIP3    H133477   2.883   8.201   6.870  1.5568 -0.3140  1.0426
10865TIP3    H233478   2.902   8.195   7.020  0.1608  1.6880  1.3495
10866TIP3   OH233479   9.181   4.116   3.550  0.2994 -0.5605 -0.3632
10866TIP3    H133480   9.167   4.101   3.643  2.3858  0.4611  0.1713
10866TIP3    H233481   9.163   4.032   3.509  0.3049 -1.2871  1.0731
10867TIP3   OH233482   7.569   1.547   6.273  0.4568 -0.5052 -0.3408
10867TIP3    H133483   7.477   1.542   6.299  0.0853  0.9814 -1.2287
10867TIP3    H233484   7.613   1.481   6.327 -0.9472 -0.4868  0.9015
10868TIP3   OH233485   6.072   7.153   6.083  0.4331 -0.1095  0.0304
10868TIP3    H133486   6.091   7.169   5.991  1.7072 -2.1467 -0.1311
10868TIP3    H233487   6.149   7.106   6.116 -0.8218 -1.1896  1.6108
10869TIP3   OH233488   6.987   1.176   6.328 -0.1564 -0.3132 -0.0400
10869TIP3    H133489   7.039   1.179   6.248  0.7063 -0.7215  0.4972
10869TIP3    H233490   6.902   1.142   6.299  0.2394 -0.7420 -0.7319
10870TIP3   OH233491   5.360   1.992   5.869  0.9783  0.2083 -0.4910
10870TIP3    H133492   5.425   1.931   5.834  0.3751 -1.0200  0.4324
10870TIP3    H233493   5.375   1.991   5.963  0.1625  0.5415 -0.3481
10871TIP3   OH233494   2.342   9.988   8.657 -0.2800  0.0470 -0.1019
10871TIP3    H133495   2.422   9.960   8.611 -0.7931 -0.2523 -0.8317
10871TIP3    H233496   2.321   9.915   8.714 -0.5021 -0.2323 -0.5360
10872TIP3   OH233497   6.257   9.328   7.403 -0.4361  0.1438 -0.9646
10872TIP3    H133498   6.318   9.391   7.366  0.2556 -0.2869 -0.5837
10872TIP3    H233499   6.312   9.263   7.446 -1.2043  0.3961  0.4539
10873TIP3   OH233500   4.785   5.776   4.291  0.0937  0.1392  0.4005
10873TIP3    H133501   4.825   5.831   4.359  1.0666  0.9697 -0.8014
10873TIP3    H233502   4.788   5.687   4.326 -0.0189  0.6370  1.7074
10874TIP3   OH233503   7.584  10.460   8.510  0.1425 -0.0871  0.7204
10874TIP3    H133504   7.523  10.529   8.533 -0.6259 -0.6796  0.5161
10874TIP3    H233505   7.537  10.406   8.447  0.5404 -1.0778  1.2470
10875TIP3   OH233506   5.454   6.889   3.529  0.5652 -0.3367  0.1901
10875TIP3    H133507   5.512   6.818   3.557  2.0622  1.2951  1.4652
10875TIP3    H233508   5.379   6.882   3.587 -0.1060 -1.8494 -0.7971
10876TIP3   OH233509   0.781   1.449   7.550 -0.0829  0.1809 -0.1096
10876TIP3    H133510   0.865   1.482   7.518  0.0263  0.6081  0.6119
10876TIP3    H233511   0.718   1.477   7.484  0.3449 -0.2343 -0.7113
10877TIP3   OH233512   8.559   8.703   9.677  0.3369  0.4083 -0.0302
10877TIP3    H133513   8.486   8.745   9.632  0.2138  0.8452  0.5640
10877TIP3    H233514   8.563   8.747   9.762  1.2542  0.3419 -0.0357
10878TIP3   OH233515   7.785   9.224   5.740  0.2218  0.2062  0.2410
10878TIP3    H133516   7.860   9.169   5.715 -0.6683 -0.7654 -0.3777
10878TIP3    H233517   7.824   9.299   5.784  1.5239 -0.6549  0.6217
10879TIP3   OH233518   6.490   1.777   3.748  0.0692 -0.2543 -0.1369
10879TIP3    H133519   6.574   1.767   3.791  0.0780 -0.5267 -0.2123
10879TIP3    H233520   6.474   1.871   3.746 -0.8538 -0.3076  2.2088
10880TIP3   OH233521   8.400   4.127   2.187  0.7243  0.0452 -0.6534
10880TIP3    H133522   8.388   4.183   2.111  2.3065  1.0013 -0.2362
10880TIP3    H233523   8.319   4.075   2.192 -0.3383  1.5372 -1.6521
10881TIP3   OH233524   7.558   5.275   2.989 -0.1386  0.3027  0.5452
10881TIP3    H133525   7.548   5.206   3.055 -1.4877  0.1580  0.2186
10881TIP3    H233526   7.506   5.348   3.023 -0.0183  0.5919  0.1199
10882TIP3   OH233527   8.988   1.745   3.707  0.2678  0.0629  0.0738
10882TIP3    H133528   9.031   1.660   3.711 -1.0314 -0.5918  0.6937
10882TIP3    H233529   9.045   1.798   3.650  1.5059 -0.9541  0.3164
10883TIP3   OH233530   8.078   5.284   7.372 -0.5505 -0.0830  0.1471
10883TIP3    H133531   8.141   5.254   7.437  0.9389 -1.8517 -1.9565
10883TIP3    H233532   8.119   5.361   7.333  0.6988 -1.5262 -1.5734
10884TIP3   OH233533   2.240   2.565  10.016  0.6064 -0.4269 -0.3520
10884TIP3    H133534   2.284   2.487  10.052  1.8688  0.4821  0.1444
10884TIP3    H233535   2.293   2.589   9.940  0.1558 -0.1286 -0.5691
10885TIP3   OH233536   3.650   7.080   4.944  0.0210  0.8712  0.0372
10885TIP3    H133537   3.610   7.040   4.866  0.0473 -0.5382  0.7259
10885TIP3    H233538   3.577   7.091   5.005  0.4207 -0.3244  0.7376
10886TIP3   OH233539  10.327   4.921   2.237 -0.8799 -0.0066 -0.3972
10886TIP3    H133540  10.395   4.898   2.174  1.8665  1.2131  1.8897
10886TIP3    H233541  10.284   4.998   2.200 -0.2995 -0.1598 -1.4159
10887TIP3   OH233542   8.130   4.310   4.486 -0.1009  0.0802 -0.1651
10887TIP3    H133543   8.203   4.311   4.548  2.0164  0.3711 -2.4732
10887TIP3    H233544   8.080   4.389   4.506 -0.4633 -0.6786  2.1697
10888TIP3   OH233545   4.808   9.751   2.100 -0.3610 -0.6462  0.4834
10888TIP3    H133546   4.799   9.665   2.060  1.0418 -0.5746 -0.0138
10888TIP3    H233547   4.807   9.734   2.194  0.8536 -1.3133  0.3861
10889TIP3   OH233548   7.020   3.811   9.473 -0.0049  0.2484  0.1895
10889TIP3    H133549   6.931   3.835   9.449 -0.1375 -1.8163 -1.8366
10889TIP3    H233550   7.046   3.874   9.540 -2.4311  1.8245 -0.2442
10890TIP3   OH233551   1.287   7.416   5.786 -0.0227 -0.2783  0.1693
10890TIP3    H133552   1.375   7.389   5.760 -1.0925 -1.6344 -2.4076
10890TIP3    H233553   1.264   7.357   5.858  0.2407 -1.7427 -0.8981
10891TIP3   OH233554   1.968   7.332   0.374 -0.1716 -0.2492 -0.4331
10891TIP3    H133555   1.975   7.275   0.298 -0.3918 -1.6272  0.5461
10891TIP3    H233556   2.052   7.323   0.419 -0.3341 -0.0565 -0.0876
10892TIP3   OH233557   1.976   8.519   2.900 -0.2537  0.0462  0.1518
10892TIP3    H133558   1.995   8.505   2.993 -0.6148 -0.2248  0.1902
10892TIP3    H233559   1.936   8.606   2.897  1.3762  0.8194  0.0065
10893TIP3   OH233560   1.135   1.603   9.830  0.6615 -0.1394  0.4601
10893TIP3    H133561   1.130   1.513   9.863 -1.3654  0.1366  1.0869
10893TIP3    H233562   1.223   1.632   9.851  0.9476 -1.5817  1.3692
10894TIP3   OH233563   9.375   6.710   9.942  0.1754 -0.5751 -0.0350
10894TIP3    H133564   9.396   6.774   9.873 -1.8599 -1.6113 -1.7482
10894TIP3    H233565   9.424   6.740  10.018  1.3907  1.4878 -1.5124
10895TIP3   OH233566   3.302   7.517   5.055  0.2107  0.1644 -0.6263
10895TIP3    H133567   3.276   7.456   4.986  1.4211 -0.3596 -0.6378
10895TIP3    H233568   3.368   7.470   5.106 -1.4389  0.1097  1.6073
10896TIP3   OH233569   6.620   0.696   5.172 -0.2902  0.0087 -0.1814
10896TIP3    H133570   6.655   0.607   5.169 -2.7174 -0.9987 -1.2599
10896TIP3    H233571   6.660   0.734   5.251 -0.0817 -2.4413  1.0086
10897TIP3   OH233572   0.917   9.377   3.389  0.5512  0.4510 -0.0204
10897TIP3    H133573   0.835   9.423   3.409  1.2194  0.9784  1.6320
10897TIP3    H233574   0.986   9.438   3.417  1.6077  0.7576 -2.9259
10898TIP3   OH233575   8.486   2.436   9.220 -0.2962 -0.6282 -0.1543
10898TIP3    H133576   8.507   2.345   9.245  0.0419 -1.0931 -2.0040
10898TIP3    H233577   8.482   2.434   9.125  2.4271  1.8728 -0.4434
10899TIP3   OH233578   5.827   3.241   2.285  0.8058 -0.4463  0.4003
10899TIP3    H133579   5.771   3.318   2.277  0.3626 -0.9494 -2.4842
10899TIP3    H233580   5.856   3.241   2.377 -0.8151  1.9600  0.9947
10900TIP3   OH233581   5.494   0.740   9.018 -0.0179  0.3733  0.4182
10900TIP3    H133582   5.431   0.800   8.979  1.7568  1.9463 -0.2146
10900TIP3    H233583   5.534   0.790   9.089 -0.1558 -0.9376  1.4410
10901TIP3   OH233584   0.498   6.210   3.221 -0.1577  0.0630 -0.1579
10901TIP3    H133585   0.592   6.217   3.240 -0.5584  1.3595  1.5450
10901TIP3    H233586   0.485   6.117   3.199  2.0826  0.4665 -4.0815
10902TIP3   OH233587   5.812   1.737   0.364 -0.3669  0.1521  0.4993
10902TIP3    H133588   5.760   1.729   0.444 -0.1156 -0.9115  0.5666
10902TIP3    H233589   5.748   1.729   0.293 -0.6070  1.2074  0.5720
10903TIP3   OH233590   5.557   8.125   8.613 -0.4317  0.3812 -0.1904
10903TIP3    H133591   5.596   8.099   8.530 -1.9065  0.8951 -1.0844
10903TIP3    H233592   5.632   8.145   8.669  0.6253 -1.3173 -0.9163
10904TIP3   OH233593   4.264   5.967   7.252  0.0440  0.2450  0.3697
10904TIP3    H133594   4.216   6.020   7.189  0.0077 -0.1867  0.0295
10904TIP3    H233595   4.230   5.993   7.337 -2.6124 -1.7798  0.0694
10905TIP3   OH233596   3.456   6.543   2.653  0.1204 -0.0279  0.0382
10905TIP3    H133597   3.404   6.582   2.724  0.8993 -0.5766  0.9413
10905TIP3    H233598   3.530   6.602   2.643 -0.1220  0.1879 -0.5154
10906TIP3   OH233599   6.724   7.657  10.877  0.9326  0.2158 -0.3041
10906TIP3    H133600   6.729   7.582  10.936  0.8758  0.1199 -0.4201
10906TIP3    H233601   6.747   7.732  10.932  2.9090 -0.0951 -0.6116
10907TIP3   OH233602   4.472  10.098   7.311 -1.0181  0.1980  0.1891
10907TIP3    H133603   4.405  10.151   7.355  0.0180  1.9030 -0.1829
10907TIP3    H233604   4.459  10.116   7.218 -1.6300 -1.4754 -0.0861
10908TIP3   OH233605   8.608   4.582   6.392 -0.2411  0.2138  0.2774
10908TIP3    H133606   8.605   4.597   6.297 -0.5719  0.1893  0.2827
10908TIP3    H233607   8.516   4.580   6.418 -0.1754  3.2952  1.0865
10909TIP3   OH233608   7.975   0.609   4.838 -0.0279  0.3113 -0.0509
10909TIP3    H133609   8.020   0.603   4.923 -0.1310 -1.8996 -0.0904
10909TIP3    H233610   7.883   0.598   4.859  0.0617 -1.7461 -0.5226
10910TIP3   OH233611   3.925   4.637   2.626 -0.6502 -0.0923  0.1003
10910TIP3    H133612   3.941   4.557   2.576  0.2237  1.2004 -1.7809
10910TIP3    H233613   4.008   4.653   2.672 -1.3355 -1.0795  1.8117
10911TIP3   OH233614   7.490   7.426   9.673 -0.1208  0.3851  0.5466
10911TIP3    H133615   7.405   7.470   9.671 -0.5677 -0.3841  1.9190
10911TIP3    H233616   7.497   7.383   9.588 -2.1542 -1.4491  1.2351
10912TIP3   OH233617   2.779   0.291   9.309 -0.5808 -0.4842 -0.1357
10912TIP3    H133618   2.762   0.197   9.315 -0.2490 -0.5625 -0.4210
10912TIP3    H233619   2.872   0.300   9.332 -0.9603 -0.0619  1.3746
10913TIP3   OH233620   3.493   4.661   9.324 -0.7120  0.1085  0.3038
10913TIP3    H133621   3.566   4.715   9.355 -1.0195  1.5844 -1.3995
10913TIP3    H233622   3.416   4.718   9.333 -1.1225 -0.2107 -1.0398
10914TIP3   OH233623   8.612   6.041   3.006 -0.7627 -0.1912 -0.3540
10914TIP3    H133624   8.693   6.036   3.056 -1.1594 -1.3059  0.2005
10914TIP3    H233625   8.544   6.056   3.071 -1.0840  0.0377 -0.7411
10915TIP3   OH233626   2.949   5.873   4.821 -0.2444 -0.6665  0.3644
10915TIP3    H133627   2.932   5.844   4.911 -1.9782 -0.8604  0.0187
10915TIP3    H233628   3.040   5.901   4.822 -0.1131 -1.0036  2.0935
10916TIP3   OH233629   4.001   3.061   2.482  0.0549  0.6889  0.4049
10916TIP3    H133630   3.949   2.981   2.487  1.6041 -0.2819  2.6159
10916TIP3    H233631   3.944   3.129   2.520 -0.2843  0.0420  1.0783
10917TIP3   OH233632   8.669   9.678   7.287 -0.3918 -0.4952 -0.0494
10917TIP3    H133633   8.667   9.632   7.203 -0.9245 -1.4885  0.4993
10917TIP3    H233634   8.724   9.755   7.270 -3.0168  1.1151 -2.2118
10918TIP3   OH233635   9.113   6.796   3.257 -0.5181 -0.2482  0.1651
10918TIP3    H133636   9.064   6.716   3.275  0.2413 -0.5946  0.7151
10918TIP3    H233637   9.075   6.829   3.175  1.0127 -2.6840 -1.6837
10919TIP3   OH233638   5.422   7.527   9.285  0.1945 -0.0915  0.1480
10919TIP3    H133639   5.340   7.483   9.308  1.1831 -1.9216  0.3701
10919TIP3    H233640   5.395   7.602   9.231 -1.7149  0.3482  1.6027
10920TIP3   OH233641   1.146   6.464   3.473 -0.4549  0.4017  0.1161
10920TIP3    H133642   1.157   6.559   3.471 -1.6415  0.5370 -1.6622
10920TIP3    H233643   1.143   6.438   3.381  2.3650 -1.7109  0.4587
10921TIP3   OH233644  10.304   5.807   5.836  0.2382  0.1285  0.0284
10921TIP3    H133645  10.316   5.896   5.868  0.6808  0.4111 -0.8889
10921TIP3    H233646  10.392   5.769   5.837 -0.1800 -0.9341  2.1302
10922TIP3   OH233647   2.641   1.255   3.317 -0.4700 -0.1099  0.0661
10922TIP3    H133648   2.578   1.214   3.377 -0.4191 -0.2435  0.0303
10922TIP3    H233649   2.674   1.331   3.365  0.3228 -0.7765  0.6331
10923TIP3   OH233650   6.814   9.266   9.441 -0.0513 -0.1732  0.1432
10923TIP3    H133651   6.870   9.188   9.440  1.8621  1.1362 -0.0993
10923TIP3    H233652   6.787   9.277   9.350 -2.6315 -2.0385  0.5712
10924TIP3   OH233653   8.205   7.185  10.469  0.8137  0.1184  0.0750
10924TIP3    H133654   8.181   7.125  10.539 -0.6571 -0.9045 -1.2472
10924TIP3    H233655   8.122   7.209  10.428  1.5394  1.6396 -0.5740
10925TIP3   OH233656   8.047   6.830   8.138  0.3040 -0.9775 -0.0985
10925TIP3    H133657   7.974   6.773   8.113 -1.1228  1.1323 -1.1121
10925TIP3    H233658   8.105   6.830   8.062 -0.5806  0.1578 -0.8269
10926TIP3   OH233659   2.832   3.011  10.507  0.0025  0.4944  0.4040
10926TIP3    H133660   2.866   2.923  10.525  0.6175  0.6284 -0.0753
10926TIP3    H233661   2.751   2.996  10.459  0.7548  0.1992 -0.7984
10927TIP3   OH233662  10.341   2.063   4.703  0.0485  0.1671  0.7802
10927TIP3    H133663  10.418   2.067   4.759  1.2205 -0.3654 -0.7202
10927TIP3    H233664  10.304   1.976   4.720 -0.7020  0.7081  2.0615
10928TIP3   OH233665   4.542  10.199   9.910 -0.4098  0.1728  0.6135
10928TIP3    H133666   4.473  10.206   9.976  1.2277  2.6220  2.2273
10928TIP3    H233667   4.620  10.176   9.960  0.7313  1.3461 -0.5524
10929TIP3   OH233668   4.422   9.013   2.367 -0.2494  0.1030 -0.3896
10929TIP3    H133669   4.511   8.989   2.394 -0.0709 -0.1403 -1.1888
10929TIP3    H233670   4.433   9.060   2.284 -0.7622  1.2335  0.1529
10930TIP3   OH233671   8.930   8.821   7.802  0.6179  0.1799 -0.6840
10930TIP3    H133672   8.992   8.813   7.730  1.0619 -2.2791 -0.1481
10930TIP3    H233673   8.985   8.825   7.881  0.1216  0.6872 -0.3537
10931TIP3   OH233674   7.991   7.566   6.888  0.0244 -0.1669  0.3999
10931TIP3    H133675   8.013   7.627   6.958  0.4976  0.0701  0.0479
10931TIP3    H233676   7.922   7.511   6.925 -1.0830  1.1836  0.4088
10932TIP3   OH233677   6.357   5.293   1.460 -0.1797  0.4139 -0.2150
10932TIP3    H133678   6.375   5.236   1.385 -1.4035 -0.7681  0.3640
10932TIP3    H233679   6.293   5.356   1.427  1.4383  1.7719 -0.9598
10933TIP3   OH233680   9.084   9.724   6.712 -0.7137 -0.0538 -0.0558
10933TIP3    H133681   9.089   9.694   6.622 -0.4100  1.0207 -0.4046
10933TIP3    H233682   9.129   9.656   6.762 -1.1753 -0.8195 -0.6648
10934TIP3   OH233683   8.386   0.420   5.124 -0.0851  0.2340 -0.1555
10934TIP3    H133684   8.416   0.457   5.041  1.4613  0.5399  0.5185
10934TIP3    H233685   8.465   0.405   5.174 -0.8630 -1.5281  0.6392
10935TIP3   OH233686   0.632   6.128   0.896  0.3505 -0.5079 -0.3514
10935TIP3    H133687   0.569   6.075   0.849  0.3660 -0.5883 -0.2809
10935TIP3    H233688   0.710   6.073   0.905  0.8014 -0.0604 -1.3262
10936TIP3   OH233689   4.480   0.575   5.058  0.5979  0.6562  0.0355
10936TIP3    H133690   4.456   0.496   5.009  0.5106  1.4430 -1.2412
10936TIP3    H233691   4.407   0.635   5.043  2.1182  2.1694 -1.7866
10937TIP3   OH233692   4.124   4.437   5.672  1.0456  0.2692  0.1176
10937TIP3    H133693   4.211   4.397   5.668  1.3112  0.7394  1.0407
10937TIP3    H233694   4.121   4.481   5.756 -0.5198 -0.7194  0.6405
10938TIP3   OH233695   4.909   9.954   4.672  0.2251 -0.1216  0.4063
10938TIP3    H133696   4.849  10.028   4.661 -0.5830 -0.9671 -1.1806
10938TIP3    H233697   4.969   9.982   4.741  0.6288  2.4420 -0.8862
10939TIP3   OH233698   1.958   4.455   1.314  0.4303 -0.4546 -0.3133
10939TIP3    H133699   1.978   4.463   1.221  1.1024 -1.1835 -0.2388
10939TIP3    H233700   1.914   4.537   1.337 -1.1278 -0.8780 -1.6110
10940TIP3   OH233701   9.542  10.554   5.226  0.1018  0.3244  0.3320
10940TIP3    H133702   9.467  10.604   5.192  0.3520  1.0637  0.8430
10940TIP3    H233703   9.504  10.498   5.294 -0.0500  0.4148  0.3247
10941TIP3   OH233704   6.112   0.986   8.677  0.4036  0.8414 -0.2471
10941TIP3    H133705   6.079   0.962   8.590 -0.3842  2.2962 -0.3895
10941TIP3    H233706   6.110   0.905   8.727 -0.4806  0.2561 -1.1870
10942TIP3   OH233707   7.367   4.969   3.600 -0.0130  0.0703  0.1957
10942TIP3    H133708   7.463   4.976   3.600  0.1421 -1.4347  1.9038
10942TIP3    H233709   7.339   5.019   3.677 -0.7876  1.8416 -1.1597
10943TIP3   OH233710   5.504   0.174   7.560 -0.0410 -0.3758  0.5292
10943TIP3    H133711   5.560   0.188   7.636 -0.4339  1.5223  0.5027
10943TIP3    H233712   5.417   0.197   7.590  0.0174  1.9217 -0.8731
10944TIP3   OH233713   9.335   1.272   4.702 -0.1233 -0.0815 -0.6474
10944TIP3    H133714   9.384   1.338   4.751 -0.1524 -0.3061 -0.3113
10944TIP3    H233715   9.391   1.250   4.628  0.4811 -0.6596 -0.0295
10945TIP3   OH233716   5.471   1.187   9.620  0.0142 -0.0806 -0.5040
10945TIP3    H133717   5.418   1.267   9.616  0.6245  0.3064 -0.9535
10945TIP3    H233718   5.420   1.123   9.570 -0.8296 -0.1920  0.4711
10946TIP3   OH233719   2.834   3.930   1.209  0.0164  0.8408  0.0911
10946TIP3    H133720   2.761   3.977   1.248 -1.3220 -0.3383 -0.9042
10946TIP3    H233721   2.881   3.996   1.159 -1.5326  1.2428 -0.8815
10947TIP3   OH233722  10.356   0.813   8.944  0.1767 -0.3369  0.7186
10947TIP3    H133723  10.336   0.866   9.021 -0.6472 -1.7040  1.4768
10947TIP3    H233724  10.279   0.821   8.889  1.4493  2.1127 -0.9172
10948TIP3   OH233725   4.270   1.919   1.167  0.2723 -0.3801  0.2839
10948TIP3    H133726   4.264   1.938   1.073  2.4221 -0.6491  0.0389
10948TIP3    H233727   4.225   1.993   1.209 -0.0764  0.1303 -0.9378
10949TIP3   OH233728   7.500   2.395   1.293 -0.5743 -0.0136  0.3239
10949TIP3    H133729   7.547   2.425   1.216 -1.1964 -0.0232 -0.0709
10949TIP3    H233730   7.409   2.423   1.278 -0.7220 -0.0937  1.0094
10950TIP3   OH233731   5.788   8.949   1.439  0.4808 -0.4289  0.5126
10950TIP3    H133732   5.859   8.911   1.386 -0.4055 -1.1477 -0.1837
10950TIP3    H233733   5.723   8.880   1.446 -1.4167  1.0566 -1.2128
10951TIP3   OH233734   9.129   7.835   4.162  0.3511  0.0258 -0.0023
10951TIP3    H133735   9.117   7.930   4.159  0.5387  0.0381 -1.5765
10951TIP3    H233736   9.128   7.808   4.070 -0.4177 -1.5950  0.4432
10952TIP3   OH233737   6.319   6.887   0.855 -0.7536  0.7756 -0.4159
10952TIP3    H133738   6.288   6.800   0.828 -1.8407  1.0733 -0.1799
10952TIP3    H233739   6.257   6.948   0.816 -0.6945  1.3724  0.3924
10953TIP3   OH233740   1.987  10.767   7.442 -0.3697 -1.0023  0.8022
10953TIP3    H133741   1.924  10.699   7.420 -3.3599  1.6900  0.3694
10953TIP3    H233742   1.934  10.840   7.474  2.2643  2.2635 -1.5312
10954TIP3   OH233743   3.695   6.456   2.466 -0.2516  0.6424  0.0995
10954TIP3    H133744   3.729   6.388   2.525 -1.6739 -0.2241 -0.0425
10954TIP3    H233745   3.693   6.535   2.521  0.6669  0.4067  0.5017
10955TIP3   OH233746   1.356   5.341   7.713 -0.6275 -0.3575  0.0938
10955TIP3    H133747   1.440   5.369   7.751 -0.6542  1.7172 -1.2340
10955TIP3    H233748   1.325   5.417   7.664 -3.0375 -1.2762  0.0752
10956TIP3   OH233749   2.713   8.967   7.189  0.0643 -0.3527  0.3802
10956TIP3    H133750   2.682   8.886   7.230  0.5352 -0.1962  1.0737
10956TIP3    H233751   2.633   9.011   7.160 -0.3603 -0.1600  1.7398
10957TIP3   OH233752  10.561   6.288   1.348  0.2890 -0.3159 -0.1184
10957TIP3    H133753  10.646   6.245   1.344  1.8854  2.5193  0.5098
10957TIP3    H233754  10.545   6.319   1.259  1.5044  1.7799  0.3134
10958TIP3   OH233755  10.352   3.551   9.247  0.2482 -0.5748 -0.1470
10958TIP3    H133756  10.294   3.478   9.269  0.9469 -1.7396 -1.9260
10958TIP3    H233757  10.440   3.513   9.248  0.6107  0.1944 -1.2235
10959TIP3   OH233758   1.689   8.981   7.985  0.6552 -0.4775  0.0823
10959TIP3    H133759   1.637   9.061   7.992  0.8143 -0.2729 -0.9341
10959TIP3    H233760   1.678   8.938   8.070 -1.2358 -0.4758 -0.1220
10960TIP3   OH233761   2.344   5.673   2.991 -0.3978  0.2030 -0.8527
10960TIP3    H133762   2.279   5.616   3.031  1.2863  0.1546  2.1212
10960TIP3    H233763   2.414   5.614   2.964  0.3698  0.6133  0.1802
10961TIP3   OH233764   6.357   6.200   4.903  0.5650  0.2995  0.5633
10961TIP3    H133765   6.296   6.243   4.843  0.3428 -1.4476 -0.5349
10961TIP3    H233766   6.334   6.235   4.989  1.3922  3.4232 -0.3629
10962TIP3   OH233767   3.132   1.800   6.152 -0.0763 -0.2551 -0.0090
10962TIP3    H133768   3.095   1.802   6.240 -0.2224 -0.9437 -0.0536
10962TIP3    H233769   3.212   1.749   6.159 -0.5722 -1.1119 -0.4486
10963TIP3   OH233770   5.865   0.670   0.017  0.1329 -0.0311 -0.4552
10963TIP3    H133771   5.851   0.678  -0.078  0.2471  0.1126 -0.4602
10963TIP3    H233772   5.942   0.613   0.025 -0.6234 -1.0714 -0.4211
10964TIP3   OH233773   7.859   9.221   6.458  0.1948 -0.2030  0.0208
10964TIP3    H133774   7.797   9.221   6.385 -0.0437  0.3607  0.2169
10964TIP3    H233775   7.909   9.140   6.447  0.7784  0.3046 -1.2928
10965TIP3   OH233776   1.463   8.583   0.289  0.2487 -0.2632  0.0554
10965TIP3    H133777   1.426   8.516   0.346  0.8616 -0.2865  0.4359
10965TIP3    H233778   1.481   8.537   0.206 -0.9624 -0.1463 -0.2814
10966TIP3   OH233779   3.324   1.418   7.152  0.1640  0.4682  0.5962
10966TIP3    H133780   3.314   1.436   7.058 -0.0145  0.4512  0.6128
10966TIP3    H233781   3.264   1.480   7.194  1.2186  1.4144  0.7674
10967TIP3   OH233782   6.092   5.323   5.771  0.7508 -0.6387 -0.2966
10967TIP3    H133783   6.102   5.415   5.747  1.5354 -0.6599 -0.0857
10967TIP3    H233784   6.173   5.301   5.817  0.9116 -1.6392 -1.0200
10968TIP3   OH233785   4.258   7.322   0.804 -0.4319 -0.0714 -0.3606
10968TIP3    H133786   4.202   7.272   0.745 -0.5229  0.1754 -0.4837
10968TIP3    H233787   4.218   7.409   0.808 -0.4368 -0.0900  0.0785
10969TIP3   OH233788   0.212   9.262  10.761  0.4651 -0.1636 -0.2278
10969TIP3    H133789   0.263   9.243  10.682 -0.6904 -1.6294 -0.6744
10969TIP3    H233790   0.129   9.297  10.729  0.1783 -0.3001  0.3484
10970TIP3   OH233791   4.839   5.989   2.806 -0.2275 -0.2866  0.0550
10970TIP3    H133792   4.760   5.938   2.826 -0.0513 -0.5341  0.1245
10970TIP3    H233793   4.881   6.001   2.891  0.7070 -1.6350 -0.1779
10971TIP3   OH233794   6.081   8.155   6.734 -0.1170 -0.2245  0.6531
10971TIP3    H133795   6.066   8.156   6.828  0.6670  1.4616  0.7890
10971TIP3    H233796   6.176   8.157   6.725 -0.1990  0.6076 -0.1667
10972TIP3   OH233797  10.720   5.285   7.770  0.2883  0.2386 -0.0807
10972TIP3    H133798  10.722   5.240   7.685 -0.8217  0.0978 -0.0492
10972TIP3    H233799  10.650   5.241   7.819 -0.8575  1.9734 -0.0538
10973TIP3   OH233800   8.341   8.477   9.048  0.0849 -0.1973 -0.2047
10973TIP3    H133801   8.398   8.403   9.027 -1.3175 -1.3216 -0.2330
10973TIP3    H233802   8.399   8.553   9.046  1.4664 -1.2111 -0.7388
10974TIP3   OH233803   0.693   6.113   3.778  0.1123  0.2817  0.2041
10974TIP3    H133804   0.752   6.186   3.760 -0.0857  0.4241  0.1244
10974TIP3    H233805   0.750   6.038   3.789  0.3445  0.5247  0.6883
10975TIP3   OH233806   7.850   0.515   8.480  0.1232  0.4617  0.2939
10975TIP3    H133807   7.775   0.561   8.518  0.0470  0.9679 -0.4533
10975TIP3    H233808   7.925   0.573   8.496  0.3836 -0.0895  1.1299
10976TIP3   OH233809   6.966   3.761  10.664 -0.3228 -0.1718  0.6647
10976TIP3    H133810   6.984   3.810  10.584 -0.0880 -0.8937  0.2653
10976TIP3    H233811   6.876   3.729  10.653 -0.2127 -0.4575  0.5906
10977TIP3   OH233812   7.364   2.975   9.916  0.0482  0.3120  0.3413
10977TIP3    H133813   7.339   3.065   9.938 -0.2284  0.3209  0.0015
10977TIP3    H233814   7.288   2.940   9.869 -0.6701 -0.7716  2.2172
10978TIP3   OH233815   0.612   3.061  10.598 -0.3104  0.2240  0.1877
10978TIP3    H133816   0.563   2.984  10.627 -1.9220  0.9023 -0.6527
10978TIP3    H233817   0.692   3.059  10.651  0.4011 -2.8214 -0.8311
10979TIP3   OH233818   0.626   1.659   2.491 -0.3535 -0.5202 -0.5555
10979TIP3    H133819   0.717   1.655   2.518 -0.3913 -1.0116 -0.5033
10979TIP3    H233820   0.626   1.716   2.414  0.0755 -0.9964 -0.9103
10980TIP3   OH233821   5.657   9.795   5.676  0.2201 -0.0115 -0.6163
10980TIP3    H133822   5.750   9.810   5.661 -0.1585  3.0609 -0.5779
10980TIP3    H233823   5.619   9.794   5.588 -0.3366  4.8631 -0.6825
10981TIP3   OH233824   9.391   4.925   5.136 -0.2926  0.2974 -0.4203
10981TIP3    H133825   9.395   5.019   5.156  0.3195  0.5896 -1.7972
10981TIP3    H233826   9.407   4.882   5.220  0.3714  1.4322  0.0610
10982TIP3   OH233827   3.216   9.475   6.269  0.6496 -0.1863  0.2828
10982TIP3    H133828   3.136   9.491   6.319  1.4839 -1.4335  2.1060
10982TIP3    H233829   3.202   9.522   6.187 -2.7290 -1.8454 -0.2818
10983TIP3   OH233830   0.165   0.327   8.717 -0.3619 -0.4280  0.3046
10983TIP3    H133831   0.083   0.354   8.677  0.0168 -1.5103 -1.3187
10983TIP3    H233832   0.224   0.401   8.705 -0.9199  0.1379  0.9766
10984TIP3   OH233833   7.723   2.050   9.670 -0.1292  0.3005  0.5158
10984TIP3    H133834   7.648   2.098   9.633  0.1412  0.3032 -0.0373
10984TIP3    H233835   7.687   1.966   9.696 -0.2367  0.1327 -0.1608
10985TIP3   OH233836   0.893   0.530   2.978  0.5955 -0.4274 -0.1047
10985TIP3    H133837   0.836   0.455   2.961 -0.5430  0.6647 -1.3765
10985TIP3    H233838   0.945   0.539   2.899  1.0728 -0.1688  0.2344
10986TIP3   OH233839   9.832   4.087   6.821  0.1623  0.7848 -0.3305
10986TIP3    H133840   9.905   4.145   6.842  1.9547 -0.6888 -2.0838
10986TIP3    H233841   9.868   3.999   6.829 -1.3837  0.0106 -1.4288
10987TIP3   OH233842   4.580   3.103   4.202  0.4926  0.1078  0.1902
10987TIP3    H133843   4.637   3.083   4.277  1.8378 -2.4230 -1.3622
10987TIP3    H233844   4.493   3.114   4.240  0.9676 -1.9185  2.1086
10988TIP3   OH233845   3.892   7.016   0.791 -0.3221 -0.3308 -0.3656
10988TIP3    H133846   3.810   7.014   0.743 -1.8491  4.0211  1.4817
10988TIP3    H233847   3.868   6.992   0.881  0.8974 -1.0422 -0.2098
10989TIP3   OH233848   4.896   6.208   2.166  0.6279  0.2370  0.1895
10989TIP3    H133849   4.913   6.281   2.225  2.7080  0.1605 -0.2543
10989TIP3    H233850   4.810   6.176   2.192  0.0531  2.2574  0.9863
10990TIP3   OH233851   3.603   2.437   3.062 -0.5435  0.3300  0.0420
10990TIP3    H133852   3.573   2.353   3.098 -1.0876 -0.4080 -2.0105
10990TIP3    H233853   3.550   2.503   3.107  0.3644 -0.3187  2.1976
10991TIP3   OH233854   9.721   9.440   3.876  0.6300 -0.4790 -0.4303
10991TIP3    H133855   9.657   9.380   3.915 -1.3316 -0.1755 -2.9204
10991TIP3    H233856   9.668   9.509   3.835  2.5647  0.2023 -1.9644
10992TIP3   OH233857   5.281   2.410   5.250 -0.2378 -0.0019 -0.4585
10992TIP3    H133858   5.375   2.402   5.232 -0.4351 -0.5478 -1.2701
10992TIP3    H233859   5.261   2.502   5.233 -0.3395 -0.3997 -2.7985
10993TIP3   OH233860   0.061   3.548   0.390 -0.0360 -0.5818  0.0252
10993TIP3    H133861  -0.007   3.497   0.347  0.3754 -0.5064 -0.7428
10993TIP3    H233862   0.016   3.625   0.424 -0.6709 -1.4814  1.2575
10994TIP3   OH233863   9.369   3.733   6.064 -0.0055  0.4169  0.5297
10994TIP3    H133864   9.382   3.812   6.011 -0.9001 -0.6036 -1.3236
10994TIP3    H233865   9.341   3.666   6.001 -0.1660 -1.1499  2.1715
10995TIP3   OH233866   5.850   4.248  10.644  0.1980 -1.0038 -0.0104
10995TIP3    H133867   5.848   4.228  10.737  0.8879 -0.8345  0.0510
10995TIP3    H233868   5.856   4.163  10.601  0.7641 -1.0497  0.1447
10996TIP3   OH233869   6.148  10.558   4.573 -0.0893 -0.5194  0.1669
10996TIP3    H133870   6.135  10.475   4.619 -0.2387 -0.4564  0.2385
10996TIP3    H233871   6.201  10.535   4.496  1.7106 -0.3577  1.2905
10997TIP3   OH233872   3.639   9.912   6.114  0.1212 -0.2740 -0.3389
10997TIP3    H133873   3.711   9.862   6.155 -0.3909 -0.9079 -0.1981
10997TIP3    H233874   3.665  10.003   6.125 -0.9713 -0.2630  3.3607
10998TIP3   OH233875   1.002   5.150   0.839 -0.4131 -0.5481 -0.1784
10998TIP3    H133876   0.982   5.063   0.805  0.4479 -0.9809  0.3960
10998TIP3    H233877   0.958   5.210   0.779 -0.1354 -1.3374 -1.1937
10999TIP3   OH233878   6.593   5.090   0.422 -0.2466 -0.2695  0.2786
10999TIP3    H133879   6.669   5.032   0.432 -0.7219 -0.6965  1.5821
10999TIP3    H233880   6.594   5.144   0.501 -1.0208  0.0510  0.0704
11000TIP3   OH233881   1.193   4.072  10.740  0.5021 -0.1151 -0.6696
11000TIP3    H133882   1.114   4.029  10.773  0.3188  0.9902  0.3711
11000TIP3    H233883   1.247   4.000  10.708 -0.3854 -1.0016 -0.2417
11001TIP3   OH233884   5.324   1.090  10.466 -0.4048 -0.0503  0.1589
11001TIP3    H133885   5.307   1.013  10.412  0.4242  0.5582 -1.0020
11001TIP3    H233886   5.419   1.090  10.478 -0.2451  1.4128 -0.8467
11002TIP3   OH233887   1.605   9.897   6.297 -0.8461  0.1784 -0.0257
11002TIP3    H133888   1.586   9.859   6.211 -0.2483 -0.5604  0.1647
11002TIP3    H233889   1.560   9.982   6.295 -2.9190 -0.8658 -0.1255
11003TIP3   OH233890   3.314   9.159   3.929  0.4288  0.4542  0.1996
11003TIP3    H133891   3.267   9.081   3.959 -0.2272  1.6752  2.6032
11003TIP3    H233892   3.265   9.189   3.853 -0.6776 -0.2040  0.6249
11004TIP3   OH233893   9.659   7.293   2.206 -0.4935 -0.3875  0.2851
11004TIP3    H133894   9.567   7.304   2.231 -0.1191 -1.3437  2.3362
11004TIP3    H233895   9.685   7.379   2.172 -2.6877 -0.6935 -2.4796
11005TIP3   OH233896   5.668   0.304   5.844  0.4144  0.0883  0.3232
11005TIP3    H133897   5.641   0.311   5.935  1.0433 -0.5783  0.5641
11005TIP3    H233898   5.747   0.357   5.838 -0.1083  0.8464 -0.0465
11006TIP3   OH233899   1.372   7.745   2.767 -0.1375  0.2358 -0.2603
11006TIP3    H133900   1.422   7.818   2.805 -0.1953  0.5706 -0.8102
11006TIP3    H233901   1.433   7.705   2.705  0.4183 -1.1351  1.1190
11007TIP3   OH233902   8.193   4.965   0.902 -0.2618 -0.5621  0.4659
11007TIP3    H133903   8.172   4.889   0.848  1.9130  0.3464 -1.9148
11007TIP3    H233904   8.109   5.006   0.920 -1.1298  0.0362 -3.8961
11008TIP3   OH233905  10.412   9.777   1.881 -0.2135  0.5340 -0.1908
11008TIP3    H133906  10.447   9.755   1.967 -0.3331 -1.5088 -0.6209
11008TIP3    H233907  10.463   9.725   1.819 -1.9509 -0.2239 -1.0803
11009TIP3   OH233908   0.284   1.116   5.347 -0.5237 -0.2390 -0.1636
11009TIP3    H133909   0.212   1.054   5.332 -0.8784  0.1909 -0.2542
11009TIP3    H233910   0.250   1.176   5.413 -0.3488  0.1370 -0.4151
11010TIP3   OH233911   1.471   5.595   5.583 -0.9126  0.5861  0.2867
11010TIP3    H133912   1.400   5.614   5.522  1.5950 -1.3898 -3.6575
11010TIP3    H233913   1.535   5.664   5.569 -0.2615  0.0723  0.6449
11011TIP3   OH233914  10.307   3.567   0.619 -0.1260 -0.2796  0.0679
11011TIP3    H133915  10.344   3.638   0.566 -0.2548  0.1541  0.5456
11011TIP3    H233916  10.381   3.510   0.639 -0.4294 -1.7241 -2.4632
11012TIP3   OH233917   3.090   6.461  10.468 -0.3587  0.0811  0.1097
11012TIP3    H133918   3.000   6.445  10.495  0.1853 -1.3434  1.1770
11012TIP3    H233919   3.122   6.527  10.529 -0.6905  0.6577 -0.3285
11013TIP3   OH233920   8.215   5.030   4.473 -0.3910 -0.1244 -0.2079
11013TIP3    H133921   8.275   5.093   4.513  1.2218 -1.3811 -0.5435
11013TIP3    H233922   8.186   5.072   4.392 -2.1910  1.6469  1.2621
11014TIP3   OH233923  10.512   2.173   2.107  0.1019  0.1226  0.3516
11014TIP3    H133924  10.497   2.228   2.030  0.1120  2.3131  1.8012
11014TIP3    H233925  10.426   2.168   2.149 -0.3706 -2.7391 -0.7491
11015TIP3   OH233926   1.623   0.610   6.756 -0.2126 -0.3078  0.5844
11015TIP3    H133927   1.629   0.706   6.762 -0.1560 -0.3322  0.9414
11015TIP3    H233928   1.584   0.594   6.670  2.3117 -0.0554 -0.7007
11016TIP3   OH233929   4.902   8.392   1.771  0.3673  0.2607  0.1310
11016TIP3    H133930   4.926   8.300   1.775 -1.1808 -0.1703  0.0460
11016TIP3    H233931   4.921   8.418   1.681 -1.7075 -0.7473 -0.6639
11017TIP3   OH233932   0.167   5.799   9.611  0.3658  0.2816 -0.1959
11017TIP3    H133933   0.100   5.807   9.543  0.9289  0.4292 -0.7434
11017TIP3    H233934   0.243   5.845   9.575  0.1586  1.8393  1.2391
11018TIP3   OH233935   0.802   5.193   7.805  0.4830  0.7014  1.0316
11018TIP3    H133936   0.897   5.193   7.810  0.7325  0.8839 -1.9823
11018TIP3    H233937   0.779   5.101   7.791  0.3592  0.8420  0.2708
11019TIP3   OH233938  10.551   0.446   6.291  0.6292 -0.1654 -0.3433
11019TIP3    H133939  10.566   0.520   6.350 -1.7434 -0.2913  0.5510
11019TIP3    H233940  10.486   0.393   6.337 -0.9734 -0.5367 -2.8533
11020TIP3   OH233941   9.903  10.386   1.897 -0.1236  0.5099  0.1015
11020TIP3    H133942   9.888  10.420   1.808  1.2126  1.2624  0.1458
11020TIP3    H233943   9.991  10.350   1.895 -0.8434 -1.3976  0.5771
11021TIP3   OH233944   6.645   2.422   3.517 -0.6385 -0.8050  0.2482
11021TIP3    H133945   6.656   2.356   3.448  0.0754 -1.0799  0.6098
11021TIP3    H233946   6.604   2.497   3.473  0.1426 -0.8420 -0.5673
11022TIP3   OH233947   7.106   8.270   4.443 -0.4261 -0.4554 -0.6124
11022TIP3    H133948   7.141   8.350   4.405  0.9435 -0.6205  0.2172
11022TIP3    H233949   7.170   8.202   4.420 -1.0429 -1.1086 -0.4480
11023TIP3   OH233950   0.010   9.217   0.640 -0.3172  0.4452  0.1225
11023TIP3    H133951   0.091   9.184   0.600 -1.2405  0.8335 -2.2347
11023TIP3    H233952   0.038   9.294   0.690  0.9789 -0.3662  0.6971
11024TIP3   OH233953   5.091   6.136  10.219 -0.3876  0.4861 -0.1760
11024TIP3    H133954   5.101   6.178  10.133 -1.1702  0.4245 -0.3085
11024TIP3    H233955   5.002   6.158  10.246 -0.5256 -0.3960  0.1294
11025TIP3   OH233956   6.458   5.766   2.736 -0.2284  0.0657  0.3807
11025TIP3    H133957   6.414   5.687   2.704  0.3479 -0.3492  0.6135
11025TIP3    H233958   6.507   5.799   2.660  1.2324 -0.9828  0.8282
11026TIP3   OH233959   7.738   0.208   1.784 -0.0236  0.3235  0.3669
11026TIP3    H133960   7.772   0.202   1.695  0.5993  0.4984  0.5888
11026TIP3    H233961   7.737   0.118   1.816  0.3236  0.3295  0.3943
11027TIP3   OH233962   4.634   0.651   2.585  0.3597  0.5437 -0.2113
11027TIP3    H133963   4.602   0.579   2.639  0.7253  0.6359  0.1349
11027TIP3    H233964   4.662   0.609   2.503  1.8567  0.0739  0.4927
11028TIP3   OH233965   0.327   9.888   5.589 -0.1585  0.3631 -0.0564
11028TIP3    H133966   0.304   9.797   5.571 -0.0487  0.5428 -1.1474
11028TIP3    H233967   0.278   9.910   5.668 -0.1845 -0.6391  0.2225
11029TIP3   OH233968   8.136   2.622   3.965  0.5205  0.2643 -0.0626
11029TIP3    H133969   8.184   2.539   3.955  0.6508  0.0360  1.9987
11029TIP3    H233970   8.044   2.597   3.960  0.5381 -0.1568  1.2345
11030TIP3   OH233971   7.329   1.239  10.735 -0.3038 -0.1333  0.0083
11030TIP3    H133972   7.291   1.154  10.713  2.2487 -1.6738  1.1299
11030TIP3    H233973   7.384   1.260  10.659 -0.4940  0.2369 -0.0267
11031TIP3   OH233974   3.609   0.749   7.020 -0.7213  0.2825 -0.3619
11031TIP3    H133975   3.519   0.768   7.049 -0.2111  0.8865  0.9185
11031TIP3    H233976   3.644   0.691   7.088  0.1471  0.7840 -0.3719
11032TIP3   OH233977   1.115   1.675   9.445  0.5742  0.6700 -0.1884
11032TIP3    H133978   1.065   1.608   9.492 -0.6211  1.0748 -0.8273
11032TIP3    H233979   1.119   1.749   9.505  1.7418  0.1139  0.4504
11033TIP3   OH233980   1.741   3.410   8.461 -0.2268 -0.1687 -0.1274
11033TIP3    H133981   1.763   3.483   8.520  0.5611  0.5366 -1.2539
11033TIP3    H233982   1.803   3.419   8.389 -1.8095 -0.3963 -1.5595
11034TIP3   OH233983   0.819   1.433   5.279  0.6450  0.2846 -0.4408
11034TIP3    H133984   0.818   1.422   5.374 -0.2252  0.8258 -0.3782
11034TIP3    H233985   0.893   1.380   5.250  0.0788 -1.0318  0.4027
11035TIP3   OH233986   9.761   1.294  10.517 -0.0623  0.0585 -0.2278
11035TIP3    H133987   9.828   1.362  10.504 -0.6874  1.2364  2.1284
11035TIP3    H233988   9.702   1.305  10.443  1.3717  0.1619 -1.4061
11036TIP3   OH233989   7.945   9.133   6.156  0.4899 -0.7325  0.0455
11036TIP3    H133990   7.851   9.145   6.173  0.3694 -0.8292 -0.5383
11036TIP3    H233991   7.981   9.222   6.158  0.1451 -0.5464 -1.0889
11037TIP3   OH233992   3.009   2.219   2.481  0.0149  0.0118  0.0250
11037TIP3    H133993   2.922   2.188   2.507 -0.8320 -0.4063 -2.8925
11037TIP3    H233994   3.016   2.306   2.520 -0.7118 -0.8347  2.1900
11038TIP3   OH233995   1.501   6.556   9.493  0.1041  0.3895 -0.5793
11038TIP3    H133996   1.427   6.532   9.437  0.4686  0.2585 -1.0131
11038TIP3    H233997   1.461   6.602   9.566 -0.7591 -2.3389  0.8307
11039TIP3   OH233998   9.478   3.598   4.327 -0.5068 -0.1580  0.4252
11039TIP3    H133999   9.397   3.554   4.301 -0.0223 -0.3433 -0.8624
11039TIP3    H234000   9.547   3.539   4.296  0.1179  0.1433  1.2358
11040TIP3   OH234001   4.015   2.044   3.311  0.5224 -0.3016 -0.0724
11040TIP3    H134002   3.986   1.966   3.358 -1.2753  0.4489  0.1260
11040TIP3    H234003   3.943   2.064   3.251 -0.0929  2.4472  1.4114
11041TIP3   OH234004   6.115   4.800   1.916  0.0849  0.2562  0.6487
11041TIP3    H134005   6.050   4.848   1.968 -0.7169  0.0045 -0.0872
11041TIP3    H234006   6.199   4.835   1.944 -0.4671  1.9513  0.2972
11042TIP3   OH234007   5.280   7.078   0.842 -0.2116  0.1750 -0.1253
11042TIP3    H134008   5.315   7.095   0.754  1.6445  0.7743  0.6790
11042TIP3    H234009   5.296   7.159   0.890 -1.8540  0.0995  0.5967
11043TIP3   OH234010   3.492   4.056   8.289 -0.1072 -0.2291 -0.4212
11043TIP3    H134011   3.574   4.068   8.242 -0.3314 -1.1191 -1.0692
11043TIP3    H234012   3.516   4.065   8.382  0.0198  3.3238 -0.6784
11044TIP3   OH234013   8.196   0.609   8.727 -0.3311 -0.5061  0.1122
11044TIP3    H134014   8.252   0.533   8.742 -1.0712 -0.9351  0.7586
11044TIP3    H234015   8.250   0.668   8.674  0.9082 -0.6927  1.1155
11045TIP3   OH234016   1.154   4.771   2.998 -0.1142 -0.2863 -0.2932
11045TIP3    H134017   1.127   4.778   3.089  0.2290  0.2803 -0.2314
11045TIP3    H234018   1.128   4.854   2.958  2.5769  0.8138  0.0628
11046TIP3   OH234019   8.214   6.053   8.451  0.0075  0.0162  0.3430
11046TIP3    H134020   8.243   5.992   8.519 -0.9486 -0.0157  0.7352
11046TIP3    H234021   8.153   6.003   8.397  1.6735 -0.3479 -1.3341
11047TIP3   OH234022   5.452   2.420   0.518  0.0179 -0.4456  0.2589
11047TIP3    H134023   5.370   2.418   0.567  0.3545  1.9757  1.0553
11047TIP3    H234024   5.441   2.491   0.455  1.2485 -0.5520 -0.1111
11048TIP3   OH234025  10.003   6.191   5.858  0.6625 -0.4162  0.3385
11048TIP3    H134026  10.009   6.240   5.940  0.0093 -0.7037  0.5623
11048TIP3    H234027   9.913   6.206   5.828 -0.7321 -4.0677  2.0685
11049TIP3   OH234028  10.160   8.270   9.551  0.7348 -0.0611 -0.8190
11049TIP3    H134029  10.231   8.235   9.497  1.0780 -2.0857  0.8194
11049TIP3    H234030  10.203   8.334   9.608  0.8171  0.3142 -1.2963
11050TIP3   OH234031   0.937   6.296   3.565  0.5561  0.3946  0.4665
11050TIP3    H134032   0.878   6.358   3.608  1.4119  2.3823 -1.0818
11050TIP3    H234033   1.012   6.349   3.537  2.1317 -1.6622  0.5236
11051TIP3   OH234034   8.023   5.212   0.733 -0.3148 -0.5513 -0.2677
11051TIP3    H134035   8.040   5.294   0.781  0.1904 -0.0345 -1.2915
11051TIP3    H234036   8.095   5.206   0.670  0.4394 -2.5344  0.7329
11052TIP3   OH234037   7.290   9.881   3.064 -0.1923  0.4499 -0.1653
11052TIP3    H134038   7.359   9.837   3.015 -0.4065 -0.4087  0.2935
11052TIP3    H234039   7.320   9.972   3.070  0.3129  0.3487 -1.0020
11053TIP3   OH234040   3.075   3.994   6.344 -0.2753  0.4688  0.0061
11053TIP3    H134041   3.056   3.961   6.432  0.1737  0.9941  0.3080
11053TIP3    H234042   3.165   3.965   6.326 -1.2920 -2.1077 -1.4653
11054TIP3   OH234043   3.658   5.028   6.769  0.4978 -0.1278  0.5169
11054TIP3    H134044   3.625   5.104   6.818  2.5831 -0.3859  2.4920
11054TIP3    H234045   3.734   5.061   6.722 -0.8639 -0.1469 -1.8445
11055TIP3   OH234046   9.737   0.245   1.752  0.4370 -0.1492  0.5676
11055TIP3    H134047   9.830   0.258   1.735  1.7579 -2.3197  4.7477
11055TIP3    H234048   9.721   0.155   1.725 -0.7007  0.4329 -0.7816
11056TIP3   OH234049   8.631   9.677   4.472 -0.4869  0.1397 -0.4066
11056TIP3    H134050   8.590   9.729   4.541 -0.1749  0.5666 -0.5387
11056TIP3    H234051   8.559   9.630   4.431 -0.4579 -1.7071  1.5305
11057TIP3   OH234052   4.638   2.154  10.678  0.5529  0.4753 -0.4331
11057TIP3    H134053   4.637   2.217  10.750  1.8309 -1.5227  1.5008
11057TIP3    H234054   4.731   2.145  10.656  0.2280  0.5527 -1.8933
11058TIP3   OH234055   2.714   7.578   9.480 -0.5089 -0.0706  0.2208
11058TIP3    H134056   2.647   7.629   9.434 -1.1983 -1.9193 -0.9249
11058TIP3    H234057   2.752   7.522   9.412  1.6804  0.3638  0.9993
11059TIP3   OH234058   0.871   3.643   7.088 -0.0116 -0.0455 -0.1835
11059TIP3    H134059   0.790   3.669   7.132  0.1604  0.6052 -0.2357
11059TIP3    H234060   0.880   3.704   7.015 -1.3415 -2.3204 -2.4042
11060TIP3   OH234061   9.083   1.357   5.322 -0.7165 -0.2743  0.2737
11060TIP3    H134062   9.013   1.422   5.313  0.5317  1.2521  1.0348
11060TIP3    H234063   9.156   1.393   5.271 -0.1556 -1.3463  0.2846
11061TIP3   OH234064   1.978   2.813  10.253 -0.2486  0.2018 -0.1147
11061TIP3    H134065   2.013   2.829  10.165  0.9073 -0.1601  0.2678
11061TIP3    H234066   1.983   2.718  10.264  1.8181  0.4061  1.2009
11062TIP3   OH234067   3.247   1.268   2.267 -0.0252  0.1638  0.5913
11062TIP3    H134068   3.286   1.218   2.195 -0.9005  0.0084  0.2112
11062TIP3    H234069   3.322   1.310   2.310  0.4746  0.6126 -0.6699
11063TIP3   OH234070   2.964   1.177   6.626 -0.1010  0.0729 -0.3415
11063TIP3    H134071   2.983   1.197   6.718 -2.6814 -0.3629  0.3519
11063TIP3    H234072   2.944   1.084   6.625 -0.2957  0.1173 -1.3203
11064TIP3   OH234073  10.771   1.545   8.115  0.6137 -0.1609  0.2141
11064TIP3    H134074  10.826   1.621   8.096  1.9908 -1.3856 -1.0138
11064TIP3    H234075  10.806   1.477   8.058 -0.8737 -1.5869  0.9519
11065TIP3   OH234076   9.054   0.274   6.041 -0.0473  0.5942  0.0374
11065TIP3    H134077   9.134   0.236   6.077  0.2087  0.9802 -0.1193
11065TIP3    H234078   9.004   0.302   6.117 -0.5429 -0.6413  0.1937
11066TIP3   OH234079   7.224   8.226   3.968 -0.2178  0.1283  0.0763
11066TIP3    H134080   7.229   8.304   3.913  0.4510  2.0508  2.6906
11066TIP3    H234081   7.247   8.257   4.056 -0.1229 -2.9885  1.2664
11067TIP3   OH234082   9.588  10.161   8.312  0.0120 -0.6349 -0.4776
11067TIP3    H134083   9.502  10.167   8.353  0.4177 -1.3880  0.5327
11067TIP3    H234084   9.574  10.186   8.221 -1.0285  0.5605 -0.0239
11068TIP3   OH234085   0.039   0.460   6.156 -0.0809  0.4503  0.1306
11068TIP3    H134086  -0.029   0.393   6.152 -0.3398  0.7381 -0.3699
11068TIP3    H234087   0.048   0.480   6.250 -0.8907  0.6251  0.1733
11069TIP3   OH234088   5.568   6.223   9.424 -0.1311  0.3372  0.0744
11069TIP3    H134089   5.509   6.298   9.435  1.0996  1.6825 -1.8932
11069TIP3    H234090   5.583   6.192   9.513 -3.2127  0.3480  0.7200
11070TIP3   OH234091   7.580   9.506   6.152  0.0162  0.3559 -0.0029
11070TIP3    H134092   7.522   9.577   6.125 -1.4715  0.4442  3.0445
11070TIP3    H234093   7.533   9.426   6.127 -0.2565  0.4348  0.2570
11071TIP3   OH234094   1.118   3.152   8.823 -0.0508  0.0469 -0.1208
11071TIP3    H134095   1.202   3.130   8.782 -0.3276  1.0093 -1.2734
11071TIP3    H234096   1.072   3.068   8.828  0.4128 -0.2677 -0.8624
11072TIP3   OH234097   0.272   8.483   5.679  0.3953 -0.3385 -0.0573
11072TIP3    H134098   0.207   8.548   5.704 -2.5923 -2.5625 -1.3350
11072TIP3    H234099   0.277   8.424   5.755  0.2624 -0.6017 -0.2486
11073TIP3   OH234100   9.801   1.434   0.288 -0.1130 -0.2846 -0.4585
11073TIP3    H134101   9.812   1.489   0.211  0.8316 -2.0439 -1.6249
11073TIP3    H234102   9.706   1.424   0.297 -0.2435  0.2600 -1.1334
11074TIP3   OH234103   5.910  10.039   3.691 -0.6706 -0.1791 -0.0056
11074TIP3    H134104   5.920   9.981   3.616 -2.4287 -2.5120  1.4374
11074TIP3    H234105   5.986  10.021   3.746 -0.4814 -0.0636 -0.2306
11075TIP3   OH234106   0.300   3.273   3.804  0.0848 -0.3423 -0.2005
11075TIP3    H134107   0.234   3.214   3.841  0.0241  0.2266  0.6178
11075TIP3    H234108   0.353   3.300   3.878 -1.0702  2.1366 -0.1838
11076TIP3   OH234109   8.627   9.590   1.548  0.1680 -0.7569  0.2794
11076TIP3    H134110   8.676   9.619   1.470 -0.7147 -0.8155 -0.3093
11076TIP3    H234111   8.541   9.630   1.538  0.2791 -0.1280  1.6384
11077TIP3   OH234112   8.748   3.513   0.744 -0.3884  0.1713  0.1308
11077TIP3    H134113   8.805   3.590   0.740 -0.2847  0.1368  0.7417
11077TIP3    H234114   8.666   3.546   0.783 -0.4594  0.0414  0.0913
11078TIP3   OH234115   0.989   9.085   7.692 -0.5958  0.2006 -0.1615
11078TIP3    H134116   1.065   9.041   7.654  0.1896  1.7884 -0.5273
11078TIP3    H234117   0.984   9.051   7.781  2.0196  1.7285  0.6827
11079TIP3   OH234118   0.160   8.003   4.366 -0.6897 -0.3206 -0.0291
11079TIP3    H134119   0.220   7.986   4.438  0.1874  3.4013  0.2824
11079TIP3    H234120   0.075   8.015   4.407 -0.0678  2.5149  0.6384
11080TIP3   OH234121   1.283   2.383   9.027 -0.0923  0.6650 -0.1355
11080TIP3    H134122   1.331   2.423   9.099 -0.3466 -0.6784  0.8143
11080TIP3    H234123   1.350   2.356   8.964  0.2902  0.2256  0.4526
11081TIP3   OH234124   4.224  10.357  10.810  0.0037 -0.3346 -0.0671
11081TIP3    H134125   4.169  10.280  10.792 -0.0517 -0.3273  0.0730
11081TIP3    H234126   4.261  10.340  10.897  0.2412 -0.3502 -0.1703
11082TIP3   OH234127   9.635   3.769   0.107 -0.5897 -0.4776 -0.7322
11082TIP3    H134128   9.602   3.822   0.179 -0.6285  0.3726 -1.3693
11082TIP3    H234129   9.565   3.769   0.043  0.4163  0.9371 -1.8867
11083TIP3   OH234130   6.189   8.176   1.275  0.5478  0.0957 -0.0974
11083TIP3    H134131   6.131   8.189   1.350  1.5349  0.2516  0.6615
11083TIP3    H234132   6.199   8.264   1.238  0.4917  0.1097 -0.0806
11084TIP3   OH234133   0.477   9.444   8.701 -0.3719  0.1971 -0.3077
11084TIP3    H134134   0.553   9.399   8.736  0.3002  2.0390  0.7323
11084TIP3    H234135   0.504   9.474   8.614 -1.3478 -2.5916 -1.7000
11085TIP3   OH234136   0.079   2.328   4.979 -0.2222 -0.3871  0.0956
11085TIP3    H134137   0.057   2.418   5.002  2.2994  0.6524 -1.2051
11085TIP3    H234138   0.050   2.276   5.054  0.7858  1.8613  2.1786
11086TIP3   OH234139   0.000   1.948  10.322  0.1704 -0.3010  0.2064
11086TIP3    H134140  -0.011   1.853  10.319 -1.8027 -0.0841 -0.5300
11086TIP3    H234141   0.065   1.962  10.391 -2.0368 -2.0144  2.8618
11087TIP3   OH234142   1.322   8.363  10.807  0.2150  0.1404 -0.0531
11087TIP3    H134143   1.303   8.374  10.714 -1.2480 -0.9276  0.0872
11087TIP3    H234144   1.244   8.322  10.843  1.4377 -1.1294  1.3087
11088TIP3   OH234145   4.235   6.074   8.919 -0.5142 -0.0811 -0.3744
11088TIP3    H134146   4.264   5.994   8.874  0.9734 -1.5436  2.8633
11088TIP3    H234147   4.146   6.054   8.947  0.0038 -0.8532  0.8037
11089TIP3   OH234148   2.161   3.454   1.327  0.4937  0.0381 -0.5362
11089TIP3    H134149   2.234   3.413   1.373 -0.2739 -0.1856  0.5124
11089TIP3    H234150   2.107   3.380   1.298  0.6289  0.2048 -1.2516
11090TIP3   OH234151   1.205   7.915   5.895 -0.1316  0.3075  0.2110
11090TIP3    H134152   1.224   8.006   5.918 -1.3472  0.9544 -1.2031
11090TIP3    H234153   1.121   7.918   5.851 -1.0775 -1.7736  1.6843
11091TIP3   OH234154   8.806   1.187   2.675 -0.6222 -0.0991 -0.0203
11091TIP3    H134155   8.722   1.219   2.708 -1.5377 -2.4690  0.1259
11091TIP3    H234156   8.790   1.167   2.583 -0.4382 -1.1659  0.1657
11092TIP3   OH234157   7.580   8.486   5.984 -0.1019 -0.3905 -0.1044
11092TIP3    H134158   7.674   8.481   6.001  0.5040  1.6967 -2.2964
11092TIP3    H234159   7.542   8.509   6.069  1.0625 -2.9906  1.2400
11093TIP3   OH234160   0.078   4.915   1.705 -0.7679  0.2814 -0.1684
11093TIP3    H134161   0.126   4.854   1.649 -0.4111  0.4487 -0.0461
11093TIP3    H234162   0.124   4.913   1.789 -0.7956  0.6605 -0.1403
11094TIP3   OH234163   1.364   8.033   6.787 -0.5491  0.5958 -0.5300
11094TIP3    H134164   1.360   8.026   6.691  0.0299 -0.0909 -0.5120
11094TIP3    H234165   1.451   8.069   6.805 -0.1102 -0.5872 -0.2099
11095TIP3   OH234166   2.901   2.068   0.483  0.1404  0.3366 -0.1740
11095TIP3    H134167   2.908   1.974   0.471  0.7017  0.2349  0.8330
11095TIP3    H234168   2.824   2.080   0.538  0.9667  0.3172  1.0379
11096TIP3   OH234169   3.002   2.862   0.910  0.1180  0.8703 -0.6002
11096TIP3    H134170   3.022   2.769   0.900 -1.1930  0.5812 -0.7964
11096TIP3    H234171   3.085   2.902   0.936  0.2932 -0.6689  1.5085
11097TIP3   OH234172   1.150   4.657   0.846 -0.5283  0.5778  0.2190
11097TIP3    H134173   1.205   4.580   0.832 -1.0788  0.5295 -2.0865
11097TIP3    H234174   1.189   4.725   0.790 -1.6966  1.0905 -0.0028
11098TIP3   OH234175   2.292   1.617   2.876 -0.6250 -0.4717 -0.1226
11098TIP3    H134176   2.258   1.541   2.829 -1.3776 -1.2200  1.5458
11098TIP3    H234177   2.222   1.639   2.938 -0.0116  0.9819  0.0819
11099TIP3   OH234178   0.323   7.712   0.852  0.1265  0.4910  0.1562
11099TIP3    H134179   0.390   7.715   0.784  0.6516  1.0191  0.6868
11099TIP3    H234180   0.240   7.726   0.805  0.5214  1.3167 -0.3098
11100TIP3   OH234181   0.983   0.719   5.040 -0.0230  0.2396 -0.5021
11100TIP3    H134182   1.046   0.774   4.994 -1.9267  3.5642  0.4840
11100TIP3    H234183   1.025   0.700   5.124  1.2218 -1.1311 -1.3858
11101TIP3   OH234184   3.643   4.555   0.774 -0.1466  0.7328 -0.0219
11101TIP3    H134185   3.721   4.527   0.821 -0.6776  1.1931  1.1834
11101TIP3    H234186   3.655   4.523   0.685  0.6922 -0.5546  0.5389
11102TIP3   OH234187   5.474   9.289   3.548 -0.5957  0.1350 -0.4108
11102TIP3    H134188   5.401   9.350   3.563 -0.1294  0.6473 -0.2080
11102TIP3    H234189   5.509   9.272   3.635 -0.6392 -0.3273 -0.4824
11103TIP3   OH234190   1.084   0.635   1.308  0.1391  0.1420 -0.2987
11103TIP3    H134191   1.167   0.676   1.282 -1.0879  2.7287 -0.4177
11103TIP3    H234192   1.086   0.639   1.404  0.0272  0.5178 -0.3089
11104TIP3   OH234193   7.035   3.360  10.753 -0.0611  0.0082 -0.5238
11104TIP3    H134194   7.053   3.420  10.825 -0.3918 -0.5864  0.0691
11104TIP3    H234195   7.115   3.361  10.701 -0.2719  1.3835 -0.8387
11105TIP3   OH234196   7.635   8.633   5.555 -0.2639  0.5558  0.3309
11105TIP3    H134197   7.695   8.698   5.520  0.6460  0.3289  1.4078
11105TIP3    H234198   7.597   8.675   5.632  0.8670 -0.4001  1.4537
11106TIP3   OH234199  10.773   1.307   8.259 -0.2368 -0.3587  0.2954
11106TIP3    H134200  10.684   1.284   8.285 -0.0612 -0.1612  1.0950
11106TIP3    H234201  10.766   1.396   8.224 -0.4002 -0.4487  0.1012
11107TIP3   OH234202   4.497  10.786   3.209 -0.1854  0.3944  0.3346
11107TIP3    H134203   4.498  10.691   3.215 -0.6545  0.4535  2.0850
11107TIP3    H234204   4.479  10.805   3.117 -1.0561 -1.2186  0.1429
11108TIP3   OH234205   6.973   5.799   8.552  0.4002  0.3587  0.3009
11108TIP3    H134206   6.976   5.782   8.647 -1.6510 -0.9924  0.1723
11108TIP3    H234207   6.881   5.819   8.534  0.9128  1.4391 -1.3039
11109TIP3   OH234208   1.817   2.967   1.488 -0.3067 -0.1057  0.1000
11109TIP3    H134209   1.799   2.930   1.401  0.8866  0.3447 -0.3685
11109TIP3    H234210   1.807   3.061   1.476 -2.2725 -0.1571  1.0188
11110TIP3   OH234211  10.571   8.781   4.512 -0.3362  0.1575  0.2285
11110TIP3    H134212  10.534   8.703   4.470 -1.1273  0.7784 -0.2404
11110TIP3    H234213  10.609   8.747   4.593 -1.1229 -0.6533  0.2825
11111TIP3   OH234214   3.237   7.060   4.011 -0.2729 -0.1991 -0.6228
11111TIP3    H134215   3.192   7.123   3.955 -2.0444  0.2314  1.1669
11111TIP3    H234216   3.176   6.986   4.017 -0.4006  0.0074  1.1332
11112TIP3   OH234217  10.861   0.949   8.784 -0.1154  0.1094 -0.2883
11112TIP3    H134218  10.908   1.030   8.764 -0.9033  0.2374 -1.7638
11112TIP3    H234219  10.788   0.948   8.723 -1.9375 -0.1935  1.7598
11113TIP3   OH234220   5.547   2.722   7.528  0.1654  0.4257  0.5411
11113TIP3    H134221   5.599   2.664   7.583 -0.5141 -0.9001 -0.1810
11113TIP3    H234222   5.460   2.720   7.566  0.0395  0.6621  0.2717
11114TIP3   OH234223   5.394   1.633   8.097 -0.3319  0.6096  0.3560
11114TIP3    H134224   5.327   1.616   8.031 -1.2572  1.0565  1.1485
11114TIP3    H234225   5.438   1.712   8.067 -0.2824  0.4222 -0.0754
11115TIP3   OH234226   7.143   0.341   9.901  0.4372  0.4587 -0.0319
11115TIP3    H134227   7.091   0.305   9.972 -1.1877  1.3922 -0.6946
11115TIP3    H234228   7.227   0.364   9.942 -0.3065  0.5944  1.4909
11116TIP3   OH234229   4.288   7.485   9.026 -0.1904 -0.1788  0.2118
11116TIP3    H134230   4.281   7.437   9.109 -0.0713 -0.1218  0.2547
11116TIP3    H234231   4.361   7.443   8.980 -1.9403 -2.0230 -1.0609
11117TIP3   OH234232   2.400   4.389   9.311 -0.3118  1.2577  0.4274
11117TIP3    H134233   2.337   4.384   9.383  0.1194  0.0093  0.7463
11117TIP3    H234234   2.463   4.455   9.340  0.0397  0.5351  1.3696
11118TIP3   OH234235   6.572   5.344   1.775  0.2002 -0.6320 -0.1935
11118TIP3    H134236   6.510   5.275   1.798 -0.0447 -1.0604 -2.0247
11118TIP3    H234237   6.555   5.414   1.838 -2.3316 -0.6398 -0.7865
11119TIP3   OH234238   6.121   8.759   1.460  0.6336 -0.0098  0.0989
11119TIP3    H134239   6.213   8.784   1.467  1.4206 -2.5400 -0.1341
11119TIP3    H234240   6.094   8.742   1.550 -0.0404  1.8788  0.3112
11120TIP3   OH234241   9.552   6.129   7.564 -0.4138  0.3404  0.1028
11120TIP3    H134242   9.645   6.147   7.551 -0.4221  1.4830  1.3252
11120TIP3    H234243   9.513   6.135   7.477  0.2485  2.6088 -0.0987
11121TIP3   OH234244   1.549   0.461   2.266 -0.5509  0.0582  0.0044
11121TIP3    H134245   1.598   0.456   2.183  0.8440  2.2164  0.6108
11121TIP3    H234246   1.616   0.484   2.331 -1.8985  0.0677  1.4294
11122TIP3   OH234247   5.238   0.090   9.154  0.5394 -0.5989 -0.2521
11122TIP3    H134248   5.292   0.037   9.212  0.0811 -1.2346 -0.3911
11122TIP3    H234249   5.299   0.123   9.088  1.3218  1.1978  1.2775
11123TIP3   OH234250   3.173  10.575   5.953 -0.1339  0.6411 -0.1216
11123TIP3    H134251   3.186  10.656   5.903 -0.4684 -0.5204 -2.2291
11123TIP3    H234252   3.207  10.506   5.896 -1.2549 -0.8569  0.9273
11124TIP3   OH234253   6.737   6.745   8.497  0.6849  0.1119  0.1178
11124TIP3    H134254   6.829   6.731   8.473  0.2703 -1.3164 -0.7465
11124TIP3    H234255   6.695   6.775   8.417  0.2579  0.0899  0.3291
11125TIP3   OH234256   4.003   4.777   6.970  0.6710 -0.2635 -0.6779
11125TIP3    H134257   4.020   4.686   6.994  0.5343 -0.3202 -0.7926
11125TIP3    H234258   3.908   4.781   6.957  0.5021  0.1621  0.4690
11126TIP3   OH234259   8.314   3.006   3.746 -0.0560 -0.3087  0.5900
11126TIP3    H134260   8.391   2.983   3.694  0.1445 -1.1826  1.2594
11126TIP3    H234261   8.263   3.063   3.688 -0.2036 -1.8320 -0.8363
11127TIP3   OH234262   4.467   5.159   6.271  0.2069  0.2272 -0.3345
11127TIP3    H134263   4.446   5.142   6.363 -0.4705 -0.8257 -0.6675
11127TIP3    H234264   4.460   5.254   6.262  3.3105  0.7781  1.4151
11128TIP3   OH234265   5.874   6.482   2.354  0.0482 -0.2395 -0.4844
11128TIP3    H134266   5.815   6.540   2.307  0.3280 -0.1873 -0.7740
11128TIP3    H234267   5.877   6.402   2.301 -1.5253 -1.1343  0.6742
11129TIP3   OH234268   0.127   4.697   7.145 -0.0200  0.0296  0.0223
11129TIP3    H134269   0.102   4.607   7.165 -0.7749  0.5878  1.7287
11129TIP3    H234270   0.044   4.745   7.140  0.3785  0.6588 -0.7597
11130TIP3   OH234271   7.916   8.989   1.183  0.1362 -0.3138 -0.0496
11130TIP3    H134272   7.912   9.039   1.264  1.6270  1.1880 -0.8367
11130TIP3    H234273   8.008   8.994   1.156 -0.5191  0.3334 -2.4442
11131TIP3   OH234274   6.273   6.838   3.973  0.8635 -0.2899 -0.4935
11131TIP3    H134275   6.316   6.922   3.981 -0.2431  0.1846  1.0183
11131TIP3    H234276   6.222   6.844   3.892 -0.7298  1.2805  0.5561
11132TIP3   OH234277   7.664   1.359   0.664  0.3478  0.2045 -0.1305
11132TIP3    H134278   7.657   1.300   0.589  0.6374  0.9799 -0.7706
11132TIP3    H234279   7.589   1.418   0.655  1.2163  1.2438 -0.6404
11133TIP3   OH234280   2.152  10.847   7.101  0.0166 -0.0595  0.3460
11133TIP3    H134281   2.117  10.783   7.038  0.2393 -0.0251  0.1873
11133TIP3    H234282   2.118  10.931   7.069 -0.9951 -0.1815  1.0421
11134TIP3   OH234283   1.411   0.113  10.731 -0.3833 -0.4852  0.2573
11134TIP3    H134284   1.468   0.066  10.671  2.1057  1.0020  1.2888
11134TIP3    H234285   1.388   0.193  10.685 -0.3882 -0.4058  0.3955
11135TIP3   OH234286   9.503   9.637   1.754 -0.2995 -0.6714 -0.3203
11135TIP3    H134287   9.536   9.584   1.826 -1.9236  1.1004  1.8781
11135TIP3    H234288   9.579   9.651   1.697  1.1958 -1.6945  1.3300
11136TIP3   OH234289   7.687   3.004   6.834 -0.1027 -0.8002 -0.1460
11136TIP3    H134290   7.778   2.981   6.814  1.2464  2.0772  1.9513
11136TIP3    H234291   7.673   2.970   6.923 -0.2270  0.7739  0.4606
11137TIP3   OH234292  10.350   9.386  10.334 -0.4846  0.3282 -0.8361
11137TIP3    H134293  10.353   9.400  10.240  0.4347  1.5410 -0.6419
11137TIP3    H234294  10.377   9.295  10.346 -0.8742  0.0859 -1.7479
11138TIP3   OH234295   8.619   5.409   0.092 -0.4835 -0.1919 -0.0823
11138TIP3    H134296   8.681   5.469   0.132 -0.3196  0.1177 -0.7890
11138TIP3    H234297   8.609   5.338   0.156  0.9325 -0.4718 -0.1488
11139TIP3   OH234298   0.940   2.942   9.812 -0.1561 -0.3217 -0.2453
11139TIP3    H134299   0.875   2.872   9.802  0.2209 -0.7826  0.4431
11139TIP3    H234300   0.982   2.924   9.896  0.0939  0.6176 -0.1557
11140TIP3   OH234301   9.477   3.052   4.765  0.1628 -0.2532  0.9220
11140TIP3    H134302   9.457   3.145   4.775 -0.6417 -0.3510  0.3455
11140TIP3    H234303   9.534   3.049   4.688 -1.0326 -0.3620  0.0096
11141TIP3   OH234304   1.398   4.956   4.553  0.3948  0.6768 -0.2773
11141TIP3    H134305   1.374   5.039   4.512 -1.0148  0.6948  0.5016
11141TIP3    H234306   1.364   4.889   4.493 -0.8421  0.6991  0.3665
11142TIP3   OH234307   9.391   8.437   8.416  0.1657 -0.4968  0.5091
11142TIP3    H134308   9.395   8.523   8.458 -0.6992  0.1241 -0.5885
11142TIP3    H234309   9.475   8.428   8.372 -0.9177  1.4551 -2.3102
11143TIP3   OH234310   8.853   5.497   5.811 -0.2331  0.1198  0.6833
11143TIP3    H134311   8.773   5.477   5.860 -0.2210  1.7511  1.4198
11143TIP3    H234312   8.904   5.552   5.870  2.9550 -3.3270  1.5557
11144TIP3   OH234313   8.446   1.793   5.660 -0.1551 -0.1322 -0.4495
11144TIP3    H134314   8.494   1.806   5.742  0.4512 -0.6606 -0.7218
11144TIP3    H234315   8.366   1.748   5.687  1.5093 -3.3733 -0.4807
11145TIP3   OH234316   7.164   0.343   2.858 -0.7932 -0.0823 -0.8340
11145TIP3    H134317   7.078   0.339   2.899 -0.3269 -0.7325  0.1136
11145TIP3    H234318   7.226   0.338   2.930  0.0596 -1.4607 -1.5971
11146TIP3   OH234319   8.354   4.925   0.430  0.2022 -0.3340 -0.5291
11146TIP3    H134320   8.354   4.907   0.524 -1.5429 -3.4909 -0.9651
11146TIP3    H234321   8.307   5.007   0.421  0.3409 -0.0064  1.3461
11147TIP3   OH234322   2.425   8.533   5.433  0.5047 -0.4943 -0.1501
11147TIP3    H134323   2.331   8.541   5.416  0.6375 -1.8138 -1.8267
11147TIP3    H234324   2.445   8.603   5.495 -1.5527 -0.1132  0.1473
11148TIP3   OH234325   2.337   6.894  10.008  0.4194  0.6845 -0.3361
11148TIP3    H134326   2.243   6.885  10.025  0.5967 -0.8584  0.0474
11148TIP3    H234327   2.362   6.976  10.051 -0.7356  1.0869 -0.4010
11149TIP3   OH234328   9.624   8.359   9.601  0.3356 -0.0748  0.0994
11149TIP3    H134329   9.582   8.275   9.583  0.3071 -0.1389  0.4779
11149TIP3    H234330   9.718   8.341   9.600  0.3111 -0.3293  1.2615
11150TIP3   OH234331   9.065   5.886   9.709 -0.1344 -0.0577  0.2250
11150TIP3    H134332   9.125   5.868   9.782 -0.8001 -1.1010  0.5475
11150TIP3    H234333   9.064   5.805   9.659 -1.9628 -0.4070  0.7547
11151TIP3   OH234334   6.961  10.556   7.631  0.5978  0.0387  0.5586
11151TIP3    H134335   6.865  10.555   7.633  0.4667 -0.7376 -2.1083
11151TIP3    H234336   6.986  10.603   7.711 -2.0239  1.2249  0.7986
11152TIP3   OH234337   6.385   8.796   0.910  0.3174  0.2636 -0.3553
11152TIP3    H134338   6.304   8.755   0.880 -1.5890  1.1005  3.0413
11152TIP3    H234339   6.445   8.722   0.924  0.2001 -0.3774 -2.8185
11153TIP3   OH234340   9.336   8.648   5.725  0.1469  0.2347  0.0535
11153TIP3    H134341   9.344   8.719   5.662 -0.6647 -0.8709 -1.3453
11153TIP3    H234342   9.425   8.632   5.756  0.2780  2.1923  0.8170
11154TIP3   OH234343   1.468   8.848   1.522 -0.2411 -0.3593  0.5787
11154TIP3    H134344   1.429   8.763   1.544 -0.6198  0.1816  2.1093
11154TIP3    H234345   1.404   8.912   1.550  0.5674  0.4706  0.5718
11155TIP3   OH234346   0.120   6.917   9.126  0.3671  0.4374  0.0584
11155TIP3    H134347   0.116   6.945   9.217 -0.1006  2.9009 -0.6518
11155TIP3    H234348   0.202   6.955   9.094  0.2322  0.1056 -0.6914
11156TIP3   OH234349   0.139   9.784   3.549  0.3736  0.8489  0.8805
11156TIP3    H134350   0.223   9.827   3.538  2.6910 -3.7481 -2.4120
11156TIP3    H234351   0.104   9.774   3.461 -1.3275 -1.4120  1.6941
11157TIP3   OH234352   1.332  10.730   5.201  0.2054 -0.1811 -0.7138
11157TIP3    H134353   1.427  10.737   5.208  0.1694 -1.0692  1.3060
11157TIP3    H234354   1.303  10.819   5.180  1.4080  0.3392 -0.2998
11158TIP3   OH234355   0.533  10.717   8.032 -0.2698 -0.4431  0.1927
11158TIP3    H134356   0.589  10.658   8.083  2.4855  1.3643 -0.5071
11158TIP3    H234357   0.589  10.793   8.013 -2.8702  1.3391 -0.9783
11159TIP3   OH234358   3.452   7.167   1.579  0.0190  0.4552 -0.1461
11159TIP3    H134359   3.452   7.253   1.536 -1.5229  0.2186 -0.6735
11159TIP3    H234360   3.360   7.145   1.590  0.3761 -1.2810 -0.2889
11160TIP3   OH234361   9.393   0.469   0.126 -0.2155 -0.2784  0.1801
11160TIP3    H134362   9.348   0.466   0.042  1.4124  0.2525 -0.7400
11160TIP3    H234363   9.371   0.385   0.168 -2.1569  0.0167 -0.1306
11161TIP3   OH234364   5.284   3.368   9.203 -0.4880  0.5413 -1.0261
11161TIP3    H134365   5.247   3.408   9.124 -1.0910 -0.3138 -1.1903
11161TIP3    H234366   5.234   3.287   9.214  0.8440 -0.2650 -0.8198
11162TIP3   OH234367   7.145   8.271   2.529 -0.1532  0.3999 -0.1354
11162TIP3    H134368   7.120   8.179   2.542 -0.2191  0.2288 -1.3885
11162TIP3    H234369   7.214   8.267   2.462 -0.3114  1.2898 -0.3532
11163TIP3   OH234370   0.821   9.573  10.339 -0.5228 -0.7170  0.7503
11163TIP3    H134371   0.833   9.526  10.257 -0.9558 -1.1247  0.9138
11163TIP3    H234372   0.887   9.642  10.337 -1.7255  0.4933 -0.8218
11164TIP3   OH234373   2.388   4.429   4.761  0.4053  0.4575 -0.3747
11164TIP3    H134374   2.444   4.497   4.724  2.5295 -0.1989  1.4240
11164TIP3    H234375   2.425   4.347   4.728 -2.2580  0.0231 -2.7038
11165TIP3   OH234376   8.515   3.196   5.791 -0.1646  0.2558  0.3289
11165TIP3    H134377   8.572   3.272   5.803 -0.0231  0.4266 -1.1732
11165TIP3    H234378   8.548   3.154   5.711 -1.8485  0.1019 -0.3292
11166TIP3   OH234379  10.829   3.014   3.308  0.3744  0.1920 -0.6799
11166TIP3    H134380  10.842   3.058   3.392 -0.4846  2.9774 -1.8666
11166TIP3    H234381  10.858   3.078   3.243 -0.3306 -1.2889 -2.5464
11167TIP3   OH234382   5.865   5.961   1.572  0.0410 -0.6171  0.3684
11167TIP3    H134383   5.912   5.909   1.506  1.3002  2.2423 -1.1605
11167TIP3    H234384   5.789   5.995   1.524  0.1826  0.3431  0.8256
11168TIP3   OH234385   1.986   1.386   5.475  0.3424  0.6951 -0.4943
11168TIP3    H134386   2.034   1.420   5.399  0.3663  1.1032 -0.3000
11168TIP3    H234387   1.921   1.454   5.494 -0.5916 -0.0452 -1.0111
11169TIP3   OH234388   8.549   7.433   2.421 -0.3878  0.4297 -0.8837
11169TIP3    H134389   8.465   7.475   2.437 -0.8384 -0.7432 -0.0445
11169TIP3    H234390   8.596   7.439   2.504  0.6280  1.6322 -1.5225
11170TIP3   OH234391   0.391   6.326   5.869  0.2129  0.3667 -0.3251
11170TIP3    H134392   0.462   6.381   5.902  0.2919 -0.7450  1.4975
11170TIP3    H234393   0.312   6.379   5.882  0.2419 -0.0139  1.7705
11171TIP3   OH234394   9.343   3.499   9.465  0.0231  0.5397 -0.4349
11171TIP3    H134395   9.390   3.575   9.430  0.5353 -0.2384 -1.4909
11171TIP3    H234396   9.274   3.482   9.402  0.8320 -0.7585 -1.0146
11172TIP3   OH234397  10.253   2.804   9.343 -0.3438 -0.2657  0.2388
11172TIP3    H134398  10.268   2.712   9.363 -0.1516 -0.1500  0.6243
11172TIP3    H234399  10.239   2.846   9.428  2.1136  0.5313  0.3436
11173TIP3   OH234400   3.000   3.436   0.651 -0.3166 -0.3020 -0.3070
11173TIP3    H134401   2.974   3.450   0.742 -0.5816 -1.5949 -0.1664
11173TIP3    H234402   2.926   3.469   0.600  0.4408  1.8245 -0.1536
11174TIP3   OH234403   9.369   2.926   3.710  0.5672  0.2524  0.3203
11174TIP3    H134404   9.281   2.963   3.709 -0.9847 -3.0474 -1.4839
11174TIP3    H234405   9.405   2.946   3.623  1.0567  0.4098  0.5541
11175TIP3   OH234406   5.588   1.734   4.949 -0.0865 -0.3202 -0.0987
11175TIP3    H134407   5.548   1.693   5.026 -0.9330  1.5564  0.5288
11175TIP3    H234408   5.514   1.772   4.901  0.7513  1.8706  0.2404
11176TIP3   OH234409   5.749   5.779   1.834  0.2169 -0.3012 -0.5973
11176TIP3    H134410   5.728   5.776   1.740  1.2723 -0.2021 -0.8438
11176TIP3    H234411   5.841   5.805   1.837  0.0951  0.0263  0.4848
11177TIP3   OH234412   2.203   9.731   5.417  0.1071  0.0740 -0.6772
11177TIP3    H134413   2.277   9.790   5.403 -1.1113  1.8055 -0.1025
11177TIP3    H234414   2.163   9.722   5.330  1.5402 -1.7276 -1.2147
11178TIP3   OH234415   8.085   7.902   3.832 -0.0421 -0.0115  0.4220
11178TIP3    H134416   7.992   7.919   3.816  0.0142  0.1401  0.2555
11178TIP3    H234417   8.128   7.922   3.749 -0.1516 -2.5155 -0.3111
11179TIP3   OH234418  10.475   6.911  10.356 -0.9090  0.3744  0.0233
11179TIP3    H134419  10.468   6.927  10.262 -1.4410  0.7922  0.1275
11179TIP3    H234420  10.439   6.824  10.369  1.1338 -0.5979 -0.4297
11180TIP3   OH234421   5.990   3.193   0.074  0.2144  0.1827  0.6460
11180TIP3    H134422   6.030   3.167   0.157  0.4264  0.3220  0.5886
11180TIP3    H234423   5.943   3.115   0.045  1.6157 -0.4623  0.0126
11181TIP3   OH234424   1.755   9.513   7.603  0.1424  0.6992  0.9066
11181TIP3    H134425   1.754   9.548   7.693  0.5410  0.1738  1.1194
11181TIP3    H234426   1.716   9.426   7.611 -0.2703  0.8382  0.4808
11182TIP3   OH234427   6.597   1.751  10.255  0.0001  0.5740 -0.0157
11182TIP3    H134428   6.617   1.701  10.335 -1.5232 -1.8758 -1.0607
11182TIP3    H234429   6.572   1.838  10.287  2.1183  0.5646  1.9425
11183TIP3   OH234430   5.098   7.199   9.745  0.5217  0.1556  0.2760
11183TIP3    H134431   5.140   7.116   9.721  1.0995  0.7275 -0.7408
11183TIP3    H234432   5.111   7.206   9.840  1.9878 -0.0895  0.1083
11184TIP3   OH234433   8.514   4.410   4.829  0.3663  0.1882 -0.0721
11184TIP3    H134434   8.434   4.461   4.848  0.9202  0.8730  0.4686
11184TIP3    H234435   8.577   4.476   4.801  0.7184 -0.3686 -0.5980
11185TIP3   OH234436   5.868   9.881   5.102  0.2768  0.2410 -0.3676
11185TIP3    H134437   5.930   9.808   5.108 -0.8470 -0.7671 -0.3526
11185TIP3    H234438   5.904   9.949   5.158  0.4050 -1.0673  1.2406
11186TIP3   OH234439   1.960   1.521   8.059  0.0593  0.1507 -0.6580
11186TIP3    H134440   1.935   1.591   8.120  1.0366 -0.0065 -0.0464
11186TIP3    H234441   2.052   1.538   8.040 -0.1465  0.0004 -1.8588
11187TIP3   OH234442   1.945   5.378   9.359  0.4551 -0.0805  0.0530
11187TIP3    H134443   1.859   5.370   9.401  0.5953 -0.6368  0.2426
11187TIP3    H234444   1.980   5.289   9.360  1.0207  0.1406 -0.0574
11188TIP3   OH234445   9.853   1.699   2.501  0.5288  0.0099  0.1324
11188TIP3    H134446   9.815   1.709   2.588  2.0785  0.0995  0.8439
11188TIP3    H234447   9.930   1.644   2.515  2.6045  2.5295 -0.5990
11189TIP3   OH234448   6.689   5.736   7.144  0.3653 -0.3443  0.4280
11189TIP3    H134449   6.718   5.789   7.069  0.8216  0.0554  0.8781
11189TIP3    H234450   6.619   5.681   7.109  0.9061 -0.5172 -0.4210
11190TIP3   OH234451   3.187   8.542  10.770  0.0398 -0.6491  0.0940
11190TIP3    H134452   3.105   8.587  10.787  0.0286 -1.4082  2.3041
11190TIP3    H234453   3.253   8.594  10.815  0.7760 -0.1650 -1.4806
11191TIP3   OH234454   9.383   1.562   3.266  0.2224  0.0952  0.0227
11191TIP3    H134455   9.416   1.510   3.193  0.7935 -1.4399  1.3099
11191TIP3    H234456   9.342   1.497   3.324 -2.3348  1.5392 -0.0141
11192TIP3   OH234457   1.101   1.970  10.826  0.0877  0.0227 -0.3427
11192TIP3    H134458   1.097   2.063  10.848 -1.6799 -0.1048  0.0496
11192TIP3    H234459   1.179   1.961  10.773  0.3783  1.7079 -0.2498
11193TIP3   OH234460   9.569   7.314  10.628 -0.4632 -0.1013 -0.4452
11193TIP3    H134461   9.498   7.301  10.691  0.1715  0.1381  0.3328
11193TIP3    H234462   9.611   7.395  10.655  1.6306 -1.4666  0.6172
11194TIP3   OH234463   7.281   5.951   7.301  0.3446 -0.3063  0.2796
11194TIP3    H134464   7.236   5.891   7.360 -0.1345 -0.4160 -0.1865
11194TIP3    H234465   7.256   6.038   7.331 -0.3110 -0.3677 -0.0660
11195TIP3   OH234466   5.588   3.017   8.654  0.2705 -0.0139 -0.2062
11195TIP3    H134467   5.521   2.956   8.685  0.5250  0.3135  1.0373
11195TIP3    H234468   5.611   3.069   8.731  1.6670  0.1453 -0.7036
11196TIP3   OH234469   7.685  10.454   6.013  0.1488  0.4608 -0.8623
11196TIP3    H134470   7.703  10.360   6.018  1.9421  0.5133 -3.8457
11196TIP3    H234471   7.590  10.460   6.000 -0.3319 -0.7211  1.6024
11197TIP3   OH234472   2.012   5.013  10.135 -0.2814 -0.0640 -0.1490
11197TIP3    H134473   1.988   5.099  10.101  1.7791  0.5893 -0.0972
11197TIP3    H234474   2.045   4.965  10.059 -0.1022 -0.2934  0.0705
11198TIP3   OH234475   9.114   3.312   8.543 -0.0358  0.0794 -0.0272
11198TIP3    H134476   9.182   3.371   8.574  0.2989 -0.0283 -0.5487
11198TIP3    H234477   9.070   3.282   8.623  0.8097 -0.1953  0.3396
11199TIP3   OH234478   7.735   5.890   6.818 -0.2708 -0.1974  0.2621
11199TIP3    H134479   7.814   5.904   6.767 -0.3360 -0.4587  0.0900
11199TIP3    H234480   7.664   5.912   6.758 -0.3103  1.6832  0.9008
11200TIP3   OH234481   0.177   1.521   2.215  0.6379  0.0448  0.1262
11200TIP3    H134482   0.240   1.486   2.153 -0.7011  0.1707 -1.3506
11200TIP3    H234483   0.207   1.611   2.232 -0.2830  0.8580 -2.2459
11201TIP3   OH234484   8.949   6.941   6.885  0.2829 -0.0528  0.0291
11201TIP3    H134485   8.912   6.903   6.806  0.2164 -1.3514  0.6564
11201TIP3    H234486   8.884   6.924   6.953  0.1254  1.4653  0.2813
11202TIP3   OH234487   0.484   6.222   9.957 -0.5697  0.3343 -0.1124
11202TIP3    H134488   0.394   6.230   9.988 -0.9227  1.5964 -1.3693
11202TIP3    H234489   0.480   6.162   9.883 -0.4155  0.6224 -0.3540
11203TIP3   OH234490   8.130   1.276  10.344 -0.3036 -0.1025  0.0898
11203TIP3    H134491   8.069   1.275  10.269  1.1329  1.1241 -1.1609
11203TIP3    H234492   8.073   1.282  10.421 -1.7751  2.2574 -1.0731
11204TIP3   OH234493  10.395   2.223   5.571 -0.2690  0.0771  0.0968
11204TIP3    H134494  10.356   2.139   5.597  0.1664 -0.4531 -0.8911
11204TIP3    H234495  10.322   2.285   5.573 -1.0491 -0.7622 -1.1023
11205TIP3   OH234496   7.488   1.880   9.731 -0.0126  0.1369 -0.0260
11205TIP3    H134497   7.406   1.888   9.780  1.0380 -0.1116  1.8714
11205TIP3    H234498   7.552   1.848   9.796  1.5769  0.2651 -1.4540
11206TIP3   OH234499   3.987   9.869   5.499  0.3888  0.1473 -0.9292
11206TIP3    H134500   3.892   9.873   5.512  0.4533 -0.1494 -0.3081
11206TIP3    H234501   4.008   9.775   5.503  0.8584  0.2776  0.1705
11207TIP3   OH234502   0.731   0.242   1.195 -0.1749 -0.1387 -0.2848
11207TIP3    H134503   0.729   0.185   1.272 -0.3441 -1.2881 -1.1137
11207TIP3    H234504   0.642   0.238   1.160  0.2512 -0.8342 -1.3618
11208TIP3   OH234505   9.321   8.968   8.530 -0.1278  0.2788  0.5599
11208TIP3    H134506   9.266   8.894   8.554 -0.1151  0.3131  0.6930
11208TIP3    H234507   9.270   9.045   8.555  0.1431  0.3059  1.0347
11209TIP3   OH234508   9.911   7.898   5.491  0.1687  0.3601 -0.2469
11209TIP3    H134509   9.850   7.967   5.468 -0.9273 -0.0276  1.3399
11209TIP3    H234510   9.972   7.939   5.552  0.4742  0.3192 -0.5225
11210TIP3   OH234511   9.589   7.181   8.056 -0.6254 -0.0551 -0.0533
11210TIP3    H134512   9.506   7.149   8.093  0.5225 -1.3543  1.5469
11210TIP3    H234513   9.605   7.263   8.102 -0.0440 -0.8311  1.1906
11211TIP3   OH234514   9.709   7.674   0.846 -0.1705 -0.1090  0.1133
11211TIP3    H134515   9.777   7.690   0.781 -1.5209 -0.1590 -1.3573
11211TIP3    H234516   9.653   7.752   0.842 -0.6798 -0.4368  0.7131
11212TIP3   OH234517   9.578   4.211   7.146  0.5077 -0.4362 -0.3175
11212TIP3    H134518   9.627   4.129   7.145  0.8328 -0.2415 -1.2178
11212TIP3    H234519   9.600   4.251   7.230 -0.3542 -1.6796  0.5246
11213TIP3   OH234520   2.778   2.031   8.174  0.2633  0.0598  0.2227
11213TIP3    H134521   2.755   1.981   8.252 -0.3787  0.0752  0.0561
11213TIP3    H234522   2.762   2.122   8.199 -1.3034 -0.0253 -0.3444
11214TIP3   OH234523  10.332   0.713   8.082 -0.8330  0.3591  0.1512
11214TIP3    H134524  10.334   0.753   7.995 -1.7063  0.0858 -0.0113
11214TIP3    H234525  10.288   0.629   8.068  0.1602 -0.2657  0.6440
11215TIP3   OH234526   9.201   3.764   4.807 -0.3596  0.2460 -0.0684
11215TIP3    H134527   9.119   3.722   4.832  0.1025 -1.6636 -1.5633
11215TIP3    H234528   9.265   3.733   4.871 -0.4134  0.2638 -0.0060
11216TIP3   OH234529   0.192   4.834   3.543 -0.2001 -0.5810  0.0347
11216TIP3    H134530   0.129   4.773   3.583  1.2309 -1.9750  0.2664
11216TIP3    H234531   0.276   4.789   3.549  0.7721  1.0533 -0.6507
11217TIP3   OH234532   5.573   0.602   9.350  0.3055  0.1279 -0.2079
11217TIP3    H134533   5.662   0.610   9.385  0.6582  1.3408 -1.2799
11217TIP3    H234534   5.545   0.692   9.334 -0.6522 -0.2819 -0.9949
11218TIP3   OH234535   1.980   3.179   2.418  0.0242  0.5455 -0.4408
11218TIP3    H134536   1.958   3.258   2.368  0.9252  0.0981 -1.5823
11218TIP3    H234537   1.901   3.161   2.469 -1.3085  0.4778 -2.4300
11219TIP3   OH234538  10.046   3.689   4.139 -0.1533 -0.1008  0.7839
11219TIP3    H134539  10.013   3.616   4.086  0.2416  0.0158  0.3686
11219TIP3    H234540  10.010   3.767   4.096 -0.7730 -0.0580  1.3698
11220TIP3   OH234541  10.785   7.140   3.588 -0.2858  0.2577 -0.1628
11220TIP3    H134542  10.744   7.078   3.528  1.1608 -0.9987  0.0651
11220TIP3    H234543  10.764   7.226   3.552 -1.6439 -0.3803 -0.9725
11221TIP3   OH234544   4.831   8.095   3.408  0.6453  0.1533 -0.2133
11221TIP3    H134545   4.864   8.075   3.321  0.8091 -1.0539  0.1131
11221TIP3    H234546   4.746   8.052   3.412  0.5218  0.4205  0.1376
11222TIP3   OH234547   0.107   1.570   4.634  0.2188  0.4337  0.0188
11222TIP3    H134548   0.098   1.662   4.660 -2.2850 -0.1953  1.7535
11222TIP3    H234549   0.140   1.526   4.712  0.9142 -0.2560 -0.6427
11223TIP3   OH234550   1.500   2.479   9.171  0.7194 -0.4885  0.3179
11223TIP3    H134551   1.527   2.458   9.260  3.6039 -1.4485 -0.6693
11223TIP3    H234552   1.541   2.412   9.117 -0.2511  0.5514 -1.8115
11224TIP3   OH234553   2.236   4.396   0.230  0.0180 -0.4630 -0.2242
11224TIP3    H134554   2.227   4.338   0.305 -2.2678 -0.2436 -0.2484
11224TIP3    H234555   2.164   4.371   0.171  0.8577  0.3463 -1.6719
11225TIP3   OH234556   0.265   4.290   1.810 -0.2630 -0.0411  0.5316
11225TIP3    H134557   0.279   4.269   1.718 -0.6027  0.4587  0.3623
11225TIP3    H234558   0.327   4.361   1.828  0.0058 -0.3343  0.7651
11226TIP3   OH234559   6.076   8.729   0.980 -0.0289  0.2349  0.5267
11226TIP3    H134560   6.025   8.649   0.969  1.0465 -0.3252 -0.5450
11226TIP3    H234561   6.119   8.742   0.896  1.5377  0.7146  1.3611
11227TIP3   OH234562   2.836   6.464   9.282 -1.2277 -0.0119  0.2615
11227TIP3    H134563   2.928   6.461   9.254 -0.7588  3.6735  0.9451
11227TIP3    H234564   2.791   6.406   9.221  1.4660 -1.6710 -0.3171
11228TIP3   OH234565   6.435   4.574   8.515  0.5400 -0.0446  0.7285
11228TIP3    H134566   6.339   4.580   8.512  0.3173 -2.5118 -1.4742
11228TIP3    H234567   6.454   4.553   8.606 -1.1154 -0.2259  1.0771
11229TIP3   OH234568   3.714   3.484   8.965 -0.1601  0.0870  0.0339
11229TIP3    H134569   3.764   3.552   8.921  0.2808 -1.0775 -1.3045
11229TIP3    H234570   3.625   3.495   8.932  0.2612 -1.0904 -1.5955
11230TIP3   OH234571   0.613   9.295   9.319 -0.2292 -0.4911  0.6099
11230TIP3    H134572   0.539   9.350   9.343  0.7703  0.2128  2.2484
11230TIP3    H234573   0.671   9.353   9.270 -0.3554 -0.8134  0.0643
11231TIP3   OH234574   6.148   7.308   6.661 -0.5018 -0.1845  0.3925
11231TIP3    H134575   6.127   7.398   6.637 -0.3039 -0.5313 -1.1819
11231TIP3    H234576   6.213   7.280   6.596 -0.6378 -1.4945  0.7909
11232TIP3   OH234577   2.242   1.815   0.587  0.3044 -0.2897 -0.7510
11232TIP3    H134578   2.323   1.834   0.634  0.7676  0.3438 -1.7720
11232TIP3    H234579   2.180   1.788   0.655  1.1858 -0.1638  0.1127
11233TIP3   OH234580   1.391   9.005   4.117 -0.2651  0.2208 -0.3464
11233TIP3    H134581   1.367   8.982   4.207 -1.8474 -1.8417 -1.2050
11233TIP3    H234582   1.318   8.974   4.064 -0.0973  2.7604 -2.2639
11234TIP3   OH234583   6.902   5.805   3.205 -0.2010  0.2709 -0.3327
11234TIP3    H134584   6.939   5.805   3.116  1.9030  0.7769  0.4911
11234TIP3    H234585   6.827   5.745   3.199 -1.3243  1.7217 -2.8895
11235TIP3   OH234586   9.665   3.603   2.952  0.2932 -0.5738 -0.3561
11235TIP3    H134587   9.639   3.626   3.042  0.0465  0.9682 -0.7832
11235TIP3    H234588   9.760   3.597   2.956  0.4155  1.0246 -0.2875
11236TIP3   OH234589   9.933   1.052   1.369  0.2467 -0.1630 -0.2867
11236TIP3    H134590   9.913   1.092   1.454 -0.0634 -0.3477 -0.2698
11236TIP3    H234591   9.968   1.124   1.316 -0.0511  0.0694 -0.1714
11237TIP3   OH234592   9.854   1.022   1.906 -0.2309  0.0615  0.0980
11237TIP3    H134593   9.874   1.110   1.875 -0.8334  0.0492 -0.3334
11237TIP3    H234594   9.798   0.984   1.839 -0.4098 -0.4669  0.5314
11238TIP3   OH234595   4.767   8.500   0.868 -0.5033 -0.7887  0.3079
11238TIP3    H134596   4.795   8.582   0.827 -3.1651 -0.3097 -0.8063
11238TIP3    H234597   4.813   8.432   0.819 -1.6587 -0.0950 -1.9067
11239TIP3   OH234598   2.032   5.717   9.023  0.2028  0.4950 -0.0489
11239TIP3    H134599   2.012   5.732   8.930  1.0064 -2.0245 -0.7177
11239TIP3    H234600   2.106   5.775   9.041  0.9795  0.0068 -1.4512
11240TIP3   OH234601   9.348   2.191   6.945  0.5762 -0.2127  0.3215
11240TIP3    H134602   9.295   2.118   6.976  2.3924 -1.8220 -0.1557
11240TIP3    H234603   9.336   2.190   6.850 -0.4227  1.0062  0.4053
11241TIP3   OH234604   9.946   7.005   3.379 -0.2872  0.1370  0.1869
11241TIP3    H134605   9.996   6.979   3.302  0.1875  0.8897  0.2316
11241TIP3    H234606   9.972   6.941   3.446  0.7748  0.6215  0.2604
11242TIP3   OH234607   4.648   1.508   0.725 -0.1508  0.2340 -0.5834
11242TIP3    H134608   4.696   1.591   0.722 -1.3334  0.9580 -0.3212
11242TIP3    H234609   4.556   1.534   0.735 -0.5850 -1.1054 -0.8577
11243TIP3   OH234610   6.556   2.665   0.794  0.2221 -0.1795 -0.1720
11243TIP3    H134611   6.626   2.710   0.840  1.1448 -1.7207  0.0080
11243TIP3    H234612   6.572   2.572   0.811 -0.7145 -0.6765 -1.7577
11244TIP3   OH234613  10.614   4.272   2.637 -1.0645 -0.5467  0.2183
11244TIP3    H134614  10.546   4.337   2.650 -0.9522  0.0770 -1.9322
11244TIP3    H234615  10.598   4.237   2.549  1.1982 -0.5805 -0.2483
11245TIP3   OH234616   0.964   9.254   9.439  0.2409 -0.6219 -0.6657
11245TIP3    H134617   1.003   9.177   9.398  1.3373 -0.6134  0.3105
11245TIP3    H234618   1.003   9.328   9.394 -0.0710 -0.6260 -0.9449
11246TIP3   OH234619   6.433   6.777   5.161  0.2042  0.0777 -0.7440
11246TIP3    H134620   6.407   6.777   5.253 -1.3528  0.9807 -1.1640
11246TIP3    H234621   6.455   6.685   5.143 -0.2532 -0.2552  0.3041
11247TIP3   OH234622   5.735   9.307   2.642 -0.1686  0.3159 -0.0456
11247TIP3    H134623   5.675   9.359   2.696  0.1602 -0.4834  1.1040
11247TIP3    H234624   5.691   9.223   2.631  0.6967 -0.2738  0.7948
11248TIP3   OH234625   3.520   1.895   7.426  0.6806  0.0413 -0.8994
11248TIP3    H134626   3.488   1.984   7.439  0.4323  0.0032 -1.2121
11248TIP3    H234627   3.564   1.897   7.341  0.4559 -0.1915 -1.0236
11249TIP3   OH234628   0.312   2.008   1.935 -0.3054 -0.5780 -0.1251
11249TIP3    H134629   0.328   2.032   2.027 -0.6630  2.2643 -0.7138
11249TIP3    H234630   0.365   1.930   1.922  2.6866  0.9850  1.5556
11250TIP3   OH234631   4.478   5.989   7.712  0.5655 -0.1114 -0.1280
11250TIP3    H134632   4.529   5.947   7.643  0.3161  0.1292 -0.4653
11250TIP3    H234633   4.477   5.925   7.783  2.6020  0.4547  0.4834
11251TIP3   OH234634   9.150   3.906   4.272 -0.2351  0.4084  0.3215
11251TIP3    H134635   9.151   3.825   4.221  1.3545 -0.2536  1.3601
11251TIP3    H234636   9.076   3.896   4.332 -0.3937 -0.0219  0.0543
11252TIP3   OH234637   9.093   4.875  10.481  0.2248 -0.2440  0.1713
11252TIP3    H134638   9.114   4.953  10.430 -0.8191 -0.4690 -0.6488
11252TIP3    H234639   9.173   4.822  10.478  0.0710 -0.4261 -1.5924
11253TIP3   OH234640   6.061   8.665   6.753  0.2861 -0.1521 -0.8874
11253TIP3    H134641   6.067   8.663   6.848 -0.8785  0.6868 -0.7727
11253TIP3    H234642   6.005   8.740   6.734  2.1727  0.9712 -2.3336
11254TIP3   OH234643   8.543   9.485   9.753 -0.1058 -0.5801  0.1917
11254TIP3    H134644   8.535   9.543   9.678 -0.2691  2.1183  2.1716
11254TIP3    H234645   8.631   9.500   9.787 -0.5180 -0.6788  1.3622
11255TIP3   OH234646   3.110   8.464   3.382  0.4137  0.0548  0.1870
11255TIP3    H134647   3.024   8.451   3.421  0.1676 -1.4880 -0.8160
11255TIP3    H234648   3.114   8.558   3.366 -0.6545  0.3007  1.1817
11256TIP3   OH234649   8.629   1.466   3.568 -0.4100 -0.2344 -0.6046
11256TIP3    H134650   8.595   1.441   3.482 -0.6292  0.3437 -0.6916
11256TIP3    H234651   8.609   1.392   3.625 -0.0203 -0.7395 -1.1110
11257TIP3   OH234652   8.664   8.643   5.016  0.9187 -0.2656  0.0470
11257TIP3    H134653   8.748   8.679   4.988  0.3456  2.0789  1.0624
11257TIP3    H234654   8.635   8.589   4.943  1.9866  1.1817 -1.5209
11258TIP3   OH234655   9.400  10.184   7.011 -0.6765 -0.3835 -0.6161
11258TIP3    H134656   9.335  10.183   6.940  1.1798  0.7784 -2.4675
11258TIP3    H234657   9.478  10.145   6.972  0.5904  0.8394  0.5827
11259TIP3   OH234658   9.800   6.051   9.519 -0.8618 -0.0736 -0.2173
11259TIP3    H134659   9.763   6.130   9.558 -0.0632  0.9869 -1.5379
11259TIP3    H234660   9.802   6.069   9.425  1.9033 -0.5112 -0.3259
11260TIP3   OH234661   7.428   1.391  10.192  0.1345 -0.7321  0.6648
11260TIP3    H134662   7.440   1.463  10.253 -2.1488  0.9282 -0.6813
11260TIP3    H234663   7.416   1.433  10.107 -1.5865 -2.6330 -0.1206
11261TIP3   OH234664   4.301   2.913   0.271  0.6561 -0.0714 -0.0767
11261TIP3    H134665   4.311   2.983   0.336 -1.2960 -0.8195  1.1141
11261TIP3    H234666   4.243   2.952   0.205  0.5804 -0.1396 -0.0509
11262TIP3   OH234667  10.753   1.800   2.756 -0.1721  0.2411 -0.0817
11262TIP3    H134668  10.664   1.814   2.788 -1.3359  0.1028 -2.9605
11262TIP3    H234669  10.754   1.710   2.724  2.2636 -1.1365  3.2675
11263TIP3   OH234670   1.658   7.056   5.736  0.0669 -0.1063  0.3054
11263TIP3    H134671   1.752   7.042   5.743  0.4775  1.1129 -1.8171
11263TIP3    H234672   1.622   6.971   5.710  0.2988 -0.9822  2.6064
11264TIP3   OH234673   9.942   9.878   8.197 -0.0884 -0.2849 -0.1498
11264TIP3    H134674   9.952   9.947   8.132 -1.4886 -0.0045 -0.1040
11264TIP3    H234675   9.924   9.925   8.279 -0.2272 -0.6778  0.0497
11265TIP3   OH234676   5.362   7.927  10.200  0.2679  0.1846  0.2928
11265TIP3    H134677   5.434   7.960  10.255 -1.5425  2.0969  1.6840
11265TIP3    H234678   5.318   8.006  10.168 -0.9780 -0.9286 -0.8798
11266TIP3   OH234679   8.349   7.158  10.233 -0.1824  1.0401 -0.2592
11266TIP3    H134680   8.335   7.244  10.193  0.3946  0.9671 -0.6250
11266TIP3    H234681   8.309   7.165  10.319 -1.2381  1.2833 -0.7481
11267TIP3   OH234682   1.501   0.499   4.642  0.3189 -0.1332 -0.4873
11267TIP3    H134683   1.534   0.582   4.678  2.0845 -0.5525 -0.9953
11267TIP3    H234684   1.578   0.461   4.599 -0.3724 -2.1799 -0.0030
11268TIP3   OH234685   1.108   1.165   1.396  0.4982 -0.3871  0.0337
11268TIP3    H134686   1.138   1.240   1.448 -0.3635  0.9369 -1.2837
11268TIP3    H234687   1.165   1.165   1.319  0.1263 -0.7251 -0.2446
11269TIP3   OH234688   1.931   4.748   7.458 -0.3859  0.3012  0.1780
11269TIP3    H134689   1.859   4.773   7.400 -0.6734  0.1254  0.4565
11269TIP3    H234690   1.896   4.760   7.547  0.0316  0.5162  0.3146
11270TIP3   OH234691   5.320   5.950   7.378 -0.2214  0.0738  0.1802
11270TIP3    H134692   5.391   5.886   7.382  0.3073  0.7155  1.8852
11270TIP3    H234693   5.305   5.976   7.469 -0.7542  2.0074 -0.3989
11271TIP3   OH234694   2.723   1.650   8.846  1.1478 -0.6996  0.5084
11271TIP3    H134695   2.720   1.558   8.872 -0.1699 -0.3956  1.4920
11271TIP3    H234696   2.660   1.657   8.774  2.1242 -0.7823 -0.3875
11272TIP3   OH234697   1.010   8.117   8.945 -0.4605  0.0958  0.6662
11272TIP3    H134698   1.003   8.189   9.007  0.9048 -0.7255  1.8322
11272TIP3    H234699   1.053   8.155   8.868 -0.4411  0.6896  0.9665
11273TIP3   OH234700   9.530   4.053   1.625 -0.0249 -0.1632 -1.0913
11273TIP3    H134701   9.563   4.107   1.552  0.7234  0.2607 -0.4559
11273TIP3    H234702   9.474   4.112   1.675  1.8164  0.4700  0.3413
11274TIP3   OH234703   9.713   1.329   8.069 -0.2513 -0.1161  0.6166
11274TIP3    H134704   9.697   1.258   8.132  0.3426 -0.2752  0.5860
11274TIP3    H234705   9.666   1.303   7.990 -2.2090  0.7455  1.4210
11275TIP3   OH234706   9.390   8.684   9.469  0.3476 -0.4391 -0.0066
11275TIP3    H134707   9.351   8.613   9.418 -0.8291 -0.1502  0.4475
11275TIP3    H234708   9.325   8.704   9.536  1.0114  0.5126  0.3824
11276TIP3   OH234709  10.643   4.062   5.223  0.2123  0.1262 -0.2884
11276TIP3    H134710  10.666   4.153   5.203 -1.6346  1.0931  1.5716
11276TIP3    H234711  10.726   4.014   5.217  1.1561  1.8338 -1.6976
11277TIP3   OH234712   4.753   9.016   7.854  0.0725  0.0874 -0.2586
11277TIP3    H134713   4.815   9.025   7.926 -0.7665  0.5103  0.4345
11277TIP3    H234714   4.672   8.988   7.896 -0.4286  0.3217 -1.0457
11278TIP3   OH234715   4.762   5.195   2.608 -0.0406 -0.3940  0.4964
11278TIP3    H134716   4.689   5.211   2.668  0.1766 -1.3572  1.0389
11278TIP3    H234717   4.813   5.276   2.610 -1.4700  0.5631 -0.4637
11279TIP3   OH234718   8.133   4.604   5.599  0.1846 -0.6215  0.0868
11279TIP3    H134719   8.210   4.554   5.570 -0.2964 -2.1632  1.3051
11279TIP3    H234720   8.168   4.663   5.666  0.4223 -0.9262  0.2406
11280TIP3   OH234721   0.999   2.802   3.981  0.2657 -0.4793  0.4986
11280TIP3    H134722   0.959   2.752   3.911 -1.1750 -0.4663  1.2759
11280TIP3    H234723   0.978   2.893   3.961  0.4186 -0.4209  0.5989
11281TIP3   OH234724   1.534   7.146   7.379 -0.1213  0.2066 -0.5925
11281TIP3    H134725   1.604   7.080   7.384 -0.3843 -0.0691 -0.5178
11281TIP3    H234726   1.486   7.135   7.461 -0.8488 -0.2732 -1.0747
11282TIP3   OH234727   3.238   2.931   5.232  0.0360  0.2660 -0.5098
11282TIP3    H134728   3.226   2.863   5.166  0.2019  1.3436 -1.6932
11282TIP3    H234729   3.241   2.884   5.315  1.6963 -1.3127 -1.4061
11283TIP3   OH234730   9.956   7.593   8.183  0.5023  0.2738  0.6438
11283TIP3    H134731   9.892   7.605   8.113 -0.5353 -1.8741  1.1298
11283TIP3    H234732   9.904   7.564   8.258  1.8221  0.6006  1.7208
11284TIP3   OH234733   1.596   6.706   1.346  0.5062 -0.1067 -0.3643
11284TIP3    H134734   1.540   6.783   1.359  0.1852 -0.2697 -0.7782
11284TIP3    H234735   1.661   6.734   1.282  0.5601 -0.0943 -0.3046
11285TIP3   OH234736   7.514   4.742   5.391  0.7428  0.2548  0.6582
11285TIP3    H134737   7.518   4.812   5.455  1.2541  1.1646 -0.3338
11285TIP3    H234738   7.574   4.675   5.425  1.0421  0.7408  1.1037
11286TIP3   OH234739   4.568  10.847   7.061  0.5518  0.1539 -0.4089
11286TIP3    H134740   4.609  10.805   7.136 -0.3227  0.0897  0.0510
11286TIP3    H234741   4.474  10.848   7.082  0.1463 -0.8161 -1.9488
11287TIP3   OH234742   4.601   2.335   0.773 -0.6065  0.0983  0.4806
11287TIP3    H134743   4.538   2.391   0.818 -0.3534 -0.5415  1.6711
11287TIP3    H234744   4.651   2.293   0.844  0.7987  0.1759 -0.4164
11288TIP3   OH234745   3.312   5.924   0.650  0.4467 -0.6499  0.5172
11288TIP3    H134746   3.402   5.912   0.681  0.5475 -1.7710 -0.1292
11288TIP3    H234747   3.302   5.857   0.582 -0.8968 -0.5817  0.6239
11289TIP3   OH234748   6.575  10.789   5.683  0.2766  0.1345  0.5502
11289TIP3    H134749   6.500  10.841   5.714 -0.9665 -0.9347 -0.5331
11289TIP3    H234750   6.617  10.758   5.763  0.5109  2.0123  1.2099
11290TIP3   OH234751   1.213   3.232   2.239  0.4674  0.1915 -0.3165
11290TIP3    H134752   1.158   3.300   2.278 -1.0992 -1.2240  0.0750
11290TIP3    H234753   1.302   3.253   2.267 -0.0904  1.5525  0.5239
11291TIP3   OH234754   6.880   4.870   6.073 -0.3751 -0.0938 -0.3226
11291TIP3    H134755   6.899   4.796   6.131  2.5044  1.8557  1.5106
11291TIP3    H234756   6.791   4.896   6.095 -1.0377 -2.2878 -0.2165
11292TIP3   OH234757   5.106   8.893   5.605  0.5227 -0.5481  0.0224
11292TIP3    H134758   5.125   8.834   5.532  0.5919  1.4094 -1.6203
11292TIP3    H234759   5.025   8.938   5.580 -0.2214 -0.7848  1.8044
11293TIP3   OH234760   4.772  10.159  10.119  0.4736  0.3418 -0.8059
11293TIP3    H134761   4.829  10.096  10.075  0.0031 -0.3249 -0.4697
11293TIP3    H234762   4.789  10.146  10.213 -0.5609 -0.1965 -0.6767
11294TIP3   OH234763   8.133   0.607   7.957  0.2605  0.1191  0.3647
11294TIP3    H134764   8.133   0.628   8.051  1.5142  1.5195  0.0906
11294TIP3    H234765   8.220   0.634   7.927 -0.3281  0.2246 -1.3073
11295TIP3   OH234766   1.189   9.840   2.905 -1.0617  0.2229  0.0403
11295TIP3    H134767   1.186   9.926   2.947 -2.3220  1.5646 -2.5443
11295TIP3    H234768   1.155   9.855   2.817 -0.2942 -2.7446 -0.8901
11296TIP3   OH234769   9.232   6.378   6.642 -0.1648  0.1514  0.1878
11296TIP3    H134770   9.155   6.396   6.697  0.9220  0.6037  1.6293
11296TIP3    H234771   9.294   6.337   6.702 -0.3030 -3.0105 -1.5780
11297TIP3   OH234772   5.956   1.124   0.731  0.0266  0.6509 -0.6352
11297TIP3    H134773   6.026   1.079   0.778 -0.2774  1.6351  0.8304
11297TIP3    H234774   5.887   1.057   0.721  1.5574 -0.6924 -3.1826
11298TIP3   OH234775   5.616   2.700   0.824  0.5892  0.9965 -0.4303
11298TIP3    H134776   5.609   2.702   0.728  1.0019  0.8384 -0.4653
11298TIP3    H234777   5.697   2.748   0.843 -0.4197  2.6181 -0.0475
11299TIP3   OH234778   7.035   0.085  10.765 -0.6376  1.0723  0.5196
11299TIP3    H134779   6.953   0.093  10.715 -0.3971  0.4941  0.0315
11299TIP3    H234780   7.009   0.042  10.846 -0.5735 -0.5305 -0.2854
11300TIP3   OH234781   9.094  10.057   4.515  0.2830  0.1100  0.0091
11300TIP3    H134782   9.107  10.132   4.456  0.0105 -1.0358 -1.5748
11300TIP3    H234783   9.182  10.023   4.530  0.2228 -0.7059 -1.3030
11301TIP3   OH234784   0.339   9.541   7.474  0.3477  0.6123  0.3632
11301TIP3    H134785   0.367   9.603   7.541 -0.6716  0.4172  0.9922
11301TIP3    H234786   0.393   9.463   7.490 -0.4063  0.2839  1.4785
11302TIP3   OH234787   2.408   8.733   0.251  1.0118 -0.6265 -0.8483
11302TIP3    H134788   2.410   8.685   0.334  0.3095  0.0858 -0.3948
11302TIP3    H234789   2.322   8.714   0.214  0.9208 -0.1386 -0.9038
11303TIP3   OH234790   6.513   2.522   8.228  0.3768  0.5075  0.2704
11303TIP3    H134791   6.475   2.489   8.310  0.6857 -0.9590 -0.1531
11303TIP3    H234792   6.604   2.541   8.250  1.0404 -1.8586 -0.1836
11304TIP3   OH234793   1.620   4.115   2.442  0.0067  0.0819 -0.4384
11304TIP3    H134794   1.678   4.170   2.390  0.3492  0.6787  0.5675
11304TIP3    H234795   1.587   4.172   2.511 -0.2865 -0.7605  0.1339
11305TIP3   OH234796   9.634   2.816   9.279 -0.1391  0.2468  0.1374
11305TIP3    H134797   9.672   2.781   9.199  0.6180  1.7384 -0.1992
11305TIP3    H234798   9.552   2.768   9.290  0.6831 -1.3579 -0.4290
11306TIP3   OH234799   1.855   3.088   7.920  0.4171 -0.2097  0.0651
11306TIP3    H134800   1.788   3.022   7.937 -0.0488  0.6019  1.6140
11306TIP3    H234801   1.889   3.067   7.833 -2.3665 -0.2094 -1.1200
11307TIP3   OH234802   2.156   5.233   5.426 -0.0713 -0.0496  0.3847
11307TIP3    H134803   2.067   5.202   5.409 -1.1583  2.2578  1.4454
11307TIP3    H234804   2.190   5.254   5.340 -0.4601 -1.1179 -0.0550
11308TIP3   OH234805   3.738   8.746   2.977 -0.2344 -0.1642 -0.1394
11308TIP3    H134806   3.698   8.768   3.061  1.1253 -0.7152  0.6902
11308TIP3    H234807   3.748   8.830   2.933  1.9184  0.5903  1.6110
11309TIP3   OH234808  10.507   9.620   0.827  0.1562  0.3700 -0.4064
11309TIP3    H134809  10.512   9.621   0.731  1.1035  0.9049 -0.3663
11309TIP3    H234810  10.500   9.528   0.850 -1.7653  0.3193 -1.0451
11310TIP3   OH234811   9.834   5.355  10.260  0.2135  0.0935  0.0941
11310TIP3    H134812   9.822   5.310  10.176  0.3317  0.6644 -0.2410
11310TIP3    H234813   9.785   5.303  10.323  2.3817 -1.9427  0.2263
11311TIP3   OH234814   7.404   1.349   1.770 -0.7779 -0.2355  0.4377
11311TIP3    H134815   7.491   1.319   1.794  0.1132 -0.3630 -2.4688
11311TIP3    H234816   7.391   1.430   1.820  0.4856 -0.8319  1.7971
11312TIP3   OH234817   6.548   2.231  10.331  0.3942  0.2230 -0.3579
11312TIP3    H134818   6.562   2.319  10.298  0.5020  0.1797 -0.4263
11312TIP3    H234819   6.589   2.231  10.418 -1.8296  1.0221  0.7812
11313TIP3   OH234820   6.453   3.382  10.497  0.1834  0.5693  1.1401
11313TIP3    H134821   6.467   3.440  10.422 -0.5321  0.2894  0.7801
11313TIP3    H234822   6.532   3.328  10.501 -0.0068  0.2119  0.2434
11314TIP3   OH234823   5.640   1.121   8.053 -0.1737  0.3388 -0.5527
11314TIP3    H134824   5.608   1.209   8.072 -1.3775 -0.2245  0.2232
11314TIP3    H234825   5.641   1.077   8.138  2.2591  0.1490 -0.6255
11315TIP3   OH234826   7.463   1.246   4.831  0.0106 -0.4962  0.1231
11315TIP3    H134827   7.379   1.230   4.789 -0.1126  1.3640 -0.3831
11315TIP3    H234828   7.520   1.177   4.797 -0.9468 -0.9831 -0.5374
11316TIP3   OH234829   1.806   8.662   8.076  0.2781  0.2709  0.0946
11316TIP3    H134830   1.874   8.701   8.021 -0.3955  1.1478 -0.1542
11316TIP3    H234831   1.761   8.738   8.116  0.6921 -0.3254  1.7975
11317TIP3   OH234832   3.857   0.015   6.980  0.7518  0.6683 -0.1458
11317TIP3    H134833   3.827   0.103   7.003 -1.1853  0.3263 -1.1858
11317TIP3    H234834   3.934   0.001   7.035  0.4343  2.5585  0.8642
11318TIP3   OH234835   9.240   3.583   1.100 -0.0888  0.0862 -0.3922
11318TIP3    H134836   9.248   3.626   1.015  1.6614 -1.0024 -0.8096
11318TIP3    H234837   9.276   3.646   1.162  0.7193 -0.0070 -0.7576
11319TIP3   OH234838   3.772   8.451   0.631  0.1776 -0.0710 -0.2923
11319TIP3    H134839   3.759   8.505   0.709  0.0767  0.3343 -0.5850
11319TIP3    H234840   3.738   8.504   0.559 -0.6909 -0.8682 -0.4837
11320TIP3   OH234841   5.258   3.284   2.816 -0.6347 -0.7358 -0.0676
11320TIP3    H134842   5.319   3.333   2.761  1.2053 -1.5608  1.1449
11320TIP3    H234843   5.261   3.195   2.781 -3.0219 -0.3546 -1.4808
11321TIP3   OH234844   0.971   7.709   7.308 -0.1768  0.1776 -0.3367
11321TIP3    H134845   0.967   7.800   7.278 -1.6566 -0.1564 -1.2902
11321TIP3    H234846   1.052   7.675   7.270  0.1016  0.9520 -0.4504
11322TIP3   OH234847   3.953   1.921   6.036 -0.2866 -0.3358  0.5100
11322TIP3    H134848   4.040   1.881   6.045 -1.1092 -2.4096 -0.1823
11322TIP3    H234849   3.971   2.014   6.023  1.8302 -0.7169  0.3164
11323TIP3   OH234850  10.366   3.206   9.456  0.0180  0.6287  0.2816
11323TIP3    H134851  10.325   3.276   9.407 -1.0030 -0.0316  0.1596
11323TIP3    H234852  10.412   3.250   9.528  0.1823  1.4763 -0.3346
11324TIP3   OH234853   1.557   3.429   7.718 -0.4590 -0.5671  0.0976
11324TIP3    H134854   1.607   3.502   7.752  0.2506 -0.5061 -1.0069
11324TIP3    H234855   1.615   3.353   7.729  0.4141 -0.3326 -2.1505
11325TIP3   OH234856   4.192   6.825   6.718 -0.3828 -0.4789  0.4223
11325TIP3    H134857   4.188   6.861   6.807 -1.3238  1.5251 -0.3509
11325TIP3    H234858   4.131   6.880   6.668  0.8796 -0.8970 -1.6890
11326TIP3   OH234859   5.385   2.557  10.872 -0.7846 -0.0758  0.3769
11326TIP3    H134860   5.403   2.465  10.891 -0.1969  0.0320  0.3591
11326TIP3    H234861   5.329   2.586  10.944 -1.8705 -0.7224 -0.1713
11327TIP3   OH234862   9.818   0.778   3.820  0.0026  0.1556 -0.8003
11327TIP3    H134863   9.800   0.789   3.913 -0.3512 -0.1143 -0.8340
11327TIP3    H234864   9.734   0.796   3.777  0.3953  1.2465 -1.1382
11328TIP3   OH234865   8.631   4.256   2.979 -0.6444  0.2995  0.1006
11328TIP3    H134866   8.675   4.332   3.016 -0.6738 -0.0630  0.9012
11328TIP3    H234867   8.675   4.181   3.018 -0.5720 -0.1053 -0.7299
11329TIP3   OH234868   6.180   9.030   8.052 -0.4688 -0.6757  0.2486
11329TIP3    H134869   6.085   9.046   8.048 -0.5131 -0.8324  0.6058
11329TIP3    H234870   6.194   8.957   7.992 -0.7009 -1.1831  0.7905
11330TIP3   OH234871   1.961   9.032   5.644 -0.1453 -0.0490  0.3288
11330TIP3    H134872   2.018   8.956   5.632 -0.0188  0.1972 -0.6670
11330TIP3    H234873   1.944   9.064   5.556 -0.6426  0.7614  0.7062
11331TIP3   OH234874  10.079   2.814   8.693  0.7487  0.0657  0.5838
11331TIP3    H134875  10.145   2.771   8.640 -0.6001 -0.3079 -0.8632
11331TIP3    H234876  10.004   2.754   8.692 -0.5172  1.5877  0.0244
11332TIP3   OH234877   5.172   1.342   7.560  0.5305 -0.4657  0.2059
11332TIP3    H134878   5.121   1.419   7.587 -0.0597 -0.5987 -0.4910
11332TIP3    H234879   5.260   1.376   7.544  0.9572 -0.4125  2.4064
11333TIP3   OH234880   7.253   9.833   9.221 -0.2582  0.0876 -0.7656
11333TIP3    H134881   7.161   9.855   9.205 -0.4699 -0.8283 -0.8122
11333TIP3    H234882   7.297   9.918   9.223 -0.5459  0.4337 -4.0217
11334TIP3   OH234883   1.562   7.398   6.523  0.3813 -0.7602  0.0921
11334TIP3    H134884   1.607   7.458   6.464  0.2719 -0.9329 -0.1705
11334TIP3    H234885   1.631   7.341   6.556  0.8102  0.6569  1.7872
11335TIP3   OH234886   6.389   1.433   9.738  0.0877  0.3620 -0.2901
11335TIP3    H134887   6.424   1.506   9.789 -0.2387  1.3531 -1.4380
11335TIP3    H234888   6.452   1.422   9.666 -0.1596 -0.1293 -0.4338
11336TIP3   OH234889   5.179   8.766   5.348  0.2955 -0.2252  0.0218
11336TIP3    H134890   5.257   8.711   5.349  0.2630 -0.2650  0.4269
11336TIP3    H234891   5.207   8.848   5.309  0.7411  0.0643  0.9323
11337TIP3   OH234892   1.017   8.450   4.333 -0.3160  0.2160 -0.4067
11337TIP3    H134893   1.045   8.383   4.271  0.5964 -0.1425  0.3595
11337TIP3    H234894   0.922   8.438   4.342  0.1085 -2.5459  1.4619
11338TIP3   OH234895   8.208   2.310   3.579 -1.2776 -0.0251  0.1031
11338TIP3    H134896   8.268   2.253   3.532 -2.4878  0.0712 -1.6613
11338TIP3    H234897   8.255   2.335   3.659  0.5903 -0.7528 -0.7269
11339TIP3   OH234898   5.159   5.239   3.058 -0.2703 -0.1359 -0.5512
11339TIP3    H134899   5.229   5.290   3.017  0.4306 -0.0003  0.7788
11339TIP3    H234900   5.185   5.148   3.043  0.8181 -0.0964  0.9117
11340TIP3   OH234901   6.744   5.282   5.885  0.3946  0.0039 -0.3907
11340TIP3    H134902   6.702   5.318   5.807  0.7225  2.3278  0.4338
11340TIP3    H234903   6.835   5.310   5.879  0.4040  0.2888  0.8661
11341TIP3   OH234904   4.375   1.314   7.293 -0.1423 -0.4109 -0.2078
11341TIP3    H134905   4.373   1.292   7.200 -0.1992 -2.7596  0.2905
11341TIP3    H234906   4.453   1.368   7.303  0.0387 -0.3766 -1.5525
11342TIP3   OH234907   8.805   7.556   5.293 -0.7557  0.3925  0.3909
11342TIP3    H134908   8.819   7.578   5.385 -0.5962  1.3123  0.1567
11342TIP3    H234909   8.882   7.591   5.248 -0.7635 -0.1771 -0.0810
11343TIP3   OH234910  10.404   7.977   1.347  0.0199 -0.4110 -0.2661
11343TIP3    H134911  10.315   8.009   1.360  0.5147  0.6574  0.6546
11343TIP3    H234912  10.410   7.899   1.403 -0.0312  0.1083  0.4749
11344TIP3   OH234913   4.787   7.185  10.239  0.8799 -0.0491 -0.3188
11344TIP3    H134914   4.835   7.179  10.157  1.9233 -0.9367  0.3384
11344TIP3    H234915   4.823   7.263  10.282  1.1339 -0.2300 -0.2024
11345TIP3   OH234916   6.291   6.266   1.503 -0.1030 -0.0659 -0.5430
11345TIP3    H134917   6.276   6.330   1.572  1.0270  0.7302 -1.0096
11345TIP3    H234918   6.203   6.240   1.475 -0.5851 -0.2700  1.0367
11346TIP3   OH234919   5.246   4.689   3.044 -0.2018  0.5648  0.3518
11346TIP3    H134920   5.183   4.673   3.115 -1.0974 -0.6070 -0.6696
11346TIP3    H234921   5.248   4.784   3.035 -0.0500  0.7498  1.9480
11347TIP3   OH234922   3.741   8.882   7.719  0.1241  0.5589  0.0671
11347TIP3    H134923   3.832   8.905   7.740  0.3530 -0.4666  0.2400
11347TIP3    H234924   3.746   8.836   7.636 -0.1288 -0.2085  0.4644
11348TIP3   OH234925   5.605   5.969   3.136 -0.1678 -0.2138 -0.0762
11348TIP3    H134926   5.594   5.924   3.219  0.0470  2.4376  1.5113
11348TIP3    H234927   5.525   5.951   3.087 -0.2377 -1.9246  0.6293
11349TIP3   OH234928   1.376   5.579   2.774  0.3381  0.1122  0.0769
11349TIP3    H134929   1.359   5.627   2.693  0.3857  1.7694  1.0001
11349TIP3    H234930   1.472   5.582   2.784  0.4309 -1.0053 -0.3150
11350TIP3   OH234931   3.012   3.050   5.667  0.5594 -0.6875 -0.1728
11350TIP3    H134932   3.052   2.969   5.698  0.3680 -1.2469 -1.3324
11350TIP3    H234933   2.941   3.021   5.609  2.2577  0.2332 -2.8884
11351TIP3   OH234934   1.530   2.383   9.439 -0.4595 -0.2657 -0.5454
11351TIP3    H134935   1.471   2.332   9.494 -0.7552 -1.9354 -2.2730
11351TIP3    H234936   1.615   2.376   9.483 -1.0046 -0.0848  0.5734
11352TIP3   OH234937   5.294   8.178   2.990  0.0253  0.2458 -0.0487
11352TIP3    H134938   5.295   8.209   2.900 -0.0510 -3.6345 -1.5793
11352TIP3    H234939   5.386   8.177   3.016  0.3017 -0.6541 -0.9714
11353TIP3   OH234940   1.050   0.967   2.502  0.3730  0.3379 -0.8573
11353TIP3    H134941   1.079   1.038   2.560  2.0783 -0.1669 -1.0360
11353TIP3    H234942   0.987   0.918   2.554  0.8485  0.6990  0.0899
11354TIP3   OH234943   7.102   1.880   8.868  0.0234  0.2918 -0.0935
11354TIP3    H134944   7.011   1.907   8.881 -0.0366  0.2377 -0.3761
11354TIP3    H234945   7.120   1.903   8.777  0.0215 -0.4766 -0.2990
11355TIP3   OH234946  10.112   9.741   3.128  0.0699  0.4923 -0.4844
11355TIP3    H134947  10.185   9.803   3.130  0.0439  0.6108 -1.9926
11355TIP3    H234948  10.036   9.794   3.151  0.2286  0.7381 -0.5198
11356TIP3   OH234949   6.285   1.808   2.691 -0.4885  0.1202  0.1194
11356TIP3    H134950   6.310   1.716   2.698  1.2140  0.5011 -0.4770
11356TIP3    H234951   6.203   1.807   2.643 -0.0885 -1.0591 -0.5830
11357TIP3   OH234952   8.807   6.419   6.341  0.6100 -0.2425 -0.4766
11357TIP3    H134953   8.733   6.480   6.338  0.7087 -0.1192 -0.3980
11357TIP3    H234954   8.885   6.475   6.333  0.6929 -0.3775 -0.6227
11358TIP3   OH234955  10.029   8.172  10.274  0.2320 -0.6366  0.4801
11358TIP3    H134956  10.043   8.159  10.367  1.7976 -1.1252  0.2119
11358TIP3    H234957  10.078   8.251  10.252 -0.7690 -0.0844  0.2116
11359TIP3   OH234958   3.961   7.962   8.518 -0.2151  0.2644 -0.3722
11359TIP3    H134959   3.878   7.980   8.474 -0.2543  2.6471  0.5001
11359TIP3    H234960   3.971   8.035   8.580  2.5315  0.0554 -0.4452
11360TIP3   OH234961   8.745   3.708   0.346  0.1094 -0.4040  0.0995
11360TIP3    H134962   8.724   3.625   0.388  0.4920  0.4225  2.0597
11360TIP3    H234963   8.747   3.771   0.418  0.8322  1.1197 -1.1871
11361TIP3   OH234964  10.643   9.975   0.693 -0.0046  0.1095 -0.3929
11361TIP3    H134965  10.571   9.986   0.631  0.4655 -0.5531 -1.0822
11361TIP3    H234966  10.720  10.005   0.645  0.1602  0.9876  0.4021
11362TIP3   OH234967   0.086   6.015   6.094 -0.1939 -0.2840  0.1878
11362TIP3    H134968   0.120   5.999   6.182  1.3789  0.7599 -0.2044
11362TIP3    H234969   0.164   6.028   6.039 -1.1782  2.5948 -0.6800
11363TIP3   OH234970   3.598   6.948  10.858  0.2331  0.2531  0.6750
11363TIP3    H134971   3.566   6.858  10.869  0.0392  0.1204 -0.7885
11363TIP3    H234972   3.561   6.977  10.775  0.3376  1.6824  1.1017
11364TIP3   OH234973   7.741   3.418   7.643 -0.3313 -0.1822  0.1926
11364TIP3    H134974   7.796   3.362   7.587  1.3972  1.7772 -0.2007
11364TIP3    H234975   7.653   3.380   7.636  0.6985 -2.6749 -0.2014
11365TIP3   OH234976   1.289   4.188  10.213  0.0601 -1.0756  0.1169
11365TIP3    H134977   1.321   4.270  10.174  0.4521 -1.3730 -0.1926
11365TIP3    H234978   1.340   4.178  10.293 -0.0821 -0.9498  0.2240
11366TIP3   OH234979  10.322   5.228   7.205 -0.3012  0.3998 -0.2914
11366TIP3    H134980  10.307   5.189   7.291 -3.0107  1.3243 -0.2384
11366TIP3    H234981  10.352   5.317   7.224  1.4057 -0.1299 -0.3699
11367TIP3   OH234982   3.689   5.812   8.014 -0.2079 -0.4696  0.3619
11367TIP3    H134983   3.761   5.802   8.076 -0.5826 -0.0888  0.8613
11367TIP3    H234984   3.620   5.854   8.064 -0.3953  0.1496 -0.3988
11368TIP3   OH234985   0.025   1.462   0.345 -0.5604  0.0146  0.0832
11368TIP3    H134986   0.045   1.376   0.382 -0.0124 -0.3156 -0.9408
11368TIP3    H234987   0.107   1.491   0.306 -1.2985 -0.0144 -1.5654
11369TIP3   OH234988   9.448   3.367   1.326  0.5352  0.1287 -0.2240
11369TIP3    H134989   9.511   3.325   1.268 -0.4114 -2.3647  0.4039
11369TIP3    H234990   9.385   3.297   1.348 -1.9817  2.2560 -0.1557
11370TIP3   OH234991   6.540   3.655   7.815 -0.4365 -0.2188 -0.3404
11370TIP3    H134992   6.511   3.614   7.733  0.2772  2.2371 -1.9313
11370TIP3    H234993   6.624   3.696   7.792 -1.3674  2.5748  0.8970
11371TIP3   OH234994   0.487   2.395   6.747  0.2033 -0.4831 -0.1051
11371TIP3    H134995   0.577   2.377   6.775  0.2398 -0.5287 -0.2460
11371TIP3    H234996   0.433   2.372   6.822  0.1876 -1.9316 -0.5218
11372TIP3   OH234997   7.935   3.719   2.808  0.0370 -0.2201 -0.0001
11372TIP3    H134998   7.946   3.672   2.891  1.0943 -0.6922 -0.3883
11372TIP3    H234999   7.978   3.663   2.743  1.1978  1.2010 -0.5074
11373TIP3   OH235000   5.524   3.370   5.693  0.4324  0.2527  0.0839
11373TIP3    H135001   5.569   3.423   5.628  0.7714 -1.7712 -1.4354
11373TIP3    H235002   5.431   3.381   5.671  0.3570  1.6273  0.9690
11374TIP3   OH235003   9.021   4.706   2.987  0.0399 -0.3607 -0.2402
11374TIP3    H135004   9.010   4.614   3.013  0.9575 -0.2780  0.5255
11374TIP3    H235005   9.108   4.709   2.946 -0.6155 -0.1133 -1.6794
11375TIP3   OH235006   9.664   1.938   5.215 -0.7211  0.0112  0.0766
11375TIP3    H135007   9.629   1.877   5.280  0.6010 -1.6161 -0.6555
11375TIP3    H235008   9.746   1.897   5.186  1.1108  2.9467  0.6979
11376TIP3   OH235009   2.001   9.815   6.019 -0.2362  0.0866  0.1535
11376TIP3    H135010   1.991   9.814   5.924  1.1423  2.2519 -0.0915
11376TIP3    H235011   2.095   9.831   6.033 -0.4896  0.2824  1.8486
11377TIP3   OH235012   1.769   1.835   1.316 -0.2875  0.0310  0.0232
11377TIP3    H135013   1.702   1.883   1.267  0.1171  0.6098  0.0198
11377TIP3    H235014   1.760   1.866   1.406 -0.2070 -0.0919  0.0732
11378TIP3   OH235015   5.632   9.469   6.642  0.6241  0.0200 -0.5566
11378TIP3    H135016   5.722   9.479   6.673  0.8359  1.0001 -1.4088
11378TIP3    H235017   5.641   9.434   6.554  0.1380 -0.3657 -0.4562
11379TIP3   OH235018   7.712   5.743  10.427 -0.4490 -0.0430  0.0624
11379TIP3    H135019   7.674   5.705  10.507 -3.7928  0.0459 -1.3373
11379TIP3    H235020   7.656   5.818  10.407  0.6751  0.2971 -2.0523
11380TIP3   OH235021  10.479   9.829   2.632  0.2780 -0.0260  0.4557
11380TIP3    H135022  10.554   9.788   2.675 -0.0162 -0.6504  0.3868
11380TIP3    H235023  10.404   9.800   2.683  0.2274  2.1556  1.7036
11381TIP3   OH235024  10.374   1.350   0.896  0.0156 -0.0518  0.2336
11381TIP3    H135025  10.356   1.400   0.816  1.3007 -2.0592 -1.4336
11381TIP3    H235026  10.332   1.265   0.881  1.3423 -0.9064  1.1038
11382TIP3   OH235027   4.029   0.711   6.629 -0.7516 -0.3544 -0.1831
11382TIP3    H135028   3.944   0.698   6.672  0.4626 -0.2071  2.4138
11382TIP3    H235029   4.080   0.634   6.653  0.2518  0.1138 -0.7469
11383TIP3   OH235030   5.800   9.711   6.814 -0.1822 -0.0458 -0.1744
11383TIP3    H135031   5.890   9.696   6.843 -0.1651  1.8758  0.9316
11383TIP3    H235032   5.748   9.654   6.870  0.1622  0.8994  1.1641
11384TIP3   OH235033  10.746   6.365   5.293  0.7162  0.2363  0.4369
11384TIP3    H135034  10.709   6.318   5.218 -1.1990  0.1021  1.4028
11384TIP3    H235035  10.770   6.297   5.355 -2.7016  0.3731  2.1311
11385TIP3   OH235036   7.037   4.925   2.514  0.1924 -0.3174  0.1357
11385TIP3    H135037   6.999   4.916   2.426 -0.1328  0.0379  0.2388
11385TIP3    H235038   6.980   4.988   2.558  1.8599  1.5276 -0.2458
11386TIP3   OH235039   8.313   6.561   1.116  1.1145 -0.8453  0.1279
11386TIP3    H135040   8.369   6.626   1.072  0.0291  0.6975  0.9417
11386TIP3    H235041   8.306   6.592   1.206 -1.6793 -0.4858 -0.1154
11387TIP3   OH235042   7.815   1.437   6.676  0.4845  0.3418 -0.2051
11387TIP3    H135043   7.870   1.509   6.706 -0.0118  0.4124  0.5583
11387TIP3    H235044   7.805   1.452   6.582  3.3584 -0.7495 -0.7885
11388TIP3   OH235045   6.362   6.139   8.584 -0.2256  0.6926  0.0408
11388TIP3    H135046   6.276   6.177   8.604 -0.3831  1.7742 -2.2981
11388TIP3    H235047   6.345   6.046   8.568 -0.6659  0.5756  1.1305
11389TIP3   OH235048  10.204   0.074  10.788 -0.2136 -0.1070 -0.0510
11389TIP3    H135049  10.265   0.135  10.830  2.0930 -0.7599 -2.1954
11389TIP3    H235050  10.246  -0.012  10.799 -1.2895 -0.7267 -0.6980
11390TIP3   OH235051   6.632   0.738   4.890 -0.2264 -0.1379 -0.2448
11390TIP3    H135052   6.547   0.711   4.855 -0.1492 -0.6220 -0.0595
11390TIP3    H235053   6.633   0.704   4.979 -0.3231  0.8868  0.1633
11391TIP3   OH235054   7.457   3.693   4.452 -0.6861 -0.4846  0.1303
11391TIP3    H135055   7.479   3.779   4.489  0.7595 -0.8133  0.1093
11391TIP3    H235056   7.448   3.709   4.358  2.7275 -0.8242 -0.3771
11392TIP3   OH235057   3.684   1.916   6.235 -0.4364 -0.6978 -0.4198
11392TIP3    H135058   3.659   1.935   6.145  0.6961 -0.8449 -0.7845
11392TIP3    H235059   3.709   2.001   6.272 -1.2417 -0.5827 -0.1235
11393TIP3   OH235060   7.533   6.262   7.356 -0.0149  0.7975 -0.5532
11393TIP3    H135061   7.610   6.207   7.368  0.1699  1.0541 -0.5639
11393TIP3    H235062   7.478   6.242   7.432 -1.4995 -1.9021 -2.1899
11394TIP3   OH235063   6.377   9.530   1.886  0.2965 -0.1972  0.2960
11394TIP3    H135064   6.443   9.513   1.819  0.5205  1.4338  0.0648
11394TIP3    H235065   6.342   9.444   1.907 -0.3320 -0.7376 -2.4669
11395TIP3   OH235066   3.496   2.400   5.721 -0.6705 -0.8103  0.5952
11395TIP3    H135067   3.421   2.345   5.700  0.4758 -2.1330 -0.2291
11395TIP3    H235068   3.463   2.463   5.785 -3.0453  0.1323 -1.4539
11396TIP3   OH235069  10.663   2.365   0.214 -0.7180  0.4422 -0.2396
11396TIP3    H135070  10.612   2.300   0.262  1.0799 -0.5280  0.4580
11396TIP3    H235071  10.615   2.377   0.132 -2.4151  0.1185  0.6704
11397TIP3   OH235072   4.352   6.312   9.257  0.6435 -0.0399  0.0804
11397TIP3    H135073   4.374   6.275   9.171  0.3765  1.3026 -0.5934
11397TIP3    H235074   4.257   6.317   9.257  0.4091 -2.5023  1.5678
11398TIP3   OH235075   1.828   0.624   5.307  0.6044  0.2284  0.2479
11398TIP3    H135076   1.892   0.684   5.345 -0.2576  0.3522  1.5708
11398TIP3    H235077   1.746   0.673   5.308  0.3603 -0.1149 -0.9305
11399TIP3   OH235078   9.261   6.825   0.351 -0.7164  0.1912 -0.4477
11399TIP3    H135079   9.196   6.830   0.281 -0.6086  0.0236 -0.5569
11399TIP3    H235080   9.214   6.784   0.424 -0.5991 -0.3396 -0.6734
11400TIP3   OH235081   0.055   9.749   8.415 -0.2775 -0.4089  0.5009
11400TIP3    H135082   0.136   9.699   8.420 -1.3417 -2.1461  0.8936
11400TIP3    H235083   0.011   9.733   8.498 -1.7851 -0.8757 -0.3478
11401TIP3   OH235084   9.212   0.148   3.455  0.4195  0.0260  0.1768
11401TIP3    H135085   9.176   0.211   3.518  1.2363  0.0526  0.6218
11401TIP3    H235086   9.142   0.082   3.446  0.2837  0.0195  1.1104
11402TIP3   OH235087   4.031   5.026   0.517 -0.3020  0.0064  0.0225
11402TIP3    H135088   3.946   5.070   0.520 -0.2220  0.2480 -0.8097
11402TIP3    H235089   4.016   4.941   0.558 -0.6413  0.5263  0.9956
11403TIP3   OH235090   9.309   5.041   6.914 -0.3320 -0.2038  0.8172
11403TIP3    H135091   9.390   4.989   6.913 -0.3421 -0.2235  0.2557
11403TIP3    H235092   9.315   5.096   6.835 -1.2061 -0.7521  0.3440
11404TIP3   OH235093   3.611   6.544   6.140  0.1857 -0.0110 -0.7110
11404TIP3    H135094   3.537   6.568   6.195  1.7856  0.0070  1.5884
11404TIP3    H235095   3.628   6.621   6.087  0.4014  1.1090  0.9286
11405TIP3   OH235096   6.166   7.525   8.420  0.6014  0.1898  0.0343
11405TIP3    H135097   6.182   7.567   8.504  1.6326 -2.3111  1.1920
11405TIP3    H235098   6.099   7.459   8.438  2.2795 -1.7919 -0.5466
11406TIP3   OH235099   3.111  10.108   8.143 -0.8332  0.2678 -0.2432
11406TIP3    H135100   3.192  10.086   8.189 -1.3981  0.0298  0.6721
11406TIP3    H235101   3.136  10.117   8.052  0.2328  0.2485  0.0398
11407TIP3   OH235102  10.718   4.798   2.187  0.0081  0.3332 -0.2432
11407TIP3    H135103  10.781   4.726   2.177 -0.1147  0.4271 -1.9374
11407TIP3    H235104  10.642   4.757   2.229  0.0459 -0.4808 -0.9425
11408TIP3   OH235105   4.256   8.125  10.619  0.1450  0.0844 -0.0076
11408TIP3    H135106   4.226   8.072  10.692 -1.3343  0.8144 -0.0323
11408TIP3    H235107   4.232   8.215  10.643 -1.2460  0.2403 -1.7525
11409TIP3   OH235108  10.028   2.356   2.945 -0.1194  0.5868  0.2018
11409TIP3    H135109   9.936   2.333   2.932  0.1343  0.3491 -1.3328
11409TIP3    H235110  10.075   2.303   2.882  1.1675  0.2018  1.4284
11410TIP3   OH235111   6.408   7.944   3.025  0.3818  0.1681 -0.0264
11410TIP3    H135112   6.492   7.924   3.065 -0.0808 -2.9485 -0.4160
11410TIP3    H235113   6.399   7.883   2.953 -2.8096 -0.6525  0.8763
11411TIP3   OH235114   5.370   8.497   6.824  0.2697 -0.5200  0.0230
11411TIP3    H135115   5.331   8.553   6.757 -0.0633 -1.1980 -0.3672
11411TIP3    H235116   5.461   8.524   6.829 -0.2127  1.1014  0.9424
11412TIP3   OH235117   3.364   4.107   3.949 -0.3444 -0.0525  0.3072
11412TIP3    H135118   3.440   4.070   3.996 -2.0633 -2.1415  1.6206
11412TIP3    H235119   3.364   4.200   3.973  0.6862 -0.4179  1.8631
11413TIP3   OH235120  10.551   0.977  10.737 -0.2960  0.0292 -0.6489
11413TIP3    H135121  10.481   1.010  10.680  0.2427 -0.5916 -1.6950
11413TIP3    H235122  10.506   0.925  10.803 -0.9679  1.0613 -0.2691
11414TIP3   OH235123   4.305   8.224   7.964 -0.4804  0.2640  0.0532
11414TIP3    H135124   4.274   8.279   8.036 -1.0946 -1.3109  1.0376
11414TIP3    H235125   4.256   8.142   7.974  0.5855 -0.5625 -1.2249
11415TIP3   OH235126  10.436   3.925   4.826 -0.3009  0.4286 -0.1956
11415TIP3    H135127  10.390   3.845   4.854 -1.0585  0.7725 -0.4358
11415TIP3    H235128  10.421   3.987   4.898  1.0986  0.0739  0.4462
11416TIP3   OH235129   6.824   7.150   3.486  0.3748 -0.3528 -0.0587
11416TIP3    H135130   6.781   7.068   3.462  3.8796 -2.2752 -0.3730
11416TIP3    H235131   6.829   7.149   3.581 -0.8614  0.2607  0.0295
11417TIP3   OH235132   5.797   2.810   7.912  0.0100 -0.0993  0.1088
11417TIP3    H135133   5.880   2.768   7.936  1.0192  0.8726 -1.4304
11417TIP3    H235134   5.793   2.887   7.968  1.0261  0.7398 -0.9058
11418TIP3   OH235135   3.242   4.949   5.477 -0.0419  0.3997  0.1507
11418TIP3    H135136   3.303   4.992   5.416 -1.1339  1.6725 -0.1100
11418TIP3    H235137   3.219   5.018   5.539  0.0611 -0.5383  1.2545
11419TIP3   OH235138   0.869   0.547   8.148  0.4771  0.2948  0.0032
11419TIP3    H135139   0.795   0.586   8.193  0.7239  0.6039  0.1451
11419TIP3    H235140   0.838   0.460   8.120 -0.6002  1.1811 -1.7000
11420TIP3   OH235141   0.125   3.463   4.729  0.3260 -0.2554 -0.6761
11420TIP3    H135142   0.032   3.485   4.733  0.2406 -0.7233  1.7908
11420TIP3    H235143   0.170   3.548   4.723 -0.2244 -0.0206 -1.6549
11421TIP3   OH235144   5.004   0.360   9.316  0.3945 -0.6688 -0.0298
11421TIP3    H135145   5.051   0.444   9.311  0.0607 -0.5631 -2.0486
11421TIP3    H235146   4.924   0.374   9.265 -0.4202 -1.7641  0.8980
11422TIP3   OH235147   0.375   4.882   9.948 -0.0473  0.9463 -0.0151
11422TIP3    H135148   0.307   4.943   9.978 -2.3388 -1.0921 -0.6913
11422TIP3    H235149   0.334   4.796   9.956  0.8710 -0.1431 -4.3437
11423TIP3   OH235150   3.195   2.320  10.046 -0.3410  0.1092  0.2380
11423TIP3    H135151   3.118   2.334  10.101 -0.3875  0.8727 -0.0143
11423TIP3    H235152   3.195   2.394   9.986  0.2602 -0.2041 -0.1520
11424TIP3   OH235153   5.338   6.785  10.660  0.3083  0.0623  0.4608
11424TIP3    H135154   5.378   6.860  10.704  0.0365 -1.6894  4.0164
11424TIP3    H235155   5.260   6.765  10.711 -1.1466 -1.0543 -2.0063
11425TIP3   OH235156  10.094   7.833   7.301  0.2811  0.0737  0.2485
11425TIP3    H135157  10.142   7.785   7.234  0.9281 -0.8945  1.3801
11425TIP3    H235158  10.002   7.829   7.273  0.4577 -0.9429 -0.2057
11426TIP3   OH235159   1.172   8.838   7.726 -0.3646  0.1438  0.1549
11426TIP3    H135160   1.191   8.861   7.817  2.1977 -0.6913 -0.0952
11426TIP3    H235161   1.152   8.744   7.729  0.5920 -0.0823 -0.2216
11427TIP3   OH235162   1.926   2.740   2.835 -0.9282 -0.1988  0.5405
11427TIP3    H135163   1.909   2.668   2.774 -1.1745 -0.5024  0.9571
11427TIP3    H235164   1.946   2.697   2.919  1.0816  0.1689  0.3001
11428TIP3   OH235165   6.037   1.970   7.446  0.3902 -0.1613 -0.2950
11428TIP3    H135166   6.125   2.005   7.454  0.1146  1.1286 -2.1923
11428TIP3    H235167   5.983   2.027   7.502  0.7016 -0.7881  0.6578
11429TIP3   OH235168   9.209   9.047   5.539  0.8992 -0.1311 -0.3702
11429TIP3    H135169   9.225   9.098   5.619 -0.1438  0.4139 -0.4884
11429TIP3    H235170   9.129   8.997   5.559  0.0750  0.7289 -1.3852
11430TIP3   OH235171   1.687   0.834   8.186  0.1165  0.3706  0.1447
11430TIP3    H135172   1.621   0.768   8.205 -1.0819  1.2918 -0.6524
11430TIP3    H235173   1.645   0.892   8.122  2.3952 -0.1433 -1.9696
11431TIP3   OH235174   7.185   6.081   3.492 -0.3244  0.3834 -0.2970
11431TIP3    H135175   7.178   6.155   3.552 -2.7901 -0.6971  0.9207
11431TIP3    H235176   7.126   6.015   3.529 -0.4567 -1.0802 -2.8881
11432TIP3   OH235177   8.634   8.773   1.260  0.3222  0.0487 -0.5097
11432TIP3    H135178   8.554   8.755   1.310  0.2626  0.0736 -0.5952
11432TIP3    H235179   8.604   8.821   1.183  0.5184  0.7495 -0.1486
11433TIP3   OH235180   1.012   4.818   5.127  0.1817 -0.0086 -0.0711
11433TIP3    H135181   0.990   4.902   5.167  0.8348 -0.3723  1.0846
11433TIP3    H235182   0.928   4.772   5.121  0.1389 -0.1498  1.3672
11434TIP3   OH235183   8.163   0.219   0.416  0.1153  0.7961  0.0666
11434TIP3    H135184   8.212   0.262   0.486 -0.7545  1.7146  0.1360
11434TIP3    H235185   8.072   0.225   0.445 -0.1923  0.6139 -0.8528
11435TIP3   OH235186  10.689   8.218   6.476 -0.0905  0.5758  0.5427
11435TIP3    H135187  10.752   8.199   6.406  0.9500  0.6877  1.4171
11435TIP3    H235188  10.633   8.287   6.440  1.3031  1.6279  0.2954
11436TIP3   OH235189   5.065  10.001   4.299  0.2985 -0.1587  0.0958
11436TIP3    H135190   5.147   9.972   4.259 -0.3524 -2.1075  0.0405
11436TIP3    H235191   5.035  10.074   4.245  0.9244 -0.8102 -1.1668
11437TIP3   OH235192   7.893   9.332   4.018 -0.2758  0.2815  0.3530
11437TIP3    H135193   7.920   9.418   3.986  0.1592 -0.6232 -1.9184
11437TIP3    H235194   7.926   9.328   4.107 -0.0496  2.3378  0.4029
11438TIP3   OH235195   4.423   3.060   7.304  0.6336  0.3803 -0.3284
11438TIP3    H135196   4.409   3.074   7.211 -0.6249 -0.7317 -0.3306
11438TIP3    H235197   4.342   3.091   7.346  0.4322 -0.8136  0.2087
11439TIP3   OH235198   6.453   7.931   5.755  0.0952  0.3687  0.3126
11439TIP3    H135199   6.451   7.847   5.709  0.5128  0.2486  0.5095
11439TIP3    H235200   6.362   7.963   5.751  0.0784  0.2430 -0.3666
11440TIP3   OH235201   8.978   1.887   0.935 -0.2435 -0.0627 -0.7807
11440TIP3    H135202   8.999   1.962   0.878  2.2145  0.8641  1.1171
11440TIP3    H235203   8.918   1.923   1.000 -1.3596 -0.5531 -1.5199
11441TIP3   OH235204  10.360  10.637   3.565  0.6664 -0.4972  0.1468
11441TIP3    H135205  10.435  10.665   3.511  0.8282 -2.2497 -0.5826
11441TIP3    H235206  10.321  10.565   3.516 -1.1078 -0.0733  0.8707
11442TIP3   OH235207   2.671  10.704   4.411 -0.2846  0.1351 -0.2074
11442TIP3    H135208   2.718  10.727   4.491  0.2018  2.7478 -1.1397
11442TIP3    H235209   2.723  10.634   4.372 -1.1559 -2.0337  2.2255
11443TIP3   OH235210   1.210   7.940   9.057  0.2483  0.6483 -0.3473
11443TIP3    H135211   1.128   7.990   9.059 -0.0025  0.2252  0.7733
11443TIP3    H235212   1.189   7.863   9.004  0.2986  1.1487 -1.1095
11444TIP3   OH235213   1.899   6.114   7.469 -0.3033  0.2173  0.5461
11444TIP3    H135214   1.878   6.196   7.424  0.0315 -1.0006 -1.9813
11444TIP3    H235215   1.860   6.046   7.414 -0.3111 -1.3843  2.4197
11445TIP3   OH235216   1.832   7.143   9.527 -0.2241 -0.0182 -0.4318
11445TIP3    H135217   1.763   7.088   9.563  1.8550 -1.8294  1.0259
11445TIP3    H235218   1.905   7.134   9.588  0.9948  2.6408 -1.3456
11446TIP3   OH235219   3.437   5.524   8.244  0.7261 -0.0121  0.6911
11446TIP3    H135220   3.391   5.441   8.249 -0.1011  0.3786 -0.1444
11446TIP3    H235221   3.368   5.590   8.237  1.3782  0.7079  0.8022
11447TIP3   OH235222   2.958   7.132   4.922 -0.7204  0.0892  0.5347
11447TIP3    H135223   2.947   7.042   4.891 -0.3537 -0.0033  0.6640
11447TIP3    H235224   2.905   7.136   5.002  0.3993 -0.4483  1.3381
11448TIP3   OH235225   8.829   0.446   1.104 -0.8045 -0.0041  0.2019
11448TIP3    H135226   8.834   0.532   1.062 -0.8019 -0.7453 -1.4178
11448TIP3    H235227   8.813   0.464   1.196 -0.0023  1.7431  0.0262
11449TIP3   OH235228   2.439   8.105   0.787 -0.6898  0.7674 -0.1010
11449TIP3    H135229   2.370   8.130   0.725  1.0470  1.0847 -1.9894
11449TIP3    H235230   2.473   8.188   0.820 -0.6188  0.6304  0.1755
11450TIP3   OH235231   4.324   8.166   0.690 -0.0119  0.3269  0.2942
11450TIP3    H135232   4.291   8.230   0.628 -0.6953 -0.9121 -0.6751
11450TIP3    H235233   4.283   8.083   0.663  0.9210 -0.5398  1.4224
11451TIP3   OH235234   2.472  10.716   3.505  0.0366 -0.3805  0.3622
11451TIP3    H135235   2.481  10.785   3.570 -2.6420 -0.2789  0.7282
11451TIP3    H235236   2.392  10.737   3.458  0.1430 -2.2496 -0.7723
11452TIP3   OH235237   9.157   0.714  10.787  0.1566  0.4327 -0.0089
11452TIP3    H135238   9.078   0.766  10.800 -0.4588 -0.3231 -0.5499
11452TIP3    H235239   9.127   0.623  10.797  1.1915  0.1704  0.8814
11453TIP3   OH235240   4.886   9.609   8.348 -0.2993  0.5589  0.0167
11453TIP3    H135241   4.911   9.697   8.321 -0.0797  0.8772  1.1818
11453TIP3    H235242   4.911   9.605   8.440  0.4581 -1.0088 -0.2271
11454TIP3   OH235243   6.190   4.269   1.482 -0.3607 -0.4399  0.3514
11454TIP3    H135244   6.167   4.362   1.489  0.6741 -0.0178 -1.3364
11454TIP3    H235245   6.155   4.241   1.398  1.4644 -0.8932 -0.3056
11455TIP3   OH235246   2.529   4.902   4.411 -0.4621  0.6092  0.1669
11455TIP3    H135247   2.573   4.986   4.403  2.2438 -0.7866 -0.9004
11455TIP3    H235248   2.500   4.899   4.503  2.3836  1.3895  1.1897
11456TIP3   OH235249   0.124   0.150   6.075  0.1406 -1.0344  0.2475
11456TIP3    H135250   0.215   0.133   6.049  0.0498 -0.9160 -0.1611
11456TIP3    H235251   0.117   0.245   6.075 -0.5229 -1.0279 -1.7244
11457TIP3   OH235252   8.526   4.723   3.288  0.1970  0.3714  0.1334
11457TIP3    H135253   8.619   4.707   3.307  0.6338  1.2482 -1.0933
11457TIP3    H235254   8.507   4.666   3.213  0.7538  2.5999 -1.8528
11458TIP3   OH235255   0.840   1.138   3.374 -0.1556  0.5938 -0.0882
11458TIP3    H135256   0.817   1.206   3.437  1.4694  0.5932  0.5531
11458TIP3    H235257   0.824   1.056   3.421 -1.9049  0.4789 -0.7869
11459TIP3   OH235258   1.017   6.748   4.894  0.0656 -0.1521 -0.7696
11459TIP3    H135259   0.939   6.792   4.929  0.9002  1.0569 -0.3702
11459TIP3    H235260   1.013   6.764   4.800  0.5671  1.1745 -0.5878
11460TIP3   OH235261   5.227   5.692   0.851 -0.5211 -0.4076 -0.4721
11460TIP3    H135262   5.296   5.672   0.914 -0.3152 -0.6207 -0.7658
11460TIP3    H235263   5.257   5.772   0.807 -0.3556 -0.6181 -0.7481
11461TIP3   OH235264   0.765   6.695  10.393 -0.6561  0.4763  0.0227
11461TIP3    H135265   0.703   6.738  10.333  0.0458  2.1014  0.4113
11461TIP3    H235266   0.850   6.731  10.368 -0.0546 -0.5788  0.5062
11462TIP3   OH235267   2.670  10.687   1.781 -0.6328  0.6901 -0.0042
11462TIP3    H135268   2.677  10.782   1.790  1.4130  0.7245 -1.2307
11462TIP3    H235269   2.661  10.654   1.870  0.7163  1.9327  0.6238
11463TIP3   OH235270   0.748   8.936   8.765  0.1941 -0.6477 -0.4148
11463TIP3    H135271   0.659   8.908   8.785  0.0622  0.2420  0.2946
11463TIP3    H235272   0.804   8.866   8.800 -0.2387 -1.6922 -1.7326
11464TIP3   OH235273   5.381   4.777   0.896 -0.0858 -0.0503 -0.1539
11464TIP3    H135274   5.468   4.743   0.875 -0.5792 -0.9468 -0.8120
11464TIP3    H235275   5.371   4.854   0.839  0.3758  0.2221  0.1276
11465TIP3   OH235276   7.460   8.759   7.844 -0.5388 -0.0337 -0.0440
11465TIP3    H135277   7.459   8.714   7.759 -0.8914  1.6061 -0.9417
11465TIP3    H235278   7.369   8.787   7.856 -0.7278 -1.1556  1.4101
11466TIP3   OH235279   3.914   7.794   6.341 -1.0449 -0.2991 -0.0961
11466TIP3    H135280   3.928   7.860   6.273  0.4009  0.7110  1.1259
11466TIP3    H235281   3.995   7.744   6.343 -0.6022  0.4063  1.5901
11467TIP3   OH235282   2.377   2.891   7.373 -0.0577  0.3510 -0.0958
11467TIP3    H135283   2.391   2.803   7.406  1.5991  0.2755 -0.9085
11467TIP3    H235284   2.405   2.888   7.282 -0.1351  1.6743 -0.1849
11468TIP3   OH235285   4.187  10.621  10.396  0.1173  0.1445 -0.0161
11468TIP3    H135286   4.210  10.631  10.303 -0.4976 -1.0300 -0.3141
11468TIP3    H235287   4.157  10.708  10.423 -1.3711  0.1250 -1.4179
11469TIP3   OH235288   7.897   8.937  10.549  0.1456 -0.4809 -0.5582
11469TIP3    H135289   7.891   8.857  10.601 -1.3476 -0.0686 -0.0591
11469TIP3    H235290   7.883   8.908  10.459 -1.5584 -0.6640 -0.2639
11470TIP3   OH235291   9.951   2.344   4.198 -0.3148  0.6093  0.3946
11470TIP3    H135292   9.946   2.409   4.268 -0.8532  0.5447  0.4213
11470TIP3    H235293   9.990   2.392   4.125  0.1528  0.7060  0.7029
11471TIP3   OH235294   7.162   9.438   0.134  0.3204 -0.2913 -0.0770
11471TIP3    H135295   7.236   9.444   0.075 -0.0626 -0.9074 -0.6389
11471TIP3    H235296   7.147   9.344   0.144 -0.6840 -0.1734 -0.3664
11472TIP3   OH235297   2.461  10.649   6.589 -0.4825 -0.3024  0.1298
11472TIP3    H135298   2.457  10.559   6.559 -3.0675 -1.2269  2.8188
11472TIP3    H235299   2.415  10.699   6.521  0.4675 -1.0438 -1.0938
11473TIP3   OH235300  10.768   0.257   6.158  0.3462 -0.2602  0.0089
11473TIP3    H135301  10.680   0.290   6.178 -0.2895 -1.5578 -0.4859
11473TIP3    H235302  10.765   0.165   6.184  0.5831 -1.1299 -2.6632
11474TIP3   OH235303   2.908   3.752   3.408  0.3224  0.2475 -0.5286
11474TIP3    H135304   2.815   3.750   3.388 -0.1240  0.8704  1.2955
11474TIP3    H235305   2.945   3.679   3.359 -1.2517 -0.4955 -0.6763
11475TIP3   OH235306   2.940   6.919   5.305  0.0440 -0.0287 -0.0809
11475TIP3    H135307   2.873   6.855   5.329  0.6272  0.0236  1.8832
11475TIP3    H235308   2.906   7.002   5.338  0.5168  0.2053 -0.1779
11476TIP3   OH235309   5.526   7.461  10.292 -0.1815 -0.0177  0.6026
11476TIP3    H135310   5.482   7.527  10.345  2.3357  2.5797 -0.3258
11476TIP3    H235311   5.475   7.457  10.211 -0.4527  0.6491  0.7427
11477TIP3   OH235312   2.794   5.422   0.084 -0.3811  0.3568  0.4714
11477TIP3    H135313   2.822   5.370   0.009 -1.0056  1.8460 -0.8454
11477TIP3    H235314   2.821   5.512   0.063 -0.9177  0.8750  1.8506
11478TIP3   OH235315   4.193   8.623   0.685  0.1988  0.2098  0.6261
11478TIP3    H135316   4.149   8.706   0.668 -0.9589 -0.5189 -0.0826
11478TIP3    H235317   4.269   8.647   0.738  0.6952  1.8884 -0.7304
11479TIP3   OH235318   4.011   1.921   6.404 -0.1491  0.4160  0.2837
11479TIP3    H135319   3.941   1.857   6.390 -1.7437  2.1249 -0.1419
11479TIP3    H235320   3.982   1.998   6.355  0.1572  2.5046  3.1071
11480TIP3   OH235321   9.988   9.521   6.769  0.6443 -0.6526  0.2469
11480TIP3    H135322   9.920   9.586   6.755 -0.2655 -1.7996 -0.8957
11480TIP3    H235323   9.998   9.477   6.685  1.7176 -1.5368  0.8002
11481TIP3   OH235324   3.827  10.445   3.314 -0.6415 -0.0365 -1.3121
11481TIP3    H135325   3.798  10.517   3.370 -1.1079 -0.7993 -0.5511
11481TIP3    H235326   3.746  10.411   3.275 -0.6194 -1.1796 -0.3932
11482TIP3   OH235327  10.213  10.585   4.384 -0.5726 -0.0355 -0.7336
11482TIP3    H135328  10.230  10.510   4.327  1.1543  1.1556 -1.8648
11482TIP3    H235329  10.280  10.579   4.452 -0.2187  0.6316 -1.0118
11483TIP3   OH235330   4.812   8.371   4.851 -1.2184 -0.0533  0.1118
11483TIP3    H135331   4.785   8.461   4.835 -2.0760 -0.4766 -0.9780
11483TIP3    H235332   4.903   8.367   4.822 -1.1776  0.4681  0.1744
11484TIP3   OH235333   8.547   1.213   1.538  0.3846 -0.2263 -0.1090
11484TIP3    H135334   8.483   1.185   1.603  0.2963 -2.9447 -1.2304
11484TIP3    H235335   8.629   1.220   1.586 -0.5431  2.9636  1.2695
11485TIP3   OH235336   6.430   3.225   8.193 -0.7919 -0.0875 -0.1412
11485TIP3    H135337   6.398   3.151   8.245  1.6905 -0.6433  0.7661
11485TIP3    H235338   6.492   3.269   8.251  1.1393  0.0337 -2.1756
11486TIP3   OH235339   2.616   8.591   0.126  0.6142  0.7413  0.2273
11486TIP3    H135340   2.558   8.648   0.176  0.1661  0.0853  0.4676
11486TIP3    H235341   2.591   8.606   0.034  0.9053  1.3677  0.2519
11487TIP3   OH235342   5.029   2.111   5.318  0.5473 -0.0201 -0.3654
11487TIP3    H135343   5.116   2.149   5.328  0.0438  1.5550 -1.5878
11487TIP3    H235344   4.981   2.141   5.395  0.6830  0.2517 -0.3861
11488TIP3   OH235345   8.303   8.008   6.313  0.3409 -0.2309 -0.2714
11488TIP3    H135346   8.275   8.011   6.221 -0.2183  0.4301 -0.0886
11488TIP3    H235347   8.258   8.082   6.354  2.5756  1.0744 -0.0017
11489TIP3   OH235348   0.237   0.014   9.565 -0.1003  0.2163 -0.2447
11489TIP3    H135349   0.216  -0.076   9.538 -0.9220  0.9554 -2.3227
11489TIP3    H235350   0.331   0.023   9.547 -0.1487 -0.0522 -0.6588
11490TIP3   OH235351   5.557   3.827   6.421  0.1873 -0.1612  0.4349
11490TIP3    H135352   5.511   3.752   6.457  1.1571 -0.4937  1.0247
11490TIP3    H235353   5.567   3.806   6.328 -1.5919  0.3248  0.0916
11491TIP3   OH235354  10.340   4.711   0.112  0.0569 -0.3959 -0.3263
11491TIP3    H135355  10.410   4.646   0.115 -0.7776 -1.3110 -0.0101
11491TIP3    H235356  10.265   4.668   0.153 -0.1804  1.2142  1.0412
11492TIP3   OH235357   7.447  10.898   7.079 -0.1402  0.4077 -0.7709
11492TIP3    H135358   7.476  10.915   6.989 -0.6469 -1.3831 -1.3178
11492TIP3    H235359   7.518  10.846   7.117 -0.7699 -0.4612 -0.7664
11493TIP3   OH235360   1.952   1.974   4.556  0.6903 -0.1266  0.3729
11493TIP3    H135361   1.857   1.962   4.563  0.7124 -0.2989  0.3700
11493TIP3    H235362   1.986   1.887   4.537  0.6233  0.3492 -2.1706
11494TIP3   OH235363   6.941   0.345   1.110 -0.3585  0.0924  0.6647
11494TIP3    H135364   7.000   0.353   1.185 -1.1286  2.6432  1.0908
11494TIP3    H235365   6.924   0.251   1.103  2.4304 -0.5688  1.5183
11495TIP3   OH235366   0.464  10.414   7.367  0.6576 -0.0446  0.3557
11495TIP3    H135367   0.369  10.414   7.378  0.5190  1.5704 -0.5842
11495TIP3    H235368   0.496  10.365   7.443 -0.8619  0.1222  1.1607
11496TIP3   OH235369   1.200   0.897   5.033  0.5617  0.5832  0.3615
11496TIP3    H135370   1.281   0.886   4.982 -0.0164 -0.9587 -0.3128
11496TIP3    H235371   1.156   0.972   4.993  1.0339  0.5870 -0.1605
11497TIP3   OH235372   1.254  10.009   7.379 -0.2073 -0.6415  0.7883
11497TIP3    H135373   1.164  10.039   7.396 -0.5723 -1.0031 -0.4504
11497TIP3    H235374   1.252   9.916   7.400 -0.2299 -0.7380  0.3508
11498TIP3   OH235375   7.312   2.066   2.565  0.4317 -0.3215 -0.0293
11498TIP3    H135376   7.283   2.148   2.605  0.0786  0.0745 -1.0723
11498TIP3    H235377   7.347   2.092   2.479  2.5292 -0.9641  0.5650
11499TIP3   OH235378   3.416   0.607   2.903  0.3904 -0.5069 -0.5196
11499TIP3    H135379   3.419   0.697   2.938 -0.8395 -0.4383 -0.5446
11499TIP3    H235380   3.426   0.552   2.981 -0.1092 -0.3492 -0.3408
11500TIP3   OH235381  10.722   0.306   2.701 -0.1850  0.1929 -0.1400
11500TIP3    H135382  10.684   0.394   2.706 -1.2954 -0.2477 -0.5923
11500TIP3    H235383  10.815   0.319   2.720 -0.5366  1.3047  0.9293
11501TIP3   OH235384   9.453   2.513   7.618  0.1202 -1.3395  0.4855
11501TIP3    H135385   9.441   2.577   7.548  1.0907  0.0965  1.5605
11501TIP3    H235386   9.473   2.566   7.695  2.0325 -2.9826  1.2035
11502TIP3   OH235387   2.918   3.319   5.770 -0.2891  0.9745 -0.2793
11502TIP3    H135388   2.856   3.329   5.698  1.0754  3.2677 -1.2085
11502TIP3    H235389   2.964   3.237   5.750 -0.3459  1.2611 -1.6845
11503TIP3   OH235390  10.714   2.724   4.575  0.3553  0.1408  0.1665
11503TIP3    H135391  10.723   2.658   4.507 -0.6998 -3.6457  3.3707
11503TIP3    H235392  10.637   2.775   4.549  0.9107 -0.1177 -2.1652
11504TIP3   OH235393  10.567   6.483   9.703  0.8689 -0.5321  0.3437
11504TIP3    H135394  10.586   6.411   9.644 -0.1390 -1.2675  0.8979
11504TIP3    H235395  10.471   6.489   9.704  0.8030 -1.2253  2.6909
11505TIP3   OH235396  10.415   0.922   2.252 -0.0979  0.4462 -0.4536
11505TIP3    H135397  10.492   0.868   2.271  0.0702  0.7152 -0.3532
11505TIP3    H235398  10.342   0.862   2.256  0.0716  0.2538 -0.1773
11506TIP3   OH235399   5.983   0.739   8.793  0.0854 -0.3726  0.0896
11506TIP3    H135400   5.894   0.775   8.791  0.4227  0.5224 -2.1832
11506TIP3    H235401   5.970   0.645   8.806 -1.1345 -0.1326  0.7633
11507TIP3   OH235402   8.854   3.518   6.981 -0.1595 -0.3921 -0.4922
11507TIP3    H135403   8.856   3.478   7.067  0.9390  1.1844  0.2816
11507TIP3    H235404   8.838   3.611   6.998  1.9349  0.2948 -1.7683
11508TIP3   OH235405   7.410   1.467   7.298 -0.0213  0.1096 -0.1147
11508TIP3    H135406   7.387   1.553   7.333  1.4651 -0.1897  1.7560
11508TIP3    H235407   7.502   1.456   7.322  0.1545 -1.4950 -1.4158
11509TIP3   OH235408   9.772   5.722   0.803 -0.4528 -0.2155  0.2489
11509TIP3    H135409   9.806   5.770   0.727  0.0957  1.3171  1.4190
11509TIP3    H235410   9.709   5.781   0.843 -1.1982 -1.2587  0.6696
11510TIP3   OH235411   1.857   7.691   3.847  0.6095 -0.5614 -0.0287
11510TIP3    H135412   1.767   7.663   3.831  0.6265 -0.1443 -0.9349
11510TIP3    H235413   1.872   7.674   3.940  0.0120 -1.7911 -0.1364
11511TIP3   OH235414   9.492  10.486   3.945  0.4044 -0.3376  0.2886
11511TIP3    H135415   9.541  10.540   4.006  1.2796 -0.3266 -0.4175
11511TIP3    H235416   9.490  10.399   3.986 -0.3584  0.0307  1.0607
11512TIP3   OH235417   1.801   5.262   8.678  0.0272  0.3064  0.4646
11512TIP3    H135418   1.797   5.358   8.673 -0.5447  0.3785  1.8088
11512TIP3    H235419   1.771   5.232   8.593 -0.6291  1.3166  0.3245
11513TIP3   OH235420   1.982   5.140   4.120  0.4735  0.5176  0.0824
11513TIP3    H135421   2.062   5.090   4.140  0.0821 -0.7144 -1.2394
11513TIP3    H235422   1.920   5.074   4.089  0.2209  1.9104 -2.6104
11514TIP3   OH235423   8.355   3.514   1.851  0.6306 -0.4253 -0.0197
11514TIP3    H135424   8.413   3.524   1.927  0.1940  1.2582  0.1418
11514TIP3    H235425   8.329   3.422   1.852 -1.0495 -0.0616  3.1444
11515TIP3   OH235426   9.462   7.483   8.102 -0.0352 -0.0904 -0.4015
11515TIP3    H135427   9.391   7.465   8.164  0.3027  1.3162  0.4569
11515TIP3    H235428   9.430   7.450   8.018 -0.8476 -1.2980  0.3559
11516TIP3   OH235429   5.821   3.147   9.048 -0.6120 -0.2599 -0.0325
11516TIP3    H135430   5.819   3.106   8.962  0.3249 -0.7719  0.1718
11516TIP3    H235431   5.808   3.240   9.031 -0.2982 -0.3406 -0.7435
11517TIP3   OH235432   6.890   1.305   3.233  1.0433  0.1677 -0.3201
11517TIP3    H135433   6.839   1.323   3.154 -0.9683  1.0782  1.1028
11517TIP3    H235434   6.825   1.277   3.297  2.5259  0.1382  1.2360
11518TIP3   OH235435   8.480   6.401   7.780  0.0800 -0.8276  0.0585
11518TIP3    H135436   8.436   6.486   7.771  1.7683  0.0522 -0.2380
11518TIP3    H235437   8.446   6.365   7.862 -0.5805  0.1744  0.2474
11519TIP3   OH235438   8.559   2.101   2.288  0.4016 -0.7393  0.3472
11519TIP3    H135439   8.604   2.184   2.273  0.2642 -0.9216 -1.2498
11519TIP3    H235440   8.471   2.126   2.315  0.4323 -0.3717  0.1123
11520TIP3   OH235441  10.019   5.774  10.129  0.1997 -0.1541 -0.2962
11520TIP3    H135442  10.110   5.754  10.149  0.0190 -0.7224 -0.0277
11520TIP3    H235443   9.969   5.737  10.202 -0.3436 -0.8960 -1.0233
11521TIP3   OH235444   2.180   9.254   9.710 -1.5403  0.1818  0.4037
11521TIP3    H135445   2.115   9.309   9.667 -0.8595 -0.0268 -0.9339
11521TIP3    H235446   2.222   9.206   9.639 -0.7513 -0.5927  1.3581
11522TIP3   OH235447   2.596   5.311   7.377  0.2667  0.7433  0.5304
11522TIP3    H135448   2.591   5.228   7.330 -0.3858 -0.3721  2.4995
11522TIP3    H235449   2.672   5.355   7.338 -0.4621  0.0774 -1.8110
11523TIP3   OH235450   7.289   6.477   9.944 -0.5328  0.2880 -0.3933
11523TIP3    H135451   7.364   6.520   9.985  1.0978 -1.6007 -1.2109
11523TIP3    H235452   7.310   6.476   9.851 -1.0455 -1.2034 -0.5167
11524TIP3   OH235453   1.724   9.566  10.193 -0.0064  0.4371 -0.2184
11524TIP3    H135454   1.648   9.599  10.145 -1.5590 -0.9857  1.1240
11524TIP3    H235455   1.703   9.474  10.210  1.9661  0.0494  0.3268
11525TIP3   OH235456   2.528   7.545   7.156 -0.0399  0.0860  0.5593
11525TIP3    H135457   2.511   7.610   7.225  0.4173 -1.4547  2.1996
11525TIP3    H235458   2.444   7.536   7.111  0.3357  3.1666 -1.0434
11526TIP3   OH235459   7.658   5.257   9.944  0.7324  0.3180 -0.4220
11526TIP3    H135460   7.650   5.215  10.030 -1.6295  0.8653 -0.3050
11526TIP3    H235461   7.753   5.267   9.931  1.1660  0.1470  2.0620
11527TIP3   OH235462   2.122   5.413   3.494  0.3411  0.0854 -0.0695
11527TIP3    H135463   2.091   5.493   3.452 -0.4648 -0.5687 -0.7477
11527TIP3    H235464   2.125   5.435   3.588  0.3485  0.9746 -0.2705
11528TIP3   OH235465   2.664  10.001   1.343  0.3992 -0.1371 -0.0938
11528TIP3    H135466   2.658   9.909   1.320  0.9132 -0.5251  1.2303
11528TIP3    H235467   2.610  10.010   1.422 -0.3278  0.8841 -0.6686
11529TIP3   OH235468   8.531   5.517   2.414 -0.3743  0.4272 -0.1591
11529TIP3    H135469   8.481   5.521   2.495  2.4217  1.4918  1.6838
11529TIP3    H235470   8.549   5.424   2.401  0.6273  0.3571  1.4827
11530TIP3   OH235471   6.355  10.558   9.891 -0.6898 -0.1380 -0.3251
11530TIP3    H135472   6.306  10.481   9.861  0.4545 -1.1020  0.1851
11530TIP3    H235473   6.438  10.522   9.923 -0.1808  1.3083  0.0413
11531TIP3   OH235474   6.291   6.860   3.509 -0.1519 -0.1432  0.0288
11531TIP3    H135475   6.322   6.800   3.577 -1.2157 -0.5298  0.1803
11531TIP3    H235476   6.268   6.940   3.556  2.2507  0.8251 -0.2867
11532TIP3   OH235477   5.283   0.407   6.367 -0.0260  0.6083  0.3067
11532TIP3    H135478   5.220   0.405   6.440 -0.4034  1.3637  0.0054
11532TIP3    H235479   5.354   0.462   6.399 -0.8745  2.1779 -0.4286
11533TIP3   OH235480   7.124   0.195   5.988  0.1062  0.2589 -0.4560
11533TIP3    H135481   7.042   0.156   6.019  0.3800 -0.7432 -0.9593
11533TIP3    H235482   7.098   0.282   5.956 -0.5785  0.3611  0.3295
11534TIP3   OH235483  10.809   1.890   3.372  0.0465 -0.1915  0.2417
11534TIP3    H135484  10.837   1.981   3.384 -1.3259  0.2274  0.4831
11534TIP3    H235485  10.762   1.890   3.288 -1.7414 -0.1808  1.1897
11535TIP3   OH235486   0.119   7.662   9.788 -0.3157  0.2999 -0.5607
11535TIP3    H135487   0.064   7.684   9.863 -1.1186 -2.5296 -0.2337
11535TIP3    H235488   0.206   7.649   9.825 -0.7837 -1.4576  0.0146
11536TIP3   OH235489   1.306   2.338   4.682  0.0815 -0.5912 -0.0817
11536TIP3    H135490   1.246   2.263   4.682 -1.4033  0.5410  0.6527
11536TIP3    H235491   1.272   2.395   4.613 -0.4136  0.5825  1.0825
11537TIP3   OH235492  10.603   6.698   4.094 -0.0697 -0.0701 -0.9396
11537TIP3    H135493  10.563   6.705   4.181  2.5498  1.8411  0.2566
11537TIP3    H235494  10.583   6.609   4.066  0.1014 -1.2655  2.2675
11538TIP3   OH235495   4.698   7.242   2.340  0.7095  0.5180  0.3696
11538TIP3    H135496   4.782   7.214   2.305  1.1399  2.6624 -0.4600
11538TIP3    H235497   4.717   7.269   2.430  0.4806 -0.7782  0.8388
11539TIP3   OH235498   7.085   0.769   9.102 -0.0066 -0.3008 -0.0402
11539TIP3    H135499   7.124   0.833   9.043 -0.7498 -0.1550 -0.3770
11539TIP3    H235500   7.015   0.727   9.051 -0.8338  0.0136  0.7971
11540TIP3   OH235501   8.035   8.605   5.730 -0.2688  0.2765 -0.3811
11540TIP3    H135502   7.960   8.656   5.759 -1.9309 -1.2004 -1.7801
11540TIP3    H235503   8.051   8.542   5.800 -1.0342 -0.0583 -0.4965
11541TIP3   OH235504   9.577   2.270  10.893  0.1896 -0.3872  0.0873
11541TIP3    H135505   9.660   2.226  10.875  0.3527 -0.3244  0.6758
11541TIP3    H235506   9.584   2.354  10.849 -0.4967 -1.2899 -1.8714
11542TIP3   OH235507   2.551   4.520   2.171 -0.6406  0.3573 -0.3671
11542TIP3    H135508   2.629   4.548   2.219  0.5733 -0.8577 -1.5342
11542TIP3    H235509   2.491   4.594   2.176  0.1824  0.9546  1.4083
11543TIP3   OH235510   0.591   2.201   3.757  0.1853 -0.7095  0.0014
11543TIP3    H135511   0.598   2.106   3.766 -0.5034 -0.6236  1.8337
11543TIP3    H235512   0.653   2.236   3.820 -2.0295  0.0105  1.9102
11544TIP3   OH235513   2.073   2.863   1.594  0.0140 -0.7990  0.2037
11544TIP3    H135514   2.079   2.941   1.538 -0.0840 -0.2458  0.9446
11544TIP3    H235515   2.149   2.810   1.570  1.5503  0.7235  1.4323
11545TIP3   OH235516   9.879   7.065   4.876 -0.1716 -0.0190  0.2677
11545TIP3    H135517   9.925   6.981   4.871  0.7730  0.3449  2.0973
11545TIP3    H235518   9.835   7.073   4.791  0.9866 -1.6260 -0.5394
11546TIP3   OH235519   5.418   9.761   8.639 -0.8156  0.2313  0.0387
11546TIP3    H135520   5.417   9.781   8.545  1.5026 -0.1721 -0.1349
11546TIP3    H235521   5.335   9.795   8.672 -1.4005  0.9576 -2.0399
11547TIP3   OH235522   7.736   3.780   1.388 -0.2437 -0.3286  0.0021
11547TIP3    H135523   7.791   3.724   1.444 -1.2383  0.1103  1.4858
11547TIP3    H235524   7.685   3.832   1.450 -1.1722  0.4124 -1.3465
11548TIP3   OH235525   9.623   0.425   2.837 -1.0192 -1.1040  0.2062
11548TIP3    H135526   9.671   0.463   2.911  1.5876 -0.1754 -1.8006
11548TIP3    H235527   9.667   0.341   2.821 -1.3732 -1.1666 -0.4560
11549TIP3   OH235528   3.419   6.400   5.270 -0.0665 -0.5979  0.2529
11549TIP3    H135529   3.357   6.356   5.211 -0.0636  1.4333 -1.3477
11549TIP3    H235530   3.489   6.335   5.283 -0.1882 -1.1964 -1.7937
11550TIP3   OH235531   3.814  10.513   2.201 -0.1142 -0.1342 -0.0970
11550TIP3    H135532   3.785  10.512   2.292 -1.1223 -0.2059 -0.4063
11550TIP3    H235533   3.802  10.423   2.171  0.5489 -0.1909 -0.2082
11551TIP3   OH235534   5.999   7.101   6.393  0.5154 -0.9243 -0.0305
11551TIP3    H135535   6.090   7.091   6.420  0.3676  0.2875  0.9811
11551TIP3    H235536   5.987   7.034   6.326  2.3824 -0.5776 -0.7750
11552TIP3   OH235537   9.332   7.328   5.830  0.6459 -0.7224  0.2025
11552TIP3    H135538   9.362   7.398   5.773  0.2011  0.2487  1.1278
11552TIP3    H235539   9.404   7.265   5.832  0.3002 -1.3235 -2.2209
11553TIP3   OH235540   2.613   1.199   6.125  0.0922  0.0256  0.3290
11553TIP3    H135541   2.614   1.277   6.070 -1.3107 -0.2192 -0.0780
11553TIP3    H235542   2.663   1.134   6.075  0.3435  0.3358  0.1747
11554TIP3   OH235543   6.102   8.007   2.222 -0.0320 -0.0038 -0.1318
11554TIP3    H135544   6.094   8.090   2.269 -0.8466  0.6965 -1.4493
11554TIP3    H235545   6.156   8.027   2.146  0.1353 -0.8009 -0.2396
11555TIP3   OH235546   2.668   3.888   8.578  0.0463  0.8076 -0.1896
11555TIP3    H135547   2.674   3.964   8.520  0.3033  0.4857 -0.5894
11555TIP3    H235548   2.620   3.823   8.528  2.9631 -0.6337 -1.3453
11556TIP3   OH235549   9.655   1.690   7.855 -0.5414 -0.3879  0.2163
11556TIP3    H135550   9.588   1.623   7.838 -1.3565  0.0596  1.4885
11556TIP3    H235551   9.609   1.756   7.907  0.8565  0.0089  0.9890
11557TIP3   OH235552   8.752   7.123   6.448  0.0194 -0.4532 -0.4771
11557TIP3    H135553   8.840   7.136   6.412 -0.0873 -0.0297 -0.5861
11557TIP3    H235554   8.720   7.044   6.404  0.4326 -0.7407 -0.2667
11558TIP3   OH235555   7.696   8.019   2.087 -0.3186  0.3691 -0.0153
11558TIP3    H135556   7.722   8.037   2.177  0.7426  0.9348 -0.4178
11558TIP3    H235557   7.628   7.951   2.094  0.4921 -0.3457  1.1385
11559TIP3   OH235558   2.338   3.085   4.356 -0.6374  0.0837 -0.2293
11559TIP3    H135559   2.393   3.155   4.323 -0.1821 -0.4952 -0.7154
11559TIP3    H235560   2.366   3.007   4.308 -0.2922 -0.6885  1.1553
11560TIP3   OH235561   6.454   8.726   4.628 -0.0805 -0.4491  0.2511
11560TIP3    H135562   6.508   8.655   4.664 -0.5195 -1.4559 -0.9935
11560TIP3    H235563   6.498   8.750   4.547 -1.0116 -0.6805 -0.3347
11561TIP3   OH235564  10.404   2.688   7.689 -0.1847 -0.2807  0.3855
11561TIP3    H135565  10.396   2.638   7.608  0.4603  1.0493 -0.5250
11561TIP3    H235566  10.317   2.687   7.727 -0.1729 -2.1369  0.4367
11562TIP3   OH235567   1.839   1.235   3.626  0.0641  0.1821 -0.3246
11562TIP3    H135568   1.746   1.255   3.618  0.3660  0.7244 -4.0395
11562TIP3    H235569   1.878   1.268   3.545  3.2234 -1.5670  0.3149
11563TIP3   OH235570  10.416   0.302   8.945  0.2877 -0.4328 -0.4547
11563TIP3    H135571  10.396   0.257   8.863  2.6916  0.6202 -1.7115
11563TIP3    H235572  10.485   0.249   8.986  0.2628 -0.0530  0.0949
11564TIP3   OH235573   2.890  10.088   6.653  0.0066  0.1644  0.2594
11564TIP3    H135574   2.847  10.168   6.682 -1.9768 -0.8859  0.4024
11564TIP3    H235575   2.976  10.090   6.694  0.1322  2.3467 -0.0053
11565TIP3   OH235576   2.061   7.682   8.976 -0.3581  0.2058  0.1339
11565TIP3    H135577   2.079   7.776   8.981  0.2259  0.1114 -0.2305
11565TIP3    H235578   1.978   7.676   8.928  0.0957  0.4842 -0.6847
11566TIP3   OH235579   0.883   5.804   5.331  0.2768  0.6624 -0.8113
11566TIP3    H135580   0.821   5.743   5.371  2.8962 -1.7650 -0.0927
11566TIP3    H235581   0.844   5.827   5.247 -1.4960 -0.8877 -0.4761
11567TIP3   OH235582   8.122   0.835   1.224 -0.0850  0.0953  0.3454
11567TIP3    H135583   8.050   0.799   1.173 -0.5535 -0.0084  1.0675
11567TIP3    H235584   8.095   0.925   1.242 -0.6130 -0.2910  1.6341
11568TIP3   OH235585   7.990   4.828   4.092  0.4314  0.2442 -0.5666
11568TIP3    H135586   7.930   4.855   4.023  1.4323  1.0209 -1.1672
11568TIP3    H235587   7.934   4.806   4.166 -0.6921 -1.0104 -1.7399
11569TIP3   OH235588   7.205   0.963   0.538  0.0595  0.2542  0.4491
11569TIP3    H135589   7.241   1.040   0.493 -0.9692  1.8158  2.1894
11569TIP3    H235590   7.219   0.981   0.631 -1.1383 -1.1966  0.9410
11570TIP3   OH235591   8.202   9.627   7.000 -0.1276 -0.3249  0.0100
11570TIP3    H135592   8.129   9.632   6.938 -0.8870 -1.3821  0.7813
11570TIP3    H235593   8.168   9.574   7.072  0.6113  1.1988  1.5320
11571TIP3   OH235594   5.581   4.234   2.873 -0.1635 -0.4077  0.4015
11571TIP3    H135595   5.599   4.294   2.946 -0.3474 -0.0045  0.1170
11571TIP3    H235596   5.492   4.255   2.847 -0.7566 -1.7820  1.2239
11572TIP3   OH235597   9.098   5.348   5.857 -0.4849 -0.0673  0.1110
11572TIP3    H135598   9.165   5.414   5.875 -1.1667  1.2218 -1.7630
11572TIP3    H235599   9.016   5.395   5.860 -0.9474 -0.6689 -1.8536
11573TIP3   OH235600   7.792   3.732   4.538 -0.2494  0.0285 -0.2193
11573TIP3    H135601   7.706   3.748   4.577 -0.5576 -0.2578 -0.7704
11573TIP3    H235602   7.774   3.680   4.459  0.2552  1.4704 -1.3266
11574TIP3   OH235603   6.047   7.047   7.619  0.6603 -0.2244  0.3936
11574TIP3    H135604   6.018   7.120   7.565  0.3936 -1.4670 -1.2482
11574TIP3    H235605   6.077   7.087   7.700 -1.2544  1.5395  0.3272
11575TIP3   OH235606   4.700   5.967   9.374  0.6378  0.2940  0.1716
11575TIP3    H135607   4.744   5.884   9.394  2.0987  1.0165  0.0957
11575TIP3    H235608   4.607   5.944   9.367  1.0441 -1.3986 -0.1830
11576TIP3   OH235609   8.791   2.388   3.801 -0.1370 -0.5783  0.2460
11576TIP3    H135610   8.763   2.440   3.727  0.6970 -0.6046 -0.0993
11576TIP3    H235611   8.722   2.399   3.866 -0.1665  0.6365  0.0312
11577TIP3   OH235612   3.678   1.668   1.343 -0.3977  0.2840  0.4016
11577TIP3    H135613   3.760   1.624   1.366  1.1141  1.5274 -2.1088
11577TIP3    H235614   3.670   1.739   1.407 -0.1943 -0.6039  1.4302
11578TIP3   OH235615   5.211   3.612   5.336  0.3049  0.2971  0.4633
11578TIP3    H135616   5.172   3.686   5.383  1.3512 -0.5385  2.7775
11578TIP3    H235617   5.294   3.646   5.303  1.0268  0.0635  1.9693
11579TIP3   OH235618   8.099   2.445   2.329  0.0375 -0.6315  0.6056
11579TIP3    H135619   8.133   2.399   2.252 -1.1606 -0.9594  0.2415
11579TIP3    H235620   8.154   2.523   2.337  0.6460 -0.9707 -0.1405
11580TIP3   OH235621   7.868   8.085   3.763 -0.7890 -0.1681  0.4760
11580TIP3    H135622   7.864   8.056   3.672  1.3196  0.3126  0.1577
11580TIP3    H235623   7.788   8.136   3.776 -0.4955  0.9435 -1.5652
11581TIP3   OH235624   1.853   2.674   7.627 -1.1164  0.6775 -0.1311
11581TIP3    H135625   1.778   2.730   7.649 -0.7304  1.1209  0.0557
11581TIP3    H235626   1.930   2.729   7.642 -0.6539 -0.2884  1.3085
11582TIP3   OH235627  10.535   1.004   0.414 -0.1024  0.3968  0.1091
11582TIP3    H135628  10.527   1.052   0.496  1.1665 -0.4053  0.7338
11582TIP3    H235629  10.520   0.913   0.437  0.3378  0.1535 -0.5292
11583TIP3   OH235630   3.724   7.790   2.366 -0.4036  0.2145 -0.0393
11583TIP3    H135631   3.671   7.834   2.300  0.3373  0.6136 -0.3796
11583TIP3    H235632   3.770   7.721   2.318 -1.3430 -0.7695  0.4388
11584TIP3   OH235633   4.997   0.872   4.813 -0.4490 -0.0240  0.4167
11584TIP3    H135634   4.975   0.826   4.732 -0.9145  0.2627  0.3777
11584TIP3    H235635   5.058   0.813   4.858 -0.9288 -0.6122  0.3043
11585TIP3   OH235636  10.441   4.710   7.433 -0.6749 -0.3683 -0.1781
11585TIP3    H135637  10.372   4.664   7.481 -2.2220 -1.0268 -2.7819
11585TIP3    H235638  10.410   4.710   7.342  0.8373  2.9741 -0.8379
11586TIP3   OH235639   3.044   7.949   2.273 -0.0462  0.1437  0.2926
11586TIP3    H135640   3.023   7.870   2.222  2.0329  0.7486 -1.6725
11586TIP3    H235641   2.994   8.019   2.229 -0.1177  0.2839  0.5980
11587TIP3   OH235642   9.582   5.233   5.580  0.2406  0.1738  0.0632
11587TIP3    H135643   9.529   5.310   5.601 -0.6276 -0.5386  0.5982
11587TIP3    H235644   9.672   5.265   5.577 -0.1721  1.3334 -0.3927
11588TIP3   OH235645   8.633   9.604   8.127  0.4417 -0.8482  0.1825
11588TIP3    H135646   8.699   9.616   8.195 -0.6644 -3.6402  1.9148
11588TIP3    H235647   8.550   9.606   8.173 -0.4819 -0.8965 -1.3971
11589TIP3   OH235648   3.809   1.666  10.637  0.3326  0.3668 -0.2706
11589TIP3    H135649   3.754   1.732  10.596 -1.0324 -0.9333 -0.6514
11589TIP3    H235650   3.865   1.714  10.698  0.6266  2.0337 -1.8048
11590TIP3   OH235651   2.518   8.761   9.413  0.5743  0.0057 -0.7155
11590TIP3    H135652   2.459   8.723   9.477  0.7665 -0.8136 -1.0091
11590TIP3    H235653   2.583   8.808   9.465  1.0392 -1.0964 -0.2627
11591TIP3   OH235654   8.042   3.127   5.803 -0.1100  0.2724  0.3851
11591TIP3    H135655   8.045   3.170   5.717  0.4886 -1.3265 -0.4353
11591TIP3    H235656   8.117   3.067   5.802  0.4249  0.8385  2.3889
11592TIP3   OH235657   4.422   3.435   8.620 -0.0842 -0.5316  0.0246
11592TIP3    H135658   4.414   3.342   8.599  0.6186 -0.6233  0.1443
11592TIP3    H235659   4.501   3.463   8.573 -0.0041 -0.1177  0.4070
11593TIP3   OH235660  10.580   9.413   8.499 -0.1567  0.2799 -0.2524
11593TIP3    H135661  10.574   9.372   8.585  0.4186  1.9953  0.6464
11593TIP3    H235662  10.672   9.401   8.474 -0.7006 -1.8357 -1.5297
11594TIP3   OH235663   1.158   8.163   0.066 -0.0796  0.7448  0.1670
11594TIP3    H135664   1.128   8.254   0.069 -0.5079  0.6022  0.2384
11594TIP3    H235665   1.088   8.113   0.108  1.1516  0.6232  2.2057
11595TIP3   OH235666   5.378   8.057   7.659  0.2992  0.0731  0.4527
11595TIP3    H135667   5.418   7.978   7.696  0.7779 -0.3030 -0.8248
11595TIP3    H235668   5.288   8.032   7.641  0.1581  0.1546  1.0071
11596TIP3   OH235669   9.648   8.012   4.043  0.0852 -0.0321  0.5437
11596TIP3    H135670   9.690   8.098   4.040 -0.2424  0.1097 -1.3179
11596TIP3    H235671   9.674   7.975   4.127  1.5745  1.2091  0.6671
11597TIP3   OH235672   7.455   9.862   0.214 -0.1568 -0.1551  0.5397
11597TIP3    H135673   7.403   9.797   0.168 -0.6970 -0.5435  1.6726
11597TIP3    H235674   7.516   9.895   0.148  0.0066 -1.6707 -0.0957
11598TIP3   OH235675   3.021   8.184   4.883  0.4294 -0.0985 -0.4151
11598TIP3    H135676   3.056   8.223   4.802  0.4317  1.2692  0.2085
11598TIP3    H235677   2.926   8.190   4.873  0.4186 -0.5488 -0.5978
11599TIP3   OH235678   3.314   9.845   1.821  0.1157 -0.3427  0.0907
11599TIP3    H135679   3.347   9.763   1.783 -2.6910 -2.1329  1.1671
11599TIP3    H235680   3.259   9.883   1.753 -0.2797 -0.5154  0.3053
11600TIP3   OH235681   7.506   6.175   3.107 -0.0371  0.3082 -0.1779
11600TIP3    H135682   7.593   6.171   3.068 -0.1153  1.1521 -0.4522
11600TIP3    H235683   7.515   6.126   3.189  0.7845  0.6562 -0.0457
11601TIP3   OH235684   4.712   9.316   8.748  0.3692 -0.4249 -0.0422
11601TIP3    H135685   4.741   9.237   8.794  3.4101 -0.0520 -1.0611
11601TIP3    H235686   4.650   9.284   8.683  1.2270 -1.9516 -0.1680
11602TIP3   OH235687  10.744   0.137   9.236 -0.1890  0.2071 -0.2054
11602TIP3    H135688  10.766   0.084   9.313  0.8431 -0.1184 -0.7146
11602TIP3    H235689  10.828   0.161   9.198 -0.6799  0.7963 -0.9547
11603TIP3   OH235690   5.062   6.419  10.269 -0.2078  0.7445  0.0566
11603TIP3    H135691   4.976   6.377  10.259  0.0725  0.4321 -1.1273
11603TIP3    H235692   5.118   6.350  10.305 -0.0231  0.4179 -0.8399
11604TIP3   OH235693   3.620   0.161  10.171 -0.6950  0.3273 -0.4819
11604TIP3    H135694   3.634   0.189  10.262 -1.9564  1.9657 -0.7392
11604TIP3    H235695   3.650   0.236  10.119 -1.0800 -0.1355 -1.3800
11605TIP3   OH235696   7.292   3.050   2.930  0.0915  0.3183  0.2753
11605TIP3    H135697   7.313   3.035   3.023  0.3711 -0.3334  0.1125
11605TIP3    H235698   7.367   3.015   2.883  0.3369  1.4189 -0.1773
11606TIP3   OH235699   0.809   9.540   1.856 -0.0611 -0.3744  1.5582
11606TIP3    H135700   0.873   9.471   1.875  0.9038  0.2580  0.7336
11606TIP3    H235701   0.727   9.493   1.840  1.0926 -1.6612 -1.5776
11607TIP3   OH235702   4.493  10.868   4.654  0.4157  0.0457 -0.0970
11607TIP3    H135703   4.480  10.794   4.594 -1.1190  0.5307 -0.3877
11607TIP3    H235704   4.535  10.829   4.731  1.3349 -0.7879 -0.9781
11608TIP3   OH235705  10.621   6.237   0.787 -0.2608  0.2782 -0.1452
11608TIP3    H135706  10.608   6.306   0.722 -1.0012  0.6949  0.4319
11608TIP3    H235707  10.532   6.211   0.812  0.0179 -0.4094  0.1418
11609TIP3   OH235708   5.204   6.021   2.757  0.1776  0.0095  0.1085
11609TIP3    H135709   5.247   6.041   2.674 -0.9694 -0.1465 -0.5330
11609TIP3    H235710   5.245   6.081   2.820  2.1100 -0.8729 -0.2271
11610TIP3   OH235711   9.258   6.482   2.618  0.3743 -0.2131  0.6564
11610TIP3    H135712   9.212   6.439   2.547  0.8106 -1.1454  0.9287
11610TIP3    H235713   9.304   6.555   2.576  1.8231 -1.6203 -0.2790
11611TIP3   OH235714   5.321   2.489   9.923 -0.1022 -0.2161  0.3328
11611TIP3    H135715   5.263   2.537   9.982  1.8498  1.5003  0.9915
11611TIP3    H235716   5.306   2.529   9.837  0.4212  0.5696  0.5944
11612TIP3   OH235717   5.078   7.917   1.386 -0.0855  0.2575 -0.1127
11612TIP3    H135718   5.035   7.992   1.426 -1.4458  0.0355 -1.0991
11612TIP3    H235719   5.016   7.885   1.320  0.1583 -2.1152  0.6869
11613TIP3   OH235720   9.594   6.467   5.999 -0.1569  0.5768 -0.3834
11613TIP3    H135721   9.577   6.561   5.998  0.8850  0.8490  1.7705
11613TIP3    H235722   9.508   6.428   6.019 -0.5121  1.0959 -0.8803
11614TIP3   OH235723   3.879   1.391   2.202 -0.0103  0.6694  0.2273
11614TIP3    H135724   3.887   1.409   2.296 -0.7656  1.8462  0.0798
11614TIP3    H235725   3.968   1.370   2.175  0.2253  0.3304  1.1920
11615TIP3   OH235726   5.114   4.322   5.695  0.3247 -0.8836  0.3065
11615TIP3    H135727   5.104   4.415   5.713  2.0541 -0.9981  2.2033
11615TIP3    H235728   5.161   4.318   5.612 -1.0339 -0.1420 -0.5390
11616TIP3   OH235729   9.434   4.297   5.250  0.0964  0.5445  0.2894
11616TIP3    H135730   9.523   4.296   5.286  0.1194  0.0322  0.2196
11616TIP3    H235731   9.445   4.277   5.157 -0.0358  1.1331  0.1426
11617TIP3   OH235732   3.626   4.080   2.570 -0.0596 -0.1912  0.3585
11617TIP3    H135733   3.651   4.043   2.485  0.9127 -2.3166  1.4769
11617TIP3    H235734   3.704   4.126   2.600  1.2501 -3.0997  1.8951
11618TIP3   OH235735   0.645   2.284   0.295  0.0826  0.7153  0.1467
11618TIP3    H135736   0.623   2.369   0.257 -2.4501 -0.1888 -0.6061
11618TIP3    H235737   0.572   2.264   0.354 -0.8558 -2.1153 -1.7481
11619TIP3   OH235738   7.081   7.444   4.520  0.3805 -0.2066  0.5243
11619TIP3    H135739   7.170   7.461   4.489 -0.4370  0.6897 -1.4802
11619TIP3    H235740   7.057   7.522   4.570  0.3713 -0.0086  0.2116
11620TIP3   OH235741   6.271   1.734   8.583 -0.0502  0.0049  0.1996
11620TIP3    H135742   6.205   1.784   8.632 -0.5204 -0.0659 -0.3488
11620TIP3    H235743   6.219   1.680   8.523  0.5750  1.3543 -1.6086
11621TIP3   OH235744   9.825   5.909   0.414  0.1260 -0.5609  0.3934
11621TIP3    H135745   9.817   5.980   0.351  2.1072  1.0050  1.7970
11621TIP3    H235746   9.735   5.877   0.425 -0.3954 -0.3903 -2.5581
11622TIP3   OH235747   8.101   0.895   8.779  0.0219  0.2166  0.3382
11622TIP3    H135748   8.196   0.901   8.768  0.2458  0.1863  2.0008
11622TIP3    H235749   8.085   0.803   8.801 -0.2694  0.4106  0.9775
11623TIP3   OH235750  10.575   8.233  10.407  0.0550  0.4466 -0.5390
11623TIP3    H135751  10.636   8.180  10.458 -0.0952 -0.7171 -1.5409
11623TIP3    H235752  10.581   8.320  10.447  0.2584 -0.3090  1.1857
11624TIP3   OH235753   5.223   2.496   8.348 -0.0698  0.1913 -0.3481
11624TIP3    H135754   5.316   2.515   8.361 -0.4033  2.1524 -0.5941
11624TIP3    H235755   5.192   2.467   8.435  0.6871 -0.2226 -0.2079
11625TIP3   OH235756   2.127   9.385   0.904  0.2787 -0.0762 -0.8044
11625TIP3    H135757   2.167   9.302   0.878  0.4235 -0.4174  0.4752
11625TIP3    H235758   2.201   9.443   0.921  0.1827  0.1401 -1.1108
11626TIP3   OH235759   2.449   0.429  10.167  0.2241 -0.5931  0.1913
11626TIP3    H135760   2.390   0.487  10.216 -0.9957 -0.7606 -1.0311
11626TIP3    H235761   2.532   0.435  10.214 -0.4719  0.4535  1.3610
11627TIP3   OH235762   7.422   3.654   0.624  0.2006 -0.1107  0.6781
11627TIP3    H135763   7.347   3.648   0.565  0.0481  1.0600  0.7237
11627TIP3    H235764   7.498   3.640   0.567 -0.0339 -1.3107  0.6348
11628TIP3   OH235765   0.274   4.234   1.253 -0.0746 -0.2952 -0.1941
11628TIP3    H135766   0.296   4.203   1.341 -0.6100  1.2838  0.5516
11628TIP3    H235767   0.342   4.298   1.233 -0.9584  0.6968 -0.1297
11629TIP3   OH235768   6.448   7.054   4.676  0.2314 -0.6250  0.5980
11629TIP3    H135769   6.519   7.015   4.727  1.2180  0.3844  0.0393
11629TIP3    H235770   6.491   7.090   4.598 -1.0081 -0.6801 -0.1433
11630TIP3   OH235771   6.653   7.459   5.795  0.0195  0.0190 -0.1714
11630TIP3    H135772   6.741   7.460   5.758 -0.1271  1.6947 -0.5554
11630TIP3    H235773   6.662   7.504   5.879  0.2882 -3.4541  1.8719
11631TIP3   OH235774   3.566   3.102   5.351 -0.6582  0.3004 -0.1488
11631TIP3    H135775   3.551   3.107   5.257  0.3482  1.5294 -0.2618
11631TIP3    H235776   3.554   3.191   5.383  0.4021  0.1795  0.6534
11632TIP3   OH235777   1.449   5.200   7.422 -0.2563 -0.5415  0.6560
11632TIP3    H135778   1.475   5.189   7.514  0.8564  0.0023  0.4237
11632TIP3    H235779   1.405   5.285   7.420  1.3225  0.3158  0.3911
11633TIP3   OH235780   3.751   1.744   9.812  0.2141  0.3976 -0.4120
11633TIP3    H135781   3.659   1.760   9.836  0.2536  1.7657 -1.0980
11633TIP3    H235782   3.800   1.814   9.855  0.6977  0.8077 -1.5881
11634TIP3   OH235783  10.425   6.918   2.884 -0.6837  0.0662 -0.0150
11634TIP3    H135784  10.361   6.989   2.879  0.6459  1.4102  1.0536
11634TIP3    H235785  10.506   6.957   2.851  0.0541 -0.9899  0.5149
11635TIP3   OH235786   3.569   3.138  10.059 -0.2790  0.6633  0.4681
11635TIP3    H135787   3.636   3.166   9.996 -0.9286  1.2259  0.0209
11635TIP3    H235788   3.611   3.150  10.144  0.3772  0.5102  0.1722
11636TIP3   OH235789   6.106  10.124   4.084 -0.3441 -0.3739 -0.1342
11636TIP3    H135790   6.083  10.132   4.177 -0.5523  0.2707 -0.2336
11636TIP3    H235791   6.134  10.033   4.074 -3.5217 -1.5069 -0.1173
11637TIP3   OH235792   3.062   1.041  10.174  0.2072  0.0920 -0.1153
11637TIP3    H135793   3.075   1.112  10.112  3.3488 -0.4757 -0.2560
11637TIP3    H235794   3.060   0.962  10.120  3.4336 -0.4546  0.3885
11638TIP3   OH235795   8.394   6.954   8.700  0.0086  0.7113 -0.3508
11638TIP3    H135796   8.335   6.915   8.764  2.3068  0.0073  1.5089
11638TIP3    H235797   8.378   6.904   8.620 -2.0404  0.7312  0.0023
11639TIP3   OH235798   5.611   1.027   2.040 -0.3296 -0.2338 -0.2474
11639TIP3    H135799   5.613   1.064   2.129  2.3541  0.1452 -0.3774
11639TIP3    H235800   5.541   1.075   1.996  0.3458  1.8777  0.7954
11640TIP3   OH235801  10.894   4.738  10.655  0.0777  0.1425 -0.7460
11640TIP3    H135802  10.962   4.805  10.655 -0.1008  0.4277  1.7569
11640TIP3    H235803  10.822   4.777  10.605 -0.3333  2.2644  1.3247
11641TIP3   OH235804   2.818   6.664   2.056  0.4973 -0.4615  0.1599
11641TIP3    H135805   2.771   6.680   2.138 -0.7774 -0.5012 -0.5362
11641TIP3    H235806   2.904   6.704   2.070  0.3326 -0.5163  1.5292
11642TIP3   OH235807   7.491   8.240   5.111 -0.1473 -0.1977  0.0484
11642TIP3    H135808   7.451   8.323   5.086 -1.2724 -1.3403 -2.3058
11642TIP3    H235809   7.476   8.183   5.035  1.1850 -2.3458  1.3069
11643TIP3   OH235810   8.813   0.469   5.834  0.3301 -0.4382 -0.1620
11643TIP3    H135811   8.746   0.492   5.770  0.3924  0.5787  0.1252
11643TIP3    H235812   8.881   0.425   5.783 -1.0913 -2.6626 -0.2656
11644TIP3   OH235813   6.581   4.749   6.301  0.4041 -0.2733 -0.3860
11644TIP3    H135814   6.497   4.703   6.298  0.5501 -0.4994 -1.3354
11644TIP3    H235815   6.563   4.827   6.355 -1.2755  1.3064 -2.9803
11645TIP3   OH235816   2.821   8.478   7.750  0.3191  0.4931 -0.5906
11645TIP3    H135817   2.819   8.391   7.710 -0.7042  0.5876 -0.7679
11645TIP3    H235818   2.891   8.524   7.704  0.8098 -0.2040 -0.5550
11646TIP3   OH235819   5.014   2.423   7.875 -0.9418  0.0939  0.8079
11646TIP3    H135820   5.093   2.381   7.839 -1.4839  1.2935 -2.0906
11646TIP3    H235821   4.987   2.365   7.946  2.5160 -0.3651  1.9586
11647TIP3   OH235822   4.473  10.365   0.705 -0.0490 -0.3081  0.3719
11647TIP3    H135823   4.508  10.452   0.720 -0.3674  0.0510 -0.8191
11647TIP3    H235824   4.537  10.323   0.648 -0.2195 -0.6070  0.3966
11648TIP3   OH235825  10.406   8.536   0.586  0.5213 -0.5661 -0.3576
11648TIP3    H135826  10.325   8.568   0.627 -1.0995 -1.2801 -2.7463
11648TIP3    H235827  10.464   8.612   0.587 -0.7801  0.4684  0.0041
11649TIP3   OH235828  10.656   8.064   9.228  0.0721  0.9070  0.2255
11649TIP3    H135829  10.665   7.980   9.272 -1.1594 -0.1728 -1.4487
11649TIP3    H235830  10.574   8.100   9.262  0.9873  1.8498  1.5271
11650TIP3   OH235831   7.613   7.414   9.224 -0.2222  0.3387 -0.1848
11650TIP3    H135832   7.550   7.463   9.170 -1.4224  0.6369  1.4168
11650TIP3    H235833   7.637   7.339   9.170 -1.1197  0.7994 -1.2656
11651TIP3   OH235834  10.544   6.457   4.930 -0.1259 -0.4102 -0.2425
11651TIP3    H135835  10.545   6.411   4.846 -2.0595  0.7596 -0.9617
11651TIP3    H235836  10.455   6.492   4.938  0.5092  0.9743  1.4871
11652TIP3   OH235837   7.554   5.176   0.885  0.3180 -0.0565  0.2170
11652TIP3    H135838   7.635   5.149   0.840  0.1910 -0.6431  0.3233
11652TIP3    H235839   7.533   5.101   0.941 -0.2320  0.1466  0.2823
11653TIP3   OH235840   6.382   5.788   9.628  0.4625 -0.4284 -0.0602
11653TIP3    H135841   6.383   5.737   9.546 -1.0668 -0.4296 -0.1187
11653TIP3    H235842   6.414   5.727   9.694 -2.8732 -2.1795  0.1867
11654TIP3   OH235843   1.279   6.856   8.393  0.4624 -0.1012  0.0739
11654TIP3    H135844   1.286   6.890   8.482 -0.1501 -0.7464  0.3723
11654TIP3    H235845   1.346   6.905   8.344  0.4390  0.6428  0.7583
11655TIP3   OH235846   0.058   3.000   4.848 -0.0275 -0.4945  0.1941
11655TIP3    H135847   0.104   3.081   4.825 -0.0506 -0.6787 -0.5265
11655TIP3    H235848   0.080   2.939   4.777 -1.5828 -0.5022 -0.3183
11656TIP3   OH235849  10.145   2.831   6.418 -0.6948  0.0067  0.4597
11656TIP3    H135850  10.136   2.771   6.493  1.2652  0.0055  0.7473
11656TIP3    H235851  10.222   2.799   6.372 -0.5011  1.4307 -0.2319
11657TIP3   OH235852   7.045   7.716   5.098 -0.1153  0.1986 -0.1194
11657TIP3    H135853   7.121   7.771   5.113  0.1105  0.5279 -2.1667
11657TIP3    H235854   6.997   7.760   5.028 -1.4339 -0.7506  0.1383
11658TIP3   OH235855   7.735   9.392   5.523  0.4093 -0.1995  0.0564
11658TIP3    H135856   7.775   9.306   5.509 -0.3237 -0.7809  1.3086
11658TIP3    H235857   7.680   9.380   5.601  0.3267  1.4231  0.2780
11659TIP3   OH235858   8.823   0.012   9.354 -0.1422  0.1099  0.0182
11659TIP3    H135859   8.808   0.019   9.448  2.5074  1.1838  0.4635
11659TIP3    H235860   8.872  -0.070   9.344 -0.9670 -0.3214 -0.5203
11660TIP3   OH235861   3.788   2.133   7.092 -0.1503 -0.7786  0.2515
11660TIP3    H135862   3.793   2.111   6.999  0.6890 -1.5951  0.4767
11660TIP3    H235863   3.709   2.088   7.123  0.8144 -2.4554  0.4127
11661TIP3   OH235864   1.159   5.253   1.838  0.4448  0.3331 -0.5041
11661TIP3    H135865   1.185   5.257   1.930 -0.1911 -0.0772 -0.2982
11661TIP3    H235866   1.209   5.180   1.802 -0.8454 -0.8685  0.0486
11662TIP3   OH235867   2.822   4.623   7.077 -0.2470 -0.7632  0.5118
11662TIP3    H135868   2.739   4.648   7.118 -1.3542 -0.9990 -1.4516
11662TIP3    H235869   2.809   4.533   7.048  0.4275 -0.5691 -0.4589
11663TIP3   OH235870   5.608   0.077   4.964  0.4302  0.0035  0.1627
11663TIP3    H135871   5.675   0.063   4.898 -0.4203 -1.7740 -0.4192
11663TIP3    H235872   5.533   0.026   4.933  0.3576 -1.9060  3.0086
11664TIP3   OH235873   5.409   2.752   2.404  0.6093 -0.1860  0.1515
11664TIP3    H135874   5.439   2.754   2.495  0.1676 -0.7447  0.3147
11664TIP3    H235875   5.316   2.774   2.408  1.3123  3.5995 -0.5540
11665TIP3   OH235876   6.772  10.289   6.886 -0.0596 -0.0187  0.5880
11665TIP3    H135877   6.719  10.317   6.811  1.4030 -1.3704 -1.0637
11665TIP3    H235878   6.860  10.324   6.867 -0.0340  1.1811  2.6573
11666TIP3   OH235879   0.129   6.209   1.105 -0.0028  0.1324 -0.4170
11666TIP3    H135880   0.136   6.236   1.013  0.3067 -0.6778 -0.6391
11666TIP3    H235881   0.038   6.180   1.115  0.0005  0.0957 -0.4965
11667TIP3   OH235882   6.439   7.730   2.222 -0.4307  0.4114 -0.1528
11667TIP3    H135883   6.484   7.796   2.170 -2.4029  0.3592 -2.0503
11667TIP3    H235884   6.350   7.726   2.186 -0.1876 -3.9185 -0.8153
11668TIP3   OH235885   8.213   4.629   6.912  0.4964 -0.2497  0.1197
11668TIP3    H135886   8.172   4.544   6.896  1.6927 -0.6138 -1.3326
11668TIP3    H235887   8.199   4.646   7.005 -0.4618 -1.6572  0.2590
11669TIP3   OH235888   1.152   0.904   4.484  0.7859 -0.2258  0.0909
11669TIP3    H135889   1.077   0.865   4.440  0.4731  0.4626 -0.0056
11669TIP3    H235890   1.226   0.889   4.425  0.8503 -1.4179  0.4531
11670TIP3   OH235891   2.313   8.252   4.738 -0.1280  0.4570  0.0377
11670TIP3    H135892   2.291   8.322   4.676  1.7018  1.9140  0.9096
11670TIP3    H235893   2.392   8.212   4.702 -1.5850 -1.7715 -0.8523
11671TIP3   OH235894   0.325   5.037   6.221 -0.5457  0.1161 -0.5081
11671TIP3    H135895   0.407   4.988   6.223 -1.0156 -0.7392 -1.1559
11671TIP3    H235896   0.341   5.114   6.275  0.4306 -0.4319  0.0102
11672TIP3   OH235897   9.148   9.603   6.191 -0.2103  0.0148  0.0250
11672TIP3    H135898   9.075   9.542   6.188  1.3485 -1.9116 -1.3975
11672TIP3    H235899   9.182   9.605   6.102  2.4927 -0.5013  0.9482
11673TIP3   OH235900   5.891   8.154  10.829  0.0140 -0.2456  0.4380
11673TIP3    H135901   5.835   8.176  10.754 -0.6961  2.0595  1.5906
11673TIP3    H235902   5.837   8.094  10.882 -1.6427  2.2275  1.7245
11674TIP3   OH235903   9.985   9.387   1.753  0.0469  0.3224  0.0218
11674TIP3    H135904  10.031   9.366   1.835 -1.1918 -1.2200  0.3552
11674TIP3    H235905   9.901   9.342   1.760  0.1066 -0.2798 -2.3184
11675TIP3   OH235906   1.588   6.045   9.170 -0.1527 -0.2560 -0.2253
11675TIP3    H135907   1.512   6.101   9.154  0.7808  1.0126 -0.3273
11675TIP3    H235908   1.631   6.038   9.085 -0.1064 -0.9101 -0.1522
11676TIP3   OH235909   2.581   7.975   8.971  0.5862  0.6468  0.2321
11676TIP3    H135910   2.522   7.946   9.040  1.0911 -1.0847 -0.0230
11676TIP3    H235911   2.608   8.063   8.999 -1.3724  1.1348  0.7948
11677TIP3   OH235912   7.280   2.719   8.408  0.2407  0.5637  0.5321
11677TIP3    H135913   7.373   2.735   8.394  0.1824  0.5426  0.0979
11677TIP3    H235914   7.267   2.628   8.379  0.9679 -1.1601  4.7906
11678TIP3   OH235915   9.937   3.260   0.991 -0.5412  0.3327  0.3952
11678TIP3    H135916  10.032   3.255   0.985 -0.6438  0.3352 -2.5035
11678TIP3    H235917   9.912   3.334   0.936 -2.3082 -0.9194 -0.6042
11679TIP3   OH235918   9.376   5.771   1.434 -0.2156  0.1077  0.0745
11679TIP3    H135919   9.310   5.803   1.374  0.8576 -0.6726 -1.6049
11679TIP3    H235920   9.449   5.833   1.427  0.4340 -0.6878 -0.4474
11680TIP3   OH235921   9.640   6.503   3.772 -0.5801 -0.2023 -0.5652
11680TIP3    H135922   9.616   6.425   3.722 -1.1315  0.0963 -0.7681
11680TIP3    H235923   9.707   6.546   3.719 -1.1669  0.1159 -1.0628
11681TIP3   OH235924   3.768   8.480   6.167 -0.6447 -0.3315  0.0990
11681TIP3    H135925   3.769   8.392   6.205 -0.3927 -1.1369 -1.6613
11681TIP3    H235926   3.688   8.520   6.199 -1.3026 -1.6041  0.0895
11682TIP3   OH235927  10.460   2.459   2.360 -0.9178  0.6922 -0.0372
11682TIP3    H135928  10.374   2.423   2.382 -0.4721  0.4858  1.5001
11682TIP3    H235929  10.512   2.447   2.440  0.9781 -0.4398 -1.3785
11683TIP3   OH235930   1.894   3.063   5.574 -0.0377  0.4700  0.2253
11683TIP3    H135931   1.838   3.140   5.570  0.3425  0.7659  0.6072
11683TIP3    H235932   1.958   3.076   5.504  0.2463  0.6714  0.5233
11684TIP3   OH235933   5.443   2.641   5.478 -0.0706 -0.1489  0.8211
11684TIP3    H135934   5.445   2.556   5.520  1.3839 -0.4974  0.1356
11684TIP3    H235935   5.528   2.681   5.499 -0.2951  0.6755  0.2579
11685TIP3   OH235936   2.323   7.848   6.047  0.2758  0.3814  0.0531
11685TIP3    H135937   2.370   7.908   6.105  0.0399  1.4568 -0.8354
11685TIP3    H235938   2.378   7.769   6.044  0.6087  0.5608  1.2105
11686TIP3   OH235939   9.367   2.683   5.651  0.2868  0.2735  0.0291
11686TIP3    H135940   9.459   2.707   5.662  0.4381 -0.4444  0.4664
11686TIP3    H235941   9.363   2.591   5.678 -0.7043  0.5175  0.8234
11687TIP3   OH235942   3.391   0.702   2.290 -0.5069 -0.4950 -0.1639
11687TIP3    H135943   3.391   0.797   2.300  0.2258 -0.5153  0.0161
11687TIP3    H235944   3.460   0.684   2.226  0.7593 -1.0715  1.3255
11688TIP3   OH235945   4.896   8.684   5.810  0.1747  0.6392 -0.5413
11688TIP3    H135946   4.894   8.738   5.731 -1.3081  0.1497 -0.8593
11688TIP3    H235947   4.953   8.610   5.787  0.5159  0.9803 -0.8141
11689TIP3   OH235948   1.136   4.563   5.704 -0.2013  0.1309 -0.1503
11689TIP3    H135949   1.191   4.544   5.780  0.9698 -0.4293 -1.1026
11689TIP3    H235950   1.089   4.643   5.728  0.6001  0.3021  0.9280
11690TIP3   OH235951   0.465   9.814   3.248  0.6649  0.2251  0.6306
11690TIP3    H135952   0.506   9.736   3.212 -0.2121 -0.2968  0.7469
11690TIP3    H235953   0.432   9.861   3.171 -0.4905 -0.4833  0.6785
11691TIP3   OH235954   3.628   5.395   3.891  0.3895  0.0234 -0.0900
11691TIP3    H135955   3.629   5.322   3.952 -0.0689 -0.5629 -0.7592
11691TIP3    H235956   3.714   5.437   3.902  1.2315 -1.4577 -0.6701
11692TIP3   OH235957   8.754   0.746   2.530 -0.0674  0.3094 -0.1110
11692TIP3    H135958   8.792   0.786   2.451  1.4104  0.0567  0.4244
11692TIP3    H235959   8.828   0.741   2.591 -0.8205 -0.8985  0.7421
11693TIP3   OH235960   8.637   3.750   8.586 -0.2796  0.2019 -0.1238
11693TIP3    H135961   8.706   3.768   8.522  0.3846 -1.0153  0.2254
11693TIP3    H235962   8.619   3.835   8.627  0.3391  0.7050 -0.8706
11694TIP3   OH235963  10.530   3.047   9.663 -0.4071 -0.2401 -0.0279
11694TIP3    H135964  10.585   3.047   9.584  1.2222 -0.3116  1.0751
11694TIP3    H235965  10.540   3.135   9.699 -1.8936  0.0976 -0.3630
11695TIP3   OH235966   2.324   3.410   6.626  0.4879  0.2786  0.5405
11695TIP3    H135967   2.310   3.388   6.534 -1.6849 -3.5864  1.5692
11695TIP3    H235968   2.413   3.379   6.645 -0.3532 -2.4628  0.4575
11696TIP3   OH235969   1.338   2.548   0.295  0.0067 -0.5269 -0.1621
11696TIP3    H135970   1.342   2.471   0.351 -1.6071 -0.5862 -0.0862
11696TIP3    H235971   1.311   2.619   0.353  1.7835  0.2068 -0.1612
11697TIP3   OH235972   3.416   7.209   1.891  0.2618 -0.6069  0.5251
11697TIP3    H135973   3.433   7.164   1.809 -1.3606 -1.5837  0.6798
11697TIP3    H235974   3.501   7.243   1.918  1.1716 -1.8838 -0.5929
11698TIP3   OH235975   7.867   4.447   8.008  0.5920 -0.6427  0.3345
11698TIP3    H135976   7.851   4.530   8.053  0.5772 -1.2642  1.5103
11698TIP3    H235977   7.801   4.443   7.939  1.3375  0.8638 -0.5042
11699TIP3   OH235978   3.804   9.732   3.549 -0.3910 -0.4050  0.0401
11699TIP3    H135979   3.753   9.658   3.515  0.8491 -1.0859 -0.4324
11699TIP3    H235980   3.833   9.703   3.635 -0.3356 -0.2708  0.0664
11700TIP3   OH235981   4.661   5.070  10.042  0.3055  0.1780 -0.1032
11700TIP3    H135982   4.575   5.029  10.030  0.3064  0.2096 -0.2187
11700TIP3    H235983   4.650   5.159  10.009 -0.5755  1.3220  2.9323
11701TIP3   OH235984   3.918   3.399   2.123  0.5299 -0.1582  0.4065
11701TIP3    H135985   3.823   3.404   2.106  0.2859 -0.7469  1.5070
11701TIP3    H235986   3.942   3.488   2.149 -0.1835 -0.4631  2.2752
11702TIP3   OH235987   0.513   5.520   9.264  0.4323  0.1712  0.2662
11702TIP3    H135988   0.466   5.595   9.227 -1.8319 -0.9674  0.6835
11702TIP3    H235989   0.605   5.538   9.246 -0.2542  1.7348 -2.0301
11703TIP3   OH235990   4.902   4.942   2.190 -0.3143  0.2516  0.2744
11703TIP3    H135991   4.918   4.954   2.284  1.2704 -0.5745  0.1513
11703TIP3    H235992   4.835   4.875   2.184 -0.5558  0.4436  0.8136
11704TIP3   OH235993   1.165   7.862   2.909 -0.0294 -0.0761 -0.1092
11704TIP3    H135994   1.226   7.863   2.982 -0.3893  3.1958  0.3009
11704TIP3    H235995   1.220   7.861   2.831  0.5287  1.1602  0.2513
11705TIP3   OH235996   9.538   9.940   3.199  0.3700 -0.4070 -0.3039
11705TIP3    H135997   9.576   9.882   3.266 -2.6783 -1.0389  1.0204
11705TIP3    H235998   9.480   9.883   3.149 -1.8742  1.1739  0.3352
11706TIP3   OH235999   7.118   3.837   7.034 -0.3168 -0.3885 -0.5117
11706TIP3    H136000   7.060   3.855   7.108 -0.3064  0.0719 -0.6111
11706TIP3    H236001   7.191   3.787   7.072  0.6310  1.4117  0.1702
11707TIP3   OH236002   1.892   6.059   6.904  0.4357 -0.1930 -0.4187
11707TIP3    H136003   1.889   6.121   6.832  1.0806  1.3943  0.8520
11707TIP3    H236004   1.846   6.103   6.976  1.4623 -0.8986  0.7169
11708TIP3   OH236005   1.423   9.416   3.891 -0.5001 -0.2522 -0.2641
11708TIP3    H136006   1.444   9.344   3.831  1.8676  0.2258 -0.0874
11708TIP3    H236007   1.390   9.372   3.970  1.1955 -1.2075 -0.0399
11709TIP3   OH236008   0.624   2.418   6.255  0.4213 -0.5039 -0.3308
11709TIP3    H136009   0.663   2.494   6.211 -0.7594  0.0076 -0.5524
11709TIP3    H236010   0.685   2.347   6.239  0.7529  0.0236 -1.5329
11710TIP3   OH236011  10.296   4.133   4.007 -0.3666  0.1689  0.2087
11710TIP3    H136012  10.246   4.192   3.952  1.1400  2.0739  0.7992
11710TIP3    H236013  10.261   4.147   4.095  0.8830  1.2140  0.5595
11711TIP3   OH236014   3.201   3.295   6.971  0.0158 -0.3518  0.5620
11711TIP3    H136015   3.167   3.207   6.986  1.8306 -0.9175  1.6227
11711TIP3    H236016   3.152   3.350   7.032  0.7972 -1.1144  1.9116
11712TIP3   OH236017  10.132  10.447   7.769 -0.0161  0.3207 -0.2513
11712TIP3    H136018  10.132  10.355   7.797 -2.7498  0.9363  2.4356
11712TIP3    H236019  10.079  10.448   7.689  0.9563 -0.5493 -0.9191
11713TIP3   OH236020   2.170   6.617   0.886  0.2093  0.2169  0.1602
11713TIP3    H136021   2.082   6.642   0.916  0.6227  1.3571  0.4882
11713TIP3    H236022   2.166   6.628   0.791  0.2779  1.2747  0.2646
11714TIP3   OH236023   5.428   8.493   3.420  0.5675 -0.3521 -0.0903
11714TIP3    H136024   5.401   8.580   3.448  0.0301 -1.2542  2.5019
11714TIP3    H236025   5.356   8.461   3.367  0.2657  0.3624 -0.1212
11715TIP3   OH236026   0.681   0.284   3.250  0.1781 -0.3103  0.3310
11715TIP3    H136027   0.641   0.337   3.319  0.6296 -0.1390  0.4661
11715TIP3    H236028   0.613   0.222   3.224  1.0710 -3.0168  3.6160
11716TIP3   OH236029   0.134   1.180  10.156  0.8173 -0.3670  0.2175
11716TIP3    H136030   0.227   1.175  10.180  0.3399  0.1120  2.4734
11716TIP3    H236031   0.105   1.264  10.192 -0.5176 -0.5760 -0.3131
11717TIP3   OH236032   7.797   7.677   6.021 -0.7157 -0.3718  0.4820
11717TIP3    H136033   7.868   7.613   6.022 -0.4764 -0.1059  0.6131
11717TIP3    H236034   7.822   7.739   5.952 -0.9266 -0.3969  0.3826
11718TIP3   OH236035   1.174   7.746   4.882  0.4081  0.0831 -0.4119
11718TIP3    H136036   1.166   7.668   4.936  1.3651  0.5535  0.4394
11718TIP3    H236037   1.113   7.809   4.921 -0.3452 -0.1983 -1.0830
11719TIP3   OH236038   8.289   5.478   9.269 -0.2560  0.2627  0.0462
11719TIP3    H136039   8.314   5.417   9.339 -1.8951  1.2045  1.4993
11719TIP3    H236040   8.194   5.476   9.268 -0.3035  1.7731 -0.8252
11720TIP3   OH236041   6.134   2.893   9.039  0.1296  0.1640  0.1365
11720TIP3    H136042   6.050   2.921   9.002  0.1884  0.1961  0.0276
11720TIP3    H236043   6.145   2.803   9.008  0.5849  0.4708 -0.6369
11721TIP3   OH236044   2.065  10.715   7.925  0.1014 -0.2893 -0.1790
11721TIP3    H136045   2.057  10.640   7.865  1.8059 -0.5257 -0.1656
11721TIP3    H236046   2.122  10.684   7.995 -3.6331 -0.7728  2.9377
11722TIP3   OH236047   3.935   0.761   9.562 -0.0746  0.6133  0.1839
11722TIP3    H136048   3.936   0.804   9.648 -0.7542  2.4196 -0.6541
11722TIP3    H236049   3.846   0.726   9.553 -0.1726  0.8971  0.0168
11723TIP3   OH236050   2.071   0.072   4.718  0.1199 -0.4479 -0.1203
11723TIP3    H136051   2.124  -0.007   4.729  0.5338  0.0845  1.9900
11723TIP3    H236052   2.112   0.137   4.775 -0.9233  0.9542 -0.9094
11724TIP3   OH236053   1.930   5.885   2.579 -0.3392  0.4254  0.0713
11724TIP3    H136054   1.977   5.931   2.510 -0.6485  0.0182 -0.4113
11724TIP3    H236055   1.851   5.852   2.537 -0.3668 -0.1136  0.5370
11725TIP3   OH236056   0.307   1.885   8.239  0.3839 -0.2626  0.0373
11725TIP3    H136057   0.365   1.858   8.167 -1.3069 -3.7147 -0.2487
11725TIP3    H236058   0.363   1.882   8.316  1.7171  1.4294 -0.7823
11726TIP3   OH236059   7.942   8.743   7.257 -0.0914 -0.2034 -0.0000
11726TIP3    H136060   7.956   8.829   7.219 -0.9096  0.1056  0.3776
11726TIP3    H236061   7.970   8.682   7.188 -1.1797  0.3492 -0.9864
11727TIP3   OH236062   5.203   6.429   9.245 -0.7718  0.1112 -0.3033
11727TIP3    H136063   5.204   6.337   9.272  0.1897  0.4432  0.8984
11727TIP3    H236064   5.240   6.476   9.320  0.3649  1.2920 -1.5642
11728TIP3   OH236065   1.147   8.627   1.644  0.5195 -0.7493  0.4324
11728TIP3    H136066   1.202   8.693   1.686 -1.0870  0.3529  0.8956
11728TIP3    H236067   1.142   8.556   1.708 -0.3006  0.0610  1.2919
11729TIP3   OH236068  10.748   4.768   1.656 -0.0283  0.4222  0.0935
11729TIP3    H136069  10.756   4.754   1.562  0.8442  0.1711  0.1971
11729TIP3    H236070  10.826   4.818   1.679  0.3524 -0.5022  0.8649
11730TIP3   OH236071  10.570   0.093   5.831 -0.0655 -0.3160  0.8919
11730TIP3    H136072  10.639   0.027   5.829  1.4658  1.2080 -1.5683
11730TIP3    H236073  10.615   0.176   5.815 -2.0501  1.2565  2.8198
11731TIP3   OH236074   6.320   5.547   1.978  0.4183  0.0819 -0.4369
11731TIP3    H136075   6.283   5.629   2.012  1.0233 -0.4481  1.6577
11731TIP3    H236076   6.284   5.539   1.890 -2.2847  0.9602  0.4918
11732TIP3   OH236077  10.292   1.185   7.382  0.9588  0.1525  0.1875
11732TIP3    H136078  10.243   1.251   7.430  1.9738  1.4908 -0.5418
11732TIP3    H236079  10.382   1.217   7.382  1.2162 -0.4565 -1.4946
11733TIP3   OH236080   6.613  10.616   9.749  0.5977  0.1114  0.7716
11733TIP3    H136081   6.618  10.616   9.654 -0.2073 -0.7153  0.7129
11733TIP3    H236082   6.574  10.700   9.772  0.6311  0.2361  0.3675
11734TIP3   OH236083   4.050   5.474   3.017 -0.5689  0.3969 -0.3459
11734TIP3    H136084   4.119   5.540   3.020 -0.8534  0.6776  0.4654
11734TIP3    H236085   4.042   5.444   3.108 -0.7231 -0.4669 -0.6332
11735TIP3   OH236086   8.012   7.372   2.963 -0.0974 -0.1264  0.0956
11735TIP3    H136087   7.944   7.306   2.979 -0.1892  0.3911  2.0916
11735TIP3    H236088   7.990   7.409   2.878 -0.3075 -2.3302 -0.8797
11736TIP3   OH236089   4.424   7.611   1.453  0.4068  0.4657 -0.5609
11736TIP3    H136090   4.413   7.703   1.480 -0.8875  0.3667 -0.6878
11736TIP3    H236091   4.351   7.595   1.394  0.8655 -0.5360 -0.8685
11737TIP3   OH236092   7.968   1.731   9.217  0.2609 -0.0284  0.7517
11737TIP3    H136093   7.951   1.716   9.310  0.6669 -0.7308  0.7144
11737TIP3    H236094   8.019   1.812   9.214  0.1080  0.0820  1.1233
11738TIP3   OH236095   8.140   4.792  10.262  0.4979 -0.1278 -0.4138
11738TIP3    H136096   8.197   4.865  10.285  0.5793 -0.4014  0.2845
11738TIP3    H236097   8.150   4.730  10.335 -3.1394  1.1908  1.4453
11739TIP3   OH236098   5.828   1.237   1.464  0.4965 -0.4358  0.3908
11739TIP3    H136099   5.808   1.202   1.550  0.7468 -0.2883  0.5108
11739TIP3    H236100   5.743   1.250   1.422  0.3840 -0.6735  0.5500
11740TIP3   OH236101   5.103   4.765   7.607 -0.5307  0.7462  0.0368
11740TIP3    H136102   5.045   4.699   7.568 -2.3649  1.6763  1.0254
11740TIP3    H236103   5.163   4.715   7.662 -1.3431 -0.1809  0.1162
11741TIP3   OH236104   2.429   2.707   4.470  0.5865 -0.3803 -0.0062
11741TIP3    H136105   2.428   2.677   4.380 -1.1391 -0.1630 -0.0845
11741TIP3    H236106   2.341   2.690   4.503  1.2859 -0.8290  1.7699
11742TIP3   OH236107   7.183   1.869   5.033  0.2991  0.5433 -0.1381
11742TIP3    H136108   7.091   1.873   5.009  0.2469  1.5851  0.1730
11742TIP3    H236109   7.196   1.781   5.068 -0.6194  0.4580 -0.0053
11743TIP3   OH236110   1.818   2.840  10.748  0.3329 -0.0346  0.6371
11743TIP3    H136111   1.860   2.821  10.832 -0.5367 -0.9584  0.8847
11743TIP3    H236112   1.875   2.904  10.706  1.4969 -0.5904  1.3393
11744TIP3   OH236113   6.744   8.797   4.948  0.3014 -0.1110  0.6217
11744TIP3    H136114   6.758   8.829   5.037  0.9158  1.8539 -0.1385
11744TIP3    H236115   6.830   8.766   4.920  0.3734  0.3447  0.3245
11745TIP3   OH236116   6.391   0.027  10.305  0.3485  0.5095 -0.0575
11745TIP3    H136117   6.328  -0.030  10.259 -0.8914  2.8796 -1.4931
11745TIP3    H236118   6.447   0.061  10.236  0.2619  1.9663  0.5642
11746TIP3   OH236119   7.435   2.284   6.906  0.0283  0.4255 -0.5835
11746TIP3    H136120   7.359   2.248   6.860 -0.6545  0.4779  0.4727
11746TIP3    H236121   7.465   2.213   6.962 -0.7838  1.1697  0.8547
11747TIP3   OH236122   0.379   7.632   9.937 -0.2930  0.7382 -0.4655
11747TIP3    H136123   0.386   7.643  10.032  2.2155 -1.5375 -0.2703
11747TIP3    H236124   0.427   7.706   9.901 -1.2548  1.6125 -0.0252
11748TIP3   OH236125   1.632   7.451  10.481  0.3169 -0.5860  0.0135
11748TIP3    H136126   1.714   7.422  10.520 -0.4868 -1.2094  1.3136
11748TIP3    H236127   1.589   7.502  10.550  0.1821  0.8761 -1.0963
11749TIP3   OH236128   9.651   8.374   8.319 -0.1295 -0.2604  0.0934
11749TIP3    H136129   9.652   8.316   8.243 -1.5581 -0.1900 -0.0075
11749TIP3    H236130   9.697   8.325   8.388 -0.3807 -1.0619 -0.3028
11750TIP3   OH236131   1.508   0.467   5.033 -0.1281 -0.2267  0.1996
11750TIP3    H136132   1.451   0.438   5.104 -0.3093  0.4162  0.3172
11750TIP3    H236133   1.448   0.499   4.966  0.1045  1.4121  0.7352
11751TIP3   OH236134   2.116   5.550   0.884  0.3590 -0.6483  0.4080
11751TIP3    H136135   2.193   5.539   0.828  1.2308  0.7966  1.2464
11751TIP3    H236136   2.076   5.463   0.887  2.0774 -1.4942  0.1236
11752TIP3   OH236137   6.901   3.641   7.323 -0.5357 -0.3501  0.2008
11752TIP3    H136138   6.988   3.633   7.364  0.2350  1.3064 -0.9766
11752TIP3    H236139   6.844   3.586   7.377  0.5701  1.0167  2.9887
11753TIP3   OH236140   3.488   2.580   0.938  0.1135 -0.0299  0.6076
11753TIP3    H136141   3.516   2.489   0.939  1.2548  0.3095  0.8456
11753TIP3    H236142   3.440   2.592   1.020 -0.3800 -0.5163  0.3914
11754TIP3   OH236143   5.895   1.920   7.204  0.3866 -0.0080 -0.5859
11754TIP3    H136144   5.927   1.833   7.184 -0.4585 -0.6707  0.8075
11754TIP3    H236145   5.928   1.939   7.292 -0.2882  0.6403 -0.4554
11755TIP3   OH236146  10.903   9.608   9.700  0.2384 -0.4912 -0.2510
11755TIP3    H136147  10.817   9.593   9.740 -0.9198 -0.0083 -2.3974
11755TIP3    H236148  10.908   9.703   9.689  0.8112 -0.5595 -0.6299
11756TIP3   OH236149   7.031   1.435   4.248 -0.5152 -0.1656  0.4520
11756TIP3    H136150   6.957   1.480   4.290 -0.5742  2.1664 -1.8540
11756TIP3    H236151   6.991   1.384   4.178 -0.0682  0.1896 -0.0742
11757TIP3   OH236152   0.107   1.952   8.778  0.0325  0.0699  1.0631
11757TIP3    H136153   0.173   1.991   8.835 -1.2293  1.2968  1.7137
11757TIP3    H236154   0.024   1.969   8.820 -0.9712  1.0610 -1.1425
11758TIP3   OH236155   9.125   6.776   9.728 -0.5544 -0.3854  0.1362
11758TIP3    H136156   9.140   6.846   9.665 -0.6590 -0.3876  0.1100
11758TIP3    H236157   9.124   6.821   9.813  0.8129 -0.5318  0.2573
11759TIP3   OH236158   6.092   6.471   9.341 -0.6529  0.1630  0.2828
11759TIP3    H136159   6.127   6.531   9.275  1.4907  1.4542  2.4084
11759TIP3    H236160   6.011   6.513   9.371 -0.0566  1.1752  0.5511
11760TIP3   OH236161   8.383   9.858   5.010 -0.3801 -0.0887  0.0654
11760TIP3    H136162   8.461   9.862   4.955 -1.2644  0.8604 -1.1462
11760TIP3    H236163   8.341   9.943   4.999 -1.2765 -0.3639  1.1867
11761TIP3   OH236164   5.694   0.358   5.292 -0.0333  0.3174  0.2122
11761TIP3    H136165   5.781   0.318   5.295  0.1118  0.6585  0.5853
11761TIP3    H236166   5.660   0.346   5.380  0.0132  1.0217  0.3271
11762TIP3   OH236167  10.102   7.269   8.283 -0.3320  0.1060 -0.6652
11762TIP3    H136168  10.056   7.270   8.199  0.5024  0.8764 -1.1166
11762TIP3    H236169  10.190   7.300   8.264  0.0726 -0.3380  0.3844
11763TIP3   OH236170   4.438   3.416   8.069  0.0096  0.5135 -0.0294
11763TIP3    H136171   4.464   3.331   8.106  0.4241  0.6735  0.0478
11763TIP3    H236172   4.453   3.478   8.140 -3.0910  0.2876  1.0150
11764TIP3   OH236173   8.615   7.320  10.784 -0.4554 -0.6880  0.6006
11764TIP3    H136174   8.671   7.286  10.713 -0.4905  0.6886 -0.1267
11764TIP3    H236175   8.527   7.290  10.761 -0.1860 -2.0357  1.2242
11765TIP3   OH236176   9.693   9.505   0.429 -0.4730  0.3280  0.1395
11765TIP3    H136177   9.620   9.514   0.368  1.5861  1.4496 -2.3719
11765TIP3    H236178   9.667   9.555   0.506 -2.5381  0.2516 -0.4648
11766TIP3   OH236179   1.933   5.595   6.142  0.0919  0.0165  0.0301
11766TIP3    H136180   1.915   5.689   6.132  2.6751  0.6296  0.4279
11766TIP3    H236181   2.028   5.588   6.132 -0.2520 -2.9358 -2.7272
11767TIP3   OH236182   2.113   1.217   6.570 -0.2442 -0.0408 -0.0489
11767TIP3    H136183   2.130   1.123   6.560  0.3185 -0.1502  1.7120
11767TIP3    H236184   2.029   1.230   6.526 -0.6187 -1.4811  0.1840
11768TIP3   OH236185   0.798   6.809  10.693  0.4523  0.1774  0.2118
11768TIP3    H136186   0.817   6.715  10.685  0.7933  0.2830 -0.2839
11768TIP3    H236187   0.723   6.823  10.636 -0.6255 -0.0850  1.5309
11769TIP3   OH236188   6.297   5.848   7.323  0.5032  0.5168 -0.1044
11769TIP3    H136189   6.242   5.918   7.359  0.9427  0.0320  1.6217
11769TIP3    H236190   6.386   5.869   7.352  0.5618 -1.0387  1.0360
11770TIP3   OH236191   0.522   7.707   1.483  0.4064 -0.2839 -0.1030
11770TIP3    H136192   0.612   7.703   1.450  0.4605  0.2038 -0.0233
11770TIP3    H236193   0.477   7.636   1.437  0.6397 -0.0312 -0.7368
11771TIP3   OH236194   0.439   3.838   3.244  0.4727  0.5255 -0.1873
11771TIP3    H136195   0.417   3.794   3.162 -0.5252  1.4538 -0.4368
11771TIP3    H236196   0.457   3.767   3.306 -1.0729 -0.2483 -0.5728
11772TIP3   OH236197   0.735   0.044   2.061 -0.3266  0.5117  0.1307
11772TIP3    H136198   0.732   0.012   1.971  0.5275  0.0971  0.2382
11772TIP3    H236199   0.812   0.102   2.063 -1.2052  1.7059  0.2224
11773TIP3   OH236200   6.282   9.466   5.587 -0.5237 -0.6098 -0.0510
11773TIP3    H136201   6.223   9.468   5.662 -1.1197 -0.7752 -0.5106
11773TIP3    H236202   6.242   9.524   5.523  0.2904 -0.0016 -0.0216
11774TIP3   OH236203   5.588   5.494  10.623 -0.1033  0.2854  0.2961
11774TIP3    H136204   5.680   5.514  10.607  0.4030 -1.4699  0.7698
11774TIP3    H236205   5.558   5.563  10.681  1.1140  0.5088  0.6892
11775TIP3   OH236206  10.282   0.366   6.508  0.2869 -0.6540  0.8983
11775TIP3    H136207  10.209   0.335   6.456  1.0028 -0.5727 -0.1764
11775TIP3    H236208  10.346   0.295   6.507  0.4753 -0.4995  1.3345
11776TIP3   OH236209   0.505   6.793   6.201 -0.1824 -0.5611  0.1492
11776TIP3    H136210   0.595   6.794   6.235  0.2255 -0.4830 -0.8763
11776TIP3    H236211   0.463   6.869   6.242  0.9173  0.7789 -1.0848
11777TIP3   OH236212   6.692   4.014   4.030  0.1979 -0.9019  0.3370
11777TIP3    H136213   6.727   3.932   4.064 -0.0357 -1.4029 -0.5909
11777TIP3    H236214   6.763   4.077   4.042  0.7320 -1.4610  0.1765
11778TIP3   OH236215   1.250   0.223   0.076 -0.5014  0.0453  0.5984
11778TIP3    H136216   1.345   0.217   0.082 -0.6280 -1.5123  1.6253
11778TIP3    H236217   1.233   0.310   0.041  1.2884  0.4785  0.7506
11779TIP3   OH236218   3.785   5.264   9.953 -0.3728  0.4193 -0.3054
11779TIP3    H136219   3.747   5.185   9.914  0.9832  0.4856 -1.8434
11779TIP3    H236220   3.769   5.333   9.889  1.0199  0.7606 -0.3014
11780TIP3   OH236221   0.889   7.940   8.244  0.2655  0.6540 -0.0140
11780TIP3    H136222   0.949   7.982   8.305 -0.1602 -0.2019  1.0163
11780TIP3    H236223   0.919   7.849   8.239 -1.0029  0.1626  0.6493
11781TIP3   OH236224   5.787   5.258  10.527  0.1556 -0.0218 -0.0727
11781TIP3    H136225   5.780   5.253  10.432 -0.7894  0.5129 -0.0521
11781TIP3    H236226   5.767   5.350  10.547 -2.7321 -0.7199  0.8228
11782TIP3   OH236227  10.590  10.093   4.421 -0.2717  0.1347  0.4063
11782TIP3    H136228  10.618  10.075   4.332  0.2191  2.2055  0.1097
11782TIP3    H236229  10.631  10.024   4.473  1.2369  0.1627 -0.6853
11783TIP3   OH236230   4.335   6.118   8.313 -0.4253 -0.3452 -0.2804
11783TIP3    H136231   4.414   6.113   8.366 -0.3120  1.7486 -0.1866
11783TIP3    H236232   4.284   6.189   8.352 -0.7572  0.6618 -2.4087
11784TIP3   OH236233   7.690   1.743  10.662 -0.1484  0.8595 -0.4292
11784TIP3    H136234   7.607   1.763  10.704  0.9297  1.3141  1.6370
11784TIP3    H236235   7.716   1.824  10.619 -1.1939  0.4371 -1.9142
11785TIP3   OH236236   4.729   6.451   2.117 -0.4596 -0.1750  0.0077
11785TIP3    H136237   4.727   6.371   2.065  0.2867  0.0708 -0.3949
11785TIP3    H236238   4.693   6.518   2.059  0.8577  0.2065 -0.3888
11786TIP3   OH236239   3.609  10.820   2.241 -0.3895  0.0181  0.1647
11786TIP3    H136240   3.704  10.815   2.248 -0.2088  1.6023 -0.7854
11786TIP3    H236241   3.580  10.729   2.247  1.2084 -0.5339 -0.0478
11787TIP3   OH236242   0.493   8.335  10.635  0.5612 -0.2192 -0.0859
11787TIP3    H136243   0.412   8.376  10.605  0.4114 -0.6551 -0.2851
11787TIP3    H236244   0.546   8.407  10.668 -0.3177 -0.0374  1.0012
11788TIP3   OH236245   0.523   0.035   9.578 -0.6177  0.0320  0.1042
11788TIP3    H136246   0.497  -0.017   9.654 -2.0024  1.1746  0.4646
11788TIP3    H236247   0.593   0.091   9.611 -0.4972 -0.2026  0.2519
11789TIP3   OH236248   8.411   5.036   7.360  0.0911 -0.2349  0.5783
11789TIP3    H136249   8.381   5.077   7.441  0.9525  0.7248  0.4388
11789TIP3    H236250   8.427   5.109   7.301 -2.4982 -0.9675 -1.2353
11790TIP3   OH236251   9.139  10.398   8.875  0.1565 -0.3114  0.2693
11790TIP3    H136252   9.050  10.418   8.905  0.5629  0.8212  0.7315
11790TIP3    H236253   9.188  10.379   8.954  1.7259  4.5397  0.7865
11791TIP3   OH236254   5.096   7.740   9.534 -0.2147  0.0798  0.2959
11791TIP3    H136255   5.077   7.656   9.492 -0.2426 -0.2103  0.8671
11791TIP3    H236256   5.013   7.764   9.576  0.2765 -0.5163  1.6633
11792TIP3   OH236257   0.452   2.796   5.290 -0.3079 -0.0798  0.1322
11792TIP3    H136258   0.524   2.831   5.343 -1.2266 -1.2788  2.2939
11792TIP3    H236259   0.496   2.757   5.214  1.2367  0.2248  0.8270
11793TIP3   OH236260  10.497   3.395   9.018 -0.3338 -0.0590 -0.3816
11793TIP3    H136261  10.527   3.377   9.106 -0.2799 -0.5039 -0.4887
11793TIP3    H236262  10.427   3.331   9.003  0.7860 -1.1122 -1.2630
11794TIP3   OH236263   8.144   1.011   0.439  0.5374  0.4351 -0.3178
11794TIP3    H136264   8.129   1.080   0.504 -0.1884 -1.4232  1.5782
11794TIP3    H236265   8.130   0.929   0.486  0.1754 -1.0312 -2.7823
11795TIP3   OH236266   1.297   3.952   8.484 -0.3095  0.6262  0.0671
11795TIP3    H136267   1.243   3.992   8.552  1.2617  0.8410  1.2440
11795TIP3    H236268   1.361   4.019   8.462  0.3338 -0.0903 -0.2991
11796TIP3   OH236269   7.490   5.230   9.733  0.4273 -0.2862 -0.0401
11796TIP3    H136270   7.545   5.279   9.671  0.5694  0.3229  0.5574
11796TIP3    H236271   7.542   5.224   9.813 -0.2081 -0.0592  0.4006
11797TIP3   OH236272  10.895   6.492   7.019  0.4187 -0.1860  0.2298
11797TIP3    H136273  10.872   6.479   7.111  2.1462 -0.6564  0.6372
11797TIP3    H236274  10.986   6.520   7.021  1.5113 -3.1274 -1.4131
11798TIP3   OH236275   2.015   9.248   3.902  0.0576 -0.1781 -0.1774
11798TIP3    H136276   2.105   9.282   3.898  0.0699 -0.2465 -0.4776
11798TIP3    H236277   1.960   9.326   3.908  0.0395 -0.0544 -1.5707
11799TIP3   OH236278   5.325   4.787   6.795  0.1382  0.0937 -0.5665
11799TIP3    H136279   5.375   4.761   6.873 -0.3573 -1.4331 -0.7201
11799TIP3    H236280   5.352   4.877   6.778  0.9721  0.1321  0.8063
11800TIP3   OH236281   2.479  10.562   1.114  0.2539 -0.1164  0.3029
11800TIP3    H136282   2.452  10.481   1.157 -2.2176  0.6515  0.3900
11800TIP3    H236283   2.455  10.631   1.176 -0.7035  0.8454 -1.0665
11801TIP3   OH236284   3.586   2.647   7.219 -0.0846  0.1270 -0.2501
11801TIP3    H136285   3.617   2.582   7.157 -1.4531 -0.6222 -0.1978
11801TIP3    H236286   3.622   2.730   7.188  0.4521 -0.4389 -1.1770
11802TIP3   OH236287   5.626   4.940   1.025  0.0678  0.3431 -0.3886
11802TIP3    H136288   5.632   4.876   0.954 -1.9432 -0.8437  0.4236
11802TIP3    H236289   5.600   4.889   1.102  1.3425  1.7140  1.0359
11803TIP3   OH236290   3.233   4.670   1.242  0.2856 -0.4593 -0.2385
11803TIP3    H136291   3.316   4.715   1.229  0.5161 -1.0513 -0.8491
11803TIP3    H236292   3.229   4.655   1.336  0.8965 -0.4766 -0.2116
11804TIP3   OH236293   1.494   1.227   8.806  0.4228  0.4528 -0.0430
11804TIP3    H136294   1.510   1.160   8.740  0.4791  0.8635 -0.4545
11804TIP3    H236295   1.413   1.270   8.778 -0.5806 -0.5851  1.1733
11805TIP3   OH236296   7.489   3.354   3.531 -0.8226  0.0182  0.1924
11805TIP3    H136297   7.528   3.441   3.526 -1.6265  0.3370 -2.0406
11805TIP3    H236298   7.560   3.294   3.506 -0.4452  0.0864  1.0869
11806TIP3   OH236299   4.315   0.039   9.947 -0.1602 -0.2689  0.0686
11806TIP3    H136300   4.309   0.115  10.005 -1.4445  0.2558 -0.7225
11806TIP3    H236301   4.407   0.012   9.952  0.1655  0.9237  0.8688
11807TIP3   OH236302   7.741   2.685   0.021 -0.1734 -0.2008  0.5281
11807TIP3    H136303   7.799   2.659   0.093 -0.0911 -0.5130  0.3527
11807TIP3    H236304   7.766   2.775   0.001  0.9744 -0.6718 -0.2453
11808TIP3   OH236305   0.261   2.686   1.876 -0.3174 -0.6060  0.2810
11808TIP3    H136306   0.188   2.680   1.815 -0.3392  1.3279  0.0768
11808TIP3    H236307   0.325   2.742   1.832 -0.2097  0.5970  1.8727
11809TIP3   OH236308   8.338   5.139   5.017  0.6420 -0.3637 -0.5950
11809TIP3    H136309   8.392   5.169   4.944  0.4878 -0.5135 -0.7724
11809TIP3    H236310   8.396   5.143   5.093  0.5489  0.6339 -0.5593
11810TIP3   OH236311   6.998  10.630   3.224  0.0696 -0.1573  0.1096
11810TIP3    H136312   7.086  10.624   3.187 -0.5829 -0.6136 -1.4299
11810TIP3    H236313   7.010  10.605   3.316  1.9032  1.9991  0.5492
11811TIP3   OH236314  10.154   5.086   2.087 -0.1545 -0.0607 -0.0518
11811TIP3    H136315  10.070   5.130   2.077 -0.6535 -0.6950  1.2208
11811TIP3    H236316  10.191   5.086   1.999 -1.7353 -0.2892 -0.7492
11812TIP3   OH236317   2.629   0.481   3.091  0.5439  0.6373 -0.5457
11812TIP3    H136318   2.558   0.543   3.079 -0.5218 -0.7787 -1.9395
11812TIP3    H236319   2.603   0.429   3.167  0.4477  0.5896 -0.6113
11813TIP3   OH236320   9.109   1.303   5.583  0.2059 -0.3843  0.2553
11813TIP3    H136321   9.101   1.343   5.497  1.4576  1.7015  1.0417
11813TIP3    H236322   9.022   1.310   5.622  0.1665  0.6598 -0.0126
11814TIP3   OH236323   2.832  10.703   4.634 -0.4210  0.4408  0.0184
11814TIP3    H136324   2.924  10.681   4.615  0.4440  2.4751  1.4690
11814TIP3    H236325   2.837  10.781   4.690 -3.0644  0.8849 -0.2261
11815TIP3   OH236326   2.059   6.947   4.896 -0.3903 -0.1282  0.2671
11815TIP3    H136327   2.068   6.957   4.991  2.2276 -0.6931  0.1652
11815TIP3    H236328   2.052   7.036   4.862  0.2969  0.1708  0.8936
11816TIP3   OH236329   7.081  10.254   6.898  0.3970  0.6942 -0.3074
11816TIP3    H136330   7.042  10.288   6.979 -0.4242  0.8342 -0.7542
11816TIP3    H236331   7.166  10.299   6.893  0.3903  0.8063  0.3874
11817TIP3   OH236332   7.216   7.649   2.640  0.5803 -0.1053 -0.2154
11817TIP3    H136333   7.260   7.633   2.557 -0.5095 -0.2279 -0.7835
11817TIP3    H236334   7.287   7.647   2.705  1.5795  0.8634 -1.2198
11818TIP3   OH236335   1.958   3.401   7.267 -0.1100  0.3997 -0.2194
11818TIP3    H136336   2.039   3.359   7.295 -0.5665 -1.1726 -1.1245
11818TIP3    H236337   1.926   3.446   7.345  0.1737 -1.3890  0.9887
11819TIP3   OH236338   6.860  10.883   5.974  0.6124 -0.5739 -0.1087
11819TIP3    H136339   6.910  10.829   6.035 -2.3910 -0.9005  2.2835
11819TIP3    H236340   6.829  10.956   6.028 -0.2271  0.4092 -1.8656
11820TIP3   OH236341   5.812   1.119   4.021 -0.2759 -0.5791  0.2484
11820TIP3    H136342   5.872   1.147   3.951  0.5726  0.0946  1.2166
11820TIP3    H236343   5.744   1.187   4.023 -0.6716 -0.9434 -0.3380
11821TIP3   OH236344   5.293   3.674   3.015  0.5853  0.2191  0.5517
11821TIP3    H136345   5.359   3.605   3.006 -0.6320 -0.8439 -0.5527
11821TIP3    H236346   5.256   3.684   2.928 -0.5929  0.9157  1.1085
11822TIP3   OH236347   7.700   3.193   3.433 -0.1849  0.1458  0.0328
11822TIP3    H136348   7.758   3.250   3.484  1.3679 -1.6461  0.3959
11822TIP3    H236349   7.753   3.166   3.358 -1.5189  0.6070 -1.1059
11823TIP3   OH236350   5.913   5.864   2.066 -0.1065 -0.1755  0.5907
11823TIP3    H136351   5.983   5.899   2.121 -0.2652 -0.7236  1.1531
11823TIP3    H236352   5.948   5.782   2.032  0.7298  1.0498 -1.6911
11824TIP3   OH236353  10.076   1.150   7.210 -0.0388 -0.0353  0.1393
11824TIP3    H136354  10.157   1.182   7.250  0.0637  0.9846 -0.8197
11824TIP3    H236355  10.104   1.079   7.152  0.2626  0.6694 -0.5998
11825TIP3   OH236356   0.241   8.401   7.191  0.4776 -0.1391 -0.8670
11825TIP3    H136357   0.180   8.433   7.258 -0.9633  0.2004 -2.2518
11825TIP3    H236358   0.293   8.478   7.167  1.0341 -0.2757 -0.1198
11826TIP3   OH236359   4.813   0.348  10.386 -0.2285 -0.4359 -0.2070
11826TIP3    H136360   4.761   0.289  10.441 -1.1957  1.9525  1.6183
11826TIP3    H236361   4.902   0.340  10.420 -0.4896 -0.3226  0.5182
11827TIP3   OH236362   8.777   7.649   1.545  0.0259 -0.0317 -0.1164
11827TIP3    H136363   8.786   7.721   1.482 -1.6723  0.4052  0.0853
11827TIP3    H236364   8.691   7.663   1.584  1.1160 -0.1522  2.4994
11828TIP3   OH236365   5.220   3.159   4.250  0.5357 -0.0459  0.5382
11828TIP3    H136366   5.230   3.064   4.244  0.3410 -0.0376  0.1059
11828TIP3    H236367   5.130   3.172   4.280  1.2391 -0.0655  2.8526
11829TIP3   OH236368   7.367   4.179   1.080  0.1575  0.0655  0.0521
11829TIP3    H136369   7.327   4.223   1.006  1.2319 -1.5736 -1.5971
11829TIP3    H236370   7.377   4.247   1.147 -1.4080  1.4447 -1.0543
11830TIP3   OH236371   3.543   4.552   5.418 -0.2857 -0.2632 -0.1837
11830TIP3    H136372   3.478   4.615   5.448 -0.6968 -0.8615  0.2156
11830TIP3    H236373   3.627   4.595   5.432 -0.6137  1.0987 -2.0477
11831TIP3   OH236374  10.335   0.170   8.702  0.3729 -0.1599  0.0597
11831TIP3    H136375  10.327   0.100   8.638 -1.3662 -0.0855  0.1438
11831TIP3    H236376  10.328   0.251   8.651  0.4959 -0.0751  0.1758
11832TIP3   OH236377   8.497   0.121   5.020 -0.0875 -0.2510  0.1655
11832TIP3    H136378   8.535   0.188   5.078 -1.7393  1.3095 -0.4495
11832TIP3    H236379   8.427   0.082   5.072  0.4022 -1.0223  0.2627
11833TIP3   OH236380   3.079   0.608   7.120  0.1939 -0.0507  0.4787
11833TIP3    H136381   3.110   0.695   7.143 -0.6189  0.2543  0.4714
11833TIP3    H236382   3.068   0.611   7.025  0.7458 -0.3614  0.4023
11834TIP3   OH236383   0.231   1.757   5.330  0.1327 -1.0118  0.4818
11834TIP3    H136384   0.248   1.809   5.252  0.2353 -0.0773  1.1111
11834TIP3    H236385   0.173   1.811   5.383  0.8646 -1.1812  1.5002
11835TIP3   OH236386   5.573   4.423   3.052 -0.3059 -0.1230 -0.1157
11835TIP3    H136387   5.645   4.472   3.093 -0.7224 -0.3514  0.9313
11835TIP3    H236388   5.500   4.432   3.114 -0.3103 -2.2885  0.2623
11836TIP3   OH236389   2.403   3.946   9.817 -0.5443  0.1291 -0.0938
11836TIP3    H136390   2.329   3.968   9.760  0.5925 -0.5531 -1.9267
11836TIP3    H236391   2.479   3.984   9.773  0.2158  0.9833  1.8434
11837TIP3   OH236392   0.200   8.620   0.561  0.1252 -0.5681 -0.2113
11837TIP3    H136393   0.233   8.542   0.606  0.5766 -0.2558  0.0108
11837TIP3    H236394   0.105   8.607   0.557  0.0024 -0.3487  1.3416
11838TIP3   OH236395   6.689   2.740   7.989  0.5917  0.0547  0.1432
11838TIP3    H136396   6.606   2.787   7.998  0.0731 -0.6478 -0.7605
11838TIP3    H236397   6.734   2.786   7.917 -0.2202 -1.2017 -1.2209
11839TIP3   OH236398   4.927   3.471   9.881  0.2834 -0.0454  0.4473
11839TIP3    H136399   4.972   3.440   9.802  1.1971 -0.3643  1.0748
11839TIP3    H236400   4.954   3.563   9.889 -2.0984  0.9073 -1.1803
11840TIP3   OH236401   5.401   3.574   6.162 -0.3424  0.1888  0.2869
11840TIP3    H136402   5.464   3.643   6.138 -2.1979  1.4916 -1.0552
11840TIP3    H236403   5.382   3.529   6.080  0.6073 -1.8359  1.0943
11841TIP3   OH236404   0.027   7.394   9.715 -0.1285  0.2620 -0.1540
11841TIP3    H136405  -0.010   7.428   9.633  0.2203 -0.6343 -0.6855
11841TIP3    H236406   0.059   7.472   9.761 -0.8899  0.8377 -0.5799
11842TIP3   OH236407   8.665  10.074   9.826  0.0280  0.1206  0.4078
11842TIP3    H136408   8.591  10.075   9.765 -0.1130 -0.6882  0.5620
11842TIP3    H236409   8.733  10.025   9.780 -0.3178 -1.1010  1.1730
11843TIP3   OH236410   7.669   2.998  10.496 -0.0796  0.2268  0.0055
11843TIP3    H136411   7.665   2.945  10.416 -0.6743  0.0472  0.1527
11843TIP3    H236412   7.763   3.011  10.510  0.1329 -1.4562  0.3928
11844TIP3   OH236413   1.577   3.952   3.051 -0.4510 -0.1313 -0.4264
11844TIP3    H136414   1.592   3.901   3.130 -0.1202  0.5619 -0.0282
11844TIP3    H236415   1.482   3.952   3.039 -0.8415  2.2112  1.6810
11845TIP3   OH236416   6.015   2.008   0.283  0.2024  0.0911  0.4363
11845TIP3    H136417   5.978   2.089   0.318 -0.2247  0.4121 -0.6975
11845TIP3    H236418   5.942   1.965   0.239  1.4313  1.7816 -3.7673
11846TIP3   OH236419   9.182   8.592   3.840  0.1694  0.2736 -0.2851
11846TIP3    H136420   9.157   8.633   3.758  0.1913 -0.2394 -0.5524
11846TIP3    H236421   9.099   8.573   3.884  0.1548  0.4728 -0.2270
11847TIP3   OH236422   8.804   1.309   4.597  0.3635  0.2060 -0.1053
11847TIP3    H136423   8.722   1.276   4.560 -0.2196  1.3640  0.1242
11847TIP3    H236424   8.856   1.230   4.614 -0.8302 -0.5748  0.0510
11848TIP3   OH236425   4.113   6.632   3.492  0.7692  0.3785  0.0187
11848TIP3    H136426   4.149   6.682   3.565  1.6913  1.2428 -0.9895
11848TIP3    H236427   4.020   6.623   3.513  1.1429 -0.0160  1.6218
11849TIP3   OH236428   6.508   9.181   1.828  0.0793  0.1636 -0.1839
11849TIP3    H136429   6.507   9.197   1.923 -0.8532 -0.4718 -0.0815
11849TIP3    H236430   6.523   9.087   1.820  2.3514  0.4964 -0.7309
11850TIP3   OH236431   1.070  10.238   4.768  0.8518  0.9510 -0.1084
11850TIP3    H136432   0.975  10.233   4.755  0.6621 -1.0001  1.4889
11850TIP3    H236433   1.099  10.308   4.710 -1.6046  1.8098 -0.3976
11851TIP3   OH236434   8.811   0.428   7.590 -0.0490 -0.5484  0.2370
11851TIP3    H136435   8.863   0.450   7.667  1.8798 -3.0506 -0.2377
11851TIP3    H236436   8.875   0.404   7.523 -1.7241  0.1395 -1.7202
11852TIP3   OH236437   3.692   7.800  10.421 -0.3789  0.1370 -0.3741
11852TIP3    H136438   3.743   7.869  10.464  0.1722 -1.3641  1.5248
11852TIP3    H236439   3.607   7.802  10.465 -0.1305 -0.8116  0.1773
11853TIP3   OH236440   3.655   9.868   9.632 -0.3037  0.1773 -0.0625
11853TIP3    H136441   3.642   9.905   9.719 -0.0204  0.8568 -0.3036
11853TIP3    H236442   3.654   9.774   9.646  1.2016  0.2783  0.8854
11854TIP3   OH236443   7.654   9.560   8.636  0.1169  0.5039 -0.1876
11854TIP3    H136444   7.589   9.506   8.591 -0.1773 -0.5406  1.3960
11854TIP3    H236445   7.635   9.547   8.729  1.3785  1.7153  0.2657
11855TIP3   OH236446  10.662   3.112   5.265  0.5934  0.0788 -0.1876
11855TIP3    H136447  10.698   3.063   5.338 -0.6890 -0.3831  0.1635
11855TIP3    H236448  10.689   3.062   5.187 -0.5606 -1.1552  0.1537
11856TIP3   OH236449   9.946   0.262   5.156 -0.5607 -0.2867  0.4609
11856TIP3    H136450   9.953   0.353   5.183 -0.8480 -0.1104 -0.0574
11856TIP3    H236451   9.947   0.264   5.061  2.6980 -1.0638  0.3491
11857TIP3   OH236452   7.311   6.977   2.464 -0.5101 -0.5469  0.5875
11857TIP3    H136453   7.321   6.922   2.386  1.2765 -1.2833  1.2787
11857TIP3    H236454   7.382   7.041   2.458 -1.0975  0.1576  1.0167
11858TIP3   OH236455   0.835   2.693  10.119 -0.1182  0.2855 -0.0024
11858TIP3    H136456   0.876   2.680  10.204  0.6111  0.9856 -0.2334
11858TIP3    H236457   0.898   2.658  10.056 -0.0102  1.0442 -0.3347
11859TIP3   OH236458   4.088  10.776   0.941 -0.8052 -0.7662  0.0469
11859TIP3    H136459   4.054  10.843   0.882 -1.8301 -1.1330  0.2150
11859TIP3    H236460   4.050  10.694   0.910 -0.8578 -1.0478  0.8292
11860TIP3   OH236461   4.874   8.677   8.448 -0.2337 -0.4479 -0.0018
11860TIP3    H136462   4.946   8.724   8.489 -1.7666  0.5305  1.7435
11860TIP3    H236463   4.887   8.586   8.473 -0.1405 -0.1273  1.1857
11861TIP3   OH236464   9.667  10.746   1.382  0.1570 -0.6234  0.6933
11861TIP3    H136465   9.684  10.735   1.289 -2.5880 -1.0633  0.1626
11861TIP3    H236466   9.752  10.730   1.424  1.4426 -0.4672 -1.6958
11862TIP3   OH236467   3.483  10.214   9.615 -0.3446 -0.1661  0.3777
11862TIP3    H136468   3.440  10.147   9.668  1.4354 -1.0434  0.7781
11862TIP3    H236469   3.480  10.180   9.526 -0.8766  0.0065  0.3242
11863TIP3   OH236470   8.588   8.897   8.912  0.2836 -0.0954  0.2487
11863TIP3    H136471   8.625   8.847   8.985 -0.1040 -1.0813 -0.2155
11863TIP3    H236472   8.551   8.831   8.854 -1.5516  0.8113  0.3272
11864TIP3   OH236473   3.936   6.160   8.745  0.5270  0.3533  0.2226
11864TIP3    H136474   3.930   6.255   8.733 -0.4441  0.2745 -0.0653
11864TIP3    H236475   3.971   6.148   8.833  1.0987  0.9797  0.0840
11865TIP3   OH236476   4.290   8.064   0.945  0.0740  0.4708  0.2645
11865TIP3    H136477   4.301   8.102   0.858 -1.9665 -0.1810 -0.3452
11865TIP3    H236478   4.274   8.139   1.003 -0.7346  0.7774 -0.3393
11866TIP3   OH236479   9.922   6.667   0.816  0.2636  0.0016  0.3561
11866TIP3    H136480   9.841   6.689   0.863 -0.0298 -0.2823 -0.0079
11866TIP3    H236481   9.895   6.665   0.724  0.5110 -0.8942  0.3036
11867TIP3   OH236482   5.604   7.669   7.958  0.4060 -0.1995 -0.5195
11867TIP3    H136483   5.562   7.725   7.893  0.9275 -0.1900 -0.8582
11867TIP3    H236484   5.553   7.682   8.037  0.1640  0.3018 -0.7515
11868TIP3   OH236485   4.495   1.535   3.676 -0.7380  0.4689  0.5290
11868TIP3    H136486   4.543   1.533   3.593 -1.5241  1.9904  0.0086
11868TIP3    H236487   4.424   1.472   3.663 -0.3777  0.0858  0.3674
11869TIP3   OH236488   0.899   0.586  10.383  0.2863  0.8143 -0.3337
11869TIP3    H136489   0.990   0.591  10.411  0.1509  2.2316 -0.0696
11869TIP3    H236490   0.892   0.651  10.313 -0.8542  1.8006  0.6522
11870TIP3   OH236491   8.562   8.667   0.752  0.0471 -0.1958  0.4382
11870TIP3    H136492   8.619   8.730   0.795 -0.2700  0.1572  0.3517
11870TIP3    H236493   8.521   8.716   0.680  1.3075 -1.0262 -0.9023
11871TIP3   OH236494   1.638   6.409   2.717 -0.4459 -0.1517 -0.4383
11871TIP3    H136495   1.620   6.325   2.674  1.0300 -0.3229 -0.7690
11871TIP3    H236496   1.641   6.388   2.810  0.9694 -0.7081 -0.5815
11872TIP3   OH236497   0.935   7.932   9.914  0.3379  0.2060 -0.3923
11872TIP3    H136498   0.919   7.983   9.994 -0.5585  0.8510 -0.9586
11872TIP3    H236499   1.026   7.949   9.892  0.6338 -0.0764  0.5555
11873TIP3   OH236500   7.383   2.316   3.469  0.4253 -0.2239 -0.0086
11873TIP3    H136501   7.447   2.353   3.530  0.6350  0.1486 -0.4418
11873TIP3    H236502   7.299   2.327   3.512  0.7006 -1.2707  0.8337
11874TIP3   OH236503   0.156   7.271   0.888 -0.6179  0.2511  0.6894
11874TIP3    H136504   0.210   7.323   0.828 -0.6548 -0.3139  0.1541
11874TIP3    H236505   0.116   7.204   0.832  0.2918 -1.0406  1.5481
11875TIP3   OH236506   4.756   6.656   0.242  0.1263  0.3279 -0.3234
11875TIP3    H136507   4.666   6.659   0.209  0.0958  2.0372 -0.1646
11875TIP3    H236508   4.746   6.634   0.335 -0.2907  2.1098  0.0984
11876TIP3   OH236509   6.341   1.341   2.316  0.7261 -0.2129 -0.7567
11876TIP3    H136510   6.422   1.317   2.361 -1.1057  0.1026  3.0777
11876TIP3    H236511   6.285   1.264   2.325 -0.0756  0.2422 -1.7153
11877TIP3   OH236512   5.829   7.036   5.019  0.6315 -0.1680  0.0053
11877TIP3    H136513   5.885   7.015   4.944 -0.6336  1.6492 -1.5356
11877TIP3    H236514   5.742   7.006   4.992  0.3733 -0.6244  1.2956
11878TIP3   OH236515   1.280   1.800   4.230 -0.3644  0.0716 -0.1077
11878TIP3    H136516   1.225   1.752   4.169 -1.1638  0.6096  0.1656
11878TIP3    H236517   1.369   1.793   4.194 -0.3674 -2.0041  0.2079
11879TIP3   OH236518   6.926   2.696   9.998 -0.2115 -0.0274 -0.0034
11879TIP3    H136519   6.973   2.763  10.047 -1.0269  0.2453  0.4234
11879TIP3    H236520   6.837   2.729   9.991 -0.4047 -0.6394 -0.6017
11880TIP3   OH236521   9.956  10.255   0.177  0.5786 -1.2278  0.2338
11880TIP3    H136522   9.956  10.248   0.081  0.0784 -0.0076  0.1259
11880TIP3    H236523   9.893  10.190   0.206 -1.9121  0.7076 -0.5167
11881TIP3   OH236524   9.285   3.387   0.474 -0.1548  0.4355 -0.4244
11881TIP3    H136525   9.338   3.314   0.442 -1.6458 -0.6823 -0.4403
11881TIP3    H236526   9.349   3.454   0.499  1.4711 -1.9103  2.3031
11882TIP3   OH236527   7.196   8.096   0.896 -0.0521  0.4742 -0.2711
11882TIP3    H136528   7.125   8.031   0.903  1.0334 -0.8007 -0.6597
11882TIP3    H236529   7.197   8.119   0.803  0.7337 -0.3551 -0.4858
11883TIP3   OH236530   7.465   5.231   7.480 -0.5767  0.1594  0.1230
11883TIP3    H136531   7.545   5.263   7.521 -1.1717 -0.2152  1.6567
11883TIP3    H236532   7.404   5.219   7.553 -1.4020 -1.4089 -0.7691
11884TIP3   OH236533   1.963   9.451   9.526 -0.1021  0.1520  0.2861
11884TIP3    H136534   2.024   9.524   9.541 -1.2270  1.6716 -2.0451
11884TIP3    H236535   1.942   9.455   9.433 -3.1393 -0.7967  0.8189
11885TIP3   OH236536   9.220   9.430   5.640 -0.0246  0.1214 -0.3728
11885TIP3    H136537   9.191   9.521   5.631 -2.1549 -0.6425 -2.1049
11885TIP3    H236538   9.249   9.406   5.552  1.0975 -0.7275  0.2049
11886TIP3   OH236539   0.802   5.063   0.542 -0.0481 -0.5105  0.0179
11886TIP3    H136540   0.855   5.033   0.616 -0.4700  1.0176  0.9767
11886TIP3    H236541   0.712   5.045   0.569 -0.4700  2.9461  1.3838
11887TIP3   OH236542   1.231   4.398   6.129  0.1679 -0.4182 -0.0592
11887TIP3    H136543   1.272   4.436   6.051  0.7738 -0.3407  0.2890
11887TIP3    H236544   1.173   4.330   6.095  0.8855 -0.8019 -0.5461
11888TIP3   OH236545   8.886   5.936   4.472 -0.0149  0.2559  0.2328
11888TIP3    H136546   8.914   6.012   4.422 -1.0668 -0.0334 -0.8523
11888TIP3    H236547   8.889   5.863   4.409  0.3802 -0.4792  1.0804
11889TIP3   OH236548   6.465  10.583   1.617 -0.1754  0.1375 -0.0459
11889TIP3    H136549   6.525  10.536   1.559 -1.2295 -0.1314 -0.9622
11889TIP3    H236550   6.380  10.576   1.573 -1.1139 -0.4834  1.7835
11890TIP3   OH236551   4.099  10.017   5.734  0.4791  0.3268 -0.3854
11890TIP3    H136552   4.038  10.008   5.661 -2.9546  1.1783  2.1228
11890TIP3    H236553   4.124  10.109   5.733 -0.2712  0.5448 -0.0308
11891TIP3   OH236554  10.816   9.723   3.820 -0.3134 -0.7923 -0.5521
11891TIP3    H136555  10.774   9.731   3.734 -0.0059  0.4899 -0.5991
11891TIP3    H236556  10.752   9.677   3.874  0.0076 -2.8446 -1.7992
11892TIP3   OH236557   0.418   4.966   4.130  0.3188 -0.0385  0.2022
11892TIP3    H136558   0.490   4.911   4.100  0.9634 -1.1451  3.4548
11892TIP3    H236559   0.457   5.023   4.196 -1.5342  0.0602  1.2745
11893TIP3   OH236560   2.236   1.523   8.061  0.5655  0.1258 -0.0108
11893TIP3    H136561   2.325   1.511   8.093  0.2963 -2.6782 -0.1112
11893TIP3    H236562   2.209   1.437   8.030 -1.6687  1.2202 -1.3961
11894TIP3   OH236563   0.780   8.476   8.256 -0.3054 -0.3143 -0.4875
11894TIP3    H136564   0.704   8.534   8.253 -1.3319 -1.5045  0.9611
11894TIP3    H236565   0.744   8.390   8.278  1.4373 -0.9322  0.1127
11895TIP3   OH236566   4.249   1.135   6.758  0.2967  0.1098 -0.6239
11895TIP3    H136567   4.260   1.107   6.849  0.7657 -1.3292 -1.0932
11895TIP3    H236568   4.293   1.067   6.707  1.2260  1.5861 -1.8701
11896TIP3   OH236569   0.563   1.606   0.609  0.0475  0.4931 -0.2321
11896TIP3    H136570   0.476   1.629   0.643  0.1327  0.5495 -0.0498
11896TIP3    H236571   0.608   1.567   0.684 -0.1518 -0.4291 -0.5807
11897TIP3   OH236572   1.284   2.319   7.750  0.0867 -0.5368  0.5232
11897TIP3    H136573   1.235   2.394   7.784 -0.5094 -1.5044  1.9120
11897TIP3    H236574   1.250   2.306   7.662  2.3129  2.6079 -0.9506
11898TIP3   OH236575   5.137   3.987   0.628  0.5379 -0.0296 -0.4192
11898TIP3    H136576   5.217   3.981   0.575  0.4709 -0.7598 -0.4568
11898TIP3    H236577   5.070   3.945   0.575  0.4908 -0.8534  0.2565
11899TIP3   OH236578   9.317   4.506   4.037  0.0591  0.3393 -0.0743
11899TIP3    H136579   9.360   4.582   3.998  1.1002 -1.9646 -3.9127
11899TIP3    H236580   9.223   4.521   4.022  0.2662  0.8069 -0.9458
11900TIP3   OH236581   7.676   4.226   4.458 -0.8832 -0.0722  0.3187
11900TIP3    H136582   7.684   4.319   4.437  0.4526 -0.3792 -0.6781
11900TIP3    H236583   7.741   4.212   4.527 -0.8398 -0.3265  0.2254
11901TIP3   OH236584   6.983   3.672   6.146 -0.4708 -0.3651 -0.1949
11901TIP3    H136585   7.043   3.743   6.128 -0.4885 -0.1854  0.4396
11901TIP3    H236586   6.927   3.704   6.217  0.3110 -1.4520  0.9590
11902TIP3   OH236587   4.670   4.010   0.404 -0.2330 -0.3451 -0.2569
11902TIP3    H136588   4.575   3.999   0.412 -0.0970 -0.4513  1.6717
11902TIP3    H236589   4.682   4.103   0.384 -0.7149 -0.1318  0.4116
11903TIP3   OH236590   8.724   8.004   3.734 -0.4248 -0.1818  0.8424
11903TIP3    H136591   8.781   7.932   3.707 -0.6641 -0.4268  0.9823
11903TIP3    H236592   8.750   8.024   3.823  1.1283  1.3800  0.1012
11904TIP3   OH236593   7.048   5.393   3.425 -0.5225  0.1570  0.6087
11904TIP3    H136594   7.071   5.322   3.485  0.8678  1.0000  1.1167
11904TIP3    H236595   6.954   5.407   3.439 -0.5688 -0.8109  1.3339
11905TIP3   OH236596   9.832   6.419  10.821  0.1973 -0.3037 -0.0635
11905TIP3    H136597   9.857   6.511  10.813 -0.7760 -0.1918 -2.8741
11905TIP3    H236598   9.902   6.371  10.777 -0.6778 -0.6331 -1.1341
11906TIP3   OH236599   3.465   0.128   2.149 -0.0933  0.0594 -0.2760
11906TIP3    H136600   3.506   0.051   2.189  0.5789  0.9511  0.8139
11906TIP3    H236601   3.462   0.193   2.220  0.3232  1.4030 -1.4487
11907TIP3   OH236602   9.953   2.999  10.105 -0.4004 -0.2896 -0.1256
11907TIP3    H136603  10.036   2.952  10.118  0.1000  0.8234  0.9123
11907TIP3    H236604   9.886   2.941  10.141  0.1693 -0.3592  0.8447
11908TIP3   OH236605   3.919   6.340   2.921 -0.3310 -0.2201  0.5475
11908TIP3    H136606   3.978   6.310   2.852 -0.7439  1.9320 -0.8278
11908TIP3    H236607   3.867   6.410   2.880 -2.6272 -0.8379  2.2129
11909TIP3   OH236608   0.555   7.997   0.656  0.8003 -0.0559 -0.7674
11909TIP3    H136609   0.531   7.922   0.601  0.2714  0.1003 -0.7572
11909TIP3    H236610   0.477   8.014   0.708  1.0704  0.2256 -0.4520
11910TIP3   OH236611   1.354   3.673   8.533 -0.1469 -0.3560  0.0658
11910TIP3    H136612   1.350   3.768   8.524  0.2882 -0.3979 -0.6707
11910TIP3    H236613   1.353   3.658   8.627  4.0004  0.6524  0.4823
11911TIP3   OH236614  10.279  10.879   0.513  0.1786  0.0653 -0.4186
11911TIP3    H136615  10.354  10.903   0.458  0.9802 -1.2583  0.0410
11911TIP3    H236616  10.204  10.881   0.454  1.1566 -2.3592 -1.9023
11912TIP3   OH236617   9.478   0.827   2.460 -0.2672 -0.7589 -0.6074
11912TIP3    H136618   9.539   0.780   2.516 -0.6122  0.9159  1.2784
11912TIP3    H236619   9.405   0.766   2.446  0.6568 -1.8518 -0.8014
11913TIP3   OH236620   7.804   2.313   3.457 -0.9554 -0.2455 -0.3926
11913TIP3    H136621   7.851   2.310   3.373  3.6174  0.3833  1.8481
11913TIP3    H236622   7.809   2.223   3.490 -1.6760 -0.2284 -0.2141
11914TIP3   OH236623   9.805   6.679   1.371 -0.2655  0.0349 -0.8042
11914TIP3    H136624   9.862   6.710   1.301 -1.2960 -0.2215 -1.7900
11914TIP3    H236625   9.814   6.743   1.441 -0.3547  1.1225 -1.7665
11915TIP3   OH236626   2.914   1.585   5.210  0.4773 -0.1597  0.5770
11915TIP3    H136627   2.895   1.672   5.244 -0.4035 -0.2872  0.4305
11915TIP3    H236628   2.925   1.531   5.288  0.1357 -0.1016  0.6653
11916TIP3   OH236629   6.279   4.396   0.507  0.4024  0.1463  0.1039
11916TIP3    H136630   6.242   4.441   0.582  0.7301  0.3471  0.1498
11916TIP3    H236631   6.250   4.447   0.431 -1.0327 -0.8128 -0.0192
11917TIP3   OH236632   5.853   5.515   6.380  0.6225 -0.3434 -0.3613
11917TIP3    H136633   5.895   5.599   6.360 -0.6708  0.9941  1.9687
11917TIP3    H236634   5.902   5.482   6.456  0.0972 -0.8570 -0.2391
11918TIP3   OH236635  10.847   8.757   0.499  0.0023 -0.4839  0.0967
11918TIP3    H136636  10.827   8.723   0.412  0.6592 -2.0955  0.5536
11918TIP3    H236637  10.940   8.780   0.496 -0.4616  1.5703 -0.2655
11919TIP3   OH236638   4.740   0.078  10.794 -0.2972 -0.1147  0.4046
11919TIP3    H136639   4.706   0.062  10.882 -0.8054 -1.6369 -0.0395
11919TIP3    H236640   4.755   0.173  10.791 -1.2933  0.1156  1.7550
11920TIP3   OH236641   0.957  10.645   3.080  0.3871 -0.0963  0.2382
11920TIP3    H136642   0.875  10.629   3.128  1.9716 -1.7443  2.6127
11920TIP3    H236643   1.024  10.648   3.148  2.3456  1.2546 -1.6285
11921TIP3   OH236644   5.659   9.883   0.306 -0.0980 -0.3300 -0.2462
11921TIP3    H136645   5.629   9.862   0.395 -0.3659  2.1649  0.3045
11921TIP3    H236646   5.580   9.879   0.252 -0.1504 -0.6415 -0.1501
11922TIP3   OH236647   0.144   2.460   3.815  0.3924 -0.3062  0.1126
11922TIP3    H136648   0.234   2.427   3.816  0.2434 -0.7402 -0.3923
11922TIP3    H236649   0.093   2.389   3.777 -0.2048 -0.1470  0.6024
11923TIP3   OH236650   5.941   6.194   5.965 -0.2732 -0.4640 -0.1413
11923TIP3    H136651   6.003   6.122   5.951  0.1633 -0.0689 -0.2390
11923TIP3    H236652   5.871   6.154   6.017  0.5465 -0.6680  0.8362
11924TIP3   OH236653   6.896   6.711   8.184  0.0722 -0.4074  0.4279
11924TIP3    H136654   6.832   6.652   8.222  1.1812 -1.5488  0.5869
11924TIP3    H236655   6.981   6.679   8.215  0.7841  0.5893 -0.3847
11925TIP3   OH236656   9.417   7.799   0.073  0.4535  0.3657 -0.3200
11925TIP3    H136657   9.364   7.739   0.125  0.4831  1.6632  1.2653
11925TIP3    H236658   9.374   7.800  -0.013 -0.2339 -0.9796 -0.0249
11926TIP3   OH236659   8.893   7.594   9.331 -0.2251  0.0703  0.4266
11926TIP3    H136660   8.843   7.668   9.295  0.0469 -0.3579 -0.9017
11926TIP3    H236661   8.946   7.564   9.257  0.2305 -0.9787  1.1679
11927TIP3   OH236662   5.978   3.165   6.822  0.3361 -0.1203  0.7276
11927TIP3    H136663   5.917   3.141   6.752  0.7384 -0.7378  0.5856
11927TIP3    H236664   5.936   3.240   6.865  0.5613  0.9322 -0.8191
11928TIP3   OH236665   7.024   7.856   2.985 -0.3330 -0.1307 -0.0748
11928TIP3    H136666   6.994   7.820   2.901  0.0882 -0.4279 -0.0972
11928TIP3    H236667   7.080   7.788   3.022 -0.1550  0.1860  0.2414
11929TIP3   OH236668   1.303   0.883   3.269  0.0964  0.2883  0.0558
11929TIP3    H136669   1.237   0.882   3.200  0.0651  0.9673  0.0728
11929TIP3    H236670   1.381   0.844   3.229  0.5979  2.1663 -0.9054
11930TIP3   OH236671   3.892   2.171   1.054 -0.0927 -0.1015  0.0288
11930TIP3    H136672   3.857   2.137   1.136  0.8318 -1.7204 -0.1939
11930TIP3    H236673   3.937   2.252   1.079 -1.2990  0.3500  0.8078
11931TIP3   OH236674  10.422   4.528   1.998 -0.5642 -0.1803  0.0284
11931TIP3    H136675  10.390   4.439   2.017 -3.6978  0.7685 -0.3035
11931TIP3    H236676  10.475   4.518   1.919  1.5346 -2.1117  1.5260
11932TIP3   OH236677  10.301   5.219   9.309  0.4827 -0.1449  0.1722
11932TIP3    H136678  10.222   5.263   9.276  0.9603  1.1167  0.6526
11932TIP3    H236679  10.371   5.253   9.254  0.8374 -0.4570  0.4338
11933TIP3   OH236680   2.301   6.974   9.199  0.0682 -0.1158 -0.0278
11933TIP3    H136681   2.291   6.879   9.200  1.7032 -0.3076  0.5607
11933TIP3    H236682   2.340   6.993   9.114  2.1005 -0.2871  0.8101
11934TIP3   OH236683  10.185   2.842  10.062 -0.4210 -0.3084 -0.0975
11934TIP3    H136684  10.237   2.877   9.990 -0.1348  1.0872  0.7380
11934TIP3    H236685  10.190   2.747  10.052  1.7304 -0.2082 -0.4669
11935TIP3   OH236686   7.027   7.712   1.385  0.3615 -0.1445 -0.0665
11935TIP3    H136687   7.061   7.700   1.296  1.6955 -0.3193  0.4514
11935TIP3    H236688   7.035   7.626   1.426 -1.1472 -0.3021 -0.0599
11936TIP3   OH236689   4.517   2.058   9.026 -0.1226 -0.0951 -0.4894
11936TIP3    H136690   4.430   2.040   8.992  0.5361  1.0014 -3.0258
11936TIP3    H236691   4.528   1.996   9.098 -3.4956  0.7529  0.8968
11937TIP3   OH236692   4.562   5.519   7.057  0.4429  0.5294  0.0295
11937TIP3    H136693   4.632   5.551   7.113 -0.9979  0.1298  2.2089
11937TIP3    H236694   4.572   5.424   7.059  1.6261  0.5545 -2.1912
11938TIP3   OH236695   8.804   8.249   9.618  0.3818 -0.3364 -0.0753
11938TIP3    H136696   8.861   8.237   9.693  0.6032 -0.7002 -0.2985
11938TIP3    H236697   8.741   8.177   9.623 -0.7407  0.6654  0.7699
11939TIP3   OH236698   6.581  10.392   6.616 -0.0601  0.2936 -0.2751
11939TIP3    H136699   6.630  10.390   6.535 -2.0677 -0.4177 -1.5417
11939TIP3    H236700   6.510  10.454   6.600  0.0141  0.8305  1.2626
11940TIP3   OH236701   2.806   2.265   4.591  0.3771 -0.1998 -0.6220
11940TIP3    H136702   2.764   2.199   4.536  2.4038 -1.3491 -0.8733
11940TIP3    H236703   2.864   2.312   4.532  1.9559 -0.8991  0.3241
11941TIP3   OH236704   7.186   7.765   6.315 -0.3131 -0.4156 -0.1944
11941TIP3    H136705   7.102   7.724   6.295 -0.6075  0.2514 -0.3225
11941TIP3    H236706   7.174   7.802   6.403 -0.1569 -0.3109 -0.2174
11942TIP3   OH236707   1.883   7.414  10.576  0.0563 -0.0938 -0.3807
11942TIP3    H136708   1.876   7.507  10.598  0.0430 -0.2127  0.1179
11942TIP3    H236709   1.946   7.379  10.639 -0.0656 -0.4581 -0.4604
11943TIP3   OH236710   9.738   1.746  10.903  0.1219  0.2820 -0.4675
11943TIP3    H136711   9.723   1.652  10.893 -1.1787  0.4875 -0.6015
11943TIP3    H236712   9.738   1.781  10.814  1.7052  0.2795 -0.4992
11944TIP3   OH236713   9.374   6.360   1.808  0.3419  0.5759 -0.2419
11944TIP3    H136714   9.357   6.273   1.772  0.9732  1.1360 -2.0014
11944TIP3    H236715   9.461   6.383   1.775  1.2967  0.9043  2.2206
11945TIP3   OH236716   9.323   0.705   1.928 -0.2024  0.8190 -0.2308
11945TIP3    H136717   9.288   0.639   1.868  0.7712  0.2606 -0.2017
11945TIP3    H236718   9.335   0.782   1.873  0.4255  0.3931 -0.7051
11946TIP3   OH236719   3.484   5.862   3.711 -0.4029  0.2549 -0.4861
11946TIP3    H136720   3.458   5.939   3.761 -1.4239  0.0252 -0.6502
11946TIP3    H236721   3.570   5.839   3.745 -0.4877  0.9291  0.1946
11947TIP3   OH236722   2.534  10.376   1.727  0.2298 -0.2249  0.0041
11947TIP3    H136723   2.528  10.377   1.823 -1.3450 -0.7026 -0.0763
11947TIP3    H236724   2.580  10.294   1.707 -0.6674 -0.8079  0.2990
11948TIP3   OH236725   2.223   3.872   1.221  0.3402 -0.0322 -0.4937
11948TIP3    H136726   2.256   3.788   1.190  3.1436  0.3838  1.0488
11948TIP3    H236727   2.250   3.876   1.313  1.1710  2.9068 -0.7621
11949TIP3   OH236728  10.199   6.496   1.187 -0.3773  0.0008 -0.7310
11949TIP3    H136729  10.290   6.516   1.206 -0.4644 -0.3305  0.0495
11949TIP3    H236730  10.176   6.553   1.113  0.4000  0.2129 -0.8075
11950TIP3   OH236731   3.773   0.368   2.141 -0.4111  0.0121  0.0461
11950TIP3    H136732   3.694   0.356   2.088 -2.3952  1.2481  2.4967
11950TIP3    H236733   3.796   0.280   2.170 -1.9405 -0.2279  0.6334
11951TIP3   OH236734   6.074   6.586   3.692 -0.1086 -0.8269  0.5107
11951TIP3    H136735   6.139   6.650   3.719 -1.7356  0.4958  1.4509
11951TIP3    H236736   6.125   6.507   3.671  1.9232  0.6817 -0.5240
11952TIP3   OH236737  10.794   4.714   7.403 -0.7793  0.2995 -0.2271
11952TIP3    H136738  10.842   4.788   7.365  0.3094  1.0663  2.4014
11952TIP3    H236739  10.705   4.722   7.369 -0.6740  2.8246 -0.0597
11953TIP3   OH236740   4.806   9.936   1.154  0.3220  0.6494 -0.0016
11953TIP3    H136741   4.870   9.984   1.208  0.3082  0.7192 -0.0469
11953TIP3    H236742   4.856   9.868   1.111  0.0789 -0.3420  1.2331
11954TIP3   OH236743   0.838  10.758   3.498  0.0304 -0.8346  0.5701
11954TIP3    H136744   0.784  10.797   3.430  1.4570  1.2813  0.5518
11954TIP3    H236745   0.819  10.808   3.577  0.9551 -0.9427  0.8807
11955TIP3   OH236746   9.145   4.473   5.107  0.4862 -0.1467 -0.3730
11955TIP3    H136747   9.190   4.401   5.152  0.9880 -0.3725 -1.1969
11955TIP3    H236748   9.187   4.552   5.141  1.1737 -0.3354 -0.7470
11956TIP3   OH236749   5.979   6.692  10.412  0.0389 -0.3110 -0.5639
11956TIP3    H136750   6.023   6.691  10.327 -0.6258 -1.8894 -0.9158
11956TIP3    H236751   5.924   6.770  10.409 -0.0632 -0.4136 -1.6359
11957TIP3   OH236752   4.680   9.953   1.951  0.2487  0.6481 -0.4305
11957TIP3    H136753   4.739  10.002   2.007 -1.0175 -0.7604  2.3689
11957TIP3    H236754   4.693   9.861   1.976 -1.0246  0.0285 -1.8285
11958TIP3   OH236755   9.094   5.044   0.782  0.3068 -0.1620  0.3375
11958TIP3    H136756   9.159   5.069   0.716 -0.4073 -0.3051 -0.4273
11958TIP3    H236757   9.017   5.097   0.761 -0.1191 -0.6357  0.6990
11959TIP3   OH236758   0.887   3.125   0.666 -0.7808  0.5016  0.2089
11959TIP3    H136759   0.889   3.161   0.577  0.1246 -0.0633 -0.0220
11959TIP3    H236760   0.927   3.193   0.720 -1.5363  0.9394  0.2335
11960TIP3   OH236761   3.172   0.535   6.081 -0.1153  0.0299  1.0834
11960TIP3    H136762   3.096   0.548   6.025  0.4114 -1.3605 -0.0002
11960TIP3    H236763   3.244   0.576   6.034  0.6855 -2.6757 -0.2361
11961TIP3   OH236764  10.388   9.914   8.453 -0.1792  0.1951 -0.5572
11961TIP3    H136765  10.434   9.831   8.439  0.0138  0.2323 -0.1335
11961TIP3    H236766  10.457   9.978   8.469 -0.3600  0.3118 -0.2365
11962TIP3   OH236767   5.504   2.377   7.915 -0.3404  0.0130  0.2793
11962TIP3    H136768   5.495   2.289   7.950  1.9494 -0.9221 -1.2633
11962TIP3    H236769   5.582   2.412   7.956  1.7798 -0.7059 -2.7940
11963TIP3   OH236770   7.431   6.793   0.290  0.1480  0.2824  0.0544
11963TIP3    H136771   7.414   6.887   0.297 -0.0932  0.1910  0.8011
11963TIP3    H236772   7.354   6.758   0.245  0.3753  0.4850 -0.4906
11964TIP3   OH236773   2.051   5.065   5.140 -0.0545  0.0127  0.1177
11964TIP3    H136774   2.016   5.020   5.217  1.4989 -0.1807  0.7579
11964TIP3    H236775   2.028   5.008   5.067  0.4183 -0.9922  0.7265
11965TIP3   OH236776   3.911  10.258   7.472 -0.2837  0.3875 -0.0602
11965TIP3    H136777   3.841  10.195   7.455 -0.5061  0.7081 -0.3342
11965TIP3    H236778   3.869  10.329   7.519  0.0800  0.0850  0.7458
11966TIP3   OH236779  10.185   4.830   9.344 -0.0611  0.5465 -0.9630
11966TIP3    H136780  10.257   4.799   9.399 -2.0981 -0.5463  1.2593
11966TIP3    H236781  10.176   4.763   9.277  0.2868  0.1061 -0.5849
11967TIP3   OH236782   6.439   1.651   6.414  0.0068  0.0282 -0.6433
11967TIP3    H136783   6.425   1.668   6.320  0.0074 -0.8149 -0.8049
11967TIP3    H236784   6.459   1.558   6.418 -0.9920 -0.1591  0.3133
11968TIP3   OH236785   2.874   7.113   5.901 -0.2591  0.2100  0.1091
11968TIP3    H136786   2.925   7.174   5.847 -0.3634 -0.5586 -0.8907
11968TIP3    H236787   2.938   7.076   5.961  0.6707 -1.5173 -1.8132
11969TIP3   OH236788   8.084   8.430   9.928  0.2833 -0.7556 -0.4807
11969TIP3    H136789   8.062   8.339   9.947 -2.9867 -0.0430 -0.2472
11969TIP3    H236790   8.042   8.448   9.844  0.4295  0.6910 -0.2698
11970TIP3   OH236791   7.309   5.373   3.739  0.2821 -0.1702 -0.0126
11970TIP3    H136792   7.349   5.411   3.660 -1.4428  1.9097  0.0238
11970TIP3    H236793   7.316   5.442   3.805  2.2894 -2.0978  1.9887
11971TIP3   OH236794   7.874   0.918   0.317  0.1534  0.0826  1.4489
11971TIP3    H136795   7.926   0.905   0.238 -1.0347  1.0436  0.4696
11971TIP3    H236796   7.937   0.948   0.383  1.2031 -0.9760  0.9595
11972TIP3   OH236797   9.826   4.963   2.868  0.1023  0.5414  0.1360
11972TIP3    H136798   9.890   4.909   2.823 -1.6658 -1.9624  0.4172
11972TIP3    H236799   9.828   5.047   2.822  0.5612 -0.8599 -2.5918
11973TIP3   OH236800   9.962  10.896   5.224 -0.1872 -0.5673  0.0243
11973TIP3    H136801   9.866  10.898   5.219 -0.1804  0.8681 -0.1302
11973TIP3    H236802   9.988  10.986   5.204  1.0253 -0.1368  3.0531
11974TIP3   OH236803   3.009   0.904   0.859 -0.2206 -0.3458  0.4731
11974TIP3    H136804   3.045   0.934   0.942 -0.1401 -0.1993  0.3851
11974TIP3    H236805   2.987   0.812   0.874  1.3425 -0.8034  0.1655
11975TIP3   OH236806   0.007   0.570   1.056 -0.4032  0.1954 -0.5551
11975TIP3    H136807  -0.069   0.541   1.106 -0.3023  0.7664 -0.0543
11975TIP3    H236808   0.016   0.505   0.986 -0.5724 -0.5791  0.1328
11976TIP3   OH236809   3.876   2.572   2.535  0.4092 -0.1911  0.0871
11976TIP3    H136810   3.820   2.515   2.587  0.0168 -0.0976 -0.2241
11976TIP3    H236811   3.947   2.516   2.505 -0.6141 -0.8443 -1.2292
11977TIP3   OH236812   3.729   7.338   4.575 -0.0114 -0.4029 -0.3251
11977TIP3    H136813   3.788   7.412   4.568 -0.9308  0.3646 -0.1749
11977TIP3    H236814   3.681   7.337   4.492  1.1156 -1.8338 -1.0003
11978TIP3   OH236815   6.803   3.029   8.058 -0.4906 -0.2327 -0.1013
11978TIP3    H136816   6.841   3.037   7.970 -0.7986  1.0964 -0.1413
11978TIP3    H236817   6.711   3.008   8.042 -0.9942  1.8270 -0.1962
11979TIP3   OH236818   0.960  10.397  10.491  0.2281  0.4663  0.1372
11979TIP3    H136819   1.025  10.352  10.437 -1.0042 -1.0941 -0.1396
11979TIP3    H236820   0.948  10.340  10.567 -1.9662 -0.1747 -0.6096
11980TIP3   OH236821   6.242  10.075   3.253  0.1423 -0.4639  0.5334
11980TIP3    H136822   6.301  10.148   3.234 -0.3978  0.1955  1.2978
11980TIP3    H236823   6.290  10.020   3.315 -0.7426  1.1451  2.7851
11981TIP3   OH236824   1.655   4.823   1.226 -0.2672 -0.0580 -0.2508
11981TIP3    H136825   1.686   4.754   1.285 -2.3458  0.0171  1.0070
11981TIP3    H236826   1.736   4.864   1.194  0.9676 -1.1766  1.2420
11982TIP3   OH236827   2.035  10.267   3.458 -0.1854  0.1097  0.0294
11982TIP3    H136828   2.077  10.316   3.529  0.1185  1.6821 -1.1864
11982TIP3    H236829   1.944  10.259   3.485  0.3226 -1.1448  1.5295
11983TIP3   OH236830   2.183   1.110  10.752  0.0166  0.4448 -0.1094
11983TIP3    H136831   2.176   1.197  10.791  0.9705  0.6596 -0.4149
11983TIP3    H236832   2.263   1.073  10.788 -1.9555 -1.6204  2.5634
11984TIP3   OH236833   5.160  10.731   6.657  0.2414  0.1095  0.2303
11984TIP3    H136834   5.102  10.706   6.729  0.0061  0.6102  0.2177
11984TIP3    H236835   5.162  10.826   6.660  0.9377  0.1035  0.1265
11985TIP3   OH236836   0.895   1.969  10.372  0.1987  0.2755  0.1975
11985TIP3    H136837   0.967   1.992  10.431  0.0587  2.4275 -0.3779
11985TIP3    H236838   0.914   2.018  10.292 -2.1734  1.3631  0.2234
11986TIP3   OH236839   1.041   3.723   8.229 -0.1399  0.0472 -0.6845
11986TIP3    H136840   1.136   3.726   8.224 -0.1849  1.1372 -1.3891
11986TIP3    H236841   1.020   3.765   8.312 -0.0131  0.1332 -0.6957
11987TIP3   OH236842   6.607   6.453   0.777  0.9809 -0.7088  0.5555
11987TIP3    H136843   6.550   6.511   0.727  1.5712 -0.5295  0.0783
11987TIP3    H236844   6.579   6.464   0.868 -0.2811 -1.2335  0.2583
11988TIP3   OH236845   3.002   9.175   3.368  0.0703  0.4236 -0.4511
11988TIP3    H136846   3.026   9.158   3.459  2.1454  3.2234 -0.3276
11988TIP3    H236847   2.908   9.159   3.365 -0.1880  0.8427  2.3803
11989TIP3   OH236848  10.426   4.122   1.685  1.1571  0.4633 -0.0158
11989TIP3    H136849  10.410   4.146   1.594  1.1781  2.5789  0.4792
11989TIP3    H236850  10.343   4.141   1.729  0.8365 -1.4520  0.2731
11990TIP3   OH236851   1.617   8.066   2.644  0.4813 -0.3453 -0.5293
11990TIP3    H136852   1.590   8.137   2.585 -0.3361 -0.7523 -0.6634
11990TIP3    H236853   1.579   7.987   2.605  1.1987 -0.8277 -0.2630
11991TIP3   OH236854   2.675   2.513   6.604 -0.1708 -0.4238  0.2191
11991TIP3    H136855   2.755   2.542   6.647  0.6206 -1.1611 -0.7254
11991TIP3    H236856   2.703   2.446   6.542 -1.2185  0.8573 -1.7518
11992TIP3   OH236857   5.869   8.472   4.054  0.0977  0.3485 -0.4182
11992TIP3    H136858   5.890   8.381   4.077  0.6769  0.8629  1.2973
11992TIP3    H236859   5.811   8.465   3.978 -1.4159 -1.5414  0.8033
11993TIP3   OH236860   8.443   8.373   2.083 -0.4244  0.0472 -0.3171
11993TIP3    H136861   8.366   8.369   2.026 -1.4248 -2.2569  1.0820
11993TIP3    H236862   8.407   8.392   2.170  0.6993 -0.0123  0.1690
11994TIP3   OH236863   2.465   9.628   3.946  0.2449 -0.4838  0.1169
11994TIP3    H136864   2.401   9.597   4.011 -1.3375  2.1227 -0.0102
11994TIP3    H236865   2.528   9.679   3.997 -1.0589  1.6576 -0.2916
11995TIP3   OH236866   1.807   2.012   7.365 -0.3936  0.2853  0.1374
11995TIP3    H136867   1.823   1.967   7.448 -1.6140  1.0742  0.8194
11995TIP3    H236868   1.821   1.944   7.298 -1.9702 -1.0965  1.1300
11996TIP3   OH236869   0.901  10.135   1.599 -0.3487  0.0320 -0.2384
11996TIP3    H136870   0.963  10.127   1.671  0.4162  3.5847 -0.3406
11996TIP3    H236871   0.956  10.154   1.522 -1.3960  3.3331 -0.3160
11997TIP3   OH236872   6.811   0.558   0.975 -0.0616  0.5639 -0.0357
11997TIP3    H136873   6.823   0.528   0.885 -2.5925 -3.4024  0.6831
11997TIP3    H236874   6.874   0.506   1.025  2.5395  3.9272  0.5617
11998TIP3   OH236875   8.312   5.813   0.653 -0.7145  0.5732  0.0194
11998TIP3    H136876   8.344   5.854   0.573 -0.2663  2.0251  0.9134
11998TIP3    H236877   8.366   5.849   0.723 -1.0891 -0.6685  0.9999
11999TIP3   OH236878   6.491   5.897   0.439  0.7052  0.1084 -0.4785
11999TIP3    H136879   6.397   5.884   0.453  0.7366 -0.5003 -0.7878
11999TIP3    H236880   6.496   5.960   0.368  0.5280 -0.0682 -0.6502
12000TIP3   OH236881   8.459   0.641   6.481 -0.3276 -0.7443  0.5272
12000TIP3    H136882   8.519   0.576   6.445  0.3118  1.4308 -2.7927
12000TIP3    H236883   8.513   0.696   6.538  0.3683 -0.1115 -0.7106
12001TIP3   OH236884   0.772   7.153   9.612 -0.0606 -0.0536  0.4377
12001TIP3    H136885   0.753   7.210   9.537  1.3382  0.7305  0.6349
12001TIP3    H236886   0.729   7.196   9.686  1.4960  1.1570  0.7015
12002TIP3   OH236887  10.650  10.145   4.815 -0.5605 -0.0591  0.4115
12002TIP3    H136888  10.640  10.065   4.866  0.6034 -1.2255 -1.0791
12002TIP3    H236889  10.732  10.132   4.766 -2.4235  0.1451 -3.0809
12003TIP3   OH236890   0.414   4.216   9.085 -0.5107 -0.3340 -0.3160
12003TIP3    H136891   0.488   4.262   9.123 -0.7975  1.5617 -1.9247
12003TIP3    H236892   0.452   4.136   9.048  0.8976  0.8916 -1.6650
12004TIP3   OH236893   3.087   6.775   0.488 -0.4717  0.2627  0.3516
12004TIP3    H136894   3.054   6.804   0.573  0.0723  2.1673 -0.0350
12004TIP3    H236895   3.018   6.796   0.426  0.4823  2.1734 -0.1375
12005TIP3   OH236896   3.563   8.221   0.286  0.0959 -0.7517  0.5945
12005TIP3    H136897   3.513   8.275   0.224 -0.1529 -1.3361  0.2825
12005TIP3    H236898   3.654   8.234   0.260 -0.1111 -2.8587 -1.4712
12006TIP3   OH236899   1.040   4.498   4.964 -0.0432  0.1091  0.7755
12006TIP3    H136900   0.976   4.560   4.928 -0.2853 -0.5720 -0.0203
12006TIP3    H236901   1.116   4.507   4.906 -1.1330 -2.3900 -1.2644
12007TIP3   OH236902   3.681   6.034   1.471 -0.2438  0.3033  0.2780
12007TIP3    H136903   3.593   6.003   1.495 -0.4408  0.3614 -0.3477
12007TIP3    H236904   3.717   5.964   1.418 -0.8291  1.2632 -1.4468
12008TIP3   OH236905   0.673   2.997   6.521  0.2794 -0.0219 -0.0098
12008TIP3    H136906   0.643   2.911   6.492  0.4392 -0.3967  0.9038
12008TIP3    H236907   0.731   3.027   6.451 -0.4672 -0.2711 -0.7420
12009TIP3   OH236908   4.619   4.985   8.169  0.0563  0.1335 -0.0863
12009TIP3    H136909   4.653   5.066   8.207  0.2117 -0.1735  0.4292
12009TIP3    H236910   4.696   4.939   8.137  0.5972 -1.9133  3.6096
12010TIP3   OH236911   6.626   7.787   7.838  0.0953 -0.2128 -0.1571
12010TIP3    H136912   6.568   7.722   7.878 -0.0613  0.0311  0.0141
12010TIP3    H236913   6.714   7.758   7.864 -0.0420  0.3636  1.0207
12011TIP3   OH236914   5.156   2.103   4.489  0.5491 -0.1916  0.5167
12011TIP3    H136915   5.130   2.017   4.457 -1.6546  0.6484 -0.1861
12011TIP3    H236916   5.097   2.120   4.563  0.6307  0.8988  0.3475
12012TIP3   OH236917   4.133   2.626   2.283 -0.0766 -0.1361 -0.0819
12012TIP3    H136918   4.051   2.577   2.279 -1.1196  1.5389 -0.6268
12012TIP3    H236919   4.123   2.683   2.359  0.4454  0.2820 -0.3209
12013TIP3   OH236920   2.756  10.799   9.076 -0.6952  0.3185  0.2470
12013TIP3    H136921   2.774  10.887   9.043  1.0673 -0.7398 -1.8545
12013TIP3    H236922   2.667  10.780   9.046 -1.1093  1.3601  0.7496
12014TIP3   OH236923   8.402   6.430   2.457 -0.0643 -0.1586  0.7118
12014TIP3    H136924   8.482   6.443   2.408  0.4129  0.6262  1.6667
12014TIP3    H236925   8.414   6.346   2.502 -0.1739 -0.4863  0.1406
12015TIP3   OH236926   3.530  10.647   4.761  0.0435  0.1110 -0.7369
12015TIP3    H136927   3.565  10.561   4.741 -1.3521 -1.0042  1.3165
12015TIP3    H236928   3.588  10.682   4.829 -0.2460  0.1655 -0.5166
12016TIP3   OH236929   0.921   1.184  10.303 -0.1692  0.6821  0.1758
12016TIP3    H136930   0.990   1.196  10.238 -0.0330 -1.0038 -0.0407
12016TIP3    H236931   0.920   1.090  10.319 -2.3136  0.6786  0.2978
12017TIP3   OH236932   9.372   4.500  10.544  0.6657  0.6855  0.1668
12017TIP3    H136933   9.312   4.432  10.574  0.0653  0.5940 -1.1962
12017TIP3    H236934   9.442   4.453  10.499  0.4669  0.9303 -0.4134
12018TIP3   OH236935   6.439   8.860   8.879  0.5025 -0.0582  0.5430
12018TIP3    H136936   6.515   8.899   8.923  1.0085 -0.2731 -0.1207
12018TIP3    H236937   6.476   8.794   8.821  0.1394  1.8122 -2.0529
12019TIP3   OH236938   4.931   6.845  10.630  0.2482  0.1733 -0.2632
12019TIP3    H136939   4.992   6.885  10.568  1.4995  0.4222  1.0749
12019TIP3    H236940   4.987   6.799  10.693 -0.8428  1.3033  1.6376
12020TIP3   OH236941   9.810   7.820   7.209  0.4925  0.3195  0.6194
12020TIP3    H136942   9.738   7.812   7.271  0.2400  1.4025  0.4963
12020TIP3    H236943   9.818   7.914   7.194  1.1577  0.1365 -0.2746
12021TIP3   OH236944   9.206   9.156   3.118  0.1925  0.3197 -0.0215
12021TIP3    H136945   9.176   9.189   3.203 -0.2392 -1.0696  0.3908
12021TIP3    H236946   9.274   9.218   3.092  0.2779  0.8304  1.3035
12022TIP3   OH236947   6.214   2.255   7.680 -0.0987  0.3410  0.5524
12022TIP3    H136948   6.295   2.304   7.683  0.1325 -0.0434  0.7061
12022TIP3    H236949   6.235   2.170   7.720 -0.7564  0.5040  1.2755
12023TIP3   OH236950   3.286   7.721   4.500  0.1057 -0.0564 -0.1847
12023TIP3    H136951   3.281   7.666   4.578 -0.5297  1.3520  0.8054
12023TIP3    H236952   3.353   7.679   4.445  0.6070 -1.0361  1.1344
12024TIP3   OH236953   2.572   1.068   6.753  0.3061  0.6115  0.5516
12024TIP3    H136954   2.480   1.077   6.727  0.2262  0.1993  0.6799
12024TIP3    H236955   2.618   1.134   6.702  0.0401  0.3427 -0.0507
12025TIP3   OH236956   2.653   0.348   8.859 -0.3171 -0.5417 -0.4447
12025TIP3    H136957   2.731   0.404   8.865  0.2994 -1.4239 -0.0128
12025TIP3    H236958   2.580   0.409   8.848  0.3716  0.3320 -0.2387
12026TIP3   OH236959   1.207   6.133   4.326  0.0778  0.0098 -0.2340
12026TIP3    H136960   1.144   6.109   4.394  0.5549 -2.9028 -0.7054
12026TIP3    H236961   1.154   6.146   4.247 -0.1813  0.4400  0.0055
12027TIP3   OH236962   2.036   9.291   2.696 -0.7679  0.3667  0.5896
12027TIP3    H136963   2.131   9.298   2.698 -0.4588 -2.4461  2.0977
12027TIP3    H236964   2.010   9.331   2.613  1.5343  2.5613  0.8384
12028TIP3   OH236965   7.703   6.187   4.466  0.0476 -0.6377  0.0260
12028TIP3    H136966   7.780   6.142   4.432  0.3528  0.0105 -0.1503
12028TIP3    H236967   7.715   6.188   4.561  0.4302 -0.2427 -0.0214
12029TIP3   OH236968   0.827   9.292   7.708 -0.2082 -0.0592  0.0350
12029TIP3    H136969   0.878   9.215   7.682  0.1790  0.3040 -0.2980
12029TIP3    H236970   0.890   9.364   7.706 -0.3377  0.1031  1.3111
12030TIP3   OH236971   3.081   7.669   4.299  0.3209  0.2975 -0.3055
12030TIP3    H136972   3.161   7.707   4.335 -0.6168  1.9087  0.1756
12030TIP3    H236973   3.111   7.596   4.245  1.8915 -1.9356  3.1751
12031TIP3   OH236974   0.667   0.256   5.881 -0.0976 -0.2717  0.4275
12031TIP3    H136975   0.740   0.305   5.844 -0.4255  0.1978  0.3977
12031TIP3    H236976   0.630   0.314   5.948 -0.2470 -0.6331  0.6632
12032TIP3   OH236977   0.133  10.662   9.558  0.1120 -0.1112  0.2204
12032TIP3    H136978   0.179  10.604   9.498 -1.8118 -1.7404  0.2215
12032TIP3    H236979   0.042  10.661   9.528 -0.2914  1.6239  1.2301
12033TIP3   OH236980   0.962   3.989   9.631 -0.4404 -0.4142 -0.8685
12033TIP3    H136981   0.952   3.898   9.657  0.0327  0.2951  2.0743
12033TIP3    H236982   0.927   4.040   9.704  2.7936  1.7948 -0.6398
12034TIP3   OH236983   5.432   8.209   6.796  0.4686 -0.1969 -0.6581
12034TIP3    H136984   5.406   8.299   6.778  2.0815 -0.0790 -2.9783
12034TIP3    H236985   5.527   8.214   6.807  0.5026 -1.5393 -0.1925
12035TIP3   OH236986   5.391   0.145   2.182  0.1360  0.1280  0.3439
12035TIP3    H136987   5.473   0.103   2.153  1.2369  0.1066  3.1674
12035TIP3    H236988   5.409   0.239   2.176 -0.1179  0.1399 -0.2624
12036TIP3   OH236989   3.434   2.656   4.690 -0.8964  0.6181 -0.1651
12036TIP3    H136990   3.490   2.603   4.746 -0.9495 -1.4108 -1.9006
12036TIP3    H236991   3.353   2.606   4.682 -1.1094  1.1324 -1.5719
12037TIP3   OH236992   1.736   3.363   3.622  0.4589  0.6122  0.0264
12037TIP3    H136993   1.817   3.317   3.599 -0.0888 -0.5712  0.3510
12037TIP3    H236994   1.667   3.313   3.578  0.0122  2.6836 -1.7995
12038TIP3   OH236995   5.452   3.963   5.588  0.2954 -0.3036 -0.0056
12038TIP3    H136996   5.513   3.935   5.520  0.2213  0.1592 -0.2683
12038TIP3    H236997   5.449   3.890   5.649  1.9693  0.1027  0.6069
12039TIP3   OH236998   2.087   0.415   5.469  0.2153 -0.3744 -0.7038
12039TIP3    H136999   2.050   0.499   5.441  0.9963  0.0145 -0.6001
12039TIP3    H237000   2.181   0.430   5.472  0.2345 -0.6099  1.4429
12040TIP3   OH237001   7.960   0.204   4.574 -0.5713  0.0843 -0.5632
12040TIP3    H137002   7.928   0.145   4.643 -0.2495 -0.3802 -0.8034
12040TIP3    H237003   7.902   0.280   4.578  1.5242  1.7285  2.5937
12041TIP3   OH237004  10.802   0.107   8.904 -0.3409  0.3748  0.5900
12041TIP3    H137005  10.719   0.102   8.951 -0.7689 -0.3526 -0.2208
12041TIP3    H237006  10.832   0.197   8.919 -0.4874  0.1954  2.1883
12042TIP3   OH237007  10.087   8.953   6.886 -0.6061 -1.0458 -0.0924
12042TIP3    H137008  10.056   8.875   6.931 -1.2072 -0.5884  0.3098
12042TIP3    H237009  10.095   9.019   6.955  1.8658 -1.2786 -0.0728
12043TIP3   OH237010   3.546   4.292   7.754 -0.6432  0.5023  0.3679
12043TIP3    H137011   3.525   4.343   7.832  0.1598 -0.2191  1.0732
12043TIP3    H237012   3.633   4.256   7.771 -0.0857  1.0132 -1.2263
12044TIP3   OH237013  10.835   0.468   4.333  0.5858  0.2601  0.3670
12044TIP3    H137014  10.850   0.542   4.275  0.1382 -0.3359 -0.5307
12044TIP3    H237015  10.790   0.506   4.408  0.8300  0.9777  0.1619
12045TIP3   OH237016   0.054   1.363   3.200 -0.2084  0.2168  0.5070
12045TIP3    H137017   0.049   1.422   3.124 -1.4007 -1.3075 -0.6666
12045TIP3    H237018   0.130   1.394   3.249 -0.5715  2.4882 -0.2348
12046TIP3   OH237019   4.309   2.010   4.556  0.0528 -0.4546 -0.1337
12046TIP3    H137020   4.349   2.018   4.643 -1.6800  0.5610  0.6209
12046TIP3    H237021   4.312   1.916   4.536  2.3960 -0.4780  0.0288
12047TIP3   OH237022   8.800   0.744   8.908 -0.2438 -0.3476 -0.8003
12047TIP3    H137023   8.854   0.727   8.831  0.8421 -0.2398 -0.0874
12047TIP3    H237024   8.751   0.663   8.922 -1.2659 -0.0164 -2.2026
12048TIP3   OH237025  10.343   8.347  10.591  0.1022  0.1802 -0.1704
12048TIP3    H137026  10.425   8.314  10.629  0.2057  1.2350  0.5860
12048TIP3    H237027  10.290   8.371  10.667 -0.7130 -0.0176 -0.6680
12049TIP3   OH237028   4.177   6.100  10.163  0.8724 -0.0552  0.4240
12049TIP3    H137029   4.248   6.104  10.099  0.8563  1.2719  0.4506
12049TIP3    H237030   4.099   6.125  10.114  1.0099  1.9436  1.1061
12050TIP3   OH237031   2.529   9.515   3.026 -0.0970  0.1936  0.4955
12050TIP3    H137032   2.466   9.467   3.079  0.7990 -0.3282  1.1092
12050TIP3    H237033   2.560   9.452   2.961 -2.8131  1.3743 -2.2277
12051TIP3   OH237034  10.101   6.536   7.094  0.0711 -0.4529  0.6718
12051TIP3    H137035  10.133   6.455   7.135  1.5540  0.6349  1.7556
12051TIP3    H237036  10.179   6.574   7.053  0.0041  1.6800  2.3457
12052TIP3   OH237037  10.643   6.865   1.252 -0.3616  0.3309  0.5827
12052TIP3    H137038  10.640   6.771   1.268 -1.0394  0.1985 -0.2639
12052TIP3    H237039  10.734   6.883   1.231  0.0203  0.0766  1.9284
12053TIP3   OH237040   8.656   5.419   2.812 -0.0102  0.1129 -0.1251
12053TIP3    H137041   8.740   5.386   2.782 -0.5860 -0.4383 -1.1978
12053TIP3    H237042   8.611   5.449   2.733 -0.9706  0.0370  0.3648
12054TIP3   OH237043   7.566   7.570   2.104  0.2451  0.6901 -0.1851
12054TIP3    H137044   7.656   7.595   2.122  0.1742  1.0804 -0.3505
12054TIP3    H237045   7.532   7.539   2.188  0.7131 -0.0437 -0.2610
12055TIP3   OH237046   2.167   6.662   3.334  0.2144 -0.1079 -0.8937
12055TIP3    H137047   2.219   6.640   3.411 -0.4696  0.6550 -0.2125
12055TIP3    H237048   2.233   6.688   3.269  0.6829  1.6581  0.2174
12056TIP3   OH237049   0.689   7.895   2.966 -0.0649  0.4037 -0.1120
12056TIP3    H137050   0.767   7.948   2.950  1.1139 -0.6111  1.9726
12056TIP3    H237051   0.622   7.936   2.912  2.0302  0.8929 -2.5665
12057TIP3   OH237052  10.188  10.213   6.924  0.4935 -0.1981 -0.0813
12057TIP3    H137053  10.268  10.265   6.914  0.8268 -0.8992 -1.2852
12057TIP3    H237054  10.219  10.126   6.949  0.0605 -0.3070  0.0788
12058TIP3   OH237055   6.134   4.178   0.558 -0.0693 -0.1627  0.1443
12058TIP3    H137056   6.186   4.103   0.588  0.3427 -0.2842 -0.8199
12058TIP3    H237057   6.195   4.251   0.558 -0.2921  0.0224  0.4377
12059TIP3   OH237058  10.408   1.475   5.878  0.4497  0.6282  0.8871
12059TIP3    H137059  10.355   1.545   5.915 -1.7179 -0.6130  0.2996
12059TIP3    H237060  10.433   1.421   5.954 -0.1126  0.5954  1.0512
12060TIP3   OH237061   9.542   8.120  10.727  0.5968  0.1603 -0.1228
12060TIP3    H137062   9.563   8.028  10.746 -2.6825 -0.5642  0.7234
12060TIP3    H237063   9.447   8.125  10.737  0.7623  3.9933  1.2660
12061TIP3   OH237064   3.198   1.841   3.921  0.1990 -0.1976  0.2718
12061TIP3    H137065   3.144   1.918   3.940  1.3701  0.7305 -0.0292
12061TIP3    H237066   3.181   1.780   3.993 -1.7364 -0.2211 -0.1525
12062TIP3   OH237067   9.150   6.119   1.978 -0.1998  0.4103 -0.1294
12062TIP3    H137068   9.146   6.069   1.897  1.1332  0.4172 -0.2200
12062TIP3    H237069   9.135   6.054   2.047  2.3000 -0.3323 -0.1988
12063TIP3   OH237070   1.181   2.584   7.843  0.3034  0.6525 -0.2977
12063TIP3    H137071   1.125   2.634   7.784  0.0288 -0.0667 -0.6596
12063TIP3    H237072   1.144   2.601   7.930 -1.2718 -0.7604 -0.6317
12064TIP3   OH237073  10.552   9.451   9.218 -0.2163 -0.2259  0.1084
12064TIP3    H137074  10.635   9.463   9.172  0.2221  0.9976  1.1544
12064TIP3    H237075  10.490   9.425   9.150  1.6578 -4.4769 -0.2895
12065TIP3   OH237076   7.194   2.601   3.827  0.0920 -0.5184  0.2382
12065TIP3    H137077   7.137   2.535   3.865  0.3826 -0.8252  0.1381
12065TIP3    H237078   7.197   2.580   3.734 -0.1678 -0.1021  0.1320
12066TIP3   OH237079   7.031   7.643   2.430  0.2261  0.2361 -0.0106
12066TIP3    H137080   7.066   7.580   2.493  1.5433 -0.3036 -1.2134
12066TIP3    H237081   7.028   7.726   2.477  1.1153 -0.1684  0.7829
12067TIP3   OH237082   3.389   9.964   0.282  0.5857  0.0672 -0.0178
12067TIP3    H137083   3.412  10.044   0.329 -1.9249  1.3744 -0.8716
12067TIP3    H237084   3.427   9.976   0.195  0.1394  0.3922 -0.1718
12068TIP3   OH237085   3.082   4.640   2.454  0.6748 -0.4693 -0.6460
12068TIP3    H137086   3.135   4.675   2.383 -1.2955  0.9083 -1.5000
12068TIP3    H237087   2.992   4.664   2.432 -0.3764 -2.8441  0.6726
12069TIP3   OH237088   6.560   9.814   2.746 -0.2793 -0.3544 -0.9188
12069TIP3    H137089   6.521   9.846   2.828 -2.6906  0.2885 -2.2306
12069TIP3    H237090   6.638   9.767   2.774 -0.3244  0.9128  1.6510
12070TIP3   OH237091   1.180   0.810   1.751  0.6660  0.1444 -0.0919
12070TIP3    H137092   1.130   0.823   1.671  0.0286 -0.3033  0.2248
12070TIP3    H237093   1.179   0.716   1.766  1.1262  0.1838  0.2236
12071TIP3   OH237094   3.466   2.925   2.098  0.1418 -0.0749 -0.1070
12071TIP3    H137095   3.434   2.875   2.022  0.2637 -1.8645  0.9622
12071TIP3    H237096   3.395   2.986   2.118 -0.1996 -0.0925 -1.1939
12072TIP3   OH237097   4.510   1.481   7.894  0.1394  0.1890 -0.6614
12072TIP3    H137098   4.508   1.566   7.850  0.2081  0.4611 -0.1504
12072TIP3    H237099   4.458   1.423   7.838 -1.0056  0.8968 -0.3586
12073TIP3   OH237100   0.230   7.966   4.113  0.2471 -0.4717 -0.1567
12073TIP3    H137101   0.151   7.986   4.063 -0.0479 -0.2095  0.4015
12073TIP3    H237102   0.208   7.990   4.203  2.2860  3.5089 -0.5396
12074TIP3   OH237103  10.491   2.690   6.895  0.0060 -0.0739 -0.1961
12074TIP3    H137104  10.563   2.636   6.862 -0.4009 -0.6226 -0.1915
12074TIP3    H237105  10.456   2.641   6.970  0.1850  0.6090  0.3463
12075TIP3   OH237106  10.808   9.201   7.914 -0.3601  0.2019 -0.0941
12075TIP3    H137107  10.787   9.294   7.921 -1.5885 -0.0235 -0.4800
12075TIP3    H237108  10.744   9.167   7.851  0.3430 -0.8226 -0.2835
12076TIP3   OH237109   2.346   9.513   7.677  0.2275  0.0569  0.1575
12076TIP3    H137110   2.384   9.591   7.718 -0.1539  0.0250  0.5755
12076TIP3    H237111   2.383   9.512   7.589  0.2201  0.7236  0.1417
12077TIP3   OH237112   0.924   7.268   6.202  0.3530 -0.3029 -0.5306
12077TIP3    H137113   0.966   7.307   6.279  0.6428  0.9933 -1.3190
12077TIP3    H237114   0.933   7.334   6.133 -2.7686 -0.0405 -0.8202
12078TIP3   OH237115   9.031   1.084   7.996  0.2169  0.0433  0.7667
12078TIP3    H137116   9.081   1.003   7.996  0.9838  0.4954 -0.3404
12078TIP3    H237117   9.081   1.143   7.940 -0.8722  0.9374  0.7050
12079TIP3   OH237118   1.103   6.520  10.331  0.0147 -0.0008  0.0164
12079TIP3    H137119   1.100   6.443  10.388  0.7404  0.0742  0.1603
12079TIP3    H237120   1.053   6.494  10.254 -1.4311  0.0767  0.8928
12080TIP3   OH237121   8.592   7.684   0.459  0.0685  0.1218 -0.1542
12080TIP3    H137122   8.683   7.699   0.485 -0.0220 -0.1189  0.3134
12080TIP3    H237123   8.572   7.597   0.493 -0.2969  0.1201 -0.3728
12081TIP3   OH237124   9.921   6.972   1.544 -0.1017 -0.1582  0.1547
12081TIP3    H137125   9.974   6.985   1.465  0.7987  0.3048  0.8100
12081TIP3    H237126   9.870   7.052   1.552  1.9342  1.0785  1.5839
12082TIP3   OH237127   2.738   3.070   9.068  0.1865  0.6916 -0.0046
12082TIP3    H137128   2.645   3.073   9.044  0.0306 -1.2503  0.2212
12082TIP3    H237129   2.745   2.999   9.131  2.0295 -0.0889 -0.9952
12083TIP3   OH237130   5.899   1.408   0.283 -0.2353  0.7899  0.0185
12083TIP3    H137131   5.814   1.395   0.325 -0.4349  0.2296 -0.5436
12083TIP3    H237132   5.943   1.473   0.338 -0.7521  0.5726  0.7073
12084TIP3   OH237133  10.785   1.559   1.837 -0.4485 -0.4711 -0.8894
12084TIP3    H137134  10.806   1.650   1.861 -2.8419  0.4222 -1.8167
12084TIP3    H237135  10.705   1.540   1.885 -0.8964 -1.4928 -1.9870
12085TIP3   OH237136   2.855   1.232   8.632 -0.2865 -0.1627  0.0873
12085TIP3    H137137   2.783   1.292   8.653 -0.9970 -0.6920 -0.7775
12085TIP3    H237138   2.876   1.250   8.541  0.1907 -0.5208  0.1229
12086TIP3   OH237139   6.101   7.298  10.817 -0.3275 -0.0025  0.1762
12086TIP3    H137140   6.117   7.310  10.724  0.2719 -0.0981  0.2583
12086TIP3    H237141   6.015   7.257  10.822  0.4661 -1.8647 -0.4676
12087TIP3   OH237142   7.754   4.714  10.739 -0.2942  0.0545 -0.4207
12087TIP3    H137143   7.704   4.772  10.797 -1.7195 -1.5735  0.0613
12087TIP3    H237144   7.838   4.758  10.727 -1.3269  2.2179 -0.1178
12088TIP3   OH237145  10.053   1.798   6.131 -0.4555  0.0196 -0.1172
12088TIP3    H137146  10.041   1.893   6.124  0.0315  0.0874 -0.1157
12088TIP3    H237147  10.007   1.774   6.211  0.7961  0.5205  0.7828
12089TIP3   OH237148  10.519   6.204  10.013 -0.4541 -0.6608 -0.1998
12089TIP3    H137149  10.471   6.185  10.094 -0.2954 -0.4597 -0.0589
12089TIP3    H237150  10.589   6.264  10.040  0.3615 -1.5556 -0.2573
12090TIP3   OH237151   2.621   6.665   3.834 -0.2015 -0.3154  0.0772
12090TIP3    H137152   2.582   6.748   3.805 -0.9306 -0.7716 -0.2736
12090TIP3    H237153   2.711   6.670   3.803  1.1711  2.2215  3.7685
12091TIP3   OH237154   3.117   5.600   8.939 -0.1417  0.1708 -0.1199
12091TIP3    H137155   3.149   5.560   9.020 -1.3391  0.1064  0.3405
12091TIP3    H237156   3.131   5.533   8.872 -0.8530 -0.5049  0.3889
12092TIP3   OH237157   4.223   7.731   9.462  0.2371 -0.5458  0.2719
12092TIP3    H137158   4.225   7.654   9.406 -1.5052 -1.8032  1.8378
12092TIP3    H237159   4.155   7.787   9.422  0.3123 -0.5800  0.0926
12093TIP3   OH237160   2.276   9.385   8.176 -1.0185  0.0595 -0.3141
12093TIP3    H137161   2.319   9.409   8.094 -0.6639  1.3348  0.2162
12093TIP3    H237162   2.349   9.363   8.235 -1.1659  0.8419  0.1677
12094TIP3   OH237163   9.550   7.188   1.031  0.2425  0.0863  0.1248
12094TIP3    H137164   9.562   7.276   0.996  0.1353  0.0193 -0.0826
12094TIP3    H237165   9.473   7.154   0.985 -0.3475  0.2708  0.9450
12095TIP3   OH237166   0.456   4.561  10.562 -0.5078  0.0997  0.4219
12095TIP3    H137167   0.535   4.604  10.528  0.1187 -0.6698  0.8758
12095TIP3    H237168   0.408   4.631  10.606 -0.0719  0.5754  0.1572
12096TIP3   OH237169   0.158   2.155   2.513  0.2044  0.3937  0.4699
12096TIP3    H137170   0.111   2.074   2.529 -0.0854  0.2036 -1.1915
12096TIP3    H237171   0.148   2.205   2.595  0.3178 -1.1728  1.4823
12097TIP3   OH237172   1.983   4.685   8.757 -0.4503 -0.0953 -0.5459
12097TIP3    H137173   2.055   4.663   8.699  0.1137 -1.9693  0.7556
12097TIP3    H237174   2.017   4.668   8.845 -0.7272  4.0371  0.6031
12098TIP3   OH237175   3.280  10.450   9.240  0.0540  0.1442  0.3463
12098TIP3    H137176   3.343  10.380   9.225 -1.0016 -0.4320 -1.8117
12098TIP3    H237177   3.333  10.523   9.273  1.1948 -1.5257  2.4463
12099TIP3   OH237178   1.628   7.461   4.018  0.2538  0.0833 -0.2596
12099TIP3    H137179   1.680   7.433   4.092  0.8987  2.6029  0.3476
12099TIP3    H237180   1.556   7.512   4.056  0.2496  0.9086 -1.2896
12100TIP3   OH237181   0.561   7.221   0.703  0.5456 -0.2004 -0.6185
12100TIP3    H137182   0.471   7.189   0.710  0.8750 -1.0930 -0.4066
12100TIP3    H237183   0.615   7.146   0.726  1.3155  0.7884  0.9460
12101TIP3   OH237184   4.859   8.626   0.280 -0.3892  0.6764  0.2584
12101TIP3    H137185   4.810   8.695   0.236  1.7910  2.0815 -0.0880
12101TIP3    H237186   4.839   8.547   0.230  0.0948  1.7755 -1.7600
12102TIP3   OH237187   4.874  10.061   8.615  0.1421 -0.1169 -0.9881
12102TIP3    H137188   4.943   9.997   8.631  0.5439  0.5461  0.0524
12102TIP3    H237189   4.792  10.011   8.620  0.4652 -0.5977 -0.4959
12103TIP3   OH237190  10.091   8.746   1.834 -0.0190  0.5715 -0.5661
12103TIP3    H137191  10.135   8.769   1.916 -0.2929 -0.1346 -0.2120
12103TIP3    H237192  10.017   8.806   1.829 -0.3740  0.1947  0.0317
12104TIP3   OH237193   6.474   9.346   0.243 -1.1902  0.3122  0.0597
12104TIP3    H137194   6.560   9.356   0.202 -1.8648 -0.2265 -1.6068
12104TIP3    H237195   6.485   9.275   0.305 -0.1808  0.9681  0.6509
12105TIP3   OH237196   2.863   3.013   2.483  0.4736 -0.0176  0.2764
12105TIP3    H137197   2.854   3.031   2.577  0.0344  1.1162  0.0331
12105TIP3    H237198   2.784   3.050   2.444  0.2991 -1.1388 -0.4669
12106TIP3   OH237199   3.564   6.357   1.624  0.0630  0.2901 -0.3662
12106TIP3    H137200   3.604   6.323   1.543  2.0869 -1.4855  1.2505
12106TIP3    H237201   3.633   6.347   1.690 -1.2796  2.3296  1.4652
12107TIP3   OH237202   9.152   9.611   0.646  0.2959 -0.5201  0.4879
12107TIP3    H137203   9.194   9.589   0.729 -0.9579 -1.1636  0.9791
12107TIP3    H237204   9.071   9.657   0.671 -0.4731 -1.3843 -0.3439
12108TIP3   OH237205   7.862   4.566   0.033  0.0469  0.5056  0.3693
12108TIP3    H137206   7.796   4.553   0.101  0.5013  0.6999  0.8580
12108TIP3    H237207   7.812   4.571  -0.049 -0.5482  0.7691  0.7420
12109TIP3   OH237208   8.913   3.526   6.062  0.1241 -0.2034 -0.1071
12109TIP3    H137209   8.850   3.454   6.054 -0.9956  0.7735 -0.3451
12109TIP3    H237210   8.863   3.598   6.099  0.9733  0.7719 -0.7952
12110TIP3   OH237211   5.648   1.220   7.027  0.0022 -0.4181  0.0208
12110TIP3    H137212   5.623   1.270   6.949  0.9652  2.0393  1.1791
12110TIP3    H237213   5.742   1.237   7.037 -0.0980 -0.7060  1.6936
12111TIP3   OH237214   6.386   8.500   1.454 -0.1397 -0.5221  0.4963
12111TIP3    H137215   6.420   8.424   1.407  2.8933  1.9870 -1.7531
12111TIP3    H237216   6.312   8.530   1.401  1.4526  0.5853 -1.2074
12112TIP3   OH237217   2.983   3.760   9.439 -0.5822 -0.2438  0.6486
12112TIP3    H137218   2.995   3.769   9.534  1.1392  0.7893  0.3820
12112TIP3    H237219   3.040   3.827   9.401 -0.9095 -0.9128 -1.1328
12113TIP3   OH237220   7.564   2.880   2.881  0.1812  0.3735 -0.2308
12113TIP3    H137221   7.497   2.817   2.851  0.2901  0.4783 -0.7097
12113TIP3    H237222   7.620   2.829   2.940 -1.4817  0.7853  1.7969
12114TIP3   OH237223   3.380   3.776  10.074 -0.1703  0.2757 -0.4995
12114TIP3    H137224   3.432   3.849  10.040 -0.4087  1.2590  1.1761
12114TIP3    H237225   3.444   3.717  10.115 -0.0189 -0.3137 -1.5428
12115TIP3   OH237226   6.284   3.404   6.939  0.1431  0.4898  0.3826
12115TIP3    H137227   6.225   3.478   6.925  1.1055  0.9872 -1.1898
12115TIP3    H237228   6.272   3.349   6.862 -1.3051 -1.5863  1.9553
12116TIP3   OH237229   6.681  10.257   1.612 -0.5841  0.5373  0.0818
12116TIP3    H137230   6.688  10.341   1.568 -1.8875 -0.3185 -1.8751
12116TIP3    H237231   6.604  10.266   1.669 -0.9875  0.5308 -0.4584
12117TIP3   OH237232   8.800   5.358   7.217  0.0332  0.1324 -0.2087
12117TIP3    H137233   8.824   5.428   7.157  3.2594  0.5426  1.3407
12117TIP3    H237234   8.759   5.404   7.291 -1.4385 -0.0915 -0.8531
12118TIP3   OH237235   0.845   6.197   9.433 -0.6175 -0.4576  0.0125
12118TIP3    H137236   0.910   6.156   9.491 -2.1770 -1.1642  1.3372
12118TIP3    H237237   0.791   6.124   9.403 -1.6487  0.2770  0.0435
12119TIP3   OH237238   3.041   1.700   4.807  0.4005 -0.0300  0.2421
12119TIP3    H137239   2.947   1.704   4.825  0.4374  0.5662  0.3283
12119TIP3    H237240   3.068   1.613   4.837 -0.3769 -0.7497 -1.0731
12120TIP3   OH237241   5.179  10.902   0.321  0.2124 -0.0025 -0.4616
12120TIP3    H137242   5.163  10.911   0.414 -0.4529  2.0108 -0.7274
12120TIP3    H237243   5.265  10.941   0.307 -0.1108  0.6070 -0.8107
12121TIP3   OH237244  10.154   9.157   1.373 -0.2709 -0.4148  0.0085
12121TIP3    H137245  10.156   9.204   1.290 -4.3211  0.3353  0.0897
12121TIP3    H237246  10.116   9.220   1.435  1.5148 -1.3308  2.1982
12122TIP3   OH237247   7.796   7.367   1.845 -0.1642 -0.0514 -0.4272
12122TIP3    H137248   7.773   7.424   1.771 -2.5748 -0.3957 -0.0306
12122TIP3    H237249   7.853   7.300   1.807 -0.6184  0.2958 -1.7848
12123TIP3   OH237250   2.730   0.153   2.465 -0.3857  0.6052 -0.1373
12123TIP3    H137251   2.709   0.093   2.536 -0.8865  1.1381  0.1685
12123TIP3    H237252   2.752   0.235   2.508 -0.1450  0.7730 -0.5726
12124TIP3   OH237253   6.328  10.712   2.336  0.0142 -0.3600 -0.1279
12124TIP3    H137254   6.412  10.743   2.303  0.5506  0.0597  1.4981
12124TIP3    H237255   6.263  10.757   2.283  0.7957 -1.0960 -1.7682
12125TIP3   OH237256   6.911   2.449   8.701 -0.4447  0.0783 -0.2449
12125TIP3    H137257   6.843   2.385   8.722  0.1909 -0.3854  0.4990
12125TIP3    H237258   6.977   2.398   8.653 -0.1480  0.2747 -0.0496
12126TIP3   OH237259   9.254   4.035   9.139 -0.2330  0.2222 -0.5153
12126TIP3    H137260   9.196   4.053   9.065  1.1719  0.5354 -1.5857
12126TIP3    H237261   9.233   4.103   9.203 -1.4622 -0.0449 -0.6142
12127TIP3   OH237262   4.025   2.861   1.024 -0.4670  0.0678  0.1945
12127TIP3    H137263   4.120   2.847   1.029 -0.3027  0.7702 -0.7172
12127TIP3    H237264   3.992   2.784   0.977 -0.5409 -0.8078  1.6028
12128TIP3   OH237265   2.925   7.237   1.823 -0.6149  0.2124  0.3485
12128TIP3    H137266   2.861   7.244   1.895  0.0697  3.5116  0.7865
12128TIP3    H237267   3.009   7.223   1.867 -0.6030 -1.0912 -0.0552
12129TIP3   OH237268   2.305   8.921   2.023 -0.4376  0.2864  0.0373
12129TIP3    H137269   2.330   8.941   2.113  0.3643  1.7396 -0.4799
12129TIP3    H237270   2.286   8.827   2.024  1.0425 -0.0449  1.3836
12130TIP3   OH237271   2.879   9.537   6.173 -0.1109 -0.0981  0.2318
12130TIP3    H137272   2.840   9.450   6.176 -0.4700  0.0830  1.1048
12130TIP3    H237273   2.919   9.549   6.259 -0.7828  0.9168  0.4229
12131TIP3   OH237274   7.485   9.770   1.548 -0.1034 -0.3581 -0.2145
12131TIP3    H137275   7.554   9.703   1.555 -0.7671 -1.0714 -0.3504
12131TIP3    H237276   7.413   9.734   1.599 -0.2464  0.5724  0.2691
12132TIP3   OH237277   8.011   0.009   3.243  0.4122 -1.0291 -1.3417
12132TIP3    H137278   8.067  -0.067   3.258  0.3425 -0.8301  0.0630
12132TIP3    H237279   7.927  -0.015   3.281  0.1640 -0.5308 -1.5649
12133TIP3   OH237280   3.719   8.058   4.210  0.4611 -0.0540 -0.6511
12133TIP3    H137281   3.809   8.087   4.221  1.3314 -1.9769 -2.0077
12133TIP3    H237282   3.703   8.000   4.284  0.3204  0.3117 -0.3935
12134TIP3   OH237283   9.237   7.696   0.834  0.0521 -0.4149 -0.0693
12134TIP3    H137284   9.207   7.750   0.907 -2.0786 -0.9851 -0.4644
12134TIP3    H237285   9.210   7.607   0.857  0.7847 -0.8489 -0.8282
12135TIP3   OH237286   6.400   6.453   5.419 -0.4147  0.4610 -0.1037
12135TIP3    H137287   6.336   6.519   5.391 -1.7610 -1.2187 -1.2029
12135TIP3    H237288   6.347   6.379   5.446  1.0724 -0.2706  0.9268
12136TIP3   OH237289   4.484   9.021   6.119 -0.5260 -0.1840 -0.3639
12136TIP3    H137290   4.483   8.932   6.083 -0.5793 -0.8879  1.2976
12136TIP3    H237291   4.449   9.075   6.048 -1.5085 -1.6378 -1.0473
12137TIP3   OH237292   1.665   6.204   2.146  0.1082 -0.1470 -0.6427
12137TIP3    H137293   1.642   6.199   2.053 -1.2782 -1.2743 -0.2645
12137TIP3    H237294   1.757   6.176   2.150  0.8234  1.8163 -1.8723
12138TIP3   OH237295   1.825  10.775   0.095 -0.0793 -0.4481 -0.2558
12138TIP3    H137296   1.750  10.811   0.141  0.8535  0.3085  0.7243
12138TIP3    H237297   1.901  10.809   0.142  0.8855 -2.7481  0.0105
12139TIP3   OH237298   2.453   3.999   6.538  0.0138  0.6579  0.2319
12139TIP3    H137299   2.505   4.051   6.477 -1.1441 -0.2347 -1.6192
12139TIP3    H237300   2.364   4.002   6.502 -0.2704 -1.8391  0.5286
12140TIP3   OH237301   2.425   8.832   8.649 -0.0270  0.1757  0.0954
12140TIP3    H137302   2.505   8.841   8.700  0.7244 -1.1394 -0.7784
12140TIP3    H237303   2.455   8.815   8.560 -1.2647  3.4503 -1.1078
12141TIP3   OH237304   5.365   0.207   8.715 -0.1696 -0.3248  0.3792
12141TIP3    H137305   5.275   0.195   8.685 -0.0516  0.9834 -0.6216
12141TIP3    H237306   5.360   0.280   8.777  0.4411  1.1540 -1.2334
12142TIP3   OH237307   6.897   9.009   6.753 -0.0257 -0.1989 -0.0913
12142TIP3    H137308   6.850   9.052   6.681 -0.1555  0.5313  0.4109
12142TIP3    H237309   6.927   9.082   6.808  2.6514 -0.5504 -0.9564
12143TIP3   OH237310   3.662   8.266   9.269  0.2911  0.5038  0.0114
12143TIP3    H137311   3.669   8.350   9.223 -0.4758  1.7641  2.0437
12143TIP3    H237312   3.746   8.256   9.314  0.7901 -0.4002 -1.0650
12144TIP3   OH237313  10.599   3.756   8.654 -0.2222 -0.2406 -0.3260
12144TIP3    H137314  10.505   3.763   8.666 -0.3684 -0.5803 -1.2455
12144TIP3    H237315  10.622   3.672   8.694 -0.3638 -0.3401 -0.4547
12145TIP3   OH237316   9.054   8.448   3.332 -0.0781  0.2484 -0.1595
12145TIP3    H137317   8.960   8.427   3.336 -0.3931  1.5022 -0.4097
12145TIP3    H237318   9.072   8.487   3.417  0.3035 -0.2744  0.0038
12146TIP3   OH237319   0.328   2.448   2.512 -0.1086 -0.3108 -0.1295
12146TIP3    H137320   0.403   2.503   2.488 -0.2487 -0.1008 -0.0971
12146TIP3    H237321   0.311   2.395   2.435 -0.5074  0.3054 -0.4776
12147TIP3   OH237322   9.857   4.495   8.869 -0.2994  0.6814 -0.7799
12147TIP3    H137323   9.823   4.430   8.808  0.7640  3.4315 -4.6466
12147TIP3    H237324   9.813   4.576   8.844 -1.6158  1.6905  3.8464
12148TIP3   OH237325   0.769   6.384   4.802  0.0655 -0.4370 -0.2519
12148TIP3    H137326   0.770   6.331   4.722 -0.2909  0.9101 -1.1855
12148TIP3    H237327   0.745   6.323   4.871 -2.3150 -1.1188 -1.5817
12149TIP3   OH237328   7.277  10.663  10.002  0.2477 -0.2828  0.1460
12149TIP3    H137329   7.352  10.705   9.960  1.3326 -1.5320  0.7408
12149TIP3    H237330   7.211  10.732  10.009  1.9433  1.3365  1.0871
12150TIP3   OH237331   3.023   3.077   1.852 -0.4100  0.1278 -0.1852
12150TIP3    H137332   3.072   3.014   1.906 -0.1790  0.7173  0.3089
12150TIP3    H237333   3.091   3.125   1.805 -0.5559  0.3563 -0.1632
12151TIP3   OH237334   4.167   0.628   0.933 -0.6510  0.2534  0.8428
12151TIP3    H137335   4.164   0.623   1.028 -1.0678  0.0711  0.8238
12151TIP3    H237336   4.245   0.578   0.908 -0.2943  0.6714  1.1103
12152TIP3   OH237337   5.899   8.070   2.854  0.4840 -0.0691 -0.0646
12152TIP3    H137338   5.983   8.023   2.856  0.7628  0.3814 -0.6680
12152TIP3    H237339   5.834   8.002   2.866  0.8860 -0.6356 -0.9301
12153TIP3   OH237340   9.926   3.203   9.228  0.1773  0.0811  0.1766
12153TIP3    H137341   9.919   3.182   9.321 -0.4888  1.4611  0.4644
12153TIP3    H237342   9.836   3.217   9.199  0.3908 -0.1330 -0.6336
12154TIP3   OH237343   2.757   6.356   7.328  0.1307  0.0581 -0.2377
12154TIP3    H137344   2.675   6.306   7.331  0.4111 -0.3915  2.2034
12154TIP3    H237345   2.732   6.440   7.291 -1.3578 -0.2239  0.0369
12155TIP3   OH237346   3.372   8.972   0.183  0.2258 -0.3618 -0.2843
12155TIP3    H137347   3.407   8.993   0.269 -0.7694  0.0667  0.0192
12155TIP3    H237348   3.284   9.008   0.182 -0.0403 -0.9842 -1.2290
12156TIP3   OH237349   6.241   1.341   4.857 -0.4454  0.1946  0.1030
12156TIP3    H137350   6.259   1.422   4.810  2.3646 -0.5190 -0.2340
12156TIP3    H237351   6.199   1.368   4.939 -0.0378  1.9106 -0.2333
12157TIP3   OH237352   8.090   4.720   0.025  0.2901  0.0571  0.0847
12157TIP3    H137353   8.013   4.667   0.044  0.6149 -0.3595  0.2635
12157TIP3    H237354   8.055   4.806   0.003 -0.1665  0.1446  1.1250
12158TIP3   OH237355   0.770   9.592   5.765 -0.0643  0.0822  0.6915
12158TIP3    H137356   0.790   9.508   5.807 -0.2862 -0.2717  0.0920
12158TIP3    H237357   0.853   9.640   5.767  0.4325 -0.6977 -0.2042
12159TIP3   OH237358  10.389   8.401   3.582  0.2716  0.1087 -0.1741
12159TIP3    H137359  10.454   8.331   3.577  1.1937  0.9954 -1.3244
12159TIP3    H237360  10.438   8.476   3.616 -0.3299  0.6064 -0.3846
12160TIP3   OH237361   8.233   0.641   5.058 -0.0345 -0.2811 -0.2126
12160TIP3    H137362   8.294   0.589   5.110 -0.0824  0.2673  0.4181
12160TIP3    H237363   8.186   0.694   5.123  0.3177  0.8659 -0.8600
12161TIP3   OH237364  10.269   9.233   3.283 -0.0177 -0.2781  0.2099
12161TIP3    H137365  10.244   9.250   3.373  1.0624  1.0449  0.2908
12161TIP3    H237366  10.248   9.313   3.235 -0.3262 -0.8624 -0.6631
12162TIP3   OH237367   5.562   7.949   3.669  0.0523 -0.4828 -0.0103
12162TIP3    H137368   5.577   7.863   3.629  0.8051 -1.6332  2.4981
12162TIP3    H237369   5.626   7.953   3.740 -1.3784  1.2602  1.2765
12163TIP3   OH237370   3.210   4.695   7.064 -0.2511 -0.3204 -0.4030
12163TIP3    H137371   3.181   4.618   7.113 -0.3864  0.4791  0.7896
12163TIP3    H237372   3.237   4.659   6.979 -1.6383 -1.5091 -0.3884
12164TIP3   OH237373  10.106   0.674   7.600 -0.3445  0.1237 -0.1248
12164TIP3    H137374  10.062   0.730   7.536  0.9729 -0.9684 -2.0728
12164TIP3    H237375  10.121   0.592   7.554  1.2739 -0.4842  1.3710
12165TIP3   OH237376   7.028   5.969   5.433  0.1601  0.1285  0.3307
12165TIP3    H137377   6.967   6.039   5.457 -0.4240 -0.5428  0.8430
12165TIP3    H237378   7.083   5.958   5.511  1.4489  1.2275 -0.3768
12166TIP3   OH237379   1.323   7.817   5.238 -0.5931 -0.3464 -0.4959
12166TIP3    H137380   1.418   7.829   5.231 -0.2305 -3.0173 -1.4242
12166TIP3    H237381   1.286   7.879   5.175  0.3279  2.1034  1.2291
12167TIP3   OH237382   8.611   8.147   2.132 -0.0489  0.1649 -1.0031
12167TIP3    H137383   8.671   8.175   2.062 -0.4763  2.5018 -0.5208
12167TIP3    H237384   8.537   8.207   2.125 -1.2642 -1.1682 -0.0896
12168TIP3   OH237385   9.203   8.434  10.771  0.1775  0.1286  0.7616
12168TIP3    H137386   9.117   8.392  10.778 -0.2018  0.7549 -0.0400
12168TIP3    H237387   9.249   8.407  10.851 -0.4139 -0.9840  0.7433
12169TIP3   OH237388   8.102   8.363   2.881 -0.5618 -0.0795  0.0596
12169TIP3    H137389   8.045   8.300   2.838 -2.5534  1.4146  0.4045
12169TIP3    H237390   8.126   8.426   2.813  1.0886 -0.9038 -0.1852
12170TIP3   OH237391   2.985   8.040  10.616  0.4210 -0.1844  0.5002
12170TIP3    H137392   2.967   7.986  10.540  1.3170 -1.1059  0.9266
12170TIP3    H237393   3.008   7.978  10.685  2.0191  0.7393  0.8509
12171TIP3   OH237394   8.970   6.233   7.891  0.3250  0.3647  0.0201
12171TIP3    H137395   9.000   6.263   7.805 -1.0449 -0.9291 -0.9541
12171TIP3    H237396   9.050   6.228   7.944  1.3592  0.1804 -1.4895
12172TIP3   OH237397   6.372   0.942  10.434  0.6068 -0.5828 -0.4916
12172TIP3    H137398   6.404   1.016  10.484  1.0263 -1.1791  0.1369
12172TIP3    H237399   6.357   0.977  10.346 -1.1188  0.7393  0.2675
12173TIP3   OH237400   3.773   1.063   3.069  0.1656 -0.4473  0.1850
12173TIP3    H137401   3.811   0.979   3.093 -1.9859 -2.1876 -1.9997
12173TIP3    H237402   3.694   1.041   3.020 -0.8500  2.8820  0.0387
12174TIP3   OH237403  10.381   2.097   4.170 -0.2114 -0.6553  0.3478
12174TIP3    H137404  10.327   2.106   4.092  1.0535  0.5472 -0.4403
12174TIP3    H237405  10.319   2.089   4.242 -1.4196  0.1138 -0.5776
12175TIP3   OH237406   2.328   4.696   2.114 -0.0377  0.2873 -0.5433
12175TIP3    H137407   2.273   4.684   2.036 -2.2797  1.8588  0.7064
12175TIP3    H237408   2.341   4.790   2.120  1.7782  0.0403 -0.0688
12176TIP3   OH237409   0.820   2.507   2.741 -0.0627 -0.0187  0.9467
12176TIP3    H137410   0.736   2.544   2.715  1.2600  2.3239 -0.3001
12176TIP3    H237411   0.853   2.464   2.662  0.1422 -0.4952  1.2855
12177TIP3   OH237412   0.145   9.837   6.944  0.2807  0.0907 -0.4635
12177TIP3    H137413   0.181   9.774   6.880  0.0204  0.1409 -0.6619
12177TIP3    H237414   0.083   9.890   6.893  1.1210  1.0735 -0.4920
12178TIP3   OH237415   6.863   0.423   0.653 -0.2412  0.2102  0.5217
12178TIP3    H137416   6.853   0.364   0.728 -0.6767 -0.2881  0.0860
12178TIP3    H237417   6.955   0.447   0.653 -0.3134  0.5098  1.4334
12179TIP3   OH237418   0.398   2.332   0.437 -0.1692 -0.1028 -0.5776
12179TIP3    H137419   0.311   2.294   0.445 -0.2103 -0.0232 -0.6465
12179TIP3    H237420   0.396   2.409   0.494  0.1052 -0.5392  0.0375
12180TIP3   OH237421  10.807   2.103   0.088  0.0418 -0.3141 -0.3433
12180TIP3    H137422  10.791   2.190   0.053 -1.8864 -0.2040  0.6249
12180TIP3    H237423  10.901   2.099   0.104  0.1085  1.7530 -0.0130
12181TIP3   OH237424   1.805   3.613   9.927  0.0072  0.1015  0.1198
12181TIP3    H137425   1.813   3.573  10.013 -0.0181  0.8936  0.5035
12181TIP3    H237426   1.871   3.570   9.873  0.7469  0.3495  0.8239
12182TIP3   OH237427   2.680   3.929   7.966 -0.6097  0.0150  0.1101
12182TIP3    H137428   2.706   3.994   7.901  0.7769 -0.6546 -0.0171
12182TIP3    H237429   2.709   3.845   7.931 -0.3182 -0.4229  1.3414
12183TIP3   OH237430   4.080   1.010   9.193 -0.4584 -0.2357 -0.1900
12183TIP3    H137431   4.048   0.964   9.116 -1.9487  1.4061 -0.6183
12183TIP3    H237432   4.005   1.062   9.223  1.0196  1.6455  0.4399
12184TIP3   OH237433   7.846   7.991   2.995 -0.4806 -0.1891  0.4544
12184TIP3    H137434   7.813   8.020   3.080 -0.4168  1.1701  0.0312
12184TIP3    H237435   7.937   7.964   3.013 -0.1075  1.1312  0.6229
12185TIP3   OH237436   2.521   3.578   4.997  0.3660 -0.1186  0.8989
12185TIP3    H137437   2.609   3.545   5.014 -0.2289 -1.3955  1.6270
12185TIP3    H237438   2.469   3.500   4.979 -0.5215  0.6569 -0.0155
12186TIP3   OH237439   1.994   1.200  10.534 -0.6787 -0.0803 -0.1432
12186TIP3    H137440   1.957   1.287  10.552 -0.1219 -0.0554  0.9683
12186TIP3    H237441   2.021   1.168  10.620 -1.5732 -1.6914 -0.4397
12187TIP3   OH237442   9.745   7.574   7.977  0.0628  0.2367 -0.0924
12187TIP3    H137443   9.650   7.580   7.965  0.2910  1.3022 -1.7023
12187TIP3    H237444   9.779   7.554   7.890  1.3139 -0.4886  0.5342
12188TIP3   OH237445   9.013   2.941   7.051 -0.6018 -0.1231 -0.0481
12188TIP3    H137446   8.988   2.967   6.962 -0.5151  1.4709  0.3544
12188TIP3    H237447   9.107   2.929   7.047 -0.7163 -1.0230 -0.3752
12189TIP3   OH237448   1.716   7.707   4.974  1.0082 -0.5052 -0.3835
12189TIP3    H137449   1.744   7.717   4.883  0.6464 -1.1474 -0.5700
12189TIP3    H237450   1.655   7.633   4.972  0.6548 -0.2362  0.3077
12190TIP3   OH237451   1.810   6.232   3.367 -0.5886 -0.1549 -0.8411
12190TIP3    H137452   1.890   6.267   3.327  1.8007 -2.8558  1.0998
12190TIP3    H237453   1.785   6.159   3.309 -1.4221  0.4030 -1.1993
12191TIP3   OH237454   3.068   1.091   6.039 -0.1567 -0.0184  0.0807
12191TIP3    H137455   3.131   1.117   5.971  0.2693 -0.4107  0.3236
12191TIP3    H237456   3.059   1.169   6.094 -0.6036  0.3441 -0.4974
12192TIP3   OH237457   6.188   2.060   1.680  0.0951 -0.2201 -0.2134
12192TIP3    H137458   6.159   1.970   1.697  1.6835 -0.6472  0.4255
12192TIP3    H237459   6.132   2.114   1.737 -1.7526 -0.6297 -1.5407
12193TIP3   OH237460   9.390   6.882   1.291 -0.3916 -0.4914  0.0954
12193TIP3    H137461   9.330   6.916   1.357 -0.1923 -2.8296  1.5796
12193TIP3    H237462   9.477   6.893   1.329 -0.0517  0.3611 -0.8687
12194TIP3   OH237463   0.941   9.452   8.836 -0.0640 -0.2218 -0.0845
12194TIP3    H137464   0.851   9.425   8.817 -0.4668 -0.0226  1.3729
12194TIP3    H237465   0.933   9.544   8.864  0.5351 -0.3111  0.4130
12195TIP3   OH237466   9.586   1.204   5.390 -0.1454  0.2619  0.0146
12195TIP3    H137467   9.490   1.201   5.383 -0.0926 -3.0415 -0.8048
12195TIP3    H237468   9.617   1.169   5.307  1.7612  0.1383  0.7379
12196TIP3   OH237469   5.554   5.525   8.921 -0.4930  0.1105 -0.6375
12196TIP3    H137470   5.547   5.433   8.944 -2.1673  0.5594  0.8895
12196TIP3    H237471   5.623   5.528   8.855  0.8401 -2.0017  0.5286
12197TIP3   OH237472   3.063   5.320   5.037  0.1381  0.4506  0.1284
12197TIP3    H137473   3.018   5.252   5.087  0.6857 -1.0239 -1.3171
12197TIP3    H237474   3.146   5.333   5.083 -0.3481  0.8097  0.9209
12198TIP3   OH237475   6.643   2.240   3.320  0.1423  0.8751  0.0792
12198TIP3    H137476   6.635   2.292   3.240  0.1690  0.1543 -0.3990
12198TIP3    H237477   6.601   2.156   3.299 -0.8655  1.0701  1.1893
12199TIP3   OH237478   0.638   5.314  10.039 -0.0479 -0.0480 -0.1546
12199TIP3    H137479   0.597   5.360   9.965 -2.8361  0.5349  1.6087
12199TIP3    H237480   0.732   5.321  10.022 -0.4881  2.3276 -2.2936
12200TIP3   OH237481   6.859   2.218   9.058 -0.5322 -0.0447  0.5741
12200TIP3    H137482   6.836   2.199   9.149 -1.9610 -0.1389  0.2075
12200TIP3    H237483   6.833   2.310   9.045 -0.6581 -0.1369  0.1571
12201TIP3   OH237484   3.252   3.061   8.068 -0.2169 -0.5118 -0.2301
12201TIP3    H137485   3.302   3.084   8.146 -0.2848  2.4602 -0.9575
12201TIP3    H237486   3.311   3.082   7.995 -1.1791 -0.5265 -1.0272
12202TIP3   OH237487   1.234   6.293   2.523 -0.0533  0.2009 -0.0307
12202TIP3    H137488   1.268   6.377   2.493  0.3109 -0.0396 -0.3000
12202TIP3    H237489   1.270   6.283   2.612  1.4974 -0.5384 -0.6958
12203TIP3   OH237490   6.166   8.987  10.485 -0.5883 -0.1321 -0.8556
12203TIP3    H137491   6.253   9.027  10.488 -0.3691 -0.5287 -1.6284
12203TIP3    H237492   6.182   8.894  10.498 -0.6697 -0.4747 -2.8895
12204TIP3   OH237493   6.839   1.348   8.489  0.2607  0.4068 -0.4140
12204TIP3    H137494   6.797   1.293   8.423  1.8092 -0.9763 -0.2976
12204TIP3    H237495   6.925   1.309   8.503  0.9332  2.1226  0.6309
12205TIP3   OH237496   6.689   5.628   6.586  0.5849  0.3792  0.5773
12205TIP3    H137497   6.736   5.711   6.595  0.7382  0.2280  1.2648
12205TIP3    H237498   6.710   5.580   6.666  1.3659 -0.7605 -0.2726
12206TIP3   OH237499   3.185   7.169  10.297 -0.6583 -0.7484  0.1108
12206TIP3    H137500   3.166   7.146  10.206 -1.8547 -2.6981  0.7973
12206TIP3    H237501   3.274   7.205  10.294  0.5914 -3.6205 -1.4469
12207TIP3   OH237502   5.478   5.249   0.490  0.2142  0.1525 -0.3051
12207TIP3    H137503   5.383   5.238   0.493  0.1837  0.5789  0.4536
12207TIP3    H237504   5.513   5.163   0.513  0.0802 -1.0581 -4.0028
12208TIP3   OH237505   1.036   6.196   7.340  0.0772 -0.2627  0.0374
12208TIP3    H137506   1.130   6.187   7.350  0.0424 -0.6290  0.0560
12208TIP3    H237507   1.014   6.277   7.387  0.1021 -1.2675  1.8747
12209TIP3   OH237508   5.914   9.205   2.101 -0.3002 -0.4163  0.3520
12209TIP3    H137509   5.836   9.226   2.153 -1.3791 -1.8864 -0.6037
12209TIP3    H237510   5.987   9.217   2.162 -1.4847 -1.7490  2.1325
12210TIP3   OH237511   3.374   9.772  10.708  0.0212  0.0042  0.4276
12210TIP3    H137512   3.347   9.684  10.681  2.3524 -0.2746 -1.3217
12210TIP3    H237513   3.326   9.830  10.649  1.0867 -0.3384 -0.8308
12211TIP3   OH237514   1.209   4.181   2.303  0.1708  0.6567 -0.1671
12211TIP3    H137515   1.274   4.214   2.240  0.2579 -0.7460 -0.8559
12211TIP3    H237516   1.125   4.196   2.261  0.0765  1.6708  0.3447
12212TIP3   OH237517   7.936   9.822   7.836 -0.9877 -0.0694 -0.2110
12212TIP3    H137518   7.962   9.913   7.842  0.3849 -0.1852 -2.9304
12212TIP3    H237519   7.925   9.794   7.927  1.7578  1.8983  0.8464
12213TIP3   OH237520   3.312   0.932   8.388 -0.1100 -0.3350  0.4225
12213TIP3    H137521   3.228   0.890   8.369 -1.0146  0.3979  2.4382
12213TIP3    H237522   3.319   0.930   8.484  1.0261  1.7392  0.4648
12214TIP3   OH237523   6.106   9.182   8.805 -0.3566 -0.6146  0.0948
12214TIP3    H137524   6.102   9.251   8.739 -0.8532 -2.3610 -1.8107
12214TIP3    H237525   6.070   9.222   8.884 -1.7851  0.9516 -1.2746
12215TIP3   OH237526   3.264   2.112   2.905  0.0322  0.4302  0.3175
12215TIP3    H137527   3.186   2.057   2.898 -0.4861  1.2910 -1.0910
12215TIP3    H237528   3.293   2.125   2.815  1.0858  1.1667  0.7350
12216TIP3   OH237529   0.486   2.131   2.989  0.1952 -0.2539  0.2071
12216TIP3    H137530   0.529   2.122   3.074  0.5349  2.1147  0.3482
12216TIP3    H237531   0.538   2.076   2.930  0.9824 -0.5933  1.1852
12217TIP3   OH237532   8.567   8.411  10.021 -0.0373  0.2052  0.9581
12217TIP3    H137533   8.589   8.403   9.928 -2.2142 -1.9245  0.5287
12217TIP3    H237534   8.493   8.472  10.023  0.0072  0.2494  1.2922
12218TIP3   OH237535   4.828   6.269  10.237  0.3207 -0.0755 -0.6937
12218TIP3    H137536   4.756   6.259  10.175  0.3962  0.7178 -0.9128
12218TIP3    H237537   4.786   6.277  10.322 -0.0994  3.6136 -1.1082
12219TIP3   OH237538  10.751   4.347   6.634 -0.5742  0.4395 -0.2408
12219TIP3    H137539  10.664   4.387   6.627 -0.9666 -0.0071  1.4003
12219TIP3    H237540  10.749   4.274   6.572 -0.5756  1.6868 -1.7643
12220TIP3   OH237541   0.809  10.206   5.159  0.0702 -0.2172  0.4768
12220TIP3    H137542   0.730  10.258   5.144  1.1157  1.5108  0.6954
12220TIP3    H237543   0.793  10.162   5.243  0.5000  2.5602  2.1370
12221TIP3   OH237544   1.325   8.470   4.892  0.2466 -0.1681 -0.1649
12221TIP3    H137545   1.244   8.500   4.934  0.3415  0.1658 -0.2170
12221TIP3    H237546   1.345   8.387   4.936 -0.3390 -0.4537 -0.4313
12222TIP3   OH237547   1.403   0.010  10.411  0.4257 -0.1594 -0.4107
12222TIP3    H137548   1.329   0.057  10.449 -0.1061  0.4094 -2.0652
12222TIP3    H237549   1.410  -0.070  10.463 -0.3353  0.5056  0.7603
12223TIP3   OH237550   7.054   8.780   6.865  0.2609 -0.0872 -0.0852
12223TIP3    H137551   7.085   8.839   6.934  2.5454  0.5495 -1.5740
12223TIP3    H237552   6.996   8.833   6.811 -0.2671 -0.1518  0.4037
12224TIP3   OH237553   1.718   3.080   4.601  0.2150  0.0519 -0.0479
12224TIP3    H137554   1.658   3.071   4.675  1.1380 -1.3480  0.5668
12224TIP3    H237555   1.747   2.991   4.582 -0.0041  0.3821 -2.1230
12225TIP3   OH237556   4.275   3.319   1.345 -0.2109 -0.1037 -0.1489
12225TIP3    H137557   4.219   3.258   1.394 -1.5345  1.2285  0.0618
12225TIP3    H237558   4.271   3.286   1.255 -3.5019  1.3384 -0.6813
12226TIP3   OH237559   8.141   0.120   7.224  0.3232  0.0623  0.4866
12226TIP3    H137560   8.111   0.210   7.232  0.1571 -0.0816  1.7616
12226TIP3    H237561   8.071   0.076   7.175  0.9598  0.8564 -1.2000
12227TIP3   OH237562   6.576   0.498  10.685  0.0706 -0.7315  0.4471
12227TIP3    H137563   6.520   0.489  10.763 -1.0188 -1.8319 -0.4199
12227TIP3    H237564   6.542   0.575  10.640 -0.0928 -0.8005  0.4495
12228TIP3   OH237565   7.246   0.529   9.555 -0.1793 -0.1419  0.0974
12228TIP3    H137566   7.328   0.485   9.532  0.1244  0.5999 -0.2435
12228TIP3    H237567   7.199   0.537   9.472  0.0123  0.6743  0.0596
12229TIP3   OH237568   8.196   4.189   3.895  0.1888  0.3784  0.0419
12229TIP3    H137569   8.198   4.257   3.962 -1.9371 -0.8481  1.4338
12229TIP3    H237570   8.116   4.206   3.845  1.5111  1.0103 -1.9989
12230TIP3   OH237571   3.589  10.276   5.427 -0.2365 -0.9856 -0.2956
12230TIP3    H137572   3.644  10.232   5.492 -1.3724 -1.1491  0.5857
12230TIP3    H237573   3.591  10.218   5.351 -0.0997 -1.5452  0.1290
12231TIP3   OH237574  10.498   9.642  10.017 -0.0322  0.3133 -0.7938
12231TIP3    H137575  10.472   9.555  10.048 -0.1158  0.8991  0.9092
12231TIP3    H237576  10.591   9.647  10.040 -0.1412  0.8361 -0.4631
12232TIP3   OH237577   0.177   0.792   1.015  0.0379 -0.8660 -0.0400
12232TIP3    H137578   0.123   0.716   1.040  0.0347 -1.3466 -1.4315
12232TIP3    H237579   0.263   0.773   1.051  0.0767 -1.6139 -0.5056
12233TIP3   OH237580   5.704   9.668   7.825  0.1044  0.1676  0.1615
12233TIP3    H137581   5.725   9.613   7.749 -0.3867  0.1192  0.0559
12233TIP3    H237582   5.771   9.646   7.890  1.2046  1.0273 -0.6527
12234TIP3   OH237583   0.874   9.611   0.579  0.3684 -0.0312 -0.5662
12234TIP3    H137584   0.879   9.678   0.646 -0.0180  0.4459 -1.0057
12234TIP3    H237585   0.826   9.539   0.620 -1.1101  0.8071 -0.7624
12235TIP3   OH237586   7.450   7.310   2.887  0.0498  0.2899 -0.3013
12235TIP3    H137587   7.359   7.330   2.911 -0.3298  1.0195 -2.2000
12235TIP3    H237588   7.488   7.395   2.864  1.0590 -0.0823 -0.0521
12236TIP3   OH237589   1.093   4.346   2.044 -0.1816  0.4077 -0.2445
12236TIP3    H137590   1.159   4.350   1.975  0.6033  0.8028  0.5104
12236TIP3    H237591   1.060   4.436   2.050  1.6965  1.0559  1.7004
12237TIP3   OH237592   5.589   2.718   0.555 -0.0240  0.0889  0.2663
12237TIP3    H137593   5.558   2.704   0.466  1.3172  0.2089 -0.2364
12237TIP3    H237594   5.669   2.770   0.546  0.2006  0.0145  1.5248
12238TIP3   OH237595   8.758   6.693   0.431  0.3956  0.0191 -0.3327
12238TIP3    H137596   8.676   6.694   0.382 -0.7763  0.2735  1.5113
12238TIP3    H237597   8.736   6.737   0.514  1.9275 -1.4214  0.8957
12239TIP3   OH237598   1.492   1.331   9.847  0.5746  0.1099 -0.3376
12239TIP3    H137599   1.555   1.281   9.796  1.1172  1.2780 -0.8416
12239TIP3    H237600   1.462   1.270   9.915  0.3776 -1.2415 -1.5875
12240TIP3   OH237601   5.722   7.748   0.364 -0.1746  0.0486  0.4086
12240TIP3    H137602   5.802   7.799   0.350  0.8029 -1.0958  1.5663
12240TIP3    H237603   5.731   7.672   0.306 -0.4374 -0.0656  0.5151
12241TIP3   OH237604   3.176   6.754   0.195  0.8657 -0.1275  0.0029
12241TIP3    H137605   3.139   6.758   0.283 -0.2012  0.1080 -0.4502
12241TIP3    H237606   3.166   6.843   0.161  0.1355 -0.5037 -0.8075
12242TIP3   OH237607   6.505   3.872   8.543 -0.2707 -0.3107 -0.7013
12242TIP3    H137608   6.502   3.782   8.512  2.0234 -0.6366 -0.1527
12242TIP3    H237609   6.510   3.926   8.464  0.0282 -0.7716 -0.9958
12243TIP3   OH237610   1.392   1.338   5.139  0.2738 -0.0211 -0.2721
12243TIP3    H137611   1.380   1.295   5.054 -0.7711 -0.3046  0.0139
12243TIP3    H237612   1.458   1.285   5.183  2.9455  1.6570 -1.9276
12244TIP3   OH237613   8.897   6.990   3.613 -0.1306 -0.3723  0.0899
12244TIP3    H137614   8.880   6.906   3.570 -1.2732 -0.0368 -0.1493
12244TIP3    H237615   8.828   6.997   3.679  0.4470  0.0132  0.6606
12245TIP3   OH237616   0.670   7.407   1.725 -0.8323 -0.4941 -0.7457
12245TIP3    H137617   0.641   7.339   1.664  0.2150 -1.2261 -0.4645
12245TIP3    H237618   0.656   7.369   1.812 -1.4355  0.1661 -0.5494
12246TIP3   OH237619   6.233   8.747   9.689 -0.0626  0.2560  1.0887
12246TIP3    H137620   6.319   8.752   9.647  0.1189 -0.3470  1.3903
12246TIP3    H237621   6.177   8.799   9.632  0.6601  1.3082  1.2956
12247TIP3   OH237622  10.842   7.871   2.695 -0.3637  0.1179  0.8020
12247TIP3    H137623  10.938   7.866   2.689 -0.4458 -0.0686 -0.5152
12247TIP3    H237624  10.826   7.948   2.749  0.5166  0.7272  0.2200
12248TIP3   OH237625   7.697   8.218   6.300 -0.2346 -0.5465  0.4754
12248TIP3    H137626   7.680   8.203   6.393  0.1067 -1.1441  0.4461
12248TIP3    H237627   7.707   8.130   6.263 -0.3977 -0.3128 -0.1314
12249TIP3   OH237628   8.629   7.750   4.743 -0.5761  0.2219 -0.5581
12249TIP3    H137629   8.619   7.844   4.727 -0.1938  0.4592  0.5146
12249TIP3    H237630   8.723   7.734   4.735 -0.6313 -0.0567 -0.6642
12250TIP3   OH237631   7.183   4.835  10.615 -0.6684 -0.4397 -0.7960
12250TIP3    H137632   7.256   4.776  10.635  0.2282  1.1018  0.7210
12250TIP3    H237633   7.225   4.919  10.594 -1.9579  0.8458  1.3797
12251TIP3   OH237634   4.381   2.738   4.942 -0.2845  0.4779  0.0779
12251TIP3    H137635   4.397   2.714   4.851  0.0662 -1.7880  0.6934
12251TIP3    H237636   4.288   2.721   4.957 -0.0375 -0.5377  0.5181
12252TIP3   OH237637  10.500   8.627   3.733 -0.6187 -0.2527  0.1325
12252TIP3    H137638  10.554   8.705   3.727 -0.6328 -0.3257 -1.5005
12252TIP3    H237639  10.417   8.657   3.769  0.4243 -0.1287  2.6079
12253TIP3   OH237640   6.443   3.022   8.784  0.6581  0.4373  0.3742
12253TIP3    H137641   6.444   3.102   8.837  1.5635  0.9662 -0.4096
12253TIP3    H237642   6.424   2.952   8.847 -0.1295  1.2615  1.0752
12254TIP3   OH237643   5.562  10.449  10.352  0.5304 -0.0641 -0.0819
12254TIP3    H137644   5.632  10.386  10.366 -0.4284 -1.0364  0.5463
12254TIP3    H237645   5.605  10.526  10.315  2.1722 -0.0355  1.7141
12255TIP3   OH237646   9.054   5.435   8.569 -0.1766  0.2546 -0.3097
12255TIP3    H137647   9.134   5.475   8.601  0.5922  0.4183 -2.3026
12255TIP3    H237648   9.049   5.350   8.613  0.0503  1.0269  1.2618
12256TIP3   OH237649   3.153   4.286   6.339  0.3113 -0.3516  0.1558
12256TIP3    H137650   3.166   4.202   6.384 -0.3732  0.3454  1.7296
12256TIP3    H237651   3.060   4.304   6.350  0.4876  0.6892 -0.0305
12257TIP3   OH237652   5.352   4.118   2.166  0.2310  0.2295 -0.6307
12257TIP3    H137653   5.269   4.158   2.138  0.0150 -1.6418 -2.9782
12257TIP3    H237654   5.377   4.062   2.093  0.6359 -3.7209  2.2490
12258TIP3   OH237655   3.745   4.793   6.904 -0.1206 -0.7597 -0.0337
12258TIP3    H137656   3.656   4.759   6.917 -0.6050  0.3567 -0.3169
12258TIP3    H237657   3.732   4.882   6.872  1.0902  0.1528  1.8245
12259TIP3   OH237658   2.964   0.032   8.740  0.3888 -0.4804  0.5496
12259TIP3    H137659   2.911  -0.022   8.682  1.6061  0.5725 -1.6664
12259TIP3    H237660   2.904   0.100   8.771 -0.4394 -1.4349  1.1182
12260TIP3   OH237661   7.280   3.699   7.234 -0.0369 -0.0627 -0.0500
12260TIP3    H137662   7.267   3.713   7.327  0.7675 -0.5296  0.1434
12260TIP3    H237663   7.361   3.746   7.213 -0.1801 -0.0075 -0.5030
12261TIP3   OH237664   8.296   1.183   1.125 -0.3195  0.5697  0.6481
12261TIP3    H137665   8.236   1.236   1.179 -2.1160 -1.6821  1.0315
12261TIP3    H237666   8.247   1.167   1.044 -0.7148 -2.0956  1.3338
12262TIP3   OH237667   9.640   2.110   6.540  0.1788  0.0144  0.0789
12262TIP3    H137668   9.665   2.087   6.629  1.7746  1.0354 -0.0736
12262TIP3    H237669   9.673   2.199   6.527  1.0675 -0.5399 -1.9122
12263TIP3   OH237670  10.170   6.819   1.618  0.6331 -0.0201 -0.2032
12263TIP3    H137671  10.150   6.793   1.707  0.2358 -1.1698 -0.6167
12263TIP3    H237672  10.085   6.819   1.573  0.9009  0.0177 -0.7159
12264TIP3   OH237673   5.936   1.834   6.803 -0.4997  0.5223 -0.8647
12264TIP3    H137674   5.898   1.911   6.760 -1.6899  0.0281 -0.7509
12264TIP3    H237675   5.866   1.769   6.801 -0.3559  0.2505  1.2234
12265TIP3   OH237676   8.297   1.010   3.470 -0.2420  0.2326  0.4136
12265TIP3    H137677   8.213   0.972   3.445  0.6371 -0.9891 -0.8472
12265TIP3    H237678   8.330   1.050   3.390  0.1864  1.1245  1.0179
12266TIP3   OH237679   5.452   4.677   5.671  0.3955  0.3113 -0.0331
12266TIP3    H137680   5.518   4.643   5.611 -0.0886  0.4198 -0.6316
12266TIP3    H237681   5.498   4.746   5.720  0.7587  0.3001 -0.3501
12267TIP3   OH237682   3.350   2.289   9.798  0.0575 -0.0795 -0.2491
12267TIP3    H137683   3.313   2.234   9.867  0.2855  1.4497  1.1523
12267TIP3    H237684   3.441   2.260   9.791  0.6910  1.2231  1.7487
12268TIP3   OH237685   5.470   1.252   5.323 -0.5735  0.3759 -0.8214
12268TIP3    H137686   5.385   1.275   5.286  0.2240  1.6831 -1.9442
12268TIP3    H237687   5.519   1.216   5.249  0.1605  0.5531 -0.4326
12269TIP3   OH237688   6.768  10.230   5.674 -0.2122 -0.0678 -0.4025
12269TIP3    H137689   6.837  10.185   5.723 -0.4383  0.1654  0.1427
12269TIP3    H237690   6.724  10.160   5.625 -0.7398 -0.4980  0.6505
12270TIP3   OH237691   2.488  10.771   7.213 -0.5105  0.5531  0.2323
12270TIP3    H137692   2.403  10.750   7.253 -0.7587  0.1920 -0.4554
12270TIP3    H237693   2.480  10.738   7.123  0.7713 -0.5255  0.4805
12271TIP3   OH237694   4.316   4.233   5.667  0.3375 -0.1808  0.3869
12271TIP3    H137695   4.398   4.282   5.672  0.2310 -0.0465  0.9947
12271TIP3    H237696   4.328   4.172   5.595  0.6406  0.4399 -0.1016
12272TIP3   OH237697   3.514   5.872   9.415 -0.2500  0.8411  0.2391
12272TIP3    H137698   3.588   5.870   9.355  0.2284 -0.0804  0.8336
12272TIP3    H237699   3.474   5.785   9.406 -0.3606  0.8090  1.0018
12273TIP3   OH237700   2.449   7.418   3.895  0.2917  0.2550 -0.2109
12273TIP3    H137701   2.520   7.478   3.872  1.7753 -0.5628  1.9681
12273TIP3    H237702   2.482   7.368   3.969 -2.4197 -0.4849  0.6136
12274TIP3   OH237703   7.303   8.803   9.065  0.2032  0.2403 -0.1730
12274TIP3    H137704   7.362   8.848   9.003  2.0793  0.1106  1.4317
12274TIP3    H237705   7.343   8.717   9.078  0.2240  0.5153  1.7264
12275TIP3   OH237706   2.669   4.148   2.525 -0.7087  0.2019 -0.1422
12275TIP3    H137707   2.636   4.200   2.598 -1.1427  1.5364 -1.2505
12275TIP3    H237708   2.599   4.153   2.460  0.1513 -0.0065 -1.0949
12276TIP3   OH237709   7.553   9.711   3.929  0.1633 -0.0799 -0.1091
12276TIP3    H137710   7.626   9.771   3.911 -0.7903  0.2794 -3.4629
12276TIP3    H237711   7.569   9.636   3.872 -1.4980 -0.4774 -0.1085
12277TIP3   OH237712   5.441   7.266   6.871  0.0075 -0.0927 -0.0565
12277TIP3    H137713   5.454   7.282   6.965  0.1011 -1.9033  0.2732
12277TIP3    H237714   5.372   7.327   6.846 -0.7473 -0.2740  1.4334
12278TIP3   OH237715   2.843   2.766   8.120 -0.7078 -0.4858 -0.1155
12278TIP3    H137716   2.769   2.814   8.085 -0.7662 -1.7354 -1.8337
12278TIP3    H237717   2.917   2.827   8.112 -0.9933 -0.2518 -1.2084
12279TIP3   OH237718   2.529  10.414   8.068 -0.3938 -0.3838  0.4154
12279TIP3    H137719   2.537  10.370   7.984 -0.0085 -0.6940  0.6130
12279TIP3    H237720   2.601  10.379   8.121 -0.6291 -0.1857  0.8709
12280TIP3   OH237721   6.132   0.775   4.849 -0.3745  0.3529 -0.1099
12280TIP3    H137722   6.077   0.845   4.885  0.5700  1.0195  0.0816
12280TIP3    H237723   6.083   0.694   4.867 -0.3357  0.7307  1.9899
12281TIP3   OH237724   2.050  10.720   1.964 -0.2129  0.5192  0.5611
12281TIP3    H137725   2.063  10.748   1.873 -0.9153 -0.7642  0.0374
12281TIP3    H237726   2.081  10.794   2.016  2.3891  0.4146 -0.6562
12282TIP3   OH237727   3.790   3.668   8.192 -0.0162  1.0549  0.2683
12282TIP3    H137728   3.869   3.669   8.137 -0.2969  1.2845 -0.1323
12282TIP3    H237729   3.734   3.735   8.154 -1.1356 -0.2828 -0.5160
12283TIP3   OH237730   6.038   2.384   6.250  0.0274 -0.1788 -0.0890
12283TIP3    H137731   6.133   2.389   6.259 -0.0595  1.0996  0.2595
12283TIP3    H237732   6.004   2.400   6.338 -0.5208 -0.5722 -0.2214
12284TIP3   OH237733   3.785   0.979   0.254  0.0940 -0.2286  0.3806
12284TIP3    H137734   3.710   1.021   0.296  1.5232  3.5983 -0.5437
12284TIP3    H237735   3.814   1.041   0.187  2.6380 -2.6407 -0.9826
12285TIP3   OH237736   9.972   8.457   3.800  0.7984  0.4915 -0.1283
12285TIP3    H137737   9.998   8.461   3.892 -0.8751  1.3765  0.3281
12285TIP3    H237738   9.997   8.543   3.765 -0.3035  0.8673 -0.0072
12286TIP3   OH237739   6.096   6.661   0.533 -0.2013  0.0836 -0.5345
12286TIP3    H137740   6.115   6.735   0.475 -0.0423  0.2148 -0.3182
12286TIP3    H237741   6.016   6.686   0.578 -1.5045 -0.9077 -2.1853
12287TIP3   OH237742   5.669   5.707   7.384 -0.2172  0.1996  0.4228
12287TIP3    H137743   5.708   5.736   7.467  1.1595 -3.1958  1.1321
12287TIP3    H237744   5.734   5.730   7.318 -0.5782  1.4446  0.4760
12288TIP3   OH237745   1.965   2.531   2.599  0.1794  0.3767  0.6459
12288TIP3    H137746   2.009   2.448   2.615  0.3283  0.3711  0.2224
12288TIP3    H237747   1.914   2.517   2.519 -0.5007  0.4219  1.0602
12289TIP3   OH237748   0.417   2.360   6.493 -0.2988  0.1960  0.1272
12289TIP3    H137749   0.439   2.358   6.586 -1.7609  2.3232  0.5855
12289TIP3    H237750   0.493   2.320   6.450 -0.2221 -2.2369  2.2678
12290TIP3   OH237751   0.826   5.003   1.901 -0.3520 -0.1460 -0.4400
12290TIP3    H137752   0.797   5.083   1.946 -0.7142  0.0565 -1.0302
12290TIP3    H237753   0.914   5.023   1.871  0.1701 -0.5234  0.7653
12291TIP3   OH237754   5.825   6.738   5.098 -0.3967 -0.2475 -0.5464
12291TIP3    H137755   5.735   6.767   5.113  0.2552  1.5338  0.1814
12291TIP3    H237756   5.839   6.750   5.004 -0.4625  0.9027 -0.4185
12292TIP3   OH237757   5.379  10.575   5.090 -0.4986 -0.5693 -0.2628
12292TIP3    H137758   5.297  10.535   5.060 -0.1004 -0.7632 -1.1123
12292TIP3    H237759   5.378  10.663   5.051  0.5129 -1.1931 -1.7389
12293TIP3   OH237760   7.982   9.522   9.872 -0.5626  0.8095  0.3711
12293TIP3    H137761   8.042   9.585   9.912  1.0192  0.7721 -1.8031
12293TIP3    H237762   8.037   9.471   9.812 -2.1233 -1.5502  0.8100
12294TIP3   OH237763   8.654   7.214   0.343 -0.6845 -0.6346 -0.6911
12294TIP3    H137764   8.737   7.236   0.386 -0.4902 -3.8266  0.8008
12294TIP3    H237765   8.636   7.290   0.287  2.3767  0.8878  0.1538
12295TIP3   OH237766   4.095  10.138   1.760 -0.0257  0.6848  0.2597
12295TIP3    H137767   4.159  10.067   1.751  0.5015  1.3403 -1.3981
12295TIP3    H237768   4.014  10.102   1.723 -0.2234  0.3865  0.9624
12296TIP3   OH237769   5.547   4.364   5.314  0.4616 -0.2016 -0.3013
12296TIP3    H137770   5.546   4.293   5.249 -0.1804 -0.1358 -0.3733
12296TIP3    H237771   5.606   4.429   5.277 -1.1378  0.5759 -1.6721
12297TIP3   OH237772   5.705   8.187   9.397  0.1652  0.3201  0.1434
12297TIP3    H137773   5.795   8.170   9.423  0.3481 -1.0513 -1.2017
12297TIP3    H237774   5.704   8.280   9.373  1.4216  0.1977 -0.4843
12298TIP3   OH237775   4.251   4.366   4.512  0.6435 -0.8034  0.3258
12298TIP3    H137776   4.288   4.292   4.558  0.0531 -2.7985 -2.1595
12298TIP3    H237777   4.223   4.330   4.427  1.2059  2.4503 -1.4104
12299TIP3   OH237778   0.118   2.832   3.969  0.5413 -0.2421  0.2096
12299TIP3    H137779   0.096   2.924   3.954 -2.4082 -1.0323 -1.1012
12299TIP3    H237780   0.036   2.785   3.955  1.6620 -3.0055  2.0052
12300TIP3   OH237781   7.852   8.801   9.106 -0.3482  0.3353 -0.0896
12300TIP3    H137782   7.813   8.721   9.070  0.1741  0.5070 -1.0584
12300TIP3    H237783   7.776   8.855   9.129 -0.7150  0.5433 -1.6725
12301TIP3   OH237784   1.629   9.570   9.671  0.3691 -0.3532  0.2983
12301TIP3    H137785   1.697   9.633   9.649  0.7924  0.3648  3.2737
12301TIP3    H237786   1.674   9.503   9.723 -0.7293 -1.2756  0.1080
12302TIP3   OH237787   1.648   1.516   0.979 -0.1100 -0.4364 -0.9377
12302TIP3    H137788   1.729   1.536   1.026 -0.8225  0.1585  0.0738
12302TIP3    H237789   1.578   1.529   1.044 -1.0354 -0.7358 -1.8424
12303TIP3   OH237790  10.499   0.727   0.508 -0.3167 -0.0416  0.1418
12303TIP3    H137791  10.558   0.700   0.578 -0.5506 -2.8004 -0.6268
12303TIP3    H237792  10.412   0.712   0.543 -0.4382 -1.2573 -0.6401
12304TIP3   OH237793   1.901   7.982   4.687  0.0884  0.0170  0.0428
12304TIP3    H137794   1.927   7.976   4.779  1.6045 -0.3310 -0.3836
12304TIP3    H237795   1.830   7.918   4.678  1.8066 -2.0312  0.3756
12305TIP3   OH237796   1.159   8.872   4.010 -0.4196  0.6527 -0.4897
12305TIP3    H137797   1.068   8.872   3.979 -0.5871 -3.5550 -0.5518
12305TIP3    H237798   1.155   8.828   4.095  1.4260  1.9322  0.3220
12306TIP3   OH237799   8.064   6.173   6.452  0.3683 -0.2133  0.1459
12306TIP3    H137800   8.073   6.267   6.466 -1.3371 -0.0948  0.6930
12306TIP3    H237801   8.153   6.143   6.435  0.9655  1.4692  0.0839
12307TIP3   OH237802   2.261   9.760  10.474 -0.2406 -0.2998 -0.2646
12307TIP3    H137803   2.225   9.684  10.429  0.1446 -0.6867  0.0728
12307TIP3    H237804   2.215   9.763  10.558  1.1396 -1.3586  0.5767
12308TIP3   OH237805   1.661   5.965   1.297 -0.1431  0.0997  0.3565
12308TIP3    H137806   1.708   6.037   1.254  2.3209 -0.6360  1.6463
12308TIP3    H237807   1.672   5.890   1.239 -0.3837  0.0853  0.3249
12309TIP3   OH237808   6.898   0.711   5.263 -0.0499 -0.1585  0.3971
12309TIP3    H137809   6.917   0.674   5.349  2.0621 -0.3979 -0.1230
12309TIP3    H237810   6.918   0.804   5.272 -1.5196  0.1678  0.6037
12310TIP3   OH237811  10.018   3.400  10.465  0.0890  0.0600  0.1785
12310TIP3    H137812   9.967   3.336  10.415 -0.0206  1.1253 -1.1217
12310TIP3    H237813  10.008   3.373  10.556 -2.2956 -0.1349 -0.0825
12311TIP3   OH237814   2.830   9.998   5.593 -0.1612 -0.3717  0.0475
12311TIP3    H137815   2.820   9.984   5.687 -0.4122  0.6196  0.1772
12311TIP3    H237816   2.923  10.016   5.580 -0.3320  0.7394  0.2896
12312TIP3   OH237817   3.985   2.212   3.526 -0.5811 -0.5184  0.3160
12312TIP3    H137818   3.897   2.240   3.502  0.1266  1.7918  0.1531
12312TIP3    H237819   4.012   2.153   3.456 -1.6819 -0.6095 -0.0475
12313TIP3   OH237820  10.111   1.361   2.911 -0.0626  0.1284 -0.3746
12313TIP3    H137821  10.027   1.367   2.865 -0.5713 -0.8591  0.3831
12313TIP3    H237822  10.088   1.329   2.998  1.3360 -2.9347 -1.0048
12314TIP3   OH237823   3.926   1.806   2.131  0.6782 -1.1732 -0.2588
12314TIP3    H137824   3.874   1.875   2.172  0.1222 -2.0351  0.5282
12314TIP3    H237825   4.013   1.845   2.122  0.0718  0.0678 -1.0148
12315TIP3   OH237826   0.553   9.207   6.638  0.5273 -0.1685 -0.1327
12315TIP3    H137827   0.488   9.164   6.581  0.2070 -0.7760  0.6632
12315TIP3    H237828   0.576   9.288   6.592 -1.9536  0.8488  0.2668
12316TIP3   OH237829  10.383   5.181   9.812 -0.2762 -0.1197  0.4522
12316TIP3    H137830  10.347   5.155   9.727 -0.0206  0.1036  0.2766
12316TIP3    H237831  10.464   5.132   9.820 -0.6732 -0.7136  0.9028
12317TIP3   OH237832   6.519   1.162   2.455  0.1318  0.5311 -0.0931
12317TIP3    H137833   6.559   1.075   2.446 -1.7833 -0.4042 -0.0923
12317TIP3    H237834   6.463   1.154   2.532 -0.0798  1.7781 -0.1096
12318TIP3   OH237835   1.011   9.668   6.936 -0.3963 -0.4752 -0.2872
12318TIP3    H137836   0.947   9.613   6.981 -0.0882 -0.2297  0.4620
12318TIP3    H237837   1.001   9.754   6.977  0.8615 -0.5920  0.2970
12319TIP3   OH237838   5.836   4.002   7.982 -0.2574  0.3971  0.3579
12319TIP3    H137839   5.908   3.940   7.997 -0.2036  0.8107  1.9789
12319TIP3    H237840   5.764   3.947   7.952 -0.9198 -0.9005  3.8507
12320TIP3   OH237841  10.269   1.176   8.548 -0.2444 -0.0882  0.3226
12320TIP3    H137842  10.332   1.185   8.477 -0.0939 -1.4743  0.2467
12320TIP3    H237843  10.289   1.091   8.587 -1.0413  0.1601  1.3120
12321TIP3   OH237844   1.848   7.514   0.771 -0.2707  0.5417  0.0926
12321TIP3    H137845   1.888   7.455   0.835 -0.9304  0.9820  0.9253
12321TIP3    H237846   1.803   7.456   0.710  1.6583  0.0188 -0.9325
12322TIP3   OH237847   1.518   9.952   2.252  0.4313  0.0469  0.5508
12322TIP3    H137848   1.443   9.920   2.202  0.6151  0.2711  0.1190
12322TIP3    H237849   1.485   9.966   2.340 -0.4998  1.8515 -0.0534
12323TIP3   OH237850   9.819   7.451   0.491 -0.3197  0.8169 -0.0051
12323TIP3    H137851   9.770   7.382   0.536 -0.9138  1.9258  1.1103
12323TIP3    H237852   9.901   7.409   0.465 -1.2670 -0.7069 -0.6896
12324TIP3   OH237853  10.232   7.177   4.606  0.3906 -0.1674 -0.4404
12324TIP3    H137854  10.205   7.102   4.659  1.0340  0.3795  0.6960
12324TIP3    H237855  10.187   7.252   4.646  2.7811  0.6337  0.9576
12325TIP3   OH237856  10.003   7.165  10.357  0.5183  0.1780 -0.2595
12325TIP3    H137857  10.083   7.114  10.371  1.4146  0.8284 -2.5289
12325TIP3    H237858  10.032   7.257  10.361 -0.4105  0.4620  0.3361
12326TIP3   OH237859   0.901   1.635   4.241 -0.3192  0.1909 -0.2584
12326TIP3    H137860   0.837   1.631   4.312  0.3991  0.4382  0.4243
12326TIP3    H237861   0.942   1.721   4.251  0.9785 -0.4405  0.1095
12327TIP3   OH237862   7.695   3.968   7.374  0.3368  0.2484  0.0267
12327TIP3    H137863   7.639   3.909   7.324 -0.9693  1.0180  0.5258
12327TIP3    H237864   7.641   3.994   7.449  1.6460  0.4170  0.9521
12328TIP3   OH237865   4.467   5.356   3.100  0.0045 -0.6855 -0.2416
12328TIP3    H137866   4.518   5.436   3.089 -0.7213 -0.4801 -2.6394
12328TIP3    H237867   4.391   5.383   3.152  1.6091 -0.7469  2.3251
12329TIP3   OH237868   7.541  10.778   6.528  0.3393 -1.2164  0.3641
12329TIP3    H137869   7.633  10.791   6.549  0.9087  0.8919 -2.7239
12329TIP3    H237870   7.540  10.714   6.457 -0.2498  0.3308 -1.1250
12330TIP3   OH237871  10.301   8.686   3.883  0.3078  0.0322 -0.0377
12330TIP3    H137872  10.361   8.648   3.948  0.4858  1.5912  0.7627
12330TIP3    H237873  10.216   8.686   3.927  0.3692  0.8094  0.0948
12331TIP3   OH237874   6.553   6.232   3.541  0.1945 -0.1670 -0.9111
12331TIP3    H137875   6.644   6.260   3.549 -0.0064  0.8703 -1.8874
12331TIP3    H237876   6.556   6.137   3.544  1.0609 -0.1067  1.2100
12332TIP3   OH237877   3.785   2.276   9.591 -0.3156 -0.3054 -0.6611
12332TIP3    H137878   3.781   2.371   9.581  0.4494 -0.2188 -0.2536
12332TIP3    H237879   3.753   2.241   9.508  1.4255  0.3352 -1.6515
12333TIP3   OH237880   0.803   3.930   5.073 -0.3658 -0.3055 -0.2700
12333TIP3    H137881   0.717   3.889   5.084 -0.5511  0.0886 -0.2023
12333TIP3    H237882   0.853   3.904   5.150 -0.8801  0.5648  0.3766
12334TIP3   OH237883   5.192   9.625   3.874  0.3146 -0.0859  0.4798
12334TIP3    H137884   5.277   9.629   3.919 -0.3292  0.2567  1.6872
12334TIP3    H237885   5.127   9.628   3.944 -0.7111 -0.0603 -0.4501
12335TIP3   OH237886   4.441   3.445   6.931  0.2422 -0.1313  0.6801
12335TIP3    H137887   4.495   3.523   6.938 -0.7709  0.5420  1.2362
12335TIP3    H237888   4.503   3.372   6.937  1.2152  0.6250 -0.0483
12336TIP3   OH237889   8.840   1.171   1.267 -0.6835 -0.4097  0.5883
12336TIP3    H137890   8.798   1.251   1.235 -0.0853 -0.4246 -0.2576
12336TIP3    H237891   8.789   1.100   1.229 -0.2773 -0.4264  0.0637
12337TIP3   OH237892   5.357   8.311   6.309 -0.0988  0.3764  0.2944
12337TIP3    H137893   5.267   8.339   6.292 -0.4615 -1.4430 -1.0340
12337TIP3    H237894   5.387   8.370   6.378 -1.2410  3.0735 -1.3155
12338TIP3   OH237895   1.320   9.195   5.132 -0.2621 -0.5331 -0.0565
12338TIP3    H137896   1.283   9.107   5.122  0.9440 -0.9488 -1.0456
12338TIP3    H237897   1.386   9.187   5.201 -1.0848 -0.0701  0.8184
12339TIP3   OH237898   9.320   4.321   7.096  0.2305  0.4676  0.0748
12339TIP3    H137899   9.354   4.291   7.181  1.0346  0.6267 -0.1843
12339TIP3    H237900   9.398   4.343   7.046 -0.0982 -1.7197 -1.5181
12340TIP3   OH237901   4.848   2.513   1.066 -0.2898  0.5497 -0.6359
12340TIP3    H137902   4.860   2.596   1.112 -0.8323  0.8072 -0.9387
12340TIP3    H237903   4.762   2.483   1.094 -0.0484  0.0307 -0.4450
12341TIP3   OH237904   1.750   7.020   5.449  0.2406 -0.7022  0.0567
12341TIP3    H137905   1.824   6.961   5.464 -1.5572 -2.9006  0.8439
12341TIP3    H237906   1.748   7.077   5.525 -1.1802 -3.3378  2.1659
12342TIP3   OH237907   5.861   9.768   0.173  0.2493  0.3237 -0.1541
12342TIP3    H137908   5.942   9.818   0.184  0.1464  0.4876 -0.1531
12342TIP3    H237909   5.794   9.821   0.215  0.2214 -0.0297  0.2593
12343TIP3   OH237910   7.052   7.086  10.845  0.4653 -0.5861 -0.1476
12343TIP3    H137911   7.076   7.176  10.822 -0.1096 -0.7927 -1.6837
12343TIP3    H237912   7.119   7.031  10.803  0.5614 -0.9083  0.4123
12344TIP3   OH237913   3.844   1.067   7.493  0.2507  0.7218 -0.0880
12344TIP3    H137914   3.849   1.099   7.403 -1.5337  0.4453 -0.3100
12344TIP3    H237915   3.758   1.093   7.524  0.0581 -0.9156  0.8727
12345TIP3   OH237916   7.461   7.169   5.155 -0.0255  0.2502  0.1772
12345TIP3    H137917   7.368   7.153   5.171  0.1603 -2.4842 -0.8996
12345TIP3    H237918   7.505   7.134   5.233  0.1685 -0.2047 -0.1301
12346TIP3   OH237919   0.008   1.932   1.726  0.3454 -0.4159 -0.0755
12346TIP3    H137920   0.035   2.016   1.689  1.4988 -0.2797  1.0177
12346TIP3    H237921   0.016   1.870   1.653  0.4094  0.2445 -0.6387
12347TIP3   OH237922   2.441  10.269   4.962  0.3218 -0.3044 -0.2338
12347TIP3    H137923   2.364  10.237   4.914  0.7760 -1.1320 -0.4143
12347TIP3    H237924   2.515  10.227   4.920  0.8267 -0.0447  0.3845
12348TIP3   OH237925   4.099   4.528   8.950  0.1518 -0.0650  0.3701
12348TIP3    H137926   4.080   4.434   8.954  2.2113 -0.5719 -0.3508
12348TIP3    H237927   4.103   4.547   8.856  1.1874  0.3897  0.4935
12349TIP3   OH237928   3.357  10.612   2.394  0.1512 -0.4059 -0.4211
12349TIP3    H137929   3.409  10.615   2.473  0.7271 -1.5234 -0.7383
12349TIP3    H237930   3.360  10.702   2.359  2.6233 -0.6138 -0.9162
12350TIP3   OH237931   5.688   0.543   8.991 -0.6932 -0.0206  0.1182
12350TIP3    H137932   5.758   0.580   9.046 -0.2949 -0.3031 -0.1945
12350TIP3    H237933   5.629   0.617   8.976 -0.9226  0.0156  1.0873
12351TIP3   OH237934   2.579   0.726   0.627  0.1681  0.4420 -0.3028
12351TIP3    H137935   2.643   0.763   0.566 -0.2439  0.6777 -0.6029
12351TIP3    H237936   2.583   0.783   0.704  0.2022  0.5554 -0.3883
12352TIP3   OH237937   4.237   7.984   4.141  0.1789 -0.8679 -0.2927
12352TIP3    H137938   4.325   7.994   4.178  0.0624 -0.6845 -0.0604
12352TIP3    H237939   4.243   8.020   4.053  0.2649 -0.5776 -0.1718
12353TIP3   OH237940   2.362   1.721   5.549 -0.0244  0.3375 -0.0363
12353TIP3    H137941   2.423   1.706   5.477 -0.0159 -0.2080  0.0754
12353TIP3    H237942   2.411   1.775   5.611  0.6878 -0.8425  0.4697
12354TIP3   OH237943   1.757   3.627   6.497  0.5978 -0.4663 -0.0154
12354TIP3    H137944   1.817   3.557   6.522 -0.5780 -1.5523 -0.1308
12354TIP3    H237945   1.738   3.673   6.578  0.9598 -0.6132  0.1563
12355TIP3   OH237946   3.639   7.765   6.401  0.5445  0.0217  0.1832
12355TIP3    H137947   3.732   7.788   6.406  0.3641  1.4032 -1.6453
12355TIP3    H237948   3.633   7.707   6.325 -0.0639 -0.1420  0.3503
12356TIP3   OH237949   5.998  10.202   0.735  0.0578  0.4930  0.0530
12356TIP3    H137950   6.066  10.220   0.671 -0.7490 -0.1941 -1.0485
12356TIP3    H237951   5.922  10.177   0.683 -1.2431  1.8254  1.2133
12357TIP3   OH237952   7.136   9.679   6.217 -0.6564 -0.1765  0.1824
12357TIP3    H137953   7.145   9.607   6.154 -0.0772  0.5129 -0.5458
12357TIP3    H237954   7.218   9.728   6.208 -0.7723  0.2085  1.1405
12358TIP3   OH237955  10.229   4.156   4.305  0.4507  0.0151 -0.0119
12358TIP3    H137956  10.277   4.233   4.275 -1.5328  0.6425 -1.8809
12358TIP3    H237957  10.199   4.179   4.393 -0.4692  1.6131 -0.7006
12359TIP3   OH237958   3.462   0.097   4.416 -0.4774  0.6465 -1.0019
12359TIP3    H137959   3.437   0.006   4.435 -0.6786  0.7167 -0.9222
12359TIP3    H237960   3.557   0.094   4.405 -0.4827  0.4256 -1.0032
12360TIP3   OH237961   3.576   0.854   4.085 -0.3030 -0.0755  0.3894
12360TIP3    H137962   3.621   0.938   4.081 -1.6038  0.6364 -0.0381
12360TIP3    H237963   3.525   0.858   4.166  0.9996 -1.2128  1.3054
12361TIP3   OH237964   8.398  10.231   5.875  0.3518 -0.0199 -0.2114
12361TIP3    H137965   8.434  10.234   5.786  0.0933 -0.7972 -0.3510
12361TIP3    H237966   8.374  10.322   5.894  1.4015  0.3355 -0.5151
12362TIP3   OH237967   6.280   2.368  10.111  0.0332 -0.1781 -0.0654
12362TIP3    H137968   6.278   2.352  10.205 -1.6572  1.9915  0.3584
12362TIP3    H237969   6.219   2.305  10.074 -1.6891  0.9526  0.7306
12363TIP3   OH237970   7.095  10.144  10.529  0.4684  0.2443 -0.1319
12363TIP3    H137971   7.189  10.140  10.546  0.9449  1.1072 -2.2680
12363TIP3    H237972   7.080  10.074  10.466 -0.2977  0.2299  0.0613
12364TIP3   OH237973   5.910   4.880   8.355 -0.5851 -0.0881  0.2371
12364TIP3    H137974   5.980   4.903   8.294 -0.1377  1.3537  1.2418
12364TIP3    H237975   5.955   4.862   8.437 -1.2293 -1.4734  0.3249
12365TIP3   OH237976  10.846   8.648   0.238  0.1803  0.5115  0.1326
12365TIP3    H137977  10.772   8.656   0.179 -1.0888  0.1701  1.6178
12365TIP3    H237978  10.900   8.726   0.220 -0.5401  0.7788 -0.9433
12366TIP3   OH237979  10.188   9.233   4.037 -0.0238 -0.3711  0.2003
12366TIP3    H137980  10.273   9.191   4.027 -0.4941 -1.5373  0.8697
12366TIP3    H237981  10.201   9.298   4.106  0.8767  1.1245 -1.3050
12367TIP3   OH237982   8.542   2.010   4.572  0.6661  0.4197  0.1622
12367TIP3    H137983   8.448   1.994   4.562  0.8502 -0.4433 -0.3590
12367TIP3    H237984   8.552   2.104   4.558 -0.3488  0.8864  2.1988
12368TIP3   OH237985   8.406  10.221   2.520  0.5068 -0.2914  0.2735
12368TIP3    H137986   8.500  10.228   2.540  0.5390  1.0799 -0.2988
12368TIP3    H237987   8.368  10.302   2.553 -1.0548 -2.0813  3.3596
12369TIP3   OH237988  10.370   6.647   7.718  0.0687  0.9587 -0.0869
12369TIP3    H137989  10.388   6.554   7.701 -1.1411  0.7799 -0.4399
12369TIP3    H237990  10.299   6.647   7.782 -0.1460  1.6375 -0.3122
12370TIP3   OH237991   0.476   4.032   9.456 -0.0729 -0.3440  0.4826
12370TIP3    H137992   0.548   4.089   9.484 -0.1994 -0.1442  0.4036
12370TIP3    H237993   0.435   4.002   9.537 -0.2366 -0.0268  0.5181
12371TIP3   OH237994   5.754   8.590   2.606 -0.0592  0.0412  0.2346
12371TIP3    H137995   5.815   8.646   2.655  0.3598  2.0135 -2.3332
12371TIP3    H237996   5.808   8.517   2.577 -0.1745 -0.8412  2.0603
12372TIP3   OH237997   5.682   9.258   5.962 -0.4764  0.0566  0.1109
12372TIP3    H137998   5.692   9.279   5.869 -1.2803  0.7876  0.1745
12372TIP3    H237999   5.607   9.310   5.990  0.8308  1.2397  1.5983
12373TIP3   OH238000   8.033   6.324   4.512 -0.7029 -0.0397 -0.3549
12373TIP3    H138001   8.076   6.395   4.464  0.2942 -0.7350 -0.5171
12373TIP3    H238002   8.025   6.358   4.602  0.4506  0.0095 -0.2563
12374TIP3   OH238003   0.909   9.546   4.252  0.4984 -0.1799  0.4689
12374TIP3    H138004   0.873   9.464   4.285 -0.0995  0.5710  1.7465
12374TIP3    H238005   0.837   9.609   4.257  1.1257  0.5900  0.1240
12375TIP3   OH238006   5.580   5.832   7.729  0.1221  0.1236 -0.2654
12375TIP3    H138007   5.516   5.775   7.687  0.2265 -0.1463 -0.0606
12375TIP3    H238008   5.660   5.820   7.678  0.6425 -1.2511  0.8056
12376TIP3   OH238009   5.209   1.239   5.981  0.3936 -0.4851  0.7520
12376TIP3    H138010   5.202   1.172   5.914  1.7950  1.0289 -1.0060
12376TIP3    H238011   5.303   1.252   5.993  0.2097 -0.7734  3.1548
12377TIP3   OH238012   1.132   0.341   9.229 -0.0639  0.5293 -0.6703
12377TIP3    H138013   1.153   0.247   9.231  0.7679  0.6878 -1.1337
12377TIP3    H238014   1.098   0.360   9.316 -0.1892 -0.1913 -0.5511
12378TIP3   OH238015  10.830   9.178   8.533  0.0996  0.1984  0.1591
12378TIP3    H138016  10.767   9.142   8.596  1.2946  1.7940  2.4206
12378TIP3    H238017  10.913   9.136   8.557  0.3586 -0.1215 -1.2389
12379TIP3   OH238018   3.758   3.218   2.527  0.1198  0.6660  0.3885
12379TIP3    H138019   3.688   3.163   2.562 -1.1614  1.5983 -0.6167
12379TIP3    H238020   3.762   3.196   2.434  0.5855  1.2155  0.2731
12380TIP3   OH238021   8.455   2.695   3.319 -0.3613  0.0806 -0.0520
12380TIP3    H138022   8.548   2.697   3.340 -0.0736  0.8670 -1.2773
12380TIP3    H238023   8.411   2.700   3.404  0.7090  0.0796  0.5237
12381TIP3   OH238024   8.198   0.167   6.424 -0.0532  0.4357 -0.5759
12381TIP3    H138025   8.148   0.188   6.345  1.2508  0.3633 -1.4498
12381TIP3    H238026   8.216   0.074   6.418 -2.2342 -0.2120  1.2093
12382TIP3   OH238027   5.652   3.274   1.065  0.0967 -0.0857  0.2382
12382TIP3    H138028   5.571   3.282   1.115 -0.9712 -0.2602 -1.3870
12382TIP3    H238029   5.640   3.196   1.011  1.7818 -0.7073  0.6879
12383TIP3   OH238030   6.282   2.629   5.507 -0.4600 -0.1396  0.0024
12383TIP3    H138031   6.252   2.543   5.478 -2.4714  0.8734 -1.1921
12383TIP3    H238032   6.352   2.652   5.447 -1.1307 -0.2131 -0.8232
12384TIP3   OH238033   5.822  10.747   0.659 -0.3578  0.1238 -0.1632
12384TIP3    H138034   5.859  10.827   0.622 -0.8257 -0.4118 -1.9071
12384TIP3    H238035   5.735  10.773   0.689 -0.4931  0.2859 -0.6853
12385TIP3   OH238036   1.805   1.894   0.263 -0.3320  0.0504  0.0546
12385TIP3    H138037   1.792   1.931   0.351 -0.0249 -0.4961  0.3325
12385TIP3    H238038   1.880   1.836   0.272 -0.5596 -0.3356 -0.4748
12386TIP3   OH238039   3.505  10.095   1.513 -0.4528 -0.4984  0.6514
12386TIP3    H138040   3.597  10.103   1.488 -0.8022  1.6509 -0.1406
12386TIP3    H238041   3.506  10.102   1.608  0.1296  0.5770  0.5788
12387TIP3   OH238042   1.400   9.690   2.811 -0.1686  0.3705  0.5982
12387TIP3    H138043   1.333   9.623   2.821 -1.0648  1.0275 -0.7102
12387TIP3    H238044   1.361   9.768   2.851 -1.3140  1.4243 -2.2903
12388TIP3   OH238045   5.246   6.817   8.115  0.6212 -0.0202  0.5981
12388TIP3    H138046   5.322   6.845   8.166  1.0587  1.9257 -0.9642
12388TIP3    H238047   5.170   6.847   8.165  1.0489  2.1435  0.0411
12389TIP3   OH238048   2.709   4.739   6.377  0.3956 -0.2983 -0.2849
12389TIP3    H138049   2.633   4.720   6.432 -0.3763  1.8073 -0.5065
12389TIP3    H238050   2.775   4.676   6.404 -0.5190 -0.4224  1.8742
12390TIP3   OH238051   7.967   9.537   0.065 -0.0530 -0.8678 -0.1503
12390TIP3    H138052   7.982   9.452   0.025  2.6973 -0.7729  0.5010
12390TIP3    H238053   8.036   9.593   0.029 -1.4862  0.9875 -0.1806
12391TIP3   OH238054  10.243  10.697   8.251  0.1299 -1.2448  0.7368
12391TIP3    H138055  10.251  10.615   8.202  3.2312  0.4298 -1.9301
12391TIP3    H238056  10.200  10.757   8.191 -0.4780 -0.4116  1.9651
12392TIP3   OH238057   5.756   9.541   7.580 -0.1114  0.0789 -0.0789
12392TIP3    H138058   5.784   9.450   7.577  0.3052  0.2299 -0.8012
12392TIP3    H238059   5.663   9.538   7.555 -0.8718 -0.4431  2.5463
12393TIP3   OH238060   3.302  10.466   7.912  0.4142 -0.3050 -0.8623
12393TIP3    H138061   3.326  10.409   7.985  0.9415  2.6129  1.4727
12393TIP3    H238062   3.384  10.484   7.867  0.8966  1.2160  0.5287
12394TIP3   OH238063   1.963   4.399  10.375 -0.0727  0.0250  0.2193
12394TIP3    H138064   2.031   4.332  10.388  1.3485  1.4581  0.4122
12394TIP3    H238065   1.995   4.451  10.302 -1.0589  0.6354  0.2175
12395TIP3   OH238066   1.438   8.231   4.975 -0.1649  0.4597  0.0736
12395TIP3    H138067   1.533   8.226   4.988  0.2533  2.7592 -1.5981
12395TIP3    H238068   1.425   8.209   4.883 -1.6224 -2.4151  0.8449
12396TIP3   OH238069   8.134   7.084   6.464  0.0250  0.4012  0.3856
12396TIP3    H138070   8.154   7.099   6.556 -1.7089 -1.7173  1.2105
12396TIP3    H238071   8.134   6.989   6.454 -0.7996  0.5430 -1.5498
12397TIP3   OH238072   7.102   9.096   9.634 -0.4336  0.2281  0.0961
12397TIP3    H138073   7.045   9.158   9.680 -0.0814 -0.0111  0.8724
12397TIP3    H238074   7.056   9.076   9.552 -0.4979  1.6130 -0.2314
12398TIP3   OH238075   0.214   3.209   4.807 -0.2423 -0.5180 -0.5180
12398TIP3    H138076   0.166   3.287   4.777 -0.1124  0.3624  1.3961
12398TIP3    H238077   0.306   3.229   4.786 -0.3790 -0.9545 -1.6063
12399TIP3   OH238078   2.854   2.021   0.126  0.3039  0.7510  0.0353
12399TIP3    H138079   2.908   1.959   0.176 -0.8198 -0.2686  0.0382
12399TIP3    H238080   2.911   2.051   0.055  0.7109 -0.7452 -0.3065
12400TIP3   OH238081   7.827   8.488   1.856  0.5258 -0.4456 -0.3689
12400TIP3    H138082   7.851   8.418   1.917  2.3255  0.4188 -0.0020
12400TIP3    H238083   7.791   8.442   1.780 -2.6031 -1.5183  1.5695
12401TIP3   OH238084   6.091   0.740   5.659  0.8696  0.3542 -0.0662
12401TIP3    H138085   6.033   0.712   5.588  1.7994  1.4062 -1.3024
12401TIP3    H238086   6.069   0.832   5.673  1.2306  0.3640  0.4633
12402TIP3   OH238087   0.989   3.154   0.147 -0.3013 -0.1281  0.8155
12402TIP3    H138088   0.941   3.220   0.098 -1.7610 -1.8952 -0.2547
12402TIP3    H238089   1.050   3.116   0.083  0.1330 -0.2008  1.2646
12403TIP3   OH238090   1.022  10.666  10.584 -0.6397  0.3189 -0.0793
12403TIP3    H138091   1.006  10.675  10.679  3.0599 -0.2695  0.7380
12403TIP3    H238092   0.988  10.579  10.563 -3.1816  1.1578  0.1954
12404TIP3   OH238093   0.642   5.923   3.404  0.0362  0.1786 -0.7392
12404TIP3    H138094   0.710   5.989   3.391  0.6214  0.0374  1.2378
12404TIP3    H238095   0.562   5.964   3.374  0.8896  0.5152 -2.6954
12405TIP3   OH238096   5.901   2.483   0.713 -0.1494  0.1136 -0.6525
12405TIP3    H138097   5.835   2.420   0.686 -1.7231  0.9143  1.0793
12405TIP3    H238098   5.883   2.561   0.661  0.2256 -0.0518 -1.0378
12406TIP3   OH238099  10.156   9.004   6.217 -0.3175 -0.1481 -0.7214
12406TIP3    H138100  10.064   9.000   6.243 -0.5843  1.7592 -1.2513
12406TIP3    H238101  10.155   8.977   6.125 -0.3402 -0.1610 -0.7179
12407TIP3   OH238102   3.117   2.105  10.885  0.1928  0.4707 -0.0878
12407TIP3    H138103   3.187   2.040  10.887  0.5408  0.8471  0.9069
12407TIP3    H238104   3.154   2.180  10.839 -0.7906 -0.6207 -2.8316
12408TIP3   OH238105   3.665   1.737  10.332  0.2340  0.3970 -0.4846
12408TIP3    H138106   3.749   1.744  10.287  1.8103 -0.8217  2.0062
12408TIP3    H238107   3.672   1.799  10.405 -0.8965  0.0707 -0.0763
12409TIP3   OH238108   3.294   9.690   6.840 -0.2071 -0.4980  0.6210
12409TIP3    H138109   3.314   9.599   6.818 -2.2247 -1.3271  2.0317
12409TIP3    H238110   3.200   9.699   6.825 -0.1118  1.2623  0.8533
12410TIP3   OH238111   1.047   4.349   0.916 -0.4123 -0.1704 -0.2631
12410TIP3    H138112   1.127   4.397   0.936  0.2835 -1.1358 -0.6795
12410TIP3    H238113   1.027   4.375   0.826 -1.6467  1.5234  0.4373
12411TIP3   OH238114   8.185   9.688   9.107 -0.0095 -0.4231  0.3457
12411TIP3    H138115   8.267   9.639   9.099  0.8283  0.6700  1.8121
12411TIP3    H238116   8.148   9.687   9.019  1.2211 -1.5255 -0.1986
12412TIP3   OH238117   3.430  10.023  10.280 -0.0113  0.2002 -0.2230
12412TIP3    H138118   3.500  10.088  10.285 -1.3857  1.6769  1.1214
12412TIP3    H238119   3.376  10.051  10.206 -0.2281  0.1977 -0.0682
12413TIP3   OH238120   3.995   9.264   1.535 -0.2570  0.0818 -0.0530
12413TIP3    H138121   4.084   9.258   1.571 -0.3703  0.2345  0.2538
12413TIP3    H238122   3.981   9.180   1.491 -0.1376 -0.1228  0.2976
12414TIP3   OH238123  10.847   6.640   5.564  0.4499  0.0723 -0.7350
12414TIP3    H138124  10.784   6.570   5.581 -0.1154  0.7080 -0.1348
12414TIP3    H238125  10.810   6.689   5.491  0.3434  0.3248 -0.5147
12415TIP3   OH238126   4.347   0.189   8.099 -0.4673  0.1993  0.7816
12415TIP3    H138127   4.360   0.220   8.188 -1.5142 -0.0643  1.0413
12415TIP3    H238128   4.254   0.206   8.081 -0.2700  0.2520 -0.2536
12416TIP3   OH238129   8.846   4.305   5.704 -0.3172 -0.0046  0.0470
12416TIP3    H138130   8.817   4.281   5.616  2.4847  1.7178 -1.5203
12416TIP3    H238131   8.765   4.316   5.754 -2.0640 -0.2494 -2.5362
12417TIP3   OH238132   5.057   1.204   8.626  0.0239 -0.1388 -0.3861
12417TIP3    H138133   5.022   1.153   8.553 -0.8823 -0.2806  0.1314
12417TIP3    H238134   5.010   1.287   8.622  1.7208  0.8462 -1.4236
12418TIP3   OH238135   2.938  10.092   1.318  0.7650  0.3811  0.4260
12418TIP3    H138136   2.845  10.072   1.307  1.5581 -2.7961 -1.9360
12418TIP3    H238137   2.950  10.175   1.272 -0.8999  1.0548  1.0944
12419TIP3   OH238138   2.667   8.326   0.215 -0.0747  0.0398 -0.2367
12419TIP3    H138139   2.733   8.281   0.163  1.1554  0.4783  0.8973
12419TIP3    H238140   2.670   8.417   0.185  1.6807  0.6199  1.5408
12420TIP3   OH238141   7.080   5.260   1.769  0.1564 -0.8759  0.3088
12420TIP3    H138142   7.071   5.302   1.855 -0.7291 -0.2011 -0.0905
12420TIP3    H238143   7.135   5.321   1.719 -0.4762 -0.5617 -0.0228
12421TIP3   OH238144   9.667   3.338   2.807 -0.6045 -0.0181 -0.0871
12421TIP3    H138145   9.607   3.341   2.732  0.4131 -0.6377 -0.9552
12421TIP3    H238146   9.633   3.404   2.867 -0.6443  1.5560 -1.7420
12422TIP3   OH238147   3.056   9.767  10.254 -0.8561 -0.7291  0.2944
12422TIP3    H138148   3.117   9.823  10.301 -0.1831 -1.0448 -0.1937
12422TIP3    H238149   3.001   9.728  10.323 -1.4939  0.6862  0.6295
12423TIP3   OH238150   7.857   9.554   0.972 -0.5575  0.2627 -0.0366
12423TIP3    H138151   7.773   9.598   0.958  0.0740  1.2911 -0.6864
12423TIP3    H238152   7.862   9.491   0.900 -1.3465 -0.7294  0.7485
12424TIP3   OH238153  10.877   6.061   5.842 -0.1040 -0.3805 -0.1274
12424TIP3    H138154  10.950   6.105   5.799  0.3624  0.2503  1.2596
12424TIP3    H238155  10.915   6.021   5.920 -0.7346 -2.3326 -0.7511
12425TIP3   OH238156   8.892  10.204   6.384  0.4974 -0.4701 -0.0558
12425TIP3    H138157   8.813  10.258   6.384  0.7493 -0.0830 -0.7105
12425TIP3    H238158   8.882  10.146   6.308  0.8278 -0.4383 -0.1258
12426TIP3   OH238159   5.626   1.772   7.320 -0.4454 -0.2187 -0.3650
12426TIP3    H138160   5.667   1.846   7.365 -0.1358 -0.3521 -0.4215
12426TIP3    H238161   5.690   1.747   7.253 -0.2029 -1.0092  0.1380
12427TIP3   OH238162  10.348   1.246   3.350  0.0030  0.1905  0.4492
12427TIP3    H138163  10.436   1.271   3.378  2.5051 -1.3073 -4.6990
12427TIP3    H238164  10.345   1.151   3.361 -0.3433  0.0501 -0.6652
12428TIP3   OH238165   6.628   4.594   3.566  0.3158  0.3042 -0.6049
12428TIP3    H138166   6.635   4.500   3.584 -1.4037 -0.4164 -3.1336
12428TIP3    H238167   6.707   4.614   3.515  0.5261  0.1798 -0.3354
12429TIP3   OH238168   5.141   2.514  10.534  0.1966  0.1152 -0.1645
12429TIP3    H138169   5.055   2.500  10.575 -0.0050  0.1227 -0.5761
12429TIP3    H238170   5.202   2.464  10.588 -0.0684  0.1070  0.1321
12430TIP3   OH238171   6.497   6.330   6.762 -0.0130 -0.2389  0.0207
12430TIP3    H138172   6.447   6.351   6.683 -0.0115 -0.4695 -0.0429
12430TIP3    H238173   6.438   6.351   6.834 -0.0568 -0.1381 -0.0442
12431TIP3   OH238174   5.200   5.348   9.802  0.0160 -0.0065 -0.5637
12431TIP3    H138175   5.248   5.277   9.759  0.1112 -0.2619 -0.0465
12431TIP3    H238176   5.155   5.393   9.731 -1.3003 -1.5429 -0.7622
12432TIP3   OH238177   3.677   1.339   1.170  0.1055  0.3995  0.2203
12432TIP3    H138178   3.612   1.370   1.234  0.5192  0.9969  0.3549
12432TIP3    H238179   3.635   1.354   1.085 -1.3218 -2.2977  0.3357
12433TIP3   OH238180   4.416   4.822   8.705 -0.1726 -0.1343 -0.6622
12433TIP3    H138181   4.347   4.790   8.763 -0.3674  0.4999 -0.5328
12433TIP3    H238182   4.370   4.879   8.643  0.3126  0.7741 -0.2064
12434TIP3   OH238183   9.498   2.317   6.183  0.0961  1.2171  0.5105
12434TIP3    H138184   9.507   2.255   6.255  0.8099  0.0326 -0.5554
12434TIP3    H238185   9.460   2.395   6.224  2.0846  1.2373  2.5115
12435TIP3   OH238186   6.010   4.305   3.664 -0.2992 -0.4528  0.5999
12435TIP3    H138187   6.041   4.356   3.739 -1.1234 -0.1192  0.7316
12435TIP3    H238188   5.943   4.360   3.624  0.1183 -0.6427 -0.3791
12436TIP3   OH238189   2.513   0.310   5.269  0.2627 -0.3952  0.0845
12436TIP3    H138190   2.533   0.338   5.180  0.3146 -0.5225  0.0562
12436TIP3    H238191   2.480   0.221   5.260 -2.4692  0.5346 -0.1115
12437TIP3   OH238192   6.978   4.775   8.231  0.2145  0.3787 -0.0436
12437TIP3    H138193   6.899   4.735   8.269  1.2485 -1.3824  0.3793
12437TIP3    H238194   6.946   4.820   8.152 -1.0448 -1.6544 -0.7877
12438TIP3   OH238195   4.100  10.634   2.742  0.6455  0.4320 -0.5146
12438TIP3    H138196   4.158  10.592   2.806  0.6085 -0.9992 -1.3947
12438TIP3    H238197   4.129  10.726   2.741 -0.8131  1.0982  3.1733
12439TIP3   OH238198   3.482   3.193   9.605  0.3864  0.7376 -0.6419
12439TIP3    H138199   3.424   3.157   9.672  0.3555  0.6056 -0.7408
12439TIP3    H238200   3.424   3.218   9.533  0.2715  2.0410 -0.1215
12440TIP3   OH238201   9.174   7.784   8.957  0.0715  0.4044  0.4884
12440TIP3    H138202   9.194   7.865   8.910  0.9923  1.2489  2.2362
12440TIP3    H238203   9.228   7.788   9.036 -0.2670 -1.6764  0.8900
12441TIP3   OH238204   8.847   7.899   5.164 -0.4067  0.4195 -0.0286
12441TIP3    H138205   8.908   7.841   5.210  1.4968  1.8792 -0.5254
12441TIP3    H238206   8.764   7.889   5.210  0.4274 -1.0212  1.2658
12442TIP3   OH238207   9.248   2.155   5.541  0.4613 -0.2119 -0.0343
12442TIP3    H138208   9.221   2.193   5.457  1.5212 -0.8682 -0.6915
12442TIP3    H238209   9.189   2.195   5.605 -0.9828 -0.3727 -1.1985
12443TIP3   OH238210   6.960   9.251   6.394  0.2264  1.0253 -0.2174
12443TIP3    H138211   7.016   9.174   6.405 -0.1282  1.0322  1.8704
12443TIP3    H238212   6.968   9.272   6.300  0.3654 -1.4920 -0.8436
12444TIP3   OH238213   4.087  10.712   5.828  0.0499 -0.2348  0.1122
12444TIP3    H138214   4.120  10.694   5.739 -0.5127  1.4699 -0.4826
12444TIP3    H238215   3.992  10.714   5.818 -0.0647 -0.8607  0.9568
12445TIP3   OH238216   2.066   3.696   6.857  0.4882  0.2615  0.7884
12445TIP3    H138217   2.151   3.676   6.818  2.1745  1.1392  3.7173
12445TIP3    H238218   2.031   3.611   6.884  1.0320  0.0009  0.6776
12446TIP3   OH238219   6.721   7.466   9.125 -0.1443 -0.1369 -0.1955
12446TIP3    H138220   6.782   7.398   9.154 -1.2873 -1.6950 -1.2589
12446TIP3    H238221   6.635   7.425   9.133 -0.8957  1.2955 -0.6630
12447TIP3   OH238222   0.341   5.694  10.269  0.0242  0.2370 -0.5015
12447TIP3    H138223   0.331   5.599  10.272  0.6829  0.1680 -0.3455
12447TIP3    H238224   0.330   5.722  10.360 -2.9671  0.6350 -0.8773
12448TIP3   OH238225   3.369   2.869   3.052 -0.1311  0.7632 -0.1652
12448TIP3    H138226   3.437   2.934   3.033  1.1413 -0.5192 -0.2045
12448TIP3    H238227   3.294   2.920   3.080  0.8767  2.2401 -0.0315
12449TIP3   OH238228   1.706   8.423   1.599 -0.6287 -0.4108  0.3532
12449TIP3    H138229   1.769   8.488   1.628 -1.1371  0.6552 -0.8242
12449TIP3    H238230   1.756   8.341   1.595  0.4901  0.2629  0.1294
12450TIP3   OH238231   0.681   9.158   9.052 -0.6854  0.0977 -0.3419
12450TIP3    H138232   0.591   9.125   9.056 -0.1488 -1.3784  0.6936
12450TIP3    H238233   0.689   9.213   9.129 -0.7636  0.4333 -0.5714
12451TIP3   OH238234   5.769   7.000   0.809  0.2837  0.6118  0.2636
12451TIP3    H138235   5.774   7.072   0.746 -1.6179  1.2292  0.7382
12451TIP3    H238236   5.723   6.930   0.761 -0.0869  0.6371  0.5818
12452TIP3   OH238237  10.908   6.972   1.243  0.1424  0.8503  0.5175
12452TIP3    H138238  10.876   6.971   1.333 -0.3603  0.1833  0.3383
12452TIP3    H238239  10.939   7.061   1.230  2.8413  0.2567  2.2452
12453TIP3   OH238240   5.951  10.296   5.302 -0.0425 -1.0069  0.4875
12453TIP3    H138241   5.921  10.292   5.392 -0.9199 -1.3635  0.1917
12453TIP3    H238242   5.877  10.332   5.253  0.7291  0.0261  0.0313
12454TIP3   OH238243   0.429   7.933   9.891  0.3699  0.2347  0.2031
12454TIP3    H138244   0.346   7.978   9.875  0.8841  0.4353 -2.2196
12454TIP3    H238245   0.494   7.988   9.849  1.6207 -0.4741  1.1523
12455TIP3   OH238246   2.789   9.212   7.959  0.2187  0.3468 -0.6644
12455TIP3    H138247   2.818   9.284   7.903  0.2796  0.5280 -0.3966
12455TIP3    H238248   2.867   9.157   7.970  0.7066  1.2774  0.7523
12456TIP3   OH238249   7.093   8.164   6.733  0.4964  0.0919  0.5030
12456TIP3    H138250   7.135   8.136   6.815 -0.9891 -0.1048  1.2289
12456TIP3    H238251   7.057   8.250   6.753 -0.4468 -0.2389  0.2745
12457TIP3   OH238252   5.291   6.434   1.635 -0.0192 -0.1051  0.3079
12457TIP3    H138253   5.203   6.413   1.665 -0.5979 -0.4828 -1.5257
12457TIP3    H238254   5.328   6.488   1.704 -1.3075 -0.8070  1.5886
12458TIP3   OH238255  10.096   8.807   9.476  0.2497  0.2083  0.4616
12458TIP3    H138256  10.006   8.824   9.504  0.1694 -1.0478  0.9993
12458TIP3    H238257  10.150   8.835   9.550  0.4677  2.5777 -0.4932
12459TIP3   OH238258   0.674   7.154   1.379 -0.0110  0.2280  0.6366
12459TIP3    H138259   0.616   7.093   1.334 -1.6247  1.1183  1.4056
12459TIP3    H238260   0.630   7.171   1.463  1.2427  1.1378  1.1401
12460TIP3   OH238261   8.930   5.138   5.928  0.1061  0.2389 -0.0266
12460TIP3    H138262   8.963   5.066   5.873  0.0321 -0.0987  0.3633
12460TIP3    H238263   8.986   5.212   5.906  1.4611 -0.4517  0.9722
12461TIP3   OH238264  10.411  10.067   8.138 -0.1825 -0.3455 -0.3365
12461TIP3    H138265  10.495  10.023   8.152  0.4097  0.7086 -0.5109
12461TIP3    H238266  10.347   9.996   8.139  0.4232 -0.9521  2.1412
12462TIP3   OH238267   0.167   6.369   1.753  0.0693 -0.4494  0.2318
12462TIP3    H138268   0.164   6.353   1.847  0.6417  0.2908  0.3893
12462TIP3    H238269   0.085   6.415   1.734 -0.7309 -1.8848  0.0926
12463TIP3   OH238270   1.675   9.640   0.214 -0.1523 -0.0240  0.7658
12463TIP3    H138271   1.632   9.724   0.227  2.5031  1.2882  1.9594
12463TIP3    H238272   1.620   9.594   0.151 -1.4754  2.7910 -0.3195
12464TIP3   OH238273   7.042   1.357   0.442  0.1269  0.1583  0.5241
12464TIP3    H138274   6.993   1.343   0.522 -0.7444 -0.1544 -0.0492
12464TIP3    H238275   6.981   1.401   0.383  0.8513  0.6682  0.1368
12465TIP3   OH238276  10.755   8.939   5.241  0.3003  0.0184  0.5564
12465TIP3    H138277  10.776   9.008   5.304 -0.8739 -0.2764  1.3201
12465TIP3    H238278  10.758   8.858   5.292  1.9447 -0.5513 -0.3949
12466TIP3   OH238279   0.741   1.657   4.444  0.2324 -0.1807  0.4381
12466TIP3    H138280   0.779   1.648   4.531  1.2153  0.0493  0.0435
12466TIP3    H238281   0.689   1.737   4.448  2.3489  1.2756  0.1010
12467TIP3   OH238282   8.598   2.894   7.991 -0.2348 -0.8641  0.0797
12467TIP3    H138283   8.597   2.961   8.060 -0.8932 -0.6799 -0.1015
12467TIP3    H238284   8.689   2.864   7.988  0.1682  0.3364 -0.1398
12468TIP3   OH238285   5.619   7.396   9.543 -0.4702  0.2877  0.0542
12468TIP3    H138286   5.557   7.460   9.507 -1.4407  0.3283  1.6780
12468TIP3    H238287   5.645   7.343   9.468 -1.9847  0.6808 -0.7966
12469TIP3   OH238288   0.161   3.005   5.100 -0.3254  0.0868  0.1416
12469TIP3    H138289   0.123   2.929   5.145 -1.2055  0.1491 -0.4885
12469TIP3    H238290   0.128   2.999   5.011  0.3703  0.6947 -0.1617
12470TIP3   OH238291   9.875   1.331   6.501 -0.2281 -0.0443 -0.2629
12470TIP3    H138292   9.796   1.356   6.453 -1.7846  1.6007  2.8364
12470TIP3    H238293   9.913   1.414   6.530  1.5001 -0.8899  0.0112
12471TIP3   OH238294   3.466   6.005   2.305  0.1841  0.0356  0.0001
12471TIP3    H138295   3.497   6.061   2.234  2.5550  1.9911  2.3744
12471TIP3    H238296   3.456   6.064   2.380 -1.5889 -2.0172  1.4974
12472TIP3   OH238297   0.955   8.412   2.548  0.3808 -0.5316  0.1978
12472TIP3    H138298   0.984   8.501   2.569  0.8456 -0.6600  0.1261
12472TIP3    H238299   0.918   8.378   2.630  0.7265 -0.4712  0.3812
12473TIP3   OH238300   3.566  10.200   8.976 -0.2016 -0.0780 -0.6567
12473TIP3    H138301   3.598  10.113   8.999 -0.4271 -0.0058 -0.0466
12473TIP3    H238302   3.517  10.228   9.053  0.2676  0.7785 -0.6587
12474TIP3   OH238303   8.306   9.313   2.644  0.2072 -0.4322 -0.1034
12474TIP3    H138304   8.364   9.345   2.714  0.5961  1.8453 -1.3875
12474TIP3    H238305   8.354   9.331   2.563 -1.9166  0.8135 -1.1716
12475TIP3   OH238306   7.688   7.042   9.442  0.0080  0.2401 -0.2008
12475TIP3    H138307   7.760   6.982   9.425  0.2396  0.5067 -0.1604
12475TIP3    H238308   7.632   6.995   9.505  0.0921 -0.0044 -0.3065
12476TIP3   OH238309   9.987   4.541   6.404 -0.5897 -0.4314 -0.0671
12476TIP3    H138310   9.903   4.579   6.430 -0.2789 -1.3738  2.6214
12476TIP3    H238311  10.045   4.616   6.396 -1.5863  0.2231 -1.8349
12477TIP3   OH238312   3.504   8.663   6.355  0.2946 -0.2163  0.2663
12477TIP3    H138313   3.569   8.689   6.421 -0.6256 -0.8580  1.4688
12477TIP3    H238314   3.445   8.738   6.350  1.3560  0.5800 -1.2047
12478TIP3   OH238315   3.856   0.459   9.467  0.0649 -0.0267 -0.2202
12478TIP3    H138316   3.895   0.428   9.548  0.4095  1.6317  0.2933
12478TIP3    H238317   3.909   0.534   9.442 -2.7383  2.4208  0.5705
12479TIP3   OH238318   6.472   3.709  10.895  0.4154  0.5490 -0.4172
12479TIP3    H138319   6.380   3.689  10.878  0.4589 -0.4243  0.3977
12479TIP3    H238320   6.510   3.626  10.924  1.5239  0.9699 -0.6134
12480TIP3   OH238321   5.837  10.715   3.781 -0.1976  0.0680 -0.1691
12480TIP3    H138322   5.756  10.742   3.737 -1.6692 -0.8611  1.7881
12480TIP3    H238323   5.838  10.766   3.862  0.9075 -0.3301  0.0849
12481TIP3   OH238324   9.445   8.311   6.337  0.1626  0.0604 -0.0040
12481TIP3    H138325   9.420   8.277   6.251  0.7799 -2.4497  0.7444
12481TIP3    H238326   9.362   8.334   6.378 -0.1888  0.6249 -0.9787
12482TIP3   OH238327   8.173   1.756   6.707  0.0368  0.2138 -0.1299
12482TIP3    H138328   8.124   1.808   6.644 -3.0035  1.0492  2.6366
12482TIP3    H238329   8.265   1.770   6.684 -0.8341  2.4489 -2.7575
12483TIP3   OH238330   7.279   2.694   5.853 -0.4279  0.2120  0.4962
12483TIP3    H138331   7.193   2.657   5.835  0.4126 -0.0843 -4.2970
12483TIP3    H238332   7.336   2.619   5.865 -0.4767  0.3535  1.6940
12484TIP3   OH238333  10.858   7.322   3.022 -0.9848  0.1175 -0.0572
12484TIP3    H138334  10.923   7.313   2.953  0.3451 -2.2654  1.3473
12484TIP3    H238335  10.892   7.391   3.079  0.0099 -0.6497  0.3049
12485TIP3   OH238336   0.486   4.840  10.233  0.2718 -0.3901 -0.2132
12485TIP3    H138337   0.441   4.840  10.148  1.9500  0.1569 -1.1503
12485TIP3    H238338   0.540   4.761  10.230 -0.0832 -0.6704  0.6085
12486TIP3   OH238339   9.023   4.179   7.392  0.3610  0.6120 -0.0816
12486TIP3    H138340   9.002   4.265   7.429 -3.3931 -0.9300  1.9814
12486TIP3    H238341   8.941   4.150   7.351  0.9531 -2.5405  0.6547
12487TIP3   OH238342   6.820   8.258  10.530  0.3344  0.1968 -0.0778
12487TIP3    H138343   6.870   8.322  10.580 -0.5747  1.5020 -0.7835
12487TIP3    H238344   6.798   8.189  10.593  0.3574  1.1360  0.9833
12488TIP3   OH238345   4.479   0.126   3.953 -0.4384 -0.1122  0.4751
12488TIP3    H138346   4.539   0.186   3.997 -1.0691  0.6022  0.3681
12488TIP3    H238347   4.520   0.108   3.869 -0.0702 -0.1200  0.6559
12489TIP3   OH238348   9.086   2.980  10.759  0.1739  0.0301 -0.2170
12489TIP3    H138349   9.068   3.056  10.815  2.5450 -0.8760  1.9985
12489TIP3    H238350   9.147   3.013  10.693 -0.0940  0.3992 -0.2872
12490TIP3   OH238351   9.869   2.820   4.679  0.1687 -0.0408  0.1838
12490TIP3    H138352   9.854   2.751   4.744  2.7039 -2.0187 -1.1405
12490TIP3    H238353   9.938   2.875   4.717 -1.7410  1.8096  1.1696
12491TIP3   OH238354   5.035   0.930   5.289 -0.2563  0.4554 -0.3677
12491TIP3    H138355   5.104   0.960   5.230  1.0278 -0.5855  0.5693
12491TIP3    H238356   5.081   0.888   5.362 -1.8472 -3.4198 -1.3529
12492TIP3   OH238357   7.500   5.928  10.380 -0.8841 -0.0743  0.0908
12492TIP3    H138358   7.410   5.951  10.357 -1.5848 -1.4061  1.3583
12492TIP3    H238359   7.522   5.989  10.451 -1.7901 -1.4274  1.6130
12493TIP3   OH238360   4.919   2.546   8.618  0.0591 -0.2946  0.2630
12493TIP3    H138361   4.983   2.606   8.657  2.6025 -2.5233 -0.2334
12493TIP3    H238362   4.894   2.488   8.689  0.9196 -1.2757 -0.2081
12494TIP3   OH238363   8.957   3.998   6.009 -0.5964  0.8563  0.2569
12494TIP3    H138364   8.973   3.953   5.926 -2.8594 -2.4163  1.3660
12494TIP3    H238365   9.043   4.005   6.049  0.5482  2.4551 -2.2425
12495TIP3   OH238366   8.055   2.035   4.589 -0.5092  0.4678 -1.0520
12495TIP3    H138367   8.041   1.941   4.584 -2.5182  0.7286 -1.0721
12495TIP3    H238368   7.988   2.072   4.532  0.3562  1.9212 -1.1720
12496TIP3   OH238369   2.447   5.414   6.360  0.3554  0.5394 -0.0113
12496TIP3    H138370   2.429   5.455   6.275  1.7342  0.8817 -0.1594
12496TIP3    H238371   2.360   5.392   6.395 -0.1983 -0.7240 -2.0314
12497TIP3   OH238372  10.348   5.177   7.702  0.2436 -0.8098  0.9068
12497TIP3    H138373  10.254   5.181   7.683 -0.1973 -4.1924  1.8065
12497TIP3    H238374  10.378   5.096   7.660  2.2061 -1.1153  2.7312
12498TIP3   OH238375   2.593   2.648   7.746 -0.6619 -0.1843 -0.3058
12498TIP3    H138376   2.678   2.682   7.717 -0.4896 -1.8321 -1.9758
12498TIP3    H238377   2.529   2.689   7.688 -0.8416 -0.0277  0.0028
12499TIP3   OH238378   3.948   3.234   4.140  0.4009 -0.0971 -0.1040
12499TIP3    H138379   4.016   3.166   4.137  1.1870  0.6819 -2.8818
12499TIP3    H238380   3.909   3.232   4.052 -0.8706  1.7578  0.3685
12500TIP3   OH238381   6.933   0.063   1.532 -0.0085  0.3244  0.8158
12500TIP3    H138382   7.002   0.049   1.597  1.9178  2.1777 -0.6932
12500TIP3    H238383   6.942  -0.011   1.472  2.2304  1.6328 -0.5872
12501TIP3   OH238384  10.576   5.586   3.789 -0.4821  0.1828  0.4833
12501TIP3    H138385  10.651   5.540   3.826  0.2893 -0.3543 -1.5901
12501TIP3    H238386  10.582   5.675   3.824  0.1997 -0.2674  1.5583
12502TIP3   OH238387  10.701   2.531   2.134  0.7543  0.0272 -0.2169
12502TIP3    H138388  10.684   2.459   2.194  0.1787 -1.1960 -1.7696
12502TIP3    H238389  10.777   2.576   2.171  0.5897 -0.8314  1.2476
12503TIP3   OH238390   5.481   0.880   1.338 -0.2993 -0.4881 -0.5069
12503TIP3    H138391   5.420   0.888   1.264 -0.5928 -1.0244 -0.3253
12503TIP3    H238392   5.551   0.822   1.306  1.4802  2.0673 -1.5933
12504TIP3   OH238393   3.716   7.090   8.288 -0.5511 -0.0276  0.2970
12504TIP3    H138394   3.758   7.012   8.326  0.6287  0.9272  1.0186
12504TIP3    H238395   3.788   7.151   8.272 -1.1225  0.0146 -2.6259
12505TIP3   OH238396   7.345   4.741   2.427  0.3087  0.1771  0.8254
12505TIP3    H138397   7.270   4.686   2.406  1.9947 -1.9853  0.0464
12505TIP3    H238398   7.356   4.733   2.522  0.5867 -0.9658  0.7076
12506TIP3   OH238399   9.614  10.840   6.703  0.0749  0.0334 -0.9798
12506TIP3    H138400   9.588  10.857   6.794  1.5809  0.4880 -0.6109
12506TIP3    H238401   9.605  10.746   6.692  0.9409 -0.1699 -0.0051
12507TIP3   OH238402   4.629   4.982  10.581 -0.1846  0.0796  0.6213
12507TIP3    H138403   4.664   4.893  10.574  0.1795  0.3183 -1.3956
12507TIP3    H238404   4.559   4.976  10.646 -1.0818 -2.0016 -0.4404
12508TIP3   OH238405   3.781  10.651   0.726 -0.5863 -0.0633 -0.3651
12508TIP3    H138406   3.802  10.588   0.794  0.1385 -0.1435 -0.6562
12508TIP3    H238407   3.850  10.640   0.661 -0.1100  1.4279 -0.1507
12509TIP3   OH238408  10.002   5.802   8.991 -0.4836  0.3534  0.0108
12509TIP3    H138409  10.035   5.775   9.077 -0.4624 -0.2271 -0.1805
12509TIP3    H238410  10.069   5.774   8.929 -0.4861  0.7973 -0.1970
12510TIP3   OH238411   5.292   4.583   9.964 -0.0373 -0.1234  0.3190
12510TIP3    H138412   5.276   4.658   9.908 -0.0064 -0.3547 -0.0028
12510TIP3    H238413   5.230   4.592  10.036  1.1264  1.1598  1.2264
12511TIP3   OH238414   3.464   7.206   8.280  0.1807  0.6585 -0.1450
12511TIP3    H138415   3.553   7.177   8.261 -0.1262 -0.0622 -0.5319
12511TIP3    H238416   3.457   7.200   8.375  0.5177  0.6385 -0.1189
12512TIP3   OH238417   9.813  10.777   0.602 -0.4428 -0.5922 -0.0930
12512TIP3    H138418   9.849  10.689   0.612  1.6445  0.3259  1.1065
12512TIP3    H238419   9.813  10.814   0.690  1.5969  1.6173 -0.8915
12513TIP3   OH238420   0.443  10.705   9.007  0.5166  0.8741  0.1338
12513TIP3    H138421   0.452  10.651   9.085  1.6260  0.0980 -0.5107
12513TIP3    H238422   0.433  10.794   9.040  0.7436  0.5294  1.1539
12514TIP3   OH238423   0.073   6.684   4.196  0.6900  0.2204 -0.2051
12514TIP3    H138424   0.035   6.697   4.282  1.1316 -0.3975  0.0907
12514TIP3    H238425   0.167   6.685   4.211  0.8561 -3.2545 -0.0784
12515TIP3   OH238426   4.339   0.409   4.144 -0.6893  0.1362  0.3934
12515TIP3    H138427   4.330   0.316   4.126  1.2681 -0.2005  1.0098
12515TIP3    H238428   4.309   0.419   4.234 -2.5600  0.4426 -0.2131
12516TIP3   OH238429   3.935   9.945   2.140  0.1487 -0.4125 -0.1483
12516TIP3    H138430   3.937   9.978   2.229  1.9610  1.0837 -0.6668
12516TIP3    H238431   4.008   9.989   2.096 -0.6135 -1.1660 -2.3481
12517TIP3   OH238432   1.453   0.441   4.071  0.5176  0.3342 -0.1659
12517TIP3    H138433   1.370   0.439   4.118  0.6736 -0.2165  0.0936
12517TIP3    H238434   1.485   0.351   4.074  0.5940  0.3099 -1.2216
12518TIP3   OH238435   9.258   8.466   1.707  0.0636 -0.3088 -0.6538
12518TIP3    H138436   9.221   8.430   1.787  3.0295 -1.3952  0.3507
12518TIP3    H238437   9.222   8.555   1.702 -0.8253 -0.4955  1.4225
12519TIP3   OH238438   4.889   4.837   3.004  0.4786 -0.2390  0.2120
12519TIP3    H138439   4.831   4.873   2.938  0.1426  0.2535  0.7744
12519TIP3    H238440   4.939   4.770   2.958  0.7306  0.5691 -0.7083
12520TIP3   OH238441   0.839   8.604   7.841  0.0998  0.1843  0.2279
12520TIP3    H138442   0.751   8.620   7.877  0.3558 -0.8401  1.4002
12520TIP3    H238443   0.897   8.659   7.894  0.1347  1.2222 -0.8574
12521TIP3   OH238444   8.485   8.089   3.545 -0.0447  0.5593 -0.2408
12521TIP3    H138445   8.526   8.130   3.622 -0.5637 -0.2386  0.4699
12521TIP3    H238446   8.413   8.148   3.522  1.5475  2.0859 -1.6225
12522TIP3   OH238447   7.428   6.124   8.775 -0.4907 -0.4182  0.6265
12522TIP3    H138448   7.456   6.213   8.793 -0.5305 -0.3891  0.5452
12522TIP3    H238449   7.509   6.074   8.765 -0.4643 -0.2489 -0.0327
12523TIP3   OH238450   7.119   7.917   5.871  0.3257  0.3487 -0.1651
12523TIP3    H138451   7.125   7.839   5.926  0.0024  1.3070  1.2888
12523TIP3    H238452   7.210   7.943   5.856  0.4173  0.2204  0.1529
12524TIP3   OH238453   8.236   8.827   8.916  0.2396 -0.0596 -0.0879
12524TIP3    H138454   8.158   8.772   8.914  0.0447  0.2298 -0.7262
12524TIP3    H238455   8.304   8.774   8.876  0.5558 -0.5716  1.0853
12525TIP3   OH238456   5.433   3.293   1.262  0.2546  0.4262  0.5780
12525TIP3    H138457   5.462   3.383   1.276 -0.4633  0.3482  3.0343
12525TIP3    H238458   5.366   3.279   1.329 -1.6830 -1.0723 -1.5276
12526TIP3   OH238459   7.990   8.763   5.050  0.1469 -0.3235 -0.7682
12526TIP3    H138460   8.073   8.790   5.012  0.3760  0.2801  0.1093
12526TIP3    H238461   7.957   8.695   4.992  1.5757 -1.0510 -0.7785
12527TIP3   OH238462   1.789   3.647   2.171 -0.3225 -0.1569 -0.4331
12527TIP3    H138463   1.737   3.724   2.147 -1.1676 -0.8267 -0.8041
12527TIP3    H238464   1.738   3.604   2.239  0.4075 -0.1093  0.1532
12528TIP3   OH238465   5.558   6.400   4.481  0.2844 -0.0345  0.0121
12528TIP3    H138466   5.582   6.453   4.557  0.1515  1.4486 -0.9417
12528TIP3    H238467   5.641   6.361   4.452  0.3509 -0.5166  0.8448
12529TIP3   OH238468   2.333   9.387   2.402  0.2827  0.2022 -0.0534
12529TIP3    H138469   2.258   9.349   2.355  0.5060 -0.6690  0.2941
12529TIP3    H238470   2.339   9.337   2.483  1.7247 -0.2677 -0.4226
12530TIP3   OH238471   0.902   9.308   5.772  0.2176  0.2722  0.5257
12530TIP3    H138472   0.991   9.329   5.744  0.5780  0.7011  1.8702
12530TIP3    H238473   0.913   9.238   5.836 -0.6050 -1.0066 -0.6865
12531TIP3   OH238474   9.655   3.231   9.143  0.4214  0.0001  0.0673
12531TIP3    H138475   9.584   3.243   9.080 -0.4775 -0.8330  0.8985
12531TIP3    H238476   9.613   3.196   9.221  1.6914 -0.0975  0.7355
12532TIP3   OH238477   4.659   2.876   9.094  0.4901 -0.1280 -0.7658
12532TIP3    H138478   4.571   2.845   9.072  0.5746 -2.9257  2.0366
12532TIP3    H238479   4.712   2.796   9.098  2.2329  1.0342  1.1260
12533TIP3   OH238480   2.660   0.054   5.871 -0.2355  0.0823 -0.1730
12533TIP3    H138481   2.754   0.057   5.889  0.2187  2.2525 -2.3223
12533TIP3    H238482   2.655   0.052   5.775 -2.3841 -0.0792 -0.0904
12534TIP3   OH238483   5.565   4.615   1.782 -0.0942 -0.0861 -0.2758
12534TIP3    H138484   5.532   4.611   1.692  1.5421 -0.9493 -0.8691
12534TIP3    H238485   5.486   4.626   1.836 -0.9256  3.8068 -1.9717
12535TIP3   OH238486   5.443   2.099  10.625  0.2187 -0.4177  0.2709
12535TIP3    H138487   5.426   2.016  10.670 -0.3024 -0.5560 -0.1628
12535TIP3    H238488   5.491   2.073  10.546  0.5537 -0.2449  0.4157
12536TIP3   OH238489   8.194   6.570  10.573 -0.2991 -0.1286  0.1388
12536TIP3    H138490   8.098   6.566  10.576 -0.3361  0.0972 -0.5811
12536TIP3    H238491   8.218   6.613  10.655 -0.8127 -0.1804  0.3247
12537TIP3   OH238492   7.841   8.825   3.497 -0.2540 -0.1127  0.1290
12537TIP3    H138493   7.902   8.892   3.528 -0.6555 -0.2565  1.2829
12537TIP3    H238494   7.870   8.805   3.408 -1.0752  2.7243 -0.8696
12538TIP3   OH238495   3.670  10.433   6.333  0.1517 -0.3745 -0.2953
12538TIP3    H138496   3.648  10.516   6.375  0.7550 -0.1748 -0.3555
12538TIP3    H238497   3.607  10.425   6.261  0.1888  0.1123 -0.3898
12539TIP3   OH238498  10.620   6.566   3.553  0.1496 -0.1111 -0.4755
12539TIP3    H138499  10.685   6.527   3.611 -1.7924 -2.4854  0.3049
12539TIP3    H238500  10.612   6.657   3.583  0.0960 -0.9345  2.2639
12540TIP3   OH238501   5.252   0.678   3.232  0.3555  0.3848  0.4007
12540TIP3    H138502   5.305   0.655   3.155  1.1443  0.6241  0.8648
12540TIP3    H238503   5.262   0.603   3.291  2.3640  1.5027  1.6165
12541TIP3   OH238504   5.179   6.367   6.617  0.6029 -0.4136 -0.3416
12541TIP3    H138505   5.197   6.327   6.532  0.6933  2.1303 -1.5992
12541TIP3    H238506   5.228   6.449   6.617 -2.8455  1.8638  0.2464
12542TIP3   OH238507  10.833   9.120   0.376  0.4421 -0.3302 -0.3766
12542TIP3    H138508  10.873   9.125   0.463 -0.6647 -3.4965  0.4449
12542TIP3    H238509  10.744   9.154   0.389 -0.0182 -1.6147  0.0112
12543TIP3   OH238510   8.925   7.479   0.311  0.9228  0.0711 -0.0693
12543TIP3    H138511   8.888   7.419   0.247  1.6077 -1.4940  0.9477
12543TIP3    H238512   8.956   7.553   0.259  2.5986 -1.6840 -1.7462
12544TIP3   OH238513   1.607   8.073  10.461 -0.1802 -0.6184 -0.6379
12544TIP3    H138514   1.663   8.058  10.384  0.8970 -0.9266  0.1777
12544TIP3    H238515   1.582   7.985  10.490 -0.6651 -0.4987 -0.6910
12545TIP3   OH238516   1.912   1.691  10.040  0.3792 -0.3636 -0.5503
12545TIP3    H138517   1.828   1.662  10.077 -0.7369  3.1149  0.0225
12545TIP3    H238518   1.976   1.676  10.109  0.1861 -2.5181 -0.7800
12546TIP3   OH238519   8.263   2.031   7.722 -0.4386 -0.4839  0.0887
12546TIP3    H138520   8.246   2.075   7.639  0.0160 -1.5958 -0.6158
12546TIP3    H238521   8.275   1.939   7.699 -1.5158 -1.0265  1.5341
12547TIP3   OH238522   7.192   5.265   2.600 -0.0621  0.1903  0.3242
12547TIP3    H138523   7.267   5.254   2.659 -0.3895 -0.2047  0.6714
12547TIP3    H238524   7.116   5.243   2.653 -0.2588 -1.6376 -0.6361
12548TIP3   OH238525   4.296   3.246   3.158  0.2615  0.8026 -0.2993
12548TIP3    H138526   4.243   3.323   3.138  0.0634  0.8082  0.2319
12548TIP3    H238527   4.387   3.275   3.145  0.2410  1.4102  0.8081
12549TIP3   OH238528   8.869   4.181   5.008 -0.7990 -0.1374  0.0218
12549TIP3    H138529   8.842   4.096   4.973 -0.8707  0.2029 -0.7479
12549TIP3    H238530   8.929   4.159   5.079  0.4170 -0.8240 -1.1854
12550TIP3   OH238531   1.272   8.069   7.970 -1.0038  0.2286 -0.0716
12550TIP3    H138532   1.180   8.096   7.965 -0.5170  1.9004 -0.6004
12550TIP3    H238533   1.307   8.116   8.046 -0.6551 -0.6838  0.3536
12551TIP3   OH238534   5.108   9.528   5.782 -0.1934 -0.2172 -0.1115
12551TIP3    H138535   5.018   9.545   5.810 -0.0556 -0.6378  0.6140
12551TIP3    H238536   5.123   9.436   5.804 -0.0780 -0.5814 -1.6089
12552TIP3   OH238537   4.665   0.137   2.151  0.0420 -0.1449  0.2968
12552TIP3    H138538   4.722   0.211   2.132  2.2716 -1.5064  1.2903
12552TIP3    H238539   4.689   0.070   2.087  0.7368 -1.3023  1.7152
12553TIP3   OH238540   8.744   8.762   5.781 -0.4262  0.6321  0.4762
12553TIP3    H138541   8.714   8.740   5.692 -0.8063  3.0619 -0.0548
12553TIP3    H238542   8.684   8.714   5.838 -2.7337  2.0547 -0.5972
12554TIP3   OH238543   7.063   7.062   4.186  1.2946 -0.5773  0.4020
12554TIP3    H138544   7.102   7.072   4.099  0.4500  0.7210  0.1561
12554TIP3    H238545   7.102   6.981   4.220  0.7088 -1.8147 -1.6693
12555TIP3   OH238546   4.027   1.616   0.336  0.2272 -0.8816 -0.4454
12555TIP3    H138547   3.954   1.557   0.353  0.0869 -0.1865  1.6326
12555TIP3    H238548   4.090   1.598   0.406  0.5527  0.8001 -0.2612
12556TIP3   OH238549   6.537   7.899   9.103  0.4062 -0.4399 -0.2276
12556TIP3    H138550   6.498   7.875   9.188 -1.2686 -2.2225 -1.4214
12556TIP3    H238551   6.546   7.816   9.057 -1.4638  0.6987 -2.8976
12557TIP3   OH238552   8.626   2.960   9.354 -0.2186  0.6257 -0.2094
12557TIP3    H138553   8.700   2.913   9.315 -0.7353  0.2944 -0.8125
12557TIP3    H238554   8.563   2.968   9.283 -1.8616 -1.3810  0.8900
12558TIP3   OH238555   4.041   5.119   4.395  0.3628  0.2629  0.0853
12558TIP3    H138556   4.000   5.201   4.421  1.7184  1.2799 -0.8924
12558TIP3    H238557   4.057   5.074   4.478 -1.1063  0.6014  0.5842
12559TIP3   OH238558   7.579   4.910   1.692 -0.0871  0.7411  0.4925
12559TIP3    H138559   7.577   4.867   1.607  1.1387 -0.6258  1.1194
12559TIP3    H238560   7.653   4.971   1.687  0.2138  0.3929  0.7049
12560TIP3   OH238561   6.335   9.840   7.763  0.8311  0.1846  0.6357
12560TIP3    H138562   6.314   9.843   7.670  2.3540  1.0557  0.2883
12560TIP3    H238563   6.260   9.881   7.806 -0.0153 -0.4831 -0.1624
12561TIP3   OH238564   8.949   7.826   2.362  0.5843  0.5689  0.0498
12561TIP3    H138565   8.908   7.909   2.338  0.7221  0.8442  0.7538
12561TIP3    H238566   9.024   7.851   2.415  1.0326  0.0174 -0.3127
12562TIP3   OH238567   3.709   6.078   6.721  0.2145  0.5475 -0.3405
12562TIP3    H138568   3.723   6.144   6.789  1.0493  0.4766 -0.4318
12562TIP3    H238569   3.748   6.116   6.642  1.5166 -0.3958 -0.1920
12563TIP3   OH238570   4.321   1.931   0.886  0.6399 -0.0237 -0.0581
12563TIP3    H138571   4.374   1.993   0.837  0.3975 -0.1801 -0.5284
12563TIP3    H238572   4.230   1.958   0.868  0.5377 -0.4116 -0.1320
12564TIP3   OH238573   8.076   0.517  10.016  0.4380  0.3856 -0.1685
12564TIP3    H138574   8.158   0.565  10.010  0.2751  1.2374  2.7649
12564TIP3    H238575   8.008   0.583   9.999  0.3013  0.5030  0.7735
12565TIP3   OH238576   5.650   4.530   9.495 -0.0784 -0.1678  0.4714
12565TIP3    H138577   5.738   4.562   9.479  0.5690 -2.1055 -0.1328
12565TIP3    H238578   5.662   4.460   9.559 -1.3777  0.4621  1.4575
12566TIP3   OH238579   0.434   2.449   8.338  0.3490 -0.1278 -0.2677
12566TIP3    H138580   0.432   2.543   8.317 -0.5755 -0.2065 -0.5809
12566TIP3    H238581   0.360   2.437   8.398  0.1577 -0.7424 -0.6222
12567TIP3   OH238582   9.843   5.409   1.619  0.2771  0.6323  0.3641
12567TIP3    H138583   9.815   5.448   1.702  0.9252 -0.7763  1.2982
12567TIP3    H238584   9.899   5.335   1.645  0.1436 -0.1142 -1.3240
12568TIP3   OH238585   9.253  10.356   8.444 -0.0756  0.1367 -0.1678
12568TIP3    H138586   9.300  10.273   8.440  0.2899  0.3300  0.0572
12568TIP3    H238587   9.206  10.362   8.361  1.5335  0.6786 -1.0715
12569TIP3   OH238588   4.252   0.772   4.482  0.6295 -0.2177 -0.3929
12569TIP3    H138589   4.192   0.705   4.516  0.0078  0.4878 -0.0787
12569TIP3    H238590   4.328   0.767   4.540  1.4660 -1.9795 -1.5421
12570TIP3   OH238591   5.842   1.400   4.417 -0.1880  0.2052  0.2344
12570TIP3    H138592   5.916   1.386   4.358 -0.1960 -1.8140  0.6393
12570TIP3    H238593   5.785   1.461   4.370  1.2497  1.0567 -0.4833
12571TIP3   OH238594   7.518   8.857   6.947 -0.4394  0.7401 -0.1141
12571TIP3    H138595   7.594   8.810   6.981 -0.7014  0.1659 -0.3144
12571TIP3    H238596   7.489   8.805   6.872 -1.6328  0.4111  0.5521
12572TIP3   OH238597   2.654   7.870   5.109  0.0076  0.2796 -0.0359
12572TIP3    H138598   2.588   7.814   5.069 -0.2284  1.3405 -1.1961
12572TIP3    H238599   2.604   7.945   5.143  0.3954  0.1474  0.8418
12573TIP3   OH238600   2.146   8.138   6.321  1.3792  0.1724 -0.2072
12573TIP3    H138601   2.237   8.129   6.294  1.9116  3.1172  0.3610
12573TIP3    H238602   2.099   8.160   6.241  0.5514 -3.8415 -1.0492
12574TIP3   OH238603   5.249  10.490   3.990 -0.2826 -0.3354 -0.0474
12574TIP3    H138604   5.336  10.520   3.966 -1.0536  1.5126 -0.7171
12574TIP3    H238605   5.241  10.512   4.083 -0.0774 -0.4161 -0.0108
12575TIP3   OH238606   4.111   6.238   2.282 -0.4315  0.7749 -0.0295
12575TIP3    H138607   4.030   6.268   2.241 -0.1157  0.3768 -0.9790
12575TIP3    H238608   4.151   6.317   2.319 -1.2465  0.9677  0.4607
12576TIP3   OH238609  10.184   8.848   2.518 -0.6502  0.1115  0.4904
12576TIP3    H138610  10.108   8.805   2.477 -0.2573 -0.7269  0.6046
12576TIP3    H238611  10.156   8.866   2.607 -0.4927 -0.8410  0.7451
12577TIP3   OH238612   8.770   9.097   5.018 -0.1733 -0.1980 -0.0977
12577TIP3    H138613   8.832   9.052   5.075 -1.4217 -0.0270  1.4405
12577TIP3    H238614   8.684   9.069   5.048 -0.9323  1.7329 -0.3196
12578TIP3   OH238615   9.109   1.331   2.315 -0.0878 -0.2738 -0.1594
12578TIP3    H138616   9.061   1.373   2.386 -0.5724 -1.0425 -0.0234
12578TIP3    H238617   9.066   1.362   2.235 -0.2738 -0.3005 -0.0702
12579TIP3   OH238618   7.099  10.105   3.890  0.4793  0.1287 -0.4222
12579TIP3    H138619   7.134  10.185   3.851  3.1287 -0.7697 -0.0839
12579TIP3    H238620   7.034  10.074   3.826  1.8516  0.7819 -2.2265
12580TIP3   OH238621   3.663   6.736   8.358 -0.4305 -0.3753  0.5425
12580TIP3    H138622   3.734   6.772   8.304 -0.3757  0.9248  1.4450
12580TIP3    H238623   3.584   6.753   8.307 -0.2206 -0.6523  0.1196
12581TIP3   OH238624   0.046   1.411   0.899 -0.0354  0.1827 -0.2374
12581TIP3    H138625  -0.026   1.452   0.946  1.3539  0.8340  1.4612
12581TIP3    H238626   0.122   1.467   0.918  1.6114 -2.1830  0.7867
12582TIP3   OH238627   6.864   4.126   4.215  0.1459 -0.5881 -0.1470
12582TIP3    H138628   6.847   4.048   4.269 -1.0190 -0.6123 -0.5165
12582TIP3    H238629   6.803   4.192   4.249 -0.6763 -0.6314 -1.4710
12583TIP3   OH238630   2.782   7.469   8.444 -0.4138  0.3923  0.2857
12583TIP3    H138631   2.803   7.396   8.385 -0.2593  0.7221 -0.0672
12583TIP3    H238632   2.756   7.426   8.526  0.2081 -0.0503  0.2559
12584TIP3   OH238633   1.501   9.806   5.052  0.3319  0.1995  0.1568
12584TIP3    H138634   1.472   9.880   5.106 -0.6858 -0.0102 -0.0807
12584TIP3    H238635   1.419   9.764   5.024  0.8610 -0.0900 -0.9864
12585TIP3   OH238636   1.623   3.607   2.404  0.4776  0.6744 -0.0348
12585TIP3    H138637   1.641   3.533   2.461 -0.2478  0.3935 -0.1522
12585TIP3    H238638   1.615   3.682   2.463 -0.4322  0.3584  0.2671
12586TIP3   OH238639   7.259   1.644   8.856  0.6562  0.3716  0.3327
12586TIP3    H138640   7.220   1.731   8.852 -1.5741 -0.5663  0.2205
12586TIP3    H238641   7.255   1.611   8.767  0.7370 -0.1525  0.5191
12587TIP3   OH238642   2.065   5.054   4.721  0.2372  0.1728  0.1985
12587TIP3    H138643   1.999   4.992   4.753 -0.1673  0.3763 -0.2418
12587TIP3    H238644   2.055   5.053   4.626  0.0443  1.1161  0.1981
12588TIP3   OH238645   8.223   5.062   2.345  0.5996 -0.3926  0.3405
12588TIP3    H138646   8.203   5.017   2.262  0.9584  0.4671 -0.2229
12588TIP3    H238647   8.318   5.070   2.345  0.5266  0.5482  0.3302
12589TIP3   OH238648   3.310   9.982   4.792  0.6937 -0.4817  0.4335
12589TIP3    H138649   3.267   9.915   4.738 -0.3523  0.2098  0.3930
12589TIP3    H238650   3.287  10.065   4.751 -0.4199  0.0929  2.1124
12590TIP3   OH238651   6.646   1.779   5.222  0.7116  0.1132  0.4538
12590TIP3    H138652   6.606   1.716   5.282 -2.1549  0.4628 -0.9156
12590TIP3    H238653   6.572   1.814   5.171  2.6181  2.0962 -1.1487
12591TIP3   OH238654   2.248   9.267   3.715 -0.0735 -0.7669 -0.1928
12591TIP3    H138655   2.210   9.336   3.660 -1.3443 -0.8748  0.5266
12591TIP3    H238656   2.303   9.216   3.655  0.9207  0.8590 -0.7458
12592TIP3   OH238657   9.617   4.797   0.556  0.2142  0.1802 -0.1693
12592TIP3    H138658   9.541   4.747   0.587 -0.4983  2.0319  1.1864
12592TIP3    H238659   9.645   4.849   0.631  1.4081  1.2587 -1.3100
12593TIP3   OH238660   9.334   4.609   3.672 -0.1814  0.2534  0.0209
12593TIP3    H138661   9.306   4.532   3.722  2.0735 -1.2954 -0.9308
12593TIP3    H238662   9.408   4.644   3.721 -0.8448  1.5057  0.1490
12594TIP3   OH238663   5.256   0.318   7.640 -0.2490 -0.0030  0.6038
12594TIP3    H138664   5.257   0.358   7.553 -0.6238  0.2505  0.7149
12594TIP3    H238665   5.176   0.265   7.642  0.3252 -0.8909  0.4008
12595TIP3   OH238666   2.029   7.021   0.567 -0.1322  0.4760 -0.3492
12595TIP3    H138667   1.942   7.019   0.608 -0.1775 -0.4516 -0.4788
12595TIP3    H238668   2.090   7.017   0.640 -0.1839  1.1713 -0.2552
12596TIP3   OH238669   3.497   8.558   2.375 -0.5065 -0.4223 -0.2978
12596TIP3    H138670   3.556   8.482   2.366 -0.6064 -0.4212 -1.0475
12596TIP3    H238671   3.430   8.529   2.437  0.4758 -0.2955  0.8613
12597TIP3   OH238672   0.162   9.986  10.016  0.0138  0.0202 -0.1613
12597TIP3    H138673   0.117   9.919  10.066 -1.9969  3.4555  3.1168
12597TIP3    H238674   0.255   9.964  10.024 -0.5442 -2.2871  0.7250
12598TIP3   OH238675   5.709   1.730   5.290  0.3161 -0.2008  0.1983
12598TIP3    H138676   5.784   1.679   5.258  1.1028  2.7725 -3.2484
12598TIP3    H238677   5.632   1.686   5.253  0.8813  0.1973 -1.5320
12599TIP3   OH238678   9.870   0.507   0.417  0.2081  0.9128  0.0987
12599TIP3    H138679   9.842   0.594   0.446 -1.0544  1.1497 -1.6374
12599TIP3    H238680   9.873   0.514   0.321 -0.2812 -1.0546 -0.1049
12600TIP3   OH238681   9.246   9.530   2.292 -0.7813 -0.1140 -0.1091
12600TIP3    H138682   9.246   9.573   2.378  0.6417 -2.6374  1.2759
12600TIP3    H238683   9.288   9.593   2.233 -2.9665  2.2245  0.6491
12601TIP3   OH238684   9.659   5.336   2.939 -0.2292 -0.3478 -0.6364
12601TIP3    H138685   9.660   5.428   2.967 -1.8881 -0.9723  1.8485
12601TIP3    H238686   9.581   5.329   2.885 -1.4134 -0.6651  1.0118
12602TIP3   OH238687   5.795   6.515   0.548 -0.2866  0.1159  0.1450
12602TIP3    H138688   5.854   6.442   0.535 -0.5075 -0.2603  1.1775
12602TIP3    H238689   5.771   6.543   0.459  1.4497  0.3114 -0.3019
12603TIP3   OH238690   3.941   4.751   0.297  0.1920 -0.7232  0.0812
12603TIP3    H138691   4.008   4.806   0.256 -0.0266 -0.2297  0.3860
12603TIP3    H238692   3.875   4.740   0.229 -0.0078 -0.1843  0.1871
12604TIP3   OH238693  10.576   1.330   3.455  0.2890 -0.1389 -0.4747
12604TIP3    H138694  10.625   1.343   3.374  1.9869 -0.3762  0.4600
12604TIP3    H238695  10.611   1.397   3.515 -0.9778  0.0776  0.0527
12605TIP3   OH238696   8.118   6.209   9.558  0.0842 -0.0013 -0.5319
12605TIP3    H138697   8.192   6.268   9.564 -0.1031  0.1388  0.7399
12605TIP3    H238698   8.155   6.127   9.524  1.3657 -0.7234  2.2820
12606TIP3   OH238699   3.889   6.868   8.236 -0.0918  0.2358 -0.3651
12606TIP3    H138700   3.981   6.853   8.260 -0.6201 -0.1825  1.5810
12606TIP3    H238701   3.894   6.921   8.156  1.8192 -1.1300 -1.2282
12607TIP3   OH238702   9.054   0.925   7.282 -0.3029  0.4805  0.2111
12607TIP3    H138703   9.090   0.846   7.241 -1.8217  0.5671 -1.3944
12607TIP3    H238704   9.067   0.912   7.375 -0.2000 -1.5031 -0.0435
12608TIP3   OH238705   6.626  10.134   4.571 -0.1168  0.0206 -0.1696
12608TIP3    H138706   6.629  10.039   4.583  1.0591  0.2146  1.4110
12608TIP3    H238707   6.618  10.146   4.476  0.3174 -1.6400 -0.4477
12609TIP3   OH238708   3.444  10.319   8.210  0.0862 -0.4910  0.6128
12609TIP3    H138709   3.534  10.315   8.243  1.1205  2.0362 -1.5615
12609TIP3    H238710   3.401  10.382   8.268  0.9055  1.2806 -0.6232
12610TIP3   OH238711   0.597   3.893   9.788  0.1916  0.2674  1.1113
12610TIP3    H138712   0.540   3.818   9.806  1.0202 -0.8057 -0.5648
12610TIP3    H238713   0.538   3.957   9.748 -0.5371  0.5968  2.6204
12611TIP3   OH238714   4.995  10.372   3.266  0.2006 -0.2480  0.1297
12611TIP3    H138715   4.988  10.466   3.282  0.7945  0.0627 -1.2954
12611TIP3    H238716   4.905  10.341   3.268  0.0440  0.2482  1.1558
12612TIP3   OH238717   5.355   6.671   1.754 -0.2910  0.0463  0.2147
12612TIP3    H138718   5.372   6.727   1.678 -1.3059 -0.0913 -0.1266
12612TIP3    H238719   5.323   6.731   1.821  0.7773  0.1967  0.6196
12613TIP3   OH238720   0.517   1.550   2.833  0.0497  0.2285 -0.1652
12613TIP3    H138721   0.484   1.555   2.743 -0.0040 -0.4410 -0.1901
12613TIP3    H238722   0.467   1.616   2.881 -1.0100 -0.4476 -0.3008
12614TIP3   OH238723   9.314   0.307   9.777 -0.2700  0.2303 -0.1083
12614TIP3    H138724   9.345   0.255   9.703  1.9020 -1.6352  1.9474
12614TIP3    H238725   9.388   0.363   9.800 -1.1701  1.3267  0.2383
12615TIP3   OH238726   4.468   9.849   5.647 -0.3444  0.4652 -0.0918
12615TIP3    H138727   4.461   9.914   5.578 -0.5968 -0.2077 -0.7072
12615TIP3    H238728   4.378   9.834   5.675 -0.1076  3.1015  2.6743
12616TIP3   OH238729   7.990   3.202   9.130  0.1431  0.2957 -0.1990
12616TIP3    H138730   7.967   3.257   9.055 -0.3840  0.3385 -0.0066
12616TIP3    H238731   7.909   3.194   9.180  0.1010 -0.9935 -0.4372
12617TIP3   OH238732  10.205  10.138   5.226  0.7048 -0.3372  0.5524
12617TIP3    H138733  10.195  10.150   5.320 -1.5607  0.4077  0.2696
12617TIP3    H238734  10.276  10.198   5.202 -1.0127  2.1558  1.3339
12618TIP3   OH238735   2.408   6.147   1.769  0.0627 -0.0438 -0.4662
12618TIP3    H138736   2.492   6.187   1.745  1.4681 -3.5312 -1.9549
12618TIP3    H238737   2.360   6.141   1.687  0.0288 -1.5624 -0.3633
12619TIP3   OH238738   7.326   2.918   2.444  0.1135 -0.1229 -0.4639
12619TIP3    H138739   7.376   2.945   2.366 -0.5338 -1.1287 -1.2538
12619TIP3    H238740   7.390   2.871   2.498  0.5424  0.4876 -0.4335
12620TIP3   OH238741   9.054   5.526   9.747  0.3953 -0.4160 -0.2568
12620TIP3    H138742   8.971   5.568   9.770  1.3738  1.5098  0.0118
12620TIP3    H238743   9.093   5.502   9.830  0.0736 -1.4330 -0.3890
12621TIP3   OH238744   9.444   6.677   7.713  0.2562 -0.3021  0.6692
12621TIP3    H138745   9.483   6.751   7.667  0.9110 -1.4297 -0.6790
12621TIP3    H238746   9.414   6.619   7.643 -0.1817 -1.3354  1.6886
12622TIP3   OH238747   0.983   2.626   8.082 -0.1940  0.0882  0.7952
12622TIP3    H138748   0.891   2.600   8.080 -0.8875  2.3844  0.9175
12622TIP3    H238749   0.988   2.692   8.151  1.2642  1.0055 -0.1435
12623TIP3   OH238750   8.773   7.365   5.932  0.1291 -0.6763  0.2135
12623TIP3    H138751   8.696   7.318   5.899 -0.7827 -0.6558  2.1424
12623TIP3    H238752   8.790   7.325   6.018  0.7640  0.9392  0.8736
12624TIP3   OH238753   1.194   2.744   8.481  0.3362 -0.3615 -1.0313
12624TIP3    H138754   1.260   2.812   8.496 -1.0022  0.8634 -0.4499
12624TIP3    H238755   1.137   2.780   8.414 -1.3245 -0.1738  0.4142
12625TIP3   OH238756   6.540   7.659   0.552 -0.1114 -0.2043  0.3389
12625TIP3    H138757   6.483   7.668   0.629 -1.1461 -0.0912 -0.4156
12625TIP3    H238758   6.604   7.592   0.577  0.6007  0.9729  1.8915
12626TIP3   OH238759   4.581   6.525   0.992  0.2203 -0.1389 -0.8076
12626TIP3    H138760   4.673   6.498   0.982  0.6967  2.0228 -3.2744
12626TIP3    H238761   4.537   6.487   0.916 -0.4610  0.5481 -0.7650
12627TIP3   OH238762   9.526   9.056   5.244 -0.5679  0.3228  0.4745
12627TIP3    H138763   9.473   8.983   5.213  0.3446 -0.0406 -0.2958
12627TIP3    H238764   9.536   9.113   5.168  0.4881  0.1644  0.4754
12628TIP3   OH238765   6.799   0.948   7.738 -0.3412 -0.2401 -0.1376
12628TIP3    H138766   6.740   0.874   7.725 -0.9123  0.3416 -1.0097
12628TIP3    H238767   6.843   0.958   7.654 -1.6058  1.5065 -0.6583
12629TIP3   OH238768   9.680   7.426   8.894  0.1317  0.3491 -0.6820
12629TIP3    H138769   9.754   7.365   8.895 -0.1001  0.0664 -0.3574
12629TIP3    H238770   9.711   7.503   8.942 -0.0933 -0.1504  0.2865
12630TIP3   OH238771   0.337   6.988   9.971 -0.1249 -0.7093  0.7751
12630TIP3    H138772   0.294   7.012  10.053  1.5012  1.6920  1.0331
12630TIP3    H238773   0.266   6.992   9.906 -0.9199  0.1414  1.6440
12631TIP3   OH238774   0.384   5.549   8.334 -0.1627  0.7772 -0.1858
12631TIP3    H138775   0.440   5.489   8.286 -1.1975 -0.2691 -0.1344
12631TIP3    H238776   0.405   5.636   8.298 -0.0640  0.1604 -1.6863
12632TIP3   OH238777   0.402   0.895   7.815 -0.1596 -0.3960 -0.3495
12632TIP3    H138778   0.443   0.980   7.826 -0.4466 -0.2534 -0.3843
12632TIP3    H238779   0.471   0.840   7.776 -0.2478  0.0619 -1.1720
12633TIP3   OH238780   9.666   5.118   0.424  0.8182 -0.4305 -0.6266
12633TIP3    H138781   9.654   5.048   0.488  0.1668  1.5968  1.6565
12633TIP3    H238782   9.579   5.131   0.386 -0.4931  2.3330  2.7210
12634TIP3   OH238783   7.767   8.823   1.759 -0.2656  0.2557  0.7614
12634TIP3    H138784   7.842   8.877   1.733 -1.1082  0.4848 -1.4004
12634TIP3    H238785   7.801   8.767   1.828  2.1942 -0.2856 -0.7372
12635TIP3   OH238786   5.920   1.861   5.998  0.2296  0.4494 -0.3684
12635TIP3    H138787   5.957   1.906   5.922  1.6770 -1.1904 -0.7062
12635TIP3    H238788   5.953   1.911   6.073  0.5136  0.8626 -0.7612
12636TIP3   OH238789   8.571   1.866   8.204 -0.1714  0.2421 -0.5280
12636TIP3    H138790   8.507   1.804   8.167 -0.2765  0.4026 -0.6137
12636TIP3    H238791   8.576   1.936   8.139 -0.9897  0.9535  0.1611
12637TIP3   OH238792   7.710   3.985   0.717 -0.3226 -0.0431 -0.0200
12637TIP3    H138793   7.707   3.909   0.774  1.1658 -0.0569  0.0727
12637TIP3    H238794   7.726   4.059   0.776  1.4029 -0.0794 -0.4061
12638TIP3   OH238795   0.074   1.841   9.106 -0.2262 -0.3329 -0.2696
12638TIP3    H138796   0.034   1.882   9.028 -0.4217 -0.2522 -0.1277
12638TIP3    H238797   0.004   1.842   9.171 -0.1094 -0.5447 -0.1426
12639TIP3   OH238798   3.300   5.664   9.404 -0.4288 -0.4111  0.1012
12639TIP3    H138799   3.274   5.607   9.331  1.8141  0.2638 -1.3645
12639TIP3    H238800   3.221   5.713   9.425 -1.4020 -1.2935 -1.2723
12640TIP3   OH238801   7.910   8.255  10.254 -0.1492  0.3876 -0.4703
12640TIP3    H138802   7.864   8.289  10.177 -0.0771 -0.0339 -0.7016
12640TIP3    H238803   7.949   8.333  10.295 -0.0184  0.5900 -0.9696
12641TIP3   OH238804   4.857   2.950  10.135  0.3760 -0.3188 -0.7459
12641TIP3    H138805   4.790   2.907  10.083  0.0820  0.6082 -1.1530
12641TIP3    H238806   4.937   2.899  10.119  0.3047 -0.0154 -2.1622
12642TIP3   OH238807   5.591   0.603   5.210  0.2256  0.5886  0.2091
12642TIP3    H138808   5.643   0.522   5.210 -2.1112 -1.0338  0.8228
12642TIP3    H238809   5.614   0.646   5.128 -0.2108 -1.9575 -1.3653
12643TIP3   OH238810   4.469   8.605   4.027 -0.4146 -0.2062 -0.0254
12643TIP3    H138811   4.425   8.654   4.096 -0.3507 -0.3837  0.1418
12643TIP3    H238812   4.472   8.515   4.059 -3.0780 -0.9367 -1.5113
12644TIP3   OH238813   7.855   1.672   7.778 -0.1005  0.6311 -0.0947
12644TIP3    H138814   7.876   1.754   7.822 -0.8853  0.9448 -0.2960
12644TIP3    H238815   7.759   1.671   7.772 -0.0362  0.3556 -1.3346
12645TIP3   OH238816   4.520   8.199   9.544  0.6972  0.5724  0.0453
12645TIP3    H138817   4.457   8.209   9.615 -0.8304 -1.4866 -0.9270
12645TIP3    H238818   4.605   8.195   9.587 -0.2052 -0.8244  1.8091
12646TIP3   OH238819   4.380   9.309  10.004 -0.3025 -0.1487 -0.0432
12646TIP3    H138820   4.406   9.316   9.912  1.6017 -1.2203  0.3670
12646TIP3    H238821   4.309   9.245  10.004  0.4216 -0.9809 -0.6636
12647TIP3   OH238822   3.102   3.300   3.889  0.4572  0.0845  0.1050
12647TIP3    H138823   3.110   3.333   3.800 -0.3316  1.1954  0.4177
12647TIP3    H238824   3.058   3.216   3.880  0.3181  0.2222 -0.5379
12648TIP3   OH238825   0.881   2.874   4.314  0.0822  0.0068  0.6001
12648TIP3    H138826   0.837   2.841   4.392 -1.2045  2.3479  0.9799
12648TIP3    H238827   0.823   2.850   4.242 -0.4872  0.7607  0.7922
12649TIP3   OH238828   5.879   0.519   9.208  0.7465 -0.1974  0.4874
12649TIP3    H138829   5.906   0.587   9.270 -2.5483 -0.2666  2.2558
12649TIP3    H238830   5.923   0.440   9.238  2.3917  0.5448  0.1464
12650TIP3   OH238831  10.311   5.122  10.636  0.1255 -0.0424  0.4859
12650TIP3    H138832  10.261   5.045  10.664 -2.6548  1.8840  1.1822
12650TIP3    H238833  10.368   5.141  10.710  0.7381 -1.3009  0.3664
12651TIP3   OH238834   0.170   0.923   9.185 -0.1138 -0.5082 -0.5029
12651TIP3    H138835   0.089   0.969   9.163  1.1639  1.0200 -2.4338
12651TIP3    H238836   0.217   0.917   9.101  2.1429 -0.5612  0.6907
12652TIP3   OH238837   7.787   6.252   3.833 -0.0319 -0.2847  0.0169
12652TIP3    H138838   7.769   6.225   3.923 -3.0716 -0.7408 -0.6069
12652TIP3    H238839   7.858   6.195   3.804  0.8531 -0.2728  2.0090
12653TIP3   OH238840   2.924   5.566   1.222 -0.2857 -0.0302 -0.0852
12653TIP3    H138841   2.927   5.624   1.147  1.3271 -0.9778 -0.8093
12653TIP3    H238842   2.833   5.570   1.253 -1.0398  0.2023 -2.2114
12654TIP3   OH238843   6.404   4.691  10.893 -0.7450 -0.2145 -0.2303
12654TIP3    H138844   6.496   4.711  10.876 -1.2651  1.2448 -1.5767
12654TIP3    H238845   6.404   4.654  10.982  0.7924  2.8532  1.2161
12655TIP3   OH238846   1.235   2.917   3.047  0.2948 -0.1908 -0.5532
12655TIP3    H138847   1.305   2.854   3.029 -0.0939 -0.5911 -0.6676
12655TIP3    H238848   1.168   2.867   3.092  0.2771  0.3012 -0.0227
12656TIP3   OH238849   3.331   5.829  10.323  0.4738  0.0017  0.0531
12656TIP3    H138850   3.350   5.872  10.239 -1.1609 -0.4089 -0.5744
12656TIP3    H238851   3.279   5.753  10.299  0.9953 -0.8028  1.3755
12657TIP3   OH238852   9.261   2.866   1.596 -0.8694  0.3746  0.0344
12657TIP3    H138853   9.281   2.887   1.688 -1.8176  0.3281  0.2702
12657TIP3    H238854   9.202   2.791   1.601  0.7797 -1.0272 -0.7260
12658TIP3   OH238855   7.380   1.486   9.626  0.3119 -0.3725 -0.1222
12658TIP3    H138856   7.316   1.415   9.634  0.1723 -0.2611 -0.2414
12658TIP3    H238857   7.391   1.498   9.531  2.8972 -2.5269 -0.2311
12659TIP3   OH238858   1.607   0.256   0.141 -0.0350 -0.0188  0.8416
12659TIP3    H138859   1.598   0.268   0.236  1.3472  0.3279  0.9559
12659TIP3    H238860   1.654   0.334   0.112  0.0654 -0.3971 -0.0443
12660TIP3   OH238861   3.044   9.621   4.313 -0.5841 -0.1759  0.8976
12660TIP3    H138862   2.960   9.586   4.342 -0.4264 -1.8296 -0.5193
12660TIP3    H238863   3.075   9.560   4.246  0.6597  1.6429 -0.3017
12661TIP3   OH238864   2.269   1.291   5.842 -0.0698  0.2810  0.0149
12661TIP3    H138865   2.267   1.369   5.787  3.8098  0.4457 -0.1677
12661TIP3    H238866   2.272   1.324   5.931  0.0239  0.2619  0.0185
12662TIP3   OH238867   5.661   2.841   7.298 -0.0170 -0.5581  0.4442
12662TIP3    H138868   5.717   2.764   7.288 -1.5225 -1.5755 -0.8098
12662TIP3    H238869   5.595   2.815   7.362 -0.1909 -0.0948  0.4590
12663TIP3   OH238870   5.973   1.807   9.848 -0.5764 -0.5044  0.2019
12663TIP3    H138871   5.981   1.820   9.943  2.5969 -0.9262  0.1092
12663TIP3    H238872   5.894   1.755   9.837 -2.7406  2.0104  2.2816
12664TIP3   OH238873   6.981  10.893   5.468  0.1037 -0.1738  0.0556
12664TIP3    H138874   7.058  10.850   5.506  0.8523  1.2322  0.2225
12664TIP3    H238875   6.943  10.943   5.540  1.2277  2.0961 -0.8157
12665TIP3   OH238876   2.075   3.239  10.017  0.2573  0.6713 -0.1998
12665TIP3    H138877   2.075   3.315  10.075  0.7654  0.0098  0.6950
12665TIP3    H238878   2.146   3.183  10.051 -0.4236 -0.4294 -0.5230
12666TIP3   OH238879   6.293   0.730  10.197 -0.0766  0.9431  0.6869
12666TIP3    H138880   6.334   0.811  10.227  0.0004  1.9587 -1.9418
12666TIP3    H238881   6.199   0.746  10.203 -0.0719  0.8781  0.9729
12667TIP3   OH238882   0.103   5.388   7.632 -0.6501 -0.3841  0.2710
12667TIP3    H138883   0.184   5.438   7.641 -0.5352 -0.2188 -1.3045
12667TIP3    H238884   0.123   5.303   7.669 -0.1583  0.0612  1.0462
12668TIP3   OH238885   3.278   5.818   5.916  0.0788 -0.3866  0.9775
12668TIP3    H138886   3.261   5.766   5.995 -0.5176 -1.3698  0.2342
12668TIP3    H238887   3.248   5.762   5.844  1.7769 -0.0322 -0.0523
12669TIP3   OH238888   4.307   5.934   4.480 -0.7114  0.0219  0.1255
12669TIP3    H138889   4.400   5.914   4.481 -1.2717 -3.2415  1.2732
12669TIP3    H238890   4.281   5.920   4.389 -0.2895 -0.3486  0.0576
12670TIP3   OH238891   3.142  10.845   7.961 -0.2930  0.3883  0.0700
12670TIP3    H138892   3.236  10.854   7.976 -0.4058 -0.9436  1.8474
12670TIP3    H238893   3.135  10.792   7.881  0.4336  0.9661 -0.3908
12671TIP3   OH238894   1.337   7.370   2.813  0.3053  0.0985  0.0888
12671TIP3    H138895   1.428   7.384   2.840 -0.2820 -0.3053  2.5795
12671TIP3    H238896   1.331   7.276   2.798  0.0295 -0.0756  1.2013
12672TIP3   OH238897   0.945   0.188   1.778 -0.6095  0.2183 -0.3951
12672TIP3    H138898   0.938   0.283   1.786 -0.2367  0.4061 -2.0126
12672TIP3    H238899   0.860   0.161   1.741 -0.6771 -0.0682 -0.0367
12673TIP3   OH238900   8.486   1.366   1.323 -0.4380 -0.2215 -0.3906
12673TIP3    H138901   8.501   1.311   1.400 -1.0011 -0.0642 -0.1621
12673TIP3    H238902   8.560   1.348   1.266 -0.3907 -0.8896 -0.1286
12674TIP3   OH238903   9.658  10.846   8.001 -1.0771 -0.1146  0.4606
12674TIP3    H138904   9.655  10.941   7.993  0.8106 -0.0764 -0.4894
12674TIP3    H238905   9.576  10.822   8.044 -1.7745  1.8897  0.3323
12675TIP3   OH238906   0.012   8.919   2.273  0.4973 -0.0607  0.6179
12675TIP3    H138907  -0.049   8.974   2.322  0.7453 -0.5486  1.5012
12675TIP3    H238908   0.002   8.947   2.182 -0.1033  0.7453  0.9201
12676TIP3   OH238909   9.206   3.723   9.942  0.4044  0.0860  0.0257
12676TIP3    H138910   9.263   3.676  10.003  1.7359  2.5154  0.7894
12676TIP3    H238911   9.204   3.667   9.864 -0.0131 -2.3154  1.6213
12677TIP3   OH238912   7.099   5.377   9.533  0.4863 -0.3637  1.1349
12677TIP3    H138913   7.064   5.292   9.506 -0.0724  0.2147 -0.0469
12677TIP3    H238914   7.065   5.391   9.621 -1.4045 -0.3189  0.4452
12678TIP3   OH238915   8.525   2.034  10.167  0.2806  0.0001  0.4594
12678TIP3    H138916   8.453   2.031  10.230  0.0822 -0.3579  0.2154
12678TIP3    H238917   8.603   2.012  10.219  0.3810  1.4366  0.9514
12679TIP3   OH238918   6.618   9.534   6.494 -0.3084  0.2795 -0.2193
12679TIP3    H138919   6.560   9.540   6.419 -1.7185  0.1127  0.8036
12679TIP3    H238920   6.570   9.578   6.565  1.7887  2.1923  0.1469
12680TIP3   OH238921   0.873   5.289   1.092  0.2773 -0.1676  0.3746
12680TIP3    H138922   0.952   5.282   1.039  0.0719 -0.3793  0.0958
12680TIP3    H238923   0.832   5.370   1.062  0.8368  0.4237  1.1393
12681TIP3   OH238924   9.262   8.847   3.406  0.4097 -0.1741 -0.0658
12681TIP3    H138925   9.231   8.825   3.318  0.6732  0.1113 -0.2306
12681TIP3    H238926   9.305   8.932   3.396 -1.1626  0.7485  0.6999
12682TIP3   OH238927   1.891   6.885   9.197 -0.1655  0.0699  0.3667
12682TIP3    H138928   1.874   6.793   9.217  0.9262 -0.2240 -0.0061
12682TIP3    H238929   1.962   6.910   9.256 -0.1160  0.5319  0.1156
12683TIP3   OH238930   4.231   5.158   1.180 -0.6457 -0.2818  0.5030
12683TIP3    H138931   4.279   5.235   1.211 -0.1111 -0.9887  1.5121
12683TIP3    H238932   4.143   5.169   1.215 -0.7079  0.0987  0.2351
12684TIP3   OH238933   8.944   0.709   0.375  0.8178  0.5688 -0.3950
12684TIP3    H138934   9.027   0.702   0.329  1.2376 -2.1502  0.6160
12684TIP3    H238935   8.963   0.767   0.449  1.7952  0.1159 -0.2757
12685TIP3   OH238936   2.120   5.750   3.656 -0.2227  0.0356 -0.1514
12685TIP3    H138937   2.123   5.737   3.750 -0.1606  0.0773 -0.1480
12685TIP3    H238938   2.105   5.844   3.645 -1.0334 -0.0913 -0.1698
12686TIP3   OH238939   2.145   0.933   0.396 -0.0978 -0.1849 -0.0958
12686TIP3    H138940   2.060   0.889   0.393  0.4810 -1.3291 -0.1509
12686TIP3    H238941   2.208   0.862   0.411  0.8419  0.6534 -0.0009
12687TIP3   OH238942   3.333   1.898   4.953 -0.3286 -0.0223 -0.4738
12687TIP3    H138943   3.325   1.990   4.930 -0.7209 -0.0111 -0.3027
12687TIP3    H238944   3.419   1.872   4.920 -0.8573 -0.0044 -1.9557
12688TIP3   OH238945   7.078   1.470   7.726  0.6671  0.4328 -0.0974
12688TIP3    H138946   7.058   1.378   7.744  1.8699  0.0868 -0.4483
12688TIP3    H238947   7.172   1.477   7.739  1.3641  0.6536 -4.0229
12689TIP3   OH238948   0.077   8.592   2.631 -0.1849  0.6774 -0.4112
12689TIP3    H138949  -0.012   8.618   2.606  0.1366  1.4192 -0.8183
12689TIP3    H238950   0.131   8.617   2.557  0.3867  0.3475 -0.1121
12690TIP3   OH238951   9.340   1.649   8.752 -0.1457  0.1832  0.3346
12690TIP3    H138952   9.336   1.575   8.691 -0.7111  0.3714  0.1333
12690TIP3    H238953   9.398   1.712   8.709 -0.0969  0.0826  0.2505
12691TIP3   OH238954   6.521   9.583   9.115 -0.6715  0.1732  0.2529
12691TIP3    H138955   6.604   9.630   9.116  0.0780 -1.0999  1.0921
12691TIP3    H238956   6.460   9.638   9.165  0.0097  0.5289  0.6945
12692TIP3   OH238957   4.299  10.086   8.648  0.2457  0.0092 -0.3000
12692TIP3    H138958   4.249  10.014   8.609  0.9175 -0.8858  0.4386
12692TIP3    H238959   4.281  10.161   8.592  1.2030 -1.2340 -2.4090
12693TIP3   OH238960   8.860   3.451  10.448 -0.0396  0.0348 -0.4358
12693TIP3    H138961   8.807   3.478  10.372  0.0059  2.3190  0.2651
12693TIP3    H238962   8.804   3.468  10.523  1.0261  0.7898  0.2131
12694TIP3   OH238963   7.285   3.332   8.003 -0.3181 -0.0185  0.4534
12694TIP3    H138964   7.333   3.360   7.925  2.0747  0.3686  1.9657
12694TIP3    H238965   7.197   3.312   7.971  0.5146  0.2885 -2.2966
12695TIP3   OH238966   9.371   1.335   8.540 -0.0978 -0.4872  0.1767
12695TIP3    H138967   9.288   1.381   8.529  0.2948  0.2314  0.1592
12695TIP3    H238968   9.390   1.342   8.633 -0.2409 -0.9990  0.2519
12696TIP3   OH238969   0.440   7.034   1.253 -0.9102 -0.2753 -1.0535
12696TIP3    H138970   0.400   6.947   1.257 -1.1237 -0.1311  1.2843
12696TIP3    H238971   0.370   7.090   1.219 -1.0579 -0.8554 -1.7290
12697TIP3   OH238972  10.497   2.171   8.838 -0.0604  0.3246  0.6923
12697TIP3    H138973  10.412   2.173   8.796 -0.3895  1.1297  1.3646
12697TIP3    H238974  10.480   2.141   8.927  0.5202 -0.5792  0.5229
12698TIP3   OH238975   0.673   5.354   3.567 -0.0597 -0.5276  0.0176
12698TIP3    H138976   0.605   5.413   3.597  0.8852  1.0428 -0.8040
12698TIP3    H238977   0.636   5.312   3.489 -0.0682  0.4105 -0.4981
12699TIP3   OH238978   7.204   0.251   8.575 -0.9738  0.3532  0.1053
12699TIP3    H138979   7.151   0.182   8.536 -1.9672  0.6681  0.8445
12699TIP3    H238980   7.163   0.268   8.660  0.6598  0.2124  0.9800
12700TIP3   OH238981   0.632   1.778   4.886  0.3664 -0.4151 -0.4885
12700TIP3    H138982   0.623   1.714   4.957  0.7596 -0.8529 -0.8275
12700TIP3    H238983   0.550   1.771   4.837  0.6509 -1.1063 -0.8809
12701TIP3   OH238984   4.652   0.285   2.390  0.4309  0.0129  0.4557
12701TIP3    H138985   4.645   0.360   2.330  0.4587  0.4658  1.0133
12701TIP3    H238986   4.663   0.209   2.332 -1.9584  0.1102 -0.2648
12702TIP3   OH238987   6.367   2.950   2.649  0.3608  0.6438  0.0053
12702TIP3    H138988   6.434   3.013   2.677  0.4905  0.5103 -0.0034
12702TIP3    H238989   6.396   2.920   2.563  0.0191  0.9682 -0.2234
12703TIP3   OH238990   2.683   1.649   2.641 -0.2855 -0.3447  0.5960
12703TIP3    H138991   2.776   1.655   2.619 -0.9592  0.3788 -2.6282
12703TIP3    H238992   2.666   1.555   2.647  0.5662 -0.4949  0.7449
12704TIP3   OH238993   6.067  10.048   6.060 -0.3769  0.0824 -0.0768
12704TIP3    H138994   6.082  10.117   6.125  2.2077 -1.1352  0.7489
12704TIP3    H238995   6.104  10.082   5.979 -2.2196  0.9873 -0.5779
12705TIP3   OH238996   5.522   2.249   9.931  0.4919 -0.1671  0.6126
12705TIP3    H138997   5.533   2.210   9.844 -1.1175 -0.9313  0.7135
12705TIP3    H238998   5.489   2.337   9.915  0.4689 -0.2058  0.4525
12706TIP3   OH238999   4.224   0.040   6.266  0.3039  0.0693  0.9071
12706TIP3    H139000   4.237  -0.014   6.344 -1.8683 -1.8031  0.0791
12706TIP3    H239001   4.300   0.021   6.211  1.3171  0.5959  2.0802
12707TIP3   OH239002   1.047   5.944   2.312  0.7235 -0.0744  0.0304
12707TIP3    H139003   1.142   5.951   2.314  0.8890 -0.9650 -2.1195
12707TIP3    H239004   1.018   6.025   2.270  0.2965  1.2551  2.6999
12708TIP3   OH239005   1.803   2.825   1.243  0.0543  0.3126 -0.3600
12708TIP3    H139006   1.848   2.740   1.244 -3.2255 -1.6047  1.3303
12708TIP3    H239007   1.712   2.804   1.224 -0.7366  3.6403 -0.9123
12709TIP3   OH239008   1.953   5.240   2.980  0.5955 -0.1701  0.2635
12709TIP3    H139009   1.959   5.262   3.073 -0.7832 -0.6278  0.4850
12709TIP3    H239010   2.026   5.179   2.965  2.8751  2.3783  0.2319
12710TIP3   OH239011   2.093   1.683   3.056  0.2751 -0.0896  0.9311
12710TIP3    H139012   2.084   1.625   3.132 -1.5369 -0.4032  0.5216
12710TIP3    H239013   2.020   1.745   3.063  0.6814  0.5256 -0.0014
12711TIP3   OH239014   2.313  10.218   4.233 -0.9049 -0.0390  0.1103
12711TIP3    H139015   2.251  10.288   4.214 -0.6180 -0.0392 -0.8731
12711TIP3    H239016   2.345  10.189   4.148 -0.6021 -0.9970  0.5257
12712TIP3   OH239017   0.370   5.012   9.088 -0.2365 -0.1268  0.3847
12712TIP3    H139018   0.334   5.068   9.019 -0.8873  1.2839  1.8181
12712TIP3    H239019   0.440   4.963   9.044 -0.4804  0.8763 -1.2238
12713TIP3   OH239020   2.137   2.072   3.154  0.0719 -0.2895  0.0243
12713TIP3    H139021   2.157   2.061   3.061  1.3311  2.2580 -0.1006
12713TIP3    H239022   2.047   2.041   3.163 -0.1496 -0.4054 -2.0739
12714TIP3   OH239023   9.638   1.268   7.381  0.3060 -0.6272 -0.3117
12714TIP3    H139024   9.696   1.198   7.411  2.4665  1.3865  0.5432
12714TIP3    H239025   9.621   1.320   7.459 -0.4622  0.3270 -1.0984
12715TIP3   OH239026   4.741   1.851  10.350 -0.5640 -0.1244  0.5762
12715TIP3    H139027   4.777   1.915  10.411 -0.7806  0.7785 -0.2155
12715TIP3    H239028   4.744   1.768  10.397 -1.4930  0.6783  2.1330
12716TIP3   OH239029   3.090  10.023   9.850  0.0149  0.0697 -0.1399
12716TIP3    H139030   3.052   9.944   9.813 -1.0032  0.6827 -0.4216
12716TIP3    H239031   3.060  10.024   9.941  0.7658 -0.3232  0.1225
12717TIP3   OH239032   4.852   1.523   5.583  0.4688  0.7432  0.2657
12717TIP3    H139033   4.836   1.480   5.499  1.1448  1.3155 -0.1665
12717TIP3    H239034   4.769   1.514   5.631 -0.4018  1.6060 -0.9982
12718TIP3   OH239035   3.470   3.322   6.876 -0.1920 -0.1015 -0.1198
12718TIP3    H139036   3.494   3.370   6.955 -1.7049 -1.5876  1.3145
12718TIP3    H239037   3.374   3.322   6.876 -0.2242 -0.7226 -1.5994
12719TIP3   OH239038   1.266   9.082   8.672  0.4693 -0.1832  0.2170
12719TIP3    H139039   1.329   9.127   8.729 -1.6246  0.8950  1.8016
12719TIP3    H239040   1.181   9.100   8.712 -0.6865 -3.7522 -0.3100
12720TIP3   OH239041   4.006   7.340   6.093  0.2403 -0.0237 -0.5337
12720TIP3    H139042   4.034   7.352   6.183 -3.7543  0.8924  0.7664
12720TIP3    H239043   4.043   7.414   6.046  1.1400  0.2982  0.6439
12721TIP3   OH239044   5.455   9.179   1.951 -0.7971 -0.1201 -0.1890
12721TIP3    H139045   5.462   9.122   2.027  0.1717 -1.0373 -0.9297
12721TIP3    H239046   5.507   9.256   1.973 -0.1050 -0.6050 -0.1010
12722TIP3   OH239047   5.014   1.784   1.343  0.5112  0.0784 -0.2858
12722TIP3    H139048   5.057   1.789   1.258  1.6560 -1.1194  0.1861
12722TIP3    H239049   5.073   1.732   1.397 -1.1696 -1.0206  0.6115
12723TIP3   OH239050   9.639   8.441   1.340  0.1106 -0.1771 -0.1650
12723TIP3    H139051   9.707   8.428   1.406 -0.2787  0.5143  0.3854
12723TIP3    H239052   9.570   8.379   1.364 -0.0054  0.0328  0.0423
12724TIP3   OH239053   5.413   3.636   2.102  0.8288  0.0235  0.2074
12724TIP3    H139054   5.382   3.636   2.193 -1.1208 -1.6654 -0.3715
12724TIP3    H239055   5.350   3.581   2.056  2.6814 -0.4902 -1.8697
12725TIP3   OH239056   8.974   7.466   9.084 -0.4027 -0.2770 -0.1704
12725TIP3    H139057   9.026   7.409   9.027  0.8177  1.0429 -0.4514
12725TIP3    H239058   8.976   7.552   9.040 -0.5272  0.4644  1.2125
12726TIP3   OH239059   9.527   1.218   7.884  0.2848 -0.3883 -0.0910
12726TIP3    H139060   9.534   1.286   7.818 -0.6961  1.9869  2.0564
12726TIP3    H239061   9.438   1.227   7.918  1.4740  0.2771  3.2135
12727TIP3   OH239062   3.952   2.655   1.346  0.4792 -0.2109  0.0358
12727TIP3    H139063   3.969   2.747   1.368  0.6790 -0.0820 -0.6248
12727TIP3    H239064   4.016   2.635   1.278  0.4685 -0.8585  0.2113
12728TIP3   OH239065  10.065   6.025   8.383 -0.6509 -0.2566 -0.1739
12728TIP3    H139066  10.013   5.980   8.316 -0.1769 -0.0523 -0.6834
12728TIP3    H239067  10.121   6.085   8.334  1.2156 -1.6049  0.2130
12729TIP3   OH239068   1.912   2.527   5.069 -0.1404  0.8743 -0.1262
12729TIP3    H139069   1.937   2.466   5.139 -0.6274 -1.1408 -1.6000
12729TIP3    H239070   1.979   2.595   5.072  0.7691 -0.0132  1.2764
12730TIP3   OH239071   1.505   7.179   1.562  0.2866 -0.2554  0.2733
12730TIP3    H139072   1.560   7.248   1.598 -2.5088  2.0829  0.4278
12730TIP3    H239073   1.431   7.173   1.622 -1.3318 -0.7664 -1.6562
12731TIP3   OH239074   4.764  10.421   6.101 -0.0941 -0.1998  0.7393
12731TIP3    H139075   4.790  10.350   6.160  0.0443  0.2897  1.2751
12731TIP3    H239076   4.797  10.500   6.144  0.8339  0.0862 -0.4550
12732TIP3   OH239077   7.253   7.747   1.987  0.1099 -0.3266  0.5571
12732TIP3    H139078   7.194   7.711   2.053  0.8577  0.0303  1.4445
12732TIP3    H239079   7.200   7.754   1.908 -1.0524  0.0467  1.3537
12733TIP3   OH239080   0.421   7.853   4.601 -0.5209 -0.2342 -0.4435
12733TIP3    H139081   0.496   7.795   4.612 -1.0078 -0.8259 -0.1551
12733TIP3    H239082   0.438   7.926   4.660 -0.1225 -0.3102 -0.4627
12734TIP3   OH239083   2.464   0.022   0.144  0.4478 -0.0833  0.4348
12734TIP3    H139084   2.521  -0.019   0.079 -0.6134  0.1487 -0.6952
12734TIP3    H239085   2.377   0.021   0.103 -0.1958  0.3363  1.7456
12735TIP3   OH239086   4.012   5.909   9.998  0.4186 -0.5901  0.6401
12735TIP3    H139087   3.955   5.967  10.048 -0.3914 -0.8110  0.0016
12735TIP3    H239088   4.060   5.968   9.938 -0.6883 -0.5928 -0.2824
12736TIP3   OH239089   0.600   4.621   9.850 -0.3645 -0.0224 -0.1425
12736TIP3    H139090   0.674   4.585   9.801  1.2831  0.5723  1.7627
12736TIP3    H239091   0.538   4.548   9.857 -0.3724 -0.2956 -2.4678
12737TIP3   OH239092   2.975   9.937   2.494  0.0097  0.0526 -0.0559
12737TIP3    H139093   3.028   9.858   2.485  0.2331  0.4350 -3.0767
12737TIP3    H239094   2.889   9.905   2.521  0.5097 -1.0398  0.2835
12738TIP3   OH239095   1.288   2.011   2.489  0.6138 -0.3213 -0.5193
12738TIP3    H139096   1.270   2.074   2.420 -0.1724 -1.1645 -1.1099
12738TIP3    H239097   1.248   1.930   2.459 -1.9259 -0.1642  1.9718
12739TIP3   OH239098   6.042   2.984   3.051 -0.2170 -0.1796 -0.2511
12739TIP3    H139099   6.029   2.899   3.008 -0.2973 -0.7243  0.8344
12739TIP3    H239100   6.082   3.039   2.983  1.4486 -1.5864 -0.4825
12740TIP3   OH239101   5.639   8.806   8.726 -0.0276  0.1304  0.0567
12740TIP3    H139102   5.646   8.897   8.696  0.9023  0.1201  0.2313
12740TIP3    H239103   5.664   8.753   8.651  2.5859  0.1091  0.8474
12741TIP3   OH239104   8.203   5.341   1.738  0.7227  0.0753 -0.1081
12741TIP3    H139105   8.262   5.270   1.713  1.6396  0.7248  0.1768
12741TIP3    H239106   8.241   5.377   1.818 -0.5329 -0.0392  0.5606
12742TIP3   OH239107   8.817   5.250  10.816 -0.4233 -0.3796 -0.7915
12742TIP3    H139108   8.828   5.330  10.869 -0.1257  0.4988 -2.1348
12742TIP3    H239109   8.736   5.211  10.849 -0.2535  0.1469  0.2941
12743TIP3   OH239110   6.120   0.237   9.319 -0.2512 -0.0672  0.5254
12743TIP3    H139111   6.074   0.245   9.402  0.0326 -0.4753  0.7215
12743TIP3    H239112   6.152   0.147   9.317 -0.2310 -0.0559 -0.0123
12744TIP3   OH239113   9.286   4.079  10.780 -1.1152 -0.2623  0.3354
12744TIP3    H139114   9.374   4.113  10.796 -0.6391 -0.6565 -1.2503
12744TIP3    H239115   9.227   4.147  10.813 -0.2592 -0.6245  2.7458
12745TIP3   OH239116   3.471   5.401   9.147 -0.2235 -0.7538 -0.7477
12745TIP3    H139117   3.501   5.491   9.147  1.9012 -1.3844 -2.5674
12745TIP3    H239118   3.485   5.370   9.057  0.7185 -3.3777  0.2111
12746TIP3   OH239119   9.451   4.426   8.408  0.2498  0.1821  0.5087
12746TIP3    H139120   9.403   4.490   8.355  0.4007 -0.3162 -0.2495
12746TIP3    H239121   9.388   4.397   8.474  0.4688  1.8139  1.4903
12747TIP3   OH239122  10.220   3.999   6.012  0.0109  0.4016  0.1321
12747TIP3    H139123  10.177   3.979   6.095 -0.0260  0.6014  0.1618
12747TIP3    H239124  10.313   3.981   6.028 -0.1076 -0.4067 -0.0514
12748TIP3   OH239125   5.874   1.360   3.466 -0.7232  0.4704 -0.4400
12748TIP3    H139126   5.939   1.395   3.528  0.1082  0.4214 -1.2681
12748TIP3    H239127   5.845   1.278   3.507 -0.7999  0.8495  0.2838
12749TIP3   OH239128   3.415   8.877   0.596  0.1516  0.3898 -0.4296
12749TIP3    H139129   3.354   8.835   0.656 -1.7840 -1.3210 -3.3147
12749TIP3    H239130   3.501   8.842   0.621 -0.6254 -0.5009  1.1079
12750TIP3   OH239131   8.412   0.821  10.769 -0.4465 -0.1330  0.0611
12750TIP3    H139132   8.453   0.896  10.813 -1.5157  1.3526 -1.3669
12750TIP3    H239133   8.343   0.793  10.829 -0.5447  0.5509  0.2857
12751TIP3   OH239134   0.198   8.997   6.004  0.2700  0.4111 -0.2689
12751TIP3    H139135   0.123   9.056   5.998 -1.0504 -1.2040 -0.5482
12751TIP3    H239136   0.177   8.939   6.077  0.4226 -1.1214 -1.3812
12752TIP3   OH239137   3.088   8.486   6.141  0.0837 -0.1421 -0.5506
12752TIP3    H139138   3.016   8.506   6.201 -0.4436  0.1603 -1.2623
12752TIP3    H239139   3.142   8.565   6.141  1.0165 -0.7522  0.7886
12753TIP3   OH239140   7.277  10.353   9.557 -0.0601  0.4427 -0.4611
12753TIP3    H139141   7.272  10.443   9.589 -1.6895  0.5382 -0.8986
12753TIP3    H239142   7.200  10.310   9.594  0.0686 -0.4563 -1.2053
12754TIP3   OH239143  10.061  10.310   9.922 -0.6751 -0.2463 -0.3093
12754TIP3    H139144  10.016  10.247   9.978  0.0313 -0.0401  0.5123
12754TIP3    H239145  10.041  10.282   9.833 -0.5374 -1.5166  0.0488
12755TIP3   OH239146   7.108   9.291   5.303 -0.0164  0.3096 -0.1772
12755TIP3    H139147   7.041   9.280   5.371  0.5479 -0.8059  0.2275
12755TIP3    H239148   7.191   9.284   5.349  0.3819 -1.4196 -1.0797
12756TIP3   OH239149   9.082   1.882   6.633 -0.0486  0.0685  0.3413
12756TIP3    H139150   9.052   1.884   6.724 -1.0899 -0.4222  0.0334
12756TIP3    H239151   9.119   1.794   6.622  1.2481  0.5665  0.6319
12757TIP3   OH239152   7.045   0.072   0.948  0.0729 -0.3784  0.8762
12757TIP3    H139153   7.094   0.064   0.866 -0.5227 -1.9050  0.6432
12757TIP3    H239154   7.096   0.023   1.012 -0.2456 -0.4824  1.0543
12758TIP3   OH239155   4.111   2.599   5.797  0.5274 -0.1649  0.2653
12758TIP3    H139156   4.033   2.581   5.849 -0.6742 -0.6058 -1.5995
12758TIP3    H239157   4.103   2.542   5.720  1.1306  1.9421 -1.4674
12759TIP3   OH239158   1.987   2.806   8.027  0.4073  0.3124  0.3234
12759TIP3    H139159   1.991   2.712   8.046 -0.8453  0.1004 -0.3599
12759TIP3    H239160   1.895   2.823   8.012  0.8878  1.1593 -2.0270
12760TIP3   OH239161   1.814   7.310   8.897  0.1919  0.3092 -0.3276
12760TIP3    H139162   1.736   7.362   8.880  1.0655  1.6575 -0.3918
12760TIP3    H239163   1.834   7.268   8.814 -2.1785 -2.5929  0.4118
12761TIP3   OH239164   3.043   1.186   5.309  0.3462 -0.1702  0.1813
12761TIP3    H139165   3.037   1.268   5.261 -1.2784 -0.9373 -1.0226
12761TIP3    H239166   3.035   1.211   5.401  1.6007  1.1496 -0.0331
12762TIP3   OH239167   6.641   8.628   3.410  0.2531 -0.2258 -0.3675
12762TIP3    H139168   6.634   8.716   3.447  2.9266  0.3956 -1.1150
12762TIP3    H239169   6.572   8.578   3.454 -0.4449  1.8800  1.0985
12763TIP3   OH239170   5.380   3.001   2.247  0.3864 -0.4172  0.4531
12763TIP3    H139171   5.318   2.960   2.186  0.2878 -0.0072  0.2760
12763TIP3    H239172   5.463   2.957   2.230 -0.2754 -2.5352  2.1947
12764TIP3   OH239173   1.246  10.135   5.024  0.1627  0.0768 -0.1691
12764TIP3    H139174   1.202  10.160   5.106  1.5561  0.2497  0.5549
12764TIP3    H239175   1.213  10.198   4.959 -1.5467 -0.5389  0.0507
12765TIP3   OH239176   9.486  10.251   2.017  0.6401 -0.1081  0.1802
12765TIP3    H139177   9.574  10.286   2.028  0.4902  0.2214  0.3536
12765TIP3    H239178   9.499  10.160   1.991  1.0399 -0.3357  1.1231
12766TIP3   OH239179   1.557   4.388   9.618 -0.4091  0.1490 -0.2946
12766TIP3    H139180   1.543   4.478   9.589 -2.4172 -0.5845 -1.8413
12766TIP3    H239181   1.469   4.352   9.631  0.2978 -1.8069 -0.4822
12767TIP3   OH239182  10.795   5.712   2.038  0.3193 -0.4758  0.1851
12767TIP3    H139183  10.848   5.642   1.999  1.7785 -0.1871  1.5463
12767TIP3    H239184  10.859   5.779   2.064 -0.7770  0.1730  1.3163
12768TIP3   OH239185   9.072   1.416   7.353  0.0188  0.3197 -0.0041
12768TIP3    H139186   9.141   1.482   7.340 -0.7909  1.0663 -0.6304
12768TIP3    H239187   9.087   1.353   7.283 -1.4287  1.8205 -1.7666
12769TIP3   OH239188   4.716   9.477  10.330  0.0692 -0.1969 -0.0872
12769TIP3    H139189   4.666   9.542  10.280 -0.4982  1.4661  2.4768
12769TIP3    H239190   4.674   9.394  10.309 -1.2484  0.6662 -1.0254
12770TIP3   OH239191   2.973   0.679   1.549 -0.1666  0.6835  0.4964
12770TIP3    H139192   2.930   0.646   1.628  1.7709  0.7257  1.6145
12770TIP3    H239193   3.046   0.619   1.534 -0.5914  0.5521 -1.4273
12771TIP3   OH239194   6.781   8.828   9.482  0.3522  0.4057 -0.7110
12771TIP3    H139195   6.732   8.832   9.564  1.3782 -0.0953 -0.0628
12771TIP3    H239196   6.743   8.754   9.435  1.4111 -0.9074  0.4224
12772TIP3   OH239197   0.271   8.129   7.684 -0.0258  0.9284 -0.2345
12772TIP3    H139198   0.179   8.139   7.708 -0.2312  1.5571 -1.2282
12772TIP3    H239199   0.318   8.129   7.767 -0.8911  0.9767  0.2619
12773TIP3   OH239200   4.249   1.402   8.119 -0.0718 -0.5240  0.6061
12773TIP3    H139201   4.275   1.328   8.064  0.6201  0.3423 -0.2679
12773TIP3    H239202   4.216   1.468   8.057  0.5548  0.4033  1.2242
12774TIP3   OH239203   9.390   0.715   9.424  0.6805  0.0238 -0.6687
12774TIP3    H139204   9.346   0.773   9.362  1.3843  2.2087  0.7517
12774TIP3    H239205   9.441   0.655   9.369  0.4179  1.1505 -2.2053
12775TIP3   OH239206   4.730   2.172  10.254  0.1142  0.1424 -0.2930
12775TIP3    H139207   4.723   2.235  10.327  1.6466  1.4889 -1.2282
12775TIP3    H239208   4.787   2.103  10.288 -0.5588 -0.1213  0.3289
12776TIP3   OH239209   5.916   9.057   3.445 -0.2617 -0.0133 -0.4332
12776TIP3    H139210   5.895   9.148   3.466 -0.1089  0.1082 -0.8050
12776TIP3    H239211   5.974   9.062   3.369  1.5922 -0.3201  0.9065
12777TIP3   OH239212   7.867   1.549   4.346 -0.5879 -0.0194  0.5081
12777TIP3    H139213   7.950   1.595   4.363 -0.4900  0.1293 -0.3189
12777TIP3    H239214   7.800   1.606   4.383 -0.3043 -0.3349  1.5490
12778TIP3   OH239215   7.406   3.758   3.403  0.2462 -0.0498  0.0790
12778TIP3    H139216   7.384   3.846   3.372 -1.3902  0.2242  1.7983
12778TIP3    H239217   7.389   3.701   3.328  1.5088  1.0811 -1.1270
12779TIP3   OH239218   4.969  10.623   6.834  0.5777 -0.1878 -0.5124
12779TIP3    H139219   5.007  10.663   6.912 -0.6282  1.9858 -0.9756
12779TIP3    H239220   4.917  10.550   6.868  2.4781 -1.2035  0.3911
12780TIP3   OH239221   0.936   1.483   0.990  0.3076 -0.6202 -0.2160
12780TIP3    H139222   0.869   1.414   0.993 -0.4654  0.1609  1.6235
12780TIP3    H239223   0.991   1.459   0.915 -0.6957 -2.5147 -0.4118
12781TIP3   OH239224   7.926   3.409   8.322  0.2614 -0.3812 -0.2944
12781TIP3    H139225   7.962   3.488   8.282 -0.1856 -0.1006 -0.1462
12781TIP3    H239226   7.920   3.431   8.415 -1.3073 -0.0312 -0.4614
12782TIP3   OH239227  10.791  10.843   9.421 -0.2628 -0.1319 -0.0718
12782TIP3    H139228  10.798  10.792   9.340 -0.6137  1.2279 -1.0090
12782TIP3    H239229  10.726  10.796   9.473 -0.9481 -0.3880 -1.1194
12783TIP3   OH239230   8.269   3.760   3.267 -0.2376  0.3829  0.4440
12783TIP3    H139231   8.263   3.759   3.172 -0.5988 -0.5548  0.4575
12783TIP3    H239232   8.241   3.672   3.293 -0.6393  0.7919  1.4448
12784TIP3   OH239233   3.820   6.971   8.721 -0.5254 -0.1705  0.3912
12784TIP3    H139234   3.868   6.981   8.639  0.6753 -0.1067  1.0712
12784TIP3    H239235   3.830   7.056   8.765 -2.4998  0.3413 -0.0606
12785TIP3   OH239236  10.706   9.785   2.215 -0.4403  0.3411 -0.2617
12785TIP3    H139237  10.712   9.774   2.310 -0.0259 -0.4036 -0.3671
12785TIP3    H239238  10.693   9.696   2.181  1.7887  0.2834 -1.0813
12786TIP3   OH239239   0.064   7.552   4.627 -0.0858  0.1342  0.2577
12786TIP3    H139240  -0.022   7.531   4.662  0.0364  1.2713  1.2955
12786TIP3    H239241   0.124   7.540   4.701  0.3117  1.6008  0.2110
12787TIP3   OH239242   0.130   4.138   7.704 -0.3446 -0.6219  0.3684
12787TIP3    H139243   0.095   4.195   7.636  0.6358  0.7526  0.9855
12787TIP3    H239244   0.125   4.190   7.784  3.2174 -0.2302  0.4854
12788TIP3   OH239245   5.919   2.261   0.198  0.6602 -0.1560 -0.1506
12788TIP3    H139246   5.835   2.306   0.197  1.0242  0.5441 -0.0590
12788TIP3    H239247   5.909   2.190   0.135  0.1971  0.3064 -0.6107
12789TIP3   OH239248   7.926   4.002   8.201 -0.0858  0.3008  0.3998
12789TIP3    H139249   8.007   3.975   8.242 -0.4257 -0.2788  0.6900
12789TIP3    H239250   7.857   3.955   8.248 -0.7012  1.6962  0.9623
12790TIP3   OH239251   1.710   7.235   7.123 -0.4970  0.2019 -0.7235
12790TIP3    H139252   1.637   7.267   7.175  0.1670  3.9863 -1.8382
12790TIP3    H239253   1.779   7.216   7.187 -0.6726  1.9131  0.0284
12791TIP3   OH239254   2.493   8.358   0.916  0.2747 -0.5353  0.2671
12791TIP3    H139255   2.406   8.392   0.934  0.7837  2.0067 -1.5365
12791TIP3    H239256   2.553   8.420   0.957  1.2611 -0.7185 -0.8343
12792TIP3   OH239257  10.782   3.212   1.139 -0.6528 -0.1669  0.5419
12792TIP3    H139258  10.857   3.265   1.109 -1.6294  1.2577  0.4987
12792TIP3    H239259  10.819   3.126   1.157  0.3820 -0.5539 -2.7861
12793TIP3   OH239260   7.305   9.778   1.328 -0.3461 -0.3875  0.0164
12793TIP3    H139261   7.359   9.818   1.395 -0.8695  1.0327 -0.3816
12793TIP3    H239262   7.238   9.729   1.377  0.2214 -0.6854  0.5071
12794TIP3   OH239263   9.696   7.858   3.189  0.2444 -0.4840 -0.6681
12794TIP3    H139264   9.635   7.867   3.116  0.5833  0.9345 -0.8039
12794TIP3    H239265   9.656   7.907   3.260  0.7554 -0.3854 -0.4467
12795TIP3   OH239266   3.505   1.359   1.807  0.4207 -0.0340 -0.2397
12795TIP3    H139267   3.566   1.355   1.734  0.3731 -0.3165 -0.2627
12795TIP3    H239268   3.561   1.359   1.885  0.4467 -0.3727 -0.2587
12796TIP3   OH239269   0.052   4.884   5.942  0.0078 -0.6722 -0.3885
12796TIP3    H139270  -0.017   4.825   5.914  0.2406 -0.2089 -2.0433
12796TIP3    H239271   0.125   4.867   5.882  1.1998 -0.8481  1.0375
12797TIP3   OH239272   5.026   9.558   4.072 -0.7147 -0.1148  0.0843
12797TIP3    H139273   5.066   9.472   4.081 -0.3544  0.2038  1.6499
12797TIP3    H239274   5.016   9.591   4.161 -2.1777  0.8691 -0.3926
12798TIP3   OH239275  10.220   8.015   3.010 -0.3942  0.0486  1.0786
12798TIP3    H139276  10.198   8.000   3.103  0.7289 -1.3728  1.1548
12798TIP3    H239277  10.178   7.942   2.964 -0.1553  0.2159  0.5919
12799TIP3   OH239278   5.398  10.133  10.481  0.0036  0.3390  0.2346
12799TIP3    H139279   5.374  10.042  10.503 -0.2423  0.0962 -0.9173
12799TIP3    H239280   5.319  10.168  10.440  0.9681  0.1218 -1.9733
12800TIP3   OH239281   9.460   4.051  10.035 -0.0313  0.2809 -0.7235
12800TIP3    H139282   9.471   4.002  10.116 -0.2038  0.8526 -0.3530
12800TIP3    H239283   9.484   4.141  10.058  1.4578  0.1684 -1.6822
12801TIP3   OH239284   7.314   5.934   0.925 -0.5026  0.0213  0.0937
12801TIP3    H139285   7.272   5.848   0.930  0.6189 -1.0969 -4.5974
12801TIP3    H239286   7.405   5.914   0.903  0.3415  2.4502  1.0396
12802TIP3   OH239287   9.126   3.060   1.870  1.0724 -0.0642  0.2996
12802TIP3    H139288   9.219   3.038   1.880  0.9913 -0.9458 -0.7189
12802TIP3    H239289   9.108   3.049   1.777 -0.1965 -0.5044  0.5696
12803TIP3   OH239290   8.099   3.147   9.943 -0.2217 -0.0454 -0.2092
12803TIP3    H139291   8.155   3.105  10.008  2.4974 -0.0360 -2.3457
12803TIP3    H239292   8.080   3.077   9.880 -1.0265  0.4216 -0.4897
12804TIP3   OH239293   0.275   1.466   7.584 -0.2289  0.0803  0.3469
12804TIP3    H139294   0.310   1.525   7.516 -0.4057 -0.2261 -0.0167
12804TIP3    H239295   0.329   1.483   7.661  1.0958 -0.7712 -0.3538
12805TIP3   OH239296   9.111  10.111   4.824 -0.8736  0.0547  0.1425
12805TIP3    H139297   9.165  10.157   4.760  0.0345  1.7934  2.0411
12805TIP3    H239298   9.025  10.153   4.817  0.0141  2.4578  2.0573
12806TIP3   OH239299   8.763   9.738   8.331  0.0357  0.2787 -0.0592
12806TIP3    H139300   8.857   9.721   8.324 -0.0465  0.1432 -1.0578
12806TIP3    H239301   8.755   9.798   8.405  1.0662  1.5001 -0.8884
12807TIP3   OH239302   5.241   7.719   6.656 -0.0109 -0.3805 -0.0117
12807TIP3    H139303   5.216   7.650   6.718  1.4526  0.0694  1.1434
12807TIP3    H239304   5.337   7.714   6.653  0.6763  4.3278  3.5293
12808TIP3   OH239305   1.621   8.124   9.097  0.4734 -0.4173  0.0536
12808TIP3    H139306   1.529   8.128   9.072  0.4862 -0.5930 -0.0273
12808TIP3    H239307   1.662   8.200   9.055  0.2638 -0.0377  0.5260
12809TIP3   OH239308   5.492   8.622   0.359  0.8947  0.0078  0.2658
12809TIP3    H139309   5.468   8.592   0.271 -1.1911  1.6569  0.1723
12809TIP3    H239310   5.521   8.712   0.346  2.3776 -0.3265  1.0865
12810TIP3   OH239311   2.775   3.627   2.193  0.3620  0.4399  0.4263
12810TIP3    H139312   2.728   3.698   2.236  1.2354  1.4993 -0.3229
12810TIP3    H239313   2.755   3.550   2.246  2.0384  1.8026  3.2561
12811TIP3   OH239314   2.956   7.552   5.967 -0.2536  0.6062  0.1510
12811TIP3    H139315   2.952   7.524   6.058 -0.5554  0.2216  0.0226
12811TIP3    H239316   3.041   7.521   5.936 -0.1760  0.6853  0.2849
12812TIP3   OH239317   2.776   5.492   9.440 -0.3833 -0.0846  0.6041
12812TIP3    H139318   2.799   5.458   9.527  0.0666 -0.1724  0.4524
12812TIP3    H239319   2.823   5.435   9.379 -2.9962 -1.9126  0.1629
12813TIP3   OH239320   5.033   5.729  10.777  0.0713  0.1497  0.4134
12813TIP3    H139321   4.967   5.716  10.710  2.3260  0.7770 -2.0942
12813TIP3    H239322   5.046   5.824  10.781  1.3202  0.0032  0.2779
12814TIP3   OH239323  10.256   4.358  10.044  0.2661 -0.5496 -0.0366
12814TIP3    H139324  10.220   4.352  10.133 -1.2318  1.1866 -0.4610
12814TIP3    H239325  10.265   4.267  10.016 -0.8225 -1.1064  1.2900
12815TIP3   OH239326   7.606   1.499   4.151 -0.4147  0.3777  0.1955
12815TIP3    H139327   7.688   1.499   4.200 -1.6204  0.2007  2.3718
12815TIP3    H239328   7.573   1.409   4.161 -1.1622  0.6130 -0.1038
12816TIP3   OH239329   6.862   3.381   1.244  0.4267 -0.3404 -0.8954
12816TIP3    H139330   6.786   3.438   1.239 -0.1184 -1.0319 -0.7291
12816TIP3    H239331   6.891   3.372   1.153  0.8350  0.6006 -0.8673
12817TIP3   OH239332  10.818   6.475   9.076  0.2512  0.3827 -0.0293
12817TIP3    H139333  10.826   6.379   9.083  0.2619  0.3800 -0.0701
12817TIP3    H239334  10.724   6.491   9.083  0.2303  0.3503 -0.2415
12818TIP3   OH239335   0.247   6.433   2.129  0.0239 -0.1870  0.2527
12818TIP3    H139336   0.152   6.430   2.118 -0.0419 -0.6976  0.9311
12818TIP3    H239337   0.268   6.527   2.132 -0.5508 -0.0740  0.8931
12819TIP3   OH239338   4.747   7.917  10.175  0.1050 -0.3483 -0.1638
12819TIP3    H139339   4.835   7.885  10.157 -0.2542 -0.3258 -2.1373
12819TIP3    H239340   4.757   8.012  10.187  0.4096 -0.4184  0.1308
12820TIP3   OH239341   3.763  10.045   1.859  0.1857 -0.1899  0.6430
12820TIP3    H139342   3.807  10.038   1.774 -0.0498  0.0195  0.5044
12820TIP3    H239343   3.673  10.070   1.838  0.7520  2.5211  1.0780
12821TIP3   OH239344   2.269   1.659   6.300 -0.4138  0.1041 -0.5429
12821TIP3    H139345   2.221   1.576   6.302 -0.2646 -0.0167 -1.6395
12821TIP3    H239346   2.356   1.636   6.269  0.7362  0.1654  2.3258
12822TIP3   OH239347   5.784   6.251   6.367  0.0519  0.0635 -0.5848
12822TIP3    H139348   5.694   6.285   6.368 -0.1348 -0.3620 -1.6522
12822TIP3    H239349   5.839   6.329   6.357 -0.2370  0.2740 -0.5457
12823TIP3   OH239350   8.805   7.747   3.554 -0.1194 -0.1561  0.1476
12823TIP3    H139351   8.832   7.657   3.573 -2.1257 -1.2014 -1.5463
12823TIP3    H239352   8.865   7.776   3.485 -0.0450 -0.5508  0.0434
12824TIP3   OH239353   6.171   3.410   2.333  0.3653 -0.5846  0.1284
12824TIP3    H139354   6.203   3.494   2.300  2.2118 -0.5818  1.7577
12824TIP3    H239355   6.092   3.432   2.382 -0.4432 -0.1388 -1.3223
12825TIP3   OH239356   2.085   3.407   4.082  0.4955  0.8348 -0.6453
12825TIP3    H139357   1.996   3.388   4.111  0.2865  1.2089 -1.0292
12825TIP3    H239358   2.116   3.473   4.144  0.1809  1.3632 -1.0391
12826TIP3   OH239359   6.781   3.333   8.987 -0.1122 -0.2027  0.3388
12826TIP3    H139360   6.761   3.260   8.928 -0.1927  0.1796 -0.1190
12826TIP3    H239361   6.696   3.370   9.011 -0.0730 -0.2594  0.5698
12827TIP3   OH239362   2.181   8.392   2.688  0.3258 -0.3482  0.1541
12827TIP3    H139363   2.110   8.407   2.750 -0.8468 -0.1342 -1.1888
12827TIP3    H239364   2.260   8.389   2.742 -0.4370  1.5025  1.4809
12828TIP3   OH239365   6.910   5.864   1.028  0.2028 -0.4854  0.4023
12828TIP3    H139366   6.825   5.846   1.069  0.0607 -0.7141  0.0123
12828TIP3    H239367   6.969   5.799   1.064 -0.0989 -1.1732 -0.3221
12829TIP3   OH239368   7.958   6.321   6.090  0.3526 -0.8209  0.2164
12829TIP3    H139369   8.020   6.339   6.161  0.8707 -2.4581  0.2299
12829TIP3    H239370   7.957   6.401   6.038  2.9952 -0.9065 -0.1364
12830TIP3   OH239371   4.864   7.487   9.755  0.2054  0.3613 -0.3719
12830TIP3    H139372   4.826   7.557   9.808 -0.8907 -1.1497  0.9492
12830TIP3    H239373   4.958   7.495   9.770  0.0014  0.7507  0.8550
12831TIP3   OH239374   9.426   0.514   7.132 -0.0305  0.0619 -0.1924
12831TIP3    H139375   9.507   0.464   7.127 -1.4006 -2.1734 -2.2236
12831TIP3    H239376   9.454   0.605   7.123  2.2563 -0.6372 -0.9214
12832TIP3   OH239377   0.432   6.941   3.808  0.1906 -0.3391  0.2571
12832TIP3    H139378   0.339   6.961   3.823  0.5965  1.0351  1.1332
12832TIP3    H239379   0.443   6.950   3.714 -0.8286 -1.7890 -0.0323
12833TIP3   OH239380   9.267   5.039   9.316  0.1935 -0.0688  0.0591
12833TIP3    H139381   9.328   4.972   9.348  0.2923 -0.2191 -0.4341
12833TIP3    H239382   9.214   5.062   9.392  0.8570  0.0557  0.4880
12834TIP3   OH239383   0.182   5.338   1.058  0.6011  0.2623 -0.8871
12834TIP3    H139384   0.099   5.312   1.018  1.4453 -2.8774 -0.8239
12834TIP3    H239385   0.246   5.277   1.023  2.2671  0.4776  1.5630
12835TIP3   OH239386   9.026   2.683   3.211  0.5562  0.0096 -0.0190
12835TIP3    H139387   9.033   2.694   3.305  0.1616  0.0317  0.0102
12835TIP3    H239388   8.969   2.607   3.200  1.9556 -1.0385 -0.2276
12836TIP3   OH239389   8.672   8.455   2.207 -0.2370  0.6236 -0.6091
12836TIP3    H139390   8.655   8.533   2.155 -3.2936  1.4669  1.4278
12836TIP3    H239391   8.614   8.388   2.170 -0.4604  0.4638  0.0150
12837TIP3   OH239392   1.585   7.209   1.951 -0.3553  0.6477  0.3274
12837TIP3    H139393   1.504   7.196   2.000 -0.7595  4.0127  0.8159
12837TIP3    H239394   1.654   7.200   2.016 -0.1668 -2.8563 -0.2109
12838TIP3   OH239395   6.727   7.205   8.869  0.1082  0.2325 -0.7410
12838TIP3    H139396   6.749   7.167   8.784  0.3809  1.4241 -1.2262
12838TIP3    H239397   6.769   7.291   8.868  0.4966  0.0905  0.7909
12839TIP3   OH239398   2.132   1.786   7.170 -0.0151  0.4270  0.1591
12839TIP3    H139399   2.067   1.837   7.121  0.1302  0.2610 -0.2118
12839TIP3    H239400   2.199   1.765   7.106 -0.3127 -0.6511  0.1724
12840TIP3   OH239401   5.704   1.832   6.604 -0.3483 -0.4402  0.1171
12840TIP3    H139402   5.638   1.793   6.546 -0.7477  1.1765 -0.5671
12840TIP3    H239403   5.674   1.922   6.619  0.3378 -0.4586  1.9515
12841TIP3   OH239404   5.803   6.762   5.403 -0.3930 -0.5921  0.1271
12841TIP3    H139405   5.813   6.857   5.405 -0.3525 -0.5838  2.1505
12841TIP3    H239406   5.825   6.737   5.314  0.2838  1.2232 -0.2571
12842TIP3   OH239407   6.490   0.403   2.163  0.0155  0.1474  0.4924
12842TIP3    H139408   6.405   0.370   2.134  0.1233  0.7207 -0.5038
12842TIP3    H239409   6.537   0.425   2.083  0.9523  0.2447  1.0424
12843TIP3   OH239410   2.987   9.887   3.450 -0.3924 -0.6235 -0.0765
12843TIP3    H139411   2.930   9.963   3.444 -0.7179 -0.9260 -1.1236
12843TIP3    H239412   3.041   9.903   3.527 -1.7560 -0.2410  0.8386
12844TIP3   OH239413  10.265   1.728   8.372 -0.2392  0.4769  0.1708
12844TIP3    H139414  10.198   1.688   8.315 -0.3389  0.3776  0.3574
12844TIP3    H239415  10.270   1.670   8.447 -0.0248  0.5492  0.2116
12845TIP3   OH239416  10.744   1.596   3.461 -0.1728  0.5111 -0.1190
12845TIP3    H139417  10.748   1.612   3.556  2.0958  2.0349 -0.3990
12845TIP3    H239418  10.753   1.683   3.422 -2.0941  0.0447 -1.7953
12846TIP3   OH239419   7.722   7.244   8.651  0.4980  0.4531 -0.1015
12846TIP3    H139420   7.727   7.275   8.561  2.2761 -1.1370 -0.6203
12846TIP3    H239421   7.799   7.281   8.694  1.5461 -1.5057 -0.2024
12847TIP3   OH239422  10.588   6.503   5.585  0.7205 -0.8771  0.2213
12847TIP3    H139423  10.512   6.547   5.547  1.6409  1.5054  0.9933
12847TIP3    H239424  10.571   6.410   5.571 -2.1540 -0.4060  0.0651
12848TIP3   OH239425   5.644   3.503   5.930  0.3768 -0.6559  0.1185
12848TIP3    H139426   5.700   3.439   5.886  0.2500 -0.4107 -0.4070
12848TIP3    H239427   5.670   3.499   6.021  1.2464 -0.5525 -0.1219
12849TIP3   OH239428   7.119   2.797   9.489  0.2416 -0.2934  0.0774
12849TIP3    H139429   7.212   2.799   9.469  0.1678 -1.0648 -0.3802
12849TIP3    H239430   7.076   2.782   9.405 -0.1620 -2.0159  0.5397
12850TIP3   OH239431   8.037   0.249  10.569 -0.2385  0.2854  0.1203
12850TIP3    H139432   8.117   0.203  10.544 -1.3855 -1.3287 -0.7309
12850TIP3    H239433   7.966   0.199  10.529 -1.7226  1.4320  1.1763
12851TIP3   OH239434   0.893   1.000  10.842  0.2501 -0.0396 -0.2391
12851TIP3    H139435   0.860   0.952  10.919  1.9738  1.5162  1.5832
12851TIP3    H239436   0.873   1.092  10.862 -2.0048  0.2209 -3.1370
12852TIP3   OH239437   8.651   3.411   9.902 -0.2470  0.2356  0.0323
12852TIP3    H139438   8.586   3.433   9.968  0.1802 -0.3336  0.6578
12852TIP3    H239439   8.608   3.427   9.818 -1.3161 -0.5049  0.4275
12853TIP3   OH239440   4.022   8.660   2.995 -0.1350  0.9894  0.0899
12853TIP3    H139441   3.935   8.681   2.963 -0.6039 -1.3429 -0.3850
12853TIP3    H239442   4.015   8.662   3.090 -0.7163  0.8490  0.0511
12854TIP3   OH239443   8.674   5.922   5.138 -1.0829  0.4658 -0.8474
12854TIP3    H139444   8.654   5.880   5.222 -4.6682  1.3138 -1.0993
12854TIP3    H239445   8.632   5.867   5.072 -0.9319  1.3919 -1.7540
12855TIP3   OH239446   6.490   8.524   1.793 -0.2303 -0.2136  0.4470
12855TIP3    H139447   6.495   8.444   1.741  1.4801 -0.1536  0.4809
12855TIP3    H239448   6.566   8.521   1.850  1.3375  2.5916 -1.2836
12856TIP3   OH239449   2.804   3.301   1.630 -0.0473  0.6040 -0.5704
12856TIP3    H139450   2.889   3.344   1.620  0.5850  1.1520  4.4731
12856TIP3    H239451   2.741   3.373   1.623  0.0004  0.5258 -2.2664
12857TIP3   OH239452   6.141   8.273   1.801 -0.0990 -0.0733 -0.2377
12857TIP3    H139453   6.165   8.363   1.782 -1.1921  0.3965  0.5153
12857TIP3    H239454   6.217   8.237   1.846  1.0670 -0.1073 -2.1352
12858TIP3   OH239455   3.549   6.976   8.779  0.1436 -0.0256  0.2540
12858TIP3    H139456   3.632   6.962   8.733  0.1786 -2.3867  0.9317
12858TIP3    H239457   3.573   6.975   8.872 -0.8713 -3.2107  0.5706
12859TIP3   OH239458   7.354   5.045   4.553  0.0690 -0.0316 -0.0981
12859TIP3    H139459   7.301   5.120   4.580 -1.0077 -0.3715 -1.1473
12859TIP3    H239460   7.439   5.060   4.593 -0.9015  0.3573  1.9642
12860TIP3   OH239461   9.298   4.889   8.825 -0.5814  0.3274 -0.7953
12860TIP3    H139462   9.272   4.956   8.888 -0.7155  0.7418 -1.2854
12860TIP3    H239463   9.371   4.927   8.777  0.3154 -0.4580 -0.0844
12861TIP3   OH239464   3.382  10.134   8.643 -0.0675  0.0225  0.2893
12861TIP3    H139465   3.349  10.130   8.732 -0.5207 -1.0275  0.0969
12861TIP3    H239466   3.438  10.057   8.635  0.1629  0.2410 -0.2579
12862TIP3   OH239467   5.740   7.425   4.705 -0.6177  0.4793  0.0055
12862TIP3    H139468   5.701   7.454   4.622  0.0871 -0.4161 -0.6597
12862TIP3    H239469   5.667   7.388   4.754 -0.6235 -1.3393 -1.2907
12863TIP3   OH239470   3.708   2.313   2.251  0.5930  0.5601  0.6019
12863TIP3    H139471   3.735   2.399   2.219 -0.2774  1.6599  2.6147
12863TIP3    H239472   3.621   2.300   2.212  1.2569 -0.0324 -0.7331
12864TIP3   OH239473   8.868   2.051   6.975 -0.5804 -0.3882  0.1848
12864TIP3    H139474   8.941   2.102   7.010  0.2230 -0.7974 -0.8899
12864TIP3    H239475   8.800   2.058   7.043 -0.0707  1.1442  0.5765
12865TIP3   OH239476  10.878   5.938   7.393  0.2823  0.5868 -0.1697
12865TIP3    H139477  10.886   6.026   7.430  2.2296  0.0350  0.7978
12865TIP3    H239478  10.908   5.879   7.462 -0.0328 -0.7779 -1.1587
12866TIP3   OH239479   4.903  10.897   7.687 -0.0568 -0.1672 -0.3661
12866TIP3    H139480   4.893  10.855   7.773  0.4368 -0.4286 -0.4346
12866TIP3    H239481   4.841  10.970   7.689  0.8365  0.5982  0.7010
12867TIP3   OH239482   1.054  10.582   7.985 -0.1953 -0.0212  0.3423
12867TIP3    H139483   1.011  10.512   8.033 -1.0403  0.6559  0.6011
12867TIP3    H239484   0.983  10.640   7.957  0.1575 -0.7072 -2.3001
12868TIP3   OH239485   7.978   9.140   3.847  0.0886  0.3051  0.1479
12868TIP3    H139486   7.921   9.175   3.915 -0.5188 -1.8142  0.8100
12868TIP3    H239487   7.992   9.049   3.872 -0.1385 -0.5576 -2.5715
12869TIP3   OH239488   4.112   5.134   6.025  0.9031 -0.1788  0.2295
12869TIP3    H139489   4.172   5.199   6.061 -0.9040  0.4783  2.2115
12869TIP3    H239490   4.026   5.177   6.025  0.0546 -1.7627 -0.6265
12870TIP3   OH239491   0.979   7.337   5.715 -0.0680 -0.0585 -0.0334
12870TIP3    H139492   0.943   7.295   5.637 -0.1877 -0.1458  0.0670
12870TIP3    H239493   1.027   7.413   5.682 -3.0589  2.0168  0.0106
12871TIP3   OH239494   6.203   0.263   3.170  0.0339 -0.6137  0.6084
12871TIP3    H139495   6.156   0.196   3.221 -0.8072 -2.5590 -2.4708
12871TIP3    H239496   6.287   0.223   3.150  1.0444  0.8134  1.7634
12872TIP3   OH239497  10.412  10.509   7.495  0.2672 -0.3542 -0.7841
12872TIP3    H139498  10.425  10.415   7.488 -2.7277 -1.2048  2.2915
12872TIP3    H239499  10.481  10.538   7.555  0.7776 -0.6922 -1.1984
12873TIP3   OH239500   2.512   7.178   5.217  0.4259 -0.0204  0.2769
12873TIP3    H139501   2.512   7.191   5.312  0.6490 -0.6716  0.3677
12873TIP3    H239502   2.449   7.107   5.202 -0.8585  1.1794 -0.2265
12874TIP3   OH239503   9.909   1.896   9.746 -0.0610  0.2274 -0.0365
12874TIP3    H139504   9.930   1.805   9.764 -0.2822 -0.0085 -0.8935
12874TIP3    H239505   9.939   1.944   9.823  0.3743 -0.5236  0.2706
12875TIP3   OH239506   3.085   9.718   7.895 -0.1232 -0.1069 -0.1382
12875TIP3    H139507   3.115   9.643   7.946  0.7953  0.0479 -0.4315
12875TIP3    H239508   3.130   9.793   7.933 -0.1544  0.1384 -0.5801
12876TIP3   OH239509   8.787   0.917   3.815  0.3174  0.1730 -0.3710
12876TIP3    H139510   8.765   0.824   3.817 -0.3200  0.3075 -0.8295
12876TIP3    H239511   8.750   0.949   3.733 -1.0681  1.2139  0.6178
12877TIP3   OH239512   9.002   2.294   4.183 -0.0763  0.1571  0.6164
12877TIP3    H139513   8.999   2.229   4.254 -1.8549  1.0229  1.3892
12877TIP3    H239514   8.977   2.245   4.105  0.9758 -0.5991  0.7288
12878TIP3   OH239515   7.466   6.712   4.733 -0.9700  0.4499 -0.6168
12878TIP3    H139516   7.403   6.749   4.670 -0.2014  1.4000 -0.8663
12878TIP3    H239517   7.550   6.748   4.705 -0.3092 -0.8103 -0.2971
12879TIP3   OH239518   1.202   9.361   9.075  0.3543  0.4010 -0.4577
12879TIP3    H139519   1.112   9.380   9.101  0.6163  1.1492 -0.0470
12879TIP3    H239520   1.239   9.316   9.151  0.3074  0.0092 -0.6626
12880TIP3   OH239521   0.516   8.116  10.786 -0.2091  0.4223  0.6617
12880TIP3    H139522   0.504   8.182  10.719  0.5020 -0.5345 -0.4435
12880TIP3    H239523   0.551   8.040  10.739  0.9238 -0.0605  2.2110
12881TIP3   OH239524   4.911   4.338   1.934  0.2792  0.2045  0.3473
12881TIP3    H139525   4.873   4.421   1.904  2.2861  0.4920 -1.6598
12881TIP3    H239526   4.837   4.291   1.974 -1.6374  1.6661 -1.2576
12882TIP3   OH239527  10.117   8.839   3.385 -0.2142 -0.4393 -0.7682
12882TIP3    H139528  10.135   8.917   3.437 -1.1568  0.6266 -1.9737
12882TIP3    H239529  10.181   8.775   3.416  0.0978  0.5536  0.7740
12883TIP3   OH239530   4.557   0.186   5.404  0.3086  0.5272  0.7335
12883TIP3    H139531   4.627   0.128   5.432  1.0012  0.9660 -0.0323
12883TIP3    H239532   4.556   0.178   5.309 -1.6401 -0.5438  0.7980
12884TIP3   OH239533   0.956   3.832   6.927 -0.5324 -0.3032 -0.6309
12884TIP3    H139534   0.955   3.924   6.954 -1.6621 -0.4082 -0.2414
12884TIP3    H239535   1.019   3.828   6.855  1.8531  0.2015  1.2874
12885TIP3   OH239536   7.574   8.862   9.181  0.2761  0.7743 -0.1743
12885TIP3    H139537   7.513   8.931   9.156  0.3102  0.4835 -1.0963
12885TIP3    H239538   7.528   8.781   9.161  0.2692  0.5230  0.8239
12886TIP3   OH239539   6.480   9.861   6.841  0.5165 -0.3640  0.3312
12886TIP3    H139540   6.539   9.920   6.888  2.0702 -1.2821 -0.3937
12886TIP3    H239541   6.431   9.918   6.781  1.4737  0.2927  0.1535
12887TIP3   OH239542   8.526   4.606   1.985 -0.0573  0.0546 -0.2693
12887TIP3    H139543   8.504   4.533   1.926 -0.8956 -0.0866  0.2062
12887TIP3    H239544   8.590   4.569   2.045  0.6076  0.1241 -0.9200
12888TIP3   OH239545   3.160   1.355   0.250  0.1331  0.2274 -0.1382
12888TIP3    H139546   3.158   1.388   0.340  1.2646 -1.2893  0.4841
12888TIP3    H239547   3.092   1.405   0.205  1.4219  3.0868  0.8191
12889TIP3   OH239548  10.247   7.735   4.867 -0.4156  0.3063 -0.0818
12889TIP3    H139549  10.170   7.691   4.902 -0.8762 -0.3655 -1.7907
12889TIP3    H239550  10.293   7.667   4.818  0.7550  0.9232  0.1274
12890TIP3   OH239551  10.638   6.724   7.445  0.3949  0.5717 -0.1401
12890TIP3    H139552  10.670   6.726   7.355 -2.3618  2.8396 -1.2348
12890TIP3    H239553  10.568   6.659   7.444 -0.1591  1.1490  0.1198
12891TIP3   OH239554   7.522   8.076   4.851 -0.1303  0.3100 -0.0487
12891TIP3    H139555   7.435   8.079   4.810  0.0762  2.2704 -0.4512
12891TIP3    H239556   7.581   8.109   4.784  0.5655  1.3186  1.0150
12892TIP3   OH239557   8.496   3.736   4.911 -0.3377 -0.3652  0.6401
12892TIP3    H139558   8.512   3.830   4.917 -0.9443 -0.2207  0.1124
12892TIP3    H239559   8.473   3.721   4.819  0.4385 -1.1461  0.5607
12893TIP3   OH239560   8.851   6.817   5.008  0.1660  0.0372  0.1959
12893TIP3    H139561   8.797   6.830   5.086 -0.4316 -0.2642 -0.1602
12893TIP3    H239562   8.863   6.904   4.972 -1.1987 -0.0147 -0.4461
12894TIP3   OH239563   1.004   8.023   1.001  0.0879 -0.2698 -0.2570
12894TIP3    H139564   0.929   8.000   0.945  0.7025  0.9111 -1.6335
12894TIP3    H239565   1.003   8.119   1.003  2.2959 -0.1703 -1.3781
12895TIP3   OH239566  10.123   2.795   0.633  0.4225  0.3403  0.5742
12895TIP3    H139567  10.216   2.816   0.632  0.2218  1.4861  1.9015
12895TIP3    H239568  10.107   2.758   0.720 -0.6175  1.6717  1.0031
12896TIP3   OH239569   4.003   0.693   5.992 -0.1911  0.2504 -0.4892
12896TIP3    H139570   4.098   0.685   6.004 -0.2680 -0.7678 -0.4644
12896TIP3    H239571   3.970   0.721   6.077  0.0799  0.5371 -0.4789
12897TIP3   OH239572   9.985   7.474   7.319  0.0996 -0.3052 -0.6209
12897TIP3    H139573   9.932   7.395   7.324  0.2951 -0.4164 -0.3152
12897TIP3    H239574   9.956   7.517   7.238  0.1889 -0.8242 -0.9329
12898TIP3   OH239575   8.226   0.917   4.085  0.3557 -0.4747  0.2953
12898TIP3    H139576   8.299   0.865   4.121  0.8726 -0.6257 -0.9096
12898TIP3    H239577   8.179   0.856   4.028  0.2206  0.0431 -0.1572
12899TIP3   OH239578   9.634   1.563   9.255 -0.1458  0.4607  0.1104
12899TIP3    H139579   9.586   1.482   9.273 -1.1175  1.2619  1.2526
12899TIP3    H239580   9.595   1.596   9.174  0.2144 -0.1665 -0.3303
12900TIP3   OH239581   4.170   8.482   9.227 -0.4647  0.1898  0.1976
12900TIP3    H139582   4.173   8.571   9.260  1.3576  0.2206  0.0241
12900TIP3    H239583   4.234   8.434   9.280 -1.1000 -0.9219  0.0012
12901TIP3   OH239584   5.371   9.014   5.630 -0.3935  0.0584  0.3876
12901TIP3    H139585   5.289   8.986   5.673  0.8088 -0.5805  2.4058
12901TIP3    H239586   5.423   8.935   5.625  0.8082  0.7972  0.8322
12902TIP3   OH239587   5.658   6.946  10.137 -0.1609  0.4621 -0.5466
12902TIP3    H139588   5.716   6.870  10.134  0.9372  1.3162 -2.2039
12902TIP3    H239589   5.580   6.919  10.088  0.7035  0.7372 -2.1403
12903TIP3   OH239590   4.345  10.703   9.611  0.2455 -0.2946 -0.1965
12903TIP3    H139591   4.332  10.797   9.597  1.7938 -0.1797 -1.0226
12903TIP3    H239592   4.279  10.661   9.555 -1.0354  0.2647  0.8246
12904TIP3   OH239593   5.083   7.314   4.389  0.0870 -0.4457  0.1820
12904TIP3    H139594   5.082   7.405   4.356  2.1289 -0.3586  0.2407
12904TIP3    H239595   5.094   7.261   4.310 -0.2339 -0.5800  0.2293
12905TIP3   OH239596   8.706   0.201   7.150 -0.3652 -0.3878 -0.5133
12905TIP3    H139597   8.611   0.196   7.140 -0.4840 -0.0055  0.3532
12905TIP3    H239598   8.724   0.165   7.237  0.3105 -0.6743 -0.7607
12906TIP3   OH239599   9.288   8.782  10.104 -0.5525  0.5836  0.1510
12906TIP3    H139600   9.382   8.767  10.110 -0.7530 -0.7664  0.0945
12906TIP3    H239601   9.280   8.874  10.077  0.7633  0.3332 -1.1784
12907TIP3   OH239602   6.172   8.801   7.908 -0.3992  0.7113  0.0290
12907TIP3    H139603   6.263   8.771   7.911 -1.1866 -1.8918  0.7241
12907TIP3    H239604   6.157   8.823   7.816  1.0605  1.7739 -0.0020
12908TIP3   OH239605   8.612   3.680   7.242 -0.3872  0.3048  0.1150
12908TIP3    H139606   8.697   3.678   7.287 -0.3165 -0.8295 -0.0416
12908TIP3    H239607   8.555   3.731   7.299  0.1690  0.3400  0.6405
12909TIP3   OH239608   2.166   8.333   5.084 -0.2738  0.3883 -0.2162
12909TIP3    H139609   2.215   8.415   5.074  0.1664  0.1604  0.0377
12909TIP3    H239610   2.193   8.300   5.169 -0.6297  0.0960 -0.2175
12910TIP3   OH239611   7.809   5.895   0.176 -0.2674  0.0439  0.0853
12910TIP3    H139612   7.819   5.808   0.214 -0.2785  0.2329  0.5189
12910TIP3    H239613   7.894   5.937   0.189 -0.4072  0.2641  0.3005
12911TIP3   OH239614  10.171   3.704   9.907 -0.1916  0.3048 -0.3945
12911TIP3    H139615  10.194   3.639   9.973 -0.3959  0.5378 -0.0891
12911TIP3    H239616  10.077   3.719   9.919 -0.3324 -0.0187 -1.0712
12912TIP3   OH239617   7.060   9.375   1.977 -0.2677  0.1452 -0.7218
12912TIP3    H139618   6.980   9.380   2.030  0.5912  0.0851  0.6313
12912TIP3    H239619   7.071   9.464   1.943 -0.7573  0.2220 -0.6917
12913TIP3   OH239620   2.028   7.715   6.025  0.0070  0.2295  0.2068
12913TIP3    H139621   2.097   7.770   6.061  0.9204 -0.0042 -1.1023
12913TIP3    H239622   2.059   7.693   5.937 -2.0735  0.7393 -0.7162
12914TIP3   OH239623   1.679   6.211   5.120 -0.4097 -0.1876 -0.3012
12914TIP3    H139624   1.636   6.134   5.157  0.2144 -0.9263 -1.1043
12914TIP3    H239625   1.611   6.279   5.123  0.2353  0.6420  4.5804
12915TIP3   OH239626   0.032   2.827   5.262 -0.0414  0.0981  0.5879
12915TIP3    H139627  -0.049   2.779   5.277  0.6178 -1.0991  0.4777
12915TIP3    H239628   0.094   2.760   5.231  0.7868  1.1035 -0.0171
12916TIP3   OH239629   2.287   9.463   4.748 -1.3148  0.0842 -0.4404
12916TIP3    H139630   2.217   9.429   4.804 -0.1178 -0.2648  0.8951
12916TIP3    H239631   2.278   9.413   4.666 -2.8729  0.3531 -0.4724
12917TIP3   OH239632   9.565   9.995   7.363  0.0155  0.3590 -0.3407
12917TIP3    H139633   9.555  10.079   7.318  1.8704  0.8895  0.1425
12917TIP3    H239634   9.525  10.008   7.448  2.8805  1.8731  0.9295
12918TIP3   OH239635   0.897   0.765   8.954  0.5005  0.4194 -0.3094
12918TIP3    H139636   0.967   0.705   8.977 -0.6533  0.0662  2.6364
12918TIP3    H239637   0.930   0.851   8.980  0.5329  0.4996 -0.6143
12919TIP3   OH239638  10.815   7.101   2.632 -0.4174  0.7258 -0.2665
12919TIP3    H139639  10.762   7.170   2.592 -0.7181  0.6521  0.0016
12919TIP3    H239640  10.773   7.085   2.717 -2.1583 -1.8250 -1.4775
12920TIP3   OH239641   8.686   5.676   3.150  0.2214 -0.0659 -0.7480
12920TIP3    H139642   8.649   5.670   3.238  2.0313  0.8166  0.1283
12920TIP3    H239643   8.612   5.702   3.094 -1.1102 -1.3188  0.3505
12921TIP3   OH239644   8.040   6.551   2.265  0.1559  0.7942  0.0661
12921TIP3    H139645   8.053   6.521   2.175 -0.1693  1.3618 -0.1755
12921TIP3    H239646   7.964   6.609   2.260  2.6245  4.3223 -0.1387
12922TIP3   OH239647   3.992   0.672   9.245 -0.6535 -0.0499 -0.6841
12922TIP3    H139648   4.017   0.703   9.158  0.3917  0.5943 -0.1794
12922TIP3    H239649   4.021   0.741   9.305 -1.4939 -0.4081  0.1707
12923TIP3   OH239650   4.748   5.995   0.069  0.0309 -0.5897 -0.0064
12923TIP3    H139651   4.793   6.077   0.091  0.7255 -1.2581  1.2070
12923TIP3    H239652   4.688   5.981   0.142 -0.4157 -0.9343 -0.4389
12924TIP3   OH239653  10.489   0.610   1.138  0.0988 -0.1511  0.9754
12924TIP3    H139654  10.482   0.582   1.229  1.5839 -1.4967  0.7079
12924TIP3    H239655  10.517   0.702   1.144  1.3295 -0.5594  1.8935
12925TIP3   OH239656   2.024   0.080  10.776  0.1793  0.4642 -0.3703
12925TIP3    H139657   2.030   0.155  10.716 -0.3167  1.3127  0.6116
12925TIP3    H239658   1.932   0.078  10.802  0.3166 -0.1190  0.0839
12926TIP3   OH239659   1.929   1.042   1.546 -0.2438  0.2831  0.2688
12926TIP3    H139660   1.937   1.019   1.638 -1.2440 -0.3621  0.2115
12926TIP3    H239661   1.835   1.055   1.532 -0.5962 -2.8934 -1.3742
12927TIP3   OH239662   9.469   7.800   8.817  0.4015 -0.2649 -0.0656
12927TIP3    H139663   9.473   7.860   8.742  0.4482 -0.3292 -0.1154
12927TIP3    H239664   9.560   7.774   8.831  0.5805  0.7964  0.8778
12928TIP3   OH239665   0.781   6.297   5.776 -0.6337  0.3464 -0.3443
12928TIP3    H139666   0.803   6.390   5.774  1.9500 -0.1794 -0.0030
12928TIP3    H239667   0.777   6.276   5.869  2.1544 -0.4878 -0.3152
12929TIP3   OH239668   3.707   0.119   6.040  0.1205  0.0876  0.3425
12929TIP3    H139669   3.777   0.064   6.075  0.6016  0.3029 -0.2619
12929TIP3    H239670   3.633   0.104   6.099  0.1737 -1.3552  0.0870
12930TIP3   OH239671   3.270   6.012   9.180 -0.5946 -0.4440  0.2504
12930TIP3    H139672   3.283   6.058   9.263 -0.8327  1.3362 -0.6486
12930TIP3    H239673   3.357   5.976   9.159  1.0782  3.7552 -1.3048
12931TIP3   OH239674  10.250   1.762   2.640  0.5046  0.3439  0.2879
12931TIP3    H139675  10.218   1.680   2.677 -0.1977  0.5092  0.0565
12931TIP3    H239676  10.343   1.747   2.625  0.2011 -0.7417 -0.6561
12932TIP3   OH239677   0.544   9.566   5.632  0.0986  0.4448  0.3389
12932TIP3    H139678   0.633   9.594   5.654  0.2866  0.6217 -0.5926
12932TIP3    H239679   0.488   9.615   5.691  0.5301  1.5677 -0.1594
12933TIP3   OH239680   8.033  10.619   0.989  0.5608 -0.1982  0.2975
12933TIP3    H139681   8.079  10.701   1.003  1.7274 -0.6695 -0.6389
12933TIP3    H239682   8.058  10.592   0.900  1.3674 -2.2875  1.0912
12934TIP3   OH239683   2.919   5.764   4.115 -1.0949 -0.4981  0.2481
12934TIP3    H139684   2.853   5.762   4.184  0.7191  1.0899  2.1514
12934TIP3    H239685   2.990   5.708   4.146 -1.0866 -1.4341 -1.3306
12935TIP3   OH239686   0.343   1.153  10.331  0.4206  0.1286 -0.3770
12935TIP3    H139687   0.310   1.218  10.394 -0.1740 -0.4828 -0.0328
12935TIP3    H239688   0.292   1.074  10.350  0.6326 -0.2336 -1.2578
12936TIP3   OH239689   7.088   3.494   3.885  0.0774  0.3736  0.2027
12936TIP3    H139690   7.040   3.411   3.893 -0.5817  0.8242  1.1371
12936TIP3    H239691   7.145   3.481   3.809 -0.6108 -0.6336 -0.1718
12937TIP3   OH239692   7.095   6.699   0.815 -0.2067 -0.1430 -0.6239
12937TIP3    H139693   7.012   6.669   0.851 -0.4129  0.9467 -0.1431
12937TIP3    H239694   7.097   6.664   0.726 -0.9758 -0.5471 -0.4879
12938TIP3   OH239695  10.507   5.559   1.576  0.1880 -0.3960  0.1220
12938TIP3    H139696  10.443   5.545   1.506  0.9723 -1.2684 -0.4557
12938TIP3    H239697  10.587   5.584   1.529  0.8010 -1.2750  0.6871
12939TIP3   OH239698   2.687   9.527   5.685 -0.3178 -0.0710 -0.2929
12939TIP3    H139699   2.628   9.498   5.616 -0.3285  1.6315 -1.0527
12939TIP3    H239700   2.640   9.598   5.729  0.4289  0.0966  0.2680
12940TIP3   OH239701   7.635   5.725  10.708  0.3283 -0.4966  0.1318
12940TIP3    H139702   7.691   5.782  10.760 -1.0153  0.7711  0.2635
12940TIP3    H239703   7.546   5.756  10.726 -0.4046 -2.1796 -0.3644
12941TIP3   OH239704   6.476   1.492   8.001 -0.0012 -0.4623 -0.0730
12941TIP3    H139705   6.528   1.414   8.020  0.3443 -0.0929  0.5558
12941TIP3    H239706   6.516   1.530   7.923 -0.9605 -1.5899 -1.1492
12942TIP3   OH239707   9.585   5.390   1.208  0.1959  0.2501 -0.0404
12942TIP3    H139708   9.588   5.485   1.197  1.6895  0.4547  1.5563
12942TIP3    H239709   9.621   5.355   1.127  0.2825  1.0844 -0.3668
12943TIP3   OH239710   7.846   0.228  10.272  0.0161  0.0314  0.3797
12943TIP3    H139711   7.794   0.174  10.332 -0.0133 -0.2983  0.0587
12943TIP3    H239712   7.793   0.232  10.192  0.7099 -0.7218 -0.1269
12944TIP3   OH239713   7.574   8.210   0.405  0.1549 -0.0816 -0.3853
12944TIP3    H139714   7.588   8.304   0.411  1.2601 -0.3356  2.2363
12944TIP3    H239715   7.662   8.173   0.401 -0.2021 -1.0796  0.7184
12945TIP3   OH239716   0.349   1.893   3.482 -0.0595 -0.7316  0.2935
12945TIP3    H139717   0.441   1.886   3.458 -0.4260 -0.0124 -1.5510
12945TIP3    H239718   0.346   1.966   3.544  0.3140  1.4932 -2.0930
12946TIP3   OH239719   0.109   5.182   1.600 -0.0713 -0.3492 -0.1283
12946TIP3    H139720   0.074   5.106   1.647  0.4880  0.7505  2.2516
12946TIP3    H239721   0.202   5.162   1.589  0.1767  0.1725  0.9429
12947TIP3   OH239722   6.989   2.469   9.847 -0.6204  0.6849  0.0272
12947TIP3    H139723   6.910   2.456   9.794 -0.8535 -0.3372  0.5980
12947TIP3    H239724   6.982   2.559   9.879 -0.1483  1.5823 -2.1736
12948TIP3   OH239725   3.632   2.317   1.189 -0.1952  0.2815 -0.3235
12948TIP3    H139726   3.631   2.235   1.237  2.0091  0.8913  0.9100
12948TIP3    H239727   3.578   2.300   1.111  0.6454 -2.5044 -0.4134
12949TIP3   OH239728   0.170   1.118   8.742 -0.2577 -0.3176 -0.0405
12949TIP3    H139729   0.195   1.204   8.708  0.0181 -0.4068 -0.0595
12949TIP3    H239730   0.225   1.105   8.819  0.4122 -0.9116 -0.6063
12950TIP3   OH239731   7.192   7.935   7.193  0.1912 -0.7745 -0.6559
12950TIP3    H139732   7.107   7.970   7.219  0.7985  0.6354 -0.4593
12950TIP3    H239733   7.204   7.857   7.247 -1.0661 -1.1418 -0.8688
12951TIP3   OH239734   6.594   1.559   7.736 -0.3671 -0.0311 -0.1434
12951TIP3    H139735   6.628   1.522   7.654 -0.0761  0.4622 -0.2471
12951TIP3    H239736   6.668   1.606   7.774 -0.5156 -0.2083  0.3778
12952TIP3   OH239737   0.513  10.039   8.737 -0.1196  0.5362 -0.0042
12952TIP3    H139738   0.573  10.040   8.663 -0.2660  0.0953 -0.1362
12952TIP3    H239739   0.566  10.009   8.811  0.2783  1.9595  0.3118
12953TIP3   OH239740   9.695   1.688   8.434  0.3302 -0.4968  0.6951
12953TIP3    H139741   9.681   1.597   8.406 -1.8728  0.2351 -0.8547
12953TIP3    H239742   9.635   1.699   8.509 -0.7613  0.1218 -0.2332
12954TIP3   OH239743   6.746   5.784   0.358  0.2273  0.1461  0.0829
12954TIP3    H139744   6.664   5.790   0.407  0.7232  0.5105  0.8901
12954TIP3    H239745   6.720   5.797   0.267 -1.1621 -3.6477 -0.2308
12955TIP3   OH239746   0.308   1.524   6.300  0.1926  0.2827  0.0002
12955TIP3    H139747   0.255   1.587   6.349 -1.9876 -1.7850  0.4924
12955TIP3    H239748   0.346   1.468   6.368  2.9392  1.5284 -0.3615
12956TIP3   OH239749   2.360   5.520   6.135 -0.3955 -0.3915  0.1798
12956TIP3    H139750   2.386   5.538   6.044 -1.5707  2.9462  0.3578
12956TIP3    H239751   2.279   5.471   6.128  1.3751 -3.5168 -0.4182
12957TIP3   OH239752   3.691   5.859   2.676 -0.0298 -0.1270 -0.3833
12957TIP3    H139753   3.682   5.953   2.663  0.2490 -0.1701 -0.9174
12957TIP3    H239754   3.773   5.836   2.632  0.4001 -0.4676  0.5601
12958TIP3   OH239755   6.816   4.061   7.882  0.0984  0.4540 -0.3427
12958TIP3    H139756   6.817   4.075   7.787 -0.0225  0.5977 -0.3230
12958TIP3    H239757   6.724   4.050   7.904 -0.0855  2.3161  0.0271
12959TIP3   OH239758   0.677   8.965   0.935  0.1576  0.5243 -0.4980
12959TIP3    H139759   0.686   8.878   0.972  0.5543  0.3547 -0.9784
12959TIP3    H239760   0.583   8.982   0.934  0.1137  0.3185  0.0836
12960TIP3   OH239761  10.665   3.648   1.613  0.5860  0.6705  0.2006
12960TIP3    H139762  10.588   3.608   1.576  2.6076 -2.2716 -1.2003
12960TIP3    H239763  10.633   3.727   1.658 -3.3753 -1.2559  1.1455
12961TIP3   OH239764   1.494   5.658   4.145  0.4974 -0.4136  0.4019
12961TIP3    H139765   1.498   5.701   4.230  0.5193  0.9197 -0.2582
12961TIP3    H239766   1.510   5.727   4.082  2.2222 -1.6845 -0.6454
12962TIP3   OH239767  10.766   9.954   1.990  0.3885  0.0269 -0.1878
12962TIP3    H139768  10.856   9.935   1.962  0.5581  1.6856 -0.8737
12962TIP3    H239769  10.751   9.894   2.063  2.5411  0.6287  0.8432
12963TIP3   OH239770   0.115   5.793   0.039  0.6937 -0.3205  0.2688
12963TIP3    H139771   0.029   5.794   0.080  0.7393  0.3317  0.3579
12963TIP3    H239772   0.108   5.727  -0.029 -0.2464  0.5164 -0.4856
12964TIP3   OH239773   5.161   0.146   1.414  0.2196 -0.2196  0.0653
12964TIP3    H139774   5.082   0.163   1.466  0.1605 -1.7243  0.5317
12964TIP3    H239775   5.161   0.051   1.403  0.9554 -0.0492 -1.5704
12965TIP3   OH239776   3.620   7.605   8.453 -0.2775  0.0022  0.8349
12965TIP3    H139777   3.541   7.580   8.501 -0.4222  0.3121  0.7583
12965TIP3    H239778   3.651   7.684   8.496 -0.6810  0.5579  0.1173
12966TIP3   OH239779   2.814   1.271   0.490 -0.8080  0.7229  0.7650
12966TIP3    H139780   2.722   1.257   0.466 -0.1971  0.1943 -1.5911
12966TIP3    H239781   2.839   1.192   0.538 -1.2417  0.2350  0.2049
12967TIP3   OH239782   2.563   6.804   8.134 -0.0276 -0.2692  0.5516
12967TIP3    H139783   2.506   6.729   8.121  0.2349 -0.0466 -2.7864
12967TIP3    H239784   2.616   6.808   8.055  1.5431  2.1415  1.5862
12968TIP3   OH239785   6.932   6.162   9.917  0.3487  0.2050  0.5374
12968TIP3    H139786   6.864   6.096   9.912  0.1944  0.3361  0.8395
12968TIP3    H239787   6.926   6.196  10.007  0.2972  0.7576  0.3325
12969TIP3   OH239788   5.877   2.782   6.276 -0.0846  0.1818  0.1404
12969TIP3    H139789   5.848   2.767   6.186 -0.3077  0.3829  0.1756
12969TIP3    H239790   5.903   2.874   6.278  0.0142  0.1519  0.2554
12970TIP3   OH239791   5.410   6.520  10.393  0.5515  0.1941 -0.0794
12970TIP3    H139792   5.410   6.442  10.337  1.2749 -0.8987  1.3945
12970TIP3    H239793   5.317   6.544  10.399  0.3303 -0.4650 -0.6616
12971TIP3   OH239794   8.555   2.056   4.055 -0.3972  0.2318  0.0617
12971TIP3    H139795   8.473   2.039   4.102 -0.6914 -0.1515 -0.5717
12971TIP3    H239796   8.577   1.972   4.014 -1.4216  1.0937 -2.4163
12972TIP3   OH239797   0.499   9.171   3.867  0.0497 -0.6507  0.3014
12972TIP3    H139798   0.485   9.256   3.907  0.5335 -0.2352 -0.3945
12972TIP3    H239799   0.417   9.124   3.881 -1.2965  0.9074 -1.7168
12973TIP3   OH239800   7.959   1.875   8.195 -0.2391  0.2391  0.0129
12973TIP3    H139801   7.881   1.913   8.235  1.2909  3.3101  0.4073
12973TIP3    H239802   8.000   1.825   8.266  0.3626  2.2896  1.1900
12974TIP3   OH239803   1.177   3.675   7.730 -0.5007 -0.0688  0.1963
12974TIP3    H139804   1.231   3.686   7.808 -0.7914  0.5811  0.3203
12974TIP3    H239805   1.091   3.649   7.764 -0.2941 -1.0285  0.0053
12975TIP3   OH239806   0.782   9.574   0.065  0.1024  0.5265 -0.0427
12975TIP3    H139807   0.711   9.511   0.077  0.2330  0.8241  2.7510
12975TIP3    H239808   0.859   9.521   0.043  0.3146 -0.4110  2.6873
12976TIP3   OH239809   4.004   9.514   1.111  0.1282 -0.0873  0.3709
12976TIP3    H139810   3.920   9.535   1.070  0.6244 -2.2024 -2.0018
12976TIP3    H239811   3.983   9.505   1.204 -2.0813  0.3831 -0.0057
12977TIP3   OH239812  10.114   3.835   0.444  0.4153  0.6732 -0.6737
12977TIP3    H139813  10.089   3.926   0.460 -0.0365  0.3679  0.4848
12977TIP3    H239814  10.154   3.807   0.527 -3.2095 -1.4125  0.6069
12978TIP3   OH239815   9.904   9.473  10.879 -0.5556 -0.2151  0.1085
12978TIP3    H139816   9.946   9.558  10.865  0.1246 -0.6662 -0.7203
12978TIP3    H239817   9.820   9.494  10.921 -0.3453  0.8479  0.0307
12979TIP3   OH239818   0.296   5.399   1.342 -0.5252 -0.3077  0.5989
12979TIP3    H139819   0.379   5.438   1.314 -0.0146 -0.5563  1.7124
12979TIP3    H239820   0.250   5.378   1.260  0.3115  0.2351 -0.0247
12980TIP3   OH239821   2.356   8.586   9.176  0.2458 -0.2761 -0.1634
12980TIP3    H139822   2.310   8.586   9.260  0.4010 -0.1528 -0.0786
12980TIP3    H239823   2.439   8.542   9.193  0.9954  1.2015  0.1451
12981TIP3   OH239824   2.154   0.186   1.180  0.4392 -0.5483  0.2064
12981TIP3    H139825   2.147   0.152   1.091 -0.8368 -0.0184  0.0743
12981TIP3    H239826   2.218   0.257   1.175  0.3807 -0.5316 -0.2897
12982TIP3   OH239827   2.968   2.659   9.594 -0.4995  0.4133 -0.0429
12982TIP3    H139828   2.893   2.651   9.535 -1.0254 -1.5519  0.7904
12982TIP3    H239829   3.033   2.600   9.556 -0.2090  0.4312  0.4310
12983TIP3   OH239830   2.759   5.406   0.985 -0.0053 -0.3283  0.2587
12983TIP3    H139831   2.784   5.498   0.996 -0.2798  0.2109 -2.7559
12983TIP3    H239832   2.664   5.408   0.973  0.1038 -0.8671 -0.7944
12984TIP3   OH239833   8.680   9.355   4.375 -0.5635 -0.4935  0.6065
12984TIP3    H139834   8.612   9.417   4.350  0.1629 -0.4039 -1.3403
12984TIP3    H239835   8.712   9.387   4.460 -1.1364  0.9826  0.2906
12985TIP3   OH239836   2.022   1.109   1.279 -0.1528  0.2305 -0.2447
12985TIP3    H139837   2.003   1.116   1.373 -0.4586  1.6048 -0.3949
12985TIP3    H239838   2.070   1.189   1.258 -0.4497  0.1283 -1.3462
12986TIP3   OH239839   1.281   4.569   0.502 -0.1735  0.1055 -0.5818
12986TIP3    H139840   1.250   4.612   0.422  0.0254 -1.8352 -1.7636
12986TIP3    H239841   1.372   4.595   0.510 -0.4705  1.1184 -0.4033
12987TIP3   OH239842   2.741   3.016   9.554 -0.4563  0.0387  0.4262
12987TIP3    H139843   2.783   3.102   9.548 -0.2656 -0.1631 -2.1430
12987TIP3    H239844   2.663   3.030   9.608 -2.3620  2.7140 -2.6691
12988TIP3   OH239845   9.534   6.361  10.145  0.2699 -0.3023 -0.2036
12988TIP3    H139846   9.630   6.362  10.155  0.3356 -1.9528 -0.3601
12988TIP3    H239847   9.514   6.271  10.119 -1.3364  0.0268 -0.1860
12989TIP3   OH239848   5.469   5.875   1.476  0.1909  0.1048  0.3137
12989TIP3    H139849   5.542   5.921   1.434  0.7492 -1.8081 -0.9809
12989TIP3    H239850   5.399   5.939   1.478  1.7930  1.9509  1.4148
12990TIP3   OH239851   3.001   2.825   2.744  0.2718  0.0465 -0.2962
12990TIP3    H139852   3.049   2.887   2.689  2.1735 -0.7844  0.3467
12990TIP3    H239853   2.943   2.779   2.683  1.3108  0.1310 -1.3862
12991TIP3   OH239854   5.770   2.890   2.017  0.1942  0.6062 -0.0975
12991TIP3    H139855   5.739   2.828   2.083 -3.5762  0.9434 -1.2688
12991TIP3    H239856   5.777   2.973   2.063 -0.8097  0.5068  0.2706
12992TIP3   OH239857   4.335   4.223   9.256 -0.5656  0.6221 -0.1861
12992TIP3    H139858   4.273   4.235   9.184  0.8301 -1.0280 -1.7853
12992TIP3    H239859   4.328   4.130   9.279  1.7137  0.1969 -0.9268
12993TIP3   OH239860   2.046   8.752   5.612 -0.3968  0.5299 -0.3642
12993TIP3    H139861   2.084   8.704   5.685  0.6019 -1.0547 -1.8406
12993TIP3    H239862   1.987   8.689   5.570  0.8464  0.5650 -2.2776
12994TIP3   OH239863   8.955   0.652   9.991 -0.3175  0.0872 -0.2213
12994TIP3    H139864   8.940   0.743  10.016  0.1315  0.1884 -0.3077
12994TIP3    H239865   9.042   0.653   9.949 -1.3165  0.0605 -2.4451
12995TIP3   OH239866   4.101   7.177   5.462  0.0159  0.1809  0.1251
12995TIP3    H139867   4.105   7.217   5.549 -1.0772 -0.4564  0.4935
12995TIP3    H239868   4.007   7.162   5.446  0.2358 -0.2336 -0.9174
12996TIP3   OH239869   4.968  10.595   4.742 -0.1536  0.3887  0.4672
12996TIP3    H139870   4.950  10.608   4.649 -1.2529  1.2883  0.7747
12996TIP3    H239871   4.974  10.500   4.752 -2.2311  0.1364 -0.1724
12997TIP3   OH239872   7.202   7.573   1.655 -0.0722  0.0573  0.2395
12997TIP3    H139873   7.198   7.485   1.691 -0.5105 -0.0593 -0.0907
12997TIP3    H239874   7.289   7.605   1.680  0.1848 -0.5564  0.1563
12998TIP3   OH239875   5.964   8.021   3.329 -0.2996 -0.2642 -0.1342
12998TIP3    H139876   5.884   8.074   3.324 -0.5629 -0.7045 -0.7099
12998TIP3    H239877   6.014   8.061   3.400 -1.0887 -0.0677  0.3280
12999TIP3   OH239878   8.701   3.723   1.546  0.3032  0.1147  0.1184
12999TIP3    H139879   8.611   3.713   1.515 -0.2312 -0.4524  1.7186
12999TIP3    H239880   8.750   3.752   1.470 -1.2462  0.4867 -0.7809
13000TIP3   OH239881   8.543   0.626   9.174  0.2142  0.2971 -0.8372
13000TIP3    H139882   8.564   0.565   9.103  2.9354 -0.1449  0.2407
13000TIP3    H239883   8.515   0.570   9.246 -1.2715  0.6609 -1.0996
13001TIP3   OH239884  10.288   5.325   0.718 -0.0795  0.0146  0.2414
13001TIP3    H139885  10.291   5.321   0.622  1.1774 -3.6711  0.2690
13001TIP3    H239886  10.219   5.262   0.742 -0.3380  0.8452  1.7933
13002TIP3   OH239887   7.098   1.861   1.199 -0.1373  0.5403 -0.8310
13002TIP3    H139888   7.044   1.933   1.231  0.2264  0.2420  0.5418
13002TIP3    H239889   7.145   1.830   1.277  0.8781 -0.1781 -1.6977
13003TIP3   OH239890   3.132   7.358   9.767 -0.7266 -0.7768 -0.1632
13003TIP3    H139891   3.046   7.363   9.727 -0.9809  1.3150  0.5632
13003TIP3    H239892   3.125   7.285   9.829 -2.1946 -0.2066  0.3723
13004TIP3   OH239893   9.140   7.290   9.927 -0.1938  0.4926 -0.0811
13004TIP3    H139894   9.082   7.342   9.871 -0.4871  1.1225  0.7986
13004TIP3    H239895   9.089   7.213   9.950  0.7053 -0.9778 -2.5212
13005TIP3   OH239896   2.384   1.060   5.730  0.4902  0.6623 -0.3193
13005TIP3    H139897   2.341   1.055   5.645 -0.5319  1.8826  0.0874
13005TIP3    H239898   2.351   1.141   5.769  1.1445  0.2755  1.1308
13006TIP3   OH239899   6.315   8.826   5.160  0.3769 -0.8745  0.2436
13006TIP3    H139900   6.221   8.819   5.176  0.4819 -1.5433  0.6120
13006TIP3    H239901   6.335   8.749   5.106  0.5666 -0.2868 -0.5350
13007TIP3   OH239902   4.109  10.439   8.736 -0.1444 -0.2685  0.3668
13007TIP3    H139903   4.041  10.378   8.766  0.6380 -0.9833  0.6960
13007TIP3    H239904   4.131  10.490   8.814  0.9163 -1.2074  0.7045
13008TIP3   OH239905   5.121   2.204   6.197  0.0146 -0.2385 -0.1510
13008TIP3    H139906   5.102   2.276   6.258 -0.2168  0.6151 -1.2079
13008TIP3    H239907   5.200   2.232   6.152  1.1567 -1.6256  0.8870
13009TIP3   OH239908   2.627   4.747   5.815  0.3924 -0.0303  0.2091
13009TIP3    H139909   2.641   4.781   5.904 -0.2414  1.3441 -0.1794
13009TIP3    H239910   2.559   4.680   5.825  0.1390  0.2984  0.7357
13010TIP3   OH239911   8.324   0.801   9.111  0.6833 -0.6956 -0.2581
13010TIP3    H139912   8.361   0.823   9.026  0.8627 -0.2520 -0.0683
13010TIP3    H239913   8.388   0.742   9.151  1.2538  0.1464  0.1094
13011TIP3   OH239914   1.187   4.781   7.007  0.1940  0.4336 -0.2707
13011TIP3    H139915   1.132   4.852   6.974  0.6896  0.7769 -0.3569
13011TIP3    H239916   1.276   4.806   6.984  0.4248  0.0524  0.1887
13012TIP3   OH239917   8.693   6.960   5.535  0.2994 -0.4962  0.0345
13012TIP3    H139918   8.676   6.895   5.603 -1.5490  0.8586  0.9627
13012TIP3    H239919   8.611   6.966   5.486  0.2521  1.3838  0.2453
13013TIP3   OH239920   5.880   6.294   5.311  0.3665 -0.3552 -0.0302
13013TIP3    H139921   5.803   6.330   5.268 -1.4968 -2.8053  1.0141
13013TIP3    H239922   5.890   6.346   5.391  0.9847  1.1531 -1.0434
13014TIP3   OH239923   0.675   6.884   5.997 -0.2680  0.2652 -0.0183
13014TIP3    H139924   0.649   6.876   5.905  0.4503 -0.4247 -0.1718
13014TIP3    H239925   0.595   6.862   6.046 -0.2188 -1.0543 -0.4851
13015TIP3   OH239926   9.301  10.082   7.246  0.0331  0.2085  0.1472
13015TIP3    H139927   9.331   9.992   7.252 -2.1197 -0.5860 -0.1527
13015TIP3    H239928   9.320  10.107   7.155 -2.0599 -1.0313 -0.6955
13016TIP3   OH239929   1.091   0.033   8.244 -0.3008 -0.9732 -0.2119
13016TIP3    H139930   1.163  -0.026   8.221  1.0759  0.7508 -0.5428
13016TIP3    H239931   1.017  -0.025   8.259  0.5511 -2.6839 -2.0855
13017TIP3   OH239932   8.266   4.172   9.453  0.5316  0.0854  0.1701
13017TIP3    H139933   8.199   4.149   9.517  2.4631 -0.4952  2.1121
13017TIP3    H239934   8.335   4.215   9.504  2.3184 -0.6856 -1.4380
13018TIP3   OH239935   3.714   9.275   2.805 -0.3250  0.0383  0.8620
13018TIP3    H139936   3.739   9.331   2.731  1.2607 -0.8453  0.6780
13018TIP3    H239937   3.619   9.269   2.800 -0.4291  1.6511  0.1208
13019TIP3   OH239938   9.716   5.848   6.698 -0.1528 -0.2606  0.2571
13019TIP3    H139939   9.706   5.866   6.792 -1.3064  0.7462 -0.0364
13019TIP3    H239940   9.641   5.792   6.676 -0.3904  0.2482 -0.2439
13020TIP3   OH239941   3.516   7.154  10.198  0.3528  0.1999 -0.3765
13020TIP3    H139942   3.524   7.069  10.241  0.4694  0.9404  1.1293
13020TIP3    H239943   3.605   7.191  10.201 -0.2645  1.7249  1.9949
13021TIP3   OH239944  10.220   1.878   4.338 -0.2148  0.2585  0.2571
13021TIP3    H139945  10.169   1.819   4.283  0.1769 -0.4675  0.6604
13021TIP3    H239946  10.180   1.964   4.325 -0.4351  0.0067 -0.7680
13022TIP3   OH239947   8.341   3.769  10.086  0.0699  0.1977  0.1002
13022TIP3    H139948   8.357   3.760   9.992  2.0421 -1.2634  0.5294
13022TIP3    H239949   8.359   3.682  10.122 -0.0738  0.8877  1.9193
13023TIP3   OH239950   7.928   2.768   2.213  0.1244  1.1434  0.0404
13023TIP3    H139951   7.867   2.732   2.277 -0.3888  0.6763 -0.6979
13023TIP3    H239952   7.873   2.803   2.143  0.6122  3.3199  0.6881
13024TIP3   OH239953   0.953   8.696   2.809  0.2174 -0.1258 -0.1901
13024TIP3    H139954   0.906   8.767   2.853 -0.0693  0.0496 -0.7677
13024TIP3    H239955   0.941   8.714   2.715  1.4939 -0.0377 -0.3542
13025TIP3   OH239956   6.958   0.746   8.603  0.3692  0.0354  0.3077
13025TIP3    H139957   6.933   0.660   8.569 -0.0487  0.3449 -0.1807
13025TIP3    H239958   6.918   0.808   8.542 -0.9834  0.6300  1.7149
13026TIP3   OH239959   2.096   3.927  10.902 -0.0027 -0.2021  0.4476
13026TIP3    H139960   2.167   3.875  10.938 -0.7478 -1.9609 -0.4437
13026TIP3    H239961   2.138   3.987  10.841  0.6957 -1.8432 -0.7656
13027TIP3   OH239962   3.711   3.919   0.057  0.5923  0.0039  0.3072
13027TIP3    H139963   3.649   3.890   0.123 -0.5881  1.4680 -0.1231
13027TIP3    H239964   3.695   4.012   0.047  1.1624 -0.0554 -1.5895
13028TIP3   OH239965   4.766   8.819   2.981 -0.2304 -0.1476 -0.4196
13028TIP3    H139966   4.700   8.882   3.010  0.2906 -0.1490  0.8660
13028TIP3    H239967   4.732   8.734   3.012  0.0802 -0.2195 -0.2759
13029TIP3   OH239968   6.216   8.791  10.744  0.6051  0.3368 -0.4253
13029TIP3    H139969   6.251   8.705  10.764 -2.4495 -0.6587  1.4505
13029TIP3    H239970   6.265   8.851  10.800  0.5663 -0.7145  0.7861
13030TIP3   OH239971   5.608   5.935   0.325 -0.4489  0.1191  0.3392
13030TIP3    H139972   5.525   5.959   0.284 -1.0872 -0.9050  0.9777
13030TIP3    H239973   5.663   5.904   0.252 -0.6518  0.7069 -0.0706
13031TIP3   OH239974   4.663   3.063   5.905  0.1263  0.1803 -0.0127
13031TIP3    H139975   4.655   3.078   5.999  0.4067  1.1698 -0.1320
13031TIP3    H239976   4.589   3.110   5.867  0.8716  1.0996 -0.3861
13032TIP3   OH239977   4.445   4.435   3.781  0.1372 -0.6090  0.1436
13032TIP3    H139978   4.422   4.356   3.732  1.5501 -0.7199 -0.3868
13032TIP3    H239979   4.384   4.501   3.750  1.3674 -0.5114 -2.3240
13033TIP3   OH239980   2.544   3.185   7.141 -0.0214  0.5982  0.2917
13033TIP3    H139981   2.451   3.201   7.153  0.0482  0.4940  1.0504
13033TIP3    H239982   2.586   3.269   7.163 -0.0198  1.1400 -1.6132
13034TIP3   OH239983   9.123  10.267   9.414  0.4623 -0.3587  0.1938
13034TIP3    H139984   9.146  10.225   9.496  0.3613  1.3375  1.1352
13034TIP3    H239985   9.053  10.328   9.437  0.2002 -0.0958 -1.2199
13035TIP3   OH239986   3.318   7.907   5.899 -0.3955 -0.2536 -0.4025
13035TIP3    H139987   3.293   7.820   5.871  0.8643 -0.2161 -1.8033
13035TIP3    H239988   3.391   7.931   5.841 -0.1888  1.4042  0.4642
13036TIP3   OH239989   5.910   6.212   2.909 -0.1000 -0.5345  0.3139
13036TIP3    H139990   5.996   6.198   2.949  0.3868 -1.0219 -0.8501
13036TIP3    H239991   5.929   6.225   2.816 -1.1464  1.1242  0.2952
13037TIP3   OH239992   2.573   7.667  10.732  0.3157  0.1043 -0.0625
13037TIP3    H139993   2.627   7.672  10.811  0.9748  1.1117 -0.5531
13037TIP3    H239994   2.619   7.721  10.668 -1.2395  0.9544 -0.5253
13038TIP3   OH239995   5.484   2.457   3.414 -0.2299 -0.7614 -0.2727
13038TIP3    H139996   5.533   2.427   3.491  2.2387  1.8785 -0.6438
13038TIP3    H239997   5.551   2.473   3.348 -1.3089  3.6492 -0.6349
13039TIP3   OH239998   2.574   6.325   2.125 -0.0043 -0.1452 -0.3403
13039TIP3    H139999   2.549   6.241   2.165 -0.6293  0.0627 -0.2930
13039TIP3    H240000   2.492   6.364   2.097  0.4608 -0.5066 -2.3224
13040TIP3   OH240001   5.365   3.392   5.108 -0.3784  0.2430  0.4903
13040TIP3    H140002   5.394   3.481   5.127 -0.3440  0.7802 -1.8022
13040TIP3    H240003   5.277   3.403   5.073  0.4321 -0.3375 -1.8887
13041TIP3   OH240004   3.950   6.959   4.071  0.2135 -0.6533 -0.3666
13041TIP3    H140005   3.914   6.971   3.983  0.7102  0.8620 -0.4013
13041TIP3    H240006   4.042   6.984   4.063  0.3691 -0.9066  0.4925
13042TIP3   OH240007   7.557   5.900   9.543  0.4299  0.4260 -0.2014
13042TIP3    H140008   7.499   5.972   9.566 -0.6595 -0.3682 -0.3948
13042TIP3    H240009   7.637   5.917   9.592 -0.5430  0.6864  1.3470
13043TIP3   OH240010   8.108   9.203   3.410  0.2150 -0.0354  0.1360
13043TIP3    H140011   8.055   9.177   3.486 -0.1022 -0.7174 -0.3087
13043TIP3    H240012   8.143   9.121   3.376  0.9746  0.3464 -0.0065
13044TIP3   OH240013   4.523   3.778   8.185 -0.3055  0.1787 -1.1267
13044TIP3    H140014   4.605   3.823   8.165  0.8277 -1.2977  0.0027
13044TIP3    H240015   4.496   3.739   8.102  0.4697  0.1819 -1.3850
13045TIP3   OH240016   7.966   3.687   9.938 -0.7797  0.1484 -0.5104
13045TIP3    H140017   7.975   3.715  10.029 -1.7919  0.1146 -0.3802
13045TIP3    H240018   7.873   3.663   9.930 -0.1754 -2.2929 -0.8653
13046TIP3   OH240019   1.945   7.663   0.314  0.5405  0.0646 -0.1123
13046TIP3    H140020   1.860   7.620   0.314  1.8429 -2.7469 -0.0028
13046TIP3    H240021   1.963   7.681   0.406  0.5329 -0.4303 -0.0073
13047TIP3   OH240022   7.443   4.195  10.433  0.3061  0.0870 -0.6316
13047TIP3    H140023   7.518   4.190  10.373  3.1879  0.6991  2.5553
13047TIP3    H240024   7.452   4.280  10.475 -1.4533 -0.3443  0.7365
13048TIP3   OH240025   5.849   4.318   9.955  0.2623 -0.0795 -0.1797
13048TIP3    H140026   5.821   4.226   9.956 -0.7198  0.2093  0.7701
13048TIP3    H240027   5.778   4.364   9.908 -0.1132  0.4342  0.8624
13049TIP3   OH240028   1.371   7.378   6.708  0.1970  0.5202 -0.2860
13049TIP3    H140029   1.293   7.407   6.661 -1.3596 -1.2195  1.0484
13049TIP3    H240030   1.429   7.344   6.640 -2.4543 -3.0060 -1.0788
13050TIP3   OH240031   8.281   5.920   1.747  0.1559 -0.1287 -0.2924
13050TIP3    H140032   8.244   5.837   1.716 -1.7782  0.7508 -0.4500
13050TIP3    H240033   8.312   5.901   1.835  1.5498 -1.4962 -1.0337
13051TIP3   OH240034   0.451   0.195   1.175  0.4267 -0.3583 -0.1136
13051TIP3    H140035   0.428   0.239   1.093 -0.2107 -0.1347  0.1814
13051TIP3    H240036   0.463   0.103   1.150  0.0708 -0.3209 -0.4306
13052TIP3   OH240037   7.676   8.895   7.226  0.5355  0.7813  0.2975
13052TIP3    H140038   7.688   8.946   7.146 -1.4919 -0.8078 -1.1600
13052TIP3    H240039   7.727   8.815   7.211 -1.7455 -0.6049 -0.5898
13053TIP3   OH240040   5.013   2.134   4.728 -0.0189 -1.2954 -0.4975
13053TIP3    H140041   5.043   2.103   4.814  1.1406 -0.3850 -0.5555
13053TIP3    H240042   4.977   2.221   4.745  0.6495 -0.9161 -1.0088
13054TIP3   OH240043   5.193   4.893   3.381  0.3265 -0.1950 -0.5441
13054TIP3    H140044   5.138   4.858   3.311 -1.5608  1.4522  0.0402
13054TIP3    H240045   5.238   4.817   3.416 -1.8901 -1.6959 -0.7904
13055TIP3   OH240046   3.448   2.135   1.493  0.2024  0.0163 -0.9019
13055TIP3    H140047   3.388   2.079   1.542 -0.2023  0.3041 -1.0608
13055TIP3    H240048   3.417   2.224   1.509  1.2822  0.2611 -0.0583
13056TIP3   OH240049   7.854   8.770   9.570  0.5309 -0.2976  0.1662
13056TIP3    H140050   7.913   8.828   9.620  0.8767  0.6764 -1.3169
13056TIP3    H240051   7.796   8.830   9.523 -0.7731 -1.2292  0.5338
13057TIP3   OH240052   2.656  10.492  10.462  0.2623 -0.2304  0.3271
13057TIP3    H140053   2.747  10.498  10.492  0.5562  0.0222 -0.5984
13057TIP3    H240054   2.654  10.541  10.380 -0.8183  0.1492  0.5616
13058TIP3   OH240055   3.437   8.688   0.360 -0.4890  0.1835  0.3034
13058TIP3    H140056   3.451   8.663   0.451  0.6194  0.5754  0.2526
13058TIP3    H240057   3.356   8.740   0.362 -0.0969  0.7807  1.1716
13059TIP3   OH240058   0.981   1.204   8.016 -0.5413  0.0962  0.0126
13059TIP3    H140059   1.021   1.279   7.972  0.2236  0.1603  0.7833
13059TIP3    H240060   0.938   1.241   8.093 -0.2654 -0.2296  0.3303
13060TIP3   OH240061   2.796   5.642   7.959 -0.1734  0.0440  0.3379
13060TIP3    H140062   2.772   5.580   8.028  1.3096 -0.3354  0.5533
13060TIP3    H240063   2.783   5.594   7.878 -1.8790  0.4746  0.3151
13061TIP3   OH240064  10.814   9.518   0.842 -0.5065  0.1615 -0.9709
13061TIP3    H140065  10.910   9.517   0.850 -0.5394  0.2007 -0.5227
13061TIP3    H240066  10.791   9.610   0.855 -0.6791 -0.0007 -0.0575
13062TIP3   OH240067   9.940   6.715   5.645  0.4319  0.0312  0.1625
13062TIP3    H140068   9.949   6.803   5.607 -0.4847 -0.1382 -0.4543
13062TIP3    H240069   9.947   6.730   5.739  2.9410  0.4354 -0.0058
13063TIP3   OH240070   0.120   1.509   1.727  0.2440 -0.7321 -0.2765
13063TIP3    H140071   0.105   1.571   1.656  0.1070 -0.3059  0.1170
13063TIP3    H240072   0.046   1.522   1.786  1.1286  0.0070  0.7122
13064TIP3   OH240073   9.423   8.295   4.120 -0.0111 -0.0078  0.6976
13064TIP3    H140074   9.391   8.378   4.084  1.0643 -0.9129 -2.6557
13064TIP3    H240075   9.354   8.232   4.099  0.6787 -0.5804  0.1100
13065TIP3   OH240076   4.080   0.878   3.911 -0.2599 -0.5723 -0.4587
13065TIP3    H140077   4.124   0.802   3.948  0.7621  0.5451  0.7200
13065TIP3    H240078   4.100   0.950   3.971 -2.2580  0.3790 -0.8158
13066TIP3   OH240079   5.243   9.225   1.772  0.0363 -0.1513  0.4968
13066TIP3    H140080   5.187   9.258   1.842 -0.2043 -3.0789  1.8318
13066TIP3    H240081   5.315   9.181   1.818  1.3160  0.1377 -1.1519
13067TIP3   OH240082   8.809   0.333  10.831  0.2539  0.5265  0.3111
13067TIP3    H140083   8.861   0.290  10.763 -1.8907 -1.7032 -0.0346
13067TIP3    H240084   8.865   0.331  10.909  1.5677  0.3312 -0.6145
13068TIP3   OH240085   3.799   3.523   3.157 -0.0100  0.7648  0.4304
13068TIP3    H140086   3.795   3.615   3.181 -0.7870  0.7304  0.4322
13068TIP3    H240087   3.875   3.489   3.206 -0.7699  0.9896  1.8126
13069TIP3   OH240088   1.851   0.233   4.685 -0.0064  0.3499 -0.6182
13069TIP3    H140089   1.841   0.260   4.776 -0.0789  0.0786 -0.5435
13069TIP3    H240090   1.935   0.187   4.682  0.0143  0.3919 -0.6975
13070TIP3   OH240091   2.097   2.116   7.399  0.1554 -0.5519  0.0101
13070TIP3    H140092   2.128   2.050   7.461 -0.6882  2.5262  4.0599
13070TIP3    H240093   2.003   2.101   7.393 -0.2079  0.7605  1.7488
13071TIP3   OH240094   7.884   5.697   5.610 -0.0672 -0.4303  0.0764
13071TIP3    H140095   7.850   5.763   5.671  0.5007 -0.1175  0.0619
13071TIP3    H240096   7.907   5.747   5.531  1.1569 -0.5057  0.3672
13072TIP3   OH240097   2.402   0.504   1.851  0.3622  0.5776 -0.0486
13072TIP3    H140098   2.354   0.576   1.810  1.3762  0.7039 -1.0713
13072TIP3    H240099   2.432   0.539   1.935 -2.4568  0.0528  1.3061
13073TIP3   OH240100   6.885   1.164   8.696  0.3589  0.1048 -0.5151
13073TIP3    H140101   6.975   1.176   8.666  0.6090  1.3391  0.6695
13073TIP3    H240102   6.833   1.224   8.642  0.2471 -0.4659 -1.0630
13074TIP3   OH240103   7.852   6.128   1.423 -0.8545 -0.1926 -0.2204
13074TIP3    H140104   7.812   6.201   1.376 -0.7569 -0.3350 -0.5286
13074TIP3    H240105   7.946   6.145   1.419 -0.7613 -0.8938 -1.2432
13075TIP3   OH240106   0.224   0.706   7.485  0.1338 -0.1844 -0.1100
13075TIP3    H140107   0.219   0.705   7.390 -0.8821  1.3923 -0.0956
13075TIP3    H240108   0.318   0.716   7.504  0.1380  1.9380 -1.0175
13076TIP3   OH240109   0.758   4.719   5.099  0.4826 -0.0164  0.0975
13076TIP3    H140110   0.669   4.699   5.070  0.5575 -1.4806  0.8027
13076TIP3    H240111   0.752   4.724   5.194  1.1500 -0.1188  0.1468
13077TIP3   OH240112   4.696   3.384   2.178  0.1484  0.7010 -0.0982
13077TIP3    H140113   4.697   3.477   2.157 -0.5306  1.1493  1.6915
13077TIP3    H240114   4.606   3.365   2.203  0.3388 -0.3600 -0.1471
13078TIP3   OH240115   0.068   7.041  10.851  0.0363 -0.0745  0.3067
13078TIP3    H140116   0.058   7.102  10.924 -1.3959 -0.4155  0.4243
13078TIP3    H240117   0.104   6.962  10.892  1.3363  0.4518  0.2481
13079TIP3   OH240118   9.364   5.905   5.478 -0.0911  0.0516 -0.0647
13079TIP3    H140119   9.379   5.837   5.412  0.2619 -0.1381  0.2108
13079TIP3    H240120   9.330   5.979   5.428 -0.4923 -0.3281 -0.3689
13080TIP3   OH240121   2.014   5.271   3.261  0.2730  0.9279  0.1155
13080TIP3    H140122   2.045   5.208   3.326 -1.3772 -1.4426 -1.2469
13080TIP3    H240123   1.948   5.323   3.307 -0.1599 -0.0422  0.6092
13081TIP3   OH240124   0.131   4.309   9.555  0.2004  0.1238  0.4168
13081TIP3    H140125   0.193   4.315   9.482  1.5913 -0.0292  1.5365
13081TIP3    H240126   0.134   4.217   9.582  0.8759  0.4790  1.6229
13082TIP3   OH240127   8.626   7.746   7.667 -0.7656  0.2263 -0.9061
13082TIP3    H140128   8.555   7.728   7.605 -2.6524 -0.7757  1.4022
13082TIP3    H240129   8.585   7.796   7.737  1.1371  0.7539 -0.1136
13083TIP3   OH240130   1.761   0.829   1.744 -0.0537 -0.2623  0.3773
13083TIP3    H140131   1.701   0.860   1.676 -0.2525 -1.4214 -0.0141
13083TIP3    H240132   1.829   0.895   1.748 -0.6388  0.3875 -0.1600
13084TIP3   OH240133  10.168   6.855   2.352  0.0901  0.0969 -0.0062
13084TIP3    H140134  10.247   6.862   2.299 -0.6119  0.7761 -0.9998
13084TIP3    H240135  10.097   6.869   2.291 -0.8108 -0.4449  0.8876
13085TIP3   OH240136   3.402   0.214  10.776 -0.7629 -0.3776 -0.0693
13085TIP3    H140137   3.451   0.246  10.700 -1.0839  0.3433  0.0209
13085TIP3    H240138   3.404   0.286  10.839 -2.9835  0.1867 -0.5480
13086TIP3   OH240139   2.268   3.998   0.828 -0.5817 -0.2166 -0.2786
13086TIP3    H140140   2.200   4.065   0.829  0.4090  0.8623 -1.5544
13086TIP3    H240141   2.323   4.019   0.903 -0.3249  0.3556 -0.6225
13087TIP3   OH240142   4.360   1.681   3.403  0.7163 -0.1830 -0.4084
13087TIP3    H140143   4.336   1.717   3.318 -0.5503 -0.1106 -0.0380
13087TIP3    H240144   4.375   1.588   3.387  0.1873 -0.2269 -0.6602
13088TIP3   OH240145  10.379  10.739   9.770 -0.4995  0.1802  0.2624
13088TIP3    H140146  10.419  10.665   9.816  0.8152  0.0022 -1.0790
13088TIP3    H240147  10.453  10.792   9.742 -1.3891  1.5851  0.4688
13089TIP3   OH240148   7.214   4.148   5.742  0.4669  0.4252  0.0400
13089TIP3    H140149   7.236   4.193   5.824  0.0684 -0.9419  0.9296
13089TIP3    H240150   7.194   4.219   5.681  0.0148  1.4638  1.3408
13090TIP3   OH240151   9.078   7.546   7.603  0.0277 -0.0164 -0.4644
13090TIP3    H140152   8.986   7.526   7.620  0.2800 -2.0222 -1.1200
13090TIP3    H240153   9.098   7.498   7.522  1.8990 -0.5248  0.2443
13091TIP3   OH240154   5.150   9.391   0.986  0.5652 -0.2909 -0.8184
13091TIP3    H140155   5.169   9.424   1.074  1.9480  0.1033 -1.2429
13091TIP3    H240156   5.234   9.358   0.954  0.4995  1.1679 -2.6411
13092TIP3   OH240157   6.439   3.591   8.147  0.2283  0.0721 -0.7855
13092TIP3    H140158   6.369   3.530   8.168 -0.3910  1.3137  0.9571
13092TIP3    H240159   6.418   3.622   8.058 -0.8265 -0.3751 -0.7057
13093TIP3   OH240160   8.482   5.509   8.101 -0.6281  0.2317  0.3017
13093TIP3    H140161   8.491   5.472   8.189 -3.2481  1.7584  1.3238
13093TIP3    H240162   8.571   5.536   8.077  0.0296  0.6061  2.8926
13094TIP3   OH240163   3.919   9.220   9.709  0.6437  0.5430  0.0360
13094TIP3    H140164   3.943   9.223   9.617 -0.1879 -1.5181 -0.3070
13094TIP3    H240165   3.936   9.129   9.736  0.4951  0.9920  1.8024
13095TIP3   OH240166   7.503   9.521   1.382  0.7248 -0.0880 -0.7290
13095TIP3    H140167   7.592   9.508   1.349  1.3615 -0.2843  0.9605
13095TIP3    H240168   7.493   9.615   1.389  0.8630 -0.0717 -0.7439
13096TIP3   OH240169   4.894   8.042   8.362  0.6004 -0.5682  0.0250
13096TIP3    H140170   4.896   7.968   8.423  0.6860 -0.5153  0.0866
13096TIP3    H240171   4.941   8.011   8.285  0.2139 -0.7462 -0.1419
13097TIP3   OH240172   6.730   0.171   5.084 -0.3489  0.7561  0.5899
13097TIP3    H140173   6.686   0.087   5.098  0.2468  0.2763 -0.3034
13097TIP3    H240174   6.802   0.170   5.147 -0.9843  1.0924  1.3395
13098TIP3   OH240175   5.959   4.780   2.174 -0.0270 -0.2562 -0.0209
13098TIP3    H140176   6.033   4.728   2.143 -0.1476  0.6110 -1.8780
13098TIP3    H240177   5.909   4.719   2.229  0.0370 -2.0255 -1.7907
13099TIP3   OH240178   7.897   8.114   6.780  0.1169  0.3873 -0.3659
13099TIP3    H140179   7.986   8.133   6.812  0.3050  0.7264 -1.0691
13099TIP3    H240180   7.885   8.021   6.798  0.3695  0.4836  0.3251
13100TIP3   OH240181  10.496  10.792   9.249 -0.2295  0.3912 -0.4219
13100TIP3    H140182  10.414  10.748   9.228 -0.0866 -0.3606  0.5228
13100TIP3    H240183  10.479  10.835   9.333  0.0031  1.1727 -0.7641
13101TIP3   OH240184   3.846   0.145   3.029 -0.4012  0.1094 -0.2002
13101TIP3    H140185   3.789   0.088   3.080  0.2204 -1.4881 -1.1968
13101TIP3    H240186   3.933   0.131   3.067 -0.1849  0.1014 -0.6960
13102TIP3   OH240187   1.135   0.163  10.252 -0.8236 -0.5638  0.5380
13102TIP3    H140188   1.139   0.117  10.168 -0.6141 -0.6121  0.5731
13102TIP3    H240189   1.205   0.228  10.248 -1.0526 -0.3143  0.5307
13103TIP3   OH240190   3.019   8.966   9.594  0.1195  0.1092  0.1219
13103TIP3    H140191   3.107   8.992   9.622 -0.4207  0.8963  1.1317
13103TIP3    H240192   2.963   9.038   9.621 -0.9470 -0.6820  0.0792
13104TIP3   OH240193   1.886   0.774   4.146  0.4263 -0.6172  0.4317
13104TIP3    H140194   1.981   0.777   4.160  0.4480  1.0188  0.0927
13104TIP3    H240195   1.849   0.791   4.232  0.4524 -0.5046  0.4210
13105TIP3   OH240196   7.982   7.220   5.909  0.8173  0.0979 -0.2202
13105TIP3    H140197   7.957   7.147   5.852  0.2569 -1.5281  1.9577
13105TIP3    H240198   7.899   7.251   5.946  1.2863 -0.0237  0.9740
13106TIP3   OH240199   1.821   0.985   1.003  0.3900 -0.0236  0.2275
13106TIP3    H140200   1.811   0.890   1.009 -1.2982  0.0366 -0.9733
13106TIP3    H240201   1.876   1.008   1.078  0.3044 -1.8710  0.9076
13107TIP3   OH240202   8.905   9.238   5.514  0.2886 -0.3174  0.0765
13107TIP3    H140203   8.947   9.162   5.555 -0.4375 -0.7418  0.0432
13107TIP3    H240204   8.823   9.248   5.562 -0.7152 -1.0063 -1.4491
13108TIP3   OH240205   9.012   8.973   9.001  0.0891 -0.0718 -0.5049
13108TIP3    H140206   9.105   8.952   9.004  0.2018  0.4715  0.7980
13108TIP3    H240207   9.009   9.065   8.975  0.0948  0.6043  1.6464
13109TIP3   OH240208   9.257   0.502   5.196  0.6495  0.1008  0.2968
13109TIP3    H140209   9.250   0.538   5.108 -0.8574  1.3243  0.8689
13109TIP3    H240210   9.249   0.407   5.184 -1.3970  0.3538 -0.7471
13110TIP3   OH240211   3.678   1.166   0.617 -0.2497  0.0689 -0.3847
13110TIP3    H140212   3.768   1.139   0.631 -0.0600 -1.1253 -3.1994
13110TIP3    H240213   3.680   1.262   0.620  1.2127  0.0700 -0.9205
13111TIP3   OH240214   5.908  10.671   8.531  0.6416 -0.2518  0.2775
13111TIP3    H140215   6.000  10.683   8.556  0.9331  1.0776 -1.2634
13111TIP3    H240216   5.892  10.739   8.467 -2.2775  1.4387  2.5711
13112TIP3   OH240217   2.392   8.856   6.146 -0.4068  0.3668  0.1618
13112TIP3    H140218   2.364   8.777   6.191  1.3540  0.2759  1.1641
13112TIP3    H240219   2.412   8.918   6.216  1.1342  0.6620 -0.4938
13113TIP3   OH240220   1.514   6.959   3.299 -0.2839  0.3461 -0.1308
13113TIP3    H140221   1.485   7.050   3.305  1.0125  0.7853 -0.0937
13113TIP3    H240222   1.591   6.962   3.241 -1.3582 -1.0288 -1.7108
13114TIP3   OH240223  10.264   1.282   5.643  0.1293  0.8233  0.1034
13114TIP3    H140224  10.197   1.310   5.581 -1.4276  0.9289  1.7493
13114TIP3    H240225  10.231   1.309   5.728  1.4673 -0.6685  1.1561
13115TIP3   OH240226   9.494   6.437   3.985 -0.1925  0.8609  0.4863
13115TIP3    H140227   9.514   6.471   3.898 -0.8766  0.3229  0.1009
13115TIP3    H240228   9.487   6.514   4.041 -1.4162  1.3566 -0.2985
13116TIP3   OH240229   6.799   3.731   2.684 -0.1523  0.3111 -0.1535
13116TIP3    H140230   6.827   3.822   2.682 -1.1878  0.6213 -1.1908
13116TIP3    H240231   6.802   3.702   2.593  0.9239 -0.9560  0.2378
13117TIP3   OH240232   7.297  10.680   6.291  0.5089  0.0781  0.6259
13117TIP3    H140233   7.370  10.622   6.311  1.2485  0.2612 -1.3494
13117TIP3    H240234   7.337  10.765   6.278  0.1336 -0.0121 -1.4564
13118TIP3   OH240235  10.883   6.934   8.749 -0.7904 -0.0015  0.2003
13118TIP3    H140236  10.957   6.874   8.755 -0.9525 -0.2119  0.1566
13118TIP3    H240237  10.813   6.889   8.797 -0.4852  0.8383  1.4726
13119TIP3   OH240238   9.671   0.610   9.654 -0.4442  0.2225  0.3968
13119TIP3    H140239   9.713   0.690   9.623  1.3950 -0.3860  1.1631
13119TIP3    H240240   9.629   0.636   9.736 -0.4382  0.5508  0.2969
13120TIP3   OH240241   8.541   3.711   0.765 -0.6699  0.4950 -0.0361
13120TIP3    H140242   8.517   3.703   0.858  3.6560 -0.2535  1.2231
13120TIP3    H240243   8.574   3.801   0.756 -1.7956  0.8249 -1.1184
13121TIP3   OH240244   8.091   5.665   9.375 -0.0460  0.1702  0.1416
13121TIP3    H140245   8.084   5.742   9.320  3.0961  1.2968  1.1143
13121TIP3    H240246   8.055   5.692   9.460 -1.3763 -0.3531 -0.2239
13122TIP3   OH240247   1.991   4.861   6.738 -0.0229  0.1749 -0.2153
13122TIP3    H140248   1.897   4.864   6.757  0.0637  0.4466  0.2021
13122TIP3    H240249   2.018   4.772   6.761 -0.3169 -0.1421 -1.0547
13123TIP3   OH240250   7.754   9.761   4.718 -0.0718 -0.0977 -0.4743
13123TIP3    H140251   7.811   9.765   4.795  0.0713 -0.9531 -0.5183
13123TIP3    H240252   7.669   9.736   4.753 -0.4049  1.0560 -0.4237
13124TIP3   OH240253  10.160   1.732   1.938  0.0191 -0.4960 -0.5924
13124TIP3    H140254  10.092   1.786   1.899  1.2875  0.0122 -2.2208
13124TIP3    H240255  10.181   1.775   2.021 -1.7062 -0.7537  0.0122
13125TIP3   OH240256   0.958   4.606   3.565 -0.0502  0.3320  0.7425
13125TIP3    H140257   0.939   4.558   3.646 -1.6779 -0.6315 -0.1641
13125TIP3    H240258   0.887   4.670   3.558 -1.0634 -0.9281 -0.9179
13126TIP3   OH240259   6.891   5.250   0.546 -0.2132 -0.0887 -0.1016
13126TIP3    H140260   6.967   5.306   0.525 -0.0345 -0.7316 -1.2511
13126TIP3    H240261   6.815   5.304   0.524 -0.0471 -0.1521 -0.8599
13127TIP3   OH240262   4.248   4.885   1.179 -0.1584 -0.2853  0.0206
13127TIP3    H140263   4.244   4.979   1.164  2.1430 -0.3538 -1.6075
13127TIP3    H240264   4.299   4.875   1.259  3.4645 -0.0414 -2.0023
13128TIP3   OH240265   2.553   5.928   5.732 -0.0333 -0.0953 -0.1758
13128TIP3    H140266   2.569   5.836   5.712 -0.7246  0.1002 -1.7650
13128TIP3    H240267   2.633   5.973   5.705 -0.4445 -0.0013 -1.2640
13129TIP3   OH240268   6.772   8.265   4.284  0.0430  0.1428 -0.4707
13129TIP3    H140269   6.857   8.296   4.317  1.1088  1.0393 -3.6725
13129TIP3    H240270   6.715   8.341   4.288 -0.3455 -0.2035  0.8036
13130TIP3   OH240271   5.488  10.750   7.292  0.3915  0.1787  0.3400
13130TIP3    H140272   5.473  10.679   7.229  2.6191 -1.4646  1.5214
13130TIP3    H240273   5.517  10.823   7.238 -1.7416  0.2087 -0.8884
13131TIP3   OH240274   7.276   5.155   9.859  0.4707 -0.0093  0.4444
13131TIP3    H140275   7.261   5.077   9.805 -1.7198  0.0687  0.8627
13131TIP3    H240276   7.354   5.195   9.821  0.1398 -1.0066 -1.4194
13132TIP3   OH240277   2.887   1.928   0.912  0.0116  0.3613 -0.0676
13132TIP3    H140278   2.866   1.929   1.005 -0.2521 -0.0483 -0.1179
13132TIP3    H240279   2.802   1.940   0.868 -0.0138 -0.4612 -0.2647
13133TIP3   OH240280   9.718   8.546   7.353 -0.3129 -0.3671  0.0469
13133TIP3    H140281   9.626   8.557   7.378 -1.8412 -1.3446 -4.2518
13133TIP3    H240282   9.735   8.453   7.367  0.6623  0.1007  2.3575
13134TIP3   OH240283   8.376  10.874   2.900  0.1774 -0.8656  0.1346
13134TIP3    H140284   8.416  10.959   2.922  1.6306 -1.8227  1.4022
13134TIP3    H240285   8.288  10.897   2.871  0.3471  1.0547  0.9359
13135TIP3   OH240286   6.791   2.275   1.028 -0.3130 -0.0099  0.7233
13135TIP3    H140287   6.725   2.334   1.062 -0.4632 -1.3079  2.8905
13135TIP3    H240288   6.773   2.191   1.071 -0.3882 -1.8378 -2.4974
13136TIP3   OH240289  10.713   3.948   6.874  0.6728 -0.1425  0.0670
13136TIP3    H140290  10.763   3.909   6.802  1.0396 -1.7232  1.1246
13136TIP3    H240291  10.721   3.885   6.945  0.0313  1.2158  1.3930
13137TIP3   OH240292   9.268   3.970   7.732  0.7129  0.6246 -0.1589
13137TIP3    H140293   9.209   3.954   7.659  1.0223 -0.5177 -0.1861
13137TIP3    H240294   9.211   3.983   7.808  0.4126 -0.4972 -0.1769
13138TIP3   OH240295   8.622   8.466   1.004  0.1333 -0.4023  0.1255
13138TIP3    H140296   8.619   8.467   0.908  0.6346 -0.8002  0.1000
13138TIP3    H240297   8.698   8.520   1.026  0.5290 -1.0014  0.2615
13139TIP3   OH240298   9.552   3.060   9.916 -0.8078  0.6265 -0.2228
13139TIP3    H140299   9.553   3.156   9.909  0.9554  0.9260  2.4507
13139TIP3    H240300   9.615   3.031   9.851 -0.4640  1.4047 -0.2497
13140TIP3   OH240301   5.215  10.047   9.189 -0.9255  0.1181  0.4132
13140TIP3    H140302   5.158   9.970   9.179  0.1245 -0.6673  0.3026
13140TIP3    H240303   5.179  10.094   9.264 -2.4112  0.2704 -0.3541
13141TIP3   OH240304   2.061   8.687   4.773 -0.3287  0.3477  0.3194
13141TIP3    H140305   1.976   8.726   4.795  0.1298  0.9130  1.1546
13141TIP3    H240306   2.049   8.593   4.789 -0.2089  0.6516  2.5542
13142TIP3   OH240307   9.002   2.950   5.976 -0.4965  0.3680  0.3941
13142TIP3    H140308   9.089   2.913   5.964 -0.8372 -0.0992 -0.7779
13142TIP3    H240309   9.004   2.990   6.063  0.7151 -0.0888  0.5869
13143TIP3   OH240310   3.144   1.770   5.531  0.0658 -0.3584  0.1513
13143TIP3    H140311   3.122   1.823   5.455 -2.4843 -1.3776  0.0767
13143TIP3    H240312   3.063   1.767   5.583  1.5805 -0.0243  2.7340
13144TIP3   OH240313   1.727   6.155   0.964  0.2077  0.2451  0.1110
13144TIP3    H140314   1.653   6.109   1.004  0.6543 -0.2445  0.3926
13144TIP3    H240315   1.790   6.086   0.944  0.4962  0.6313 -0.3322
13145TIP3   OH240316  10.093   0.219   4.280  0.2045  0.1921 -0.4404
13145TIP3    H140317  10.119   0.302   4.320 -0.0825 -0.1589  0.5092
13145TIP3    H240318   9.998   0.219   4.283  0.1967 -0.0840 -0.6279
13146TIP3   OH240319   4.194   7.572   0.830 -0.3679 -0.3493 -0.5195
13146TIP3    H140320   4.253   7.645   0.813  1.3438 -1.7026 -0.6013
13146TIP3    H240321   4.204   7.555   0.924  1.3769 -2.2074 -0.9954
13147TIP3   OH240322   2.910   4.213   8.887 -0.0363  0.4032  0.2391
13147TIP3    H140323   2.997   4.173   8.877 -0.2100 -0.0091  0.3531
13147TIP3    H240324   2.850   4.139   8.894 -0.4048  0.6845  0.1244
13148TIP3   OH240325   8.120   5.277   6.768  0.4792  0.2083 -0.6826
13148TIP3    H140326   8.063   5.308   6.839  0.0240 -1.9106 -0.0655
13148TIP3    H240327   8.179   5.215   6.810 -1.0611 -2.6209 -2.4351
13149TIP3   OH240328  10.283   8.639   3.437  0.4058 -0.0542  0.1685
13149TIP3    H140329  10.216   8.577   3.465  0.3983 -0.0680  0.1193
13149TIP3    H240330  10.364   8.589   3.437  0.9927  0.6693  3.1949
13150TIP3   OH240331   7.102   4.421   8.192  0.3318  0.7946  0.1902
13150TIP3    H140332   7.132   4.499   8.239  2.0483  0.9790 -1.1084
13150TIP3    H240333   7.060   4.455   8.113 -2.6236  0.4908  1.4858
13151TIP3   OH240334   6.498   2.725   6.709 -0.1156 -0.2392  0.0075
13151TIP3    H140335   6.547   2.807   6.704  0.6455 -0.4147  3.0558
13151TIP3    H240336   6.533   2.672   6.637  1.9469  0.8099  0.1825
13152TIP3   OH240337   4.617   7.346   0.194 -0.1908 -0.1619 -0.0030
13152TIP3    H140338   4.604   7.382   0.282 -1.2182 -1.7695  0.5617
13152TIP3    H240339   4.528   7.329   0.162  0.1089  1.3911 -1.8362
13153TIP3   OH240340  10.603   0.063   1.728  0.1994  0.0876  0.0510
13153TIP3    H140341  10.551   0.143   1.734 -0.4384 -0.3843  1.1671
13153TIP3    H240342  10.633   0.047   1.818  2.3989  0.3938 -0.5731
13154TIP3   OH240343   0.380   3.344   3.363  0.2767  0.5930  0.4287
13154TIP3    H140344   0.460   3.297   3.385 -0.2627  0.2341  1.7272
13154TIP3    H240345   0.395   3.377   3.274  0.8072 -1.7157 -0.4215
13155TIP3   OH240346   1.184   2.257  10.772  0.0202 -0.1606 -0.4594
13155TIP3    H140347   1.218   2.315  10.839  0.3926  1.4671 -1.9829
13155TIP3    H240348   1.262   2.222  10.728 -0.2061  0.4350 -1.3676
13156TIP3   OH240349  10.113   7.243   3.469 -0.2312 -0.5398 -0.1054
13156TIP3    H140350  10.029   7.239   3.424 -0.3932  0.3876  0.0830
13156TIP3    H240351  10.104   7.182   3.542 -0.8007 -0.3382 -0.0010
13157TIP3   OH240352   5.827   1.766   3.959 -0.3187  0.2817  0.3014
13157TIP3    H140353   5.742   1.789   3.922 -0.5730  0.4771  0.9927
13157TIP3    H240354   5.806   1.710   4.034  0.0417  1.8407  1.6258
13158TIP3   OH240355   0.671   1.774   7.130  0.2873  0.1452  0.1500
13158TIP3    H140356   0.601   1.826   7.170 -1.2694 -1.9296  0.2964
13158TIP3    H240357   0.625   1.711   7.074  2.0700 -0.8945 -0.2088
13159TIP3   OH240358   1.656   8.208   0.034 -0.0551  0.0580  0.0553
13159TIP3    H140359   1.603   8.130   0.049 -3.2086  2.3197  1.7398
13159TIP3    H240360   1.737   8.191   0.081 -0.1814 -2.5775 -0.5162
13160TIP3   OH240361   9.960   4.535   7.691 -0.1442  0.2044 -0.1282
13160TIP3    H140362   9.910   4.507   7.615 -1.6160  0.8593  0.5576
13160TIP3    H240363   9.965   4.458   7.747 -0.5136  0.1688 -0.1440
13161TIP3   OH240364   7.422  10.134   4.463  0.8626  0.5864  0.4448
13161TIP3    H140365   7.405  10.227   4.444 -0.3896  0.3941  0.5417
13161TIP3    H240366   7.375  10.087   4.394 -0.0822 -0.0061  1.4557
13162TIP3   OH240367   9.008   8.203   2.483 -0.8832 -0.2748  0.1616
13162TIP3    H140368   8.998   8.240   2.396  1.2583  1.4576  0.5984
13162TIP3    H240369   8.918   8.192   2.515 -1.6483  1.6630 -1.1975
13163TIP3   OH240370  10.560   6.454   3.955  0.4589 -0.0286  0.0954
13163TIP3    H140371  10.485   6.429   3.900  1.3909  1.7924 -2.2056
13163TIP3    H240372  10.569   6.382   4.018 -1.9854 -1.2430 -0.8069
13164TIP3   OH240373   7.840   7.049   4.117 -0.1954 -0.2894  0.0943
13164TIP3    H140374   7.850   7.125   4.175  0.6339 -0.4309  0.1481
13164TIP3    H240375   7.819   7.086   4.032 -1.8181 -0.0901  0.5486
13165TIP3   OH240376   5.238   9.267   5.784  0.3974 -1.2854 -0.0858
13165TIP3    H140377   5.191   9.184   5.789  0.6069 -1.3542  1.1867
13165TIP3    H240378   5.313   9.249   5.727 -0.1148 -1.6828 -0.6356
13166TIP3   OH240379   1.691   8.870   8.233  0.1494 -0.3006  0.3860
13166TIP3    H140380   1.643   8.948   8.259 -0.7729 -0.3185 -1.1102
13166TIP3    H240381   1.705   8.822   8.314 -0.7720  0.5898  1.1021
13167TIP3   OH240382   1.826   9.962   8.662 -0.1892  0.4844  0.0795
13167TIP3    H140383   1.870   9.908   8.596 -1.0975  1.3773 -1.3123
13167TIP3    H240384   1.741   9.921   8.675 -0.4518  0.9338 -0.1683
13168TIP3   OH240385  10.788   3.767   3.166  0.7268 -0.4178 -0.0169
13168TIP3    H140386  10.804   3.843   3.110 -0.5157 -0.3571 -0.3147
13168TIP3    H240387  10.741   3.802   3.242  0.1578 -0.8810 -0.1503
13169TIP3   OH240388   7.474  10.793   3.532 -0.3849 -0.5631  0.3303
13169TIP3    H140389   7.434  10.774   3.617 -0.1544  1.4658  0.9370
13169TIP3    H240390   7.567  10.773   3.544 -0.2850  0.1151  0.6836
13170TIP3   OH240391   1.802   0.862  10.072 -0.4858  0.6848  0.2404
13170TIP3    H140392   1.840   0.934  10.022 -0.9491 -0.6272 -2.1664
13170TIP3    H240393   1.710   0.859  10.043 -0.2422 -1.4427 -0.5554
13171TIP3   OH240394   6.101   3.588  10.355 -0.0376 -0.8647 -0.1220
13171TIP3    H140395   6.129   3.636  10.433 -1.9691  0.5727 -0.2347
13171TIP3    H240396   6.171   3.603  10.291  0.0985  0.5820  0.3365
13172TIP3   OH240397   3.884  10.686   1.509 -0.1153  0.1844  0.3726
13172TIP3    H140398   3.800  10.707   1.549  0.9543  1.7974  1.9369
13172TIP3    H240399   3.947  10.741   1.555  1.7374 -0.5487 -1.1361
13173TIP3   OH240400   3.071  10.275   6.758  0.0760 -0.4748  0.2019
13173TIP3    H140401   3.013  10.318   6.821  1.5223 -2.1174  2.8321
13173TIP3    H240402   3.155  10.320   6.768 -0.0960  0.4986 -2.0530
13174TIP3   OH240403   7.199   9.162   7.484  0.3025 -0.1968 -0.1809
13174TIP3    H140404   7.189   9.169   7.579 -1.7049  1.4864 -0.4339
13174TIP3    H240405   7.290   9.185   7.468  0.4240  0.5030  1.2787
13175TIP3   OH240406   4.255   1.012   5.384  0.0130 -0.2473  0.1312
13175TIP3    H140407   4.342   0.987   5.354  1.1249  0.5159  2.5378
13175TIP3    H240408   4.253   1.107   5.375 -0.2854 -0.1846  0.7966
13176TIP3   OH240409   3.140   6.337   3.341  0.5741  0.2478 -0.2516
13176TIP3    H140410   3.047   6.351   3.358  0.6857  0.9357 -0.1723
13176TIP3    H240411   3.144   6.249   3.302  0.1239 -0.6384  1.6063
13177TIP3   OH240412   8.638   8.032   0.669  0.0932  0.4349  0.1859
13177TIP3    H140413   8.616   8.031   0.762 -1.0852 -1.0991 -0.0727
13177TIP3    H240414   8.724   8.074   0.666 -0.0166  0.8870  1.9098
13178TIP3   OH240415   7.919   7.166   1.697  0.2872 -0.5476 -0.1079
13178TIP3    H140416   7.841   7.111   1.696 -0.0646 -0.0815  0.5088
13178TIP3    H240417   7.992   7.105   1.709 -0.2430 -0.7670  2.6997
13179TIP3   OH240418   0.725   7.100   3.089 -0.1058 -0.3922 -0.2779
13179TIP3    H140419   0.797   7.162   3.080 -1.1176  0.6387 -1.7351
13179TIP3    H240420   0.712   7.066   3.000  0.7974 -3.2076  0.5516
13180TIP3   OH240421   2.773   8.511   4.679 -0.1196 -0.6156 -0.2127
13180TIP3    H140422   2.857   8.530   4.637  0.4941 -0.2230  1.1286
13180TIP3    H240423   2.728   8.596   4.682 -0.4910 -0.7886 -0.7498
13181TIP3   OH240424   9.241   9.459   3.062 -0.1921 -0.0498 -0.6932
13181TIP3    H140425   9.285   9.414   2.990 -2.0423 -2.3872 -0.4827
13181TIP3    H240426   9.148   9.450   3.043 -0.7010  1.8175  0.5641
13182TIP3   OH240427   3.183   9.310   2.673 -0.3454  0.3326  0.4974
13182TIP3    H140428   3.103   9.293   2.623 -0.4593  0.8608  0.4884
13182TIP3    H240429   3.223   9.386   2.629 -0.3834  0.7324  1.1341
13183TIP3   OH240430   6.523  10.361   9.541 -0.7449  0.1017  0.5968
13183TIP3    H140431   6.551  10.335   9.628 -0.5070  1.3936  0.9279
13183TIP3    H240432   6.463  10.435   9.556 -0.4665  0.5355 -0.3385
13184TIP3   OH240433   3.753   0.244   6.552 -0.3070 -0.2275  0.0989
13184TIP3    H140434   3.746   0.220   6.460 -0.5879  1.5503 -0.3861
13184TIP3    H240435   3.662   0.254   6.581 -0.2577 -1.7143  0.8713
13185TIP3   OH240436   0.146   3.640   5.276  0.0440 -0.0113  1.0985
13185TIP3    H140437   0.112   3.688   5.351 -0.1943  1.6591 -0.0173
13185TIP3    H240438   0.204   3.573   5.314  0.2897  1.0786  2.7353
13186TIP3   OH240439   0.151   0.660   9.283  0.0833 -0.4293  0.0115
13186TIP3    H140440   0.162   0.754   9.269  2.0640 -0.9048 -2.3045
13186TIP3    H240441   0.135   0.651   9.377  1.8807  2.0671  0.6628
13187TIP3   OH240442   9.171   0.502   2.135  0.4667  0.4658 -0.2276
13187TIP3    H140443   9.120   0.460   2.204 -1.1708  1.7549 -0.5923
13187TIP3    H240444   9.115   0.500   2.058  1.5473  0.6424 -1.0551
13188TIP3   OH240445   8.198   7.336   1.286  0.1663  0.2777 -0.2118
13188TIP3    H140446   8.151   7.396   1.229 -0.0519  0.2805 -0.0311
13188TIP3    H240447   8.153   7.343   1.371  1.7694  1.8775  0.5864
13189TIP3   OH240448   9.341   6.089   1.712  0.0370 -0.3199  0.1028
13189TIP3    H140449   9.259   6.041   1.700 -0.6161  1.0351 -1.0212
13189TIP3    H240450   9.364   6.121   1.625  0.2441  1.7424  0.8564
13190TIP3   OH240451   1.614   7.210   4.865  0.0498  0.2411 -0.3414
13190TIP3    H140452   1.537   7.211   4.808 -0.3440  1.6001  0.1833
13190TIP3    H240453   1.612   7.124   4.905 -0.1099 -0.4570 -1.7691
13191TIP3   OH240454   9.941   8.941   1.916  0.9775 -0.1830  0.3321
13191TIP3    H140455   9.975   9.018   1.962  0.1636  1.5163 -1.7184
13191TIP3    H240456   9.887   8.896   1.981 -0.4042  2.2693  1.0341
13192TIP3   OH240457   2.825   8.523   9.449  0.2414 -0.4213 -0.5021
13192TIP3    H140458   2.871   8.528   9.365  2.1742 -1.3396  0.4453
13192TIP3    H240459   2.789   8.611   9.462  1.8684  0.3874 -1.2571
13193TIP3   OH240460   4.140   6.154   6.440 -0.2293 -0.6006  0.1096
13193TIP3    H140461   4.158   6.200   6.358  0.4339 -0.6126  0.2364
13193TIP3    H240462   4.185   6.207   6.507  0.8602 -1.6049  0.2106
13194TIP3   OH240463   1.894   0.856  10.728 -0.0123  0.5801  0.0112
13194TIP3    H140464   1.981   0.858  10.687 -0.1872 -2.5591 -0.7487
13194TIP3    H240465   1.911   0.830  10.819 -0.1845 -3.1163 -0.8621
13195TIP3   OH240466   8.323   6.404   4.237  0.1839  0.2532  0.0256
13195TIP3    H140467   8.236   6.434   4.265 -0.0719 -0.3298 -0.1302
13195TIP3    H240468   8.376   6.406   4.317  0.4856  2.1467 -0.1732
13196TIP3   OH240469  10.708   5.154   1.750  0.3655 -0.3694 -0.0394
13196TIP3    H140470  10.740   5.160   1.840 -0.3260 -0.5206  0.2188
13196TIP3    H240471  10.633   5.096   1.755  0.1070 -0.0971 -0.6586
13197TIP3   OH240472   7.393   1.798   0.781  0.1525 -0.4588 -0.3115
13197TIP3    H140473   7.447   1.876   0.778 -2.2197  1.8299  4.7950
13197TIP3    H240474   7.452   1.729   0.812  0.8004  1.6462  3.8956
13198TIP3   OH240475   3.277   4.999   0.165 -0.0383 -0.0796  0.1756
13198TIP3    H140476   3.240   5.030   0.082  1.4425 -0.2904 -0.5929
13198TIP3    H240477   3.323   5.075   0.201 -1.1087  0.1662  1.0997
13199TIP3   OH240478   0.251   3.264   8.064  0.7442  0.5059  0.3443
13199TIP3    H140479   0.185   3.199   8.089 -0.9394  2.0094 -0.0225
13199TIP3    H240480   0.303   3.220   7.997  0.0257 -0.6671  0.5266
13200TIP3   OH240481   6.692   8.808   7.284  0.1575 -0.0161  0.7353
13200TIP3    H140482   6.698   8.715   7.263 -0.9004 -0.2080  1.2195
13200TIP3    H240483   6.704   8.852   7.199  0.3141 -0.6090  0.4457
13201TIP3   OH240484   9.518   2.000   1.152 -0.0556  0.2139  0.1888
13201TIP3    H140485   9.423   2.014   1.151 -0.0353  0.3840  0.4442
13201TIP3    H240486   9.530   1.914   1.114 -0.3069  0.2339  0.0605
13202TIP3   OH240487   1.180   6.139   1.928 -0.5811 -0.3418 -0.0837
13202TIP3    H140488   1.174   6.215   1.871 -2.1222 -0.8328 -0.6330
13202TIP3    H240489   1.251   6.087   1.892 -0.3421  0.2228 -0.4459
13203TIP3   OH240490   9.119   3.801   6.926 -0.6858 -0.1106  0.3035
13203TIP3    H140491   9.197   3.827   6.877  1.0025 -2.0327  1.8427
13203TIP3    H240492   9.099   3.877   6.981 -0.6251  0.8115 -0.8950
13204TIP3   OH240493   9.128   3.630   4.050 -0.4208 -0.8714  0.0233
13204TIP3    H140494   9.190   3.699   4.030 -1.4382  0.8844  2.4009
13204TIP3    H240495   9.052   3.647   3.994 -0.7662  0.1479  0.7766
13205TIP3   OH240496   7.468   8.643   7.599  0.3568  0.0212 -0.6111
13205TIP3    H140497   7.564   8.650   7.596  0.3766 -0.4412 -1.9015
13205TIP3    H240498   7.451   8.552   7.622  0.1844  0.5253  1.4557
13206TIP3   OH240499   2.742   3.840   6.454 -0.1157 -0.6393 -0.3808
13206TIP3    H140500   2.658   3.807   6.485 -0.8546 -0.0544 -1.6701
13206TIP3    H240501   2.803   3.822   6.525 -0.9388 -2.7284 -0.1153
13207TIP3   OH240502   4.106   4.075   4.464 -0.2212  0.4242  0.7686
13207TIP3    H140503   4.190   4.064   4.509  0.8642  2.0952 -0.7104
13207TIP3    H240504   4.120   4.148   4.404 -2.8335  0.9031  0.6232
13208TIP3   OH240505   5.980   4.116   7.120  0.7100 -0.1247 -0.0521
13208TIP3    H140506   6.052   4.173   7.149  0.1662  0.4916  0.1121
13208TIP3    H240507   5.997   4.100   7.028 -0.1730  1.9337 -0.6242
13209TIP3   OH240508   4.138   0.407   6.525  0.2833  0.1792 -0.4628
13209TIP3    H140509   4.138   0.411   6.620  1.1983  1.6594 -0.4893
13209TIP3    H240510   4.230   0.397   6.501  0.1012  0.1892 -1.1869
13210TIP3   OH240511   2.979  10.411   9.907  0.5412  0.2356 -0.7855
13210TIP3    H140512   2.926  10.489   9.926  0.6113 -0.0463  0.6731
13210TIP3    H240513   3.057  10.445   9.863  1.9966  1.4269  2.4038
13211TIP3   OH240514  10.017   7.195   7.082  0.5644  0.3090 -0.1432
13211TIP3    H140515  10.077   7.267   7.103 -0.0012  0.8307 -0.2834
13211TIP3    H240516   9.934   7.238   7.064  0.2707 -0.3720 -0.4333
13212TIP3   OH240517  10.628   5.434   4.394  0.4326 -0.3300 -0.2802
13212TIP3    H140518  10.688   5.439   4.469 -0.4086  1.2311  0.3417
13212TIP3    H240519  10.644   5.348   4.356  1.9566 -0.5595  0.7921
13213TIP3   OH240520   4.035   0.304   4.639 -0.4270 -0.5783  0.1936
13213TIP3    H140521   4.011   0.212   4.655 -0.2040 -0.5842  0.5023
13213TIP3    H240522   4.075   0.332   4.721  1.3907 -0.8008 -0.5675
13214TIP3   OH240523   3.929   4.091   9.043 -0.0050 -0.1213 -0.1585
13214TIP3    H140524   3.891   4.054   8.963 -0.8066 -2.9918  1.3886
13214TIP3    H240525   3.875   4.167   9.063  0.0569  0.5066 -2.1561
13215TIP3   OH240526   2.498   4.299   1.577  0.1764 -0.5438 -0.2336
13215TIP3    H140527   2.495   4.297   1.673  1.0320 -0.4393 -0.1998
13215TIP3    H240528   2.507   4.207   1.552  1.2410 -0.4666 -0.1587
13216TIP3   OH240529   4.677   4.086   4.794  0.4180  0.1482  1.0910
13216TIP3    H140530   4.706   4.079   4.704 -2.6841  2.2227 -0.2338
13216TIP3    H240531   4.740   4.144   4.836  1.7408 -0.6241  0.2281
13217TIP3   OH240532   8.034   2.352   3.950  0.0663 -0.0683 -0.3137
13217TIP3    H140533   8.021   2.357   3.855 -0.1575 -3.2555 -0.5583
13217TIP3    H240534   7.963   2.296   3.981  0.6306  0.2275  1.6172
13218TIP3   OH240535   8.213   4.055   4.370 -0.7303 -0.4240  0.0998
13218TIP3    H140536   8.133   4.009   4.393 -2.1650  1.5083 -0.7130
13218TIP3    H240537   8.189   4.148   4.376  1.2694  0.2019 -0.7826
13219TIP3   OH240538   3.305   6.048   7.413 -0.2872  0.6714  0.4386
13219TIP3    H140539   3.307   5.965   7.462  0.2402  1.1249  1.2192
13219TIP3    H240540   3.392   6.086   7.429  0.2557  0.4117 -1.6318
13220TIP3   OH240541   0.381   1.411   9.233  0.1030 -0.5010  0.4083
13220TIP3    H140542   0.340   1.333   9.271  3.1758 -2.0748  0.8325
13220TIP3    H240543   0.463   1.378   9.195  0.0128  2.0190 -2.3511
13221TIP3   OH240544   6.151   0.367   4.168 -0.8867  0.0247  0.1336
13221TIP3    H140545   6.138   0.447   4.117  0.0363  0.6530  0.8711
13221TIP3    H240546   6.235   0.332   4.139 -1.1913 -0.5857 -0.0449
13222TIP3   OH240547   3.971   4.768   1.768  0.2851  0.2975  0.4313
13222TIP3    H140548   3.910   4.695   1.780  0.5682  0.2761  1.9143
13222TIP3    H240549   3.937   4.837   1.824  0.9657  0.7086  0.3461
13223TIP3   OH240550   3.014   9.346  10.785  0.3530  0.0660  0.4482
13223TIP3    H140551   3.015   9.367  10.879 -0.6843 -1.3666  0.8224
13223TIP3    H240552   2.929   9.305  10.771  1.1774 -1.3188 -0.7484
13224TIP3   OH240553   6.086   1.096  10.098 -0.2771  0.0828 -0.5199
13224TIP3    H140554   6.103   1.157  10.026 -0.0686 -1.3068 -1.6768
13224TIP3    H240555   6.014   1.137  10.147 -1.3721  0.4221 -2.3076
13225TIP3   OH240556   8.884   4.435   2.595 -0.3270 -0.4432 -0.2457
13225TIP3    H140557   8.852   4.522   2.619 -0.1269 -1.2664  3.6305
13225TIP3    H240558   8.823   4.374   2.636  1.0385 -2.1151 -0.5739
13226TIP3   OH240559   7.328   5.078   3.857  0.1060 -0.0486 -0.2372
13226TIP3    H140560   7.308   5.061   3.949  0.2230  0.1620 -0.1710
13226TIP3    H240561   7.336   5.174   3.852  2.8219 -0.1661  0.1046
13227TIP3   OH240562   7.312  10.873   3.752 -0.4296 -0.5773  0.2003
13227TIP3    H140563   7.355  10.855   3.836 -1.8662 -1.1945  0.8455
13227TIP3    H240564   7.342  10.961   3.729  0.1517 -0.4725  1.2610
13228TIP3   OH240565   9.309   3.276   5.315 -0.5358 -0.6624 -0.2385
13228TIP3    H140566   9.271   3.267   5.402 -0.5132  2.1181  0.1275
13228TIP3    H240567   9.388   3.329   5.328  0.0322 -1.0548 -1.8278
13229TIP3   OH240568   0.514   6.361   2.165 -0.7686 -0.0428  0.8143
13229TIP3    H140569   0.544   6.342   2.076 -0.8654  0.2137  0.7261
13229TIP3    H240570   0.419   6.371   2.157 -0.6014  1.7146  0.6278
13230TIP3   OH240571   9.837   5.364   5.581 -0.1396 -0.3233 -0.7303
13230TIP3    H140572   9.804   5.439   5.531  0.6509 -0.2411 -1.1370
13230TIP3    H240573   9.907   5.399   5.636  0.0159 -0.6992 -0.6819
13231TIP3   OH240574   0.200   8.066   7.417 -0.2848 -0.3063  0.1155
13231TIP3    H140575   0.289   8.038   7.396 -0.0101  0.7968 -0.2405
13231TIP3    H240576   0.195   8.057   7.513 -0.4709 -2.2536 -0.0483
13232TIP3   OH240577   0.261   4.543   2.996 -0.3687  0.0151 -0.0347
13232TIP3    H140578   0.170   4.514   2.995  0.0411 -1.3456  0.0757
13232TIP3    H240579   0.300   4.497   3.071 -0.0442  2.0961  1.1540
13233TIP3   OH240580   6.614   1.397   0.551 -0.4178  0.1695 -0.4478
13233TIP3    H140581   6.575   1.392   0.464  1.0763 -2.0646 -1.0790
13233TIP3    H240582   6.693   1.449   0.540  0.3037 -0.9369 -0.7033
13234TIP3   OH240583   0.124   4.457   5.076 -1.2482  1.0673  0.3600
13234TIP3    H140584   0.063   4.511   5.025 -1.2279 -0.3757 -1.2884
13234TIP3    H240585   0.200   4.446   5.019 -1.1790 -0.5138  0.7147
13235TIP3   OH240586   0.298   7.264   3.316 -0.1424 -0.0839  0.3929
13235TIP3    H140587   0.392   7.253   3.298 -0.3078 -1.2213  0.1134
13235TIP3    H240588   0.295   7.302   3.404  0.5821 -0.5019  0.6089
13236TIP3   OH240589   8.007   3.352   5.345 -0.6165 -0.4771  0.0715
13236TIP3    H140590   8.022   3.413   5.273  0.5865 -1.3217 -0.4244
13236TIP3    H240591   7.957   3.281   5.306  0.6627 -1.2900 -0.1470
13237TIP3   OH240592   3.710   4.215   0.999 -0.0721  0.1829  0.1161
13237TIP3    H140593   3.762   4.196   1.077 -0.6752  2.6166  1.1962
13237TIP3    H240594   3.770   4.261   0.941  0.8229 -2.9212 -1.6409
13238TIP3   OH240595   2.372   6.586   6.197 -0.4252  0.2588  0.6946
13238TIP3    H140596   2.372   6.536   6.116  1.2531 -0.2150  0.9285
13238TIP3    H240597   2.282   6.615   6.209 -0.6896  0.3594 -1.3309
13239TIP3   OH240598   4.176   7.201   5.914 -0.3649 -0.0355 -0.0504
13239TIP3    H140599   4.243   7.150   5.869 -0.6941 -0.5322  0.0207
13239TIP3    H240600   4.189   7.180   6.007  0.2888  0.9552  0.1050
13240TIP3   OH240601   3.065   6.350   8.923  0.2688  0.4016 -0.8526
13240TIP3    H140602   2.982   6.307   8.901  0.4715  0.6249 -2.1855
13240TIP3    H240603   3.060   6.435   8.877 -0.0053  1.7127  1.4699
13241TIP3   OH240604   3.088   8.411   5.046  0.1623 -0.0836 -0.1081
13241TIP3    H140605   3.067   8.326   5.006 -1.5234 -0.1810  0.8381
13241TIP3    H240606   3.003   8.445   5.074  1.0414  0.7955  1.6964
13242TIP3   OH240607   2.216   7.723   4.359  0.3951  0.2436 -0.4280
13242TIP3    H140608   2.145   7.706   4.297  0.9471  1.3426 -1.3861
13242TIP3    H240609   2.185   7.796   4.412 -0.5805 -1.4402  1.4654
13243TIP3   OH240610   6.953   1.281   8.150  0.2583  0.0982 -0.2198
13243TIP3    H140611   7.031   1.336   8.141  0.8919 -0.6179  0.7231
13243TIP3    H240612   6.987   1.191   8.142 -0.5191 -0.2058 -0.1403
13244TIP3   OH240613   2.630   6.338   4.036 -0.3938  0.1996  0.5282
13244TIP3    H140614   2.693   6.328   3.965 -2.2396 -1.0053 -1.0504
13244TIP3    H240615   2.561   6.393   3.998 -0.3116  1.5265  2.2175
13245TIP3   OH240616   2.203   8.226   2.074 -0.1941 -0.0187  0.1960
13245TIP3    H140617   2.175   8.148   2.121  0.8763  0.6335  2.0466
13245TIP3    H240618   2.299   8.223   2.077 -0.1204  0.6999 -0.8688
13246TIP3   OH240619   2.937   7.556   3.253  0.6280  0.1497  0.3984
13246TIP3    H140620   2.913   7.644   3.224  2.3226  1.0036  1.4068
13246TIP3    H240621   3.008   7.570   3.316  0.2164 -1.8816  1.4217
13247TIP3   OH240622   6.626   2.449   2.513  0.1552  0.1385  0.0522
13247TIP3    H140623   6.633   2.354   2.523  0.3239  0.2606  1.3541
13247TIP3    H240624   6.554   2.474   2.570 -0.3508  0.7239 -0.8259
13248TIP3   OH240625   0.249   7.271   9.524 -0.7807 -0.2750 -0.4539
13248TIP3    H140626   0.212   7.323   9.453 -1.5446  1.4830  1.1492
13248TIP3    H240627   0.190   7.196   9.532 -1.6382  0.3664 -0.6169
13249TIP3   OH240628   6.676   0.845   0.407  0.0122 -0.4994 -0.6850
13249TIP3    H140629   6.732   0.831   0.484 -1.4130 -1.8342  0.1746
13249TIP3    H240630   6.651   0.937   0.412  0.6951 -0.3333 -0.0979
13250TIP3   OH240631   1.677   0.359   9.191  0.4547  0.1958  0.7594
13250TIP3    H140632   1.733   0.395   9.122  0.4273  0.6300  0.9566
13250TIP3    H240633   1.667   0.267   9.169 -0.0002  0.4431 -0.1241
13251TIP3   OH240634   6.367   8.441   3.534 -0.2521  0.3921 -0.0383
13251TIP3    H140635   6.324   8.415   3.453 -1.5427 -1.0358  1.0332
13251TIP3    H240636   6.341   8.532   3.547 -0.6734  0.3887 -0.8263
13252TIP3   OH240637   5.213   4.030   5.480  0.0541  0.5734 -0.2336
13252TIP3    H140638   5.219   3.994   5.392  1.1072  0.2059 -0.0253
13252TIP3    H240639   5.290   3.997   5.525 -0.6627  0.4440  0.9473
13253TIP3   OH240640   1.175   6.051   8.926  0.3873  0.1354 -0.5243
13253TIP3    H140641   1.157   6.128   8.872  1.5944  0.5338 -0.3769
13253TIP3    H240642   1.126   6.066   9.007  1.2167  1.1227 -0.1922
13254TIP3   OH240643   1.490   8.662   5.055  0.1157  0.6199  0.1222
13254TIP3    H140644   1.437   8.587   5.031 -1.0105  1.3187  0.3510
13254TIP3    H240645   1.578   8.640   5.025 -0.5477 -0.0261 -1.4708
13255TIP3   OH240646   3.583   9.944   8.661  0.2464  0.2244 -0.4294
13255TIP3    H140647   3.677   9.963   8.660  0.6770 -1.4479 -3.6403
13255TIP3    H240648   3.574   9.872   8.722  0.8442  1.0594  0.6886
13256TIP3   OH240649   3.737   4.012   6.482 -0.7643  0.0825  0.0885
13256TIP3    H140650   3.757   3.921   6.460  2.4990  1.1490 -2.0733
13256TIP3    H240651   3.752   4.060   6.400 -0.3397  2.8246  1.6559
13257TIP3   OH240652   2.403   6.155   8.018  0.1860  0.0868 -0.4244
13257TIP3    H140653   2.369   6.080   7.969 -0.6627  1.0950 -1.4390
13257TIP3    H240654   2.490   6.127   8.046 -0.9903 -2.1723  1.3068
13258TIP3   OH240655  10.423   2.929   1.562 -0.4892 -0.2035  0.1017
13258TIP3    H140656  10.512   2.917   1.592 -0.0301 -0.0799 -1.1462
13258TIP3    H240657  10.369   2.922   1.641  0.5351 -1.2186  0.7290
13259TIP3   OH240658   8.618   7.374   5.567 -0.1207 -0.0057  0.6346
13259TIP3    H140659   8.544   7.398   5.512  0.4994 -0.0940 -0.2587
13259TIP3    H240660   8.591   7.294   5.612 -0.8833  0.4356  0.9826
13260TIP3   OH240661   4.125   6.755   4.698 -0.7815 -0.3338  0.6145
13260TIP3    H140662   4.121   6.660   4.699  1.2751 -0.4557  1.2121
13260TIP3    H240663   4.044   6.783   4.742 -0.6223 -1.8536  1.9568
13261TIP3   OH240664   4.883   0.063   6.777  0.6591 -0.1614  0.2919
13261TIP3    H140665   4.870   0.130   6.844  0.5839 -0.5605  0.6806
13261TIP3    H240666   4.976   0.040   6.784  0.0800 -2.2605  2.2509
13262TIP3   OH240667  10.503   0.495   6.846 -0.7617  0.8686  0.0663
13262TIP3    H140668  10.427   0.439   6.862  0.6949 -1.1531  0.4831
13262TIP3    H240669  10.485   0.537   6.762 -1.5817 -0.9590 -0.7355
13263TIP3   OH240670   2.689   1.039   0.745 -0.6990  0.5592  0.1119
13263TIP3    H140671   2.769   1.043   0.692 -2.7515  0.5203 -3.2647
13263TIP3    H240672   2.705   0.967   0.807  1.8315  0.5686 -0.4228
13264TIP3   OH240673   7.423   0.333   1.073  0.1478 -0.2270  0.2378
13264TIP3    H140674   7.406   0.239   1.077  0.2298 -0.2613 -0.1476
13264TIP3    H240675   7.345   0.369   1.032  1.2193 -0.4688 -2.1971
13265TIP3   OH240676   8.463   0.429   9.993 -0.0812 -0.6321 -0.3459
13265TIP3    H140677   8.548   0.405   9.955  0.1097 -1.7020  0.6978
13265TIP3    H240678   8.399   0.382   9.939  0.1825 -2.0402  0.5101
13266TIP3   OH240679   2.026   9.536   6.089 -0.1656 -0.2871  0.3383
13266TIP3    H140680   2.052   9.588   6.012 -2.2396 -0.4568 -0.5393
13266TIP3    H240681   2.085   9.461   6.087  0.0133 -0.1448 -0.9504
13267TIP3   OH240682   8.693   9.371   1.907  0.0362 -0.3063  0.3380
13267TIP3    H140683   8.645   9.376   1.825  0.1939  2.4948  0.3275
13267TIP3    H240684   8.635   9.322   1.966 -0.2913 -1.9163 -1.2469
13268TIP3   OH240685   0.034   5.620   8.167  0.1506 -0.2420  0.4341
13268TIP3    H140686   0.051   5.555   8.236 -1.9341  0.9847  2.2130
13268TIP3    H240687   0.036   5.704   8.213  0.2389  0.7554 -1.3344
13269TIP3   OH240688   2.470   5.895   7.302 -0.2961  0.1580  0.3097
13269TIP3    H140689   2.449   5.831   7.234 -1.0718  0.6426  0.0822
13269TIP3    H240690   2.485   5.842   7.381 -1.1380 -0.3018  0.1750
13270TIP3   OH240691   7.897   0.454  10.679 -0.2186  0.1828 -0.5989
13270TIP3    H140692   7.910   0.379  10.621 -0.1381  0.0815 -0.4516
13270TIP3    H240693   7.881   0.415  10.765 -0.7593  0.3217 -0.6332
13271TIP3   OH240694   3.117   6.546   7.716 -0.7714 -0.6458 -0.0180
13271TIP3    H140695   3.191   6.487   7.732 -1.3398 -1.2650  0.3977
13271TIP3    H240696   3.106   6.594   7.798 -0.1160  0.2792 -0.4559
13272TIP3   OH240697   5.104   1.222   6.976  0.2532 -0.3699  0.4140
13272TIP3    H140698   5.133   1.242   7.065  1.4009  0.3889 -0.1105
13272TIP3    H240699   5.041   1.291   6.955  0.3879 -0.2421  0.4361
13273TIP3   OH240700   9.779   5.377   2.320 -0.4018 -0.1053  0.6359
13273TIP3    H140701   9.793   5.457   2.269 -0.4793 -0.3755  0.1828
13273TIP3    H240702   9.854   5.321   2.297 -0.7018 -0.4279  0.4205
13274TIP3   OH240703   9.149   0.334   4.394 -0.2799  0.1542 -0.5347
13274TIP3    H140704   9.115   0.376   4.315 -1.1379 -0.3994 -0.4741
13274TIP3    H240705   9.184   0.250   4.364 -1.0193 -0.2611 -0.2874
13275TIP3   OH240706   9.209   0.019   5.374  0.5789  0.6576  0.0398
13275TIP3    H140707   9.195  -0.032   5.454  1.0164 -2.1049 -1.4959
13275TIP3    H240708   9.122   0.046   5.346  0.3420  0.8707  0.9708
13276TIP3   OH240709   0.345   2.086   3.664  0.5129  0.2624 -0.4038
13276TIP3    H140710   0.296   2.156   3.621 -0.1800 -0.0151 -0.0855
13276TIP3    H240711   0.434   2.120   3.673 -0.2444  1.9106  1.5236
13277TIP3   OH240712   2.110   0.460   4.177  0.3220 -0.3752 -0.2319
13277TIP3    H140713   2.083   0.393   4.239 -1.0673 -0.6270 -1.0519
13277TIP3    H240714   2.141   0.411   4.100  2.5887 -0.0823  0.4103
13278TIP3   OH240715   0.605   3.532   7.513  0.0983 -0.4935  0.2299
13278TIP3    H140716   0.584   3.540   7.606 -0.4950  2.7779 -0.0753
13278TIP3    H240717   0.629   3.620   7.486  1.7430 -1.6262 -2.4339
13279TIP3   OH240718   8.397   9.734   2.909  1.2791  0.0324 -0.6076
13279TIP3    H140719   8.325   9.736   2.973  2.6503 -1.2482  1.0682
13279TIP3    H240720   8.355   9.756   2.826 -0.9243 -0.0029  0.4063
13280TIP3   OH240721   9.024   3.653   7.612  0.1589  0.2913 -0.2719
13280TIP3    H140722   9.042   3.740   7.577 -1.7946  0.5590 -0.7257
13280TIP3    H240723   8.953   3.666   7.674  0.1541 -0.9301  0.0146
13281TIP3   OH240724   8.799   4.740   7.577 -0.5514 -0.1377 -0.3052
13281TIP3    H140725   8.730   4.794   7.537 -0.1172  2.6979  2.3764
13281TIP3    H240726   8.881   4.783   7.551 -0.1353 -0.0467  1.0868
13282TIP3   OH240727   3.125   3.608   0.876  0.4407  0.6670 -0.2989
13282TIP3    H140728   3.047   3.628   0.824  0.8013  1.6977 -0.4589
13282TIP3    H240729   3.098   3.535   0.932  0.0250 -0.4009 -1.8577
13283TIP3   OH240730   9.712   4.319   2.328  0.0189 -0.2228 -0.4246
13283TIP3    H140731   9.638   4.327   2.388  0.3247 -1.2988  0.1236
13283TIP3    H240732   9.682   4.259   2.260  0.2388 -0.3131 -0.4435
13284TIP3   OH240733   5.053   6.624   0.704 -0.1852 -0.4464 -0.0793
13284TIP3    H140734   4.992   6.650   0.635  0.3835  0.1990 -0.3522
13284TIP3    H240735   5.083   6.707   0.741 -1.1979 -0.7900  1.5981
13285TIP3   OH240736   0.182   2.633   5.121  0.2949 -0.3014 -0.3304
13285TIP3    H140737   0.276   2.636   5.105  0.6745  1.7552  1.7715
13285TIP3    H240738   0.146   2.589   5.044  2.8008  0.1923 -1.8987
13286TIP3   OH240739   7.497   4.598   8.574  0.4532 -0.6287 -0.0165
13286TIP3    H140740   7.512   4.539   8.648  0.5862 -0.9354 -0.2866
13286TIP3    H240741   7.566   4.575   8.511  1.2039  0.5609  0.3308
13287TIP3   OH240742   7.529   0.048   9.683  0.2749 -0.4099  0.0541
13287TIP3    H140743   7.443   0.040   9.725  0.3115 -0.8068  0.0615
13287TIP3    H240744   7.585   0.085   9.751 -0.2423  1.3692 -0.4346
13288TIP3   OH240745   7.105   2.135   4.014 -0.3857  0.1845 -0.0881
13288TIP3    H140746   7.119   2.229   4.006 -0.5858  0.2328  0.1085
13288TIP3    H240747   7.168   2.107   4.081 -0.2279  0.1544 -0.2494
13289TIP3   OH240748  10.085   2.682   7.170 -0.5749 -0.2869  0.1966
13289TIP3    H140749  10.114   2.773   7.162  2.5078 -1.2816 -1.0934
13289TIP3    H240750  10.132   2.648   7.246 -0.6946 -1.1342 -0.0938
13290TIP3   OH240751   4.644   3.175   4.893  0.1757 -0.1834  0.0028
13290TIP3    H140752   4.633   3.269   4.905  1.7163  0.0782 -0.3890
13290TIP3    H240753   4.737   3.160   4.911  0.4679 -1.2600 -2.1322
13291TIP3   OH240754   1.927   5.227   7.287  0.3782  0.0492  0.0906
13291TIP3    H140755   1.964   5.283   7.355  1.5438 -1.3582  0.6658
13291TIP3    H240756   1.946   5.273   7.205  4.0272 -0.8199  0.2863
13292TIP3   OH240757   9.900   8.857   4.229  0.1251 -0.1527 -0.2274
13292TIP3    H140758   9.976   8.899   4.189 -0.6657  1.3603 -0.2328
13292TIP3    H240759   9.902   8.887   4.320  0.1167 -0.9546  0.0375
13293TIP3   OH240760   1.127   0.706  10.891  0.3847 -0.0926 -0.1684
13293TIP3    H140761   1.039   0.667  10.895 -0.0316  0.8977  0.8115
13293TIP3    H240762   1.117   0.781  10.833 -0.3573  2.1900  2.7040
13294TIP3   OH240763  10.220   1.544   8.601  0.4238  0.7047  0.6221
13294TIP3    H140764  10.144   1.494   8.631  0.2955  0.8023  0.4618
13294TIP3    H240765  10.294   1.506   8.648  0.2510  0.7285  0.9168
13295TIP3   OH240766   2.977   5.326   2.418 -1.3889  0.0991  0.3185
13295TIP3    H140767   2.945   5.412   2.392 -2.5426 -0.6444 -0.7924
13295TIP3    H240768   3.060   5.344   2.463 -0.3756  1.6317 -1.9674
13296TIP3   OH240769   4.137   0.610   5.324 -0.0889 -0.4372  0.2407
13296TIP3    H140770   4.216   0.556   5.324  0.6300  0.5687  1.1138
13296TIP3    H240771   4.081   0.571   5.391  1.5389  1.3677  2.8232
13297TIP3   OH240772   1.000   3.940   6.261  0.6761  0.4525 -0.5307
13297TIP3    H140773   0.940   4.012   6.242  1.1989  0.6981 -1.3304
13297TIP3    H240774   0.981   3.875   6.194  0.6196  0.1047 -0.1779
13298TIP3   OH240775   6.809  10.132   3.476 -0.0155 -0.3608  0.2744
13298TIP3    H140776   6.845  10.182   3.403  1.0985 -1.3057  0.1385
13298TIP3    H240777   6.886  10.113   3.531 -0.9864  1.4300  2.4085
13299TIP3   OH240778   3.200   9.625  10.029 -0.3701 -0.1103  0.1876
13299TIP3    H140779   3.197   9.638  10.124 -0.4768  0.7254  0.0803
13299TIP3    H240780   3.110   9.640  10.000  0.1387  2.4944 -0.3586
13300TIP3   OH240781   6.813   6.762   1.930 -0.1120 -0.5083  0.3949
13300TIP3    H140782   6.900   6.775   1.968 -0.1049  2.4283 -0.4352
13300TIP3    H240783   6.764   6.842   1.951 -2.5992 -1.9719  0.6555
13301TIP3   OH240784   1.593   5.362   0.649 -0.4665 -0.3150  0.8173
13301TIP3    H140785   1.582   5.315   0.732  1.1988  0.5528  1.5786
13301TIP3    H240786   1.509   5.405   0.635 -0.7328 -0.3447  2.1511
13302TIP3   OH240787   0.898  10.189   6.664  0.0583  0.4299  0.4933
13302TIP3    H140788   0.873  10.281   6.678 -0.4574  0.2450  0.8127
13302TIP3    H240789   0.833  10.155   6.603  1.1348  0.6793 -0.8515
13303TIP3   OH240790   4.696   8.386   6.880  0.9790  0.6041  0.2359
13303TIP3    H140791   4.782   8.424   6.894  1.6092 -0.1774 -1.3029
13303TIP3    H240792   4.652   8.392   6.965  2.1111  2.0729  0.7352
13304TIP3   OH240793   6.781   4.335   5.331  0.3346 -0.3598 -0.2060
13304TIP3    H140794   6.830   4.415   5.312  1.0532 -0.5110  0.8780
13304TIP3    H240795   6.846   4.265   5.327  0.0878 -0.6508  0.6302
13305TIP3   OH240796   3.571  10.704   0.022  0.0891  0.4017 -0.1496
13305TIP3    H140797   3.604  10.777   0.074 -0.3822 -0.0627  0.8382
13305TIP3    H240798   3.644  10.680  -0.035 -0.0303  2.1624 -1.0975
13306TIP3   OH240799   7.722   2.692   6.555  0.1345  0.3788 -0.0205
13306TIP3    H140800   7.812   2.696   6.521 -0.9182  4.1667 -3.2128
13306TIP3    H240801   7.721   2.757   6.626 -0.4190  1.7579 -1.2527
13307TIP3   OH240802   0.910   0.975   8.433  0.2230 -0.5187  0.3557
13307TIP3    H140803   0.991   0.939   8.399 -0.3786 -0.8155 -0.7991
13307TIP3    H240804   0.879   0.909   8.495  1.6157  0.2886  1.9969
13308TIP3   OH240805   4.425   2.816   3.481  0.7070  0.5626 -0.2957
13308TIP3    H140806   4.441   2.740   3.425 -1.4224  0.4721 -0.8960
13308TIP3    H240807   4.430   2.891   3.421 -0.2438  0.5859 -0.3654
13309TIP3   OH240808   5.714   8.770   4.432  0.3538  0.2466  0.4236
13309TIP3    H140809   5.733   8.864   4.432 -0.2335  0.3838 -0.4654
13309TIP3    H240810   5.746   8.740   4.347  0.4313 -0.3358  0.6585
13310TIP3   OH240811   1.329   0.764   0.216  0.3114 -0.2597  0.2120
13310TIP3    H140812   1.354   0.671   0.211  0.7932 -0.1254  0.0051
13310TIP3    H240813   1.260   0.774   0.151  2.2290  0.1249 -1.8825
13311TIP3   OH240814   1.672  10.606   4.603  0.0595  0.2105 -0.1308
13311TIP3    H140815   1.695  10.558   4.682 -1.6157 -1.1662 -0.4300
13311TIP3    H240816   1.722  10.688   4.609  1.8489 -0.9235  1.1133
13312TIP3   OH240817   9.720   3.669   7.579  0.4917  0.1122 -0.0672
13312TIP3    H140818   9.636   3.716   7.578  0.6024  0.3495  0.9693
13312TIP3    H240819   9.728   3.634   7.490 -1.1788 -0.7575  0.0654
13313TIP3   OH240820   8.552   8.603   5.937  0.1018 -0.3238 -0.0570
13313TIP3    H140821   8.602   8.541   5.989  1.1336  0.1164 -0.5007
13313TIP3    H240822   8.510   8.548   5.870 -1.4351 -0.9279  1.3216
13314TIP3   OH240823   9.593   7.346   8.416  0.1646  0.2872  0.5524
13314TIP3    H140824   9.678   7.390   8.410  0.7089 -0.5773  1.5416
13314TIP3    H240825   9.594   7.303   8.502 -0.8492 -0.6255  0.1342
13315TIP3   OH240826  10.586   2.830   2.888 -0.5258 -0.0098  0.4437
13315TIP3    H140827  10.630   2.912   2.910  1.5087 -0.5620 -1.3219
13315TIP3    H240828  10.616   2.768   2.955  0.7274 -0.1488 -0.2176
13316TIP3   OH240829   1.840   7.334   2.789  0.0124  0.7424  0.3207
13316TIP3    H140830   1.846   7.238   2.790 -0.3592  0.7127  1.6994
13316TIP3    H240831   1.927   7.363   2.815 -0.3685  0.7261  1.6631
13317TIP3   OH240832   6.047   4.543   6.857 -0.5135 -0.2066 -0.1608
13317TIP3    H140833   6.036   4.448   6.857  1.1637 -0.4416  1.4682
13317TIP3    H240834   6.093   4.561   6.775  1.5182 -1.1721  0.6975
13318TIP3   OH240835  10.889   6.110  10.805 -0.0108 -0.2269  0.1661
13318TIP3    H140836  10.926   6.171  10.869  1.0968  0.5447 -1.1490
13318TIP3    H240837  10.856   6.037  10.857 -1.4966  1.5255  1.8209
13319TIP3   OH240838  10.393  10.130   4.624 -0.2875 -0.3654 -0.5399
13319TIP3    H140839  10.451  10.087   4.561 -0.1918  0.3157 -0.9225
13319TIP3    H240840  10.328  10.175   4.571  0.5830  1.3483 -0.2302
13320TIP3   OH240841   7.491   0.982   2.459  0.0550  0.0715  0.0605
13320TIP3    H140842   7.489   0.944   2.371  0.9864  0.1552 -0.0024
13320TIP3    H240843   7.562   0.936   2.504 -1.0343 -0.6753  1.1088
13321TIP3   OH240844   2.131   4.877   7.067 -0.5939  0.4150 -0.1127
13321TIP3    H140845   2.132   4.858   7.161  2.2302 -0.5739 -0.2599
13321TIP3    H240846   2.221   4.901   7.046 -0.6692 -1.2838 -2.9106
13322TIP3   OH240847   7.695   6.967   1.676  0.0292 -0.7412 -0.2843
13322TIP3    H140848   7.636   6.923   1.614  0.3160 -0.4808 -0.7518
13322TIP3    H240849   7.708   6.904   1.746  0.0396 -1.2143 -0.7036
13323TIP3   OH240850   4.893   1.930   8.482 -0.1956  0.2474  0.1974
13323TIP3    H140851   4.972   1.984   8.493  0.6405 -0.2421 -2.6581
13323TIP3    H240852   4.896   1.901   8.391 -2.5170 -1.6819  0.6367
13324TIP3   OH240853   0.176   7.558   2.639  0.1909  0.3411 -0.4728
13324TIP3    H140854   0.228   7.625   2.594  1.3934 -0.3466 -0.1475
13324TIP3    H240855   0.207   7.560   2.729 -0.1230 -0.2933 -0.3476
13325TIP3   OH240856  10.848   0.737   9.947  0.2232 -0.3030 -0.4368
13325TIP3    H140857  10.862   0.830   9.927 -0.0519 -0.2316 -0.3039
13325TIP3    H240858  10.935   0.702   9.964  0.3050 -0.0175 -0.2699
13326TIP3   OH240859   0.537   6.345   6.724 -0.3112  0.5899 -0.0320
13326TIP3    H140860   0.579   6.370   6.642  0.6415  1.9074  0.8074
13326TIP3    H240861   0.610   6.337   6.786 -0.9677 -0.7602  0.6193
13327TIP3   OH240862   3.081   2.450   7.795 -0.7577  0.3518 -0.3330
13327TIP3    H140863   3.093   2.441   7.889  2.6244  0.6934 -0.6205
13327TIP3    H240864   3.072   2.360   7.763  2.2890 -0.1362 -0.0426
13328TIP3   OH240865   2.304   0.386   2.227  0.2655  0.2330 -0.6687
13328TIP3    H140866   2.270   0.308   2.270 -0.6367  0.5358 -0.8182
13328TIP3    H240867   2.399   0.376   2.232  0.1651 -0.6110 -0.2154
13329TIP3   OH240868  10.046   1.661   4.933 -0.2178 -0.5949 -0.1081
13329TIP3    H140869  10.015   1.609   5.007  0.3401  0.8847  1.2040
13329TIP3    H240870  10.141   1.653   4.936 -0.1657 -0.0710 -0.3232
13330TIP3   OH240871  10.894   0.036   1.681 -0.5525 -0.1674 -0.2113
13330TIP3    H140872  10.837  -0.037   1.657 -1.9378  0.0300  2.1357
13330TIP3    H240873  10.843   0.115   1.662 -0.0212  0.1232 -0.4850
13331TIP3   OH240874   5.593   1.326   8.867 -0.2956 -0.6169  0.0767
13331TIP3    H140875   5.510   1.373   8.878 -0.0035 -0.1755  0.4413
13331TIP3    H240876   5.623   1.309   8.957 -0.2015 -1.1585 -0.0506
13332TIP3   OH240877   9.795   4.186   5.182  0.3321  0.2154 -0.5446
13332TIP3    H140878   9.752   4.242   5.118  0.8750 -0.1995 -1.2833
13332TIP3    H240879   9.736   4.111   5.192 -0.9024  1.3424  1.2071
13333TIP3   OH240880   3.057   1.613   8.476 -0.2851  0.1962  0.3438
13333TIP3    H140881   2.966   1.587   8.468  0.0028 -0.3202 -1.6733
13333TIP3    H240882   3.102   1.536   8.510 -0.5829  0.4750  1.4112
13334TIP3   OH240883   8.659   8.471   2.971  0.0119 -0.4106  0.0866
13334TIP3    H140884   8.599   8.419   2.917 -0.1328 -0.1191 -0.0354
13334TIP3    H240885   8.638   8.562   2.949  1.2799 -0.3127 -0.8156
13335TIP3   OH240886   1.684   0.466   3.398 -0.1137 -0.3300 -0.3762
13335TIP3    H140887   1.702   0.389   3.345 -0.6356 -0.7019 -0.0135
13335TIP3    H240888   1.748   0.462   3.469  0.9695  0.4701 -1.2523
13336TIP3   OH240889   9.234   5.899   8.090 -0.3356 -0.1852  0.3856
13336TIP3    H140890   9.222   5.861   8.004 -2.6547 -1.1046  1.0520
13336TIP3    H240891   9.267   5.987   8.073  1.6772 -1.1842 -1.3000
13337TIP3   OH240892   3.501   9.577   9.187 -0.3435 -0.1983 -0.0786
13337TIP3    H140893   3.496   9.562   9.092 -1.2995 -0.1340 -0.0456
13337TIP3    H240894   3.521   9.671   9.195 -1.8316  0.1644 -0.2239
13338TIP3   OH240895   0.536   0.627   4.824  0.4424  0.4965 -0.0066
13338TIP3    H140896   0.591   0.552   4.848 -0.3586 -0.0335  0.1920
13338TIP3    H240897   0.448   0.591   4.816 -0.1939  1.6481  1.3377
13339TIP3   OH240898   1.731   9.782   7.881 -0.2254  0.5716 -0.3505
13339TIP3    H140899   1.809   9.729   7.894  0.2856  1.7345  1.8883
13339TIP3    H240900   1.669   9.751   7.947 -0.8357  1.1335 -0.6406
13340TIP3   OH240901   4.169   9.415   5.987  0.1715 -0.0108  0.3751
13340TIP3    H140902   4.194   9.350   6.053 -1.5053  0.7654  1.8661
13340TIP3    H240903   4.086   9.383   5.952  0.7795 -0.1270 -1.0072
13341TIP3   OH240904   8.030  10.053   5.421  0.3001  0.4172 -0.3923
13341TIP3    H140905   8.119  10.075   5.394  0.4687 -0.3468 -0.4774
13341TIP3    H240906   7.984  10.137   5.423  1.1092  0.8629 -0.0082
13342TIP3   OH240907   5.424  10.857   8.590 -0.6706 -0.1496  0.2571
13342TIP3    H140908   5.417  10.909   8.670  0.0363 -0.0040  0.2326
13342TIP3    H240909   5.384  10.773   8.612  0.0811 -0.3311  0.9692
13343TIP3   OH240910   8.372   8.730  10.466 -0.4682  0.3043 -0.0175
13343TIP3    H140911   8.392   8.749  10.375  0.7120  0.4152  0.2467
13343TIP3    H240912   8.277   8.734  10.472 -0.6001 -0.4189 -1.3948
13344TIP3   OH240913   6.234   5.012   5.321 -0.2584  0.3688  0.0528
13344TIP3    H140914   6.290   5.037   5.248  1.5356 -0.5149  1.0614
13344TIP3    H240915   6.259   4.922   5.341 -1.0927  0.3978  1.3836
13345TIP3   OH240916   4.997   5.583   8.735  0.4675  0.2704 -0.4121
13345TIP3    H140917   5.051   5.518   8.779  0.6535  0.6739 -0.0413
13345TIP3    H240918   4.936   5.531   8.681  1.3374 -0.1813 -0.9817
13346TIP3   OH240919   4.490   0.093   6.404 -0.1262  0.2002 -0.0739
13346TIP3    H140920   4.471   0.110   6.312 -1.0523 -1.0862 -0.1566
13346TIP3    H240921   4.499  -0.002   6.409 -0.8060  0.1764  1.2716
13347TIP3   OH240922   5.079   6.708   9.738 -0.0572 -0.4162 -0.1069
13347TIP3    H140923   5.047   6.676   9.653  0.2541 -0.3079 -0.2671
13347TIP3    H240924   5.119   6.793   9.718 -0.2172 -0.2687  0.1931
13348TIP3   OH240925   3.370   8.215   3.022 -0.5189 -0.3904 -0.0877
13348TIP3    H140926   3.461   8.199   3.047 -0.4910  0.2432  0.2233
13348TIP3    H240927   3.347   8.139   2.967  0.2921 -0.3942 -0.4383
13349TIP3   OH240928   8.111   3.888   9.409  0.5291  0.6231 -0.2749
13349TIP3    H140929   8.175   3.919   9.344 -0.6254  3.3231 -0.2493
13349TIP3    H240930   8.105   3.959   9.472 -0.6864 -0.6522  1.1043
13350TIP3   OH240931   6.808   2.164   1.659  0.5393 -0.9928 -0.4231
13350TIP3    H140932   6.795   2.245   1.708  0.6828 -0.6774 -0.9028
13350TIP3    H240933   6.814   2.096   1.727 -1.8221 -0.9429 -0.0686
13351TIP3   OH240934   1.037  10.289   6.046 -0.1703 -0.7416  0.6411
13351TIP3    H140935   1.058  10.287   6.139  1.3269 -1.6849  0.3089
13351TIP3    H240936   0.952  10.333   6.042  0.1577  0.1355  2.3588
13352TIP3   OH240937   0.699   7.020   2.590  0.0329  0.1637 -0.3232
13352TIP3    H140938   0.663   7.036   2.503  1.9367  1.4790 -0.9252
13352TIP3    H240939   0.709   7.107   2.629 -0.4415 -0.3751  1.0881
13353TIP3   OH240940   7.447   7.255   0.958  0.0060  0.5203  0.1377
13353TIP3    H140941   7.372   7.235   0.903  0.7265 -2.3742  0.0653
13353TIP3    H240942   7.455   7.180   1.017  1.7745  1.5769  1.3576
13354TIP3   OH240943   1.901   8.810   3.956  0.1934  0.2386 -0.7227
13354TIP3    H140944   1.991   8.778   3.954  0.1486  0.0374  0.0602
13354TIP3    H240945   1.859   8.770   3.880  0.7879  0.4111 -1.1452
13355TIP3   OH240946   9.092   2.900   9.710 -0.0706 -0.0861  0.0346
13355TIP3    H140947   9.169   2.848   9.736 -0.7171 -0.3184  1.5879
13355TIP3    H240948   9.089   2.971   9.773 -0.0661  1.0190 -1.1809
13356TIP3   OH240949   7.617   7.966   7.559 -0.2227 -0.2188  0.2751
13356TIP3    H140950   7.598   8.060   7.561 -0.3568 -0.2530  0.7439
13356TIP3    H240951   7.639   7.948   7.468  0.5450  0.4137  0.3238
13357TIP3   OH240952   6.807   9.703   3.631  0.8527  0.6867  0.0109
13357TIP3    H140953   6.874   9.646   3.592  1.2872  0.8389  0.5250
13357TIP3    H240954   6.856   9.776   3.668  0.3477  1.0765 -0.0803
13358TIP3   OH240955   1.256  10.394   1.520  0.5246 -0.6300 -0.3320
13358TIP3    H140956   1.229  10.392   1.611 -1.3973 -1.7518 -0.8687
13358TIP3    H240957   1.328  10.456   1.517 -1.9199  2.5377  1.2705
13359TIP3   OH240958   6.463   5.850   1.677  0.4492  0.3975  0.0822
13359TIP3    H140959   6.520   5.891   1.742  0.0967  0.4902  0.3385
13359TIP3    H240960   6.519   5.787   1.632  0.5383 -0.1502  0.9233
13360TIP3   OH240961   5.037   5.662   8.232 -0.8631  0.1168 -0.0811
13360TIP3    H140962   5.088   5.740   8.210 -0.1878  0.2124  1.6256
13360TIP3    H240963   4.989   5.687   8.312 -1.2403 -0.9599  0.0492
13361TIP3   OH240964   7.444   8.000   0.723 -0.2107 -0.1463 -0.3945
13361TIP3    H140965   7.407   8.080   0.759  0.9078 -0.2546  1.1266
13361TIP3    H240966   7.513   8.029   0.663 -0.1843  0.0389 -0.2738
13362TIP3   OH240967   6.062   6.820   1.464 -0.2021 -0.0591 -0.5097
13362TIP3    H140968   6.065   6.913   1.488  1.9629 -0.2172  0.0242
13362TIP3    H240969   5.994   6.815   1.397 -2.6973  1.3383  1.6645
13363TIP3   OH240970   5.914   0.762   5.963  0.1452  0.2430 -0.4659
13363TIP3    H140971   5.964   0.738   6.040 -0.2120 -2.6544 -1.0284
13363TIP3    H240972   5.845   0.820   5.996  2.5010  2.6515  0.6198
13364TIP3   OH240973   0.894   2.500   5.176 -0.8814 -0.5453  0.0093
13364TIP3    H140974   0.924   2.455   5.097  1.8188  2.5468 -0.9546
13364TIP3    H240975   0.940   2.457   5.247  0.1619 -0.5752 -0.6627
13365TIP3   OH240976   6.862   2.148   2.997  0.4523 -0.1532 -0.2902
13365TIP3    H140977   6.904   2.112   3.074 -0.2442  1.6940  1.0412
13365TIP3    H240978   6.929   2.206   2.958  1.2083 -1.9382 -1.8167
13366TIP3   OH240979   6.443   6.005   4.512  0.1024 -0.7478  0.1377
13366TIP3    H140980   6.500   5.944   4.466 -1.7390 -2.1141 -0.4450
13366TIP3    H240981   6.436   6.081   4.454 -0.3570 -1.4715 -0.7592
13367TIP3   OH240982   8.828   8.402   4.568 -0.5772  0.0242 -0.2187
13367TIP3    H140983   8.820   8.329   4.629 -1.1663  1.3755  1.4037
13367TIP3    H240984   8.918   8.433   4.581 -1.4702  1.9693  2.0569
13368TIP3   OH240985   2.475   4.689   0.318  0.0739 -0.1331 -0.3317
13368TIP3    H140986   2.516   4.712   0.402 -0.7316  0.0108  0.0300
13368TIP3    H240987   2.532   4.730   0.252  0.1597  0.6082  0.1911
13369TIP3   OH240988   3.634   2.616   3.624 -0.0245  0.1614  0.0152
13369TIP3    H140989   3.667   2.691   3.673  0.6734 -0.6053  0.7520
13369TIP3    H240990   3.667   2.539   3.671  0.4912 -0.6098 -1.5035
13370TIP3   OH240991   8.934  10.876  10.412 -0.5172 -0.0051 -0.0019
13370TIP3    H140992   8.979  10.961  10.417 -0.2208 -0.1921  0.6575
13370TIP3    H240993   8.843  10.898  10.391 -0.2280  0.4086 -0.8601
13371TIP3   OH240994   4.598   1.863   0.576 -0.7375 -0.0061 -0.3575
13371TIP3    H140995   4.618   1.780   0.533 -0.7092  0.4220 -1.1931
13371TIP3    H240996   4.635   1.854   0.664 -1.1907 -1.0695 -0.2583
13372TIP3   OH240997  10.437   9.022   6.846 -0.6545  0.0703  0.2712
13372TIP3    H140998  10.482   8.978   6.919  0.8309  0.0765 -0.5935
13372TIP3    H240999  10.460   8.970   6.769  0.7816  2.0163 -0.7106
13373TIP3   OH241000   4.037   8.019   4.605 -0.0258  0.2879 -0.3636
13373TIP3    H141001   4.014   8.111   4.596  0.6554  0.3280 -2.1485
13373TIP3    H241002   4.123   8.011   4.563  0.6047 -0.9005  1.0602
13374TIP3   OH241003   5.876  10.403   6.492  1.1876  0.0432 -0.1019
13374TIP3    H141004   5.939  10.458   6.538  1.5400  1.5370 -2.2533
13374TIP3    H241005   5.926  10.324   6.469  1.1899 -0.4248  1.3631
13375TIP3   OH241006  10.323   5.868   3.396 -0.0996 -0.2709 -0.2579
13375TIP3    H141007  10.270   5.897   3.321  1.0612  1.0705 -0.5956
13375TIP3    H241008  10.335   5.947   3.448  0.5135 -0.8425  0.4716
13376TIP3   OH241009   3.688  10.228   3.957 -0.1121  0.0625  0.0818
13376TIP3    H141010   3.614  10.214   3.896  0.2328 -0.3758 -0.2410
13376TIP3    H241011   3.707  10.322   3.949  1.5273 -0.3835 -2.3833
13377TIP3   OH241012   4.781   8.480   1.480  0.5281  0.2494 -0.0257
13377TIP3    H141013   4.833   8.400   1.474 -1.4849 -1.3309  1.8115
13377TIP3    H241014   4.735   8.486   1.396  1.2806 -0.0792 -0.4661
13378TIP3   OH241015   9.489  10.470   8.868 -0.1494  0.1637  0.6909
13378TIP3    H141016   9.465  10.433   8.953  1.1937 -1.7169  0.3128
13378TIP3    H241017   9.405  10.491   8.827 -1.2482 -4.1090  0.2967
13379TIP3   OH241018   9.356   8.057   7.366  0.0381 -0.5092  0.2575
13379TIP3    H141019   9.320   8.006   7.294  0.7823 -0.8553  0.1129
13379TIP3    H241020   9.297   8.132   7.375 -1.1023 -1.4135  0.5123
13380TIP3   OH241021   2.413  10.897   9.277  0.3658 -0.1131 -0.0824
13380TIP3    H141022   2.364  10.979   9.267  3.2575  1.9338  1.1164
13380TIP3    H241023   2.356  10.842   9.331 -2.4994  0.2043 -2.4935
13381TIP3   OH241024   9.139   1.992   1.888 -0.2142  0.3931 -0.2661
13381TIP3    H141025   9.140   1.897   1.878 -0.3020  0.3107  0.4801
13381TIP3    H241026   9.147   2.007   1.982  0.1933  1.1352 -0.4076
13382TIP3   OH241027   7.595   4.212   0.547 -0.0543  0.5983 -0.0881
13382TIP3    H141028   7.581   4.165   0.465 -0.9168  1.6754 -0.5922
13382TIP3    H241029   7.608   4.144   0.612  1.4002 -0.2735 -1.2304
13383TIP3   OH241030   7.933   5.889   0.487 -0.1621 -0.2014 -0.2469
13383TIP3    H141031   7.987   5.823   0.445 -1.9814 -1.0231 -1.4210
13383TIP3    H241032   7.923   5.958   0.422  3.5063  2.4778  1.6806
13384TIP3   OH241033   2.431   9.344   4.243  0.3839 -0.0978  0.3060
13384TIP3    H141034   2.368   9.358   4.171 -0.1846 -1.5768  0.4637
13384TIP3    H241035   2.467   9.430   4.261 -0.3061  0.4956 -0.9997
13385TIP3   OH241036  10.412   4.933   9.141  0.3897  0.0924 -0.2345
13385TIP3    H141037  10.407   4.997   9.070 -3.6417  0.4099  0.0755
13385TIP3    H241038  10.444   4.982   9.217  0.4211  0.9028 -0.7720
13386TIP3   OH241039   7.966  10.852   5.849 -0.1361  0.1017  0.0690
13386TIP3    H141040   7.946  10.932   5.800 -1.1559  0.1472  0.5498
13386TIP3    H241041   7.935  10.869   5.938 -0.2247 -0.7672  0.2132
13387TIP3   OH241042   6.767   1.943   2.504  0.2793  0.5263 -0.3025
13387TIP3    H141043   6.861   1.950   2.492  0.4431 -2.4008 -1.8345
13387TIP3    H241044   6.734   1.914   2.418 -1.7125 -0.4905  0.7273
13388TIP3   OH241045   6.221  10.247   9.778  0.6425 -0.1809 -0.0510
13388TIP3    H141046   6.240  10.269   9.869  1.3636  0.7875 -0.4261
13388TIP3    H241047   6.271  10.167   9.761  0.7143 -0.2133  0.3150
13389TIP3   OH241048   0.576   5.285   4.960 -0.8965 -0.3508  0.8225
13389TIP3    H141049   0.663   5.250   4.982 -0.8608 -0.7642  0.0506
13389TIP3    H241050   0.589   5.332   4.878 -1.2818  0.1164  1.0232
13390TIP3   OH241051   8.483   6.773   3.227  0.0107  0.4443  0.1403
13390TIP3    H141052   8.525   6.788   3.142 -1.9150  0.7224 -0.8133
13390TIP3    H241053   8.391   6.760   3.206 -0.5106  0.5136  2.2070
13391TIP3   OH241054   4.854   2.665   8.046 -0.5165  0.0101 -0.3543
13391TIP3    H141055   4.869   2.579   8.086 -1.9486  0.6860  1.7910
13391TIP3    H241056   4.814   2.645   7.961 -0.3614 -1.4360 -0.1169
13392TIP3   OH241057   8.270   0.969  10.513 -0.1506  0.1668  0.7528
13392TIP3    H141058   8.323   0.906  10.562 -0.8137 -0.4846  0.6411
13392TIP3    H241059   8.224   0.917  10.448  0.6476  0.9946 -0.5435
13393TIP3   OH241060   7.893   3.212   6.467 -0.8241  1.0457 -0.0648
13393TIP3    H141061   7.920   3.150   6.535  1.2777  1.3139 -0.5806
13393TIP3    H241062   7.811   3.176   6.433 -0.7670 -0.2766  1.0872
13394TIP3   OH241063   1.328  10.049   0.179 -0.3416  0.2385  0.7229
13394TIP3    H141064   1.268  10.118   0.208 -0.1410  0.0796  1.5694
13394TIP3    H241065   1.300  10.027   0.091 -1.0111  0.7394  0.8041
13395TIP3   OH241066   3.573   8.619   4.087  0.1265 -0.3721 -0.0246
13395TIP3    H141067   3.652   8.608   4.034  0.1186 -0.7802  0.0483
13395TIP3    H241068   3.600   8.595   4.175 -0.2002 -0.9840 -0.0883
13396TIP3   OH241069   9.771   2.612   6.181 -0.2227 -0.4734  0.1617
13396TIP3    H141070   9.817   2.556   6.243  1.8577  1.2272  0.2559
13396TIP3    H241071   9.828   2.688   6.169 -2.4093  1.1642 -0.7566
13397TIP3   OH241072   0.141   2.284   4.257 -0.2978 -0.8469  0.0108
13397TIP3    H141073   0.091   2.345   4.312  0.6919  0.1056 -0.1061
13397TIP3    H241074   0.152   2.331   4.174 -0.8829 -1.8501 -0.6540
13398TIP3   OH241075   4.263   2.810   5.822  0.2109 -0.0001 -0.1723
13398TIP3    H141076   4.308   2.728   5.801 -0.1909 -0.2262 -0.1514
13398TIP3    H241077   4.172   2.785   5.836  0.1165  0.4279 -0.0051
13399TIP3   OH241078   0.254  10.684   5.106  0.2792  0.0123  1.3833
13399TIP3    H141079   0.331  10.694   5.162  0.4682 -0.4720  1.2173
13399TIP3    H241080   0.274  10.736   5.028  0.2517  0.2380  1.5262
13400TIP3   OH241081   9.973   3.265   0.175 -0.3914 -0.3430 -0.0575
13400TIP3    H141082   9.943   3.321   0.247 -0.3821  0.5838 -0.7516
13400TIP3    H241083   9.894   3.218   0.147 -0.2812 -1.1155  0.8973
13401TIP3   OH241084   5.615   1.727   5.586 -0.3584  0.5565  0.0468
13401TIP3    H141085   5.615   1.633   5.566 -2.0620  0.6444 -0.4635
13401TIP3    H241086   5.677   1.764   5.523  0.0619 -0.1685  0.0179
13402TIP3   OH241087   1.345   4.083   7.633 -0.3533  0.1480  0.5837
13402TIP3    H141088   1.399   4.109   7.708 -0.6794 -0.7669  1.1539
13402TIP3    H241089   1.261   4.059   7.672 -0.9321  0.8154 -0.2160
13403TIP3   OH241090   0.717  10.423   2.858  0.2905  0.1365 -0.4332
13403TIP3    H141091   0.786  10.486   2.839  0.7948 -0.2148  0.1787
13403TIP3    H241092   0.638  10.462   2.822  0.5020  1.3551  0.3629
13404TIP3   OH241093   7.562   3.327   3.832  0.1499  0.4760 -0.2580
13404TIP3    H141094   7.608   3.354   3.752  0.9098  1.2073  0.4135
13404TIP3    H241095   7.602   3.243   3.855  1.6225  1.3984  0.6640
13405TIP3   OH241096   7.189   6.327   8.285 -0.0548 -0.0473  0.0281
13405TIP3    H141097   7.259   6.375   8.330  0.3051 -0.1678 -0.3978
13405TIP3    H241098   7.235   6.261   8.233 -0.1313  2.2220 -3.2414
13406TIP3   OH241099   0.747   0.807   5.160 -0.4210  0.0588 -0.6113
13406TIP3    H141100   0.806   0.764   5.098 -2.0287 -1.7046 -0.9898
13406TIP3    H241101   0.736   0.895   5.125 -0.3814 -0.5349 -2.2080
13407TIP3   OH241102   1.799   4.795   0.250  0.1533  0.0187  0.2147
13407TIP3    H141103   1.708   4.795   0.219  0.1196  0.5855  0.3052
13407TIP3    H241104   1.835   4.711   0.219 -0.3378 -0.1166  0.0018
13408TIP3   OH241105   5.147   5.079   9.926  0.3684  0.4246  0.3723
13408TIP3    H141106   5.126   5.072  10.019  0.3317  1.7387  0.4866
13408TIP3    H241107   5.171   5.171   9.914  2.7460 -0.2314 -0.4435
13409TIP3   OH241108   7.692   8.636   6.719  0.3352  0.3575  0.4333
13409TIP3    H141109   7.747   8.565   6.687 -1.2388  0.4782 -2.8580
13409TIP3    H241110   7.730   8.715   6.681 -0.8653  0.6604 -0.1890
13410TIP3   OH241111   3.813   7.622   1.213 -0.1586 -0.3255 -0.3569
13410TIP3    H141112   3.902   7.612   1.181  0.5539  0.4906  1.2471
13410TIP3    H241113   3.820   7.683   1.287 -2.1559  0.3645 -0.6515
13411TIP3   OH241114   6.918  10.738   1.356  0.1691 -0.0218 -0.5381
13411TIP3    H141115   6.989  10.684   1.323  0.9828  1.5638 -1.4922
13411TIP3    H241116   6.844  10.720   1.297  0.4256 -0.1155 -0.8317
13412TIP3   OH241117   5.081   4.483   1.465 -0.0677 -0.7676 -0.1495
13412TIP3    H141118   5.128   4.556   1.426 -1.3801  0.4934  0.5077
13412TIP3    H241119   5.089   4.411   1.402  2.1981 -0.4314 -0.2956
13413TIP3   OH241120   7.327   9.306   2.048  0.1955 -0.3601 -0.3458
13413TIP3    H141121   7.320   9.278   2.140  1.9206 -2.0520 -0.6799
13413TIP3    H241122   7.237   9.308   2.017 -0.3986 -0.1023  1.2664
13414TIP3   OH241123   2.138   9.514  10.523 -0.2083  0.4708  0.0354
13414TIP3    H141124   2.150   9.420  10.541  1.0972  0.2530 -1.6980
13414TIP3    H241125   2.045   9.530  10.542 -0.9331 -1.6103 -1.3579
13415TIP3   OH241126   1.758   4.935   3.048  0.5285 -0.1407  0.0151
13415TIP3    H141127   1.732   4.993   2.976 -0.8945  0.2526  0.7962
13415TIP3    H241128   1.749   4.990   3.127  0.9822 -0.8780  0.5879
13416TIP3   OH241129   5.349   3.957   0.465 -0.5385 -1.0200  0.2180
13416TIP3    H141130   5.426   3.906   0.491 -1.7014 -2.8769  0.2550
13416TIP3    H241131   5.347   3.948   0.369 -0.9184 -1.3014  0.2521
13417TIP3   OH241132  10.801   4.035   0.626 -0.7309 -0.5230  0.3083
13417TIP3    H141133  10.888   4.069   0.649  0.0589 -1.5330 -1.0105
13417TIP3    H241134  10.760   4.106   0.577 -1.4825  0.7243  2.6414
13418TIP3   OH241135   6.422   1.015   6.051 -0.5030 -0.4044 -0.5171
13418TIP3    H141136   6.508   1.022   6.009  0.0554  0.4347  0.7155
13418TIP3    H241137   6.360   1.012   5.977  0.3249  2.4602 -1.5038
13419TIP3   OH241138   7.714   5.827   7.900 -0.5130 -0.0587 -0.4074
13419TIP3    H141139   7.637   5.825   7.956 -0.1121 -1.0707  0.1362
13419TIP3    H241140   7.692   5.890   7.832 -1.7054 -0.1131 -0.1045
13420TIP3   OH241141   8.553   0.429   1.625  0.2406  0.4332 -0.5983
13420TIP3    H141142   8.465   0.465   1.614  0.7930  1.4107 -2.0996
13420TIP3    H241143   8.539   0.341   1.660 -1.2724  0.9686  0.2279
13421TIP3   OH241144   3.517   0.110   5.145  0.4070  0.0410 -0.1617
13421TIP3    H141145   3.540   0.020   5.124  1.0263  0.3106 -0.6359
13421TIP3    H241146   3.430   0.103   5.186  0.2729 -0.7237 -0.5603
13422TIP3   OH241147  10.508   9.292   1.424 -0.6830  0.1832 -0.1540
13422TIP3    H141148  10.555   9.209   1.428  1.4811  1.3774  0.8733
13422TIP3    H241149  10.424   9.270   1.384 -0.2371 -2.5033  0.2046
13423TIP3   OH241150   6.788   8.079   8.692 -0.2493 -0.2823  0.5504
13423TIP3    H141151   6.841   8.014   8.647  0.5842  0.1641  0.8683
13423TIP3    H241152   6.698   8.049   8.681 -0.0085 -0.5629 -0.7926
13424TIP3   OH241153   6.464   2.067   5.027  0.1631 -0.0490 -0.0773
13424TIP3    H141154   6.373   2.095   5.022 -0.7731 -2.5286  1.4118
13424TIP3    H241155   6.460   1.972   5.024  2.8106 -0.2224 -0.8597
13425TIP3   OH241156   4.792   3.792  10.174 -0.0794  0.3456  0.0761
13425TIP3    H141157   4.845   3.757  10.245 -0.1026  0.0956 -0.0291
13425TIP3    H241158   4.704   3.759  10.191 -0.4509  1.6789  0.8798
13426TIP3   OH241159  10.050   5.672   4.170 -0.3148  0.6615  0.4096
13426TIP3    H141160  10.020   5.626   4.092 -1.2997  0.8720  0.6477
13426TIP3    H241161   9.970   5.684   4.223  0.3580  0.3504  1.5276
13427TIP3   OH241162   2.441   2.940   3.056  0.2464  0.2099 -0.5085
13427TIP3    H141163   2.385   2.987   3.116 -1.3278 -1.5961 -0.4556
13427TIP3    H241164   2.381   2.892   2.999  1.7177 -1.0895 -1.0577
13428TIP3   OH241165   5.028   2.034   0.330  0.4871  0.2792 -0.1166
13428TIP3    H141166   5.031   1.943   0.300 -2.5534  0.0415  0.0527
13428TIP3    H241167   4.938   2.047   0.358  1.1740  2.9862  1.1288
13429TIP3   OH241168   1.901   9.996   7.814 -0.0912  0.0079  0.1946
13429TIP3    H141169   1.954   9.962   7.742 -1.9832  0.8245 -1.7233
13429TIP3    H241170   1.840   9.925   7.834 -0.6262  0.3623 -0.1569
13430TIP3   OH241171   8.688   0.497   1.365 -0.2102  0.0675  0.3505
13430TIP3    H141172   8.668   0.405   1.383  0.4301 -0.1705 -0.1217
13430TIP3    H241173   8.613   0.545   1.401 -1.2884 -0.7358 -0.7458
13431TIP3   OH241174   9.137   9.285  10.892 -0.2690  0.1166 -0.6147
13431TIP3    H141175   9.136   9.252  10.982 -1.5381 -0.5510 -0.8478
13431TIP3    H241176   9.206   9.351  10.891 -0.5247  0.4408  0.9520
13432TIP3   OH241177   0.133   6.121   8.886  0.1671  0.1577 -0.1078
13432TIP3    H141178   0.157   6.169   8.965  1.3172  0.4860 -0.6450
13432TIP3    H241179   0.070   6.178   8.841  0.3758  0.4784  0.0060
13433TIP3   OH241180   0.620   4.373   9.347  0.1446  0.0086 -0.5162
13433TIP3    H141181   0.609   4.468   9.342 -0.4834  0.1849  2.4889
13433TIP3    H241182   0.667   4.350   9.267 -0.2669  2.7425 -1.6440
13434TIP3   OH241183   1.470   0.759   3.590  0.3723  0.2215  0.2675
13434TIP3    H141184   1.454   0.732   3.681  0.0821  1.1045  0.4994
13434TIP3    H241185   1.382   0.778   3.556  0.4518 -0.4566 -0.3140
13435TIP3   OH241186   7.159   7.204  10.340 -0.2669 -0.0346  0.5556
13435TIP3    H141187   7.074   7.195  10.384 -1.1758 -1.5070 -1.3423
13435TIP3    H241188   7.186   7.113  10.324  0.5795  0.4383 -0.8286
13436TIP3   OH241189   1.386   6.340   3.512 -0.3037  0.0678 -0.3152
13436TIP3    H141190   1.388   6.291   3.429 -1.4878 -1.9730  0.7689
13436TIP3    H241191   1.300   6.382   3.514  0.4641  1.7460 -0.9457
13437TIP3   OH241192   6.814   9.505   9.580  0.2339  0.0508  0.2354
13437TIP3    H141193   6.811   9.420   9.536 -0.7164 -0.8614  1.9570
13437TIP3    H241194   6.903   9.512   9.613  0.7243  0.3881 -1.0918
13438TIP3   OH241195   2.235   2.732   1.349 -0.2325  0.4052 -0.0760
13438TIP3    H141196   2.266   2.646   1.321 -1.9213 -1.5486  3.4170
13438TIP3    H241197   2.152   2.745   1.303 -0.4683 -0.3388  0.1361
13439TIP3   OH241198   6.380   6.090   6.893  0.2647 -0.3797  0.6399
13439TIP3    H141199   6.315   6.144   6.938 -0.0808 -1.0961  1.0179
13439TIP3    H241200   6.331   6.015   6.859  0.6970 -0.3513 -0.0814
13440TIP3   OH241201   8.722   6.890   1.017  0.1195 -0.6296 -0.2486
13440TIP3    H141202   8.806   6.848   1.039 -0.0505 -0.4162  0.8501
13440TIP3    H241203   8.735   6.923   0.928  1.4811  0.0834  0.1853
13441TIP3   OH241204   3.063   2.859   2.414  0.2617  0.5204 -0.0788
13441TIP3    H141205   3.033   2.843   2.324 -0.9902 -2.1471  0.6834
13441TIP3    H241206   2.996   2.915   2.452  0.2733  0.8472 -0.5360
13442TIP3   OH241207   7.928   8.700   1.001  0.2464  0.3862 -0.1076
13442TIP3    H141208   7.856   8.760   1.020  0.0882  0.3805 -0.6619
13442TIP3    H241209   7.915   8.627   1.061  0.7261  1.1272  0.9202
13443TIP3   OH241210   2.637   9.206   0.516  0.4586  0.3460 -0.4559
13443TIP3    H141211   2.631   9.300   0.533  0.3719  0.2557  0.0127
13443TIP3    H241212   2.547   9.179   0.499  0.2150  0.0261  1.1548
13444TIP3   OH241213   4.424   5.300   1.969 -0.7078  0.3872 -0.2651
13444TIP3    H141214   4.518   5.315   1.980 -0.8076  0.0389  1.3516
13444TIP3    H241215   4.390   5.297   2.059 -1.9150 -1.7127 -0.7435
13445TIP3   OH241216   3.483   4.491   2.008  0.9505 -0.0224 -0.4548
13445TIP3    H141217   3.447   4.456   2.090  1.5401  0.0413 -0.1619
13445TIP3    H241218   3.464   4.424   1.943 -0.4762  0.3966 -0.5012
13446TIP3   OH241219   1.126   9.306   4.369  0.2743 -0.5163 -0.1181
13446TIP3    H141220   1.100   9.215   4.386 -0.5129 -0.1741  0.5698
13446TIP3    H241221   1.071   9.358   4.428 -0.5089  0.5355 -1.7195
13447TIP3   OH241222   5.058   4.561   0.828  0.0359  1.1071 -0.1009
13447TIP3    H141223   5.066   4.622   0.902  0.0402  1.4158 -0.3559
13447TIP3    H241224   5.046   4.475   0.869 -1.7424  1.5005  0.2886
13448TIP3   OH241225   7.115   1.138   7.541  0.7304  0.3277  0.2061
13448TIP3    H141226   7.203   1.100   7.554  0.4425 -0.4790 -0.1086
13448TIP3    H241227   7.131   1.228   7.514  1.4164  1.3543  3.5635
13449TIP3   OH241228   4.508   2.789   0.645 -0.6550  0.2763  0.3021
13449TIP3    H141229   4.543   2.743   0.569 -2.1522  0.4738 -0.5694
13449TIP3    H241230   4.546   2.876   0.640 -2.4937  1.0761 -1.6685
13450TIP3   OH241231   6.825   6.662   4.899  0.8567  0.0849  0.1836
13450TIP3    H141232   6.864   6.654   4.987 -0.4487 -0.8121  0.7153
13450TIP3    H241233   6.818   6.756   4.885  1.0394  0.2492  1.0884
13451TIP3   OH241234   2.415   1.500   8.372 -0.4915  0.3785  0.0667
13451TIP3    H141235   2.434   1.525   8.282 -3.1740  1.2998 -0.3336
13451TIP3    H241236   2.408   1.404   8.370 -3.1704  0.5030 -1.4026
13452TIP3   OH241237   1.316   7.037   3.625  0.4616  0.7549  0.0497
13452TIP3    H141238   1.287   7.007   3.539  1.3816 -0.6816  0.2198
13452TIP3    H241239   1.290   7.129   3.628 -0.8078  0.4650 -1.2119
13453TIP3   OH241240   4.114   8.762   4.625 -0.0074 -0.2493  0.2100
13453TIP3    H141241   4.059   8.761   4.703 -1.0572 -1.9156 -0.4908
13453TIP3    H241242   4.107   8.852   4.592 -0.4384  0.1803  1.4020
13454TIP3   OH241243   2.389   5.348   8.042 -0.1973 -0.0650 -0.2179
13454TIP3    H141244   2.459   5.294   8.005 -0.6653 -2.0379  1.6028
13454TIP3    H241245   2.346   5.292   8.106 -0.7997  2.4395  1.7497
13455TIP3   OH241246   3.845   1.109   7.879 -0.5455 -0.4927  0.2497
13455TIP3    H141247   3.784   1.050   7.923  0.4020 -0.5542  1.5605
13455TIP3    H241248   3.867   1.174   7.946  1.0605 -0.6581 -0.0799
13456TIP3   OH241249   1.120   0.172   0.813 -0.5773  0.3764 -0.1407
13456TIP3    H141250   1.193   0.145   0.869 -0.4924 -4.4495 -2.0740
13456TIP3    H241251   1.050   0.195   0.874  0.2885 -2.1960  2.0385
13457TIP3   OH241252   1.847   8.855   4.439 -0.1403  0.6122 -0.0565
13457TIP3    H141253   1.891   8.778   4.403  0.0721 -0.1052  1.6495
13457TIP3    H241254   1.870   8.855   4.532 -0.7380  2.3364  0.1342
13458TIP3   OH241255   9.988   8.314   0.684  0.2076  0.9827 -0.1926
13458TIP3    H141256   9.956   8.395   0.724  1.1953  1.4637 -0.3501
13458TIP3    H241257  10.041   8.273   0.753 -1.0804 -0.0560  0.2404
13459TIP3   OH241258   0.986   0.939   8.018 -0.1370 -0.6640 -0.4146
13459TIP3    H141259   0.992   1.033   8.038 -2.2972 -1.0738  2.7855
13459TIP3    H241260   0.924   0.935   7.945 -0.6390  0.3734 -0.0717
13460TIP3   OH241261   3.169   1.481   3.238 -0.3285 -0.5622  0.6784
13460TIP3    H141262   3.253   1.452   3.273 -1.4929 -3.0352  1.6407
13460TIP3    H241263   3.153   1.425   3.162 -0.3257  1.1096 -0.6164
13461TIP3   OH241264   8.502   1.393   0.694 -0.0553  0.4842 -0.3897
13461TIP3    H141265   8.593   1.419   0.680 -0.2771  0.3224 -2.4084
13461TIP3    H241266   8.483   1.333   0.622 -2.0696  1.3496 -0.6576
13462TIP3   OH241267   2.137   9.352   2.959  0.1069  0.5292 -0.2753
13462TIP3    H141268   2.102   9.410   3.027 -1.0580 -0.4092 -0.0341
13462TIP3    H241269   2.171   9.411   2.893  2.4836  1.5020  1.6530
13463TIP3   OH241270  10.230   9.499   3.186  0.1637  0.4468  0.0511
13463TIP3    H141271  10.180   9.564   3.137  0.4419  1.3298  0.9121
13463TIP3    H241272  10.286   9.550   3.244 -0.7463 -0.5511  1.8883
13464TIP3   OH241273   0.868   5.716   1.936 -0.4990 -0.1263  0.2816
13464TIP3    H141274   0.828   5.655   1.873  0.3577  1.3995 -1.8512
13464TIP3    H241275   0.837   5.802   1.908  0.9766  0.7099  1.1329
13465TIP3   OH241276   2.490   7.839  10.442  0.2852  0.6270 -0.1128
13465TIP3    H141277   2.467   7.883  10.360  0.7045 -0.4204 -0.8123
13465TIP3    H241278   2.543   7.764  10.416  2.0034  1.2873  1.2499
13466TIP3   OH241279   4.377   7.270   8.518  0.1019 -0.2581 -0.0720
13466TIP3    H141280   4.330   7.194   8.483 -1.6314  0.5023  0.4743
13466TIP3    H241281   4.434   7.234   8.585  1.7711 -1.4475 -2.0375
13467TIP3   OH241282   6.056   2.723   8.007  0.0601 -0.0597 -1.1138
13467TIP3    H141283   6.131   2.734   7.949  0.1781  1.5048 -0.7101
13467TIP3    H241284   6.077   2.777   8.083 -2.2526  1.9211 -1.7842
13468TIP3   OH241285   5.267  10.509   5.785 -0.2498 -0.6276  0.3608
13468TIP3    H141286   5.247  10.587   5.836  3.2134  0.8064 -0.2237
13468TIP3    H241287   5.303  10.447   5.849 -1.4445 -1.1731  0.5409
13469TIP3   OH241288   6.421  10.314   7.788  0.2749  0.2736 -0.0546
13469TIP3    H141289   6.489  10.259   7.748  1.1765  1.5346 -0.3269
13469TIP3    H241290   6.346  10.305   7.730  0.5038 -0.4400 -0.2545
13470TIP3   OH241291   4.909   6.403   7.038 -0.3545 -0.2739  0.0243
13470TIP3    H141292   4.872   6.404   6.949 -2.9121 -2.0365  0.9303
13470TIP3    H241293   4.962   6.324   7.041  0.1931  0.0833 -0.0703
13471TIP3   OH241294   0.786   8.733   3.205  0.2978  0.0402 -0.1828
13471TIP3    H141295   0.710   8.692   3.246  0.2346  0.2967 -0.0405
13471TIP3    H241296   0.821   8.666   3.147 -0.4697  0.1648 -0.7995
13472TIP3   OH241297   0.900   2.149   4.118 -0.3340  0.3547  0.1416
13472TIP3    H141298   0.919   2.158   4.211 -1.1576  0.8440  0.2701
13472TIP3    H241299   0.825   2.090   4.114 -1.3840  1.6435 -0.0858
13473TIP3   OH241300   9.205   5.864   6.640  0.2160 -0.0550 -0.0185
13473TIP3    H141301   9.161   5.785   6.609 -3.0329  2.3407 -2.1664
13473TIP3    H241302   9.295   5.855   6.609 -1.2252 -0.8396 -4.7228
13474TIP3   OH241303   9.951  10.161  10.119 -0.0669 -0.3471  0.5491
13474TIP3    H141304   9.863  10.173  10.156 -0.7556 -0.7565 -0.8992
13474TIP3    H241305  10.004  10.134  10.194 -1.4971 -1.5416  1.1909
13475TIP3   OH241306   0.220   1.422   8.097 -0.0583 -0.0707  0.1722
13475TIP3    H141307   0.175   1.346   8.061 -1.6459  0.8950  0.0195
13475TIP3    H241308   0.227   1.483   8.024  1.4204 -0.1289  0.2299
13476TIP3   OH241309   0.191   1.304   5.542  0.0068  0.1453  0.5782
13476TIP3    H141310   0.142   1.337   5.617 -1.1884  1.2909 -0.6602
13476TIP3    H241311   0.190   1.375   5.479  1.8461 -0.4215 -0.1710
13477TIP3   OH241312   3.174   4.945   1.476  0.0730  0.0250 -0.8159
13477TIP3    H141313   3.266   4.973   1.470 -0.2261  1.6645  1.2691
13477TIP3    H241314   3.180   4.852   1.496  1.5199  0.6728  2.6704
13478TIP3   OH241315   8.241   2.312   3.171 -0.1803 -0.3367 -0.2402
13478TIP3    H141316   8.211   2.224   3.197 -2.3748  0.8043  1.4856
13478TIP3    H241317   8.236   2.311   3.075 -1.2545 -1.7536 -0.2097
13479TIP3   OH241318   0.504   1.529   7.092  0.1128 -0.2078 -0.6530
13479TIP3    H141319   0.426   1.569   7.130 -0.6162 -0.1131 -2.1854
13479TIP3    H241320   0.474   1.489   7.010  1.8513  0.7815 -1.8408
13480TIP3   OH241321  10.578   7.665   8.739 -0.7340  0.5009  0.2865
13480TIP3    H141322  10.618   7.749   8.760  1.7151 -0.0834 -1.4723
13480TIP3    H241323  10.502   7.688   8.685 -1.2646  1.5912  1.4338
13481TIP3   OH241324   6.325   5.085   8.090 -0.1230  0.3965  1.1376
13481TIP3    H141325   6.296   4.994   8.091 -0.3315  0.4459  0.3459
13481TIP3    H241326   6.369   5.095   8.006 -0.9865  1.2954  0.7817
13482TIP3   OH241327   6.111   7.596   2.533  0.0142 -0.3382 -0.1154
13482TIP3    H141328   6.155   7.538   2.596  0.6119 -1.4704 -1.5149
13482TIP3    H241329   6.126   7.554   2.448 -1.0489  0.9754 -0.9827
13483TIP3   OH241330   5.980   3.001   5.836 -0.0763  0.4146  0.1185
13483TIP3    H141331   5.949   2.927   5.785  0.6135  0.5801 -0.5604
13483TIP3    H241332   6.006   3.066   5.770 -2.1867  1.9323  0.6764
13484TIP3   OH241333   0.615   8.015   1.037 -0.3180  0.0010  0.0684
13484TIP3    H141334   0.672   7.991   0.964  0.5903  0.6190  0.5713
13484TIP3    H241335   0.583   8.102   1.015  0.8473  0.6598  0.9355
13485TIP3   OH241336   6.249   0.731   9.111 -0.2313  0.2654  0.4266
13485TIP3    H141337   6.335   0.772   9.122  0.5039 -0.7749 -1.0957
13485TIP3    H241338   6.267   0.643   9.080 -1.8485  0.1623 -0.3682
13486TIP3   OH241339   7.041   9.921   0.895  0.2094  0.2773  0.2175
13486TIP3    H141340   6.966   9.871   0.929  0.4082  0.3939  0.8343
13486TIP3    H241341   7.100   9.930   0.970 -1.1812  4.1212  1.1121
13487TIP3   OH241342   2.104   9.244   1.741  0.1482 -0.1792  0.1996
13487TIP3    H141343   2.171   9.312   1.742 -1.5436  1.6028 -0.3904
13487TIP3    H241344   2.059   9.253   1.825  0.7438 -1.5035  0.6853
13488TIP3   OH241345   7.925   4.136  10.761  0.0165 -0.3263  0.4001
13488TIP3    H141346   7.858   4.177  10.708 -1.5727 -1.8814  1.1100
13488TIP3    H241347   7.985   4.096  10.698  1.1860  2.2480 -0.2845
13489TIP3   OH241348   7.922   1.251   6.260  0.4629 -0.4127  0.4185
13489TIP3    H141349   7.987   1.207   6.315  0.1871 -0.8501  0.4018
13489TIP3    H241350   7.966   1.329   6.227  0.3692  0.3148  1.9405
13490TIP3   OH241351   0.401   5.309   9.376  0.0979 -0.0463 -0.2957
13490TIP3    H141352   0.467   5.249   9.342 -0.1127  0.8859 -2.5289
13490TIP3    H241353   0.420   5.393   9.334 -2.4703  0.2627 -1.0160
13491TIP3   OH241354  10.667   3.003   6.963 -0.6773  0.0459 -0.3721
13491TIP3    H141355  10.724   2.932   6.991 -0.4421  0.4521  0.2044
13491TIP3    H241356  10.707   3.037   6.883 -1.6458 -1.4726 -1.5577
13492TIP3   OH241357   5.630   1.337   0.314  0.0922 -0.0634  0.1795
13492TIP3    H141358   5.650   1.275   0.244  1.4365 -0.5499  0.9605
13492TIP3    H241359   5.548   1.379   0.286  0.6181 -0.1912 -1.6887
13493TIP3   OH241360   0.991   6.987   7.570 -0.2639 -0.3201 -0.0464
13493TIP3    H141361   0.973   6.894   7.555 -1.6999  0.0504 -0.8610
13493TIP3    H241362   1.052   6.989   7.644  0.2877 -1.9241 -0.4221
13494TIP3   OH241363   6.236   0.727   4.565  1.3582 -1.0899 -0.5726
13494TIP3    H141364   6.190   0.662   4.512  0.2706  0.8597 -2.1572
13494TIP3    H241365   6.172   0.752   4.633  0.4199  0.6953 -2.0125
13495TIP3   OH241366   6.659   5.659   8.698 -0.4412  0.1361 -0.0848
13495TIP3    H141367   6.711   5.722   8.648 -0.2945  0.5456  0.5785
13495TIP3    H241368   6.687   5.671   8.788 -1.8917  0.5521  0.3313
13496TIP3   OH241369   4.188  10.345   0.462  0.2012  0.2742 -0.1671
13496TIP3    H141370   4.240  10.264   0.452 -0.3835  0.1322 -2.8246
13496TIP3    H241371   4.242  10.412   0.420 -0.2954  0.8085  0.0509
13497TIP3   OH241372   9.737  10.490   1.716  0.0470 -0.6656 -0.4720
13497TIP3    H141373   9.699  10.559   1.663 -0.4567 -0.5059  0.0901
13497TIP3    H241374   9.663  10.434   1.740 -0.1263  0.4530  1.8463
13498TIP3   OH241375   7.746  10.481   5.130 -0.2144  0.1875 -0.2106
13498TIP3    H141376   7.795  10.536   5.069  0.3973 -0.1105 -0.0006
13498TIP3    H241377   7.737  10.534   5.209 -0.5876  0.3955 -0.3935
13499TIP3   OH241378   6.175   4.253   5.653  0.0250  0.5127 -0.2706
13499TIP3    H141379   6.106   4.195   5.622  1.7036  0.1646 -3.8149
13499TIP3    H241380   6.256   4.209   5.628  1.6319  1.3193  2.9324
13500TIP3   OH241381   1.208   0.789   3.504  0.0213  0.7653  0.2928
13500TIP3    H141382   1.185   0.865   3.558  1.0870 -0.1784  2.1970
13500TIP3    H241383   1.209   0.822   3.415 -3.0707  2.1304  0.6487
13501TIP3   OH241384  10.763   6.835   0.494  0.2444  0.3314  0.0584
13501TIP3    H141385  10.857   6.844   0.512  0.4665 -1.0707 -0.2348
13501TIP3    H241386  10.737   6.759   0.547 -0.7242  0.7147  0.1385
13502TIP3   OH241387   6.495   4.809   4.237  0.4341 -0.3937 -0.4154
13502TIP3    H141388   6.569   4.869   4.251  1.3644 -0.7930 -3.0564
13502TIP3    H241389   6.524   4.726   4.274  0.8921 -0.2940 -0.5482
13503TIP3   OH241390   2.345   5.352   2.131  0.2799 -0.2027  0.1382
13503TIP3    H141391   2.298   5.391   2.204 -1.4453 -1.6541 -0.1254
13503TIP3    H241392   2.297   5.381   2.053 -0.9881 -2.6531 -0.0666
13504TIP3   OH241393   3.717   3.894   5.830  0.0955 -0.2693  0.7940
13504TIP3    H141394   3.642   3.848   5.793  0.3470 -0.0564 -0.0198
13504TIP3    H241395   3.679   3.960   5.888 -0.4586  0.8729 -0.7937
13505TIP3   OH241396   5.758   8.794   3.846 -0.4031  0.0247  0.3594
13505TIP3    H141397   5.669   8.764   3.866  0.0683 -1.1844  0.7251
13505TIP3    H241398   5.792   8.729   3.785  0.1160  0.6772 -0.0636
13506TIP3   OH241399   2.512   8.988   3.352 -0.2336 -0.0040  0.3656
13506TIP3    H141400   2.596   8.971   3.393  0.6235 -1.2483 -1.7239
13506TIP3    H241401   2.520   9.077   3.316  1.4725 -1.1505 -2.4475
13507TIP3   OH241402  10.902   4.010   5.865  0.3098  0.6825  0.2561
13507TIP3    H141403  10.854   3.935   5.829  2.6217 -0.7852  0.0333
13507TIP3    H241404  10.848   4.086   5.843 -2.5272 -0.9260  1.1464
13508TIP3   OH241405   8.018   5.879   5.186  0.2638  0.5766 -0.8461
13508TIP3    H141406   8.045   5.814   5.251 -1.1815  2.2796  1.6026
13508TIP3    H241407   7.923   5.873   5.184  0.2434  0.9291 -2.4769
13509TIP3   OH241408   4.384   1.924  10.659  0.5356  0.6284 -0.3379
13509TIP3    H141409   4.464   1.965  10.625 -0.8252  1.8578 -2.2498
13509TIP3    H241410   4.346   1.991  10.716 -0.5281  1.2098 -1.6728
13510TIP3   OH241411   7.610   9.507   3.764 -0.0425 -0.0168 -0.4957
13510TIP3    H141412   7.682   9.549   3.719 -0.8479  1.2546 -0.6567
13510TIP3    H241413   7.568   9.452   3.697 -0.0706  0.3371 -0.7679
13511TIP3   OH241414   7.671   2.164   7.204 -0.0946  0.1494  0.0293
13511TIP3    H141415   7.727   2.122   7.270 -2.5121 -1.9722  0.9405
13511TIP3    H241416   7.617   2.092   7.171 -0.7052  1.6558 -2.4545
13512TIP3   OH241417   1.198   5.550   5.093 -0.3433 -0.2407  0.6223
13512TIP3    H141418   1.186   5.462   5.057 -2.1914  0.0534  0.4237
13512TIP3    H241419   1.214   5.606   5.017 -1.6184 -0.0392  0.4816
13513TIP3   OH241420   4.431   6.587   7.409  0.0545 -0.2180 -0.4917
13513TIP3    H141421   4.364   6.550   7.352 -2.1481  0.9535  1.1737
13513TIP3    H241422   4.410   6.553   7.496  1.2927  0.6197  0.1667
13514TIP3   OH241423   2.425   8.011   7.196 -0.0008 -0.0366 -0.0714
13514TIP3    H141424   2.467   7.994   7.281  2.6185 -2.1764 -1.6545
13514TIP3    H241425   2.337   8.042   7.219  1.3820  1.8998  3.4297
13515TIP3   OH241426   2.523   7.348  10.847 -0.9949  0.3554  0.3886
13515TIP3    H141427   2.471   7.363  10.926 -0.5611  0.3898  0.6732
13515TIP3    H241428   2.550   7.436  10.820 -2.3554  0.4844 -0.6477
13516TIP3   OH241429   6.966   8.541   8.803  0.3830 -0.0288 -0.5265
13516TIP3    H141430   6.999   8.535   8.893  0.3706 -1.3722 -0.5970
13516TIP3    H241431   7.019   8.478   8.754 -0.7017 -0.5007 -1.1229
13517TIP3   OH241432  10.046   8.549  10.401  0.1210  0.2800  0.1821
13517TIP3    H141433  10.006   8.625  10.443  1.8481 -0.1231  2.8068
13517TIP3    H241434  10.012   8.474  10.450  0.3878 -0.4340 -0.6971
13518TIP3   OH241435   2.685   9.879   0.061  0.0689  0.0356 -0.5639
13518TIP3    H141436   2.599   9.841   0.082 -0.0115  0.2313 -0.5348
13518TIP3    H241437   2.728   9.812   0.007 -0.1915  0.0302 -0.7713
13519TIP3   OH241438   8.631   5.204   0.278 -0.3405  0.1253  0.5073
13519TIP3    H141439   8.605   5.161   0.359  0.0390 -0.5278  0.2832
13519TIP3    H241440   8.715   5.165   0.255 -1.0658 -0.6683 -0.9165
13520TIP3   OH241441   0.436   6.434   3.780 -0.2165  0.0248 -0.6811
13520TIP3    H141442   0.376   6.376   3.734 -0.9406 -1.1349  1.5919
13520TIP3    H241443   0.390   6.518   3.784 -1.5405 -0.7167  0.6069
13521TIP3   OH241444   0.210   0.399   7.776 -0.0613  0.5460  0.0845
13521TIP3    H141445   0.283   0.448   7.738 -0.6154  0.8153 -0.6503
13521TIP3    H241446   0.208   0.317   7.727  1.7836 -0.9538  2.2476
13522TIP3   OH241447   9.472   7.571   5.713  0.2321  0.7237  0.0064
13522TIP3    H141448   9.423   7.652   5.724  0.3285  0.8752 -0.6372
13522TIP3    H241449   9.501   7.573   5.622  1.3397  0.5824  0.3488
13523TIP3   OH241450   4.424   5.425   5.122 -0.3822 -0.0031  0.9881
13523TIP3    H141451   4.432   5.354   5.058 -0.0531  1.6540 -0.9042
13523TIP3    H241452   4.339   5.465   5.104  0.2746  1.2975  0.6758
13524TIP3   OH241453   4.659   6.851   8.585 -0.0644  0.3947 -0.1660
13524TIP3    H141454   4.663   6.770   8.636 -1.4644  2.3470  3.3400
13524TIP3    H241455   4.722   6.838   8.515  1.9938 -2.5694  2.0040
13525TIP3   OH241456   0.127   2.429   3.199 -0.1363  0.1867 -0.6495
13525TIP3    H141457   0.146   2.514   3.237 -1.7409  0.1999  0.1954
13525TIP3    H241458   0.167   2.432   3.112 -0.2250  1.8232 -0.6591
13526TIP3   OH241459   7.956   2.334   2.759  0.2081  0.0571  0.4049
13526TIP3    H141460   8.047   2.345   2.786 -0.1390  0.0572  1.6222
13526TIP3    H241461   7.940   2.407   2.700  0.7161  0.5980  0.9266
13527TIP3   OH241462   2.202   1.951  10.178 -0.1938 -0.3851  0.3069
13527TIP3    H141463   2.189   1.879  10.240  1.9113 -1.4472 -0.3888
13527TIP3    H241464   2.269   2.006  10.218 -0.2179 -0.0103 -0.1604
13528TIP3   OH241465   9.973   7.159   2.506 -0.1358  0.8241  0.0562
13528TIP3    H141466   9.888   7.140   2.466 -0.1328  1.7059 -0.4022
13528TIP3    H241467  10.036   7.114   2.450 -0.3498 -0.6273  0.9409
13529TIP3   OH241468   4.052  10.683   2.461 -0.4723  0.2576 -0.1433
13529TIP3    H141469   4.070  10.673   2.555 -0.6881  0.6987 -0.0521
13529TIP3    H241470   4.085  10.770   2.440 -1.2490  0.5249 -0.2751
13530TIP3   OH241471   2.299   0.271   9.209 -0.0746  0.2912 -0.3219
13530TIP3    H141472   2.393   0.286   9.199 -0.2647  2.1192  0.3888
13530TIP3    H241473   2.261   0.301   9.127 -0.2838  2.3161  0.4633
13531TIP3   OH241474   4.486   2.825   7.412  0.1167  0.3497  0.4185
13531TIP3    H141475   4.470   2.862   7.499  1.7314  1.3454  0.3475
13531TIP3    H241476   4.458   2.893   7.351 -0.8037 -0.2559  0.1448
13532TIP3   OH241477   8.985   9.860   3.152 -0.4271 -0.0428  0.0340
13532TIP3    H141478   8.981   9.897   3.063 -0.9232 -0.0009  0.0743
13532TIP3    H241479   9.055   9.795   3.147 -0.4052  0.0063 -0.3690
13533TIP3   OH241480   7.381   9.411   9.811  0.2356  0.2543  0.0316
13533TIP3    H141481   7.335   9.457   9.881  0.0401  0.0208  0.0577
13533TIP3    H241482   7.394   9.477   9.743  0.4990  0.5043  0.3191
13534TIP3   OH241483   8.537   3.999   9.951 -0.1791 -0.6723 -0.0585
13534TIP3    H141484   8.465   3.945   9.985 -1.8178  1.7631  0.5824
13534TIP3    H241485   8.591   4.019  10.027 -0.0003 -0.7499 -0.1617
13535TIP3   OH241486   8.658   4.026   7.349 -0.0891 -0.1382  0.3721
13535TIP3    H141487   8.741   3.982   7.332 -0.3420  0.0171 -1.5002
13535TIP3    H241488   8.682   4.118   7.363 -0.0238  0.3576 -2.3351
13536TIP3   OH241489   8.405   9.254   4.099  0.2585 -0.3020 -0.7815
13536TIP3    H141490   8.401   9.205   4.181 -0.9475 -1.4729 -1.5086
13536TIP3    H241491   8.416   9.188   4.031 -0.9979  0.4327 -1.7517
13537TIP3   OH241492   0.732   7.187   8.308  0.5143  0.3091 -0.5417
13537TIP3    H141493   0.773   7.177   8.222  2.7825 -0.5556  0.5549
13537TIP3    H241494   0.773   7.119   8.362 -1.5828  0.1769  0.9897
13538TIP3   OH241495   9.571   7.798   7.361  0.0745 -0.5928  0.2797
13538TIP3    H141496   9.542   7.740   7.432 -1.0222 -0.3345  0.0543
13538TIP3    H241497   9.520   7.771   7.285 -0.3208  0.5488  0.1221
13539TIP3   OH241498   5.678   1.187   2.322 -0.2409  0.2450  0.2270
13539TIP3    H141499   5.746   1.249   2.294  0.6408 -1.7776 -2.5311
13539TIP3    H241500   5.690   1.180   2.417  3.3160  0.1439 -0.0934
13540TIP3   OH241501   9.968   4.429   1.435  0.3625  0.1545 -0.1388
13540TIP3    H141502   9.961   4.360   1.369  0.3052 -0.3160  0.3457
13540TIP3    H241503   9.924   4.392   1.512 -0.9966  1.3049 -0.3137
13541TIP3   OH241504   6.762   3.647   1.083  0.0626  0.5123 -0.0820
13541TIP3    H141505   6.853   3.677   1.091 -0.5786  2.5263  0.3433
13541TIP3    H241506   6.714   3.698   1.148 -1.8603  1.7804 -2.3051
13542TIP3   OH241507   3.677   3.982   2.311 -0.2421 -0.8888  0.1846
13542TIP3    H141508   3.602   3.950   2.259 -1.3725  0.6590  0.7980
13542TIP3    H241509   3.754   3.956   2.260 -1.2654 -0.7926 -1.4752
13543TIP3   OH241510   4.990   7.908   5.470  0.2571  0.0451  0.0010
13543TIP3    H141511   5.023   7.821   5.490 -0.2963 -0.7770 -2.2992
13543TIP3    H241512   5.069   7.960   5.454  0.5607 -0.6350 -0.7658
13544TIP3   OH241513   6.428   5.598   9.436  0.4374 -0.4696  0.4607
13544TIP3    H141514   6.451   5.607   9.344 -1.6220 -2.0698 -0.3039
13544TIP3    H241515   6.424   5.503   9.451  1.8347 -0.2692  2.5507
13545TIP3   OH241516   1.467   2.903   0.348  0.1509  0.5905  0.2412
13545TIP3    H141517   1.403   2.856   0.402 -1.0733  1.3046 -0.5639
13545TIP3    H241518   1.466   2.857   0.264  1.5259 -0.0719  0.5628
13546TIP3   OH241519   3.106   6.169   7.268 -0.0243 -0.1055 -0.6591
13546TIP3    H141520   3.190   6.131   7.295  0.8971  2.0040 -0.3753
13546TIP3    H241521   3.042   6.125   7.324  1.0052 -1.0340 -0.1591
13547TIP3   OH241522   9.426   3.075   0.116 -0.2072 -0.2909 -0.0523
13547TIP3    H141523   9.339   3.115   0.115 -1.0538 -2.0052  0.8850
13547TIP3    H241524   9.479   3.132   0.061 -1.8912  0.8644 -0.5551
13548TIP3   OH241525   4.722   6.455   8.281  0.3897  0.4632  0.2040
13548TIP3    H141526   4.762   6.542   8.276 -0.1389  0.7437  0.6786
13548TIP3    H241527   4.776   6.400   8.225  0.7696  1.0864 -0.0489
13549TIP3   OH241528   1.128   5.518   4.710 -0.4292  0.0074 -0.0096
13549TIP3    H141529   1.136   5.423   4.710  1.8525  0.1430  0.6937
13549TIP3    H241530   1.218   5.550   4.702 -1.0259  2.1110  0.9629
13550TIP3   OH241531  10.299   6.462  10.070 -0.1567  0.0794 -0.2500
13550TIP3    H141532  10.282   6.413  10.150 -1.2100  0.0433 -0.4761
13550TIP3    H241533  10.385   6.501  10.083 -1.0372  1.5510  1.6594
13551TIP3   OH241534   2.804   6.110   2.921  0.2703  0.3034  0.0320
13551TIP3    H141535   2.824   6.191   2.875 -0.9269  1.4333  1.4220
13551TIP3    H241536   2.889   6.075   2.947  0.7503  1.7940  0.5355
13552TIP3   OH241537   9.647   5.805   2.015  0.2519  0.1783  0.1275
13552TIP3    H141538   9.626   5.805   1.921 -0.2493 -1.9771  0.1779
13552TIP3    H241539   9.598   5.879   2.050 -2.5980 -1.1056 -0.7703
13553TIP3   OH241540   6.390   9.107   6.506 -0.1987  0.2226 -0.2190
13553TIP3    H141541   6.424   9.196   6.520 -0.7188  0.4643 -0.4406
13553TIP3    H241542   6.401   9.063   6.590  0.8973  0.2061 -0.3562
13554TIP3   OH241543  10.411   1.501   5.504 -0.0727  0.5433  0.2536
13554TIP3    H141544  10.467   1.558   5.556 -2.4243  1.2853  2.1346
13554TIP3    H241545  10.407   1.419   5.553  0.5240 -0.0462 -0.6495
13555TIP3   OH241546   3.521   5.038   0.468 -0.4542  0.2204  0.8824
13555TIP3    H141547   3.449   4.995   0.422 -0.6041  0.6206  0.7423
13555TIP3    H241548   3.498   5.031   0.561  1.0825 -2.9017  1.1737
13556TIP3   OH241549   4.249   3.275   3.585  0.1076  0.5625  0.9418
13556TIP3    H141550   4.345   3.276   3.584  0.1340  1.8589 -1.4347
13556TIP3    H241551   4.227   3.183   3.600  1.7425 -0.0079  0.1620
13557TIP3   OH241552  10.495  10.065   2.814 -0.2566 -0.2937 -0.2356
13557TIP3    H141553  10.590  10.058   2.803 -0.2641  0.0084 -0.5179
13557TIP3    H241554  10.460  10.057   2.725 -0.4282  0.6020 -0.2543
13558TIP3   OH241555   6.609   1.004   6.690  0.0572  0.2251  0.0557
13558TIP3    H141556   6.556   1.041   6.761 -0.1285 -1.6937  0.9690
13558TIP3    H241557   6.650   0.927   6.729 -1.3985 -1.8963 -2.3667
13559TIP3   OH241558  10.722   7.617   8.150 -0.4206  0.0926  0.4248
13559TIP3    H141559  10.692   7.526   8.150  1.1433 -0.4613 -0.3155
13559TIP3    H241560  10.746   7.634   8.241 -0.7134 -0.2301  0.5664
13560TIP3   OH241561   3.039   9.465   4.621  0.1986 -0.1011  0.0539
13560TIP3    H141562   3.039   9.369   4.616  1.1063 -0.1308  0.4164
13560TIP3    H241563   3.001   9.493   4.539  1.6934 -0.7525 -0.9074
13561TIP3   OH241564   8.220   0.266   2.979 -0.1159  0.4906 -0.8388
13561TIP3    H141565   8.243   0.339   2.922  0.4775  0.4847 -0.6166
13561TIP3    H241566   8.125   0.265   2.980 -0.1361  0.4377 -1.8905
13562TIP3   OH241567   7.253   3.542  10.863 -1.0376 -0.0369 -0.2420
13562TIP3    H141568   7.235   3.523  10.771  0.2793 -1.0160 -0.3241
13562TIP3    H241569   7.347   3.528  10.872 -1.3818 -1.4580  1.5917
13563TIP3   OH241570   2.399   8.932   1.761  0.1073  0.6468  0.3139
13563TIP3    H141571   2.304   8.933   1.749  0.1872  2.0092 -0.5432
13563TIP3    H241572   2.412   8.953   1.853 -0.4412  2.3948  0.0476
13564TIP3   OH241573   4.125   8.010   3.514  0.2368  0.1684 -0.0535
13564TIP3    H141574   4.045   7.956   3.515 -0.4070  1.0816 -0.7255
13564TIP3    H241575   4.193   7.950   3.482 -0.5069 -0.2086 -0.9862
13565TIP3   OH241576   1.653   2.437   4.249 -0.3994  0.4147  0.9046
13565TIP3    H141577   1.627   2.528   4.237 -1.3447  0.1645  0.9323
13565TIP3    H241578   1.614   2.391   4.175  1.3061  0.2412  0.0838
13566TIP3   OH241579   4.384   1.111   4.541 -0.2927 -0.1250 -0.4378
13566TIP3    H141580   4.458   1.082   4.594 -0.9117 -0.1862  0.4094
13566TIP3    H241581   4.420   1.117   4.452  0.7562 -0.0169 -0.0245
13567TIP3   OH241582   2.202   8.615   8.431 -0.1019 -0.1283  0.1754
13567TIP3    H141583   2.120   8.659   8.451 -0.7700 -1.4981  0.6091
13567TIP3    H241584   2.176   8.535   8.385  0.9892 -0.5282  0.2186
13568TIP3   OH241585   8.000   8.635   3.849 -0.4814  0.8325 -0.2500
13568TIP3    H141586   7.958   8.611   3.766 -1.5728  0.6135  0.3522
13568TIP3    H241587   8.011   8.551   3.894 -0.9026  1.0616  0.2861
13569TIP3   OH241588  10.719   9.762   5.737  0.3988 -0.6454  0.1998
13569TIP3    H141589  10.634   9.778   5.779 -1.3302 -1.3307 -2.7154
13569TIP3    H241590  10.732   9.668   5.744  0.0034 -0.7902 -0.8899
13570TIP3   OH241591   0.853   1.890   4.030  0.4316 -0.7727 -0.4801
13570TIP3    H141592   0.913   1.931   3.968 -1.3507 -1.0959 -2.5324
13570TIP3    H241593   0.860   1.796   4.011 -0.2305 -0.8653 -0.2847
13571TIP3   OH241594   2.413   8.093   6.692  0.5136 -0.3330 -0.0201
13571TIP3    H141595   2.446   8.128   6.775  0.0518  1.0745 -0.4092
13571TIP3    H241596   2.488   8.097   6.633  0.0466  1.7075 -0.5535
13572TIP3   OH241597   2.903   8.140   8.861  0.0079  0.0074 -0.1436
13572TIP3    H141598   2.966   8.171   8.925 -1.9856 -0.9875  2.4852
13572TIP3    H241599   2.910   8.044   8.865  0.0732 -0.0773 -1.7046
13573TIP3   OH241600   1.147   1.586   1.419 -0.2244 -0.3313 -0.0369
13573TIP3    H141601   1.100   1.504   1.431  2.0223 -1.8870 -1.1754
13573TIP3    H241602   1.148   1.600   1.325  0.9184  0.0380  0.0105
13574TIP3   OH241603   2.225   9.665   0.058 -0.3707  0.0390  0.5491
13574TIP3    H141604   2.228   9.759   0.079 -1.4540  0.2522 -0.1169
13574TIP3    H241605   2.255   9.660  -0.032  0.4500 -0.3612  0.8427
13575TIP3   OH241606   1.012   7.778   1.123 -0.7413 -0.6407 -0.3294
13575TIP3    H141607   0.918   7.782   1.141 -0.5839 -1.4506  0.7172
13575TIP3    H241608   1.031   7.863   1.083 -1.9481 -0.5424 -0.7574
13576TIP3   OH241609   0.634   0.916   1.334 -0.1219 -0.0871 -0.0502
13576TIP3    H141610   0.727   0.906   1.317  0.1739 -0.3065  1.5652
13576TIP3    H241611   0.625   0.909   1.429 -1.6506  1.0068 -0.0643
13577TIP3   OH241612   7.766   1.620   6.094  0.4572  0.1008  0.3557
13577TIP3    H141613   7.840   1.566   6.120  0.1155  0.3680  2.0204
13577TIP3    H241614   7.703   1.612   6.166 -0.2420  1.5108 -0.0477
13578TIP3   OH241615   8.688   2.491   1.394 -0.4738 -0.0120 -0.5308
13578TIP3    H141616   8.611   2.435   1.388 -0.4354 -0.3831  1.6383
13578TIP3    H241617   8.710   2.492   1.487  1.0239  1.6131 -0.8437
13579TIP3   OH241618   6.275   4.359   4.888  0.4319 -0.4759 -0.1362
13579TIP3    H141619   6.370   4.365   4.876  0.6676 -1.3931  1.1231
13579TIP3    H241620   6.263   4.350   4.982 -0.8792 -0.8893 -0.3234
13580TIP3   OH241621   7.164   9.242   4.483 -0.0217  0.2089  0.0900
13580TIP3    H141622   7.206   9.168   4.439 -1.0532  0.2286 -0.9777
13580TIP3    H241623   7.234   9.305   4.496  1.0185 -1.1384  1.5399
13581TIP3   OH241624   6.939   4.549   7.697  0.0580 -0.0669  0.4201
13581TIP3    H141625   6.858   4.582   7.659  0.2024  0.0483  0.2123
13581TIP3    H241626   7.007   4.578   7.637  0.2844  0.1143  0.7672
13582TIP3   OH241627   7.530   0.784   2.796 -0.8110 -0.0155  0.1400
13582TIP3    H141628   7.582   0.864   2.788 -1.1893  0.2776  0.5184
13582TIP3    H241629   7.585   0.715   2.759  0.7028 -0.0681  2.2863
13583TIP3   OH241630   3.751   5.457   2.637 -0.1119 -0.3832  0.0559
13583TIP3    H141631   3.701   5.453   2.719 -0.5847  2.0130 -0.0487
13583TIP3    H241632   3.687   5.483   2.571  0.7112 -0.0186 -0.6192
13584TIP3   OH241633   7.731  10.466   3.892  0.1571 -0.5134  0.4577
13584TIP3    H141634   7.661  10.414   3.930 -1.0554  0.6011 -0.1771
13584TIP3    H241635   7.783  10.403   3.842 -0.5808 -1.3030  0.6621
13585TIP3   OH241636   4.503   8.107  10.480  0.1486 -0.3492 -0.1804
13585TIP3    H141637   4.439   8.093  10.550 -0.3937 -2.7173 -1.0488
13585TIP3    H241638   4.560   8.031  10.484  1.6004  0.6552 -0.8286
13586TIP3   OH241639   9.233   9.228   3.730 -0.8483 -0.5710 -0.1640
13586TIP3    H141640   9.290   9.302   3.707  0.2683 -1.1890  0.5628
13586TIP3    H241641   9.285   9.150   3.711 -1.1624 -1.1436  1.2200
13587TIP3   OH241642   4.536   8.930   4.504 -1.0123 -0.1623  0.0625
13587TIP3    H141643   4.485   8.885   4.572 -0.4436  0.6225  1.0406
13587TIP3    H241644   4.517   9.023   4.517  0.9104  0.1933  0.7017
13588TIP3   OH241645   0.424   4.015   3.800  0.2859  0.1195 -0.3901
13588TIP3    H141646   0.380   4.031   3.883 -1.2170  0.6338 -1.2433
13588TIP3    H241647   0.389   4.082   3.741  2.2004  0.5103 -1.1433
13589TIP3   OH241648   2.421   0.067   2.614 -0.0958  0.2877 -0.2356
13589TIP3    H141649   2.508   0.038   2.639 -1.0386 -2.8550 -0.2558
13589TIP3    H241650   2.398   0.015   2.537 -1.9942  0.9983 -0.2219
13590TIP3   OH241651   2.815   6.954   1.790  0.0290  0.2292  0.1963
13590TIP3    H141652   2.832   7.045   1.813 -1.5090  0.7335 -0.4830
13590TIP3    H241653   2.719   6.949   1.782  0.0092 -1.6770  1.1119
13591TIP3   OH241654   7.103   5.758   7.442  0.2158  0.1729  0.2638
13591TIP3    H141655   7.125   5.697   7.371  0.5430 -0.2907  0.7550
13591TIP3    H241656   7.044   5.708   7.499 -0.0129  0.5293  0.3424
13592TIP3   OH241657   2.359   5.729   3.922  0.6845  0.1091  0.6171
13592TIP3    H141658   2.375   5.755   4.013  0.7611 -0.0796  0.6586
13592TIP3    H241659   2.274   5.685   3.924  0.4810  0.4919  0.5196
13593TIP3   OH241660   7.244   0.381   4.058 -0.1487 -0.1017  0.1077
13593TIP3    H141661   7.165   0.370   4.111  0.1547 -0.6394  0.4535
13593TIP3    H241662   7.275   0.469   4.078  0.0396 -0.3500  0.9349
13594TIP3   OH241663   3.978   7.290   4.794 -0.5663 -0.1692  0.4959
13594TIP3    H141664   4.011   7.215   4.743 -0.8128 -0.5564  0.9010
13594TIP3    H241665   3.931   7.343   4.729 -1.0111 -0.7389  0.3348
13595TIP3   OH241666   3.552   7.047   1.100  0.3562  0.1345  0.3152
13595TIP3    H141667   3.458   7.058   1.084  0.7202  1.6884 -0.9785
13595TIP3    H241668   3.575   7.122   1.156  0.8560 -0.1885  0.5455
13596TIP3   OH241669   0.689   9.410   4.612 -0.5983  0.2341  0.1766
13596TIP3    H141670   0.646   9.494   4.629 -0.0751  0.5198  0.1319
13596TIP3    H241671   0.731   9.422   4.526  0.4537  0.3378  0.6915
13597TIP3   OH241672   1.668   8.845   6.683  0.3684 -0.1570  0.8854
13597TIP3    H141673   1.575   8.844   6.704 -0.1517 -1.1503 -1.1731
13597TIP3    H241674   1.691   8.752   6.674  1.1665  0.1167 -0.1145
13598TIP3   OH241675   6.074   6.565   9.897  0.0317 -0.0740 -0.1865
13598TIP3    H141676   6.099   6.520   9.816  0.3489  1.9872 -1.3031
13598TIP3    H241677   6.109   6.654   9.887  0.3740  0.1568  2.3783
13599TIP3   OH241678  10.342   8.942   8.498  0.5285 -0.1500 -0.2500
13599TIP3    H141679  10.350   8.847   8.504 -0.4971 -0.2904 -0.8199
13599TIP3    H241680  10.320   8.970   8.587 -0.0330 -0.5564 -0.2503
13600TIP3   OH241681   7.098   8.316   8.687  0.4877 -0.3122 -0.2571
13600TIP3    H141682   7.074   8.336   8.596  1.1173 -2.3757 -0.9181
13600TIP3    H241683   7.103   8.221   8.690 -0.8474 -0.3790  2.3214
13601TIP3   OH241684   4.920   2.914   3.950 -0.3336 -0.3252  0.4143
13601TIP3    H141685   4.966   2.987   3.908 -1.9367  0.6654  0.2876
13601TIP3    H241686   4.933   2.840   3.891  0.2762  0.1884 -0.1053
13602TIP3   OH241687   6.482   4.986   2.522 -0.2148  0.2946  0.0455
13602TIP3    H141688   6.560   4.934   2.539 -0.5532 -0.3361 -0.3335
13602TIP3    H241689   6.471   5.039   2.602  2.1385  2.4160 -0.9106
13603TIP3   OH241690   4.141   4.281   9.494  0.8556 -0.1560 -0.3550
13603TIP3    H141691   4.204   4.353   9.500  1.1344 -0.3504 -0.8525
13603TIP3    H241692   4.179   4.211   9.547  0.0949  0.3976  0.9609
13604TIP3   OH241693   1.696   6.262   0.597 -0.4098  0.5515 -0.6871
13604TIP3    H141694   1.766   6.203   0.625 -0.5950 -0.0507 -1.4558
13604TIP3    H241695   1.724   6.293   0.511 -1.2852 -0.0480 -1.2042
13605TIP3   OH241696   6.932   0.357   7.809 -0.5942 -0.1764 -0.2750
13605TIP3    H141697   6.934   0.262   7.806  0.5089 -0.1757  0.2153
13605TIP3    H241698   6.903   0.383   7.722 -0.1398 -0.9438 -0.6623
13606TIP3   OH241699   4.140   4.480   0.816  0.2860 -0.0270  0.5358
13606TIP3    H141700   4.169   4.469   0.726 -0.3024  0.5625  0.2685
13606TIP3    H241701   4.215   4.519   0.861  0.7903 -0.8710  0.4505
13607TIP3   OH241702   6.651  10.559   4.475  0.2367  0.5512  0.2156
13607TIP3    H141703   6.746  10.559   4.461  0.3067 -0.4416  0.5631
13607TIP3    H241704   6.628  10.650   4.492  1.5394  0.5096  2.6993
13608TIP3   OH241705   3.848   0.129   0.916  0.0503  0.1232 -0.1994
13608TIP3    H141706   3.822   0.068   0.986  0.0256  0.7792  0.3776
13608TIP3    H241707   3.766   0.170   0.890 -0.0438 -0.6230 -1.1147
13609TIP3   OH241708   0.900  10.876   6.531  0.1959  0.4409  0.1085
13609TIP3    H141709   0.922  10.968   6.517  0.6209  0.2574 -0.4845
13609TIP3    H241710   0.961  10.847   6.599  0.1828  0.5473  0.1654
13610TIP3   OH241711   4.875  10.575   1.449  0.0314  0.1235 -0.1506
13610TIP3    H141712   4.865  10.558   1.355 -3.2611 -1.9236  0.4103
13610TIP3    H241713   4.828  10.657   1.463  0.2648  0.2713 -0.2164
13611TIP3   OH241714   1.964   9.890   9.092  0.0787  0.2515 -0.6256
13611TIP3    H141715   1.970   9.835   9.013 -0.6230  0.1228 -0.5960
13611TIP3    H241716   1.906   9.841   9.150  0.7373  0.2610  0.0466
13612TIP3   OH241717   2.612  10.110   0.227 -0.3381  0.0008  0.4482
13612TIP3    H141718   2.677  10.125   0.297  1.1847  1.1477 -1.1337
13612TIP3    H241719   2.657  10.054   0.164 -1.9783 -1.6982  0.6938
13613TIP3   OH241720   5.789   1.454   7.908 -0.1249 -0.3083  0.1217
13613TIP3    H141721   5.773   1.385   7.972  1.0128  0.3949  1.2067
13613TIP3    H241722   5.850   1.414   7.846  0.8024 -0.2043  0.9393
13614TIP3   OH241723   8.507   7.035   3.100  0.3377 -1.1937 -0.6100
13614TIP3    H141724   8.581   7.090   3.122 -1.0857  0.2893  0.6839
13614TIP3    H241725   8.457   7.086   3.035 -0.0984 -1.7166 -0.6956
13615TIP3   OH241726   9.215   6.850  10.541  0.0611 -0.5393 -0.1995
13615TIP3    H141727   9.209   6.939  10.507 -1.7690 -0.9642 -1.0930
13615TIP3    H241728   9.163   6.852  10.621  0.2606 -0.7571 -0.0623
13616TIP3   OH241729   7.419   2.944   4.773 -0.3090 -0.5104  0.1951
13616TIP3    H141730   7.431   3.027   4.819 -0.0739 -0.0515 -0.6852
13616TIP3    H241731   7.507   2.919   4.745 -0.6643  0.2440 -1.7558
13617TIP3   OH241732   0.884   5.061   7.460  0.1889 -0.0960 -0.0639
13617TIP3    H141733   0.833   5.142   7.455 -0.4426 -0.4853 -0.0876
13617TIP3    H241734   0.971   5.086   7.428 -0.9648 -0.2077 -3.8086
13618TIP3   OH241735  10.891  10.174   7.921  0.1203 -0.2698 -0.4011
13618TIP3    H141736  10.962  10.229   7.956  0.5792 -1.7458  1.1349
13618TIP3    H241737  10.931  10.128   7.847  0.1981  0.2700 -0.7020
13619TIP3   OH241738  10.567   9.661   7.236 -0.2655  0.1163 -0.0561
13619TIP3    H141739  10.520   9.628   7.159  0.0380 -2.4165  0.7363
13619TIP3    H241740  10.500   9.663   7.304 -0.3644  1.6402 -0.1683
13620TIP3   OH241741   7.971   1.273  10.108 -0.3967 -0.5199 -0.2172
13620TIP3    H141742   7.987   1.350  10.053  0.4841  0.0338  0.7669
13620TIP3    H241743   7.880   1.282  10.135 -0.1127  0.5789  0.4491
13621TIP3   OH241744   9.926   1.401   1.909  0.2937  0.3051 -0.4938
13621TIP3    H141745   9.888   1.351   1.837  0.1314  0.7591 -0.7205
13621TIP3    H241746   9.852   1.446   1.949  0.2500 -0.5765  0.4688
13622TIP3   OH241747   2.668   8.823   1.090 -0.4551 -0.1220  0.4381
13622TIP3    H141748   2.582   8.845   1.055 -1.2311 -0.8636  1.8136
13622TIP3    H241749   2.683   8.887   1.159 -0.1866 -0.3873  0.6290
13623TIP3   OH241750   9.182   2.758  10.019  0.0862  0.0883  0.1903
13623TIP3    H141751   9.171   2.824   9.951  2.4156  0.2861 -0.0976
13623TIP3    H241752   9.213   2.680   9.972  2.6655  0.5116  0.9881
13624TIP3   OH241753   7.192  10.789   2.600  0.1687  0.1513  0.5153
13624TIP3    H141754   7.122  10.736   2.561  1.1700 -2.3617  1.8787
13624TIP3    H241755   7.154  10.824   2.680  0.1553 -0.3684  0.7393
13625TIP3   OH241756   9.172  10.582   1.967  0.1543 -0.5504  0.1743
13625TIP3    H141757   9.082  10.553   1.957 -0.6392  1.4444  0.9980
13625TIP3    H241758   9.186  10.585   2.062  0.0634  1.8867  0.1723
13626TIP3   OH241759   4.180   0.606   9.505  0.5336  0.2255  0.1382
13626TIP3    H141760   4.099   0.630   9.550  0.2193 -0.6903  0.0839
13626TIP3    H241761   4.209   0.687   9.463  0.9941  1.1809  2.1893
13627TIP3   OH241762   5.447   3.105   1.769 -0.1919  0.3492 -0.2492
13627TIP3    H141763   5.528   3.155   1.758 -0.0090  0.4331  1.2783
13627TIP3    H241764   5.469   3.038   1.834 -1.4399  0.6230  0.4844
13628TIP3   OH241765  10.896   6.411   2.087  0.3768 -0.2944  0.0274
13628TIP3    H141766  10.855   6.421   2.001 -0.0239  0.5312  0.3073
13628TIP3    H241767  10.835   6.355   2.136 -0.0652  0.3297  0.2026
13629TIP3   OH241768   9.645   9.280   5.879  0.5423 -0.4991  0.3329
13629TIP3    H141769   9.632   9.313   5.968  0.2129  0.1813  0.0367
13629TIP3    H241770   9.570   9.312   5.830 -0.1923 -2.3184  0.1849
13630TIP3   OH241771   9.074   1.222   3.429  0.6362 -0.5804 -0.2218
13630TIP3    H141772   9.014   1.259   3.494  0.7705  1.3232 -1.1442
13630TIP3    H241773   9.032   1.140   3.402 -0.7544 -0.0616  0.2858
13631TIP3   OH241774   8.096   7.082   6.754  0.2658 -0.3823 -0.5311
13631TIP3    H141775   8.107   7.173   6.781 -2.0427  0.9593 -3.5415
13631TIP3    H241776   8.077   7.035   6.835  2.0652  1.6324  1.1978
13632TIP3   OH241777   6.594   2.905   6.091  0.0041  0.2783  0.4304
13632TIP3    H141778   6.665   2.968   6.099  0.6891 -0.2912 -0.8989
13632TIP3    H241779   6.560   2.918   6.003 -0.1298 -0.8904  0.2917
13633TIP3   OH241780   5.198   6.380   3.556  0.0354 -0.4495 -0.2060
13633TIP3    H141781   5.139   6.413   3.623 -1.4505 -1.6246 -0.8881
13633TIP3    H241782   5.270   6.339   3.604 -1.4228 -2.0255  0.7231
13634TIP3   OH241783   1.572   9.358   5.853  0.0811 -0.1875 -0.1577
13634TIP3    H141784   1.641   9.317   5.800  0.2122  0.1185 -0.2240
13634TIP3    H241785   1.514   9.285   5.877  2.0617 -1.0329  2.5343
13635TIP3   OH241786   0.087   2.999   5.800 -0.0658  0.1828 -0.0565
13635TIP3    H141787   0.163   3.052   5.776 -0.3879  1.7368  2.1188
13635TIP3    H241788   0.122   2.931   5.857 -0.1181 -0.0488 -0.2957
13636TIP3   OH241789   8.301   9.685   6.392 -0.0607 -0.0144  0.3297
13636TIP3    H141790   8.256   9.768   6.411 -1.2012  0.0922 -2.2905
13636TIP3    H241791   8.255   9.620   6.444 -0.7401  0.6638  0.6059
13637TIP3   OH241792   1.021   7.818   6.535 -0.4483  0.0442  0.0788
13637TIP3    H141793   0.958   7.820   6.607 -1.5323 -0.0485 -0.8483
13637TIP3    H241794   1.105   7.838   6.577 -1.1426  0.6067  1.2666
13638TIP3   OH241795   9.992   2.129  10.664 -0.4742 -0.1663  0.5299
13638TIP3    H141796   9.938   2.201  10.697  1.5076  1.3629  0.6121
13638TIP3    H241797  10.041   2.099  10.740  1.5193  1.0210 -0.2116
13639TIP3   OH241798   8.675   6.949   8.673 -0.5172  0.0905  0.0497
13639TIP3    H141799   8.715   6.864   8.693 -0.3800 -0.1628 -1.2591
13639TIP3    H241800   8.587   6.943   8.712 -0.9741 -1.1443 -1.1041
13640TIP3   OH241801   8.068   9.158   6.861  0.1737 -0.4688  0.5895
13640TIP3    H141802   8.141   9.182   6.919 -0.5100  0.1682  1.2075
13640TIP3    H241803   8.079   9.064   6.846  0.6181 -0.5513  1.3867
13641TIP3   OH241804   1.742   7.080   4.165  0.1764 -0.0486  0.0415
13641TIP3    H141805   1.737   7.068   4.260 -0.3132  0.6288  0.1072
13641TIP3    H241806   1.659   7.046   4.132 -0.5154  1.5400  0.0660
13642TIP3   OH241807   2.568   0.325   9.133  0.4002  0.0202 -0.1335
13642TIP3    H141808   2.599   0.326   9.043  0.5559 -2.2458 -0.1508
13642TIP3    H241809   2.648   0.323   9.186  0.2936 -0.1044  0.0224
13643TIP3   OH241810   7.994   1.525   6.269  0.4483 -0.4692 -0.2061
13643TIP3    H141811   7.996   1.615   6.238 -2.4279 -0.8587 -1.8331
13643TIP3    H241812   7.932   1.526   6.342  1.1427 -0.9923  0.4127
13644TIP3   OH241813   2.428   1.751   3.723 -0.0701 -0.1376 -0.3884
13644TIP3    H141814   2.439   1.830   3.669 -0.1490 -0.4481 -0.8643
13644TIP3    H241815   2.488   1.687   3.684 -0.3928 -0.4776 -0.3375
13645TIP3   OH241816   6.572  10.390   5.558 -0.6799 -0.0665 -0.1731
13645TIP3    H141817   6.639  10.372   5.625 -2.1486 -1.3831  1.0042
13645TIP3    H241818   6.618  10.379   5.475  1.3448  2.1544  0.5312
13646TIP3   OH241819   8.650   8.700   9.096  0.4969 -0.1837  0.3233
13646TIP3    H141820   8.594   8.682   9.172 -0.7731 -0.3220 -0.6218
13646TIP3    H241821   8.678   8.614   9.065 -0.7307 -0.2567 -0.6304
13647TIP3   OH241822   3.805   1.595   8.147  0.5091 -0.0909 -0.1860
13647TIP3    H141823   3.878   1.621   8.090 -0.1974 -1.8237 -1.9896
13647TIP3    H241824   3.779   1.677   8.190  2.3668  0.9128 -0.8155
13648TIP3   OH241825   5.291   1.861   1.918 -0.0548  0.6695  0.1526
13648TIP3    H141826   5.354   1.916   1.872  0.2266 -0.0455 -0.3271
13648TIP3    H241827   5.232   1.830   1.850  1.9759 -2.6546 -0.3199
13649TIP3   OH241828   2.993   4.086   7.338  0.2379  0.4258 -0.3567
13649TIP3    H141829   2.932   4.121   7.403  0.7618 -0.2535  0.5391
13649TIP3    H241830   2.939   4.063   7.263 -0.3606  1.4106 -0.2428
13650TIP3   OH241831   0.507   1.354   7.812  0.2866 -0.1666  0.0772
13650TIP3    H141832   0.601   1.341   7.800  0.4908  0.2195  1.1498
13650TIP3    H241833   0.483   1.293   7.882 -0.1290  0.2165  0.2761
13651TIP3   OH241834  10.550   0.692   4.339  0.1227 -0.3849  0.0923
13651TIP3    H141835  10.636   0.720   4.371  0.1639  0.8995 -1.0485
13651TIP3    H241836  10.491   0.711   4.412  0.7044 -0.6834  0.6505
13652TIP3   OH241837   3.011   4.079   1.058  0.5460 -0.1410  0.2551
13652TIP3    H141838   3.035   4.047   0.971 -0.0077  0.2493 -0.0451
13652TIP3    H241839   3.046   4.168   1.062 -0.6913  0.3820 -0.1312
13653TIP3   OH241840   6.051   2.768   6.705 -0.7704 -0.1135 -0.4577
13653TIP3    H141841   5.983   2.775   6.772 -0.9148  1.5163 -0.7258
13653TIP3    H241842   6.128   2.738   6.753 -1.0083  0.5195  0.3641
13654TIP3   OH241843   3.342   5.145   1.102  0.6179 -0.3344  0.0718
13654TIP3    H141844   3.271   5.147   1.166 -0.2768  1.1528 -0.8984
13654TIP3    H241845   3.421   5.134   1.154 -0.3233 -2.5962  1.1507
13655TIP3   OH241846   7.486   8.768   2.788  0.1508  0.5135 -0.3325
13655TIP3    H141847   7.464   8.823   2.864  0.6388  1.3602 -0.7989
13655TIP3    H241848   7.476   8.826   2.713  2.1669  0.4208 -0.7216
13656TIP3   OH241849   4.908   8.093   1.802  0.3139  0.2795 -0.5370
13656TIP3    H141850   4.995   8.066   1.831  1.0663  2.3615 -0.6565
13656TIP3    H241851   4.848   8.030   1.842  1.8237 -0.7901  0.1122
13657TIP3   OH241852   1.331   9.318   7.675  0.0162 -0.9879  0.4283
13657TIP3    H141853   1.268   9.297   7.606  0.9162  0.1465 -0.7940
13657TIP3    H241854   1.340   9.413   7.672  1.9821 -1.1253  0.3399
13658TIP3   OH241855   0.203   0.235   0.391 -0.1104  0.0299 -0.0733
13658TIP3    H141856   0.262   0.216   0.464  0.5933 -0.5107 -0.7606
13658TIP3    H241857   0.121   0.191   0.415  0.2392 -0.4865  0.2173
13659TIP3   OH241858   3.301   7.476   1.291  0.3688 -0.2561 -1.0856
13659TIP3    H141859   3.314   7.383   1.312  0.7410 -0.4059 -1.9291
13659TIP3    H241860   3.385   7.504   1.256  0.1530  0.3144 -1.1512
13660TIP3   OH241861   1.704   9.773   9.917  0.3694 -0.3951 -0.5717
13660TIP3    H141862   1.705   9.706   9.849  0.1288  0.6438 -1.6289
13660TIP3    H241863   1.618   9.815   9.908 -0.0432 -0.8205  0.9810
13661TIP3   OH241864   3.828   0.861   8.941  0.0870  0.1041  0.2556
13661TIP3    H141865   3.761   0.871   9.009 -1.4276 -0.7419 -1.0479
13661TIP3    H241866   3.895   0.807   8.982 -0.9719 -0.7053  1.0024
13662TIP3   OH241867   4.887   9.217   6.615  0.4704 -0.3897  0.2657
13662TIP3    H141868   4.873   9.293   6.559 -0.0711  0.1862  1.1595
13662TIP3    H241869   4.914   9.253   6.700  1.5861 -1.2551  0.3128
13663TIP3   OH241870   0.833   1.173   2.554 -0.2896 -0.7513 -0.4211
13663TIP3    H141871   0.790   1.219   2.626 -3.1960 -2.8176 -0.6305
13663TIP3    H241872   0.872   1.095   2.595 -0.8076 -1.2470 -0.8387
13664TIP3   OH241873   5.307   8.315   2.465  0.4740  0.1598  0.3742
13664TIP3    H141874   5.235   8.378   2.457 -0.1859 -0.6826 -0.6649
13664TIP3    H241875   5.376   8.364   2.510 -0.9579  0.7945  2.0266
13665TIP3   OH241876   2.634   0.769  10.696  0.0719  0.2947  0.4190
13665TIP3    H141877   2.682   0.789  10.615  0.0548 -0.2133  0.2791
13665TIP3    H241878   2.702   0.740  10.757 -0.0655 -0.5970  0.1643
13666TIP3   OH241879   4.177   6.577   0.635 -0.0179 -0.0562  0.1218
13666TIP3    H141880   4.166   6.670   0.619  0.2783 -0.0927 -0.2976
13666TIP3    H241881   4.103   6.554   0.691 -0.5920  0.2531 -0.4888
13667TIP3   OH241882   1.523   4.796   9.176 -0.3026 -0.5537  0.5487
13667TIP3    H141883   1.489   4.710   9.200 -1.6817 -0.0786  0.3839
13667TIP3    H241884   1.588   4.779   9.108 -3.4937 -1.2692 -2.6171
13668TIP3   OH241885   3.447   8.064   6.668 -0.3535 -0.6593  0.2340
13668TIP3    H141886   3.531   8.076   6.624 -0.4675 -2.4328 -0.5489
13668TIP3    H241887   3.439   7.969   6.680 -2.3683 -0.5642  0.0265
13669TIP3   OH241888   4.260   6.899   1.456 -0.2665 -0.1819 -0.3685
13669TIP3    H141889   4.170   6.886   1.486 -0.1082 -0.3503  0.0474
13669TIP3    H241890   4.257   6.979   1.404 -0.2420  1.1591  1.5583
13670TIP3   OH241891   3.417   1.797   2.683 -0.2799 -0.7297  0.2272
13670TIP3    H141892   3.335   1.828   2.720 -0.8016 -2.6896  0.8089
13670TIP3    H241893   3.393   1.758   2.599  0.2332 -0.3040 -0.1260
13671TIP3   OH241894   8.036   0.591   6.480 -0.0660  0.0321  0.6875
13671TIP3    H141895   8.037   0.681   6.513  0.0566 -0.0890  1.0112
13671TIP3    H241896   8.072   0.538   6.551  2.8341  0.0859 -0.6037
13672TIP3   OH241897   5.299  10.153   5.133 -0.7425 -0.3576  0.6256
13672TIP3    H141898   5.392  10.153   5.153 -0.5149 -1.5926 -0.2999
13672TIP3    H241899   5.261  10.219   5.192  0.5554 -0.5254  1.6908
13673TIP3   OH241900   2.119   9.163   5.105 -0.3351 -0.3274  0.3757
13673TIP3    H141901   2.190   9.100   5.094 -0.1870 -0.5301  2.1457
13673TIP3    H241902   2.044   9.121   5.062  0.1659 -0.9488  0.0835
13674TIP3   OH241903   6.109   6.895   2.248 -0.1614 -0.2098 -0.2054
13674TIP3    H141904   6.174   6.956   2.214 -1.5147  0.5357 -1.5578
13674TIP3    H241905   6.156   6.812   2.256  0.5558 -0.1433 -2.8002
13675TIP3   OH241906   0.280   9.776   7.644  0.6661 -0.2456  0.4617
13675TIP3    H141907   0.248   9.751   7.731 -0.5641  1.4550  0.5442
13675TIP3    H241908   0.205   9.817   7.602  2.1718  2.1429 -0.0860
13676TIP3   OH241909   9.328   1.982   0.280 -0.5017 -0.9621  0.3179
13676TIP3    H141910   9.401   2.007   0.335  0.1972  0.0258 -0.9993
13676TIP3    H241911   9.311   2.058   0.225 -2.4179 -1.2281  0.4523
13677TIP3   OH241912   1.878   1.492   3.813 -0.1622 -0.2152 -0.0921
13677TIP3    H141913   1.870   1.401   3.784  3.1887 -0.3143 -1.1315
13677TIP3    H241914   1.896   1.486   3.907 -1.8104 -0.4442  0.2418
13678TIP3   OH241915   2.416   0.981   4.569  0.4839  0.1196 -0.0063
13678TIP3    H141916   2.480   0.945   4.630  0.2807  0.9678  0.7286
13678TIP3    H241917   2.465   1.042   4.514  1.0721 -2.0352 -2.0276
13679TIP3   OH241918   2.347   6.405   1.040  0.3291  0.6828 -0.4896
13679TIP3    H141919   2.273   6.459   1.012 -1.2701 -2.2143 -2.2968
13679TIP3    H241920   2.399   6.393   0.961  0.0882 -1.1745 -0.4121
13680TIP3   OH241921   8.825   4.288   5.387 -0.0767  0.0061  0.1196
13680TIP3    H141922   8.909   4.280   5.432 -0.1753  2.3512  0.8704
13680TIP3    H241923   8.809   4.202   5.349  2.3286 -0.6886  0.5446
13681TIP3   OH241924   2.632   5.325   3.141 -0.8170 -0.1712  0.1301
13681TIP3    H141925   2.666   5.236   3.144 -0.6283 -0.0901  0.3678
13681TIP3    H241926   2.543   5.318   3.177 -1.0306 -0.3665 -0.4191
13682TIP3   OH241927   9.913  10.227   9.650 -0.5810 -0.1289 -0.1854
13682TIP3    H141928   9.969  10.193   9.580  0.9100  0.4500  0.6676
13682TIP3    H241929   9.917  10.160   9.718 -1.4528 -0.3741 -0.3758
13683TIP3   OH241930  10.166   3.318   4.217  0.5069 -0.0171  0.0065
13683TIP3    H141931  10.212   3.260   4.278  1.3538  1.3482  0.7166
13683TIP3    H241932  10.232   3.382   4.191 -0.6740  1.3017  0.1304
13684TIP3   OH241933   6.373   0.267   4.052  0.5443  0.1256  0.5529
13684TIP3    H141934   6.464   0.296   4.061  1.4369 -2.2948  0.1674
13684TIP3    H241935   6.374   0.178   4.086 -1.7886  0.1459  0.8028
13685TIP3   OH241936   1.979  10.894   4.076 -0.0898  0.6234  0.0713
13685TIP3    H141937   1.979  10.827   4.145  0.1219  1.7763  1.2255
13685TIP3    H241938   1.903  10.871   4.021 -0.6381  0.0387  1.0399
13686TIP3   OH241939   0.664   7.587   0.824 -0.1675 -0.3304 -0.0022
13686TIP3    H141940   0.656   7.577   0.919  2.1047  2.8314  0.7058
13686TIP3    H241941   0.748   7.546   0.803 -0.9699 -1.6033 -0.8043
13687TIP3   OH241942   7.104  10.755   0.082  0.5085 -0.1723 -0.2204
13687TIP3    H141943   7.193  10.719   0.071  0.6706  0.4690 -1.0416
13687TIP3    H241944   7.050  10.678   0.099  1.1595 -0.6101 -0.0684
13688TIP3   OH241945   4.427   2.229   4.403  0.3868  0.2130 -0.4900
13688TIP3    H141946   4.367   2.283   4.454 -0.5312 -1.1058 -0.1192
13688TIP3    H241947   4.400   2.139   4.421  1.8357 -0.3874 -1.1237
13689TIP3   OH241948  10.673   0.857   8.005  0.0417  0.3417 -0.5408
13689TIP3    H141949  10.657   0.951   8.009  0.1180  0.3146  1.1921
13689TIP3    H241950  10.728   0.839   8.081 -4.0298 -1.7936  2.3108
13690TIP3   OH241951   1.274   5.659   3.017  0.2159  0.3562  0.0316
13690TIP3    H141952   1.295   5.615   2.934 -0.0218  1.0906 -0.4290
13690TIP3    H241953   1.178   5.664   3.017  0.2618  2.1767 -0.6503
13691TIP3   OH241954  10.547   6.590  10.907 -0.4545  0.0484  0.1738
13691TIP3    H141955  10.583   6.577  10.995  5.6795  0.8791 -1.7424
13691TIP3    H241956  10.543   6.503  10.869 -1.7085 -0.1554  0.7185
13692TIP3   OH241957   7.031   5.699   0.459  0.4106  0.2701 -0.2590
13692TIP3    H141958   6.961   5.731   0.403  1.4659 -0.4655 -2.0774
13692TIP3    H241959   7.045   5.770   0.523 -1.4798  0.7087 -0.2861
13693TIP3   OH241960   4.677   2.899   9.924  0.2455 -0.4344  0.2425
13693TIP3    H141961   4.703   2.848   9.847  2.0361 -1.3389  1.3650
13693TIP3    H241962   4.592   2.936   9.901  0.1397 -1.7093 -1.6736
13694TIP3   OH241963   9.728  10.467   0.928 -0.5241 -0.1680 -0.4680
13694TIP3    H141964   9.793  10.470   0.858 -0.2702  1.8635 -0.1813
13694TIP3    H241965   9.644  10.479   0.884 -0.3387  1.4237 -0.4166
13695TIP3   OH241966   6.166   2.834   7.709  0.4599 -0.5405  0.1702
13695TIP3    H141967   6.168   2.746   7.671 -1.1563 -0.8962  0.8213
13695TIP3    H241968   6.169   2.893   7.633  1.0671 -1.1450 -0.2958
13696TIP3   OH241969   4.438   2.796  10.743 -0.5383  0.2130 -0.3244
13696TIP3    H141970   4.452   2.707  10.777 -0.4505  0.2465 -0.2709
13696TIP3    H241971   4.449   2.853  10.820  0.8137  0.3840 -0.6186
13697TIP3   OH241972   3.494   0.874   9.986 -0.4217 -0.0988  0.4480
13697TIP3    H141973   3.448   0.790   9.995 -1.4437  0.2614 -0.9026
13697TIP3    H241974   3.432   0.939  10.021  0.5955  0.0555  2.0105
13698TIP3   OH241975   0.588   6.348   0.205  0.0304 -0.3502  0.1406
13698TIP3    H141976   0.638   6.362   0.285  0.8551 -0.3698 -0.3610
13698TIP3    H241977   0.600   6.428   0.154 -1.3103  0.0755  0.4458
13699TIP3   OH241978   3.649   8.778   0.674 -0.0874  0.4080 -0.4315
13699TIP3    H141979   3.711   8.828   0.622  1.0617  0.4840  0.9483
13699TIP3    H241980   3.697   8.755   0.754 -0.9133 -2.0538 -0.5745
13700TIP3   OH241981   2.685   0.040   6.611  1.0812 -0.6675 -0.1955
13700TIP3    H141982   2.629   0.006   6.681 -0.2935 -0.8802 -1.3592
13700TIP3    H241983   2.659  -0.009   6.533 -1.1918  2.9922 -2.0647
13701TIP3   OH241984   6.430   3.344   4.294  0.0305 -0.3175  0.2901
13701TIP3    H141985   6.477   3.261   4.305  1.6355  0.3009 -1.3567
13701TIP3    H241986   6.363   3.325   4.229 -1.2339 -0.8834  1.7040
13702TIP3   OH241987   9.076   9.933   8.008  0.4715  0.2779 -0.3618
13702TIP3    H141988   8.999   9.911   7.955 -0.0138  0.6562  0.1687
13702TIP3    H241989   9.069  10.028   8.021  1.4241  0.4283 -0.9175
13703TIP3   OH241990   0.749   9.519   3.126  0.2425  0.5692 -0.1777
13703TIP3    H141991   0.825   9.577   3.127  1.2971 -0.7665  1.1227
13703TIP3    H241992   0.781   9.437   3.089 -0.3691 -0.2452  1.0509
13704TIP3   OH241993  10.442   7.779   1.528 -0.3201  0.2515 -0.1223
13704TIP3    H141994  10.484   7.803   1.610  1.1308 -1.2638 -0.3509
13704TIP3    H241995  10.460   7.686   1.518 -1.1893  0.2126 -1.7478
13705TIP3   OH241996   7.584   7.786  10.470  0.1449 -0.6328  0.2046
13705TIP3    H141997   7.538   7.829  10.398  0.3502 -3.1155 -1.5263
13705TIP3    H241998   7.527   7.714  10.496 -0.6045  1.0174  3.6060
13706TIP3   OH241999  10.033  10.387   7.074 -1.0321 -0.8790  0.5824
13706TIP3    H142000   9.975  10.401   6.999 -0.3572  1.3639  0.3915
13706TIP3    H242001  10.089  10.314   7.048 -1.8051 -1.1141 -0.4664
13707TIP3   OH242002   5.531   3.664  10.065  0.2132  0.0957 -0.3704
13707TIP3    H142003   5.473   3.612  10.010  1.0707 -1.8529  0.4480
13707TIP3    H242004   5.504   3.755  10.051 -0.8422 -0.4868 -2.4848
13708TIP3   OH242005   7.016   0.315   0.288 -0.3597 -0.6086 -0.4468
13708TIP3    H142006   7.000   0.392   0.343 -2.1008 -0.8344 -0.5537
13708TIP3    H242007   7.039   0.246   0.351 -1.0313 -0.5376 -0.1050
13709TIP3   OH242008   9.467   6.406   1.046  0.4842  0.1788 -0.0369
13709TIP3    H142009   9.395   6.422   0.984 -1.2444  2.3920  2.3139
13709TIP3    H242010   9.528   6.478   1.031  0.2213  0.5350  0.5589
13710TIP3   OH242011   8.629   0.573   7.290 -0.6094 -0.0651  0.4455
13710TIP3    H142012   8.588   0.655   7.261  0.7654  1.0263  1.4301
13710TIP3    H242013   8.717   0.599   7.318  0.4907 -2.1632 -0.7859
13711TIP3   OH242014   1.039   2.335   9.136  0.1618  0.2206 -0.3046
13711TIP3    H142015   0.996   2.379   9.062 -0.1173  2.4454  1.0763
13711TIP3    H242016   1.130   2.363   9.131  0.3217 -0.2937 -0.2800
13712TIP3   OH242017   9.017   2.880   1.121  0.4720 -0.9016  0.1049
13712TIP3    H142018   8.928   2.844   1.123 -0.5752  1.4590 -0.4393
13712TIP3    H242019   9.021   2.937   1.198  1.5393 -1.0194  0.1445
13713TIP3   OH242020   9.584   0.818   2.213  0.2288  0.1253  0.8009
13713TIP3    H142021   9.559   0.833   2.305  0.8527 -0.8450  1.1501
13713TIP3    H242022   9.525   0.748   2.184 -0.1020  0.5686  0.3891
13714TIP3   OH242023   2.509   8.287   5.681  0.8697 -0.0698 -0.0391
13714TIP3    H142024   2.596   8.325   5.694  1.2905 -1.4142  1.5096
13714TIP3    H242025   2.519   8.196   5.707 -0.9165 -0.3507 -0.2062
13715TIP3   OH242026   5.635   3.707   5.721 -0.6639 -0.1434 -0.6388
13715TIP3    H142027   5.614   3.646   5.791 -0.6683  1.1833  0.5543
13715TIP3    H242028   5.671   3.652   5.651 -0.3059 -1.4596  0.5410
13716TIP3   OH242029   0.545   2.287   5.037  0.0779 -0.1183  0.4347
13716TIP3    H142030   0.575   2.371   5.072  0.5147  0.1210 -0.4810
13716TIP3    H242031   0.554   2.297   4.942 -1.3352 -0.6483  0.2297
13717TIP3   OH242032   8.191   3.918   8.306  0.1667 -0.2703  0.4955
13717TIP3    H142033   8.247   3.990   8.278  0.0216 -0.0988  0.6465
13717TIP3    H242034   8.188   3.859   8.230  1.1542 -0.6550  0.7386
13718TIP3   OH242035   4.009   3.825   1.591  0.2575 -0.1072 -0.3874
13718TIP3    H142036   4.063   3.841   1.513 -0.4182  1.2906 -0.5951
13718TIP3    H242037   3.919   3.825   1.559  0.0276 -0.5653  0.2430
13719TIP3   OH242038   3.909   2.096   1.997  0.1184 -0.6207  0.1359
13719TIP3    H142039   3.884   2.009   1.966 -0.0240 -0.3369 -0.5733
13719TIP3    H242040   3.835   2.124   2.050 -0.0842 -0.7010 -0.1030
13720TIP3   OH242041   0.773   0.593   9.578 -0.4472  0.5137  0.3236
13720TIP3    H142042   0.720   0.651   9.524 -0.0447  0.9392  0.3785
13720TIP3    H242043   0.716   0.570   9.651 -1.3765 -0.9377 -0.8076
13721TIP3   OH242044   0.674   7.590   5.760 -0.4509 -0.0668 -0.3915
13721TIP3    H142045   0.733   7.566   5.831 -0.4255  2.5638  0.5812
13721TIP3    H242046   0.625   7.509   5.740  0.4861 -1.1978  1.6742
13722TIP3   OH242047   6.825   8.180   1.951  0.3448  0.0740 -0.3889
13722TIP3    H142048   6.847   8.112   1.888  0.6426 -0.9450  0.7731
13722TIP3    H242049   6.906   8.199   1.997 -0.1096 -0.0710  0.5012
13723TIP3   OH242050   9.154   1.839   8.148 -0.2615 -0.2186 -0.0521
13723TIP3    H142051   9.220   1.773   8.167 -1.0660 -1.1344 -0.3658
13723TIP3    H242052   9.117   1.860   8.234  0.4421  0.3275  0.1304
13724TIP3   OH242053   6.506  10.762   9.244  0.2930  0.6287 -0.4147
13724TIP3    H142054   6.566  10.832   9.268  1.0020  0.2833 -1.1076
13724TIP3    H242055   6.521  10.749   9.150 -0.2368 -0.0595 -0.4145
13725TIP3   OH242056   9.618   5.608   1.469 -0.1022  0.5547 -0.5193
13725TIP3    H142057   9.643   5.581   1.381 -1.3319  1.6083 -1.2132
13725TIP3    H242058   9.553   5.677   1.456  0.1892  1.2060  1.2118
13726TIP3   OH242059   0.504   3.539  10.097 -0.1844 -0.0859  0.1266
13726TIP3    H142060   0.479   3.607  10.035 -0.4316 -0.3704 -0.0899
13726TIP3    H242061   0.560   3.480  10.047  2.6168  1.5429  1.0650
13727TIP3   OH242062   4.010   8.778   8.480 -0.0992 -0.1785 -0.1112
13727TIP3    H142063   4.090   8.829   8.494 -0.6338  0.8316 -0.6489
13727TIP3    H242064   3.990   8.790   8.387 -1.0873 -0.0902  0.0990
13728TIP3   OH242065   0.993   2.910   4.565  0.5552 -0.1530 -0.3843
13728TIP3    H142066   1.045   2.990   4.555  1.3366 -0.5511  0.4108
13728TIP3    H242067   0.983   2.877   4.475  2.5914 -0.6317 -0.4804
13729TIP3   OH242068   6.253   1.497   5.799  0.2599 -0.4037 -0.0202
13729TIP3    H142069   6.332   1.444   5.797  0.4679 -0.1276  0.7775
13729TIP3    H242070   6.228   1.501   5.891  1.0784  2.0834  0.1676
13730TIP3   OH242071   6.016   7.116   7.032 -0.2067  0.5262 -0.1141
13730TIP3    H142072   6.030   7.049   6.966 -0.2953  0.8882 -0.5080
13730TIP3    H242073   5.949   7.080   7.090  1.4234 -0.7339  1.1037
13731TIP3   OH242074   3.304   5.865   7.855 -0.6555 -0.0580 -0.1865
13731TIP3    H142075   3.253   5.824   7.785 -0.0541 -1.8764  0.3783
13731TIP3    H242076   3.248   5.935   7.888 -1.3204  0.2425 -1.8525
13732TIP3   OH242077   3.327   4.978   8.733 -0.1757 -0.0440  0.0180
13732TIP3    H142078   3.245   5.027   8.743  0.0128  0.2239  0.2507
13732TIP3    H242079   3.332   4.959   8.639 -0.9622 -0.8512  0.1207
13733TIP3   OH242080   2.253   1.649   4.213  0.4079 -0.4078 -0.0260
13733TIP3    H142081   2.321   1.709   4.242 -0.6545  0.7188  0.2016
13733TIP3    H242082   2.300   1.569   4.190  1.7094  0.0343  0.9724
13734TIP3   OH242083  10.719   8.461   3.792 -0.0738 -0.3681 -0.8035
13734TIP3    H142084  10.675   8.385   3.828  1.9465 -1.6385 -0.8219
13734TIP3    H242085  10.649   8.522   3.770 -1.5870 -0.7942  2.3258
13735TIP3   OH242086   9.586   6.003   9.015 -0.1162  0.3491 -0.1046
13735TIP3    H142087   9.649   5.966   8.953 -0.2205 -0.4802  0.2669
13735TIP3    H242088   9.570   5.933   9.078 -0.5118  0.9548  0.4874
13736TIP3   OH242089   5.707   8.521   8.099 -0.1638  0.5476 -0.1573
13736TIP3    H142090   5.781   8.471   8.063 -1.0262  0.7437 -2.3410
13736TIP3    H242091   5.714   8.509   8.194  1.2553 -1.4414 -0.4536
13737TIP3   OH242092   8.327   5.892   3.985 -0.3617  0.2874  0.2149
13737TIP3    H142093   8.395   5.924   4.044  0.5982 -1.0912 -0.0836
13737TIP3    H242094   8.326   5.797   3.998 -0.1362 -0.0613 -1.9186
13738TIP3   OH242095   5.030   2.162  10.271  0.0765  0.4647  1.0221
13738TIP3    H142096   5.084   2.240  10.283 -1.1406  1.1047  2.7430
13738TIP3    H242097   5.091   2.095  10.243  1.1795  1.9823 -0.4151
13739TIP3   OH242098   7.960   2.565   2.019  0.1141 -0.9347  0.1474
13739TIP3    H142099   7.906   2.602   1.948  2.2027 -0.1804 -1.1322
13739TIP3    H242100   8.002   2.641   2.060 -0.4384 -1.4384  1.7224
13740TIP3   OH242101   9.487   3.633  10.647 -0.4142 -0.3887 -0.7872
13740TIP3    H142102   9.572   3.677  10.640 -0.7159  0.2443 -0.6063
13740TIP3    H242103   9.508   3.540  10.653  0.2570 -0.2532 -0.9239
13741TIP3   OH242104   1.272   0.464   3.306  0.2426 -0.0158 -0.3677
13741TIP3    H142105   1.193   0.475   3.254  0.5223 -1.7912 -1.2406
13741TIP3    H242106   1.344   0.463   3.242  0.6803 -1.2986  0.1119
13742TIP3   OH242107   8.854   2.748   2.554  0.0352 -0.1733  0.4893
13742TIP3    H142108   8.794   2.784   2.619  0.1663 -1.0681  1.1234
13742TIP3    H242109   8.877   2.662   2.588 -0.0422 -0.7390 -0.8419
13743TIP3   OH242110   5.533   0.592   0.007  0.7517  0.1124  0.3071
13743TIP3    H142111   5.550   0.571  -0.084 -0.7470 -0.4208  0.1214
13743TIP3    H242112   5.563   0.515   0.056 -0.2927 -0.4665  0.0639
13744TIP3   OH242113   3.152   5.506   0.321  0.3705 -0.0357  0.4194
13744TIP3    H142114   3.216   5.486   0.253  0.8040  0.1706  0.7630
13744TIP3    H242115   3.190   5.579   0.370 -0.4820  0.6133  0.1426
13745TIP3   OH242116   0.532   9.111   9.750 -0.7644  0.5413 -0.2329
13745TIP3    H142117   0.586   9.106   9.672 -0.4243  1.5392 -0.0693
13745TIP3    H242118   0.593   9.131   9.821 -1.4323  2.8042 -0.2092
13746TIP3   OH242119   4.159   2.574  10.385 -0.4839 -0.3319 -0.2735
13746TIP3    H142120   4.232   2.517  10.365  0.4053  0.6735  0.0039
13746TIP3    H242121   4.131   2.549  10.473  0.9663  0.7046  0.5257
13747TIP3   OH242122   6.766   7.097   2.338 -0.6495  0.0664 -0.3135
13747TIP3    H142123   6.739   7.018   2.291  1.8306 -1.4390  0.5910
13747TIP3    H242124   6.798   7.065   2.422 -1.0814  2.2492  0.7514
13748TIP3   OH242125   9.821   3.457   0.326 -0.0304  0.1132  0.2329
13748TIP3    H142126   9.853   3.494   0.244  0.0372  0.6137  0.4806
13748TIP3    H242127   9.836   3.526   0.391  0.1522 -0.3757  0.7123
13749TIP3   OH242128   5.946   0.223   6.967 -0.1355  0.0924  0.2757
13749TIP3    H142129   6.033   0.196   6.937  1.7110  5.0188  0.3098
13749TIP3    H242130   5.944   0.199   7.060  1.3715  0.2711  0.3739
13750TIP3   OH242131   6.020   9.143   3.957 -0.1374  0.0227 -0.3199
13750TIP3    H142132   6.050   9.233   3.945 -1.9107  0.4933 -1.5965
13750TIP3    H242133   6.014   9.132   4.052  1.1552  0.8627 -0.1231
13751TIP3   OH242134   0.830   1.443   6.817  0.4757  0.7165  0.1947
13751TIP3    H142135   0.860   1.352   6.811  1.3538  1.0344 -0.3806
13751TIP3    H242136   0.898   1.493   6.773  1.1627  1.9003  2.4579
13752TIP3   OH242137   2.085   4.235   8.766 -0.6942 -0.4921  0.6400
13752TIP3    H142138   2.080   4.151   8.721 -1.3659 -1.3759  2.2895
13752TIP3    H242139   2.143   4.219   8.840  1.9218  1.4207 -0.8132
13753TIP3   OH242140   4.474   0.382   5.843  0.2508  0.1083  0.1360
13753TIP3    H142141   4.565   0.411   5.837 -0.4014  2.6932  1.1865
13753TIP3    H242142   4.472   0.299   5.796  2.7716  0.8372 -1.4850
13754TIP3   OH242143   5.792   7.705   3.125 -0.1348  0.5440 -0.0986
13754TIP3    H142144   5.869   7.683   3.177 -0.1245  1.2633  0.1941
13754TIP3    H242145   5.722   7.652   3.162  0.3739 -0.7047 -0.8628
13755TIP3   OH242146   3.545   0.855   8.117 -0.6254 -0.0223 -0.3026
13755TIP3    H142147   3.620   0.798   8.104  0.8065  1.4654  1.1149
13755TIP3    H242148   3.472   0.795   8.135  1.2807 -1.4783  3.5682
13756TIP3   OH242149   7.139   5.092  10.453  0.4551  0.0600 -0.4835
13756TIP3    H142150   7.215   5.148  10.440 -0.1017  1.2132  1.0030
13756TIP3    H242151   7.068   5.136  10.406 -0.3587  1.5455  1.9615
13757TIP3   OH242152   5.520   4.696   3.162  0.5676 -0.3680 -0.1507
13757TIP3    H142153   5.544   4.772   3.110  1.6597  0.2361  1.1691
13757TIP3    H242154   5.439   4.664   3.123  2.0239 -0.7929 -3.1022
13758TIP3   OH242155   5.256   5.232   4.856  0.5102  0.8813  0.3715
13758TIP3    H142156   5.217   5.224   4.943  1.5363  0.2765  0.7868
13758TIP3    H242157   5.350   5.238   4.872  0.7143  0.7280 -0.7035
13759TIP3   OH242158   4.714   7.734   3.152 -0.5030  0.6722  0.3153
13759TIP3    H142159   4.724   7.710   3.060  0.9941  0.7814  0.4244
13759TIP3    H242160   4.802   7.726   3.188 -1.4351 -1.6598  2.3350
13760TIP3   OH242161   3.527   8.434   8.793  0.6488  0.7235 -0.5878
13760TIP3    H142162   3.478   8.424   8.712  0.3076  0.1361 -0.3146
13760TIP3    H242163   3.566   8.348   8.809  0.2998  0.6914  0.1360
13761TIP3   OH242164   8.409   0.384  10.643  0.0151 -0.1241  0.4908
13761TIP3    H142165   8.351   0.392  10.567 -0.7233 -0.3610  1.0161
13761TIP3    H242166   8.455   0.301  10.630 -0.0779 -0.1410  0.2782
13762TIP3   OH242167   1.666   7.222  10.905  0.2042  0.6152  0.3762
13762TIP3    H142168   1.640   7.287  10.971  3.0163 -0.4430  2.7929
13762TIP3    H242169   1.620   7.142  10.931 -1.2219  0.9493 -1.0108
13763TIP3   OH242170  10.406   3.496   6.292 -0.8325 -0.1343  0.0487
13763TIP3    H142171  10.360   3.419   6.260 -0.2993 -0.3945 -0.0934
13763TIP3    H242172  10.350   3.529   6.362 -0.5495 -1.2669  0.8382
13764TIP3   OH242173   5.607   0.711   4.830  0.7216  0.3545  0.2288
13764TIP3    H142174   5.659   0.739   4.905  2.4509  0.0561 -0.7959
13764TIP3    H242175   5.542   0.780   4.818 -0.5513 -0.2857  2.8305
13765TIP3   OH242176   9.216   9.943   5.549 -0.2998 -0.2095  0.4644
13765TIP3    H142177   9.136   9.980   5.512  1.4274  0.6077 -2.9522
13765TIP3    H242178   9.282  10.012   5.536  1.8187 -2.3316 -0.8663
13766TIP3   OH242179   0.722   9.013   6.709  0.1418  0.2737 -0.1986
13766TIP3    H142180   0.796   9.043   6.762 -0.9303 -2.8234  3.5170
13766TIP3    H242181   0.683   9.093   6.674  3.9078  2.1626 -0.5591
13767TIP3   OH242182   9.119   1.850   4.505  0.2108 -0.1849  0.0118
13767TIP3    H142183   9.171   1.906   4.562  1.4687  0.8546 -2.0256
13767TIP3    H242184   9.183   1.809   4.447 -0.7922 -2.9354  0.7005
13768TIP3   OH242185   7.282   1.076   1.859  0.0789  0.4500  0.1543
13768TIP3    H142186   7.338   1.129   1.802 -1.0995 -1.0054 -2.4967
13768TIP3    H242187   7.316   1.093   1.947  2.4677  2.2439 -0.9893
13769TIP3   OH242188  10.769   0.918   0.502  0.3686 -0.5569 -0.4706
13769TIP3    H142189  10.732   0.923   0.590  1.9919 -0.3925  0.2532
13769TIP3    H242190  10.708   0.967   0.447 -0.2897 -0.0097  0.7040
13770TIP3   OH242191   6.862   0.022   3.934  0.3211 -0.4385 -0.4844
13770TIP3    H142192   6.863   0.024   4.030 -1.2761  0.0116 -0.4501
13770TIP3    H242193   6.818   0.104   3.909  1.4511 -0.1430 -1.6440
13771TIP3   OH242194   4.034  10.070   1.171  0.3706  0.1863 -0.7212
13771TIP3    H142195   4.023  10.095   1.263  0.3530 -0.4687 -0.5424
13771TIP3    H242196   4.033   9.974   1.171 -2.0685  0.1125 -1.6542
13772TIP3   OH242197   5.655   5.238   6.257  0.3075  1.1543 -0.0606
13772TIP3    H142198   5.679   5.199   6.341 -0.8974 -0.2679 -0.3329
13772TIP3    H242199   5.726   5.213   6.198  0.5460  1.0931  0.2501
13773TIP3   OH242200  10.465   5.062   6.982 -0.5662  0.4438 -0.1330
13773TIP3    H142201  10.421   5.107   7.054  0.4519 -0.6593  1.2406
13773TIP3    H242202  10.421   5.093   6.903 -0.2739  3.3689  0.7669
13774TIP3   OH242203   4.173   4.255   7.444  0.6670 -0.1246  0.3322
13774TIP3    H142204   4.196   4.178   7.497 -2.2749 -1.7475 -0.5702
13774TIP3    H242205   4.246   4.264   7.383  1.3962 -1.7948  0.8896
13775TIP3   OH242206   8.039   3.070   5.082  0.3132  0.4441 -0.0013
13775TIP3    H142207   7.950   3.092   5.109 -0.0589  0.4116 -1.1672
13775TIP3    H242208   8.078   3.028   5.159 -0.7279  0.2982  0.4557
13776TIP3   OH242209   1.454   4.936   4.006  0.0899  0.3201  0.0831
13776TIP3    H142210   1.440   5.027   3.980 -1.1730 -0.0714 -0.7106
13776TIP3    H242211   1.453   4.938   4.102 -0.9955  1.0177  0.0778
13777TIP3   OH242212   1.109   9.609   7.473  1.2704 -0.4599  0.2691
13777TIP3    H142213   1.136   9.681   7.530 -1.0890  0.5077  0.2533
13777TIP3    H242214   1.063   9.651   7.401  0.6530 -1.9258 -0.2187
13778TIP3   OH242215   2.207   0.451   9.418 -0.1931 -0.8412  0.5988
13778TIP3    H142216   2.225   0.385   9.352  3.0872 -0.3552  0.8459
13778TIP3    H242217   2.243   0.415   9.499 -0.2118  0.3845  1.1854
13779TIP3   OH242218   2.831   7.264   6.539  0.0014  0.2227 -0.3950
13779TIP3    H142219   2.855   7.205   6.468  0.9038  0.2756 -0.1507
13779TIP3    H242220   2.800   7.206   6.609 -2.7332  0.2566 -1.4509
13780TIP3   OH242221   0.124   2.972   2.534 -0.1239  0.1409  0.5916
13780TIP3    H142222   0.192   2.939   2.476 -1.0756 -1.5672  0.3700
13780TIP3    H242223   0.071   3.029   2.479  1.0498  1.4401  0.7528
13781TIP3   OH242224   6.317   2.734   2.475  0.1657  0.6777  0.0771
13781TIP3    H142225   6.297   2.811   2.423 -1.8354  0.0232 -0.2225
13781TIP3    H242226   6.374   2.681   2.420 -1.7239  0.1055 -1.4364
13782TIP3   OH242227   8.711   7.019   5.918 -0.6956 -0.4038 -0.1254
13782TIP3    H142228   8.638   6.994   5.862 -0.8691 -0.4385  0.1133
13782TIP3    H242229   8.777   7.053   5.858 -0.7285 -0.7966 -0.3857
13783TIP3   OH242230   5.396   5.219   6.265 -0.0524 -0.7116 -0.0781
13783TIP3    H142231   5.482   5.254   6.288 -0.7539  0.1719  1.3471
13783TIP3    H242232   5.380   5.251   6.176  1.4948 -1.7476 -0.7805
13784TIP3   OH242233   7.084   4.664   8.820  0.0348  0.1617 -0.2094
13784TIP3    H142234   7.025   4.687   8.748  1.3822 -1.2181 -1.8451
13784TIP3    H242235   7.169   4.699   8.794  0.7871 -1.3150  0.1426
13785TIP3   OH242236   4.867   5.071   8.299  0.1924  0.3110  0.1362
13785TIP3    H142237   4.890   4.978   8.305  0.4410  0.2791 -1.0325
13785TIP3    H242238   4.802   5.084   8.368 -1.7371 -1.3191 -1.2419
13786TIP3   OH242239   0.456   8.884   2.946  0.3382 -0.0926  0.0008
13786TIP3    H142240   0.526   8.926   2.997 -0.4193  2.3529 -0.8167
13786TIP3    H242241   0.410   8.957   2.905 -1.5877 -1.7489 -0.9395
13787TIP3   OH242242   6.961   8.560   5.269 -0.0885 -0.2904 -0.0165
13787TIP3    H142243   6.911   8.529   5.344 -1.4615 -0.6598 -1.0554
13787TIP3    H242244   6.915   8.639   5.240  0.8675  0.2886 -0.0391
13788TIP3   OH242245   5.825   0.249   7.437 -0.3045  0.0712  0.0939
13788TIP3    H142246   5.915   0.222   7.416 -0.9999 -1.4530 -1.0724
13788TIP3    H242247   5.772   0.216   7.364 -1.9047  0.4542  1.0410
13789TIP3   OH242248  10.551   6.317  10.850 -0.4432 -0.3701  0.5866
13789TIP3    H142249  10.630   6.276  10.816  0.3835  1.9973 -0.5506
13789TIP3    H242250  10.483   6.299  10.785 -0.8654 -2.2622  1.4840
13790TIP3   OH242251   3.751   5.192   0.503 -0.4711  0.1447  0.1151
13790TIP3    H142252   3.670   5.143   0.489 -0.1892 -0.7214  1.3307
13790TIP3    H242253   3.750   5.212   0.597  1.9023 -2.1144  0.7429
13791TIP3   OH242254   3.529   7.318  10.669  0.6284  0.4470  0.4331
13791TIP3    H142255   3.457   7.354  10.618 -0.3171  0.4224  1.7168
13791TIP3    H242256   3.488   7.258  10.731  1.8015  0.0237  0.8379
13792TIP3   OH242257   5.146   7.205   3.244  0.2580 -0.1226 -0.2664
13792TIP3    H142258   5.220   7.195   3.304  1.1979 -0.6163 -1.4813
13792TIP3    H242259   5.164   7.144   3.173  0.3895  2.1049 -2.2558
13793TIP3   OH242260   6.278   8.314   8.324 -0.3418  0.2698 -0.6532
13793TIP3    H142261   6.369   8.334   8.303  0.2075 -0.5575  0.7533
13793TIP3    H242262   6.255   8.376   8.393 -0.3385 -0.4832  0.0408
13794TIP3   OH242263   6.468   9.217   8.954  0.3061  0.0076 -0.1351
13794TIP3    H142264   6.429   9.221   9.041  0.7805 -0.3781  0.1035
13794TIP3    H242265   6.444   9.300   8.913 -0.1658  0.0717  0.2557
13795TIP3   OH242266   3.616   6.341   3.465  0.5604  0.0957 -0.2103
13795TIP3    H142267   3.574   6.255   3.470 -0.5688  0.6413  0.1153
13795TIP3    H242268   3.709   6.322   3.456  0.2192 -1.1703 -1.3258
13796TIP3   OH242269   7.552   2.265   1.040 -0.0498  0.1832  0.0307
13796TIP3    H142270   7.558   2.360   1.054 -0.2280  0.1866  0.0883
13796TIP3    H242271   7.512   2.256   0.954 -0.1322  0.1601  0.0715
13797TIP3   OH242272   8.639   9.458   7.856 -0.4828 -0.4164  0.0969
13797TIP3    H142273   8.648   9.518   7.930 -1.1090 -0.8633  0.5389
13797TIP3    H242274   8.719   9.406   7.859 -0.6641 -0.6711  0.6758
13798TIP3   OH242275   3.479   9.488   7.517  0.1169  0.0941 -0.3269
13798TIP3    H142276   3.460   9.395   7.501  2.4453 -0.5115  0.1511
13798TIP3    H242277   3.533   9.489   7.596  1.1812  1.7430 -1.0210
13799TIP3   OH242278   2.730   0.746   2.378  0.2263  0.0502 -0.3402
13799TIP3    H142279   2.678   0.673   2.345  0.5931  0.2820 -1.4642
13799TIP3    H242280   2.821   0.715   2.374  0.5166  1.0527 -2.1907
13800TIP3   OH242281   6.426   9.919   1.891 -0.5633 -0.1958 -0.4063
13800TIP3    H142282   6.483   9.943   1.818  1.5833  0.0471  1.2638
13800TIP3    H242283   6.370   9.995   1.905  1.1096  0.9891  0.1109
13801TIP3   OH242284   2.347   2.702   0.613 -0.3589  0.4242 -0.6481
13801TIP3    H142285   2.400   2.773   0.652 -0.6301 -0.2159  0.9818
13801TIP3    H242286   2.382   2.692   0.525  1.9571  0.3358  0.2166
13802TIP3   OH242287   3.358   6.453  10.419 -0.0574  0.2372  0.5836
13802TIP3    H142288   3.333   6.542  10.444 -0.5578  0.0826  0.6414
13802TIP3    H242289   3.284   6.399  10.445  0.0027 -0.1184  0.0219
13803TIP3   OH242290   6.285   0.642   5.357  0.1318 -0.6244  0.0707
13803TIP3    H142291   6.342   0.704   5.401 -0.1173 -0.5888  0.3479
13803TIP3    H242292   6.250   0.691   5.282  1.4229 -1.0296 -0.8358
13804TIP3   OH242293   5.984   1.166  10.756 -0.0551 -0.9621 -0.5613
13804TIP3    H142294   5.990   1.095  10.820 -0.6858  1.5206  2.5560
13804TIP3    H242295   6.071   1.170  10.717  0.0402 -3.2687 -0.7148
13805TIP3   OH242296   8.076   7.311   8.224 -0.0271 -0.6673  0.5101
13805TIP3    H142297   7.996   7.266   8.199 -2.0338  2.7232  0.2678
13805TIP3    H242298   8.128   7.315   8.144 -2.0099  1.5342 -0.7909
13806TIP3   OH242299   4.751   6.726   4.524 -0.5028  0.4944  0.1967
13806TIP3    H142300   4.750   6.632   4.506 -0.6505  0.6248 -0.4887
13806TIP3    H242301   4.673   6.759   4.481 -2.6627  0.3676  3.6699
13807TIP3   OH242302   4.538   9.289   7.983 -0.1889  0.1412  0.2677
13807TIP3    H142303   4.466   9.287   8.046 -0.8778 -0.1894 -0.5169
13807TIP3    H242304   4.609   9.335   8.029 -1.3441  1.6684  0.5798
13808TIP3   OH242305   8.992   0.572   2.930 -0.2942  1.3344  0.4524
13808TIP3    H142306   8.952   0.513   2.993  0.1995  0.6572  0.1480
13808TIP3    H242307   8.976   0.660   2.965  0.0628  0.9713  1.5817
13809TIP3   OH242308   2.158  10.736   2.378  0.8188  0.5627 -0.2666
13809TIP3    H142309   2.250  10.743   2.404  0.6480  2.1229  0.0695
13809TIP3    H242310   2.114  10.696   2.453  1.2747 -0.5425 -0.5827
13810TIP3   OH242311   4.698   9.825   3.187 -0.0087  0.0325 -0.5351
13810TIP3    H142312   4.654   9.879   3.251 -0.5408 -2.0965  1.0164
13810TIP3    H242313   4.788   9.859   3.184  0.6009 -0.9015  2.8303
13811TIP3   OH242314   4.630   5.046   8.474 -0.1355 -0.5477 -0.5401
13811TIP3    H142315   4.569   5.109   8.514  1.3439  1.1379 -0.7982
13811TIP3    H242316   4.591   4.961   8.491 -1.1615  0.2850  1.7556
13812TIP3   OH242317   4.669   1.273   8.545 -0.3197  0.0174  0.2954
13812TIP3    H142318   4.697   1.351   8.498 -0.7379 -0.8610 -1.5146
13812TIP3    H242319   4.672   1.297   8.638  1.7185  1.4448 -0.0898
13813TIP3   OH242320   4.952   7.721   3.288 -0.1708 -0.0044  0.7314
13813TIP3    H142321   4.963   7.637   3.243 -0.2419 -1.0648  2.6113
13813TIP3    H242322   5.041   7.754   3.300  0.0027 -0.7372  1.6074
13814TIP3   OH242323   4.965   0.739  10.770  0.0298 -0.2851  0.0993
13814TIP3    H142324   4.903   0.753  10.842 -1.0865 -1.0950 -0.6751
13814TIP3    H242325   5.014   0.661  10.796 -3.0467 -3.0560 -1.6720
13815TIP3   OH242326   2.594   9.413   6.353 -0.2887 -0.2768  0.6698
13815TIP3    H142327   2.635   9.499   6.350 -0.4150 -0.2119  0.7964
13815TIP3    H242328   2.632   9.366   6.279  1.5898 -0.9351  1.9701
13816TIP3   OH242329  10.705   5.821   7.736  0.0896  0.4491  0.0217
13816TIP3    H142330  10.764   5.896   7.732  1.3267 -0.3214  2.3067
13816TIP3    H242331  10.759   5.746   7.711 -0.7289  0.0743 -0.7270
13817TIP3   OH242332   6.376   0.516   5.594 -0.3286 -0.2073 -0.2528
13817TIP3    H142333   6.365   0.421   5.584  0.6151 -0.3945  0.3228
13817TIP3    H242334   6.340   0.553   5.513 -1.1489 -1.0215 -0.2704
13818TIP3   OH242335   5.332   2.825   7.257 -0.2336 -0.6070 -0.0483
13818TIP3    H142336   5.401   2.784   7.205  0.0248 -0.8747  0.4956
13818TIP3    H242337   5.255   2.825   7.199  0.2680 -0.1345 -0.7252
13819TIP3   OH242338   2.174  10.444   9.324 -0.4054  0.2290 -0.0231
13819TIP3    H142339   2.151  10.499   9.249  3.0739  1.1955 -0.5296
13819TIP3    H242340   2.119  10.478   9.395  0.1799  3.1216 -0.8162
13820TIP3   OH242341   2.391   7.829   4.184 -0.3204 -0.0890 -0.0599
13820TIP3    H142342   2.327   7.770   4.226  1.3678 -2.5401 -0.6794
13820TIP3    H242343   2.392   7.801   4.092  1.1092  0.3444 -0.1988
13821TIP3   OH242344   5.764   4.094  10.104  1.0085 -0.0284  0.7156
13821TIP3    H142345   5.840   4.035  10.100  0.0469 -1.3955  1.7541
13821TIP3    H242346   5.705   4.053  10.167 -0.7782  0.8018 -0.3439
13822TIP3   OH242347   5.552   7.105   5.388  0.1198  0.2380  0.0183
13822TIP3    H142348   5.539   7.080   5.480 -0.4952  0.8399  0.0995
13822TIP3    H242349   5.627   7.052   5.360  0.3627  0.1007  0.8852
13823TIP3   OH242350   5.864   4.770   6.900  0.2195 -0.1890  0.1532
13823TIP3    H142351   5.912   4.693   6.870  0.9114  1.0720 -2.3406
13823TIP3    H242352   5.847   4.820   6.820 -3.6961  0.3940  1.1457
13824TIP3   OH242353   8.509   0.733   1.472 -0.6104  0.3868  0.2403
13824TIP3    H142354   8.556   0.807   1.512 -0.0160 -0.8016  1.8347
13824TIP3    H242355   8.435   0.717   1.530 -1.0101  0.0176 -0.3543
13825TIP3   OH242356   1.037   7.998   7.233  0.1251  0.4187 -0.1439
13825TIP3    H142357   1.117   8.045   7.210 -1.3287  2.1110 -2.1690
13825TIP3    H242358   0.996   8.051   7.301  0.1631  0.1798  0.0666
13826TIP3   OH242359   0.329   3.860  10.364  0.0504 -0.0172 -0.2282
13826TIP3    H142360   0.416   3.898  10.380 -0.8346  1.5563  1.2349
13826TIP3    H242361   0.268   3.929  10.390 -1.6586 -1.9059  1.0920
13827TIP3   OH242362   3.798   5.126   8.121  0.6333 -0.1559 -0.3131
13827TIP3    H142363   3.836   5.042   8.095  0.5498 -0.6039  0.9406
13827TIP3    H242364   3.814   5.132   8.215  0.5361  1.1878 -0.3553
13828TIP3   OH242365   6.370   8.064   8.948  0.4378  0.1777  0.1353
13828TIP3    H142366   6.298   8.001   8.946  0.4330  0.1808  0.2076
13828TIP3    H242367   6.446   8.012   8.975  1.4474 -0.8297 -3.9339
13829TIP3   OH242368   9.200   6.205   8.075  0.2171  0.3379  0.1438
13829TIP3    H142369   9.281   6.202   8.023  0.3685  0.6030  0.3562
13829TIP3    H242370   9.228   6.239   8.160  0.0247 -0.3651  0.4992
13830TIP3   OH242371   0.935   5.200   4.657  0.2994 -0.3199 -0.0434
13830TIP3    H142372   1.030   5.190   4.657  0.4895  1.2217  0.2495
13830TIP3    H242373   0.920   5.283   4.611 -1.0617 -1.6361 -2.1252
13831TIP3   OH242374   1.318   7.437   5.076 -0.3034 -0.2726  0.2542
13831TIP3    H142375   1.300   7.435   4.982 -0.0216 -0.4760  0.2044
13831TIP3    H242376   1.233   7.454   5.117 -0.2788  0.7582 -0.0884
13832TIP3   OH242377   4.988   7.918   8.949 -0.4331 -0.2020  0.4802
13832TIP3    H142378   4.932   7.965   9.011 -0.0639 -0.6005  1.1360
13832TIP3    H242379   4.998   7.831   8.988 -1.5582 -1.0419 -0.9772
13833TIP3   OH242380   6.856   6.191   3.169 -0.0177  0.2680 -0.1998
13833TIP3    H142381   6.912   6.264   3.143  2.6027 -1.1651  0.9617
13833TIP3    H242382   6.874   6.123   3.105  0.1843 -0.4710  0.6173
13834TIP3   OH242383  10.326   1.800   7.948  0.0707 -0.1476 -0.1432
13834TIP3    H142384  10.241   1.806   7.992  0.3516  1.8169  0.2355
13834TIP3    H242385  10.383   1.758   8.013 -0.4824 -1.0298 -0.2171
13835TIP3   OH242386   3.731   0.915  10.744 -0.1662 -0.0686  0.1760
13835TIP3    H142387   3.778   0.944  10.821  0.2315 -0.8629  0.2423
13835TIP3    H242388   3.794   0.861  10.696 -1.1876 -1.7636  0.6312
13836TIP3   OH242389   1.514   7.216   4.535  0.5830 -0.6590 -0.0835
13836TIP3    H142390   1.480   7.128   4.520  3.3667 -1.5624 -1.8768
13836TIP3    H242391   1.466   7.272   4.473 -1.7683 -0.6417  1.6107
13837TIP3   OH242392   1.309   0.105   5.423  0.4700 -0.3313 -0.3761
13837TIP3    H142393   1.369   0.160   5.473 -1.6850  0.7939  1.0906
13837TIP3    H242394   1.348   0.102   5.335  1.5356  2.1445 -0.0739
13838TIP3   OH242395   6.617   0.266   5.975 -0.1560 -0.3099 -0.0428
13838TIP3    H142396   6.589   0.322   6.048 -0.7571  0.2707 -0.7082
13838TIP3    H242397   6.612   0.177   6.010 -1.4854 -0.1241  0.3160
13839TIP3   OH242398   2.932   7.473   5.041  0.5990 -0.8718 -0.1264
13839TIP3    H142399   2.920   7.475   4.946  0.4309 -2.1272 -0.1451
13839TIP3    H242400   2.843   7.481   5.076  0.8165  1.6861  0.0015
13840TIP3   OH242401   2.651   9.582  10.117 -0.3129 -0.8217 -0.0399
13840TIP3    H142402   2.608   9.520  10.059  0.1498 -2.4709  1.2979
13840TIP3    H242403   2.656   9.537  10.202 -1.3828  1.6480  1.4469
13841TIP3   OH242404   3.879   4.537   4.166  0.0459  0.0605  0.9262
13841TIP3    H142405   3.897   4.515   4.075 -3.5078 -1.8706  0.4938
13841TIP3    H242406   3.839   4.624   4.163  1.4504  0.7270  0.9010
13842TIP3   OH242407   6.431   0.749   9.787 -0.4452  0.3455  0.1792
13842TIP3    H142408   6.399   0.679   9.845 -1.3013  1.3777  0.9972
13842TIP3    H242409   6.369   0.751   9.715  0.0726 -0.2970 -0.2964
13843TIP3   OH242410   2.289   4.476   1.574  0.1009 -0.2179 -0.0197
13843TIP3    H142411   2.353   4.407   1.589 -0.5941 -0.9262 -0.2104
13843TIP3    H242412   2.233   4.442   1.504 -1.2626 -0.1739  1.0029
13844TIP3   OH242413   0.530   3.271   7.407  0.0491 -1.0912 -0.3962
13844TIP3    H142414   0.585   3.345   7.381 -0.7857 -0.5450 -0.6776
13844TIP3    H242415   0.590   3.207   7.444  0.6646  0.2527  1.0323
13845TIP3   OH242416  10.334   0.098   2.732 -0.6679  0.7254  0.0184
13845TIP3    H142417  10.384   0.158   2.787  0.4370 -2.0297  2.2968
13845TIP3    H242418  10.244   0.104   2.765 -0.3721  0.4666  0.9052
13846TIP3   OH242419   2.989  10.352   8.092 -0.3697 -0.1505  0.3816
13846TIP3    H142420   2.902  10.326   8.062  0.6875 -0.5669 -2.7017
13846TIP3    H242421   3.033  10.269   8.113  0.3593 -0.2835 -1.5001
13847TIP3   OH242422   8.927   7.902   5.485  0.2939  0.4345  0.3324
13847TIP3    H142423   8.853   7.961   5.473  0.1050  0.1298 -0.0477
13847TIP3    H242424   8.887   7.820   5.517  0.4093  0.1238 -0.3095
13848TIP3   OH242425  10.112   5.093   0.721 -0.6852 -0.4733 -0.9902
13848TIP3    H142426  10.042   5.069   0.660 -2.1074 -3.0154  1.3589
13848TIP3    H242427  10.161   5.011   0.733 -0.4022 -0.0372  1.1225
13849TIP3   OH242428   3.029   4.801   6.338  0.2734 -0.4159  0.1051
13849TIP3    H142429   2.965   4.751   6.388 -0.6906  0.7326  0.0551
13849TIP3    H242430   3.025   4.764   6.249 -0.8751  0.1231 -0.0856
13850TIP3   OH242431   4.338  10.613   2.495 -0.0901  0.3675  0.3236
13850TIP3    H142432   4.376  10.566   2.421  0.7652  1.5660 -0.0254
13850TIP3    H242433   4.252  10.642   2.464 -0.9631 -1.5142  0.7875
13851TIP3   OH242434   7.854   8.345   9.078  0.3003  0.0845 -0.4639
13851TIP3    H142435   7.937   8.388   9.059  1.3238 -0.9499  1.3113
13851TIP3    H242436   7.852   8.337   9.174 -2.0881  0.4951 -0.4069
13852TIP3   OH242437   5.908  10.156   9.212 -0.7645 -0.2327  0.8671
13852TIP3    H142438   5.952  10.149   9.128 -0.2443  1.6238  0.9458
13852TIP3    H242439   5.917  10.069   9.252  0.9000 -0.5116 -0.0519
13853TIP3   OH242440   6.143   7.465   1.143 -0.7089 -0.0132 -0.3020
13853TIP3    H142441   6.192   7.547   1.149 -0.6944  0.1692 -2.2655
13853TIP3    H242442   6.167   7.429   1.057 -3.7407 -0.0683 -1.2332
13854TIP3   OH242443   6.681   6.175   5.622 -0.1383 -0.2586 -0.1910
13854TIP3    H142444   6.761   6.211   5.584  0.2941 -1.2081 -0.1981
13854TIP3    H242445   6.645   6.247   5.674  1.2064 -0.0940  0.5569
13855TIP3   OH242446   4.514   5.097   3.002 -0.2838 -0.0885 -0.1205
13855TIP3    H142447   4.422   5.076   3.018 -0.5162  0.2197 -0.9989
13855TIP3    H242448   4.521   5.190   3.024 -0.1407 -0.1541  0.1125
13856TIP3   OH242449   9.754   6.249   9.717 -0.1962  0.2640  0.1145
13856TIP3    H142450   9.823   6.316   9.725  1.7834 -1.6245 -0.2319
13856TIP3    H242451   9.759   6.200   9.799 -0.8067 -0.2109 -0.1314
13857TIP3   OH242452   8.678   5.724   8.925  0.2705 -0.6839  0.4917
13857TIP3    H142453   8.695   5.746   8.834  0.0786  0.8848  0.7986
13857TIP3    H242454   8.604   5.781   8.950  1.6434  0.4841  2.1865
13858TIP3   OH242455   5.465   9.720   6.404 -0.1013  0.4055  0.1365
13858TIP3    H142456   5.421   9.785   6.348 -0.7145  0.6705  0.9070
13858TIP3    H242457   5.418   9.725   6.488 -0.1933 -1.0685  0.1974
13859TIP3   OH242458   6.239   4.347   2.047  0.3915 -0.3417 -0.2596
13859TIP3    H142459   6.204   4.316   2.130  0.4976 -1.4889 -0.6273
13859TIP3    H242460   6.328   4.377   2.067  0.2479 -0.1605  0.1164
13860TIP3   OH242461   4.835  10.103   7.737 -0.0826  0.2462  0.2551
13860TIP3    H142462   4.790  10.108   7.822  2.2086  2.2699  1.4926
13860TIP3    H242463   4.855  10.010   7.726 -1.3090 -0.1869  1.4332
13861TIP3   OH242464   8.866   1.551   7.503 -0.8404  0.6184 -0.4191
13861TIP3    H142465   8.792   1.554   7.442 -0.6252 -0.9835 -0.8170
13861TIP3    H242466   8.937   1.512   7.452 -0.0541  1.0784  0.2987
13862TIP3   OH242467  10.749   0.857   2.770  0.1043  0.1818 -0.4931
13862TIP3    H142468  10.658   0.835   2.749  0.0685  1.2633 -1.5500
13862TIP3    H242469  10.746   0.948   2.798  0.2969 -0.8594  3.4924
13863TIP3   OH242470   6.993   7.171   4.575 -0.3665  0.1329  0.6183
13863TIP3    H142471   6.935   7.149   4.503 -1.0967  1.1020  0.8875
13863TIP3    H242472   7.013   7.264   4.563  0.5758 -0.0253  0.9133
13864TIP3   OH242473   8.177   8.419   7.322  0.2537 -0.6446  0.1258
13864TIP3    H142474   8.191   8.330   7.354  1.7243 -0.5046 -0.0716
13864TIP3    H242475   8.128   8.462   7.393  0.0330 -1.4400  0.4655
13865TIP3   OH242476   6.536   1.294   8.552  0.2884  0.1732  0.1225
13865TIP3    H142477   6.626   1.317   8.527 -0.2701  2.4012 -0.0786
13865TIP3    H242478   6.509   1.364   8.611 -0.3209 -2.0946  2.7390
13866TIP3   OH242479   0.927   8.501   6.459 -0.4344  0.5896  0.8774
13866TIP3    H142480   0.974   8.548   6.528  1.9044 -0.7009  0.2856
13866TIP3    H242481   0.935   8.557   6.382  0.1406  0.3959  0.7898
13867TIP3   OH242482   7.814   8.480   6.243 -0.0804  0.1029  0.3378
13867TIP3    H142483   7.754   8.407   6.258  0.7949 -0.3257  2.0081
13867TIP3    H242484   7.869   8.483   6.322 -0.8733  3.3287  0.9379
13868TIP3   OH242485   4.900   0.661   5.434 -0.0976 -0.2138 -0.1593
13868TIP3    H142486   4.815   0.682   5.395 -0.3819  1.7231  1.3535
13868TIP3    H242487   4.921   0.736   5.489  2.5240 -0.7269 -0.3034
13869TIP3   OH242488   5.026   1.831   4.470 -0.7906 -0.3850  0.1459
13869TIP3    H142489   4.986   1.746   4.487 -1.4880  0.1206  1.1651
13869TIP3    H242490   4.951   1.891   4.460 -0.3194  0.0498 -0.9186
13870TIP3   OH242491   3.619   9.134  10.807 -0.1764 -0.4474 -0.1968
13870TIP3    H142492   3.574   9.053  10.781 -0.0510 -0.7864  0.6174
13870TIP3    H242493   3.548   9.191  10.838 -0.0750 -0.9839  1.0903
13871TIP3   OH242494   8.451   6.167  10.554 -0.0874  0.7294  0.4548
13871TIP3    H142495   8.360   6.189  10.577 -0.1220  0.9116  0.1516
13871TIP3    H242496   8.474   6.232  10.487  0.7124  1.5449  1.4966
13872TIP3   OH242497  10.600   5.372  10.594 -0.6499  0.2286  0.0865
13872TIP3    H142498  10.612   5.460  10.556  0.8685  0.1228  0.2643
13872TIP3    H242499  10.578   5.389  10.686  0.5686  0.4293  0.3564
13873TIP3   OH242500   5.548   9.444   8.687 -0.4691  0.2577  0.0174
13873TIP3    H142501   5.592   9.368   8.649  0.2461  0.6613  0.0200
13873TIP3    H242502   5.507   9.410   8.766 -3.2039 -0.9320 -1.7735
13874TIP3   OH242503   1.932   5.366   5.644  0.0056 -0.1547  0.1143
13874TIP3    H142504   1.966   5.276   5.644 -1.9575 -0.9336  0.1622
13874TIP3    H242505   1.940   5.395   5.553  2.1135  0.2604  0.3733
13875TIP3   OH242506   0.788   8.351  10.758  0.4761 -0.6791 -0.4248
13875TIP3    H142507   0.763   8.308  10.840 -0.8128  0.9734  0.1074
13875TIP3    H242508   0.874   8.389  10.776 -0.0052  0.0805  0.3497
13876TIP3   OH242509   9.809   8.348   2.652 -0.3926  0.2835  0.0191
13876TIP3    H142510   9.737   8.285   2.656  0.9907 -1.3640  0.0724
13876TIP3    H242511   9.883   8.302   2.690  0.6824  1.9673  0.0499
13877TIP3   OH242512   8.473   3.833   8.162 -0.1031 -0.3344 -0.3915
13877TIP3    H142513   8.509   3.878   8.239  2.8179  0.1536 -1.9078
13877TIP3    H242514   8.511   3.878   8.087 -1.7725 -1.6569 -2.1579
13878TIP3   OH242515   7.855   1.440   9.248 -0.1048 -0.2236  0.5598
13878TIP3    H142516   7.817   1.524   9.221 -1.6018 -1.4731 -1.4643
13878TIP3    H242517   7.850   1.441   9.343 -3.3709  0.5588  0.4867
13879TIP3   OH242518   4.008   4.789   1.297 -0.2581 -0.5849 -0.4641
13879TIP3    H142519   4.094   4.776   1.258 -0.6536 -1.0356 -1.2044
13879TIP3    H242520   3.995   4.712   1.353 -0.1905 -0.5304 -0.3733
13880TIP3   OH242521   0.867   4.253   4.699 -0.2448 -0.0124 -0.2710
13880TIP3    H142522   0.909   4.208   4.772  1.3027 -0.3914 -1.3473
13880TIP3    H242523   0.938   4.277   4.640 -1.5410 -3.0678 -3.5395
13881TIP3   OH242524   3.304   7.082   4.393 -0.2576 -0.7411  0.0069
13881TIP3    H142525   3.285   7.007   4.449 -1.5736  0.5355  1.3645
13881TIP3    H242526   3.324   7.153   4.454 -0.0303  0.2729 -1.2066
13882TIP3   OH242527   2.973   1.482   0.800  0.0093  0.0325 -0.6069
13882TIP3    H142528   2.926   1.525   0.872  0.3268 -0.6676  0.0307
13882TIP3    H242529   3.059   1.524   0.799  0.6892 -1.2228  0.6800
13883TIP3   OH242530   5.912   7.098   8.995  0.1121  0.1447 -0.5937
13883TIP3    H142531   5.823   7.134   8.992 -0.5783 -1.2511  1.2329
13883TIP3    H242532   5.956   7.146   9.064  0.9229  1.0252 -1.6805
13884TIP3   OH242533  10.108   4.175   3.132  0.5897  0.3235 -0.3095
13884TIP3    H142534  10.171   4.150   3.199  0.3840  2.8632  0.9850
13884TIP3    H242535  10.064   4.252   3.168 -2.5240 -0.6644 -1.6057
13885TIP3   OH242536   2.534   9.153   6.810  0.2961  0.2727  0.6039
13885TIP3    H142537   2.559   9.160   6.718 -0.6582  0.6970  0.3653
13885TIP3    H242538   2.457   9.096   6.810 -1.3887  2.4343  0.7963
13886TIP3   OH242539   9.696   6.153   2.478 -0.4456  0.1845  0.1041
13886TIP3    H142540   9.613   6.112   2.454  0.0337 -0.0511 -1.2463
13886TIP3    H242541   9.692   6.239   2.436 -0.6550  0.8115  1.3608
13887TIP3   OH242542   3.987   5.706   6.370 -0.0123  0.0051  0.1120
13887TIP3    H142543   4.075   5.730   6.400  0.6191 -0.0115 -1.6046
13887TIP3    H242544   3.932   5.780   6.395  0.7856  0.6727 -0.0474
13888TIP3   OH242545  10.707  10.670   6.464 -0.2323  0.3321 -0.2341
13888TIP3    H142546  10.794  10.632   6.477 -0.6776 -0.1688  1.5978
13888TIP3    H242547  10.664  10.661   6.549 -1.9768  0.8499 -1.0104
13889TIP3   OH242548   6.752  10.799   0.001 -0.0647  0.3734  0.0535
13889TIP3    H142549   6.770  10.857   0.075 -0.5796  1.0162 -0.3002
13889TIP3    H242550   6.716  10.720   0.040 -3.9373  2.0570  0.4308
13890TIP3   OH242551   8.864   0.693   7.328 -0.2483 -0.1523 -0.2040
13890TIP3    H142552   8.929   0.748   7.284 -1.7770  0.8525 -1.2869
13890TIP3    H242553   8.869   0.719   7.420 -0.8779  1.7991 -0.6724
13891TIP3   OH242554   3.666   2.531   7.698  0.0361  0.7760 -0.0685
13891TIP3    H142555   3.642   2.459   7.757 -0.6700  1.3333  0.3320
13891TIP3    H242556   3.634   2.504   7.612 -2.3210  1.6097  0.4936
13892TIP3   OH242557   2.253   0.849   8.580  0.2223  0.2966  0.0530
13892TIP3    H142558   2.214   0.826   8.664 -0.6530 -0.2941 -0.5010
13892TIP3    H242559   2.347   0.837   8.594  0.1507  0.8307  1.1280
13893TIP3   OH242560   7.664   5.728   3.566 -0.5817 -0.1996  0.1280
13893TIP3    H142561   7.675   5.669   3.640  0.2683 -0.7107 -0.3880
13893TIP3    H242562   7.751   5.765   3.551 -0.5700 -0.6536 -1.0555
13894TIP3   OH242563   6.751   7.844   9.698  0.0843 -0.0051  0.1736
13894TIP3    H142564   6.813   7.773   9.682  0.0832  0.2168 -0.8925
13894TIP3    H242565   6.696   7.813   9.769  0.8438 -0.5780  0.5124
13895TIP3   OH242566   5.389  10.095   7.910 -0.1247  0.4489  1.1191
13895TIP3    H142567   5.388  10.001   7.927 -1.2984  0.7724  3.2129
13895TIP3    H242568   5.387  10.102   7.815  0.6850 -1.6248  0.8935
13896TIP3   OH242569  10.086   2.940  10.445 -0.0989 -0.0155 -0.0276
13896TIP3    H142570  10.045   2.866  10.401  0.4425 -0.2754 -0.1025
13896TIP3    H242571  10.013   2.999  10.466 -0.5205 -0.5191 -0.0559
13897TIP3   OH242572   3.758   4.229   7.946  0.2824  0.1833 -0.3343
13897TIP3    H142573   3.740   4.191   8.033  1.2683  1.4934  0.4800
13897TIP3    H242574   3.845   4.196   7.923 -0.2743 -0.7504 -1.1936
13898TIP3   OH242575   5.339   6.483   2.725  1.0070 -0.0383  0.1664
13898TIP3    H142576   5.282   6.551   2.761  0.3284  0.0658 -1.0601
13898TIP3    H242577   5.411   6.532   2.684  0.1720  0.0003 -1.3058
13899TIP3   OH242578   2.435   9.303   7.313 -0.8107 -0.0650  0.1847
13899TIP3    H142579   2.445   9.393   7.345 -2.0820 -0.1211  0.7867
13899TIP3    H242580   2.497   9.252   7.365  0.9226  0.6488 -1.1055
13900TIP3   OH242581   4.085  10.869   8.115 -0.1753  0.4805  0.2098
13900TIP3    H142582   4.069  10.850   8.208 -0.0866  1.4672  0.4401
13900TIP3    H242583   4.141  10.797   8.086 -2.0544 -1.1156  0.2957
13901TIP3   OH242584   5.764  10.301   8.662 -0.2931 -0.9349  0.0201
13901TIP3    H142585   5.750  10.395   8.671 -0.3242 -0.6186 -2.6992
13901TIP3    H242586   5.806  10.275   8.745  2.9346  2.0921 -0.4529
13902TIP3   OH242587  10.229   7.636   8.202 -0.1075 -0.0038  0.4673
13902TIP3    H142588  10.141   7.611   8.230  0.1785 -0.1636  1.2310
13902TIP3    H242589  10.277   7.554   8.194 -0.6450 -0.1595 -2.2176
13903TIP3   OH242590   1.907   6.310   3.096  0.0424 -0.1021  0.2221
13903TIP3    H142591   1.943   6.339   3.013  0.3359 -1.7185 -0.2599
13903TIP3    H242592   1.981   6.269   3.141  0.5378  2.8880  2.4149
13904TIP3   OH242593   9.789   4.706   7.906  0.6834  0.0769 -0.2763
13904TIP3    H142594   9.764   4.675   7.819 -0.6125  1.1275 -0.3143
13904TIP3    H242595   9.819   4.796   7.892 -1.1865  0.8962  0.5313
13905TIP3   OH242596   1.162   1.351   9.160  0.1613 -0.2051  0.0173
13905TIP3    H142597   1.173   1.399   9.078  0.6227  0.8600  0.6974
13905TIP3    H242598   1.249   1.319   9.182  0.2275  0.4018  0.6372
13906TIP3   OH242599   7.681  10.356   2.345  0.4257  0.0016 -0.2887
13906TIP3    H142600   7.652  10.265   2.331  0.6066 -0.5825  2.5313
13906TIP3    H242601   7.760  10.364   2.292 -0.7106 -0.7662 -2.2247
13907TIP3   OH242602   4.078  10.265   8.422 -0.0237  0.6483 -0.0207
13907TIP3    H142603   4.045  10.235   8.337 -1.8665 -0.3821  0.9849
13907TIP3    H242604   4.164  10.301   8.403 -0.3622  0.4156 -2.3186
13908TIP3   OH242605   9.753   8.850   2.589  0.2977 -0.0078 -0.1873
13908TIP3    H142606   9.820   8.846   2.521  0.9967 -0.3200  0.4997
13908TIP3    H242607   9.792   8.803   2.663 -0.3853  0.4486  0.4729
13909TIP3   OH242608   7.398   1.234  10.465  0.3358 -0.1893 -0.2081
13909TIP3    H142609   7.374   1.283  10.386 -1.8984  0.8850  1.0504
13909TIP3    H242610   7.344   1.155  10.462 -0.4610  0.2980  0.6537
13910TIP3   OH242611   8.252  10.491   3.627 -0.3537  0.0008 -0.0953
13910TIP3    H142612   8.314  10.471   3.558 -0.0698 -0.5525  0.3068
13910TIP3    H242613   8.299  10.550   3.686 -0.0602 -0.7137  0.4074
13911TIP3   OH242614   4.878   7.048   4.883  0.6814  0.2821  0.3502
13911TIP3    H142615   4.862   7.117   4.818  0.0021 -2.1132 -2.1986
13911TIP3    H242616   4.790   7.021   4.911  0.9589  0.8761  1.9030
13912TIP3   OH242617   0.026   4.689   3.282 -0.4680 -0.3329 -0.9870
13912TIP3    H142618   0.025   4.703   3.376 -0.1229  2.5223 -1.3293
13912TIP3    H242619  -0.066   4.692   3.255 -0.4430  2.0312 -1.0462
13913TIP3   OH242620   9.372   1.848   3.255  0.3313 -0.0373  0.6054
13913TIP3    H142621   9.454   1.851   3.205  0.6295  1.2185  1.1189
13913TIP3    H242622   9.341   1.759   3.245  1.1958 -0.2363 -0.5209
13914TIP3   OH242623   1.241   9.867   2.152  0.0927  0.1678 -0.4985
13914TIP3    H142624   1.201   9.902   2.072  3.2603  1.1338 -1.8348
13914TIP3    H242625   1.297   9.795   2.121  1.0565  0.2894  0.8650
13915TIP3   OH242626   7.840   1.809   2.796  0.0787  0.4297 -0.7341
13915TIP3    H142627   7.801   1.847   2.717 -0.1763  0.8219 -0.4254
13915TIP3    H242628   7.789   1.846   2.868  1.3603  1.3781 -0.2842
13916TIP3   OH242629   6.622   5.243   9.954 -0.1680 -0.0554 -0.1160
13916TIP3    H142630   6.566   5.320   9.952  0.1952  0.2088 -0.2379
13916TIP3    H242631   6.632   5.223  10.047  0.9075  0.9145 -0.0024
13917TIP3   OH242632   7.085   7.119   2.026  0.2442 -0.2367  0.3309
13917TIP3    H142633   7.083   7.141   2.119 -1.1654 -0.5802  0.3943
13917TIP3    H242634   7.134   7.191   1.986  0.4323  0.1712  1.2675
13918TIP3   OH242635   5.532   0.951   1.602 -0.4292 -0.2387  0.2406
13918TIP3    H142636   5.449   0.994   1.620 -0.9056 -1.1421  0.2394
13918TIP3    H242637   5.528   0.927   1.509 -0.6237 -1.2408  0.4991
13919TIP3   OH242638   2.285   3.023   1.379 -0.4618  0.5643 -0.0538
13919TIP3    H142639   2.241   2.941   1.355  0.7558 -0.5967  1.4667
13919TIP3    H242640   2.306   3.064   1.296  2.9297 -2.9014 -1.2177
13920TIP3   OH242641   6.609   0.696   3.670 -0.6238 -0.5402  0.1024
13920TIP3    H142642   6.582   0.772   3.722  0.4729  0.5362 -0.8246
13920TIP3    H242643   6.648   0.636   3.734  0.5422  0.6812  0.5828
13921TIP3   OH242644   2.103   1.970   3.598 -0.1443  0.7637  0.3329
13921TIP3    H142645   2.152   2.047   3.627  0.1387  0.6052  0.2881
13921TIP3    H242646   2.031   1.961   3.660 -0.6355  1.5162 -0.1145
13922TIP3   OH242647   4.819   0.044   5.458 -0.1193 -0.4211 -0.0074
13922TIP3    H142648   4.825  -0.048   5.431 -0.6800 -0.2617 -0.6988
13922TIP3    H242649   4.908   0.078   5.449  0.6049 -1.4688  2.4310
13923TIP3   OH242650   0.741   3.253   7.925  0.4366 -0.6476  0.0689
13923TIP3    H142651   0.811   3.301   7.882  0.8696 -1.9518 -0.7327
13923TIP3    H242652   0.688   3.321   7.967  1.5119  0.4447 -0.2818
13924TIP3   OH242653   7.079   4.521   8.577 -0.2930 -0.7383  0.0534
13924TIP3    H142654   6.993   4.483   8.591 -0.1974 -0.8516  0.3288
13924TIP3    H242655   7.122   4.517   8.662 -0.2127 -0.1850  0.0476
13925TIP3   OH242656   0.523  10.637   9.296 -0.2948 -0.5494  0.3540
13925TIP3    H142657   0.604  10.679   9.324  0.9006 -1.9828 -0.7907
13925TIP3    H242658   0.528  10.549   9.334 -0.3442 -1.3120 -1.3342
13926TIP3   OH242659   5.532   3.965   1.488 -0.3989 -0.1135 -0.1184
13926TIP3    H142660   5.510   3.987   1.578 -0.3041  0.1724 -0.1637
13926TIP3    H242661   5.624   3.941   1.491  0.2458  2.0390 -0.4851
13927TIP3   OH242662   9.941   7.931   3.074  0.1760  0.6640 -0.7253
13927TIP3    H142663   9.866   7.885   3.108  1.4766 -0.6554  0.4741
13927TIP3    H242664   9.981   7.870   3.012  1.2449  0.6172 -0.0157
13928TIP3   OH242665   8.700   0.898   7.162 -0.4066  0.1718  0.1750
13928TIP3    H142666   8.765   0.864   7.100  0.0744  0.5998  0.4384
13928TIP3    H242667   8.687   0.989   7.134  0.6067  0.7007  1.3295
13929TIP3   OH242668  10.389   1.738   1.776 -0.0441  0.1090  0.2453
13929TIP3    H142669  10.415   1.657   1.732  0.0447  1.0158 -1.4824
13929TIP3    H242670  10.301   1.721   1.808  0.1003 -0.7752  0.2036
13930TIP3   OH242671   4.268   7.374   1.861  0.6565  0.7648 -0.0170
13930TIP3    H142672   4.354   7.342   1.835  1.3005  2.0152  0.4780
13930TIP3    H242673   4.260   7.459   1.818  0.2980  1.3124  1.1006
13931TIP3   OH242674   9.232   6.193   9.957  0.0204 -0.1362  0.2761
13931TIP3    H142675   9.246   6.256   9.886 -0.9892  0.2164  0.3796
13931TIP3    H242676   9.156   6.142   9.929  1.3089 -1.9067 -0.2046
13932TIP3   OH242677   1.029   6.613   0.106 -0.3302 -0.8689  0.6987
13932TIP3    H142678   0.986   6.583   0.186  0.8112 -1.2717  1.1885
13932TIP3    H242679   1.097   6.548   0.090 -0.0008 -0.3354 -0.1358
13933TIP3   OH242680   1.447   2.551   6.985  0.0850  0.1770 -0.1691
13933TIP3    H142681   1.538   2.577   6.970 -0.3881  2.7871  0.8110
13933TIP3    H242682   1.452   2.485   7.054  1.2256  1.1755  0.7554
13934TIP3   OH242683   7.671   0.604   9.799 -0.3968 -0.6668 -0.6261
13934TIP3    H142684   7.724   0.684   9.805 -0.2944 -0.7016 -1.0676
13934TIP3    H242685   7.714   0.551   9.732 -0.8396 -0.8046 -0.8090
13935TIP3   OH242686   2.827   3.054  10.134 -0.5297  0.2356 -0.4787
13935TIP3    H142687   2.846   3.070  10.041 -1.0047  0.3910 -0.5530
13935TIP3    H242688   2.876   2.975  10.155  1.5757  1.5425 -0.2004
13936TIP3   OH242689   0.777   8.825   5.570  0.1680 -0.2958  0.5868
13936TIP3    H142690   0.746   8.863   5.488  1.4426 -2.9303 -1.2760
13936TIP3    H242691   0.871   8.845   5.572  0.4053 -1.3211  0.6673
13937TIP3   OH242692   9.119   9.144   1.741 -0.2898  0.0271  0.3141
13937TIP3    H142693   9.056   9.080   1.708  2.6253 -2.3383 -1.2047
13937TIP3    H242694   9.118   9.215   1.677  0.5434 -1.3726 -1.3438
13938TIP3   OH242695   1.467   4.491   6.223 -0.7372 -0.0476  0.7373
13938TIP3    H142696   1.380   4.451   6.213 -0.5838 -0.2519  0.1835
13938TIP3    H242697   1.505   4.447   6.299 -1.0366 -0.0960  0.8626
13939TIP3   OH242698   5.669   9.345   9.103 -0.1437 -0.1544  0.6964
13939TIP3    H142699   5.653   9.277   9.169 -1.6101  0.9524  1.5540
13939TIP3    H242700   5.607   9.414   9.125  1.4678  1.6007  0.0244
13940TIP3   OH242701   9.485   2.649   9.921  0.5048  0.5617  0.2969
13940TIP3    H142702   9.556   2.668   9.982  0.7346 -1.3898  0.6847
13940TIP3    H242703   9.464   2.557   9.935 -2.0917  1.0453  0.1606
13941TIP3   OH242704   2.666   7.141   9.936 -0.2151 -0.6499  0.3437
13941TIP3    H142705   2.576   7.134   9.904 -0.6220  0.6467  1.1327
13941TIP3    H242706   2.672   7.230   9.972  1.9584 -0.0095 -1.3937
13942TIP3   OH242707   3.521   5.871   9.730 -0.0816 -0.0130 -0.1283
13942TIP3    H142708   3.575   5.855   9.652 -1.1738  1.8426 -1.3588
13942TIP3    H242709   3.583   5.891   9.799  0.8985 -1.1239 -0.6526
13943TIP3   OH242710   5.616   0.269   6.944  0.2348 -0.5155 -0.6050
13943TIP3    H142711   5.574   0.198   6.895 -1.3124 -0.4770  0.6034
13943TIP3    H242712   5.694   0.289   6.893  0.1553 -2.3525 -1.5515
13944TIP3   OH242713   4.370   7.029  10.631  0.1427  0.1345 -0.1779
13944TIP3    H142714   4.466   7.031  10.629  0.2078 -1.7492 -0.1795
13944TIP3    H242715   4.344   7.037  10.540  0.3265  0.0147 -0.2423
13945TIP3   OH242716   1.209  10.677   6.327  0.3096 -0.2225  0.5223
13945TIP3    H142717   1.123  10.651   6.293  0.8585 -0.4982 -0.7159
13945TIP3    H242718   1.270  10.613   6.288  1.0680 -0.0695  1.4316
13946TIP3   OH242719   2.197   7.281   3.500 -0.3163  0.0691  0.4426
13946TIP3    H142720   2.290   7.286   3.519 -0.4682  1.6410  0.9236
13946TIP3    H242721   2.156   7.265   3.586 -0.5859  1.0375  0.5069
13947TIP3   OH242722   6.221   9.841   2.379 -0.2530  0.4253  0.0866
13947TIP3    H142723   6.292   9.872   2.323  0.2310 -1.1103 -0.2150
13947TIP3    H242724   6.142   9.861   2.329  0.0681  0.6282 -0.3553
13948TIP3   OH242725   9.683   1.498   8.868  0.4413  0.0483  0.5383
13948TIP3    H142726   9.695   1.578   8.919 -0.9215  1.1921 -0.8407
13948TIP3    H242727   9.753   1.500   8.803 -1.0376  1.5083 -1.1127
13949TIP3   OH242728   8.742   2.836   3.091 -0.7252  0.0710  0.7337
13949TIP3    H142729   8.740   2.798   3.179  0.0389  0.3480  0.8724
13949TIP3    H242730   8.835   2.846   3.071 -0.8632 -0.6206 -0.3790
13950TIP3   OH242731   6.464   1.107   8.753 -0.1672  0.2585 -0.2699
13950TIP3    H142732   6.422   1.175   8.701  0.2360  1.8533  1.3949
13950TIP3    H242733   6.410   1.100   8.831  0.4035 -0.5758  0.0603
13951TIP3   OH242734   1.487   5.920   3.570 -0.0591 -0.1799 -0.5308
13951TIP3    H142735   1.395   5.912   3.543 -0.0220 -0.4662 -0.5748
13951TIP3    H242736   1.500   6.014   3.582  0.3299  0.1457 -2.9316
13952TIP3   OH242737   4.126   2.084   1.336  1.0034 -0.0441  0.0530
13952TIP3    H142738   4.040   2.079   1.377  1.0006 -0.1710  0.0303
13952TIP3    H242739   4.120   2.161   1.279  0.9366  0.0037  0.1240
13953TIP3   OH242740   5.020   5.920   9.763  0.3087 -0.0977 -0.0643
13953TIP3    H142741   5.061   5.970   9.692  1.0741 -0.3586  0.1822
13953TIP3    H242742   5.086   5.921   9.833 -0.6150  0.5560  0.8252
13954TIP3   OH242743   0.808  10.477   9.750  0.3681  0.4224  0.0808
13954TIP3    H142744   0.852  10.393   9.757 -1.7896 -0.6149  2.7602
13954TIP3    H242745   0.849  10.532   9.817 -0.2486  0.4651  0.4373
13955TIP3   OH242746   4.587   5.303   3.814  0.2110 -0.3258  0.1427
13955TIP3    H142747   4.604   5.357   3.737 -0.2477 -0.2484  0.0920
13955TIP3    H242748   4.671   5.260   3.832  0.2012 -0.7269 -0.6972
13956TIP3   OH242749   9.734   5.441   9.985 -0.7667 -0.3840  0.1098
13956TIP3    H142750   9.720   5.533  10.007 -0.4667 -0.3598  0.1977
13956TIP3    H242751   9.653   5.414   9.940 -1.8691 -0.7159  2.1422
13957TIP3   OH242752   7.691   8.051   8.085  0.0206  0.1029 -0.1381
13957TIP3    H142753   7.659   8.142   8.081 -1.7143 -0.2043  3.1576
13957TIP3    H242754   7.742   8.048   8.166 -1.3171 -2.2063  0.6964
13958TIP3   OH242755   8.273   0.545   9.299  0.2320 -0.6047  0.0746
13958TIP3    H142756   8.177   0.543   9.296  0.2391 -1.5098  0.2475
13958TIP3    H242757   8.301   0.486   9.230  0.6431 -1.4925  0.9761
13959TIP3   OH242758   8.025   0.033   5.544 -0.0773  0.6080  0.0687
13959TIP3    H142759   8.015   0.127   5.559 -2.2766  0.3618  0.3786
13959TIP3    H242760   8.052   0.026   5.452 -4.4687  1.4601 -1.5325
13960TIP3   OH242761   8.745   3.700   2.817  0.3519 -0.3307 -0.3723
13960TIP3    H142762   8.707   3.644   2.885  2.1250 -1.8083 -0.5279
13960TIP3    H242763   8.819   3.743   2.860  0.8829 -0.5039 -1.1086
13961TIP3   OH242764   6.599   1.824   6.626 -0.1100  0.2574  0.3788
13961TIP3    H142765   6.575   1.779   6.545  1.1705 -0.6088  0.4575
13961TIP3    H242766   6.532   1.798   6.689 -2.4049  2.6368 -0.8664
13962TIP3   OH242767  10.882   7.211   1.104 -0.1861  0.2663  0.3325
13962TIP3    H142768  10.920   7.242   1.021  1.0388 -0.8223  0.4477
13962TIP3    H242769  10.906   7.278   1.167  0.3537  0.2840  0.1206
13963TIP3   OH242770   5.205   8.751   5.842 -0.0022 -0.1352 -1.0651
13963TIP3    H142771   5.162   8.760   5.757 -0.7845 -1.1771 -0.7939
13963TIP3    H242772   5.159   8.679   5.885 -0.6316  1.3458  0.8739
13964TIP3   OH242773  10.875   1.637   0.667  0.0851 -0.4810 -0.5528
13964TIP3    H142774  10.867   1.661   0.760  0.8320  0.2686 -0.6681
13964TIP3    H242775  10.841   1.548   0.663  0.7214 -0.8094  0.5902
13965TIP3   OH242776   3.181  10.256   2.000 -0.5620 -0.1506 -0.0991
13965TIP3    H142777   3.122  10.262   2.074 -1.3070  0.9955 -0.7669
13965TIP3    H242778   3.267  10.281   2.035 -0.5831 -1.1208  0.7002
13966TIP3   OH242779   0.040   8.464  10.442 -0.1295 -0.1755  0.2248
13966TIP3    H142780   0.018   8.557  10.435  1.4699  0.2912  1.0058
13966TIP3    H242781  -0.028   8.419  10.392 -1.4251  1.3433  0.5773
13967TIP3   OH242782   5.833   2.446   8.172 -0.2125 -0.5376 -0.0439
13967TIP3    H142783   5.849   2.359   8.209 -0.0628 -1.3072 -1.8236
13967TIP3    H242784   5.801   2.429   8.084 -0.7806  1.2202 -0.2156
13968TIP3   OH242785   4.580   8.265   2.950  0.1737  0.2050  0.2627
13968TIP3    H142786   4.605   8.334   2.888 -0.1773  0.4710  0.4121
13968TIP3    H242787   4.521   8.208   2.900  0.0153  0.3322  0.3016
13969TIP3   OH242788   7.470   4.781   4.050 -0.0742  0.0564  0.2530
13969TIP3    H142789   7.406   4.736   3.995  0.5530 -0.4500 -0.0732
13969TIP3    H242790   7.463   4.738   4.135 -0.0476 -0.1060  0.1729
13970TIP3   OH242791   1.307   1.392   7.555  0.6477 -0.2201  0.0230
13970TIP3    H142792   1.224   1.441   7.553 -0.3910 -1.8147  1.3875
13970TIP3    H242793   1.374   1.459   7.557 -0.5251  1.1555 -2.1876
13971TIP3   OH242794  10.591   1.816   1.178 -0.5958  0.4718 -1.0402
13971TIP3    H142795  10.501   1.831   1.207 -0.7885  1.3246 -2.0365
13971TIP3    H242796  10.583   1.759   1.102 -0.0927 -1.7081  0.4255
13972TIP3   OH242797   9.678   9.084   7.546 -0.4097  0.2445 -0.0167
13972TIP3    H142798   9.713   9.061   7.459 -0.0735 -1.8656  0.6174
13972TIP3    H242799   9.755   9.083   7.603 -0.5341  2.2485  0.2355
13973TIP3   OH242800   7.811   7.410  10.648  0.5953 -0.3874 -0.7437
13973TIP3    H142801   7.889   7.431  10.699  1.1985 -2.2849 -0.8106
13973TIP3    H242802   7.810   7.475  10.578  1.0895  0.7762  0.2976
13974TIP3   OH242803   3.954   9.839   7.190 -0.5110  0.5429 -0.5458
13974TIP3    H142804   3.903   9.905   7.144 -0.4712  0.8781 -0.1175
13974TIP3    H242805   3.909   9.827   7.273  0.8074  1.8364  0.4251
13975TIP3   OH242806   2.150   1.247   2.082 -0.0920  0.5824  0.4279
13975TIP3    H142807   2.147   1.266   2.176  0.0440 -1.0782  0.7926
13975TIP3    H242808   2.129   1.331   2.040  0.5669  1.5243  1.9101
13976TIP3   OH242809  10.018   4.644   0.685 -0.0778  0.6499 -0.0272
13976TIP3    H142810   9.942   4.586   0.696 -2.1355  3.3109  1.1208
13976TIP3    H242811   9.986   4.714   0.629  1.5060  1.8870  0.5371
13977TIP3   OH242812  10.388   4.713   9.495  0.0079 -0.0568  0.3146
13977TIP3    H142813  10.437   4.631   9.491 -0.3040 -0.2744  0.8744
13977TIP3    H242814  10.351   4.715   9.583 -0.1175  0.6114  0.2529
13978TIP3   OH242815   3.683   6.509  10.462  0.2123  0.2659 -0.6327
13978TIP3    H142816   3.695   6.430  10.515  0.5427  0.5435 -0.2867
13978TIP3    H242817   3.767   6.555  10.468 -0.2379  1.0476 -0.1562
13979TIP3   OH242818  10.761   8.996  10.334 -0.4991  0.2620  0.0083
13979TIP3    H142819  10.729   8.986  10.245 -2.7242 -0.4627  0.8222
13979TIP3    H242820  10.839   9.051  10.325 -0.5864  0.1143 -2.3672
13980TIP3   OH242821   7.884   2.643   7.241  0.0428  0.5060  0.0699
13980TIP3    H142822   7.855   2.559   7.205 -1.0008  1.3351 -1.0916
13980TIP3    H242823   7.977   2.648   7.219 -0.2047  0.2658 -1.0736
13981TIP3   OH242824   3.460   7.876   4.767  0.3676  0.5234 -0.2285
13981TIP3    H142825   3.410   7.808   4.812 -0.0012  0.3490 -0.8846
13981TIP3    H242826   3.450   7.954   4.822 -0.3020  0.3867 -0.1488
13982TIP3   OH242827  10.206   7.710  10.734 -0.1697  0.2632 -0.4190
13982TIP3    H142828  10.163   7.795  10.746 -0.4727  0.1359 -0.6027
13982TIP3    H242829  10.225   7.680  10.823 -3.2274 -1.1038 -0.0969
13983TIP3   OH242830   6.887  10.262   3.248 -0.3524  0.0732 -0.4370
13983TIP3    H142831   6.847  10.309   3.175 -1.2533  0.5692  0.3442
13983TIP3    H242832   6.958  10.212   3.209  0.6159  2.0394 -1.3411
13984TIP3   OH242833   2.368   0.354   2.923 -0.2458 -0.6368  0.1089
13984TIP3    H142834   2.398   0.423   2.981  1.1327  0.5350 -1.8768
13984TIP3    H242835   2.298   0.394   2.872 -0.4586 -1.1862 -0.0441
13985TIP3   OH242836   6.496   6.659   6.871  0.6397 -0.1702 -0.4082
13985TIP3    H142837   6.412   6.696   6.845  0.4514  1.1027  1.7582
13985TIP3    H242838   6.481   6.621   6.958  2.7298  2.1736  1.1298
13986TIP3   OH242839   9.802   0.074   6.579  0.1852  0.4294  0.6513
13986TIP3    H142840   9.747   0.021   6.638  0.9577  0.7358  1.6646
13986TIP3    H242841   9.877   0.098   6.632  2.3469 -1.6217 -1.2490
13987TIP3   OH242842   6.427   8.732   2.997 -0.1008 -0.5782  0.0039
13987TIP3    H142843   6.398   8.713   2.908 -0.0307 -1.8174  0.2226
13987TIP3    H242844   6.469   8.651   3.026 -1.2366 -0.6570  1.5926
13988TIP3   OH242845   5.652   1.468   2.519 -0.0900  0.3228 -0.2293
13988TIP3    H142846   5.558   1.450   2.509  0.1394  0.0771 -2.4981
13988TIP3    H242847   5.675   1.517   2.439  1.6189  0.8336  0.5335
13989TIP3   OH242848   6.291   4.104   9.533  0.2877 -0.4602 -0.2421
13989TIP3    H142849   6.234   4.143   9.599  1.3397 -2.1190  1.7484
13989TIP3    H242850   6.274   4.155   9.453 -1.9335  0.8162  0.9638
13990TIP3   OH242851  10.098   3.813   2.565 -0.0108 -0.2758 -0.3272
13990TIP3    H142852  10.144   3.744   2.613 -2.2571 -2.4518 -1.1001
13990TIP3    H242853  10.008   3.808   2.597 -0.3825  1.9101 -0.8926
13991TIP3   OH242854   7.527   0.220   7.762  0.0896 -0.0651  0.4853
13991TIP3    H142855   7.560   0.131   7.750  0.4688 -0.0318  1.2181
13991TIP3    H242856   7.606   0.275   7.765 -0.1453  0.3138 -0.0577
13992TIP3   OH242857   4.430   0.971   1.979 -0.0573  0.2099  0.4799
13992TIP3    H142858   4.436   0.906   1.909 -1.8033 -1.5273  1.8391
13992TIP3    H242859   4.512   0.961   2.027  0.9709  1.1220 -0.9957
13993TIP3   OH242860   5.258   1.141   4.191 -0.1917  0.3218  0.3407
13993TIP3    H142861   5.249   1.060   4.242 -0.1645 -1.4634 -2.3358
13993TIP3    H242862   5.187   1.197   4.222  0.7016 -0.0149  3.3332
13994TIP3   OH242863   9.715   5.455   6.613 -0.2943  0.4045 -1.1277
13994TIP3    H142864   9.671   5.517   6.555  0.3207  4.0572  1.9192
13994TIP3    H242865   9.653   5.440   6.684  1.3687  1.6448  0.6929
13995TIP3   OH242866   5.411   2.567   1.493  0.1497  0.4829  0.1576
13995TIP3    H142867   5.454   2.556   1.408  2.4901  2.7866  0.8935
13995TIP3    H242868   5.461   2.637   1.536 -1.5200  0.0506  3.0726
13996TIP3   OH242869   9.180   4.733   5.116  0.5763  0.0710  0.3133
13996TIP3    H142870   9.088   4.744   5.093  0.2893  0.5660  1.5943
13996TIP3    H242871   9.220   4.818   5.096  1.5116 -1.0399 -3.2386
13997TIP3   OH242872   5.824   7.757   6.311 -0.1755 -0.0700 -0.1600
13997TIP3    H142873   5.753   7.742   6.374 -0.8683 -2.2679 -1.3498
13997TIP3    H242874   5.904   7.751   6.363 -0.7532 -1.3885  0.6191
13998TIP3   OH242875   4.324   0.657  10.013  0.3112 -0.1913  0.2622
13998TIP3    H142876   4.257   0.662  10.081 -1.2086 -0.3357 -1.1672
13998TIP3    H242877   4.338   0.747   9.986 -0.1169 -0.2489 -0.1731
13999TIP3   OH242878   3.557   6.184   4.256  0.3137  0.1601  0.3503
13999TIP3    H142879   3.541   6.246   4.327  2.3086  2.3064 -0.9221
13999TIP3    H242880   3.652   6.181   4.248  0.1701  0.4651 -2.5336
14000TIP3   OH242881   4.491   3.128   1.809 -0.1962 -0.2404  0.2715
14000TIP3    H142882   4.453   3.070   1.874  0.7482 -0.7038  0.4219
14000TIP3    H242883   4.498   3.075   1.730 -2.5433  0.6787 -0.6526
14001TIP3   OH242884   7.727  10.016   0.474 -0.0480  0.3593 -0.3649
14001TIP3    H142885   7.635  10.013   0.448  0.0193  1.4342 -0.7809
14001TIP3    H242886   7.748  10.110   0.475  0.9051  0.1457  0.2039
14002TIP3   OH242887   8.921  10.102  10.234 -0.4551 -0.2956 -0.1373
14002TIP3    H142888   8.937  10.033  10.170 -1.1407 -0.1382 -0.4796
14002TIP3    H242889   8.835  10.082  10.270  0.3552 -1.0073  1.5418
14003TIP3   OH242890   5.313   8.638   7.703 -0.1489  0.4410  0.0605
14003TIP3    H142891   5.240   8.689   7.738 -0.5495 -1.0763  1.6109
14003TIP3    H242892   5.376   8.635   7.775 -0.4019 -1.6525  0.2735
14004TIP3   OH242893   7.619   5.271   4.640 -0.5689  0.3994 -0.2950
14004TIP3    H142894   7.609   5.358   4.601  1.2446  1.2570  1.0181
14004TIP3    H242895   7.613   5.286   4.734 -2.0564 -1.2107 -0.0812
14005TIP3   OH242896   6.796  10.633   1.673  0.0646  0.2764 -0.3016
14005TIP3    H142897   6.702  10.635   1.654  0.1180  1.3575 -0.5199
14005TIP3    H242898   6.801  10.608   1.765 -0.3847 -0.7370 -0.5347
14006TIP3   OH242899   3.663   6.727   9.574 -0.1865 -0.1878 -0.3379
14006TIP3    H142900   3.640   6.805   9.522 -0.8921 -0.0030  0.2346
14006TIP3    H242901   3.716   6.760   9.646 -0.1678 -0.2864 -0.3065
14007TIP3   OH242902   0.385   1.745   4.782  0.2004  0.7375  0.0033
14007TIP3    H142903   0.338   1.675   4.827  1.5028 -1.1456 -1.3462
14007TIP3    H242904   0.317   1.805   4.752 -1.0004 -0.0217  1.1032
14008TIP3   OH242905   2.668   7.167   6.818 -0.1188  0.5837  0.0125
14008TIP3    H142906   2.653   7.090   6.873 -0.1701  0.6150  0.0422
14008TIP3    H242907   2.740   7.213   6.860  0.4242  0.1441 -0.4348
14009TIP3   OH242908  10.444   4.921   4.939  0.4560 -0.0610  0.3153
14009TIP3    H142909  10.534   4.898   4.918 -0.2311 -1.6877 -1.1609
14009TIP3    H242910  10.435   5.012   4.912  1.6924  0.1937  0.6883
14010TIP3   OH242911   7.220   2.671   2.348 -0.3213 -0.7711  0.3774
14010TIP3    H142912   7.263   2.635   2.426 -2.0429 -2.2837  0.6949
14010TIP3    H242913   7.240   2.764   2.350 -0.4450 -0.7442  2.7486
14011TIP3   OH242914   7.670   8.938  10.309 -0.3940 -0.7894  0.2892
14011TIP3    H142915   7.764   8.939  10.293 -0.1404  1.1232  1.5712
14011TIP3    H242916   7.631   8.952  10.223  0.3531 -3.6529 -0.6078
14012TIP3   OH242917   8.936   2.023   4.978  0.1522 -0.2808 -0.4155
14012TIP3    H142918   8.872   2.016   5.049  1.0994 -0.7891  0.4120
14012TIP3    H242919   9.021   2.026   5.022  1.0376 -3.7902 -1.5205
14013TIP3   OH242920  10.299   6.542   8.876 -0.0207 -0.1204  0.3881
14013TIP3    H142921  10.386   6.533   8.836  0.7457 -0.4467  2.0442
14013TIP3    H242922  10.296   6.473   8.943 -1.0385  0.7019  1.2254
14014TIP3   OH242923   7.584   8.314   0.705 -0.0201 -0.1429 -0.1303
14014TIP3    H142924   7.641   8.321   0.629 -0.5119  0.0313 -0.4854
14014TIP3    H242925   7.622   8.244   0.758 -0.2763 -1.0034 -1.0576
14015TIP3   OH242926   8.908   8.792   7.487 -0.4612  0.3204  0.2963
14015TIP3    H142927   8.979   8.765   7.428 -1.1321 -1.5060  0.2610
14015TIP3    H242928   8.931   8.882   7.512  0.2683  0.8879 -2.0942
14016TIP3   OH242929   4.027   0.437   2.093 -0.1629 -0.5703 -0.1199
14016TIP3    H142930   4.038   0.501   2.163 -0.4710  0.3620 -0.9044
14016TIP3    H242931   3.933   0.419   2.092  0.0040 -1.5500  0.5282
14017TIP3   OH242932   0.612   1.042   3.761  0.1902  0.0053 -0.1722
14017TIP3    H142933   0.546   1.104   3.729 -0.7714 -0.6736  0.4211
14017TIP3    H242934   0.631   1.072   3.850 -2.0372 -1.8229  1.0275
14018TIP3   OH242935   6.157   8.577  10.401 -0.2926  0.1272  0.3296
14018TIP3    H142936   6.225   8.639  10.377  0.2989 -0.8860 -0.7591
14018TIP3    H242937   6.091   8.585  10.332 -1.2618  1.0419  1.3326
14019TIP3   OH242938  10.647   1.269   4.554 -0.3649  0.2615  0.2622
14019TIP3    H142939  10.631   1.336   4.621  1.0721  2.0680 -1.0917
14019TIP3    H242940  10.675   1.319   4.477 -0.0326 -1.8747 -1.0788
14020TIP3   OH242941   2.283   4.386   0.935  0.4113  0.3031 -0.0161
14020TIP3    H142942   2.225   4.340   0.874 -2.1961 -0.6281  2.9332
14020TIP3    H242943   2.332   4.316   0.979 -1.3921  0.4248  2.3719
14021TIP3   OH242944  10.288   5.655   8.944 -0.4705 -0.3423 -0.1900
14021TIP3    H142945  10.322   5.681   9.030  1.7911 -0.5442 -0.9503
14021TIP3    H242946  10.318   5.724   8.885 -0.4024 -1.1297 -1.0952
14022TIP3   OH242947   0.506   8.466   8.685 -0.1265 -0.0922 -0.1506
14022TIP3    H142948   0.524   8.381   8.725 -1.5493 -0.6596 -0.6447
14022TIP3    H242949   0.479   8.446   8.595  0.4316  0.9622 -0.5769
14023TIP3   OH242950   7.269   7.408   7.375  0.2157 -0.1100  0.1266
14023TIP3    H142951   7.307   7.446   7.455  1.2631 -1.3507  0.2645
14023TIP3    H242952   7.180   7.385   7.399  1.0683 -2.2352  1.6265
14024TIP3   OH242953   0.775   4.767   5.363  0.0490 -0.0132  0.7023
14024TIP3    H142954   0.708   4.832   5.383 -1.5977 -1.1943 -0.7008
14024TIP3    H242955   0.761   4.697   5.428 -1.8197 -1.4066 -1.0732
14025TIP3   OH242956   5.481   7.950  10.902 -0.6006  0.3160  0.2301
14025TIP3    H142957   5.396   7.921  10.868 -0.3302  0.1559 -0.3306
14025TIP3    H242958   5.460   8.005  10.977 -1.1443 -0.8731  0.9719
14026TIP3   OH242959   1.020   1.850   9.862  0.1257  0.0398  0.1097
14026TIP3    H142960   0.941   1.839   9.913 -0.2800 -0.3680 -0.5862
14026TIP3    H242961   1.058   1.762   9.856 -0.1336 -0.0259 -0.7485
14027TIP3   OH242962   3.678   8.061   4.836  0.1030  0.3063 -0.5273
14027TIP3    H142963   3.751   8.093   4.889 -1.3728  0.6294  1.4143
14027TIP3    H242964   3.698   7.968   4.823  0.0627 -0.0401  1.4795
14028TIP3   OH242965  10.548   4.112   2.071  0.3573  0.0754  0.0858
14028TIP3    H142966  10.482   4.162   2.024  0.4196  0.3253  0.2661
14028TIP3    H242967  10.526   4.020   2.052  0.7746  0.1847 -0.9705
14029TIP3   OH242968   4.975   3.692   4.538 -0.3889 -0.0171  0.2733
14029TIP3    H142969   5.043   3.678   4.604 -0.8500 -0.3985  0.6770
14029TIP3    H242970   5.010   3.653   4.458 -0.4093 -0.8432  0.6509
14030TIP3   OH242971   6.371   5.987   3.713  0.6664 -0.0643 -0.0672
14030TIP3    H142972   6.279   5.962   3.699  0.1581  0.8046  1.4855
14030TIP3    H242973   6.421   5.914   3.676 -0.6586 -0.9702 -0.1642
14031TIP3   OH242974   7.677   7.530  10.194  0.3220 -0.2097 -0.3252
14031TIP3    H142975   7.724   7.606  10.160 -1.7298  1.5484  0.5075
14031TIP3    H242976   7.644   7.486  10.115 -0.1917  0.9795 -0.8117
14032TIP3   OH242977   8.903   0.195   4.042 -0.4817  0.4431  0.1178
14032TIP3    H142978   8.819   0.237   4.058 -0.8273 -0.6336  1.1888
14032TIP3    H242979   8.901   0.114   4.092  0.5636 -0.4017 -1.1093
14033TIP3   OH242980   7.036   7.830   9.561  0.0928 -0.1403  0.4769
14033TIP3    H142981   7.081   7.815   9.478 -0.2507  1.8613 -0.1233
14033TIP3    H242982   7.028   7.743   9.600  0.8461 -1.0438 -1.2706
14034TIP3   OH242983   9.249   8.550   3.043 -0.0454 -0.0291 -0.2228
14034TIP3    H142984   9.179   8.521   2.984  0.2098 -2.0411  0.3795
14034TIP3    H242985   9.206   8.561   3.128 -0.1994  1.7978 -0.5035
14035TIP3   OH242986   1.551   4.977   2.018 -0.6518  0.1069  0.4336
14035TIP3    H142987   1.595   4.893   2.005  0.2210  0.8610 -1.9275
14035TIP3    H242988   1.574   5.002   2.107  2.1968 -0.4515 -0.0367
14036TIP3   OH242989   2.816  10.134   0.418  0.0994 -0.6651  0.1447
14036TIP3    H142990   2.832  10.106   0.508  1.8811 -3.4473 -0.8981
14036TIP3    H242991   2.896  10.180   0.393 -0.4935  0.3335  0.0049
14037TIP3   OH242992   2.055   4.091  10.650  0.2797 -0.0201 -0.1385
14037TIP3    H142993   2.087   4.104  10.560 -0.8150  2.7175 -0.2400
14037TIP3    H242994   1.990   4.022  10.642  1.9827 -1.6160 -0.9414
14038TIP3   OH242995   7.604   3.325  10.830  0.2674 -0.2308 -0.7774
14038TIP3    H142996   7.564   3.286  10.908 -1.2610  0.5130 -1.1552
14038TIP3    H242997   7.554   3.289  10.757  0.1981  0.8164 -1.2569
14039TIP3   OH242998   4.173   8.795   1.969 -0.6936 -0.0862  0.8505
14039TIP3    H142999   4.129   8.740   1.905 -0.8220  0.7972  0.1589
14039TIP3    H243000   4.104   8.818   2.032 -0.9789  0.4233  0.3598
14040TIP3   OH243001   8.756   9.356   4.672 -0.1584 -0.5579  0.0672
14040TIP3    H143002   8.731   9.430   4.727  0.0523 -0.0665 -0.4912
14040TIP3    H243003   8.848   9.370   4.652  0.5901 -2.2905  1.9956
14041TIP3   OH243004  10.542   4.240   6.182  0.3459 -0.3932 -0.0664
14041TIP3    H143005  10.465   4.264   6.234 -0.1577  0.5149 -1.2001
14041TIP3    H243006  10.614   4.285   6.225 -0.0248  0.1238  0.0316
14042TIP3   OH243007   0.722   3.542   2.398  0.0379  0.3612 -0.3186
14042TIP3    H143008   0.643   3.492   2.421  0.8691 -0.4891  0.8327
14042TIP3    H243009   0.755   3.500   2.319  0.6757 -0.8839  0.5853
14043TIP3   OH243010   3.111   8.818   4.585  0.0666 -0.4423  0.3080
14043TIP3    H143011   3.066   8.821   4.669  0.5213 -1.8500  0.6202
14043TIP3    H243012   3.199   8.788   4.605  1.2359  2.2170 -0.3094
14044TIP3   OH243013   0.992   2.505   4.887  0.2453  0.2323 -0.1924
14044TIP3    H143014   0.967   2.573   4.824  1.5030 -1.0793 -2.2462
14044TIP3    H243015   1.062   2.545   4.938  0.8712  0.5744 -1.2739
14045TIP3   OH243016   9.383   0.807   6.319  0.2918 -0.1178  0.2138
14045TIP3    H143017   9.385   0.838   6.410 -0.0418 -0.0744  0.2052
14045TIP3    H243018   9.471   0.771   6.305  0.7806  1.0494  0.1351
14046TIP3   OH243019   5.165   0.098   5.861  0.1641  0.6541 -0.4222
14046TIP3    H143020   5.118   0.132   5.938 -3.3447  0.7773 -2.3855
14046TIP3    H243021   5.164   0.003   5.872  2.5451  0.7295  1.0921
14047TIP3   OH243022   8.712   0.273   6.493  0.2136 -0.5264  0.0923
14047TIP3    H143023   8.723   0.356   6.449  2.2686 -0.7184  0.1626
14047TIP3    H243024   8.617   0.263   6.503 -0.1199  1.1368 -1.1256
14048TIP3   OH243025   2.074   1.386  10.189 -0.3257  0.1836 -0.0761
14048TIP3    H143026   2.130   1.310  10.207 -3.1601 -1.6664  1.7048
14048TIP3    H243027   2.091   1.445  10.262 -0.6565 -0.3773  0.4674
14049TIP3   OH243028  10.124   3.797   7.169  0.5382  0.7616  0.1795
14049TIP3    H143029  10.081   3.788   7.254 -3.3780 -0.0996 -1.6765
14049TIP3    H243030  10.172   3.715   7.158  0.8590  0.7641  1.4207
14050TIP3   OH243031   8.182   5.978   9.812  0.1614  0.2727 -0.4198
14050TIP3    H143032   8.232   5.977   9.731  0.5228 -1.8493 -0.2420
14050TIP3    H243033   8.248   5.976   9.881 -0.1577  0.7729 -0.0902
14051TIP3   OH243034   1.388   8.492   5.869  0.4100  0.3732 -0.1173
14051TIP3    H143035   1.460   8.543   5.833  1.4434  0.1676  1.5774
14051TIP3    H243036   1.426   8.445   5.943 -0.5740 -2.5572 -1.3010
14052TIP3   OH243037   3.240  10.247   4.715 -0.1160 -0.0918  0.0277
14052TIP3    H143038   3.263  10.294   4.635  0.1429 -1.2808 -0.6139
14052TIP3    H243039   3.220  10.316   4.779  0.2014  0.8734 -0.8999
14053TIP3   OH243040   8.896   2.513   3.498 -0.1920  0.1401  0.6733
14053TIP3    H143041   8.947   2.432   3.496 -0.1706  0.1750 -1.2733
14053TIP3    H243042   8.962   2.583   3.491 -0.4020  0.1690 -4.0470
14054TIP3   OH243043   1.405   0.612   7.690 -1.0880 -0.4253  0.3832
14054TIP3    H143044   1.495   0.643   7.691 -1.1167 -0.1883 -1.5962
14054TIP3    H243045   1.394   0.568   7.775  0.0417  1.8180  1.7727
14055TIP3   OH243046   3.971   6.766   0.578 -0.1040 -0.2666 -0.1500
14055TIP3    H143047   4.006   6.819   0.507 -1.3732  0.1360 -0.5006
14055TIP3    H243048   3.999   6.811   0.658 -1.5422  1.2594 -0.4413
14056TIP3   OH243049  10.473   2.771   7.952  0.2651 -0.0892 -0.1833
14056TIP3    H143050  10.403   2.778   8.017  1.5376  0.8945  1.1324
14056TIP3    H243051  10.427   2.775   7.867 -1.5054 -2.1985  0.5881
14057TIP3   OH243052   5.469   9.809   7.847  0.3053  0.4717 -0.3957
14057TIP3    H143053   5.546   9.752   7.849  0.1513  0.2861  1.1363
14057TIP3    H243054   5.415   9.772   7.777  0.8623 -0.3942 -0.3906
14058TIP3   OH243055  10.595   3.064   7.235  0.0908 -0.0773  0.2199
14058TIP3    H143056  10.605   3.050   7.141 -1.0953  1.1177 -0.1269
14058TIP3    H243057  10.522   3.006   7.260 -1.1448  1.2700 -0.1055
14059TIP3   OH243058  10.885   8.508   9.707  0.3378  0.3818  0.7466
14059TIP3    H143059  10.865   8.545   9.793  1.6967  0.5828  0.9987
14059TIP3    H243060  10.825   8.433   9.699  1.0687 -0.4399  2.4442
14060TIP3   OH243061   8.816   9.304   3.441 -0.0152 -0.3050 -0.1149
14060TIP3    H143062   8.762   9.234   3.477 -0.9201  0.9640  1.1259
14060TIP3    H243063   8.754   9.362   3.397  0.0691  1.7127  2.1915
14061TIP3   OH243064   2.352   7.642   2.296  0.6022 -0.3606  0.3345
14061TIP3    H143065   2.263   7.646   2.329  0.3988  0.9216 -0.3079
14061TIP3    H243066   2.407   7.643   2.374  0.0884  0.4261  0.6934
14062TIP3   OH243067   8.213   4.879   8.508 -0.3532  0.1217  0.0940
14062TIP3    H143068   8.133   4.920   8.541  1.3276  2.2731  1.8085
14062TIP3    H243069   8.252   4.837   8.584 -0.5374 -2.2704 -1.0467
14063TIP3   OH243070   8.386   0.434   1.247  0.4264 -0.0165  0.1021
14063TIP3    H143071   8.368   0.527   1.236  0.0266  0.0015  0.8110
14063TIP3    H243072   8.403   0.402   1.159 -0.7444  0.4562 -0.3179
14064TIP3   OH243073   3.594   9.641   2.881 -0.5025 -0.0902 -0.3867
14064TIP3    H143074   3.598   9.701   2.956 -3.0146  0.0933 -0.2955
14064TIP3    H243075   3.505   9.651   2.847 -0.3715 -2.3200 -1.6041
14065TIP3   OH243076   9.516   8.647   0.017 -0.4115 -0.7789  0.3557
14065TIP3    H143077   9.503   8.598   0.098  0.1846 -2.1804 -0.3549
14065TIP3    H243078   9.560   8.727   0.044 -0.5343 -1.0621  1.4479
14066TIP3   OH243079   7.844   7.836   2.610  0.0829 -0.4431 -0.2172
14066TIP3    H143080   7.806   7.914   2.569  0.7289 -0.0391 -0.0480
14066TIP3    H243081   7.775   7.805   2.669 -0.3929 -0.3329 -0.6979
14067TIP3   OH243082   8.301   4.771   9.061  0.1112  0.4168  0.2169
14067TIP3    H143083   8.344   4.704   9.114  1.8336  1.0329 -0.3079
14067TIP3    H243084   8.207   4.757   9.074  0.3453 -2.9022 -0.9270
14068TIP3   OH243085   8.479   4.244  10.619 -0.2254  0.5578  0.0053
14068TIP3    H143086   8.424   4.165  10.617  1.6923 -0.8315 -2.1871
14068TIP3    H243087   8.490   4.263  10.713 -0.9849 -1.5870  0.5903
14069TIP3   OH243088   4.631   4.855   8.860 -0.3804  0.3936 -0.0228
14069TIP3    H143089   4.579   4.838   8.781 -0.4951 -2.2881  0.5209
14069TIP3    H243090   4.573   4.904   8.917 -1.8502 -1.2998  0.0091
14070TIP3   OH243091   9.146   0.412   5.533  0.0496 -0.3981  0.2422
14070TIP3    H143092   9.101   0.497   5.533 -1.1798 -1.0112 -0.6492
14070TIP3    H243093   9.093   0.358   5.592  0.7371 -0.6018  0.6809
14071TIP3   OH243094   2.718   8.445   0.685 -0.0119  0.0071 -0.0222
14071TIP3    H143095   2.659   8.371   0.670  1.0487 -0.5547 -1.7523
14071TIP3    H243096   2.805   8.404   0.693  0.1190  0.7029  3.5666
14072TIP3   OH243097  10.035   2.945   5.697 -0.3190 -0.3558  0.0368
14072TIP3    H143098  10.098   2.999   5.745 -0.7608  1.0274 -0.8964
14072TIP3    H243099   9.959   2.941   5.754 -0.1898 -0.2057  0.2213
14073TIP3   OH243100   5.535   8.002   4.651  0.4821  0.2410 -0.1122
14073TIP3    H143101   5.620   7.959   4.656  0.9260  1.1807  0.7599
14073TIP3    H243102   5.498   7.991   4.739  0.1425  0.7012 -0.1964
14074TIP3   OH243103   9.217   1.920   6.330 -0.1126 -0.7591  0.0504
14074TIP3    H143104   9.135   1.925   6.380  0.0103 -2.6279  0.5056
14074TIP3    H243105   9.188   1.913   6.239 -0.3300  4.4955 -0.5578
14075TIP3   OH243106   9.754   8.271  10.432  0.4289  0.1876 -0.2736
14075TIP3    H143107   9.761   8.314  10.517  0.0391 -0.2491 -0.0130
14075TIP3    H243108   9.663   8.241  10.427  0.0914  1.3092 -1.3861
14076TIP3   OH243109   5.562   8.652   5.452  0.2224 -0.1146 -0.5982
14076TIP3    H143110   5.654   8.626   5.456  0.7281  1.7279  0.6340
14076TIP3    H243111   5.538   8.640   5.360  1.2141 -2.0837 -0.6535
14077TIP3   OH243112   9.696   3.259   8.528  0.3880 -0.0319  0.2622
14077TIP3    H143113   9.616   3.310   8.542 -0.9108 -1.3820 -1.6597
14077TIP3    H243114   9.766   3.325   8.526 -0.8491  1.3593  0.5864
14078TIP3   OH243115   8.281   0.677   9.982 -0.7274 -0.1183 -0.3124
14078TIP3    H143116   8.286   0.724  10.066 -1.1100  0.2038 -0.4624
14078TIP3    H243117   8.345   0.607   9.989  1.3686  1.6464 -0.8580
14079TIP3   OH243118   1.050  10.051   8.326 -0.0030  0.6659 -0.0177
14079TIP3    H143119   1.019  10.010   8.407 -1.8361 -0.5819 -1.2677
14079TIP3    H243120   1.026  10.143   8.335  0.3661  0.6659  1.0980
14080TIP3   OH243121   7.239   6.845   4.619 -0.8510  0.4256  0.9147
14080TIP3    H143122   7.190   6.861   4.700 -2.2922  1.2476 -0.0778
14080TIP3    H243123   7.200   6.766   4.582 -0.1636  0.0238  1.0238
14081TIP3   OH243124   4.718   0.858   2.773 -0.0900  0.1576  0.6498
14081TIP3    H143125   4.731   0.792   2.704  1.8447  1.6776 -0.5774
14081TIP3    H243126   4.630   0.841   2.806  0.0617 -2.5630 -0.0814
14082TIP3   OH243127   3.923   7.735   7.983  0.0974  0.0468 -0.2290
14082TIP3    H143128   3.847   7.766   8.033  1.0796  0.7884  0.8265
14082TIP3    H243129   3.948   7.809   7.928 -0.2921 -0.3976 -1.0241
14083TIP3   OH243130  10.888   2.729   6.895 -0.1486  0.4810 -0.2259
14083TIP3    H143131  10.978   2.751   6.869 -0.5408  2.6703  0.1089
14083TIP3    H243132  10.874   2.777   6.976 -1.3933 -0.4406  0.1272
14084TIP3   OH243133   4.514  10.113  10.567  0.0589  0.5253 -0.2735
14084TIP3    H143134   4.427  10.082  10.593  1.3398 -1.4724  2.1279
14084TIP3    H243135   4.517  10.204  10.598 -0.0932 -0.4123  2.8052
14085TIP3   OH243136   6.404   0.832   8.804 -0.2909 -0.0876 -0.2129
14085TIP3    H143137   6.335   0.803   8.744  0.9980 -0.2995 -1.6817
14085TIP3    H243138   6.456   0.893   8.751  0.8141 -0.1775  0.7472
14086TIP3   OH243139   9.805   4.198   3.313  0.6479 -0.1930  0.0322
14086TIP3    H143140   9.888   4.166   3.349  0.2076 -0.7352  0.5684
14086TIP3    H243141   9.791   4.282   3.357 -0.1892 -1.1235  1.6201
14087TIP3   OH243142   0.960   9.838   8.718  0.6514  0.4236  0.3542
14087TIP3    H143143   1.054   9.822   8.728  0.2538 -1.7596  1.1515
14087TIP3    H243144   0.935   9.882   8.800  0.2304 -3.2255  2.3754
14088TIP3   OH243145   5.684   2.877   8.942  0.0400 -0.6570  0.0879
14088TIP3    H143146   5.705   2.796   8.895 -1.2002 -1.4182  0.7879
14088TIP3    H243147   5.754   2.937   8.917 -0.3626 -1.1164 -2.4584
14089TIP3   OH243148   2.409   8.949   7.386 -0.8732  0.6440 -0.3681
14089TIP3    H143149   2.342   8.991   7.440 -1.4032 -0.6529  0.0051
14089TIP3    H243150   2.360   8.908   7.315 -0.4423  0.0571 -0.3303
14090TIP3   OH243151   5.969   8.699   3.456 -0.1578  0.2436 -0.0935
14090TIP3    H143152   6.020   8.763   3.506  1.3014 -1.9825  1.4032
14090TIP3    H243153   6.022   8.684   3.377  0.2215 -0.1667  0.2365
14091TIP3   OH243154   2.972   0.026   6.484  0.2283  0.1535 -0.0841
14091TIP3    H143155   3.021  -0.040   6.533 -0.0559  1.1416  1.6153
14091TIP3    H243156   2.881   0.010   6.506  0.1813  1.2812  0.5978
14092TIP3   OH243157   7.250   6.753   9.787 -0.0754 -0.0018  0.2039
14092TIP3    H143158   7.181   6.754   9.721  0.9287 -1.7186 -0.9588
14092TIP3    H243159   7.330   6.775   9.739  0.3404  1.0274  1.3313
14093TIP3   OH243160   6.893  10.528  10.302 -0.1921  0.1139  0.5761
14093TIP3    H143161   6.927  10.508  10.389  0.2540  0.1764  0.4169
14093TIP3    H243162   6.966  10.511  10.243 -0.1071  1.2350  0.3290
14094TIP3   OH243163   9.547   0.746   1.613 -0.3705 -0.0009  0.5044
14094TIP3    H143164   9.621   0.702   1.569  0.7502  2.0652  0.2030
14094TIP3    H243165   9.469   0.703   1.577  0.6304 -0.7943 -0.8110
14095TIP3   OH243166   3.109  10.254   9.687 -0.3077 -0.4363 -0.0537
14095TIP3    H143167   3.121  10.184   9.751  0.7251  0.1913  0.4823
14095TIP3    H243168   3.138  10.217   9.604  1.8170 -0.2032  0.5131
14096TIP3   OH243169   4.856   4.988   1.484  0.2154 -0.4202 -0.3988
14096TIP3    H143170   4.816   4.989   1.571  1.3671 -0.4955  0.1487
14096TIP3    H243171   4.950   4.993   1.501  0.6289 -2.9016 -1.5275
14097TIP3   OH243172   6.113   1.600   2.393  0.7058 -0.4298  0.0175
14097TIP3    H143173   6.048   1.670   2.379  1.4622  0.6821  1.7022
14097TIP3    H243174   6.060   1.521   2.406 -0.2355  0.0863 -0.5249
14098TIP3   OH243175   9.006   5.340   3.412 -0.6953  0.1241  0.1523
14098TIP3    H143176   9.067   5.284   3.363  0.8694  1.2979  0.6677
14098TIP3    H243177   8.927   5.342   3.358  0.5365  0.4036 -1.7479
14099TIP3   OH243178  10.350   0.981   6.556  0.5031  0.0153 -0.5585
14099TIP3    H143179  10.347   0.998   6.462 -3.0676 -0.9140 -0.7404
14099TIP3    H243180  10.312   1.059   6.596 -1.5422 -1.0828 -0.2470
14100TIP3   OH243181   3.233   7.928   1.584  0.2753 -0.4245  0.2514
14100TIP3    H143182   3.174   7.961   1.652  2.1310  1.0773  1.2463
14100TIP3    H243183   3.286   7.862   1.629  0.0757 -0.9723 -0.3199
14101TIP3   OH243184   8.318   2.129   6.887  0.2983  0.4304 -0.0733
14101TIP3    H143185   8.271   2.133   6.804 -0.2414 -0.3900  0.1836
14101TIP3    H243186   8.335   2.035   6.900  0.7397  0.5905  0.5438
14102TIP3   OH243187   7.697   9.317   7.441  0.2446 -0.3995  0.1233
14102TIP3    H143188   7.729   9.275   7.361  1.4730  0.2743  0.2279
14102TIP3    H243189   7.750   9.396   7.449  0.2180 -0.5081  1.6634
14103TIP3   OH243190   4.261   3.859   5.203 -0.7522 -1.0378 -0.0009
14103TIP3    H143191   4.340   3.820   5.166 -0.0298  0.3645 -0.0239
14103TIP3    H243192   4.232   3.797   5.269  1.7813 -0.5372  1.7475
14104TIP3   OH243193   7.671   4.214   6.209 -0.1490 -0.1179  0.6546
14104TIP3    H143194   7.753   4.169   6.227  1.0686  1.6953  0.0158
14104TIP3    H243195   7.607   4.174   6.267  1.0218 -2.0488  0.6705
14105TIP3   OH243196   7.841   3.230   9.382 -0.2567 -0.2922 -0.2534
14105TIP3    H143197   7.846   3.179   9.463 -0.5788  0.3238  0.1651
14105TIP3    H243198   7.748   3.237   9.363 -0.2514  0.5418 -0.0317
14106TIP3   OH243199   0.716   3.167   2.485 -0.3997 -0.2585 -0.2914
14106TIP3    H143200   0.804   3.130   2.475  0.1916  0.9688  0.1353
14106TIP3    H243201   0.710   3.233   2.416 -0.1122  1.2115  1.0331
14107TIP3   OH243202   3.839   0.347   0.263  0.6552 -0.5591  0.2701
14107TIP3    H143203   3.829   0.279   0.196 -2.7415 -0.8195  0.8638
14107TIP3    H243204   3.919   0.323   0.310 -0.0707 -3.8475  0.0674
14108TIP3   OH243205   3.812   6.301  10.635  0.3616 -0.1103  0.5654
14108TIP3    H143206   3.796   6.365  10.706  0.2890  1.2355 -0.6132
14108TIP3    H243207   3.892   6.256  10.661 -0.4744 -0.7064  2.2337
14109TIP3   OH243208   7.264   3.047   8.181 -0.0006 -0.3916  0.1763
14109TIP3    H143209   7.339   3.103   8.203  1.0813 -1.1156 -1.4323
14109TIP3    H243210   7.258   3.051   8.085 -2.1951 -0.1772  0.2682
14110TIP3   OH243211   8.146   6.025   3.434  0.0696  0.2846 -0.4705
14110TIP3    H143212   8.121   6.097   3.377  0.3275 -0.1109 -1.0894
14110TIP3    H243213   8.140   6.062   3.522 -1.3180  0.6127 -0.6719
14111TIP3   OH243214   7.998   4.103   5.854  0.0480 -0.3796 -0.5630
14111TIP3    H143215   8.033   4.155   5.925  1.5300 -1.1988 -0.6709
14111TIP3    H243216   7.933   4.160   5.812  1.2664  1.2017 -0.3786
14112TIP3   OH243217   9.533  10.660   4.161 -0.4421  0.2935 -0.6520
14112TIP3    H143218   9.440  10.678   4.173 -0.5262 -0.8563  0.8341
14112TIP3    H243219   9.576  10.746   4.165 -1.2878  0.6891  0.5244
14113TIP3   OH243220   8.026   1.920   6.906 -0.5228  0.0612 -0.4109
14113TIP3    H143221   8.018   2.009   6.871  0.8730  0.0108 -0.8996
14113TIP3    H243222   8.061   1.869   6.834  1.3804 -0.2798  0.6901
14114TIP3   OH243223   1.654   8.585   1.945  0.2661 -0.5133  0.5584
14114TIP3    H143224   1.624   8.671   1.914 -0.3521 -0.3028  1.7002
14114TIP3    H243225   1.706   8.550   1.872 -1.1759 -0.0578 -0.7368
14115TIP3   OH243226   0.597   7.837   6.398  0.3522  0.0306 -0.5299
14115TIP3    H143227   0.581   7.758   6.449 -0.7941 -0.3775 -1.4838
14115TIP3    H243228   0.677   7.874   6.436  0.1198 -0.8132  0.8533
14116TIP3   OH243229   0.123   0.581   0.605  0.3528 -0.0985 -0.4352
14116TIP3    H143230   0.113   0.626   0.689 -1.1927  0.9612 -1.1383
14116TIP3    H243231   0.216   0.591   0.583  0.4892  0.8087  0.4852
14117TIP3   OH243232   7.245   1.028  10.334  0.0721 -0.6403  0.0280
14117TIP3    H143233   7.285   1.043  10.249 -1.3736  0.4436 -0.4920
14117TIP3    H243234   7.158   0.993  10.314 -0.9787  1.2788  0.9659
14118TIP3   OH243235   7.596   8.218   7.431 -0.1650  0.1265  0.4445
14118TIP3    H143236   7.688   8.231   7.406 -0.2076  0.6919  0.5757
14118TIP3    H243237   7.553   8.189   7.351 -0.1955  1.4289 -0.0194
14119TIP3   OH243238   3.392   5.163   9.586  0.2067  0.2890 -0.0372
14119TIP3    H143239   3.419   5.158   9.494  2.3236  1.4409  0.4579
14119TIP3    H243240   3.342   5.245   9.592  1.1045  0.8438  0.0502
14120TIP3   OH243241   2.384   5.529   8.536  0.5195  0.0109  0.7259
14120TIP3    H143242   2.344   5.599   8.588  1.3538  1.0857 -0.0487
14120TIP3    H243243   2.352   5.544   8.447  0.7132 -0.5987  0.5467
14121TIP3   OH243244   4.248   8.584   2.397 -0.3629  0.2604  0.6174
14121TIP3    H143245   4.172   8.592   2.455 -0.5877  0.7611  0.2618
14121TIP3    H243246   4.280   8.495   2.411 -2.6340 -0.9475 -1.2350
14122TIP3   OH243247  10.897  10.060   4.646 -0.4467 -0.1230  0.0403
14122TIP3    H143248  10.874  10.151   4.629 -0.4712 -0.2029 -0.3650
14122TIP3    H243249  10.990  10.053   4.622 -0.2264 -0.0100  0.8452
14123TIP3   OH243250   5.618   5.976   8.655  0.2429 -0.2608 -0.3040
14123TIP3    H143251   5.575   6.061   8.658 -0.6559 -0.7336  0.9967
14123TIP3    H243252   5.668   5.977   8.573 -0.7069  1.0428 -0.8962
14124TIP3   OH243253   4.198   2.334   2.267  0.0196 -0.2316 -0.1284
14124TIP3    H143254   4.267   2.300   2.211  0.9557 -0.4346  1.1194
14124TIP3    H243255   4.209   2.429   2.262  0.8003 -0.2788  0.5590
14125TIP3   OH243256   7.709   5.168   5.281  0.3491 -0.0613  0.1348
14125TIP3    H143257   7.623   5.211   5.275  0.9007  1.1201  0.4412
14125TIP3    H243258   7.738   5.161   5.190 -0.5376 -1.4996 -0.0759
14126TIP3   OH243259   8.531   1.100   3.194  0.5845  0.0863 -0.2122
14126TIP3    H143260   8.439   1.113   3.218  0.6960 -1.3045  1.1226
14126TIP3    H243261   8.564   1.188   3.176 -0.9567  0.6247 -0.5810
14127TIP3   OH243262   8.443   1.938   8.434  0.2720 -0.2824  0.1627
14127TIP3    H143263   8.474   1.875   8.498 -1.1506  0.3183  1.5011
14127TIP3    H243264   8.497   1.922   8.357  0.9950 -2.0616  0.9802
14128TIP3   OH243265   7.616   5.259   9.393  0.0077  0.1260 -1.1528
14128TIP3    H143266   7.639   5.299   9.476 -2.5491  0.6861 -0.6120
14128TIP3    H243267   7.520   5.257   9.393 -0.1007  0.2546 -4.1302
14129TIP3   OH243268   0.088   0.461   7.075  0.2979 -0.6489  0.7114
14129TIP3    H143269   0.134   0.402   7.016  0.9523  1.5208 -1.1207
14129TIP3    H243270  -0.000   0.467   7.038 -0.0804 -1.2324  1.4931
14130TIP3   OH243271   5.791   6.899   0.115  0.0817 -0.0862 -0.1689
14130TIP3    H143272   5.759   6.867   0.031 -2.6702  0.7884  0.4435
14130TIP3    H243273   5.782   6.994   0.109  2.2208  0.1947  0.2784
14131TIP3   OH243274  10.568   2.405   8.686  0.2871 -0.0125  0.1899
14131TIP3    H143275  10.586   2.314   8.709  0.4520 -0.0459 -0.0702
14131TIP3    H243276  10.653   2.442   8.663  0.0560 -0.1546 -0.9772
14132TIP3   OH243277   9.054   7.925   1.478  0.2720 -0.5699  0.4626
14132TIP3    H143278   8.968   7.891   1.452  0.4904  0.2495 -1.5396
14132TIP3    H243279   9.034   7.995   1.539 -0.3784 -1.5319  1.3832
14133TIP3   OH243280   2.838   3.893   4.980  0.0621  0.2134  0.1849
14133TIP3    H143281   2.805   3.803   4.980  1.8168 -0.5541 -2.4184
14133TIP3    H243282   2.925   3.887   4.938 -0.3490  3.2756 -1.4536
14134TIP3   OH243283   7.788   2.424   7.458 -0.3365 -0.1811 -0.1101
14134TIP3    H143284   7.818   2.432   7.367 -2.0322  1.5802 -0.5804
14134TIP3    H243285   7.698   2.392   7.451 -1.3114  2.1382  0.7530
14135TIP3   OH243286   1.179   9.759   8.300 -0.0716  0.2318 -0.5100
14135TIP3    H143287   1.209   9.694   8.364  0.8306 -0.4763 -1.6040
14135TIP3    H243288   1.139   9.828   8.353  0.0724 -0.6212  0.7676
14136TIP3   OH243289   0.197   4.619   6.155 -0.1839 -0.2244 -0.1689
14136TIP3    H143290   0.121   4.590   6.205 -0.4921  0.5297 -0.1882
14136TIP3    H243291   0.187   4.714   6.149 -1.1697 -0.4003 -3.2528
14137TIP3   OH243292   3.490   0.720   9.330  0.5903 -0.9067  0.3650
14137TIP3    H143293   3.429   0.777   9.284  2.0857  0.7390  0.3239
14137TIP3    H243294   3.434   0.653   9.371 -1.2229  0.5319  0.3662
14138TIP3   OH243295  10.832   3.563   3.860  0.0995  0.2788  0.5835
14138TIP3    H143296  10.813   3.656   3.869  0.4229  0.4007  0.0498
14138TIP3    H243297  10.928   3.558   3.852 -0.0342  0.0940 -1.3812
14139TIP3   OH243298   6.783   7.832   0.185 -1.0496  0.2921  0.1807
14139TIP3    H143299   6.758   7.898   0.250  0.1181  1.3200 -0.3692
14139TIP3    H243300   6.829   7.765   0.235 -1.4903  0.3119  0.6229
14140TIP3   OH243301   2.816   8.943   9.277 -0.4787 -0.6628 -0.6989
14140TIP3    H143302   2.868   9.018   9.251 -0.7067 -0.0492  0.5434
14140TIP3    H243303   2.878   8.870   9.282  0.2332 -0.0022  0.5108
14141TIP3   OH243304   2.770   3.272  10.280  0.6107 -0.3166  0.1342
14141TIP3    H143305   2.790   3.203  10.216  2.8340 -0.7874  1.2517
14141TIP3    H243306   2.707   3.231  10.339 -0.0592 -0.4940 -0.6783
14142TIP3   OH243307   2.767   3.077   3.658  0.6315  0.3313  0.6644
14142TIP3    H143308   2.811   3.119   3.584  0.6491 -0.3899  0.2539
14142TIP3    H243309   2.755   3.147   3.721  2.3051  0.5856  0.7639
14143TIP3   OH243310   2.745  10.488   4.974  0.2611  0.0890 -0.3783
14143TIP3    H143311   2.699  10.442   5.044 -0.6078 -0.0095 -0.9897
14143TIP3    H243312   2.824  10.438   4.959 -0.5945 -1.1535 -0.9215
14144TIP3   OH243313   9.139   5.685   5.614  0.0721 -0.0549 -0.0471
14144TIP3    H143314   9.064   5.715   5.666 -0.3805 -1.4104  0.1433
14144TIP3    H243315   9.216   5.719   5.659 -0.3989  0.7176  0.1868
14145TIP3   OH243316   0.559   7.025   2.313 -0.2113 -0.2653  0.8479
14145TIP3    H143317   0.485   7.078   2.343 -0.8493 -1.1349  0.8628
14145TIP3    H243318   0.596   7.075   2.240 -0.6191  0.3308  1.0369
14146TIP3   OH243319   3.181  10.719   3.896  0.3204 -0.3145  0.6884
14146TIP3    H143320   3.130  10.644   3.866 -0.4511 -0.3408  2.0214
14146TIP3    H243321   3.131  10.795   3.869  0.0260 -0.3242  1.2000
14147TIP3   OH243322   3.611   7.899   3.022  0.3280  0.3023  0.0610
14147TIP3    H143323   3.703   7.871   3.017  0.5777  1.2033 -1.0449
14147TIP3    H243324   3.611   7.970   3.086  0.2025 -0.3880  0.8339
14148TIP3   OH243325   4.617   9.729   0.478 -0.4445 -0.3361 -0.5166
14148TIP3    H143326   4.620   9.645   0.434 -0.4576  0.6538 -2.5043
14148TIP3    H243327   4.697   9.774   0.451 -1.4437  1.0928 -1.2507
14149TIP3   OH243328   3.450   4.458   9.808  0.3070  0.1893  0.2720
14149TIP3    H143329   3.438   4.411   9.725  2.2448 -0.7269  0.4771
14149TIP3    H243330   3.495   4.539   9.784 -0.6966  0.7604  0.2467
14150TIP3   OH243331   2.867   4.122   2.774 -0.5488 -0.4923  0.7660
14150TIP3    H143332   2.853   4.186   2.705  0.4601 -0.7982  0.2539
14150TIP3    H243333   2.853   4.170   2.855  1.9022  0.9049  0.4626
14151TIP3   OH243334   1.015   0.554   9.904  0.1816  0.2841 -0.2638
14151TIP3    H143335   1.092   0.527   9.954 -0.2431  0.5412  0.5434
14151TIP3    H243336   0.984   0.473   9.864  1.2052  0.2773 -1.0879
14152TIP3   OH243337   2.615   1.883   2.919  0.5011 -0.0204  0.1872
14152TIP3    H143338   2.525   1.885   2.886  0.6192  1.1603 -0.1036
14152TIP3    H243339   2.639   1.975   2.927  2.2208 -0.2962 -1.2235
14153TIP3   OH243340   4.981   0.886   7.158 -0.4316 -0.6421  0.6337
14153TIP3    H143341   5.008   0.850   7.073 -2.3493  1.6893 -1.1368
14153TIP3    H243342   5.061   0.887   7.210  0.6612 -2.8909 -0.8211
14154TIP3   OH243343   7.886   9.645  10.378 -0.0200 -0.1814  0.3146
14154TIP3    H143344   7.888   9.609  10.290  0.3268  1.4545 -0.3840
14154TIP3    H243345   7.883   9.740  10.365  0.3991  0.1051  2.0628
14155TIP3   OH243346   8.794   9.026   0.172 -0.4411 -0.3262  0.0020
14155TIP3    H143347   8.743   8.966   0.118 -1.9351  0.3956  0.5522
14155TIP3    H243348   8.742   9.106   0.176  1.6504  1.1807 -0.9723
14156TIP3   OH243349   6.973   7.779   8.054  0.2561 -0.5684 -0.3060
14156TIP3    H143350   7.045   7.828   8.093 -1.4541  1.3137  0.6904
14156TIP3    H243351   6.990   7.784   7.959  1.4537 -0.2439 -0.0935
14157TIP3   OH243352   5.605   7.142   7.463 -0.0086 -0.6312 -0.1473
14157TIP3    H143353   5.592   7.167   7.554  1.0730 -1.4922  0.2746
14157TIP3    H243354   5.623   7.224   7.417  1.6350 -0.3895  0.8489
14158TIP3   OH243355   8.666   8.780   4.731  0.5379  0.2734  0.8554
14158TIP3    H143356   8.716   8.835   4.791 -0.1867  1.1566  0.6671
14158TIP3    H243357   8.692   8.810   4.644  0.1477  0.3084  0.7516
14159TIP3   OH243358   6.964   0.013   9.780 -0.0875 -0.8046  0.0629
14159TIP3    H143359   6.916   0.095   9.769  1.1894 -0.0721 -0.2836
14159TIP3    H243360   6.929  -0.045   9.713 -0.9774 -0.5427  0.2857
14160TIP3   OH243361   3.609   7.305   4.339  0.7198 -0.4474  0.1704
14160TIP3    H143362   3.698   7.275   4.321  0.9051 -1.2121  2.1133
14160TIP3    H243363   3.558   7.225   4.345  0.4964 -0.2138  1.8453
14161TIP3   OH243364   9.178   4.678   2.633 -0.3472  0.2456  0.1789
14161TIP3    H143365   9.242   4.705   2.699  0.7249  3.5529 -1.9587
14161TIP3    H243366   9.230   4.664   2.554 -1.9015 -0.5252 -0.7475
14162TIP3   OH243367   4.727   8.145   3.137 -0.3121  0.0338 -0.1677
14162TIP3    H143368   4.696   8.189   3.058 -1.6527  0.7793  0.7352
14162TIP3    H243369   4.752   8.216   3.196 -2.2468 -0.3612  1.2113
14163TIP3   OH243370   6.788  10.273   0.405 -0.0742  0.1391 -0.1455
14163TIP3    H143371   6.883  10.287   0.406 -0.0093 -0.2072 -1.0536
14163TIP3    H243372   6.753  10.350   0.360 -0.2177  0.2016  0.0693
14164TIP3   OH243373   4.525   4.809   7.891 -0.2959 -0.1128 -0.1827
14164TIP3    H143374   4.601   4.864   7.871  0.9347 -1.7638 -0.2622
14164TIP3    H243375   4.500   4.771   7.807 -0.9478  0.0565 -0.0772
14165TIP3   OH243376   9.932   2.069   3.026  0.4165 -0.3757 -0.1081
14165TIP3    H143377  10.002   2.080   2.961  0.9154 -1.4704  0.2123
14165TIP3    H243378   9.852   2.089   2.978  0.8074 -0.8140 -0.9719
14166TIP3   OH243379  10.401   7.711   0.481 -0.0976 -0.8396  0.1112
14166TIP3    H143380  10.386   7.806   0.490 -0.5249 -1.0211  1.5790
14166TIP3    H243381  10.448   7.702   0.398 -0.9607  0.5569 -0.5663
14167TIP3   OH243382   9.058   2.235   6.247 -0.2116 -0.2498  0.1258
14167TIP3    H143383   8.997   2.169   6.215  0.3758 -0.6643 -0.1388
14167TIP3    H243384   9.100   2.270   6.168  0.1672 -0.2318  0.3337
14168TIP3   OH243385   4.268   3.665   3.176 -0.0324  0.4476  0.0552
14168TIP3    H143386   4.349   3.665   3.125 -0.3829  1.5009 -0.5545
14168TIP3    H243387   4.227   3.749   3.155 -1.3423 -0.1130  0.2496
14169TIP3   OH243388   9.459   0.829   3.837 -0.2120  0.2431  0.1792
14169TIP3    H143389   9.491   0.782   3.913  0.9301  1.7334  0.6758
14169TIP3    H243390   9.520   0.902   3.827 -0.1061 -0.1187 -2.4080
14170TIP3   OH243391   8.181   5.765   2.821  0.0149 -0.0939  0.4598
14170TIP3    H143392   8.136   5.681   2.817  0.1057 -0.0873 -1.3908
14170TIP3    H243393   8.203   5.786   2.730 -1.3577  2.6740  0.6496
14171TIP3   OH243394  10.377   5.516   0.893 -0.4900  0.2425 -0.2331
14171TIP3    H143395  10.357   5.601   0.855 -0.7364  0.3465  0.1206
14171TIP3    H243396  10.345   5.453   0.829 -2.0983  0.4016  0.3584
14172TIP3   OH243397   4.347   4.031   5.488 -0.7585 -0.2370  1.1352
14172TIP3    H143398   4.251   4.027   5.485 -0.7716  0.4926 -0.4963
14172TIP3    H243399   4.376   3.964   5.426 -0.3827  2.4696 -1.8996
14173TIP3   OH243400   9.106   3.244   6.023  0.5613  0.0453 -0.2111
14173TIP3    H143401   9.150   3.297   6.089 -0.4201  0.1220  0.4029
14173TIP3    H243402   9.019   3.228   6.059  0.1846 -0.3585 -1.2544
14174TIP3   OH243403   1.965   2.311   3.744  0.1700  0.1923  0.2297
14174TIP3    H143404   2.057   2.298   3.720 -0.1244 -2.2991  0.2018
14174TIP3    H243405   1.916   2.277   3.670 -0.8324  2.4739 -0.2114
14175TIP3   OH243406   2.328   5.765   9.410 -0.0229  0.0432  0.0470
14175TIP3    H143407   2.341   5.761   9.505 -0.1568 -2.0018  0.0197
14175TIP3    H243408   2.257   5.703   9.393  1.8108 -1.7215 -1.6342
14176TIP3   OH243409   4.924   4.396  10.139  0.2090  0.2193  0.1085
14176TIP3    H143410   4.967   4.482  10.143 -0.8435  0.7274  1.9607
14176TIP3    H243411   4.993   4.333  10.159  0.7381  0.7476 -0.0379
14177TIP3   OH243412   8.668   6.770   8.014 -0.1390 -0.3302  0.1602
14177TIP3    H143413   8.710   6.855   8.002 -0.2467 -0.2373  0.4332
14177TIP3    H243414   8.733   6.706   7.983 -0.2000 -0.1283 -0.3816
14178TIP3   OH243415   0.780   0.846   8.642 -0.6754 -0.0021  0.0909
14178TIP3    H143416   0.844   0.779   8.662 -0.6029 -0.0894 -0.4290
14178TIP3    H243417   0.712   0.801   8.591 -0.6224  0.3188 -0.2644
14179TIP3   OH243418   2.393   5.537   5.355  0.7469  0.4075  0.0362
14179TIP3    H143419   2.424   5.539   5.264  1.1679 -0.0446  0.1662
14179TIP3    H243420   2.302   5.508   5.349  0.0087  2.6143 -0.4297
14180TIP3   OH243421  10.371   1.441   0.627  0.5606  0.1580  0.3734
14180TIP3    H143422  10.363   1.535   0.608  1.5915  0.1601 -0.1164
14180TIP3    H243423  10.434   1.409   0.563 -2.0341 -1.5262 -1.5527
14181TIP3   OH243424   8.426   7.929   4.550  0.2220 -0.4611 -0.1282
14181TIP3    H143425   8.455   7.902   4.463 -0.7734  0.5765 -0.8255
14181TIP3    H243426   8.341   7.970   4.535  0.6908  1.0780  1.1286
14182TIP3   OH243427   7.065   8.347   5.145 -0.0505 -0.1466  1.0601
14182TIP3    H143428   7.094   8.311   5.228 -1.5492 -2.6254  0.6314
14182TIP3    H243429   7.031   8.434   5.166 -0.2791 -0.6750  3.0301
14183TIP3   OH243430   1.448   3.163   2.924 -0.2262  0.1730  0.2752
14183TIP3    H143431   1.416   3.246   2.889 -0.8640 -0.4352 -0.6155
14183TIP3    H243432   1.386   3.141   2.993 -1.2457 -0.5522 -0.8425
14184TIP3   OH243433   2.878   4.213   7.567  0.0637 -0.3117 -0.0977
14184TIP3    H143434   2.826   4.288   7.597  3.3792  1.9818  0.5541
14184TIP3    H243435   2.844   4.139   7.617 -3.5880  0.5651 -0.9815
14185TIP3   OH243436   4.357   4.649   6.540 -0.3527  0.0577  0.3703
14185TIP3    H143437   4.334   4.740   6.521  0.9761  0.0755 -1.3917
14185TIP3    H243438   4.338   4.602   6.459 -1.1827 -1.2978  1.3028
14186TIP3   OH243439   5.465   6.200   8.342  0.4833 -0.0623  0.4889
14186TIP3    H143440   5.449   6.199   8.248 -0.1885  1.3524  0.5591
14186TIP3    H243441   5.381   6.223   8.380  1.0779  0.7878  1.3404
14187TIP3   OH243442   5.460   6.359  10.668  0.2308 -0.1902  0.4995
14187TIP3    H143443   5.369   6.374  10.644  0.7289  0.0796 -1.4326
14187TIP3    H243444   5.493   6.297  10.603  2.2768  2.2768 -1.0327
14188TIP3   OH243445   6.213  10.712   2.808  0.1629 -0.8702 -0.0496
14188TIP3    H143446   6.146  10.717   2.740  0.4721 -0.6262 -0.3440
14188TIP3    H243447   6.258  10.797   2.803 -1.6964  0.4042  2.4471
14189TIP3   OH243448   5.997   7.200   9.240 -0.4368 -0.0513 -0.2556
14189TIP3    H143449   6.076   7.149   9.257 -0.4346  0.4269  1.3916
14189TIP3    H243450   5.960   7.215   9.327 -0.7097  2.2809 -0.7049
14190TIP3   OH243451   9.854   9.730   3.725 -0.5509  0.1629 -0.2664
14190TIP3    H143452   9.771   9.733   3.772  1.4934  0.0837  3.7255
14190TIP3    H243453   9.901   9.807   3.755  1.7365 -1.0542 -0.5470
14191TIP3   OH243454   6.141   1.031   9.262  0.7403 -0.2697 -0.0248
14191TIP3    H143455   6.078   1.079   9.316  0.3012  0.3363 -1.0601
14191TIP3    H243456   6.225   1.072   9.281  0.5060  0.3008 -0.1948
14192TIP3   OH243457   8.742   5.610   2.101 -0.3893 -0.4590  0.0953
14192TIP3    H143458   8.835   5.629   2.091 -0.1633 -1.2300  0.6369
14192TIP3    H243459   8.739   5.532   2.156 -1.3972  0.2678  1.1130
14193TIP3   OH243460   2.295  10.875   5.659 -0.6522 -0.1997 -0.3800
14193TIP3    H143461   2.207  10.858   5.624 -1.5736 -0.1028  1.7141
14193TIP3    H243462   2.337  10.789   5.660 -0.4544 -0.1431 -2.0128
14194TIP3   OH243463   9.310   9.893  10.859 -0.0145  0.3765  0.1713
14194TIP3    H143464   9.310   9.846  10.775  1.2246 -0.4453  0.6023
14194TIP3    H243465   9.258   9.971  10.842 -3.8368 -1.9372 -0.1224
14195TIP3   OH243466   1.619   7.760   8.629  0.2806 -0.3311 -0.5485
14195TIP3    H143467   1.551   7.736   8.693  1.6188 -1.1686  0.6037
14195TIP3    H243468   1.594   7.713   8.549 -0.8691 -0.0649 -0.3686
14196TIP3   OH243469   9.909   7.668   5.989  0.8049  0.1509 -0.0788
14196TIP3    H143470   9.869   7.629   6.066 -3.8185  1.9341 -1.2603
14196TIP3    H243471   9.959   7.743   6.023 -0.6591  0.5457  1.2828
14197TIP3   OH243472   8.277  10.807   2.578  1.0994  0.0782  0.2801
14197TIP3    H143473   8.328  10.825   2.499  0.2692  1.9957  0.1378
14197TIP3    H243474   8.289  10.883   2.634 -0.2666 -0.1532  0.9566
14198TIP3   OH243475   0.811   4.902   7.835  0.6647 -0.1965  0.2369
14198TIP3    H143476   0.734   4.897   7.892  0.8078 -0.6159  0.4049
14198TIP3    H243477   0.881   4.861   7.887  0.7380 -0.8067 -0.3314
14199TIP3   OH243478   0.893   5.358   3.714 -0.2432  0.1945 -0.1571
14199TIP3    H143479   0.806   5.335   3.683 -0.0518  1.4843 -1.8257
14199TIP3    H243480   0.899   5.453   3.700  1.0573  0.2933  0.8836
14200TIP3   OH243481   1.538   1.449   4.356 -0.1002 -0.3018 -0.0426
14200TIP3    H143482   1.613   1.504   4.379 -1.1047  1.8975 -1.7209
14200TIP3    H243483   1.571   1.392   4.286  0.6963 -1.2780  1.0874
14201TIP3   OH243484   1.065   5.668   0.298  0.4615 -0.5774  0.0733
14201TIP3    H143485   1.158   5.691   0.303  0.2253  1.0617 -1.9347
14201TIP3    H243486   1.023   5.720   0.366  0.7320  0.4258 -0.5170
14202TIP3   OH243487   4.705   3.942   5.028  0.5295 -0.4945  0.1826
14202TIP3    H143488   4.690   4.012   4.965 -1.4864 -1.6853 -0.7615
14202TIP3    H243489   4.790   3.962   5.066  0.2808  2.1410 -0.4353
14203TIP3   OH243490   9.776   0.852   1.482  0.0546 -0.1591 -1.1432
14203TIP3    H143491   9.829   0.908   1.424  1.2264  0.5375  0.5077
14203TIP3    H243492   9.713   0.912   1.522  0.4266 -0.2575 -0.3844
14204TIP3   OH243493  10.596   5.578   9.785 -0.0459 -0.2747  0.1179
14204TIP3    H143494  10.504   5.552   9.790 -0.6764  0.8529 -3.1415
14204TIP3    H243495  10.643   5.495   9.776 -0.9505 -0.7872 -0.0414
14205TIP3   OH243496   0.528   3.953   9.030 -0.3402 -0.8672  0.5848
14205TIP3    H143497   0.586   3.956   9.106 -0.1340  2.1535  0.4512
14205TIP3    H243498   0.586   3.934   8.956  0.0120 -0.6474  0.8000
14206TIP3   OH243499  10.241   4.849   0.703  0.2346 -0.0693 -0.1314
14206TIP3    H143500  10.330   4.814   0.711  0.0728 -0.6323 -0.6417
14206TIP3    H243501  10.184   4.776   0.729 -0.1569 -0.6796 -2.4023
14207TIP3   OH243502   0.283   9.224   0.156  0.5754  0.2185  0.1725
14207TIP3    H143503   0.341   9.147   0.158 -0.3862 -0.5920 -1.2971
14207TIP3    H243504   0.296   9.262   0.069 -0.7054  0.3164  0.0010
14208TIP3   OH243505   3.591   8.161   8.739  0.0987 -0.0019  0.0974
14208TIP3    H143506   3.643   8.095   8.784 -0.9134 -1.5631 -0.9240
14208TIP3    H243507   3.629   8.166   8.651 -0.5408 -0.0764 -0.1896
14209TIP3   OH243508  10.259   0.807   1.961 -0.4611  0.2975 -0.0565
14209TIP3    H143509  10.240   0.720   1.997 -0.7000  0.3876  0.0362
14209TIP3    H243510  10.205   0.867   2.012 -0.4959  0.4729 -0.2942
14210TIP3   OH243511   3.847   3.443   8.376 -0.0056  0.1307 -0.1635
14210TIP3    H143512   3.842   3.529   8.335 -0.4632 -0.8919 -2.3758
14210TIP3    H243513   3.925   3.448   8.432 -1.0160  2.5113  1.1706
14211TIP3   OH243514   5.499   6.568   8.967  0.5374  0.5265  0.0714
14211TIP3    H143515   5.410   6.564   8.930  0.0908  0.9994  1.0454
14211TIP3    H243516   5.513   6.480   9.002 -0.2235  0.8955  1.3731
14212TIP3   OH243517   2.756   0.309   6.669  0.3626 -0.0166  0.2218
14212TIP3    H143518   2.689   0.344   6.610  0.6653 -0.2497 -0.2643
14212TIP3    H243519   2.752   0.214   6.656 -0.5995 -0.2080  1.6864
14213TIP3   OH243520   2.213   3.307   6.859  0.2567  0.2321 -0.0161
14213TIP3    H143521   2.144   3.357   6.904 -0.8631  0.8398 -2.2607
14213TIP3    H243522   2.243   3.365   6.789  1.3465 -0.9771 -0.5896
14214TIP3   OH243523   8.970   4.282   4.094  0.5755  0.1555 -0.1761
14214TIP3    H143524   8.941   4.194   4.115 -0.3346  0.6680  0.8075
14214TIP3    H243525   9.066   4.279   4.101  0.4818 -0.4715  0.9793
14215TIP3   OH243526  10.459   8.040   3.938  0.7014  0.2532  0.0323
14215TIP3    H143527  10.382   8.010   3.889  0.3921  0.8427  0.1547
14215TIP3    H243528  10.533   7.993   3.898  0.2441 -0.5644  0.1258
14216TIP3   OH243529   4.274   1.105   4.872  0.6662  0.3329 -0.0717
14216TIP3    H143530   4.197   1.134   4.921  0.4158 -0.1390 -0.1787
14216TIP3    H243531   4.240   1.087   4.784  1.0146  0.6867 -0.2803
14217TIP3   OH243532   9.906   3.211   6.399 -0.2866 -0.1059 -0.3053
14217TIP3    H143533   9.933   3.303   6.407 -1.4112  0.1734  0.5345
14217TIP3    H243534   9.982   3.162   6.429  0.4888  0.5272 -1.1815
14218TIP3   OH243535   9.798   9.556   0.975  0.7392 -0.1933  0.3560
14218TIP3    H143536   9.733   9.510   0.923  1.5477 -0.1525 -0.7337
14218TIP3    H243537   9.825   9.493   1.042  0.7446 -0.7723 -0.1812
14219TIP3   OH243538   6.951   9.236   3.021  0.6443  0.4313 -0.0589
14219TIP3    H143539   6.927   9.148   2.993 -1.7580  0.9034  0.2988
14219TIP3    H243540   7.031   9.224   3.072 -0.5219 -1.7882  1.3918
14220TIP3   OH243541   0.929   6.559   7.273 -0.3689 -0.1381  0.4274
14220TIP3    H143542   0.873   6.514   7.337 -0.2850 -0.1619  0.4835
14220TIP3    H243543   0.943   6.646   7.310  1.9938 -1.0251  1.8374
14221TIP3   OH243544   7.197   2.683   1.314 -0.0816  0.5035 -0.4902
14221TIP3    H143545   7.135   2.611   1.324  1.0049 -0.6532 -1.8970
14221TIP3    H243546   7.169   2.747   1.380 -0.9756 -1.2420  0.9031
14222TIP3   OH243547   0.497   0.387   6.049  0.1591 -0.4534  0.2557
14222TIP3    H143548   0.405   0.406   6.028  0.7503 -0.1225 -2.4037
14222TIP3    H243549   0.494   0.306   6.099 -1.6199 -0.0409  0.9038
14223TIP3   OH243550   2.771   4.536   0.684 -0.0410  0.1857  0.6860
14223TIP3    H143551   2.795   4.628   0.686  2.0777 -0.3163  0.9540
14223TIP3    H243552   2.836   4.496   0.626 -1.7553 -0.9390 -0.5480
14224TIP3   OH243553   2.693   3.439   2.476 -0.0117  0.5499  0.0099
14224TIP3    H143554   2.630   3.379   2.516  2.3469 -0.9204  1.7069
14224TIP3    H243555   2.726   3.492   2.549  1.9630  0.0831 -0.4887
14225TIP3   OH243556   8.961   0.294   6.300  0.0654  0.4587  0.8846
14225TIP3    H143557   8.996   0.248   6.376 -0.9374  0.3453  1.2971
14225TIP3    H243558   8.961   0.386   6.326 -1.0865  0.3390  1.3839
14226TIP3   OH243559   5.853   6.629   9.408  0.2786 -0.0977  0.3256
14226TIP3    H143560   5.763   6.653   9.385  0.2065  0.3336  1.0220
14226TIP3    H243561   5.876   6.688   9.480  0.7218 -0.9638  0.9113
14227TIP3   OH243562   9.323   0.222   2.981 -0.0613 -0.2316  0.4086
14227TIP3    H143563   9.227   0.219   2.978 -0.0232 -1.0833 -2.0455
14227TIP3    H243564   9.343   0.315   2.971 -0.6329 -0.1610 -0.1925
14228TIP3   OH243565   7.665   4.309   9.039  0.0601 -0.4927  0.0317
14228TIP3    H143566   7.665   4.228   8.987  0.7118 -1.0458  0.8643
14228TIP3    H243567   7.731   4.294   9.107 -0.4540  0.3886  0.7503
14229TIP3   OH243568   6.786   8.773  10.653  0.0009  0.3163 -0.0477
14229TIP3    H143569   6.766   8.850  10.707 -1.6279 -1.8832  2.7768
14229TIP3    H243570   6.706   8.758  10.603 -0.1543 -0.2034  0.3456
14230TIP3   OH243571   8.508   5.872   8.076  0.4421 -0.0495  0.0711
14230TIP3    H143572   8.472   5.811   8.141 -3.4562  0.4718 -1.3367
14230TIP3    H243573   8.559   5.934   8.128 -2.1956  0.1519  2.6737
14231TIP3   OH243574   9.911   5.163   9.298  0.4176  0.8384  0.4095
14231TIP3    H143575   9.981   5.111   9.258  0.7246  2.6881 -1.6548
14231TIP3    H243576   9.957   5.236   9.341 -0.1384  0.8380  1.0226
14232TIP3   OH243577   6.765   8.133   7.858  0.1792 -0.1235 -0.2128
14232TIP3    H143578   6.731   8.216   7.892  1.7980  0.3095  0.4266
14232TIP3    H243579   6.774   8.148   7.764  0.0309  0.2546 -0.1689
14233TIP3   OH243580   1.026   1.396   0.003  0.1831 -0.0735 -0.0768
14233TIP3    H143581   1.002   1.479  -0.037 -1.3775  0.4698  1.8008
14233TIP3    H243582   1.050   1.419   0.093  2.1068 -1.4035 -0.1711
14234TIP3   OH243583   7.013  10.303   9.663  0.6217 -0.2414  0.0179
14234TIP3    H143584   6.947  10.255   9.613 -0.5007  0.6393  0.6189
14234TIP3    H243585   6.971  10.321   9.747  1.0405  1.6398 -0.1301
14235TIP3   OH243586   1.245   7.897   6.981  0.4493 -0.1888  0.5852
14235TIP3    H143587   1.237   7.935   7.068  0.0600 -0.2446  0.5765
14235TIP3    H243588   1.290   7.964   6.929 -0.8612  0.5672  0.3876
14236TIP3   OH243589   1.194   9.487   9.418 -0.0815 -0.2401  0.1092
14236TIP3    H143590   1.232   9.402   9.397 -0.7005 -0.6253  0.5159
14236TIP3    H243591   1.269   9.542   9.440  0.2517 -0.9449  0.7602
14237TIP3   OH243592  10.154   5.562   8.265  0.2004  0.1049 -0.5748
14237TIP3    H143593  10.112   5.528   8.186  0.7589 -1.4806 -0.2437
14237TIP3    H243594  10.171   5.654   8.246  0.5561 -0.2989 -2.4159
14238TIP3   OH243595   6.378   1.671   7.025 -0.2520  0.3553  0.2421
14238TIP3    H143596   6.296   1.721   7.031 -0.7841 -0.5837  1.0555
14238TIP3    H243597   6.399   1.649   7.115  0.7000  0.2547  0.0006
14239TIP3   OH243598   0.370   2.542  10.325 -0.6414  0.5345  0.4795
14239TIP3    H143599   0.283   2.582  10.322 -0.9596 -0.1863 -0.3777
14239TIP3    H243600   0.408   2.562  10.239  0.8722  2.6012  1.5491
14240TIP3   OH243601   1.129   3.988   3.286  0.6445  0.1945  0.5604
14240TIP3    H143602   1.199   3.999   3.222  0.2766 -0.8531 -0.0413
14240TIP3    H243603   1.057   4.040   3.253 -0.5232 -2.4673 -1.4116
14241TIP3   OH243604   5.071   4.615   3.230  0.0128 -0.1474 -0.2968
14241TIP3    H143605   5.102   4.547   3.290 -0.4641  1.3783  1.7794
14241TIP3    H243606   4.992   4.650   3.272 -0.0184  1.3648 -1.5294
14242TIP3   OH243607   1.675   1.221   5.353  0.3975 -0.2933 -1.0095
14242TIP3    H143608   1.690   1.209   5.447  0.4910  0.2873 -0.9488
14242TIP3    H243609   1.599   1.165   5.334  1.3401 -1.6747 -0.9123
14243TIP3   OH243610   7.274   4.956   2.653 -0.2599  0.0221  0.2026
14243TIP3    H143611   7.238   5.013   2.721 -1.3538 -1.5619  0.9999
14243TIP3    H243612   7.210   4.960   2.582 -0.2898 -0.1674  0.2207
14244TIP3   OH243613   9.724   8.263   6.702 -0.0718  0.1248 -0.1153
14244TIP3    H143614   9.789   8.238   6.637 -0.6284 -2.0482  0.0964
14244TIP3    H243615   9.773   8.315   6.766  1.3829 -1.1652 -0.1440
14245TIP3   OH243616   6.051   1.240   2.752  0.1902 -0.3893 -0.4115
14245TIP3    H143617   6.092   1.321   2.784 -0.1458 -0.5908  0.5515
14245TIP3    H243618   6.110   1.209   2.684  0.2586  0.7412 -0.9008
14246TIP3   OH243619   3.248   2.463   5.008 -0.1234  1.1671  0.3001
14246TIP3    H143620   3.158   2.454   5.040  0.2194 -0.7068  0.8974
14246TIP3    H243621   3.247   2.419   4.923  0.5931 -0.6560  1.1639
14247TIP3   OH243622   9.424   6.623   4.205 -0.2849 -0.0783  0.0339
14247TIP3    H143623   9.440   6.542   4.254  0.4234  0.1004  0.1102
14247TIP3    H243624   9.350   6.664   4.250 -0.2195 -0.3644  0.4062
14248TIP3   OH243625  10.682   4.876   4.775  0.0870  0.0320  0.0530
14248TIP3    H143626  10.686   4.782   4.756  0.7213 -0.0357  0.4879
14248TIP3    H243627  10.626   4.912   4.707  0.5531 -0.5299 -0.6372
14249TIP3   OH243628  10.167   0.356   8.425  0.0360  0.3716 -0.6057
14249TIP3    H143629  10.110   0.340   8.350 -1.4447 -0.7583  0.6867
14249TIP3    H243630  10.249   0.389   8.387 -0.5060 -0.5787 -2.7290
14250TIP3   OH243631   8.848  10.398   8.881 -0.0102 -0.0823  0.5519
14250TIP3    H143632   8.784  10.469   8.870  0.6337  0.6879  1.4925
14250TIP3    H243633   8.837  10.343   8.804 -0.5942  1.0002 -0.1724
14251TIP3   OH243634   7.613   7.573   2.737 -0.1143 -0.2592  0.0460
14251TIP3    H143635   7.632   7.578   2.644 -0.1093  0.8633  0.0958
14251TIP3    H243636   7.608   7.664   2.766 -0.6007 -0.5828  1.0429
14252TIP3   OH243637   1.954   1.381   6.826  0.1697  0.6883  0.4789
14252TIP3    H143638   1.934   1.465   6.866 -2.8518 -0.9366  2.7937
14252TIP3    H243639   1.901   1.380   6.746 -1.7170  0.1630  1.6729
14253TIP3   OH243640   6.744   1.165   8.328  0.0894 -0.6049  0.1027
14253TIP3    H143641   6.807   1.161   8.256  0.3942  0.6158  0.2666
14253TIP3    H243642   6.658   1.162   8.287  0.2583  0.7569 -0.3803
14254TIP3   OH243643   9.652   4.599   2.916 -0.0053  0.0108 -0.4842
14254TIP3    H143644   9.716   4.587   2.987  0.9057 -1.5698 -1.5023
14254TIP3    H243645   9.617   4.686   2.930 -1.2257 -0.8672  2.9884
14255TIP3   OH243646  10.564   1.934   4.805 -0.4665 -0.1353 -0.5765
14255TIP3    H143647  10.610   2.012   4.836 -1.4134  0.8988 -1.7103
14255TIP3    H243648  10.603   1.914   4.720  0.0038 -1.1377 -0.1541
14256TIP3   OH243649   6.190   9.406   4.848 -0.0209  0.0927  0.0688
14256TIP3    H143650   6.173   9.494   4.815 -1.1673 -0.2548 -0.3397
14256TIP3    H243651   6.205   9.353   4.770  1.2841  0.0406  0.3458
14257TIP3   OH243652   6.928   3.611   4.882 -0.3133 -0.7637  0.2395
14257TIP3    H143653   6.874   3.539   4.849  1.0845 -1.0600 -1.5131
14257TIP3    H243654   6.959   3.656   4.804 -0.8241  1.5474  1.2714
14258TIP3   OH243655   7.291   4.767   8.584  0.1722 -0.2374  0.2724
14258TIP3    H143656   7.368   4.711   8.581 -1.0699 -1.9999 -0.7366
14258TIP3    H243657   7.236   4.737   8.511  0.1450  3.4583 -1.4548
14259TIP3   OH243658   8.716   5.125   4.843  0.3028  0.7410 -0.3569
14259TIP3    H143659   8.808   5.114   4.820  0.2463 -0.0748 -0.1954
14259TIP3    H243660   8.707   5.081   4.927 -0.4817 -0.1491 -0.8940
14260TIP3   OH243661   7.486   2.157   8.479 -0.0774 -0.2136  0.2850
14260TIP3    H143662   7.500   2.101   8.556 -0.3149  1.0438  1.2746
14260TIP3    H243663   7.482   2.246   8.515  3.9209  0.9423 -1.5758
14261TIP3   OH243664   6.681   1.706   1.611 -0.5964  0.0288 -0.0279
14261TIP3    H143665   6.676   1.801   1.599 -1.8284  0.0855  0.7380
14261TIP3    H243666   6.596   1.674   1.583  0.0376 -0.9453 -0.9002
14262TIP3   OH243667   1.909  10.416   2.963  0.3508  0.4234  0.4267
14262TIP3    H143668   1.913  10.424   3.058  2.5543 -1.1297  0.5481
14262TIP3    H243669   1.824  10.376   2.945 -0.0389  0.6134  1.7300
14263TIP3   OH243670   6.588   6.829   8.250  0.7846  0.1029 -0.3171
14263TIP3    H143671   6.543   6.823   8.166 -2.0012  1.9414  0.8938
14263TIP3    H243672   6.539   6.770   8.308  2.1614 -0.5222  0.2662
14264TIP3   OH243673   6.536   0.052   8.365  0.0997  0.1203  0.2411
14264TIP3    H143674   6.584   0.119   8.316  1.2849 -1.3872 -0.7445
14264TIP3    H243675   6.568  -0.031   8.331 -0.4256 -0.9991  2.2840
14265TIP3   OH243676   6.039   4.511   1.909 -0.0186 -0.9317  0.3849
14265TIP3    H143677   6.068   4.597   1.879 -1.5907 -0.8962 -1.1120
14265TIP3    H243678   6.104   4.487   1.975  0.9037  1.0419  0.2830
14266TIP3   OH243679   9.360   1.952   7.702 -0.0507 -0.4793  0.0631
14266TIP3    H143680   9.364   1.879   7.764 -0.8096 -1.0513 -0.5426
14266TIP3    H243681   9.270   1.984   7.709  0.4267  0.7651  0.7219
14267TIP3   OH243682   4.880   4.983   9.846 -0.1542 -0.5099 -0.3863
14267TIP3    H143683   4.824   4.910   9.872 -0.8219  0.6685  1.7823
14267TIP3    H243684   4.967   4.958   9.876 -0.3413 -0.5106  0.1638
14268TIP3   OH243685   8.237   9.994   4.156  0.3422  0.6552  0.2387
14268TIP3    H143686   8.327  10.004   4.126  0.0338  2.4118 -0.1778
14268TIP3    H243687   8.245   9.979   4.250  1.0825  0.3797  0.1359
14269TIP3   OH243688   6.986   6.438   6.662 -0.4216  0.0452  0.1320
14269TIP3    H143689   6.933   6.359   6.652 -1.5362  0.9782 -2.2262
14269TIP3    H243690   6.938   6.491   6.726 -0.4352 -0.5712  0.6399
14270TIP3   OH243691   8.898   1.670   0.760 -0.0631 -0.2382 -0.7359
14270TIP3    H143692   8.948   1.709   0.833  0.4830 -0.5197 -0.9541
14270TIP3    H243693   8.869   1.586   0.794  0.2063 -0.3771 -0.8462
14271TIP3   OH243694   4.448   1.582  10.436  0.0474 -0.3198  0.1721
14271TIP3    H143695   4.373   1.633  10.466  0.0262 -1.4933  2.3985
14271TIP3    H243696   4.461   1.608  10.345 -1.1709  2.1221  0.6161
14272TIP3   OH243697   3.008   8.670   3.710  0.3428 -0.5733  0.3134
14272TIP3    H143698   2.944   8.660   3.640  1.8250  0.0675 -1.2362
14272TIP3    H243699   3.092   8.680   3.664  1.9530 -3.6066  2.2291
14273TIP3   OH243700   3.517   0.540   4.226 -0.5276  0.0351 -0.2760
14273TIP3    H143701   3.602   0.509   4.259 -1.1932 -0.7211  0.8178
14273TIP3    H243702   3.455   0.475   4.258 -1.4551  0.2429 -1.5885
14274TIP3   OH243703   6.457   0.831   5.464  0.3072 -0.6133  0.0252
14274TIP3    H143704   6.532   0.873   5.423 -0.5589  0.1071 -0.8717
14274TIP3    H243705   6.467   0.849   5.557  1.7192 -1.3324  0.0417
14275TIP3   OH243706   0.728   4.533  10.736  0.4766 -0.8392 -1.3174
14275TIP3    H143707   0.747   4.606  10.676  1.0977 -1.8507 -2.3964
14275TIP3    H243708   0.797   4.537  10.801 -1.8711  2.1622  1.3051
14276TIP3   OH243709   4.501   2.378   3.579 -0.4842  0.2449 -0.3406
14276TIP3    H143710   4.473   2.423   3.499 -0.5382 -0.2226 -0.5870
14276TIP3    H243711   4.591   2.409   3.593 -0.7947  1.0531 -0.0475
14277TIP3   OH243712   1.627   3.474   2.795  0.1629  0.3332 -0.0591
14277TIP3    H143713   1.536   3.456   2.818  0.8637 -0.3877  2.3920
14277TIP3    H243714   1.642   3.424   2.715 -1.6523  0.7625 -0.7300
14278TIP3   OH243715   5.558   2.746   1.704 -0.3479  0.2449  0.3212
14278TIP3    H143716   5.529   2.669   1.753 -2.0165  0.1269 -0.7836
14278TIP3    H243717   5.511   2.819   1.743  0.8613  0.6740  1.0429
14279TIP3   OH243718   6.004  10.832   9.729 -0.4378  0.0849  0.2035
14279TIP3    H143719   5.947  10.757   9.746 -0.6229  0.2148  0.1597
14279TIP3    H243720   6.093  10.797   9.736 -0.5011  0.1569  1.5654
14280TIP3   OH243721  10.650   1.991   7.391  0.2501 -0.2646 -0.4260
14280TIP3    H143722  10.736   1.963   7.421  0.8317  2.0054  0.2434
14280TIP3    H243723  10.658   2.086   7.380 -1.8371 -0.1473 -1.5013
14281TIP3   OH243724   6.647   1.979   1.505  0.2969  0.1118 -0.1632
14281TIP3    H143725   6.622   2.013   1.419  0.8518 -0.0577 -0.3966
14281TIP3    H243726   6.722   2.032   1.531 -0.4921  0.8402  0.6821
14282TIP3   OH243727   0.663   1.379   6.133 -0.4164 -0.3113  0.5976
14282TIP3    H143728   0.624   1.292   6.129  2.8132 -1.8744 -2.7421
14282TIP3    H243729   0.732   1.371   6.199  0.0080 -0.3769  0.1515
14283TIP3   OH243730   4.254   8.339   4.301 -0.0372 -0.6482  0.2783
14283TIP3    H143731   4.238   8.399   4.228  1.6171 -0.3361  0.1248
14283TIP3    H243732   4.347   8.315   4.292 -0.1538 -1.6507  1.5059
14284TIP3   OH243733   9.200   2.083   9.554 -0.0105 -0.4693 -0.1219
14284TIP3    H143734   9.208   2.116   9.643  0.1231 -0.7063 -0.0460
14284TIP3    H243735   9.121   2.124   9.520  0.1568 -0.0650 -0.0297
14285TIP3   OH243736  10.811   6.634  10.095  0.3070 -0.5016  0.3312
14285TIP3    H143737  10.876   6.585  10.045  0.8053  0.2616  0.2052
14285TIP3    H243738  10.728   6.588  10.079  0.6651 -0.9722 -0.2189
14286TIP3   OH243739   6.263   0.597   6.412 -0.5926  0.8809  0.3229
14286TIP3    H143740   6.250   0.692   6.405  3.1392  1.4361 -1.7674
14286TIP3    H243741   6.355   0.587   6.436 -0.9212 -2.2572  0.6833
14287TIP3   OH243742   3.628   7.529  10.472  0.9011 -0.1544  0.0681
14287TIP3    H143743   3.658   7.613  10.436 -2.1380  0.9304 -0.2822
14287TIP3    H243744   3.638   7.539  10.566  0.8119  0.5319  0.0142
14288TIP3   OH243745   9.376   1.919   1.671 -0.5975  0.3119  0.4617
14288TIP3    H143746   9.312   1.860   1.711 -0.6090  1.5576  2.4654
14288TIP3    H243747   9.459   1.874   1.682 -0.7395  0.1530  0.9489
14289TIP3   OH243748   0.535   5.411   2.242 -0.0926  0.4273  0.1738
14289TIP3    H143749   0.458   5.393   2.295 -0.7940 -2.1545 -1.5286
14289TIP3    H243750   0.500   5.431   2.155  1.1038  0.4471 -0.3245
14290TIP3   OH243751   8.285   7.298   8.515  0.1019  0.1908  0.9112
14290TIP3    H143752   8.247   7.212   8.499  0.7018 -0.2349  1.6414
14290TIP3    H243753   8.347   7.311   8.443  0.3128 -0.1879  1.0180
14291TIP3   OH243754   6.480   6.712   6.076  0.3972 -0.0410 -0.4084
14291TIP3    H143755   6.548   6.770   6.043 -0.2848  0.4539 -0.9935
14291TIP3    H243756   6.519   6.625   6.075  0.8565  0.1658 -1.2059
14292TIP3   OH243757   9.990   6.802   9.387  0.1445  0.0332  0.3794
14292TIP3    H143758   9.958   6.840   9.469 -0.6040 -0.0819  0.1457
14292TIP3    H243759   9.912   6.767   9.345  0.5344  0.0532 -0.3699
14293TIP3   OH243760  10.142   5.443  10.186 -0.2780 -0.2613 -0.2595
14293TIP3    H143761  10.156   5.351  10.206  1.3190  0.0558  0.2092
14293TIP3    H243762  10.125   5.445  10.091 -1.2033 -1.0965 -0.1254
14294TIP3   OH243763   6.310   0.076   7.669 -0.0996  0.2906  0.6459
14294TIP3    H143764   6.331  -0.013   7.696 -0.6030 -0.0752 -0.1372
14294TIP3    H243765   6.293   0.123   7.751 -3.2981 -1.2028  0.9778
14295TIP3   OH243766   3.249  10.682   1.747  0.2858 -0.5468 -0.0508
14295TIP3    H143767   3.253  10.587   1.733  2.2916 -0.2531 -2.0329
14295TIP3    H243768   3.216  10.691   1.837 -0.1533 -3.0931  0.1354
14296TIP3   OH243769   8.075   4.683   1.553  0.7427 -0.1412  0.0261
14296TIP3    H143770   8.067   4.763   1.604 -0.2526  0.0927 -0.4650
14296TIP3    H243771   7.985   4.661   1.529  1.2091  0.4702 -2.6821
14297TIP3   OH243772   7.977   7.911   7.147  0.5906 -0.2961 -0.3207
14297TIP3    H143773   8.051   7.886   7.091  0.7482 -5.5442  1.6688
14297TIP3    H243774   8.012   7.906   7.236 -1.6252 -1.0098  0.5717
14298TIP3   OH243775   9.639   8.837   6.912  0.0481 -0.1666  0.3242
14298TIP3    H143776   9.602   8.827   7.000 -3.7208 -0.1299 -1.0831
14298TIP3    H243777   9.572   8.886   6.864  1.9584 -0.2466 -2.5962
14299TIP3   OH243778   4.986   4.583   6.727  0.1193 -0.7181 -0.5447
14299TIP3    H143779   5.008   4.674   6.707 -1.2513  0.0167  1.0051
14299TIP3    H243780   5.071   4.541   6.746  0.6582  0.6297  0.1632
14300TIP3   OH243781   5.517   2.920   1.929 -0.6150 -0.0681 -0.2366
14300TIP3    H143782   5.608   2.911   1.959  0.1568  0.4442 -2.2802
14300TIP3    H243783   5.478   2.834   1.946  0.3759 -0.4348  0.2613
14301TIP3   OH243784   3.656   7.970   7.451 -0.3983 -0.1412 -0.5120
14301TIP3    H143785   3.655   7.880   7.417  1.1036 -0.0464 -0.8654
14301TIP3    H243786   3.584   8.013   7.404 -1.0569 -1.1042 -0.4376
14302TIP3   OH243787   7.378   5.426   3.492 -0.1607 -0.2994  0.5149
14302TIP3    H143788   7.380   5.343   3.444  3.6825  0.8239 -1.6968
14302TIP3    H243789   7.351   5.490   3.427  1.5485  0.7566  0.7767
14303TIP3   OH243790   3.177   0.285   5.516 -0.0388  0.7667  0.0147
14303TIP3    H143791   3.206   0.338   5.442  0.1771  0.3424 -0.2088
14303TIP3    H243792   3.200   0.195   5.491 -1.3478  0.4405 -0.0831
14304TIP3   OH243793   8.835   2.685   1.888 -0.5056 -0.0185 -0.2331
14304TIP3    H143794   8.762   2.640   1.929 -0.4602  1.0663  1.1202
14304TIP3    H243795   8.797   2.766   1.854 -0.0478  0.2928 -0.0124
14305TIP3   OH243796   9.494   0.204   5.210  0.1592 -0.3301  0.0176
14305TIP3    H143797   9.399   0.221   5.213 -0.2662 -2.5660  0.9461
14305TIP3    H243798   9.532   0.277   5.259 -1.0221  0.8417 -0.7399
14306TIP3   OH243799   8.771  10.006   3.495  0.0292 -0.3419  0.1633
14306TIP3    H143800   8.842  10.065   3.471  0.1529 -0.8137 -0.6680
14306TIP3    H243801   8.816   9.928   3.529 -0.1021 -0.4903 -0.0078
14307TIP3   OH243802   0.125   9.811  10.232 -0.0143  0.0665 -0.3622
14307TIP3    H143803   0.164   9.833  10.317  2.0659  2.2367 -1.7524
14307TIP3    H243804   0.191   9.758  10.188 -0.4415  0.2134 -1.1975
14308TIP3   OH243805   4.877   6.713   6.609  0.2757  0.1545 -0.1202
14308TIP3    H143806   4.967   6.744   6.600  0.5542 -1.1997 -2.7904
14308TIP3    H243807   4.824   6.776   6.560 -0.0655  0.1965  0.2951
14309TIP3   OH243808   2.806   1.494   3.326  0.2129  0.1701 -0.2277
14309TIP3    H143809   2.869   1.552   3.282  0.6070  1.1047  1.4845
14309TIP3    H243810   2.859   1.441   3.385 -0.6029  1.8436  2.1908
14310TIP3   OH243811   0.218  10.439   9.728 -0.4850  0.0253 -0.1265
14310TIP3    H143812   0.200  10.506   9.794 -3.2340 -1.6721  1.0157
14310TIP3    H243813   0.182  10.475   9.647 -0.9217  0.3918  0.2261
14311TIP3   OH243814   9.121   2.779   0.057 -0.2090 -0.5024  0.4593
14311TIP3    H143815   9.029   2.776   0.084 -0.5711 -0.4824 -0.7295
14311TIP3    H243816   9.123   2.842  -0.014  0.4510 -1.6290 -0.5498
14312TIP3   OH243817   9.471   3.199   0.408 -0.1591 -0.2334 -0.1600
14312TIP3    H143818   9.495   3.119   0.455  0.5316  0.7350  1.1851
14312TIP3    H243819   9.466   3.172   0.316 -0.9802 -2.0542  0.3576
14313TIP3   OH243820   8.559   5.249   8.589  0.1595 -0.4694  0.0488
14313TIP3    H143821   8.541   5.155   8.595  1.2543 -0.6576  0.7871
14313TIP3    H243822   8.554   5.280   8.680  2.2030 -0.3261  0.1759
14314TIP3   OH243823   2.406   1.832   9.328  0.3159 -0.2899  0.0850
14314TIP3    H143824   2.395   1.847   9.233 -2.0342 -2.5251 -0.1090
14314TIP3    H243825   2.474   1.766   9.334 -1.8286 -2.6877 -0.3986
14315TIP3   OH243826   3.012   8.041   8.452  0.4803  0.3430 -0.3974
14315TIP3    H143827   2.925   8.018   8.486  0.5247 -0.1588 -0.6099
14315TIP3    H243828   2.996   8.068   8.362  0.3524  1.7525  0.0299
14316TIP3   OH243829   4.709   1.689   3.224 -0.2046  0.5651  0.1423
14316TIP3    H143830   4.633   1.672   3.169  1.1533  2.1803 -2.4052
14316TIP3    H243831   4.754   1.605   3.231 -1.2686 -0.0094  0.1861
14317TIP3   OH243832   4.554   4.303  10.668 -0.1928 -0.4177  0.2221
14317TIP3    H143833   4.612   4.281  10.741 -1.7406 -1.5740  1.1629
14317TIP3    H243834   4.611   4.344  10.603  2.0312 -2.9363  0.4110
14318TIP3   OH243835   3.358   4.665   7.663  0.7308  0.0116 -0.2234
14318TIP3    H143836   3.368   4.608   7.587  1.1865 -1.0057  0.5648
14318TIP3    H243837   3.448   4.692   7.684  0.5704  0.5867 -0.2654
14319TIP3   OH243838   1.859   6.589   0.122 -0.0077  0.4334  0.1590
14319TIP3    H143839   1.809   6.668   0.142 -0.1737  0.4730 -0.3972
14319TIP3    H243840   1.816   6.520   0.171 -0.1647  0.6024  0.2566
14320TIP3   OH243841   6.300  10.044   8.817 -0.1429  0.1848 -0.9088
14320TIP3    H143842   6.364  10.110   8.790 -0.1972  0.4022 -0.5256
14320TIP3    H243843   6.312   9.971   8.756  2.1340 -0.7921  0.5851
14321TIP3   OH243844   9.257   0.167   0.670 -0.2622 -0.6336 -0.3319
14321TIP3    H143845   9.345   0.137   0.696  0.3322  2.5672  1.9484
14321TIP3    H243846   9.273   0.247   0.621 -1.9205  0.1464  0.3494
14322TIP3   OH243847   7.404   1.766   6.796 -0.5510  0.7752  0.5080
14322TIP3    H143848   7.435   1.704   6.862 -1.6292  1.0736  1.3223
14322TIP3    H243849   7.470   1.836   6.796 -1.8951  2.1841  3.3390
14323TIP3   OH243850   0.345  10.603   5.526  0.5166 -0.4618 -0.2192
14323TIP3    H143851   0.425  10.577   5.480  0.6632  0.8755 -0.7988
14323TIP3    H243852   0.275  10.558   5.479  0.7314  0.3373 -1.3563
14324TIP3   OH243853   2.933   7.498   7.971  0.0631 -0.4613 -0.1717
14324TIP3    H143854   3.022   7.519   7.997  0.0804  2.0153 -1.8891
14324TIP3    H243855   2.938   7.409   7.936  1.7510 -0.5041  0.1218
14325TIP3   OH243856   7.598   9.590   0.935 -0.3784 -0.3388  0.1487
14325TIP3    H143857   7.529   9.538   0.976 -1.3009 -1.1461 -2.2168
14325TIP3    H243858   7.559   9.677   0.923 -0.0111 -0.0226  1.1630
14326TIP3   OH243859   5.694   7.018   6.477  0.1284 -1.0122  0.8694
14326TIP3    H143860   5.629   7.050   6.539  0.6545 -0.3039  1.0676
14326TIP3    H243861   5.748   7.094   6.456 -0.9537 -0.8505 -1.6586
14327TIP3   OH243862   9.252   1.964   7.044  0.6601  0.0383 -0.4118
14327TIP3    H143863   9.194   1.918   6.984  0.8343 -0.5338 -0.1456
14327TIP3    H243864   9.207   1.960   7.129  0.3790  0.9011 -0.5043
14328TIP3   OH243865   1.590   7.017   9.660  0.0751  0.0515 -1.0543
14328TIP3    H143866   1.529   7.062   9.601 -2.1453 -0.6937  0.5540
14328TIP3    H243867   1.544   6.938   9.687  1.7673 -0.5573  0.2585
14329TIP3   OH243868   5.934  10.201   9.900  0.7221 -0.0389 -0.3311
14329TIP3    H143869   5.883  10.268   9.945  0.5235 -0.4898  0.1208
14329TIP3    H243870   6.021  10.240   9.890  0.1028  1.0812 -1.8660
14330TIP3   OH243871   7.860   8.620   4.835  0.3553  0.4621  0.5093
14330TIP3    H143872   7.849   8.537   4.788  1.2531 -1.1622  2.9523
14330TIP3    H243873   7.776   8.665   4.825  0.0888 -0.3696 -1.4767
14331TIP3   OH243874   3.134   7.717   6.721 -0.0921  0.3094 -0.3538
14331TIP3    H143875   3.224   7.703   6.693  0.1988 -0.3436  0.8568
14331TIP3    H243876   3.141   7.767   6.802 -0.7936 -0.0521 -0.0569
14332TIP3   OH243877   8.602   5.747   5.371 -0.5041  0.4823 -0.3465
14332TIP3    H143878   8.644   5.739   5.457 -0.5527 -1.5035 -0.4785
14332TIP3    H243879   8.531   5.684   5.372  0.1215 -0.3271 -2.1929
14333TIP3   OH243880   2.553   8.410   7.339 -0.3707  0.0822  0.6548
14333TIP3    H143881   2.600   8.456   7.269  1.8022 -0.8944  1.3838
14333TIP3    H243882   2.464   8.444   7.334  0.4991  2.4579 -0.4824
14334TIP3   OH243883   1.894   7.396   2.519 -0.0555  0.1247  0.0030
14334TIP3    H143884   1.981   7.389   2.479 -0.2542 -1.3217 -0.2402
14334TIP3    H243885   1.905   7.358   2.607  0.1025  2.2006  0.9382
14335TIP3   OH243886   7.657   5.711   8.669  0.2983  0.6475 -0.1494
14335TIP3    H143887   7.713   5.691   8.594  1.1172  1.3811  0.2442
14335TIP3    H243888   7.706   5.677   8.744  0.4730  1.7199  0.2483
14336TIP3   OH243889   4.349   0.448   0.846 -0.5341 -0.9858 -0.8000
14336TIP3    H143890   4.353   0.439   0.751  0.5082 -0.9333 -0.7784
14336TIP3    H243891   4.441   0.458   0.872 -0.9163  0.6519  0.0373
14337TIP3   OH243892   1.181   0.669   8.980  0.1615 -0.1437  0.2702
14337TIP3    H143893   1.182   0.758   9.016  0.9708  0.5165 -1.2581
14337TIP3    H243894   1.258   0.627   9.019  0.7478  0.4047 -0.2471
14338TIP3   OH243895   2.081   1.424   5.135 -0.3765  0.2442 -0.3186
14338TIP3    H143896   2.021   1.406   5.062  0.4224 -0.2665 -0.8625
14338TIP3    H243897   2.125   1.341   5.151 -1.4510  0.0055  1.6212
14339TIP3   OH243898   9.302   7.569   1.197 -0.0053  0.5540 -0.0909
14339TIP3    H143899   9.218   7.527   1.179 -0.5602  0.6343  2.0269
14339TIP3    H243900   9.279   7.658   1.224  0.2099 -0.5326  4.6207
14340TIP3   OH243901   6.280   8.920   7.382 -0.3685  0.4407 -0.2306
14340TIP3    H143902   6.326   8.940   7.301 -2.8883 -0.3339 -1.9663
14340TIP3    H243903   6.309   8.831   7.404  0.0414  0.5056 -0.5014
14341TIP3   OH243904  10.358   3.268   3.523 -0.4087  0.1057 -0.8479
14341TIP3    H143905  10.335   3.358   3.497  0.2140 -0.0745 -2.0780
14341TIP3    H243906  10.433   3.245   3.469  0.5259 -0.5650  0.6723
14342TIP3   OH243907   2.645   3.273   0.171 -0.0494 -0.1118 -0.0854
14342TIP3    H143908   2.603   3.245   0.090  0.3159  1.7899 -0.9921
14342TIP3    H243909   2.590   3.343   0.205  0.6746  0.2350  0.4227
14343TIP3   OH243910   4.396   3.620   6.503 -0.2235  0.3067 -0.8232
14343TIP3    H143911   4.310   3.600   6.466 -0.3171  0.1325 -0.5170
14343TIP3    H243912   4.380   3.689   6.567 -0.2389 -0.1615 -0.3111
14344TIP3   OH243913   4.037   9.130   3.138  0.2455  0.0771  0.3695
14344TIP3    H143914   4.065   9.104   3.050 -0.8877 -0.5944  0.1873
14344TIP3    H243915   3.965   9.192   3.123  0.5951  0.6071  0.8291
14345TIP3   OH243916   3.302   3.562   8.674 -0.5119 -0.5407 -0.2904
14345TIP3    H143917   3.314   3.648   8.634  1.7405 -0.4730  0.4066
14345TIP3    H243918   3.368   3.507   8.632  0.0128 -1.1720  1.2788
14346TIP3   OH243919   1.204   0.539   5.854 -0.3447  0.0851  0.1108
14346TIP3    H143920   1.295   0.529   5.883 -0.4081 -0.0324  0.2717
14346TIP3    H243921   1.209   0.534   5.759 -0.4655 -2.5513  0.1732
14347TIP3   OH243922   1.399   8.937   6.053 -0.4661  0.3309 -0.2610
14347TIP3    H143923   1.471   8.924   6.116 -1.1809  0.2210  0.5497
14347TIP3    H243924   1.387   9.032   6.050 -1.3602  0.2700  0.8574
14348TIP3   OH243925   3.294   8.486   2.533  0.1229 -0.0634 -0.7613
14348TIP3    H143926   3.225   8.451   2.477  1.5974 -0.9486 -2.1496
14348TIP3    H243927   3.316   8.414   2.591  1.0198 -0.4224 -1.5067
14349TIP3   OH243928   7.157   2.631   8.734  0.1216  0.2724 -0.0989
14349TIP3    H143929   7.158   2.644   8.639  2.0128 -2.8056 -0.6555
14349TIP3    H243930   7.079   2.578   8.750 -0.4547  1.1861  0.1608
14350TIP3   OH243931   7.474   7.791   4.574  0.1164 -0.2277  0.4324
14350TIP3    H143932   7.433   7.835   4.500  0.8609  2.6327  1.5804
14350TIP3    H243933   7.432   7.829   4.651  0.9894 -1.4048  1.5430
14351TIP3   OH243934   3.933   9.901   0.200 -0.5223 -0.3537  0.6560
14351TIP3    H143935   3.959   9.811   0.180  0.1322 -0.1178  0.4158
14351TIP3    H243936   3.855   9.917   0.147 -1.1072 -1.0402  1.2949
14352TIP3   OH243937  10.527   4.624   5.005 -0.2311  0.4737  0.3766
14352TIP3    H143938  10.499   4.715   4.995  0.3225  0.5274 -0.8793
14352TIP3    H243939  10.462   4.585   5.062 -0.2386  1.7644  1.2928
14353TIP3   OH243940   7.398   5.572   4.712  0.8907 -0.4159  0.2560
14353TIP3    H143941   7.404   5.667   4.719  1.6998 -0.4164 -0.2863
14353TIP3    H243942   7.428   5.540   4.796 -2.3502 -0.1599  1.6548
14354TIP3   OH243943   1.397   4.718  10.598  0.1629 -0.3497  0.3358
14354TIP3    H143944   1.346   4.775  10.540  1.6759  1.3997  0.6513
14354TIP3    H243945   1.330   4.677  10.653 -1.1093 -0.1373 -0.9653
14355TIP3   OH243946   0.891   2.758   2.255 -0.6288  0.1551  0.1332
14355TIP3    H143947   0.917   2.848   2.233 -0.8514  0.5517  1.3980
14355TIP3    H243948   0.800   2.766   2.284 -0.9432 -0.6315 -0.6001
14356TIP3   OH243949   3.464   3.028   6.311 -0.3958  0.6572 -0.1940
14356TIP3    H143950   3.509   3.106   6.344 -0.2379 -0.1869  1.7028
14356TIP3    H243951   3.534   2.969   6.285 -0.2473 -0.6220  2.6786
14357TIP3   OH243952   7.051   4.321   9.209 -0.8818 -0.1784  0.6666
14357TIP3    H143953   7.095   4.403   9.185  0.7056 -1.7488 -2.3575
14357TIP3    H243954   6.993   4.303   9.135  0.0087 -2.5406  0.4568
14358TIP3   OH243955   9.702   2.674  10.074  0.4995  0.0460 -0.0461
14358TIP3    H143956   9.792   2.689  10.104 -0.8803  1.5316  4.0218
14358TIP3    H243957   9.684   2.583  10.097  0.5812  0.1188  0.3122
14359TIP3   OH243958  10.769  10.435   6.240  0.4164  0.2031 -0.2478
14359TIP3    H143959  10.805  10.352   6.271  2.0259  0.5117 -1.1930
14359TIP3    H243960  10.810  10.501   6.296 -1.9076  0.3413  1.4316
14360TIP3   OH243961  10.838   4.553   8.047  0.0680  0.1349 -0.7500
14360TIP3    H143962  10.829   4.581   8.138 -4.2261 -0.2533 -0.8494
14360TIP3    H243963  10.808   4.628   7.996 -0.2565 -0.6076 -1.6762
14361TIP3   OH243964   0.724   6.609   1.016  0.2270  0.2062 -0.3770
14361TIP3    H143965   0.734   6.617   0.921 -0.6516 -2.1387 -0.7348
14361TIP3    H243966   0.630   6.594   1.029  0.5966 -1.4635  0.6490
14362TIP3   OH243967   8.635   2.259   5.499 -0.3686  0.0322  0.0735
14362TIP3    H143968   8.715   2.219   5.464 -0.9220 -2.1652  1.0973
14362TIP3    H243969   8.573   2.256   5.426 -0.1435 -0.2335 -0.1086
14363TIP3   OH243970   2.999   0.895   7.987  0.2030 -0.4873 -0.1341
14363TIP3    H143971   2.966   0.985   7.978 -0.4057 -0.5487  1.2463
14363TIP3    H243972   3.088   0.906   8.022  0.5554 -0.4016 -1.0387
14364TIP3   OH243973   7.672   1.396   4.947  0.0850 -0.0261 -0.5254
14364TIP3    H143974   7.714   1.449   4.879  0.2557 -0.0935 -0.4735
14364TIP3    H243975   7.589   1.370   4.908 -0.3325  0.8842 -0.2705
14365TIP3   OH243976   5.719   3.948   4.923 -0.0784  0.4208  0.6927
14365TIP3    H143977   5.714   3.938   4.828  0.2993 -2.9024  0.9282
14365TIP3    H243978   5.681   3.868   4.958  1.7678  0.5496  3.2886
14366TIP3   OH243979   6.497   7.672   5.346  0.2910 -0.4186  0.0538
14366TIP3    H143980   6.503   7.767   5.347  0.7803 -0.4227 -0.9655
14366TIP3    H243981   6.446   7.650   5.424  1.0364  0.6079  0.8522
14367TIP3   OH243982   6.118   9.601  10.344  0.2531 -0.1051  0.6574
14367TIP3    H143983   6.062   9.618  10.419  1.8574  0.1415  1.8623
14367TIP3    H243984   6.059   9.569  10.276 -1.4146  0.8521  1.6072
14368TIP3   OH243985   1.889   7.827  10.070 -0.0752  0.0725  0.0541
14368TIP3    H143986   1.899   7.733  10.087  0.1726  0.0667 -0.1214
14368TIP3    H243987   1.912   7.837   9.977 -1.7138  0.0508 -0.3842
14369TIP3   OH243988  10.575  10.409   7.251 -0.5035  0.0069 -0.0838
14369TIP3    H143989  10.529  10.354   7.314  0.1494  0.1158  0.5006
14369TIP3    H243990  10.591  10.491   7.297  0.1225  0.0359 -0.3309
14370TIP3   OH243991  10.797   7.433   9.035  0.1229 -0.4574 -0.0377
14370TIP3    H143992  10.857   7.497   8.996  0.8296 -0.3531  1.1985
14370TIP3    H243993  10.736   7.485   9.087  0.0954 -0.7228  0.1980
14371TIP3   OH243994   6.554   0.771   3.155  0.1089 -0.3501  0.1946
14371TIP3    H143995   6.582   0.862   3.155 -1.3261  0.1194 -0.4432
14371TIP3    H243996   6.525   0.755   3.245  1.9784 -0.7362  0.7666
14372TIP3   OH243997   2.101   2.947  10.481 -0.3078  0.5220  0.0919
14372TIP3    H143998   2.054   2.900  10.412  0.7609  0.4525 -0.6187
14372TIP3    H243999   2.040   2.949  10.555 -0.9640 -0.5956 -0.3938
14373TIP3   OH244000   2.232   7.570   9.855  0.2521  0.3796 -0.5509
14373TIP3    H144001   2.323   7.559   9.828  0.1374  0.8038 -1.1206
14373TIP3    H244002   2.186   7.596   9.775 -0.5407 -0.7226 -0.4666
14374TIP3   OH244003  10.211   4.500   1.367  0.0257 -0.4357 -0.2262
14374TIP3    H144004  10.259   4.423   1.336 -0.4975  0.0583 -2.4094
14374TIP3    H244005  10.146   4.464   1.428  1.1320 -1.4460  0.4120
14375TIP3   OH244006   5.255   3.476   5.604  0.2773 -0.2310 -0.1625
14375TIP3    H144007   5.170   3.490   5.646 -0.0476 -0.4656 -0.7268
14375TIP3    H244008   5.241   3.497   5.512  1.0136  0.3945 -0.1437
14376TIP3   OH244009   4.135   8.095   6.063  0.3501 -0.4895 -0.4047
14376TIP3    H144010   4.045   8.065   6.053 -0.0133  0.4499 -0.0462
14376TIP3    H244011   4.131   8.189   6.048  1.0325 -0.2133  0.9694
14377TIP3   OH244012   6.003   6.232  10.742  0.4308  0.1320  0.3960
14377TIP3    H144013   5.968   6.289  10.673  0.3178 -0.1873  0.1905
14377TIP3    H244014   5.930   6.176  10.766  1.2692 -1.8327 -1.3517
14378TIP3   OH244015   6.124   3.904   6.351  0.1379  0.1918  0.3264
14378TIP3    H144016   6.211   3.866   6.360 -0.2887 -0.6575  1.2147
14378TIP3    H244017   6.065   3.828   6.349 -0.4653  0.6115 -2.5384
14379TIP3   OH244018   6.600  10.072   6.554 -0.0556 -0.5401 -0.3778
14379TIP3    H144019   6.601  10.005   6.486 -1.0023  0.1471 -1.0857
14379TIP3    H244020   6.627  10.152   6.509 -0.8974 -0.0339  0.0036
14380TIP3   OH244021   1.172  10.513   0.043 -0.5773 -0.5724 -0.0380
14380TIP3    H144022   1.091  10.554   0.014 -0.6324 -0.3609  0.4060
14380TIP3    H244023   1.197  10.562   0.121 -0.5049 -1.2194  0.3527
14381TIP3   OH244024   2.023   9.413   1.418  0.2540 -0.1960 -0.0857
14381TIP3    H144025   2.091   9.441   1.356  2.0891  0.4142  2.0633
14381TIP3    H244026   2.012   9.488   1.477  0.8700 -1.8047  2.1897
14382TIP3   OH244027  10.533   0.844   7.550  0.8139  0.0113 -0.2874
14382TIP3    H144028  10.440   0.866   7.549  0.5108 -1.1896 -0.0168
14382TIP3    H244029  10.555   0.836   7.643  1.6717  2.1045 -0.2493
14383TIP3   OH244030   0.050   5.894   7.141  0.7486 -0.5405 -0.0733
14383TIP3    H144031   0.041   5.916   7.233  0.3617 -0.4427 -0.1303
14383TIP3    H244032   0.120   5.830   7.138  0.0140 -1.3876  0.4231
14384TIP3   OH244033   9.587   8.816   0.267  0.2928  0.0727  0.4751
14384TIP3    H144034   9.652   8.834   0.335  0.9860 -0.6163  0.0058
14384TIP3    H244035   9.515   8.773   0.313  0.8836 -0.6589  0.7321
14385TIP3   OH244036   5.909   8.418   1.247  0.0598 -0.2941 -0.0813
14385TIP3    H144037   5.821   8.419   1.286  0.2886 -0.3692  0.4546
14385TIP3    H244038   5.947   8.335   1.278  0.1302 -0.5140 -0.7424
14386TIP3   OH244039   5.228   0.972  10.811 -0.0906 -0.7104 -0.8922
14386TIP3    H144040   5.272   0.894  10.845  0.6190 -0.5384 -1.3849
14386TIP3    H244041   5.137   0.946  10.804 -0.2622 -0.7916  1.0023
14387TIP3   OH244042   2.453   5.084   2.888  0.1089 -0.3759 -0.1632
14387TIP3    H144043   2.501   5.030   2.950  0.4167  2.4607  2.2968
14387TIP3    H244044   2.367   5.097   2.928 -0.4768 -0.2399 -1.4126
14388TIP3   OH244045   3.436   6.269   2.721 -0.6156 -0.0415 -0.1189
14388TIP3    H144046   3.364   6.238   2.776 -1.4332  1.1637 -0.4637
14388TIP3    H244047   3.443   6.362   2.742  0.9108 -0.1589 -0.0375
14389TIP3   OH244048   8.934   3.249   5.751 -0.1190 -0.8983  0.4551
14389TIP3    H144049   8.880   3.296   5.815 -1.6077 -0.5415 -0.9988
14389TIP3    H244050   9.022   3.287   5.762 -1.0275  1.5333  0.0880
14390TIP3   OH244051   8.572   6.452   0.354 -0.0078 -0.1816 -0.6117
14390TIP3    H144052   8.551   6.545   0.343  0.4433 -0.1547 -1.3048
14390TIP3    H244053   8.663   6.445   0.328  0.5126 -0.5207  1.1997
14391TIP3   OH244054   2.548  10.350   2.053  0.1518 -0.5540  0.2338
14391TIP3    H144055   2.475  10.307   2.098 -0.2129 -1.4340 -1.1496
14391TIP3    H244056   2.610  10.279   2.035  0.0333 -0.3321 -1.1232
14392TIP3   OH244057   2.055   4.732   6.371 -0.3942  0.4065  0.3967
14392TIP3    H144058   2.098   4.690   6.297 -0.5298  1.8091 -0.5206
14392TIP3    H244059   2.115   4.800   6.399 -1.1198  1.0568  0.4152
14393TIP3   OH244060   6.884   7.295  10.622 -0.2509 -0.3367  0.1231
14393TIP3    H144061   6.897   7.215  10.571 -0.1596 -0.4253  0.2829
14393TIP3    H244062   6.927   7.364  10.571 -1.3702 -0.1620 -0.6208
14394TIP3   OH244063   8.702   7.148   4.092 -0.2167  0.1196 -0.3241
14394TIP3    H144064   8.746   7.221   4.049  0.0930 -1.0128 -2.0346
14394TIP3    H244065   8.618   7.184   4.118  0.1719  1.2631 -0.5480
14395TIP3   OH244066   1.498   8.649   6.114 -0.7772 -0.3344 -0.4269
14395TIP3    H144067   1.586   8.678   6.136 -0.8770 -1.1215  1.1267
14395TIP3    H244068   1.467   8.712   6.049  0.9578 -0.1203 -1.0942
14396TIP3   OH244069   6.230   2.567   5.796 -0.8867 -0.1205  0.1994
14396TIP3    H144070   6.265   2.579   5.708 -0.4328  2.1178  0.6236
14396TIP3    H244071   6.206   2.475   5.800  1.2270 -0.8301 -1.4777
14397TIP3   OH244072   3.739  10.116   8.137 -0.0011 -0.5123  0.1788
14397TIP3    H144073   3.753  10.144   8.228  1.3014 -3.1082  0.8613
14397TIP3    H244074   3.685  10.186   8.099 -1.1551  0.3633  3.1151
14398TIP3   OH244075   9.934   2.749   1.967 -0.5943  0.1314  0.6844
14398TIP3    H144076   9.863   2.779   2.023 -0.4905 -0.0181  0.8974
14398TIP3    H244077  10.013   2.758   2.020 -0.4382  0.3989  0.4133
14399TIP3   OH244078  10.637   5.129   6.576 -0.2816  0.3162 -0.5472
14399TIP3    H144079  10.728   5.101   6.581 -0.9290 -1.9592  0.0616
14399TIP3    H244080  10.637   5.219   6.608  1.3564 -0.7536  2.9903
14400TIP3   OH244081   4.300   6.328   4.893 -0.0873  0.2830 -0.1824
14400TIP3    H144082   4.343   6.414   4.891 -0.3356  0.3996 -1.2819
14400TIP3    H244083   4.331   6.288   4.974  0.2763  1.2848  0.1976
14401TIP3   OH244084   8.837   2.449  10.097 -0.7473  0.1393 -0.0828
14401TIP3    H144085   8.915   2.500  10.118 -1.4247  1.0824  0.1862
14401TIP3    H244086   8.779   2.510  10.052 -2.0170 -0.0726  1.1832
14402TIP3   OH244087   3.350   2.722   7.337  0.4648 -0.0466 -0.1683
14402TIP3    H144088   3.441   2.697   7.316  0.1648 -0.6226 -0.8534
14402TIP3    H244089   3.327   2.785   7.269 -0.0202 -0.7808 -0.7023
14403TIP3   OH244090   6.473   3.585   7.560  0.2396 -0.0392 -0.3422
14403TIP3    H144091   6.399   3.553   7.509  0.1271 -1.4209  0.6015
14403TIP3    H244092   6.549   3.538   7.524  0.3830  0.0802 -0.2001
14404TIP3   OH244093   8.969   5.722   5.926  0.2194  0.3371  0.2961
14404TIP3    H144094   8.990   5.764   6.010 -0.3994  1.6871 -0.1984
14404TIP3    H244095   8.874   5.732   5.918 -0.0106 -1.4157  0.2565
14405TIP3   OH244096   6.771   1.438   1.034 -0.5508 -0.2022 -0.5021
14405TIP3    H144097   6.685   1.452   1.073  0.5628  2.4123  1.2332
14405TIP3    H244098   6.766   1.480   0.948 -0.8320  0.4271 -0.1784
14406TIP3   OH244099   3.195   6.404   0.418 -0.0568  0.2254 -0.2587
14406TIP3    H144100   3.237   6.401   0.332  1.2519  0.2852  0.3531
14406TIP3    H244101   3.225   6.324   0.462 -1.0361 -0.0048  0.0060
14407TIP3   OH244102  10.460   9.797  10.633 -0.0352 -0.2801 -0.3706
14407TIP3    H144103  10.403   9.801  10.709 -0.0387  1.5855 -0.4232
14407TIP3    H244104  10.510   9.716  10.644 -0.3107 -0.2335  1.4039
14408TIP3   OH244105   8.497   8.899   1.907  0.3414 -0.4164 -0.0338
14408TIP3    H144106   8.499   8.819   1.855 -0.9416 -0.3315 -0.2416
14408TIP3    H244107   8.470   8.968   1.846  1.7831  0.2812  0.0499
14409TIP3   OH244108   3.710   4.647   2.043 -0.2278  0.2891  1.1851
14409TIP3    H144109   3.654   4.708   1.996 -1.9695  1.1518  4.1552
14409TIP3    H244110   3.651   4.575   2.068  1.2715 -1.5425 -0.2017
14410TIP3   OH244111   2.127   9.363   0.561  0.4429  0.3760 -0.6506
14410TIP3    H144112   2.188   9.413   0.507  2.1729 -0.7969  0.1342
14410TIP3    H244113   2.101   9.424   0.630  0.8302  0.8541 -0.9179
14411TIP3   OH244114  10.203   6.365   6.679  0.3326 -0.8016  0.1586
14411TIP3    H144115  10.232   6.455   6.665 -0.4141 -0.2575  1.8500
14411TIP3    H244116  10.277   6.311   6.653  1.3106  0.3747  0.4433
14412TIP3   OH244117   8.393   2.613   4.505  0.3658 -0.0029 -0.3618
14412TIP3    H144118   8.366   2.619   4.413  0.6806  0.8735 -0.4043
14412TIP3    H244119   8.372   2.698   4.542 -0.3737 -0.5680  0.5612
14413TIP3   OH244120   1.539   6.581  10.529  0.0836 -0.2566 -0.1975
14413TIP3    H144121   1.540   6.499  10.480  1.8324  0.1620 -0.9531
14413TIP3    H244122   1.451   6.587  10.565 -0.8605 -1.2520 -2.1957
14414TIP3   OH244123   4.514   4.603   5.555  0.1330 -0.3994  0.2497
14414TIP3    H144124   4.452   4.665   5.593 -1.7468 -2.1950  0.3596
14414TIP3    H244125   4.524   4.631   5.464 -1.4880 -0.4703  0.0175
14415TIP3   OH244126   7.742   2.807   4.270 -0.3474 -0.0337  0.3945
14415TIP3    H144127   7.716   2.775   4.184 -0.6531 -0.5060  0.6588
14415TIP3    H244128   7.833   2.778   4.280 -0.4563 -0.3665  0.4185
14416TIP3   OH244129   4.902   2.459   4.651  0.5776  0.5222  0.2553
14416TIP3    H144130   4.882   2.411   4.731 -1.4381  1.0333  0.1283
14416TIP3    H244131   4.974   2.518   4.675  2.0864 -1.4516  0.8004
14417TIP3   OH244132   0.226  10.521   3.961 -0.0746  0.3720 -0.2516
14417TIP3    H144133   0.271  10.561   4.035 -1.4112  2.1266 -0.3083
14417TIP3    H244134   0.296  10.488   3.905  0.9493 -1.7475  2.1182
14418TIP3   OH244135   6.127   6.215   2.349 -0.6896  0.0103  0.3237
14418TIP3    H144136   6.078   6.229   2.267 -2.1136 -0.8430  0.9831
14418TIP3    H244137   6.099   6.128   2.378 -1.4379  0.9357  2.5213
14419TIP3   OH244138   7.865   9.286  10.345  0.4043  0.2084 -0.5761
14419TIP3    H144139   7.902   9.355  10.290  2.9228  0.0349  0.7377
14419TIP3    H244140   7.889   9.205  10.300  2.1134  0.0821  0.4648
14420TIP3   OH244141   4.637   2.050   6.045 -0.0571  0.3907  0.3743
14420TIP3    H144142   4.588   2.048   5.963  1.7067  2.3537 -0.8577
14420TIP3    H244143   4.677   2.137   6.046  0.4052  0.2233  3.0932
14421TIP3   OH244144   1.721   4.683   8.714 -0.4126  0.2263 -0.1197
14421TIP3    H144145   1.805   4.652   8.681 -0.8528 -1.5204  0.2903
14421TIP3    H244146   1.728   4.779   8.713  1.6148  0.1097  0.0707
14422TIP3   OH244147   3.890   5.060   5.739  0.8808 -0.3609 -0.2184
14422TIP3    H144148   3.936   5.136   5.706  2.1062 -0.4568  1.1654
14422TIP3    H244149   3.871   5.081   5.831 -1.7696 -0.3757 -0.6680
14423TIP3   OH244150   0.807   3.273  10.162 -0.3983  0.4232  0.5125
14423TIP3    H144151   0.894   3.294  10.195  0.0396 -0.0999 -0.2577
14423TIP3    H244152   0.821   3.199  10.103 -1.3814  0.2645  0.4574
14424TIP3   OH244153   4.619   7.971   8.331  0.4522  0.6094  0.1666
14424TIP3    H144154   4.650   7.893   8.375 -1.9752  1.1980  3.2725
14424TIP3    H244155   4.694   8.031   8.332  2.1359 -1.2905 -1.6690
14425TIP3   OH244156   5.115   5.426   3.871  0.5243 -0.1574 -0.8993
14425TIP3    H144157   5.159   5.403   3.789  1.2358  0.9091 -0.8276
14425TIP3    H244158   5.078   5.343   3.901  4.2677 -1.6494  0.1463
14426TIP3   OH244159   6.609   6.817   3.826  0.1011 -0.4841  0.0958
14426TIP3    H144160   6.612   6.904   3.866  2.6255 -0.1720 -0.6323
14426TIP3    H244161   6.685   6.814   3.769 -0.4317 -2.8733 -0.5958
14427TIP3   OH244162   5.115   4.260   1.291  0.2273  0.3060  0.2658
14427TIP3    H144163   5.206   4.234   1.303  0.7373 -0.5210 -3.7772
14427TIP3    H244164   5.072   4.182   1.257 -1.4238  1.3122 -0.0697
14428TIP3   OH244165   2.647   5.587   3.290 -0.0079  0.0759  0.8790
14428TIP3    H144166   2.629   5.561   3.380 -2.8451 -0.0386  0.3890
14428TIP3    H244167   2.596   5.526   3.237  1.3626  0.3261 -0.8070
14429TIP3   OH244168   8.622   3.707   0.071  0.4941  0.0147 -0.3568
14429TIP3    H144169   8.636   3.749   0.157  0.6278 -0.5725 -0.0885
14429TIP3    H244170   8.553   3.759   0.030  0.3118  0.2020  0.1805
14430TIP3   OH244171   0.477   0.843   6.241 -0.0222  0.0754  0.0743
14430TIP3    H144172   0.396   0.842   6.292  0.8411 -2.2463  1.5267
14430TIP3    H244173   0.460   0.783   6.168  0.3744 -0.4414  0.3995
14431TIP3   OH244174  10.400   0.018   2.489 -0.0314  0.7866  0.7096
14431TIP3    H144175  10.373   0.053   2.574  2.1090 -0.5946  2.0511
14431TIP3    H244176  10.357  -0.067   2.483 -1.0426  1.3293 -0.1408
14432TIP3   OH244177   0.309   7.183   9.190  0.4638 -0.4207 -0.2877
14432TIP3    H144178   0.342   7.104   9.146  0.3318 -0.2958 -0.6122
14432TIP3    H244179   0.255   7.226   9.124 -0.3407 -0.6155  0.2316
14433TIP3   OH244180   7.515   9.367   5.354  0.2291  0.2006 -0.5641
14433TIP3    H144181   7.451   9.370   5.425 -0.8968  2.8586 -1.5692
14433TIP3    H244182   7.599   9.381   5.397 -0.1781 -0.3923  0.4654
14434TIP3   OH244183   7.383   5.721   5.045  0.3692  0.2788  0.5461
14434TIP3    H144184   7.366   5.627   5.052 -0.0009  0.4005  1.3757
14434TIP3    H244185   7.451   5.728   4.977 -0.3981 -0.4895 -0.3282
14435TIP3   OH244186   7.954   1.897  10.840  0.0298 -0.0283  0.0186
14435TIP3    H144187   7.885   1.953  10.802  0.7794  0.0021 -1.3824
14435TIP3    H244188   7.945   1.814  10.793  2.2550  0.6464 -1.8098
14436TIP3   OH244189   7.236   3.536   8.879 -0.1055  0.2530 -0.2028
14436TIP3    H144190   7.155   3.540   8.929 -0.4383 -2.3892 -0.3766
14436TIP3    H244191   7.209   3.545   8.788 -0.1900 -0.2178 -0.2301
14437TIP3   OH244192   7.179   3.355   4.946  0.4434  0.1089  0.4418
14437TIP3    H144193   7.134   3.322   5.024 -1.7151  2.4937  0.3404
14437TIP3    H244194   7.128   3.320   4.873  1.7905 -1.1819  0.0584
14438TIP3   OH244195   0.562   5.132   4.311  0.0351 -0.1203  0.0019
14438TIP3    H144196   0.619   5.185   4.255  1.6095 -1.7446 -0.0592
14438TIP3    H244197   0.604   5.135   4.397 -0.4949 -0.3392  0.2696
14439TIP3   OH244198   1.780   8.093   4.102  0.0215 -0.0290 -0.2598
14439TIP3    H144199   1.745   8.010   4.136  0.3736 -0.9733 -2.0466
14439TIP3    H244200   1.865   8.069   4.065  0.6123  1.3658  0.1397
14440TIP3   OH244201  10.304   9.345   1.221  0.2456  0.3949  0.1177
14440TIP3    H144202  10.336   9.430   1.251  1.7158  0.2193 -0.8447
14440TIP3    H244203  10.235   9.367   1.158  1.8135  0.9960 -1.4908
14441TIP3   OH244204  10.872  10.147  10.148  0.1097  0.0754  0.1764
14441TIP3    H144205  10.821  10.197  10.084  0.7401  1.0092  0.3836
14441TIP3    H244206  10.959  10.138  10.108 -0.1743 -1.4867 -0.1676
14442TIP3   OH244207   3.867   5.995   3.220 -0.0588  0.0653  0.2244
14442TIP3    H144208   3.921   5.920   3.248  1.4819  0.7772 -0.6889
14442TIP3    H244209   3.881   6.001   3.126 -1.2033  0.7265  0.0812
14443TIP3   OH244210   2.024   6.365   2.831  0.2693  0.8506  0.1367
14443TIP3    H144211   2.060   6.277   2.819  0.0120  0.6178  0.9593
14443TIP3    H244212   1.949   6.369   2.772 -0.3173  0.1483  0.8093
14444TIP3   OH244213   2.934   2.893   3.004 -0.1082 -0.4661  0.0859
14444TIP3    H144214   2.931   2.881   2.909  0.0266  1.3493 -0.1834
14444TIP3    H244215   2.950   2.805   3.038 -1.1575 -1.3338 -1.5007
14445TIP3   OH244216   8.681   7.086   1.231 -0.5566 -0.8062 -0.1112
14445TIP3    H144217   8.594   7.051   1.252 -1.7914  0.8863 -1.9518
14445TIP3    H244218   8.713   7.029   1.161 -0.1456 -1.4493  0.5886
14446TIP3   OH244219   1.096  10.758   2.360 -0.0953 -0.0096  0.2598
14446TIP3    H144220   1.138  10.673   2.369  2.9078  0.9972 -2.3386
14446TIP3    H244221   1.039  10.749   2.284  2.4101  0.8452 -1.8968
14447TIP3   OH244222   6.621   1.058   3.136 -0.6662 -0.2080 -0.0086
14447TIP3    H144223   6.527   1.055   3.149 -0.5630 -0.4624  0.7623
14447TIP3    H244224   6.635   1.127   3.071 -1.2149  1.4904  1.6001
14448TIP3   OH244225   0.097   4.918   5.383 -0.1717 -0.3563 -0.3920
14448TIP3    H144226   0.065   5.008   5.378  0.7944  0.0020 -0.4456
14448TIP3    H244227   0.179   4.925   5.432  1.1338 -0.8508 -2.3754
14449TIP3   OH244228   5.877   1.382   9.284 -0.5726 -0.4807  0.0042
14449TIP3    H144229   5.909   1.315   9.223  2.4517  1.3197 -0.6203
14449TIP3    H244230   5.909   1.353   9.370  1.1808  0.2850 -0.3341
14450TIP3   OH244231   6.524   0.014   4.086 -0.0070 -0.2617 -0.2509
14450TIP3    H144232   6.518   0.059   4.171  1.3002 -0.1241 -0.2147
14450TIP3    H244233   6.569  -0.068   4.106 -0.1346 -0.4509 -0.7389
14451TIP3   OH244234   0.675   2.134   4.401 -0.2430  0.3136 -0.3473
14451TIP3    H144235   0.601   2.139   4.461 -0.6376  0.6623 -0.8536
14451TIP3    H244236   0.683   2.223   4.367  1.6425  0.7934  1.1546
14452TIP3   OH244237   5.449   7.207   5.165 -0.1156  0.5951  0.1831
14452TIP3    H144238   5.450   7.122   5.120 -0.8449  1.0827 -0.7906
14452TIP3    H244239   5.460   7.185   5.258  1.1839 -0.4583 -0.1783
14453TIP3   OH244240   1.876   8.058  10.639 -0.3290 -0.3604  0.7740
14453TIP3    H144241   1.884   8.002  10.561  3.5103  1.5192 -0.4726
14453TIP3    H244242   1.821   8.131  10.611  0.8964  0.2203 -0.2696
14454TIP3   OH244243   2.364   2.836   5.042 -0.5070 -0.4891  0.3971
14454TIP3    H144244   2.456   2.813   5.033 -0.8584 -2.0144  0.4387
14454TIP3    H244245   2.344   2.887   4.963 -0.0037 -1.4846 -0.3984
14455TIP3   OH244246   9.117   9.846   1.097  0.1320 -0.4324 -0.2637
14455TIP3    H144247   9.033   9.864   1.055  0.6407  0.9798 -0.7217
14455TIP3    H244248   9.158   9.779   1.042 -0.3816 -0.5887 -0.4576
14456TIP3   OH244249   4.144   0.548   3.088 -0.2804 -0.2473 -0.2713
14456TIP3    H144250   4.135   0.487   3.161 -0.3445  0.6384  0.4842
14456TIP3    H244251   4.055   0.576   3.070 -0.1167  0.8147  0.4545
14457TIP3   OH244252  10.445   2.010   7.797  0.0686 -0.1693  0.1490
14457TIP3    H144253  10.394   1.959   7.860 -0.4584 -0.7840 -0.7612
14457TIP3    H244254  10.470   2.089   7.845 -2.3384  0.4983  0.4259
14458TIP3   OH244255   5.513   8.238  10.248  0.4319  1.0258  0.1967
14458TIP3    H144256   5.584   8.266  10.306 -0.7148 -0.0347  2.2621
14458TIP3    H244257   5.465   8.318  10.228  0.9102  1.4323  0.6379
14459TIP3   OH244258   9.883   9.572   2.693  0.1455 -0.1873 -0.0739
14459TIP3    H144259   9.798   9.539   2.723  0.8998  0.0758  2.6630
14459TIP3    H244260   9.870   9.666   2.681  0.0324 -0.1451  0.3596
14460TIP3   OH244261  10.278   6.906   7.390 -0.4807  0.0370 -0.0735
14460TIP3    H144262  10.323   6.979   7.434 -0.4496  1.8651 -2.8865
14460TIP3    H244263  10.188   6.937   7.379 -0.7887 -0.8900 -0.2497
14461TIP3   OH244264  10.278   3.044   3.732  0.1619 -0.5851  0.6170
14461TIP3    H144265  10.356   3.099   3.731 -0.5258  0.4713 -1.7619
14461TIP3    H244266  10.222   3.081   3.665 -1.5642 -2.5260  0.8942
14462TIP3   OH244267   1.083   4.836   8.465 -0.4877 -0.3434 -0.5416
14462TIP3    H144268   1.046   4.923   8.451  1.2945  1.1640  2.9601
14462TIP3    H244269   1.029   4.797   8.534 -1.0211 -1.9421 -1.7908
14463TIP3   OH244270   3.965   7.206   2.938 -0.1940  0.2934 -0.1623
14463TIP3    H144271   3.918   7.288   2.949 -0.3740  0.1509  0.1630
14463TIP3    H244272   4.053   7.231   2.910  1.0395  0.8680  3.6425
14464TIP3   OH244273   3.601   8.936   2.561 -0.1488  0.5561  0.6224
14464TIP3    H144274   3.597   8.843   2.537  0.2045  0.7395 -0.1547
14464TIP3    H244275   3.523   8.974   2.522 -0.5462  0.5029  1.3473
14465TIP3   OH244276   5.413   1.172   3.966 -0.3720  0.1218 -0.5280
14465TIP3    H144277   5.381   1.217   3.887  1.4120  1.6791 -0.4503
14465TIP3    H244278   5.345   1.186   4.031  0.1125  2.8929 -0.4977
14466TIP3   OH244279   2.813   8.387   5.658 -0.2094  0.2295  0.3642
14466TIP3    H144280   2.855   8.401   5.742  0.0912  0.3941  0.1867
14466TIP3    H244281   2.868   8.322   5.614 -0.6246 -0.2151  0.4791
14467TIP3   OH244282   1.928   0.774   5.041 -0.2609 -0.1545 -0.1632
14467TIP3    H144283   1.910   0.840   5.108 -1.6064  0.9483 -1.5461
14467TIP3    H244284   1.869   0.702   5.062  0.1264 -0.2990  0.4670
14468TIP3   OH244285   9.281   1.499   2.092 -0.4007 -0.2063 -0.0273
14468TIP3    H144286   9.326   1.427   2.048  1.0031  1.3819 -1.3070
14468TIP3    H244287   9.189   1.473   2.093 -0.2426 -1.0933 -2.3866
14469TIP3   OH244288   7.448   5.879   4.791  0.2758 -0.0265  0.0066
14469TIP3    H144289   7.435   5.959   4.842  0.4076  0.2394 -0.3813
14469TIP3    H244290   7.536   5.849   4.816 -0.4737 -1.0880  1.5919
14470TIP3   OH244291   5.102   0.522   4.766 -0.0092 -0.3644  0.1467
14470TIP3    H144292   5.014   0.559   4.755  1.1326  2.1186 -1.8178
14470TIP3    H244293   5.135   0.564   4.846 -0.1692 -0.2838  0.1711
14471TIP3   OH244294   6.590   5.859   4.341  0.6342  0.0875  0.0947
14471TIP3    H144295   6.684   5.851   4.329  0.9744  2.3736  0.8372
14471TIP3    H244296   6.554   5.867   4.253  1.0479 -1.1558 -0.2135
14472TIP3   OH244297   4.383   7.409   6.556 -0.2254 -0.8923 -0.5896
14472TIP3    H144298   4.442   7.352   6.606 -2.4117 -1.0548  2.0352
14472TIP3    H244299   4.296   7.377   6.577 -1.3980  1.2766 -1.8126
14473TIP3   OH244300  10.454   3.551  10.264 -0.0811 -0.4689  0.1771
14473TIP3    H144301  10.366   3.515  10.277 -0.6422  0.0968 -1.7822
14473TIP3    H244302  10.464   3.615  10.335 -1.5282 -0.0806  0.0623
14474TIP3   OH244303   6.884   6.467   8.311 -0.5788 -0.2114 -0.2763
14474TIP3    H144304   6.919   6.513   8.388  1.7381  0.2522 -1.4964
14474TIP3    H244305   6.880   6.375   8.337 -1.1860  0.1047  0.8191
14475TIP3   OH244306  10.615   7.446   9.931 -0.4435 -0.0101  0.0019
14475TIP3    H144307  10.552   7.437  10.002 -3.4765 -1.8650 -2.6914
14475TIP3    H244308  10.655   7.359   9.923  0.1292  0.2776 -0.3673
14476TIP3   OH244309   5.546  10.229   8.336  0.2026 -0.1883 -0.0107
14476TIP3    H144310   5.558  10.158   8.273 -1.1774 -0.4757  0.0341
14476TIP3    H244311   5.465  10.208   8.382  1.3165 -0.1418  2.1069
14477TIP3   OH244312   3.034   8.572   0.829  0.4897 -0.4716 -0.2754
14477TIP3    H144313   3.089   8.591   0.753  0.0648  1.0581 -0.2392
14477TIP3    H244314   2.958   8.527   0.794 -0.6495  1.9218 -1.1138
14478TIP3   OH244315   5.182   6.793   1.478 -0.0872 -0.4422 -0.3683
14478TIP3    H144316   5.229   6.841   1.410 -1.3723  0.6232 -0.5644
14478TIP3    H244317   5.187   6.702   1.452 -0.2194 -0.0890 -1.6854
14479TIP3   OH244318   7.521   2.779   1.349  0.4243 -0.0691 -0.9113
14479TIP3    H144319   7.447   2.718   1.357 -0.3625  0.6758 -2.1998
14479TIP3    H244320   7.578   2.756   1.423  0.6191 -2.9794 -1.8278
14480TIP3   OH244321   6.308   1.272   6.520  0.1002 -0.4265  0.4619
14480TIP3    H144322   6.247   1.303   6.454  0.8056 -2.3671 -1.2056
14480TIP3    H244323   6.265   1.197   6.560 -0.1701  0.5133  2.0258
14481TIP3   OH244324   8.954   9.851   5.734 -0.4978  0.2473 -0.0601
14481TIP3    H144325   8.994   9.808   5.658 -0.4510  0.3349 -0.0871
14481TIP3    H244326   8.958   9.945   5.712  1.9451  0.4990  1.1971
14482TIP3   OH244327   9.656   7.987   1.329 -0.5910  0.3565  0.1589
14482TIP3    H144328   9.697   7.946   1.253  1.1871  2.0413  0.1345
14482TIP3    H244329   9.599   7.919   1.365  0.5781 -1.3802 -1.1065
14483TIP3   OH244330   8.000   1.107   0.063  0.1004  0.5861 -0.1509
14483TIP3    H144331   7.998   1.111  -0.032  0.4874 -0.3498 -0.2173
14483TIP3    H244332   7.971   1.018   0.084  0.0565  0.7672  0.6011
14484TIP3   OH244333   1.273  10.681   0.232  0.3834 -0.1055 -0.3560
14484TIP3    H144334   1.325  10.738   0.175  1.0973  0.1599  0.5565
14484TIP3    H244335   1.240  10.738   0.301 -1.0905 -0.2807 -0.8589
14485TIP3   OH244336   6.852   7.166   4.346  0.2390  0.2589 -0.0099
14485TIP3    H144337   6.864   7.261   4.345  0.1944  0.2786  0.7142
14485TIP3    H244338   6.900   7.134   4.269  1.2464  0.7454  0.4066
14486TIP3   OH244339   2.548   9.180   5.242  0.5143 -0.3231  0.0524
14486TIP3    H144340   2.594   9.116   5.297  0.4821 -0.4378 -0.0546
14486TIP3    H244341   2.458   9.178   5.273  0.6000 -0.0298  0.3261
14487TIP3   OH244342   2.186   1.163  10.316 -0.1306  0.2808 -0.3487
14487TIP3    H144343   2.188   1.090  10.254 -0.8010 -0.4910  0.5078
14487TIP3    H244344   2.117   1.140  10.378  0.0691  1.3516  0.2984
14488TIP3   OH244345   0.019   1.562  10.848 -0.0526  0.1779 -0.7974
14488TIP3    H144346   0.007   1.503  10.922  0.3903  2.2212  1.0057
14488TIP3    H244347   0.107   1.541  10.815 -1.3946 -2.8754 -2.8851
14489TIP3   OH244348  10.256   8.906   9.692  0.2169  0.2488 -0.2435
14489TIP3    H144349  10.300   8.863   9.765  0.4520  1.3448  0.2737
14489TIP3    H244350  10.205   8.976   9.733 -2.8793 -1.5604 -0.6631
14490TIP3   OH244351   5.205   7.338   6.056 -0.2652  0.2806  0.0106
14490TIP3    H144352   5.299   7.353   6.067  0.0533 -1.5791  0.0150
14490TIP3    H244353   5.170   7.341   6.145 -0.1609  0.5459  0.0452
14491TIP3   OH244354   3.182   5.122   9.884  0.0359 -0.2817  0.1569
14491TIP3    H144355   3.199   5.183   9.812 -1.6719 -0.3952 -0.3961
14491TIP3    H244356   3.088   5.103   9.877 -0.1134 -0.5321  2.2349
14492TIP3   OH244357   8.993   7.798   7.759 -0.0736  0.0203  0.1148
14492TIP3    H144358   8.897   7.794   7.751 -0.1948  1.8506  0.3384
14492TIP3    H244359   9.022   7.709   7.737 -1.9171 -1.0316  1.5905
14493TIP3   OH244360   2.266   2.112   2.453  0.9565  0.0444  0.2225
14493TIP3    H144361   2.196   2.096   2.390 -0.7673  0.0293  2.0514
14493TIP3    H244362   2.304   2.196   2.426  0.3905 -0.0496 -0.9202
14494TIP3   OH244363   7.120   3.704   8.090 -0.6162 -0.3809  0.0139
14494TIP3    H144364   7.174   3.723   8.013 -0.1218 -0.4995  0.3244
14494TIP3    H244365   7.031   3.693   8.056 -0.8595  1.9346 -0.2521
14495TIP3   OH244366   9.803   2.057   1.743 -0.6459  0.3539  0.1357
14495TIP3    H144367   9.825   2.143   1.708  0.4712 -0.3339 -0.9130
14495TIP3    H244368   9.824   1.995   1.673 -0.2464 -0.8951  1.3009
14496TIP3   OH244369  10.580   3.537   3.759  0.5371 -0.2038  0.1966
14496TIP3    H144370  10.661   3.545   3.810  0.2316 -1.7079  0.9793
14496TIP3    H244371  10.515   3.584   3.811  0.6279 -0.0992  0.2183
14497TIP3   OH244372   3.526   7.483   5.669 -0.7361  0.3188  0.1427
14497TIP3    H144373   3.489   7.517   5.588  0.3876  1.7342  0.1868
14497TIP3    H244374   3.587   7.415   5.641 -2.7363 -1.5579  0.0353
14498TIP3   OH244375   0.248   3.363   7.325  0.5229  0.1392 -0.0855
14498TIP3    H144376   0.280   3.442   7.367  0.0207 -0.5465  1.6721
14498TIP3    H244377   0.325   3.307   7.317  0.4892 -0.0344  0.6949
14499TIP3   OH244378   5.668  10.328   2.390 -0.1812 -0.2849  0.2529
14499TIP3    H144379   5.699  10.279   2.466 -0.4927 -0.8420  0.0284
14499TIP3    H244380   5.574  10.310   2.387 -0.1558 -0.3232 -0.3059
14500TIP3   OH244381  10.118   6.648   7.530  0.0815  0.5827  0.0654
14500TIP3    H144382  10.211   6.655   7.550  0.3121 -0.0490 -0.7057
14500TIP3    H244383  10.112   6.676   7.438 -0.3209 -0.4036 -0.2192
14501TIP3   OH244384   3.649   7.698   3.281 -0.5369  0.1590  0.2455
14501TIP3    H144385   3.581   7.762   3.303  0.5147  1.6828 -0.7395
14501TIP3    H244386   3.689   7.733   3.201 -0.7641 -2.4067 -1.1097
14502TIP3   OH244387   2.402   9.296   5.733  0.2168  0.1593 -0.5033
14502TIP3    H144388   2.306   9.296   5.730  0.1949 -1.3848 -0.5540
14502TIP3    H244389   2.428   9.363   5.669 -0.8128  1.1138  0.0260
14503TIP3   OH244390   9.388   1.015   8.887 -0.5707 -0.3750  0.3120
14503TIP3    H144391   9.346   1.092   8.926  1.8055  0.4179  1.5298
14503TIP3    H244392   9.480   1.040   8.878 -0.0176 -2.5392 -0.7470
14504TIP3   OH244393   2.010   6.866   9.741 -0.2532 -0.1745 -0.4265
14504TIP3    H144394   1.935   6.811   9.763 -1.8665  1.1919 -2.1788
14504TIP3    H244395   1.999   6.945   9.794  0.7455 -0.5207  0.3278
14505TIP3   OH244396   6.673   6.223   1.406  0.0854  0.4378 -0.6502
14505TIP3    H144397   6.754   6.254   1.365  1.2873 -0.6993  0.7297
14505TIP3    H244398   6.702   6.187   1.490 -1.9886  0.7242  0.2297
14506TIP3   OH244399   4.194   9.860   8.480  0.8583  0.2806  0.7535
14506TIP3    H144400   4.179   9.786   8.539 -1.2825  1.0911  1.3260
14506TIP3    H244401   4.125   9.853   8.414  0.0920  2.1246  1.2747
14507TIP3   OH244402   5.863   0.142   4.641 -0.0721  0.3743  0.2744
14507TIP3    H144403   5.810   0.208   4.597 -1.0684 -0.6916 -0.2026
14507TIP3    H244404   5.897   0.185   4.719 -0.1156  1.6431 -0.3932
14508TIP3   OH244405   4.127   3.340   8.666 -0.2979 -0.9454  0.6475
14508TIP3    H144406   4.189   3.384   8.724 -1.6747  1.8486  0.1365
14508TIP3    H244407   4.135   3.386   8.583 -2.5610 -0.9074  0.3855
14509TIP3   OH244408   2.658   2.079   0.613  0.5434  0.6759 -0.0116
14509TIP3    H144409   2.592   2.011   0.624 -0.9624  1.8531 -1.2557
14509TIP3    H244410   2.652   2.132   0.693  1.4478 -0.3678  0.7809
14510TIP3   OH244411   6.318   6.067   2.688 -0.2379  0.4298 -0.1468
14510TIP3    H144412   6.346   5.977   2.673 -1.1371  0.2994 -1.1952
14510TIP3    H244413   6.395   6.120   2.667 -0.3206  0.0116 -1.6239
14511TIP3   OH244414   7.038   0.267   9.255 -0.3343  0.0171  0.1946
14511TIP3    H144415   6.983   0.258   9.333 -0.8342  3.3809  0.3687
14511TIP3    H244416   7.054   0.361   9.247  1.7667 -0.4255 -2.3958
14512TIP3   OH244417   3.600   8.953   2.192  0.1302  0.5501  0.5281
14512TIP3    H144418   3.678   8.959   2.247  0.1670  2.8182  0.3088
14512TIP3    H244419   3.633   8.954   2.102 -0.0968 -0.0363  0.4289
14513TIP3   OH244420   4.271  10.660   7.072  0.0510  0.7132  0.5967
14513TIP3    H144421   4.348  10.636   7.021 -0.8839 -2.3261  0.4408
14513TIP3    H244422   4.208  10.590   7.055 -1.8307  1.7646  2.6993
14514TIP3   OH244423   6.712   5.890   8.535 -0.0021  0.4159 -0.0474
14514TIP3    H144424   6.688   5.896   8.443  1.5489  2.6951 -0.3867
14514TIP3    H244425   6.711   5.981   8.566  1.9933 -0.0283  1.4850
14515TIP3   OH244426   4.169   2.270   7.273  0.1687 -0.2817  0.2613
14515TIP3    H144427   4.165   2.219   7.192  0.4094 -1.2432  0.8442
14515TIP3    H244428   4.107   2.227   7.332  0.6594 -0.1484  0.8908
14516TIP3   OH244429   6.640   6.630  10.148 -0.7018  0.1523  0.3389
14516TIP3    H144430   6.547   6.611  10.160 -0.7843  0.8135  0.8080
14516TIP3    H244431   6.644   6.680  10.067 -0.8391  0.6883  0.6571
14517TIP3   OH244432   3.373   9.160   8.559  0.0509  0.5923  0.7620
14517TIP3    H144433   3.438   9.230   8.555  0.1613  0.4080 -1.0314
14517TIP3    H244434   3.299   9.193   8.508  0.2966 -0.7672 -0.5426
14518TIP3   OH244435   4.555  10.653   0.001  0.2067 -0.7779  0.0275
14518TIP3    H144436   4.554  10.662  -0.094  2.4631  0.0914  0.0402
14518TIP3    H244437   4.561  10.558   0.015 -0.7734 -0.9625 -0.6454
14519TIP3   OH244438   3.486   4.737   0.412  0.5610  0.1799  0.2696
14519TIP3    H144439   3.577   4.742   0.443  0.5049 -1.6082  0.8323
14519TIP3    H244440   3.433   4.754   0.490  0.4364 -2.3714  0.8322
14520TIP3   OH244441   4.189   0.548   0.560  0.0055 -0.3563 -0.0618
14520TIP3    H144442   4.258   0.481   0.566  0.9917  0.6857  0.8040
14520TIP3    H244443   4.161   0.546   0.469  1.5236 -0.4993 -0.5566
14521TIP3   OH244444   6.144   9.538   7.682  0.0922 -0.5082  0.8674
14521TIP3    H144445   6.155   9.542   7.777 -1.3156 -3.1012  1.2307
14521TIP3    H244446   6.059   9.578   7.666  0.3629 -0.0005  0.6668
14522TIP3   OH244447   5.762   8.783  10.169 -0.5865  0.3319  0.2957
14522TIP3    H144448   5.812   8.705  10.144 -0.4914  0.4440  0.1371
14522TIP3    H244449   5.716   8.757  10.249  1.7351  1.0270  1.9808
14523TIP3   OH244450   3.306   8.056   1.138 -0.4850 -0.9692  0.6761
14523TIP3    H144451   3.335   8.146   1.144  1.7847 -1.6756  1.2004
14523TIP3    H244452   3.230   8.051   1.196 -0.5128  0.5192  0.8020
14524TIP3   OH244453   1.324   4.322   3.366  0.0134 -0.1869  0.2382
14524TIP3    H144454   1.254   4.319   3.431  0.7587  2.6342  1.2892
14524TIP3    H244455   1.320   4.410   3.329  0.2864 -1.3565 -2.8597
14525TIP3   OH244456   5.918   7.298   7.765 -0.4555  0.1792 -0.0681
14525TIP3    H144457   5.972   7.252   7.829 -0.8807 -1.5980 -0.9199
14525TIP3    H244458   5.865   7.358   7.817  0.4010  0.0042  1.0544
14526TIP3   OH244459   4.839   3.212   9.880  0.4286  0.0190  0.3016
14526TIP3    H144460   4.754   3.170   9.866  0.5973 -0.4880  0.7316
14526TIP3    H244461   4.838   3.289   9.824 -0.0140 -0.4050 -0.2844
14527TIP3   OH244462   8.464   4.948   8.351 -0.2115  0.2102 -0.4411
14527TIP3    H144463   8.410   4.976   8.425  0.8092  2.2018 -0.3943
14527TIP3    H244464   8.554   4.948   8.386  0.0193 -1.5587 -0.9319
14528TIP3   OH244465   7.697  10.653   5.326 -0.2884 -0.1151 -0.1146
14528TIP3    H144466   7.646  10.594   5.382 -0.4217  0.4160  0.3320
14528TIP3    H244467   7.686  10.739   5.365  1.4620 -0.0693  0.3759
14529TIP3   OH244468   8.595   9.224   6.449 -0.8657  0.0604 -0.1569
14529TIP3    H144469   8.652   9.149   6.469  0.4271  0.7549 -1.0662
14529TIP3    H244470   8.598   9.231   6.353 -0.5195  1.5747 -0.0648
14530TIP3   OH244471   2.944   6.088   3.479  0.4739  0.1447 -0.0134
14530TIP3    H144472   2.939   6.011   3.536  2.7479  0.4096  0.6227
14530TIP3    H244473   2.866   6.082   3.424  0.5893 -2.6220 -0.0017
14531TIP3   OH244474   8.119   3.809   8.042  0.0683  0.4910 -0.3631
14531TIP3    H144475   8.105   3.885   7.985  1.0941 -0.1621 -1.5096
14531TIP3    H244476   8.153   3.741   7.985  0.2783 -0.4834  0.8726
14532TIP3   OH244477   9.621   7.710   2.572  0.3480  0.2022  0.4074
14532TIP3    H144478   9.688   7.650   2.538  0.8721 -0.2359  2.1031
14532TIP3    H244479   9.539   7.660   2.566  0.3885  0.2253 -0.3990
14533TIP3   OH244480   8.885   7.050   0.421 -0.0496  0.3362  0.0910
14533TIP3    H144481   8.970   7.027   0.383  0.2998  0.8132  0.5750
14533TIP3    H244482   8.821   7.003   0.367  0.4733  0.5314 -0.7193
14534TIP3   OH244483   7.457  10.028   5.253  0.1185  0.0193 -0.4964
14534TIP3    H144484   7.381  10.010   5.198 -1.8607  2.6574  1.0880
14534TIP3    H244485   7.478  10.120   5.234  1.4801 -0.0031  0.7527
14535TIP3   OH244486   5.117   1.084   1.407 -0.1087  0.3043  0.3681
14535TIP3    H144487   5.070   1.025   1.466 -2.0364  1.7318  0.3318
14535TIP3    H244488   5.072   1.168   1.415  3.0283  2.1218  1.0676
14536TIP3   OH244489  10.089   2.183   3.427 -0.0481  0.5250 -1.1426
14536TIP3    H144490  10.053   2.152   3.510  3.5184 -0.9390  0.0686
14536TIP3    H244491  10.075   2.112   3.365  2.2793 -0.9119 -0.1420
14537TIP3   OH244492   9.498   7.604  10.596  0.1978 -0.2123  0.2121
14537TIP3    H144493   9.510   7.682  10.542 -0.9678 -0.4530 -0.4318
14537TIP3    H244494   9.403   7.595  10.603  0.3321 -0.9718  1.1704
14538TIP3   OH244495   8.793   1.715   1.322 -0.3442  0.3822  0.1834
14538TIP3    H144496   8.702   1.734   1.298 -0.2238  1.7294  0.7554
14538TIP3    H244497   8.845   1.778   1.272  0.2062  0.3201  0.6704
14539TIP3   OH244498   7.620   4.179   8.354 -0.3941 -0.2258 -0.2952
14539TIP3    H144499   7.547   4.234   8.382 -1.0758 -0.6900 -1.1082
14539TIP3    H244500   7.641   4.210   8.266  0.3965 -0.0993 -0.0706
14540TIP3   OH244501   0.157   6.851   0.116  0.3247  0.3240 -0.1074
14540TIP3    H144502   0.241   6.872   0.158 -0.0790  0.5030  0.6315
14540TIP3    H244503   0.156   6.756   0.110 -0.8734  0.0138  3.0846
14541TIP3   OH244504   1.083  10.406   3.515 -0.0850  0.8031  0.5734
14541TIP3    H144505   1.148  10.339   3.533 -1.1527  0.0349  1.7419
14541TIP3    H244506   1.000  10.358   3.508 -0.6530  1.8369 -0.0508
14542TIP3   OH244507   1.742  10.710  10.341  0.1104 -0.0067 -0.3545
14542TIP3    H144508   1.731  10.624  10.300 -0.7549  0.4832 -1.1887
14542TIP3    H244509   1.835  10.728  10.335  0.2368 -0.7018 -0.5564
14543TIP3   OH244510   0.538   2.397   4.464 -0.0492 -0.2057  0.4830
14543TIP3    H144511   0.589   2.393   4.383 -1.0920 -0.9147 -0.1446
14543TIP3    H244512   0.513   2.489   4.471  1.3272  0.1725  0.8265
14544TIP3   OH244513   3.474   1.771   4.653  0.4638 -0.3440  0.1981
14544TIP3    H144514   3.461   1.751   4.746  1.5324 -1.1028  0.1985
14544TIP3    H244515   3.386   1.773   4.617  0.1226 -2.1299  0.8197
14545TIP3   OH244516   2.117   8.058   3.665  0.1537  0.0455  0.1444
14545TIP3    H144517   2.072   8.142   3.664 -0.6214 -0.3627 -0.3275
14545TIP3    H244518   2.106   8.023   3.577  1.3391 -0.1132  0.0375
14546TIP3   OH244519   6.144   0.507   5.754  0.1318  0.0398  0.6490
14546TIP3    H144520   6.153   0.599   5.729  1.6999 -0.2630 -0.0054
14546TIP3    H244521   6.233   0.472   5.748 -0.4039 -1.4613  1.1372
14547TIP3   OH244522  10.389   7.533  10.630  0.4083 -0.1587 -0.2353
14547TIP3    H144523  10.463   7.552  10.688  0.5122  0.7128 -0.6383
14547TIP3    H244524  10.326   7.603  10.648 -0.1487 -0.6674 -0.1840
14548TIP3   OH244525   8.510   0.598   7.006  0.3567 -0.0612  0.3853
14548TIP3    H144526   8.489   0.530   7.071 -3.5610  0.4755 -0.0665
14548TIP3    H244527   8.507   0.553   6.922  1.2449  0.0517  0.2825
14549TIP3   OH244528   4.347   9.619   5.351  0.2799 -0.2342  0.1299
14549TIP3    H144529   4.290   9.608   5.428 -0.0621  0.6771  0.0186
14549TIP3    H244530   4.320   9.702   5.313  0.1496 -0.8811 -1.2457
14550TIP3   OH244531   0.452   8.417   8.401 -0.0764 -0.0467  0.2738
14550TIP3    H144532   0.392   8.351   8.366  0.8102  0.6728 -2.9487
14550TIP3    H244533   0.422   8.500   8.363  1.0445  0.8462  1.2279
14551TIP3   OH244534  10.408   8.457   4.021  0.0459  0.6755 -0.1090
14551TIP3    H144535  10.496   8.422   4.032 -0.0773  0.5595  0.5192
14551TIP3    H244536  10.410   8.542   4.064 -0.5745  0.0021  1.3319
14552TIP3   OH244537   9.220   4.582   7.015  0.3661 -0.0424 -0.4232
14552TIP3    H144538   9.225   4.487   7.021  0.0761 -0.0119  0.4795
14552TIP3    H244539   9.127   4.602   7.011  0.0525  0.3604  3.8244
14553TIP3   OH244540   8.606   2.656   6.012  0.4337 -0.4844  0.1116
14553TIP3    H144541   8.558   2.592   6.065  1.1416  0.0741  1.4951
14553TIP3    H244542   8.647   2.714   6.076  2.3438 -0.4952 -1.0213
14554TIP3   OH244543   2.927  10.052   3.857 -0.0529  0.2731  0.4402
14554TIP3    H144544   2.910   9.970   3.904 -0.5862  0.1952  0.1141
14554TIP3    H244545   2.864  10.114   3.893  1.3128  0.9674  1.7493
14555TIP3   OH244546   2.253   8.938   5.543 -0.2720 -0.0100  0.2783
14555TIP3    H144547   2.331   8.962   5.593  0.6809  0.7458 -1.4928
14555TIP3    H244548   2.236   8.847   5.569  2.2085 -0.7779 -0.4810
14556TIP3   OH244549   9.377  10.639   3.641  0.0901 -0.2683  0.4315
14556TIP3    H144550   9.404  10.641   3.549 -0.4251  0.1288  0.2847
14556TIP3    H244551   9.454  10.606   3.688  0.9374  1.1138  0.0644
14557TIP3   OH244552   9.662   6.547   4.943  0.2608 -0.0839 -0.1294
14557TIP3    H144553   9.670   6.459   4.906 -0.1862 -0.2283  0.1020
14557TIP3    H244554   9.606   6.535   5.020 -1.0274  0.6495 -0.9390
14558TIP3   OH244555   5.914  10.137   8.503  0.1530  0.0821 -0.3969
14558TIP3    H144556   5.992  10.192   8.509 -0.2171  0.7082 -1.1460
14558TIP3    H244557   5.849  10.181   8.558  0.8042 -1.3367  1.6100
14559TIP3   OH244558   3.061   7.793   5.630  0.4302  0.7112 -0.4161
14559TIP3    H144559   3.008   7.717   5.606 -0.0805  0.7927  0.4038
14559TIP3    H244560   3.034   7.813   5.720  1.0124  1.4763 -0.4048
14560TIP3   OH244561   6.542   0.631   0.985  0.1696  0.3117  0.4446
14560TIP3    H144562   6.627   0.586   0.980  1.2170  2.2715 -0.3858
14560TIP3    H244563   6.526   0.642   1.079  0.3578 -0.8797  0.6340
14561TIP3   OH244564   8.796   7.278   5.387 -0.1911 -0.1184 -0.4052
14561TIP3    H144565   8.725   7.281   5.451  1.0773 -0.8472  1.1178
14561TIP3    H244566   8.826   7.368   5.379  1.1367 -0.3045  1.8516
14562TIP3   OH244567   7.662   3.372   6.471  0.0629 -0.3129 -0.7742
14562TIP3    H144568   7.630   3.360   6.560 -0.2873 -0.1911 -0.8795
14562TIP3    H244569   7.755   3.349   6.474  0.0187 -0.4334 -0.4080
14563TIP3   OH244570   2.616   8.645   5.174  0.0111  0.4991 -0.2603
14563TIP3    H144571   2.579   8.648   5.262  2.5258  1.2136  0.8683
14563TIP3    H244572   2.558   8.701   5.122 -1.9040 -0.4765  0.7426
14564TIP3   OH244573   2.307   7.354   9.528  0.8228 -0.3440  0.3019
14564TIP3    H144574   2.251   7.286   9.564  0.2158  0.8735  1.7947
14564TIP3    H244575   2.396   7.321   9.540  0.5176 -1.5393 -0.4969
14565TIP3   OH244576   3.268  10.365   7.621  0.1411 -0.1112 -0.1415
14565TIP3    H144577   3.353  10.391   7.657  1.0729 -1.6426 -1.1207
14565TIP3    H244578   3.283  10.278   7.585 -2.1478 -0.8922  0.6285
14566TIP3   OH244579   4.538   4.051   0.680 -0.1940 -0.6577 -0.6244
14566TIP3    H144580   4.496   4.037   0.595 -1.6039 -0.7855  0.0627
14566TIP3    H244581   4.520   3.971   0.729  1.0222 -0.7817 -0.3512
14567TIP3   OH244582  10.707   6.997   3.375  0.4103 -0.3080  0.0799
14567TIP3    H144583  10.784   7.012   3.321 -0.1818  1.6493 -0.3021
14567TIP3    H244584  10.633   7.009   3.315 -0.2600  1.8337  1.2298
14568TIP3   OH244585   7.367   2.629   8.902  0.5728  0.2565 -0.2392
14568TIP3    H144586   7.345   2.549   8.950  1.4327  0.9527  1.4256
14568TIP3    H244587   7.310   2.628   8.825 -1.1334 -0.7640  0.9635
14569TIP3   OH244588   7.909   6.824   4.244  0.5920  0.4411 -0.0466
14569TIP3    H144589   7.880   6.910   4.214  1.9419  0.3912 -1.6879
14569TIP3    H244590   8.002   6.821   4.222  0.6155 -1.3847  0.1139
14570TIP3   OH244591   8.595   0.098   1.943  0.5364  1.1453  0.0544
14570TIP3    H144592   8.690   0.103   1.939  0.6549 -0.1452  0.7265
14570TIP3    H244593   8.576   0.078   2.035 -0.4004  1.7086 -0.0073
14571TIP3   OH244594   1.138   7.000   5.722 -0.4132 -0.3935 -0.0788
14571TIP3    H144595   1.202   7.017   5.791 -0.7532  1.4990 -0.1872
14571TIP3    H244596   1.054   7.028   5.758 -0.6944  0.0548 -1.0413
14572TIP3   OH244597   5.116   4.931   2.052  0.2922  0.5204  0.3296
14572TIP3    H144598   5.042   4.943   2.111  0.0362  1.2640 -0.1271
14572TIP3    H244599   5.077   4.891   1.974  0.1559  1.9472 -0.3575
14573TIP3   OH244600   4.894   1.146   7.809 -0.4032 -0.2482  0.5814
14573TIP3    H144601   4.954   1.110   7.743 -1.4945  1.6332 -1.6055
14573TIP3    H244602   4.946   1.153   7.888  2.2888  1.1594 -1.1708
14574TIP3   OH244603   5.242   9.323   3.321  0.3450  0.0397 -0.1816
14574TIP3    H144604   5.294   9.274   3.257 -0.2929 -0.5599 -0.2444
14574TIP3    H244605   5.245   9.413   3.289  1.3321  0.0208 -0.1865
14575TIP3   OH244606   7.407   4.268   6.336 -0.6831 -0.1543 -0.1286
14575TIP3    H144607   7.350   4.244   6.409  0.2634  1.3280  1.1953
14575TIP3    H244608   7.368   4.347   6.300 -0.4540 -0.1583 -0.3898
14576TIP3   OH244609   2.999   7.514   1.952 -0.2694 -0.1367 -0.0453
14576TIP3    H144610   3.050   7.438   1.981 -1.1275 -0.3134  1.0972
14576TIP3    H244611   3.017   7.521   1.859  1.2711 -0.6264  0.1793
14577TIP3   OH244612  10.796   8.780   2.540 -0.2134 -0.1646 -0.1987
14577TIP3    H144613  10.711   8.818   2.564 -1.2613 -2.4930  0.0804
14577TIP3    H244614  10.860   8.830   2.591 -1.1810  2.5795 -1.4445
14578TIP3   OH244615   4.152   6.169  10.442 -0.2653 -0.0285 -0.2725
14578TIP3    H144616   4.242   6.169  10.475 -0.2290  0.3699 -0.3605
14578TIP3    H244617   4.155   6.111  10.366 -0.1285 -0.1810 -0.1511
14579TIP3   OH244618   6.021   8.253  10.434 -0.0407 -0.3485  0.0810
14579TIP3    H144619   6.084   8.324  10.425 -0.2609  0.0193  1.3001
14579TIP3    H244620   6.056   8.197  10.503  0.1710 -1.4985 -0.9190
14580TIP3   OH244621   9.933  10.673   2.427 -0.4303 -0.2064  0.3521
14580TIP3    H144622  10.018  10.709   2.403 -0.2032 -1.0112 -0.0937
14580TIP3    H244623   9.950  10.618   2.503 -0.7579  0.5263  0.9678
14581TIP3   OH244624   1.823   3.837  10.902 -0.6978  0.1011  0.0350
14581TIP3    H144625   1.788   3.827  10.814 -0.9565 -2.0855  0.3168
14581TIP3    H244626   1.907   3.880  10.890 -0.7205 -0.1851 -1.2818
14582TIP3   OH244627   4.116  10.107   7.091  0.3366 -0.8243  0.3623
14582TIP3    H144628   4.082  10.079   7.176 -1.3536 -1.1455 -0.3618
14582TIP3    H244629   4.116  10.028   7.038 -0.2667 -0.3270 -0.4124
14583TIP3   OH244630   3.333   7.591   4.733  0.0784 -0.1836  0.3063
14583TIP3    H144631   3.421   7.586   4.697 -0.0734 -1.6460  0.0735
14583TIP3    H244632   3.336   7.537   4.812 -1.2609 -2.5819 -1.1823
14584TIP3   OH244633   2.194   1.918   8.346  0.5378 -0.1020  0.1779
14584TIP3    H144634   2.124   1.982   8.358  0.6146 -0.0320  0.2522
14584TIP3    H244635   2.180   1.853   8.414 -0.2558 -0.8099 -0.6376
14585TIP3   OH244636   1.937   7.022   3.955 -0.2008  0.0550 -0.0571
14585TIP3    H144637   1.865   7.058   4.006 -0.0461 -0.5042  0.5815
14585TIP3    H244638   2.008   7.010   4.019  0.3768  0.3681 -0.6265
14586TIP3   OH244639   5.499   9.449   9.387 -0.1915 -0.4179  0.5511
14586TIP3    H144640   5.536   9.364   9.411  1.8391 -0.1901 -1.4661
14586TIP3    H244641   5.552   9.513   9.435 -0.7132 -0.2160  0.8690
14587TIP3   OH244642   1.067   7.455   1.449 -0.1450 -0.9518 -0.0948
14587TIP3    H144643   1.145   7.419   1.491  0.5079 -0.5099 -0.8891
14587TIP3    H244644   1.032   7.384   1.395  0.2603 -0.8734 -0.4687
14588TIP3   OH244645   1.342   4.685   2.599  0.1206 -0.5246  0.0676
14588TIP3    H144646   1.250   4.705   2.586 -0.0444 -0.4820  1.1590
14588TIP3    H244647   1.361   4.716   2.688  1.2854 -0.1699 -0.2804
14589TIP3   OH244648   8.768   9.141   7.436 -0.1237  0.0302 -0.3832
14589TIP3    H144649   8.741   9.198   7.364 -1.4983  0.4305  0.4172
14589TIP3    H244650   8.838   9.189   7.480  0.4535 -0.0415 -1.2024
14590TIP3   OH244651  10.269  10.454   9.642 -0.5721  0.5137 -0.3140
14590TIP3    H144652  10.275  10.462   9.737  2.9886  3.5365 -0.5442
14590TIP3    H244653  10.222  10.533   9.615 -0.4085  0.3369 -1.1312
14591TIP3   OH244654   0.577   0.988   2.969  0.2275  0.4671  0.7529
14591TIP3    H144655   0.601   0.982   3.062  2.5180  0.0685  0.2159
14591TIP3    H244656   0.578   1.081   2.950  1.7174  0.4759  0.7271
14592TIP3   OH244657  10.618  10.352  10.808 -0.5639 -0.1457  0.6177
14592TIP3    H144658  10.694  10.321  10.759 -0.5114 -0.6511  1.0066
14592TIP3    H244659  10.651  10.427  10.858 -0.7945  0.8398 -0.6491
14593TIP3   OH244660   4.252   4.293   3.464 -0.1571 -0.5832  0.3191
14593TIP3    H144661   4.298   4.338   3.394  0.0097 -0.6695  0.3739
14593TIP3    H244662   4.315   4.289   3.536 -0.2807 -0.6186  0.4255
14594TIP3   OH244663   5.397   6.681   0.538  0.2885  0.2443  0.3733
14594TIP3    H144664   5.396   6.710   0.629  2.1804 -0.8317  0.7801
14594TIP3    H244665   5.404   6.586   0.542 -1.1271  0.0433 -0.9321
14595TIP3   OH244666   0.746  10.648   5.787  0.0425  0.7130  0.1013
14595TIP3    H144667   0.653  10.626   5.791  0.0121  0.7583 -0.3326
14595TIP3    H244668   0.749  10.743   5.792  0.0750  0.7029  0.2681
14596TIP3   OH244669   6.963   1.001   2.004 -0.0815  0.5828 -0.6569
14596TIP3    H144670   6.970   1.021   1.911 -0.3908 -0.2899 -0.8781
14596TIP3    H244671   6.871   1.016   2.025 -0.5188 -1.2722 -1.0179
14597TIP3   OH244672   3.918   5.678   3.466  0.2018  0.1545  0.1782
14597TIP3    H144673   3.964   5.760   3.448 -0.6188  0.3399 -1.2174
14597TIP3    H244674   3.871   5.659   3.385 -0.5924 -1.0595  0.8993
14598TIP3   OH244675   9.767  10.468   0.249 -0.7714 -0.2003  0.2921
14598TIP3    H144676   9.854  10.428   0.259  0.4146  1.5443 -2.1296
14598TIP3    H244677   9.754  10.475   0.154 -2.5606  1.6666  0.6056
14599TIP3   OH244678   8.365   9.851   7.874 -0.0989 -0.0443 -0.6127
14599TIP3    H144679   8.293   9.821   7.930  0.1149  0.5909  0.0219
14599TIP3    H244680   8.412   9.915   7.928  1.0234 -0.5463 -0.9619
14600TIP3   OH244681   9.130   8.212   9.474  0.0432 -0.1369 -0.5499
14600TIP3    H144682   9.083   8.147   9.526 -0.6017  1.7802  1.4389
14600TIP3    H244683   9.223   8.190   9.486 -0.0914  0.1456  1.3863
14601TIP3   OH244684   8.552   5.121  10.857 -0.1141 -0.1579  0.4636
14601TIP3    H144685   8.577   5.122  10.950  2.7390  3.3916 -0.1337
14601TIP3    H244686   8.475   5.179  10.852 -0.2159 -0.2818  0.5774
14602TIP3   OH244687   9.907   6.557   4.300  0.1657  0.2814 -0.2531
14602TIP3    H144688   9.937   6.466   4.303  0.7482  0.4582 -0.5793
14602TIP3    H244689   9.855   6.562   4.219  0.9565  0.4813 -0.7574
14603TIP3   OH244690   8.166  10.292   9.182  0.3163  0.0427  0.7432
14603TIP3    H144691   8.247  10.252   9.213  0.2245 -0.0651  0.8469
14603TIP3    H244692   8.161  10.269   9.089 -0.4520 -1.4028  1.1152
14604TIP3   OH244693   1.703   8.063   1.913  0.5494 -0.6350  0.5955
14604TIP3    H144694   1.762   8.109   1.972 -0.1508  0.4349  0.4804
14604TIP3    H244695   1.657   8.000   1.970 -0.0933  0.3566  1.2124
14605TIP3   OH244696   1.528  10.904   0.515  0.3899  0.1463 -0.1068
14605TIP3    H144697   1.453  10.958   0.539  0.1597  0.5913 -1.7133
14605TIP3    H244698   1.527  10.832   0.578 -0.6787  0.7709  0.6132
14606TIP3   OH244699  10.880   0.226   0.745  1.0015  0.2394 -0.4500
14606TIP3    H144700  10.867   0.190   0.656 -0.4680  1.5348 -0.7941
14606TIP3    H244701  10.870   0.150   0.802  0.5265 -0.3649 -1.3038
14607TIP3   OH244702   3.491   1.407   8.832  0.5411 -0.6641  0.4352
14607TIP3    H144703   3.496   1.459   8.752  2.7129 -1.0838  0.2295
14607TIP3    H244704   3.478   1.471   8.901  0.4273 -0.1261 -0.0713
14608TIP3   OH244705   3.843   5.422   0.049 -0.9375  0.3040  0.3404
14608TIP3    H144706   3.860   5.391  -0.039 -0.1252  1.7419 -0.0265
14608TIP3    H244707   3.784   5.356   0.086 -0.3944 -0.9059 -0.8695
14609TIP3   OH244708   1.075   1.323   5.144  0.5582  0.7258 -0.1827
14609TIP3    H144709   1.148   1.335   5.204 -0.2472  1.4466  0.6917
14609TIP3    H244710   1.065   1.407   5.100  0.0889  0.7301 -0.0785
14610TIP3   OH244711   3.473   3.025   5.652 -0.5525 -0.2611 -0.0166
14610TIP3    H144712   3.486   3.100   5.710 -2.1698 -0.7852  1.1012
14610TIP3    H244713   3.422   3.059   5.579 -0.8803 -0.1654  0.2553
14611TIP3   OH244714   8.383   4.452   5.919 -0.0225  0.5550 -0.8389
14611TIP3    H144715   8.417   4.386   5.860 -1.3686  1.3111 -2.5499
14611TIP3    H244716   8.391   4.414   6.006  1.2970 -0.9096 -1.5665
14612TIP3   OH244717   3.611   9.916   0.599 -0.5270  0.1800  0.2232
14612TIP3    H144718   3.556   9.918   0.678 -0.0177 -0.5798  0.6087
14612TIP3    H244719   3.558   9.868   0.535 -0.1080 -1.0412  0.7686
14613TIP3   OH244720   5.285   2.742   0.620  0.1960  0.3713 -0.2735
14613TIP3    H144721   5.379   2.735   0.603  0.3813  0.5235  0.6456
14613TIP3    H244722   5.247   2.662   0.583  0.5002  0.9099 -1.8244
14614TIP3   OH244723   2.971   7.447  10.782  0.1752  0.6427 -0.3295
14614TIP3    H144724   2.905   7.379  10.776  0.4865  0.2514  0.5802
14614TIP3    H244725   3.035   7.414  10.845  0.8259  1.3580 -0.5938
14615TIP3   OH244726   0.810   7.642   6.131 -0.5024 -0.4418  0.1992
14615TIP3    H144727   0.850   7.586   6.064 -0.5892 -0.8317  0.4742
14615TIP3    H244728   0.858   7.622   6.211  0.7709  1.2762 -0.0740
14616TIP3   OH244729   0.302   5.001   5.540  0.3140  0.8729  0.1758
14616TIP3    H144730   0.256   5.083   5.557 -1.7032  0.0850 -1.0732
14616TIP3    H244731   0.389   5.027   5.510  0.2723  2.4699  1.3364
14617TIP3   OH244732   4.941   6.428   2.786  0.2035  0.1452  0.2143
14617TIP3    H144733   4.848   6.436   2.767 -0.3772 -1.2637  2.1633
14617TIP3    H244734   4.952   6.337   2.812  2.2388  0.1671 -0.4075
14618TIP3   OH244735   1.551   1.748   4.899 -0.4142  0.2016  0.2723
14618TIP3    H144736   1.539   1.841   4.922 -1.3883 -0.0112  0.6749
14618TIP3    H244737   1.595   1.710   4.975 -2.4809 -0.2288  1.3061
14619TIP3   OH244738  10.837   3.025   6.023 -0.2976 -0.4319  0.3685
14619TIP3    H144739  10.871   3.071   5.946 -2.5877  2.6880  1.0226
14619TIP3    H244740  10.794   2.947   5.987 -0.3854  0.3820 -1.4120
14620TIP3   OH244741   5.806   0.396   6.791  0.0612  0.2887 -0.3070
14620TIP3    H144742   5.875   0.348   6.836  2.0684  1.6641 -1.7266
14620TIP3    H244743   5.812   0.485   6.827 -1.0940  0.4000 -0.3500
14621TIP3   OH244744   8.455   5.866   9.774 -0.7173 -0.2713 -0.3940
14621TIP3    H144745   8.526   5.803   9.788 -1.7471 -1.2870  0.4371
14621TIP3    H244746   8.436   5.900   9.861  1.0912  2.6939 -1.0249
14622TIP3   OH244747   6.638   2.044   3.585  0.2272  0.5220  0.4341
14622TIP3    H144748   6.589   2.056   3.504  1.1782 -0.2353 -0.2674
14622TIP3    H244749   6.617   2.122   3.637 -1.3646  0.4191 -0.0084
14623TIP3   OH244750   8.722   7.190   6.131 -0.7339 -0.5157  0.5218
14623TIP3    H144751   8.801   7.171   6.181  0.3442  2.3677  0.1047
14623TIP3    H244752   8.717   7.118   6.067  0.6042 -1.6342  1.6028
14624TIP3   OH244753   2.135   2.719   9.048  0.0459 -0.3996  0.0010
14624TIP3    H144754   2.137   2.740   9.142  1.7109 -2.3775  0.4870
14624TIP3    H244755   2.063   2.656   9.040 -0.7177  0.4750 -0.2726
14625TIP3   OH244756   1.923   4.692   9.440 -0.1957 -0.2779 -0.4444
14625TIP3    H144757   1.994   4.705   9.503  0.1691 -1.2278 -0.6412
14625TIP3    H244758   1.941   4.756   9.370 -0.2216  0.3146  0.0848
14626TIP3   OH244759   7.517   7.321   5.663 -0.2195 -0.2314 -0.4460
14626TIP3    H144760   7.581   7.265   5.619  1.4069 -0.2847  1.7896
14626TIP3    H244761   7.495   7.273   5.743 -2.3219  0.2702 -0.6817
14627TIP3   OH244762   9.116   2.685   7.411 -0.5105 -0.1022 -0.2885
14627TIP3    H144763   9.055   2.719   7.477  0.3315 -0.0045  0.4624
14627TIP3    H244764   9.189   2.748   7.412 -0.5927  0.0348 -1.4993
14628TIP3   OH244765   1.856  10.189   8.480  0.8011  0.8903  0.5629
14628TIP3    H144766   1.803  10.119   8.516  1.8642 -0.0359  0.3964
14628TIP3    H244767   1.946  10.162   8.497  1.2884  1.3338 -1.0904
14629TIP3   OH244768   9.788   5.201   7.485 -0.3314  0.0891 -0.1164
14629TIP3    H144769   9.788   5.259   7.409 -2.6029  3.0867  1.8723
14629TIP3    H244770   9.722   5.135   7.465 -0.2484  0.2912 -1.0980
14630TIP3   OH244771   5.197   0.917   8.555 -0.2787 -0.2725 -0.1734
14630TIP3    H144772   5.173   0.925   8.648 -0.1593  1.6074 -0.2636
14630TIP3    H244773   5.292   0.929   8.554  0.0776 -2.5635 -0.3590
14631TIP3   OH244774   4.068   6.867   7.859  0.0394 -0.2419 -0.0655
14631TIP3    H144775   4.115   6.824   7.930  1.1041  0.2954 -0.4361
14631TIP3    H244776   4.136   6.891   7.796 -0.7346  0.4964 -0.6373
14632TIP3   OH244777   0.229   7.890   2.745  0.3504  0.0477 -0.7372
14632TIP3    H144778   0.254   7.833   2.672  0.3818  0.5015 -1.0918
14632TIP3    H244779   0.238   7.979   2.709 -0.3249  0.2554 -0.4006
14633TIP3   OH244780   7.917   9.858   5.585 -0.0863 -0.5044 -0.1486
14633TIP3    H144781   7.998   9.846   5.634  0.1203 -0.4530 -0.4721
14633TIP3    H244782   7.943   9.912   5.510 -0.0495 -1.9524 -1.2212
14634TIP3   OH244783  10.096   6.142   4.513 -0.0137  0.5736 -0.4225
14634TIP3    H144784  10.189   6.148   4.492  0.1245 -0.4337 -0.1431
14634TIP3    H244785  10.093   6.095   4.596 -0.7979  0.1552 -0.6775
14635TIP3   OH244786   7.549   4.193   4.827  0.1763 -0.2672  0.3493
14635TIP3    H144787   7.477   4.236   4.780 -0.4490 -0.2241  1.3213
14635TIP3    H244788   7.515   4.106   4.849  1.1415 -1.0017 -0.8882
14636TIP3   OH244789   1.861   0.017   3.092  0.3412  0.1043  0.3353
14636TIP3    H144790   1.816   0.048   3.013 -0.7187  0.9201  1.2298
14636TIP3    H244791   1.867  -0.078   3.081 -3.0743 -0.2972  0.8494
14637TIP3   OH244792   8.597   3.078   3.622  0.1659  0.1580 -0.3791
14637TIP3    H144793   8.623   3.130   3.698 -2.6806  0.4749  0.4932
14637TIP3    H244794   8.587   2.989   3.656  1.4444 -0.2733 -1.0450
14638TIP3   OH244795   6.880   8.356   6.803  0.4873 -0.2524 -0.6768
14638TIP3    H144796   6.809   8.409   6.766  0.9338  0.7955 -0.0549
14638TIP3    H244797   6.835   8.291   6.857 -0.0051  0.5994 -0.0406
14639TIP3   OH244798   1.643   7.729   9.325  0.1665  0.9181  0.4992
14639TIP3    H144799   1.577   7.661   9.337 -0.2039  1.0712 -0.5876
14639TIP3    H244800   1.646   7.744   9.230  1.4239  1.2454  0.5611
14640TIP3   OH244801   7.357   3.387   1.699  0.0459 -0.1984 -0.2032
14640TIP3    H144802   7.261   3.388   1.700 -0.0055 -1.1805 -1.6274
14640TIP3    H244803   7.382   3.463   1.753 -1.5034 -0.3864  0.8665
14641TIP3   OH244804   0.543   3.335   1.587  0.2333  0.2745  0.9863
14641TIP3    H144805   0.526   3.403   1.522  1.2381 -0.2502  0.1356
14641TIP3    H244806   0.612   3.371   1.643  1.4870 -0.3651 -0.0698
14642TIP3   OH244807   2.692   8.026   5.460  0.3555 -0.1335 -0.3077
14642TIP3    H144808   2.696   7.959   5.529  0.7476  0.5542  0.3576
14642TIP3    H244809   2.612   8.075   5.479  1.1521  0.9233  0.5217
14643TIP3   OH244810   5.318   3.045   1.093 -0.4111 -0.1081 -0.2343
14643TIP3    H144811   5.310   3.125   1.145 -2.4434 -0.3313 -0.1127
14643TIP3    H244812   5.381   2.991   1.142  0.6493  1.2197 -0.0910
14644TIP3   OH244813   2.567   7.600   1.424 -0.0247 -0.0432 -0.0853
14644TIP3    H144814   2.619   7.677   1.446 -0.3882 -0.5243  2.9815
14644TIP3    H244815   2.506   7.630   1.357  1.2481  1.7375 -0.4941
14645TIP3   OH244816   9.367   0.957  10.640 -0.2742 -0.2615  0.0417
14645TIP3    H144817   9.276   0.949  10.611 -0.0669 -0.0239 -0.6941
14645TIP3    H244818   9.362   0.951  10.735 -1.2209  1.1895  0.1203
14646TIP3   OH244819   9.071   8.789   2.061 -0.2712  0.2663  0.1020
14646TIP3    H144820   9.013   8.862   2.080 -0.1330  0.5601 -0.5898
14646TIP3    H244821   9.105   8.763   2.147 -0.2093  1.1025  0.3397
14647TIP3   OH244822  10.815   4.248   3.057 -0.1691  0.9942 -0.3072
14647TIP3    H144823  10.841   4.162   3.025  3.0525  1.6601  0.1324
14647TIP3    H244824  10.884   4.307   3.026 -1.9668  3.3412 -0.1164
14648TIP3   OH244825   3.415   0.006   4.820 -0.4849 -0.2460  0.1506
14648TIP3    H144826   3.478  -0.066   4.816  1.5815  1.5158 -0.8248
14648TIP3    H244827   3.465   0.083   4.794 -2.6482  1.5490  1.0308
14649TIP3   OH244828   3.937   4.943   9.928 -0.2160  0.1741 -0.2216
14649TIP3    H144829   3.937   5.012   9.995  0.7399 -0.2490  0.2407
14649TIP3    H244830   3.883   4.978   9.857 -0.6549  0.9322  0.4679
14650TIP3   OH244831   3.858   4.670   5.310  0.2223  0.2094  0.0465
14650TIP3    H144832   3.936   4.640   5.357  1.9876 -0.3489 -2.9618
14650TIP3    H244833   3.840   4.600   5.247 -2.0579  0.8470 -0.1027
14651TIP3   OH244834   8.602   5.678   7.113 -0.1631 -0.1270 -0.8926
14651TIP3    H144835   8.656   5.745   7.071 -1.2150  0.4300 -1.4133
14651TIP3    H244836   8.558   5.634   7.040 -1.1251  0.0725 -0.4512
14652TIP3   OH244837   3.131   8.119   7.246  0.1397  0.8919  0.5863
14652TIP3    H144838   3.133   8.073   7.162 -1.0334  2.4206 -0.3377
14652TIP3    H244839   3.214   8.166   7.249  0.1790  0.8474  0.2624
14653TIP3   OH244840   1.559  10.832   7.307 -0.0788  0.1683 -0.3316
14653TIP3    H144841   1.609  10.819   7.388  0.4017 -0.2695 -0.6996
14653TIP3    H244842   1.599  10.909   7.266  0.7300 -0.5703 -0.9522
14654TIP3   OH244843   7.441   0.846   8.895 -0.0893 -0.0441 -0.1275
14654TIP3    H144844   7.460   0.753   8.902 -0.9805 -0.1060  2.0829
14654TIP3    H244845   7.525   0.886   8.873  0.7077 -1.1843  0.7252
14655TIP3   OH244846   2.737   3.276   2.148 -0.3006  0.1693 -0.7002
14655TIP3    H144847   2.777   3.266   2.235  0.2181 -1.7884 -1.1208
14655TIP3    H244848   2.656   3.324   2.165 -0.7780 -1.1345  1.0792
14656TIP3   OH244849   8.187   4.916   3.476 -0.4813 -0.1588 -0.1914
14656TIP3    H144850   8.282   4.907   3.471 -0.5546 -1.6772  0.4334
14656TIP3    H244851   8.156   4.828   3.500 -1.9853  0.4831  0.3465
14657TIP3   OH244852   2.080   1.080   3.249  0.2776  0.2682 -0.1407
14657TIP3    H144853   2.171   1.065   3.277  0.3172  0.3770 -0.2136
14657TIP3    H244854   2.042   0.992   3.246  0.6790  0.1160 -1.1269
14658TIP3   OH244855   7.979   2.446   3.681  0.6204  0.0226  0.0347
14658TIP3    H144856   8.056   2.426   3.628  0.4983 -0.6428  0.1049
14658TIP3    H244857   7.905   2.418   3.627  0.5135 -1.1134  0.7355
14659TIP3   OH244858  10.325   6.103   8.049 -0.0208  0.0285  0.3177
14659TIP3    H144859  10.249   6.066   8.004 -0.4383  0.4257  0.6837
14659TIP3    H244860  10.316   6.073   8.140 -0.1793  0.7335  0.5400
14660TIP3   OH244861   4.715   7.256   1.932  0.1347  0.9621  0.6118
14660TIP3    H144862   4.797   7.218   1.962 -1.1708 -2.5553  0.2517
14660TIP3    H244863   4.648   7.191   1.955 -2.4501  3.2165  0.0726
14661TIP3   OH244864   6.352   2.364   2.872 -0.1888  0.1660 -0.0351
14661TIP3    H144865   6.376   2.296   2.809  2.2817 -3.1613  4.0064
14661TIP3    H244866   6.410   2.437   2.851  0.2147 -0.6172 -1.8353
14662TIP3   OH244867   0.404   5.655   5.492  0.3954  0.1640 -0.3176
14662TIP3    H144868   0.358   5.641   5.409 -1.8352 -1.0815  1.0466
14662TIP3    H244869   0.484   5.603   5.483  0.4647  0.4652 -1.8434
14663TIP3   OH244870   8.133   8.708   7.996  0.1282 -0.4176  0.5866
14663TIP3    H144871   8.128   8.659   8.078 -0.2734 -0.2107  0.6910
14663TIP3    H244872   8.183   8.786   8.017  0.3526 -0.5467  0.5382
14664TIP3   OH244873   6.048   5.411   1.420 -0.0721 -0.8538 -0.0449
14664TIP3    H144874   6.120   5.472   1.403  2.2927 -3.0703  1.2132
14664TIP3    H244875   6.036   5.365   1.337  0.5573 -1.0285 -0.0482
14665TIP3   OH244876   1.123   0.677   0.605  0.0164  0.0837  0.4059
14665TIP3    H144877   1.059   0.748   0.613 -0.7408 -0.6113  0.7139
14665TIP3    H244878   1.132   0.642   0.694 -0.7332 -1.1361  0.0287
14666TIP3   OH244879  10.088   6.358  10.708  0.3676  0.1525  0.0824
14666TIP3    H144880  10.124   6.297  10.773 -1.1784 -0.0986  0.7510
14666TIP3    H244881  10.132   6.335  10.626 -0.4382 -2.1565  0.2329
14667TIP3   OH244882   2.704   6.170  10.021  0.3402  0.0274 -0.0098
14667TIP3    H144883   2.765   6.241  10.001 -1.2839  1.9188  1.3170
14667TIP3    H244884   2.679   6.186  10.112 -2.6111 -0.2252 -0.6962
14668TIP3   OH244885   9.635   3.938   4.797 -0.1632  0.3537  0.2282
14668TIP3    H144886   9.641   3.857   4.747 -2.0853  0.8766 -0.9887
14668TIP3    H244887   9.699   3.996   4.757  0.5780 -0.2499  0.5156
14669TIP3   OH244888   9.799   5.548   5.359 -0.0170  0.6161  0.2930
14669TIP3    H144889   9.811   5.634   5.401 -1.9035  1.3819 -0.6431
14669TIP3    H244890   9.738   5.565   5.287  0.3421 -1.3471 -0.5250
14670TIP3   OH244891   4.957   9.559   8.610 -0.0239 -0.9171  0.0519
14670TIP3    H144892   5.033   9.501   8.618 -0.1286 -0.9265  1.1240
14670TIP3    H244893   4.926   9.570   8.700  1.7884  3.2350  0.3942
14671TIP3   OH244894   4.048   0.251   8.111  0.3075  0.4492 -0.0734
14671TIP3    H144895   4.023   0.159   8.115 -1.7296  0.9945  0.9978
14671TIP3    H244896   4.047   0.281   8.202 -2.5519  2.3290 -0.5941
14672TIP3   OH244897   5.916   2.371  10.632  0.3917  0.8386  0.2384
14672TIP3    H144898   5.933   2.279  10.650 -3.1056 -0.2506 -1.1228
14672TIP3    H244899   5.894   2.409  10.717 -2.7878 -0.8778  0.3211
14673TIP3   OH244900   0.247   0.122   5.099 -0.1931 -0.1021 -0.2772
14673TIP3    H144901   0.167   0.082   5.133 -0.0496 -0.4745 -0.3728
14673TIP3    H244902   0.269   0.070   5.022  0.0039  0.1542 -0.3951
14674TIP3   OH244903  10.071   3.687   5.913  0.0348 -0.4235 -0.7115
14674TIP3    H144904   9.998   3.744   5.937  1.0351  1.3317 -1.6672
14674TIP3    H244905  10.143   3.746   5.893  1.3689 -2.0602 -1.0284
14675TIP3   OH244906   9.816   0.551   4.747  0.9338 -0.4056  0.1913
14675TIP3    H144907   9.873   0.622   4.716 -0.1949  0.4699  0.0786
14675TIP3    H244908   9.830   0.480   4.683  0.1302  0.6641 -1.2204
14676TIP3   OH244909   3.522   9.785   6.707 -0.3831 -0.0323  0.2706
14676TIP3    H144910   3.441   9.766   6.754 -0.8102  0.3371 -0.3117
14676TIP3    H244911   3.517   9.731   6.628 -0.0244 -0.0722  0.2733
14677TIP3   OH244912   6.646   4.721   3.031  0.2166  0.2383 -0.1224
14677TIP3    H144913   6.738   4.697   3.043  0.2833  0.0992 -0.8517
14677TIP3    H244914   6.621   4.680   2.948 -0.9923 -1.1194  0.8734
14678TIP3   OH244915   2.545   6.723   7.411  0.3691  0.0433 -0.6253
14678TIP3    H144916   2.559   6.767   7.495  1.8865 -0.7036 -0.4520
14678TIP3    H244917   2.462   6.677   7.422  1.0324 -0.8803  0.8708
14679TIP3   OH244918  10.398   5.009   5.681  0.4544 -0.1446 -0.0183
14679TIP3    H144919  10.392   5.078   5.746  0.9499 -1.3028  1.3125
14679TIP3    H244920  10.459   4.945   5.719  0.2281 -1.1825 -1.3147
14680TIP3   OH244921   5.294   0.401   5.901 -0.4356 -0.5178 -0.3467
14680TIP3    H144922   5.273   0.442   5.985 -0.5680 -1.3900  0.0634
14680TIP3    H244923   5.389   0.406   5.894 -0.5276  0.7786 -0.7964
14681TIP3   OH244924   0.836   3.776   2.887 -0.3019  0.0492  0.1097
14681TIP3    H144925   0.846   3.681   2.881  0.0279  0.1115 -0.4680
14681TIP3    H244926   0.751   3.789   2.929 -1.5121 -0.5169 -2.0089
14682TIP3   OH244927   7.912   2.229   2.375 -0.6438  0.0923 -0.2092
14682TIP3    H144928   7.976   2.290   2.338  0.9173 -0.9827  0.6023
14682TIP3    H244929   7.829   2.278   2.376  0.4784  2.0860  0.1442
14683TIP3   OH244930   0.581   0.600   5.235 -0.0925  0.2380  0.4213
14683TIP3    H144931   0.513   0.637   5.291  0.1057  1.3713 -0.0766
14683TIP3    H244932   0.638   0.673   5.214  1.1877 -0.6575  0.6626
14684TIP3   OH244933   7.018  10.335   3.767  0.5661  0.4966 -0.1016
14684TIP3    H144934   7.069  10.411   3.794  2.0425 -0.7110  0.6248
14684TIP3    H244935   6.928  10.357   3.792  1.0367  1.8024  0.5224
14685TIP3   OH244936   6.748   1.337   7.997  0.2562 -0.3386  0.2905
14685TIP3    H144937   6.823   1.308   8.048 -0.6451 -1.2454  1.1522
14685TIP3    H244938   6.766   1.429   7.977  1.5595 -0.5284  0.5056
14686TIP3   OH244939   1.447   9.861   1.155  0.0660  0.0976 -0.3377
14686TIP3    H144940   1.392   9.904   1.089  1.1718 -0.2042 -1.4920
14686TIP3    H244941   1.505   9.930   1.186  0.4898 -0.0771 -0.7262
14687TIP3   OH244942   2.034   9.700   2.138  0.7102 -0.3815 -0.4731
14687TIP3    H144943   2.108   9.752   2.168 -0.5473  1.5610 -0.5401
14687TIP3    H244944   2.007   9.742   2.057 -0.6697 -0.8465 -0.2761
14688TIP3   OH244945   0.184   0.737   5.019  0.0627  0.1404 -0.4025
14688TIP3    H144946   0.111   0.703   4.968  1.0605 -1.3008 -0.9411
14688TIP3    H244947   0.257   0.741   4.956  1.0123 -0.5623  0.6261
14689TIP3   OH244948   8.010   1.067   6.601  0.2855  0.8235  0.0806
14689TIP3    H144949   8.062   1.146   6.581  2.1400 -0.0796  1.1191
14689TIP3    H244950   8.070   0.994   6.585 -0.5422 -0.2616  1.7003
14690TIP3   OH244951  10.787   0.856   7.741  0.1042 -0.2646  0.0506
14690TIP3    H144952  10.757   0.843   7.831  0.7735  1.9726  0.6580
14690TIP3    H244953  10.881   0.839   7.745  0.1661  0.0239 -0.2022
14691TIP3   OH244954   7.325   1.550   7.899  0.3684 -0.5293 -0.0376
14691TIP3    H144955   7.338   1.455   7.907 -0.7348 -0.7330 -0.4878
14691TIP3    H244956   7.396   1.588   7.950  0.4032 -1.6101  0.7559
14692TIP3   OH244957   8.149   6.036   5.420 -0.1345  0.4733  0.2244
14692TIP3    H144958   8.084   5.972   5.451  1.5472 -0.6132  1.6565
14692TIP3    H244959   8.192   5.992   5.347 -1.9861  1.8190 -1.7919
14693TIP3   OH244960   7.759   9.167   0.209  0.4198  0.2913 -0.4085
14693TIP3    H144961   7.690   9.103   0.225  1.1562 -0.3893  0.0487
14693TIP3    H244962   7.781   9.156   0.116  0.4477 -0.0065 -0.3652
14694TIP3   OH244963   6.637   8.903   9.732 -0.0342 -0.3116  0.4139
14694TIP3    H144964   6.628   8.827   9.790 -3.4032  0.9427  1.7407
14694TIP3    H244965   6.658   8.976   9.790  0.3994  0.3080 -0.4897
14695TIP3   OH244966   8.445   7.414  10.545  0.3398  0.0641 -0.1791
14695TIP3    H144967   8.443   7.471  10.622  0.2883 -1.2809  0.8609
14695TIP3    H244968   8.390   7.459  10.480  0.9234  1.5516  0.3083
14696TIP3   OH244969   5.438   7.148   6.477 -0.2222 -0.1429  0.5302
14696TIP3    H144970   5.350   7.148   6.514  0.1352  0.8401  1.4579
14696TIP3    H244971   5.451   7.059   6.445 -2.3045  0.2048 -1.5459
14697TIP3   OH244972  10.074   4.410   4.944  0.6036 -0.5400 -0.4411
14697TIP3    H144973  10.090   4.504   4.932 -0.8831  0.1657  2.3934
14697TIP3    H244974  10.119   4.388   5.026 -0.3360 -1.9581 -0.2735
14698TIP3   OH244975   6.283   4.761   5.406  0.7915 -0.4515 -0.2907
14698TIP3    H144976   6.302   4.730   5.495  3.0255 -0.4168 -0.7105
14698TIP3    H244977   6.315   4.691   5.349  1.0000  0.3115 -1.1241
14699TIP3   OH244978   8.799   2.555   9.773  0.1451 -0.5406  0.6564
14699TIP3    H144979   8.798   2.522   9.683 -0.5420  1.0763  0.0342
14699TIP3    H244980   8.803   2.650   9.764  2.5705 -0.3921  2.3866
14700TIP3   OH244981   6.866   4.424   4.035 -0.4129  0.0702 -0.0080
14700TIP3    H144982   6.834   4.472   3.959 -1.1416  0.3406  0.4637
14700TIP3    H244983   6.943   4.377   4.002 -0.1765  0.8954 -0.6812
14701TIP3   OH244984   3.468   4.313   2.945 -0.3103  0.3934  0.1836
14701TIP3    H144985   3.376   4.334   2.932 -0.1919 -0.4245 -2.8017
14701TIP3    H244986   3.474   4.219   2.932  0.9647  0.4643  0.0308
14702TIP3   OH244987   8.684   5.479   4.620  0.5881  0.3007 -0.1314
14702TIP3    H144988   8.625   5.419   4.664  2.3778 -1.5390 -0.0922
14702TIP3    H244989   8.651   5.566   4.642  0.0217 -0.5811  2.8701
14703TIP3   OH244990   0.607   7.828   6.121  0.3542 -0.1583  0.8377
14703TIP3    H144991   0.592   7.834   6.216  1.0754 -0.8868  1.0064
14703TIP3    H244992   0.672   7.759   6.111  0.0446 -0.3167 -0.2228
14704TIP3   OH244993   5.147   8.874   2.229 -0.3531 -0.3414  0.1047
14704TIP3    H144994   5.053   8.866   2.241 -0.4059  1.2903  0.9676
14704TIP3    H244995   5.172   8.952   2.278  1.2920 -0.1410 -0.9616
14705TIP3   OH244996   3.207   8.321   7.629 -0.1624 -0.1898  0.4286
14705TIP3    H144997   3.207   8.238   7.676 -0.6376 -0.6714 -0.3996
14705TIP3    H244998   3.300   8.345   7.623  0.1038 -1.3489 -0.4847
14706TIP3   OH244999   7.404   7.505   1.843 -0.3980 -0.7251  0.0869
14706TIP3    H145000   7.453   7.554   1.909 -0.6334 -0.3269 -0.0271
14706TIP3    H245001   7.378   7.424   1.886  1.1405 -1.3647 -0.1213
14707TIP3   OH245002   4.404   0.527   5.332  0.1462  0.8162  0.1944
14707TIP3    H145003   4.495   0.520   5.306  0.3242 -0.8430  1.1318
14707TIP3    H245004   4.407   0.537   5.428 -0.6135  2.5828  0.0752
14708TIP3   OH245005   3.757   1.775   4.620  0.6304  0.9352  0.1187
14708TIP3    H145006   3.773   1.692   4.664  0.1004  1.0249  0.4959
14708TIP3    H245007   3.665   1.795   4.640  0.2499  0.7949 -1.3234
14709TIP3   OH245008   7.255  10.135   5.531  0.2584 -0.0924  0.2943
14709TIP3    H145009   7.339  10.091   5.521 -0.3678 -1.0180 -1.2842
14709TIP3    H245010   7.191  10.065   5.526 -0.6390  0.6702  0.8405
14710TIP3   OH245011   5.918   4.031   8.377 -0.0848  0.0209  0.0441
14710TIP3    H145012   5.846   4.069   8.327 -0.9632 -1.9596 -0.3198
14710TIP3    H245013   5.947   4.101   8.435 -3.9128  0.3306  1.9282
14711TIP3   OH245014   6.096   3.694  10.690 -0.2731  0.5067  0.0207
14711TIP3    H145015   6.138   3.642  10.759 -0.5019  0.8987  0.4584
14711TIP3    H245016   6.167   3.714  10.629  0.0221  0.5129  0.3617
14712TIP3   OH245017   7.080   9.374   4.094  0.1216  0.4927 -0.0670
14712TIP3    H145018   7.107   9.451   4.144 -2.6663  0.1190  2.2790
14712TIP3    H245019   7.020   9.410   4.027  0.4021  0.5487 -0.2908
14713TIP3   OH245020   5.904   0.889   3.626 -0.1393 -0.0780  0.2002
14713TIP3    H145021   5.925   0.880   3.719 -0.2751  1.6683  0.4405
14713TIP3    H245022   5.989   0.905   3.584 -0.3573  2.6336  0.5711
14714TIP3   OH245023   7.656   7.204   2.032  0.0848  0.3774  0.4070
14714TIP3    H145024   7.696   7.258   1.964 -0.3082  0.8060  0.5135
14714TIP3    H245025   7.714   7.211   2.107  2.0431 -2.2886 -0.6907
14715TIP3   OH245026   1.723   5.093   9.906  0.6905 -0.1666  0.4029
14715TIP3    H145027   1.721   5.064   9.997 -1.0391 -2.0606 -0.1682
14715TIP3    H245028   1.728   5.012   9.855  1.4792  0.8429 -1.2038
14716TIP3   OH245029   1.263   3.966   6.327  0.3408  0.8764  0.0832
14716TIP3    H145030   1.299   3.996   6.243 -3.0110  0.8966 -1.5276
14716TIP3    H245031   1.170   3.954   6.309 -0.0143 -2.0117  3.0769
14717TIP3   OH245032   5.445   2.115   6.988  0.0976 -0.1080 -0.6545
14717TIP3    H145033   5.541   2.120   6.989  0.0616  0.6739 -0.7726
14717TIP3    H245034   5.419   2.121   7.079  0.0921  1.2991 -0.7343
14718TIP3   OH245035   1.864   7.127   2.416 -0.3469 -0.2916  0.4884
14718TIP3    H145036   1.953   7.142   2.385 -0.2930  0.8732  1.1308
14718TIP3    H245037   1.867   7.042   2.458  0.1368 -0.8475 -0.6332
14719TIP3   OH245038   3.336   5.685  10.820  0.0806 -0.1218 -0.0688
14719TIP3    H145039   3.296   5.737  10.751  0.7025  0.6516  0.1413
14719TIP3    H245040   3.427   5.673  10.792 -0.4598 -2.6442 -1.0034
14720TIP3   OH245041   2.736   8.519   5.922 -0.1485  0.3427  0.4353
14720TIP3    H145042   2.799   8.562   5.865 -0.1738 -0.6520 -0.3722
14720TIP3    H245043   2.684   8.590   5.959  1.1571  1.1516  0.7966
14721TIP3   OH245044   6.480   6.456   8.361  0.0448  0.2164 -0.3804
14721TIP3    H145045   6.553   6.396   8.344  1.0150  1.3884 -0.5176
14721TIP3    H245046   6.403   6.409   8.330  0.8487 -0.7110 -1.0591
14722TIP3   OH245047   3.903   7.185   1.906  0.6703  0.4689  0.6677
14722TIP3    H145048   3.988   7.169   1.947  1.2081  2.5670  0.4732
14722TIP3    H245049   3.901   7.124   1.832  2.1181  0.5288  0.5475
14723TIP3   OH245050   4.874   6.111   6.071  0.0449 -0.3849  0.1042
14723TIP3    H145051   4.823   6.094   6.151  0.1550  0.8504  0.4540
14723TIP3    H245052   4.953   6.059   6.081 -0.0831 -0.4774  0.6600
14724TIP3   OH245053   4.136   2.836   5.111  0.4281 -0.7411 -0.2482
14724TIP3    H145054   4.179   2.877   5.186  0.6723 -0.2190 -0.6699
14724TIP3    H245055   4.051   2.807   5.145  0.2932  0.0246  0.0825
14725TIP3   OH245056   0.016   7.449   0.331  0.3750 -0.3034 -0.1865
14725TIP3    H145057   0.064   7.384   0.382  0.1298 -0.6714 -0.4200
14725TIP3    H245058  -0.067   7.406   0.310  0.8731 -0.5478 -1.7616
14726TIP3   OH245059   4.353   5.627   4.032 -0.1131 -0.3428  0.5460
14726TIP3    H145060   4.313   5.549   3.996 -1.2267  0.2311  0.4946
14726TIP3    H245061   4.444   5.602   4.049 -0.2535 -1.4050 -0.1741
14727TIP3   OH245062   6.466   2.523   6.016 -0.5309  0.1330 -0.2282
14727TIP3    H145063   6.444   2.523   5.923 -1.8186  1.3395  0.0439
14727TIP3    H245064   6.522   2.600   6.027 -1.8956  1.0780  0.2936
14728TIP3   OH245065   0.601   8.898   5.110  0.3163 -0.6556  0.6435
14728TIP3    H145066   0.534   8.961   5.137  0.1799 -0.6113  0.2214
14728TIP3    H245067   0.569   8.814   5.142 -0.2130 -0.7119  0.0019
14729TIP3   OH245068   6.931   0.883   5.852  0.2499  0.5624 -0.2792
14729TIP3    H145069   6.891   0.796   5.859 -0.6467  0.8501 -1.4997
14729TIP3    H245070   7.024   0.867   5.870 -0.2149 -0.2867  1.6010
14730TIP3   OH245071   3.630   3.104   7.784  0.3620 -0.1521  0.2002
14730TIP3    H145072   3.566   3.033   7.782 -2.0116  1.8588 -0.9976
14730TIP3    H245073   3.601   3.161   7.855  3.5458 -1.3077  2.7271
14731TIP3   OH245074  10.678   1.910   6.757  0.0501 -0.1565  0.1428
14731TIP3    H145075  10.680   1.967   6.681  0.0045  0.8087  0.8437
14731TIP3    H245076  10.762   1.864   6.755 -0.2098 -0.6221 -0.8221
14732TIP3   OH245077  10.874   5.519   1.199 -0.4023  0.5470  0.4246
14732TIP3    H145078  10.961   5.481   1.189  0.3702  2.0611  0.9713
14732TIP3    H245079  10.825   5.490   1.122  0.5604 -0.3628  0.1353
14733TIP3   OH245080   5.600   3.410   4.511 -0.4782 -0.6254 -0.3108
14733TIP3    H145081   5.545   3.455   4.447  0.0391 -0.4936 -0.6686
14733TIP3    H245082   5.670   3.370   4.460 -0.0311 -0.4802  0.1700
14734TIP3   OH245083   3.214   0.579   0.776 -0.0538  0.0910 -0.3868
14734TIP3    H145084   3.282   0.620   0.722 -0.4763  0.6927 -0.4758
14734TIP3    H245085   3.188   0.501   0.727  0.4110 -0.0119 -0.4655
14735TIP3   OH245086   4.267   7.746   8.973  0.7357  0.0488 -0.3517
14735TIP3    H145087   4.258   7.661   9.017 -0.9535  0.4328  0.1214
14735TIP3    H245088   4.350   7.781   9.006 -0.6745  0.5594  3.0929
14736TIP3   OH245089   7.896   1.954   5.196 -0.2445  0.2164  0.4744
14736TIP3    H145090   7.896   1.861   5.217  2.4025 -0.1709 -0.8489
14736TIP3    H245091   7.832   1.962   5.124  1.5303 -1.1873 -1.3808
14737TIP3   OH245092   1.346   1.486   3.222 -0.5861 -0.0661  0.9025
14737TIP3    H145093   1.295   1.556   3.182  0.0223 -0.1008  0.0211
14737TIP3    H245094   1.387   1.526   3.298 -1.1207  0.2307  1.0378
14738TIP3   OH245095   9.912   0.763   5.788 -0.3316 -0.4103  0.7570
14738TIP3    H145096   9.915   0.716   5.704  0.5885  0.1821  0.4508
14738TIP3    H245097   9.960   0.706   5.848  0.9142  0.1643  0.3506
14739TIP3   OH245098   3.913   9.395   7.423 -0.4065  0.2814 -0.8383
14739TIP3    H145099   3.977   9.460   7.451 -1.2551  0.7044  0.1741
14739TIP3    H245100   3.868   9.436   7.349  0.8819 -0.2774 -1.9968
14740TIP3   OH245101   1.335   5.393   1.406 -0.0243  0.6683 -0.2312
14740TIP3    H145102   1.291   5.398   1.321  0.1792 -0.6526 -0.4351
14740TIP3    H245103   1.314   5.476   1.448 -1.6926  0.5845 -0.8097
14741TIP3   OH245104  10.034   9.781  10.326 -0.0830 -0.1993 -0.0770
14741TIP3    H145105  10.110   9.729  10.351  0.1527 -0.4937 -1.3449
14741TIP3    H245106  10.028   9.849  10.394  0.4275 -1.0265  0.8264
14742TIP3   OH245107   9.369   9.780   8.660 -0.5650  0.0666 -0.1725
14742TIP3    H145108   9.439   9.743   8.606  0.2244  1.8367 -0.4178
14742TIP3    H245109   9.359   9.718   8.732 -0.3135 -1.3581 -1.3182
14743TIP3   OH245110  10.562   5.350   9.232 -0.2516  0.5664  0.6706
14743TIP3    H145111  10.621   5.282   9.265 -1.0451  0.3273  1.6733
14743TIP3    H245112  10.515   5.380   9.310 -0.3223  1.8785  0.1475
14744TIP3   OH245113   9.140   2.860   0.884  0.5820 -0.1435  0.2639
14744TIP3    H145114   9.132   2.884   0.977  1.9915  1.1887  0.0834
14744TIP3    H245115   9.231   2.882   0.862 -0.1236  0.9323 -1.7853
14745TIP3   OH245116   8.201   5.135   3.985 -0.4636  0.2141  0.4892
14745TIP3    H145117   8.296   5.126   3.970 -0.3270  2.1913 -0.0361
14745TIP3    H245118   8.162   5.072   3.925  0.5062 -0.5419  0.6164
14746TIP3   OH245119   0.193   7.378  10.853  0.1754  0.0916  0.0761
14746TIP3    H145120   0.161   7.458  10.895  0.4867  1.0686 -1.4694
14746TIP3    H245121   0.182   7.310  10.919 -2.2385  0.9561  0.6701
14747TIP3   OH245122   0.182   0.984   3.769 -0.0909 -0.4462 -0.2086
14747TIP3    H145123   0.133   0.902   3.775  1.4148 -1.3752  0.0002
14747TIP3    H245124   0.251   0.975   3.835 -0.7434  1.6170  0.8446
14748TIP3   OH245125   5.531   0.068   5.367 -0.2186  1.0806  0.6320
14748TIP3    H145126   5.590   0.085   5.441  1.4952 -0.7217 -0.2228
14748TIP3    H245127   5.454   0.122   5.385  0.7459  1.8204  2.9652
14749TIP3   OH245128   4.225   9.564   3.414 -0.0381 -0.4015 -0.2127
14749TIP3    H145129   4.134   9.537   3.419 -0.2020  0.0636 -0.5880
14749TIP3    H245130   4.271   9.488   3.378  0.0487 -1.3264  1.7199
14750TIP3   OH245131   6.467   8.615   6.088  0.3695 -0.3073 -0.0787
14750TIP3    H145132   6.477   8.651   6.176  1.0765  1.0794 -0.6775
14750TIP3    H245133   6.502   8.684   6.031 -0.2017 -1.1159 -1.4469
14751TIP3   OH245134   9.824   9.336   4.189  0.2321 -0.1195  0.1619
14751TIP3    H145135   9.872   9.416   4.166 -0.7525  0.5065  0.2221
14751TIP3    H245136   9.746   9.339   4.134  0.4011 -1.2803 -0.1549
14752TIP3   OH245137   2.099   1.049   9.018  0.5888 -0.3005  0.1370
14752TIP3    H145138   2.155   1.115   9.058 -0.7970  1.1803 -0.2460
14752TIP3    H245139   2.044   1.098   8.957 -0.9771 -1.7041  0.3319
14753TIP3   OH245140   7.706   6.238  10.831  0.6554 -0.2622 -0.2816
14753TIP3    H145141   7.639   6.306  10.832  1.1252  0.2505 -1.5205
14753TIP3    H245142   7.657   6.156  10.842 -0.1873  0.1093 -1.1332
14754TIP3   OH245143   4.735   9.574   1.457 -0.7622 -0.6980  0.1338
14754TIP3    H145144   4.760   9.537   1.542 -1.6221  0.1808  0.7904
14754TIP3    H245145   4.640   9.587   1.464 -0.4810  2.0186  0.1427
14755TIP3   OH245146   3.740   3.920   5.205  0.3718  0.0676  0.1382
14755TIP3    H145147   3.709   3.925   5.114 -0.5017  1.9283  0.4841
14755TIP3    H245148   3.692   3.990   5.250  3.5602  1.7777  1.1890
14756TIP3   OH245149   2.836  10.658   2.568  0.1309 -0.0910 -0.1832
14756TIP3    H145150   2.816  10.570   2.599 -1.0612  0.3327  0.2900
14756TIP3    H245151   2.881  10.701   2.641 -1.5742  0.5043  0.5602
14757TIP3   OH245152   4.627   0.425   5.545  0.4100  0.0174  0.3729
14757TIP3    H145153   4.720   0.407   5.559  0.2417 -0.0902  1.4301
14757TIP3    H245154   4.595   0.349   5.496  0.5026 -0.8478  1.5930
14758TIP3   OH245155   7.091  10.510   8.513 -0.7188 -0.0486 -0.2522
14758TIP3    H145156   7.102  10.523   8.419 -2.2062 -1.0047 -0.5961
14758TIP3    H245157   7.086  10.599   8.549 -2.6674  0.3727 -1.4274
14759TIP3   OH245158   8.562   9.260   2.187  0.2746  0.1353  0.0176
14759TIP3    H145159   8.555   9.167   2.164 -0.0768  0.2979 -0.5406
14759TIP3    H245160   8.656   9.277   2.190  0.3350 -0.0699 -0.5802
14760TIP3   OH245161   7.263   3.893   9.246 -0.2384  0.3410  0.3006
14760TIP3    H145162   7.212   3.867   9.322 -0.7061 -2.1200 -0.7722
14760TIP3    H245163   7.354   3.897   9.278 -0.2623 -1.8603  0.7518
14761TIP3   OH245164   5.884   4.347   1.430  0.0708  0.4780 -0.1797
14761TIP3    H145165   5.927   4.403   1.495 -0.9456  0.4907  0.5225
14761TIP3    H245166   5.896   4.258   1.462  0.4463  0.4035 -0.5252
14762TIP3   OH245167   2.678   4.973   4.852  0.0585  0.5746  0.5420
14762TIP3    H145168   2.652   5.039   4.788  1.1289 -1.6598 -2.3937
14762TIP3    H245169   2.603   4.914   4.857  0.0345  0.6578  1.3047
14763TIP3   OH245170   9.585   4.132  10.861  0.4684 -0.0512 -0.6430
14763TIP3    H145171   9.636   4.114  10.940  0.1132 -0.3796 -0.4827
14763TIP3    H245172   9.625   4.077  10.793  0.9324  0.4216 -0.7572
14764TIP3   OH245173   0.772   9.645   7.095 -0.4171 -0.2759 -0.5169
14764TIP3    H145174   0.718   9.722   7.074 -1.3655 -0.7989 -0.0706
14764TIP3    H245175   0.717   9.593   7.153 -0.0483 -1.6295 -1.3389
14765TIP3   OH245176   7.230   9.352   9.429  0.3689  0.0207 -0.1850
14765TIP3    H145177   7.278   9.378   9.350  1.8389 -0.2133  0.6005
14765TIP3    H245178   7.223   9.257   9.423 -1.1154  0.1461 -0.8880
14766TIP3   OH245179   7.547   6.700   7.104 -0.1274  0.3727 -0.8416
14766TIP3    H145180   7.642   6.699   7.094  0.0412 -0.2318  0.4896
14766TIP3    H245181   7.525   6.609   7.125 -0.8753  0.6895 -0.2032
14767TIP3   OH245182   3.629   1.196   2.366  0.1243 -0.3496  0.1666
14767TIP3    H145183   3.644   1.290   2.380 -1.8114  0.3784 -2.1390
14767TIP3    H245184   3.553   1.192   2.308  0.0984 -3.3735  0.2868
14768TIP3   OH245185   8.992   8.387   3.742 -0.4109  0.4949 -0.8428
14768TIP3    H145186   8.897   8.383   3.753 -0.2709  2.0941  1.5604
14768TIP3    H245187   9.008   8.475   3.708  0.3391  1.1727  1.1640
14769TIP3   OH245188   1.902   1.124  10.013  0.2917  0.0760  0.6458
14769TIP3    H145189   1.921   1.184   9.940 -1.0279 -0.8836 -0.5412
14769TIP3    H245190   1.895   1.181  10.089  1.1428  1.1801 -0.0672
14770TIP3   OH245191   2.985   7.439   6.750  0.2684 -0.2561  0.0668
14770TIP3    H145192   3.059   7.436   6.811  0.6619 -0.8311 -0.4219
14770TIP3    H245193   2.995   7.360   6.697 -0.7437 -0.3746  0.0366
14771TIP3   OH245194   2.583   3.009   6.145  0.0530  0.2706  0.3189
14771TIP3    H145195   2.562   2.919   6.171  0.5538  0.3704  1.1179
14771TIP3    H245196   2.657   3.000   6.086 -0.3911  0.1154 -0.2291
14772TIP3   OH245197   3.453   2.060   7.719 -0.1284 -0.1614  0.0143
14772TIP3    H145198   3.391   2.118   7.675  0.5473  0.4915 -0.1013
14772TIP3    H245199   3.402   1.982   7.741 -0.6915 -0.1422 -1.1552
14773TIP3   OH245200   4.278   2.020   0.056  0.5288  0.2263  0.2481
14773TIP3    H145201   4.285   1.937   0.102 -1.5639  0.1367  0.4838
14773TIP3    H245202   4.300   2.086   0.122  0.4351 -0.0522  0.5610
14774TIP3   OH245203   0.143   9.472   1.104 -0.1027  0.1740 -0.2117
14774TIP3    H145204   0.225   9.429   1.130  0.4470  0.7411 -0.9704
14774TIP3    H245205   0.151   9.561   1.138  0.3142  0.7125 -1.6530
14775TIP3   OH245206   2.242   9.080   4.552  0.6087 -0.3809  0.5363
14775TIP3    H145207   2.333   9.088   4.580  0.8369 -2.8316  0.7590
14775TIP3    H245208   2.212   8.999   4.594 -0.7099 -1.2994 -1.9890
14776TIP3   OH245209   5.852  10.744   4.345 -0.1286  0.2599 -0.3981
14776TIP3    H145210   5.913  10.817   4.336  0.2339 -0.0457 -0.4661
14776TIP3    H245211   5.817  10.753   4.434  0.6159 -0.0126 -0.0730
14777TIP3   OH245212   0.384   9.139   2.569  0.4138  0.1084  0.0770
14777TIP3    H145213   0.345   9.053   2.558  0.8165 -0.0712  0.0442
14777TIP3    H245214   0.369   9.184   2.486  0.6124 -0.0954 -0.0687
14778TIP3   OH245215  10.151   4.465   8.904 -0.2878 -0.4415  0.0450
14778TIP3    H145216  10.100   4.505   8.974 -0.6673  1.5612 -1.2774
14778TIP3    H245217  10.089   4.453   8.832  0.5284 -0.4819 -0.6713
14779TIP3   OH245218   5.653   7.154   3.235 -0.0309 -0.6994 -0.3827
14779TIP3    H145219   5.617   7.209   3.165 -0.3161 -0.1235  0.2033
14779TIP3    H245220   5.727   7.205   3.268  0.2653 -1.0930 -0.4351
14780TIP3   OH245221   2.514   0.845   5.983 -0.3690 -0.4866  0.1034
14780TIP3    H145222   2.607   0.864   5.993 -0.2000 -0.8852 -0.6205
14780TIP3    H245223   2.475   0.928   5.955  0.0304 -0.6729 -1.0833
14781TIP3   OH245224   7.737   5.911   3.099 -0.1306 -0.0342  0.4029
14781TIP3    H145225   7.832   5.899   3.106  0.3889  1.6344 -2.3684
14781TIP3    H245226   7.727   5.997   3.059 -2.7831 -0.7453 -0.6620
14782TIP3   OH245227   6.213   8.184   2.684  0.0782 -1.1570  0.3186
14782TIP3    H145228   6.119   8.197   2.674  0.4666  1.3452 -0.6363
14782TIP3    H245229   6.221   8.116   2.751 -2.4017 -2.9174 -1.0354
14783TIP3   OH245230   4.597   4.128   5.277  0.1258 -0.4929  0.3831
14783TIP3    H145231   4.664   4.066   5.302  1.3742  1.4863  2.2938
14783TIP3    H245232   4.540   4.135   5.354  1.4352  2.3985  1.2482
14784TIP3   OH245233   8.145   1.938   8.625  0.3472  0.0822 -0.1221
14784TIP3    H145234   8.169   1.919   8.534 -2.0027  0.7938 -0.9410
14784TIP3    H245235   8.166   2.031   8.636 -4.0867  1.5033 -1.7212
14785TIP3   OH245236   3.859   0.503   5.854 -0.7495  0.4505  1.2563
14785TIP3    H145237   3.892   0.415   5.868 -0.3827  0.0553 -1.5835
14785TIP3    H245238   3.930   0.560   5.883 -0.8207 -0.1372  2.6999
14786TIP3   OH245239   1.376   1.291   3.705 -0.0747 -0.0340 -0.0779
14786TIP3    H145240   1.364   1.379   3.738  0.3773  0.8710 -2.1644
14786TIP3    H245241   1.287   1.256   3.694 -0.2764  0.4319  0.0707
14787TIP3   OH245242   2.096   6.960   8.435 -0.1364 -0.7645  0.4709
14787TIP3    H145243   2.151   6.888   8.466  1.3977  0.0912 -0.1342
14787TIP3    H245244   2.149   7.038   8.451 -1.1859  0.0957 -0.1677
14788TIP3   OH245245   6.986   6.812   6.370  0.1043 -0.4603  0.1571
14788TIP3    H145246   6.913   6.775   6.320 -0.3095  1.7012 -0.9383
14788TIP3    H245247   7.026   6.875   6.311  0.4322  1.2399  2.0943
14789TIP3   OH245248   4.436   4.083   2.129  0.1327 -0.5378 -0.0164
14789TIP3    H145249   4.342   4.086   2.113  0.1231 -0.8864 -0.0266
14789TIP3    H245250   4.447   4.018   2.198  0.5064 -1.6602 -1.0908
14790TIP3   OH245251   5.803   5.137   8.890  0.0089 -0.6044 -0.6827
14790TIP3    H145252   5.751   5.182   8.824 -0.3844  0.0220  0.0417
14790TIP3    H245253   5.885   5.116   8.846 -0.2588 -0.2155 -1.3724
14791TIP3   OH245254   9.443   6.639   1.818 -0.3141  0.0572  0.0699
14791TIP3    H145255   9.388   6.670   1.890 -0.0336 -0.7765  0.6541
14791TIP3    H245256   9.526   6.615   1.859  0.6979  1.7469 -0.8653
14792TIP3   OH245257  10.855  10.494   3.473  0.5298  0.4720 -0.2900
14792TIP3    H145258  10.939  10.461   3.506 -0.0971 -1.4022 -0.4685
14792TIP3    H245259  10.813  10.533   3.550  1.6648  1.7007 -0.2671
14793TIP3   OH245260   9.499   6.880   4.027  0.5990  0.1798  0.3394
14793TIP3    H145261   9.435   6.811   4.046  1.1261 -0.1937  0.7995
14793TIP3    H245262   9.580   6.849   4.067  1.8018 -0.6329 -2.4962
14794TIP3   OH245263   6.511   3.188  10.892  0.3396 -0.5440  0.1850
14794TIP3    H145264   6.603   3.167  10.882  0.2722 -0.5926 -0.3988
14794TIP3    H245265   6.474   3.175  10.804 -0.2359 -0.6173  0.4318
14795TIP3   OH245266   9.208   1.540   8.997 -0.4308 -0.2200 -0.5909
14795TIP3    H145267   9.225   1.610   8.934 -3.0141  1.1521  0.0627
14795TIP3    H245268   9.230   1.578   9.081 -0.3911 -0.7487 -0.3615
14796TIP3   OH245269   5.326   0.707  10.736 -0.0688  0.6894  0.6643
14796TIP3    H145270   5.397   0.686  10.797 -0.7394  1.7316  1.8890
14796TIP3    H245271   5.263   0.636  10.747 -0.1453  0.8254  1.1440
14797TIP3   OH245272   1.531   0.307   0.392 -0.2641 -0.3968 -0.0913
14797TIP3    H145273   1.454   0.289   0.447 -0.0719 -1.0737 -0.0341
14797TIP3    H245274   1.604   0.306   0.453 -0.2604  0.7929 -0.0585
14798TIP3   OH245275   3.057   2.672   8.874 -0.3503 -0.6766  0.0506
14798TIP3    H145276   3.046   2.763   8.901  0.2614 -0.1645 -1.3387
14798TIP3    H245277   2.984   2.656   8.814 -1.4032 -1.6373  1.5195
14799TIP3   OH245278   5.794   8.011   7.733 -0.5023  0.0203 -0.0442
14799TIP3    H145279   5.818   8.022   7.641 -1.1398  1.8864 -0.0161
14799TIP3    H245280   5.873   7.974   7.774  0.0864  0.0041 -1.1551
14800TIP3   OH245281   0.972   7.540   0.736 -0.0271 -0.1096  0.3795
14800TIP3    H145282   1.034   7.534   0.809 -1.6785 -0.6958  1.8036
14800TIP3    H245283   0.971   7.453   0.697  0.8932  0.2168 -0.4231
14801TIP3   OH245284   5.348   4.247   8.369  0.6135  0.0755 -0.4479
14801TIP3    H145285   5.348   4.276   8.460 -3.1235 -0.7801 -0.0419
14801TIP3    H245286   5.308   4.161   8.370  1.6973 -0.5584 -2.8021
14802TIP3   OH245287   9.888  10.238   7.773 -0.7383 -0.7061  0.1863
14802TIP3    H145288   9.796  10.254   7.793 -0.9655 -1.8905  0.1608
14802TIP3    H245289   9.937  10.282   7.843 -1.4081 -2.1047  1.5876
14803TIP3   OH245290   9.956   8.334   4.979  0.4079 -0.1943  0.2142
14803TIP3    H145291  10.032   8.279   4.961  0.6627  0.3628 -0.4505
14803TIP3    H245292   9.965   8.409   4.920 -0.2302  0.2869  0.7015
14804TIP3   OH245293   9.063   1.979   1.332  0.4223 -0.1538  0.0678
14804TIP3    H145294   9.032   2.065   1.302 -1.5793 -1.1667 -1.0182
14804TIP3    H245295   9.053   1.983   1.427  2.1413  1.4081  0.2473
14805TIP3   OH245296   8.775   5.169   6.644 -0.1143 -0.3842 -0.0770
14805TIP3    H145297   8.708   5.220   6.690  0.8137 -0.6357  1.5979
14805TIP3    H245298   8.736   5.082   6.635  0.3670 -0.8461  1.8930
14806TIP3   OH245299   0.603   8.476   6.981  0.0472  0.3458 -0.1110
14806TIP3    H145300   0.557   8.539   7.037  0.1729 -0.3258  0.7612
14806TIP3    H245301   0.539   8.408   6.962 -0.0477  0.6498 -0.9492
14807TIP3   OH245302   3.678   6.151   2.664  1.0867 -0.0040  0.0426
14807TIP3    H145303   3.724   6.176   2.744  2.1713  2.1881 -1.1688
14807TIP3    H245304   3.595   6.199   2.668  1.4106  0.6115 -0.4029
14808TIP3   OH245305   7.463   1.889   2.690 -0.5943  0.4714 -0.1116
14808TIP3    H145306   7.406   1.951   2.644 -1.3540  0.1411  0.3501
14808TIP3    H245307   7.470   1.814   2.631  0.7832  1.2048 -0.9141
14809TIP3   OH245308   4.595   1.161   9.077 -0.5491  0.3910  0.2611
14809TIP3    H145309   4.605   1.100   9.004  2.8074  0.2892  0.6787
14809TIP3    H245310   4.532   1.118   9.135  2.0044 -3.0630  0.7885
14810TIP3   OH245311   8.724   6.679   6.820 -0.0993 -0.0755 -0.0275
14810TIP3    H145312   8.654   6.744   6.806 -0.3397 -0.5195 -1.0178
14810TIP3    H245313   8.680   6.595   6.809 -0.2423 -0.5363  3.2724
14811TIP3   OH245314   6.284   5.280   4.377 -0.4995  0.4805  0.4362
14811TIP3    H145315   6.215   5.267   4.442 -0.0407 -0.8084  0.6868
14811TIP3    H245316   6.246   5.250   4.295 -0.1519 -0.5195  0.6296
14812TIP3   OH245317   2.334   8.067   9.940 -0.6535 -0.8378 -0.3263
14812TIP3    H145318   2.392   8.142   9.945 -0.0276 -1.3297  0.0156
14812TIP3    H245319   2.321   8.052   9.846 -1.1807 -0.0211 -0.3942
14813TIP3   OH245320   1.797   6.531  10.126  0.7677 -0.0493 -0.1943
14813TIP3    H145321   1.845   6.599  10.079  2.3613  0.3630  1.8905
14813TIP3    H245322   1.747   6.578  10.193 -0.8955 -0.6769 -0.9338
14814TIP3   OH245323   4.590   2.366   3.880  0.4134 -0.0673 -0.6839
14814TIP3    H145324   4.528   2.373   3.808 -0.1763  0.1840 -0.1628
14814TIP3    H245325   4.580   2.276   3.913 -0.1410  0.1669 -0.1959
14815TIP3   OH245326   7.531   1.653   7.449 -0.1977 -0.4534  0.4024
14815TIP3    H145327   7.473   1.641   7.525  0.1548 -0.4559  0.6739
14815TIP3    H245328   7.607   1.700   7.485 -0.1927 -0.1378 -0.0228
14816TIP3   OH245329   7.681   6.556   3.395 -0.3821 -0.4201 -0.7985
14816TIP3    H145330   7.646   6.615   3.463 -1.2046 -1.3419 -0.3904
14816TIP3    H245331   7.703   6.476   3.442 -0.8893 -1.0485 -1.6087
14817TIP3   OH245332   6.926   5.056   4.694  0.4016 -0.8557  0.0896
14817TIP3    H145333   6.869   5.090   4.763 -0.4946 -0.4228 -0.8383
14817TIP3    H245334   6.883   5.081   4.612  2.1912 -0.0531 -0.6640
14818TIP3   OH245335   2.687   4.287   9.035 -0.2782  0.3377  0.2889
14818TIP3    H145336   2.738   4.285   9.116  0.6495 -2.7896 -0.2425
14818TIP3    H245337   2.752   4.284   8.965 -1.1252  0.8111 -0.5518
14819TIP3   OH245338   0.565   8.865  10.013 -0.6567  0.0398  0.2360
14819TIP3    H145339   0.620   8.904  10.082 -0.3101 -1.4766  0.8691
14819TIP3    H245340   0.603   8.778   9.999 -1.6352 -0.2343 -0.8298
14820TIP3   OH245341   8.823   9.250   0.438  0.2768 -0.0644 -0.2724
14820TIP3    H145342   8.748   9.272   0.383  0.1909 -0.9496 -0.5182
14820TIP3    H245343   8.896   9.299   0.399 -0.0214  0.2455 -0.4517
14821TIP3   OH245344   4.495   1.655   2.782  0.2218  0.1255  0.2404
14821TIP3    H145345   4.562   1.666   2.714  2.3145 -0.0718  2.1601
14821TIP3    H245346   4.466   1.565   2.773  0.2697  0.1858 -0.5736
14822TIP3   OH245347   9.751   2.969   6.199 -0.0262 -0.3663  0.2882
14822TIP3    H145348   9.689   2.951   6.269  0.2703  2.0797  1.2441
14822TIP3    H245349   9.837   2.961   6.240  0.1503  1.1255  0.2429
14823TIP3   OH245350   4.300   9.760   6.574  0.2578 -0.1280 -0.2279
14823TIP3    H145351   4.239   9.828   6.601 -0.4212 -1.0039  0.4745
14823TIP3    H245352   4.250   9.704   6.516  0.2427 -1.1097  0.7094
14824TIP3   OH245353   4.665  10.170   0.993  0.2286 -0.7175 -0.0042
14824TIP3    H145354   4.612  10.215   0.927  0.4800 -0.7155 -0.2053
14824TIP3    H245355   4.602  10.128   1.050  0.0121 -0.7726 -0.2853
14825TIP3   OH245356   1.885   3.943   2.632  0.1058  0.4085  0.5158
14825TIP3    H145357   1.978   3.964   2.624 -0.0365  0.7253 -0.4137
14825TIP3    H245358   1.845   3.983   2.556 -0.8669  0.6382  1.1389
14826TIP3   OH245359   0.101   6.722   7.321  0.4281 -0.1450 -0.6078
14826TIP3    H145360   0.074   6.812   7.301  1.1383  0.0898 -0.5413
14826TIP3    H245361   0.196   6.726   7.325  0.4604 -0.8857 -0.5013
14827TIP3   OH245362   6.716  10.466   7.138  0.0543  0.3809  0.0414
14827TIP3    H145363   6.655  10.413   7.087 -0.6687  1.3879 -0.1627
14827TIP3    H245364   6.764  10.517   7.072  1.0068 -0.2618  0.2118
14828TIP3   OH245365   1.562   5.106   1.008  0.0425 -0.1827 -0.4451
14828TIP3    H145366   1.579   5.200   1.002 -1.5958  0.1846  0.0976
14828TIP3    H245367   1.596   5.070   0.926  2.1000  0.6145 -0.0140
14829TIP3   OH245368  10.740   9.531   5.501  0.5904  0.2893 -0.2647
14829TIP3    H145369  10.819   9.490   5.465 -0.6603 -1.4395 -1.2420
14829TIP3    H245370  10.722   9.604   5.442  2.3319  1.7310  0.9310
14830TIP3   OH245371   4.076   4.969   3.630 -0.2653 -0.3145 -0.3850
14830TIP3    H145372   4.171   4.981   3.634 -0.2769 -0.4026  0.2932
14830TIP3    H245373   4.040   5.055   3.649 -0.3198 -0.4698  0.2481
14831TIP3   OH245374  10.537   5.329   1.044 -0.6379  0.6333  0.4046
14831TIP3    H145375  10.556   5.407   1.096  2.6569  1.4464 -1.6999
14831TIP3    H245376  10.500   5.363   0.963  0.8897  0.1098 -0.5650
14832TIP3   OH245377   7.966   3.790   0.186  0.3710  0.4210 -0.5529
14832TIP3    H145378   8.003   3.703   0.197 -0.3569 -0.0602 -1.6475
14832TIP3    H245379   7.907   3.801   0.260  0.8817  0.2174 -0.1121
14833TIP3   OH245380   1.943   5.529   1.412  0.1781 -0.0445 -0.7289
14833TIP3    H145381   1.864   5.580   1.398 -0.7384 -0.8608  1.0727
14833TIP3    H245382   1.945   5.466   1.340 -2.0943 -1.4785  0.3501
14834TIP3   OH245383   1.277   5.751   3.453  0.7132  0.1665 -0.2050
14834TIP3    H145384   1.210   5.803   3.409  0.1428 -0.7674 -0.4672
14834TIP3    H245385   1.310   5.692   3.386  1.0099 -0.1345  0.1961
14835TIP3   OH245386   8.735   3.513   4.090  0.1434  0.0680  0.5041
14835TIP3    H145387   8.667   3.447   4.096  0.7528 -0.9728 -2.3006
14835TIP3    H245388   8.691   3.596   4.107 -1.3384 -0.7789  0.8883
14836TIP3   OH245389   5.844   1.342   0.842  0.0428 -0.4105  0.3541
14836TIP3    H145390   5.875   1.259   0.807 -1.0411 -0.4568 -0.5881
14836TIP3    H245391   5.805   1.386   0.766 -2.7627 -0.6650  1.5389
14837TIP3   OH245392   8.064   3.765   4.005 -0.1110 -0.3396 -0.5167
14837TIP3    H145393   8.044   3.857   4.024 -1.3389 -0.3544 -1.6155
14837TIP3    H245394   8.041   3.719   4.085 -1.2788  0.0961 -0.5811
14838TIP3   OH245395   9.147   2.037   5.144 -0.1170 -0.5276 -0.3214
14838TIP3    H145396   9.208   1.963   5.134  1.2741  0.1483  2.3461
14838TIP3    H245397   9.105   2.022   5.228  0.0576  1.5907  0.1939
14839TIP3   OH245398   5.846   9.481   4.965  0.4988 -0.0907 -0.4575
14839TIP3    H145399   5.792   9.456   5.040 -0.7220  2.6458 -0.2817
14839TIP3    H245400   5.932   9.500   5.002 -0.1332  1.3730  0.3329
14840TIP3   OH245401   7.752   1.539   5.783  0.2689  0.3875 -0.0872
14840TIP3    H145402   7.675   1.507   5.736  0.1557  1.9772 -1.0400
14840TIP3    H245403   7.745   1.634   5.779  3.7339  0.7261 -2.7690
14841TIP3   OH245404   2.937   5.672   0.934 -0.0740  0.5457  0.2730
14841TIP3    H145405   2.907   5.710   0.852  0.8163  1.6432  0.4268
14841TIP3    H245406   3.032   5.663   0.923 -0.0406  0.0502  0.9105
14842TIP3   OH245407   7.208   9.414  10.089  0.3935  0.3149  0.0369
14842TIP3    H145408   7.234   9.455  10.171  0.3729 -0.7826  0.6239
14842TIP3    H245409   7.160   9.482  10.042  1.2267  1.2564  0.5077
14843TIP3   OH245410   4.483   2.360   6.762 -0.2054  0.0086  0.1813
14843TIP3    H145411   4.417   2.318   6.707 -1.4531  3.4198 -1.2190
14843TIP3    H245412   4.441   2.368   6.848 -1.3839  1.4797 -0.5007
14844TIP3   OH245413   0.743   3.562   1.035 -0.1747  0.2945  0.4155
14844TIP3    H145414   0.742   3.525   1.123 -0.4977  1.3016  0.8431
14844TIP3    H245415   0.651   3.576   1.013 -0.1080 -0.1569 -0.1768
14845TIP3   OH245416   1.310   5.370   9.630 -1.0592 -0.0302  0.1119
14845TIP3    H145417   1.230   5.319   9.636 -0.6692 -0.5013  1.8761
14845TIP3    H245418   1.324   5.405   9.719 -0.5503  1.9799 -0.6994
14846TIP3   OH245419   4.399   4.913   1.402  0.8673  0.5003 -0.3261
14846TIP3    H145420   4.377   4.944   1.490  0.0890  0.9041 -0.6566
14846TIP3    H245421   4.436   4.989   1.358 -0.7786  0.9225 -1.0452
14847TIP3   OH245422   0.168  10.794   1.301 -0.3234  0.4055 -0.2298
14847TIP3    H145423   0.233  10.725   1.314  1.8459  2.5392  1.5960
14847TIP3    H245424   0.095  10.769   1.358  0.5901 -0.2271  0.7190
14848TIP3   OH245425   6.917  10.030   7.686  0.0405  0.1744 -0.1286
14848TIP3    H145426   6.864  10.110   7.685 -1.4991 -0.8027 -0.1767
14848TIP3    H245427   6.920  10.006   7.779  1.5663  0.9358  0.0452
14849TIP3   OH245428   4.502   9.467   1.261 -0.1294 -0.1234  0.5831
14849TIP3    H145429   4.446   9.521   1.206 -1.1113 -2.0963 -0.4989
14849TIP3    H245430   4.491   9.502   1.350 -1.2886  0.9615  0.0305
14850TIP3   OH245431  10.487   4.824   3.024 -0.1616 -0.0326 -0.1254
14850TIP3    H145432  10.558   4.780   2.978 -1.4294 -1.7610 -0.5230
14850TIP3    H245433  10.501   4.803   3.116 -1.3033 -2.2088 -0.3947
14851TIP3   OH245434   6.949   2.372   0.370  0.3475  0.2107 -0.0553
14851TIP3    H145435   7.008   2.304   0.403 -0.8017 -0.4421  0.7436
14851TIP3    H245436   6.915   2.335   0.288  0.1711  0.0740  0.0782
14852TIP3   OH245437   7.928   5.746   8.065 -0.0677  0.4866  0.0241
14852TIP3    H145438   7.872   5.798   8.008 -0.1017  0.4806  0.0523
14852TIP3    H245439   7.906   5.655   8.044 -0.6730  0.4845  0.6346
14853TIP3   OH245440   4.083   2.141   7.052  0.7274 -0.0301 -0.1075
14853TIP3    H145441   4.004   2.098   7.085  0.1032  1.1803  0.0343
14853TIP3    H245442   4.104   2.094   6.971 -0.3681 -0.1340 -0.3502
14854TIP3   OH245443  10.819   4.840   6.669 -0.0811  0.1410  0.0641
14854TIP3    H145444  10.724   4.851   6.677  0.0767  1.0269  0.9487
14854TIP3    H245445  10.850   4.926   6.638  0.3276 -0.4821 -1.3703
14855TIP3   OH245446   1.784   6.575   9.447 -0.2565  0.6701  0.2737
14855TIP3    H145447   1.792   6.567   9.352  2.3304  0.2675  0.4441
14855TIP3    H245448   1.693   6.551   9.466 -1.0313  1.4304 -2.1339
14856TIP3   OH245449   7.771   7.496   8.166  0.1069  0.4950 -0.4564
14856TIP3    H145450   7.676   7.490   8.152  0.1301 -0.0495 -0.4023
14856TIP3    H245451   7.808   7.501   8.078  0.1468 -1.2759 -0.5791
14857TIP3   OH245452   2.752   6.234  10.301  0.5457 -0.0986 -0.0233
14857TIP3    H145453   2.799   6.221  10.384 -1.7783  0.2329  1.4298
14857TIP3    H245454   2.662   6.253  10.327 -1.1863 -3.5828 -2.7188
14858TIP3   OH245455   0.159   6.267   5.028  0.0847 -0.2239  0.2730
14858TIP3    H145456   0.247   6.236   5.050 -0.1002  0.1312  1.5774
14858TIP3    H245457   0.169   6.310   4.943  0.8139 -1.6902 -0.4261
14859TIP3   OH245458   2.525   2.059   3.145  0.1327 -0.6392 -0.3073
14859TIP3    H145459   2.580   2.022   3.214  1.4407 -1.0292 -1.5152
14859TIP3    H245460   2.581   2.060   3.067 -0.6247  1.6589 -0.9034
14860TIP3   OH245461   1.918  10.162   4.702  0.2862  0.4014 -0.4768
14860TIP3    H145462   1.851  10.117   4.650 -0.4308 -0.5878  1.1939
14860TIP3    H245463   1.916  10.253   4.671 -2.4296  0.6011  0.0330
14861TIP3   OH245464   5.385   9.613   7.105 -0.0010  0.3510  0.0033
14861TIP3    H145465   5.402   9.587   7.014 -0.2094 -1.5401  0.4529
14861TIP3    H245466   5.330   9.690   7.098 -2.1869 -1.2257 -1.5286
14862TIP3   OH245467   2.115   0.889   8.331 -0.1042 -0.6446  0.0384
14862TIP3    H145468   2.031   0.879   8.375 -0.1814  0.7063  0.2365
14862TIP3    H245469   2.180   0.860   8.394 -0.4002 -1.4385 -0.0180
14863TIP3   OH245470   6.965   6.092  10.435 -0.1710 -0.0479 -0.0629
14863TIP3    H145471   6.919   6.010  10.448  1.0608 -0.7603 -0.0948
14863TIP3    H245472   7.021   6.101  10.513  1.3495 -0.3773 -1.0747
14864TIP3   OH245473   3.275   6.153   9.642 -0.0087 -0.4847  0.1181
14864TIP3    H145474   3.186   6.156   9.605 -0.1076  0.7628  0.4307
14864TIP3    H245475   3.262   6.154   9.736  0.3239 -0.8609  0.1675
14865TIP3   OH245476   2.476   9.897   0.925  0.1321  0.0812  0.6710
14865TIP3    H145477   2.488   9.887   0.831  0.7222 -2.2464  0.9327
14865TIP3    H245478   2.536   9.968   0.949 -0.6282  1.2661 -0.7835
14866TIP3   OH245479   8.284   4.923   4.804  0.0721  0.3275 -0.3986
14866TIP3    H145480   8.307   5.011   4.835 -0.3524  0.3452 -0.1264
14866TIP3    H245481   8.235   4.884   4.877 -0.1747  0.0479 -0.7118
14867TIP3   OH245482   7.059   5.677   3.445  0.2484  0.1583 -0.8401
14867TIP3    H145483   7.058   5.582   3.436  1.1090  0.0782 -0.2604
14867TIP3    H245484   7.006   5.709   3.372 -1.4750 -0.8194 -0.0559
14868TIP3   OH245485   9.276   3.018   9.920 -0.5593  0.3483 -0.5349
14868TIP3    H145486   9.365   3.037   9.890 -0.4377  0.0569 -0.3627
14868TIP3    H245487   9.254   3.091   9.977  0.0090 -0.1499  0.3471
14869TIP3   OH245488   7.427   6.994   1.052  0.1730  0.4136  0.5178
14869TIP3    H145489   7.366   6.998   1.126 -1.8740 -0.0297 -1.0502
14869TIP3    H245490   7.383   6.937   0.988  1.7302  1.0193 -1.1745
14870TIP3   OH245491   6.879   2.151   4.317  0.1813  0.2647 -0.0939
14870TIP3    H145492   6.881   2.088   4.389  0.8102 -0.1847 -0.4941
14870TIP3    H245493   6.969   2.153   4.284  0.0932  1.1243 -0.3038
14871TIP3   OH245494   1.518   8.781   2.906 -0.2384  0.0286  0.5312
14871TIP3    H145495   1.575   8.705   2.898  0.0232  0.2217  0.5523
14871TIP3    H245496   1.453   8.755   2.972 -0.2504 -0.2352  0.4177
14872TIP3   OH245497   1.420   5.524   5.830  0.2343  0.4260 -0.1550
14872TIP3    H145498   1.465   5.601   5.864 -0.2694  1.0019 -0.7675
14872TIP3    H245499   1.422   5.534   5.735  1.1459 -0.8926 -0.3063
14873TIP3   OH245500   4.365   1.749   3.801 -0.0566 -0.8127  0.1790
14873TIP3    H145501   4.271   1.730   3.801 -0.1375 -0.4780 -0.8564
14873TIP3    H245502   4.402   1.687   3.739  0.1116  0.3176 -0.8946
14874TIP3   OH245503   9.037   5.211   6.570 -0.6835  0.0492 -0.4092
14874TIP3    H145504   9.071   5.125   6.591 -0.2727  0.0804 -0.9296
14874TIP3    H245505   8.947   5.210   6.604  0.1756  0.3913  2.0709
14875TIP3   OH245506   7.072   4.558   0.776  0.2066 -0.0419 -0.0478
14875TIP3    H145507   7.096   4.611   0.852  2.4906 -1.0403 -0.0015
14875TIP3    H245508   7.080   4.617   0.702  1.7458 -0.0038  0.1134
14876TIP3   OH245509   3.702   1.075   5.274  0.2285 -0.2792  0.4171
14876TIP3    H145510   3.744   1.133   5.337  0.1064  0.3507 -0.0835
14876TIP3    H245511   3.707   0.988   5.315  1.1230 -0.0522  0.7990
14877TIP3   OH245512   2.520   4.719   1.217  0.1803 -0.0379 -0.0128
14877TIP3    H145513   2.441   4.668   1.235  0.5070 -0.2866  0.7310
14877TIP3    H245514   2.492   4.781   1.149 -1.0369  0.7978  1.1975
14878TIP3   OH245515   1.416   9.173  10.164  1.3813 -0.5227  0.1034
14878TIP3    H145516   1.339   9.211  10.121  0.8831  0.9174  2.0672
14878TIP3    H245517   1.399   9.079  10.166 -1.1569 -0.1350  1.8056
14879TIP3   OH245518   8.201   9.207   9.350  0.0382  0.2687 -0.5341
14879TIP3    H145519   8.251   9.210   9.268  1.2032 -1.1242  0.0638
14879TIP3    H245520   8.114   9.176   9.324  1.2246 -3.0829 -0.9978
14880TIP3   OH245521   1.306  10.236   5.355 -0.0532  0.5825 -0.4292
14880TIP3    H145522   1.224  10.226   5.307  0.1544 -0.7795 -0.5316
14880TIP3    H245523   1.354  10.154   5.340  0.3310  0.4021  1.4839
14881TIP3   OH245524   3.965   5.377   6.958 -0.3219  0.1665 -0.1129
14881TIP3    H145525   3.988   5.324   7.034  0.9958 -0.8458 -1.1682
14881TIP3    H245526   4.004   5.463   6.976  2.3564 -0.8301 -0.7855
14882TIP3   OH245527   6.681   9.937   4.326 -0.1832  0.1450  0.1631
14882TIP3    H145528   6.679   9.948   4.231 -1.9143  3.3690  0.4320
14882TIP3    H245529   6.645   9.849   4.340 -0.7736 -0.0529 -2.1122
14883TIP3   OH245530   5.655   3.929   5.397  0.3722 -0.3554  0.3953
14883TIP3    H145531   5.651   4.014   5.353  1.2111  1.1440  2.9794
14883TIP3    H245532   5.749   3.911   5.406  0.2369 -0.4441  1.8098
14884TIP3   OH245533  10.803   8.234   9.762 -0.4513 -0.1004  0.3589
14884TIP3    H145534  10.727   8.290   9.778 -0.5530 -0.6852  2.2452
14884TIP3    H245535  10.844   8.225   9.848 -0.0200 -2.3081 -0.0188
14885TIP3   OH245536   2.313   4.820   6.655 -0.2619  0.2534  0.3715
14885TIP3    H145537   2.384   4.853   6.710 -0.4144 -0.4485  1.0071
14885TIP3    H245538   2.242   4.800   6.716 -1.5688  2.2643 -0.3868
14886TIP3   OH245539   1.122   0.235   0.329  0.4321  0.1350 -0.1262
14886TIP3    H145540   1.088   0.324   0.345 -0.0208  0.0007 -0.3191
14886TIP3    H245541   1.145   0.235   0.236  1.1791  0.2902  0.0473
14887TIP3   OH245542   3.441   7.288   4.577 -0.1980 -0.5611  0.0454
14887TIP3    H145543   3.504   7.359   4.584 -0.7457 -0.1057  0.3872
14887TIP3    H245544   3.485   7.213   4.618 -0.6147  0.2534  2.0946
14888TIP3   OH245545   1.814   0.078   4.384  0.4252  0.1643 -0.1507
14888TIP3    H145546   1.793   0.124   4.303 -0.7396 -1.9299 -1.1392
14888TIP3    H245547   1.883   0.016   4.359 -0.1339 -0.6899  0.3501
14889TIP3   OH245548   8.055   5.794   6.074 -0.0496 -0.1064  0.4964
14889TIP3    H145549   8.048   5.888   6.059 -0.5385 -0.5157 -2.4789
14889TIP3    H245550   8.145   5.782   6.107  0.2633  1.3200  0.2266
14890TIP3   OH245551   1.128  10.849   6.716  0.1044 -0.6276 -0.0348
14890TIP3    H145552   1.166  10.779   6.664  1.0499 -0.5682  0.5314
14890TIP3    H245553   1.204  10.892   6.756 -0.2067  2.1713 -2.1163
14891TIP3   OH245554   1.959   3.624   1.435 -0.6565 -0.0660 -0.3646
14891TIP3    H145555   2.035   3.566   1.426 -1.2554 -1.0373  0.6369
14891TIP3    H245556   1.965   3.657   1.524 -0.3835  1.3796 -0.8848
14892TIP3   OH245557   7.730  10.383   6.515  0.1296  0.6239 -0.3344
14892TIP3    H145558   7.723  10.296   6.555  1.2329  0.6519 -0.0534
14892TIP3    H245559   7.793  10.430   6.571 -1.3315  2.0164  0.2318
14893TIP3   OH245560   3.278   2.232   9.436  0.3380  0.3691  0.2024
14893TIP3    H145561   3.352   2.284   9.467 -1.8218  3.6760  0.2943
14893TIP3    H245562   3.218   2.230   9.511 -0.3761 -0.8625 -0.3767
14894TIP3   OH245563   6.673   2.321   6.582 -0.1163  0.5096  0.5378
14894TIP3    H145564   6.748   2.353   6.532  0.7198 -2.0197 -0.0001
14894TIP3    H245565   6.604   2.385   6.566  1.9255  3.0879  1.2442
14895TIP3   OH245566   9.772  10.498   5.739  0.0624 -0.0348  0.0849
14895TIP3    H145567   9.823  10.567   5.697  1.1779 -0.1507  1.1952
14895TIP3    H245568   9.682  10.518   5.716  0.4519  1.1749 -0.4931
14896TIP3   OH245569   1.288   4.941   5.531  0.7775 -0.1495  0.2887
14896TIP3    H145570   1.212   4.884   5.527  0.9393 -0.6941  2.9892
14896TIP3    H245571   1.254   5.025   5.561  1.1630 -0.2251  0.9420
14897TIP3   OH245572   1.891   0.611   7.309  0.1505 -0.1306 -0.3182
14897TIP3    H145573   1.974   0.607   7.355  0.5523 -1.4048 -1.1001
14897TIP3    H245574   1.877   0.522   7.277 -1.3879  0.1173 -0.4294
14898TIP3   OH245575   0.734   8.657   8.746  0.1260  0.0117  0.6067
14898TIP3    H145576   0.662   8.597   8.726  1.3104 -0.2979 -3.7788
14898TIP3    H245577   0.804   8.600   8.778  0.7168 -0.8316 -2.0215
14899TIP3   OH245578   9.826   5.111   9.570 -0.7560 -0.2240  0.0743
14899TIP3    H145579   9.819   5.141   9.480  1.1880  0.6054  0.1369
14899TIP3    H245580   9.909   5.064   9.573 -0.8267 -0.3013  1.4187
14900TIP3   OH245581   3.157   0.540   8.005 -0.3817  0.2102 -0.0651
14900TIP3    H145582   3.083   0.528   8.065 -1.5076  0.3763 -1.3681
14900TIP3    H245583   3.144   0.474   7.938  1.5002 -0.7331  0.4396
14901TIP3   OH245584   6.732   8.592   9.377 -0.5728 -0.2144 -0.0761
14901TIP3    H145585   6.791   8.549   9.315 -0.4668  0.4780 -0.4574
14901TIP3    H245586   6.765   8.566   9.463  0.7268  0.7340 -0.2690
14902TIP3   OH245587   7.880  10.303   9.698 -0.1794  0.8556 -0.7111
14902TIP3    H145588   7.817  10.286   9.768  1.3482  2.9780  1.3119
14902TIP3    H245589   7.826  10.326   9.623 -1.8629 -0.6120 -0.0269
14903TIP3   OH245590   9.255   1.177   0.142  0.0828  0.0604 -0.0448
14903TIP3    H145591   9.231   1.263   0.106  0.0531 -0.1731 -0.5974
14903TIP3    H245592   9.173   1.128   0.140  0.5219 -0.6685 -1.7202
14904TIP3   OH245593   1.938   1.893   2.693  0.2854 -0.6612 -0.2285
14904TIP3    H145594   1.929   1.829   2.622  1.2835  1.0605 -2.0026
14904TIP3    H245595   2.032   1.897   2.710  0.0010 -1.6989  1.9144
14905TIP3   OH245596   2.585   4.911   2.511 -0.0367 -0.3353 -0.4423
14905TIP3    H145597   2.649   4.980   2.528  0.4286 -0.9385  0.2968
14905TIP3    H245598   2.508   4.937   2.563  0.5923 -1.0141  0.8857
14906TIP3   OH245599   2.836   0.163   7.361 -0.4639  0.4694 -0.7642
14906TIP3    H145600   2.811   0.112   7.438  2.8656 -0.6054 -0.2451
14906TIP3    H245601   2.823   0.104   7.288  1.3228 -0.4477 -0.3912
14907TIP3   OH245602   8.996   0.857   2.996  0.6742  0.0040 -0.0273
14907TIP3    H145603   8.929   0.911   2.954  0.6264 -1.2824 -1.7424
14907TIP3    H245604   9.077   0.879   2.950  0.4465 -2.1419 -1.6246
14908TIP3   OH245605   9.630   6.248   0.485  0.4289  0.2868 -0.2230
14908TIP3    H145606   9.579   6.168   0.468 -1.6310  1.6877 -1.1116
14908TIP3    H245607   9.592   6.284   0.565 -1.5537  2.4117 -1.9725
14909TIP3   OH245608   0.502  10.770   3.422 -1.0705  0.2325 -0.3265
14909TIP3    H145609   0.568  10.826   3.379 -1.0317  0.0254 -0.5416
14909TIP3    H245610   0.443  10.745   3.351 -0.2479 -1.2084 -0.5300
14910TIP3   OH245611   9.091  10.118   0.825 -0.6482  0.0231 -0.2361
14910TIP3    H145612   9.032  10.190   0.849  0.9378  1.5268 -0.6020
14910TIP3    H245613   9.161  10.161   0.776  0.2553 -1.8346 -0.6435
14911TIP3   OH245614   4.151   3.468   3.027  0.1073 -0.1436  0.3139
14911TIP3    H145615   4.165   3.540   3.089  1.0032 -0.5002  0.5406
14911TIP3    H245616   4.206   3.490   2.952  1.0440 -0.9747  0.7238
14912TIP3   OH245617   7.999   4.029   4.122 -0.1624  0.4878 -0.2768
14912TIP3    H145618   8.094   4.019   4.128 -0.1309 -0.3130 -1.6277
14912TIP3    H245619   7.979   4.107   4.173  1.1158  0.1561  0.7659
14913TIP3   OH245620   9.824   8.359   5.410  0.3612  0.0075 -0.4232
14913TIP3    H145621   9.838   8.306   5.488  0.6944  0.0080 -0.4789
14913TIP3    H245622   9.776   8.302   5.349 -0.0148  0.0517 -0.1690
14914TIP3   OH245623   9.595   0.566  10.462  0.7440  0.4488  0.3694
14914TIP3    H145624   9.505   0.585  10.488 -0.0014 -0.6521 -1.3057
14914TIP3    H245625   9.642   0.556  10.545 -1.7858 -4.2006  1.5604
14915TIP3   OH245626   1.545   4.824   8.469  0.1207 -0.7989  0.1490
14915TIP3    H145627   1.499   4.796   8.390 -0.5717  1.2011 -0.2070
14915TIP3    H245628   1.482   4.808   8.540 -0.2364 -0.2564 -0.0384
14916TIP3   OH245629   2.637   7.903   9.691  0.2068  0.7440 -0.1523
14916TIP3    H145630   2.569   7.843   9.659  0.8526  0.9829 -2.0766
14916TIP3    H245631   2.589   7.971   9.737 -0.5519 -1.2570  2.2774
14917TIP3   OH245632   3.321   6.303   0.181  0.5600  0.1616  0.0239
14917TIP3    H145633   3.416   6.311   0.174  0.3863  1.6759 -1.4222
14917TIP3    H245634   3.305   6.209   0.188  2.1850 -0.0658  1.2043
14918TIP3   OH245635   1.880   9.730   7.314 -0.1588  0.1160 -0.5770
14918TIP3    H145636   1.925   9.665   7.368  0.3619  0.5424 -0.4882
14918TIP3    H245637   1.792   9.736   7.350  0.3590  0.8379  0.6174
14919TIP3   OH245638   5.651   8.464   0.902 -0.0866  0.1038 -0.2793
14919TIP3    H145639   5.577   8.478   0.842 -0.7261 -2.6744 -0.2719
14919TIP3    H245640   5.634   8.524   0.974 -1.4724  0.6605 -1.0172
14920TIP3   OH245641   9.511  10.124   0.308 -0.1343  0.1375  0.3645
14920TIP3    H145642   9.461  10.170   0.240  1.6238 -0.7189 -1.6193
14920TIP3    H245643   9.552  10.194   0.358 -1.5205  0.7912  0.6550
14921TIP3   OH245644   2.873   8.320   3.433  0.5834 -0.0084  0.4923
14921TIP3    H145645   2.781   8.345   3.444  0.1935 -0.5692 -1.2637
14921TIP3    H245646   2.889   8.258   3.504 -0.1317  0.7388  1.3342
14922TIP3   OH245647   9.460   1.230   6.992 -0.0812 -0.6487  0.7049
14922TIP3    H145648   9.380   1.223   6.940  0.4848  0.5803 -0.3878
14922TIP3    H245649   9.523   1.176   6.945  0.5703  0.8572 -0.2273
14923TIP3   OH245650   1.977   7.808   1.619 -0.0614 -0.0954 -0.2259
14923TIP3    H145651   1.903   7.772   1.669 -0.5958 -0.1771 -1.0372
14923TIP3    H245652   1.946   7.806   1.528  0.7921  0.2632 -0.5300
14924TIP3   OH245653  10.460   7.404   9.531 -0.4212  0.2444 -0.3233
14924TIP3    H145654  10.402   7.434   9.601 -0.3861 -0.4611  0.0080
14924TIP3    H245655  10.533   7.466   9.533 -1.1776  1.1734 -0.7838
14925TIP3   OH245656   7.700   0.478   1.839 -0.4912 -0.6352 -0.0293
14925TIP3    H145657   7.765   0.508   1.775 -0.1886 -1.4668 -0.1247
14925TIP3    H245658   7.692   0.384   1.822 -0.9586 -0.7230  0.6660
14926TIP3   OH245659   1.783   8.113   3.504  0.4387 -0.1751  0.5917
14926TIP3    H145660   1.710   8.139   3.560  1.3939  0.1018  1.7404
14926TIP3    H245661   1.840   8.190   3.501 -0.8518  0.8712 -3.0206
14927TIP3   OH245662   8.562   8.013   2.531  0.1499 -0.4094  0.0365
14927TIP3    H145663   8.531   8.058   2.610  0.9456 -0.7351  0.5438
14927TIP3    H245664   8.603   7.933   2.563  2.8142  0.6490 -0.4311
14928TIP3   OH245665   6.324   6.301  10.773  0.1207  0.0139 -0.1340
14928TIP3    H145666   6.313   6.350  10.691 -0.0476  0.2665  0.0354
14928TIP3    H245667   6.251   6.331  10.828 -0.0349 -0.4954 -0.0595
14929TIP3   OH245668   8.556   4.259   8.416  0.2248  0.4372  0.2952
14929TIP3    H145669   8.642   4.293   8.443  2.8246 -5.3700  1.0221
14929TIP3    H245670   8.508   4.249   8.498  1.0337 -0.9229  0.6483
14930TIP3   OH245671   3.831   0.772   6.799  0.2048 -0.3408  0.0943
14930TIP3    H145672   3.896   0.812   6.857  1.7671 -1.5372 -0.7664
14930TIP3    H245673   3.747   0.799   6.836  1.1592  1.2514  1.2546
14931TIP3   OH245674   6.717   2.200   4.726 -0.1572  0.2043  0.2671
14931TIP3    H145675   6.698   2.153   4.807  1.5564 -0.1321  0.5238
14931TIP3    H245676   6.797   2.248   4.745 -1.6085  2.9578 -0.1238
14932TIP3   OH245677   1.054   8.624   7.397 -0.4781  0.0775 -0.3692
14932TIP3    H145678   1.059   8.679   7.319  1.8413  1.0835  0.3953
14932TIP3    H245679   0.999   8.674   7.458  0.9931  1.3023  0.0413
14933TIP3   OH245680   2.912   7.495   4.781 -0.5965 -0.3996 -0.1352
14933TIP3    H145681   2.873   7.556   4.719 -0.2006 -1.4810 -1.4770
14933TIP3    H245682   2.924   7.414   4.732  0.6629 -0.9770  1.0603
14934TIP3   OH245683   4.651  10.045   6.432  0.5444 -0.3060 -0.2925
14934TIP3    H145684   4.573  10.086   6.395  0.0965 -0.4888  0.4269
14934TIP3    H245685   4.618   9.970   6.481  1.4074 -2.1488 -2.3562
14935TIP3   OH245686   5.129   5.050   9.301 -0.2365  0.6934  0.8022
14935TIP3    H145687   5.057   5.064   9.362 -0.4628 -0.9493  0.9454
14935TIP3    H245688   5.201   5.016   9.355 -0.2155 -0.1206  0.2869
14936TIP3   OH245689   2.084   3.286  10.756 -0.5124  0.0459 -0.2225
14936TIP3    H145690   2.171   3.253  10.731 -0.2580 -0.2650  1.0145
14936TIP3    H245691   2.062   3.349  10.688  0.7444  0.2296 -0.4829
14937TIP3   OH245692   0.224   6.451   4.799  0.7888 -0.1010  0.1614
14937TIP3    H145693   0.287   6.379   4.793 -0.7024 -1.4642  0.2252
14937TIP3    H245694   0.177   6.448   4.716  0.6043  0.7161  0.2284
14938TIP3   OH245695   2.728   4.616   9.046  0.0662 -0.5714  0.0169
14938TIP3    H145696   2.676   4.570   8.981  0.7367 -2.8326  1.0018
14938TIP3    H245697   2.675   4.615   9.126 -0.4481  1.5516 -0.2327
14939TIP3   OH245698   3.286   3.677   0.175 -0.6517  0.8527 -0.1254
14939TIP3    H145699   3.299   3.594   0.222 -0.0291  1.2334  0.3799
14939TIP3    H245700   3.191   3.688   0.174 -0.7569  0.0580 -0.3338
14940TIP3   OH245701   5.684   4.642   6.195 -0.4330  0.0358  0.3825
14940TIP3    H145702   5.610   4.613   6.141 -1.1832  1.0034  0.8420
14940TIP3    H245703   5.733   4.701   6.138  0.7882 -1.6351 -0.3726
14941TIP3   OH245704   9.301   0.930   1.718 -0.2503 -0.1810  0.4585
14941TIP3    H145705   9.281   0.870   1.647 -1.0881  0.1077  0.4465
14941TIP3    H245706   9.307   1.016   1.677 -1.7303  0.1430  0.8611
14942TIP3   OH245707   4.933   3.499   6.383 -0.0907 -0.1873 -0.2923
14942TIP3    H145708   4.952   3.579   6.334 -2.6273  0.0993 -0.9304
14942TIP3    H245709   4.866   3.455   6.331 -1.2642 -0.9777  1.8006
14943TIP3   OH245710   1.116   8.621   4.517  0.2376  0.6081 -0.1433
14943TIP3    H145711   1.085   8.557   4.453  1.8479  1.1398 -1.5093
14943TIP3    H245712   1.065   8.602   4.596 -2.9475  0.8986 -1.9604
14944TIP3   OH245713   5.424   1.842   5.400  0.0060  0.2803 -0.8827
14944TIP3    H145714   5.359   1.887   5.453  0.4722  1.4160 -1.2268
14944TIP3    H245715   5.457   1.771   5.455 -0.1020  0.9327  0.0336
14945TIP3   OH245716   8.705  10.064   4.018 -0.2489  0.2374  0.0486
14945TIP3    H145717   8.766  10.078   4.091  3.0962 -0.9949 -2.2464
14945TIP3    H245718   8.635  10.010   4.055  0.6830  0.6291  2.5840
14946TIP3   OH245719   8.810   3.924  10.734 -0.2430  0.0700 -0.5400
14946TIP3    H145720   8.793   3.918  10.828  0.1677 -1.1372 -0.5291
14946TIP3    H245721   8.794   4.016  10.712  2.0781  0.9742  1.1875
14947TIP3   OH245722   8.302   2.398   4.028 -0.2542  1.3023  0.3175
14947TIP3    H145723   8.333   2.349   4.104 -2.3815  2.1311  1.8240
14947TIP3    H245724   8.213   2.367   4.015 -0.5694  2.5446 -0.6303
14948TIP3   OH245725  10.097   2.833   3.766  0.0538 -0.3653  0.1243
14948TIP3    H145726  10.023   2.873   3.719  0.7062 -0.2565 -0.8547
14948TIP3    H245727  10.161   2.904   3.774  0.1834 -0.5429  0.6751
14949TIP3   OH245728   3.537   8.169   9.558 -0.1350 -0.1457  0.7448
14949TIP3    H145729   3.565   8.135   9.643  0.5462 -0.4270  0.4099
14949TIP3    H245730   3.613   8.157   9.501 -0.6913 -0.2497  0.0133
14950TIP3   OH245731   9.815   9.793   9.614 -0.0755  0.5714 -0.3276
14950TIP3    H145732   9.905   9.828   9.614  0.2660 -0.2868 -0.2918
14950TIP3    H245733   9.774   9.834   9.538  0.0011  1.8398  0.2974
14951TIP3   OH245734   6.732   9.589   7.251  0.2001 -0.5185 -0.1704
14951TIP3    H145735   6.647   9.628   7.270  0.3376 -0.4402  0.2967
14951TIP3    H245736   6.753   9.537   7.328  0.5215 -0.6365 -0.3326
14952TIP3   OH245737   5.016   0.991   3.538  0.4518 -0.0430  0.5145
14952TIP3    H145738   5.102   0.970   3.502  0.2976  1.3808 -0.8122
14952TIP3    H245739   5.017   0.955   3.626  2.5989  0.3614  0.7109
14953TIP3   OH245740   4.493   4.430   1.998 -0.0174  0.0192 -0.2905
14953TIP3    H145741   4.470   4.365   1.932 -2.3124  0.1610  0.2924
14953TIP3    H245742   4.435   4.504   1.980  0.0858  0.4948  1.2145
14954TIP3   OH245743   1.484   4.237   3.983 -0.4068  0.5588  0.3082
14954TIP3    H145744   1.468   4.142   3.985 -0.2776  0.5416  0.4957
14954TIP3    H245745   1.495   4.257   3.890 -2.2676  0.6945  0.0703
14955TIP3   OH245746   2.123   7.790   3.796 -0.7178 -0.0077 -0.0665
14955TIP3    H145747   2.115   7.880   3.762 -0.3299 -0.1177 -0.4710
14955TIP3    H245748   2.033   7.756   3.796 -0.8228  0.2618 -0.2582
14956TIP3   OH245749   9.475  10.396   1.763 -0.0388 -0.3996  0.7658
14956TIP3    H145750   9.460  10.331   1.831  0.3278 -0.0471  1.1879
14956TIP3    H245751   9.404  10.459   1.773 -0.2355 -0.5779  0.5326
14957TIP3   OH245752   3.780   6.308   3.168 -0.1543 -0.3679  0.6870
14957TIP3    H145753   3.701   6.255   3.157  0.1760 -0.7443  0.0418
14957TIP3    H245754   3.827   6.297   3.085  0.5595 -0.1274  1.0582
14958TIP3   OH245755   0.980   3.517   8.517 -0.3772  0.0188 -0.1202
14958TIP3    H145756   1.040   3.490   8.447  0.4939  2.0113 -0.2054
14958TIP3    H245757   0.996   3.611   8.528  3.2179 -0.7957  6.1757
14959TIP3   OH245758   6.723   3.878   1.993 -0.3907 -0.8166  0.2918
14959TIP3    H145759   6.702   3.962   1.951  0.2158 -1.0268 -0.4528
14959TIP3    H245760   6.639   3.847   2.027 -1.1400 -1.1545 -1.7279
14960TIP3   OH245761   3.958   5.775   0.966  0.1209  0.2955  0.0508
14960TIP3    H145762   3.965   5.807   0.876 -1.9064 -0.8931 -0.6080
14960TIP3    H245763   4.007   5.693   0.966  1.2648  0.9612  0.4294
14961TIP3   OH245764   3.541   6.196   5.491  0.1245 -0.3338 -0.0045
14961TIP3    H145765   3.449   6.210   5.514  0.1052 -0.7225  0.1747
14961TIP3    H245766   3.590   6.221   5.569  0.1672 -0.1734 -0.0825
14962TIP3   OH245767   4.093   8.865   8.854 -0.0578  0.2334 -0.7069
14962TIP3    H145768   3.999   8.880   8.845 -0.4502 -0.1603  1.9570
14962TIP3    H245769   4.133   8.952   8.843 -0.8194  0.5778 -0.7720
14963TIP3   OH245770   0.754   6.029   5.749  0.3882  0.1870  0.0225
14963TIP3    H145771   0.765   6.114   5.792 -1.8117  1.5415 -1.8373
14963TIP3    H245772   0.838   5.985   5.760  1.3254  2.2426  1.7784
14964TIP3   OH245773   6.972   7.232   0.172  0.4402 -0.1199  0.1931
14964TIP3    H145774   7.010   7.174   0.107  0.9307  0.1849  0.2079
14964TIP3    H245775   7.046   7.266   0.222  0.1140  0.0620  0.5680
14965TIP3   OH245776   1.794   4.842   2.589  0.2638 -0.3239  0.5009
14965TIP3    H145777   1.734   4.914   2.568  1.2079  0.5296  0.6133
14965TIP3    H245778   1.738   4.766   2.599 -0.7756  0.4019  0.3783
14966TIP3   OH245779   0.876   7.919   4.152  0.2668  0.1771  0.1330
14966TIP3    H145780   0.838   7.975   4.084 -0.6520 -0.3834  0.1652
14966TIP3    H245781   0.906   7.841   4.105 -0.1440 -0.1030  0.3336
14967TIP3   OH245782   8.591   6.659  10.470 -0.3480  0.5584  0.0126
14967TIP3    H145783   8.578   6.753  10.456 -2.3163  0.0824 -1.8459
14967TIP3    H245784   8.623   6.626  10.386  2.8523 -0.1454  1.3370
14968TIP3   OH245785   5.210   5.091   6.405  0.5195 -0.0511 -0.1142
14968TIP3    H145786   5.152   5.161   6.376  1.6220  0.8852 -0.1268
14968TIP3    H245787   5.289   5.102   6.351  0.1174 -2.3216 -1.2883
14969TIP3   OH245788   8.894   5.463   5.298  0.2471  0.2244 -0.5321
14969TIP3    H145789   8.963   5.399   5.278  1.3344  1.3034 -0.3502
14969TIP3    H245790   8.937   5.548   5.288 -0.2742  0.9159  2.2457
14970TIP3   OH245791   1.691   2.869   4.291  0.2184  0.6779  0.3581
14970TIP3    H145792   1.617   2.813   4.268 -0.0247  0.9402  0.5011
14970TIP3    H245793   1.658   2.958   4.283  0.7010  0.8102 -0.1776
14971TIP3   OH245794   4.091   0.901   2.471 -0.0611  0.3726  1.2425
14971TIP3    H145795   4.102   0.881   2.563  0.9464  0.1766  1.0921
14971TIP3    H245796   3.996   0.910   2.459 -0.3057 -1.0668  1.9763
14972TIP3   OH245797   4.196   1.830   9.762 -0.0511 -0.5708 -0.5944
14972TIP3    H145798   4.187   1.890   9.836 -2.3402 -1.2973 -0.2220
14972TIP3    H245799   4.203   1.743   9.801 -2.7816 -1.1322 -1.1563
14973TIP3   OH245800   3.521   4.414   7.520  0.1603 -0.3855 -0.1361
14973TIP3    H145801   3.432   4.381   7.506 -1.1209  2.3320  0.7926
14973TIP3    H245802   3.548   4.376   7.604 -0.4735 -0.5755 -0.0158
14974TIP3   OH245803   3.561   6.627   7.504  0.1469  0.0938 -0.1157
14974TIP3    H145804   3.515   6.618   7.587  2.2759  1.9266  1.3743
14974TIP3    H245805   3.503   6.683   7.451 -0.4189  0.4074  0.8044
14975TIP3   OH245806   6.717   9.605   1.977 -0.2551  0.5148 -0.4149
14975TIP3    H145807   6.710   9.681   2.035  0.2905  0.2160  0.0524
14975TIP3    H245808   6.721   9.530   2.036  0.0136  0.1839 -0.8427
14976TIP3   OH245809   2.985   4.197   9.575 -0.0669 -0.2577 -0.1492
14976TIP3    H145810   2.904   4.248   9.584 -1.0541 -1.8394  0.2934
14976TIP3    H245811   3.048   4.259   9.538 -2.0874  0.4293 -2.7399
14977TIP3   OH245812   2.255   3.419   9.404 -0.2490  0.0752 -0.6052
14977TIP3    H145813   2.267   3.436   9.310  0.1122 -0.6581 -0.6911
14977TIP3    H245814   2.176   3.365   9.408  0.6904 -1.3336 -0.6327
14978TIP3   OH245815   0.786   4.586   4.668  0.0198 -0.1428  0.1764
14978TIP3    H145816   0.773   4.500   4.629 -0.7684  0.7918 -1.8007
14978TIP3    H245817   0.881   4.591   4.684  0.3085 -0.7916 -1.1896
14979TIP3   OH245818   1.972   3.714   1.683  0.0092 -0.0321  0.5764
14979TIP3    H145819   2.000   3.624   1.696  0.5946  0.2518  1.3666
14979TIP3    H245820   2.037   3.767   1.729  0.6156  0.9065 -1.2645
14980TIP3   OH245821   1.560   5.617   7.799 -0.2189 -0.4919 -0.1951
14980TIP3    H145822   1.608   5.668   7.865  0.7008 -0.2700 -1.0212
14980TIP3    H245823   1.553   5.530   7.838  1.6461 -0.7674 -0.4167
14981TIP3   OH245824   0.328   9.057   5.772  0.6253 -0.0866 -0.3238
14981TIP3    H145825   0.300   9.029   5.859  1.0801 -0.7783 -0.3948
14981TIP3    H245826   0.421   9.078   5.783  0.9026 -0.9950 -0.8256
14982TIP3   OH245827   1.042   8.776   6.346  0.2182 -0.0035 -0.2365
14982TIP3    H145828   0.963   8.813   6.387  0.8501  0.7878  0.3025
14982TIP3    H245829   1.019   8.767   6.253 -0.6504 -0.2007 -0.0125
14983TIP3   OH245830   4.946   5.229   4.867  0.2287  0.0725  0.1358
14983TIP3    H145831   5.004   5.240   4.943 -0.6801 -0.9275  1.0111
14983TIP3    H245832   4.889   5.306   4.870  0.6246  0.3722  0.0692
14984TIP3   OH245833   0.611   6.904   0.112 -0.0318  0.3851 -0.2977
14984TIP3    H145834   0.592   6.940   0.026  0.5467  0.1990 -0.5133
14984TIP3    H245835   0.548   6.833   0.123 -0.2246  0.5267 -0.4918
14985TIP3   OH245836   1.124   1.489   3.500  0.4012 -0.2335 -0.1905
14985TIP3    H145837   1.199   1.503   3.443  0.1212 -0.9670 -0.7476
14985TIP3    H245838   1.066   1.430   3.451  0.4916 -1.4954  1.1377
14986TIP3   OH245839   0.460   0.092   9.308 -0.6421  0.3294  0.6383
14986TIP3    H145840   0.408   0.014   9.289 -0.2452  0.4184 -0.9416
14986TIP3    H245841   0.515   0.067   9.382  0.1647 -1.2218 -0.4459
14987TIP3   OH245842   5.384  10.306   9.155  0.0613 -0.1441 -0.4869
14987TIP3    H145843   5.338  10.223   9.164  0.4228 -0.4305 -1.2166
14987TIP3    H245844   5.459  10.298   9.213 -1.0315  0.5142  1.0921
14988TIP3   OH245845  10.853   7.403   5.842  0.1422 -0.2774 -0.0327
14988TIP3    H145846  10.871   7.493   5.816 -0.0012 -0.4017 -0.5711
14988TIP3    H245847  10.906   7.350   5.782  0.5642 -0.5431  0.5613
14989TIP3   OH245848   1.409   5.564   9.444  0.0356 -0.2164  0.0206
14989TIP3    H145849   1.487   5.528   9.403 -0.4744 -0.6293 -0.6128
14989TIP3    H245850   1.378   5.494   9.501  1.1826  0.6389  1.7580
14990TIP3   OH245851   1.007   7.386   4.701 -0.3804 -0.3395  0.0119
14990TIP3    H145852   1.032   7.324   4.769 -0.7055 -1.2259 -0.6630
14990TIP3    H245853   1.013   7.337   4.620 -1.4628  0.2647 -0.4608
14991TIP3   OH245854   3.387   9.020   3.392 -0.1318 -0.4058  0.4934
14991TIP3    H145855   3.340   8.972   3.324  0.2540 -0.7011  0.4393
14991TIP3    H245856   3.335   9.100   3.404 -1.5130 -1.3840  1.4824
14992TIP3   OH245857   0.541   5.707  10.076  0.7387 -0.6294 -0.1903
14992TIP3    H145858   0.618   5.661  10.110  0.7166 -1.7806 -1.6112
14992TIP3    H245859   0.474   5.692  10.143  1.7515  0.5133  1.1348
14993TIP3   OH245860   5.203   8.463   5.040  0.3041  0.0196  0.5420
14993TIP3    H145861   5.161   8.393   5.090  0.0184  0.1330  0.4627
14993TIP3    H245862   5.135   8.530   5.032  0.5453  0.2603  0.5294
14994TIP3   OH245863   0.785   1.248   0.011  0.1528  0.4919 -0.5966
14994TIP3    H145864   0.754   1.233   0.100  0.6694  1.5355 -0.2298
14994TIP3    H245865   0.863   1.304   0.021  0.6139  0.0737 -1.6560
14995TIP3   OH245866   8.325   0.314   7.478  0.0381 -0.0175  0.2790
14995TIP3    H145867   8.394   0.373   7.509 -0.8142  1.1482  0.0414
14995TIP3    H245868   8.350   0.228   7.512  1.1512  0.5294  0.9167
14996TIP3   OH245869   1.998   5.914   3.914  0.2956  0.2536  0.4331
14996TIP3    H145870   1.966   5.959   3.836 -0.2123  0.6638  0.8689
14996TIP3    H245871   2.076   5.963   3.940  0.9420 -0.3652 -0.2631
14997TIP3   OH245872   9.515   3.160   1.144  0.1732 -0.1243  0.3506
14997TIP3    H145873   9.420   3.157   1.135  0.3354 -0.8066 -1.5063
14997TIP3    H245874   9.539   3.075   1.180  0.0524  0.2922  1.4600
14998TIP3   OH245875   8.797   8.393   1.498 -0.2833  0.1245 -0.7263
14998TIP3    H145876   8.746   8.378   1.418 -2.4496  2.0834  0.1529
14998TIP3    H245877   8.809   8.488   1.501  1.1050 -0.0453  0.5274
14999TIP3   OH245878   3.268   1.153   7.256  0.0864  0.4528  0.1607
14999TIP3    H145879   3.285   1.245   7.237 -1.6446  0.6305 -0.7421
14999TIP3    H245880   3.352   1.110   7.241  0.2506  1.4711 -2.4295
15000TIP3   OH245881   4.558   7.367   4.862  0.1066 -0.3143 -0.2918
15000TIP3    H145882   4.576   7.417   4.942 -2.7068 -0.2530  0.4042
15000TIP3    H245883   4.532   7.280   4.894 -2.5499  0.1544 -0.9540
15001TIP3   OH245884   8.539   7.665   3.543  0.4383  0.0618 -0.2475
15001TIP3    H145885   8.630   7.692   3.553  0.1547  0.9213  0.0708
15001TIP3    H245886   8.504   7.666   3.632  0.0649 -0.0769 -0.3900
15002TIP3   OH245887  10.211   7.108   7.591  0.5843 -0.3758  0.2922
15002TIP3    H145888  10.205   7.026   7.641 -0.8358 -0.6324 -0.2429
15002TIP3    H245889  10.150   7.096   7.518  2.3842  0.1094 -1.3650
15003TIP3   OH245890   2.688   7.891  10.176 -0.0737 -0.3940  0.1690
15003TIP3    H145891   2.663   7.816  10.229 -2.1405 -0.2348 -0.4837
15003TIP3    H245892   2.710   7.853  10.091  0.0921 -0.3699  0.2009
15004TIP3   OH245893   5.951   4.753  10.403 -0.4315  0.0745 -0.3700
15004TIP3    H145894   5.915   4.671  10.438  0.8402  0.2613  1.5104
15004TIP3    H245895   5.882   4.817  10.418 -1.9452 -0.7790 -2.9608
15005TIP3   OH245896   3.063   2.261   3.612 -0.3466 -0.1962 -0.0857
15005TIP3    H145897   2.981   2.303   3.585 -0.4912  0.6734  1.5841
15005TIP3    H245898   3.040   2.169   3.622 -1.1588  0.0488  0.4379
15006TIP3   OH245899   5.591   9.831   9.419  0.0039  0.1843  0.1757
15006TIP3    H145900   5.625   9.745   9.443  2.5010  0.7864 -0.7902
15006TIP3    H245901   5.575   9.825   9.325  2.0003  1.1938 -0.3093
15007TIP3   OH245902   8.981   9.466   2.871  0.1088  0.1801 -0.0925
15007TIP3    H145903   8.944   9.386   2.834 -0.6720  0.1195  0.7913
15007TIP3    H245904   8.910   9.530   2.863  0.5772  0.6654 -0.3903
15008TIP3   OH245905   8.487   1.407   3.086  0.5694 -0.1109 -0.0581
15008TIP3    H145906   8.469   1.481   3.028 -0.7376 -1.6956 -1.8226
15008TIP3    H245907   8.576   1.381   3.065  0.1870 -0.5247 -1.2533
15009TIP3   OH245908   1.369  10.139   1.949  0.1745  0.4380 -0.3101
15009TIP3    H145909   1.455  10.098   1.959  0.9548  1.5687 -1.8605
15009TIP3    H245910   1.308  10.066   1.937  1.2647 -0.3376 -1.3775
15010TIP3   OH245911   4.098   6.732   5.141  0.1127 -0.8106  0.2579
15010TIP3    H145912   4.102   6.815   5.187  0.2545 -1.1813  0.9229
15010TIP3    H245913   4.036   6.679   5.191  0.7951 -1.4627  0.4371
15011TIP3   OH245914   3.238   7.370   1.631 -0.6841 -0.3926  0.0011
15011TIP3    H145915   3.216   7.436   1.566 -3.2806 -2.1063 -1.0420
15011TIP3    H245916   3.153   7.344   1.669  0.4409 -1.6177  1.8925
15012TIP3   OH245917   6.884   8.298  10.233  0.0552  0.6842 -0.6870
15012TIP3    H145918   6.861   8.260  10.318  1.0489 -1.2230 -1.2270
15012TIP3    H245919   6.973   8.331  10.244  0.2886  0.1896 -1.0490
15013TIP3   OH245920   8.052   6.726   2.931  0.2337  0.0622 -0.2554
15013TIP3    H145921   8.039   6.749   2.839  0.5439 -1.3544 -0.6889
15013TIP3    H245922   8.033   6.632   2.935  0.8737 -0.0379  0.9938
15014TIP3   OH245923   1.263   3.484   0.422 -0.4505 -0.8206 -0.0505
15014TIP3    H145924   1.201   3.552   0.397 -0.2908 -0.7222 -0.1859
15014TIP3    H245925   1.344   3.532   0.441 -1.0653 -0.6365  2.6320
15015TIP3   OH245926  10.681   2.329   6.533 -0.4509  0.5187  0.5780
15015TIP3    H145927  10.590   2.309   6.516 -0.2827  1.2332 -1.4545
15015TIP3    H245928  10.700   2.404   6.476  1.3440  0.4842  1.0664
15016TIP3   OH245929   8.088   6.809   1.340 -0.0771  0.4478  0.5821
15016TIP3    H145930   8.095   6.839   1.250 -0.8831 -1.1289 -0.0470
15016TIP3    H245931   7.999   6.774   1.348 -0.2728  1.2129  2.2136
15017TIP3   OH245932   4.759   1.529   8.471  0.3501 -0.1253 -0.2615
15017TIP3    H145933   4.666   1.540   8.453  0.0684 -1.6075  0.1729
15017TIP3    H245934   4.781   1.603   8.528 -0.2536  0.9261 -1.3493
15018TIP3   OH245935   3.729   9.208   6.756 -0.2049 -0.0733  0.3951
15018TIP3    H145936   3.778   9.284   6.787 -0.7860  0.2350  0.5758
15018TIP3    H245937   3.657   9.246   6.704 -0.6380 -0.4844  0.6910
15019TIP3   OH245938   8.956   0.768   5.017  0.1035  0.7905 -0.2458
15019TIP3    H145939   8.910   0.750   4.935 -0.0884  2.0127 -0.4143
15019TIP3    H245940   8.954   0.863   5.026 -1.2452  0.6125  1.9675
15020TIP3   OH245941   3.207   9.432   8.764 -0.5692  0.8728  0.3324
15020TIP3    H145942   3.255   9.504   8.724  0.4933 -0.2962 -0.5608
15020TIP3    H245943   3.121   9.433   8.721 -0.3496  1.2259 -0.0965
15021TIP3   OH245944   4.670   0.177   9.780  0.2405  0.4803  0.4756
15021TIP3    H145945   4.700   0.120   9.709 -1.0181  0.8218 -0.3714
15021TIP3    H245946   4.672   0.121   9.858  1.2407 -0.0269  0.1085
15022TIP3   OH245947   6.217   0.868   5.202  0.2491 -0.5864 -0.1420
15022TIP3    H145948   6.289   0.885   5.262 -0.1734 -0.6968  0.4041
15022TIP3    H245949   6.220   0.941   5.140  1.1922 -0.8990 -0.4848
15023TIP3   OH245950   6.315   8.393   6.106 -0.0698 -0.4212  0.1421
15023TIP3    H145951   6.377   8.465   6.097 -0.6336  0.0599  0.0885
15023TIP3    H245952   6.316   8.373   6.200 -0.7224  0.3903  0.3327
15024TIP3   OH245953   0.120  10.656   2.936 -0.4990  0.6091 -0.5074
15024TIP3    H145954   0.196  10.676   2.883  0.2577  0.2041  0.3914
15024TIP3    H245955   0.056  10.619   2.875  0.8644 -1.1757 -0.9115
15025TIP3   OH245956   3.652   1.368   2.032  0.2782  0.2000 -0.5894
15025TIP3    H145957   3.735   1.352   2.077 -0.3766 -0.8992  0.3129
15025TIP3    H245958   3.592   1.395   2.103 -1.2497 -3.2623 -0.3613
15026TIP3   OH245959   9.872   6.984   3.063  1.0670  0.4061 -0.2735
15026TIP3    H145960   9.832   7.064   3.031  0.1827 -0.2655 -0.9110
15026TIP3    H245961   9.962   7.009   3.086  0.0910  2.1605  2.0217
15027TIP3   OH245962   6.594   6.851   6.358  0.1050  0.5593  0.1893
15027TIP3    H145963   6.589   6.938   6.320 -0.3423  0.0779 -0.8813
15027TIP3    H245964   6.608   6.792   6.284  0.8934 -0.2410  0.9460
15028TIP3   OH245965   3.651   7.402   6.473 -0.0364 -0.1366  0.0396
15028TIP3    H145966   3.742   7.407   6.446 -0.6633  1.5682 -2.0419
15028TIP3    H245967   3.622   7.315   6.444  0.7743 -0.4892  0.2608
15029TIP3   OH245968   5.533   3.134   6.249 -0.3765 -0.5079 -0.2524
15029TIP3    H145969   5.467   3.163   6.186 -0.0680  0.7559 -0.0137
15029TIP3    H245970   5.610   3.114   6.195  0.5922  2.5747 -0.1862
15030TIP3   OH245971   7.177   2.812   4.230  0.3201  0.3456  0.3131
15030TIP3    H145972   7.109   2.858   4.181  0.3016  0.1789  0.1802
15030TIP3    H245973   7.258   2.853   4.202  0.4836 -0.9375 -1.2405
15031TIP3   OH245974   3.261   1.890  10.466  0.0759  0.0559  0.2175
15031TIP3    H145975   3.193   1.952  10.439 -0.1915 -1.1815 -2.2741
15031TIP3    H245976   3.342   1.926  10.430 -0.3362 -1.8062 -2.9352
15032TIP3   OH245977   7.940   5.047   3.632 -0.0012  0.1659 -0.0083
15032TIP3    H145978   7.965   5.032   3.541  2.1062 -0.0828  0.5673
15032TIP3    H245979   8.020   5.033   3.682 -1.2143 -0.1662  1.9564
15033TIP3   OH245980   5.791   4.632   9.883 -0.3706 -0.3201 -0.1095
15033TIP3    H145981   5.739   4.632   9.964 -0.1823  1.9221  0.0726
15033TIP3    H245982   5.773   4.717   9.843  2.2181  0.0707 -0.6344
15034TIP3   OH245983   4.399   7.887   6.370 -0.3169  0.3569  0.2285
15034TIP3    H145984   4.461   7.938   6.317 -0.4847 -1.0601 -1.4405
15034TIP3    H245985   4.451   7.858   6.445  0.4749  0.8751 -0.0996
15035TIP3   OH245986  10.446   3.484   8.448 -0.3173 -0.5293 -0.3197
15035TIP3    H145987  10.494   3.422   8.503 -0.0714  1.0939  1.3967
15035TIP3    H245988  10.515   3.535   8.405 -0.5172 -0.3153 -0.3871
15036TIP3   OH245989   7.431   5.978   4.125 -0.4919 -0.6232 -0.0018
15036TIP3    H145990   7.337   5.961   4.113 -0.5706 -0.2276  0.0490
15036TIP3    H245991   7.468   5.970   4.037 -1.2061  3.1729 -0.8297
15037TIP3   OH245992   5.771   9.004   9.879  0.3229  0.4382 -0.5349
15037TIP3    H145993   5.689   8.962   9.907  0.8994  0.4265  1.3208
15037TIP3    H245994   5.795   8.959   9.799 -0.0783 -1.4884  0.3572
15038TIP3   OH245995   3.979   1.561   1.102  0.1099  0.4600 -0.2658
15038TIP3    H145996   3.930   1.638   1.130  3.3722  1.5835  3.2783
15038TIP3    H245997   3.942   1.489   1.153  0.0212  0.6525 -0.0543
15039TIP3   OH245998   3.326   3.730   9.799  0.2876 -0.7791  0.1258
15039TIP3    H145999   3.372   3.646   9.797 -0.5231 -1.2437  0.6251
15039TIP3    H246000   3.321   3.753   9.892  1.4517  0.3703 -0.0580
15040TIP3   OH246001  10.058   1.686   3.266  0.2163 -0.1773 -0.2272
15040TIP3    H146002  10.117   1.737   3.322  0.9713  0.5685 -1.6590
15040TIP3    H246003  10.115   1.619   3.228 -0.2008 -0.4058 -0.4425
15041TIP3   OH246004   6.770   6.416   3.556 -0.6079 -0.4807  0.0615
15041TIP3    H146005   6.866   6.423   3.561 -0.6326 -0.3760  0.4198
15041TIP3    H246006   6.739   6.507   3.555 -0.8324 -0.4303  2.7888
15042TIP3   OH246007   9.176   8.039   2.221  0.3033 -0.4634  0.2840
15042TIP3    H146008   9.178   7.991   2.139 -0.1015  0.1980 -0.1204
15042TIP3    H246009   9.184   8.131   2.195 -1.1881 -0.1376  0.8704
15043TIP3   OH246010   0.161   0.897   5.582 -0.0519 -0.2634 -0.0670
15043TIP3    H146011   0.237   0.937   5.624  0.4516 -0.7133 -0.5320
15043TIP3    H246012   0.161   0.807   5.613  0.2842 -0.5815 -0.9397
15044TIP3   OH246013   5.149   2.179   1.942 -0.5155 -0.4801  0.7847
15044TIP3    H146014   5.162   2.163   2.035 -1.2966 -0.5975  0.8808
15044TIP3    H246015   5.075   2.240   1.938 -0.5083 -0.4977  0.2406
15045TIP3   OH246016   2.094  10.641   2.623 -0.2241  0.1785 -0.2275
15045TIP3    H146017   2.047  10.558   2.635 -0.0518  0.0530 -0.4189
15045TIP3    H246018   2.179  10.626   2.663 -0.7621  0.8080  1.2322
15046TIP3   OH246019   4.623   5.328   9.923 -0.3229  0.2299 -0.2524
15046TIP3    H146020   4.534   5.361   9.908 -0.7488  0.4841  2.2913
15046TIP3    H246021   4.648   5.367  10.007  1.0445 -2.1588  0.5238
15047TIP3   OH246022   0.414   1.784   9.445 -1.1643 -0.2255  0.6417
15047TIP3    H146023   0.340   1.741   9.401 -0.8336 -0.6862  0.5306
15047TIP3    H246024   0.421   1.740   9.530 -1.1291 -0.0618  0.7243
15048TIP3   OH246025   4.979   2.890   6.274 -0.1696  0.2922  0.4343
15048TIP3    H146026   4.931   2.958   6.321 -0.9283  0.5424 -0.6673
15048TIP3    H246027   4.953   2.808   6.316 -0.1995  0.5741  0.9732
15049TIP3   OH246028  10.328   3.259   5.537  0.3693  0.3144  0.3796
15049TIP3    H146029  10.362   3.193   5.476 -0.6758 -0.6692  0.8209
15049TIP3    H246030  10.405   3.310   5.562  1.2689 -0.9078  0.2239
15050TIP3   OH246031   3.018   0.196   5.168 -0.1191  0.3986  0.3222
15050TIP3    H146032   2.947   0.192   5.232  1.1478  1.0512  1.8314
15050TIP3    H246033   3.077   0.263   5.202  1.2616 -0.1736 -0.8552
15051TIP3   OH246034   3.092   9.207   9.409  0.0881 -0.0342 -0.1510
15051TIP3    H146035   3.015   9.153   9.390  1.2751 -2.0662  0.5883
15051TIP3    H246036   3.159   9.177   9.347  0.2114  2.0816 -1.1541
15052TIP3   OH246037   0.579   1.057   2.134 -0.6461  0.3781 -0.0528
15052TIP3    H146038   0.620   1.033   2.217 -1.3063 -0.0939  0.1500
15052TIP3    H246039   0.602   0.986   2.074  0.4622  1.0940 -0.5008
15053TIP3   OH246040   2.737   0.518  10.897  0.1162  0.2033  0.5072
15053TIP3    H146041   2.773   0.538  10.810  0.5476  0.6456  0.7870
15053TIP3    H246042   2.662   0.461  10.879  1.2354 -1.1464 -0.0495
15054TIP3   OH246043  10.254   0.414   2.378  0.0423 -0.1891 -0.0056
15054TIP3    H146044  10.345   0.391   2.400  0.4210  1.6829  0.5643
15054TIP3    H246045  10.213   0.331   2.356  1.6239 -1.2191  0.7590
15055TIP3   OH246046   9.362   8.927   4.002  0.1312  0.5615  0.3351
15055TIP3    H146047   9.318   9.011   4.017 -0.5055  0.1417  0.8639
15055TIP3    H246048   9.337   8.903   3.913  0.8293  1.2295 -0.0520
15056TIP3   OH246049   8.998   0.963   5.977 -0.4371  0.2589 -0.1664
15056TIP3    H146050   9.063   0.957   5.906  0.5794  1.1182  0.6543
15056TIP3    H246051   9.003   0.878   6.021  0.7465  0.5793  0.3736
15057TIP3   OH246052   8.777   2.671   4.997  0.3391  0.3068 -0.8098
15057TIP3    H146053   8.792   2.727   5.074 -0.2795  0.9063 -1.1141
15057TIP3    H246054   8.855   2.682   4.944  0.8498 -0.2459 -0.1875
15058TIP3   OH246055   8.211   2.279   5.271  0.4176 -0.3084 -0.0470
15058TIP3    H146056   8.170   2.215   5.213 -0.3313 -0.1300  0.2708
15058TIP3    H246057   8.282   2.317   5.219  0.0267 -0.4553 -0.7018
15059TIP3   OH246058   2.985   9.154   8.348  0.2226 -0.2049 -0.3670
15059TIP3    H146059   2.993   9.062   8.322 -1.9374 -0.7526  0.6998
15059TIP3    H246060   2.916   9.189   8.292 -1.4965 -0.2588  1.6033
15060TIP3   OH246061   0.828   6.199   2.781  0.1467  0.5691 -0.4163
15060TIP3    H146062   0.751   6.250   2.755 -0.0093  1.0541  0.9122
15060TIP3    H246063   0.855   6.154   2.701 -1.4993  0.4132 -0.9158
15061TIP3   OH246064   4.708   7.262   7.432 -0.7957 -0.0782 -0.4168
15061TIP3    H146065   4.626   7.299   7.466 -1.2461 -0.8599 -0.6306
15061TIP3    H246066   4.712   7.293   7.342 -0.8528 -0.0351 -0.4054
15062TIP3   OH246067   6.879   4.657   9.131 -0.3479  0.9932 -0.4928
15062TIP3    H146068   6.964   4.627   9.101 -0.7460 -1.7089  0.7450
15062TIP3    H246069   6.897   4.703   9.213 -0.0261  0.7124 -0.4049
15063TIP3   OH246070   1.577   3.469   9.892 -0.1332 -0.0575  0.5664
15063TIP3    H146071   1.538   3.434   9.972  1.7607 -2.0145  0.7212
15063TIP3    H246072   1.652   3.521   9.922 -1.2265  1.8293  0.1742
15064TIP3   OH246073   7.614  10.890   9.433  0.2451  0.0339  0.1101
15064TIP3    H146074   7.598  10.796   9.439 -0.3822  0.0883 -0.5370
15064TIP3    H246075   7.605  10.922   9.523  3.5132 -0.9355  0.9350
15065TIP3   OH246076   0.981   1.212   4.829 -0.0849  0.3137 -0.1430
15065TIP3    H146077   0.892   1.231   4.857 -0.2629  0.5537 -0.8582
15065TIP3    H246078   1.030   1.293   4.848  0.2218 -0.1652  1.1990
15066TIP3   OH246079   8.790   4.559   5.305  0.6914  0.5191 -0.7673
15066TIP3    H146080   8.853   4.488   5.321  0.1563  0.3537  0.7051
15066TIP3    H246081   8.705   4.522   5.330  0.3726  1.6129 -0.1641
15067TIP3   OH246082   5.839   3.982  10.482 -0.2307  0.1752  0.3518
15067TIP3    H146083   5.765   3.969  10.422 -1.3135  0.2725  1.6100
15067TIP3    H246084   5.917   3.972  10.428 -1.1453 -1.2824 -0.7540
15068TIP3   OH246085   8.573   5.721   0.932 -0.1799 -0.2940  0.1354
15068TIP3    H146086   8.653   5.669   0.922 -0.9305 -2.0446  2.4358
15068TIP3    H246087   8.584   5.764   1.017 -0.7711  1.2083 -0.5209
15069TIP3   OH246088  10.795   5.539   7.753 -0.2691  0.3395  0.0713
15069TIP3    H146089  10.732   5.467   7.762 -0.4403  0.2995 -1.2327
15069TIP3    H246090  10.867   5.501   7.703 -0.2294  0.9948 -0.3684
15070TIP3   OH246091  10.381   6.595   3.388 -0.1507  0.1904 -0.1510
15070TIP3    H146092  10.461   6.580   3.438  0.6537  0.1304 -1.4217
15070TIP3    H246093  10.346   6.677   3.424  0.9109  0.6481 -0.1125
15071TIP3   OH246094   3.901   1.057   2.750 -0.2602  0.1424  0.2520
15071TIP3    H146095   3.969   1.097   2.697 -0.8976 -0.6579 -1.2308
15071TIP3    H246096   3.930   0.967   2.762 -0.5534  0.0792  0.5077
15072TIP3   OH246097   7.060   6.693   7.851  0.6148  0.0208 -0.2519
15072TIP3    H146098   6.996   6.732   7.911 -2.2661 -2.2638 -1.5878
15072TIP3    H246099   7.066   6.602   7.879  1.6987 -0.2966 -1.4513
15073TIP3   OH246100   3.852   8.437   1.708  0.0917 -0.3290  1.1150
15073TIP3    H146101   3.783   8.469   1.767 -1.0603  2.0990 -1.3351
15073TIP3    H246102   3.902   8.516   1.685  0.9604 -1.3267 -0.5787
15074TIP3   OH246103   2.157   8.999   6.030 -0.0773  0.0679 -0.3129
15074TIP3    H146104   2.243   8.981   6.068 -0.7732  0.5152  1.5938
15074TIP3    H246105   2.101   8.929   6.063 -0.7215  0.4885 -0.5027
15075TIP3   OH246106   7.949  10.252   0.691  0.0324 -0.6646 -0.1575
15075TIP3    H146107   7.934  10.236   0.784  1.6231  0.7424  0.3995
15075TIP3    H246108   7.862  10.261   0.653 -0.6923  1.9384  1.8551
15076TIP3   OH246109   5.730   1.562   4.177 -0.2600  0.3316  0.1611
15076TIP3    H146110   5.660   1.513   4.133  0.4931 -1.4365  0.8246
15076TIP3    H246111   5.687   1.603   4.251 -0.7982  0.1267 -0.0320
15077TIP3   OH246112   4.892   7.860   3.559  0.5837 -0.5336  0.2126
15077TIP3    H146113   4.945   7.927   3.602  1.2044 -0.5836 -0.4403
15077TIP3    H246114   4.953   7.817   3.498 -0.5635  0.5016 -1.7888
15078TIP3   OH246115   0.134   3.984   1.283 -0.0747 -0.2176 -0.4092
15078TIP3    H146116   0.042   3.960   1.297  0.0329  0.9090  3.4887
15078TIP3    H246117   0.131   4.079   1.271  0.5342 -0.2390 -0.7096
15079TIP3   OH246118   7.927   6.709   4.903  0.9335 -0.1652  0.3209
15079TIP3    H146119   7.976   6.732   4.982  1.4303  0.6765 -0.2233
15079TIP3    H246120   7.840   6.745   4.918  0.7193 -0.8794  0.8991
15080TIP3   OH246121   4.653   7.233   7.977  0.1178  0.3666 -0.1565
15080TIP3    H146122   4.674   7.140   7.968  0.1151  0.4159 -0.7440
15080TIP3    H246123   4.725   7.279   7.934  0.8855  0.7090  1.4383
15081TIP3   OH246124   5.850   2.523   3.017 -0.0741  0.2108  0.1089
15081TIP3    H146125   5.900   2.446   2.989 -0.6782 -0.3513  0.5267
15081TIP3    H246126   5.910   2.597   3.005 -0.2987  0.0516 -2.6888
15082TIP3   OH246127   6.627  10.505   0.847 -0.3731 -0.1099  0.3523
15082TIP3    H146128   6.653  10.413   0.861  2.1871  0.8369  2.9024
15082TIP3    H246129   6.691  10.538   0.784 -1.6150 -0.1353 -0.9677
15083TIP3   OH246130   7.097   9.562   5.237 -0.5154 -0.5987  1.1018
15083TIP3    H146131   7.091   9.467   5.230  2.3774 -0.7761 -1.0841
15083TIP3    H246132   7.135   9.577   5.324  0.0094 -1.5364  1.0493
15084TIP3   OH246133  10.024   7.908   6.065  0.0486  0.0945 -0.2996
15084TIP3    H146134  10.083   7.959   6.009 -0.4414  0.1384 -0.7820
15084TIP3    H246135  10.032   7.949   6.151 -0.1059  0.8002 -0.6144
15085TIP3   OH246136   1.584   1.453  10.770 -0.4889  0.3441 -0.5319
15085TIP3    H146137   1.560   1.361  10.778 -0.5985  0.3767 -0.4930
15085TIP3    H246138   1.666   1.461  10.820 -0.1320  0.1302 -1.0739
15086TIP3   OH246139   5.829   4.670   1.151  0.1621 -0.2391  0.0169
15086TIP3    H146140   5.798   4.580   1.162  0.1885 -0.5577 -2.0482
15086TIP3    H246141   5.789   4.718   1.223  0.3426 -1.9340  1.3053
15087TIP3   OH246142   2.416   1.946   5.186  0.4224  0.0828  0.0188
15087TIP3    H146143   2.321   1.956   5.181  0.3575 -0.8472 -0.9012
15087TIP3    H246144   2.448   1.984   5.104  0.8623  0.4949  0.3728
15088TIP3   OH246145   6.763   8.197   5.551  0.2693  0.3082  0.5577
15088TIP3    H146146   6.797   8.133   5.489  0.3503  0.4219  0.4861
15088TIP3    H246147   6.730   8.144   5.624 -0.6421  0.1307  0.0240
15089TIP3   OH246148   8.798   2.513   3.204 -0.0065  0.1385 -0.0707
15089TIP3    H146149   8.882   2.466   3.199 -0.4660 -0.7296  0.2461
15089TIP3    H246150   8.737   2.449   3.241 -0.6644  0.9697  0.2868
15090TIP3   OH246151  10.608   3.465  10.049 -0.1087 -0.1711  0.4275
15090TIP3    H146152  10.586   3.517  10.126  1.1344 -0.5223  1.0455
15090TIP3    H246153  10.581   3.376  10.071 -1.3322  0.0115 -0.2450
15091TIP3   OH246154   0.404   9.035   8.624 -0.1083  0.4090 -0.1864
15091TIP3    H146155   0.430   8.991   8.705  0.2845  0.7104 -0.1452
15091TIP3    H246156   0.472   9.100   8.609  0.9977 -1.0540 -1.8901
15092TIP3   OH246157   0.737   8.681   4.052 -0.4522 -0.1056 -0.0914
15092TIP3    H146158   0.818   8.705   4.098 -0.6029  0.2853 -0.0238
15092TIP3    H246159   0.672   8.672   4.121  0.0645 -2.8472  0.1263
15093TIP3   OH246160   5.130  10.791   1.360 -0.1008 -0.0054  0.0883
15093TIP3    H146161   5.062  10.725   1.365 -0.7612  0.5587 -1.1542
15093TIP3    H246162   5.211  10.744   1.378 -0.3883 -1.4371 -2.0469
15094TIP3   OH246163   2.594   5.741   6.947  0.7433 -0.0696 -0.0549
15094TIP3    H146164   2.517   5.724   6.892  1.2873 -0.0829 -0.8256
15094TIP3    H246165   2.624   5.828   6.920  0.9396 -0.0239  0.3142
15095TIP3   OH246166   7.270   2.457   6.505  0.7237 -0.2014  0.2155
15095TIP3    H146167   7.216   2.457   6.584  0.3179 -0.0668 -0.0547
15095TIP3    H246168   7.307   2.369   6.501 -2.5918 -1.6817 -1.6624
15096TIP3   OH246169   3.491   4.079   1.183 -0.4646  0.2749 -0.1322
15096TIP3    H146170   3.561   4.058   1.121  1.1560 -1.3566  2.0796
15096TIP3    H246171   3.435   4.002   1.182 -1.1512  0.7710 -0.4646
15097TIP3   OH246172   9.101   9.487   3.900 -0.2657 -0.7965 -0.6803
15097TIP3    H146173   9.092   9.474   3.806  0.4974  0.5147 -0.9526
15097TIP3    H246174   9.033   9.431   3.938 -0.4220 -1.5345 -1.9858
15098TIP3   OH246175   3.459   9.118   4.313 -0.5473  0.3402  0.4371
15098TIP3    H146176   3.431   9.068   4.390 -0.8358  1.6020  1.1916
15098TIP3    H246177   3.554   9.124   4.321 -0.4949 -0.1979  0.2609
15099TIP3   OH246178   5.791   5.944   2.915 -0.4041  0.0262 -0.5055
15099TIP3    H146179   5.852   6.012   2.942  0.7892 -1.2798  0.2697
15099TIP3    H246180   5.734   5.931   2.992  1.3602 -1.9183  0.5985
15100TIP3   OH246181   5.896   1.465   3.959 -0.2817 -0.4880  0.0632
15100TIP3    H146182   5.862   1.474   4.048 -0.7515  0.5785 -0.2147
15100TIP3    H246183   5.984   1.503   3.963  0.1944 -1.5556  0.3382
15101TIP3   OH246184   9.718  10.356   1.165  0.1497  0.1742 -0.5019
15101TIP3    H146185   9.721  10.375   1.071 -2.7901  0.4432 -0.6373
15101TIP3    H246186   9.750  10.436   1.207 -1.8546  1.4500 -1.2758
15102TIP3   OH246187  10.127  10.339   4.841 -0.1301 -0.1630  0.2746
15102TIP3    H146188  10.221  10.345   4.824  0.0641 -0.1823  1.2802
15102TIP3    H246189  10.090  10.417   4.799  0.1248 -0.8932 -1.3757
15103TIP3   OH246190   1.536   1.835   1.743  0.1174 -0.1361 -0.0192
15103TIP3    H146191   1.602   1.883   1.692  0.5440 -2.3047 -1.6616
15103TIP3    H246192   1.454   1.883   1.725  0.6981  0.6707 -0.6322
15104TIP3   OH246193   2.802   5.659   6.426  0.1083 -0.1174 -0.8586
15104TIP3    H146194   2.800   5.597   6.352  1.0926 -3.3185  1.5811
15104TIP3    H246195   2.714   5.652   6.464  0.0588  0.4122 -0.8747
15105TIP3   OH246196   7.552   3.799   9.723  0.2576 -0.0906  0.7868
15105TIP3    H146197   7.511   3.723   9.682  0.6341  1.2733 -2.3494
15105TIP3    H246198   7.644   3.776   9.729  0.0332 -0.7524  2.0923
15106TIP3   OH246199   7.755   7.872   0.601  0.2898  0.6320  0.0696
15106TIP3    H146200   7.744   7.793   0.547 -1.0208  0.3439  0.7248
15106TIP3    H246201   7.756   7.944   0.538  0.3882  0.1764 -0.4584
15107TIP3   OH246202   9.768   2.699   4.415  0.0121 -0.1264 -0.0086
15107TIP3    H146203   9.808   2.755   4.481 -1.1804  0.4900  0.2285
15107TIP3    H246204   9.778   2.610   4.448 -1.1124  0.2130  1.3348
15108TIP3   OH246205   9.373   6.172   2.552  0.3172  0.6576  0.3811
15108TIP3    H146206   9.413   6.145   2.634 -0.0451 -0.5527  0.1707
15108TIP3    H246207   9.279   6.167   2.568  0.2430  0.2506 -0.1527
15109TIP3   OH246208   8.273   2.525   5.781 -0.1370 -0.0559 -0.0616
15109TIP3    H146209   8.298   2.482   5.698 -0.9763  0.2867 -0.5115
15109TIP3    H246210   8.259   2.452   5.841 -0.5411 -0.3779 -0.5286
15110TIP3   OH246211   9.040   8.388   6.950 -0.2501 -0.4643 -0.3725
15110TIP3    H146212   9.074   8.317   6.896  0.4459 -0.0002 -0.5532
15110TIP3    H246213   9.065   8.363   7.040  1.7044  0.4463 -0.5988
15111TIP3   OH246214   6.312   8.305   5.805  0.2063 -0.2045 -0.4869
15111TIP3    H146215   6.298   8.303   5.900 -2.0439  1.1958 -0.7204
15111TIP3    H246216   6.394   8.353   5.794  0.0836  0.3183  0.7307
15112TIP3   OH246217   5.251   7.437   6.774 -0.0054  0.6239  0.5829
15112TIP3    H146218   5.159   7.410   6.776  0.6326 -1.7751  0.9345
15112TIP3    H246219   5.273   7.441   6.681 -0.0902 -0.2892  0.5161
15113TIP3   OH246220   9.770   5.479   3.586  0.5753  0.4626  0.1745
15113TIP3    H146221   9.751   5.464   3.678  1.0821  0.0815  0.2174
15113TIP3    H246222   9.866   5.477   3.580  0.7535  3.6230  0.1952
15114TIP3   OH246223   1.093   8.466   6.834  0.5009 -0.0875  0.1161
15114TIP3    H146224   1.171   8.487   6.886 -0.2985 -0.9222  1.7208
15114TIP3    H246225   1.123   8.398   6.773  1.2123  0.1695  0.1665
15115TIP3   OH246226   1.245   1.581   4.068  0.2384  0.1240 -0.6932
15115TIP3    H146227   1.180   1.529   4.115  0.7827  0.9464  1.0304
15115TIP3    H246228   1.317   1.520   4.053  0.8976  0.3196  1.3598
15116TIP3   OH246229   9.891   3.161   9.491  0.2667  0.5404  0.2307
15116TIP3    H146230   9.851   3.194   9.572 -2.1472 -2.3751  0.4001
15116TIP3    H246231   9.974   3.122   9.520 -0.9502 -1.2309  1.5615
15117TIP3   OH246232   8.468   1.023   9.546  0.4093 -0.2900  0.1200
15117TIP3    H146233   8.531   1.090   9.572  0.8410 -0.2335 -1.0129
15117TIP3    H246234   8.441   1.048   9.458  1.0489 -1.9186 -0.5889
15118TIP3   OH246235   7.875   9.930   9.259 -0.8512 -0.1597  0.2111
15118TIP3    H146236   7.830   9.897   9.181 -0.3640  0.3245 -0.2861
15118TIP3    H246237   7.837   9.880   9.332 -1.4784 -0.4537 -0.3064
15119TIP3   OH246238   4.879   8.607   2.577  0.1087 -0.0182 -0.3906
15119TIP3    H146239   4.857   8.548   2.505  1.6036 -0.0964 -0.8183
15119TIP3    H246240   4.974   8.601   2.584  0.2974  2.2337 -0.3573
15120TIP3   OH246241   2.938   4.235   2.478  0.1725  0.2123 -0.2912
15120TIP3    H146242   2.964   4.148   2.507  1.6363  0.4738 -0.7265
15120TIP3    H246243   2.843   4.233   2.479  0.1485 -0.6508  1.9056
15121TIP3   OH246244   5.712   9.474   3.906 -0.1157  0.1015  0.2168
15121TIP3    H146245   5.673   9.392   3.877 -2.9661  0.6764  1.9345
15121TIP3    H246246   5.649   9.542   3.879 -0.2035  1.1630  2.7610
15122TIP3   OH246247   0.809   2.374   7.402  0.5541 -0.0958  0.4098
15122TIP3    H146248   0.808   2.312   7.475 -2.7642 -0.6518  0.0446
15122TIP3    H246249   0.869   2.335   7.338  0.9803 -1.2945  1.4943
15123TIP3   OH246250   3.106  10.663   5.595  0.3281  0.0847 -0.1643
15123TIP3    H146251   3.184  10.690   5.642  0.7238 -0.8674 -0.2573
15123TIP3    H246252   3.033  10.699   5.646  0.7713 -0.3271  0.7811
15124TIP3   OH246253   1.584   8.648   4.621 -0.6157 -0.0121 -0.7570
15124TIP3    H146254   1.578   8.553   4.629  1.2184 -0.0105  1.9253
15124TIP3    H246255   1.511   8.681   4.672  0.4173 -0.0495  0.8259
15125TIP3   OH246256   6.776  10.724   1.929 -0.3602  0.4603  0.5710
15125TIP3    H146257   6.851  10.684   1.974  0.0843 -0.5116 -0.9202
15125TIP3    H246258   6.746  10.793   1.987 -0.9213 -1.7849  3.1574
15126TIP3   OH246259   2.874  10.120   8.948  0.3490 -0.4056  0.7267
15126TIP3    H146260   2.847  10.210   8.967 -2.8908 -1.3702  1.2774
15126TIP3    H246261   2.963  10.113   8.984  0.1974  2.1885  1.8085
15127TIP3   OH246262   0.330   5.386   3.015 -0.7004  0.1823  0.0059
15127TIP3    H146263   0.388   5.350   2.948 -1.2343  0.7109 -0.7573
15127TIP3    H246264   0.372   5.363   3.098 -0.7654 -1.7603 -0.4539
15128TIP3   OH246265   9.567   7.674   4.119 -0.1064 -0.1084  0.1141
15128TIP3    H146266   9.501   7.662   4.051 -0.4038  0.1298  0.3600
15128TIP3    H246267   9.627   7.600   4.107 -1.4577 -1.4153  1.0955
15129TIP3   OH246268   6.818  10.687   8.561 -0.2996  0.2342 -0.1935
15129TIP3    H146269   6.872  10.706   8.638  0.9308 -0.1249 -0.9394
15129TIP3    H246270   6.728  10.690   8.594  0.1679  0.6982  1.1185
15130TIP3   OH246271   4.344   7.403   2.667 -0.0370  0.7600  0.1454
15130TIP3    H146272   4.400   7.371   2.596  1.4626  2.0040  0.6915
15130TIP3    H246273   4.303   7.482   2.631 -0.0423  0.8454  0.3417
15131TIP3   OH246274   8.379   0.258   8.476 -0.6085 -0.3034 -0.0071
15131TIP3    H146275   8.393   0.305   8.394 -0.1473 -0.4115  0.0060
15131TIP3    H246276   8.463   0.216   8.494 -0.2357  0.8978  1.2799
15132TIP3   OH246277  10.655   3.078   0.528 -0.0972 -0.4371  0.8837
15132TIP3    H146278  10.604   3.010   0.572  1.7184 -0.9445  2.3522
15132TIP3    H246279  10.743   3.069   0.565  0.5406  1.8004  0.0641
15133TIP3   OH246280   3.745   6.268   6.933 -0.3960  0.0061  0.0060
15133TIP3    H146281   3.675   6.331   6.918  2.0096  3.0826  0.6683
15133TIP3    H246282   3.733   6.240   7.023 -1.3510 -0.3155 -0.2135
15134TIP3   OH246283   9.976   4.147   5.417 -0.3447 -0.3417 -0.3707
15134TIP3    H146284   9.917   4.176   5.487  0.0857 -1.4469  0.4951
15134TIP3    H246285   9.929   4.165   5.336 -0.9634  0.7499  0.2164
15135TIP3   OH246286   2.631   5.856   7.519 -1.0108  0.2934  0.4681
15135TIP3    H146287   2.680   5.907   7.583 -2.7594 -1.5560  3.5392
15135TIP3    H246288   2.697   5.804   7.473  0.2212  0.2035  2.2253
15136TIP3   OH246289   1.749  10.136   5.207 -0.4584  0.2515 -0.5589
15136TIP3    H146290   1.820  10.147   5.270 -1.3936 -2.1061  1.0403
15136TIP3    H246291   1.793  10.134   5.122  1.1446  0.9086  0.2108
15137TIP3   OH246292   8.965   1.749   2.029 -0.1845 -0.5537 -0.4742
15137TIP3    H146293   9.045   1.743   1.976  0.5329 -2.7024  0.7227
15137TIP3    H246294   8.901   1.791   1.972  1.9657  2.0141 -1.2187
15138TIP3   OH246295   7.091   8.860   7.590  0.0137  0.1601  0.0762
15138TIP3    H146296   7.021   8.797   7.572 -0.8873  1.5566 -1.6567
15138TIP3    H246297   7.155   8.845   7.521  1.9481 -1.6854  2.1357
15139TIP3   OH246298  10.303   8.490   4.847 -0.0307 -0.2501 -0.4897
15139TIP3    H146299  10.326   8.448   4.764  2.4424 -0.7196  0.3613
15139TIP3    H246300  10.265   8.419   4.900  1.3633 -0.7497 -0.1201
15140TIP3   OH246301   2.763   4.033   8.226 -0.5302  0.6682 -0.3951
15140TIP3    H146302   2.796   4.040   8.136  2.8100  1.9051  0.7655
15140TIP3    H246303   2.730   4.121   8.246 -4.1292 -0.3242 -1.2261
15141TIP3   OH246304   4.189  10.441   0.706  0.3107 -0.0788 -0.4192
15141TIP3    H146305   4.272  10.402   0.732  0.7477  0.0973 -1.5034
15141TIP3    H246306   4.166  10.396   0.625 -0.1534  0.5715 -0.6558
15142TIP3   OH246307   6.554   3.697   3.236  0.0542  0.3420 -0.2452
15142TIP3    H146308   6.526   3.763   3.299  1.9948 -0.4575  1.5985
15142TIP3    H246309   6.490   3.627   3.244  1.3121 -0.6426  2.4810
15143TIP3   OH246310   4.777   5.405   3.008  0.1140 -0.5118  0.8473
15143TIP3    H146311   4.851   5.431   2.954  0.2973 -0.6638  1.0265
15143TIP3    H246312   4.722   5.484   3.013 -0.4312 -0.7913 -0.4129
15144TIP3   OH246313   3.679   8.975   5.221  0.1669  0.2702  0.5259
15144TIP3    H146314   3.732   8.895   5.221  1.0662  0.8128  2.4472
15144TIP3    H246315   3.673   9.000   5.313 -0.8613  1.9363  0.0535
15145TIP3   OH246316   8.800   3.822   1.949 -0.2341 -0.0575  0.4185
15145TIP3    H146317   8.788   3.867   2.033  1.3386 -0.0928  0.6923
15145TIP3    H246318   8.806   3.729   1.973 -0.9421 -0.1793  0.1343
15146TIP3   OH246319   0.138   6.386  10.049  0.4153  0.2855 -0.0448
15146TIP3    H146320   0.167   6.435  10.126  0.7948 -0.1972  0.1247
15146TIP3    H246321   0.177   6.300  10.059 -0.2522 -0.0629 -0.3339
15147TIP3   OH246322   9.536  10.411  10.739  0.1094  0.1335  0.1980
15147TIP3    H146323   9.519  10.452  10.655 -0.2395 -0.2401  0.0802
15147TIP3    H246324   9.514  10.319  10.726  2.0448 -0.3558  0.1076
15148TIP3   OH246325  10.155   0.164  10.273 -0.0668  0.2126  0.1084
15148TIP3    H146326  10.169   0.202  10.186  1.7308  0.1335  0.3460
15148TIP3    H246327  10.240   0.167  10.315 -0.3696 -1.9697  0.9887
15149TIP3   OH246328   4.995   5.816   1.129 -0.4565  0.0684  0.3198
15149TIP3    H146329   4.994   5.908   1.102  1.0697 -0.0101 -0.0923
15149TIP3    H246330   4.912   5.804   1.176 -1.7292  1.0594 -1.5515
15150TIP3   OH246331   1.520   9.921   9.635  0.1011 -0.2430 -0.0075
15150TIP3    H146332   1.566  10.003   9.613  1.0004 -0.3900  1.1723
15150TIP3    H246333   1.461   9.946   9.707 -2.4842  0.1571 -2.1187
15151TIP3   OH246334   1.030   5.541   5.316 -0.9081  0.6621 -0.4428
15151TIP3    H146335   1.082   5.530   5.236 -2.9454 -0.1703 -1.7319
15151TIP3    H246336   0.971   5.614   5.297 -0.7802  1.0835  0.6829
15152TIP3   OH246337   1.866   3.397   2.297 -0.5221  0.7929  0.2486
15152TIP3    H146338   1.952   3.421   2.263 -0.0135 -1.0173  0.1986
15152TIP3    H246339   1.807   3.409   2.223  0.0635 -0.0645 -0.3765
15153TIP3   OH246340   2.867   1.447   8.996  0.0367  0.2853 -0.4946
15153TIP3    H146341   2.851   1.476   9.086  0.5023 -0.8164 -0.0426
15153TIP3    H246342   2.850   1.353   8.998 -1.0340  0.4172 -1.8306
15154TIP3   OH246343   2.800   5.763   9.477  0.6459  0.3730 -0.3987
15154TIP3    H146344   2.720   5.790   9.521 -0.4740  0.5979 -2.4809
15154TIP3    H246345   2.787   5.671   9.457  0.5569  0.5883 -1.3982
15155TIP3   OH246346   8.899   0.887   6.539 -0.4749  0.2243  0.8062
15155TIP3    H146347   8.853   0.921   6.616 -0.8325  0.0009  0.6918
15155TIP3    H246348   8.925   0.799   6.563 -2.1719 -0.5447  0.0510
15156TIP3   OH246349  10.077   2.704   3.370 -0.7106 -0.0828 -0.4705
15156TIP3    H146350  10.054   2.709   3.463  0.0396 -0.6282 -0.2415
15156TIP3    H246351  10.055   2.614   3.346  1.6898 -0.8550 -0.0670
15157TIP3   OH246352   6.450   6.450   2.170 -0.3048 -0.0440  0.3103
15157TIP3    H146353   6.528   6.505   2.176 -0.0759 -0.2935 -0.2594
15157TIP3    H246354   6.422   6.438   2.260  0.5177 -0.2387  0.5521
15158TIP3   OH246355   5.939   2.456   8.666  0.7312  0.4213  0.0900
15158TIP3    H146356   5.890   2.374   8.656  0.5544  0.3288  1.5381
15158TIP3    H246357   6.011   2.448   8.603 -0.4575  0.0900 -1.2967
15159TIP3   OH246358   0.395   7.376   9.870 -0.3229 -0.5016 -0.3501
15159TIP3    H146359   0.385   7.471   9.878  2.2027 -0.2548  1.2099
15159TIP3    H246360   0.397   7.345   9.960  2.1011 -1.5207 -0.6631
15160TIP3   OH246361   4.833   3.125   7.895  0.0740  0.1077  0.4284
15160TIP3    H146362   4.834   3.057   7.828 -0.9353  0.9842 -0.5155
15160TIP3    H246363   4.775   3.091   7.964 -0.0120 -0.2129  0.1969
15161TIP3   OH246364   9.361   1.955   6.696 -0.0205 -0.1948 -0.3125
15161TIP3    H146365   9.271   1.958   6.663 -0.3004  0.6967  0.5123
15161TIP3    H246366   9.407   2.021   6.645 -0.3400  0.8367  0.6857
15162TIP3   OH246367   7.969   5.913   3.247 -0.4341 -0.2676  0.2174
15162TIP3    H146368   8.052   5.908   3.199 -1.4168 -1.5883 -1.4693
15162TIP3    H246369   7.971   5.999   3.289  0.5959  0.9502 -2.0970
15163TIP3   OH246370   2.681   9.684   6.015 -0.2489 -0.1029  0.4199
15163TIP3    H146371   2.759   9.656   6.064 -1.9501  0.2004  3.6198
15163TIP3    H246372   2.619   9.611   6.027 -0.7568  0.0147 -1.3345
15164TIP3   OH246373   0.057   4.929   6.208  0.2473 -0.3318  0.4462
15164TIP3    H146374   0.039   4.911   6.116 -1.3123  2.2462  0.1434
15164TIP3    H246375   0.150   4.951   6.210  0.5236 -1.3734 -0.3300
15165TIP3   OH246376  10.555   5.654   5.440  0.1651  0.2260 -0.5758
15165TIP3    H146377  10.628   5.655   5.501 -0.0268 -1.7679 -0.2364
15165TIP3    H246378  10.588   5.605   5.364  0.0379  1.6999 -1.6253
15166TIP3   OH246379   4.196   9.717   7.316 -0.2935 -0.3882  0.2119
15166TIP3    H146380   4.263   9.779   7.347  0.6616  0.4300 -3.0401
15166TIP3    H246381   4.132   9.773   7.272 -1.5242 -1.4417  0.6346
15167TIP3   OH246382  10.349   5.295   3.888  0.4715  0.4144  0.0928
15167TIP3    H146383  10.401   5.269   3.812 -0.3762 -0.4127 -0.2147
15167TIP3    H246384  10.412   5.300   3.960  0.9235 -1.0695 -0.1642
15168TIP3   OH246385   0.461  10.487   4.612 -0.0843 -0.1856 -0.2775
15168TIP3    H146386   0.547  10.486   4.570 -1.0171 -1.7467 -2.3473
15168TIP3    H246387   0.432  10.578   4.605  1.3195  0.3319  0.3288
15169TIP3   OH246388  10.095   8.970   7.390  0.0799  0.5138  0.1527
15169TIP3    H146389  10.034   9.001   7.457 -1.7584  0.7240 -1.5320
15169TIP3    H246390  10.088   8.874   7.393 -0.3761  0.5374 -0.0469
15170TIP3   OH246391   2.452  10.113   2.842  0.2464  0.0479  0.1152
15170TIP3    H146392   2.382  10.048   2.841 -1.1168  1.4286  0.6402
15170TIP3    H246393   2.502  10.095   2.921  1.1090 -1.5285 -0.7393
15171TIP3   OH246394   3.693   2.953   1.920  0.4301  0.1819  0.0452
15171TIP3    H146395   3.667   3.043   1.898  0.2398 -0.0137 -0.5697
15171TIP3    H246396   3.641   2.931   1.997 -0.7473  0.0466 -0.7502
15172TIP3   OH246397   9.113   5.669   5.346 -0.0587  0.2176 -0.2069
15172TIP3    H146398   9.069   5.754   5.345  2.1567  1.4480 -1.7068
15172TIP3    H246399   9.138   5.657   5.438  0.4603  1.6798 -0.1281
15173TIP3   OH246400   0.402   4.320   6.455 -0.0138 -0.4702 -0.3959
15173TIP3    H146401   0.307   4.324   6.469  0.1902  1.1946  0.8775
15173TIP3    H246402   0.412   4.331   6.361 -1.1133 -2.3080 -0.7886
15174TIP3   OH246403   7.051   8.248   1.120  0.2501  0.0811 -0.0422
15174TIP3    H146404   7.114   8.213   1.057  1.0322  0.9118  0.2545
15174TIP3    H246405   6.985   8.179   1.128  1.0557 -0.7721 -0.4452
15175TIP3   OH246406   0.120   7.518   3.613 -0.2469  0.8396 -0.0198
15175TIP3    H146407   0.155   7.590   3.560 -0.2090  0.3401 -0.6859
15175TIP3    H246408   0.084   7.457   3.549  0.1153  0.0568  0.5095
15176TIP3   OH246409   7.659   0.430   9.999  0.0301 -0.1756  0.0177
15176TIP3    H146410   7.659   0.489   9.924 -1.1353  0.4061  0.4588
15176TIP3    H246411   7.703   0.478  10.069 -1.8223  0.6337  0.6901
15177TIP3   OH246412   8.906   7.751  10.761 -0.6708  0.3631 -0.2867
15177TIP3    H146413   8.869   7.832  10.796 -1.9169  0.9583 -2.7920
15177TIP3    H246414   8.925   7.770  10.670 -1.2111 -2.2134 -1.0194
15178TIP3   OH246415   4.160   0.400  10.238 -0.1486 -0.3026  0.0523
15178TIP3    H146416   4.110   0.319  10.242  0.3608 -0.8308 -2.5433
15178TIP3    H246417   4.168   0.428  10.329 -0.7449 -2.8912  0.9796
15179TIP3   OH246418   4.557   7.517   4.115 -0.1797  0.1962 -0.1384
15179TIP3    H146419   4.563   7.580   4.187  1.3333  0.7522 -0.7094
15179TIP3    H246420   4.470   7.532   4.078 -1.0757 -0.2573  1.6728
15180TIP3   OH246421   7.114   8.987   1.164 -0.1451  0.1911  0.1702
15180TIP3    H146422   7.169   8.929   1.216 -1.3907 -1.6656 -0.4704
15180TIP3    H246423   7.070   9.042   1.228  0.2667 -0.3010  0.8917
15181TIP3   OH246424   6.648   5.792   1.131 -0.6688 -0.2667  0.1905
15181TIP3    H146425   6.567   5.823   1.172 -0.8848 -0.5236 -0.0355
15181TIP3    H246426   6.637   5.697   1.125 -0.5435 -0.2587 -0.2513
15182TIP3   OH246427   1.946  10.424   8.934  0.0107  0.7801 -0.0748
15182TIP3    H146428   1.881  10.384   8.877  0.1760  2.5483 -1.5917
15182TIP3    H246429   2.028  10.378   8.914 -0.7387 -1.8657  2.2658
15183TIP3   OH246430   6.877   5.196   9.827  0.6842 -0.1804 -0.2101
15183TIP3    H146431   6.924   5.225   9.905  0.3377  0.0125 -0.0710
15183TIP3    H246432   6.785   5.203   9.850  0.5325  1.4267 -1.1615
15184TIP3   OH246433   7.418   1.509   9.908  0.3069 -0.3407  0.4636
15184TIP3    H146434   7.434   1.496   9.815 -0.0833 -0.0409  0.3528
15184TIP3    H246435   7.450   1.597   9.926  2.3024 -1.1390  1.0666
15185TIP3   OH246436   4.805  10.345   8.832  0.0878 -0.0957 -0.5355
15185TIP3    H146437   4.744  10.280   8.867  1.6673 -0.6651  1.3544
15185TIP3    H246438   4.890  10.318   8.866  1.1965  1.4799 -1.9099
15186TIP3   OH246439   1.944   5.946   1.382 -0.2890 -0.0771 -0.0077
15186TIP3    H146440   1.974   6.034   1.359  1.4027 -0.6407 -0.0728
15186TIP3    H246441   1.849   5.955   1.391 -0.0341  2.1018  1.4446
15187TIP3   OH246442  10.689   8.056   8.451 -0.0802 -0.0122  0.1057
15187TIP3    H146443  10.783   8.055   8.433 -0.3187 -1.6625 -1.2977
15187TIP3    H246444  10.682   8.030   8.543  0.8511  1.0410  0.4925
15188TIP3   OH246445  10.877   0.909  10.235 -0.2887 -0.3726 -0.0097
15188TIP3    H146446  10.936   0.850  10.188 -0.1349 -1.9841  2.0533
15188TIP3    H246447  10.918   0.995  10.229  1.1432 -1.0633 -0.4630
15189TIP3   OH246448   3.477   5.659  10.003 -0.0384 -0.3154 -0.6061
15189TIP3    H146449   3.453   5.569   9.980  0.3250 -0.3644 -0.8025
15189TIP3    H246450   3.423   5.714   9.946 -1.7031 -0.3464  0.8460
15190TIP3   OH246451   9.310   9.677   4.551  0.1065 -0.1232  0.5466
15190TIP3    H146452   9.275   9.729   4.479  0.8971 -0.3027  0.0202
15190TIP3    H246453   9.365   9.611   4.509 -0.8452 -1.3776  1.2095
15191TIP3   OH246454   4.369  10.209   4.736 -0.0595  0.2162 -0.0854
15191TIP3    H146455   4.302  10.178   4.797 -1.3482  1.8650 -0.5635
15191TIP3    H246456   4.374  10.141   4.669 -2.2627  0.6105 -0.7414
15192TIP3   OH246457   0.525   1.437   4.878  0.1509  0.2082  0.1760
15192TIP3    H146458   0.506   1.494   4.953 -1.5421  0.2239 -0.2349
15192TIP3    H246459   0.441   1.397   4.856  0.7054 -0.1502 -1.4322
15193TIP3   OH246460   6.800   0.892   6.440  0.0748 -0.3659 -0.6834
15193TIP3    H146461   6.708   0.873   6.455 -0.2163  0.8258 -0.8539
15193TIP3    H246462   6.827   0.944   6.516  0.8952 -1.5583 -0.1236
15194TIP3   OH246463   5.602   0.994   0.599  0.4858 -0.2134  0.0648
15194TIP3    H146464   5.630   0.965   0.685  1.9377  0.4255 -0.1742
15194TIP3    H246465   5.647   1.077   0.585 -3.1474  2.0937  0.5357
15195TIP3   OH246466  10.213   6.735   4.206 -0.0884  0.6846 -0.4386
15195TIP3    H146467  10.233   6.821   4.170  2.7575  0.3015  0.0133
15195TIP3    H246468  10.245   6.738   4.296  1.3570 -1.2189 -0.8169
15196TIP3   OH246469   7.021   6.889   7.647 -0.0748  0.7231 -0.4176
15196TIP3    H146470   7.066   6.861   7.568 -0.1303  0.2295 -0.2766
15196TIP3    H246471   7.052   6.830   7.715 -0.4659  0.7693 -0.1926
15197TIP3   OH246472   0.686   8.736   1.072 -0.4312  0.2315 -0.2693
15197TIP3    H146473   0.695   8.642   1.084  1.1233  0.3550 -0.2639
15197TIP3    H246474   0.702   8.773   1.159 -0.7929  0.5166 -0.3209
15198TIP3   OH246475   3.845  10.339  10.882 -0.4858  0.1760 -0.2415
15198TIP3    H146476   3.922  10.335  10.939 -0.1081 -2.7744 -0.7843
15198TIP3    H246477   3.873  10.296  10.802 -2.4136 -0.0619 -0.8324
15199TIP3   OH246478   2.466   4.679   3.886  0.2028  0.0653 -0.0183
15199TIP3    H146479   2.471   4.583   3.877 -0.9525  0.0544 -0.8097
15199TIP3    H246480   2.372   4.698   3.883  0.3512  1.1266  1.4314
15200TIP3   OH246481   0.052   4.296   7.932  0.3638  0.5432  0.1571
15200TIP3    H146482   0.092   4.357   7.994  0.7746 -0.0647  0.5046
15200TIP3    H246483  -0.029   4.339   7.905  0.3188  0.9442  0.8961
15201TIP3   OH246484   9.846   1.731   9.378 -0.0090 -0.2347  0.7477
15201TIP3    H146485   9.763   1.694   9.348  0.8147 -2.1731  0.7062
15201TIP3    H246486   9.829   1.825   9.387 -1.0891  0.1315 -3.2148
15202TIP3   OH246487   3.112   9.875   4.657 -0.0793 -0.1041 -0.1373
15202TIP3    H146488   3.041   9.811   4.650  0.3869 -0.7448  0.7786
15202TIP3    H246489   3.088   9.944   4.595 -0.4332 -1.3172 -1.4144
15203TIP3   OH246490   8.633   8.749   7.911 -0.5661  0.0427 -0.0106
15203TIP3    H146491   8.629   8.793   7.825 -2.4530 -0.0565 -0.0353
15203TIP3    H246492   8.725   8.726   7.923  0.3764  3.1658 -0.4254
15204TIP3   OH246493   8.139   1.165   3.775  0.6732 -0.0234  0.5345
15204TIP3    H146494   8.128   1.214   3.857 -0.2892 -0.7652  0.8675
15204TIP3    H246495   8.219   1.200   3.737  0.0629  1.7477  0.7940
15205TIP3   OH246496   4.587   2.859   1.581 -0.4858  0.1256 -0.6547
15205TIP3    H146497   4.522   2.791   1.600 -0.2940 -0.4932 -2.0559
15205TIP3    H246498   4.537   2.940   1.576 -0.8721 -0.0591  0.0169
15206TIP3   OH246499   3.564   9.225   7.564 -0.1613 -0.4595 -0.4184
15206TIP3    H146500   3.572   9.232   7.659 -1.7925  2.6311 -0.3835
15206TIP3    H246501   3.511   9.146   7.550  2.3274 -2.5420  0.9578
15207TIP3   OH246502   0.819   0.963   3.590 -0.6741  0.2235 -0.4926
15207TIP3    H146503   0.728   0.984   3.609 -1.1755 -0.6072 -1.8288
15207TIP3    H246504   0.857   0.940   3.675 -1.9728 -0.3377 -0.0427
15208TIP3   OH246505  10.006   3.026   4.792  0.1458  0.3844  0.3102
15208TIP3    H146506  10.053   3.025   4.875 -0.7228  0.7042  0.8158
15208TIP3    H246507   9.914   3.029   4.816 -0.1009  1.1350 -0.6641
15209TIP3   OH246508   5.343   8.005   8.181  0.5447 -0.0775 -0.7031
15209TIP3    H146509   5.419   7.974   8.231  1.3327 -0.3890 -2.0530
15209TIP3    H246510   5.379   8.036   8.099 -0.7250  0.4957 -1.0758
15210TIP3   OH246511   7.538   0.633   6.364 -0.1151 -0.1444 -0.4040
15210TIP3    H146512   7.550   0.660   6.455  1.7461  1.4597 -1.0573
15210TIP3    H246513   7.627   0.612   6.333 -0.4949  0.7184 -2.2228
15211TIP3   OH246514   9.317  10.071   3.915  0.4265 -0.3520 -0.0902
15211TIP3    H146515   9.355   9.991   3.953 -0.8438 -0.0215  2.0769
15211TIP3    H246516   9.282  10.044   3.831  0.5255 -1.9587  0.3525
15212TIP3   OH246517   1.972   4.569   5.376  0.3457 -0.1221  0.5379
15212TIP3    H146518   1.891   4.594   5.419 -0.5346 -2.5352  0.4460
15212TIP3    H246519   1.949   4.557   5.284  0.2354 -2.6612  0.8063
15213TIP3   OH246520   4.445   2.415  10.074  0.0449 -0.3553  0.1303
15213TIP3    H146521   4.413   2.428   9.985 -1.6777  0.7316  0.8599
15213TIP3    H246522   4.521   2.473  10.080 -0.8778  0.9426 -0.1279
15214TIP3   OH246523  10.709   4.869   2.725 -0.0171  0.2411  0.2681
15214TIP3    H146524  10.624   4.851   2.685  1.0910 -0.4737 -1.9321
15214TIP3    H246525  10.701   4.958   2.758 -1.1451  0.7605 -1.2774
15215TIP3   OH246526   9.432   3.743   5.411  0.1662  0.6012 -0.2672
15215TIP3    H146527   9.386   3.674   5.457  0.3727  0.4861 -0.2369
15215TIP3    H246528   9.482   3.789   5.478 -0.5478  1.2473 -0.1592
15216TIP3   OH246529   7.265   9.524   5.984  0.1484  0.5304 -0.0192
15216TIP3    H146530   7.265   9.580   5.906 -1.7468 -0.2548 -0.6262
15216TIP3    H246531   7.347   9.474   5.977 -0.4096 -0.2157 -2.0452
15217TIP3   OH246532   3.957   1.253   2.454  0.6144 -0.5991  0.1277
15217TIP3    H146533   3.878   1.200   2.466 -0.5260  0.5478 -1.7214
15217TIP3    H246534   3.987   1.272   2.543 -0.4283 -2.1571  0.8552
15218TIP3   OH246535   1.910   6.945  10.357 -0.3609  0.2065 -0.2587
15218TIP3    H146536   1.936   7.036  10.374  0.8318 -0.3608  1.0886
15218TIP3    H246537   1.815   6.950  10.344 -0.0719  1.9475 -2.5191
15219TIP3   OH246538   7.326   1.202   0.975  0.5792 -0.3470 -0.3950
15219TIP3    H146539   7.358   1.276   1.026 -1.6952  0.8602 -0.5616
15219TIP3    H246540   7.401   1.174   0.922  1.6832  1.3974  0.1759
15220TIP3   OH246541   6.278   4.829   3.305 -0.0366 -0.1912 -0.5627
15220TIP3    H146542   6.208   4.766   3.320 -1.2271  1.4333  1.1785
15220TIP3    H246543   6.342   4.812   3.374 -0.6494  0.8298  0.2882
15221TIP3   OH246544  10.050   8.864   2.762 -0.1005 -0.4307  0.0787
15221TIP3    H146545   9.978   8.801   2.758 -1.8605  1.4845 -0.0215
15221TIP3    H246546  10.098   8.841   2.841  0.4171 -2.9446 -0.8611
15222TIP3   OH246547   6.414  10.659   7.668  0.3996  0.2446 -1.2811
15222TIP3    H146548   6.390  10.605   7.593  0.0053  1.4345 -2.0374
15222TIP3    H246549   6.331  10.686   7.706  0.5940 -0.8769  0.0033
15223TIP3   OH246550  10.562   5.890   3.640  0.1666 -0.2983 -0.0839
15223TIP3    H146551  10.584   5.865   3.550  1.3479  0.9204 -0.1744
15223TIP3    H246552  10.626   5.958   3.662 -1.8913  1.5030  0.6593
15224TIP3   OH246553  10.417   0.561   1.821  0.4531  0.3084 -0.5828
15224TIP3    H146554  10.385   0.543   1.910  0.6417  0.6003 -0.4536
15224TIP3    H246555  10.486   0.626   1.834  0.5904  0.2297 -0.9307
15225TIP3   OH246556   7.818   0.593   6.295 -0.8668 -0.1107  0.4536
15225TIP3    H146557   7.889   0.579   6.357  1.4681  1.3456 -1.6878
15225TIP3    H246558   7.833   0.529   6.226  0.0295  1.8333 -1.2813
15226TIP3   OH246559   3.764  10.833  10.065 -0.1805  0.2602 -0.4637
15226TIP3    H146560   3.748  10.826  10.159 -2.5868 -2.6057 -0.9113
15226TIP3    H246561   3.712  10.908  10.036  1.1643  1.6231  0.5151
15227TIP3   OH246562  10.009   5.038   3.837  0.6701 -0.1029  0.3428
15227TIP3    H146563  10.015   5.131   3.814 -1.4824 -0.2177 -1.0265
15227TIP3    H246564   9.975   4.996   3.758 -1.9495 -1.4216  2.0081
15228TIP3   OH246565   0.494   5.183  10.220  0.4934 -0.0025 -0.2235
15228TIP3    H146566   0.522   5.248  10.156  1.3545 -0.3615 -0.2216
15228TIP3    H246567   0.454   5.114  10.169 -0.8001  0.7046 -0.1954
15229TIP3   OH246568   3.517   9.010   4.973 -0.2311 -0.5676  0.3162
15229TIP3    H146569   3.548   8.959   5.049  1.3283  0.9372  0.7597
15229TIP3    H246570   3.542   9.100   4.993  1.2023 -0.2369 -2.4403
15230TIP3   OH246571  10.246   8.207   4.218 -0.3159 -0.1127  0.3429
15230TIP3    H146572  10.329   8.159   4.227  0.1131  0.7910  1.4199
15230TIP3    H246573  10.179   8.140   4.226  0.2858 -1.0169 -1.5098
15231TIP3   OH246574   9.504   9.485   5.717 -0.0395 -0.1025 -0.3448
15231TIP3    H146575   9.417   9.463   5.683  0.2921 -2.6506  0.2297
15231TIP3    H246576   9.493   9.569   5.761 -1.7584  0.5213 -1.8654
15232TIP3   OH246577   7.716   5.995   7.700 -0.1915 -0.1625 -0.2742
15232TIP3    H146578   7.739   6.022   7.611 -0.2532 -1.2286 -0.6350
15232TIP3    H246579   7.753   6.063   7.756 -3.7085  2.8940 -1.2293
15233TIP3   OH246580   8.976   1.623   7.885  0.5695  0.4660 -0.5175
15233TIP3    H146581   8.972   1.665   7.971 -0.3944 -2.3325  0.9391
15233TIP3    H246582   8.885   1.623   7.853  0.8584  1.1361 -1.3703
15234TIP3   OH246583   5.230   3.053  10.837  0.2007 -0.1835  0.8431
15234TIP3    H146584   5.289   2.980  10.819 -0.2719 -0.5473  0.7538
15234TIP3    H246585   5.147   3.012  10.860  0.0673  0.3199  1.2859
15235TIP3   OH246586  10.856   3.266   9.483  0.4753  0.0916  0.0251
15235TIP3    H146587  10.835   3.357   9.463 -2.3590  0.1933  2.7902
15235TIP3    H246588  10.845   3.259   9.577  0.4488 -3.1884 -0.1153
15236TIP3   OH246589   4.989   9.644  10.825  0.1283  0.4089  0.1947
15236TIP3    H146590   4.973   9.601  10.741  0.8944 -0.0251  0.2559
15236TIP3    H246591   4.923   9.608  10.884  0.6678 -0.6013  0.2083
15237TIP3   OH246592   1.364   2.074  10.630 -0.4853 -0.0600  0.4020
15237TIP3    H146593   1.444   2.124  10.641 -0.4789 -0.4034  2.2294
15237TIP3    H246594   1.393   1.984  10.620 -0.5915  0.0020 -0.5197
15238TIP3   OH246595   5.629   6.689   3.612 -0.6015 -0.0435 -0.1399
15238TIP3    H146596   5.685   6.756   3.651  1.3013 -2.1355  0.9680
15238TIP3    H246597   5.686   6.644   3.550 -0.9109 -2.3165  1.1047
15239TIP3   OH246598   1.669   8.749   8.505  0.1509  0.2166  0.9270
15239TIP3    H146599   1.582   8.771   8.538  0.2758  0.3185  1.1876
15239TIP3    H246600   1.698   8.676   8.560 -1.3582 -2.5112 -1.5797
15240TIP3   OH246601   0.177  10.803   6.558 -0.2442 -0.4188  0.2191
15240TIP3    H146602   0.200  10.802   6.465 -0.9983 -0.8706  0.0233
15240TIP3    H246603   0.140  10.890   6.573 -0.6627 -0.5429 -0.0558
15241TIP3   OH246604   4.992   5.088   2.665  0.0984 -0.0564 -0.4627
15241TIP3    H146605   4.913   5.135   2.640  1.6755  1.3250 -3.3653
15241TIP3    H246606   5.058   5.156   2.677  1.2043 -1.2433  0.4785
15242TIP3   OH246607   5.212   2.282   1.279  0.7443  0.5698  0.1551
15242TIP3    H146608   5.127   2.242   1.257  0.6766 -0.1052  1.5483
15242TIP3    H246609   5.228   2.343   1.207  0.4370 -1.3303 -1.6364
15243TIP3   OH246610   7.171   9.318   7.141 -0.1586 -0.5113  0.3760
15243TIP3    H146611   7.250   9.343   7.094  0.8839 -2.4000  0.9948
15243TIP3    H246612   7.199   9.303   7.231 -0.9561 -2.2829  0.3788
15244TIP3   OH246613   5.530   5.843  10.038 -0.2084 -0.3242  0.5069
15244TIP3    H146614   5.623   5.823  10.048 -0.1978  0.4353  2.2067
15244TIP3    H246615   5.487   5.758  10.040  0.4850 -0.7972 -1.4891
15245TIP3   OH246616   0.327   4.503  10.294  0.2965  0.1195 -0.6265
15245TIP3    H146617   0.336   4.409  10.306 -1.3919 -0.0709 -0.5140
15245TIP3    H246618   0.366   4.542  10.372 -0.6348 -0.5868  0.2071
15246TIP3   OH246619   2.283   4.932   1.795 -0.0826 -0.2190  0.1851
15246TIP3    H146620   2.235   4.994   1.849  1.8537  0.8159  0.7788
15246TIP3    H246621   2.230   4.923   1.716 -0.0036  2.9166 -0.3193
15247TIP3   OH246622   8.065   7.002   7.486 -0.0509  0.5851  0.2204
15247TIP3    H146623   7.976   6.968   7.501 -0.5191  1.6131 -0.1193
15247TIP3    H246624   8.092   6.961   7.403  0.5433 -1.1516  1.2186
15248TIP3   OH246625   1.025  10.041   0.552  0.5409 -0.1606 -0.3450
15248TIP3    H146626   1.109  10.039   0.596 -0.1551  0.8391  1.1375
15248TIP3    H246627   0.961  10.047   0.623 -0.5889  2.6756 -1.4198
15249TIP3   OH246628   6.582   6.940   4.295 -0.0458 -0.1829  0.3182
15249TIP3    H146629   6.517   6.887   4.341  0.7072 -1.1935  0.2687
15249TIP3    H246630   6.637   6.976   4.365  1.8289 -2.6728  0.2930
15250TIP3   OH246631  10.765  10.086   5.463  0.2124  0.8328  0.7215
15250TIP3    H146632  10.765  10.176   5.496 -0.0201  1.3197 -0.5498
15250TIP3    H246633  10.687  10.081   5.407  0.9238  0.2379 -0.2396
15251TIP3   OH246634  10.027   6.769   2.622 -0.0456 -0.5003 -0.1390
15251TIP3    H146635  10.076   6.774   2.540  0.5564 -0.7041  0.2024
15251TIP3    H246636   9.949   6.717   2.600  0.5465 -1.3154 -0.3786
15252TIP3   OH246637   0.124   4.758   4.414 -0.5351  0.1012  0.0767
15252TIP3    H146638   0.120   4.683   4.474 -2.1014  1.6906  2.0724
15252TIP3    H246639   0.039   4.759   4.370  0.6697 -1.1933 -2.5411
15253TIP3   OH246640   2.372   6.244   3.395  0.1387 -0.4023  0.2063
15253TIP3    H146641   2.387   6.267   3.486 -0.3949 -0.4597  0.3142
15253TIP3    H246642   2.394   6.152   3.389  0.1869 -0.3953  0.2745
15254TIP3   OH246643   6.513   7.644  10.457  0.0072  0.0416  0.2481
15254TIP3    H146644   6.481   7.574  10.514  0.1344  0.8515  1.3309
15254TIP3    H246645   6.607   7.648  10.474  0.3570 -0.8332 -1.2838
15255TIP3   OH246646   8.578   2.826   8.755 -0.2343 -0.0958 -0.1012
15255TIP3    H146647   8.534   2.907   8.729  1.2437  0.5763 -0.6009
15255TIP3    H246648   8.657   2.823   8.702  0.1921 -1.4249  0.5585
15256TIP3   OH246649   2.031   9.671   7.081 -0.0979  0.1512  0.3248
15256TIP3    H146650   1.980   9.614   7.023  0.8515  1.0689 -1.5169
15256TIP3    H246651   1.982   9.673   7.163 -1.9454 -0.5670 -0.7170
15257TIP3   OH246652   6.817   0.622   0.340  0.0063 -0.0806 -0.7138
15257TIP3    H146653   6.903   0.651   0.367  0.2178 -1.1729 -0.1651
15257TIP3    H246654   6.766   0.702   0.329  1.2592  0.6116 -1.6783
15258TIP3   OH246655   2.763   6.861   2.682 -0.0945 -0.8413 -0.6765
15258TIP3    H146656   2.820   6.786   2.669  2.4230  0.7554  0.3255
15258TIP3    H246657   2.767   6.879   2.776 -3.6914 -1.6112 -0.2228
15259TIP3   OH246658   8.401  10.690   9.171 -0.2929  0.0765  0.6585
15259TIP3    H146659   8.322  10.724   9.212 -1.0142  0.7169 -1.1516
15259TIP3    H246660   8.470  10.750   9.197 -1.2838  2.2344 -1.3380
15260TIP3   OH246661   0.286   2.852   6.842 -0.1563 -0.3766  0.3108
15260TIP3    H146662   0.224   2.919   6.871  0.9666  0.8549 -0.0258
15260TIP3    H246663   0.354   2.852   6.909 -0.4589 -1.6880  0.6549
15261TIP3   OH246664   8.044   4.762   0.769  0.2288  0.3983 -0.0963
15261TIP3    H146665   8.099   4.716   0.706 -0.1255  0.6260 -0.5718
15261TIP3    H246666   7.994   4.824   0.717 -1.8374 -1.0489  0.0584
15262TIP3   OH246667   4.824   5.167   3.901  0.3798 -0.3538 -0.7755
15262TIP3    H146668   4.908   5.137   3.936  0.6230 -0.3315 -1.3184
15262TIP3    H246669   4.786   5.089   3.862 -0.1644 -0.5117  0.0606
15263TIP3   OH246670   0.106   3.327   4.089  0.0409 -0.0956  0.4237
15263TIP3    H146671   0.165   3.299   4.159 -0.5467 -1.5991  0.3421
15263TIP3    H246672   0.083   3.417   4.112 -0.0552 -0.5199  2.1138
15264TIP3   OH246673   2.836  10.111   3.580  0.2467  0.7178  0.2413
15264TIP3    H146674   2.824  10.201   3.609 -1.0733  0.0994  1.7701
15264TIP3    H246675   2.823  10.058   3.659  0.3183 -0.8466 -0.7431
15265TIP3   OH246676   5.418   1.360   3.739 -0.3675 -0.3567  0.1893
15265TIP3    H146677   5.489   1.412   3.701  1.0981 -0.4968  2.5665
15265TIP3    H246678   5.339   1.394   3.698  0.9762  0.1377 -2.1934
15266TIP3   OH246679   1.068   0.653   9.658 -0.0476  0.1400  0.1646
15266TIP3    H146680   0.984   0.666   9.613 -0.4454 -1.2665  0.4466
15266TIP3    H246681   1.043   0.620   9.745  0.7846  0.4299  0.5175
15267TIP3   OH246682   6.903   1.139   9.140  0.0542  0.0566  0.3983
15267TIP3    H146683   6.964   1.109   9.072 -1.3797  0.5594 -1.1730
15267TIP3    H246684   6.829   1.175   9.091 -0.4442  1.6647  2.2381
15268TIP3   OH246685   4.359   4.129   2.983 -0.7307  0.0461  0.0729
15268TIP3    H146686   4.337   4.185   2.908 -1.8101  0.9250  1.0051
15268TIP3    H246687   4.434   4.173   3.024 -2.5457  1.7538  1.7079
15269TIP3   OH246688   0.665   1.602   3.585 -0.4304 -0.0331 -0.0980
15269TIP3    H146689   0.633   1.683   3.544 -0.8000 -0.6753 -1.1233
15269TIP3    H246690   0.624   1.601   3.672 -0.6908  0.7151 -0.2051
15270TIP3   OH246691   5.518   4.119   6.350  0.4124  0.0824  0.0042
15270TIP3    H146692   5.546   4.031   6.374  1.8668  0.6611  0.5787
15270TIP3    H246693   5.441   4.135   6.404  1.7208  0.1371  1.9655
15271TIP3   OH246694   1.113   1.173   4.425  0.4180  0.1580 -0.5760
15271TIP3    H146695   1.112   1.090   4.473  3.1327  0.5833  0.4060
15271TIP3    H246696   1.080   1.237   4.489 -0.5074  0.0398 -0.9231
15272TIP3   OH246697   7.358   5.605   3.876 -0.2931 -0.0858 -0.1663
15272TIP3    H146698   7.349   5.653   3.794 -2.0076  2.1239  1.2313
15272TIP3    H246699   7.449   5.620   3.902  0.0916 -0.2970 -1.3098
15273TIP3   OH246700   0.278  10.031   8.138  0.1624  0.4618  0.3785
15273TIP3    H146701   0.198   9.983   8.115  0.3265  0.2974  0.1419
15273TIP3    H246702   0.341   9.962   8.159  0.2378  0.5905  0.5720
15274TIP3   OH246703   2.305   7.307   8.279 -0.1538 -0.2268  0.0826
15274TIP3    H146704   2.211   7.316   8.268 -0.5717 -2.5093  1.1754
15274TIP3    H246705   2.322   7.213   8.270  1.8480 -0.0221  0.9679
15275TIP3   OH246706   4.762   1.883   7.430  0.4213 -0.1983 -0.3123
15275TIP3    H146707   4.701   1.810   7.420  1.4682 -1.0878 -0.4692
15275TIP3    H246708   4.708   1.961   7.419 -0.8521 -0.9240  0.5071
15276TIP3   OH246709  10.349   4.708   4.677  0.3135 -0.7771 -0.3451
15276TIP3    H146710  10.430   4.670   4.709  0.2072 -1.7758 -1.2014
15276TIP3    H246711  10.374   4.794   4.644  0.7545 -0.5098  0.6747
15277TIP3   OH246712  10.339   5.610  10.342  0.1054 -0.7099 -0.4482
15277TIP3    H146713  10.380   5.545  10.398 -0.4811 -2.6393 -2.1390
15277TIP3    H246714  10.306   5.560  10.267 -2.2742  1.2119 -0.8213
15278TIP3   OH246715  10.889   5.440   8.537 -0.2739  0.0654 -0.3534
15278TIP3    H146716  10.836   5.519   8.531 -1.7079 -0.8436 -0.0251
15278TIP3    H246717  10.940   5.451   8.617 -2.2084 -0.3545  0.9753
15279TIP3   OH246718   2.575   0.662   9.328 -0.4647  0.1699  0.3419
15279TIP3    H146719   2.494   0.674   9.279  0.2179  1.8070 -0.4676
15279TIP3    H246720   2.643   0.658   9.261  0.2616  0.0490  1.0665
15280TIP3   OH246721   0.391   6.630   7.713  0.4885 -0.4563  0.2313
15280TIP3    H146722   0.425   6.703   7.764  0.1477  0.6236 -1.0160
15280TIP3    H246723   0.296   6.636   7.722  0.4384 -0.4463 -0.2381
15281TIP3   OH246724   3.630   2.479   7.419  0.7827 -0.5297  0.0336
15281TIP3    H146725   3.700   2.421   7.388  1.0453  0.4357 -1.2859
15281TIP3    H246726   3.636   2.556   7.362  0.3736  0.7568  1.6631
15282TIP3   OH246727   7.070  10.899   8.087  0.2247 -0.0111  0.4011
15282TIP3    H146728   7.009  10.856   8.147  0.5819 -1.9355 -0.5386
15282TIP3    H246729   7.149  10.845   8.091  0.2109 -0.2881 -1.8759
15283TIP3   OH246730   5.989   0.958   8.144 -0.4877 -0.3298 -0.0623
15283TIP3    H146731   6.024   0.880   8.101  1.6173  1.2669 -1.4610
15283TIP3    H246732   5.925   0.992   8.082 -0.2353 -0.1003 -0.2007
15284TIP3   OH246733   2.571   1.352   5.696  0.6126  0.2807 -0.1822
15284TIP3    H146734   2.481   1.331   5.670  0.8699 -0.8541 -0.1850
15284TIP3    H246735   2.575   1.329   5.789  0.7884  0.7290 -0.0763
15285TIP3   OH246736   2.419   2.550   2.697 -0.8144 -0.1713  0.4102
15285TIP3    H146737   2.416   2.614   2.626 -0.9415 -0.0727  0.5041
15285TIP3    H246738   2.512   2.545   2.720 -0.7451 -0.3643  0.0942
15286TIP3   OH246739   0.013   2.159   7.240 -0.2798 -0.4114 -0.0909
15286TIP3    H146740   0.057   2.193   7.318  1.5201 -2.3571 -0.1612
15286TIP3    H246741  -0.074   2.199   7.242 -0.0200  0.2039  2.4858
15287TIP3   OH246742  10.741   5.285  10.110 -0.0048  0.9083  0.2740
15287TIP3    H146743  10.782   5.223  10.170  0.2655  1.2769  0.4737
15287TIP3    H246744  10.815   5.326  10.064 -0.2278 -0.2177 -1.1913
15288TIP3   OH246745  10.325  10.226  10.136 -0.1373  0.3827  0.7143
15288TIP3    H146746  10.255  10.210  10.072 -1.2737  1.0963  1.7483
15288TIP3    H246747  10.280  10.255  10.215  1.3042  0.3778  1.5785
15289TIP3   OH246748   8.506   0.140  10.585 -0.5773 -0.5039 -0.6053
15289TIP3    H146749   8.462   0.055  10.583 -0.7230 -0.4193 -0.9679
15289TIP3    H246750   8.575   0.129  10.651 -0.6923 -0.8536 -0.5395
15290TIP3   OH246751   5.150   2.978   7.983 -0.0463 -0.8180  0.5490
15290TIP3    H146752   5.139   2.892   7.945  1.8592 -0.6078 -0.5894
15290TIP3    H246753   5.164   2.961   8.077  2.3479 -1.9583  0.0492
15291TIP3   OH246754   4.742   1.376   8.025  0.0941  0.3747  0.4141
15291TIP3    H146755   4.706   1.417   7.946 -0.8266 -0.8955  0.1399
15291TIP3    H246756   4.735   1.443   8.092 -0.0262  1.1501 -0.3598
15292TIP3   OH246757   1.384   5.758   0.347 -0.2102  0.6949 -0.0633
15292TIP3    H146758   1.471   5.797   0.341 -1.1317  2.9211 -0.1742
15292TIP3    H246759   1.379   5.723   0.436  0.8016  0.5106 -0.0724
15293TIP3   OH246760   9.552   5.988   9.635  0.1598 -0.4502  0.3712
15293TIP3    H146761   9.642   6.001   9.603  0.9487 -0.0711  2.5021
15293TIP3    H246762   9.527   6.074   9.668 -1.4128 -0.3170 -1.0707
15294TIP3   OH246763   3.298   7.108   7.486  0.2702  0.4883 -0.0311
15294TIP3    H146764   3.380   7.157   7.481  1.3158 -1.1356  0.5884
15294TIP3    H246765   3.324   7.016   7.486 -1.2636 -0.1297  3.6095
15295TIP3   OH246766   3.711   4.232   1.937 -0.2348 -0.2015  0.3487
15295TIP3    H146767   3.696   4.141   1.911  0.0617 -0.2647  0.4004
15295TIP3    H246768   3.647   4.248   2.006 -0.1174 -0.4500  0.5152
15296TIP3   OH246769   9.321   1.092   1.509 -0.4467 -0.0677  0.0624
15296TIP3    H146770   9.225   1.087   1.501 -0.3296 -0.8735 -1.0075
15296TIP3    H246771   9.351   1.116   1.421  0.3715 -0.3603  0.2514
15297TIP3   OH246772   4.834   0.789   7.891  0.2386 -0.1158 -0.6100
15297TIP3    H146773   4.771   0.859   7.904 -0.0373 -0.5731  0.6925
15297TIP3    H246774   4.901   0.826   7.834 -0.0799  1.0867 -0.2200
15298TIP3   OH246775   9.650   2.923  10.137  0.4060  0.2839  0.1841
15298TIP3    H146776   9.657   2.829  10.120 -1.8170  0.0678  0.1966
15298TIP3    H246777   9.619   2.960  10.055 -0.0671  0.7990  0.5920
15299TIP3   OH246778   8.549   1.746   3.627  0.4478  0.7096  0.0758
15299TIP3    H146779   8.564   1.798   3.548  0.5431 -1.5330 -1.4872
15299TIP3    H246780   8.583   1.659   3.605 -0.8876 -0.3881  2.0507
15300TIP3   OH246781   3.375   1.255   6.296  0.5920  0.3673  0.7035
15300TIP3    H146782   3.414   1.219   6.216 -0.8532 -0.5018  0.3485
15300TIP3    H246783   3.408   1.345   6.301  0.1315  0.6932 -1.2880
15301TIP3   OH246784   1.475   9.593  10.057  0.0179 -0.4304  0.1992
15301TIP3    H146785   1.436   9.677  10.034 -0.1293  0.2615  2.6871
15301TIP3    H246786   1.470   9.541   9.976  0.8784  2.1727 -1.6369
15302TIP3   OH246787   3.213   5.334   8.199 -0.0491  0.0322 -0.0046
15302TIP3    H146788   3.137   5.392   8.211  0.0291  0.1568 -0.1060
15302TIP3    H246789   3.209   5.274   8.274 -0.3871 -0.1195 -0.1449
15303TIP3   OH246790   1.552   0.929   2.928 -0.0639  0.0959 -0.4154
15303TIP3    H146791   1.481   0.868   2.907 -1.0239  1.8082 -2.6436
15303TIP3    H246792   1.506   1.008   2.958  1.1637 -0.5207  3.7841
15304TIP3   OH246793   0.499   4.711   1.745  0.5103 -0.1071 -0.4077
15304TIP3    H146794   0.593   4.694   1.740  0.2786 -1.9618  0.4777
15304TIP3    H246795   0.463   4.634   1.790 -1.3724  0.7757 -0.2852
15305TIP3   OH246796  10.754  10.493   5.983 -0.6270  0.3004 -0.9626
15305TIP3    H146797  10.747  10.455   6.070 -0.6823  1.9778 -0.1987
15305TIP3    H246798  10.828  10.448   5.943 -0.8871 -0.8061 -0.2321
15306TIP3   OH246799   3.761   6.046   7.414 -0.4113 -0.1785  0.3575
15306TIP3    H146800   3.832   6.045   7.478  1.1784  1.6895 -1.2432
15306TIP3    H246801   3.703   6.117   7.444 -0.1043  0.1521  0.1734
15307TIP3   OH246802   6.246   6.718   8.635 -0.7589 -0.3029  0.0677
15307TIP3    H146803   6.150   6.721   8.630 -0.6907  1.4435 -1.2820
15307TIP3    H246804   6.266   6.759   8.719 -1.1840 -1.6322  0.8536
15308TIP3   OH246805   2.273   9.837   2.257 -0.1852  0.7610  0.3467
15308TIP3    H146806   2.358   9.858   2.296  0.4588 -0.2259 -0.4513
15308TIP3    H246807   2.228   9.921   2.249  1.1568  1.4551 -0.1957
15309TIP3   OH246808   2.233   3.350  10.232 -0.2448 -0.1567  0.0307
15309TIP3    H146809   2.302   3.293  10.199  0.4739  0.0980  1.0343
15309TIP3    H246810   2.182   3.294  10.292  1.4627  0.5904  2.3341
15310TIP3   OH246811   7.251   3.708   0.438  0.0199  0.3378  0.3584
15310TIP3    H146812   7.219   3.634   0.386 -1.4238  0.4384  1.0595
15310TIP3    H246813   7.244   3.783   0.379 -2.6860  0.6537  0.9853
15311TIP3   OH246814   1.088   3.301   3.697 -0.2694 -0.5045 -0.0551
15311TIP3    H146815   1.054   3.363   3.761 -0.9854 -0.4116 -0.5171
15311TIP3    H246816   1.016   3.288   3.635  0.9565  0.7416 -1.8374
15312TIP3   OH246817   8.068   6.105   8.795 -0.1279 -0.2270 -0.9015
15312TIP3    H146818   7.990   6.093   8.742 -0.7894  1.4041 -0.3714
15312TIP3    H246819   8.115   6.177   8.754  1.3201 -1.4068 -1.4167
15313TIP3   OH246820   7.939  10.785   8.081 -0.2461  0.3952 -0.3602
15313TIP3    H146821   7.957  10.841   8.157  0.6578  0.4981 -0.6318
15313TIP3    H246822   8.008  10.719   8.083 -1.5595 -1.0032  0.2042
15314TIP3   OH246823  10.456   0.170   6.426 -0.0090 -0.2162  0.2348
15314TIP3    H146824  10.446   0.102   6.360  0.4147 -0.6817  0.6417
15314TIP3    H246825  10.542   0.154   6.465 -0.2812 -0.0046  0.9500
15315TIP3   OH246826   4.548   4.032   5.759 -0.2600 -0.0831 -0.1589
15315TIP3    H146827   4.572   4.123   5.776 -0.8924 -0.2471  2.0244
15315TIP3    H246828   4.581   4.013   5.672 -0.7594  2.4509 -0.9758
15316TIP3   OH246829   1.376  10.756   2.998 -0.1532 -0.3966 -0.3495
15316TIP3    H146830   1.442  10.796   3.055 -0.2134  0.4654 -0.8596
15316TIP3    H246831   1.337  10.687   3.051  1.0402 -0.8137  0.0153
15317TIP3   OH246832   7.130   7.081   6.465 -0.0037  0.4522  0.2262
15317TIP3    H146833   7.141   6.990   6.491  4.3411  0.1197 -1.9710
15317TIP3    H246834   7.107   7.077   6.372 -1.1109  1.6672  0.4124
15318TIP3   OH246835   9.522   0.217   6.834 -0.5562 -0.0004 -0.4568
15318TIP3    H146836   9.550   0.143   6.887  2.3940  0.7911 -0.7341
15318TIP3    H246837   9.587   0.286   6.851 -0.7483  1.0530 -3.3433
15319TIP3   OH246838   1.411   8.477   7.970  0.1923  0.2757 -0.2520
15319TIP3    H146839   1.478   8.445   8.031  0.0565 -0.0987 -0.2968
15319TIP3    H246840   1.440   8.447   7.884 -0.3326 -0.3988 -0.2018
15320TIP3   OH246841   1.667   6.339   7.751  0.5596  0.2728 -0.1107
15320TIP3    H146842   1.716   6.288   7.815 -0.0962 -2.5047 -1.6241
15320TIP3    H246843   1.734   6.386   7.701  1.0297  3.4798  3.1437
15321TIP3   OH246844   4.908   7.015   9.151  0.2644  0.2441  0.4528
15321TIP3    H146845   4.966   7.071   9.203  0.2804  0.4001  0.2688
15321TIP3    H246846   4.820   7.046   9.171  0.2630  0.2208  0.4829
15322TIP3   OH246847   1.961   3.942   5.435  0.0335 -0.0194 -0.9232
15322TIP3    H146848   1.882   3.934   5.487  0.0473 -2.6900 -1.1813
15322TIP3    H246849   1.948   3.882   5.361  2.1572 -0.3849 -1.0845
15323TIP3   OH246850  10.704   0.298   3.666  0.0238 -0.0688 -0.5240
15323TIP3    H146851  10.747   0.375   3.704 -1.1028 -0.2658  1.2552
15323TIP3    H246852  10.612   0.321   3.661 -0.7138 -1.9366  2.0172
15324TIP3   OH246853   0.910   6.838   2.841  0.7519  0.3231 -0.8259
15324TIP3    H146854   0.815   6.841   2.838  0.6506 -1.6810 -1.0857
15324TIP3    H246855   0.936   6.920   2.883 -0.9841  1.6444 -2.1767
15325TIP3   OH246856   0.439   5.418  10.394  0.2631 -0.6571  0.2408
15325TIP3    H146857   0.368   5.394  10.455 -0.1968 -1.6999 -0.6791
15325TIP3    H246858   0.465   5.335  10.354  3.1399 -0.5838  1.6880
15326TIP3   OH246859   0.082   1.619   6.923  0.2616 -0.2836 -0.7801
15326TIP3    H146860   0.173   1.619   6.953  0.7507  0.8277 -2.1512
15326TIP3    H246861   0.045   1.699   6.959 -0.1620 -0.6896 -0.3016
15327TIP3   OH246862   5.523   5.249   7.206 -0.7428 -0.2350  0.1103
15327TIP3    H146863   5.599   5.306   7.218 -1.3911  0.7273 -0.2399
15327TIP3    H246864   5.550   5.166   7.244  0.9985 -0.3453 -1.2498
15328TIP3   OH246865   3.073   2.108   1.319 -0.7790 -0.2302  0.2577
15328TIP3    H146866   3.004   2.042   1.322 -1.0459  0.0335 -0.0234
15328TIP3    H246867   3.139   2.071   1.259 -0.1766 -0.9479  1.3196
15329TIP3   OH246868   0.527   1.668   2.162 -0.5505 -0.6148 -0.4920
15329TIP3    H146869   0.532   1.720   2.082  0.6997  2.8338  1.5593
15329TIP3    H246870   0.583   1.593   2.147  1.3267  1.0203 -2.1991
15330TIP3   OH246871   4.534   2.092  10.083 -0.2119 -0.4620 -0.8555
15330TIP3    H146872   4.576   2.139  10.155 -1.9800 -0.0346 -0.0280
15330TIP3    H246873   4.513   2.160  10.019 -2.1002 -0.1535  0.0093
15331TIP3   OH246874  10.700   1.573   6.825 -0.0548  0.0350 -0.4988
15331TIP3    H146875  10.645   1.594   6.901  0.7624 -0.0482  0.1287
15331TIP3    H246876  10.790   1.584   6.856  0.2955  1.3305 -1.8342
15332TIP3   OH246877   7.141   4.340   8.787 -0.8048 -0.0552 -0.0293
15332TIP3    H146878   7.106   4.254   8.763 -1.5434  0.4021 -0.6065
15332TIP3    H246879   7.213   4.320   8.847  0.7801 -1.2345 -2.1663
15333TIP3   OH246880   1.345   8.947   4.409  0.6344 -0.0938  0.0720
15333TIP3    H146881   1.416   8.998   4.448  0.0792  1.0878 -0.4286
15333TIP3    H246882   1.274   8.952   4.472  1.0880 -1.5957  0.7507
15334TIP3   OH246883   3.940   7.409   5.376  0.5552  0.2394 -0.5292
15334TIP3    H146884   4.035   7.401   5.375  0.8148  2.3914 -2.7854
15334TIP3    H246885   3.922   7.465   5.452  1.4312  2.0508 -1.5714
15335TIP3   OH246886   0.566   7.270   8.822  0.2159 -0.0927 -0.3162
15335TIP3    H146887   0.492   7.235   8.872 -0.9413  0.2406 -1.7400
15335TIP3    H246888   0.598   7.342   8.876 -1.7907  1.0610 -0.5562
15336TIP3   OH246889   6.799   5.522   8.913  0.8033 -0.3151  0.1523
15336TIP3    H146890   6.723   5.498   8.860  1.1203  0.6771 -0.7765
15336TIP3    H246891   6.824   5.440   8.957 -0.6469 -0.7061  0.3047
15337TIP3   OH246892   9.097   9.776   0.111  0.7102 -0.1784  0.1718
15337TIP3    H146893   9.097   9.840   0.182 -2.6174  2.1224 -1.6347
15337TIP3    H246894   9.162   9.809   0.050 -0.8987  1.5852 -0.6912
15338TIP3   OH246895   4.416   0.903   9.725 -0.1520  0.5239  0.0009
15338TIP3    H146896   4.344   0.939   9.776  1.1835  1.9009  1.0108
15338TIP3    H246897   4.410   0.808   9.738 -1.6228  0.6323  0.2469
15339TIP3   OH246898   4.020   8.834   8.064  0.1390  0.1937  0.5419
15339TIP3    H146899   3.988   8.923   8.078 -0.7423 -0.0428  0.1333
15339TIP3    H246900   4.086   8.843   7.995 -0.6367  0.4166 -0.1944
15340TIP3   OH246901   3.709   2.228   2.515  0.0746 -0.9441  0.6590
15340TIP3    H146902   3.770   2.159   2.542  1.2267 -0.0941  0.3205
15340TIP3    H246903   3.730   2.244   2.423  0.7571  0.7655  1.0776
15341TIP3   OH246904   7.717   5.576   2.226 -0.3324 -0.3842  0.1887
15341TIP3    H146905   7.791   5.540   2.275 -1.2233 -0.2699  1.7207
15341TIP3    H246906   7.664   5.620   2.293 -0.7519  1.2990 -1.1822
15342TIP3   OH246907   7.557   2.301   2.211  0.2500  0.3804 -0.2951
15342TIP3    H146908   7.494   2.367   2.182  0.0261  0.8830  1.2504
15342TIP3    H246909   7.636   2.320   2.160 -0.6342  0.0828 -1.8651
15343TIP3   OH246910   0.510  10.288   3.043 -0.2957 -0.2402  0.2944
15343TIP3    H146911   0.473  10.314   2.959 -0.7039 -0.0008  0.5405
15343TIP3    H246912   0.574  10.356   3.063 -2.5363  1.6317  1.7332
15344TIP3   OH246913   7.800   4.928   6.191 -0.3388  0.0953 -0.3329
15344TIP3    H146914   7.832   4.888   6.271 -1.1602 -0.9207 -0.4952
15344TIP3    H246915   7.775   5.017   6.216  2.2324  0.8444 -0.1311
15345TIP3   OH246916   1.287   9.973   0.575 -0.4650  0.4281  0.0379
15345TIP3    H146917   1.347   9.971   0.649  1.5436 -0.7426 -1.5160
15345TIP3    H246918   1.282   9.882   0.545 -3.6611  0.3204  0.5049
15346TIP3   OH246919   0.830   7.144   8.030 -0.2899  0.1095 -0.2601
15346TIP3    H146920   0.809   7.142   7.937 -0.8299 -0.7097 -0.1343
15346TIP3    H246921   0.923   7.163   8.034  0.5864 -3.2670 -1.1546
15347TIP3   OH246922   8.165   9.662   6.131 -0.0548  0.5122 -0.3767
15347TIP3    H146923   8.182   9.740   6.079  1.0071  0.0624 -0.7136
15347TIP3    H246924   8.211   9.678   6.214 -1.0347  0.8572  0.1180
15348TIP3   OH246925   8.999   0.584   6.321 -0.5521  0.2473 -0.1191
15348TIP3    H146926   9.008   0.612   6.412  1.4151  0.6902 -0.3903
15348TIP3    H246927   9.045   0.652   6.271  1.3216 -1.6306 -1.1144
15349TIP3   OH246928   2.845   0.810   8.309  0.7805  0.0125  0.1918
15349TIP3    H146929   2.839   0.748   8.236  0.6975  0.4449 -0.1752
15349TIP3    H246930   2.915   0.776   8.364  0.1615 -0.8649  0.4402
15350TIP3   OH246931   0.474   9.182   1.529  0.5267 -0.4222 -0.0226
15350TIP3    H146932   0.438   9.200   1.615 -0.8769  0.1194 -0.6933
15350TIP3    H246933   0.556   9.231   1.527  0.4070 -0.1674  0.8700
15351TIP3   OH246934   2.863   5.506   3.835  0.1147 -0.0258  0.1729
15351TIP3    H146935   2.770   5.483   3.839  0.1751 -1.1904 -2.6786
15351TIP3    H246936   2.867   5.596   3.867 -2.2101  0.5065 -0.8076
15352TIP3   OH246937   0.433   0.933   8.474 -0.6095  0.0601  0.4827
15352TIP3    H146938   0.451   1.020   8.510  0.7310 -0.7759  1.9768
15352TIP3    H246939   0.443   0.944   8.379  0.0539  1.4323  0.6825
15353TIP3   OH246940   3.710   7.270   5.296 -0.5429  0.5017 -0.6164
15353TIP3    H146941   3.793   7.300   5.333 -0.5748  0.0576 -0.1678
15353TIP3    H246942   3.731   7.246   5.206  0.5004 -2.4020  0.3086
15354TIP3   OH246943  10.763   6.160   1.002 -0.8045 -0.4095 -0.6068
15354TIP3    H146944  10.717   6.127   1.079  1.0070 -0.0285  0.7056
15354TIP3    H246945  10.694   6.177   0.938 -2.4281 -0.2325  1.1068
15355TIP3   OH246946   7.098   4.041   2.907 -0.0601  0.0248 -0.2823
15355TIP3    H146947   7.042   4.058   2.831 -0.9444 -1.2580  0.0450
15355TIP3    H246948   7.037   4.034   2.981  0.8232  1.7071  0.6551
15356TIP3   OH246949   5.440   1.419   5.717  0.5863 -0.2092  0.0115
15356TIP3    H146950   5.403   1.340   5.680  0.8114 -0.7765  0.9711
15356TIP3    H246951   5.531   1.419   5.687  0.0366  0.8381 -1.7899
15357TIP3   OH246952   1.074   9.043   1.088 -0.1379 -0.0480 -0.0075
15357TIP3    H146953   1.117   9.126   1.110  0.3468 -0.7505  1.8362
15357TIP3    H246954   1.069   9.044   0.992  0.7874  1.6397 -0.0831
15358TIP3   OH246955   4.440   5.653   2.126  0.0848  0.1037  0.3332
15358TIP3    H146956   4.508   5.589   2.144  0.4783 -0.1386 -1.7729
15358TIP3    H246957   4.365   5.624   2.177 -0.6569 -3.7075 -2.5207
15359TIP3   OH246958   7.261   7.073   8.983 -0.5857 -0.0924  0.7255
15359TIP3    H146959   7.197   7.132   8.944 -0.8663 -0.0726  1.2181
15359TIP3    H246960   7.310   7.038   8.908 -0.0791  1.1429  0.4697
15360TIP3   OH246961   3.064   2.142   4.643 -0.0006 -0.1433  0.0011
15360TIP3    H146962   3.077   2.085   4.719  0.1399  2.1252  1.8155
15360TIP3    H246963   2.971   2.134   4.623  0.1466 -1.4679 -0.1895
15361TIP3   OH246964   7.250   3.207   3.358 -0.4919  0.2482  0.3281
15361TIP3    H146965   7.320   3.264   3.390 -0.9750  0.6068  0.7547
15361TIP3    H246966   7.263   3.124   3.405 -0.1442  0.1940  0.1412
15362TIP3   OH246967   1.607   8.035   6.092 -0.1218  0.0445 -0.4713
15362TIP3    H146968   1.669   8.037   6.019  0.1824 -2.0681 -0.3318
15362TIP3    H246969   1.654   7.992   6.163 -1.5817 -1.3439 -0.2610
15363TIP3   OH246970   7.542  10.516   0.096 -0.8732 -0.5314 -0.0974
15363TIP3    H146971   7.512  10.471   0.017  1.7201 -0.7906 -1.0265
15363TIP3    H246972   7.566  10.447   0.157  0.0297 -0.3946 -0.2821
15364TIP3   OH246973   2.899   6.539   8.138  0.1640  0.2383 -0.0619
15364TIP3    H146974   2.818   6.515   8.183 -0.9403  1.2604 -1.4178
15364TIP3    H246975   2.882   6.516   8.046  0.7521  2.0182 -0.6415
15365TIP3   OH246976   1.111   5.674   1.289  0.4318 -0.7919 -0.1391
15365TIP3    H146977   1.184   5.676   1.351  0.7207  0.6774 -0.4918
15365TIP3    H246978   1.130   5.601   1.231  1.8042 -0.2181 -0.4343
15366TIP3   OH246979   0.295   4.437   8.055  0.5742  0.3846 -0.3459
15366TIP3    H146980   0.339   4.352   8.047  1.1229  0.7226 -0.9300
15366TIP3    H246981   0.313   4.482   7.972 -2.0203 -0.0077 -1.2446
15367TIP3   OH246982   4.736   0.151   5.123 -0.1917 -0.1794 -0.1179
15367TIP3    H146983   4.754   0.067   5.081 -0.9870 -1.4368  1.8534
15367TIP3    H246984   4.820   0.178   5.160 -0.4941 -1.8035  1.9600
15368TIP3   OH246985   3.138   8.619   4.125 -0.3773 -0.4274  0.5782
15368TIP3    H146986   3.176   8.599   4.210 -0.1580 -1.9628  0.1562
15368TIP3    H246987   3.087   8.699   4.139 -0.2731 -0.6060  2.1190
15369TIP3   OH246988   3.147   2.132   3.291  0.2388 -0.6482 -0.0389
15369TIP3    H146989   3.226   2.171   3.329  3.2869 -3.3053 -3.0123
15369TIP3    H246990   3.116   2.071   3.358  0.5279  0.5786  1.2531
15370TIP3   OH246991   1.761   3.326   6.642 -0.5399 -0.4887  0.4936
15370TIP3    H146992   1.825   3.381   6.596 -0.0959 -1.7547 -0.4607
15370TIP3    H246993   1.743   3.373   6.723  0.1774  0.8227 -0.0814
15371TIP3   OH246994   0.161   7.413   7.473  0.0623  0.4980  0.1217
15371TIP3    H146995   0.199   7.475   7.534 -0.6253 -0.7511  1.9054
15371TIP3    H246996   0.207   7.331   7.490 -0.8210 -0.1105 -0.3315
15372TIP3   OH246997   0.843   0.640   1.595  0.7993 -0.3125  0.1304
15372TIP3    H146998   0.824   0.611   1.505 -0.5698  0.7185  0.0617
15372TIP3    H246999   0.930   0.681   1.589  0.8285 -0.4670 -0.6643
15373TIP3   OH247000   8.969   7.583   4.415 -0.7569  0.1459 -0.0865
15373TIP3    H147001   8.946   7.514   4.352  2.1162  0.1673 -1.3100
15373TIP3    H247002   8.996   7.536   4.494  1.6190 -0.2894 -1.0610
15374TIP3   OH247003  10.206  10.036   9.948  0.4211  0.1159  0.2115
15374TIP3    H147004  10.275  10.065   9.889  0.8548 -0.9707  0.1708
15374TIP3    H247005  10.248   9.974  10.007 -0.4222 -0.2372  0.4609
15375TIP3   OH247006   9.041   7.129   0.950  0.1723 -0.6935  0.0897
15375TIP3    H147007   9.004   7.213   0.923  1.1164 -0.0514  0.7257
15375TIP3    H247008   8.979   7.095   1.015  0.1705 -0.1196  0.3912
15376TIP3   OH247009   8.544   8.039   4.876 -0.4536 -0.2326  0.4293
15376TIP3    H147010   8.575   8.129   4.883 -0.1204 -0.2981 -0.1492
15376TIP3    H247011   8.454   8.047   4.844  0.1119 -0.1386 -1.2437
15377TIP3   OH247012   1.516   3.239  10.351  0.2006 -0.0867 -0.4625
15377TIP3    H147013   1.530   3.327  10.386  0.6546 -0.0226 -0.7956
15377TIP3    H247014   1.464   3.253  10.271  2.2564  0.1114 -1.8239
15378TIP3   OH247015   3.673   7.266   1.994 -0.2371  0.3463 -0.0280
15378TIP3    H147016   3.685   7.305   2.080 -0.4443  3.0826 -1.1338
15378TIP3    H247017   3.753   7.217   1.977  1.0227  2.1384  0.5876
15379TIP3   OH247018   8.977   5.526   4.936 -0.3017 -0.2379 -0.4399
15379TIP3    H147019   8.912   5.473   4.981 -0.6012  1.1519  0.8568
15379TIP3    H247020   8.952   5.524   4.844 -1.2377 -1.0138 -0.1760
15380TIP3   OH247021   6.039   6.948   0.792 -0.1637  0.8134 -0.2543
15380TIP3    H147022   6.039   6.864   0.838  1.0415  1.5928  1.2621
15380TIP3    H247023   5.950   6.982   0.802 -0.8147 -0.4893 -1.3451
15381TIP3   OH247024   7.248   0.851   6.562  0.1678 -0.1625 -0.3557
15381TIP3    H147025   7.248   0.802   6.479  0.5299  1.0817 -1.1249
15381TIP3    H247026   7.200   0.795   6.623  1.3309 -1.8731 -0.9401
15382TIP3   OH247027  10.051   8.187   9.214  0.1234 -0.3593 -0.0528
15382TIP3    H147028  10.129   8.190   9.270  0.4401  0.4133 -0.5189
15382TIP3    H247029   9.981   8.225   9.267  0.5899  1.0632 -0.4173
15383TIP3   OH247030   9.660   2.641  10.490 -0.3790 -1.0130 -0.0386
15383TIP3    H147031   9.650   2.579  10.418  0.8084  0.1022 -1.1948
15383TIP3    H247032   9.636   2.725  10.453 -0.1519 -0.4860  0.9878
15384TIP3   OH247033   6.650   0.284   8.225 -0.3173 -0.3895 -0.3147
15384TIP3    H147034   6.624   0.342   8.153  1.9010 -0.7375 -1.4734
15384TIP3    H247035   6.679   0.344   8.294  0.4704 -0.0511 -0.9161
15385TIP3   OH247036   4.885   2.793   4.199 -0.3158 -0.1341  0.1679
15385TIP3    H147037   4.856   2.703   4.183 -0.6675 -0.3050  1.6086
15385TIP3    H247038   4.890   2.832   4.112  0.1426 -1.6302 -0.5144
15386TIP3   OH247039   5.218   7.738   2.745  0.0536 -0.3614 -0.1661
15386TIP3    H147040   5.134   7.735   2.790 -0.5043 -0.3642 -1.1683
15386TIP3    H247041   5.280   7.702   2.808 -0.7254 -0.5673  0.5103
15387TIP3   OH247042   7.615   9.829   3.158 -0.3816 -0.4377  0.2830
15387TIP3    H147043   7.663   9.759   3.201 -1.7668 -2.1388 -0.7827
15387TIP3    H247044   7.539   9.845   3.215 -1.3569 -1.5654 -0.6386
15388TIP3   OH247045   9.855   7.083   4.503  0.3954  0.3759 -0.0499
15388TIP3    H147046   9.864   7.034   4.585 -0.1837  1.6230  0.8015
15388TIP3    H247047   9.763   7.072   4.478  0.1503  1.3144  0.3725
15389TIP3   OH247048   8.690   6.455   8.142 -0.0692 -0.3870  0.0317
15389TIP3    H147049   8.753   6.392   8.177 -0.0824 -0.1654  0.4645
15389TIP3    H247050   8.715   6.466   8.051  1.9546  1.3689  0.7152
15390TIP3   OH247051   4.796   9.130   1.718 -0.0788 -0.1376 -0.3491
15390TIP3    H147052   4.838   9.211   1.690  1.3928 -0.1909  1.5340
15390TIP3    H247053   4.863   9.063   1.707 -1.0696 -1.0120 -1.2604
15391TIP3   OH247054   5.125   7.603   3.606  0.9381 -0.2573  0.2817
15391TIP3    H147055   5.154   7.545   3.536 -0.5814  0.9051 -1.4220
15391TIP3    H247056   5.089   7.544   3.672 -0.6421 -1.3458 -1.4256
15392TIP3   OH247057   3.889   0.280   2.580  0.0588  0.2373  0.4885
15392TIP3    H147058   3.873   0.239   2.495  2.8302  0.0928 -0.0598
15392TIP3    H247059   3.916   0.207   2.636  1.2040  0.7556  0.6202
15393TIP3   OH247060  10.563   1.563   8.512 -0.2332  0.0296 -0.3515
15393TIP3    H147061  10.641   1.615   8.530  0.3456 -1.3120  1.1763
15393TIP3    H247062  10.508   1.621   8.460  0.5553  2.0244  0.9290
15394TIP3   OH247063   4.833   6.404   9.903  0.8602  0.8069 -1.1676
15394TIP3    H147064   4.811   6.426   9.812  0.3534  1.8224 -0.8067
15394TIP3    H247065   4.794   6.474   9.955 -0.3594 -0.6656 -0.0105
15395TIP3   OH247066   5.786   3.362  10.856 -0.0734 -1.0038  0.1730
15395TIP3    H147067   5.868   3.324  10.885  0.2986 -1.5811 -1.4901
15395TIP3    H247068   5.787   3.352  10.760 -0.3488  2.3854 -0.3224
15396TIP3   OH247069   8.687   1.343   2.007 -0.2738  0.0498  0.8433
15396TIP3    H147070   8.653   1.419   1.960  1.2010  1.0546  1.3394
15396TIP3    H247071   8.678   1.365   2.100 -0.0071 -0.4484  0.9941
15397TIP3   OH247072   7.860   2.254   0.605  0.2516 -0.0393  0.0922
15397TIP3    H147073   7.933   2.310   0.581 -0.8618  1.8967  0.8999
15397TIP3    H247074   7.819   2.300   0.679 -1.4216 -1.3305  0.0291
15398TIP3   OH247075   8.813   9.899   8.591 -0.6520  0.0263  0.1177
15398TIP3    H147076   8.833   9.973   8.534  1.7604  0.2573  1.1491
15398TIP3    H247077   8.754   9.935   8.657 -1.3451  0.4070 -0.6868
15399TIP3   OH247078   1.296   8.930   3.522  0.6303 -0.2183  0.0614
15399TIP3    H147079   1.224   8.867   3.527  0.3855  0.1638  2.1223
15399TIP3    H247080   1.370   8.886   3.564  1.4722 -0.3845 -1.5224
15400TIP3   OH247081  10.895  10.677   9.173  0.4158 -0.1304 -0.3788
15400TIP3    H147082  10.962  10.661   9.240  0.2983 -0.1044 -0.2555
15400TIP3    H247083  10.943  10.722   9.103  0.6717 -0.7026 -0.5790
15401TIP3   OH247084   7.584   7.471   4.223 -0.1158 -0.3462 -0.2118
15401TIP3    H147085   7.663   7.438   4.266 -0.0792 -1.1757 -0.8832
15401TIP3    H247086   7.512   7.435   4.275 -0.0954 -2.1415 -1.3242
15402TIP3   OH247087   4.631   9.414   1.929 -0.2525 -0.1119  0.7034
15402TIP3    H147088   4.659   9.387   2.016 -1.8856 -1.0468  0.9884
15402TIP3    H247089   4.597   9.334   1.888 -1.7627  0.7501  0.1540
15403TIP3   OH247090   2.127   0.591   5.986  0.1911  0.4782  0.7271
15403TIP3    H147091   2.167   0.523   6.040  0.3169  1.4330  1.8768
15403TIP3    H247092   2.194   0.615   5.923  0.7502  0.7275  1.4114
15404TIP3   OH247093   6.620   8.790   0.326  0.0501  0.3662  0.2049
15404TIP3    H147094   6.678   8.866   0.329 -0.2289  0.5551  2.2005
15404TIP3    H247095   6.619   8.757   0.416  0.6966 -2.4306 -0.7195
15405TIP3   OH247096   7.470   7.126  10.614  0.0087 -0.4308 -0.1145
15405TIP3    H147097   7.376   7.139  10.628 -0.2392  0.4129 -2.2297
15405TIP3    H247098   7.479   7.034  10.590 -0.5348 -0.1058 -1.6232
15406TIP3   OH247099   5.207   5.005   3.640 -0.0209  0.1186 -0.3647
15406TIP3    H147100   5.118   5.015   3.674 -0.2081  0.9821 -1.0812
15406TIP3    H247101   5.198   4.941   3.569  0.1746 -0.8130  0.4279
15407TIP3   OH247102  10.821   9.946   3.647  0.8403 -0.1680  0.2717
15407TIP3    H147103  10.743   9.890   3.643  1.2041 -0.7329  0.8492
15407TIP3    H247104  10.894   9.885   3.637  1.2266  0.2927  0.2558
15408TIP3   OH247105   5.320   2.549   8.608  0.6333 -0.0739 -0.2602
15408TIP3    H147106   5.374   2.471   8.621 -1.3329 -1.6594 -0.9646
15408TIP3    H247107   5.298   2.579   8.696  0.4407 -1.0506  0.0360
15409TIP3   OH247108   7.652   8.803   3.979 -0.4599  0.3143 -0.4293
15409TIP3    H147109   7.662   8.883   3.927 -0.3729  0.0459 -0.8260
15409TIP3    H247110   7.559   8.783   3.976 -0.7552  1.3160  1.0470
15410TIP3   OH247111   9.983   0.299   8.217 -0.6715  0.1868 -0.2973
15410TIP3    H147112   9.970   0.250   8.136  1.7947  1.0585 -1.3274
15410TIP3    H247113   9.925   0.375   8.208 -0.4912  0.2293 -1.2331
15411TIP3   OH247114   4.222   8.360   0.521  0.4650 -0.4359  0.7556
15411TIP3    H147115   4.144   8.350   0.466  0.1650  0.1476  1.0692
15411TIP3    H247116   4.208   8.442   0.567  0.8277 -0.7970  1.5299
15412TIP3   OH247117   1.103   7.889   2.538  0.1155 -0.0582 -0.1066
15412TIP3    H147118   1.066   7.858   2.620 -0.6152  1.0612  0.0037
15412TIP3    H247119   1.048   7.848   2.470 -1.7327  1.9486  0.0603
15413TIP3   OH247120   7.412   5.954   0.443 -0.0820 -0.1384 -0.4770
15413TIP3    H147121   7.452   6.024   0.493 -0.8015  0.8879 -1.2982
15413TIP3    H247122   7.342   5.996   0.393 -0.1989 -1.3375 -1.3906
15414TIP3   OH247123   2.210   4.702  10.544 -0.1320 -0.0636 -0.7472
15414TIP3    H147124   2.143   4.762  10.510 -0.4854  1.0156  1.6309
15414TIP3    H247125   2.168   4.659  10.619  0.5278 -2.4834 -1.6746
15415TIP3   OH247126   7.027   3.114   5.773  0.6203  0.3726 -0.4513
15415TIP3    H147127   7.067   3.029   5.790  1.5054  0.7539 -0.6152
15415TIP3    H247128   7.099   3.171   5.747 -0.1027  0.9250 -1.3194
15416TIP3   OH247129   2.651   9.729   7.572 -0.4705  0.0739  0.7698
15416TIP3    H147130   2.571   9.776   7.596 -0.2827 -0.0602  1.6857
15416TIP3    H247131   2.706   9.734   7.650  0.4247  0.1716  0.1484
15417TIP3   OH247132   8.916   3.268   5.003 -0.6072  0.1714 -0.6123
15417TIP3    H147133   8.953   3.183   4.977 -0.5479 -0.0308  0.1286
15417TIP3    H247134   8.823   3.261   4.983 -0.3846  0.4452 -1.8640
15418TIP3   OH247135   2.239   1.217   5.181  0.2247 -0.3122  0.4077
15418TIP3    H147136   2.319   1.169   5.159  0.8380  1.1782 -0.7645
15418TIP3    H247137   2.268   1.285   5.242 -0.4654 -0.8043  1.2985
15419TIP3   OH247138   6.541   0.108   0.206 -0.4387 -0.6073  0.0106
15419TIP3    H147139   6.546   0.095   0.112  2.7229 -2.9223  0.3446
15419TIP3    H247140   6.607   0.175   0.225 -1.1511 -0.0502  0.5832
15420TIP3   OH247141   0.319   7.968   9.559 -0.4250 -0.3016 -0.2003
15420TIP3    H147142   0.232   7.943   9.527 -0.5819  0.6934 -0.6000
15420TIP3    H247143   0.302   8.016   9.640 -0.0686 -2.2003  1.0544
15421TIP3   OH247144   0.384   3.689   7.165  0.1160  0.1968 -0.5625
15421TIP3    H147145   0.377   3.685   7.070 -0.7808 -2.0045 -0.4724
15421TIP3    H247146   0.301   3.725   7.194 -0.4578 -1.0705 -0.5652
15422TIP3   OH247147   0.872   6.115   6.655  0.4153  0.7897  0.3605
15422TIP3    H147148   0.947   6.105   6.596  0.1039  1.1115 -0.0937
15422TIP3    H247149   0.904   6.169   6.727  1.1672 -0.6275  1.1538
15423TIP3   OH247150   0.106   6.966   2.306  0.0431 -0.3725  0.1509
15423TIP3    H147151   0.061   6.884   2.290  0.8781 -0.7416 -0.3552
15423TIP3    H247152   0.036   7.029   2.326 -0.6924 -0.9072 -0.7112
15424TIP3   OH247153   2.987   2.895   9.016 -0.0823  0.6416 -0.2952
15424TIP3    H147154   2.902   2.904   8.974  0.3862  0.8731 -1.2206
15424TIP3    H247155   2.977   2.940   9.100 -1.1706 -0.2357  0.0768
15425TIP3   OH247156   0.918   1.889   9.006  0.1365  0.2878 -0.1400
15425TIP3    H147157   0.918   1.849   9.094  0.2616  0.8730  0.1305
15425TIP3    H247158   0.833   1.865   8.969  0.0460  0.1094  0.1723
15426TIP3   OH247159  10.245   2.570   5.878 -0.4812 -0.0961  0.2781
15426TIP3    H147160  10.195   2.592   5.800 -0.2932  1.4048  0.5562
15426TIP3    H247161  10.191   2.506   5.924 -0.4466 -1.2601 -1.2180
15427TIP3   OH247162   7.355   0.792   3.043  0.2740  0.4671 -0.1110
15427TIP3    H147163   7.409   0.721   3.078 -0.4960 -1.1284 -1.9481
15427TIP3    H247164   7.391   0.809   2.956 -0.7511  0.9750 -0.4508
15428TIP3   OH247165   0.596   6.437   7.751  0.2596  0.0106 -0.2583
15428TIP3    H147166   0.512   6.464   7.788  0.6547  2.6705 -1.1104
15428TIP3    H247167   0.607   6.346   7.780 -3.2557 -0.7043 -0.7909
15429TIP3   OH247168   8.225   5.003  10.755 -0.4645  0.3736  0.7323
15429TIP3    H147169   8.292   4.935  10.761 -1.0045 -0.0926  1.7205
15429TIP3    H247170   8.208   5.028  10.845 -0.3074  1.8110  0.3840
15430TIP3   OH247171   1.257   1.012  10.235  0.1472  0.4684  0.2258
15430TIP3    H147172   1.246   0.973  10.322  1.7103  0.5509  0.4963
15430TIP3    H247173   1.277   0.937  10.178  2.1892  0.6719  0.5665
15431TIP3   OH247174   5.198   3.878   7.719 -0.4749 -0.2326 -0.1744
15431TIP3    H147175   5.203   3.900   7.626 -1.1269 -0.8504 -0.3631
15431TIP3    H247176   5.202   3.963   7.763  1.2298 -0.0088 -0.6761
15432TIP3   OH247177   4.464   0.924   1.279 -0.2876 -0.3156 -0.1600
15432TIP3    H147178   4.519   1.000   1.258 -1.5235  1.0113  1.1303
15432TIP3    H247179   4.462   0.922   1.374 -0.6794 -1.6982 -0.1852
15433TIP3   OH247180   1.706   8.535   2.208  0.1114 -0.4979  0.4004
15433TIP3    H147181   1.675   8.536   2.117 -1.9555  3.3089  0.9864
15433TIP3    H247182   1.643   8.480   2.254 -1.3284  0.9246  0.1965
15434TIP3   OH247183   1.597   5.232   9.681 -0.5266 -0.5881 -0.2386
15434TIP3    H147184   1.508   5.246   9.649  0.3251  1.5081 -1.8602
15434TIP3    H247185   1.591   5.151   9.732 -2.6892 -2.3528 -2.9729
15435TIP3   OH247186   9.155   7.310   8.620 -0.3641  0.6445  0.1533
15435TIP3    H147187   9.072   7.280   8.582 -0.1376 -0.4310  0.4589
15435TIP3    H247188   9.191   7.370   8.555 -1.6981  1.6644  0.3227
15436TIP3   OH247189   2.824   4.743   2.404 -0.4963 -0.1557  0.1680
15436TIP3    H147190   2.808   4.826   2.358  0.7719  0.1232  0.1667
15436TIP3    H247191   2.798   4.760   2.494 -0.0949  0.3052  0.2015
15437TIP3   OH247192   0.499  10.216   5.445 -0.0078 -0.4436 -0.2430
15437TIP3    H147193   0.412  10.222   5.404  0.1249 -0.2640 -0.4984
15437TIP3    H247194   0.529  10.128   5.424  1.0494  0.3693 -2.5504
15438TIP3   OH247195   3.641  10.775   7.262  0.5615  0.2183  0.3428
15438TIP3    H147196   3.715  10.828   7.291  1.2545  0.3233 -1.4979
15438TIP3    H247197   3.564  10.831   7.274  1.0966  1.0491 -0.0739
15439TIP3   OH247198   1.972   3.338   4.748  0.2396  0.0660  0.1207
15439TIP3    H147199   1.951   3.355   4.656  0.1273  0.3342  0.1958
15439TIP3    H247200   2.058   3.378   4.760  0.6240 -0.6818 -0.0820
15440TIP3   OH247201   8.189   9.018   1.165 -0.2332  0.3430  0.2756
15440TIP3    H147202   8.268   9.063   1.194  0.3379 -1.0463  0.9415
15440TIP3    H247203   8.204   8.926   1.185 -0.9733 -0.3294 -1.8977
15441TIP3   OH247204   9.498   7.489   0.584  0.3472  0.4538 -0.0305
15441TIP3    H147205   9.549   7.417   0.623 -0.0701 -0.7873 -1.6569
15441TIP3    H247206   9.563   7.541   0.536  0.5700  0.8528  0.6967
15442TIP3   OH247207   3.165   8.835   6.501 -0.1156  0.1545  0.1052
15442TIP3    H147208   3.127   8.890   6.570  0.2518 -0.0023  0.4388
15442TIP3    H247209   3.124   8.867   6.420  1.7644  2.5355 -0.0430
15443TIP3   OH247210   7.094   3.985   2.448  0.1206 -0.2043  0.1072
15443TIP3    H147211   7.038   4.028   2.383 -0.4787 -0.7023  0.2805
15443TIP3    H247212   7.151   3.928   2.396 -0.1992 -0.4268 -0.0095
15444TIP3   OH247213   4.284   2.661   9.419 -1.2134 -0.8768 -0.0556
15444TIP3    H147214   4.291   2.719   9.495  1.6321  0.0925 -0.9535
15444TIP3    H247215   4.268   2.721   9.346 -0.9174 -1.5078 -0.6395
15445TIP3   OH247216   4.305   1.057   0.978  0.3406 -0.1488 -0.3536
15445TIP3    H147217   4.282   1.138   1.023  1.1840  0.2322 -0.5830
15445TIP3    H247218   4.258   0.988   1.026  0.5591  0.3386  0.5878
15446TIP3   OH247219   8.316   9.073  10.631 -0.3307 -0.0290  0.5616
15446TIP3    H147220   8.283   9.159  10.656 -1.5562 -0.6664  1.2446
15446TIP3    H247221   8.295   9.065  10.538 -0.4678  0.2939  0.5646
15447TIP3   OH247222   2.827   8.306   2.659  0.2185 -0.6855 -0.3163
15447TIP3    H147223   2.841   8.289   2.566  1.1241 -2.0927  0.0435
15447TIP3    H247224   2.774   8.232   2.689  0.0849 -0.3365  0.3196
15448TIP3   OH247225   6.907   1.007   6.661 -0.0784 -0.0065 -0.5948
15448TIP3    H147226   6.847   1.032   6.731  1.6934  0.4017  0.8259
15448TIP3    H247227   6.993   1.035   6.691  1.1153 -2.0860 -1.7943
15449TIP3   OH247228   2.535   3.529  10.071  0.2952 -0.9416 -0.3944
15449TIP3    H147229   2.616   3.490  10.037  0.2233 -1.2824 -0.1796
15449TIP3    H247230   2.551   3.542  10.164 -0.1156 -1.5894 -0.2245
15450TIP3   OH247231   2.885   5.682   0.279 -0.7945 -0.0295 -0.0327
15450TIP3    H147232   2.945   5.651   0.212 -0.4465  0.3763  0.0874
15450TIP3    H247233   2.882   5.610   0.343 -0.9797 -0.3359 -0.3798
15451TIP3   OH247234  10.610   0.935   4.935  0.0019  0.3669  0.2612
15451TIP3    H147235  10.548   1.006   4.948 -0.2417  0.3585 -0.7790
15451TIP3    H247236  10.696   0.977   4.937 -0.1392  0.6900 -0.3286
15452TIP3   OH247237   1.326   6.616   1.571 -0.3718 -0.3066  0.0066
15452TIP3    H147238   1.336   6.657   1.656  0.1487 -0.1930 -0.1063
15452TIP3    H247239   1.415   6.596   1.543 -0.2955  1.7885 -1.5378
15453TIP3   OH247240   6.569   0.619   4.022 -0.6720 -0.3935  0.2829
15453TIP3    H147241   6.543   0.709   4.042 -3.0274 -1.6199  3.7543
15453TIP3    H247242   6.502   0.587   3.962 -1.7953 -0.6888  1.6255
15454TIP3   OH247243   7.918   3.721   0.588  0.2941  0.0883  0.1496
15454TIP3    H147244   7.984   3.652   0.593  0.5105 -0.0252 -2.7560
15454TIP3    H247245   7.839   3.677   0.559  0.7712  1.1238 -3.0660
15455TIP3   OH247246   4.290   9.293   4.602 -0.5588 -0.2713 -1.0874
15455TIP3    H147247   4.288   9.198   4.604  0.7492 -0.3764 -2.6423
15455TIP3    H247248   4.368   9.317   4.652 -0.6811 -0.0427 -1.0030
15456TIP3   OH247249   3.565   6.383   1.967 -0.0180  0.2191  0.4032
15456TIP3    H147250   3.602   6.418   2.048  2.1072 -3.8071  1.3807
15456TIP3    H247251   3.639   6.377   1.907 -0.1542 -2.5588  0.3922
15457TIP3   OH247252   1.426   0.288   8.401 -0.4263  0.2550  0.9128
15457TIP3    H147253   1.434   0.339   8.320 -0.1524  0.2618  0.9441
15457TIP3    H247254   1.340   0.247   8.395  0.0673 -0.6808  0.0826
15458TIP3   OH247255   2.543   3.988   6.798  0.8260 -0.3458 -0.2670
15458TIP3    H147256   2.504   3.958   6.717 -0.8742 -2.3034  1.1573
15458TIP3    H247257   2.488   4.062   6.825 -0.3240 -1.3819  0.3676
15459TIP3   OH247258   9.175   2.311   3.617  0.4090  0.5473  0.3748
15459TIP3    H147259   9.172   2.238   3.555  2.3267  2.0131 -1.5704
15459TIP3    H247260   9.228   2.378   3.574 -0.9880  3.0209  2.1948
15460TIP3   OH247261   8.537   5.021  10.585  0.4514  0.6373 -0.0640
15460TIP3    H147262   8.537   4.993  10.676  1.0524  2.2487  0.4490
15460TIP3    H247263   8.607   4.970  10.544 -0.6119 -0.9993  0.0392
15461TIP3   OH247264   7.914   5.286   9.953 -0.4685 -0.2427 -0.0401
15461TIP3    H147265   7.968   5.363   9.938 -0.7077 -0.4182 -2.2188
15461TIP3    H247266   7.968   5.228  10.006  0.6359  0.4700 -0.3637
15462TIP3   OH247267   8.040   7.374   6.272 -0.1320  0.3419  0.7895
15462TIP3    H147268   8.026   7.415   6.186 -0.8767 -0.2411  0.6226
15462TIP3    H247269   7.966   7.315   6.282  1.4644 -1.8203  0.5145
15463TIP3   OH247270   6.716   5.809   8.969  0.1632 -0.3143 -0.1770
15463TIP3    H147271   6.764   5.726   8.969 -0.9681 -0.9981 -1.7026
15463TIP3    H247272   6.624   5.784   8.972 -0.1930  0.9574  1.2110
15464TIP3   OH247273   8.717   0.453   2.307 -0.2158  0.0106 -0.4847
15464TIP3    H147274   8.793   0.473   2.361  0.7515 -0.1862 -1.7392
15464TIP3    H247275   8.714   0.524   2.243  0.1400 -1.0460 -1.7053
15465TIP3   OH247276   9.205   3.452   1.982  0.0765  0.2590 -0.0777
15465TIP3    H147277   9.249   3.376   1.944  1.9642  1.0684  0.3691
15465TIP3    H247278   9.197   3.515   1.910  0.1046  0.3008 -0.0449
15466TIP3   OH247279   7.705   3.817   8.689 -0.1062  0.4288 -0.7397
15466TIP3    H147280   7.743   3.805   8.602  2.0980 -0.8928  0.3162
15466TIP3    H247281   7.753   3.891   8.726  0.6332 -0.4745  0.1580
15467TIP3   OH247282   9.915   8.845   9.704  0.2563  0.5546  0.0162
15467TIP3    H147283   9.950   8.890   9.781  0.2895  0.6057 -0.0299
15467TIP3    H247284   9.880   8.763   9.739  2.4999 -0.6005 -0.2305
15468TIP3   OH247285   1.896   7.615   9.391  0.3209  0.6224  0.0168
15468TIP3    H147286   1.879   7.640   9.482 -0.5866  2.6467 -0.6321
15468TIP3    H247287   1.816   7.640   9.345 -0.1643 -2.5109 -1.0225
15469TIP3   OH247288   2.698  10.230  10.207  0.2913 -0.0957 -0.0525
15469TIP3    H147289   2.715  10.311  10.254  0.4405 -0.5318  0.6584
15469TIP3    H247290   2.784  10.201  10.177  0.5948 -1.2217  1.7607
15470TIP3   OH247291   2.890   3.746   7.080 -0.4723 -0.0620  0.4545
15470TIP3    H147292   2.824   3.749   7.011  0.1896  0.7178 -0.1577
15470TIP3    H247293   2.843   3.773   7.159 -1.2902 -1.1729  0.3802
15471TIP3   OH247294  10.373   1.652   7.704  0.0563 -0.2192  0.1851
15471TIP3    H147295  10.330   1.714   7.762  1.0237  0.7107 -0.0587
15471TIP3    H247296  10.462   1.645   7.738  0.7413  0.5975 -1.3462
15472TIP3   OH247297  10.670   5.108   7.589 -0.3371  0.5522  0.0760
15472TIP3    H147298  10.747   5.091   7.534 -0.2368 -1.1079  0.6669
15472TIP3    H247299  10.596   5.086   7.532 -0.2720 -0.1548  0.2543
15473TIP3   OH247300   1.939   7.723   4.428 -0.2488  0.0836  0.0307
15473TIP3    H147301   1.932   7.796   4.489  0.5208 -0.6421  1.0439
15473TIP3    H247302   1.862   7.669   4.446 -0.0634 -0.0894  0.3104
15474TIP3   OH247303   4.393  10.433   7.271 -0.6594  0.4950  0.0321
15474TIP3    H147304   4.314  10.399   7.314 -1.8488  1.0467 -1.5962
15474TIP3    H247305   4.374  10.425   7.178  2.4316 -2.0965 -0.5390
15475TIP3   OH247306   0.314   8.680   8.327  0.3446 -0.0553  0.4498
15475TIP3    H147307   0.248   8.697   8.394 -0.3856 -0.1231 -0.2323
15475TIP3    H247308   0.358   8.764   8.314 -0.5615  0.3617 -0.0737
15476TIP3   OH247309   5.568   6.850   8.599  0.0616  0.2620  0.1688
15476TIP3    H147310   5.622   6.923   8.567  1.3913  0.0811  1.8293
15476TIP3    H247311   5.554   6.869   8.691  0.3004 -1.4632  0.6073
15477TIP3   OH247312   7.383   7.406   4.419  0.2597  0.0914  0.3337
15477TIP3    H147313   7.425   7.440   4.498  0.6956  0.7803 -0.1913
15477TIP3    H247314   7.370   7.313   4.437  1.8796 -0.1063  0.5678
15478TIP3   OH247315  10.146  10.540   5.690  0.2918 -0.3919 -0.6613
15478TIP3    H147316  10.103  10.467   5.734 -0.8403  0.6590  0.0263
15478TIP3    H247317  10.077  10.606   5.679  1.6234  1.2300  0.2069
15479TIP3   OH247318   6.967   5.818   1.546  0.4976  0.5133 -0.4996
15479TIP3    H147319   6.933   5.768   1.620  0.4088 -0.5016 -1.2022
15479TIP3    H247320   6.958   5.759   1.471  1.8720  0.9946 -1.0778
15480TIP3   OH247321   9.152   4.410   0.313 -0.2636  0.2628 -0.1737
15480TIP3    H147322   9.095   4.451   0.378 -0.4063 -0.1678 -0.0203
15480TIP3    H247323   9.131   4.316   0.319 -2.1239  0.4230 -2.6037
15481TIP3   OH247324   9.323   9.059  10.045  0.2904  0.0872 -0.4924
15481TIP3    H147325   9.305   9.088   9.956  1.1037 -0.9160 -1.0058
15481TIP3    H247326   9.418   9.059  10.052  0.2966 -1.3609 -0.1720
15482TIP3   OH247327   6.764   3.109   7.538  0.3693  0.5670 -0.6018
15482TIP3    H147328   6.773   3.066   7.623  2.9621  1.0461 -0.5483
15482TIP3    H247329   6.710   3.186   7.556 -0.5242 -0.2183  0.2281
15483TIP3   OH247330   0.254   6.073   7.319 -0.1707  0.6006  0.2375
15483TIP3    H147331   0.277   5.994   7.271  2.8293  0.7852  1.1757
15483TIP3    H247332   0.237   6.139   7.252  1.1502  0.1306 -0.5748
15484TIP3   OH247333   4.954   3.977   8.777 -0.3935 -0.1110 -0.1175
15484TIP3    H147334   4.918   4.050   8.827 -0.4802 -0.1929 -0.0586
15484TIP3    H247335   4.888   3.959   8.711  0.4975  1.1510 -1.4076
15485TIP3   OH247336   1.964   4.571   6.610  0.0449  0.0478 -0.6168
15485TIP3    H147337   2.048   4.605   6.641 -0.5447  1.4091 -0.4406
15485TIP3    H247338   1.967   4.583   6.515 -0.4571  1.3258 -0.4827
15486TIP3   OH247339   8.729   8.700   2.736 -0.1904 -0.1148  0.3110
15486TIP3    H147340   8.728   8.790   2.704  2.4386 -0.0203  0.2583
15486TIP3    H247341   8.791   8.654   2.678  2.9393 -0.5041  3.5846
15487TIP3   OH247342   8.016   7.154   3.385  0.5205 -0.6208 -0.3228
15487TIP3    H147343   7.948   7.219   3.368  0.6163 -0.5284 -0.3571
15487TIP3    H247344   8.055   7.180   3.468  2.0988  0.7252 -1.4025
15488TIP3   OH247345   1.960   2.616   6.269 -0.1102  0.6288 -0.1971
15488TIP3    H147346   1.952   2.523   6.292  0.9765  0.7610  0.8231
15488TIP3    H247347   1.973   2.616   6.174  0.5754 -0.3186 -0.1163
15489TIP3   OH247348   3.769   9.508   7.196  0.1434  0.2169  0.0972
15489TIP3    H147349   3.683   9.498   7.155  0.3049 -0.3176 -0.1285
15489TIP3    H247350   3.831   9.485   7.127  0.6173  3.2521 -0.6131
15490TIP3   OH247351   6.452   0.851   2.752  0.1752  0.1124 -0.1292
15490TIP3    H147352   6.535   0.896   2.736  0.4958 -0.0518  0.9893
15490TIP3    H247353   6.467   0.762   2.719 -0.7961  0.9700 -3.2948
15491TIP3   OH247354   8.650   9.334   9.340  0.1436 -0.3540 -0.4074
15491TIP3    H147355   8.743   9.349   9.323  0.2963 -0.7421  0.0497
15491TIP3    H247356   8.613   9.312   9.254  0.9958 -2.8428 -0.2229
15492TIP3   OH247357   9.988   8.740   9.228 -0.3915 -0.2663  0.1914
15492TIP3    H147358  10.050   8.674   9.259 -1.0367  0.5067  3.4551
15492TIP3    H247359  10.031   8.823   9.245 -0.1608  0.2705 -2.6067
15493TIP3   OH247360   8.952   6.910   2.707 -0.4210  0.3945  0.3736
15493TIP3    H147361   8.902   6.899   2.788 -0.9219  1.2086  0.1859
15493TIP3    H247362   8.909   6.852   2.644  1.4100 -2.1019  1.2605
15494TIP3   OH247363   0.466   9.665   1.815  0.3713  0.1745  0.3138
15494TIP3    H147364   0.390   9.635   1.766  0.1105  0.9201  0.2604
15494TIP3    H247365   0.535   9.673   1.749  0.0336  1.1303  0.0613
15495TIP3   OH247366   9.947   4.821   7.622 -0.0155  0.1897  0.1832
15495TIP3    H147367   9.915   4.731   7.617  1.3727 -0.2418 -1.4674
15495TIP3    H247368   9.920   4.861   7.539  0.5832  0.8882  0.3163
15496TIP3   OH247369   4.157   3.373   4.294 -0.5594 -0.6615 -0.3356
15496TIP3    H147370   4.093   3.440   4.272  0.9474  0.2907 -2.0833
15496TIP3    H247371   4.175   3.387   4.387 -1.9267 -0.1359 -0.1343
15497TIP3   OH247372  10.626   1.357   3.910 -0.4939 -0.2234 -0.7286
15497TIP3    H147373  10.532   1.371   3.919 -0.4545 -0.4087  0.1180
15497TIP3    H247374  10.637   1.262   3.908 -0.4212 -0.1992 -2.1467
15498TIP3   OH247375   0.339   1.693   6.087 -0.3760  0.2670 -0.4269
15498TIP3    H147376   0.402   1.652   6.028  0.3440  0.9796 -0.1551
15498TIP3    H247377   0.354   1.651   6.171  0.7446  1.4547 -0.0135
15499TIP3   OH247378   4.500   7.323   1.489 -0.0370 -0.1114 -0.3558
15499TIP3    H147379   4.573   7.356   1.436  0.3915 -1.4132 -0.6199
15499TIP3    H247380   4.446   7.400   1.506  1.0202  0.7473 -0.7669
15500TIP3   OH247381   2.693   1.712   8.074  0.1475  0.1863 -0.2894
15500TIP3    H147382   2.774   1.739   8.031  1.1766 -1.2416  0.6582
15500TIP3    H247383   2.707   1.731   8.167  0.6195 -2.6385  0.3202
15501TIP3   OH247384   9.241  10.074   2.226 -0.1742  0.1472 -0.0954
15501TIP3    H147385   9.215   9.985   2.201 -2.7483  0.3676  1.4664
15501TIP3    H247386   9.159  10.124   2.223  0.8468  1.9740  1.0620
15502TIP3   OH247387   2.981   9.470   3.604 -0.1755  0.3395  0.0950
15502TIP3    H147388   2.970   9.515   3.520 -1.8417 -1.1548 -0.5583
15502TIP3    H247389   2.935   9.525   3.667 -0.4522  0.5958 -0.3243
15503TIP3   OH247390   7.741   9.623   1.545 -0.4420  0.0436  0.2807
15503TIP3    H147391   7.800   9.670   1.485  1.1099 -1.1318  0.8002
15503TIP3    H247392   7.745   9.532   1.515 -0.2894 -0.4240  1.6406
15504TIP3   OH247393   4.017   0.144   4.223  0.3066  0.6066  0.1829
15504TIP3    H147394   3.964   0.224   4.217  0.3599  0.5698 -1.0471
15504TIP3    H247395   3.958   0.079   4.262 -0.6886  0.4734 -1.4724
15505TIP3   OH247396  10.716   7.042  10.415  0.1654 -0.0559 -0.0872
15505TIP3    H147397  10.703   7.057  10.509 -0.3720  3.3070 -0.5893
15505TIP3    H247398  10.631   7.010  10.384 -0.8800  2.3980  0.0305
15506TIP3   OH247399   3.330   2.861   1.522 -0.7271  0.8852  0.8218
15506TIP3    H147400   3.417   2.901   1.516 -0.9546  1.2254 -0.3910
15506TIP3    H247401   3.269   2.934   1.524 -1.0737  0.6379 -0.1212
15507TIP3   OH247402   4.565   8.534   0.160  0.7786  0.2621  0.0523
15507TIP3    H147403   4.637   8.472   0.154  1.1827  0.8328 -1.6086
15507TIP3    H247404   4.497   8.487   0.208  1.5426 -0.9901 -0.0496
15508TIP3   OH247405   2.835   3.778  10.760 -0.7640  0.0701 -0.0321
15508TIP3    H147406   2.874   3.850  10.809 -2.0649  1.1205 -0.4722
15508TIP3    H247407   2.867   3.699  10.804 -3.1026  0.8958  3.6402
15509TIP3   OH247408  10.659   3.724   5.976  0.0217  0.2925  0.3117
15509TIP3    H147409  10.671   3.794   5.912 -0.6425  0.3194  0.2025
15509TIP3    H247410  10.656   3.769   6.061 -0.6050  0.4268  0.2248
15510TIP3   OH247411   0.101   2.609   8.199 -0.5320 -0.3685  0.2918
15510TIP3    H147412   0.186   2.606   8.157 -0.8389 -2.2973 -0.3179
15510TIP3    H247413   0.069   2.698   8.185  1.1787  0.2425  0.1575
15511TIP3   OH247414   3.518   7.708   2.204  0.3824 -0.2124 -0.0382
15511TIP3    H147415   3.461   7.650   2.154 -0.0669 -1.2356  1.5912
15511TIP3    H247416   3.579   7.649   2.248 -0.0503  0.5483  1.6213
15512TIP3   OH247417   7.815   3.975   5.116 -0.2161 -0.5413  0.5087
15512TIP3    H147418   7.882   3.935   5.171 -0.3253  0.9955  1.8521
15512TIP3    H247419   7.806   3.916   5.042  0.6703 -2.1771  1.6442
15513TIP3   OH247420   1.308  10.043   0.985 -0.3180 -0.0680  0.2119
15513TIP3    H147421   1.356  10.037   0.903 -1.8299 -2.6536 -0.5706
15513TIP3    H247422   1.242  10.111   0.969  1.0732  1.3529  0.2760
15514TIP3   OH247423   9.499   2.529  10.720  0.0004 -0.3599  0.0562
15514TIP3    H147424   9.463   2.600  10.774  0.4503 -0.4213  0.4385
15514TIP3    H247425   9.528   2.573  10.639  0.9417  0.0159  0.5810
15515TIP3   OH247426   6.316   5.182   8.904 -0.9142 -0.6827 -0.1232
15515TIP3    H147427   6.225   5.211   8.900 -0.4580  0.7097 -1.0063
15515TIP3    H247428   6.324   5.115   8.836 -1.0473 -0.1315 -0.6821
15516TIP3   OH247429   2.701   9.651   2.452  0.3357 -0.1269  0.1450
15516TIP3    H147430   2.707   9.595   2.374  0.8987 -2.6459  1.8725
15516TIP3    H247431   2.746   9.602   2.520 -1.2192  1.3910  2.4105
15517TIP3   OH247432   2.172   5.116   3.706 -0.1833 -0.1891  0.1036
15517TIP3    H147433   2.089   5.119   3.754 -0.1509 -0.7768  0.2105
15517TIP3    H247434   2.239   5.119   3.774 -0.1406 -1.8836  0.1901
15518TIP3   OH247435   1.733   4.986   3.388  0.2526 -0.3665  0.1802
15518TIP3    H147436   1.692   4.937   3.459  2.0176 -0.2123  1.3574
15518TIP3    H247437   1.822   5.004   3.419  1.2452 -0.6865 -2.2552
15519TIP3   OH247438   6.820  10.837   1.038  0.3669 -0.0697 -0.0144
15519TIP3    H147439   6.769  10.815   0.960  1.0458  0.5670 -0.6611
15519TIP3    H247440   6.906  10.862   1.003  0.5526  0.6141  0.9146
15520TIP3   OH247441   5.024   7.274   5.847  0.1844  0.3235 -0.1747
15520TIP3    H147442   4.945   7.327   5.859 -1.0691 -1.6027  0.6498
15520TIP3    H247443   5.083   7.304   5.917 -1.3640 -0.7827  1.7126
15521TIP3   OH247444   0.216   7.453   5.195  0.0607 -0.2548 -0.1453
15521TIP3    H147445   0.200   7.410   5.111  1.2744 -0.1137 -0.4567
15521TIP3    H247446   0.223   7.546   5.173  1.3243 -0.3099 -0.0439
15522TIP3   OH247447   4.881   6.032   6.955 -0.6085 -0.2796  0.3507
15522TIP3    H147448   4.965   6.071   6.933 -0.6062 -0.2443  0.4235
15522TIP3    H247449   4.843   6.007   6.870 -1.8731  2.4000  0.0197
15523TIP3   OH247450  10.257  10.227   8.776  0.2985  0.0670  0.0020
15523TIP3    H147451  10.204  10.260   8.849  0.6996  1.0808 -0.1505
15523TIP3    H247452  10.337  10.194   8.817  0.2108 -0.0447  0.0852
15524TIP3   OH247453   9.654   8.999   1.738  0.1472  0.3118  0.4426
15524TIP3    H147454   9.629   8.980   1.829  1.7424 -1.1139  0.6567
15524TIP3    H247455   9.596   8.944   1.685  0.2998 -0.1204  0.7133
15525TIP3   OH247456   6.810   9.559   9.102 -0.7133  0.0637 -0.0333
15525TIP3    H147457   6.766   9.476   9.123 -1.0805  0.0018 -0.9866
15525TIP3    H247458   6.887   9.533   9.051 -1.0538  0.3199 -0.6935
15526TIP3   OH247459   6.840   8.472   6.362  0.6212  0.3383 -0.1520
15526TIP3    H147460   6.912   8.423   6.401  0.6216 -0.7665 -1.4470
15526TIP3    H247461   6.850   8.458   6.267  0.1726  2.2646 -0.5236
15527TIP3   OH247462   5.077   8.006   4.697  0.2160  0.0310 -0.0641
15527TIP3    H147463   5.126   7.955   4.631  1.9944  0.9387  0.4841
15527TIP3    H247464   5.138   8.075   4.723 -1.4157  1.2518  0.6667
15528TIP3   OH247465   3.267   8.867   5.281 -0.4758 -0.3434 -0.5708
15528TIP3    H147466   3.182   8.838   5.311  0.4089 -1.8936  0.5583
15528TIP3    H247467   3.250   8.907   5.195 -2.1498 -1.7372 -0.9323
15529TIP3   OH247468  10.057   5.701   0.968 -0.1679  0.3813 -0.0807
15529TIP3    H147469  10.094   5.620   1.002  0.5128 -0.3971 -2.4965
15529TIP3    H247470   9.965   5.681   0.951 -0.3849  0.6164  0.7951
15530TIP3   OH247471  10.129   9.693   0.601 -0.0220 -0.5510 -0.5935
15530TIP3    H147472  10.101   9.763   0.543  0.5607 -1.3873 -1.9237
15530TIP3    H247473  10.156   9.738   0.681 -1.5210  0.5645 -0.6642
15531TIP3   OH247474   8.557   6.996   2.723  0.5076 -0.1928 -0.1835
15531TIP3    H147475   8.538   7.083   2.759  2.0388  0.1699 -0.1835
15531TIP3    H247476   8.563   7.009   2.629 -0.5635 -0.5758 -0.3218
15532TIP3   OH247477   0.908   9.107   4.145  0.0148 -0.3463  0.4074
15532TIP3    H147478   0.956   9.089   4.226  1.0359 -0.3633 -0.1866
15532TIP3    H247479   0.817   9.119   4.173  0.2428 -1.0047  1.4700
15533TIP3   OH247480   6.637   2.146   0.483  0.1432 -0.0126 -0.3484
15533TIP3    H147481   6.643   2.056   0.451  0.6155 -0.5007  1.0512
15533TIP3    H247482   6.637   2.138   0.578  2.1830  1.5794 -0.1364
15534TIP3   OH247483   7.993  10.511   2.687  0.1710 -0.2522 -0.2642
15534TIP3    H147484   7.953  10.431   2.652  1.1651  0.3157 -2.9589
15534TIP3    H247485   7.941  10.582   2.648  1.6811  0.4284 -1.1236
15535TIP3   OH247486   2.880   4.396   3.304  0.3913  0.2576 -0.4617
15535TIP3    H147487   2.788   4.372   3.303  1.0025 -2.4126 -0.6285
15535TIP3    H247488   2.910   4.378   3.393  1.3865 -2.0389 -1.1708
15536TIP3   OH247489   9.047   0.072   3.760 -0.1396  0.6039 -0.0001
15536TIP3    H147490   8.993   0.027   3.694 -0.5479  0.4721  0.4175
15536TIP3    H247491   8.984   0.105   3.824  0.3754 -3.3646  2.9363
15537TIP3   OH247492   1.402   8.485   8.370  0.3311  0.2496 -0.2665
15537TIP3    H147493   1.389   8.563   8.316  1.2204  0.4246 -0.2495
15537TIP3    H247494   1.496   8.482   8.385  0.5168 -1.7220 -1.5702
15538TIP3   OH247495  10.670   8.807   0.027  0.0895  0.3217  0.3645
15538TIP3    H147496  10.672   8.750  -0.050 -1.2085  0.5498  0.1402
15538TIP3    H247497  10.668   8.896  -0.009  1.9263  0.5381  0.7116
15539TIP3   OH247498   5.492   9.479   7.553  0.2246  0.0622 -0.0010
15539TIP3    H147499   5.430   9.533   7.602  0.7162  0.2768  0.3974
15539TIP3    H247500   5.447   9.395   7.541 -1.4513  1.2155 -2.5539
15540TIP3   OH247501   9.291  10.015   9.357  0.1470 -0.6919  0.1917
15540TIP3    H147502   9.196  10.014   9.340  0.2031 -0.2329 -0.1660
15540TIP3    H247503   9.302  10.081   9.425  0.3939  0.5580 -1.0009
15541TIP3   OH247504   1.120   3.570   1.107 -0.0730  0.3148  0.0827
15541TIP3    H147505   1.124   3.509   1.181 -0.6819  0.7830  0.5141
15541TIP3    H247506   1.132   3.656   1.146 -2.6199  0.7960  0.0106
15542TIP3   OH247507   6.134   6.514   5.263  0.2756  0.1934 -0.4637
15542TIP3    H147508   6.072   6.500   5.335 -0.7500  2.7600 -0.7393
15542TIP3    H247509   6.132   6.609   5.247  2.2122  0.0073 -2.3587
15543TIP3   OH247510  10.383   5.685   2.801  0.8488 -0.3528 -0.0524
15543TIP3    H147511  10.322   5.702   2.873 -0.7634 -0.0304 -1.4551
15543TIP3    H247512  10.355   5.601   2.765  3.1531 -1.7478  1.1303
15544TIP3   OH247513  10.128   5.442   6.367  0.3966 -0.4542 -0.0889
15544TIP3    H147514  10.222   5.450   6.352  0.2304  1.6874 -0.2779
15544TIP3    H247515  10.090   5.451   6.279 -0.0844  1.7218  0.2868
15545TIP3   OH247516   0.996   9.251   9.789 -0.5561  0.0145  0.3706
15545TIP3    H147517   1.057   9.323   9.778 -1.7729  1.4199  2.1811
15545TIP3    H247518   1.001   9.202   9.708  1.0539  1.5725 -0.5196
15546TIP3   OH247519   9.850   2.437  10.627  0.1279 -0.5498  0.0562
15546TIP3    H147520   9.827   2.529  10.615  0.4698 -0.6216 -1.2716
15546TIP3    H247521   9.875   2.431  10.719  1.9084  1.0961 -0.2562
15547TIP3   OH247522   8.095   7.433   7.599  0.1990  0.2056  0.3701
15547TIP3    H147523   8.131   7.521   7.589 -0.5882  0.5119  0.1093
15547TIP3    H247524   8.045   7.437   7.680  0.4570 -0.1101  0.5458
15548TIP3   OH247525   6.990   5.248  10.301 -0.2711 -0.1678  0.5755
15548TIP3    H147526   7.028   5.299  10.229 -2.1026 -0.2858 -0.5413
15548TIP3    H247527   6.900   5.281  10.309 -0.9583 -2.0266  0.9733
15549TIP3   OH247528   9.774   4.107   9.845  0.0610 -0.1308  0.0320
15549TIP3    H147529   9.718   4.160   9.788 -1.5388 -1.2392  0.5101
15549TIP3    H247530   9.783   4.159   9.925  1.2791  0.8680 -0.7197
15550TIP3   OH247531   2.108   1.020   9.312 -0.6583  0.8520  0.0243
15550TIP3    H147532   2.054   1.045   9.388 -2.5670  0.4305 -1.1104
15550TIP3    H247533   2.091   1.089   9.248 -1.3305 -0.2413 -1.0177
15551TIP3   OH247534   0.616   8.138  10.208 -0.3380 -0.2975  0.1521
15551TIP3    H147535   0.686   8.179  10.157 -0.1701 -1.1085 -0.2852
15551TIP3    H247536   0.621   8.045  10.186  1.4487 -1.1953  3.6324
15552TIP3   OH247537  10.660   0.528   8.125 -0.0624  0.3033 -0.0363
15552TIP3    H147538  10.589   0.501   8.183 -0.6801 -0.2851 -1.0434
15552TIP3    H247539  10.626   0.607   8.082  0.7733  1.3221  1.0660
15553TIP3   OH247540   3.765   9.414   9.170  0.4627 -0.3902  0.0202
15553TIP3    H147541   3.670   9.414   9.181  0.6362  1.4794  2.4104
15553TIP3    H247542   3.796   9.355   9.239  1.1041  0.9729  0.9267
15554TIP3   OH247543  10.441   6.315   7.105  0.2706  0.3873 -0.3524
15554TIP3    H147544  10.482   6.242   7.058  0.7355 -0.0646  0.7271
15554TIP3    H247545  10.347   6.295   7.103  0.3983 -0.2772 -0.0242
15555TIP3   OH247546   2.870   2.994   4.754 -0.0540  0.1293  0.3035
15555TIP3    H147547   2.841   3.058   4.689 -1.8410  0.5213  1.4109
15555TIP3    H247548   2.965   2.993   4.747 -0.1715  0.3092 -2.1421
15556TIP3   OH247549   9.179   6.825   2.344 -0.1903 -0.7612  0.1608
15556TIP3    H147550   9.188   6.737   2.380  0.0155 -0.7419  0.1595
15556TIP3    H247551   9.090   6.828   2.310 -0.0376 -1.1315 -0.2782
15557TIP3   OH247552   0.724   6.052   7.816  0.8549 -0.2091  0.3104
15557TIP3    H147553   0.659   5.990   7.848  1.3708 -0.8404  0.1446
15557TIP3    H247554   0.742   6.109   7.891  0.5315 -0.3901  0.5234
15558TIP3   OH247555   2.624   4.504  10.266  0.4912 -0.0262  0.4004
15558TIP3    H147556   2.690   4.442  10.236 -1.7733 -2.2069 -0.4803
15558TIP3    H247557   2.622   4.494  10.361  0.1717 -1.3624  0.2725
15559TIP3   OH247558   0.988  10.588   4.759  0.2804 -0.9395 -0.3948
15559TIP3    H147559   1.070  10.598   4.806 -0.5676 -0.8275  1.1161
15559TIP3    H247560   0.921  10.580   4.827 -1.4419  2.3311 -1.4491
15560TIP3   OH247561   8.131   1.661   9.480 -0.0051 -0.5055  0.4789
15560TIP3    H147562   8.107   1.569   9.496 -0.1703 -0.1424  2.5459
15560TIP3    H247563   8.047   1.707   9.475  0.1032 -0.3329  0.2374
15561TIP3   OH247564   3.308  10.785   7.098 -0.5144 -0.7751 -0.6096
15561TIP3    H147565   3.310  10.704   7.047 -0.6538 -2.2988  1.6689
15561TIP3    H247566   3.271  10.759   7.182 -1.1259  1.8084 -0.0037
15562TIP3   OH247567   3.116  10.820   5.025 -0.6955  0.6504  0.2906
15562TIP3    H147568   3.197  10.871   5.025 -0.3653  0.1435  0.5980
15562TIP3    H247569   3.070  10.847   4.946  0.0070  0.5913 -0.1443
15563TIP3   OH247570   9.261   1.729   7.872 -0.4295  0.4402  0.3771
15563TIP3    H147571   9.220   1.647   7.843 -1.3684  0.3758  1.8157
15563TIP3    H247572   9.244   1.732   7.966  0.7671  1.6393  0.5743
15564TIP3   OH247573   4.921   0.140   4.229  0.5488 -0.3289 -0.3144
15564TIP3    H147574   4.901   0.175   4.315  1.5173 -1.1888  0.2807
15564TIP3    H247575   4.981   0.067   4.245 -0.5503 -1.5920 -1.5801
15565TIP3   OH247576   3.409   6.132   9.402 -0.4650  0.3764 -0.4549
15565TIP3    H147577   3.460   6.053   9.420  1.9719  1.9383 -0.0986
15565TIP3    H247578   3.366   6.152   9.485 -0.6403 -0.2412 -0.3906
15566TIP3   OH247579   3.429   5.154   4.461  0.0129 -0.1663 -0.1760
15566TIP3    H147580   3.334   5.170   4.464  0.1808  0.8651 -0.2477
15566TIP3    H247581   3.459   5.177   4.549  0.5710  2.0295 -0.8847
15567TIP3   OH247582   7.231   5.180   4.331 -0.3259 -0.1405  0.0233
15567TIP3    H147583   7.191   5.161   4.246  0.2168  0.0598 -0.2841
15567TIP3    H247584   7.232   5.096   4.377 -1.2956 -0.1044  0.1278
15568TIP3   OH247585   7.661   9.479   9.660 -0.0409 -0.4170  0.2362
15568TIP3    H147586   7.575   9.515   9.639  0.2708  1.6633  2.1453
15568TIP3    H247587   7.686   9.429   9.582 -1.9604  0.8551 -1.2917
15569TIP3   OH247588   0.095   3.404   5.801  0.2238  0.4643  0.0458
15569TIP3    H147589   0.111   3.498   5.808 -2.1016  0.7822  2.3116
15569TIP3    H247590   0.173   3.363   5.839  0.9046  1.4769 -0.2264
15570TIP3   OH247591   4.996   5.733   2.158  0.6417 -0.7154 -0.3975
15570TIP3    H147592   4.934   5.770   2.095  1.0188 -1.1041 -1.0007
15570TIP3    H247593   5.075   5.715   2.107  0.4598 -2.3846 -0.1403
15571TIP3   OH247594   0.742   4.164   8.012 -0.0940 -0.0727 -0.0196
15571TIP3    H147595   0.722   4.151   7.919 -0.6814  1.5493 -0.1434
15571TIP3    H247596   0.837   4.176   8.015 -0.1766  0.7766 -0.5432
15572TIP3   OH247597   0.972  10.019   2.739 -0.1152  0.3668  0.2379
15572TIP3    H147598   0.947   9.978   2.656 -0.8475 -0.9439  1.0737
15572TIP3    H247599   1.068  10.021   2.737  0.0997 -3.2179  0.9365
15573TIP3   OH247600   0.798   2.199   6.194  0.1437 -0.8188 -0.9204
15573TIP3    H147601   0.761   2.166   6.112 -0.0231 -1.2174 -0.6853
15573TIP3    H247602   0.889   2.218   6.173  0.2406 -1.4184 -1.0654
15574TIP3   OH247603   9.050  10.424   6.268 -0.2734 -0.6405  0.0986
15574TIP3    H147604   9.074  10.455   6.356 -1.7816  1.8501 -0.2655
15574TIP3    H247605   9.012  10.338   6.283  2.0239 -1.5232  1.4964
15575TIP3   OH247606   7.962   4.252   4.272 -0.6021  0.1119  0.2451
15575TIP3    H147607   7.966   4.212   4.359  0.2130  0.7438  0.5048
15575TIP3    H247608   8.041   4.306   4.266 -0.9800  0.5914 -0.6339
15576TIP3   OH247609   1.845   6.198   1.247 -0.5508 -0.1324  0.2361
15576TIP3    H147610   1.825   6.289   1.225 -0.0458  0.3188  1.5024
15576TIP3    H247611   1.893   6.164   1.171 -0.7487  0.6611 -0.2475
15577TIP3   OH247612   4.953   3.126   1.398  0.2263  0.5124 -0.3089
15577TIP3    H147613   4.918   3.121   1.309 -0.7956 -0.2457  0.1235
15577TIP3    H247614   4.881   3.161   1.450  0.7584  0.7745  0.2641
15578TIP3   OH247615   7.910   1.485   1.716 -0.5534 -0.1367 -0.1350
15578TIP3    H147616   7.910   1.551   1.647  0.3795  0.3933  0.3484
15578TIP3    H247617   7.860   1.526   1.787  0.9766  0.5545  0.5940
15579TIP3   OH247618  10.030   7.063   9.882 -0.5129 -0.5760 -0.5271
15579TIP3    H147619  10.071   6.979   9.858 -0.1583 -0.9959  1.3725
15579TIP3    H247620  10.104   7.119   9.906 -0.8733 -1.0169  1.9626
15580TIP3   OH247621   4.399   8.082   2.424  0.2202 -0.1962 -0.1726
15580TIP3    H147622   4.371   7.990   2.419 -0.8462  0.1665 -1.4155
15580TIP3    H247623   4.424   8.104   2.334  0.4947  0.7174  0.1195
15581TIP3   OH247624  10.571  10.033   6.677 -0.6300  0.0759 -0.7222
15581TIP3    H147625  10.614  10.093   6.738  0.4539  0.0484 -1.4354
15581TIP3    H247626  10.512  10.088   6.626 -0.2631  0.4025 -0.8011
15582TIP3   OH247627   3.423  10.401   3.431 -0.1838  0.6295 -0.4448
15582TIP3    H147628   3.407  10.315   3.394 -1.1995  0.4517  0.3714
15582TIP3    H247629   3.440  10.457   3.356  0.2718 -0.2261 -0.9968
15583TIP3   OH247630   3.994  10.633   6.760  0.6458 -0.3843  0.1123
15583TIP3    H147631   4.069  10.689   6.739 -0.3880  1.3327  0.7462
15583TIP3    H247632   3.918  10.681   6.725 -0.3979 -0.8200  1.6825
15584TIP3   OH247633   1.952   6.080   4.991 -0.0137 -0.3948  0.5793
15584TIP3    H147634   1.868   6.093   5.034 -0.1616 -1.4422  0.6320
15584TIP3    H247635   1.942   5.999   4.943  1.4004 -1.2682  1.6708
15585TIP3   OH247636   4.440  10.365   8.559  0.4105  1.0579  0.5439
15585TIP3    H147637   4.409  10.376   8.469 -1.2570 -0.3967  0.8816
15585TIP3    H247638   4.535  10.380   8.554  0.5547 -0.1693 -1.6807
15586TIP3   OH247639   1.400   1.770   0.499 -0.2430 -0.1613  0.5229
15586TIP3    H147640   1.325   1.797   0.552 -0.5820 -1.4182  0.7158
15586TIP3    H247641   1.377   1.794   0.409 -1.5932 -1.9601  0.3526
15587TIP3   OH247642   2.337   0.406   1.133 -0.5327 -0.4661 -0.3992
15587TIP3    H147643   2.427   0.433   1.112 -0.4300  0.2549  0.8605
15587TIP3    H247644   2.284   0.484   1.115 -0.6863 -0.4052  0.3009
15588TIP3   OH247645   0.187  10.359   3.307  0.5700  0.0143  0.3241
15588TIP3    H147646   0.115  10.390   3.251 -3.2560 -2.7229  3.1649
15588TIP3    H247647   0.196  10.266   3.284  3.5835  0.3486 -0.1470
15589TIP3   OH247648   4.179   1.782   5.649 -0.0529  0.9919  0.1466
15589TIP3    H147649   4.089   1.781   5.682 -0.3101 -1.1424 -0.4723
15589TIP3    H247650   4.170   1.770   5.554  0.8887 -1.5474  0.3051
15590TIP3   OH247651   3.603   3.224   1.856  0.6339 -0.2575 -0.3982
15590TIP3    H147652   3.529   3.277   1.887  1.3760  1.4251 -1.3764
15590TIP3    H247653   3.678   3.283   1.857  1.5547 -1.3399 -1.3739
15591TIP3   OH247654  10.410   7.263  10.483 -0.8024  0.2478  0.3536
15591TIP3    H147655  10.404   7.353  10.516  1.9599  0.1997  1.2370
15591TIP3    H247656  10.430   7.210  10.561  0.9740 -0.5948 -0.6026
15592TIP3   OH247657   5.397   9.555   0.167 -0.0565  0.4983  0.6108
15592TIP3    H147658   5.345   9.597   0.235 -0.3842 -0.8875  1.2436
15592TIP3    H247659   5.379   9.462   0.177  2.8196 -0.0968  1.1202
15593TIP3   OH247660   2.458   1.369   9.080  0.2292 -0.1820 -0.2319
15593TIP3    H147661   2.410   1.446   9.049 -0.0626 -0.0125  0.6078
15593TIP3    H247662   2.490   1.394   9.167  0.9378 -0.6761 -0.3449
15594TIP3   OH247663   1.260   4.155   0.839 -0.5401  0.0375 -0.1585
15594TIP3    H147664   1.194   4.222   0.819  2.4702  3.0716 -0.8160
15594TIP3    H247665   1.309   4.191   0.913  0.5662 -1.9883  0.1618
15595TIP3   OH247666   3.838   9.589   5.833 -0.4721  0.2092  0.0095
15595TIP3    H147667   3.755   9.569   5.875  1.0193 -1.3616  2.4809
15595TIP3    H247668   3.871   9.504   5.803 -0.2460  0.9571 -2.0528
15596TIP3   OH247669   0.779   5.588   8.032 -0.4233  0.3361 -0.3389
15596TIP3    H147670   0.803   5.569   7.941 -1.1017 -0.2606 -0.3998
15596TIP3    H247671   0.861   5.577   8.080 -0.1903  0.0350 -0.7923
15597TIP3   OH247672   7.990   1.615   8.050  0.1086  0.0987  0.3452
15597TIP3    H147673   8.033   1.625   7.965 -1.0506 -1.6201 -0.5014
15597TIP3    H247674   8.062   1.595   8.110  0.8326  0.3216 -0.4264
15598TIP3   OH247675   6.494   0.874   5.730 -0.1795  0.0864 -0.0437
15598TIP3    H147676   6.412   0.890   5.777 -1.0010  0.7437 -1.6165
15598TIP3    H247677   6.561   0.870   5.798 -1.4676 -0.1246  1.2458
15599TIP3   OH247678   0.062   1.456   6.160 -0.0244  0.0573  0.6489
15599TIP3    H147679  -0.020   1.476   6.206  0.1040 -0.7993  1.2822
15599TIP3    H247680   0.127   1.512   6.202 -0.0838 -0.0418  0.8726
15600TIP3   OH247681   9.145   8.286   9.865 -0.1782 -0.3922  0.3189
15600TIP3    H147682   9.167   8.326   9.781  0.6839 -0.2824  0.5902
15600TIP3    H247683   9.172   8.195   9.856 -1.7538 -0.8592 -0.1478
15601TIP3   OH247684   9.986   3.728   1.327 -0.1243  0.0206 -0.7113
15601TIP3    H147685  10.062   3.780   1.353  0.2875 -0.3501 -1.1482
15601TIP3    H247686  10.023   3.648   1.289 -0.7423 -0.5620 -0.1174
15602TIP3   OH247687   0.891   8.179   1.452 -0.1556 -0.6948  0.4565
15602TIP3    H147688   0.892   8.275   1.452 -1.0418 -0.6640 -0.6836
15602TIP3    H247689   0.974   8.154   1.412 -0.4765 -0.3747 -0.4169
15603TIP3   OH247690   2.957   5.815   8.882 -0.2062 -0.0478  0.1224
15603TIP3    H147691   3.001   5.737   8.916 -0.4766 -0.6421 -0.8581
15603TIP3    H247692   2.875   5.783   8.845 -0.3865  0.7209 -0.1780
15604TIP3   OH247693   0.578   7.115   5.666 -0.1829  0.5496 -0.5293
15604TIP3    H147694   0.623   7.139   5.585  1.3760 -1.9131 -0.4993
15604TIP3    H247695   0.579   7.019   5.667 -1.3564  0.4795  1.7678
15605TIP3   OH247696   6.076   2.156   0.982 -0.1558 -0.4885  0.0893
15605TIP3    H147697   6.067   2.219   0.910 -2.4075 -0.8159 -0.0141
15605TIP3    H247698   6.133   2.199   1.046 -1.9221  1.8794  0.2039
15606TIP3   OH247699  10.652   8.827   9.711  0.7712  0.1123 -0.1268
15606TIP3    H147700  10.748   8.824   9.712  0.7496 -0.8288  0.8041
15606TIP3    H247701  10.632   8.917   9.684  1.9316  0.7123  0.8697
15607TIP3   OH247702   8.405   8.422   5.769  0.3281  0.7797  0.4206
15607TIP3    H147703   8.462   8.441   5.695 -0.5581  0.2837 -0.4114
15607TIP3    H247704   8.317   8.444   5.738 -0.1382 -0.0821  1.0781
15608TIP3   OH247705   0.840   6.053  10.867  0.5439  0.1630 -0.2565
15608TIP3    H147706   0.808   6.073  10.955  0.4955 -0.8838 -0.0199
15608TIP3    H247707   0.899   5.978  10.879 -0.3796 -0.7606 -1.2349
15609TIP3   OH247708   1.195   3.562   7.995  0.3531  0.3616 -0.2568
15609TIP3    H147709   1.242   3.539   8.075 -0.7669 -0.9158  0.0827
15609TIP3    H247710   1.242   3.516   7.926 -0.0752 -0.5109  0.0157
15610TIP3   OH247711   7.991   8.807   0.484 -0.0801 -0.3744 -0.0185
15610TIP3    H147712   8.062   8.755   0.445  0.8678  1.5864 -1.0453
15610TIP3    H247713   8.030   8.842   0.564 -0.8887 -1.6002  0.9444
15611TIP3   OH247714   7.571   6.652  10.329 -0.3999  0.0940 -0.4137
15611TIP3    H147715   7.627   6.596  10.384  0.1478  0.0316 -1.0252
15611TIP3    H247716   7.482   6.622  10.346 -0.0334 -1.9613 -1.8022
15612TIP3   OH247717   8.304   2.209   6.618  0.3872  0.3735 -0.3386
15612TIP3    H147718   8.244   2.251   6.557 -1.7082 -4.0155 -1.7596
15612TIP3    H247719   8.342   2.137   6.568  0.9988 -1.5654  2.6572
15613TIP3   OH247720   4.189   5.563   5.047  0.4017 -0.3596 -0.1772
15613TIP3    H147721   4.138   5.526   5.120 -0.0032  0.2277 -0.1578
15613TIP3    H247722   4.132   5.552   4.971  0.5411 -0.3382 -0.2848
15614TIP3   OH247723   3.858  10.420   4.875 -0.4997  0.3865 -0.2838
15614TIP3    H147724   3.914  10.388   4.804 -1.3745 -0.5438 -0.5809
15614TIP3    H247725   3.800  10.347   4.896  0.0423  0.4768  1.7406
15615TIP3   OH247726   1.843   0.964   2.969 -0.4079 -0.4007  0.5645
15615TIP3    H147727   1.749   0.956   2.950 -0.2687 -0.9985  0.0758
15615TIP3    H247728   1.867   1.050   2.935 -1.5850  1.5786  4.2530
15616TIP3   OH247729   8.085   0.069   7.818 -0.1700 -0.1184 -0.0611
15616TIP3    H147730   8.054   0.036   7.902  0.4407 -0.6014 -0.0205
15616TIP3    H247731   8.005   0.077   7.765 -0.7314  1.3621  0.9269
15617TIP3   OH247732   1.851   9.480   2.134  0.1344 -0.0795 -0.7943
15617TIP3    H147733   1.779   9.481   2.198 -0.9172 -1.1809 -1.8934
15617TIP3    H247734   1.869   9.572   2.116  0.5026  0.2575  1.1063
15618TIP3   OH247735  10.466   4.604   0.907  0.6954 -0.4475 -0.5920
15618TIP3    H147736  10.443   4.650   0.989  0.1282 -1.2130 -0.3098
15618TIP3    H247737  10.384   4.564   0.879  1.0547 -0.8003 -1.1473
15619TIP3   OH247738   3.399   2.443  10.463 -0.7068  0.2127 -0.4674
15619TIP3    H147739   3.423   2.380  10.531 -0.1704 -1.2898 -1.9821
15619TIP3    H247740   3.435   2.526  10.493 -1.1848 -0.2369  1.4562
15620TIP3   OH247741   7.665   9.121   7.051  0.4075  0.2633 -0.6843
15620TIP3    H147742   7.672   9.138   6.958 -0.6587 -1.9674 -1.2525
15620TIP3    H247743   7.571   9.111   7.067  0.6470 -0.7031  0.3323
15621TIP3   OH247744   8.493   8.006   7.575 -0.1079  0.5625  0.0981
15621TIP3    H147745   8.464   7.915   7.566  0.6692  0.2948  0.1722
15621TIP3    H247746   8.477   8.045   7.490 -1.9306  0.8135  0.5296
15622TIP3   OH247747  10.324   8.068  10.735  0.3501 -0.3663 -0.3832
15622TIP3    H147748  10.248   8.020  10.769  0.5225  0.2714  0.9393
15622TIP3    H247749  10.379   8.084  10.811  1.2527  0.2165 -1.1334
15623TIP3   OH247750  10.252   0.963   7.046  0.3197 -0.5233 -0.1298
15623TIP3    H147751  10.309   0.898   7.087 -0.2440 -1.6587 -1.0836
15623TIP3    H247752  10.313   1.026   7.008  0.8474  0.8883  2.8374
15624TIP3   OH247753   0.656  10.081   6.487  0.1776  0.0430 -0.2339
15624TIP3    H147754   0.611  10.125   6.559 -0.7436  0.4711 -1.0571
15624TIP3    H247755   0.695  10.152   6.436 -0.7346 -0.1068 -1.1799
15625TIP3   OH247756   9.764   2.429   2.166  0.0994  0.7804  0.1155
15625TIP3    H147757   9.722   2.344   2.181 -0.0859  1.0858  1.5376
15625TIP3    H247758   9.771   2.436   2.071  1.5662 -1.5281 -0.0354
15626TIP3   OH247759   9.740   9.967   4.483 -0.3772 -0.1957  0.4272
15626TIP3    H147760   9.757  10.002   4.570  1.9012  1.4761 -0.5929
15626TIP3    H247761   9.707  10.041   4.433  1.6844 -0.1558 -0.9998
15627TIP3   OH247762   2.028   4.024   0.576 -0.2708  0.4910 -0.4912
15627TIP3    H147763   2.043   3.952   0.514  1.6448  0.0140  0.4803
15627TIP3    H247764   1.940   4.007   0.611 -1.6629  1.0500 -3.3467
15628TIP3   OH247765   9.771   6.491   5.594 -0.0070 -0.4201  0.1901
15628TIP3    H147766   9.709   6.479   5.522 -0.9192 -1.5705  1.1439
15628TIP3    H247767   9.803   6.581   5.582 -0.6564 -0.3480 -1.2373
15629TIP3   OH247768   4.193   7.077   0.230  0.3311  0.1747  0.2214
15629TIP3    H147769   4.105   7.114   0.236  0.1334 -0.3470  0.6390
15629TIP3    H247770   4.252   7.150   0.252  0.0743  0.8391 -1.2091
15630TIP3   OH247771  10.213   7.957  10.354  0.3029 -0.2038  0.6240
15630TIP3    H147772  10.308   7.953  10.360  0.4031  0.6967 -0.0665
15630TIP3    H247773  10.189   8.027  10.416  0.3353  1.2831 -0.9800
15631TIP3   OH247774   4.676   3.511   8.458  0.0569  0.1984 -0.6285
15631TIP3    H147775   4.674   3.543   8.367  0.6648  1.2002 -0.3017
15631TIP3    H247776   4.645   3.585   8.510 -0.3429 -0.3897 -0.0108
15632TIP3   OH247777   4.384   8.773   3.682  0.3268  0.1891  0.1057
15632TIP3    H147778   4.341   8.725   3.752  1.2828 -0.6244  0.1555
15632TIP3    H247779   4.314   8.795   3.621 -0.0010 -2.3824 -0.5592
15633TIP3   OH247780   9.164   9.496   9.512 -0.2765  0.0533 -0.3286
15633TIP3    H147781   9.080   9.457   9.537 -0.7276  1.1535 -0.0370
15633TIP3    H247782   9.149   9.532   9.425 -0.0176 -0.0064 -0.3991
15634TIP3   OH247783   5.133   1.915   3.626  0.4574  0.3377 -0.1919
15634TIP3    H147784   5.144   1.959   3.542 -0.1064 -2.3491 -1.7853
15634TIP3    H247785   5.039   1.909   3.638  0.5313 -0.2572  0.0980
15635TIP3   OH247786   1.895   7.421   5.872  0.0986  0.3856 -0.2601
15635TIP3    H147787   1.884   7.513   5.897 -0.8665  0.3878 -0.6455
15635TIP3    H247788   1.952   7.384   5.940  0.0860  1.1500  0.1736
15636TIP3   OH247789   3.350   9.305   0.350  0.0321 -0.1115  0.1025
15636TIP3    H147790   3.430   9.333   0.395  0.2000 -0.9157  0.3066
15636TIP3    H247791   3.336   9.215   0.379  0.1445 -0.6563 -1.4340
15637TIP3   OH247792   5.077   9.269   2.929  0.1635 -0.0625 -0.3794
15637TIP3    H147793   5.071   9.173   2.938 -1.2770 -0.0582 -0.9403
15637TIP3    H247794   4.997   9.301   2.971  0.1924  0.8346 -0.9944
15638TIP3   OH247795   9.603   5.062   6.246  0.2217 -0.8289 -0.3670
15638TIP3    H147796   9.534   5.007   6.282 -0.0041 -0.0339  0.4678
15638TIP3    H247797   9.682   5.038   6.296 -0.0413  0.1099  0.5419
15639TIP3   OH247798   2.254  10.342   7.728 -0.4972 -0.3275 -0.2393
15639TIP3    H147799   2.195  10.288   7.675  0.2778 -0.8987 -0.5366
15639TIP3    H247800   2.331  10.287   7.743 -0.1922  0.2644  0.4693
15640TIP3   OH247801   0.121  10.448  10.173 -0.1845 -0.3384 -0.5451
15640TIP3    H147802   0.086  10.448  10.084 -0.7693  0.8564 -0.3366
15640TIP3    H247803   0.131  10.540  10.195  1.9008 -0.6176 -0.1005
15641TIP3   OH247804   2.182   8.119   7.281 -0.3546 -0.4498 -0.4272
15641TIP3    H147805   2.226   8.135   7.365 -1.2898 -1.2127  0.2243
15641TIP3    H247806   2.090   8.142   7.297 -0.8025 -1.8699 -0.8434
15642TIP3   OH247807   6.876   0.252   4.886 -0.6687 -0.1567  0.2277
15642TIP3    H147808   6.830   0.219   4.963 -1.7227 -2.4211 -1.2477
15642TIP3    H247809   6.920   0.175   4.850 -0.0189  0.8786 -1.3067
15643TIP3   OH247810   5.676   8.379   2.345  0.6644  0.1740  0.4748
15643TIP3    H147811   5.614   8.408   2.411  1.0080 -1.2325  1.4602
15643TIP3    H247812   5.640   8.297   2.312  2.7861 -1.7065  2.4025
15644TIP3   OH247813   0.657   1.609   9.302 -0.0579 -0.2922 -0.3818
15644TIP3    H147814   0.566   1.638   9.307 -0.1389 -0.3181 -1.5727
15644TIP3    H247815   0.667   1.574   9.214  0.9148 -0.9590 -0.0251
15645TIP3   OH247816   1.960  10.274  10.674 -0.8678 -0.9985 -0.3369
15645TIP3    H147817   2.045  10.317  10.678  0.2106 -2.9337 -0.9381
15645TIP3    H247818   1.977  10.186  10.710 -2.7997 -1.1710  0.2589
15646TIP3   OH247819   8.922   6.429   2.755 -0.1174  0.6341  0.0531
15646TIP3    H147820   8.869   6.351   2.769  1.1291 -0.1265  0.8028
15646TIP3    H247821   8.903   6.485   2.831  1.0609 -0.2091  1.0187
15647TIP3   OH247822   8.907   4.756   6.760 -0.0040 -0.3556  0.1359
15647TIP3    H147823   8.986   4.810   6.763  0.4957 -0.9705 -1.2424
15647TIP3    H247824   8.841   4.806   6.809  0.7319  0.9903 -0.2173
15648TIP3   OH247825   9.644   0.223   9.714  0.9075  0.4333  0.0009
15648TIP3    H147826   9.636   0.275   9.794  3.4251 -0.9612  1.2655
15648TIP3    H247827   9.650   0.287   9.644 -0.3656  1.7092  1.0109
15649TIP3   OH247828   4.918   8.511   0.515 -0.4028 -0.3124 -0.6375
15649TIP3    H147829   5.013   8.516   0.528 -0.5161 -0.3659  0.3074
15649TIP3    H247830   4.904   8.543   0.426  0.3212  1.7592 -0.0761
15650TIP3   OH247831   2.077  10.042   0.667 -0.3163 -0.0373  0.2231
15650TIP3    H147832   1.992  10.073   0.698 -0.0064  0.1039  0.9720
15650TIP3    H247833   2.140  10.093   0.718  0.2792  1.7164 -2.1005
15651TIP3   OH247834   6.342   7.889   5.084 -0.0584  0.1598 -0.4928
15651TIP3    H147835   6.382   7.902   5.171  1.9127 -1.6732 -1.0431
15651TIP3    H247836   6.335   7.978   5.048  2.1728  0.7246  0.2781
15652TIP3   OH247837   2.327   0.237   1.917 -0.1843 -0.3813  0.6124
15652TIP3    H147838   2.328   0.231   1.822  0.5847  0.0406  0.5855
15652TIP3    H247839   2.331   0.331   1.935 -0.2577 -0.4624  1.0552
15653TIP3   OH247840   3.380   7.378   8.084 -0.0291  0.8219  0.0485
15653TIP3    H147841   3.405   7.309   8.145 -0.6297  1.2579  0.8056
15653TIP3    H247842   3.447   7.446   8.095  1.2769 -0.1171 -1.5910
15654TIP3   OH247843   6.160   3.009   8.541 -0.0946 -0.2389 -1.0046
15654TIP3    H147844   6.084   2.951   8.531 -0.1597 -0.3171 -0.1339
15654TIP3    H247845   6.130   3.078   8.601 -0.5599  1.6703 -3.2862
15655TIP3   OH247846   3.843   2.424   0.421 -0.2635 -0.3129 -0.1505
15655TIP3    H147847   3.815   2.474   0.344  1.0469  0.7393  0.0231
15655TIP3    H247848   3.938   2.418   0.412 -0.2790 -1.7162  0.4877
15656TIP3   OH247849   3.636   9.625   8.690 -0.2838  0.1649  0.1132
15656TIP3    H147850   3.710   9.617   8.749 -0.2776  0.5382  0.1572
15656TIP3    H247851   3.561   9.641   8.747 -0.0934  1.7511 -0.0223
15657TIP3   OH247852   8.972   6.707   7.958 -0.0742  0.2628  0.7333
15657TIP3    H147853   9.065   6.685   7.955 -0.5972 -2.8299  2.6097
15657TIP3    H247854   8.961   6.751   8.042 -0.3487  0.2374  0.7112
15658TIP3   OH247855   1.795   0.153   0.944  0.5111 -0.0687 -0.0323
15658TIP3    H147856   1.885   0.120   0.946 -0.0100 -1.5651  0.5024
15658TIP3    H247857   1.801   0.242   0.977  1.7278 -0.3642  0.6225
15659TIP3   OH247858   8.804   1.664   5.752 -0.0881 -0.8379  0.1370
15659TIP3    H147859   8.809   1.693   5.661  0.9139  0.1599  0.4914
15659TIP3    H247860   8.762   1.578   5.747  0.0967 -0.8715 -1.2786
15660TIP3   OH247861  10.369  10.706   3.239  0.1229 -0.2141  0.0588
15660TIP3    H147862  10.282  10.672   3.260  0.2223  1.1225  3.0141
15660TIP3    H247863  10.427  10.632   3.254 -0.2236 -0.3298  0.8763
15661TIP3   OH247864   0.202   2.614   9.233 -0.6969  0.1851  0.0128
15661TIP3    H147865   0.263   2.685   9.253  0.2715 -1.0819  1.8593
15661TIP3    H247866   0.116   2.655   9.236 -0.0657  1.7919 -1.5972
15662TIP3   OH247867   6.190   1.401   0.518  0.1710 -0.0611 -0.2506
15662TIP3    H147868   6.134   1.323   0.521  0.3570 -0.1848  0.1628
15662TIP3    H247869   6.196   1.422   0.425  0.8083 -1.0467 -0.4528
15663TIP3   OH247870   3.537   2.499   6.569  0.3504  0.0981  0.2708
15663TIP3    H147871   3.505   2.587   6.550 -0.1769  0.0879  1.0660
15663TIP3    H247872   3.632   2.509   6.578  0.3905  0.4280 -0.4680
15664TIP3   OH247873   5.561   8.190   1.263  0.2972  0.0532 -0.4360
15664TIP3    H147874   5.475   8.169   1.301  0.6575 -0.0919  0.3292
15664TIP3    H247875   5.575   8.122   1.197  1.1599 -1.8539  1.5604
15665TIP3   OH247876   2.400   4.124   9.526  0.2190  1.1507 -0.0308
15665TIP3    H147877   2.335   4.096   9.591  0.1341  0.9498 -0.2000
15665TIP3    H247878   2.484   4.116   9.571  0.2537  0.0924 -0.2394
15666TIP3   OH247879   7.230  10.676   5.956  0.1082 -0.1628 -0.4174
15666TIP3    H147880   7.152  10.718   5.918 -1.0609 -0.6228  1.3559
15666TIP3    H247881   7.284  10.748   5.987 -0.2013  0.1351 -0.5689
15667TIP3   OH247882   1.115   7.159   9.085  0.5689 -0.3520 -0.2990
15667TIP3    H147883   1.094   7.237   9.033  1.2974  0.8670  1.1618
15667TIP3    H247884   1.029   7.123   9.109  0.2054  0.4465 -0.3596
15668TIP3   OH247885   3.234   5.761   8.122 -0.0076  0.0796 -0.0199
15668TIP3    H147886   3.318   5.785   8.084 -0.7903  1.2753 -1.0956
15668TIP3    H247887   3.230   5.810   8.204 -0.5390  1.7913 -1.0160
15669TIP3   OH247888   8.116   3.268   5.564  0.6539  0.5322 -0.1954
15669TIP3    H147889   8.196   3.248   5.516  0.1034 -1.5251 -0.3558
15669TIP3    H247890   8.051   3.285   5.496  0.2183 -0.9826 -0.1968
15670TIP3   OH247891   5.481   3.614   6.938 -0.4557 -0.5155  0.4241
15670TIP3    H147892   5.435   3.664   6.871 -1.5161 -1.1647  0.6443
15670TIP3    H247893   5.483   3.524   6.905 -1.3704 -0.9302  1.4117
15671TIP3   OH247894   4.544  10.393   4.831 -0.1422 -0.1710  0.1917
15671TIP3    H147895   4.597  10.407   4.752 -0.6858 -1.0050 -0.3401
15671TIP3    H247896   4.483  10.323   4.806 -0.5204 -0.2321  1.2598
15672TIP3   OH247897   6.691   1.657   8.468 -0.3924 -0.2010  0.3178
15672TIP3    H147898   6.748   1.592   8.510 -0.9580 -0.0810  1.2907
15672TIP3    H247899   6.676   1.622   8.380  2.6355  0.6294 -0.6756
15673TIP3   OH247900   8.266  10.188   1.560 -0.1832 -0.2453 -0.5451
15673TIP3    H147901   8.183  10.142   1.550  0.2031 -0.9431 -0.6022
15673TIP3    H247902   8.247  10.258   1.622 -0.3074 -1.7314  1.1646
15674TIP3   OH247903   5.994   8.869   3.078  0.5565 -0.1410  0.2853
15674TIP3    H147904   5.904   8.883   3.106  0.2854  0.8468 -1.0220
15674TIP3    H247905   6.043   8.941   3.118  0.5901 -0.0946  0.1607
15675TIP3   OH247906  10.239  10.865   7.809  0.1295  0.4451 -0.3400
15675TIP3    H147907  10.328  10.869   7.773  0.0973  0.2629 -0.4370
15675TIP3    H247908  10.244  10.797   7.876 -0.4383 -1.0215 -1.7267
15676TIP3   OH247909   6.323   4.927   2.066  0.1345  0.1387  0.1305
15676TIP3    H147910   6.289   4.846   2.102  0.3383 -0.1222 -0.2556
15676TIP3    H247911   6.394   4.953   2.125 -0.2004  0.2610  0.4868
15677TIP3   OH247912   3.751   2.341   3.473  0.4333 -0.5204  0.4539
15677TIP3    H147913   3.672   2.317   3.424 -1.5202  0.0764  3.0649
15677TIP3    H247914   3.761   2.435   3.457  1.6412 -0.8745 -1.1357
15678TIP3   OH247915   9.744   8.185   5.207  0.7714 -0.6091  0.0848
15678TIP3    H147916   9.649   8.187   5.211  0.7215 -0.3591 -0.9624
15678TIP3    H247917   9.765   8.199   5.115  1.8146 -0.9526  0.2528
15679TIP3   OH247918   6.423   9.152   3.965  0.5066 -0.5787  0.4226
15679TIP3    H147919   6.407   9.244   3.944  0.5694 -0.5333  0.5751
15679TIP3    H247920   6.444   9.151   4.058 -0.7364 -0.8894  0.7227
15680TIP3   OH247921   1.463   3.395   5.719  0.1946 -0.1729 -0.2612
15680TIP3    H147922   1.506   3.452   5.784 -0.2575  0.5601 -0.5898
15680TIP3    H247923   1.490   3.307   5.743 -0.4415  0.0316  1.2825
15681TIP3   OH247924   5.452  10.027   7.266  0.0930  0.1433  0.3480
15681TIP3    H147925   5.363   9.993   7.255  0.5802 -1.4711  1.0175
15681TIP3    H247926   5.455  10.060   7.355 -0.8453  3.6423 -0.7680
15682TIP3   OH247927   1.817  10.729   0.896  0.2788 -0.5459  0.1766
15682TIP3    H147928   1.877  10.732   0.821 -2.9875 -0.3177 -2.7116
15682TIP3    H247929   1.802  10.821   0.919 -1.3855 -0.3341 -1.4347
15683TIP3   OH247930  10.654   4.561   4.055  0.7900 -0.7808  0.3799
15683TIP3    H147931  10.652   4.636   3.995 -0.1176 -0.5707  0.6507
15683TIP3    H247932  10.591   4.499   4.018  0.6015 -0.8645  0.8308
15684TIP3   OH247933   1.285  10.049   3.202  0.1755 -0.8915  0.4918
15684TIP3    H147934   1.243   9.969   3.235 -0.4917 -1.0592 -0.7136
15684TIP3    H247935   1.218  10.091   3.149  0.8010  0.0526  0.4242
15685TIP3   OH247936   5.276   5.563   0.385  0.0293 -0.0760  0.9510
15685TIP3    H147937   5.236   5.644   0.355 -0.2514 -0.2699  0.7974
15685TIP3    H247938   5.369   5.584   0.393 -0.0870  0.3426  1.2038
15686TIP3   OH247939   0.565   3.430   3.646  0.4570  0.2104 -0.0860
15686TIP3    H147940   0.499   3.461   3.707 -1.1022 -2.4509 -0.2548
15686TIP3    H247941   0.561   3.492   3.572 -1.5030  0.4090  0.1464
15687TIP3   OH247942   8.493   4.637   2.251  0.2491  0.7014 -0.0158
15687TIP3    H147943   8.462   4.551   2.278  2.9814 -0.1602  0.7578
15687TIP3    H247944   8.460   4.647   2.161 -1.2926 -0.4908  0.3760
15688TIP3   OH247945   6.051   7.022   8.167 -0.0887  0.1469 -0.1438
15688TIP3    H147946   6.060   6.943   8.220  0.2049 -0.8077 -1.5548
15688TIP3    H247947   5.972   7.008   8.115  0.8761 -0.0068 -1.6344
15689TIP3   OH247948   5.321   8.315   0.936  0.1611 -0.1888  0.0327
15689TIP3    H147949   5.258   8.387   0.946  1.5362  0.9874  0.5359
15689TIP3    H247950   5.317   8.268   1.019 -1.7392 -1.6013 -0.7749
15690TIP3   OH247951  10.047   1.707   3.887 -0.0649 -0.2427  0.1456
15690TIP3    H147952  10.120   1.733   3.943 -0.0531  0.2953 -0.1154
15690TIP3    H247953   9.980   1.774   3.903 -0.0096 -0.0115 -0.5822
15691TIP3   OH247954  10.777   7.216   9.893 -0.1296  0.1137  0.6790
15691TIP3    H147955  10.816   7.277   9.830 -0.1998  0.1767  0.6943
15691TIP3    H247956  10.789   7.130   9.854  3.2245 -0.2832  2.2942
15692TIP3   OH247957   6.013   8.699   6.134 -0.6646  0.4921  0.1292
15692TIP3    H147958   6.074   8.704   6.207  1.0356 -1.7022 -1.0146
15692TIP3    H247959   6.006   8.606   6.115 -3.2921  0.7856 -0.7398
15693TIP3   OH247960   1.913   9.276   8.515 -0.3965 -0.6569 -0.2587
15693TIP3    H147961   2.006   9.254   8.515  0.0184  0.5996  2.8064
15693TIP3    H247962   1.868   9.192   8.517  0.8515 -1.3479  1.8834
15694TIP3   OH247963   5.787   7.729   5.733  0.3618  0.2116 -0.3346
15694TIP3    H147964   5.871   7.772   5.746 -0.3185  1.5828 -0.2805
15694TIP3    H247965   5.722   7.794   5.760 -0.7907 -0.0184 -2.3425
15695TIP3   OH247966  10.246   1.041   5.455 -0.2246 -0.3844  0.6964
15695TIP3    H147967  10.245   1.067   5.547 -0.5936 -0.1440  0.6286
15695TIP3    H247968  10.248   0.946   5.456  2.0362 -0.3897  0.9603
15696TIP3   OH247969  10.569  10.166   0.408  0.1465 -0.3684 -0.3654
15696TIP3    H147970  10.658  10.133   0.419  0.5046  0.6784  0.0314
15696TIP3    H247971  10.565  10.244   0.464 -0.7790  0.0366 -0.9633
15697TIP3   OH247972   4.161   4.116   1.753 -0.3052  0.2749 -0.2062
15697TIP3    H147973   4.071   4.084   1.741 -0.4930  0.4833  0.5917
15697TIP3    H247974   4.151   4.208   1.776  0.0115 -0.0909  1.5030
15698TIP3   OH247975   8.870   3.871   7.260  0.2333  0.1654 -0.4419
15698TIP3    H147976   8.916   3.799   7.303 -0.0970 -0.7869 -1.6166
15698TIP3    H247977   8.938   3.914   7.207  0.0076 -0.6202 -1.3952
15699TIP3   OH247978   0.239   3.916   8.995 -0.3065  0.7199  0.4614
15699TIP3    H147979   0.225   3.821   9.003 -0.0501  0.6961  0.6431
15699TIP3    H247980   0.334   3.927   9.003 -0.3687  1.0277  0.7973
15700TIP3   OH247981   1.236   1.710   1.981 -0.3123  0.3661  0.2881
15700TIP3    H147982   1.326   1.731   2.005  0.3008 -0.4226 -1.2003
15700TIP3    H247983   1.193   1.796   1.973  1.1867  0.9876 -2.1526
15701TIP3   OH247984   5.753   1.857   9.079 -0.0277  0.4385 -0.4825
15701TIP3    H147985   5.711   1.816   9.003 -1.1569 -0.4878  0.5981
15701TIP3    H247986   5.709   1.818   9.154  1.3888  0.9895  0.6741
15702TIP3   OH247987   3.050   4.303   5.856  0.4827 -0.2083 -0.3595
15702TIP3    H147988   3.070   4.356   5.779 -0.3108  0.7234  0.0458
15702TIP3    H247989   3.092   4.219   5.839  3.0855  0.9911 -0.3765
15703TIP3   OH247990   5.337   3.604   8.317 -0.3182  0.2428 -0.4339
15703TIP3    H147991   5.371   3.690   8.339 -0.1393 -0.1324  0.8055
15703TIP3    H247992   5.406   3.563   8.266  0.4664  0.0738  0.7313
15704TIP3   OH247993   6.416   2.025   3.361 -0.7421 -0.0214  0.2522
15704TIP3    H147994   6.353   2.086   3.398 -1.8280 -0.1071 -1.3270
15704TIP3    H247995   6.437   2.062   3.275  0.4743 -0.6141  0.2703
15705TIP3   OH247996   1.654   2.952   3.216  0.2792  0.4780 -0.0018
15705TIP3    H147997   1.672   3.040   3.184  3.0531 -0.4417 -1.2992
15705TIP3    H247998   1.562   2.954   3.241 -0.6353  2.8437 -2.9802
15706TIP3   OH247999   4.654   5.005   3.707  0.5749  0.0876 -0.0977
15706TIP3    H148000   4.615   5.060   3.640  1.3575 -1.2577 -1.7384
15706TIP3    H248001   4.580   4.961   3.749 -0.0259  2.0001  0.9665
15707TIP3   OH248002   2.335   3.522   9.870  0.3879  0.2346 -0.1220
15707TIP3    H148003   2.370   3.585   9.806  1.3561 -1.2024 -1.0759
15707TIP3    H248004   2.410   3.501   9.926 -0.0948  0.3974  0.6044
15708TIP3   OH248005   2.200   3.632   5.816 -0.3865 -0.1409  0.4070
15708TIP3    H148006   2.285   3.607   5.780  0.3332 -0.2427  2.0774
15708TIP3    H248007   2.166   3.697   5.755  0.6706 -0.4509 -0.5410
15709TIP3   OH248008   4.814   1.519   5.092  0.1739 -0.1962  0.1261
15709TIP3    H148009   4.901   1.547   5.062 -0.3239  0.1964 -0.9692
15709TIP3    H248010   4.764   1.600   5.098  0.2822 -0.2244  2.2090
15710TIP3   OH248011   1.500   7.612   7.757  0.0157 -0.4169  0.3652
15710TIP3    H148012   1.473   7.687   7.810 -2.1364 -1.6432  1.0932
15710TIP3    H248013   1.529   7.651   7.674  0.9063  1.3409  1.4369
15711TIP3   OH248014   0.438   0.564   1.210  0.8940 -0.3560 -0.2650
15711TIP3    H148015   0.422   0.473   1.183  0.8277 -0.4253  0.0045
15711TIP3    H248016   0.360   0.588   1.260  0.4779  0.1707 -1.1380
15712TIP3   OH248017   7.010   2.798   7.090  0.0149  0.5611  0.1058
15712TIP3    H148018   6.977   2.847   7.016  0.8094 -0.5137 -1.0004
15712TIP3    H248019   7.049   2.864   7.148  0.6815  1.2752 -1.1285
15713TIP3   OH248020   8.391   2.149   4.838  0.0317 -0.5075 -0.0445
15713TIP3    H148021   8.478   2.110   4.844 -0.3787 -1.6268 -0.9936
15713TIP3    H248022   8.368   2.142   4.745 -0.8940  0.1658  0.1204
15714TIP3   OH248023   4.038   8.187   1.223 -0.5606 -0.1085  0.1303
15714TIP3    H148024   4.121   8.214   1.183 -0.2488 -0.1836  0.7229
15714TIP3    H248025   4.008   8.264   1.270 -1.0021  0.0243 -0.3667
15715TIP3   OH248026   1.026   9.909   4.316 -0.8337 -0.1307 -0.1982
15715TIP3    H148027   1.007   9.916   4.410  0.0537  1.0380 -0.0827
15715TIP3    H248028   1.073   9.826   4.308  1.0762  0.7840  0.7965
15716TIP3   OH248029   9.799   0.896   4.347 -0.0233 -0.1310 -0.3467
15716TIP3    H148030   9.721   0.862   4.392 -0.4804  1.2503 -0.0365
15716TIP3    H248031   9.857   0.924   4.419  0.7166 -0.9980 -0.5787
15717TIP3   OH248032  10.291   5.821   7.884  0.1832 -0.7495 -0.3243
15717TIP3    H148033  10.286   5.914   7.861  1.4054 -1.1782 -2.6021
15717TIP3    H248034  10.383   5.806   7.905 -0.2081 -1.2467  1.1318
15718TIP3   OH248035   7.428  10.557   4.248  0.2002  0.5143  0.7837
15718TIP3    H148036   7.481  10.619   4.298  0.6530  1.1586 -0.4263
15718TIP3    H248037   7.492  10.493   4.215 -0.0492  0.2406  0.8316
15719TIP3   OH248038   3.225   8.808   7.344  0.4735 -0.1457  0.0850
15719TIP3    H148039   3.156   8.805   7.410 -0.5280 -1.0476 -0.9498
15719TIP3    H248040   3.261   8.896   7.350  0.4670 -0.2411  1.8683
15720TIP3   OH248041   0.425   2.136   8.650  0.7240  0.2436  0.0937
15720TIP3    H148042   0.424   2.079   8.727  1.1820  0.3906  0.2110
15720TIP3    H248043   0.340   2.121   8.609  0.0379  0.9592  1.2044
15721TIP3   OH248044   8.643   4.948   6.266 -0.1425 -0.3400  0.2505
15721TIP3    H148045   8.678   5.035   6.284  1.6674 -1.0851  0.4955
15721TIP3    H248046   8.548   4.957   6.279 -0.1554  1.8698 -0.9701
15722TIP3   OH248047   8.642   0.116   8.597 -0.0970  0.2092  0.2177
15722TIP3    H148048   8.607   0.083   8.680 -0.9838 -3.8470 -1.4972
15722TIP3    H248049   8.737   0.117   8.610  0.1643 -4.2496  0.3604
15723TIP3   OH248050   0.547   3.406   8.233 -0.1770 -0.2502  0.0029
15723TIP3    H148051   0.629   3.454   8.219 -0.0072 -0.1523  1.2153
15723TIP3    H248052   0.514   3.439   8.317 -0.9038 -1.0707  0.0500
15724TIP3   OH248053   6.312   9.624   9.593  0.4483  0.2463 -0.1962
15724TIP3    H148054   6.349   9.635   9.681  2.5697 -1.8364 -0.7270
15724TIP3    H248055   6.323   9.710   9.551 -0.5573  1.2590  1.4858
15725TIP3   OH248056   6.431   0.867   2.360 -0.0615 -0.3797 -0.3408
15725TIP3    H148057   6.396   0.792   2.408 -1.7080  1.1325  0.9765
15725TIP3    H248058   6.511   0.891   2.408 -0.8280  0.1285  0.7410
15726TIP3   OH248059   8.855   7.498   5.717  0.1925  0.6271  0.1075
15726TIP3    H148060   8.765   7.511   5.688  0.4575  1.3183 -0.4458
15726TIP3    H248061   8.850   7.427   5.782 -0.8528  1.2021  0.6796
15727TIP3   OH248062   8.271   1.692   3.577 -0.2523  0.3002  0.2497
15727TIP3    H148063   8.353   1.728   3.608  1.6650 -1.5589 -2.2076
15727TIP3    H248064   8.255   1.616   3.633  1.3824 -1.0523 -0.9923
15728TIP3   OH248065   1.166   1.565   6.399  0.2752 -0.2815  0.7166
15728TIP3    H148066   1.222   1.608   6.334  0.1336  0.8160  1.3053
15728TIP3    H248067   1.092   1.533   6.348 -0.7452  2.1575  0.5227
15729TIP3   OH248068   2.760   7.182   9.341 -0.1761 -0.3840 -0.8777
15729TIP3    H148069   2.845   7.140   9.349 -0.3270 -0.4356  1.1471
15729TIP3    H248070   2.697   7.110   9.346 -0.4354 -0.1244  2.6333
15730TIP3   OH248071   1.625   9.338   0.414 -0.3045  0.4522 -0.0095
15730TIP3    H148072   1.717   9.360   0.394  0.1516 -0.8707  0.5558
15730TIP3    H248073   1.575   9.396   0.357  0.8161  2.7355  1.1702
15731TIP3   OH248074   8.928   6.091   6.222 -0.1185  0.4350 -0.4156
15731TIP3    H148075   9.010   6.081   6.270 -0.7388  0.5291  0.6832
15731TIP3    H248076   8.866   6.125   6.287 -1.6513 -1.7928 -0.6254
15732TIP3   OH248077   7.722   2.946   9.595  0.0476  0.2981 -0.1848
15732TIP3    H148078   7.743   2.888   9.668 -2.1145  0.6929  0.8440
15732TIP3    H248079   7.701   2.887   9.523 -1.0351 -0.2072  0.5158
15733TIP3   OH248080   9.558   6.377   2.593 -0.4031 -0.5367 -0.2304
15733TIP3    H148081   9.621   6.315   2.630 -0.4669 -0.7806 -0.5259
15733TIP3    H248082   9.474   6.332   2.597 -0.3533 -0.7171 -1.0044
15734TIP3   OH248083   7.848   9.145   5.468 -0.1518 -0.5136  0.1943
15734TIP3    H148084   7.932   9.127   5.510  0.1992 -1.2707 -0.8082
15734TIP3    H248085   7.855   9.106   5.381 -1.4845 -0.4555  0.0372
15735TIP3   OH248086   1.431   6.440   9.857  0.4839  0.2615  0.3973
15735TIP3    H148087   1.447   6.356   9.815  0.5453  1.3776 -2.0273
15735TIP3    H248088   1.517   6.471   9.884  0.4751 -0.3651  1.1748
15736TIP3   OH248089   3.306   2.472   5.353  0.9055  0.5223  0.2055
15736TIP3    H148090   3.359   2.426   5.288  2.3166  0.1975  1.5288
15736TIP3    H248091   3.217   2.470   5.318  1.4684 -0.4794 -1.2358
15737TIP3   OH248092   4.834   3.676   2.708 -0.0451 -0.0554  0.3399
15737TIP3    H148093   4.773   3.641   2.643 -0.9763  0.6986  0.7849
15737TIP3    H248094   4.832   3.771   2.694  1.6127 -0.0513 -0.1286
15738TIP3   OH248095   4.548   9.075   6.377 -0.0693  0.2584 -0.1717
15738TIP3    H148096   4.531   9.087   6.284  1.1985 -0.0141 -0.4531
15738TIP3    H248097   4.621   9.014   6.381  0.2744  0.7184  0.9860
15739TIP3   OH248098   3.508   9.005   7.294 -0.3323  0.2909 -0.3020
15739TIP3    H148099   3.459   9.018   7.375  0.0437 -0.3202  0.0278
15739TIP3    H248100   3.513   8.910   7.283 -0.7338  0.3653 -1.2596
15740TIP3   OH248101   1.348   0.665   5.271 -0.0633  0.4640 -0.0634
15740TIP3    H148102   1.254   0.676   5.258  0.0689  1.0881 -0.5801
15740TIP3    H248103   1.358   0.577   5.306 -0.8307  0.3424 -0.1433
15741TIP3   OH248104   2.005   4.322   5.616 -0.0421  0.2905 -0.0609
15741TIP3    H148105   2.095   4.288   5.610  0.5175  1.7277 -0.1922
15741TIP3    H248106   2.003   4.395   5.555 -0.6633  1.6125  1.4921
15742TIP3   OH248107   5.081   2.081   6.943  0.6788  0.3451  0.1921
15742TIP3    H148108   5.113   2.039   6.863 -0.7638 -1.5019  0.5116
15742TIP3    H248109   5.126   2.034   7.014  1.1030  1.2235  0.5254
15743TIP3   OH248110   9.210  10.599   6.139  0.6800 -0.8075  0.3028
15743TIP3    H148111   9.247  10.664   6.199 -1.5134  0.7502  0.0869
15743TIP3    H248112   9.153  10.545   6.194 -2.0060  1.1557 -0.3663
15744TIP3   OH248113   2.484   4.421   0.261 -0.2900  0.0578  0.5743
15744TIP3    H148114   2.393   4.415   0.290  0.2911 -0.9208  2.3694
15744TIP3    H248115   2.509   4.512   0.275 -0.6852  0.0868  1.0868
15745TIP3   OH248116   0.787   9.342   7.325 -0.1142 -0.2799 -0.7193
15745TIP3    H148117   0.744   9.258   7.340  0.7299 -0.3812  1.5129
15745TIP3    H248118   0.856   9.323   7.261  0.1627 -1.3306 -0.1360
15746TIP3   OH248119   9.601   1.661   3.815  0.0708 -0.4400 -0.1346
15746TIP3    H148120   9.638   1.632   3.732  0.8405  0.2831 -0.0662
15746TIP3    H248121   9.540   1.731   3.791  0.3553 -0.1735 -0.0991
15747TIP3   OH248122   3.320   6.318   0.751 -0.3625 -0.0949 -0.2452
15747TIP3    H148123   3.394   6.321   0.690 -0.5524  2.3197 -0.4385
15747TIP3    H248124   3.361   6.320   0.837 -0.1741 -0.6987 -0.3128
15748TIP3   OH248125   4.381   5.760   4.929  0.8702 -1.0253  0.0414
15748TIP3    H148126   4.358   5.678   4.971  0.0227 -0.5848  0.4672
15748TIP3    H248127   4.372   5.743   4.835 -0.8331 -1.0013  0.1695
15749TIP3   OH248128   2.786   7.782   1.995 -0.2014  0.5499 -0.2000
15749TIP3    H148129   2.826   7.834   2.065 -1.2208  1.1911 -0.0790
15749TIP3    H248130   2.706   7.748   2.034 -0.9358  1.1707 -1.1458
15750TIP3   OH248131   8.785  10.576   1.781 -0.0994  0.3518 -0.0960
15750TIP3    H148132   8.773  10.627   1.701 -1.3911  0.8296  0.3786
15750TIP3    H248133   8.767  10.485   1.754  0.7463  0.3182 -0.6087
15751TIP3   OH248134   9.188   8.943   9.473 -0.6274  0.5015 -0.1413
15751TIP3    H148135   9.252   8.973   9.538 -1.1182 -0.7028  0.9340
15751TIP3    H248136   9.239   8.927   9.394  0.0625  1.4937  0.0871
15752TIP3   OH248137   5.284  10.307   6.023 -0.0314 -0.0526 -0.3298
15752TIP3    H148138   5.230  10.288   6.100  0.1616 -0.3604 -0.2689
15752TIP3    H248139   5.366  10.261   6.040  0.2200  0.3460 -0.4603
15753TIP3   OH248140   2.870   5.831   3.561  0.5299 -0.2953  0.3503
15753TIP3    H148141   2.905   5.767   3.499  2.8360  0.8117  0.3815
15753TIP3    H248142   2.881   5.790   3.647  0.4762 -0.4894  0.2649
15754TIP3   OH248143   0.331   1.463   8.966  0.0425 -0.1438  0.0658
15754TIP3    H148144   0.364   1.552   8.975  2.2281 -0.8306 -0.4799
15754TIP3    H248145   0.337   1.426   9.054  0.0272 -0.0354  0.1117
15755TIP3   OH248146   5.347   3.478   5.922 -0.0726 -0.1704  0.0928
15755TIP3    H148147   5.429   3.456   5.879 -0.0660  1.0078 -0.5459
15755TIP3    H248148   5.290   3.508   5.851 -1.5783 -2.2864  0.3078
15756TIP3   OH248149   9.841   4.293   1.640 -0.4133  0.1851 -0.2804
15756TIP3    H148150   9.761   4.304   1.589 -1.0801 -0.8301  0.5217
15756TIP3    H248151   9.862   4.200   1.633  1.9387  0.7543 -2.2475
15757TIP3   OH248152   2.163   4.903   9.790 -0.0282 -0.1984  0.0676
15757TIP3    H148153   2.180   4.899   9.884  1.3159 -2.5861 -0.1835
15757TIP3    H248154   2.180   4.994   9.766 -2.6352  1.0797  2.4305
15758TIP3   OH248155   3.146   2.087   4.396 -0.0563  0.2347 -0.1380
15758TIP3    H148156   3.126   2.109   4.487 -1.5081  1.9777 -0.8270
15758TIP3    H248157   3.081   2.021   4.373  0.6058 -0.5496  0.2085
15759TIP3   OH248158   6.630   1.623   0.048 -0.2775 -0.0731  0.7422
15759TIP3    H148159   6.602   1.643   0.137 -2.0522 -1.2671  0.5208
15759TIP3    H248160   6.567   1.556   0.018  0.6681 -0.1763 -1.1650
15760TIP3   OH248161   9.864   0.896   2.153 -0.0258  0.5540  0.1444
15760TIP3    H148162   9.858   0.926   2.062 -1.4702 -0.5756 -0.1660
15760TIP3    H248163   9.773   0.892   2.183 -0.0340 -3.6017  0.0889
15761TIP3   OH248164   9.310   0.320   1.918 -0.1154  0.1722 -0.1917
15761TIP3    H148165   9.224   0.287   1.894 -0.2106 -0.3684  0.8538
15761TIP3    H248166   9.298   0.357   2.005  0.4808  1.0476 -0.4700
15762TIP3   OH248167   6.925   9.041   7.479  0.0653 -0.0261 -0.1400
15762TIP3    H148168   7.014   9.011   7.497 -0.8019 -1.8780  1.3143
15762TIP3    H248169   6.913   9.116   7.537  0.3182 -0.4150  0.4196
15763TIP3   OH248170   1.547   1.195  10.752  0.3454 -0.3252 -0.6361
15763TIP3    H148171   1.634   1.156  10.748 -0.5018 -2.6890  1.3023
15763TIP3    H248172   1.493   1.129  10.796 -2.0172  1.8173 -0.0560
15764TIP3   OH248173   0.310   4.594   5.828  0.2289 -0.1898 -0.0960
15764TIP3    H148174   0.307   4.689   5.825  0.7334 -0.1200  1.1148
15764TIP3    H248175   0.255   4.566   5.755  1.3701  1.0187 -1.4795
15765TIP3   OH248176   0.872   1.672  10.205 -0.3793  0.0190 -0.5711
15765TIP3    H148177   0.840   1.591  10.245  0.7228  0.7586  2.0065
15765TIP3    H248178   0.814   1.740  10.239  0.9093  0.7372  0.2719
15766TIP3   OH248179   1.670   2.179   0.236  0.0297 -0.2634  0.6463
15766TIP3    H148180   1.643   2.092   0.204  1.4401 -0.5228  0.1054
15766TIP3    H248181   1.621   2.240   0.181 -0.1701 -0.7128  0.3138
15767TIP3   OH248182   8.701   9.573   4.886  0.1621 -0.3655 -0.0505
15767TIP3    H148183   8.789   9.595   4.856 -0.0309 -0.3416 -0.6011
15767TIP3    H248184   8.678   9.644   4.946  1.1279 -1.1693  1.3281
15768TIP3   OH248185   2.553   3.408   7.288 -0.6866 -0.0839  0.0716
15768TIP3    H148186   2.613   3.463   7.339 -0.5966  0.5009 -0.6504
15768TIP3    H248187   2.499   3.471   7.239 -0.5364 -0.6409 -0.8126
15769TIP3   OH248188   7.846   9.832   0.304  0.2228 -0.3968 -0.4976
15769TIP3    H148189   7.803   9.885   0.372 -1.5862 -0.8488 -1.2262
15769TIP3    H248190   7.861   9.893   0.232  2.4437  0.1614  0.3502
15770TIP3   OH248191  10.406   3.667   3.945 -0.2779 -0.2587  0.1286
15770TIP3    H148192  10.312   3.679   3.950 -0.2602 -0.3122  0.6451
15770TIP3    H248193  10.431   3.638   4.033  0.1555 -0.6676 -0.1259
15771TIP3   OH248194   9.430   4.147   4.807 -0.3870 -0.0381  0.0909
15771TIP3    H148195   9.451   4.055   4.820  1.2171  0.6237  3.2863
15771TIP3    H248196   9.501   4.181   4.753  0.3335 -0.2434  0.8855
15772TIP3   OH248197  10.692   1.739   6.440 -0.1933  0.2022  0.6507
15772TIP3    H148198  10.695   1.835   6.448  1.4446  0.5803 -2.6595
15772TIP3    H248199  10.784   1.712   6.439 -0.5292 -1.0442 -1.1713
15773TIP3   OH248200  10.100   2.564   5.095  0.5212 -0.3683 -0.0631
15773TIP3    H148201  10.063   2.635   5.043 -1.6979  0.1726  2.0575
15773TIP3    H248202  10.041   2.490   5.082 -0.2933 -0.1139  1.8547
15774TIP3   OH248203   8.280   6.974   7.988 -0.1528 -0.5250 -0.2915
15774TIP3    H148204   8.345   7.035   7.952  0.4933 -1.3167 -0.5048
15774TIP3    H248205   8.236   6.938   7.912 -1.7324  0.9052 -0.1139
15775TIP3   OH248206   8.843   9.240   7.849 -0.3763  0.6101  0.7417
15775TIP3    H148207   8.918   9.191   7.884 -0.7886 -0.5139  0.1259
15775TIP3    H248208   8.865   9.254   7.757 -0.2167  1.7157  0.9349
15776TIP3   OH248209   4.144   8.308   9.038  0.4704  0.2286 -0.4797
15776TIP3    H148210   4.139   8.384   9.095 -1.1399 -0.1931 -0.0005
15776TIP3    H248211   4.166   8.235   9.097  1.1720  0.1847 -0.7930
15777TIP3   OH248212   7.364   4.290   9.398 -0.3614 -0.0754 -0.0184
15777TIP3    H148213   7.290   4.230   9.406 -2.0496  2.0946  1.6114
15777TIP3    H248214   7.325   4.377   9.401  2.2169  1.1618  0.0829
15778TIP3   OH248215   1.734   0.237   4.162 -0.2965 -0.0278  0.3098
15778TIP3    H148216   1.755   0.320   4.119  0.8507 -0.7992 -0.7186
15778TIP3    H248217   1.639   0.230   4.155 -0.3446  0.8924 -0.1921
15779TIP3   OH248218   2.429   0.648   1.325 -0.4851  0.1215  0.4801
15779TIP3    H148219   2.369   0.630   1.397  0.8699  0.7021  1.8108
15779TIP3    H248220   2.506   0.595   1.345 -0.5998 -0.7947 -1.3156
15780TIP3   OH248221  10.516   1.468   3.055  0.6837 -0.6951 -0.3064
15780TIP3    H148222  10.586   1.435   3.111  0.5870 -0.7563 -0.2206
15780TIP3    H248223  10.486   1.548   3.099  0.3653 -0.9372 -0.0798
15781TIP3   OH248224   4.096  10.480   9.747  0.0660 -0.3075 -0.0745
15781TIP3    H148225   4.015  10.430   9.737  0.6704 -1.4064  0.3052
15781TIP3    H248226   4.078  10.539   9.820 -0.1731 -1.0446  0.4819
15782TIP3   OH248227  10.021   4.791   5.277  0.4228  0.3616  0.5414
15782TIP3    H148228  10.019   4.748   5.362 -0.4090 -1.1618 -0.2168
15782TIP3    H248229   9.937   4.836   5.270  1.1923  1.9914  1.2290
15783TIP3   OH248230   2.627   8.504   9.196 -0.0008  1.1037  0.2499
15783TIP3    H148231   2.647   8.545   9.113  0.8174  1.5818  0.6664
15783TIP3    H248232   2.711   8.470   9.227 -0.0722  1.8570  1.3637
15784TIP3   OH248233  10.469   3.396   4.451  0.2517  0.5300  0.0959
15784TIP3    H148234  10.400   3.449   4.492  0.5182  0.6903  0.3342
15784TIP3    H248235  10.421   3.324   4.410  0.0485 -0.2146  1.5795
15785TIP3   OH248236   0.659   4.006   5.550 -0.1946 -0.4422 -0.3000
15785TIP3    H148237   0.742   4.052   5.535  0.7366 -2.3742 -1.4476
15785TIP3    H248238   0.607   4.026   5.473  1.0144 -2.8760 -1.8412
15786TIP3   OH248239   7.675   8.494   3.068  0.2896 -0.1056  0.2342
15786TIP3    H148240   7.615   8.444   3.013  1.4701 -1.5766  0.2201
15786TIP3    H248241   7.717   8.555   3.008  0.4905 -0.6729 -0.2104
15787TIP3   OH248242   1.397   0.915   4.314 -0.0015  0.1731  0.2693
15787TIP3    H148243   1.395   0.837   4.259  0.2308 -0.5925  1.3018
15787TIP3    H248244   1.490   0.941   4.316  0.5668 -1.6855  2.7725
15788TIP3   OH248245   2.327  10.536   1.780 -0.4101 -0.2701 -0.0688
15788TIP3    H148246   2.414  10.505   1.755 -0.9512 -1.2970 -0.7148
15788TIP3    H248247   2.332  10.631   1.770 -0.0127 -0.4684 -2.2882
15789TIP3   OH248248  10.216   5.824   1.337 -0.1878  1.0883  0.1287
15789TIP3    H148249  10.307   5.843   1.314  0.0738 -0.6144 -0.4101
15789TIP3    H248250  10.222   5.780   1.422 -0.0624 -2.3654 -1.5081
15790TIP3   OH248251   9.944   4.009   4.420  0.1750  0.0701 -0.5062
15790TIP3    H148252   9.925   4.064   4.344  1.1931  2.4157  0.8471
15790TIP3    H248253  10.039   4.007   4.426  0.1810 -2.1014 -0.6380
15791TIP3   OH248254   1.004   6.486   4.659 -0.2175  0.2673  0.0721
15791TIP3    H148255   0.939   6.473   4.728 -2.5327 -0.4549 -2.0994
15791TIP3    H248256   0.967   6.553   4.603  0.8944 -0.2198 -1.2930
15792TIP3   OH248257   6.046   9.902   0.788 -0.2599  0.3788  0.1784
15792TIP3    H148258   6.041   9.982   0.737  0.3756 -1.1215 -2.3916
15792TIP3    H248259   6.118   9.917   0.850 -0.5037  1.9534  0.1032
15793TIP3   OH248260   4.379   1.878   8.177  0.1452  0.0833  0.5017
15793TIP3    H148261   4.423   1.794   8.166 -1.4538 -0.7038 -0.1530
15793TIP3    H248262   4.349   1.877   8.268  1.4641  0.6323  0.9570
15794TIP3   OH248263   7.015   7.214   3.920 -0.4674  0.0394 -0.1468
15794TIP3    H148264   6.943   7.263   3.960  1.0470  2.1696  0.1472
15794TIP3    H248265   7.094   7.247   3.965  0.8513 -0.9301 -1.6447
15795TIP3   OH248266   4.043   6.295   6.209 -0.6872  0.2539  0.4817
15795TIP3    H148267   3.999   6.211   6.193 -0.9177  0.3383  0.6726
15795TIP3    H248268   4.109   6.301   6.140 -0.2599 -0.3696  0.8318
15796TIP3   OH248269  10.056   0.430  10.882 -0.0423 -0.1532  0.4069
15796TIP3    H148270  10.139   0.477  10.874 -0.7708  1.2685  0.7709
15796TIP3    H248271  10.008   0.477  10.950 -1.2026 -0.8474  0.1023
15797TIP3   OH248272   2.776   9.272   8.218  0.6117  0.1351  0.3269
15797TIP3    H148273   2.766   9.263   8.123 -0.5492  1.1964  0.3093
15797TIP3    H248274   2.799   9.364   8.231 -1.0198  0.4744  1.1437
15798TIP3   OH248275   7.757   8.553   7.385  0.3141  0.3416  0.1219
15798TIP3    H148276   7.749   8.487   7.316 -1.2771  1.4372 -0.8062
15798TIP3    H248277   7.809   8.623   7.346  2.5363 -0.5200  1.3083
15799TIP3   OH248278   0.016   8.171   6.675  0.2093 -0.2890 -0.2192
15799TIP3    H148279  -0.067   8.213   6.699  0.4425 -1.4271  2.9668
15799TIP3    H248280  -0.010   8.093   6.627 -0.4308  0.5111 -1.2224
15800TIP3   OH248281  10.835   2.670   0.516 -0.6356  0.2973  0.3202
15800TIP3    H148282  10.751   2.625   0.527 -0.0952 -0.8807 -0.2505
15800TIP3    H248283  10.826   2.750   0.569 -1.8416 -0.1625  0.8498
15801TIP3   OH248284   6.309   3.229   2.446  0.0672  0.6723  0.2422
15801TIP3    H148285   6.389   3.282   2.442  0.8252 -0.4753 -0.5238
15801TIP3    H248286   6.245   3.277   2.393  0.9319  0.5532 -0.9656
15802TIP3   OH248287   7.554  10.522   0.845  0.1744 -0.4191  0.1574
15802TIP3    H148288   7.638  10.540   0.887  0.0881 -0.4869  0.3611
15802TIP3    H248289   7.537  10.600   0.791 -1.6694  1.6594  3.3753
15803TIP3   OH248290   5.847   9.642   3.355  0.3110  0.3361  0.3139
15803TIP3    H148291   5.936   9.632   3.388 -0.2380  0.3931  1.8891
15803TIP3    H248292   5.791   9.606   3.424 -0.8834  0.0084 -0.7813
15804TIP3   OH248293   7.719   4.669   0.568  0.8522  0.4289 -0.1689
15804TIP3    H148294   7.670   4.616   0.631 -1.7596  0.4346 -2.0320
15804TIP3    H248295   7.760   4.605   0.510 -0.4180  0.3874 -1.0562
15805TIP3   OH248296   3.944   6.170   0.818 -0.4739  0.8161 -0.2049
15805TIP3    H148297   3.980   6.208   0.898 -0.1918 -1.8311  1.0588
15805TIP3    H248298   4.005   6.197   0.749  1.4572  0.1395  1.1450
15806TIP3   OH248299   4.220  10.875   2.794 -0.0783  0.1186  0.1094
15806TIP3    H148300   4.220  10.895   2.888  1.7471 -0.7396  0.3442
15806TIP3    H248301   4.220  10.960   2.751 -0.8760  0.5233  0.8900
15807TIP3   OH248302   8.964   3.695   5.272  0.0280 -0.0863  0.2739
15807TIP3    H148303   8.899   3.639   5.315  1.3585 -0.6775  1.6098
15807TIP3    H248304   8.994   3.644   5.197  0.2248 -0.5851  0.6864
15808TIP3   OH248305   3.559   0.045   8.037 -0.3727 -0.5238 -0.0782
15808TIP3    H148306   3.625   0.000   8.090  1.6638  0.7662 -1.3713
15808TIP3    H248307   3.581   0.138   8.045 -1.4917 -0.1364 -1.2446
15809TIP3   OH248308   6.840   9.686   6.728 -0.1045  0.6884 -0.5873
15809TIP3    H148309   6.788   9.616   6.688  2.0440 -0.1586 -2.0847
15809TIP3    H248310   6.821   9.680   6.821 -0.4295 -1.5291 -0.7448
15810TIP3   OH248311   2.662   5.494   4.360 -0.4369 -0.3075  0.2465
15810TIP3    H148312   2.607   5.451   4.295  1.1119 -1.3786 -0.4196
15810TIP3    H248313   2.602   5.516   4.431 -2.1018  0.5025 -1.3221
15811TIP3   OH248314   0.918   6.638   7.996 -0.3312  0.2158 -0.5281
15811TIP3    H148315   0.878   6.639   8.083  0.8722 -0.1236  0.0439
15811TIP3    H248316   1.000   6.686   8.006 -0.3434  0.4838 -1.5690
15812TIP3   OH248317   2.779   2.363   5.307  0.3681 -0.9484 -0.0036
15812TIP3    H148318   2.732   2.369   5.390  1.0482 -0.9195  0.3863
15812TIP3    H248319   2.771   2.271   5.282  0.7516 -1.1130  0.4533
15813TIP3   OH248320   3.474   3.661   7.644  0.0188 -0.2240  0.4141
15813TIP3    H148321   3.453   3.745   7.685  0.9548  0.2742 -0.1107
15813TIP3    H248322   3.535   3.682   7.574  0.5341 -1.3803  0.4861
15814TIP3   OH248323   5.499   5.225  10.163 -0.4718 -0.1709 -0.2498
15814TIP3    H148324   5.501   5.144  10.112 -0.9058  0.0563 -0.6308
15814TIP3    H248325   5.437   5.206  10.234 -1.1832  0.0847 -0.7892
15815TIP3   OH248326   5.564   0.732   3.463 -0.2548 -0.8854 -0.4490
15815TIP3    H148327   5.605   0.770   3.386  2.8341  0.7617  1.7627
15815TIP3    H248328   5.587   0.639   3.460  1.0064 -0.5714 -0.8534
15816TIP3   OH248329   0.102   4.905   8.878  0.3191  0.2274  0.1060
15816TIP3    H148330   0.023   4.891   8.827  1.1968  0.3180 -1.3280
15816TIP3    H248331   0.091   4.993   8.915 -0.9192 -0.3654  1.2291
15817TIP3   OH248332   9.449   6.447   7.534  0.2627 -0.1352 -0.4859
15817TIP3    H148333   9.528   6.408   7.496  0.3273 -0.8863  0.3710
15817TIP3    H248334   9.377   6.399   7.494  0.2468  0.3460 -1.0435
15818TIP3   OH248335   4.463   7.821   2.591  0.0093 -0.0954  0.1061
15818TIP3    H148336   4.535   7.759   2.597  0.2241 -0.1298 -1.9595
15818TIP3    H248337   4.395   7.774   2.541 -0.0539  1.0872 -0.9762
15819TIP3   OH248338   2.199  10.565  10.301 -0.1229 -0.1098 -0.4611
15819TIP3    H148339   2.153  10.545  10.220  0.3092  0.4335 -0.8479
15819TIP3    H248340   2.291  10.575  10.275  0.3715 -1.9117  0.4039
15820TIP3   OH248341   3.400   0.764   5.657  0.2166 -0.1807  0.2878
15820TIP3    H148342   3.385   0.856   5.636 -1.1797  0.0963  2.1558
15820TIP3    H248343   3.355   0.715   5.588  0.7699  0.5301 -0.5876
15821TIP3   OH248344   3.145   5.362   1.681  0.1362 -0.6813 -0.1325
15821TIP3    H148345   3.187   5.446   1.701 -1.2418  0.2033 -0.7736
15821TIP3    H248346   3.185   5.300   1.742  1.0864  0.4643  0.4514
15822TIP3   OH248347   3.538   0.059   0.583  0.3280  0.3201 -0.0105
15822TIP3    H148348   3.477   0.096   0.518 -0.9751  0.6250  1.3354
15822TIP3    H248349   3.612   0.120   0.583 -0.9013  1.8984  0.7439
15823TIP3   OH248350   2.193   8.943  10.788 -0.1626 -0.0432  0.1445
15823TIP3    H148351   2.204   8.886  10.863  0.9375  1.2757  1.0343
15823TIP3    H248352   2.123   8.903  10.737  0.0379 -1.7275  1.1299
15824TIP3   OH248353   9.135   3.824   5.496  0.0544  0.0094 -0.4493
15824TIP3    H148354   9.211   3.858   5.449 -0.1725  0.6868 -0.3370
15824TIP3    H248355   9.066   3.819   5.430  0.1770 -0.5674 -0.5423
15825TIP3   OH248356   8.790   2.437   2.333  0.1670  0.3920  0.3911
15825TIP3    H148357   8.706   2.484   2.341 -0.5762 -1.0708  1.6681
15825TIP3    H248358   8.811   2.411   2.423  0.2145 -2.2403 -0.3211
15826TIP3   OH248359   1.670   9.008   4.292  0.5974  0.1623 -0.9083
15826TIP3    H148360   1.732   8.957   4.344  0.3688 -0.2472 -1.0358
15826TIP3    H248361   1.725   9.053   4.227  0.8366  0.3557 -0.5770
15827TIP3   OH248362  10.530   5.301   6.016  0.3845  0.1954 -0.1845
15827TIP3    H148363  10.546   5.358   5.941  0.8749  2.9270  1.8685
15827TIP3    H248364  10.446   5.330   6.051  1.5805  1.1295  2.0777
15828TIP3   OH248365   2.714   2.169   7.036 -0.1521 -0.6319  0.3298
15828TIP3    H148366   2.669   2.146   7.117  0.6954 -2.0937  0.4229
15828TIP3    H248367   2.787   2.224   7.064  0.5876 -1.7593  0.6693
15829TIP3   OH248368   8.560   3.603   3.197  0.9473 -0.6261  0.0661
15829TIP3    H148369   8.649   3.630   3.217  0.6915 -0.0444  0.4287
15829TIP3    H248370   8.505   3.677   3.222  0.1426 -1.7782  1.9379
15830TIP3   OH248371   4.888   2.525   0.548  0.3641 -0.2916  0.2681
15830TIP3    H148372   4.829   2.470   0.496  0.1800 -0.2826  0.4650
15830TIP3    H248373   4.867   2.614   0.521 -0.1594 -0.2520  0.7994
15831TIP3   OH248374   5.097   8.156   9.768  0.0610 -0.2125  0.0190
15831TIP3    H148375   5.152   8.130   9.694 -0.4399 -0.3884 -0.3051
15831TIP3    H248376   5.012   8.178   9.728 -0.5188 -1.2480  0.6325
15832TIP3   OH248377   0.976   9.524   6.370  0.2149 -0.1542 -0.0645
15832TIP3    H148378   1.044   9.471   6.410 -0.5786 -0.6514  0.6645
15832TIP3    H248379   1.018   9.608   6.350  0.4928  0.3856  2.4725
15833TIP3   OH248380   0.550   6.550   4.749 -0.6910  0.3159 -0.4137
15833TIP3    H148381   0.621   6.494   4.782 -1.4017  0.1171  0.8343
15833TIP3    H248382   0.488   6.555   4.822  0.1384  4.1968  0.2056
15834TIP3   OH248383  10.679   4.089  10.879  0.1462  0.0609  0.2646
15834TIP3    H148384  10.620   4.083  10.804  1.3444  0.7417 -0.7662
15834TIP3    H248385  10.754   4.139  10.847  0.5569  0.6386  2.0104
15835TIP3   OH248386   3.458   6.142   4.927  0.1960  0.2664 -0.1275
15835TIP3    H148387   3.474   6.221   4.978 -0.1257 -0.0492  0.4682
15835TIP3    H248388   3.430   6.174   4.841  1.3352  0.8075 -0.3183
15836TIP3   OH248389   9.407   4.779   1.186 -0.7320  0.3773 -0.7423
15836TIP3    H148390   9.383   4.788   1.094  0.3165 -0.0489 -1.0646
15836TIP3    H248391   9.407   4.869   1.220  0.5968  0.7236 -1.6043
15837TIP3   OH248392   7.355   1.225   1.470  0.1895 -0.1285  0.6845
15837TIP3    H148393   7.339   1.318   1.487 -1.1943 -0.4345  1.2257
15837TIP3    H248394   7.429   1.202   1.525 -0.2259  0.3818  1.4748
15838TIP3   OH248395  10.077   4.636   7.989  0.2980  0.5678  0.4025
15838TIP3    H148396  10.046   4.550   7.961  2.3440 -0.4067  0.9791
15838TIP3    H248397  10.113   4.676   7.911  2.2005 -0.4316  0.7234
15839TIP3   OH248398   4.740   4.851   9.236 -0.0722 -0.4428  0.3657
15839TIP3    H148399   4.771   4.798   9.163 -0.3950 -0.9731  0.6072
15839TIP3    H248400   4.793   4.823   9.311 -0.0960 -0.2635  0.4524
15840TIP3   OH248401   9.025   2.246   7.203 -0.2366 -0.2256  0.1082
15840TIP3    H148402   9.002   2.249   7.295  3.2634  1.1565  1.0892
15840TIP3    H248403   8.962   2.305   7.161 -1.4942 -0.3774  1.6784
15841TIP3   OH248404   2.521   9.133  10.265  0.3035  0.1014 -0.3800
15841TIP3    H148405   2.460   9.107  10.334 -0.0919 -1.4844 -1.2585
15841TIP3    H248406   2.545   9.050  10.223  2.7465  0.7179 -0.3405
15842TIP3   OH248407   1.015   4.552   4.040  0.5027 -0.8265 -0.3709
15842TIP3    H148408   1.014   4.618   3.971 -2.9182  1.6667  1.7432
15842TIP3    H248409   1.068   4.591   4.109 -2.2841  0.3569  1.2598
15843TIP3   OH248410   8.855   8.055  10.672 -0.6805  0.6012  0.7461
15843TIP3    H148411   8.873   8.031  10.581 -0.5924  0.3776  0.8206
15843TIP3    H248412   8.760   8.063  10.677 -0.6659  0.8866  0.5673
15844TIP3   OH248413   7.227   0.277   5.357  0.3662 -0.2760 -0.2018
15844TIP3    H148414   7.161   0.346   5.362 -2.2208 -2.4090 -1.9055
15844TIP3    H248415   7.250   0.272   5.264  1.8300 -0.6195  0.1394
15845TIP3   OH248416   6.483   6.531   0.239  0.1245 -0.0455 -0.0339
15845TIP3    H148417   6.420   6.518   0.310 -0.1666 -0.1973 -0.3181
15845TIP3    H248418   6.432   6.568   0.168  0.1264 -1.1774 -0.6412
15846TIP3   OH248419  10.818   5.173  10.538  0.9232  0.6100  0.3828
15846TIP3    H148420  10.757   5.218  10.596 -0.9934  1.8763 -2.3610
15846TIP3    H248421  10.829   5.233  10.464  2.0499 -1.4428 -1.2305
15847TIP3   OH248422   3.862   0.828   3.186 -0.1177  0.1408  0.2075
15847TIP3    H148423   3.793   0.763   3.201 -1.1911  1.0251 -0.7092
15847TIP3    H248424   3.932   0.803   3.247 -0.3926 -1.9885 -0.2706
15848TIP3   OH248425   6.341   2.547   3.567 -0.0375 -0.1263  0.4441
15848TIP3    H148426   6.412   2.610   3.560 -0.2828  0.2600  1.2705
15848TIP3    H248427   6.267   2.597   3.601 -0.0968 -0.9365  1.5926
15849TIP3   OH248428   9.995   4.085   8.643 -0.4250  0.0173  0.3229
15849TIP3    H148429   9.999   4.045   8.556  1.1368 -0.5149  0.6052
15849TIP3    H248430   9.916   4.049   8.683  1.3609 -3.7354  0.9457
15850TIP3   OH248431   1.607   4.658   2.606  0.7998 -0.3547  0.1332
15850TIP3    H148432   1.525   4.708   2.610  0.0964 -1.1036 -2.4247
15850TIP3    H248433   1.613   4.615   2.691 -1.7733 -0.6560  0.2468
15851TIP3   OH248434   9.644   8.879   0.670  0.3369  0.9857 -0.8878
15851TIP3    H148435   9.613   8.795   0.703  0.9499  0.9549 -0.3714
15851TIP3    H248436   9.727   8.859   0.627 -0.3176  1.0689 -2.2295
15852TIP3   OH248437   9.815   1.553   1.577  0.0264 -0.2019 -0.1221
15852TIP3    H148438   9.846   1.501   1.502 -0.9623 -0.9417 -0.0413
15852TIP3    H248439   9.767   1.625   1.538  2.2157  1.2819 -0.2704
15853TIP3   OH248440   4.521   8.217   1.344  0.3349 -0.1078  0.6471
15853TIP3    H148441   4.507   8.270   1.265 -1.2936  1.6033  1.9797
15853TIP3    H248442   4.616   8.206   1.349  0.4508 -1.3316 -2.1439
15854TIP3   OH248443   9.757   6.502   4.528 -0.9420 -0.2180  0.0654
15854TIP3    H148444   9.722   6.556   4.599  2.3886 -0.8765  2.4251
15854TIP3    H248445   9.764   6.562   4.454  1.8579  2.5908  2.3377
15855TIP3   OH248446   1.608   6.622   6.366  0.1319 -0.0294 -0.2262
15855TIP3    H148447   1.531   6.644   6.418 -0.0987  0.4126 -0.7438
15855TIP3    H248448   1.657   6.704   6.358 -0.0793  0.0248 -1.0923
15856TIP3   OH248449   9.257   5.399   6.537  0.5156 -0.0916 -0.4253
15856TIP3    H148450   9.178   5.348   6.551  0.3148  0.8196  2.4993
15856TIP3    H248451   9.273   5.394   6.443 -2.8357 -0.5211 -1.0892
15857TIP3   OH248452   4.957   6.315   4.332  0.4960  0.3356 -0.7386
15857TIP3    H148453   5.048   6.320   4.360  0.6718 -0.4847 -1.1441
15857TIP3    H248454   4.946   6.390   4.273  0.1063  2.1316  1.4568
15858TIP3   OH248455   1.043   7.009   3.796 -0.3157 -0.1852 -0.1558
15858TIP3    H148456   1.114   6.968   3.746 -1.1244 -1.2974 -0.4430
15858TIP3    H248457   0.967   6.953   3.780 -1.0906  0.5712  0.7258
15859TIP3   OH248458   5.389   6.719   2.487  0.3073 -0.4603 -0.0287
15859TIP3    H148459   5.479   6.719   2.454  0.1772 -2.8714 -0.5615
15859TIP3    H248460   5.399   6.729   2.582  0.8645  2.9439 -0.3084
15860TIP3   OH248461  10.867   8.220   3.796  0.3254 -0.1218  0.2817
15860TIP3    H148462  10.795   8.199   3.855  0.4899 -0.4763  0.3572
15860TIP3    H248463  10.850   8.310   3.769  0.5158  0.2171  1.2508
15861TIP3   OH248464   5.330   3.261   8.684 -0.1768 -0.5433  0.0978
15861TIP3    H148465   5.368   3.335   8.731 -2.9170  1.3310 -0.3884
15861TIP3    H248466   5.286   3.300   8.609 -0.7335 -2.8252 -0.8578
15862TIP3   OH248467  10.367  10.775  10.747 -0.9120  0.4273  0.1157
15862TIP3    H148468  10.461  10.763  10.732 -0.6974  0.1232  1.6022
15862TIP3    H248469  10.326  10.695  10.713 -0.3170 -0.7981  2.1158
15863TIP3   OH248470   6.940  10.456   2.801  0.5196 -0.7488 -0.2799
15863TIP3    H148471   6.852  10.493   2.808 -0.0072 -2.1927  1.8606
15863TIP3    H248472   6.944  10.418   2.713 -0.2256  1.0828 -1.1460
15864TIP3   OH248473   6.960   9.054   5.085 -0.1421 -0.5168  0.3125
15864TIP3    H148474   6.945   9.057   4.991  0.7806 -0.5505  0.1509
15864TIP3    H248475   7.028   9.121   5.100 -1.3768  0.5847  1.1757
15865TIP3   OH248476   2.243   5.269   5.140  1.1866 -0.2588  0.0077
15865TIP3    H148477   2.190   5.204   5.094  1.3806  0.3747 -1.1544
15865TIP3    H248478   2.318   5.283   5.083  0.7871  1.5123 -0.1370
15866TIP3   OH248479   3.908  10.411   5.846  0.0738 -0.2778 -0.1100
15866TIP3    H148480   3.830  10.446   5.804 -0.4220 -0.5217  0.5990
15866TIP3    H248481   3.912  10.456   5.930 -0.6020 -1.9228  0.8354
15867TIP3   OH248482   6.616   2.285   3.044 -0.3182  0.0208 -0.3645
15867TIP3    H148483   6.550   2.254   2.983 -0.6142 -1.2917  0.5885
15867TIP3    H248484   6.694   2.233   3.025 -0.8085 -1.3696  1.2222
15868TIP3   OH248485   5.240   5.351   0.198  0.0709  0.3394 -0.6665
15868TIP3    H148486   5.316   5.357   0.140  1.5860 -1.3370  0.9939
15868TIP3    H248487   5.259   5.414   0.268 -1.4111  1.8439 -1.5386
15869TIP3   OH248488   7.769   3.078   5.433 -0.9348  0.1940  0.3102
15869TIP3    H148489   7.814   3.108   5.354  0.6929 -1.3038  0.6183
15869TIP3    H248490   7.705   3.147   5.452  0.6142  1.9748 -0.6545
15870TIP3   OH248491   6.120   5.714   6.561 -0.1762 -0.0009  0.2309
15870TIP3    H148492   6.112   5.690   6.654 -1.9216 -0.2315  0.0462
15870TIP3    H248493   6.030   5.730   6.533  0.3852  0.5539 -1.3085
15871TIP3   OH248494   6.859   0.769   8.854 -0.1722 -0.0131  0.4170
15871TIP3    H148495   6.786   0.830   8.851 -0.0489  0.1843  1.0901
15871TIP3    H248496   6.888   0.760   8.763  0.2397  1.4574  0.3883
15872TIP3   OH248497   9.637   3.399   4.204  0.0047 -0.6053  0.1872
15872TIP3    H148498   9.708   3.383   4.142 -0.1919 -2.5328  0.3888
15872TIP3    H248499   9.596   3.313   4.215 -0.9498  0.0197  1.7875
15873TIP3   OH248500   0.307   0.131   1.409  1.1935  0.0403 -0.4524
15873TIP3    H148501   0.229   0.083   1.381 -0.6906  1.4494  1.9538
15873TIP3    H248502   0.356   0.148   1.329 -0.0361 -2.4419 -1.8311
15874TIP3   OH248503   3.573   7.851   3.768  0.2945  0.9785 -0.0014
15874TIP3    H148504   3.572   7.798   3.848 -0.0123  0.0915 -0.5746
15874TIP3    H248505   3.621   7.798   3.704  0.8407  1.8247 -0.3155
15875TIP3   OH248506   0.349   5.614   4.793 -0.0720 -0.4762  0.0219
15875TIP3    H148507   0.273   5.588   4.741 -0.3720 -0.6799  0.5455
15875TIP3    H248508   0.311   5.652   4.873  0.3741  0.1669 -0.0617
15876TIP3   OH248509   0.548   3.027   8.460  0.2542  0.3277 -0.0318
15876TIP3    H148510   0.493   3.094   8.419 -1.4455 -0.9923 -0.0125
15876TIP3    H248511   0.626   3.023   8.404 -0.4749  0.9831 -1.1343
15877TIP3   OH248512   4.808   3.669   0.240  0.5661 -0.0737 -0.2547
15877TIP3    H148513   4.762   3.732   0.184  1.1751  0.6449  0.0390
15877TIP3    H248514   4.889   3.650   0.194 -0.1336 -1.6239 -0.9505
15878TIP3   OH248515   0.907  10.625   2.780 -0.3008 -0.2504  0.3084
15878TIP3    H148516   0.918  10.639   2.874  1.0037 -0.0464  0.1468
15878TIP3    H248517   0.992  10.593   2.750 -0.1836  1.1674 -1.0572
15879TIP3   OH248518   9.295   2.460   9.998 -0.1308  0.4676  0.0127
15879TIP3    H148519   9.201   2.449   9.980 -0.3798  0.6220  1.1798
15879TIP3    H248520   9.338   2.399   9.938 -1.0525 -0.6452  0.4723
15880TIP3   OH248521   3.850   6.054   5.205  0.1916  0.3368  0.0425
15880TIP3    H148522   3.846   5.959   5.210 -0.7493  0.2074 -2.0511
15880TIP3    H248523   3.928   6.073   5.153  0.7891  0.7647  1.0677
15881TIP3   OH248524   8.978   6.390   8.227 -0.4668 -0.3153  0.1694
15881TIP3    H148525   8.937   6.388   8.313 -1.1753  0.1915 -0.1420
15881TIP3    H248526   9.070   6.410   8.244 -1.0493  2.1848  0.6875
15882TIP3   OH248527   5.929  10.522   0.100  0.3255 -0.7090  0.0916
15882TIP3    H148528   5.994  10.557   0.039 -1.3699 -0.4325 -1.6748
15882TIP3    H248529   5.944  10.427   0.098  1.1311 -0.5883  0.2633
15883TIP3   OH248530   2.773   0.988   5.975 -0.3502  0.4705 -0.0359
15883TIP3    H148531   2.853   1.025   6.011 -0.4943  0.5720  0.1837
15883TIP3    H248532   2.802   0.918   5.916  0.0501  2.1543 -1.9562
15884TIP3   OH248533   1.072   1.713   1.631  0.0065  0.4466  0.6660
15884TIP3    H148534   1.140   1.667   1.680 -1.5404 -0.8537  1.6726
15884TIP3    H248535   1.064   1.665   1.549  0.8689  1.1227  0.1707
15885TIP3   OH248536   4.432   8.646   0.537 -0.2767 -0.7469 -0.4883
15885TIP3    H148537   4.477   8.562   0.535 -0.6708 -0.9767 -0.0686
15885TIP3    H248538   4.375   8.640   0.614 -1.0306 -0.4799 -1.0116
15886TIP3   OH248539   0.127   9.909   0.433  0.0739  0.2096 -0.3805
15886TIP3    H148540   0.110   9.876   0.345 -0.2656 -1.7631  0.3805
15886TIP3    H248541   0.189   9.981   0.420  0.0347 -0.0407 -2.2166
15887TIP3   OH248542   9.508   0.140   2.233  0.1498 -0.1130  0.6438
15887TIP3    H148543   9.433   0.169   2.181  1.5044  1.2691 -0.6425
15887TIP3    H248544   9.584   0.179   2.190  1.7365 -2.2939  1.2924
15888TIP3   OH248545   2.121   9.833  10.707 -0.4119 -0.3864 -0.3975
15888TIP3    H148546   2.182   9.857  10.777  0.0660 -2.5817  0.0044
15888TIP3    H248547   2.044   9.888  10.723  1.2737  2.2577 -0.7529
15889TIP3   OH248548   9.663   1.429   5.042 -0.4679  0.3293 -0.0750
15889TIP3    H148549   9.734   1.366   5.050 -0.4369  0.4096  0.2839
15889TIP3    H248550   9.620   1.407   4.959 -0.1951  0.1077 -0.1555
15890TIP3   OH248551   4.483   7.546   6.341  0.3617  0.2577  0.3606
15890TIP3    H148552   4.442   7.510   6.420  0.1254 -0.9189 -0.2852
15890TIP3    H248553   4.414   7.599   6.301  0.1229 -0.0507  0.3596
15891TIP3   OH248554   9.480  10.047   7.625  0.0006  0.6322  0.5583
15891TIP3    H148555   9.444  10.131   7.653 -1.0798 -0.0880  1.4052
15891TIP3    H248556   9.429   9.982   7.673  2.3932 -0.4735  1.7833
15892TIP3   OH248557   6.499   2.738  10.536 -0.4076 -0.3326 -0.3603
15892TIP3    H148558   6.541   2.806  10.589 -0.0086 -1.2209  0.4728
15892TIP3    H248559   6.568   2.673  10.523 -0.8381 -0.6599 -1.0284
15893TIP3   OH248560   7.819   4.850  10.195 -0.2451 -0.1904  0.5884
15893TIP3    H148561   7.861   4.793  10.260 -1.2315 -1.1939  0.3995
15893TIP3    H248562   7.882   4.857  10.124 -0.0961 -1.0690  0.6206
15894TIP3   OH248563  10.476   2.732   3.509 -0.0635  0.0818 -0.0527
15894TIP3    H148564  10.562   2.768   3.488  0.8353 -1.7933  0.2812
15894TIP3    H248565  10.455   2.769   3.595 -0.2868  1.6969 -0.7699
15895TIP3   OH248566   5.538   9.601   5.879  0.5458 -0.0168  0.2439
15895TIP3    H148567   5.453   9.607   5.836  0.2049  0.3283  0.9387
15895TIP3    H248568   5.601   9.630   5.813  0.1147 -0.1817 -0.2459
15896TIP3   OH248569   1.793   5.548   0.733 -0.4819  0.3232  0.2598
15896TIP3    H148570   1.780   5.519   0.823 -0.8307  0.8531  0.3815
15896TIP3    H248571   1.734   5.492   0.681 -0.7207  0.4241  0.4250
15897TIP3   OH248572  10.784   2.320   3.180  0.2234 -0.3864 -0.3508
15897TIP3    H148573  10.875   2.347   3.196  0.8937 -2.2928 -0.7471
15897TIP3    H248574  10.735   2.358   3.253  1.3170  0.7099 -0.1530
15898TIP3   OH248575   7.322   8.869   1.289  0.2034  0.0149 -0.6059
15898TIP3    H148576   7.410   8.896   1.316  0.3455  0.9721 -1.9471
15898TIP3    H248577   7.336   8.811   1.214 -0.3051  0.3146 -0.9381
15899TIP3   OH248578   1.596  10.860  10.179  0.1269 -0.8013  0.6550
15899TIP3    H148579   1.539  10.902  10.244  1.4617  1.6590  0.3293
15899TIP3    H248580   1.618  10.775  10.218 -1.1886 -0.4783  2.1995
15900TIP3   OH248581   6.249   1.761   5.716  0.4078  0.4385 -0.0418
15900TIP3    H148582   6.289   1.681   5.749  1.1660  0.4449 -0.9129
15900TIP3    H248583   6.156   1.753   5.740  0.3643 -0.9533 -0.6004
15901TIP3   OH248584   3.000   3.525   6.495 -0.4061  0.3812 -0.1102
15901TIP3    H148585   2.951   3.473   6.432  0.9340  0.3513 -1.1783
15901TIP3    H248586   3.052   3.461   6.543  1.3341  0.6761 -1.5028
15902TIP3   OH248587   5.594   2.577   9.535 -0.0006  0.7565  0.0741
15902TIP3    H148588   5.596   2.633   9.612 -0.2655  0.8433  0.0201
15902TIP3    H248589   5.633   2.495   9.564  1.2068  1.2569 -0.0955
15903TIP3   OH248590   0.851   9.163   0.181 -0.1974 -0.0246 -0.0407
15903TIP3    H148591   0.816   9.080   0.147 -0.7799 -0.1951  0.9478
15903TIP3    H248592   0.774   9.219   0.192  0.1082  0.3912  0.0063
15904TIP3   OH248593   7.211   9.773   0.749 -0.1899  0.5745  0.4950
15904TIP3    H148594   7.223   9.680   0.770  0.6716  0.9448  1.7801
15904TIP3    H248595   7.149   9.805   0.814  0.7247  1.2284  1.0829
15905TIP3   OH248596   4.221   8.292   8.213 -0.0986 -0.0286 -0.0406
15905TIP3    H148597   4.198   8.384   8.229  2.1604  0.3450  1.6605
15905TIP3    H248598   4.225   8.253   8.301 -2.3172 -2.1841 -0.7806
15906TIP3   OH248599   2.076   0.234   6.926 -0.3413 -0.2723 -0.5487
15906TIP3    H148600   2.102   0.304   6.985  0.3174 -0.4247 -0.6554
15906TIP3    H248601   2.158   0.199   6.892 -0.5332 -2.1985  0.7681
15907TIP3   OH248602   4.795   5.390   5.532  0.0183 -0.5413 -0.3358
15907TIP3    H148603   4.738   5.377   5.608 -0.8124 -0.9635 -1.0223
15907TIP3    H248604   4.880   5.357   5.560  0.0273  0.3940  0.8193
15908TIP3   OH248605   9.507   6.088   4.349  0.4229  0.3538  0.7027
15908TIP3    H148606   9.546   6.157   4.402  0.1223  1.1371 -0.0745
15908TIP3    H248607   9.558   6.010   4.370 -0.2388  0.4182  2.8015
15909TIP3   OH248608   9.302   7.207   2.739 -0.7477  0.1825  0.2261
15909TIP3    H148609   9.243   7.241   2.807 -1.5197 -0.3860 -0.1513
15909TIP3    H248610   9.245   7.159   2.679  0.0751 -0.2141 -0.2558
15910TIP3   OH248611   7.868   1.985   8.636  0.1567  0.1193  0.2106
15910TIP3    H148612   7.820   1.922   8.691  2.0103 -0.8587  0.7734
15910TIP3    H248613   7.958   1.954   8.637  0.6390  1.3148 -1.6757
15911TIP3   OH248614  10.494   2.373   1.879  0.2633  0.1817  0.2325
15911TIP3    H148615  10.437   2.407   1.948 -1.5106 -1.7212 -0.1881
15911TIP3    H248616  10.453   2.404   1.798 -0.2179 -1.2249 -0.0788
15912TIP3   OH248617   5.944   2.210   9.500 -0.1432  0.4469 -0.3581
15912TIP3    H148618   5.987   2.126   9.514  1.4576  1.5770  2.3816
15912TIP3    H248619   6.012   2.265   9.462 -0.4177  1.1514  0.1551
15913TIP3   OH248620   3.787   6.507   4.306 -0.6947 -0.2146 -0.4633
15913TIP3    H148621   3.775   6.578   4.242 -1.2752  0.2567  0.1531
15913TIP3    H248622   3.869   6.465   4.279 -0.1449  0.9082 -0.6377
15914TIP3   OH248623   3.022   7.089   9.317 -0.0539  0.7245  0.3872
15914TIP3    H148624   3.024   7.182   9.338  0.2064  1.0766 -1.1312
15914TIP3    H248625   3.114   7.061   9.324 -0.0411  0.7220  0.1932
15915TIP3   OH248626  10.688   3.606   2.417  0.7464 -0.1226  0.5492
15915TIP3    H148627  10.763   3.546   2.416  1.6179  0.9302  0.8783
15915TIP3    H248628  10.704   3.662   2.493  0.4503  1.1273 -0.2823
15916TIP3   OH248629  10.363   8.987   7.163  0.0362 -0.1705 -0.2421
15916TIP3    H148630  10.427   8.917   7.146 -2.6399 -2.9958  0.3122
15916TIP3    H248631  10.408   9.046   7.223  2.0593 -2.1214  0.3470
15917TIP3   OH248632   1.616   4.307   3.739 -0.0946 -0.2346 -0.3105
15917TIP3    H148633   1.641   4.228   3.692 -0.5586 -2.2790  2.6050
15917TIP3    H248634   1.696   4.335   3.783 -0.6000 -0.9586  1.1233
15918TIP3   OH248635   1.457   9.581   6.273  0.0236  0.1876  0.0739
15918TIP3    H148636   1.543   9.543   6.291  0.3807  0.7168 -0.4772
15918TIP3    H248637   1.463   9.614   6.184 -0.6802  0.4331  0.1058
15919TIP3   OH248638   0.494   6.951   1.577 -0.1532 -0.1403 -0.3862
15919TIP3    H148639   0.513   6.924   1.488 -0.5963 -0.5451 -0.3645
15919TIP3    H248640   0.534   6.884   1.632  2.2346  1.3630 -0.1692
15920TIP3   OH248641   8.475   8.328   4.887  0.0868  0.1929 -0.5837
15920TIP3    H148642   8.394   8.290   4.853  0.4491  0.4057 -1.7233
15920TIP3    H248643   8.493   8.403   4.830  0.6134  0.6968  0.2104
15921TIP3   OH248644   7.898   8.337   3.959  0.2446  0.5442  0.1843
15921TIP3    H148645   7.949   8.310   3.883  1.3700  0.7315  0.8638
15921TIP3    H248646   7.811   8.356   3.923 -0.1505 -2.2461 -0.5972
15922TIP3   OH248647  10.702   7.674   3.311  0.2818 -0.1384 -0.1159
15922TIP3    H148648  10.677   7.690   3.220 -0.6725  1.4067  0.3735
15922TIP3    H248649  10.621   7.648   3.355  0.2267  1.3294  0.7290
15923TIP3   OH248650   3.349   8.354  10.187 -0.2057 -0.5269  0.0526
15923TIP3    H148651   3.365   8.320  10.275 -0.3179  0.2627  0.3894
15923TIP3    H248652   3.280   8.420  10.199  1.2537  1.1579 -0.2439
15924TIP3   OH248653   5.967   8.399   6.340 -0.4208 -0.2623  0.5797
15924TIP3    H148654   5.934   8.483   6.307  1.6262  0.9307  1.3882
15924TIP3    H248655   5.986   8.416   6.432  0.4680 -1.4943  0.6386
15925TIP3   OH248656   7.432   1.648   5.348  0.3274 -0.5088 -0.5738
15925TIP3    H148657   7.404   1.599   5.425  0.0035  1.9571  0.9734
15925TIP3    H248658   7.373   1.619   5.278 -2.4118  0.3987  1.2046
15926TIP3   OH248659   3.164   8.475   5.300  0.2012  0.1312  0.0204
15926TIP3    H148660   3.174   8.449   5.209 -0.9549 -2.1622  0.4697
15926TIP3    H248661   3.162   8.393   5.348 -0.6838  1.2096  1.9523
15927TIP3   OH248662   1.368   4.835   1.677 -0.4101 -0.0565  0.7880
15927TIP3    H148663   1.348   4.774   1.607 -0.0669  0.0262  0.6165
15927TIP3    H248664   1.441   4.888   1.644 -0.1506 -0.1112  1.2576
15928TIP3   OH248665  10.304   8.531   6.223  0.3883 -0.6628  0.7178
15928TIP3    H148666  10.276   8.543   6.132  1.8591 -1.3076  0.1499
15928TIP3    H248667  10.329   8.618   6.252 -0.0741 -0.4538  0.4954
15929TIP3   OH248668   8.559   2.502   5.022  0.9200 -0.2733  0.5338
15929TIP3    H148669   8.485   2.558   5.046 -0.1365 -0.9793 -0.9411
15929TIP3    H248670   8.629   2.564   5.002 -0.1475  0.5712 -0.8222
15930TIP3   OH248671   8.287   1.810   2.596  0.1176  0.3226  0.2536
15930TIP3    H148672   8.338   1.887   2.623  2.7483 -0.2199 -2.5122
15930TIP3    H248673   8.325   1.738   2.646 -1.5344  0.5557  1.9517
15931TIP3   OH248674   6.800   8.818   3.789 -0.1376 -0.3461 -0.6882
15931TIP3    H148675   6.752   8.756   3.734  0.1577  0.6910 -2.1744
15931TIP3    H248676   6.732   8.858   3.844 -0.3253 -1.9588  0.3157
15932TIP3   OH248677   4.846   1.734   9.497  1.0257 -0.2025  0.2906
15932TIP3    H148678   4.805   1.786   9.567  0.2684  0.5904 -0.7047
15932TIP3    H248679   4.939   1.758   9.500  0.7009  1.1833 -0.0930
15933TIP3   OH248680   5.987   1.815   2.606  0.5558  0.3858 -0.2836
15933TIP3    H148681   5.911   1.821   2.664  0.8292  0.4039  0.0745
15933TIP3    H248682   5.952   1.778   2.525 -0.1227  1.7517 -0.6422
15934TIP3   OH248683   1.860   7.184  10.706 -0.5359  0.7482  0.0314
15934TIP3    H148684   1.802   7.175  10.782 -0.9569  0.8897 -0.2760
15934TIP3    H248685   1.817   7.249  10.650 -0.5699  0.1385 -0.6548
15935TIP3   OH248686   1.858   1.202   0.170 -0.0001 -0.0308  0.3026
15935TIP3    H148687   1.951   1.179   0.166  0.3251  1.0541  1.2528
15935TIP3    H248688   1.830   1.173   0.256  0.0884  1.7937  0.9887
15936TIP3   OH248689   1.803   3.571   6.091  0.1504 -0.4484 -0.1418
15936TIP3    H148690   1.786   3.598   6.000 -1.4799 -2.1679 -0.4182
15936TIP3    H248691   1.850   3.488   6.083 -1.0397 -1.2220  0.5263
15937TIP3   OH248692   4.179   9.459   9.602 -0.0413 -0.3727  0.2920
15937TIP3    H148693   4.099   9.406   9.604 -0.8979  0.8048 -0.8926
15937TIP3    H248694   4.156   9.538   9.651  0.3553  0.0148 -0.1392
15938TIP3   OH248695   1.677   9.768   6.587  0.2440 -0.3550 -0.8722
15938TIP3    H148696   1.660   9.782   6.494 -1.4065 -0.3527 -0.6008
15938TIP3    H248697   1.604   9.713   6.616  1.0652 -0.8666  0.3004
15939TIP3   OH248698   3.179   3.771   2.979  0.2095  0.3176 -0.5213
15939TIP3    H148699   3.272   3.759   2.999  0.4836  0.5873 -1.5847
15939TIP3    H248700   3.156   3.853   3.022  0.4765  0.2873 -0.3174
15940TIP3   OH248701   0.897   0.795   1.185  0.1593  0.5265  0.9049
15940TIP3    H148702   0.980   0.784   1.232  0.6914  0.5305 -0.0110
15940TIP3    H248703   0.879   0.708   1.148  0.5562  0.8885 -0.1735
15941TIP3   OH248704   9.025  10.317   9.901 -0.2813 -0.1763  0.1330
15941TIP3    H148705   9.084  10.270   9.961  0.6009  0.3550 -0.2913
15941TIP3    H248706   9.081  10.383   9.860 -1.1264  0.1777 -0.4777
15942TIP3   OH248707   4.670   0.373   4.806  0.2483  0.1606  0.2724
15942TIP3    H148708   4.615   0.371   4.884  2.2315  1.5359  1.8306
15942TIP3    H248709   4.716   0.290   4.807  0.1823  0.1250  0.5080
15943TIP3   OH248710  10.748   3.975   9.503  0.2159 -0.2427 -0.0265
15943TIP3    H148711  10.819   3.941   9.449  0.8323  1.2597 -0.2007
15943TIP3    H248712  10.792   4.024   9.573 -0.6337  0.7751 -0.1802
15944TIP3   OH248713   7.134   6.492   6.341  0.4554  0.1349 -0.1158
15944TIP3    H148714   7.187   6.413   6.335  0.7543  0.2968  0.3267
15944TIP3    H248715   7.070   6.473   6.409  0.1950  0.0844 -0.3738
15945TIP3   OH248716   5.817   0.775   4.680 -0.9113  0.5444  0.2119
15945TIP3    H148717   5.747   0.750   4.741 -0.3674 -0.0143  0.6179
15945TIP3    H248718   5.824   0.870   4.689 -0.2583  0.3902  1.6858
15946TIP3   OH248719   1.385   5.747   0.650 -0.1192 -0.1266 -0.6854
15946TIP3    H148720   1.456   5.696   0.687 -0.7722  0.8194  2.0894
15946TIP3    H248721   1.316   5.683   0.632  0.2347 -0.6238 -0.2955
15947TIP3   OH248722   3.127   2.344   2.154  0.4368  0.2511  0.1635
15947TIP3    H148723   3.162   2.413   2.098  0.2203  0.0390 -0.2302
15947TIP3    H248724   3.142   2.376   2.243  0.3026  0.8205 -0.0187
15948TIP3   OH248725  10.548   9.066   7.363 -0.3502  0.4418  0.1391
15948TIP3    H148726  10.473   9.066   7.422  0.4836  1.5885  1.2601
15948TIP3    H248727  10.604   8.995   7.394 -0.5514  0.1569 -0.1441
15949TIP3   OH248728   9.482   5.254   6.098 -0.2624 -0.3171  0.2146
15949TIP3    H148729   9.544   5.198   6.145 -1.2948 -0.3989  1.5397
15949TIP3    H248730   9.493   5.230   6.006  0.2730 -1.7360  0.6223
15950TIP3   OH248731   4.774   2.587  10.272 -0.0002  0.5222 -0.5842
15950TIP3    H148732   4.865   2.615  10.278  0.2873 -0.1250 -1.6608
15950TIP3    H248733   4.755   2.588  10.178 -0.6907 -0.6071 -0.4653
15951TIP3   OH248734   3.408  10.370   2.101  0.1487  0.1378  0.7042
15951TIP3    H148735   3.488  10.319   2.115  2.2739  3.3386  1.4031
15951TIP3    H248736   3.420  10.407   2.013 -1.5999 -0.8919 -0.0112
15952TIP3   OH248737   0.224  10.382   5.066 -0.3155  0.7537 -0.3373
15952TIP3    H148738   0.197  10.463   5.109 -0.5416  0.4164  0.1676
15952TIP3    H248739   0.312  10.400   5.033  0.1866  0.7829  0.9493
15953TIP3   OH248740   4.380   1.935   3.511  0.0727  0.4890  0.4737
15953TIP3    H148741   4.386   1.850   3.467  1.3112  0.9614 -0.3429
15953TIP3    H248742   4.347   1.915   3.599  1.1162 -0.9587  0.5767
15954TIP3   OH248743   3.574   1.394   7.257  0.6169 -0.2797  0.4114
15954TIP3    H148744   3.479   1.392   7.267  0.4109 -0.4476 -1.2659
15954TIP3    H248745   3.598   1.485   7.275 -0.1253  0.2160 -0.9438
15955TIP3   OH248746   8.376   0.720   8.565 -0.0345 -0.0198  0.5601
15955TIP3    H148747   8.393   0.732   8.472  0.0952  0.0328  0.5908
15955TIP3    H248748   8.404   0.802   8.605 -1.3057  0.4818  0.4880
15956TIP3   OH248749   6.077   9.416   9.433  0.2860  0.4643 -0.3154
15956TIP3    H148750   6.083   9.469   9.512 -0.2808 -1.5241  1.1236
15956TIP3    H248751   6.163   9.375   9.425 -0.7415 -2.2648  1.4926
15957TIP3   OH248752   1.158   4.108   8.703 -0.3316 -0.3987  0.6679
15957TIP3    H148753   1.207   4.093   8.784 -0.3881  0.6484  0.9021
15957TIP3    H248754   1.080   4.052   8.713 -0.7894  0.3838  1.7546
15958TIP3   OH248755   3.937   3.953  10.763  0.3197  0.2218 -0.5518
15958TIP3    H148756   3.928   4.048  10.751 -0.9190  0.2594  0.4801
15958TIP3    H248757   3.903   3.937  10.851  2.3190 -0.9504  0.0624
15959TIP3   OH248758   0.297  10.073   3.867 -0.1529 -0.2956  0.0061
15959TIP3    H148759   0.332   9.988   3.841 -1.7071 -1.0226  0.1347
15959TIP3    H248760   0.359  10.106   3.932  0.3094 -1.4881  0.1963
15960TIP3   OH248761  10.071   8.149   0.299 -0.1606 -0.5918 -0.0988
15960TIP3    H148762  10.132   8.178   0.367 -0.4171 -2.0940  0.8172
15960TIP3    H248763   9.987   8.140   0.344 -0.1359 -2.5351 -0.3412
15961TIP3   OH248764   0.173   7.160   9.801  0.0695  0.2274 -0.6101
15961TIP3    H148765   0.199   7.248   9.774 -1.7558  1.0091  0.0775
15961TIP3    H248766   0.127   7.124   9.725 -0.8263  0.5831 -0.2375
15962TIP3   OH248767   9.161   5.336   0.059 -0.7200 -0.5299  0.4267
15962TIP3    H148768   9.187   5.356  -0.031 -0.4273  1.1180  0.8447
15962TIP3    H248769   9.151   5.241   0.060  2.2762 -0.9622 -0.5671
15963TIP3   OH248770   8.302   1.530   1.214 -0.4392 -0.2348  0.3801
15963TIP3    H148771   8.231   1.505   1.274 -0.2136 -0.2063  0.6613
15963TIP3    H248772   8.377   1.477   1.243 -0.7252 -1.3597 -0.8347
15964TIP3   OH248773   4.724   4.270   9.368  0.3921  0.1073  0.5461
15964TIP3    H148774   4.684   4.185   9.351  1.7884 -0.2347 -1.3467
15964TIP3    H248775   4.653   4.333   9.354  0.1747 -0.5362 -1.6991
15965TIP3   OH248776   7.596   2.117   2.862  0.3403 -0.4519  0.1888
15965TIP3    H148777   7.554   2.058   2.800  0.3373 -1.2855  0.9633
15965TIP3    H248778   7.648   2.060   2.919  1.8607  0.4651 -0.2028
15966TIP3   OH248779   9.043   1.092   5.260  0.7427  0.0053 -0.3488
15966TIP3    H148780   8.955   1.060   5.281  0.5942  0.2617 -0.5754
15966TIP3    H248781   9.051   1.173   5.309  1.0115 -0.2281 -0.0028
15967TIP3   OH248782   4.336   5.424   6.818 -0.0326 -0.2668 -0.3735
15967TIP3    H148783   4.290   5.429   6.734 -0.5531  0.1868 -0.0704
15967TIP3    H248784   4.403   5.493   6.813 -0.2329 -0.0674 -0.3167
15968TIP3   OH248785   6.924   1.259   4.060 -0.6271  0.4537 -0.9808
15968TIP3    H148786   6.939   1.249   3.966 -0.6217  0.0220 -0.9345
15968TIP3    H248787   6.984   1.197   4.101  1.0117  2.2154 -0.5909
15969TIP3   OH248788   1.863   1.858   4.123  0.4495  0.1865  0.3908
15969TIP3    H148789   1.898   1.809   4.197  0.5519  1.2857  1.0897
15969TIP3    H248790   1.781   1.814   4.102  0.7715 -0.5763  0.6848
15970TIP3   OH248791   4.761   1.487   1.445  0.1084 -0.1248  0.1738
15970TIP3    H148792   4.794   1.547   1.377 -1.2148 -0.1291 -0.4943
15970TIP3    H248793   4.693   1.436   1.401 -0.3658 -0.5383  1.3580
15971TIP3   OH248794   1.427   8.474   7.128  0.3857  0.1126 -0.5902
15971TIP3    H148795   1.395   8.503   7.042  2.1021  0.3821 -1.1835
15971TIP3    H248796   1.476   8.394   7.109  1.4288  0.5935  0.0104
15972TIP3   OH248797   1.926   2.796   7.280  0.0578  0.0751  0.6584
15972TIP3    H148798   1.832   2.807   7.287  0.2386  2.2101  0.3690
15972TIP3    H248799   1.960   2.824   7.365  0.5514  1.8723 -0.0667
15973TIP3   OH248800  10.738   2.972   5.044  0.0984  0.0855  0.2013
15973TIP3    H148801  10.832   2.989   5.038  0.2776 -0.7338  0.6222
15973TIP3    H248802  10.724   2.893   4.992 -0.6545  1.1744 -1.3347
15974TIP3   OH248803  10.356   6.075   8.354 -0.4072  0.2823 -0.1963
15974TIP3    H148804  10.360   5.979   8.358 -0.7194  0.1443 -2.2548
15974TIP3    H248805  10.431   6.100   8.300 -0.9172  1.1177 -0.5411
15975TIP3   OH248806   6.878   0.980   5.607 -0.0053 -0.4043 -0.4893
15975TIP3    H148807   6.895   1.074   5.596 -0.7017 -0.3657 -1.3539
15975TIP3    H248808   6.915   0.959   5.693  1.8549  0.2529 -1.0702
15976TIP3   OH248809   7.625   5.402   8.010  0.0837 -0.4379  0.0052
15976TIP3    H148810   7.630   5.455   7.931 -1.6511  1.0490  0.8197
15976TIP3    H248811   7.717   5.388   8.036  0.6135  0.5355 -1.2844
15977TIP3   OH248812   8.501   7.792   8.947  0.6703 -0.1607 -0.0175
15977TIP3    H148813   8.536   7.837   8.870  1.7994 -1.1520 -0.1163
15977TIP3    H248814   8.538   7.704   8.942  0.0719 -0.5043  1.2077
15978TIP3   OH248815   5.162   6.387  10.648 -0.5105 -0.3448 -0.7497
15978TIP3    H148816   5.087   6.373  10.706 -0.2268  1.8234  0.2266
15978TIP3    H248817   5.189   6.299  10.622 -1.4388 -1.3312  1.4041
15979TIP3   OH248818   5.527   9.393   3.065 -0.1692  0.2857  0.1538
15979TIP3    H148819   5.525   9.487   3.045 -2.3205  0.4638  0.8746
15979TIP3    H248820   5.450   9.358   3.020  1.3777 -1.4718 -1.3167
15980TIP3   OH248821   5.015   7.588   7.393 -0.4720  0.0059 -0.7358
15980TIP3    H148822   4.992   7.676   7.362 -2.5999 -0.0312  0.5801
15980TIP3    H248823   4.953   7.530   7.349 -0.3391 -0.6109 -0.1261
15981TIP3   OH248824  10.528   8.113  10.026 -0.1494 -0.0968  0.1044
15981TIP3    H148825  10.477   8.077   9.954 -2.1656 -0.4576  1.6021
15981TIP3    H248826  10.469   8.178  10.067  1.2854  0.7905  0.8553
15982TIP3   OH248827   1.746   3.613   0.162  0.2897  0.0308  0.2013
15982TIP3    H148828   1.776   3.683   0.103 -3.1462  0.8429 -0.8231
15982TIP3    H248829   1.710   3.659   0.237 -0.9689 -0.6424  0.0447
15983TIP3   OH248830   6.894   5.399   7.654  0.2074  0.1964  1.1446
15983TIP3    H148831   6.978   5.383   7.611 -0.0385 -0.5925  0.9459
15983TIP3    H248832   6.917   5.443   7.735  0.7002  1.4977  0.3382
15984TIP3   OH248833   7.472   6.775   3.210  0.0041 -0.1320  0.3629
15984TIP3    H148834   7.396   6.832   3.199  0.2831  0.1005 -0.4193
15984TIP3    H248835   7.497   6.786   3.302 -1.2534 -0.6565  0.7857
15985TIP3   OH248836   3.812   1.066   4.150  0.4444  0.4176  0.0772
15985TIP3    H148837   3.906   1.083   4.152  1.0753 -2.2626 -1.3847
15985TIP3    H248838   3.784   1.098   4.064  0.3343  0.0428 -0.0315
15986TIP3   OH248839   8.742   0.542   6.440  0.2716  0.0481 -0.4096
15986TIP3    H148840   8.734   0.503   6.353 -0.4780  0.8327 -0.7091
15986TIP3    H248841   8.832   0.573   6.444  1.4223 -3.0859  0.4586
15987TIP3   OH248842   2.809   3.092   2.760  0.1007  0.5568 -0.5200
15987TIP3    H148843   2.725   3.112   2.802  0.6364  0.0802  0.8498
15987TIP3    H248844   2.873   3.144   2.808  1.1387 -2.1462  1.2983
15988TIP3   OH248845   4.788   5.322   1.514 -0.1951  0.0048 -0.5396
15988TIP3    H148846   4.787   5.243   1.459 -0.8855  1.7817 -3.2902
15988TIP3    H248847   4.878   5.355   1.507  0.4940 -1.1764  1.7552
15989TIP3   OH248848   7.770   2.867   7.377 -0.1017 -0.1912 -0.3049
15989TIP3    H148849   7.843   2.896   7.432  0.4594 -0.7194 -0.7561
15989TIP3    H248850   7.806   2.794   7.326 -1.0586 -0.7128 -0.2497
15990TIP3   OH248851   4.528   0.925   7.282 -0.0992 -0.0740  0.2355
15990TIP3    H148852   4.478   1.004   7.305 -0.2075  0.3290 -1.2930
15990TIP3    H248853   4.497   0.859   7.344  0.5649  1.2588  2.0714
15991TIP3   OH248854   2.330   3.944   1.465 -0.2100  0.1017 -0.0183
15991TIP3    H148855   2.311   3.851   1.478 -1.5248  0.3242 -0.1780
15991TIP3    H248856   2.381   3.969   1.542 -1.1742 -0.4054  0.8143
15992TIP3   OH248857   1.581   5.957   7.834 -0.1761 -0.4598 -0.0607
15992TIP3    H148858   1.667   5.964   7.794 -0.5552 -1.5443 -1.1229
15992TIP3    H248859   1.597   5.917   7.919  0.3116 -1.2319 -0.5069
15993TIP3   OH248860   8.708   6.525   1.176  0.4132 -0.0230  0.2773
15993TIP3    H148861   8.624   6.570   1.177 -1.4256 -3.1330 -0.5783
15993TIP3    H248862   8.745   6.546   1.090  0.7681  1.6432  0.7942
15994TIP3   OH248863   4.339   7.665   2.945 -0.1524 -0.6995 -0.2584
15994TIP3    H148864   4.323   7.630   3.033 -0.0065  2.3414  1.0791
15994TIP3    H248865   4.426   7.633   2.921  0.8209  0.3258  1.7457
15995TIP3   OH248866   0.034   4.195   5.046 -0.3109  0.5701  0.0002
15995TIP3    H148867   0.120   4.217   5.082 -0.8226  0.8811  1.0798
15995TIP3    H248868  -0.028   4.238   5.105 -1.4053 -3.3182  2.0169
15996TIP3   OH248869   6.350   0.224   7.228  0.5064 -0.4899 -0.0561
15996TIP3    H148870   6.341   0.282   7.303  2.3787 -1.6310  1.1317
15996TIP3    H248871   6.416   0.267   7.173 -0.6422  0.1930 -0.9423
15997TIP3   OH248872   5.636   4.792   2.480 -0.2573 -0.1089  0.1657
15997TIP3    H148873   5.669   4.714   2.434  0.8030  0.4875 -0.1136
15997TIP3    H248874   5.703   4.859   2.464 -0.5790  0.5217  1.3829
15998TIP3   OH248875   2.958   2.457   6.953 -0.1636  0.2484  0.0837
15998TIP3    H148876   3.039   2.419   6.919 -0.5627  1.2142 -2.0711
15998TIP3    H248877   2.934   2.399   7.026  0.0973 -2.7102 -2.0000
15999TIP3   OH248878   0.114   2.657   8.483  0.3810 -0.5118 -0.4153
15999TIP3    H148879   0.179   2.599   8.521  1.2365  0.9611  0.4703
15999TIP3    H248880   0.114   2.636   8.389  1.9364 -0.7206 -0.3833
16000TIP3   OH248881   3.322   5.120   6.917 -0.8029 -0.0169 -0.3059
16000TIP3    H148882   3.370   5.058   6.971  0.6762  2.2685  1.2146
16000TIP3    H248883   3.230   5.106   6.939 -0.5834 -2.0635 -0.5452
16001TIP3   OH248884   9.664   6.734   4.390  0.2683  0.1911  0.2804
16001TIP3    H148885   9.610   6.800   4.432  1.4914  2.1954 -1.1240
16001TIP3    H248886   9.646   6.744   4.297  1.3107 -0.6978 -0.0402
16002TIP3   OH248887   0.027   8.113   0.499 -0.8703  0.0179  0.1247
16002TIP3    H148888  -0.022   8.163   0.433  1.0434  0.9739 -0.6546
16002TIP3    H248889   0.109   8.162   0.509 -0.5186 -0.9211  2.1793
16003TIP3   OH248890   6.263   0.770  10.609  0.3858 -0.1280 -0.0795
16003TIP3    H148891   6.292   0.839  10.549 -1.3599  1.4797  0.8598
16003TIP3    H248892   6.277   0.806  10.696  0.2786 -1.3260  0.4499
16004TIP3   OH248893   4.995   0.769   1.006  0.0144 -0.1025 -0.7104
16004TIP3    H148894   4.914   0.760   1.057  0.1035  2.2273 -0.0456
16004TIP3    H248895   4.964   0.789   0.917 -0.1712  0.8834 -0.4368
16005TIP3   OH248896   7.105   4.075   7.908  0.2222 -0.3524  0.6189
16005TIP3    H148897   7.132   4.073   8.000 -1.7371  1.3402  1.3051
16005TIP3    H248898   7.011   4.089   7.911  0.3208  1.3427 -1.6742
16006TIP3   OH248899   6.598   5.611   4.958 -0.0515  0.0034  0.4717
16006TIP3    H148900   6.636   5.695   4.933 -2.5779  0.6629 -1.6910
16006TIP3    H248901   6.609   5.556   4.880 -0.2277 -0.9870  1.1318
16007TIP3   OH248902   8.307   1.218   4.086 -0.1528  0.0950 -0.3851
16007TIP3    H148903   8.240   1.271   4.043  0.0415 -0.7449 -1.8300
16007TIP3    H248904   8.258   1.149   4.131 -0.3257  0.5317  0.1052
16008TIP3   OH248905   6.650   1.192   6.972 -0.0546  0.2716 -0.3795
16008TIP3    H148906   6.567   1.237   6.983  0.2318  0.3129  2.0583
16008TIP3    H248907   6.715   1.248   7.014  0.7380 -1.1049  0.3216
16009TIP3   OH248908   7.128   9.008   8.385 -0.1335 -0.3271  0.3456
16009TIP3    H148909   7.120   8.944   8.456 -0.0993 -0.6553  0.0585
16009TIP3    H248910   7.213   9.049   8.399 -0.1699 -0.3181  0.5525
16010TIP3   OH248911   3.615   3.350   5.178  0.1288 -0.1269 -0.2279
16010TIP3    H148912   3.601   3.397   5.096 -1.2524 -0.4662 -0.2126
16010TIP3    H248913   3.587   3.413   5.245 -0.1369 -0.3736 -0.1078
16011TIP3   OH248914   9.429  10.782   6.024 -0.1808  0.7826  0.2288
16011TIP3    H148915   9.388  10.696   6.009  0.0598  0.3141  2.0885
16011TIP3    H248916   9.520  10.762   6.042 -0.2796  1.3596  1.4045
16012TIP3   OH248917   9.467   0.475   6.324  0.0025  0.2890 -0.3133
16012TIP3    H148918   9.485   0.471   6.230 -2.9176  0.5491 -0.9671
16012TIP3    H248919   9.518   0.551   6.354  2.0874 -0.6211 -1.3498
16013TIP3   OH248920   2.225   8.182   0.598 -0.6474  0.3845 -0.2156
16013TIP3    H148921   2.206   8.182   0.504 -0.5822  1.4703 -0.2329
16013TIP3    H248922   2.290   8.251   0.610  1.4002 -1.4920  0.2495
16014TIP3   OH248923   5.061  10.420   0.868  0.1355 -0.0258  0.2744
16014TIP3    H148924   5.018  10.354   0.922  2.2611 -1.4406  0.3807
16014TIP3    H248925   5.073  10.494   0.927 -1.9487  0.3652  0.2645
16015TIP3   OH248926   6.059   9.284   1.690 -0.7950  0.1786  0.1480
16015TIP3    H148927   6.136   9.256   1.640 -1.4116  0.3821 -0.9392
16015TIP3    H248928   6.007   9.204   1.702  0.1088 -0.1981  1.8953
16016TIP3   OH248929   6.713   7.067   7.104  0.3420  0.1236  0.2699
16016TIP3    H148930   6.740   6.984   7.142  1.1515  0.4296  0.3632
16016TIP3    H248931   6.782   7.129   7.127 -0.0537  0.7342 -0.1402
16017TIP3   OH248932   1.616   0.793   1.282 -0.4931  0.3112  0.7131
16017TIP3    H148933   1.616   0.889   1.281  1.1472  0.3481  1.3170
16017TIP3    H248934   1.650   0.768   1.196 -0.8179  0.2649  0.5962
16018TIP3   OH248935   7.969   5.155   2.427 -0.2790  0.3584  0.1407
16018TIP3    H148936   7.917   5.103   2.366 -0.3140 -1.7005  1.8463
16018TIP3    H248937   8.059   5.129   2.410  0.2935  3.2402 -2.1608
16019TIP3   OH248938   7.614   0.925   7.443 -0.0255  0.0854 -0.0066
16019TIP3    H148939   7.652   1.008   7.471  1.4621 -0.0986 -1.3203
16019TIP3    H248940   7.673   0.894   7.374 -0.0484 -2.4840  1.0261
16020TIP3   OH248941  10.608   9.148   8.709 -0.1554  0.0654 -0.3039
16020TIP3    H148942  10.628   9.082   8.776 -1.8276  0.2985  0.4816
16020TIP3    H248943  10.596   9.229   8.758 -0.9091  0.3523 -0.9515
16021TIP3   OH248944   4.555   5.383   0.781 -0.5247 -0.2141 -0.0119
16021TIP3    H148945   4.495   5.417   0.848 -1.2271  1.3555 -1.3562
16021TIP3    H248946   4.499   5.338   0.719 -0.0353 -0.6287 -0.1577
16022TIP3   OH248947   7.210   8.035   8.557  0.0453  0.1941 -0.4985
16022TIP3    H148948   7.274   8.005   8.622 -0.0183  1.0488 -0.0247
16022TIP3    H248949   7.262   8.060   8.481  0.1685 -0.2738 -0.5711
16023TIP3   OH248950   5.363   2.798   8.516 -0.0503  0.4912 -0.1420
16023TIP3    H148951   5.317   2.860   8.573 -0.8795  1.2391 -1.5526
16023TIP3    H248952   5.332   2.712   8.544 -1.5285  0.9290 -0.3635
16024TIP3   OH248953   2.933   4.359   4.722  0.3665  0.1222  0.3083
16024TIP3    H148954   2.970   4.410   4.651 -1.1390  0.0327 -0.5845
16024TIP3    H248955   2.944   4.414   4.800  0.8002  0.8169 -0.2344
16025TIP3   OH248956   7.844   8.682   2.647  0.2895 -0.0739 -0.6846
16025TIP3    H148957   7.938   8.668   2.640  0.5410  0.9065  0.4317
16025TIP3    H248958   7.824   8.746   2.578  0.8879  1.5447  0.5938
16026TIP3   OH248959   3.533   0.973   3.411  0.5504 -0.3693  0.2002
16026TIP3    H148960   3.499   1.012   3.491  0.6090  0.0297  0.0361
16026TIP3    H248961   3.626   0.960   3.429  0.1611 -2.3876  1.0130
16027TIP3   OH248962   4.866   4.246   6.209 -0.5589 -0.1961 -0.2262
16027TIP3    H148963   4.803   4.317   6.194  0.2528  0.4829 -0.5560
16027TIP3    H248964   4.944   4.273   6.160  0.3519 -0.5032  0.9866
16028TIP3   OH248965   1.289   3.611   4.427  0.1533 -0.3462 -0.2299
16028TIP3    H148966   1.317   3.700   4.405 -0.4780  0.0610  0.5638
16028TIP3    H248967   1.198   3.620   4.454  0.5921 -0.9331  1.6102
16029TIP3   OH248968   8.094   0.787  10.388 -0.0787  0.3834 -0.0087
16029TIP3    H148969   8.087   0.700  10.428 -0.5747 -0.0900 -1.0994
16029TIP3    H248970   8.004   0.812  10.369  0.2373 -0.4336 -2.9521
16030TIP3   OH248971   8.654   5.165   9.094  0.1510 -0.2404  0.1837
16030TIP3    H148972   8.596   5.238   9.074  0.4559  0.0996  0.5389
16030TIP3    H248973   8.599   5.105   9.145  0.1256  0.1106  0.5763
16031TIP3   OH248974   5.452   0.982   5.784 -0.0907 -0.2313  0.0021
16031TIP3    H148975   5.366   1.022   5.799 -0.0379  0.4918 -1.4947
16031TIP3    H248976   5.438   0.889   5.805 -1.2438 -0.1295 -0.2246
16032TIP3   OH248977   9.806   5.681   6.987 -0.5587  1.1312  0.1105
16032TIP3    H148978   9.841   5.731   6.913  0.1712  1.8645  0.9162
16032TIP3    H248979   9.730   5.731   7.016 -1.2442  0.4853 -0.5447
16033TIP3   OH248980   9.706   4.862   1.041 -0.5245 -0.3689 -0.0061
16033TIP3    H148981   9.799   4.841   1.035 -0.5515 -0.3189 -0.6927
16033TIP3    H248982   9.678   4.823   1.123  0.2732  0.2758  0.5872
16034TIP3   OH248983   5.155  10.398   6.430  0.4703  0.2672 -0.1079
16034TIP3    H148984   5.192  10.469   6.376 -2.6133 -0.2062 -3.1765
16034TIP3    H248985   5.173  10.318   6.380 -0.1850 -0.5548  0.9420
16035TIP3   OH248986  10.364   7.409   8.188 -0.1274 -0.3583  0.3372
16035TIP3    H148987  10.426   7.424   8.260  0.3706 -1.2893  0.1076
16035TIP3    H248988  10.417   7.374   8.117 -0.2349  2.3698 -1.2459
16036TIP3   OH248989   9.248  10.011   2.783 -0.0935 -0.1593  0.1975
16036TIP3    H148990   9.218  10.072   2.715  1.1630 -0.7687 -0.9405
16036TIP3    H248991   9.192   9.934   2.772 -0.9697  0.3542  0.9374
16037TIP3   OH248992   6.566   9.034   4.860 -0.0463  0.3515  0.1611
16037TIP3    H148993   6.612   8.950   4.863 -0.3820  0.1746  0.3835
16037TIP3    H248994   6.612   9.084   4.792 -0.0783 -0.1480 -0.2324
16038TIP3   OH248995   9.222   1.167   4.091  0.4316  0.2120 -0.3397
16038TIP3    H148996   9.226   1.082   4.047  1.2479 -0.2138  0.5120
16038TIP3    H248997   9.277   1.225   4.038  2.1188 -0.5170  0.5311
16039TIP3   OH248998  10.465   5.658   4.404 -0.3275 -0.1728 -1.2459
16039TIP3    H148999  10.520   5.591   4.364  0.4525 -0.6863  0.5942
16039TIP3    H249000  10.418   5.612   4.473 -1.6621  0.6742 -1.5684
16040TIP3   OH249001   5.003   6.844   2.702  0.1966  0.4690  1.0381
16040TIP3    H149002   5.025   6.839   2.609 -0.4669  0.9106  0.8538
16040TIP3    H249003   4.919   6.799   2.710 -0.1423  1.1249  1.2823
16041TIP3   OH249004   0.123   8.793   4.235  0.6238 -0.6995  0.0837
16041TIP3    H149005   0.127   8.792   4.330  0.7768  0.9935  0.1252
16041TIP3    H249006   0.091   8.881   4.213 -1.2499 -1.6882 -1.3829
16042TIP3   OH249007   4.020   7.191  10.806 -0.7311 -0.0355  0.6745
16042TIP3    H149008   3.991   7.228  10.723 -2.1589  1.5394  1.7905
16042TIP3    H249009   4.093   7.246  10.833 -0.1716 -0.6379  0.4068
16043TIP3   OH249010   6.099  10.571   5.060  0.2711  0.0718 -0.0018
16043TIP3    H149011   6.109  10.481   5.029 -2.7627  0.2760 -2.1131
16043TIP3    H249012   6.071  10.563   5.151  0.2978 -1.1325 -0.0906
16044TIP3   OH249013   6.224   8.403  10.103  0.4507 -0.3918  0.5469
16044TIP3    H149014   6.280   8.480  10.111  1.6561 -0.7713 -2.8665
16044TIP3    H249015   6.213   8.390  10.009 -3.1090 -2.0482  1.0144
16045TIP3   OH249016   1.041   3.451   2.308 -0.1761  0.4637  0.0057
16045TIP3    H149017   1.100   3.481   2.378  0.0439  0.8651 -0.3484
16045TIP3    H249018   1.048   3.518   2.240 -0.2394 -0.0261 -0.4911
16046TIP3   OH249019   7.844   3.597   7.063 -0.0593  0.7530 -0.1661
16046TIP3    H149020   7.873   3.506   7.050 -0.5899  0.4972  0.3731
16046TIP3    H249021   7.767   3.589   7.120 -0.0490  1.5504 -0.0345
16047TIP3   OH249022   5.435   3.002   1.385  0.2671  0.0033 -0.0057
16047TIP3    H149023   5.503   3.055   1.343 -0.8275  0.9722 -0.5788
16047TIP3    H249024   5.453   3.011   1.479  1.5191 -0.5698 -0.1595
16048TIP3   OH249025   8.984   0.939   3.285  0.0381 -0.2048  0.9116
16048TIP3    H149026   9.035   0.867   3.324  1.8462  0.0455 -0.8337
16048TIP3    H249027   8.992   0.925   3.191 -0.7245  1.5309  0.5570
16049TIP3   OH249028   3.355  10.063   9.819  0.0687 -0.0089 -0.7381
16049TIP3    H149029   3.367   9.968   9.818 -0.5204 -0.0823 -1.1888
16049TIP3    H249030   3.276  10.077   9.871  0.3254  0.2559 -0.4161
16050TIP3   OH249031   3.109   4.752   2.696  0.0124  0.3023 -0.2057
16050TIP3    H149032   3.108   4.719   2.606  2.5159  1.0825 -0.6003
16050TIP3    H249033   3.181   4.705   2.738  0.2775  1.4904  0.7296
16051TIP3   OH249034   6.524   8.696   8.650  0.0903 -0.1181 -0.1268
16051TIP3    H149035   6.462   8.766   8.628 -1.4193 -0.9790  1.1293
16051TIP3    H249036   6.581   8.689   8.573 -3.0265 -1.0363 -2.5858
16052TIP3   OH249037   7.962   9.594   6.841 -0.6390 -0.1546 -0.1210
16052TIP3    H149038   7.975   9.525   6.906  0.3249 -1.4231 -1.5970
16052TIP3    H249039   7.982   9.553   6.758  0.0391  1.9497 -1.0692
16053TIP3   OH249040   9.410   6.208   1.493  0.1073  0.6512  0.3569
16053TIP3    H149041   9.327   6.228   1.449  0.7792  1.5574 -0.5379
16053TIP3    H249042   9.465   6.284   1.476  0.5352  0.8711  2.4906
16054TIP3   OH249043   1.357   7.667  10.457  0.0887  0.3833  0.1314
16054TIP3    H149044   1.442   7.702  10.484  0.5182  0.4309 -1.2066
16054TIP3    H249045   1.315   7.739  10.409  0.2643 -0.3650 -1.1773
16055TIP3   OH249046   1.210   2.172   0.202 -0.1307  0.1931 -0.3441
16055TIP3    H149047   1.276   2.185   0.134  0.6025 -0.2450  0.2590
16055TIP3    H249048   1.232   2.087   0.241  0.4030  1.0719  1.4084
16056TIP3   OH249049   0.139   1.826   0.222 -0.4822  0.7177  0.4228
16056TIP3    H149050   0.063   1.805   0.275  1.4762 -1.2721  2.7033
16056TIP3    H249051   0.154   1.919   0.237 -0.8906  0.5323  2.1930
16057TIP3   OH249052   1.756  10.367   8.698  0.1317  0.5259 -0.1215
16057TIP3    H149053   1.773  10.303   8.629 -1.4891  1.5526 -1.5530
16057TIP3    H249054   1.791  10.449   8.665  2.2034  0.4728  1.7031
16058TIP3   OH249055   0.323   8.402   0.719 -0.0319 -0.6250 -0.5649
16058TIP3    H149056   0.337   8.459   0.795 -2.3690 -1.1158  0.3193
16058TIP3    H249057   0.305   8.316   0.757  0.3676 -1.2713 -1.7725
16059TIP3   OH249058   8.590   3.918   3.383 -0.5261  0.3803  0.6278
16059TIP3    H149059   8.515   3.876   3.425 -1.2704 -0.8749 -1.7369
16059TIP3    H249060   8.659   3.851   3.384 -0.3687  0.5346  0.3603
16060TIP3   OH249061   8.821   6.393   8.840  0.3558 -0.1829  0.0626
16060TIP3    H149062   8.783   6.308   8.861  1.1095 -0.4052  0.5422
16060TIP3    H249063   8.876   6.414   8.915 -0.9100  1.3903  0.6146
16061TIP3   OH249064   5.514   1.828  10.124  0.3382 -0.0587 -0.1034
16061TIP3    H149065   5.537   1.911  10.167  0.1386  0.2875 -0.6481
16061TIP3    H249066   5.440   1.850  10.068  0.9320 -0.3704 -1.0369
16062TIP3   OH249067   4.417   0.083   6.679  0.0989 -0.6256 -0.4968
16062TIP3    H149068   4.501   0.062   6.719 -0.3187 -2.5284 -0.5039
16062TIP3    H249069   4.436   0.096   6.586  0.3974 -1.0357 -0.4960
16063TIP3   OH249070   1.785   1.055   0.394 -0.1847 -0.3076 -0.5983
16063TIP3    H149071   1.831   1.091   0.471  0.1958  1.5923 -1.6364
16063TIP3    H249072   1.697   1.034   0.426  0.4502 -1.0855  0.7097
16064TIP3   OH249073   0.297   2.612   6.692  0.2033 -0.4478 -0.0852
16064TIP3    H149074   0.324   2.690   6.740 -2.1140  0.6174 -0.3670
16064TIP3    H249075   0.373   2.554   6.694  1.4293  1.1321  1.5591
16065TIP3   OH249076   2.456   2.675   8.303  0.1269 -0.6449  0.5941
16065TIP3    H149077   2.507   2.735   8.358 -0.1768  0.3522 -0.1888
16065TIP3    H249078   2.507   2.594   8.303  1.2086  0.0184  0.6239
16066TIP3   OH249079   7.597   0.444  10.393 -0.1957 -0.5041 -0.1353
16066TIP3    H149080   7.682   0.464  10.433 -0.5780 -0.2751  0.5725
16066TIP3    H249081   7.567   0.527  10.357 -0.6014 -0.3540  0.5422
16067TIP3   OH249082   5.475   4.208   4.900 -0.3317  0.6626  0.4147
16067TIP3    H149083   5.392   4.228   4.858 -0.4715 -0.4962  0.1213
16067TIP3    H249084   5.505   4.292   4.935 -1.2522  1.2280 -0.1308
16068TIP3   OH249085   9.320   1.472   1.271  0.0148 -0.1298  0.5771
16068TIP3    H149086   9.234   1.508   1.291  0.0581  0.2055  0.1739
16068TIP3    H249087   9.330   1.486   1.176 -0.6271 -2.5824  0.0587
16069TIP3   OH249088   4.558   0.027   8.940 -0.0712 -0.4013 -0.0163
16069TIP3    H149089   4.506   0.090   8.890  0.7019  0.1646 -0.1229
16069TIP3    H249090   4.634   0.077   8.969 -0.4265 -0.7570  1.6007
16070TIP3   OH249091  10.331   1.489   3.945 -0.6903  0.2603  0.0739
16070TIP3    H149092  10.326   1.445   4.030  1.2234 -2.0242 -0.8781
16070TIP3    H249093  10.251   1.461   3.899 -0.7296 -0.1927  0.4048
16071TIP3   OH249094   2.353   8.630   2.552  0.5653 -0.0291  0.5271
16071TIP3    H149095   2.367   8.586   2.636  0.3427  0.6684  0.9395
16071TIP3    H249096   2.298   8.569   2.503 -0.6548  0.2396  1.5044
16072TIP3   OH249097   6.829   3.238   6.907 -0.7071 -0.1921 -0.7483
16072TIP3    H149098   6.764   3.288   6.955 -1.7586 -0.5115 -1.8074
16072TIP3    H249099   6.820   3.267   6.816  0.7916 -0.0803 -0.8936
16073TIP3   OH249100  10.022   5.308   3.955 -0.2603  0.4191  0.2166
16073TIP3    H149101   9.997   5.390   3.913 -1.6076  0.7116  1.5018
16073TIP3    H249102  10.117   5.314   3.968 -0.2270  1.3963 -0.4686
16074TIP3   OH249103   4.455   9.881   5.221  0.6513 -0.5692  0.4235
16074TIP3    H149104   4.504   9.801   5.238  0.8048 -0.8728 -1.2466
16074TIP3    H249105   4.488   9.944   5.284  1.8784 -1.3045  0.5370
16075TIP3   OH249106   7.160   4.290   7.098 -0.1974 -0.2668  0.3779
16075TIP3    H149107   7.232   4.337   7.140  1.2586 -1.4978 -0.6482
16075TIP3    H249108   7.160   4.204   7.141  0.1423 -0.8986 -0.8346
16076TIP3   OH249109  10.770   3.114   5.714 -0.5038  0.0281 -0.1858
16076TIP3    H149110  10.833   3.061   5.765  0.0672  0.1450 -0.7586
16076TIP3    H249111  10.795   3.099   5.623 -0.4077  1.1909 -0.3629
16077TIP3   OH249112   1.205   8.810   9.835 -0.0503 -0.3621 -0.1023
16077TIP3    H149113   1.255   8.889   9.815 -0.5676 -0.0635 -0.2337
16077TIP3    H249114   1.186   8.818   9.929 -1.8794  0.7199 -0.5253
16078TIP3   OH249115   0.167   5.584   1.489 -0.1847 -0.1036 -0.3286
16078TIP3    H149116   0.167   5.641   1.412 -0.2380 -0.3172 -0.4883
16078TIP3    H249117   0.219   5.509   1.463 -1.0484 -0.6522 -0.5111
16079TIP3   OH249118   2.454  10.372   6.956 -0.4204 -0.4373 -0.0294
16079TIP3    H149119   2.483  10.281   6.950  2.6113  0.2107  2.1723
16079TIP3    H249120   2.397  10.374   7.033 -0.7472 -0.5209 -0.2682
16080TIP3   OH249121   3.141   9.871   4.333  0.6053 -0.3133  0.3919
16080TIP3    H149122   3.234   9.863   4.310  0.3705  0.3182 -0.8738
16080TIP3    H249123   3.103   9.787   4.308  0.2418  0.5533 -2.2932
16081TIP3   OH249124   2.665   4.800   8.772 -0.0011  0.2591  0.3518
16081TIP3    H149125   2.591   4.824   8.828 -0.4846  0.4887 -0.3724
16081TIP3    H249126   2.669   4.704   8.777 -0.0014  0.2802  0.8195
16082TIP3   OH249127  10.907   0.162   4.243 -0.0556 -0.5722 -0.4615
16082TIP3    H149128  10.847   0.201   4.307  0.7298  0.5212 -0.3679
16082TIP3    H249129  10.982   0.221   4.242  2.7410 -3.7083  2.0506
16083TIP3   OH249130   8.260   9.939   6.019  0.0594  0.5158  0.0149
16083TIP3    H149131   8.319   9.949   5.944 -0.2813  1.4690 -0.1422
16083TIP3    H249132   8.272  10.019   6.070 -1.8854  1.2725 -0.6107
16084TIP3   OH249133   4.028   8.079   9.868  0.0457 -0.1721 -0.0242
16084TIP3    H149134   4.009   8.005   9.926 -1.9418 -0.2757 -0.7393
16084TIP3    H249135   4.039   8.039   9.782  0.1425  0.2588 -0.2143
16085TIP3   OH249136   6.772   4.652   9.587 -0.3945 -0.1816  0.1345
16085TIP3    H149137   6.690   4.698   9.570 -0.1658  1.3421  2.6674
16085TIP3    H249138   6.747   4.560   9.595 -1.6372  0.0913 -0.3966
16086TIP3   OH249139   8.093   6.197   0.198  0.2686 -0.1183  0.7172
16086TIP3    H149140   8.031   6.167   0.264  0.9585  0.0823  1.4816
16086TIP3    H249141   8.123   6.117   0.155 -0.1147 -0.2603  0.7157
16087TIP3   OH249142   2.037  10.411   2.330 -0.1962  0.2282  0.0229
16087TIP3    H149143   1.980  10.450   2.265 -0.4854  0.1327  0.2175
16087TIP3    H249144   2.126  10.434   2.301 -0.2293 -1.2017 -1.3038
16088TIP3   OH249145   8.790  10.683  10.599  0.3976  0.4202 -0.1840
16088TIP3    H149146   8.741  10.751  10.645  0.7738  0.8775 -0.4496
16088TIP3    H249147   8.875  10.722  10.583  0.3737  0.1559 -0.9943
16089TIP3   OH249148   7.381   0.580   8.683 -0.2086  0.0394  0.2939
16089TIP3    H149149   7.287   0.560   8.680 -0.3087  0.5660 -0.2785
16089TIP3    H249150   7.406   0.564   8.774 -0.7228 -0.6977  0.3179
16090TIP3   OH249151   1.113   0.049  10.510  0.3154  0.1651 -0.0150
16090TIP3    H149152   1.070  -0.037  10.514  1.1397 -0.2773 -0.3737
16090TIP3    H249153   1.114   0.071  10.417  0.7837  0.2131  0.0027
16091TIP3   OH249154   9.616   6.801   3.610 -0.8077 -0.4457  0.0967
16091TIP3    H149155   9.663   6.718   3.600  0.9218  0.2755  1.6416
16091TIP3    H249156   9.670   6.864   3.562 -1.2468  0.0739  0.2843
16092TIP3   OH249157  10.628   8.826   9.362 -0.5998 -0.3618  0.1320
16092TIP3    H149158  10.543   8.861   9.392 -0.8233 -0.4737 -0.3735
16092TIP3    H249159  10.646   8.754   9.422 -0.0090  0.7648  1.3603
16093TIP3   OH249160  10.421   5.356  10.375  0.1279 -0.4375  0.1120
16093TIP3    H149161  10.458   5.340  10.462 -2.0925 -0.5151  1.1011
16093TIP3    H249162  10.399   5.270  10.341  1.2885 -0.4371 -0.7217
16094TIP3   OH249163   1.025   7.993   2.076 -0.2898 -0.5090 -0.0723
16094TIP3    H149164   0.932   8.001   2.054 -0.5568 -2.0582  0.3628
16094TIP3    H249165   1.028   8.001   2.171  0.0488 -0.3021 -0.0978
16095TIP3   OH249166   2.527   0.309   3.763  0.3260  0.4749 -0.1284
16095TIP3    H149167   2.590   0.335   3.829 -0.0438 -0.1253  0.4711
16095TIP3    H249168   2.444   0.348   3.791  0.0251 -0.3337  0.1292
16096TIP3   OH249169   2.270   4.414   1.953  0.1401  0.6324 -0.2562
16096TIP3    H149170   2.264   4.392   2.046  3.2777  1.8505  0.3644
16096TIP3    H249171   2.217   4.493   1.944 -1.3603 -0.2984  0.1359
16097TIP3   OH249172   2.149   7.427   1.807  0.0955 -0.3944  0.3355
16097TIP3    H149173   2.148   7.522   1.797 -0.8302 -0.3919  0.3667
16097TIP3    H249174   2.203   7.412   1.885 -0.1167  0.1338  0.5942
16098TIP3   OH249175   5.978   6.831   2.981 -0.1637  0.1668  0.0012
16098TIP3    H149176   5.977   6.744   3.022 -2.8493 -0.0430 -0.2971
16098TIP3    H249177   5.992   6.891   3.054 -0.8436 -0.4116  0.6292
16099TIP3   OH249178   6.278  10.017   5.075 -0.0073 -0.4768 -0.5276
16099TIP3    H149179   6.357  10.066   5.097  0.4076 -1.0875 -0.6272
16099TIP3    H249180   6.302   9.968   4.996 -1.0349  0.6279 -1.5674
16100TIP3   OH249181   5.610  10.854   7.932  0.3751 -0.0993  0.0440
16100TIP3    H149182   5.520  10.821   7.942  0.5169 -0.6030 -0.3427
16100TIP3    H249183   5.639  10.869   8.022  0.9525 -2.7822  0.4056
16101TIP3   OH249184  10.428   3.773   0.466  0.3495 -0.3951  0.1074
16101TIP3    H149185  10.409   3.811   0.380  0.0409  2.1076  1.1930
16101TIP3    H249186  10.520   3.746   0.461 -0.3458 -2.7080 -1.7668
16102TIP3   OH249187   3.606   4.758   9.997 -0.2037 -0.3160 -1.1315
16102TIP3    H149188   3.616   4.692  10.066 -0.6425 -0.7014 -1.4245
16102TIP3    H249189   3.511   4.770   9.990 -0.1063  0.9553 -0.5218
16103TIP3   OH249190   5.462   2.520  10.317  0.1089  0.1467 -0.0715
16103TIP3    H149191   5.436   2.612  10.323  1.6819  0.8471 -2.5599
16103TIP3    H249192   5.558   2.522  10.324  0.0614 -1.5789  1.9373
16104TIP3   OH249193  10.400   3.290   5.190 -0.0450  0.2656 -0.1621
16104TIP3    H149194  10.481   3.323   5.151 -0.8067  0.5345 -1.6068
16104TIP3    H249195  10.342   3.366   5.193 -0.2202  0.1080  0.9800
16105TIP3   OH249196   4.274   0.846   5.807 -0.2157  0.2642  0.5616
16105TIP3    H149197   4.288   0.940   5.820 -1.4759  0.3971  1.0981
16105TIP3    H249198   4.211   0.841   5.735  1.3251 -0.2594 -0.8195
16106TIP3   OH249199   3.777   5.719  10.671  0.0345 -0.0718 -0.1166
16106TIP3    H149200   3.840   5.678  10.611 -0.2161 -0.3873 -0.1674
16106TIP3    H249201   3.780   5.812  10.649 -0.2508 -0.2195 -0.8127
16107TIP3   OH249202   8.013  10.833   6.149 -0.4372 -0.1777  0.3366
16107TIP3    H149203   7.949  10.764   6.137 -0.4594 -0.3368  1.2608
16107TIP3    H249204   8.059  10.809   6.230 -0.4793  0.8995  0.7024
16108TIP3   OH249205   1.542   6.732   5.086  0.1702 -0.1278 -0.1700
16108TIP3    H149206   1.582   6.711   5.170  0.7848  2.0905  0.1535
16108TIP3    H249207   1.531   6.647   5.043  0.6562 -1.2363  1.7587
16109TIP3   OH249208   1.294   5.351  10.256  0.3202 -0.1288 -0.0204
16109TIP3    H149209   1.231   5.344  10.184  0.6244 -1.5221 -0.1832
16109TIP3    H249210   1.379   5.344  10.214  0.5495  0.4714  0.3367
16110TIP3   OH249211   5.539   5.548   0.282 -0.2205 -0.2579 -0.4404
16110TIP3    H149212   5.548   5.457   0.254 -0.3056  0.2244 -2.1191
16110TIP3    H249213   5.486   5.589   0.214 -1.4968  0.7114  1.0589
16111TIP3   OH249214   3.397   4.424   2.261 -0.1002 -0.1371  0.4361
16111TIP3    H149215   3.403   4.352   2.323  0.5765  1.1905  1.9808
16111TIP3    H249216   3.423   4.501   2.311  1.1468  0.9120 -1.6712
16112TIP3   OH249217   5.049   2.479   5.469 -0.4855 -0.3073 -0.0188
16112TIP3    H149218   5.125   2.462   5.525 -0.1902 -0.0286 -0.3287
16112TIP3    H249219   4.995   2.540   5.519 -0.4480 -0.4163  0.1545
16113TIP3   OH249220   9.391   4.390   9.797  0.7375  0.1531  0.5741
16113TIP3    H149221   9.324   4.413   9.861 -0.5714 -0.1201 -0.6465
16113TIP3    H249222   9.458   4.457   9.808 -0.7941  1.8215  0.3087
16114TIP3   OH249223   8.392   5.767   9.298  0.1969  0.2131 -0.1531
16114TIP3    H149224   8.408   5.750   9.391  1.5798 -0.0386 -0.4263
16114TIP3    H249225   8.349   5.687   9.267  1.1582 -0.3401 -0.0739
16115TIP3   OH249226   0.313   0.846   2.293  0.9221  0.3624  0.8369
16115TIP3    H149227   0.218   0.830   2.290  0.8917  0.4079 -3.0227
16115TIP3    H249228   0.321   0.928   2.342 -1.4057  1.9730 -1.2063
16116TIP3   OH249229   4.283   2.167   3.385 -0.2356  0.3649  0.0785
16116TIP3    H149230   4.319   2.098   3.440 -0.4962 -0.1556 -0.3843
16116TIP3    H249231   4.194   2.138   3.365 -1.9790  2.8180  3.2961
16117TIP3   OH249232   9.462   2.444   3.670 -0.1348  0.4278  0.0506
16117TIP3    H149233   9.466   2.355   3.634 -1.5335  0.9524 -1.5093
16117TIP3    H249234   9.519   2.495   3.613  2.8040  0.1630  2.4675
16118TIP3   OH249235   9.734   1.055   8.541 -0.1206  0.0048  0.2137
16118TIP3    H149236   9.821   1.093   8.532 -0.4065  1.2241  2.0488
16118TIP3    H249237   9.740   0.969   8.499  2.4414 -0.6682  1.7647
16119TIP3   OH249238   9.794   2.735   6.461  0.2713 -0.2125  0.0998
16119TIP3    H149239   9.833   2.696   6.540  0.2109 -0.6509 -0.0866
16119TIP3    H249240   9.780   2.827   6.485  0.5379 -0.2704  0.4962
16120TIP3   OH249241   5.131   3.224  10.567  0.0310 -0.2125  0.3741
16120TIP3    H149242   5.181   3.156  10.611  0.3144 -1.2695 -1.4896
16120TIP3    H249243   5.178   3.239  10.485 -0.5998  1.5157  0.2912
16121TIP3   OH249244   5.605   9.475   9.973 -0.2396 -0.5351  0.3111
16121TIP3    H149245   5.557   9.434  10.045  0.9606 -0.1989  1.3237
16121TIP3    H249246   5.629   9.401   9.916  0.9405 -1.1501  1.5471
16122TIP3   OH249247   7.373   4.282   3.268  0.5083  0.8603  0.0360
16122TIP3    H149248   7.448   4.286   3.209 -0.1589 -1.0064 -1.0234
16122TIP3    H249249   7.310   4.344   3.231 -0.1977 -0.8098 -1.7520
16123TIP3   OH249250  10.728   8.805   8.856  0.3770  0.3645 -0.1447
16123TIP3    H149251  10.711   8.758   8.937  0.7957  1.8562  0.8442
16123TIP3    H249252  10.740   8.896   8.882 -2.0038  1.3677 -2.1598
16124TIP3   OH249253   5.170   9.801   0.274 -0.3249 -0.5427 -0.3990
16124TIP3    H149254   5.130   9.755   0.348 -1.3743 -1.6127 -1.5801
16124TIP3    H249255   5.130   9.761   0.197  0.1728  1.0696 -1.5347
16125TIP3   OH249256   2.173  10.546   3.378  0.0856 -0.0560 -0.2719
16125TIP3    H149257   2.156  10.597   3.457 -1.1513 -0.2944 -0.3672
16125TIP3    H249258   2.227  10.603   3.323 -0.6279  0.8500 -0.0506
16126TIP3   OH249259   5.777   0.577   8.513  0.1577  0.4120  0.3702
16126TIP3    H149260   5.804   0.530   8.592  2.8332  1.6477  0.2720
16126TIP3    H249261   5.716   0.643   8.544  0.5379  0.3455  1.2790
16127TIP3   OH249262   2.526   9.448   9.848 -0.2074 -0.0156 -0.0256
16127TIP3    H149263   2.560   9.450   9.759 -1.2308 -0.1605 -0.4406
16127TIP3    H249264   2.570   9.375   9.890  1.6134  1.1295  0.1616
16128TIP3   OH249265   5.146   7.531   9.346  0.4393  0.9162  0.2281
16128TIP3    H149266   5.123   7.519   9.254  2.5903  2.4431 -0.6065
16128TIP3    H249267   5.066   7.511   9.395 -0.9294  0.6797 -2.0015
16129TIP3   OH249268   9.113   4.001  10.546 -0.5628 -0.2715 -0.6557
16129TIP3    H149269   9.058   3.922  10.546 -1.2660  0.1916 -1.8802
16129TIP3    H249270   9.190   3.976  10.597 -1.7300 -1.0548  0.8215
16130TIP3   OH249271   4.166   3.439   8.008  0.0908 -0.3739 -0.5321
16130TIP3    H149272   4.154   3.379   8.081  0.4658 -2.2238 -1.9285
16130TIP3    H249273   4.261   3.450   8.001  0.0059  0.9740  0.1409
16131TIP3   OH249274   5.491   9.020   9.262  0.3522 -0.0219 -0.0530
16131TIP3    H149275   5.454   9.006   9.175  0.0288  0.1873  0.0466
16131TIP3    H249276   5.572   8.970   9.262 -0.1144 -0.8094 -0.1590
16132TIP3   OH249277   8.179   7.281   2.074  0.3895  0.6346 -0.2965
16132TIP3    H149278   8.187   7.273   2.169 -0.6521  0.2492 -0.2296
16132TIP3    H249279   8.237   7.353   2.051  1.6725 -0.1128  0.4670
16133TIP3   OH249280   8.372   9.324   7.497 -0.1494  0.1871 -0.2389
16133TIP3    H149281   8.391   9.267   7.571 -1.3327  0.2203  0.1206
16133TIP3    H249282   8.372   9.266   7.421 -2.3123 -0.5356  0.2409
16134TIP3   OH249283   3.470   9.443   4.495 -0.1962 -0.5894  0.0155
16134TIP3    H149284   3.465   9.537   4.475  0.0846 -0.9961 -2.2295
16134TIP3    H249285   3.562   9.429   4.520 -0.0638 -0.3984 -0.3628
16135TIP3   OH249286   2.133   4.461   4.521  0.6667  0.3705  0.5657
16135TIP3    H149287   2.138   4.367   4.541  2.1356  0.1638 -0.6136
16135TIP3    H249288   2.078   4.465   4.442  1.0397  0.4360  0.3060
16136TIP3   OH249289   7.689   5.185   1.609  0.1923  0.5831 -0.0218
16136TIP3    H149290   7.624   5.183   1.538  0.8226 -0.8324 -0.6078
16136TIP3    H249291   7.767   5.145   1.570  1.1352  1.4387  0.9447
16137TIP3   OH249292   8.318   7.172   5.095  0.2595  0.4227 -0.3309
16137TIP3    H149293   8.309   7.169   5.190 -1.4167 -1.1262 -0.4765
16137TIP3    H249294   8.271   7.250   5.068  0.5563  0.7491  0.0907
16138TIP3   OH249295   7.315   9.643   1.729  0.4111 -0.6981 -0.0154
16138TIP3    H149296   7.227   9.646   1.765  0.4758 -1.6500  0.2464
16138TIP3    H249297   7.356   9.568   1.772  1.7304  0.4138  0.7529
16139TIP3   OH249298   2.198  10.724   0.461  0.0061 -0.0060  0.9703
16139TIP3    H149299   2.182  10.740   0.368  1.0990  1.7754  1.0477
16139TIP3    H249300   2.265  10.656   0.463 -2.5320 -2.7069  0.5772
16140TIP3   OH249301   4.265   0.439   6.023  0.7151 -0.0800  0.5204
16140TIP3    H149302   4.295   0.528   6.042  2.6254 -0.6975  0.6396
16140TIP3    H249303   4.330   0.404   5.961  0.1545 -1.4669  0.6739
16141TIP3   OH249304   5.704   9.209   9.389 -0.5801 -0.2933 -0.2976
16141TIP3    H149305   5.684   9.135   9.446  0.1673 -1.3562 -1.3738
16141TIP3    H249306   5.758   9.172   9.319  2.5087  1.8221  0.7465
16142TIP3   OH249307   6.891   7.914   3.222  0.7062 -0.5866 -0.6383
16142TIP3    H149308   6.929   7.916   3.135 -2.7982 -1.6441 -2.3937
16142TIP3    H249309   6.798   7.933   3.208  0.0237 -0.5655  2.9221
16143TIP3   OH249310   1.389   5.945   9.318  0.8186 -0.3449 -0.1955
16143TIP3    H149311   1.331   5.939   9.242  0.2282  0.9209  0.1297
16143TIP3    H249312   1.465   5.993   9.286  1.1320 -0.8978 -0.2939
16144TIP3   OH249313   0.818   4.215   0.961  0.2684 -0.0246 -0.6212
16144TIP3    H149314   0.903   4.258   0.947  0.7318 -0.6002  0.2760
16144TIP3    H249315   0.796   4.177   0.876  0.9932  0.0037 -0.8339
16145TIP3   OH249316  10.773   3.819   1.350  0.5784  0.0421  0.1274
16145TIP3    H149317  10.802   3.728   1.352 -1.2012 -0.5807  2.4782
16145TIP3    H249318  10.689   3.816   1.305  0.9392  0.7089 -0.6169
16146TIP3   OH249319   0.544   0.649   0.966  0.0671 -0.2108  0.2061
16146TIP3    H149320   0.567   0.741   0.979 -0.9178  0.0397  0.2243
16146TIP3    H249321   0.519   0.618   1.053 -0.5598 -0.2257  0.0219
16147TIP3   OH249322   8.033   8.503   7.834  0.3636 -0.0736  0.3754
16147TIP3    H149323   7.974   8.573   7.806  0.4656 -0.8969 -2.1675
16147TIP3    H249324   8.117   8.547   7.848  0.3017  0.4137 -0.6882
16148TIP3   OH249325  10.802   3.198   2.003  0.3209  0.0650  0.2418
16148TIP3    H149326  10.795   3.114   2.048 -0.1593  1.3142  2.6603
16148TIP3    H249327  10.779   3.263   2.070  2.0825  2.2331 -1.1233
16149TIP3   OH249328   8.258   2.595   5.051 -0.4839 -0.0433  0.1017
16149TIP3    H149329   8.187   2.606   5.114 -1.0879 -0.6414 -0.4573
16149TIP3    H249330   8.246   2.507   5.016  0.2160  0.0488 -0.3930
16150TIP3   OH249331  10.750   6.063   1.820 -0.1206 -0.2136 -0.3165
16150TIP3    H149332  10.738   6.152   1.787  2.1828 -0.2958 -1.5554
16150TIP3    H249333  10.744   6.007   1.742 -3.1280 -1.3982  0.6398
16151TIP3   OH249334  10.003   8.538   8.176  0.7207  0.3023  0.9144
16151TIP3    H149335  10.019   8.500   8.090 -2.2734  2.0104 -0.5873
16151TIP3    H249336  10.022   8.468   8.238  0.2232 -1.9553 -1.3470
16152TIP3   OH249337   2.775   2.986   1.698 -0.1795 -0.3301  0.2180
16152TIP3    H149338   2.852   2.989   1.755 -1.4057  0.3889  1.9102
16152TIP3    H249339   2.769   3.074   1.661 -0.8105 -0.0335  0.9934
16153TIP3   OH249340   9.690   7.922   0.542  0.1062 -0.2242 -0.3898
16153TIP3    H149341   9.764   7.869   0.571  0.1018  0.3397  0.6906
16153TIP3    H249342   9.617   7.895   0.598  0.2332  1.2605  0.5438
16154TIP3   OH249343   2.722   4.616   9.661 -0.2698  0.2214 -0.0592
16154TIP3    H149344   2.752   4.703   9.634  2.3593  0.0259  1.8027
16154TIP3    H249345   2.667   4.633   9.737 -0.8314  0.3202 -0.4851
16155TIP3   OH249346   3.472   8.054  10.611  0.2671 -0.4511 -0.3113
16155TIP3    H149347   3.484   8.055  10.706  0.5176 -0.4021 -0.3432
16155TIP3    H249348   3.440   7.966  10.591 -0.6543 -0.1834 -0.0802
16156TIP3   OH249349   1.711   9.121  10.906 -0.0719  0.3254  0.4511
16156TIP3    H149350   1.693   9.058  10.976 -0.4325  2.7635  2.6931
16156TIP3    H249351   1.624   9.144  10.872  0.1058 -0.9155 -0.9510
16157TIP3   OH249352   8.134   9.334   5.421 -0.0429 -0.4880  0.0815
16157TIP3    H149353   8.069   9.330   5.351 -2.3912 -1.3309  2.1710
16157TIP3    H249354   8.171   9.246   5.425  0.4196 -0.3143 -0.3919
16158TIP3   OH249355   2.136   8.577   3.571  0.6644 -0.0553 -0.6092
16158TIP3    H149356   2.211   8.550   3.624 -0.3060 -0.8076  0.4269
16158TIP3    H249357   2.069   8.602   3.635  0.0049  0.5547 -1.5121
16159TIP3   OH249358   5.380   4.547   8.895  0.4782 -0.0901 -0.4561
16159TIP3    H149359   5.353   4.541   8.803  0.3849 -0.2976 -0.4161
16159TIP3    H249360   5.306   4.587   8.940  0.8516  0.8037 -0.6115
16160TIP3   OH249361   8.466   5.733   1.897  0.2479  0.5525 -0.1546
16160TIP3    H149362   8.445   5.659   1.841  2.4545 -0.0441 -0.2712
16160TIP3    H249363   8.459   5.699   1.986  0.7400  0.3562 -0.1914
16161TIP3   OH249364   0.791   1.426   7.812 -0.2872  0.2649  0.5295
16161TIP3    H149365   0.879   1.399   7.839 -0.5427 -0.8713  0.2778
16161TIP3    H249366   0.798   1.437   7.717  0.6308  4.3191  0.8704
16162TIP3   OH249367   3.668  10.348   1.271  0.8677  0.3326  0.3587
16162TIP3    H149368   3.604  10.364   1.340  0.6785  0.1955  0.2179
16162TIP3    H249369   3.656  10.256   1.248  0.3205  0.6059 -0.4681
16163TIP3   OH249370   1.772   9.474   7.081 -0.1804  0.0338  0.2485
16163TIP3    H149371   1.796   9.381   7.086 -1.0292 -0.1379  1.7944
16163TIP3    H249372   1.689   9.480   7.128  0.3340  1.7341  1.0199
16164TIP3   OH249373   5.230   2.587   0.871 -0.2818 -0.2603  1.0659
16164TIP3    H149374   5.135   2.594   0.878 -0.2344  0.4717  1.0986
16164TIP3    H249375   5.256   2.661   0.816  0.2928 -0.2851  1.2886
16165TIP3   OH249376   4.800   6.544   7.319  0.0114 -0.9317 -0.1443
16165TIP3    H149377   4.754   6.625   7.297 -0.6561 -1.1697  0.3345
16165TIP3    H249378   4.747   6.474   7.279  0.8205 -1.1128 -0.9312
16166TIP3   OH249379   7.194   0.999   0.850 -0.0748 -0.3885 -0.0937
16166TIP3    H149380   7.252   1.062   0.892 -0.5497  0.2574 -0.4069
16166TIP3    H249381   7.105   1.030   0.870 -0.3186 -1.0911 -0.0410
16167TIP3   OH249382   5.977   7.474   3.519  0.0538  0.3746 -0.0279
16167TIP3    H149383   6.030   7.552   3.504  0.5384  0.1286  0.4283
16167TIP3    H249384   5.965   7.436   3.431 -1.0464  1.5054 -0.4006
16168TIP3   OH249385   4.590   1.085   2.461  0.4972 -0.3705 -0.0749
16168TIP3    H149386   4.536   1.008   2.480  1.3822 -1.2705 -1.0866
16168TIP3    H249387   4.672   1.049   2.426  1.4372  0.9856  0.6243
16169TIP3   OH249388   8.009  10.782   7.489 -0.4194 -0.4690 -0.6218
16169TIP3    H149389   8.006  10.851   7.422  0.0362 -1.6161 -1.8725
16169TIP3    H249390   8.026  10.702   7.440  1.2270 -1.1793  1.0160
16170TIP3   OH249391   9.304   5.452   0.668 -0.3209 -0.0656  0.4284
16170TIP3    H149392   9.276   5.423   0.581 -1.1431  0.8828  0.3510
16170TIP3    H249393   9.345   5.375   0.708  0.1781 -0.4746 -0.8443
16171TIP3   OH249394   1.204   4.036   4.593  0.0849  0.2463 -0.2434
16171TIP3    H149395   1.211   3.989   4.676  1.7545  1.1954  0.2096
16171TIP3    H249396   1.239   3.975   4.528  0.0582  0.0056 -0.0346
16172TIP3   OH249397   7.792   3.665   0.926  0.1766  0.2819 -0.0734
16172TIP3    H149398   7.822   3.614   0.851 -1.5636 -1.3863  0.2774
16172TIP3    H249399   7.865   3.662   0.988 -0.1900 -2.8749  0.3998
16173TIP3   OH249400   2.645   3.618   0.886  0.6861  0.3008  0.3763
16173TIP3    H149401   2.594   3.650   0.960  0.8015  1.5660 -0.0693
16173TIP3    H249402   2.685   3.696   0.849  0.3268 -0.2467 -1.2569
16174TIP3   OH249403   9.514   7.987   2.800 -0.5579 -0.0593 -0.1379
16174TIP3    H149404   9.590   8.029   2.759  1.1485 -0.5008  2.3056
16174TIP3    H249405   9.508   8.028   2.887 -1.7295 -1.5979  0.5575
16175TIP3   OH249406   4.100   3.455   6.152 -0.7726  0.0182 -0.0528
16175TIP3    H149407   4.044   3.383   6.122 -0.7634 -0.6652  1.4819
16175TIP3    H249408   4.162   3.468   6.080 -1.0946 -1.1689 -0.5819
16176TIP3   OH249409   2.170   6.646   9.830 -0.2474  0.3459  0.0451
16176TIP3    H149410   2.139   6.657   9.920  1.5753  0.5055  0.6929
16176TIP3    H249411   2.144   6.727   9.786  0.0531  0.8702  0.8074
16177TIP3   OH249412   6.315   6.144   1.120  0.3455  0.5610 -0.3631
16177TIP3    H149413   6.243   6.105   1.170 -0.1321 -1.3263 -2.3748
16177TIP3    H249414   6.352   6.209   1.179 -0.2924 -1.3775  2.3676
16178TIP3   OH249415   3.677   7.815  10.145  0.1668 -0.0989 -0.2125
16178TIP3    H149416   3.683   7.721  10.130 -2.2232 -0.2177 -0.9022
16178TIP3    H249417   3.682   7.825  10.240  2.4859 -0.6528 -0.2086
16179TIP3   OH249418  10.742   5.059   6.915  0.2928  0.3050 -0.1080
16179TIP3    H149419  10.753   5.154   6.929  0.5760  0.0430  1.7381
16179TIP3    H249420  10.647   5.046   6.917  0.2362  0.5813 -0.7065
16180TIP3   OH249421   4.794   8.837   6.245 -0.1150 -0.4197  0.1952
16180TIP3    H149422   4.827   8.782   6.174  1.6411  1.6272 -0.6785
16180TIP3    H249423   4.867   8.844   6.306 -0.5400  0.3660  0.6305
16181TIP3   OH249424   7.576   8.008  10.614  0.3908 -0.2749  0.2164
16181TIP3    H149425   7.481   8.021  10.617  0.4805  0.3660  0.4847
16181TIP3    H249426   7.588   7.929  10.561 -0.3432 -0.9888  1.0738
16182TIP3   OH249427   3.848   6.189   4.248  0.3137  0.3130  0.7056
16182TIP3    H149428   3.877   6.160   4.334 -0.7449 -0.2898  0.8708
16182TIP3    H249429   3.919   6.247   4.217  0.6654  0.5987  1.9961
16183TIP3   OH249430   9.700   7.265   4.961 -0.0280  0.1548 -0.0704
16183TIP3    H149431   9.791   7.237   4.958  0.3582  1.4345 -1.8012
16183TIP3    H249432   9.697   7.331   5.031  0.0497 -0.8468  0.8991
16184TIP3   OH249433   8.648   3.531   9.014  0.3409  0.0109 -0.7400
16184TIP3    H149434   8.740   3.525   8.988  0.4802 -0.1121 -0.2310
16184TIP3    H249435   8.636   3.458   9.075  0.4645  1.2706  0.8409
16185TIP3   OH249436   0.943   0.958   6.710 -0.6057 -0.1860  0.1586
16185TIP3    H149437   0.908   0.895   6.774  2.4596 -1.0696  1.1068
16185TIP3    H249438   0.994   0.904   6.649  1.3117  1.2432  0.4288
16186TIP3   OH249439   4.792   7.347   5.150  0.4418  0.0743 -0.2859
16186TIP3    H149440   4.705   7.371   5.120 -0.6531 -2.1135  0.9170
16186TIP3    H249441   4.799   7.384   5.238  1.3691  1.5255 -0.9314
16187TIP3   OH249442   1.722   4.562   6.772 -0.0414  0.0227 -0.0234
16187TIP3    H149443   1.682   4.627   6.715 -0.6607 -2.1415 -2.2660
16187TIP3    H249444   1.815   4.565   6.750  0.1242  0.9324  0.7608
16188TIP3   OH249445   3.446   7.188  10.887  0.2207 -0.1416 -0.2531
16188TIP3    H149446   3.364   7.146  10.864 -0.2249  0.4966  0.1371
16188TIP3    H249447   3.505   7.116  10.911 -0.2018 -0.6013 -0.5928
16189TIP3   OH249448   5.334   2.734   1.233 -0.4442  0.3095 -0.3954
16189TIP3    H149449   5.406   2.773   1.183  0.9212 -0.0251  1.1972
16189TIP3    H249450   5.338   2.778   1.318 -0.0819 -1.8619  0.8031
16190TIP3   OH249451   5.818   9.093   9.170  0.1218  0.4460 -0.4201
16190TIP3    H149452   5.791   9.018   9.117 -1.3037  1.3503 -1.0230
16190TIP3    H249453   5.855   9.155   9.106  0.6483  0.5504 -0.0224
16191TIP3   OH249454   2.328   2.100   6.166 -0.2344  0.2461  0.1273
16191TIP3    H149455   2.364   2.182   6.200 -0.1943  0.7210 -1.0482
16191TIP3    H249456   2.289   2.058   6.243  1.3240  0.5088  1.1111
16192TIP3   OH249457   1.123   7.984   5.598  0.3569  0.0914 -0.2794
16192TIP3    H149458   1.098   8.061   5.650 -0.2655  0.0378 -0.4858
16192TIP3    H249459   1.074   7.994   5.516  2.5767  1.0577 -1.5936
16193TIP3   OH249460   4.457   4.911  10.248  0.0213 -0.2142  0.2352
16193TIP3    H149461   4.548   4.881  10.244  1.2630  3.2678 -1.8781
16193TIP3    H249462   4.407   4.842  10.206  2.2498 -0.6851 -1.8817
16194TIP3   OH249463   2.483   2.407   2.985  0.2188 -0.3298 -0.5891
16194TIP3    H149464   2.426   2.430   2.912  0.8559 -1.0464 -1.3303
16194TIP3    H249465   2.492   2.489   3.035 -0.7657 -0.0072 -0.9245
16195TIP3   OH249466   1.571  10.378   7.985 -0.1709  0.0571 -0.5242
16195TIP3    H149467   1.562  10.311   7.918 -2.4212 -0.2379  0.0133
16195TIP3    H249468   1.664  10.374   8.010 -0.1612 -2.6949 -0.6864
16196TIP3   OH249469   1.023   3.604   3.721 -0.3070 -0.4386  0.6431
16196TIP3    H149470   1.115   3.606   3.749 -0.4661 -2.4929  1.5413
16196TIP3    H249471   0.991   3.692   3.740  0.8654 -0.3495  2.6110
16197TIP3   OH249472   9.824  10.306   9.267 -0.3806 -0.6136  0.2987
16197TIP3    H149473   9.781  10.285   9.349  0.5162 -1.9426  0.4570
16197TIP3    H249474   9.913  10.331   9.291 -0.2551 -0.5223 -0.2293
16198TIP3   OH249475   8.270   4.202   7.834  0.2480 -0.2823  0.3211
16198TIP3    H149476   8.361   4.223   7.810  0.2849 -0.8165 -0.0055
16198TIP3    H249477   8.218   4.265   7.783  0.4349  0.0978  0.5912
16199TIP3   OH249478  10.343   6.888   9.602 -0.2128 -0.5914  0.2995
16199TIP3    H149479  10.358   6.979   9.576  2.0112 -0.9155  0.1865
16199TIP3    H249480  10.295   6.894   9.685 -0.2415  0.6825  0.2103
16200TIP3   OH249481  10.699   6.471   0.993 -0.0957  0.3194 -0.4949
16200TIP3    H149482  10.781   6.482   0.945  0.9231 -1.6690  0.6784
16200TIP3    H249483  10.680   6.377   0.988 -1.0908  0.3954  1.1457
16201TIP3   OH249484   3.455   3.124   8.256  0.1381 -0.1124 -0.4702
16201TIP3    H149485   3.485   3.208   8.221 -2.1474  1.1942  0.4767
16201TIP3    H249486   3.535   3.071   8.264  1.3531  1.1008 -3.2537
16202TIP3   OH249487   1.922   0.199   5.480  0.3379  0.4067  0.0930
16202TIP3    H149488   1.998   0.254   5.461  0.3231  1.5575  2.7921
16202TIP3    H249489   1.847   0.258   5.470  0.0559  0.0567  0.1228
16203TIP3   OH249490  10.070   0.697  10.549 -0.0799  0.6866  0.4010
16203TIP3    H149491  10.111   0.732  10.470 -1.2238 -2.4611 -1.8040
16203TIP3    H249492   9.977   0.720  10.540 -0.6658 -1.7775 -0.5820
16204TIP3   OH249493   9.655   8.692   4.603  0.7568 -0.0313 -0.0642
16204TIP3    H149494   9.707   8.628   4.554  3.5162  1.5114  0.6245
16204TIP3    H249495   9.643   8.765   4.543 -1.3935 -0.6313 -0.4596
16205TIP3   OH249496   9.401   7.519   8.789 -0.1896  0.6296 -0.4372
16205TIP3    H149497   9.491   7.488   8.802 -0.9761 -0.9998  1.6795
16205TIP3    H249498   9.400   7.605   8.831 -0.5447 -1.1060  3.6149
16206TIP3   OH249499   8.010   8.924   1.655 -0.0435 -0.7416  0.2513
16206TIP3    H149500   8.082   8.918   1.718  0.3070  1.3136  0.1244
16206TIP3    H249501   8.051   8.954   1.574 -1.0581  1.0724  0.3392
16207TIP3   OH249502   4.326   2.520   1.978 -0.4035 -0.4857 -0.2915
16207TIP3    H149503   4.288   2.605   1.955 -0.4204 -0.8152 -1.5879
16207TIP3    H249504   4.259   2.456   1.954  0.0771 -0.9355 -0.4617
16208TIP3   OH249505   0.071   3.227   0.789 -0.5671 -0.2406 -0.3569
16208TIP3    H149506   0.038   3.169   0.858  3.4701 -1.2884  0.9516
16208TIP3    H249507   0.064   3.315   0.827  0.3536 -0.6812  0.9142
16209TIP3   OH249508   9.374   1.407   2.398 -0.0471  0.0307  0.0642
16209TIP3    H149509   9.282   1.382   2.411 -0.1728  0.0185 -0.8214
16209TIP3    H249510   9.412   1.334   2.349  0.1617  0.5258 -0.5162
16210TIP3   OH249511   1.801  10.047   3.073  0.6327 -0.2368 -0.1781
16210TIP3    H149512   1.877  10.093   3.109  0.1500  0.2548  0.2355
16210TIP3    H249513   1.725  10.097   3.105  0.0989 -1.2009  0.1147
16211TIP3   OH249514   1.554   3.708   5.507 -0.1389 -0.4002 -0.1609
16211TIP3    H149515   1.578   3.800   5.516  0.1917 -0.6166  1.5070
16211TIP3    H249516   1.581   3.685   5.418  1.7371  0.5654  0.1024
16212TIP3   OH249517   3.055   7.565   7.410  0.6693  0.1992  0.3333
16212TIP3    H149518   2.985   7.608   7.458  1.3568  1.1393  0.5120
16212TIP3    H249519   3.085   7.496   7.470 -0.8533 -1.0079 -0.2093
16213TIP3   OH249520   4.008   1.654   8.997 -0.1151 -0.1196  0.3259
16213TIP3    H149521   4.035   1.577   9.048  0.6444  0.1565  0.3576
16213TIP3    H249522   3.934   1.623   8.945 -1.6001 -0.1427  2.3279
16214TIP3   OH249523   5.585   5.804   6.999  0.1954  0.1345 -0.4192
16214TIP3    H149524   5.612   5.896   7.000  0.9757  0.0539 -3.5188
16214TIP3    H249525   5.507   5.803   6.943 -0.4072 -0.9871  0.4088
16215TIP3   OH249526   4.259   7.926   2.926 -0.1594  0.2217  0.0140
16215TIP3    H149527   4.306   7.986   2.868 -0.6766  0.0639 -0.5700
16215TIP3    H249528   4.311   7.846   2.925 -0.2608  0.1626 -0.3606
16216TIP3   OH249529   3.036   8.096   1.810  0.2863  0.1819 -0.7232
16216TIP3    H149530   3.096   8.078   1.882 -0.2287 -0.1347 -0.3698
16216TIP3    H249531   2.993   8.178   1.834  0.3570  0.2494 -0.8271
16217TIP3   OH249532   2.158   6.229   9.447  0.6488 -0.3760 -0.2908
16217TIP3    H149533   2.153   6.279   9.365  0.1776 -1.2528 -0.8057
16217TIP3    H249534   2.090   6.267   9.503  1.5941  0.8598  0.0755
16218TIP3   OH249535   5.942   5.018  10.562  0.1575 -0.1135 -0.9045
16218TIP3    H149536   5.874   5.085  10.565  1.0550  0.8130  1.8009
16218TIP3    H249537   5.928   4.964  10.640  0.5116 -2.0361 -2.1052
16219TIP3   OH249538   7.574  10.585   8.919  0.2695 -0.2456  0.2080
16219TIP3    H149539   7.640  10.609   8.855  0.4805  0.1466  0.5669
16219TIP3    H249540   7.547  10.668   8.958  0.1454 -0.4777  0.6261
16220TIP3   OH249541   6.239   4.499   1.263  0.3566  0.2538  0.0552
16220TIP3    H149542   6.215   4.544   1.344  0.7042  0.5507 -0.0076
16220TIP3    H249543   6.323   4.536   1.238  0.6985 -0.4988  0.0577
16221TIP3   OH249544   2.603   8.120   2.627 -0.2280  0.1979 -0.6383
16221TIP3    H149545   2.558   8.042   2.660  1.9841 -0.9691 -0.1776
16221TIP3    H249546   2.643   8.092   2.545 -0.7229  1.3477 -1.2927
16222TIP3   OH249547   6.930   3.044   7.314  0.0038 -0.6558  0.1530
16222TIP3    H149548   6.945   3.096   7.235 -3.1398  1.9525  1.0957
16222TIP3    H249549   7.009   3.058   7.366  0.2264  1.3536 -0.6189
16223TIP3   OH249550   8.148   4.361   6.883  0.2033 -0.2800  0.1724
16223TIP3    H149551   8.209   4.337   6.813  0.0020 -0.8658  0.1883
16223TIP3    H249552   8.087   4.287   6.888  1.4803 -1.2848  2.4094
16224TIP3   OH249553   0.693   3.541  10.518 -0.1228  0.4844 -0.2055
16224TIP3    H149554   0.785   3.539  10.490 -0.0389  0.5341  0.0573
16224TIP3    H249555   0.696   3.582  10.605 -0.3194 -0.1135  0.0859
16225TIP3   OH249556   2.764   1.302   2.868 -0.0620 -0.2380 -0.6636
16225TIP3    H149557   2.778   1.276   2.959 -2.7551 -0.8231 -0.3313
16225TIP3    H249558   2.706   1.235   2.833 -1.1480  1.3309 -2.0271
16226TIP3   OH249559   2.773   1.718   2.197  0.3684 -0.4338  0.0932
16226TIP3    H149560   2.703   1.718   2.263  0.7642 -0.5772  0.5227
16226TIP3    H249561   2.841   1.773   2.235  0.7964 -0.9072  0.0155
16227TIP3   OH249562   8.941   5.826   4.843  0.1214 -0.0184  0.4381
16227TIP3    H149563   8.973   5.743   4.808 -0.0519  0.1482 -0.1314
16227TIP3    H249564   8.978   5.832   4.931  0.8753 -0.2678  0.1382
16228TIP3   OH249565   7.508   3.512   4.742 -0.3297 -0.1401  0.0961
16228TIP3    H149566   7.464   3.518   4.827 -1.6941  0.2235 -0.5985
16228TIP3    H249567   7.464   3.440   4.697 -0.1032  0.1259 -0.5696
16229TIP3   OH249568   7.595   9.322   6.595 -0.3401  0.1184  0.2864
16229TIP3    H149569   7.571   9.308   6.503  0.6287  0.6923 -0.0777
16229TIP3    H249570   7.579   9.415   6.609  0.4648  0.2493  0.3871
16230TIP3   OH249571  10.134   8.899   1.433  0.8536  0.3000 -0.1322
16230TIP3    H149572  10.087   8.898   1.516 -1.1320 -0.5042 -1.2160
16230TIP3    H249573  10.149   8.992   1.415  0.3625  0.5265  0.5979
16231TIP3   OH249574   2.548   3.860   0.246 -0.1019 -0.3464 -0.0290
16231TIP3    H149575   2.517   3.914   0.319  0.3417  0.0894 -0.1542
16231TIP3    H249576   2.486   3.878   0.175 -0.8675 -1.2002  0.3937
16232TIP3   OH249577   9.960   5.872   3.430 -0.0318 -0.0385 -0.2125
16232TIP3    H149578   9.865   5.873   3.424 -0.1354 -1.9249  0.5067
16232TIP3    H249579   9.982   5.944   3.490 -0.9343  0.7688 -0.8252
16233TIP3   OH249580   5.620   9.016   7.630 -0.4361 -0.0882 -0.0116
16233TIP3    H149581   5.586   8.977   7.711  0.5454  0.2428  0.5799
16233TIP3    H249582   5.701   8.967   7.612  0.5782  1.3359  0.4989
16234TIP3   OH249583   2.836   3.572  10.022  0.4369 -0.2778  0.1078
16234TIP3    H149584   2.825   3.662  10.053 -0.1291 -0.2642 -0.1246
16234TIP3    H249585   2.906   3.537  10.077 -1.1685 -0.5545  2.1157
16235TIP3   OH249586   7.876   4.023   8.775  0.3485  0.1863  0.0484
16235TIP3    H149587   7.807   4.089   8.780  0.1745  0.1446 -1.2980
16235TIP3    H249588   7.958   4.072   8.784  0.1643  0.2085  1.8706
16236TIP3   OH249589   0.838   5.650  10.631 -0.2148 -0.6565  0.2418
16236TIP3    H149590   0.913   5.617  10.582 -1.1379 -2.9017  0.2014
16236TIP3    H249591   0.763   5.634  10.573 -0.9423 -0.3548  1.0780
16237TIP3   OH249592   8.934   5.477   0.090  0.0310 -0.4397 -0.1489
16237TIP3    H149593   9.017   5.436   0.066 -0.5275 -1.0960 -1.0575
16237TIP3    H249594   8.933   5.560   0.043 -0.3941 -1.0349 -1.2158
16238TIP3   OH249595   2.801   1.974   9.822  0.4801  0.0738 -0.3337
16238TIP3    H149596   2.876   2.019   9.861  1.3133 -0.3525 -1.4067
16238TIP3    H249597   2.836   1.932   9.744 -1.0957  0.7508 -1.4554
16239TIP3   OH249598   3.134   8.196   6.207 -0.1720 -0.0328  0.1868
16239TIP3    H149599   3.183   8.214   6.287 -0.2422  0.5406  0.1047
16239TIP3    H249600   3.114   8.283   6.171  0.3754 -0.2956 -0.7672
16240TIP3   OH249601   3.821   2.490  10.516  0.6561  0.1426  0.2030
16240TIP3    H149602   3.805   2.574  10.473 -1.6130  0.3433  1.3023
16240TIP3    H249603   3.873   2.440  10.453  1.5318  2.1254 -0.7212
16241TIP3   OH249604   3.010  10.400   4.979 -0.2305 -0.2169 -0.5369
16241TIP3    H149605   3.050  10.315   4.998 -0.5799 -0.5217 -1.1073
16241TIP3    H249606   3.082  10.454   4.946  0.0179 -0.2503 -0.0498
16242TIP3   OH249607   0.675   2.919   3.479 -0.3100  0.2411  0.2448
16242TIP3    H149608   0.718   2.937   3.562  1.9836 -1.4323 -0.4808
16242TIP3    H249609   0.588   2.887   3.503 -0.0959  0.8354  1.9187
16243TIP3   OH249610   0.660   1.280   5.854 -0.2050 -0.4276 -0.0493
16243TIP3    H149611   0.732   1.295   5.793 -1.5817  1.5043 -1.2997
16243TIP3    H249612   0.679   1.338   5.928 -1.0360  1.0648 -0.9446
16244TIP3   OH249613   2.643   6.992   8.355  0.2940 -0.5995 -0.3936
16244TIP3    H149614   2.694   6.932   8.409  2.0169  0.4724 -0.7373
16244TIP3    H249615   2.642   6.951   8.268 -0.8508 -1.3963 -0.0298
16245TIP3   OH249616   5.374   1.875   4.814 -0.0775  0.1896  0.4150
16245TIP3    H149617   5.333   1.961   4.821  2.8123  1.8101 -0.9522
16245TIP3    H249618   5.305   1.819   4.777 -2.2349  1.6682  1.9571
16246TIP3   OH249619   2.888   9.971   4.355  0.4468  0.2540  0.3647
16246TIP3    H149620   2.961   9.909   4.353 -0.8195 -1.2830 -0.0651
16246TIP3    H249621   2.905  10.026   4.431  1.4611 -0.8304  0.9556
16247TIP3   OH249622   7.659   3.890   3.714 -0.5117 -0.4067 -0.0721
16247TIP3    H149623   7.599   3.957   3.682  0.9327  0.5576 -0.8182
16247TIP3    H249624   7.665   3.907   3.808 -1.3749 -0.5129  0.0163
16248TIP3   OH249625   4.780   4.428   0.095  0.0491 -0.3272  0.3370
16248TIP3    H149626   4.856   4.446   0.151 -0.0297 -1.3613  0.7998
16248TIP3    H249627   4.706   4.466   0.142  0.1729  0.0365  0.2431
16249TIP3   OH249628   5.649   5.937   8.946 -0.0748  0.3833  0.3955
16249TIP3    H149629   5.660   5.971   8.857 -1.2452  2.0997  0.8609
16249TIP3    H249630   5.557   5.912   8.951 -0.1631  0.8576  1.2988
16250TIP3   OH249631   8.366   4.413   8.118 -0.3532 -0.5087 -0.4931
16250TIP3    H149632   8.316   4.406   8.036  0.5674  1.4439 -1.2945
16250TIP3    H249633   8.366   4.507   8.137 -0.3880 -0.9089  1.6925
16251TIP3   OH249634   1.161   4.370   0.181 -0.1028 -0.4014  0.1908
16251TIP3    H149635   1.067   4.376   0.165  0.0067 -2.2891 -1.6563
16251TIP3    H249636   1.169   4.352   0.274 -1.4678  1.0119  0.6330
16252TIP3   OH249637   0.570   9.899   7.532 -0.0336  0.1269  0.0935
16252TIP3    H149638   0.610   9.983   7.555  0.8066 -0.1258 -0.4003
16252TIP3    H249639   0.509   9.882   7.604 -0.0197  1.0261  0.3392
16253TIP3   OH249640   6.452   8.273   0.208  0.5369 -0.3064 -0.1102
16253TIP3    H149641   6.528   8.331   0.203  0.3398  0.2560  2.1667
16253TIP3    H249642   6.489   8.184   0.201  1.2941 -0.0101  0.0340
16254TIP3   OH249643   5.028   5.002   4.742 -0.2756  0.2372 -0.7016
16254TIP3    H149644   5.024   5.087   4.785 -0.6929  1.4169 -2.9831
16254TIP3    H249645   5.107   4.961   4.778  0.7222  2.1532 -0.5838
16255TIP3   OH249646  10.228   0.263   2.950 -0.2583 -0.1561 -0.5036
16255TIP3    H149647  10.165   0.309   2.895 -0.5868  0.1226  0.1026
16255TIP3    H249648  10.312   0.275   2.905 -0.3282  1.0754 -0.3256
16256TIP3   OH249649   6.591   0.470   7.690  0.4010  0.4160 -0.1522
16256TIP3    H149650   6.618   0.396   7.635  1.9841  1.0134 -0.2428
16256TIP3    H249651   6.620   0.447   7.778 -0.9724  0.0291  0.2062
16257TIP3   OH249652   8.736   9.841   3.245  0.3298  0.7757 -0.0438
16257TIP3    H149653   8.721   9.929   3.279  0.0591  1.0922 -0.9388
16257TIP3    H249654   8.810   9.852   3.185  0.2530  0.4086 -0.2055
16258TIP3   OH249655  10.075   5.395   9.322 -0.6127 -0.1664 -0.0414
16258TIP3    H149656  10.082   5.387   9.417 -0.5634 -0.6553 -0.0864
16258TIP3    H249657  10.151   5.448   9.296 -1.6287  1.5839  0.3966
16259TIP3   OH249658   3.884   9.625   9.738  0.2419  0.0353  0.0241
16259TIP3    H149659   3.907   9.561   9.805 -1.6739 -0.5276  0.1961
16259TIP3    H249660   3.789   9.620   9.731  0.2989  0.7826 -2.0664
16260TIP3   OH249661   9.814   7.385   7.645  0.4900  0.4784  0.4466
16260TIP3    H149662   9.870   7.320   7.688 -0.9232  0.2335  2.0076
16260TIP3    H249663   9.861   7.468   7.656  2.7388 -0.2704 -2.3102
16261TIP3   OH249664   3.519   5.605   5.744  0.0070 -0.2884  0.3048
16261TIP3    H149665   3.431   5.631   5.716 -0.1105  0.1975  1.0827
16261TIP3    H249666   3.575   5.679   5.722  0.9595 -1.8671 -3.3660
16262TIP3   OH249667  10.825   9.316   9.709  0.1958  0.7018 -0.5985
16262TIP3    H149668  10.739   9.353   9.688  0.6791  1.4457 -1.2900
16262TIP3    H249669  10.882   9.347   9.639  0.6034 -1.4206 -1.2815
16263TIP3   OH249670   0.557   8.200   8.734 -0.0436  0.3547  0.8450
16263TIP3    H149671   0.632   8.188   8.792 -0.6686  2.3265  2.1862
16263TIP3    H249672   0.482   8.173   8.785 -0.3359 -1.1860 -0.3341
16264TIP3   OH249673   9.714   3.566   1.424  0.6207 -0.5186 -0.7004
16264TIP3    H149674   9.732   3.473   1.434  2.0613 -0.1406  0.6478
16264TIP3    H249675   9.793   3.609   1.456 -0.1213  1.1760 -1.0458
16265TIP3   OH249676   1.252   4.723   6.092 -0.0831  0.6919  0.2112
16265TIP3    H149677   1.347   4.710   6.093 -0.2229 -0.4586 -0.0506
16265TIP3    H249678   1.224   4.696   6.180 -0.1405  1.2306  0.3568
16266TIP3   OH249679   4.336   5.248   8.886  0.3788  0.0667 -0.0025
16266TIP3    H149680   4.389   5.324   8.908 -0.6645  1.1629 -1.1016
16266TIP3    H249681   4.280   5.277   8.814 -0.6132 -1.5022  0.0679
16267TIP3   OH249682   6.206  10.007   9.087 -0.1070  0.3270  0.7082
16267TIP3    H149683   6.230  10.000   8.995  0.5246  0.3562  0.8708
16267TIP3    H249684   6.125   9.956   9.094  1.4392 -2.2779  0.7308
16268TIP3   OH249685   3.593   2.537   2.378  0.2292 -0.3613 -0.1091
16268TIP3    H149686   3.600   2.544   2.474  0.5850 -0.9582 -0.0826
16268TIP3    H249687   3.680   2.510   2.350 -0.3136 -1.8855 -0.4224
16269TIP3   OH249688   2.331   5.024   4.969 -0.2164 -0.2086  0.2266
16269TIP3    H149689   2.393   4.955   4.947 -0.3668 -0.1508 -0.3806
16269TIP3    H249690   2.248   4.994   4.932 -0.2037  0.4685 -0.3689
16270TIP3   OH249691   6.277   0.143  10.897 -0.1879  0.1013 -0.0403
16270TIP3    H149692   6.367   0.114  10.884 -0.2411  0.5554 -1.6168
16270TIP3    H249693   6.238   0.076  10.954  0.6924 -0.9587 -0.6466
16271TIP3   OH249694   3.431   9.457   8.914  0.0506  0.5950 -0.6052
16271TIP3    H149695   3.347   9.431   8.878 -0.7962 -0.2155  1.7405
16271TIP3    H249696   3.496   9.406   8.865 -0.8827  0.5562 -1.8323
16272TIP3   OH249697   5.133   5.925   3.640  0.0698  0.1202 -0.6000
16272TIP3    H149698   5.099   6.003   3.684  2.3931  0.9129 -0.0538
16272TIP3    H249699   5.125   5.855   3.704 -0.3199  0.3290 -0.4180
16273TIP3   OH249700   2.684   8.689   2.001 -0.2352  0.1117 -0.8732
16273TIP3    H149701   2.692   8.696   1.906  0.1956 -1.4175 -0.9753
16273TIP3    H249702   2.774   8.683   2.033 -0.3891  0.2748 -0.3959
16274TIP3   OH249703   7.601   1.745   9.923 -0.0496  0.0283 -0.4438
16274TIP3    H149704   7.690   1.737   9.957 -0.1858  0.3210 -0.0072
16274TIP3    H249705   7.546   1.750  10.001 -0.6112 -1.7003 -0.6801
16275TIP3   OH249706   3.214   9.150   8.155  0.0199  0.6783  0.1276
16275TIP3    H149707   3.216   9.071   8.210  1.8380  1.9660  2.0590
16275TIP3    H249708   3.262   9.125   8.076 -1.1930 -0.7174 -0.2275
16276TIP3   OH249709   2.796   4.734   1.260 -0.4730  0.1185  0.1314
16276TIP3    H149710   2.702   4.719   1.253 -0.4173  0.3761 -2.7488
16276TIP3    H249711   2.835   4.649   1.239 -0.1501  0.6944 -1.8690
16277TIP3   OH249712   8.581  10.196   6.186 -0.1872 -0.1365  0.0646
16277TIP3    H149713   8.491  10.191   6.218 -0.4389  1.0444 -0.4219
16277TIP3    H249714   8.631  10.230   6.259  0.0018 -1.4473  0.5647
16278TIP3   OH249715  10.171   6.725  10.120 -0.3139 -0.0081 -0.1640
16278TIP3    H149716  10.169   6.762  10.208  0.7682  1.0682 -0.5661
16278TIP3    H249717  10.251   6.671  10.118  0.0831  0.5861 -0.7096
16279TIP3   OH249718   7.857   3.735   8.471  0.6054  0.1029  0.1786
16279TIP3    H149719   7.918   3.806   8.490  0.3484  0.7937 -1.4069
16279TIP3    H249720   7.898   3.687   8.399  1.5737 -2.4338  2.2720
16280TIP3   OH249721   1.945   0.733   7.837  0.1874  0.1485 -0.1228
16280TIP3    H149722   1.949   0.780   7.920  0.1392  1.3408 -0.7609
16280TIP3    H249723   1.969   0.799   7.771  1.3620 -1.0522 -0.9504
16281TIP3   OH249724   7.366   5.815  10.713  0.1212 -0.0609 -0.8515
16281TIP3    H149725   7.288   5.766  10.685 -2.1116  3.1617 -0.7727
16281TIP3    H249726   7.335   5.870  10.785  1.8303  2.8894 -2.1735
16282TIP3   OH249727   0.976   5.533   7.134  0.1848  0.2788 -0.2417
16282TIP3    H149728   1.021   5.563   7.054  2.8339 -1.6552  0.3788
16282TIP3    H249729   1.021   5.578   7.205 -0.5609  0.1832  0.2975
16283TIP3   OH249730   7.961   0.990   8.172  0.0110  0.3601  0.0540
16283TIP3    H149731   7.874   0.974   8.209 -0.3011  1.7275 -0.0424
16283TIP3    H249732   7.950   0.977   8.078 -0.1641  0.8257  0.0092
16284TIP3   OH249733   5.470   6.971   5.652  0.1604  0.2672  0.0439
16284TIP3    H149734   5.423   6.888   5.650  1.9781 -0.8130 -1.1391
16284TIP3    H249735   5.437   7.016   5.730 -1.3728 -1.2448  0.3191
16285TIP3   OH249736   8.254   2.648   6.885  0.0079 -0.2923 -0.4798
16285TIP3    H149737   8.341   2.644   6.925 -0.2898  3.0404  0.7246
16285TIP3    H249738   8.271   2.635   6.791  1.7421 -0.0516 -0.2362
16286TIP3   OH249739  10.739   3.299   4.182 -0.1118  0.0578  0.4744
16286TIP3    H149740  10.827   3.332   4.167 -0.8227  1.5551 -0.7010
16286TIP3    H249741  10.704   3.353   4.252 -1.0557  1.4721 -1.0142
16287TIP3   OH249742   9.563   2.440   7.214 -0.3044  0.3904 -0.4354
16287TIP3    H149743   9.484   2.402   7.252  0.2444  0.3927  0.7383
16287TIP3    H249744   9.531   2.489   7.137 -1.4121  0.2473 -0.0849
16288TIP3   OH249745   2.653   0.738   9.998  0.2141 -0.2708 -0.3924
16288TIP3    H149746   2.740   0.738   9.957 -0.5046 -0.8932 -1.9923
16288TIP3    H249747   2.627   0.646   9.999 -0.0805 -0.1914  0.8976
16289TIP3   OH249748   0.076  10.905   3.608  0.5200  0.4149 -0.2573
16289TIP3    H149749   0.156  10.902   3.661 -0.1224 -2.5925  0.7418
16289TIP3    H249750   0.100  10.957   3.531  2.5522  1.9131  1.2816
16290TIP3   OH249751   0.618   4.748   1.033  0.0093 -0.1619  0.4073
16290TIP3    H149752   0.705   4.782   1.055  0.3747 -1.0745  0.4441
16290TIP3    H249753   0.594   4.695   1.109 -0.0210 -0.9354 -0.1281
16291TIP3   OH249754   6.261   1.761   3.346  0.3824  0.2287 -0.2787
16291TIP3    H149755   6.284   1.848   3.377 -0.1992  0.3771 -0.2540
16291TIP3    H249756   6.166   1.755   3.358  0.5915 -0.9243  1.0438
16292TIP3   OH249757  10.174   5.624   1.548  0.7536  0.5811 -0.3390
16292TIP3    H149758  10.194   5.540   1.589  0.2671  0.6957  0.1565
16292TIP3    H249759  10.131   5.674   1.617  0.1878  0.8910 -0.9044
16293TIP3   OH249760   4.422   6.533   9.753  0.0702 -0.0309  0.0027
16293TIP3    H149761   4.484   6.602   9.774  1.2862 -0.8136 -0.8498
16293TIP3    H249762   4.396   6.551   9.663 -0.6831  0.0861  0.2363
16294TIP3   OH249763   6.795   8.247   9.535  0.3432 -0.0410  0.0688
16294TIP3    H149764   6.800   8.225   9.628  0.9711 -1.6796 -0.3182
16294TIP3    H249765   6.849   8.181   9.492  1.1498  1.4703 -1.3609
16295TIP3   OH249766   2.037   6.819   3.524  0.1945  0.0036 -0.0181
16295TIP3    H149767   1.984   6.869   3.462  0.0875 -1.2404 -0.9676
16295TIP3    H249768   2.053   6.735   3.480  2.0830 -0.0514  0.6838
16296TIP3   OH249769   0.657   2.683   6.159  0.1535  0.0657 -0.3403
16296TIP3    H149770   0.628   2.761   6.205  2.5012  0.0811  1.2858
16296TIP3    H249771   0.653   2.708   6.066  0.1403  1.8496  0.0995
16297TIP3   OH249772   4.030   7.072   6.773  0.8857 -0.2180 -0.3667
16297TIP3    H149773   4.009   6.991   6.819 -1.3007  1.6539  2.2412
16297TIP3    H249774   3.975   7.071   6.695 -1.2029 -0.1291  1.0330
16298TIP3   OH249775   9.849   2.675   1.145  0.2132  0.0155  0.1543
16298TIP3    H149776   9.909   2.696   1.216 -1.1611 -0.8407  1.6150
16298TIP3    H249777   9.903   2.628   1.081  1.6206  1.3747  0.2770
16299TIP3   OH249778   9.276   8.780   7.559  0.1131 -0.1394 -0.1205
16299TIP3    H149779   9.337   8.826   7.617  0.5690  0.1821 -0.8511
16299TIP3    H249780   9.197   8.833   7.559  1.3746  1.9599 -2.7250
16300TIP3   OH249781   7.923   9.768   6.191  0.3378  0.1791 -0.3290
16300TIP3    H149782   7.901   9.830   6.122 -0.9981 -0.1680 -0.2278
16300TIP3    H249783   7.998   9.719   6.157 -2.0616 -2.0423 -2.8720
16301TIP3   OH249784   0.952   7.432   9.618 -0.2674 -0.6556 -0.4113
16301TIP3    H149785   0.946   7.414   9.524  0.0784 -0.1421 -0.5368
16301TIP3    H249786   0.904   7.514   9.630  0.9716  0.1105 -0.4063
16302TIP3   OH249787   3.848   2.887   2.888 -0.0635  0.1782  0.2712
16302TIP3    H149788   3.822   2.800   2.919 -0.7430 -0.5922 -2.2081
16302TIP3    H249789   3.933   2.903   2.930 -0.2616 -1.3638  1.3330
16303TIP3   OH249790   2.613   3.904  10.249 -0.6633 -0.1420  0.2453
16303TIP3    H149791   2.609   3.912  10.344 -0.2605 -0.2112  0.2676
16303TIP3    H249792   2.522   3.919  10.220 -0.4946  1.5920  0.5153
16304TIP3   OH249793   3.107   5.090   6.275 -0.0704 -0.0964 -0.2319
16304TIP3    H149794   3.061   5.011   6.248 -0.7169 -0.3953  1.5618
16304TIP3    H249795   3.200   5.069   6.265 -0.1543 -1.7828  1.8462
16305TIP3   OH249796   4.532   4.084   3.910 -0.3655 -0.4193 -0.5293
16305TIP3    H149797   4.549   4.013   3.972  0.6247 -0.3775 -0.7460
16305TIP3    H249798   4.548   4.164   3.960 -1.1822 -0.3435 -0.3742
16306TIP3   OH249799   7.539   0.077   4.748 -0.2681  0.2266  0.3562
16306TIP3    H149800   7.553  -0.017   4.742 -1.4965 -0.1447  2.4462
16306TIP3    H249801   7.545   0.097   4.841 -0.8324  2.1007  0.0420
16307TIP3   OH249802   3.022   4.294   0.692 -0.2393  0.0178 -0.4072
16307TIP3    H149803   3.089   4.257   0.749  0.5935 -0.4426 -1.6626
16307TIP3    H249804   2.978   4.359   0.747  0.2018 -0.7664  0.9134
16308TIP3   OH249805   1.574   5.191   4.374 -0.0002  0.3272 -0.4370
16308TIP3    H149806   1.668   5.180   4.390 -0.1453 -0.2787  0.0143
16308TIP3    H249807   1.546   5.108   4.336 -0.9561 -0.6910  2.2956
16309TIP3   OH249808   7.632   0.677   8.589  0.1059  0.5148  0.1900
16309TIP3    H149809   7.546   0.639   8.601  0.2635  0.2997  0.6770
16309TIP3    H249810   7.615   0.768   8.563 -0.2642  0.3071 -0.3077
16310TIP3   OH249811   9.905   3.832   6.990  0.4079 -0.3819 -0.5332
16310TIP3    H149812   9.978   3.809   7.047  0.7745 -1.8932 -1.5638
16310TIP3    H249813   9.841   3.874   7.048  0.5426 -2.3062  1.1076
16311TIP3   OH249814   7.319   8.870   5.034  0.0728  0.6962  0.1362
16311TIP3    H149815   7.276   8.955   5.041  0.9159  1.0062  2.2388
16311TIP3    H249816   7.380   8.867   5.108  0.8745 -1.2879 -0.5290
16312TIP3   OH249817   3.419   2.471   2.739  0.1997  0.3551 -0.4254
16312TIP3    H149818   3.400   2.488   2.831 -0.4421  0.4494 -0.5733
16312TIP3    H249819   3.360   2.529   2.691 -1.4937 -1.6844 -0.9395
16313TIP3   OH249820   0.132   6.892   8.408 -0.5629  0.2590  0.6934
16313TIP3    H149821   0.084   6.818   8.445 -0.0667  1.0212  3.0054
16313TIP3    H249822   0.210   6.852   8.368 -0.9031 -0.5571  0.8253
16314TIP3   OH249823   9.075   6.443   0.508  0.0580 -0.4264  0.4140
16314TIP3    H149824   9.092   6.388   0.584 -1.5514 -1.9393 -0.2502
16314TIP3    H249825   9.139   6.416   0.443 -0.5130 -1.3306  0.2061
16315TIP3   OH249826   3.410   1.549   6.190 -0.0486  0.0029  0.6239
16315TIP3    H149827   3.352   1.530   6.264  1.0747  0.0936  1.5563
16315TIP3    H249828   3.375   1.630   6.154 -0.8572 -0.2551  0.7908
16316TIP3   OH249829   7.022   1.350   8.881 -0.0886  0.8236  0.9355
16316TIP3    H149830   7.008   1.411   8.953 -1.3488  1.3523  0.2884
16316TIP3    H249831   6.938   1.305   8.871 -0.5817  2.0795 -1.3573
16317TIP3   OH249832   4.139   5.043   0.890  0.2005 -0.3386 -0.0033
16317TIP3    H149833   4.205   5.054   0.959  0.4147  0.1989 -0.2962
16317TIP3    H249834   4.157   4.957   0.853 -0.8587 -1.3300  1.6191
16318TIP3   OH249835   0.515  10.486   9.727 -0.2134 -0.1525 -0.2333
16318TIP3    H149836   0.607  10.482   9.754 -0.4587 -1.0497  0.5235
16318TIP3    H249837   0.487  10.575   9.749  0.2596 -0.1259  0.2829
16319TIP3   OH249838   2.998   9.267   2.447 -0.3337  0.6866  0.2642
16319TIP3    H149839   3.029   9.258   2.357 -0.4916  1.1593  0.1601
16319TIP3    H249840   2.913   9.223   2.448 -1.3243  2.4750 -0.3625
16320TIP3   OH249841   6.496   8.027   0.201 -0.6260 -0.5604 -0.3125
16320TIP3    H149842   6.499   7.994   0.111 -0.9798 -2.1221  0.2090
16320TIP3    H249843   6.429   7.974   0.244  0.0807 -0.3978  1.0631
16321TIP3   OH249844   9.253   4.862  10.162  0.6851 -0.6110 -0.3676
16321TIP3    H149845   9.289   4.912  10.235 -0.6228 -0.2368  0.0484
16321TIP3    H249846   9.254   4.771  10.193 -0.5653 -0.3744  0.4553
16322TIP3   OH249847  10.075   6.980   0.505  0.2548 -0.2185  0.2547
16322TIP3    H149848  10.132   6.906   0.523  0.0889 -0.6868 -1.0179
16322TIP3    H249849  10.104   7.048   0.565  1.0579 -0.9881  0.7626
16323TIP3   OH249850   6.574   9.661   3.474  0.1172 -0.0114  0.2622
16323TIP3    H149851   6.627   9.690   3.548  1.3676 -1.3686 -0.0635
16323TIP3    H249852   6.630   9.600   3.427 -1.0632 -0.0219 -1.1894
16324TIP3   OH249853   8.037   4.350   7.685 -0.2619 -0.2864 -0.2596
16324TIP3    H149854   8.041   4.284   7.616 -4.4839 -2.0941  0.9110
16324TIP3    H249855   7.998   4.426   7.643  0.7667  0.0408 -0.6609
16325TIP3   OH249856   7.094   1.194   4.407 -0.1832 -0.7785 -0.5577
16325TIP3    H149857   7.058   1.282   4.415  1.0769 -0.1556 -1.3966
16325TIP3    H249858   7.018   1.137   4.403 -1.0184  0.2000  0.6890
16326TIP3   OH249859  10.770   4.908   4.320  0.3364  0.1661 -0.3162
16326TIP3    H149860  10.798   4.999   4.313  0.5925  0.0355 -1.0880
16326TIP3    H249861  10.713   4.895   4.244 -1.1404  0.1764  0.7419
16327TIP3   OH249862   4.392   9.250   9.088 -0.0300  0.7333  0.5260
16327TIP3    H149863   4.362   9.160   9.082  0.7337  0.3839  1.5743
16327TIP3    H249864   4.339   9.298   9.025 -2.1353  0.0015  1.6410
16328TIP3   OH249865   3.978   8.411  10.052  0.5405  0.5870  0.7303
16328TIP3    H149866   3.885   8.412  10.074  0.3444  2.8483  0.0982
16328TIP3    H249867   4.020   8.365  10.124 -1.1321 -1.3235  0.5694
16329TIP3   OH249868   3.279   4.844   9.289 -0.1281  0.0102 -0.3109
16329TIP3    H149869   3.208   4.836   9.352 -0.6406 -0.7954 -0.9566
16329TIP3    H249870   3.254   4.784   9.218  1.3081 -0.4471 -0.4510
16330TIP3   OH249871   0.212   1.014   0.324  0.3456  0.8493  0.0542
16330TIP3    H149872   0.154   0.938   0.333  1.3176 -0.0668 -1.0691
16330TIP3    H249873   0.168   1.084   0.371 -0.4326 -0.5012  1.4215
16331TIP3   OH249874   9.582   5.820   2.539 -0.5001  0.0988 -0.1243
16331TIP3    H149875   9.535   5.768   2.474  0.7818 -0.3535 -0.7468
16331TIP3    H249876   9.661   5.768   2.558  1.3280  2.2004 -1.4703
16332TIP3   OH249877   1.862  10.406   8.086 -0.0614 -0.5633  0.1591
16332TIP3    H149878   1.877  10.448   8.001  0.2429 -1.1820 -0.0994
16332TIP3    H249879   1.904  10.320   8.078  0.6775 -0.3221  1.2130
16333TIP3   OH249880   8.489   8.115   2.766 -0.5826  0.1570 -0.2466
16333TIP3    H149881   8.454   8.197   2.802  0.5890  0.7154 -0.3319
16333TIP3    H249882   8.493   8.056   2.841 -2.0323 -0.0460 -0.3090
16334TIP3   OH249883   0.559   4.422   3.469 -0.4580  0.3992  0.1616
16334TIP3    H149884   0.600   4.335   3.473 -2.3278 -0.5848 -0.7956
16334TIP3    H249885   0.625   4.477   3.427  1.3470 -0.1425  2.1047
16335TIP3   OH249886   8.731   7.286   8.166  0.1063 -0.0926  0.5740
16335TIP3    H149887   8.646   7.282   8.211  0.0398 -0.5419  0.4153
16335TIP3    H249888   8.792   7.319   8.232 -0.6913  2.9525 -0.0752
16336TIP3   OH249889   5.862   2.101  10.888  0.8829 -0.6420  0.1431
16336TIP3    H149890   5.786   2.151  10.856  1.0401 -0.0611  0.6603
16336TIP3    H249891   5.856   2.017  10.842  0.7959 -0.0359 -0.9901
16337TIP3   OH249892   0.740   1.368   3.813 -0.2202 -0.2528 -0.1955
16337TIP3    H149893   0.745   1.462   3.828  0.9735 -0.1790 -0.9539
16337TIP3    H249894   0.781   1.329   3.890 -0.2769 -0.1417 -0.1089
16338TIP3   OH249895   2.231  10.185   4.815  0.5535  0.6853 -0.0338
16338TIP3    H149896   2.225  10.255   4.750  3.4768 -0.0428 -1.2182
16338TIP3    H249897   2.176  10.115   4.781  2.0145  0.3230 -1.8046
16339TIP3   OH249898   6.288   2.952   5.289 -0.0361  0.2406  0.2154
16339TIP3    H149899   6.240   2.877   5.256  1.5024 -0.2175 -1.0876
16339TIP3    H249900   6.379   2.922   5.297  0.9874  2.3429 -1.9572
16340TIP3   OH249901   1.098   0.672   8.706 -0.6066 -0.1291 -0.4340
16340TIP3    H149902   1.176   0.636   8.664 -2.6681 -2.6849 -2.5168
16340TIP3    H249903   1.099   0.636   8.795  0.5011 -0.2432 -0.4849
16341TIP3   OH249904   8.065   4.830   4.626 -0.0998  0.0267  0.1438
16341TIP3    H149905   8.101   4.880   4.700  1.9908  0.9889 -1.4067
16341TIP3    H249906   8.126   4.847   4.554 -0.1497 -3.5686 -0.9280
16342TIP3   OH249907  10.800  10.092   8.940  0.1298  0.1080 -0.5784
16342TIP3    H149908  10.762  10.004   8.932  0.4003  0.1561 -3.1283
16342TIP3    H249909  10.894  10.078   8.948  0.0009  0.1333  1.3208
16343TIP3   OH249910  10.834   3.546   6.826 -0.3217 -0.4243  0.8286
16343TIP3    H149911  10.828   3.562   6.920 -1.5212 -2.3574  1.1435
16343TIP3    H249912  10.749   3.571   6.791 -0.0114 -0.0682  0.2964
16344TIP3   OH249913  10.864  10.477   7.145  0.0506  0.2647  0.6230
16344TIP3    H149914  10.845  10.386   7.124 -0.4365  0.4907  0.0854
16344TIP3    H249915  10.790  10.505   7.200 -1.3772  1.2097 -1.6509
16345TIP3   OH249916   9.228   6.995   0.580 -0.1206  0.3639 -0.2628
16345TIP3    H149917   9.307   7.048   0.579  0.4978 -0.5135  0.0466
16345TIP3    H249918   9.198   6.994   0.489 -0.1117  1.1760 -0.2818
16346TIP3   OH249919   9.292   6.625   1.358 -0.8204  0.3718  0.5103
16346TIP3    H149920   9.322   6.700   1.308 -1.4417  0.4701  0.2762
16346TIP3    H249921   9.292   6.654   1.449  0.4147  0.1583  0.5940
16347TIP3   OH249922   7.948   0.371   7.070  0.7470  0.1529  0.2002
16347TIP3    H149923   7.955   0.372   7.166  2.8781 -0.3657  0.1050
16347TIP3    H249924   7.945   0.278   7.048 -0.5746  0.2761 -0.2315
16348TIP3   OH249925   1.388   7.728   0.422 -0.3038  0.0112  0.0370
16348TIP3    H149926   1.360   7.637   0.438 -0.2041 -0.4282 -2.0615
16348TIP3    H249927   1.378   7.771   0.507  0.4685 -2.1628  1.3156
16349TIP3   OH249928   2.000   4.453   9.329 -0.2332  0.0614 -0.6286
16349TIP3    H149929   2.085   4.439   9.372 -0.4996 -0.8871 -0.3910
16349TIP3    H249930   1.977   4.544   9.350  0.1719 -0.0397  0.2892
16350TIP3   OH249931  10.066   8.882   1.181  0.3347  0.3110  0.2825
16350TIP3    H149932  10.151   8.879   1.136  0.5751  1.6048  0.5869
16350TIP3    H249933  10.088   8.876   1.274 -0.1330 -1.9491  0.3048
16351TIP3   OH249934   0.449   7.037   7.021  0.1356  0.1329 -0.1712
16351TIP3    H149935   0.524   7.037   7.082 -0.4036 -1.7581  0.5487
16351TIP3    H249936   0.489   7.029   6.935  0.8190  0.0651  0.1399
16352TIP3   OH249937   9.102  10.127   2.581 -0.3372 -0.0162  0.1803
16352TIP3    H149938   9.014  10.113   2.615 -0.3437 -0.0045  0.1689
16352TIP3    H249939   9.088  10.168   2.495 -0.3396 -0.8066 -0.2093
16353TIP3   OH249940   6.337   3.972  10.022 -0.5362 -0.2830 -0.0990
16353TIP3    H149941   6.316   4.047  10.078 -0.4016  0.0079 -0.4324
16353TIP3    H249942   6.278   3.981   9.947  1.2299  0.9822 -1.4408
16354TIP3   OH249943   6.010   4.805   1.612  0.2428  0.2239  0.5333
16354TIP3    H149944   5.951   4.747   1.660  0.7814 -0.4666  0.3822
16354TIP3    H249945   5.955   4.847   1.546 -1.0740  2.9994  3.1557
16355TIP3   OH249946  10.560   6.176   8.838 -0.6472 -0.8309 -0.3684
16355TIP3    H149947  10.483   6.200   8.787 -1.0438 -0.3356  0.4412
16355TIP3    H249948  10.544   6.086   8.865 -0.6378 -0.9482 -0.7563
16356TIP3   OH249949   0.408   4.785   2.366 -0.0077  0.4158 -0.3389
16356TIP3    H149950   0.462   4.862   2.344 -0.6448  0.7045 -0.9386
16356TIP3    H249951   0.347   4.817   2.432  0.2396  0.2103 -0.0063
16357TIP3   OH249952   3.471   4.553   6.451 -0.1775 -0.0591  0.0132
16357TIP3    H149953   3.498   4.624   6.509  0.2402  1.5556 -2.0655
16357TIP3    H249954   3.522   4.478   6.480  1.4739  1.2035  0.5181
16358TIP3   OH249955   7.240   1.257   6.409  0.7657  0.4839  0.4120
16358TIP3    H149956   7.149   1.230   6.394  0.2802  2.2006  0.0156
16358TIP3    H249957   7.292   1.196   6.357 -0.2081 -0.1245  0.1194
16359TIP3   OH249958   6.222   4.822   7.141 -0.1839 -0.1387 -0.4789
16359TIP3    H149959   6.218   4.726   7.145 -0.4012 -0.1212 -0.2369
16359TIP3    H249960   6.224   4.849   7.233  0.6122  0.0616 -0.5503
16360TIP3   OH249961  10.035   5.416   3.679 -0.0705  0.4867 -0.7508
16360TIP3    H149962  10.104   5.454   3.626 -0.9393 -0.2108 -2.4448
16360TIP3    H249963  10.041   5.322   3.662 -0.5422  0.2715  0.1922
16361TIP3   OH249964   1.997   4.145   8.312 -0.0711  0.3396  0.1604
16361TIP3    H149965   2.010   4.113   8.401 -0.4231  0.6346  0.3228
16361TIP3    H249966   2.019   4.238   8.317 -1.3933  0.6732  0.2638
16362TIP3   OH249967   9.376   0.528   7.600  0.5864  0.0242 -0.2285
16362TIP3    H149968   9.364   0.485   7.516  0.6468  1.2944 -0.8971
16362TIP3    H249969   9.303   0.589   7.608 -0.1578 -0.9943  1.2381
16363TIP3   OH249970   1.701   2.418   8.086 -0.7134 -0.3965  0.6006
16363TIP3    H149971   1.735   2.338   8.127  0.2408 -0.5116 -0.3897
16363TIP3    H249972   1.642   2.386   8.018 -2.2250 -0.2029  1.7516
16364TIP3   OH249973   8.330   8.865   0.227  0.4098  1.0252  0.0686
16364TIP3    H149974   8.386   8.926   0.179 -0.1585  1.2110 -0.3665
16364TIP3    H249975   8.284   8.920   0.290 -0.1420  1.0589 -0.3602
16365TIP3   OH249976   6.185   9.464   8.304 -0.4066 -0.0412 -0.3415
16365TIP3    H149977   6.101   9.504   8.325 -0.9287 -0.4199 -1.6660
16365TIP3    H249978   6.245   9.538   8.293 -0.5526  0.2267  0.6018
16366TIP3   OH249979   8.141   5.877   5.766 -0.2146 -0.7059  0.1893
16366TIP3    H149980   8.125   5.798   5.817  1.0942 -1.8266 -1.0404
16366TIP3    H249981   8.237   5.884   5.761 -0.3083  0.1499 -0.8836
16367TIP3   OH249982   0.913   7.129   5.878  0.1058 -0.5024  0.3139
16367TIP3    H149983   0.963   7.210   5.868  1.2306 -1.2121  0.0040
16367TIP3    H249984   0.837   7.140   5.820  1.6127 -0.6952 -1.8015
16368TIP3   OH249985   7.627   1.028   9.235  0.2293 -0.1906  0.4004
16368TIP3    H149986   7.702   0.978   9.267  1.5971  1.4632 -0.0913
16368TIP3    H249987   7.665   1.097   9.181 -1.7324 -0.0177 -0.8619
16369TIP3   OH249988  10.501   3.529   1.885 -0.1711  0.0696  0.2137
16369TIP3    H149989  10.558   3.606   1.891  0.9869 -0.8737  2.4954
16369TIP3    H249990  10.561   3.455   1.874 -1.2540 -0.5834 -1.7577
16370TIP3   OH249991   2.318   1.000   7.812 -0.9215 -0.1220 -0.0409
16370TIP3    H149992   2.342   1.093   7.815 -0.8494 -0.0944 -1.1267
16370TIP3    H249993   2.229   0.997   7.847 -1.2881  0.4907 -0.9052
16371TIP3   OH249994   9.258   1.454   5.158 -0.3655 -0.0932 -0.5624
16371TIP3    H149995   9.313   1.528   5.131  0.5998 -0.1834  1.0024
16371TIP3    H249996   9.264   1.391   5.086  1.8777 -0.2380 -0.3117
16372TIP3   OH249997   1.644   0.875   6.787 -0.2376 -0.0548  0.1588
16372TIP3    H149998   1.610   0.916   6.707 -0.4677 -0.6729 -0.0671
16372TIP3    H249999   1.620   0.936   6.857  0.3803  0.7219 -0.2914
16373TIP3   OH250000   9.027   2.301   6.679  1.0035  0.2520 -0.4097
16373TIP3    H150001   8.974   2.221   6.674  1.8254 -0.4155  0.7578
16373TIP3    H250002   9.071   2.307   6.594 -0.5975  0.5890 -1.2348
16374TIP3   OH250003   3.043   2.316   3.093 -0.4804 -0.1092 -0.6550
16374TIP3    H150004   3.061   2.246   3.156 -2.0039  0.1902  0.1478
16374TIP3    H250005   3.129   2.354   3.075  0.1571 -1.0886  0.1825
16375TIP3   OH250006   5.228   7.276   1.566 -0.2373 -0.3612 -0.0126
16375TIP3    H150007   5.317   7.297   1.593 -0.0440  0.6787 -1.3513
16375TIP3    H250008   5.187   7.238   1.644  0.7886  0.9441  1.2065
16376TIP3   OH250009   0.253   3.514   2.926 -0.2615 -0.1809 -0.3948
16376TIP3    H150010   0.226   3.423   2.935 -0.5340 -0.1167 -0.5477
16376TIP3    H250011   0.195   3.562   2.985  0.1042 -0.1468 -0.0622
16377TIP3   OH250012   3.321   9.458   5.634 -0.3623  0.1602  0.3813
16377TIP3    H150013   3.343   9.463   5.727 -0.6368  0.2375  0.4430
16377TIP3    H250014   3.226   9.471   5.631 -0.5618 -1.2210  0.2115
16378TIP3   OH250015   9.536   4.297   4.467  0.0986 -0.1404  0.5813
16378TIP3    H150016   9.486   4.221   4.496  0.5134 -0.3485  0.7550
16378TIP3    H250017   9.542   4.288   4.372 -0.4973  0.0711  0.5194
16379TIP3   OH250018   1.630   0.950   0.163 -0.4867  0.1318 -0.7507
16379TIP3    H150019   1.559   0.961   0.227  0.7790  0.1866  0.6979
16379TIP3    H250020   1.683   1.029   0.173  0.0873 -0.1619 -1.4123
16380TIP3   OH250021   9.443   9.030   6.802  0.3490  0.3085  0.1513
16380TIP3    H150022   9.446   9.079   6.720  1.4865 -0.4170 -0.2794
16380TIP3    H250023   9.395   9.086   6.862 -0.7525  0.7437 -1.0811
16381TIP3   OH250024  10.097  10.197   1.099  0.1137  0.4090 -0.0325
16381TIP3    H150025  10.094  10.144   1.178  0.2866  1.0432  0.4052
16381TIP3    H250026  10.086  10.287   1.129  1.4638  0.7893 -0.5853
16382TIP3   OH250027   5.360  10.190   8.518 -0.5609  0.4240 -0.3679
16382TIP3    H150028   5.289  10.144   8.563 -0.8681  1.0496 -0.2069
16382TIP3    H250029   5.321  10.271   8.487 -0.3675 -0.0182 -1.8493
16383TIP3   OH250030   7.333   2.883   3.156  0.5602  0.7740 -0.2221
16383TIP3    H150031   7.350   2.934   3.235  0.0144 -0.9533  1.0946
16383TIP3    H250032   7.407   2.822   3.150 -1.0759 -1.5306  1.1060
16384TIP3   OH250033   5.552   8.148   2.256 -0.0497 -0.4502 -0.5277
16384TIP3    H150034   5.572   8.095   2.333  0.4025  0.2556 -0.1517
16384TIP3    H250035   5.503   8.089   2.199 -0.4237 -0.9722  0.3117
16385TIP3   OH250036   2.814   5.844  10.493  0.0572 -0.1154  0.2261
16385TIP3    H150037   2.755   5.821  10.565  0.6607 -1.4031  0.3327
16385TIP3    H250038   2.857   5.762  10.471  0.6522  0.4922 -0.9106
16386TIP3   OH250039   6.894  10.592   7.338 -0.0320  0.2425  0.1439
16386TIP3    H150040   6.828  10.535   7.300  1.2383 -1.1334 -0.0964
16386TIP3    H250041   6.911  10.555   7.424 -1.1549  1.9307  1.1676
16387TIP3   OH250042   5.353   4.015   0.836  0.0281  0.4738 -0.1356
16387TIP3    H150043   5.421   4.030   0.771 -0.9104  3.0649 -0.6428
16387TIP3    H250044   5.271   4.017   0.786 -0.5232 -1.5229  0.6023
16388TIP3   OH250045   2.451   2.746   5.349  0.1344 -0.2180  0.5259
16388TIP3    H150046   2.415   2.658   5.356  0.0793 -0.3592 -1.1016
16388TIP3    H250047   2.461   2.760   5.255  2.4536  0.5849  0.8389
16389TIP3   OH250048   5.186   0.983   5.826 -0.0903  0.0758 -0.5092
16389TIP3    H150049   5.126   1.005   5.754 -0.0318 -0.5264 -0.7524
16389TIP3    H250050   5.138   0.920   5.879  0.1041  0.0426 -0.3713
16390TIP3   OH250051   5.730   0.390   2.969 -0.0254  0.0120  0.3653
16390TIP3    H150052   5.823   0.379   2.946 -0.3842 -0.2109 -1.0460
16390TIP3    H250053   5.726   0.476   3.011  0.9398 -0.3009  1.1500
16391TIP3   OH250054   4.666   7.546   8.366  0.2302  0.1476  0.1415
16391TIP3    H150055   4.716   7.565   8.287 -0.6313 -0.4224 -0.5575
16391TIP3    H250056   4.588   7.500   8.335 -1.5433  2.3677  1.0439
16392TIP3   OH250057   1.625   1.611   2.374 -0.6417 -0.0063 -0.1486
16392TIP3    H150058   1.547   1.590   2.323 -1.0638  0.3554  0.3376
16392TIP3    H250059   1.697   1.574   2.324 -1.0121  0.6205 -1.1782
16393TIP3   OH250060   4.126   0.633   7.439  0.2784  0.1858  0.3625
16393TIP3    H150061   4.045   0.607   7.395 -0.2247  0.8683  0.8642
16393TIP3    H250062   4.141   0.565   7.505  1.0019 -0.8091 -0.7846
16394TIP3   OH250063   5.846   4.411   7.082 -0.0658 -0.2866  0.2365
16394TIP3    H150064   5.894   4.366   7.012  0.3209 -0.4849  0.6237
16394TIP3    H250065   5.809   4.340   7.135  0.1611 -0.1481  0.5840
16395TIP3   OH250066  10.405   2.994   6.287 -0.3749  0.0354  0.7522
16395TIP3    H150067  10.440   2.920   6.338 -2.4115 -0.6152  1.2888
16395TIP3    H250068  10.416   2.967   6.196 -0.6234 -0.7208  0.9384
16396TIP3   OH250069  10.790   9.260   9.969 -0.2028 -0.0040  0.1581
16396TIP3    H150070  10.789   9.265   9.874  0.6629  1.7174  0.2163
16396TIP3    H250071  10.880   9.236   9.991 -0.3933 -0.3818  0.5706
16397TIP3   OH250072   7.901   4.516   3.245  0.1026  0.2738 -0.2520
16397TIP3    H150073   7.855   4.453   3.190 -0.0181  0.5906 -0.5149
16397TIP3    H250074   7.943   4.576   3.183  0.6262  0.1611 -0.0125
16398TIP3   OH250075   7.989   8.402   9.648 -0.2139 -0.1339  0.1753
16398TIP3    H150076   7.906   8.355   9.656 -0.5962  0.6982  1.2214
16398TIP3    H250077   7.980   8.453   9.567 -0.6188 -0.2464  0.1479
16399TIP3   OH250078   2.795   7.237  10.798  0.3928  0.3830 -0.3964
16399TIP3    H150079   2.787   7.224  10.892  0.5749  1.3227 -0.2357
16399TIP3    H250080   2.704   7.234  10.766  0.4023 -0.9356 -0.3553
16400TIP3   OH250081   0.207   1.756   3.228  0.9548  0.0410 -0.1182
16400TIP3    H150082   0.245   1.669   3.244 -0.0343 -0.2360  0.8177
16400TIP3    H250083   0.129   1.738   3.176 -1.0426 -0.0082  2.7012
16401TIP3   OH250084   0.788   5.894   8.118  0.2764  0.1028  0.1613
16401TIP3    H150085   0.750   5.814   8.081  0.2320  1.1515 -2.2255
16401TIP3    H250086   0.867   5.864   8.164 -0.2801 -1.4050  0.2057
16402TIP3   OH250087   2.006   1.743   1.604 -0.5305  0.0992  0.2719
16402TIP3    H150088   2.046   1.673   1.551 -1.9049 -0.5549  0.0488
16402TIP3    H250089   2.071   1.813   1.605  0.6570 -0.9677  0.0261
16403TIP3   OH250090   9.191  10.847   2.688 -0.1947 -0.9738  0.2942
16403TIP3    H150091   9.256  10.777   2.687 -0.3618 -1.1620 -1.8790
16403TIP3    H250092   9.126  10.818   2.753  0.7246 -1.8714  0.8377
16404TIP3   OH250093   9.232   0.619   8.214 -0.1301  0.7377  0.1961
16404TIP3    H150094   9.241   0.524   8.222 -3.2241  0.2827 -0.4132
16404TIP3    H250095   9.266   0.652   8.297  2.2037 -0.7230 -0.0777
16405TIP3   OH250096   6.113  10.677   1.908 -0.0283  0.5623  0.7132
16405TIP3    H150097   6.182  10.620   1.875 -0.8712  0.9975 -2.0395
16405TIP3    H250098   6.065  10.705   1.830 -2.1371  1.8173  2.3414
16406TIP3   OH250099  10.086   9.162   4.339  0.3118  0.1680 -0.6675
16406TIP3    H150100  10.044   9.245   4.361 -1.0459 -0.6500 -0.0622
16406TIP3    H250101  10.061   9.145   4.248 -1.5654 -0.7747 -0.0344
16407TIP3   OH250102   2.387   1.858   4.683 -0.0888  0.0136 -0.0562
16407TIP3    H150103   2.302   1.875   4.723 -0.1293 -2.3652  1.0429
16407TIP3    H250104   2.427   1.945   4.674 -2.6649  1.2113 -0.7907
16408TIP3   OH250105   1.791   6.790   8.938 -0.1629 -0.3183  0.1135
16408TIP3    H150106   1.828   6.836   8.863 -1.3502 -0.2545 -0.4557
16408TIP3    H250107   1.843   6.820   9.012  2.0199 -1.4927 -0.8426
16409TIP3   OH250108   7.544   4.357  10.221 -0.0294  0.2826  0.3123
16409TIP3    H150109   7.478   4.418  10.252  1.1217  2.9628 -1.9930
16409TIP3    H250110   7.624   4.410  10.214  1.3043 -1.7473 -0.9117
16410TIP3   OH250111   6.544   3.738   5.696  0.1963 -0.0262  0.2708
16410TIP3    H150112   6.470   3.717   5.753  0.7600 -1.5496  0.4825
16410TIP3    H250113   6.620   3.701   5.740  0.8112 -0.1932 -0.8811
16411TIP3   OH250114   5.366   3.557   0.965  0.4016  0.4288  0.3567
16411TIP3    H150115   5.312   3.543   0.887  0.2476  1.7012  0.1983
16411TIP3    H250116   5.456   3.561   0.931  0.4123  0.2105  0.3572
16412TIP3   OH250117   9.038   8.624   9.387 -0.0489  0.3532  0.0928
16412TIP3    H150118   9.024   8.717   9.370 -0.0657  0.4247  0.4840
16412TIP3    H250119   8.967   8.599   9.446 -0.5992 -0.1361 -0.7590
16413TIP3   OH250120   2.171  10.640   9.022  0.3565 -0.2779  0.0493
16413TIP3    H150121   2.142  10.686   8.943  1.3455 -1.3946 -1.0150
16413TIP3    H250122   2.164  10.704   9.092 -0.0968  0.8928 -1.0405
16414TIP3   OH250123   8.668   3.991   8.028  0.2302 -0.5417  0.1732
16414TIP3    H150124   8.684   3.964   8.119 -0.3196 -2.8750 -0.3756
16414TIP3    H250125   8.631   4.079   8.036  0.7671 -0.4412  2.1684
16415TIP3   OH250126   2.820   9.578   5.226  0.3776  0.5157  0.1449
16415TIP3    H150127   2.755   9.515   5.259  0.8429 -0.0501 -0.0099
16415TIP3    H250128   2.819   9.648   5.291 -0.0426  0.2847  0.3983
16416TIP3   OH250129   7.696   1.717   1.424  0.1271 -0.2509  0.2593
16416TIP3    H150130   7.732   1.743   1.339  1.0037  1.5821  1.1187
16416TIP3    H250131   7.640   1.642   1.405  0.4706 -0.0269 -1.8935
16417TIP3   OH250132   9.629  10.704   8.920 -0.0374  0.1380  0.0679
16417TIP3    H150133   9.628  10.723   9.014  2.2848  1.0075 -0.0176
16417TIP3    H250134   9.566  10.633   8.909 -1.3863  0.9366  2.0497
16418TIP3   OH250135   2.096   8.049   1.376  0.6814 -0.0434  0.5328
16418TIP3    H150136   2.019   8.061   1.432 -0.4339 -0.1572 -0.9145
16418TIP3    H250137   2.068   7.983   1.312  1.8764  0.1837 -0.2418
16419TIP3   OH250138   3.499   5.567   1.900 -0.3939  0.5624 -0.2886
16419TIP3    H150139   3.440   5.555   1.826  1.2434 -1.7266 -1.3438
16419TIP3    H250140   3.571   5.619   1.864 -0.4856  1.0691  0.2468
16420TIP3   OH250141   3.312   7.489   9.155 -0.4895 -0.2744  0.5150
16420TIP3    H150142   3.371   7.563   9.163  0.1032 -0.7945  1.0321
16420TIP3    H250143   3.249   7.500   9.227 -0.1127 -0.5280  0.8856
16421TIP3   OH250144   8.841   2.107   4.060 -0.3745 -0.3452  0.5298
16421TIP3    H150145   8.746   2.106   4.047 -0.6582  0.0724  2.2574
16421TIP3    H250146   8.871   2.023   4.028 -1.3156 -0.4312 -0.1632
16422TIP3   OH250147   4.076   8.272   5.549 -0.1318 -0.0380  0.8664
16422TIP3    H150148   4.008   8.333   5.522  0.7733  1.5878  2.1025
16422TIP3    H250149   4.153   8.297   5.497  0.2614 -0.1152  1.4050
16423TIP3   OH250150   2.504   8.597  10.765  0.0374  0.0107 -0.4992
16423TIP3    H150151   2.451   8.534  10.715  0.2435 -0.9291  0.4411
16423TIP3    H250152   2.488   8.680  10.721 -3.1675  0.0169  0.4146
16424TIP3   OH250153   9.101   5.081  10.043 -0.0832 -0.0192 -0.1321
16424TIP3    H150154   9.034   5.014  10.031 -0.2469 -0.5788  3.0412
16424TIP3    H250155   9.173   5.035  10.086  0.1966  1.6114  1.2310
16425TIP3   OH250156   5.131   1.386   4.591 -0.0095  0.7251  0.3489
16425TIP3    H150157   5.216   1.359   4.555 -0.8152 -1.7320  0.1386
16425TIP3    H250158   5.154   1.452   4.657  2.0782  0.1296  0.3079
16426TIP3   OH250159   8.317  10.231  10.366  0.6790  0.4213  0.3391
16426TIP3    H150160   8.311  10.226  10.461 -2.2544 -0.5625  0.1879
16426TIP3    H250161   8.323  10.139  10.338 -0.2896  0.6043 -0.4916
16427TIP3   OH250162   5.789   1.262   6.715 -0.7789  0.2664 -0.4175
16427TIP3    H150163   5.794   1.356   6.702 -2.4053  0.3598 -0.5787
16427TIP3    H250164   5.759   1.227   6.631 -1.4471 -0.2473  0.0262
16428TIP3   OH250165   4.525   2.969   7.681  0.3439 -0.4205  0.1231
16428TIP3    H150166   4.618   2.955   7.666  0.6384  1.2755  0.0715
16428TIP3    H250167   4.514   2.963   7.776  0.6545  0.1047  0.1938
16429TIP3   OH250168   6.703   2.784   8.944 -0.1536  0.2054  0.0222
16429TIP3    H150169   6.750   2.849   8.997  1.1239 -1.3141  0.8302
16429TIP3    H250170   6.735   2.800   8.855 -0.7371  1.4175  0.0078
16430TIP3   OH250171   7.861   5.092   4.354 -0.4335  0.5125  0.0924
16430TIP3    H150172   7.919   5.160   4.321 -1.1329  0.7754 -0.6319
16430TIP3    H250173   7.781   5.101   4.302  0.5027 -2.8300 -2.2624
16431TIP3   OH250174   5.705   9.550   3.579  0.3381 -0.6702 -0.0716
16431TIP3    H150175   5.736   9.548   3.670 -0.9520 -0.0627  0.4064
16431TIP3    H250176   5.611   9.568   3.586  0.0906 -1.2763 -1.5103
16432TIP3   OH250177   2.000   5.880   6.738 -0.5012  0.2894  0.3450
16432TIP3    H150178   1.977   5.951   6.678  1.1300  1.9660  1.5764
16432TIP3    H250179   1.993   5.920   6.825  0.3222 -1.1073  1.0778
16433TIP3   OH250180   9.575   5.338   8.640  0.3150  0.8887 -0.4918
16433TIP3    H150181   9.628   5.275   8.593 -0.2017  0.3606 -0.3872
16433TIP3    H250182   9.637   5.388   8.692  0.5240 -2.1278  2.5285
16434TIP3   OH250183   4.595   0.056  10.207 -0.0255 -0.3571  0.2477
16434TIP3    H150184   4.603   0.017  10.120 -0.6690 -1.1628  0.5336
16434TIP3    H250185   4.684   0.057  10.241  0.6212  2.0028 -1.2416
16435TIP3   OH250186  10.416   9.070   9.128 -0.0976 -0.1212  0.4077
16435TIP3    H150187  10.432   9.056   9.222  2.7440  0.1014  0.0329
16435TIP3    H250188  10.366   8.992   9.101 -2.2804  0.4861  2.3086
16436TIP3   OH250189   2.928   6.382   7.530 -0.5029 -0.1584  0.1574
16436TIP3    H150190   2.896   6.344   7.448  0.2348 -1.1420  0.3199
16436TIP3    H250191   2.976   6.311   7.573 -0.0563  0.6318  0.9935
16437TIP3   OH250192   1.213  10.230   9.984  0.4188 -0.2452  0.3818
16437TIP3    H150193   1.262  10.260  10.060  0.2628 -0.5633  0.6113
16437TIP3    H250194   1.136  10.287   9.981  0.7169  0.1433  0.1206
16438TIP3   OH250195   3.856   1.295   6.995 -0.8140 -0.0610 -0.3246
16438TIP3    H150196   3.773   1.341   6.986 -1.0616 -0.4649 -0.1361
16438TIP3    H250197   3.832   1.207   7.022 -0.3448 -0.3178 -0.7239
16439TIP3   OH250198   0.410   3.754   9.299  0.1045 -0.0757  0.0547
16439TIP3    H150199   0.414   3.719   9.389  2.2047 -0.0839 -0.0058
16439TIP3    H250200   0.430   3.847   9.309 -1.3348  0.2982 -0.2637
16440TIP3   OH250201   5.783  10.334   2.706  0.0377 -0.1583 -0.4829
16440TIP3    H150202   5.813  10.246   2.683  1.8981  0.2107  0.3718
16440TIP3    H250203   5.741  10.323   2.792  0.2151 -0.2386 -0.4044
16441TIP3   OH250204   9.338   0.104   8.345  0.0020  0.0387 -0.1083
16441TIP3    H150205   9.365   0.136   8.432 -0.2806  2.0232 -0.6842
16441TIP3    H250206   9.404   0.039   8.322  0.0026 -0.6348  1.6495
16442TIP3   OH250207  10.647   8.316   3.095 -0.0837  0.3949  0.2968
16442TIP3    H150208  10.725   8.281   3.137 -0.8944 -0.0774  1.4770
16442TIP3    H250209  10.680   8.375   3.028  1.2814 -0.0101  0.5824
16443TIP3   OH250210   5.702   0.633   7.638  0.0614 -0.1977 -0.1138
16443TIP3    H150211   5.754   0.556   7.618 -1.0214 -0.6673 -1.2572
16443TIP3    H250212   5.611   0.603   7.632 -0.3638  0.7925  0.9760
16444TIP3   OH250213   2.203   2.286   9.780  0.5060  0.0730  0.2593
16444TIP3    H150214   2.122   2.325   9.746 -1.0735 -2.1743  1.1880
16444TIP3    H250215   2.187   2.273   9.873  0.9575 -2.5203  0.0579
16445TIP3   OH250216   9.084   2.406   2.960  0.1799 -0.6522  0.4382
16445TIP3    H150217   9.092   2.495   2.926  1.9070 -0.7213  0.5442
16445TIP3    H250218   9.155   2.358   2.916  0.6874 -1.4148  2.0179
16446TIP3   OH250219   3.567   3.740   1.501 -0.0557 -0.5037 -0.1279
16446TIP3    H150220   3.510   3.754   1.426 -0.9855  4.0093  1.1416
16446TIP3    H250221   3.647   3.787   1.479  0.2713 -0.4511  1.0942
16447TIP3   OH250222   8.514  10.654   2.791 -0.3247  0.7015  0.0266
16447TIP3    H150223   8.454  10.716   2.832 -1.5671  0.7979 -1.8180
16447TIP3    H250224   8.495  10.660   2.698  2.0257  0.1305 -0.5492
16448TIP3   OH250225  10.699   0.489   4.600  0.7786 -0.0996 -0.1603
16448TIP3    H150226  10.604   0.502   4.591  0.6371  1.8933  2.6784
16448TIP3    H250227  10.707   0.421   4.667  1.4317 -1.1412 -1.2513
16449TIP3   OH250228   3.229   2.621   0.101 -0.0644 -0.3545  0.4922
16449TIP3    H150229   3.298   2.601   0.165 -0.3631 -3.5677 -0.0304
16449TIP3    H250230   3.166   2.673   0.150  0.3073 -1.6523  2.5136
16450TIP3   OH250231   1.321  10.795   4.264 -0.2530 -0.7599 -0.3577
16450TIP3    H150232   1.341  10.722   4.205 -1.7672 -0.8888 -0.7700
16450TIP3    H250233   1.406  10.825   4.295  0.5348 -1.2815 -1.9029
16451TIP3   OH250234   8.597   1.750   4.338  0.2598  0.0839  0.1337
16451TIP3    H150235   8.607   1.837   4.376  1.9594 -0.1687  0.3624
16451TIP3    H250236   8.679   1.705   4.361 -0.1807 -1.2481 -0.8069
16452TIP3   OH250237   2.802   0.167   4.167 -0.0531  0.4863  0.6116
16452TIP3    H150238   2.832   0.257   4.155 -2.6465  1.4418  0.7431
16452TIP3    H250239   2.708   0.171   4.155 -0.7201 -1.6243  3.8943
16453TIP3   OH250240   3.191   2.517   6.245  0.1842  0.5704 -0.0028
16453TIP3    H150241   3.111   2.469   6.267  1.1199 -0.4423  1.3751
16453TIP3    H250242   3.259   2.449   6.241  1.2313  1.5768  0.2265
16454TIP3   OH250243   1.330  10.048  10.785  0.5919 -0.4239  0.3873
16454TIP3    H150244   1.377   9.971  10.755  0.3426 -0.0941 -0.9091
16454TIP3    H250245   1.359  10.118  10.727  0.5274  0.3910  1.2964
16455TIP3   OH250246   7.256   7.624   3.801  0.1424  0.5209  0.1061
16455TIP3    H150247   7.176   7.637   3.850 -0.3432 -0.6636 -0.3276
16455TIP3    H250248   7.322   7.602   3.867  0.1589  1.5876  0.4711
16456TIP3   OH250249   4.824   9.434   5.655 -0.1612 -0.3824  0.1332
16456TIP3    H150250   4.738   9.422   5.614 -0.3629 -2.8845  1.0934
16456TIP3    H250251   4.886   9.423   5.584 -0.5910 -1.2225 -0.1291
16457TIP3   OH250252   8.575   2.169   0.572  0.5619  0.2033 -0.0278
16457TIP3    H150253   8.643   2.157   0.638  0.5382 -0.9693 -0.1967
16457TIP3    H250254   8.621   2.166   0.488  0.4098  0.2166 -0.1130
16458TIP3   OH250255   2.030   6.484   9.567  0.3228 -0.6944 -0.0848
16458TIP3    H150256   1.954   6.523   9.523 -0.3626 -1.2741  0.5461
16458TIP3    H250257   2.034   6.529   9.652  0.3860 -0.9926  0.0721
16459TIP3   OH250258   4.478   7.009   9.488 -0.2214 -0.0177 -0.3782
16459TIP3    H150259   4.486   7.023   9.582 -1.3162  0.0131 -0.2819
16459TIP3    H250260   4.426   6.930   9.479  0.3657 -0.3446 -0.9624
16460TIP3   OH250261   2.880   3.728   9.003 -0.0969  0.1011 -0.0415
16460TIP3    H150262   2.962   3.765   8.970  0.0268 -1.2247 -1.3301
16460TIP3    H250263   2.904   3.687   9.086  0.7823 -1.0447 -0.8283
16461TIP3   OH250264   1.346   8.581   6.892 -0.0359 -0.0279  0.7714
16461TIP3    H150265   1.319   8.669   6.916 -1.2558  0.4041 -1.9040
16461TIP3    H250266   1.415   8.593   6.827 -1.0616 -0.9855 -0.5404
16462TIP3   OH250267   8.697   3.301   8.314  0.2216 -0.2681  0.2911
16462TIP3    H150268   8.731   3.355   8.385  0.7691  0.1410 -0.2689
16462TIP3    H250269   8.769   3.297   8.251 -0.9340  1.0387 -1.1721
16463TIP3   OH250270  10.227   9.615  10.447 -0.3773  0.0266 -0.0608
16463TIP3    H150271  10.256   9.529  10.417  0.5541  0.2932  0.0366
16463TIP3    H250272  10.307   9.667  10.452 -1.1733  1.6268 -2.3709
16464TIP3   OH250273   3.701   5.193   0.786 -0.4015  0.0323  0.0375
16464TIP3    H150274   3.795   5.205   0.796 -0.0742 -1.5137 -0.8403
16464TIP3    H250275   3.680   5.119   0.843 -1.0802  0.3258  0.1807
16465TIP3   OH250276  10.363   7.479   4.809  0.3869 -0.2455 -0.7132
16465TIP3    H150277  10.275   7.445   4.826 -0.0263  1.5673  1.2708
16465TIP3    H250278  10.422   7.410   4.840 -0.3849 -0.3382  0.6275
16466TIP3   OH250279   1.482   7.285   9.901 -0.8713 -0.2183 -0.2420
16466TIP3    H150280   1.567   7.260   9.939 -1.5486  0.8188  2.1993
16466TIP3    H250281   1.423   7.214   9.927 -0.9461 -0.4957 -1.1559
16467TIP3   OH250282   8.215   4.336   3.137  0.1059  0.5011  0.1572
16467TIP3    H150283   8.255   4.392   3.203  0.5157 -0.1574  0.4794
16467TIP3    H250284   8.123   4.330   3.162 -0.3712  2.5248 -0.9310
16468TIP3   OH250285   1.361   6.926   8.068 -0.2476  0.5442  0.1105
16468TIP3    H150286   1.427   6.870   8.027 -0.8279  1.6534 -2.5111
16468TIP3    H250287   1.401   7.013   8.068 -1.1584  0.9751 -0.2280
16469TIP3   OH250288   1.426   6.827   1.761 -0.3482  0.1140 -0.2194
16469TIP3    H150289   1.359   6.895   1.754  0.2342  0.7138 -0.0052
16469TIP3    H250290   1.489   6.848   1.692 -0.1502 -0.1972 -0.1366
16470TIP3   OH250291  10.232   8.772   4.773  0.4191 -0.3334  0.4834
16470TIP3    H150292  10.271   8.684   4.781 -0.5028 -0.6912  1.2057
16470TIP3    H250293  10.271   8.822   4.844 -0.5711 -0.7584  1.3542
16471TIP3   OH250294   4.955   0.280   1.588 -0.8172  0.5169  0.3588
16471TIP3    H150295   4.932   0.228   1.666  1.0512 -0.8324  0.0566
16471TIP3    H250296   5.021   0.342   1.619  1.9025 -1.7393 -0.5775
16472TIP3   OH250297   2.026   3.606   6.273  0.0539 -0.1328  0.2277
16472TIP3    H150298   1.984   3.548   6.209 -1.0156 -2.8329  3.1087
16472TIP3    H250299   1.958   3.669   6.296 -0.7579 -1.2498  1.0402
16473TIP3   OH250300   0.163   3.636   9.282 -0.0751 -0.3471 -0.7495
16473TIP3    H150301   0.143   3.626   9.189 -0.0559 -0.0268 -0.7894
16473TIP3    H250302   0.251   3.672   9.284 -0.6839  1.2310 -0.6633
16474TIP3   OH250303   3.483   6.977  10.630 -0.3294 -0.5316  0.2864
16474TIP3    H150304   3.405   6.954  10.579  0.0926 -2.3236  0.3905
16474TIP3    H250305   3.553   6.923  10.594  1.2491  2.0201 -0.7094
16475TIP3   OH250306   2.447   3.115   3.963  0.1982 -0.5101  0.1905
16475TIP3    H150307   2.444   3.134   3.870 -0.0631 -1.1739  0.0528
16475TIP3    H250308   2.407   3.191   4.005 -0.3553 -0.5257 -0.2936
16476TIP3   OH250309  10.419   2.197   7.145  0.1110 -0.0233  0.0459
16476TIP3    H150310  10.459   2.152   7.071 -0.9835  0.3796 -0.8207
16476TIP3    H250311  10.350   2.138   7.174 -0.2475  0.3518 -0.0363
16477TIP3   OH250312   0.301   9.935   4.932 -0.0373  0.2787 -0.0034
16477TIP3    H150313   0.266  10.023   4.919 -2.4793 -0.7750 -1.4676
16477TIP3    H250314   0.386   9.936   4.888 -0.5335  1.6178 -1.0075
16478TIP3   OH250315   2.642   5.111   3.605  0.3050  0.0240 -0.1302
16478TIP3    H150316   2.632   5.173   3.678  1.4358  0.3002 -0.1933
16478TIP3    H250317   2.677   5.032   3.645  1.1583  0.2585 -0.3965
16479TIP3   OH250318   4.266  10.681   2.143 -0.4654  0.0065 -0.2930
16479TIP3    H150319   4.322  10.614   2.184 -1.2554 -0.1011  0.6587
16479TIP3    H250320   4.313  10.763   2.159 -0.1759 -0.1698 -0.2175
16480TIP3   OH250321   9.881   2.552   7.983 -0.9091 -0.2189  0.5146
16480TIP3    H150322   9.841   2.468   7.958 -1.5500 -0.3126  1.7714
16480TIP3    H250323   9.854   2.565   8.074  0.0659  0.8435  0.6705
16481TIP3   OH250324   3.494   4.022   9.932  0.4676 -0.3014 -0.6159
16481TIP3    H150325   3.570   3.991   9.884 -0.8894 -1.2235 -2.2539
16481TIP3    H250326   3.432   4.051   9.865 -0.4230  0.9848  0.6831
16482TIP3   OH250327   8.516   4.002   4.885 -0.5339 -0.0013 -0.5200
16482TIP3    H150328   8.564   4.083   4.873  0.9987 -0.7277  0.4823
16482TIP3    H250329   8.425   4.025   4.866 -0.0677  1.8372 -0.6709
16483TIP3   OH250330   5.433   8.190   7.995 -0.4046 -0.5965 -0.0219
16483TIP3    H150331   5.525   8.198   7.968  0.3837  2.4345  2.8913
16483TIP3    H250332   5.385   8.239   7.929  0.1764 -1.2718 -0.9722
16484TIP3   OH250333   7.487   3.585   9.102  0.2289  0.8007 -0.3928
16484TIP3    H150334   7.419   3.606   9.037  0.1118  0.6868 -0.3075
16484TIP3    H250335   7.539   3.665   9.108 -0.6558  1.3429  0.4718
16485TIP3   OH250336   3.970   1.864   7.979 -0.6559 -0.7002  0.4639
16485TIP3    H150337   4.011   1.923   8.042 -1.3908 -1.1180  1.3634
16485TIP3    H250338   3.876   1.883   7.986 -0.6865 -0.1771 -1.1174
16486TIP3   OH250339   6.737   5.445   6.782 -0.2071 -0.1777 -0.0139
16486TIP3    H150340   6.647   5.413   6.791 -0.2326 -0.0067  0.3521
16486TIP3    H250341   6.767   5.457   6.872  0.4881 -1.0851 -0.1170
16487TIP3   OH250342  10.645   5.792   4.673  0.2895  0.0586 -0.1635
16487TIP3    H150343  10.659   5.748   4.757  0.9405  0.1766 -0.1980
16487TIP3    H250344  10.639   5.721   4.609 -0.2299 -0.0324 -0.0178
16488TIP3   OH250345   8.561   6.123   4.849 -0.4969 -0.3114 -0.4598
16488TIP3    H150346   8.487   6.084   4.895 -0.5403 -0.1604 -0.4025
16488TIP3    H250347   8.593   6.053   4.792 -0.4236 -0.5086 -0.1762
16489TIP3   OH250348   4.953   1.106  10.417  0.2115 -0.1624  0.3726
16489TIP3    H150349   4.967   1.109  10.322  2.6822 -0.2451  0.6581
16489TIP3    H250350   4.952   1.013  10.438 -0.5543 -0.1490  0.4188
16490TIP3   OH250351  10.255   0.565   7.821 -0.6121  0.1701  0.0336
16490TIP3    H150352  10.345   0.580   7.792 -0.8503  0.6517 -0.4931
16490TIP3    H250353  10.201   0.607   7.753 -1.2631 -0.9235 -0.1462
16491TIP3   OH250354  10.811   5.858   8.975 -0.6949  0.2116 -0.1195
16491TIP3    H150355  10.794   5.787   9.036 -0.2992 -2.1102 -2.5109
16491TIP3    H250356  10.734   5.914   8.981 -2.2697 -1.8534  0.0380
16492TIP3   OH250357   1.904   4.609   5.997  0.9322 -0.6233  0.3283
16492TIP3    H150358   1.954   4.545   6.047 -0.5597 -0.7629  1.7383
16492TIP3    H250359   1.829   4.630   6.053 -1.3347 -1.4093 -2.1919
16493TIP3   OH250360  10.010   5.119   0.039 -0.2004  0.8600  0.1024
16493TIP3    H150361   9.984   5.134  -0.051 -1.0944 -0.9537  0.0220
16493TIP3    H250362   9.934   5.145   0.091 -0.8366 -0.9500  0.1138
16494TIP3   OH250363  10.477   2.886   6.053  0.3595 -0.0911  0.4551
16494TIP3    H150364  10.486   2.942   5.976 -0.6923  0.1085  0.4520
16494TIP3    H250365  10.554   2.831   6.052 -0.0113 -0.6485 -1.2103
16495TIP3   OH250366  10.377   2.575   4.165  0.8614 -0.0945 -0.4643
16495TIP3    H150367  10.307   2.628   4.126  0.4683 -1.5078 -1.7674
16495TIP3    H250368  10.345   2.485   4.160  0.5527 -0.4023  3.6570
16496TIP3   OH250369   0.791   6.124  10.467 -0.0754  0.0434  0.1191
16496TIP3    H150370   0.783   6.075  10.549  3.7080 -0.0409  0.5998
16496TIP3    H250371   0.713   6.098  10.417 -2.2486 -0.3266  3.3691
16497TIP3   OH250372   8.398   4.029   4.559  0.1716 -0.5169 -0.1212
16497TIP3    H150373   8.345   4.047   4.482 -1.1617 -2.5861  0.2614
16497TIP3    H250374   8.381   4.102   4.618 -1.4872 -0.6371 -0.4212
16498TIP3   OH250375   9.883   2.828   0.330  0.3110 -0.7995  0.2023
16498TIP3    H150376   9.946   2.812   0.260  0.3717  0.3495 -0.0158
16498TIP3    H250377   9.937   2.858   0.404  0.1048 -0.6799  0.3043
16499TIP3   OH250378   2.227   3.517   1.899  0.7299  0.4170  0.0391
16499TIP3    H150379   2.139   3.555   1.895 -0.1497 -1.3155  1.5196
16499TIP3    H250380   2.213   3.428   1.930  3.1542  0.6645  2.1727
16500TIP3   OH250381   1.006   4.513   2.692  0.0582  0.2003 -0.5847
16500TIP3    H150382   1.017   4.594   2.642  0.8174 -0.6845 -1.9105
16500TIP3    H250383   0.968   4.451   2.629  1.1622 -0.9946 -0.1157
16501TIP3   OH250384   4.897   5.134   6.959  0.6080  0.1027  0.0981
16501TIP3    H150385   4.957   5.191   6.911 -1.4311  3.5121  1.2521
16501TIP3    H250386   4.819   5.129   6.905  0.2139 -0.4098  0.6971
16502TIP3   OH250387   7.599   5.602   9.101 -0.3299 -0.1193  0.1967
16502TIP3    H150388   7.560   5.538   9.042  1.1612 -0.3400 -0.6002
16502TIP3    H250389   7.546   5.597   9.180 -2.0890 -0.1650 -0.9168
16503TIP3   OH250390  10.583   7.231   9.116 -0.2935 -0.3781 -0.0904
16503TIP3    H150391  10.671   7.268   9.121 -0.5459  0.0517  1.8269
16503TIP3    H250392  10.524   7.307   9.112 -0.6466 -0.6299  0.1934
16504TIP3   OH250393   3.596   0.476   7.106  0.3307 -0.1194  0.3231
16504TIP3    H150394   3.520   0.447   7.055  1.2039 -0.8032 -0.6552
16504TIP3    H250395   3.591   0.426   7.187  0.6545 -1.5130 -0.4691
16505TIP3   OH250396   1.894   7.447   6.404 -0.3961 -0.1021 -0.1496
16505TIP3    H150397   1.961   7.454   6.472  0.9087 -0.0450 -1.4059
16505TIP3    H250398   1.942   7.422   6.325 -1.7890  0.3928 -1.1938
16506TIP3   OH250399   1.238   9.784   7.657 -0.6932  0.4937  0.3347
16506TIP3    H150400   1.190   9.867   7.661 -0.6725  0.5541 -0.4894
16506TIP3    H250401   1.323   9.804   7.696 -0.8846  0.7133  0.6472
16507TIP3   OH250402   2.564   9.853   0.625  0.3197  0.2443  0.1417
16507TIP3    H150403   2.635   9.850   0.560  0.4356  0.5158  0.2524
16507TIP3    H250404   2.484   9.863   0.573  0.4528  0.9331  0.0533
16508TIP3   OH250405   2.612  10.125   6.983 -0.1404  0.5323 -0.4777
16508TIP3    H150406   2.627  10.032   6.969 -0.6882  0.1870  1.0113
16508TIP3    H250407   2.686  10.154   7.037 -0.0121  0.9446 -0.8700
16509TIP3   OH250408  10.013   3.256   9.983 -0.6025 -0.1004  0.1563
16509TIP3    H150409   9.987   3.176  10.028  0.9858 -1.3865 -1.0837
16509TIP3    H250410  10.008   3.324  10.050  0.3993 -1.6909  1.9600
16510TIP3   OH250411   8.905   5.815   2.378 -0.3941  0.4145  0.7564
16510TIP3    H150412   8.992   5.828   2.340 -1.0567  0.2355 -0.9154
16510TIP3    H250413   8.919   5.759   2.454  1.0004  0.7772  0.7830
16511TIP3   OH250414   7.793   2.846   2.001  0.3947  0.6166 -0.1872
16511TIP3    H150415   7.760   2.936   1.994 -3.6358 -0.5474  1.3644
16511TIP3    H250416   7.758   2.802   1.923 -0.2531 -0.2523  0.5735
16512TIP3   OH250417   6.137  10.272   6.510 -1.0838 -0.3205 -0.1355
16512TIP3    H150418   6.083  10.213   6.562 -0.5464  1.0152  2.0158
16512TIP3    H250419   6.216  10.285   6.562 -0.7916  1.5958 -0.9872
16513TIP3   OH250420   1.134   9.727   8.010  0.0536  0.2252 -0.2502
16513TIP3    H150421   1.078   9.801   8.033 -0.3684  0.1611 -1.0410
16513TIP3    H250422   1.168   9.696   8.093 -1.3771  0.0311  0.2902
16514TIP3   OH250423   0.178   0.490   9.064  0.0289 -0.2929  0.0011
16514TIP3    H150424   0.240   0.538   9.009  0.5296  0.8130  1.4617
16514TIP3    H250425   0.165   0.547   9.140 -0.9223 -1.6029  0.8518
16515TIP3   OH250426   6.558   9.811   9.427 -0.3390 -0.0034 -0.3237
16515TIP3    H150427   6.542   9.899   9.460  0.5784  0.1550 -0.2541
16515TIP3    H250428   6.601   9.766   9.500 -1.4298 -0.7313 -0.1151
16516TIP3   OH250429  10.861  10.292  10.708 -0.0945 -0.2697  0.2395
16516TIP3    H150430  10.862  10.321  10.617  2.7765 -0.4906  0.0917
16516TIP3    H250431  10.922  10.218  10.710 -0.4223 -0.5402  2.2612
16517TIP3   OH250432   6.208   9.223   5.980 -0.7207 -0.2744  0.2690
16517TIP3    H150433   6.161   9.150   6.021  0.4804 -1.7531 -0.8739
16517TIP3    H250434   6.301   9.206   6.000 -0.3033  0.1808 -1.1629
16518TIP3   OH250435   5.009   5.643   4.755 -0.8178  0.3283 -0.0416
16518TIP3    H150436   5.045   5.555   4.753 -1.1618  0.1178  1.4973
16518TIP3    H250437   5.077   5.699   4.719  0.9481 -0.1090  2.3644
16519TIP3   OH250438  10.477   7.599   2.878 -0.4684  0.8943  0.1738
16519TIP3    H150439  10.466   7.513   2.918 -0.3358  0.9826  0.4059
16519TIP3    H250440  10.553   7.589   2.820 -1.5795  0.3518 -1.2382
16520TIP3   OH250441   7.246   1.377   2.038 -0.0569  0.4101 -0.5960
16520TIP3    H150442   7.281   1.434   1.969 -2.1761  1.9344 -0.5060
16520TIP3    H250443   7.159   1.351   2.007 -1.9383  2.7092  2.1974
16521TIP3   OH250444   9.150   5.399   3.036  0.0760  0.2616 -0.3543
16521TIP3    H150445   9.082   5.336   3.010 -0.4030  0.0515  1.3076
16521TIP3    H250446   9.102   5.478   3.058  0.5042  0.5544 -0.4544
16522TIP3   OH250447   5.275   4.664   3.493  0.0083  0.0883  0.5055
16522TIP3    H150448   5.211   4.598   3.520 -0.2009  0.8755  2.0466
16522TIP3    H250449   5.330   4.677   3.570  0.8910  0.7430 -0.2155
16523TIP3   OH250450   9.809   5.927   1.479 -0.1939  0.3014  0.1908
16523TIP3    H150451   9.862   5.914   1.400 -0.9765 -0.6826 -0.1964
16523TIP3    H250452   9.853   5.999   1.526 -0.1824  1.4918 -1.5441
16524TIP3   OH250453   2.919   4.153   0.477 -0.1887  0.2631  0.7039
16524TIP3    H150454   2.966   4.202   0.544  1.0922 -0.8105  0.6149
16524TIP3    H250455   2.833   4.135   0.516 -0.2277  1.4758  1.2072
16525TIP3   OH250456   8.692   6.523  10.248  0.0308 -0.1179  0.1063
16525TIP3    H150457   8.749   6.464  10.197 -1.1299 -2.9341  1.8417
16525TIP3    H250458   8.631   6.558  10.183  0.3628 -1.3604 -0.9371
16526TIP3   OH250459   4.315   4.555   5.286  0.6665  0.0350 -0.0624
16526TIP3    H150460   4.298   4.463   5.304  2.5325 -0.1924  0.7300
16526TIP3    H250461   4.235   4.600   5.315  0.9691 -1.0090  2.6544
16527TIP3   OH250462   8.627   1.003   8.236  0.1855  0.2260 -0.4461
16527TIP3    H150463   8.657   0.916   8.209 -0.5506  0.2765 -1.4523
16527TIP3    H250464   8.681   1.064   8.186 -0.7047  0.3272 -1.2842
16528TIP3   OH250465   4.187   4.261   4.265 -0.1759 -0.0934  0.5150
16528TIP3    H150466   4.127   4.245   4.192  0.1044  0.3920  0.1711
16528TIP3    H250467   4.269   4.289   4.224 -0.1764  0.7094  1.0173
16529TIP3   OH250468   2.071   4.870   5.630  0.4621  0.4658  0.1781
16529TIP3    H150469   2.109   4.951   5.665  1.3916  0.0345  0.2154
16529TIP3    H250470   1.978   4.875   5.652  0.3358  1.9170 -0.5798
16530TIP3   OH250471   7.718   4.881   0.854  0.3728 -0.2940 -0.8388
16530TIP3    H150472   7.656   4.886   0.926 -0.0312  0.4501 -1.2323
16530TIP3    H250473   7.739   4.788   0.847 -0.6682 -0.5541 -0.6740
16531TIP3   OH250474   7.052   5.616   2.465  0.4825  0.2481 -0.2600
16531TIP3    H150475   6.971   5.596   2.418  0.7656  0.2307 -0.7416
16531TIP3    H250476   7.122   5.578   2.412  0.8575  0.7272 -0.1237
16532TIP3   OH250477   9.416  10.856   2.968 -0.0395  0.0359  0.3995
16532TIP3    H150478   9.404  10.935   3.020  0.3401 -0.6801  1.6078
16532TIP3    H250479   9.509  10.856   2.945 -0.1365  0.1762 -0.0101
16533TIP3   OH250480   9.581   1.559   7.561  0.0725  0.0231 -0.0719
16533TIP3    H150481   9.643   1.493   7.591  0.3893 -0.0580 -0.8794
16533TIP3    H250482   9.635   1.636   7.543 -0.3496  0.6618  1.2901
16534TIP3   OH250483   0.359   5.302   8.110 -0.2139  0.5637 -0.2459
16534TIP3    H150484   0.401   5.336   8.030 -1.1054  0.3176 -0.8288
16534TIP3    H250485   0.275   5.347   8.114 -1.4628 -1.5581 -1.0854
16535TIP3   OH250486   6.708   5.002   4.301 -0.4554 -0.1880 -0.0188
16535TIP3    H150487   6.745   5.068   4.360 -0.9854 -0.4760  0.6563
16535TIP3    H250488   6.778   4.983   4.239 -1.1058  2.8764 -1.8777
16536TIP3   OH250489   5.689   7.517   8.353 -0.0146  0.5258  0.3815
16536TIP3    H150490   5.603   7.493   8.386  0.2803 -1.1167  0.0344
16536TIP3    H250491   5.692   7.480   8.264  0.8377  1.0476  0.1760
16537TIP3   OH250492  10.153   5.736   4.910  0.5454  0.2063  0.6041
16537TIP3    H150493  10.216   5.805   4.930 -0.2153  0.9001  0.6633
16537TIP3    H250494  10.098   5.773   4.840  0.2520 -0.4149  0.4979
16538TIP3   OH250495   3.634   1.309   3.465 -0.4166  0.0154 -0.1877
16538TIP3    H150496   3.692   1.307   3.388 -0.4063 -0.5236 -0.1677
16538TIP3    H250497   3.629   1.218   3.494 -0.9236  0.1246  0.0790
16539TIP3   OH250498   1.659   9.339   1.006 -0.1121  0.5756  0.8037
16539TIP3    H150499   1.755   9.330   1.008  0.0185  0.9643 -1.4245
16539TIP3    H250500   1.642   9.405   0.938 -1.9313  1.5922  2.1523
16540TIP3   OH250501   9.120  10.171   7.581 -0.3615  0.0690  0.1594
16540TIP3    H150502   9.146  10.252   7.624  0.3806 -0.0120 -0.1252
16540TIP3    H250503   9.149  10.182   7.490  1.2350 -1.1548  0.4722
16541TIP3   OH250504   8.492   8.950   3.402  0.7517  0.0455 -0.0646
16541TIP3    H150505   8.462   8.880   3.459 -1.5048  0.9397 -0.0570
16541TIP3    H250506   8.564   8.911   3.352  0.3619 -1.8835  0.7776
16542TIP3   OH250507   4.692   7.168   9.782  0.3038  0.0263 -0.1470
16542TIP3    H150508   4.666   7.079   9.762  0.1582 -0.0670  0.4224
16542TIP3    H250509   4.620   7.204   9.834  0.6011  0.2870  0.0997
16543TIP3   OH250510   3.392   0.351   6.972  0.3368  0.5060 -0.7762
16543TIP3    H150511   3.316   0.367   7.028  0.6662 -2.2549  0.6308
16543TIP3    H250512   3.358   0.355   6.883 -1.1009  0.9071 -0.2292
16544TIP3   OH250513   8.517   6.025   4.139  0.0353 -0.4958  0.5357
16544TIP3    H150514   8.534   5.946   4.191  0.5248 -1.4144 -0.9749
16544TIP3    H250515   8.601   6.072   4.139 -0.1554 -0.1481  1.1299
16545TIP3   OH250516   8.141   9.971   9.224  0.3044  0.7369  0.1422
16545TIP3    H150517   8.060   9.969   9.276 -0.8299  0.9928 -1.5080
16545TIP3    H250518   8.181   9.886   9.240 -2.1227 -0.8899 -1.6080
16546TIP3   OH250519   6.899   5.540   7.907  0.3054 -0.6745 -0.8555
16546TIP3    H150520   6.809   5.569   7.925  0.7191  1.1620 -1.5325
16546TIP3    H250521   6.937   5.527   7.994 -0.2661 -0.2891 -0.5346
16547TIP3   OH250522   6.829   3.800   6.356 -0.6000 -0.5808 -0.0872
16547TIP3    H150523   6.758   3.847   6.313  0.0355  0.1800 -0.3276
16547TIP3    H250524   6.787   3.751   6.426 -1.0728  1.6824  1.2892
16548TIP3   OH250525   1.813   6.997   3.566  0.2111  0.4806 -0.2847
16548TIP3    H150526   1.908   6.980   3.567  0.3165  1.0172 -0.8253
16548TIP3    H250527   1.774   6.910   3.579  0.7731  0.1990 -0.4146
16549TIP3   OH250528   2.646   3.832   7.558 -0.0004  0.2862  0.7844
16549TIP3    H150529   2.579   3.783   7.512  0.2351  0.4657  0.2441
16549TIP3    H250530   2.598   3.886   7.621 -0.5941  2.0957 -1.0995
16550TIP3   OH250531   2.755   8.058   4.502  0.4100  0.4013  0.0287
16550TIP3    H150532   2.816   7.986   4.519  1.0112  0.7472 -0.5631
16550TIP3    H250533   2.812   8.134   4.490  0.0597  0.3300 -2.8169
16551TIP3   OH250534   3.732   5.721   3.741  0.6471 -0.6289 -0.2306
16551TIP3    H150535   3.778   5.662   3.801 -2.2890 -0.4102  2.4386
16551TIP3    H250536   3.750   5.808   3.775 -1.3585 -0.5251  0.7176
16552TIP3   OH250537   7.702   9.994   6.044 -0.3170 -0.0811 -0.1278
16552TIP3    H150538   7.670  10.020   5.957  0.3705 -1.7289 -0.9136
16552TIP3    H250539   7.796   9.982   6.033 -0.5531 -2.8257  0.1207
16553TIP3   OH250540   6.960   1.746   1.541  0.3328 -0.0336 -0.3708
16553TIP3    H150541   6.893   1.753   1.608  0.5028  3.1419 -0.3923
16553TIP3    H250542   6.912   1.719   1.462 -0.5474  0.1452  0.0925
16554TIP3   OH250543   1.496   2.575   0.703 -0.3031 -0.2445 -0.0248
16554TIP3    H150544   1.445   2.575   0.784 -0.9493 -1.1063 -0.4206
16554TIP3    H250545   1.564   2.641   0.718 -0.4844 -0.3031  1.1674
16555TIP3   OH250546   4.669   5.932   1.795  0.0367  0.1890  0.6679
16555TIP3    H150547   4.682   5.875   1.719 -0.1957  2.2247 -0.9849
16555TIP3    H250548   4.584   5.906   1.830 -0.3006 -0.1501 -0.3664
16556TIP3   OH250549   2.564   5.259   3.831  0.6651 -1.0684  0.5333
16556TIP3    H150550   2.557   5.354   3.824  0.4192 -1.1580 -0.5265
16556TIP3    H250551   2.538   5.240   3.921  1.9858 -0.0203  1.1793
16557TIP3   OH250552   2.005   4.725   3.393  0.0151 -0.3624  0.0453
16557TIP3    H150553   1.937   4.725   3.327  1.0133 -0.6268 -1.0202
16557TIP3    H250554   1.960   4.705   3.475 -0.9907 -1.8041 -0.8246
16558TIP3   OH250555   1.850   1.448   9.605  0.4438  0.5203  0.0601
16558TIP3    H150556   1.849   1.543   9.594  1.8872  0.5558  0.1180
16558TIP3    H250557   1.773   1.418   9.557 -0.6261  1.7899  0.9099
16559TIP3   OH250558   5.413   2.345   2.128  0.0274  0.0639  0.7412
16559TIP3    H150559   5.488   2.286   2.115  0.5206  0.6258  1.0010
16559TIP3    H250560   5.426   2.382   2.215 -0.1478  0.7390  0.4882
16560TIP3   OH250561   7.867   1.117   1.460  0.2648 -0.5506 -0.3994
16560TIP3    H150562   7.943   1.059   1.464 -0.8056 -1.9397  1.6455
16560TIP3    H250563   7.860   1.153   1.548 -0.2160  1.2831 -1.1393
16561TIP3   OH250564   9.886  10.668   3.065 -0.0488  0.4811  0.4911
16561TIP3    H150565   9.801  10.691   3.026 -0.6125  0.5552  1.7416
16561TIP3    H250566   9.879  10.695   3.156  0.3088 -2.0467  1.3292
16562TIP3   OH250567   1.687   4.009   4.408 -0.0708 -0.2512 -0.2688
16562TIP3    H150568   1.610   4.039   4.361 -0.4993 -0.7847  0.0716
16562TIP3    H250569   1.690   4.063   4.487  0.5342  0.5073 -0.7946
16563TIP3   OH250570   5.787   1.480   8.761 -0.0442 -1.0597 -0.2316
16563TIP3    H150571   5.725   1.419   8.802 -2.4272  1.1485 -0.3179
16563TIP3    H250572   5.733   1.538   8.708  1.6994  2.4685  1.4645
16564TIP3   OH250573   9.522   7.488   1.764  0.2210 -0.1145 -0.3260
16564TIP3    H150574   9.563   7.448   1.687  1.4818  0.4728  0.0180
16564TIP3    H250575   9.594   7.502   1.825 -0.5735  0.5181  0.4938
16565TIP3   OH250576   8.924   9.661   0.349  0.6760  0.3495 -0.2734
16565TIP3    H150577   8.965   9.679   0.265  0.1607 -0.8540 -0.7968
16565TIP3    H250578   8.962   9.578   0.378 -0.0821  0.1127  0.0739
16566TIP3   OH250579   7.353   5.250   9.473  0.0046  0.2099  0.1294
16566TIP3    H150580   7.385   5.266   9.561 -0.4538 -1.5632  0.6695
16566TIP3    H250581   7.262   5.281   9.474  0.4263  1.5104 -0.1805
16567TIP3   OH250582  10.341   4.822   2.803  0.1906  0.9965  0.2813
16567TIP3    H150583  10.273   4.756   2.812  0.4222  0.7176  0.0217
16567TIP3    H250584  10.398   4.809   2.879  1.0024 -0.0138 -0.4678
16568TIP3   OH250585   8.389   2.736   6.447 -0.9484  0.3816  0.2354
16568TIP3    H150586   8.470   2.685   6.444 -1.2146 -0.0096 -0.7005
16568TIP3    H250587   8.411   2.819   6.405 -0.9924  0.3346  0.1198
16569TIP3   OH250588   5.435   0.612   5.462 -0.0789 -0.8374  0.4371
16569TIP3    H150589   5.473   0.573   5.540  1.6117 -0.0624  0.0515
16569TIP3    H250590   5.505   0.607   5.397 -1.2953 -1.0663 -0.9092
16570TIP3   OH250591   8.998   9.565   3.635  0.0043  0.5100 -0.4940
16570TIP3    H150592   9.025   9.494   3.577  0.7960 -0.5509  1.1335
16570TIP3    H250593   9.007   9.644   3.581 -0.1166 -0.5126 -2.0763
16571TIP3   OH250594   5.263   7.138   1.951  0.4034 -0.0415 -0.2451
16571TIP3    H150595   5.273   7.103   2.040 -1.8580 -3.0982 -1.0291
16571TIP3    H250596   5.326   7.088   1.899  0.8429  0.8597 -0.5893
16572TIP3   OH250597   8.486  10.120   5.337 -0.1087  0.2573  0.6908
16572TIP3    H150598   8.429  10.043   5.334 -0.7427  0.7408 -0.3689
16572TIP3    H250599   8.475  10.154   5.425  0.0298 -0.7572  1.1094
16573TIP3   OH250600   6.706   2.498   7.853  0.2598 -0.8474 -0.1834
16573TIP3    H150601   6.689   2.586   7.887  0.2516 -0.1912 -1.7574
16573TIP3    H250602   6.749   2.514   7.769  0.1115 -2.3588 -0.5672
16574TIP3   OH250603   0.678   7.368  10.143  0.0417  0.8330 -0.2225
16574TIP3    H150604   0.600   7.318  10.122  0.7114 -0.0598 -0.6267
16574TIP3    H250605   0.751   7.313  10.114  1.0557 -0.2303  3.7248
16575TIP3   OH250606   5.079   3.824   0.921 -0.4908  0.1362  0.5975
16575TIP3    H150607   5.078   3.740   0.967 -0.9493  0.4134  1.1119
16575TIP3    H250608   5.100   3.802   0.831  0.0669 -0.4611  0.8628
16576TIP3   OH250609   8.332   2.560  10.149 -0.0679 -0.2161 -0.4981
16576TIP3    H150610   8.286   2.486  10.109 -1.6728 -0.9115  2.3459
16576TIP3    H250611   8.273   2.634  10.136 -1.2299 -0.7040  1.4318
16577TIP3   OH250612   0.911   5.896   1.314 -0.4907 -0.4380  0.2927
16577TIP3    H150613   0.866   5.889   1.229  1.2602 -2.0523 -0.5769
16577TIP3    H250614   0.965   5.817   1.318 -0.6514 -0.4792  3.0158
16578TIP3   OH250615   7.683   1.228   5.353  0.0260 -0.1640 -0.0249
16578TIP3    H150616   7.713   1.167   5.421 -0.2197  0.1955  0.4120
16578TIP3    H250617   7.763   1.270   5.322 -0.0445  1.1588  1.4905
16579TIP3   OH250618   3.678   0.530   1.194  0.2399 -0.1226  0.2433
16579TIP3    H150619   3.748   0.473   1.165  0.7001  0.6794 -0.2582
16579TIP3    H250620   3.716   0.581   1.266 -0.5284 -1.2482  1.5158
16580TIP3   OH250621   4.708   6.819   2.273 -0.1964 -0.4580  0.4101
16580TIP3    H150622   4.754   6.749   2.319  0.4866  0.6915  1.5425
16580TIP3    H250623   4.707   6.892   2.335 -0.4728  0.6989 -0.9068
16581TIP3   OH250624   9.945   9.386   8.305 -0.1800 -0.5968  0.4287
16581TIP3    H150625   9.910   9.388   8.394 -1.5599 -0.5583 -0.0936
16581TIP3    H250626  10.036   9.415   8.315 -0.2800 -0.6727  1.8293
16582TIP3   OH250627   8.873   2.880   5.229 -0.4715 -0.2478  0.0584
16582TIP3    H150628   8.785   2.845   5.242 -0.1742 -0.3207  2.3542
16582TIP3    H250629   8.866   2.973   5.250  0.3082 -0.6156  2.1781
16583TIP3   OH250630   2.352   5.542   6.665  0.5947  0.8508  0.3500
16583TIP3    H150631   2.322   5.525   6.754 -0.6324  2.0169  0.1993
16583TIP3    H250632   2.307   5.476   6.611 -1.1621  2.0382  0.2435
16584TIP3   OH250633   1.619   9.422   3.573  0.2540 -0.1351  0.6172
16584TIP3    H150634   1.546   9.417   3.511  1.3080 -1.2266 -0.5867
16584TIP3    H250635   1.638   9.331   3.595  1.3982  0.1220  0.7377
16585TIP3   OH250636   5.974   2.974   5.264  0.2292  0.0650 -0.4648
16585TIP3    H150637   5.980   2.879   5.263 -0.5774  0.0053 -1.1247
16585TIP3    H250638   5.938   2.997   5.178 -1.4367  0.8225  0.3849
16586TIP3   OH250639   2.818   2.313   7.428 -0.0384  0.0749 -0.7144
16586TIP3    H150640   2.793   2.221   7.431  2.8378 -0.7679 -0.3020
16586TIP3    H250641   2.820   2.341   7.519  0.5171  0.1224 -0.7391
16587TIP3   OH250642   7.767   0.344   9.640  0.0614  0.0541  0.7825
16587TIP3    H150643   7.781   0.308   9.552 -0.7645 -0.3996  0.8329
16587TIP3    H250644   7.845   0.318   9.689 -1.2696 -3.2928  1.3426
16588TIP3   OH250645   2.371   4.984   5.328 -0.2660  0.1507  0.6469
16588TIP3    H150646   2.402   4.898   5.298  1.4090  0.3549  1.6075
16588TIP3    H250647   2.276   4.977   5.330 -0.4381 -0.3583 -3.0998
16589TIP3   OH250648   5.084   3.125   3.854  0.2815  0.3327  0.0659
16589TIP3    H150649   5.104   3.156   3.766 -0.5983 -0.7068 -0.5261
16589TIP3    H250650   5.049   3.202   3.899 -0.5336  0.5655 -0.9249
16590TIP3   OH250651   7.664   7.263   3.167  0.0551 -0.1916 -0.3214
16590TIP3    H150652   7.573   7.287   3.151 -0.2158 -1.4018 -0.6325
16590TIP3    H250653   7.660   7.188   3.225  0.9190  0.8993  1.2310
16591TIP3   OH250654   9.947   3.045   8.103 -0.4835  0.5709  0.3700
16591TIP3    H150655   9.972   2.961   8.064  0.1828  0.9044  0.0579
16591TIP3    H250656  10.026   3.073   8.150 -0.7170  1.0043  0.5047
16592TIP3   OH250657   5.626   2.129   7.721 -0.1582  0.3751 -0.3848
16592TIP3    H150658   5.631   2.198   7.654 -0.3561  0.5193 -0.2559
16592TIP3    H250659   5.588   2.174   7.797 -0.9512 -0.0366 -0.5204
16593TIP3   OH250660   2.976   0.106   8.336 -0.2890 -0.3995 -0.1606
16593TIP3    H150661   3.038   0.128   8.266 -0.9584  0.7072 -0.4212
16593TIP3    H250662   3.012   0.026   8.375  2.0839  0.9041  0.5994
16594TIP3   OH250663   7.246   9.576   5.564 -0.2254 -0.1035 -0.0953
16594TIP3    H150664   7.315   9.618   5.512  1.3517  0.4553  2.3095
16594TIP3    H250665   7.292   9.508   5.614 -1.6001 -0.3909  0.8375
16595TIP3   OH250666   7.565   8.513   2.671  0.1536 -0.5831  0.2354
16595TIP3    H150667   7.561   8.593   2.725 -0.8567 -0.4543 -0.0222
16595TIP3    H250668   7.622   8.536   2.598 -2.1500  0.8102 -1.2539
16596TIP3   OH250669  10.276   7.869   1.872  0.0866 -0.0805 -0.0846
16596TIP3    H150670  10.320   7.950   1.844 -0.8976  0.9253  1.1664
16596TIP3    H250671  10.343   7.801   1.862  1.5301  1.1801  0.5498
16597TIP3   OH250672   5.344   9.086   2.337  0.5457 -0.0601  0.2527
16597TIP3    H150673   5.349   9.131   2.421 -1.2012 -0.1782  0.4466
16597TIP3    H250674   5.404   9.011   2.347  0.6848  0.1670  1.2335
16598TIP3   OH250675   3.165   3.861   4.599 -0.2158  0.1771  0.0509
16598TIP3    H150676   3.248   3.827   4.566  1.2000  1.8817  1.6064
16598TIP3    H250677   3.117   3.887   4.520  1.4665  0.7200 -0.8410
16599TIP3   OH250678   7.160   8.876   6.076  1.1384 -0.0229 -0.3861
16599TIP3    H150679   7.190   8.786   6.087  1.2461  0.2708  2.2654
16599TIP3    H250680   7.067   8.868   6.055  1.5794 -0.7389 -2.3581
16600TIP3   OH250681   7.886   0.774   2.203 -0.6050  0.3385  0.1427
16600TIP3    H150682   7.843   0.696   2.171 -0.8314  0.6057 -0.2084
16600TIP3    H250683   7.902   0.827   2.125  2.0256 -0.5541 -0.0268
16601TIP3   OH250684   4.529   9.602   3.213 -0.4520 -0.0012  0.5662
16601TIP3    H150685   4.611   9.651   3.203 -1.8777  2.1053 -2.3003
16601TIP3    H250686   4.533   9.567   3.302  1.8491  3.3120  1.9974
16602TIP3   OH250687   8.666   4.725   9.830 -0.1644 -0.3693 -0.4875
16602TIP3    H150688   8.721   4.649   9.812  1.0407  0.1764  0.7263
16602TIP3    H250689   8.594   4.690   9.882 -0.1916 -0.8550 -0.8492
16603TIP3   OH250690   4.425  10.238   7.823 -0.4768 -0.3064 -0.0826
16603TIP3    H150691   4.457  10.193   7.744 -0.3928 -1.0749  0.3719
16603TIP3    H250692   4.505  10.263   7.870 -0.5255  0.0248 -0.1805
16604TIP3   OH250693   5.113   6.215   7.064  0.4332 -0.1431  0.2621
16604TIP3    H150694   5.125   6.199   6.971 -0.8604  1.3605 -0.2196
16604TIP3    H250695   5.141   6.134   7.107 -0.5408 -1.5063 -1.5407
16605TIP3   OH250696   0.399   7.449   5.425  0.3269 -0.0573  0.3123
16605TIP3    H150697   0.324   7.422   5.372  0.3673  0.6008 -0.0993
16605TIP3    H250698   0.395   7.545   5.425  1.3244 -0.0022  0.0508
16606TIP3   OH250699   1.694   0.344   4.493  0.3755 -0.5168 -0.1154
16606TIP3    H150700   1.714   0.294   4.414 -0.1898  0.4580 -0.9098
16606TIP3    H250701   1.732   0.294   4.564  1.1277 -1.2889 -1.0398
16607TIP3   OH250702   1.235   4.274  10.525 -0.2571 -0.1365 -0.0149
16607TIP3    H150703   1.222   4.332  10.600 -0.5870  1.4112 -1.2070
16607TIP3    H250704   1.301   4.211  10.554 -0.3964  0.3990  1.5662
16608TIP3   OH250705   8.042   3.828   6.970 -0.0718 -0.7773  0.1793
16608TIP3    H150706   7.992   3.755   7.007  0.9430 -1.4624  0.2362
16608TIP3    H250707   7.984   3.904   6.979 -0.8200 -1.4136  0.8805
16609TIP3   OH250708   0.828   3.359   7.529  0.1537 -0.0078 -0.0998
16609TIP3    H150709   0.875   3.412   7.464 -0.4641  2.6349  1.4494
16609TIP3    H250710   0.753   3.412   7.554  0.0839 -1.1100  2.3925
16610TIP3   OH250711   0.233   2.446   5.798  0.0558  0.0842 -0.0620
16610TIP3    H150712   0.237   2.394   5.718  0.5199 -0.0526  0.0452
16610TIP3    H250713   0.140   2.459   5.814 -0.0393  0.0748 -0.5978
16611TIP3   OH250714   2.941   8.239   7.886 -0.0609  0.0541 -0.4396
16611TIP3    H150715   3.021   8.197   7.854 -0.8847 -1.1272 -1.0289
16611TIP3    H250716   2.891   8.168   7.926  1.0606  1.4715  4.0186
16612TIP3   OH250717   6.185   5.916   9.927  0.4328 -0.4392  0.8098
16612TIP3    H150718   6.280   5.905   9.922  0.5308  0.5318  0.1066
16612TIP3    H250719   6.170   5.960  10.011  0.6812 -0.0168  0.6392
16613TIP3   OH250720   2.240   9.122   0.898 -0.8393 -1.0443  0.0092
16613TIP3    H150721   2.249   9.036   0.938 -0.2199 -1.8941 -1.8810
16613TIP3    H250722   2.256   9.108   0.805 -0.8375  1.1016 -0.3692
16614TIP3   OH250723   3.529   3.645   6.903 -0.0668 -0.7425  0.7682
16614TIP3    H150724   3.553   3.612   6.990 -0.0842 -0.0210  1.0551
16614TIP3    H250725   3.450   3.697   6.917  1.8511  2.4125  1.0193
16615TIP3   OH250726   2.400   1.321   1.472 -1.0242 -0.0039  0.3193
16615TIP3    H150727   2.452   1.241   1.477  1.1328  1.2684 -0.4327
16615TIP3    H250728   2.463   1.392   1.483 -2.6501  1.6471 -0.3478
16616TIP3   OH250729   2.818   8.472   5.189 -0.0110  0.8002 -0.4419
16616TIP3    H150730   2.739   8.525   5.187 -0.0409  0.8056  0.3230
16616TIP3    H250731   2.786   8.382   5.194  0.0282  0.7992 -0.1894
16617TIP3   OH250732   8.257   8.874   4.520  0.0858  0.2231 -0.7159
16617TIP3    H150733   8.204   8.794   4.528  0.4989  0.0449  0.4329
16617TIP3    H250734   8.266   8.905   4.610  0.0988  1.4660 -1.1401
16618TIP3   OH250735   4.119   2.326   4.743 -0.2822  0.1128 -0.6595
16618TIP3    H150736   4.169   2.258   4.789 -2.1491 -1.4178 -0.7355
16618TIP3    H250737   4.165   2.339   4.660  1.2201  0.4280  0.1919
16619TIP3   OH250738   9.527  10.085   6.610 -0.2849  0.4622 -0.1611
16619TIP3    H150739   9.473  10.006   6.601  1.2049 -0.5713 -0.4018
16619TIP3    H250740   9.545  10.111   6.520 -1.6241  1.7250 -0.0955
16620TIP3   OH250741   3.291   3.137   1.460 -0.7401  0.1385 -0.5195
16620TIP3    H150742   3.383   3.129   1.485 -0.2738  0.9406 -1.8469
16620TIP3    H250743   3.285   3.223   1.417 -1.5659 -0.8474 -2.5387
16621TIP3   OH250744  10.464   8.000   0.911 -0.0892 -0.0131 -0.2798
16621TIP3    H150745  10.523   8.063   0.870  0.1107  0.6797  1.0256
16621TIP3    H250746  10.505   7.981   0.995 -1.9498  0.8512  0.8795
16622TIP3   OH250747   1.917   1.394   4.381 -0.6615  0.2307  0.3413
16622TIP3    H150748   1.861   1.349   4.318 -1.0972 -0.2864  1.0780
16622TIP3    H250749   1.881   1.483   4.385  0.7787  1.0004 -1.8189
16623TIP3   OH250750   8.723   5.141   7.067 -0.6694  0.5402 -0.5887
16623TIP3    H150751   8.631   5.157   7.046 -0.9718 -0.6530 -0.2227
16623TIP3    H250752   8.744   5.206   7.134 -0.7666  1.8800 -1.8088
16624TIP3   OH250753  10.833   7.969   5.148  0.5369 -0.7837 -0.8200
16624TIP3    H150754  10.865   7.978   5.058  0.8757  0.7074 -0.5863
16624TIP3    H250755  10.849   8.055   5.187 -0.6322 -1.0621  0.3384
16625TIP3   OH250756  10.379   9.361  10.044  0.8354  0.1150  0.1880
16625TIP3    H150757  10.396   9.278   9.999  1.7042  0.3993 -0.0302
16625TIP3    H250758  10.302   9.397  10.000  1.0713 -0.0951 -0.4044
16626TIP3   OH250759   4.939  10.600   8.686  0.2871  0.0068  0.7533
16626TIP3    H150760   5.013  10.622   8.742  0.5029 -0.3714  0.6218
16626TIP3    H250761   4.902  10.521   8.725  0.4388 -0.2602  0.3604
16627TIP3   OH250762   9.988   3.571  10.807  0.3878 -0.1425 -0.2525
16627TIP3    H150763  10.083   3.578  10.823  0.4303 -0.6214 -0.2877
16627TIP3    H250764   9.970   3.639  10.743  0.2531  1.6950  1.6417
16628TIP3   OH250765   7.928   2.437  10.216  0.0792 -0.7274  0.2246
16628TIP3    H150766   7.860   2.381  10.177  0.2302 -0.7937  0.0536
16628TIP3    H250767   7.967   2.483  10.141 -0.0205 -0.4184  0.3599
16629TIP3   OH250768   1.161   1.445   2.492  0.1501 -0.3180  0.1112
16629TIP3    H150769   1.156   1.405   2.579 -2.4968 -1.3119 -0.4007
16629TIP3    H250770   1.170   1.372   2.432  3.1003  0.4196 -0.4912
16630TIP3   OH250771   8.033   2.898   2.876  0.0027 -0.2432 -0.2908
16630TIP3    H150772   7.994   2.823   2.922  0.7303 -1.0640 -0.9755
16630TIP3    H250773   8.115   2.864   2.842 -0.2668  0.4944 -1.7419
16631TIP3   OH250774   0.702   6.166   4.961  0.4205  0.3594 -0.1619
16631TIP3    H150775   0.638   6.170   5.032  1.1810 -1.5948  0.6979
16631TIP3    H250776   0.786   6.182   5.004  0.6470  2.0792 -1.1448
16632TIP3   OH250777   3.324   9.704   0.251 -0.0118  0.4166  1.0651
16632TIP3    H150778   3.391   9.641   0.277 -1.4998 -0.4709  2.9794
16632TIP3    H250779   3.362   9.790   0.270  2.0274  0.2217 -1.5490
16633TIP3   OH250780   5.176   5.632   7.421  0.0685 -0.4199 -0.0530
16633TIP3    H150781   5.136   5.577   7.354  0.4738  0.8978 -1.4412
16633TIP3    H250782   5.267   5.643   7.392  0.2399  0.2037  0.6926
16634TIP3   OH250783   1.250  10.545   3.103 -0.1040  0.4398  0.2774
16634TIP3    H150784   1.197  10.565   3.181  0.6561  2.2766  0.3690
16634TIP3    H250785   1.199  10.478   3.056 -0.2023 -1.3311  2.7118
16635TIP3   OH250786   1.103   3.539   0.694  0.1569 -0.4238 -0.3062
16635TIP3    H150787   1.123   3.509   0.605  0.2561 -0.7867 -0.1637
16635TIP3    H250788   1.174   3.503   0.748 -0.0169 -0.3812 -0.0474
16636TIP3   OH250789   2.500   3.064   3.363 -0.2981 -0.5773 -0.8179
16636TIP3    H150790   2.418   3.033   3.403  1.3530 -1.5172  2.1574
16636TIP3    H250791   2.546   2.983   3.338  0.1510 -0.1082 -1.5344
16637TIP3   OH250792   7.563   2.245   0.369 -0.4877 -0.6106 -0.3622
16637TIP3    H150793   7.628   2.314   0.382  0.6899 -1.6029 -0.7924
16637TIP3    H250794   7.489   2.271   0.423 -0.1709  1.1089 -0.7123
16638TIP3   OH250795   7.711   0.781   4.818 -0.1841 -0.1056 -0.2092
16638TIP3    H150796   7.805   0.801   4.818 -0.5152  1.6690  1.2550
16638TIP3    H250797   7.701   0.711   4.882  0.5546 -3.1002 -3.0829
16639TIP3   OH250798   8.038   7.502   3.488  0.0639  0.0480  0.1852
16639TIP3    H150799   7.969   7.470   3.430  0.3985 -0.4040  0.0336
16639TIP3    H250800   8.092   7.559   3.433 -0.0806  0.2505  0.2548
16640TIP3   OH250801   8.330   3.857   6.780  0.3348  0.0815 -0.7414
16640TIP3    H150802   8.386   3.786   6.811  1.0363  1.3027  0.9330
16640TIP3    H250803   8.248   3.845   6.828 -0.3652 -0.8907 -2.1474
16641TIP3   OH250804   5.798   5.838   7.584 -0.1104  0.9991  0.1189
16641TIP3    H150805   5.853   5.765   7.612  1.1091  1.5072 -0.8859
16641TIP3    H250806   5.842   5.916   7.618  0.9930  1.5768 -2.4606
16642TIP3   OH250807  10.326   9.542  10.797  0.1756  0.0874 -0.4044
16642TIP3    H150808  10.385   9.480  10.753 -0.2341  0.1957 -1.1204
16642TIP3    H250809  10.239   9.519  10.765 -0.0959  0.3541  0.1441
16643TIP3   OH250810   4.720   1.385   2.152  0.0690  0.3077 -0.3150
16643TIP3    H150811   4.704   1.477   2.133 -2.2432  0.7763  2.8861
16643TIP3    H250812   4.811   1.381   2.180 -0.2635  2.1157  1.2734
16644TIP3   OH250813   9.391  10.304   2.918 -0.0999 -0.0994  0.3226
16644TIP3    H150814   9.378  10.217   2.880  0.4287  0.0162 -0.1298
16644TIP3    H250815   9.310  10.322   2.966  0.0493 -1.1281  0.9905
16645TIP3   OH250816   5.681   1.190   8.357  0.0553 -0.0760  0.2794
16645TIP3    H150817   5.622   1.201   8.431 -1.7873  0.0374 -1.1489
16645TIP3    H250818   5.756   1.245   8.378 -0.5314  0.1310  1.9406
16646TIP3   OH250819   8.944   3.174   7.898  0.4810  0.7246 -0.0260
16646TIP3    H150820   8.985   3.092   7.924 -0.7709  0.9414  3.1131
16646TIP3    H250821   9.000   3.208   7.828  2.2205 -1.7461  0.0309
16647TIP3   OH250822   3.026   2.697   3.176  0.2014  0.9530  0.4587
16647TIP3    H150823   3.001   2.645   3.252  2.0609 -2.7161 -1.1687
16647TIP3    H250824   3.099   2.752   3.207  1.0133 -0.5764  1.3624
16648TIP3   OH250825   7.697   1.895   6.376 -0.2266 -0.2060  0.3755
16648TIP3    H150826   7.774   1.891   6.433 -0.1985  0.7779  0.4236
16648TIP3    H250827   7.733   1.912   6.289 -0.2963 -1.3407  0.1062
16649TIP3   OH250828   0.176   2.055   2.886  0.0558 -0.2537  0.2594
16649TIP3    H150829   0.248   2.117   2.876  0.9586 -1.3854 -0.5641
16649TIP3    H250830   0.166   2.044   2.980  2.2192 -1.4469  0.4024
16650TIP3   OH250831   0.003   0.872   1.774 -0.3822 -0.0711  0.0446
16650TIP3    H150832   0.047   0.863   1.859 -0.7432  1.1008  0.3749
16650TIP3    H250833   0.069   0.910   1.717 -0.6140  0.6402  0.2405
16651TIP3   OH250834   2.506   7.526   9.017 -0.4283 -0.1113  0.9277
16651TIP3    H150835   2.420   7.550   8.982 -1.3593 -1.6714  2.0393
16651TIP3    H250836   2.551   7.484   8.943 -1.8010 -2.0189  1.1290
16652TIP3   OH250837   6.701   6.859   3.436  0.0975 -0.4905  0.1996
16652TIP3    H150838   6.719   6.811   3.517  0.1846  2.0185  1.8016
16652TIP3    H250839   6.647   6.800   3.384 -2.1688 -1.3412  3.1979
16653TIP3   OH250840   2.269   7.478   0.540  0.2321 -0.2669  0.0128
16653TIP3    H150841   2.228   7.396   0.511  0.1989 -0.5034  0.7217
16653TIP3    H250842   2.363   7.461   0.538  0.3737  0.4440 -2.1308
16654TIP3   OH250843   0.796   4.775   0.399  0.8271  0.1419  0.1173
16654TIP3    H150844   0.847   4.856   0.402  2.4296 -0.8389  1.1647
16654TIP3    H250845   0.715   4.796   0.446  0.6983  1.4343 -0.6379
16655TIP3   OH250846   0.518   5.562   8.582 -0.5517 -0.0631  0.5726
16655TIP3    H150847   0.431   5.554   8.542 -0.2473  0.2472 -0.1763
16655TIP3    H250848   0.557   5.638   8.539  0.7657 -1.2587 -0.4203
16656TIP3   OH250849  10.831   6.733   2.277 -1.0171 -0.3559 -0.0934
16656TIP3    H150850  10.867   6.649   2.249 -0.1769  0.3539 -1.2336
16656TIP3    H250851  10.809   6.720   2.370  1.2100 -1.1645  0.3888
16657TIP3   OH250852  10.053   4.432   1.756  0.1370 -0.0270 -0.2014
16657TIP3    H150853  10.012   4.519   1.758  0.8603  0.3983 -1.8072
16657TIP3    H250854   9.995   4.380   1.700 -0.0384 -0.4443  0.3646
16658TIP3   OH250855   7.641   2.369   6.060 -0.1938 -0.0456 -0.4720
16658TIP3    H150856   7.712   2.429   6.041  1.0799 -1.1630  0.5404
16658TIP3    H250857   7.612   2.393   6.149  0.2265 -0.7940 -0.1186
16659TIP3   OH250858   3.837   8.353   8.213  1.1655 -0.3566 -0.0924
16659TIP3    H150859   3.887   8.434   8.214  1.5905 -0.6143 -0.2152
16659TIP3    H250860   3.770   8.366   8.146 -0.6935  1.0248  1.8717
16660TIP3   OH250861   8.158   8.835  10.151  0.3883 -0.2794 -0.3195
16660TIP3    H150862   8.244   8.834  10.192 -0.1097 -0.7920  0.7468
16660TIP3    H250863   8.146   8.746  10.118 -0.4995 -0.7666  1.2265
16661TIP3   OH250864   4.641   2.530   9.037  0.2007  0.3735 -0.3939
16661TIP3    H150865   4.620   2.452   9.089  0.8956  0.0998 -0.5161
16661TIP3    H250866   4.568   2.590   9.054  0.8830  0.7001  1.6928
16662TIP3   OH250867   3.756   7.143  10.608  0.2320 -0.3434 -0.2737
16662TIP3    H150868   3.670   7.180  10.626 -0.1742 -0.6062 -1.5576
16662TIP3    H250869   3.815   7.218  10.606 -0.4956  0.2411 -2.3480
16663TIP3   OH250870   5.258   8.945   8.755 -0.1613  0.1137  0.1180
16663TIP3    H150871   5.212   8.994   8.688 -1.9215 -0.0391  1.1436
16663TIP3    H250872   5.317   9.008   8.796  1.3639  0.0676 -1.8898
16664TIP3   OH250873   1.178   9.527   2.603 -1.0947 -0.1175 -0.6266
16664TIP3    H150874   1.155   9.439   2.575 -1.2543  0.1143 -1.2414
16664TIP3    H250875   1.214   9.516   2.691  0.1268 -0.9494 -1.2106
16665TIP3   OH250876   1.869   2.986   8.872 -0.1194  0.0454  0.4740
16665TIP3    H150877   1.897   2.974   8.963  1.6305 -2.0489 -0.2449
16665TIP3    H250878   1.890   3.077   8.852 -0.6427  0.5721  2.1969
16666TIP3   OH250879   8.221  10.281   8.719  0.0779  0.4342  0.1545
16666TIP3    H150880   8.147  10.265   8.779  0.3276  1.6670  0.8272
16666TIP3    H250881   8.283  10.331   8.771  0.7299  0.7104 -0.8667
16667TIP3   OH250882   5.444   2.506   4.167  0.3278  0.2437  0.3522
16667TIP3    H150883   5.400   2.449   4.230 -0.1403  2.0098  1.6956
16667TIP3    H250884   5.508   2.554   4.219 -0.1213  1.7939 -0.4754
16668TIP3   OH250885   5.316   0.217   1.831 -0.2526 -0.1595  0.1476
16668TIP3    H150886   5.324   0.129   1.867  2.2740 -0.0704 -0.0313
16668TIP3    H250887   5.308   0.273   1.908  2.8845 -0.1828  0.6162
16669TIP3   OH250888   9.950   9.043   7.608  0.3121  0.6591 -0.4191
16669TIP3    H150889   9.956   9.130   7.647  1.3922  2.0318 -3.3098
16669TIP3    H250890  10.018   8.993   7.651 -0.2567  1.2370  1.2309
16670TIP3   OH250891   7.980   4.903  10.661  0.1700  0.1487 -0.0855
16670TIP3    H150892   8.062   4.943  10.690 -0.8595  0.4799  2.5853
16670TIP3    H250893   7.973   4.928  10.569  2.6950  0.6878 -0.2108
16671TIP3   OH250894   6.890   2.966   0.025  0.4087  0.3107 -0.4493
16671TIP3    H150895   6.861   2.882  -0.013 -0.8573  0.8961 -0.8199
16671TIP3    H250896   6.879   2.955   0.119 -0.1430  0.2043 -0.5262
16672TIP3   OH250897   5.911   2.055   7.987 -0.2538 -0.4222  0.3374
16672TIP3    H150898   6.003   2.070   7.965 -0.2974 -0.3976  0.1695
16672TIP3    H250899   5.876   2.009   7.912 -0.6317  0.4880 -0.0549
16673TIP3   OH250900   9.540   3.278   7.916  0.3940 -0.2498 -0.8416
16673TIP3    H150901   9.489   3.216   7.864 -0.6925  1.6787 -2.1949
16673TIP3    H250902   9.541   3.358   7.864  2.6380  0.5817  0.3597
16674TIP3   OH250903   1.334   3.354   4.569  0.0629 -0.4509  0.6452
16674TIP3    H150904   1.428   3.339   4.568  0.1217 -0.4830 -1.9877
16674TIP3    H250905   1.324   3.444   4.539 -0.7404 -0.8426 -0.3409
16675TIP3   OH250906   2.517   7.642   6.053  0.1031 -0.2604  0.0927
16675TIP3    H150907   2.600   7.638   6.100  1.0153 -2.0988 -1.5573
16675TIP3    H250908   2.460   7.580   6.100  0.0006  0.1899  0.5724
16676TIP3   OH250909   9.085  10.224   1.884  0.3274 -0.2854 -0.0151
16676TIP3    H150910   9.146  10.158   1.918 -0.3671 -1.0314 -0.1783
16676TIP3    H250911   9.053  10.186   1.802 -0.2227  0.1791 -0.0199
16677TIP3   OH250912   3.271   2.654   8.687  0.0416 -0.1745  0.6663
16677TIP3    H150913   3.197   2.668   8.745  1.3563  0.7440  2.2035
16677TIP3    H250914   3.239   2.590   8.622 -2.1169  0.3658  1.1265
16678TIP3   OH250915   9.109   7.547   8.805 -0.4727  0.1324 -0.2044
16678TIP3    H150916   9.182   7.487   8.794  1.6906  2.7261 -1.3462
16678TIP3    H250917   9.150   7.630   8.829 -3.1610  1.4524  0.1763
16679TIP3   OH250918   9.774   5.208   6.969 -0.2793 -0.0128 -0.3259
16679TIP3    H150919   9.795   5.262   6.893 -0.0578 -0.6541 -0.7287
16679TIP3    H250920   9.678   5.213   6.976 -0.2763  0.2606 -0.4876
16680TIP3   OH250921  10.654   0.828  10.508  0.2688 -0.2084  0.4556
16680TIP3    H150922  10.611   0.837  10.593 -0.4394  2.8734 -0.1086
16680TIP3    H250923  10.588   0.853  10.445  1.6228  0.4396 -0.7736
16681TIP3   OH250924   6.246   4.953  10.684 -0.0964 -0.0546  0.7751
16681TIP3    H150925   6.198   4.870  10.689 -1.6874  0.8682  1.2555
16681TIP3    H250926   6.334   4.927  10.656 -1.2564 -1.6295 -1.7112
16682TIP3   OH250927   4.454   9.294   4.828  0.2377  0.4388  0.0992
16682TIP3    H150928   4.497   9.225   4.878  1.5604  1.4222  0.3589
16682TIP3    H250929   4.483   9.376   4.869 -2.7243  1.1811  0.9771
16683TIP3   OH250930   4.867   2.199   1.696 -0.2260 -0.4295  0.0453
16683TIP3    H150931   4.959   2.174   1.689 -0.2808 -0.5367 -0.3118
16683TIP3    H250932   4.819   2.117   1.684 -0.3333 -0.6805  1.9494
16684TIP3   OH250933   0.042   8.378   2.411 -0.0539 -0.3097 -0.0937
16684TIP3    H150934   0.033   8.464   2.451  1.7030 -0.3537  0.4854
16684TIP3    H250935   0.056   8.396   2.318 -1.2341 -0.0609 -0.2304
16685TIP3   OH250936   8.121   1.455   9.162 -0.5785  0.3188  0.1866
16685TIP3    H150937   8.033   1.481   9.191 -0.2920  0.5068  0.9140
16685TIP3    H250938   8.161   1.416   9.239 -0.0699  0.1079 -0.1777
16686TIP3   OH250939   5.140   8.515   2.537 -0.5301 -0.3647 -0.8966
16686TIP3    H150940   5.140   8.458   2.614 -0.9853 -1.0079 -1.3598
16686TIP3    H250941   5.170   8.599   2.570 -0.6868 -0.6385 -0.0205
16687TIP3   OH250942   7.294   4.083   6.970 -0.4225  0.1976 -0.7563
16687TIP3    H150943   7.250   4.166   6.988 -1.0038 -0.4040  0.7184
16687TIP3    H250944   7.225   4.017   6.976 -0.1061 -0.3585 -2.5978
16688TIP3   OH250945  10.480   8.049   4.218  0.0184  0.1108 -0.1374
16688TIP3    H150946  10.470   8.033   4.124  0.0060 -1.6483  0.1300
16688TIP3    H250947  10.540   7.981   4.248  1.5936  1.8165  0.8205
16689TIP3   OH250948   2.306   9.385   9.345  0.4320  0.7376  0.0300
16689TIP3    H150949   2.248   9.394   9.269 -2.7522 -0.4345  2.1290
16689TIP3    H250950   2.276   9.453   9.406  0.6101 -0.4986  1.5542
16690TIP3   OH250951   2.017   8.736   7.923  0.1451 -0.1480 -0.0562
16690TIP3    H150952   2.035   8.793   7.848  1.0871  0.7286  0.8088
16690TIP3    H250953   2.055   8.782   7.997 -2.0412 -0.2602  1.2207
16691TIP3   OH250954   2.458   9.101   8.448  1.0873  0.3461  0.1840
16691TIP3    H150955   2.438   9.039   8.379 -0.5184 -0.6300  1.4548
16691TIP3    H250956   2.525   9.058   8.501  1.1375  0.3941  0.1598
16692TIP3   OH250957   2.742   6.645   6.005 -0.1483  0.1348  0.1874
16692TIP3    H150958   2.723   6.708   5.935  1.1050 -1.1345 -1.3705
16692TIP3    H250959   2.762   6.564   5.959  0.4377 -0.8383  2.0603
16693TIP3   OH250960   4.953   2.366   8.166 -0.6352  0.1169 -0.2941
16693TIP3    H150961   5.019   2.436   8.170 -0.2869 -0.0691 -2.2184
16693TIP3    H250962   5.003   2.286   8.154 -1.1028 -0.3618  0.7779
16694TIP3   OH250963   6.665   7.957   2.479 -0.8089 -0.4660 -0.2219
16694TIP3    H150964   6.729   7.933   2.546 -0.8155 -0.9320 -0.3797
16694TIP3    H250965   6.708   7.933   2.396 -1.6216 -1.7964 -0.2776
16695TIP3   OH250966   7.739   3.490   1.918  0.1289  0.3882  0.1216
16695TIP3    H150967   7.702   3.438   1.988 -0.0607  0.6999  0.2547
16695TIP3    H250968   7.666   3.510   1.860  0.5399 -1.1232 -0.9839
16696TIP3   OH250969  10.059   2.608   3.640 -0.2251 -0.1043  0.4845
16696TIP3    H150970  10.119   2.539   3.669 -1.1036 -0.0549  2.6167
16696TIP3    H250971  10.078   2.681   3.700 -0.5210  0.8913 -0.6127
16697TIP3   OH250972   1.377   8.610   0.594 -0.4146  0.0325 -0.3547
16697TIP3    H150973   1.424   8.641   0.517  1.4590 -1.0481  0.2893
16697TIP3    H250974   1.303   8.561   0.559  1.2095 -1.6977 -1.5947
16698TIP3   OH250975   2.883   0.501  10.284 -0.4601 -0.1086  0.0125
16698TIP3    H150976   2.893   0.522  10.191  0.1799 -0.4857 -0.0089
16698TIP3    H250977   2.957   0.544  10.327  0.6686 -1.9474  0.0148
16699TIP3   OH250978   4.823   3.033   2.096  0.2868  0.0878 -0.6713
16699TIP3    H150979   4.780   2.955   2.061 -0.4392  0.5906 -0.9132
16699TIP3    H250980   4.883   3.060   2.026  1.0458 -0.6320 -0.3199
16700TIP3   OH250981   5.605   9.164   8.554 -0.4100  0.2594 -0.0244
16700TIP3    H150982   5.528   9.112   8.529  0.9008 -2.3366  0.8967
16700TIP3    H250983   5.628   9.212   8.475 -0.9008 -1.7289 -1.4644
16701TIP3   OH250984   5.167   7.238   0.420  0.0762  0.3917  0.2269
16701TIP3    H150985   5.082   7.278   0.438 -0.5208 -0.3636 -0.7708
16701TIP3    H250986   5.146   7.151   0.387  1.2320  0.3292 -0.4074
16702TIP3   OH250987   5.241   1.280  10.717  0.0342  0.0899 -0.4898
16702TIP3    H150988   5.243   1.219  10.790 -1.7226 -0.2816 -0.6950
16702TIP3    H250989   5.224   1.226  10.640  2.5357  0.3907 -1.3423
16703TIP3   OH250990   2.560   0.105   7.324  0.3683 -0.5870 -0.0002
16703TIP3    H150991   2.538   0.023   7.281  2.0255 -0.4135 -1.2643
16703TIP3    H250992   2.567   0.169   7.254 -2.0008  0.9800  1.0527
16704TIP3   OH250993   1.306   0.783   1.198  0.1345 -0.0734  0.2970
16704TIP3    H150994   1.321   0.839   1.275  1.1722 -0.5643  0.4803
16704TIP3    H250995   1.383   0.799   1.143 -1.3323  1.4624 -1.4270
16705TIP3   OH250996   3.069   7.351   9.405  0.8050  0.2777 -1.1605
16705TIP3    H150997   3.152   7.392   9.428  0.4348  0.2646  0.2578
16705TIP3    H250998   3.013   7.424   9.379  0.9686  0.3813 -1.2235
16706TIP3   OH250999   4.592   7.611   9.071  0.6779 -0.1674  0.1166
16706TIP3    H151000   4.665   7.639   9.127 -0.1427  3.0851 -0.2358
16706TIP3    H251001   4.515   7.654   9.110 -0.0301  1.6500 -2.9894
16707TIP3   OH251002   1.316   5.834   8.783 -0.4770 -0.3719  0.3114
16707TIP3    H151003   1.279   5.893   8.849  0.5876 -0.9397  1.4595
16707TIP3    H251004   1.395   5.799   8.824 -0.5419 -1.8333 -0.7308
16708TIP3   OH251005   5.411   4.366   9.826  0.4181  0.0546 -0.3875
16708TIP3    H151006   5.392   4.290   9.881  0.4099  0.6442  0.4331
16708TIP3    H251007   5.377   4.441   9.874 -1.6523  0.3805 -2.2172
16709TIP3   OH251008   1.781   9.824   7.068 -0.2857  0.0825 -0.4116
16709TIP3    H151009   1.781   9.771   6.989  1.2892 -0.3081 -0.1874
16709TIP3    H251010   1.836   9.775   7.130  0.1665  1.3443  0.2260
16710TIP3   OH251011   1.535   5.829   8.925  0.4505  0.1482 -0.3095
16710TIP3    H151012   1.577   5.771   8.988 -0.2489  0.2228  0.2320
16710TIP3    H251013   1.607   5.862   8.871  0.9554 -0.5408 -0.0672
16711TIP3   OH251014   1.383   8.580   5.435  0.1421 -0.2996  1.0499
16711TIP3    H151015   1.456   8.525   5.461  0.4900 -1.2783 -1.7044
16711TIP3    H251016   1.316   8.519   5.405 -1.4035  0.6340  2.4380
16712TIP3   OH251017   5.867   3.903   1.773 -0.6508  0.2980  0.3849
16712TIP3    H151018   5.828   3.866   1.853  0.4505 -0.6016  0.5255
16712TIP3    H251019   5.959   3.915   1.795 -0.1869 -0.5717 -0.9467
16713TIP3   OH251020   0.823   8.333   7.925 -0.2233 -0.4195  0.2082
16713TIP3    H151021   0.744   8.342   7.979  0.5435  0.1625  1.2663
16713TIP3    H251022   0.845   8.423   7.900  0.1422 -0.5693 -0.0120
16714TIP3   OH251023   0.347   9.859   8.662 -0.3328  0.7364 -0.1083
16714TIP3    H151024   0.386   9.922   8.723 -1.0404  1.5133 -0.4413
16714TIP3    H251025   0.398   9.869   8.581 -0.6995  1.1646 -0.2857
16715TIP3   OH251026   4.806   9.826   2.835  0.5349 -0.1733 -0.2743
16715TIP3    H151027   4.734   9.775   2.873  1.0011 -2.6872 -2.4604
16715TIP3    H251028   4.764   9.890   2.778 -0.0197  1.2686  1.6403
16716TIP3   OH251029   4.272   8.748   9.755  0.3466  0.1321 -0.2242
16716TIP3    H151030   4.279   8.841   9.736  1.9466  0.4337  1.5233
16716TIP3    H251031   4.184   8.738   9.793 -0.6094  0.5162 -2.2239
16717TIP3   OH251032   0.586   8.614   0.340 -0.1702 -0.0666  0.2376
16717TIP3    H151033   0.616   8.627   0.430 -1.2329 -3.1540  1.1737
16717TIP3    H251034   0.516   8.678   0.328  0.5265  0.9220  1.2906
16718TIP3   OH251035   7.204  10.605   7.005  0.0825  0.3587 -0.5220
16718TIP3    H151036   7.165  10.657   6.934 -1.0953 -0.4852 -0.5160
16718TIP3    H251037   7.293  10.586   6.975 -0.5225 -0.3225 -1.9759
16719TIP3   OH251038   2.262   5.469   9.971  0.0987  0.3342  0.3093
16719TIP3    H151039   2.203   5.498  10.042  0.5994 -0.6365  1.1423
16719TIP3    H251040   2.313   5.547   9.950 -0.6346  0.8610  0.4248
16720TIP3   OH251041   2.129   9.489   3.564 -0.2456  0.7648 -0.2750
16720TIP3    H151042   2.086   9.455   3.486  0.9842  0.5700 -0.9017
16720TIP3    H251043   2.077   9.564   3.591 -1.1640  0.3156 -0.7785
16721TIP3   OH251044   9.947  10.549   2.685 -0.7445 -0.2393 -0.1193
16721TIP3    H151045   9.997  10.516   2.760  0.2288  0.9243 -0.2188
16721TIP3    H251046   9.876  10.486   2.673 -0.9642 -0.4133  1.8206
16722TIP3   OH251047   9.301   1.919   2.385  0.1236 -0.1794 -0.7264
16722TIP3    H151048   9.274   1.937   2.475  1.3788 -1.2891 -0.0961
16722TIP3    H251049   9.323   1.826   2.385 -1.9208 -0.7469 -2.7360
16723TIP3   OH251050   8.039  10.563   4.103 -0.1320  0.2814 -0.0541
16723TIP3    H151051   8.107  10.613   4.057 -1.3960  1.3598 -0.8351
16723TIP3    H251052   8.014  10.494   4.042 -1.8528  1.7488 -1.1247
16724TIP3   OH251053   1.183   5.599   3.698  0.0709  0.3284 -0.0811
16724TIP3    H151054   1.104   5.653   3.697 -0.0205  0.1951 -0.0490
16724TIP3    H251055   1.238   5.636   3.629 -0.2723  0.0395 -0.5158
16725TIP3   OH251056   3.977   3.324  10.190  0.7227  0.0298  0.0254
16725TIP3    H151057   4.009   3.315  10.100  0.5791  1.3951 -0.1768
16725TIP3    H251058   3.916   3.397  10.187  0.4995 -0.0906  1.1823
16726TIP3   OH251059   4.814  10.465   4.133  0.5394 -0.2050 -0.0623
16726TIP3    H151060   4.902  10.493   4.159  0.5657 -0.1653 -0.1896
16726TIP3    H251061   4.808  10.490   4.040 -0.8748  3.1071  0.7613
16727TIP3   OH251062  10.599   0.643   3.109  0.0010 -0.0509 -0.8041
16727TIP3    H151063  10.576   0.735   3.097  0.7346 -0.0894 -2.8310
16727TIP3    H251064  10.689   0.636   3.076 -0.1044 -1.5166 -0.8514
16728TIP3   OH251065   5.609  10.485   1.194  0.4402  0.0089 -0.0062
16728TIP3    H151066   5.703  10.481   1.177  0.4084 -1.4894  0.0852
16728TIP3    H251067   5.592  10.413   1.254 -0.5694  1.1012  1.0884
16729TIP3   OH251068  10.676   1.345  10.641  0.0595 -1.2230 -0.1300
16729TIP3    H151069  10.743   1.286  10.674  1.4066  0.5554  0.4467
16729TIP3    H251070  10.665   1.411  10.709 -1.0650 -0.5292 -0.9366
16730TIP3   OH251071   4.372   8.889   4.712 -0.0264 -0.5931  0.3349
16730TIP3    H151072   4.314   8.963   4.730  1.0187  0.4545 -0.4297
16730TIP3    H251073   4.380   8.844   4.796  1.0108  1.4394  1.4048
16731TIP3   OH251074  10.431   0.284   1.736 -0.1383 -0.3345  0.6559
16731TIP3    H151075  10.374   0.281   1.659  1.1864  1.6422 -0.4689
16731TIP3    H251076  10.435   0.376   1.760  2.4412 -0.4024  0.7701
16732TIP3   OH251077   6.844   5.452   1.964  0.6248  0.1301  0.2198
16732TIP3    H151078   6.902   5.509   1.914 -0.2512  0.1473 -0.8232
16732TIP3    H251079   6.757   5.489   1.952 -0.0334 -1.5945 -0.8057
16733TIP3   OH251080   2.505   8.125   4.600 -0.5813 -1.0285  0.4899
16733TIP3    H151081   2.454   8.046   4.615  1.0399 -2.3163 -0.4992
16733TIP3    H251082   2.585   8.095   4.557  0.7482  0.9699  1.3992
16734TIP3   OH251083   4.668   8.166   8.727  0.2073 -0.4886 -0.1460
16734TIP3    H151084   4.759   8.140   8.716  0.4330 -0.1383  0.8113
16734TIP3    H251085   4.652   8.226   8.654  1.0063  0.1163  0.1558
16735TIP3   OH251086   2.629   2.084   0.908  0.0458  0.0135 -0.2398
16735TIP3    H151087   2.573   2.156   0.934  1.5712  0.6179  1.6446
16735TIP3    H251088   2.715   2.106   0.945  0.5710 -2.7255  0.3711
16736TIP3   OH251089   7.434   9.294   0.012  0.6667 -0.3217 -0.4874
16736TIP3    H151090   7.464   9.376   0.051 -1.5529 -0.0521  0.8307
16736TIP3    H251091   7.509   9.234   0.023  2.2480  1.3989 -1.2910
16737TIP3   OH251092   6.643   2.857   1.727  0.3326  0.0471  0.5877
16737TIP3    H151093   6.712   2.915   1.760  0.0566 -0.2017  1.6661
16737TIP3    H251094   6.615   2.896   1.645 -0.2407  1.7705  1.5467
16738TIP3   OH251095   4.795   7.990   5.653  0.2665 -0.2228  0.8082
16738TIP3    H151096   4.858   7.962   5.587 -0.5002 -1.0670  0.4071
16738TIP3    H251097   4.771   7.910   5.700 -0.3927  0.1003  1.0509
16739TIP3   OH251098   8.867   6.393  10.064 -0.2031 -0.4062 -0.2841
16739TIP3    H151099   8.940   6.436  10.018  0.0076  0.9722  1.2511
16739TIP3    H251100   8.861   6.306  10.024  1.2427  0.0269 -1.5296
16740TIP3   OH251101   6.759   7.062   8.629 -0.5093  0.3008 -0.5173
16740TIP3    H151102   6.809   6.981   8.622 -0.7270  0.1216 -0.0492
16740TIP3    H251103   6.702   7.062   8.553 -3.0732 -1.7524  1.2448
16741TIP3   OH251104   3.470   9.323   8.199 -0.2018  0.1905 -0.0136
16741TIP3    H151105   3.379   9.307   8.223  0.0217 -1.2049  0.0044
16741TIP3    H251106   3.472   9.310   8.104  0.0201 -0.0150  0.0186
16742TIP3   OH251107   6.894   3.082   4.552 -0.2096  0.4487 -0.0834
16742TIP3    H151108   6.903   3.013   4.487 -1.9479  0.7264 -0.6820
16742TIP3    H251109   6.802   3.110   4.545 -0.2847  0.9352  2.0346
16743TIP3   OH251110   8.764   8.034   6.268  0.1815  0.0144  0.3528
16743TIP3    H151111   8.745   8.123   6.240 -0.0936  0.0087  0.5128
16743TIP3    H251112   8.686   8.008   6.318  0.0722 -0.4675 -0.0562
16744TIP3   OH251113  10.803   8.652   5.013  0.6436 -0.2811  0.0988
16744TIP3    H151114  10.789   8.738   5.053 -1.2438 -0.0540 -0.9128
16744TIP3    H251115  10.734   8.597   5.051  1.2148 -1.0859 -0.0026
16745TIP3   OH251116   7.841   0.879  10.311 -0.0784 -0.7298  0.1059
16745TIP3    H151117   7.799   0.870  10.396  0.7116  2.2710  0.9498
16745TIP3    H251118   7.775   0.919  10.255  0.1955 -0.3116  0.0750
16746TIP3   OH251119   1.514   4.655   9.764 -0.8340  0.1214 -0.8141
16746TIP3    H151120   1.457   4.686   9.693 -0.8111  2.4800  0.1159
16746TIP3    H251121   1.460   4.661   9.842 -0.7426 -2.1427 -0.5061
16747TIP3   OH251122   5.472   2.177   9.605  0.1585 -0.1260  0.0711
16747TIP3    H151123   5.553   2.187   9.557  1.1250  1.3994  1.8694
16747TIP3    H251124   5.434   2.095   9.573  2.2422 -0.7181 -1.0296
16748TIP3   OH251125  10.406   1.391   8.178  0.0558 -0.4189  0.3645
16748TIP3    H151126  10.409   1.482   8.151 -1.1934 -0.4855 -0.0907
16748TIP3    H251127  10.314   1.366   8.166  0.3086 -1.6293  0.8169
16749TIP3   OH251128   7.269   6.910   7.836  0.6277  1.2669  0.5730
16749TIP3    H151129   7.226   6.949   7.912 -0.7934  0.4085  0.2423
16749TIP3    H251130   7.231   6.823   7.829 -1.1695  2.1280 -2.5474
16750TIP3   OH251131   9.421  10.643  10.009 -0.3366 -0.4100  0.1113
16750TIP3    H151132   9.479  10.717   9.998 -0.9353 -0.0722 -0.9146
16750TIP3    H251133   9.333  10.681  10.013 -0.6329 -1.0376 -0.2024
16751TIP3   OH251134   7.243   4.422   1.195 -0.0897  0.5547 -0.5042
16751TIP3    H151135   7.252   4.373   1.276  1.7270  0.5049 -0.7137
16751TIP3    H251136   7.191   4.499   1.219  1.0105  0.8947  0.8726
16752TIP3   OH251137   1.634   2.409   9.797 -1.0193  0.2677  0.2521
16752TIP3    H151138   1.596   2.443   9.716 -0.3017  1.3073  0.3315
16752TIP3    H251139   1.608   2.471   9.865 -1.5850 -0.5734  0.8390
16753TIP3   OH251140   3.828   1.482   5.154 -0.2213 -0.2805  0.0076
16753TIP3    H151141   3.922   1.479   5.137 -0.3064  0.0847 -0.5351
16753TIP3    H251142   3.787   1.483   5.068 -0.6728  1.1704  0.2208
16754TIP3   OH251143   4.357   9.906   8.163 -0.2161  0.0870  0.1578
16754TIP3    H151144   4.356   9.838   8.230  0.7245 -0.0836  0.0190
16754TIP3    H251145   4.400   9.981   8.206  0.3436 -0.0080 -0.2261
16755TIP3   OH251146   1.839   7.425   1.428 -0.1084  0.5839  0.0714
16755TIP3    H151147   1.870   7.451   1.515  1.8200  2.2812 -1.0225
16755TIP3    H251148   1.751   7.462   1.421 -1.0039 -1.0169  1.8569
16756TIP3   OH251149   2.132   3.955   1.798 -0.6381 -0.1312 -0.2880
16756TIP3    H151150   2.209   3.992   1.842 -0.4264  0.2874 -0.9888
16756TIP3    H251151   2.066   3.947   1.867 -0.1842  0.1313  0.1846
16757TIP3   OH251152   0.819   9.991  10.553  0.4673 -0.4608 -0.5396
16757TIP3    H151153   0.732   9.988  10.594  0.0663 -2.5151 -1.3827
16757TIP3    H251154   0.829  10.082  10.526 -1.3285 -0.1101 -0.2131
16758TIP3   OH251155   9.811   1.755   3.402 -0.1095 -0.2824  0.2317
16758TIP3    H151156   9.901   1.739   3.372  0.2440  1.4574  0.2423
16758TIP3    H251157   9.786   1.838   3.360 -1.9604 -1.0474 -0.2910
16759TIP3   OH251158   7.378   0.502   4.956 -0.4416 -0.2654 -0.2666
16759TIP3    H151159   7.348   0.431   5.014  0.8278 -0.8903 -0.3507
16759TIP3    H251160   7.362   0.469   4.868 -0.8592  0.0111 -0.2958
16760TIP3   OH251161   5.395  10.524   2.765 -0.1045  0.0040  0.4103
16760TIP3    H151162   5.404  10.567   2.850 -4.1601  0.4938  0.7867
16760TIP3    H251163   5.406  10.595   2.702 -3.4892  1.1592  0.9147
16761TIP3   OH251164   8.075  10.902   5.263 -0.4149  0.0052  0.4058
16761TIP3    H151165   8.156  10.851   5.257 -0.8064 -0.5561 -0.3351
16761TIP3    H251166   8.038  10.899   5.175 -0.0730  2.2459  0.1271
16762TIP3   OH251167   3.518   5.689   0.898  0.2788 -0.2659  0.2391
16762TIP3    H151168   3.546   5.766   0.848  0.1519 -0.9139 -0.8619
16762TIP3    H251169   3.568   5.617   0.859 -0.8200 -0.9921  0.1565
16763TIP3   OH251170   3.905   4.180  10.383 -0.5256  0.1332 -0.1944
16763TIP3    H151171   3.989   4.134  10.382 -0.3360  0.4299  0.6656
16763TIP3    H251172   3.927   4.269  10.409 -1.1179  0.1895  0.1287
16764TIP3   OH251173   3.855   0.773   4.198  0.0997 -0.1879 -0.0215
16764TIP3    H151174   3.861   0.682   4.168 -1.3035 -0.8054  1.4394
16764TIP3    H251175   3.877   0.825   4.121 -0.1052 -1.7461 -1.1784
16765TIP3   OH251176   7.249   4.200   6.548  0.8936  0.3180  0.1434
16765TIP3    H151177   7.195   4.264   6.502  2.0261  0.0403 -1.6458
16765TIP3    H251178   7.261   4.238   6.635 -0.1057  1.5633 -0.2208
16766TIP3   OH251179   8.529   8.193   4.570 -0.0795 -1.0648  0.4158
16766TIP3    H151180   8.519   8.097   4.572  1.1518 -1.2147  0.2429
16766TIP3    H251181   8.617   8.208   4.603 -0.2190  0.0175  0.3250
16767TIP3   OH251182   6.305   0.742   2.046  0.1413 -0.5106 -0.0623
16767TIP3    H151183   6.351   0.722   1.964 -1.3859 -2.5827 -0.5134
16767TIP3    H251184   6.216   0.710   2.032 -0.0546 -1.3914  2.5835
16768TIP3   OH251185   0.985   3.985   5.629 -0.0963 -0.0963  0.1971
16768TIP3    H151186   1.015   3.996   5.719  0.8445  0.4954 -0.1786
16768TIP3    H251187   0.924   4.058   5.615  1.2285  0.9778 -0.2343
16769TIP3   OH251188   7.263  10.050   8.145  0.2588 -0.3040 -0.6067
16769TIP3    H151189   7.336   9.988   8.140  0.9975  0.5824 -0.8883
16769TIP3    H251190   7.296  10.130   8.105  0.1165  1.0329  1.7512
16770TIP3   OH251191   4.569   1.216   3.897 -0.2820  0.5933 -0.8720
16770TIP3    H151192   4.658   1.253   3.895 -0.2751  0.5815 -2.6982
16770TIP3    H251193   4.533   1.238   3.811 -1.8711  0.1437 -0.3430
16771TIP3   OH251194   4.853   4.119  10.573 -0.0463 -0.3459  0.5892
16771TIP3    H151195   4.858   4.200  10.522  2.1539 -1.2916 -0.8425
16771TIP3    H251196   4.767   4.082  10.551 -0.5145  0.9273  0.2006
16772TIP3   OH251197   5.952  10.318   3.677 -0.0194  0.0340 -0.2100
16772TIP3    H151198   5.965  10.348   3.767  0.4000 -0.3341 -0.1434
16772TIP3    H251199   5.912  10.231   3.686 -0.8574  0.3872 -0.3945
16773TIP3   OH251200   0.261   6.805   6.664  0.2125  0.1627  0.1600
16773TIP3    H151201   0.285   6.873   6.601  1.6688  0.2619  0.7878
16773TIP3    H251202   0.338   6.749   6.670 -0.4594 -0.7408  0.7246
16774TIP3   OH251203   7.621   2.028   1.419  0.5977  0.1097 -0.2429
16774TIP3    H151204   7.673   2.028   1.338 -0.6960  0.3148 -1.0909
16774TIP3    H251205   7.601   1.935   1.434  0.3457  0.1220 -0.4903
16775TIP3   OH251206   0.502   1.785   1.909 -0.0332 -0.0056 -0.6285
16775TIP3    H151207   0.556   1.828   1.843 -1.0742  1.0572 -0.8177
16775TIP3    H251208   0.442   1.730   1.858 -1.8259  1.9239 -0.7491
16776TIP3   OH251209   9.049   3.099   8.356  0.5501 -0.2978 -0.7104
16776TIP3    H151210   9.079   3.177   8.403 -1.9501 -0.0400  0.6404
16776TIP3    H251211   9.075   3.026   8.412  0.5390 -0.2258 -0.6106
16777TIP3   OH251212   7.805   0.859  10.584  0.1851 -0.3031  0.2135
16777TIP3    H151213   7.751   0.935  10.603 -0.8670 -1.0759  0.4180
16777TIP3    H251214   7.772   0.791  10.642  2.6482 -0.3090  1.7547
16778TIP3   OH251215   6.236   4.804   4.215  0.1943 -0.7425 -1.0444
16778TIP3    H151216   6.327   4.808   4.246  0.5993 -3.7181 -1.5392
16778TIP3    H251217   6.229   4.877   4.153  1.2962  1.3420  1.1029
16779TIP3   OH251218   3.723   9.755   1.852 -0.5730 -0.0435  0.0717
16779TIP3    H151219   3.731   9.720   1.763  3.4041 -0.7763  0.5210
16779TIP3    H251220   3.726   9.850   1.841  0.3245 -0.1365 -0.5754
16780TIP3   OH251221   9.072   0.790   1.262  0.0145 -0.1680 -0.1870
16780TIP3    H151222   9.080   0.817   1.171  1.5589  0.7579  0.2031
16780TIP3    H251223   8.979   0.769   1.272 -0.3908  0.7946 -1.6661
16781TIP3   OH251224  10.797   5.200   8.125 -0.6363 -0.0964 -0.0978
16781TIP3    H151225  10.728   5.145   8.088 -0.8312  0.3797 -0.4442
16781TIP3    H251226  10.770   5.214   8.216 -0.0939 -1.3657  0.2919
16782TIP3   OH251227   7.871   3.514   6.648 -0.1341 -0.4105  0.2768
16782TIP3    H151228   7.786   3.476   6.668 -1.1554  1.1819 -0.7446
16782TIP3    H251229   7.931   3.476   6.712 -1.9286 -0.3570  2.0900
16783TIP3   OH251230   8.049   9.078   7.467 -0.7851  0.0873  0.3097
16783TIP3    H151231   8.120   9.027   7.507  0.2119  0.9014 -0.3910
16783TIP3    H251232   8.093   9.135   7.404 -2.0741  0.5778 -0.1669
16784TIP3   OH251233   8.034   1.418   4.785  0.1616  0.4593 -0.3113
16784TIP3    H151234   8.040   1.500   4.835 -1.0747 -0.6955  1.8901
16784TIP3    H251235   8.093   1.358   4.832 -2.2944 -1.1456  0.9116
16785TIP3   OH251236   7.268   0.137   8.879 -0.2955  0.2341  0.0863
16785TIP3    H151237   7.289   0.230   8.873  0.2388  0.0533 -1.0771
16785TIP3    H251238   7.175   0.133   8.855 -0.0137  0.3508 -1.0982
16786TIP3   OH251239   3.692   5.956   9.925  0.5881  0.1487  0.0975
16786TIP3    H151240   3.759   6.023   9.940  0.0926  0.8640 -0.7852
16786TIP3    H251241   3.609   5.999   9.947  0.3622 -0.5526  0.6516
16787TIP3   OH251242   3.317   6.329   7.787 -0.0609  0.0232 -0.9882
16787TIP3    H151243   3.350   6.248   7.749 -1.7130 -1.1875  0.0202
16787TIP3    H251244   3.365   6.339   7.869  0.4189  0.2851 -1.2991
16788TIP3   OH251245   7.321   8.783   6.633 -0.2490 -0.8299 -0.4118
16788TIP3    H151246   7.245   8.830   6.670 -0.7120 -0.7118 -1.4806
16788TIP3    H251247   7.336   8.825   6.549  3.7882  2.1784  1.4484
16789TIP3   OH251248   0.793   1.085   1.738  0.3026  0.5755 -0.1364
16789TIP3    H151249   0.820   1.053   1.652  0.7083 -0.3603  0.3269
16789TIP3    H251250   0.874   1.117   1.778  0.0994  1.0897 -0.1203
16790TIP3   OH251251   4.268   9.061   4.236  0.1528  0.0460  0.0102
16790TIP3    H151252   4.323   8.983   4.225  0.8426  0.4857  0.2162
16790TIP3    H251253   4.331   9.133   4.242 -0.4820  0.6398 -0.3608
16791TIP3   OH251254   7.416   4.027   7.310 -0.7486 -0.6518 -0.2704
16791TIP3    H151255   7.323   4.008   7.321 -0.8820 -0.3690 -0.8919
16791TIP3    H251256   7.446   4.052   7.397 -1.6799  1.1215 -0.4319
16792TIP3   OH251257   9.473   5.007   3.150  0.6967  0.5461 -0.0203
16792TIP3    H151258   9.524   5.055   3.215  0.0401  3.0276 -1.2242
16792TIP3    H251259   9.406   4.961   3.200  2.3550 -0.5233  1.3219
16793TIP3   OH251260   9.644   7.883   6.156  0.2657 -0.1212 -0.1977
16793TIP3    H151261   9.557   7.842   6.150 -0.0332  0.5336 -0.4989
16793TIP3    H251262   9.658   7.921   6.069 -0.4943  2.4274  0.6932
16794TIP3   OH251263  10.775   8.717   5.401 -0.0510  0.7579 -0.5047
16794TIP3    H151264  10.772   8.701   5.495 -2.6405 -1.4780 -0.8194
16794TIP3    H251265  10.859   8.682   5.373  0.0886  0.0010  0.7854
16795TIP3   OH251266   5.104  10.661   0.202 -0.2567  0.9324  0.1799
16795TIP3    H151267   5.161  10.737   0.196  0.2476  0.4664 -2.0002
16795TIP3    H251268   5.133  10.603   0.131 -1.1511 -0.9346  1.2497
16796TIP3   OH251269   5.436   4.435   7.659  0.1923 -0.3939  0.0684
16796TIP3    H151270   5.487   4.441   7.579 -0.9821  0.6674 -0.6548
16796TIP3    H251271   5.419   4.342   7.671 -0.2200 -0.5200 -1.3387
16797TIP3   OH251272   0.829   7.577  10.823 -0.4346  0.2588 -0.5982
16797TIP3    H151273   0.904   7.518  10.830 -0.1420  0.6985  0.1711
16797TIP3    H251274   0.867   7.660  10.793 -0.3758  0.8722  1.0550
16798TIP3   OH251275   1.836   9.417   9.218 -0.0858  0.4240  0.8214
16798TIP3    H151276   1.801   9.352   9.157 -0.3735  1.7684 -0.5267
16798TIP3    H251277   1.762   9.473   9.239  0.3367  0.8261  1.2835
16799TIP3   OH251278  10.158   4.045   5.749  0.0947 -0.3626  0.2513
16799TIP3    H151279  10.173   4.035   5.843 -1.4630  0.3887  0.6174
16799TIP3    H251280  10.062   4.042   5.740 -0.1803  4.1954 -0.6859
16800TIP3   OH251281   7.920   8.075   8.273 -0.1448  0.1101  0.3656
16800TIP3    H151282   7.916   8.170   8.278  1.4308  0.3237 -1.2651
16800TIP3    H251283   7.978   8.058   8.199 -1.4830 -2.1371 -0.2397
16801TIP3   OH251284   0.537   3.854   5.086  0.4232 -0.1476 -0.3165
16801TIP3    H151285   0.506   3.800   5.159 -0.4375 -0.1597 -0.6686
16801TIP3    H251286   0.534   3.795   5.010  0.4346  0.1171 -0.5230
16802TIP3   OH251287   4.515   1.623   9.098  0.2427 -0.2833 -0.3177
16802TIP3    H151288   4.593   1.665   9.134 -0.1917  0.3867 -0.1387
16802TIP3    H251289   4.452   1.624   9.170 -0.2160 -0.0526 -0.7175
16803TIP3   OH251290   2.442   2.690   0.248  0.7226  0.0051 -0.4550
16803TIP3    H151291   2.430   2.727   0.160  0.7453  1.3009  0.0691
16803TIP3    H251292   2.441   2.766   0.306  1.8054 -0.7358  0.5626
16804TIP3   OH251293   3.150   1.866   2.717 -1.1443 -0.3318  0.0110
16804TIP3    H151294   3.062   1.872   2.753  0.1808  2.0847  3.2702
16804TIP3    H251295   3.145   1.914   2.634 -2.7815  0.1501  0.3563
16805TIP3   OH251296   2.619   6.496   1.354 -0.6254  0.1414  0.0434
16805TIP3    H151297   2.620   6.559   1.282  0.8508 -1.3533 -1.3304
16805TIP3    H251298   2.706   6.504   1.394 -0.6329 -0.5851  0.2270
16806TIP3   OH251299   9.750   0.129  10.725 -0.2172  0.1207 -0.1154
16806TIP3    H151300   9.831   0.101  10.767  0.0175 -1.4526 -1.4860
16806TIP3    H251301   9.720   0.051  10.678 -2.1211  0.8938 -0.2737
16807TIP3   OH251302   3.919  10.483   8.977  0.2682  0.1749  0.3589
16807TIP3    H151303   3.853  10.549   8.996 -2.0636 -1.8647 -0.0979
16807TIP3    H251304   4.001  10.532   8.967 -0.8336  2.6549  2.5188
16808TIP3   OH251305   0.125   2.519   2.678  0.0696 -0.4372  0.2525
16808TIP3    H151306   0.074   2.450   2.720  0.1543 -0.4727  0.2959
16808TIP3    H251307   0.190   2.473   2.625  0.6874 -0.3936  0.9525
16809TIP3   OH251308   8.857  10.585   5.559 -0.1867 -0.1377  0.2701
16809TIP3    H151309   8.934  10.567   5.506 -0.7660  0.9970 -1.0130
16809TIP3    H251310   8.892  10.617   5.642  0.7302  0.4886 -0.3370
16810TIP3   OH251311   7.030  10.482   0.161  0.1453 -0.2004  0.3797
16810TIP3    H151312   7.047  10.459   0.070 -1.3633  1.6035 -0.4116
16810TIP3    H251313   7.047  10.401   0.209  0.8704 -1.2269 -1.4954
16811TIP3   OH251314   2.542   9.357   2.737 -0.2768  0.3147  0.3022
16811TIP3    H151315   2.472   9.293   2.724 -0.5930  0.8603 -0.7390
16811TIP3    H251316   2.503   9.441   2.714  0.5057  0.7320  0.4445
16812TIP3   OH251317   0.241   8.869   7.612  0.1078  1.1265  0.6074
16812TIP3    H151318   0.194   8.806   7.667 -0.5226 -1.2437 -2.3486
16812TIP3    H251319   0.187   8.948   7.614 -1.8718 -0.1464  0.5439
16813TIP3   OH251320   3.582   0.170   5.783 -0.5086 -0.1290  0.3223
16813TIP3    H151321   3.510   0.229   5.804 -0.8901 -0.4113 -0.1795
16813TIP3    H251322   3.624   0.153   5.867 -0.1676  1.1366  0.4341
16814TIP3   OH251323  10.901   1.622   2.972  0.5167 -0.0938  0.3198
16814TIP3    H151324  10.951   1.585   2.899 -1.6721 -3.2816  0.2330
16814TIP3    H251325  10.833   1.675   2.930  0.9013  0.3151  0.2062
16815TIP3   OH251326   4.470   2.597   6.993  0.3303  0.5664  0.1877
16815TIP3    H151327   4.557   2.561   6.976 -0.1206  0.1059 -1.2975
16815TIP3    H251328   4.440   2.550   7.071  1.4465  0.8080  0.7714
16816TIP3   OH251329   4.167   7.603   1.719 -0.1061  0.4445  0.0590
16816TIP3    H151330   4.215   7.672   1.673  0.2490 -0.6457 -1.2850
16816TIP3    H251331   4.105   7.650   1.775  0.3216  1.8522 -0.6017
16817TIP3   OH251332  10.775   5.450   0.726  0.0542  0.3947  0.1020
16817TIP3    H151333  10.781   5.542   0.700 -0.0996  0.3192 -0.2019
16817TIP3    H251334  10.731   5.407   0.653 -0.4008  0.1861  0.4960
16818TIP3   OH251335   1.850   4.631   0.496 -0.6411 -0.3073 -0.1112
16818TIP3    H151336   1.783   4.695   0.521  0.0683  0.2865  0.3117
16818TIP3    H251337   1.882   4.661   0.411  0.3136  0.4388  0.4829
16819TIP3   OH251338   9.919   4.569   9.112  0.7556 -0.7299  0.3032
16819TIP3    H151339   9.894   4.661   9.102  1.4604 -0.4365  1.0733
16819TIP3    H251340   9.917   4.534   9.023  0.7404  0.1030 -0.0376
16820TIP3   OH251341   5.482   3.143   8.431 -0.7595  0.2163  0.3594
16820TIP3    H151342   5.389   3.132   8.452 -0.6379  1.3205  1.5727
16820TIP3    H251343   5.526   3.143   8.515  0.3018  0.1121 -0.1843
16821TIP3   OH251344   1.923   0.469   9.487 -0.0618 -0.2394 -0.1231
16821TIP3    H151345   2.006   0.511   9.465 -0.2229  0.9237  1.3027
16821TIP3    H251346   1.910   0.489   9.580 -2.2378  0.1621 -0.4455
16822TIP3   OH251347   8.119   7.250   4.879 -0.2137  0.4320 -0.0124
16822TIP3    H151348   8.093   7.286   4.795 -1.1082  0.3892  0.2387
16822TIP3    H251349   8.129   7.327   4.936  0.5271  0.4716 -0.1872
16823TIP3   OH251350   6.488   0.864   8.498  0.5026 -0.0360  0.4186
16823TIP3    H151351   6.431   0.824   8.433  1.7600  0.8708 -1.3079
16823TIP3    H251352   6.460   0.955   8.503 -0.1808 -0.2923  1.8774
16824TIP3   OH251353   2.729   5.802   1.909  0.8385 -0.0532  0.2991
16824TIP3    H151354   2.768   5.814   1.823  3.0536  0.1345  1.2547
16824TIP3    H251355   2.765   5.719   1.940 -1.0289 -0.8221  0.5197
16825TIP3   OH251356   3.905  10.312   6.262 -0.2618 -0.4560  0.3678
16825TIP3    H151357   3.826  10.346   6.303  0.2763  0.0314  1.0293
16825TIP3    H251358   3.922  10.229   6.307 -0.8220 -0.9488 -0.3120
16826TIP3   OH251359   8.786   4.636   8.911 -0.0410 -0.0850 -0.0476
16826TIP3    H151360   8.840   4.710   8.937 -1.6047  0.6830  1.2061
16826TIP3    H251361   8.709   4.641   8.968 -0.4475 -2.3711 -0.2890
16827TIP3   OH251362   6.849   1.409   4.480  0.3204 -0.5694  0.6540
16827TIP3    H151363   6.833   1.321   4.513 -0.7879 -0.7554 -0.3034
16827TIP3    H251364   6.775   1.427   4.422  0.6210  0.9243  0.6791
16828TIP3   OH251365   5.711   5.752   5.180 -0.4982  0.0011  0.1539
16828TIP3    H151366   5.785   5.758   5.121 -0.4386 -2.4041 -0.1043
16828TIP3    H251367   5.748   5.764   5.267  0.0455 -0.2804 -0.0389
16829TIP3   OH251368   7.631   8.028   1.368 -0.4277  0.3639 -1.1833
16829TIP3    H151369   7.568   8.098   1.356 -0.3498  0.8846  1.0351
16829TIP3    H251370   7.639   7.988   1.281 -2.8080  1.0909 -1.8179
16830TIP3   OH251371   0.020   7.901   1.249  0.0198 -0.4402  0.3671
16830TIP3    H151372   0.071   7.827   1.280  1.2815 -0.1547 -0.9353
16830TIP3    H251373   0.052   7.976   1.300  1.0991 -0.2194 -0.6115
16831TIP3   OH251374   7.009   0.302   9.645 -0.6372 -0.3232  0.0366
16831TIP3    H151375   7.066   0.307   9.721 -0.8205 -0.4796  0.1849
16831TIP3    H251376   7.044   0.366   9.584  0.1181 -0.9000 -0.1507
16832TIP3   OH251377   4.471   3.669   7.699 -0.0348  0.4042  0.4203
16832TIP3    H151378   4.377   3.674   7.715 -0.3056 -0.8373 -0.5833
16832TIP3    H251379   4.501   3.601   7.760  0.5273  1.8529  1.8415
16833TIP3   OH251380   9.840   3.731   8.639 -0.5097 -0.2024  0.4182
16833TIP3    H151381   9.894   3.740   8.561 -0.9067 -0.2044  0.1405
16833TIP3    H251382   9.835   3.636   8.653  1.1992 -0.1562  1.6124
16834TIP3   OH251383   0.867   6.938   4.269  0.3464 -0.1230 -0.3704
16834TIP3    H151384   0.815   6.989   4.207 -0.2116 -1.1045 -0.7443
16834TIP3    H251385   0.954   6.933   4.229  0.3476  0.3446 -0.4315
16835TIP3   OH251386  10.322   5.538   7.777  0.0186 -0.9306 -0.3065
16835TIP3    H151387  10.293   5.618   7.820  0.9505 -1.6804  1.8361
16835TIP3    H251388  10.320   5.471   7.845  1.1358 -2.3031 -1.5376
16836TIP3   OH251389   2.328   5.545   0.711 -0.1449 -0.4383 -0.3185
16836TIP3    H151390   2.412   5.521   0.671  1.2203  1.5205  1.2177
16836TIP3    H251391   2.303   5.627   0.668  0.5010  0.8016  1.5705
16837TIP3   OH251392   4.802   4.178   6.645  0.3955  0.5007  0.1587
16837TIP3    H151393   4.774   4.261   6.681  1.7384 -0.4882  3.9830
16837TIP3    H251394   4.803   4.118   6.720  0.8284 -2.6284 -2.1197
16838TIP3   OH251395   0.602  10.636  10.670 -0.0214 -0.6105 -0.2292
16838TIP3    H151396   0.665  10.702  10.642 -2.0910  2.2270  1.3766
16838TIP3    H251397   0.562  10.605  10.588  0.6480  0.4814 -0.9856
16839TIP3   OH251398   1.090   0.519   0.372  0.4605  0.1404  0.2608
16839TIP3    H151399   1.072   0.568   0.453  1.0719  1.3705 -0.3099
16839TIP3    H251400   1.181   0.541   0.351  0.6314 -0.9703 -0.2359
16840TIP3   OH251401   7.704   1.482   8.924 -0.4007  0.0066  0.2598
16840TIP3    H151402   7.625   1.494   8.976 -1.0705  1.8177 -1.0788
16840TIP3    H251403   7.675   1.492   8.833  0.8820 -2.1503 -0.4637
16841TIP3   OH251404   5.147   4.223  10.149  0.5072  0.1520 -0.0103
16841TIP3    H151405   5.131   4.233  10.055  0.7178 -1.4240 -0.2362
16841TIP3    H251406   5.149   4.128  10.163  1.5123  0.3581  1.4135
16842TIP3   OH251407   7.016   2.388   7.773 -0.6177  0.1341 -0.2616
16842TIP3    H151408   6.979   2.473   7.748 -0.2591  0.1732 -0.6692
16842TIP3    H251409   7.010   2.336   7.693 -0.5383 -0.1176 -0.1022
16843TIP3   OH251410   1.577   5.777   6.745  0.9933  0.1967  0.0307
16843TIP3    H151411   1.526   5.821   6.677  0.9545 -1.2154 -0.8822
16843TIP3    H251412   1.575   5.838   6.819 -0.5919  0.9113 -0.5594
16844TIP3   OH251413   3.292   9.917   2.473  0.2643 -0.3408  0.2332
16844TIP3    H151414   3.227   9.849   2.455  0.3682 -0.0982 -1.1268
16844TIP3    H251415   3.356   9.910   2.402  0.1219  1.3501 -0.1233
16845TIP3   OH251416   3.571   9.980   4.009  0.4719 -0.4623 -0.7427
16845TIP3    H151417   3.520  10.020   3.938  0.8887 -0.4770 -1.0490
16845TIP3    H251418   3.643  10.041   4.024  0.5568 -0.6129 -0.5403
16846TIP3   OH251419   0.243   9.591   8.553 -0.3337 -0.3818  0.3899
16846TIP3    H151420   0.232   9.516   8.612 -0.0647 -0.4106  0.4042
16846TIP3    H251421   0.288   9.657   8.606  0.2961 -0.5648  0.0958
16847TIP3   OH251422   2.482   3.013   5.376  0.2906 -0.4166 -0.0318
16847TIP3    H151423   2.572   3.008   5.342  0.0302 -0.2212 -0.7556
16847TIP3    H251424   2.450   2.923   5.372  0.0436 -0.2951 -0.9077
16848TIP3   OH251425   5.061   8.342   1.536  0.0898 -0.2101 -0.0892
16848TIP3    H151426   5.116   8.264   1.540 -0.1601 -0.4170 -0.6384
16848TIP3    H251427   5.121   8.414   1.555  0.9423 -0.2679 -2.2471
16849TIP3   OH251428   5.153   1.898   6.713  0.4637 -0.5653  0.4165
16849TIP3    H151429   5.094   1.864   6.645 -0.0660 -0.2728  0.7201
16849TIP3    H251430   5.119   1.860   6.795  1.3241 -1.2168  0.4797
16850TIP3   OH251431   4.370   0.321   8.329  0.0742 -0.3828  0.2934
16850TIP3    H151432   4.414   0.350   8.409 -0.9619  0.0563  0.7191
16850TIP3    H251433   4.283   0.362   8.332  0.4539  0.7230 -1.6954
16851TIP3   OH251434  10.802   4.536   2.568  0.1766 -0.0352 -0.3083
16851TIP3    H151435  10.844   4.622   2.570 -0.9763  0.5763 -1.1400
16851TIP3    H251436  10.709   4.555   2.582  0.2927 -1.5315  4.1825
16852TIP3   OH251437   2.432   2.715   9.594 -0.0853 -0.3456  0.2949
16852TIP3    H151438   2.487   2.756   9.660 -1.2560 -0.5002  1.4142
16852TIP3    H251439   2.428   2.623   9.620  0.1611 -0.5911 -0.5103
16853TIP3   OH251440   2.019   5.520   1.705  0.1108 -0.5938 -0.2235
16853TIP3    H151441   1.977   5.546   1.623 -0.3530 -1.2472 -0.2042
16853TIP3    H251442   1.946   5.492   1.761  0.3586  0.4586  0.6485
16854TIP3   OH251443   7.779   5.866   7.281  0.4686 -0.2872  0.2632
16854TIP3    H151444   7.769   5.908   7.196  0.6631 -0.6449  0.0601
16854TIP3    H251445   7.703   5.809   7.289  0.6500 -0.5474  0.1543
16855TIP3   OH251446   8.575   6.375   0.673 -0.3253  0.5612  0.3208
16855TIP3    H151447   8.571   6.306   0.607 -0.0847  2.5961 -1.9846
16855TIP3    H251448   8.652   6.426   0.649  0.0351  1.1516  2.4990
16856TIP3   OH251449   0.158   5.905   5.265 -0.4569  0.3682 -0.3607
16856TIP3    H151450   0.195   5.902   5.353  0.7321 -0.1779 -0.8549
16856TIP3    H251451   0.097   5.979   5.267  0.5096  1.1698  0.5453
16857TIP3   OH251452   8.147   6.722   1.624 -0.1571 -0.5823 -0.0128
16857TIP3    H151453   8.110   6.689   1.543  1.2082 -1.8633 -0.1544
16857TIP3    H251454   8.128   6.816   1.622 -0.3077 -0.6141 -1.7083
16858TIP3   OH251455   6.927   1.511   9.094  0.1462  0.5377 -0.6393
16858TIP3    H151456   6.988   1.562   9.147 -1.8160  0.0059  2.3792
16858TIP3    H251457   6.844   1.515   9.142 -2.4332  1.5219 -4.6500
16859TIP3   OH251458   8.890   2.239   7.457 -0.6562 -1.2019  0.4929
16859TIP3    H151459   8.871   2.326   7.491  1.3917 -0.3991 -0.2354
16859TIP3    H251460   8.883   2.181   7.533 -0.3062 -0.1194  1.3767
16860TIP3   OH251461   3.553   3.525   6.399  0.7638 -0.4615 -0.0327
16860TIP3    H151462   3.592   3.595   6.347  1.5577 -1.1593 -0.4069
16860TIP3    H251463   3.594   3.532   6.485 -0.1591  0.3613  0.3615
16861TIP3   OH251464   3.577   2.986   2.882 -0.1769 -0.3340 -0.1093
16861TIP3    H151465   3.665   2.962   2.910  0.0491 -0.9251 -1.2743
16861TIP3    H251466   3.590   3.042   2.806 -0.7995 -0.0402 -0.0090
16862TIP3   OH251467   8.870   1.939   2.467  0.0721 -0.2240 -0.1788
16862TIP3    H151468   8.867   1.958   2.374 -1.8379 -0.6682 -0.2543
16862TIP3    H251469   8.778   1.935   2.494  0.5505  1.4151  2.0469
16863TIP3   OH251470   4.147   0.721   2.011 -0.0029  0.0187  0.5776
16863TIP3    H151471   4.158   0.816   2.005 -0.7477  0.0007 -1.8861
16863TIP3    H251472   4.129   0.706   2.104 -0.5732  2.3746  0.9273
16864TIP3   OH251473  10.824   6.494  10.784  0.7048 -0.1944  0.3165
16864TIP3    H151474  10.737   6.503  10.822  0.6932  0.0317  0.2359
16864TIP3    H251475  10.808   6.463  10.694  0.6977  0.0955  0.2189
16865TIP3   OH251476   4.690   0.418   6.298  0.2226  0.0356  0.1711
16865TIP3    H151477   4.761   0.423   6.362 -0.5285 -0.2211  1.0581
16865TIP3    H251478   4.734   0.418   6.213  1.2067  1.1427  0.6558
16866TIP3   OH251479   9.307   8.844   3.669 -0.6015 -0.5003  0.0656
16866TIP3    H151480   9.268   8.813   3.587 -1.7612  0.6336  0.1626
16866TIP3    H251481   9.233   8.854   3.729  0.3460 -2.5652  1.7264
16867TIP3   OH251482   6.819   9.902   0.616  0.0234 -0.1282  0.1599
16867TIP3    H151483   6.871   9.939   0.687  0.0372  1.4286 -0.6035
16867TIP3    H251484   6.730   9.898   0.650  0.1365  0.0259  0.4737
16868TIP3   OH251485   4.238   2.734   9.705 -0.1996 -0.3363  0.1333
16868TIP3    H151486   4.247   2.726   9.799 -1.0925 -0.9791  0.1786
16868TIP3    H251487   4.148   2.765   9.692  0.3624  1.1555 -0.4529
16869TIP3   OH251488   5.055   5.295  10.080  0.2091 -0.5619  0.0410
16869TIP3    H151489   5.085   5.374  10.125 -1.0920  0.8091 -1.3830
16869TIP3    H251490   5.084   5.306   9.990  0.0547 -1.7483 -0.1662
16870TIP3   OH251491   3.040   4.003   2.576  0.3575  0.6746 -0.1649
16870TIP3    H151492   2.973   4.016   2.643  0.5818 -0.2209  0.2506
16870TIP3    H251493   3.092   3.930   2.608  0.8180  0.5977 -1.0488
16871TIP3   OH251494   5.959   8.707   9.375  0.1805  0.3176 -0.3082
16871TIP3    H151495   6.052   8.730   9.376 -0.3496  2.8015  1.6509
16871TIP3    H251496   5.934   8.704   9.468 -2.1055  1.6352 -0.8076
16872TIP3   OH251497  10.683   3.930   7.850  0.1717 -0.2216  0.2242
16872TIP3    H151498  10.752   3.890   7.903  1.2884  1.3726  0.0480
16872TIP3    H251499  10.631   3.981   7.911 -0.2585 -0.6181  0.1971
16873TIP3   OH251500  10.244   2.003   5.682  0.0759 -0.5014  0.7623
16873TIP3    H151501  10.181   2.068   5.711  1.1203  1.2881 -0.7325
16873TIP3    H251502  10.199   1.919   5.692 -1.8320  0.5454  1.4579
16874TIP3   OH251503   6.560   7.931   4.700 -0.0823  0.2252  0.4012
16874TIP3    H151504   6.535   8.022   4.685  0.3053  0.1160 -0.9923
16874TIP3    H251505   6.485   7.880   4.671  0.4002  0.0381 -0.5545
16875TIP3   OH251506   0.856   4.575   9.423 -0.5025 -0.3191 -0.0963
16875TIP3    H151507   0.899   4.649   9.467 -0.4783  1.2375 -2.5278
16875TIP3    H251508   0.926   4.513   9.406 -0.0766  0.1212  0.0269
16876TIP3   OH251509   0.787  10.786   9.953 -0.5485  0.0352 -0.4704
16876TIP3    H151510   0.870  10.739   9.944 -0.5720  0.2286 -1.8849
16876TIP3    H251511   0.771  10.787  10.047  0.1960 -1.4878 -0.2881
16877TIP3   OH251512   1.270   1.898   5.561 -0.2945 -0.4814 -0.6685
16877TIP3    H151513   1.301   1.916   5.650 -1.8709  0.8208 -0.3192
16877TIP3    H251514   1.275   1.983   5.517 -1.6084 -0.6074 -1.1109
16878TIP3   OH251515   7.498   8.043   2.955 -0.3922  0.0363  0.4022
16878TIP3    H151516   7.416   8.028   3.001 -0.4313 -0.4414  0.1827
16878TIP3    H251517   7.565   8.034   3.023 -0.4014 -1.3644  0.2473
16879TIP3   OH251518   9.132   7.740   6.199  0.1050 -0.6508  0.1908
16879TIP3    H151519   9.131   7.669   6.135  0.0770 -0.2462 -0.2594
16879TIP3    H251520   9.084   7.812   6.157  0.4957 -0.2198  0.4671
16880TIP3   OH251521   9.609   7.733   0.264  0.1612  0.0248 -0.1348
16880TIP3    H151522   9.607   7.638   0.263 -0.8125  0.0253  0.3789
16880TIP3    H251523   9.533   7.760   0.213 -0.9937  0.4785  1.7008
16881TIP3   OH251524   3.003   3.487  10.852  0.5200 -0.1201  0.4307
16881TIP3    H151525   3.077   3.426  10.861  2.1465  1.8300  1.0390
16881TIP3    H251526   3.039   3.562  10.806 -0.8442  1.2501  1.4839
16882TIP3   OH251527   5.717   1.513   2.789  0.5792 -0.4968 -0.2034
16882TIP3    H151528   5.668   1.436   2.818  0.7624 -0.4684  0.1875
16882TIP3    H251529   5.707   1.513   2.694  3.8134 -3.2848 -0.7356
16883TIP3   OH251530   3.065   7.351   7.583  0.1268 -0.1363 -0.2464
16883TIP3    H151531   2.998   7.285   7.565 -0.9819  1.2678 -1.4551
16883TIP3    H251532   3.148   7.303   7.573 -0.6486 -1.6102  0.0941
16884TIP3   OH251533   5.060  10.480  10.326  0.1587 -0.0120  0.9813
16884TIP3    H151534   4.980  10.480  10.273  0.1404 -0.9486  0.9963
16884TIP3    H251535   5.040  10.539  10.398 -0.2087  0.4328  0.5319
16885TIP3   OH251536   0.838  10.395   4.949 -0.1099 -0.4742  0.3010
16885TIP3    H151537   0.875  10.360   4.867 -0.3489 -0.4284  0.1736
16885TIP3    H251538   0.813  10.318   4.999 -0.7620 -0.4891 -0.0376
16886TIP3   OH251539   1.844   5.337   8.954  0.4621 -0.5672  0.1736
16886TIP3    H151540   1.816   5.280   9.025 -0.3049  0.1146  0.4334
16886TIP3    H251541   1.804   5.299   8.875 -1.0208  0.2517  0.5066
16887TIP3   OH251542   9.784   3.326   1.517 -0.2993  0.3835  0.2424
16887TIP3    H151543   9.833   3.247   1.491  0.0731  0.4519  0.7278
16887TIP3    H251544   9.833   3.361   1.591 -1.9643 -0.4270  1.7812
16888TIP3   OH251545   3.027   9.155   6.359 -0.0276 -0.0381 -0.4571
16888TIP3    H151546   3.094   9.172   6.426  0.0608  0.4953 -0.6755
16888TIP3    H251547   2.953   9.118   6.408 -0.1068  0.6904  0.0019
16889TIP3   OH251548   8.643   1.677   6.756  0.2502  0.0127  1.2136
16889TIP3    H151549   8.671   1.586   6.767 -0.4795 -0.1641  1.7385
16889TIP3    H251550   8.695   1.726   6.818  1.8017  0.2234 -0.1758
16890TIP3   OH251551   4.520   3.526   5.884  0.2180  0.4361  0.0403
16890TIP3    H151552   4.498   3.592   5.950  0.4926 -0.9544  1.5978
16890TIP3    H251553   4.483   3.444   5.919  0.6094 -0.3908 -1.4039
16891TIP3   OH251554   5.457   9.131   2.605 -0.3442  0.6160  0.2755
16891TIP3    H151555   5.387   9.126   2.670 -1.4315 -1.5753 -0.9387
16891TIP3    H251556   5.512   9.055   2.622  0.0956  0.7381 -0.5501
16892TIP3   OH251557   4.246   9.126   6.755 -0.0828  0.2446  0.2448
16892TIP3    H151558   4.287   9.174   6.827 -0.8155  1.8536 -0.3659
16892TIP3    H251559   4.235   9.191   6.686 -0.3349 -1.0230 -0.9563
16893TIP3   OH251560   4.798   3.230   8.356 -0.5374  0.4344 -0.2203
16893TIP3    H151561   4.767   3.158   8.411 -0.8391  0.4842 -0.3221
16893TIP3    H251562   4.748   3.306   8.387  0.7130  0.8935  0.7773
16894TIP3   OH251563   9.253   0.227   4.815  0.0393  0.4118 -0.5062
16894TIP3    H151564   9.184   0.270   4.765 -1.3661 -1.3960 -0.1781
16894TIP3    H251565   9.271   0.146   4.768  2.5951  1.1981 -1.0644
16895TIP3   OH251566   8.889  10.561   2.041  0.2441 -0.1331  0.2534
16895TIP3    H151567   8.809  10.540   2.091 -0.8194  0.4607 -1.1195
16895TIP3    H251568   8.856  10.596   1.958  1.9602  0.4010 -0.2311
16896TIP3   OH251569   6.402   2.609   4.217  0.0489 -0.4740  0.6683
16896TIP3    H151570   6.363   2.609   4.304 -0.8497 -0.2604  0.2756
16896TIP3    H251571   6.388   2.520   4.184 -1.8478  0.0997 -0.2116
16897TIP3   OH251572   1.107   1.994   5.889 -0.0676  0.1139 -0.5725
16897TIP3    H151573   1.076   2.026   5.804 -1.6126 -0.2389 -0.1676
16897TIP3    H251574   1.030   1.996   5.945  0.8369 -0.0724  0.7173
16898TIP3   OH251575   8.214   5.888   6.405  0.3768 -0.3753  0.6970
16898TIP3    H151576   8.258   5.850   6.329  1.1352 -0.0163  0.9437
16898TIP3    H251577   8.121   5.874   6.389  0.4571  0.6396 -0.8096
16899TIP3   OH251578   0.653   2.183   3.215 -0.2866 -0.0880  0.2244
16899TIP3    H151579   0.703   2.264   3.229 -0.1206 -0.0314 -0.6052
16899TIP3    H251580   0.696   2.119   3.271  1.3908 -0.2839 -1.1698
16900TIP3   OH251581   3.750   9.190   8.618  0.3518 -0.1768  0.7597
16900TIP3    H151582   3.706   9.105   8.614 -1.3174  0.5991  1.4861
16900TIP3    H251583   3.728   9.224   8.705  1.7545  0.6267  0.8324
16901TIP3   OH251584  10.538   5.921   8.961 -0.3667  0.0737  0.0537
16901TIP3    H151585  10.445   5.920   8.985 -0.6562 -0.1151 -1.0335
16901TIP3    H251586  10.555   5.833   8.929 -0.2573  0.5632 -1.3239
16902TIP3   OH251587   0.530   2.126  10.336 -0.4955  0.3490  0.5300
16902TIP3    H151588   0.547   2.078  10.417 -1.4822 -0.0018  0.5440
16902TIP3    H251589   0.554   2.216  10.356  1.8768 -0.1813  0.3550
16903TIP3   OH251590   0.406  10.564   6.480 -0.9893  0.1448  0.1848
16903TIP3    H151591   0.369  10.598   6.398  2.0106 -0.5229 -1.6015
16903TIP3    H251592   0.409  10.469   6.468  2.2822  0.2135 -0.3640
16904TIP3   OH251593   8.763   3.079   8.475  0.1991  0.2767 -0.0919
16904TIP3    H151594   8.789   3.154   8.421 -0.6088  0.7596  0.1725
16904TIP3    H251595   8.846   3.038   8.500  0.7769  1.9741  0.9928
16905TIP3   OH251596   1.250   2.752   0.463 -0.7286  0.5753 -0.1535
16905TIP3    H151597   1.287   2.722   0.547 -0.3864 -1.2814 -0.9148
16905TIP3    H251598   1.160   2.776   0.485 -0.8640 -0.5486  0.6502
16906TIP3   OH251599   6.969   4.059   4.761 -0.0084  0.5190 -0.0792
16906TIP3    H151600   6.897   4.109   4.723  0.0741 -0.3842 -1.5139
16906TIP3    H251601   7.038   4.123   4.776  0.3220  0.8091 -2.4384
16907TIP3   OH251602   4.638   1.781   6.930 -0.4494 -0.6937 -0.3583
16907TIP3    H151603   4.583   1.796   6.853  0.7212  0.4330 -1.0128
16907TIP3    H251604   4.649   1.686   6.933 -2.9839 -1.0452  0.2313
16908TIP3   OH251605   4.653   2.525   6.626  0.1752 -0.0490  0.2455
16908TIP3    H151606   4.745   2.520   6.654  0.3030  2.5052  0.5751
16908TIP3    H251607   4.605   2.475   6.692  1.4107 -2.6840 -0.7444
16909TIP3   OH251608   0.338   7.907   3.864 -0.2875 -0.3254 -0.5530
16909TIP3    H151609   0.305   7.919   3.954 -1.3596 -0.8762 -0.8525
16909TIP3    H251610   0.398   7.980   3.851 -0.2569 -0.1269  0.5537
16910TIP3   OH251611   1.155  10.713   9.060  0.0079  0.2192 -0.6898
16910TIP3    H151612   1.239  10.668   9.071  0.5806  1.0148 -1.5814
16910TIP3    H251613   1.167  10.765   8.980 -1.2796  0.4786 -0.7254
16911TIP3   OH251614   4.101   2.023   8.185 -0.1825 -0.6005  0.6713
16911TIP3    H151615   4.064   2.059   8.265  1.5370  0.2440  1.1424
16911TIP3    H251616   4.193   2.006   8.207  0.4347  0.0655 -1.2399
16912TIP3   OH251617   6.749   1.810   6.215  0.1279 -0.2023  0.5091
16912TIP3    H151618   6.841   1.833   6.199  0.3054 -0.6122  0.9008
16912TIP3    H251619   6.717   1.879   6.272  0.9897 -1.4553  2.6469
16913TIP3   OH251620   7.986   0.800   0.559 -0.2964  0.4301  0.3577
16913TIP3    H151621   8.055   0.739   0.585 -0.1328  1.0663  1.4526
16913TIP3    H251622   7.906   0.763   0.595 -0.3845  0.2327 -0.0308
16914TIP3   OH251623   0.883   0.581  10.888 -0.2698 -0.2874  0.1220
16914TIP3    H151624   0.826   0.624  10.824 -0.7695  0.2071  0.8940
16914TIP3    H251625   0.849   0.608  10.973  0.9966 -0.1481  0.6048
16915TIP3   OH251626   8.260   9.249   5.844  0.6273 -0.2346 -0.6830
16915TIP3    H151627   8.207   9.308   5.897  0.6683 -1.5502  0.9072
16915TIP3    H251628   8.314   9.201   5.907  2.6879  0.0255 -2.1190
16916TIP3   OH251629   5.247   2.801   4.597 -0.4036  0.3791  0.0497
16916TIP3    H151630   5.233   2.895   4.583  0.3807  0.7080  1.3626
16916TIP3    H251631   5.270   2.767   4.510 -1.2236  1.2781 -0.5461
16917TIP3   OH251632   0.684  10.667   0.529  0.8366  0.3607 -0.2972
16917TIP3    H151633   0.759  10.720   0.501  0.4304 -0.0182 -2.2195
16917TIP3    H251634   0.675  10.601   0.461 -0.3407 -0.5172  0.6820
16918TIP3   OH251635   6.047   1.704   7.486  0.6964  0.0411 -0.7584
16918TIP3    H151636   6.036   1.783   7.432 -0.3902  0.6840  0.3357
16918TIP3    H251637   6.119   1.724   7.545  0.6446  0.0900 -0.7112
16919TIP3   OH251638   2.157   1.378  10.828 -0.0032 -0.2399  0.2187
16919TIP3    H151639   2.168   1.420  10.913  0.6685  0.7395 -0.3365
16919TIP3    H251640   2.082   1.423  10.789 -0.3776 -0.7610  0.3282
16920TIP3   OH251641   0.208   4.284   0.459 -0.1945  0.0615  0.0315
16920TIP3    H151642   0.234   4.376   0.457 -1.0778  0.3231  0.5757
16920TIP3    H251643   0.172   4.268   0.372 -0.9718  0.5069  0.2648
16921TIP3   OH251644   8.337   8.470   2.323  0.8381 -0.0014  0.2651
16921TIP3    H151645   8.348   8.560   2.353 -0.5115 -0.2171  1.5174
16921TIP3    H251646   8.247   8.447   2.349  0.5890 -1.1711 -1.4650
16922TIP3   OH251647   7.534  10.055   4.945  0.5738 -0.2552 -0.0776
16922TIP3    H151648   7.544  10.105   5.026  0.2867  0.0573 -0.2350
16922TIP3    H251649   7.493  10.116   4.883 -0.2395 -0.8333 -0.1212
16923TIP3   OH251650   7.175   6.087  10.636  0.1796 -0.0200  0.4447
16923TIP3    H151651   7.136   6.072  10.722  1.2458 -0.8858  0.7962
16923TIP3    H251652   7.210   6.002  10.610  0.2041  0.3110 -0.6961
16924TIP3   OH251653   0.653   7.290   5.900 -0.3473  0.3601 -0.0286
16924TIP3    H151654   0.638   7.254   5.988 -0.5402  0.7546  0.1052
16924TIP3    H251655   0.625   7.221   5.841 -3.1557  1.1520  0.1972
16925TIP3   OH251656   2.009   8.094   5.266 -0.2517  0.2000 -0.0877
16925TIP3    H151657   2.079   8.139   5.314  1.1616 -1.0546 -0.8877
16925TIP3    H251658   1.955   8.053   5.334  0.9389 -0.4296  0.5010
16926TIP3   OH251659   6.907   1.698   1.977  0.1818 -0.2126 -0.1779
16926TIP3    H151660   6.899   1.611   1.938 -3.0209  0.8996 -2.3849
16926TIP3    H251661   6.986   1.735   1.937  0.6583 -1.4848 -0.4618
16927TIP3   OH251662   9.766   9.915   2.416 -0.3077 -0.3808 -0.5853
16927TIP3    H151663   9.813   9.911   2.333  2.5085  0.2742  0.8160
16927TIP3    H251664   9.772  10.007   2.443 -0.8117 -0.6487  0.5134
16928TIP3   OH251665   5.741   6.899  10.382  0.4389  0.5130  0.1457
16928TIP3    H151666   5.685   6.925  10.308  0.2795  0.1274  0.1269
16928TIP3    H251667   5.695   6.824  10.421  1.6711 -0.7846 -0.7902
16929TIP3   OH251668   7.478   5.293   8.738 -0.0190  0.1379  0.0811
16929TIP3    H151669   7.451   5.204   8.714 -0.6360  0.0539  1.0403
16929TIP3    H251670   7.566   5.283   8.775  0.4677  0.1193 -1.0348
16930TIP3   OH251671   4.644   5.139   4.150 -0.1348 -0.3696 -0.6738
16930TIP3    H151672   4.735   5.114   4.163 -0.6322 -1.7801  0.3154
16930TIP3    H251673   4.643   5.179   4.063  1.3618 -0.6117 -0.8331
16931TIP3   OH251674   0.093   9.635   2.690 -0.6718  0.0648 -0.1184
16931TIP3    H151675   0.120   9.565   2.631  0.9648  0.1646  0.4706
16931TIP3    H251676   0.175   9.670   2.725 -1.4206  2.6048 -0.7430
16932TIP3   OH251677  10.298   5.621   2.302  0.0335 -0.1855 -0.9974
16932TIP3    H151678  10.219   5.647   2.348 -0.1542 -1.4780 -0.5541
16932TIP3    H251679  10.284   5.529   2.279  1.2278 -0.3134 -1.2934
16933TIP3   OH251680   9.271   5.923   9.102 -0.2600  0.1639 -0.6834
16933TIP3    H151681   9.277   5.967   9.018  1.4192  1.0905 -0.1333
16933TIP3    H251682   9.177   5.915   9.119 -0.6296  2.0235 -1.5973
16934TIP3   OH251683   0.106   5.864   2.110  0.7585 -0.4786  0.0685
16934TIP3    H151684   0.120   5.882   2.203 -0.0558 -2.4096  0.6215
16934TIP3    H251685   0.076   5.947   2.073 -1.6924 -0.3187  2.1393
16935TIP3   OH251686   6.314   5.809   5.395 -0.0601 -0.0021 -0.2014
16935TIP3    H151687   6.385   5.804   5.332 -1.1523  1.0727 -1.6088
16935TIP3    H251688   6.351   5.855   5.471  0.3940  1.9541 -1.5303
16936TIP3   OH251689  10.005   4.483  10.278 -0.6040  0.2678  0.2522
16936TIP3    H151690   9.959   4.542  10.219  1.1767  0.7076 -0.7556
16936TIP3    H251691  10.012   4.401  10.229  1.4505  0.8263 -0.5113
16937TIP3   OH251692   3.954   7.209   0.303  0.2662 -0.2320 -0.0980
16937TIP3    H151693   3.986   7.250   0.383  0.7246  1.2414 -1.0068
16937TIP3    H251694   3.872   7.254   0.284  0.8640  0.4240 -1.2104
16938TIP3   OH251695   2.963   9.215   7.373 -0.7040 -0.7454 -0.0899
16938TIP3    H151696   2.949   9.283   7.438  1.7410 -0.9122  0.7169
16938TIP3    H251697   2.958   9.133   7.422 -2.2908 -1.1051 -0.8025
16939TIP3   OH251698  10.480   7.139  10.724  0.5132 -0.2826 -0.4027
16939TIP3    H151699  10.458   7.199  10.794  0.0222 -0.5417 -0.3325
16939TIP3    H251700  10.574   7.153  10.709  0.4752  0.2547 -0.1633
16940TIP3   OH251701   5.640   2.958  10.680  0.5388  0.2462  0.0278
16940TIP3    H151702   5.662   2.910  10.600 -1.7816 -0.0901 -0.5044
16940TIP3    H251703   5.566   2.910  10.717  0.3517  1.4771  1.3609
16941TIP3   OH251704   2.204   7.864   5.667 -0.0068 -0.2103 -0.5626
16941TIP3    H151705   2.182   7.792   5.726 -0.2195 -0.7902 -1.3144
16941TIP3    H251706   2.205   7.823   5.580  2.4601  0.1417 -0.7565
16942TIP3   OH251707  10.650   7.164   0.720 -0.1698 -0.3718  0.2199
16942TIP3    H151708  10.592   7.151   0.644  1.5222 -0.8323 -1.0375
16942TIP3    H251709  10.659   7.077   0.759  1.0013 -0.6559 -0.6212
16943TIP3   OH251710   0.173   5.540   8.727  0.5464 -0.0735 -0.4800
16943TIP3    H151711   0.255   5.527   8.774 -0.5422 -1.1011  1.2522
16943TIP3    H251712   0.144   5.628   8.752 -0.6052 -1.0371  1.8570
16944TIP3   OH251713   3.659   5.207   7.872  0.2547 -0.1559 -0.4320
16944TIP3    H151714   3.673   5.200   7.966 -0.8604 -3.1519 -0.3695
16944TIP3    H251715   3.729   5.155   7.833  0.1407  0.2532 -1.2055
16945TIP3   OH251716   8.554   4.605   8.764  0.5494 -0.4895 -0.1678
16945TIP3    H151717   8.534   4.600   8.671 -0.6128 -2.4786  0.1229
16945TIP3    H251718   8.648   4.626   8.768  0.1864  1.6977 -1.6928
16946TIP3   OH251719   1.983   3.326   0.694 -0.2113 -0.2626  0.4965
16946TIP3    H151720   1.917   3.392   0.715  0.2099 -0.0140  1.0566
16946TIP3    H251721   1.933   3.256   0.652 -0.6851  0.3461  0.0084
16947TIP3   OH251722   7.632   3.990   3.982 -0.0538 -0.4171  0.8381
16947TIP3    H151723   7.638   3.912   4.037  1.5960 -0.4944  0.5858
16947TIP3    H251724   7.636   4.063   4.044  0.3623 -0.5233  0.9424
16948TIP3   OH251725   7.129   8.799   0.504  0.9295 -0.0258 -0.3199
16948TIP3    H151726   7.173   8.729   0.553 -0.1810 -0.1667  0.5006
16948TIP3    H251727   7.036   8.786   0.521  0.1776 -1.7243 -4.5998
16949TIP3   OH251728   8.106   0.982   6.248  0.2552  0.3155  0.4923
16949TIP3    H151729   8.151   0.927   6.312  0.0360 -0.7401 -0.2421
16949TIP3    H251730   8.079   0.922   6.179  1.7994  1.6334 -1.3707
16950TIP3   OH251731   5.177   9.305  10.381 -0.0173 -0.1354  0.1134
16950TIP3    H151732   5.263   9.334  10.351  0.2785  0.1871  1.2067
16950TIP3    H251733   5.118   9.378  10.361  0.3564  0.4589  1.1387
16951TIP3   OH251734   4.374   7.110   9.120 -0.6465 -0.2176 -0.3119
16951TIP3    H151735   4.297   7.077   9.166 -0.2244  1.1416  1.4789
16951TIP3    H251736   4.443   7.046   9.141 -0.1789  0.9412  1.9840
16952TIP3   OH251737   9.164   0.382   2.484 -0.1049 -0.0987  0.0458
16952TIP3    H151738   9.143   0.296   2.522  0.6453 -0.5552 -0.5447
16952TIP3    H251739   9.260   0.385   2.483 -0.1214  0.8479  0.2670
16953TIP3   OH251740   1.539   0.373   1.612  0.3299  0.1385 -0.1304
16953TIP3    H151741   1.454   0.400   1.645 -1.6204 -3.6901 -1.4523
16953TIP3    H251742   1.580   0.327   1.686  0.8768  1.1829  0.2271
16954TIP3   OH251743   5.314   6.744   5.640 -0.2068 -0.2897 -0.1815
16954TIP3    H151744   5.229   6.784   5.623  0.1054  0.3685 -0.2177
16954TIP3    H251745   5.295   6.667   5.693 -0.8580 -0.3426 -0.4933
16955TIP3   OH251746  10.109   0.398   0.589 -0.5634 -0.0838  0.4827
16955TIP3    H151747  10.022   0.434   0.569  0.2036  0.7192 -1.6179
16955TIP3    H251748  10.095   0.346   0.668 -3.3523 -1.4817 -0.8002
16956TIP3   OH251749   9.769   5.558   6.292  0.3251  0.0698 -0.3257
16956TIP3    H151750   9.806   5.472   6.311 -1.9450 -0.8695  0.1817
16956TIP3    H251751   9.709   5.575   6.365 -0.7451  1.1532 -1.4017
16957TIP3   OH251752   9.904   7.474  10.401 -0.1254 -0.1968  0.3969
16957TIP3    H151753   9.964   7.473  10.475  1.7330  0.6674 -1.0168
16957TIP3    H251754   9.845   7.547  10.419  0.5515  0.2495  0.8473
16958TIP3   OH251755   0.735   8.869   4.823  0.0215  0.1292 -0.0715
16958TIP3    H151756   0.816   8.919   4.833  1.4029 -1.9022 -0.4792
16958TIP3    H251757   0.692   8.874   4.908 -0.0637  2.1679 -0.1678
16959TIP3   OH251758   3.122   4.424   2.635  0.6327 -0.1249 -0.0548
16959TIP3    H151759   3.067   4.394   2.563  1.4948 -1.3225 -0.2363
16959TIP3    H251760   3.139   4.516   2.615  0.5196 -0.3342 -1.1626
16960TIP3   OH251761   8.559   7.926   1.922  0.2385  0.2827  0.4968
16960TIP3    H151762   8.580   8.008   1.879 -0.2328  0.3529  0.3910
16960TIP3    H251763   8.641   7.898   1.962  0.5861  0.4114 -0.1170
16961TIP3   OH251764   2.126   7.145   2.335 -0.4273  0.7969  0.0757
16961TIP3    H151765   2.196   7.085   2.312 -1.0213  0.1073  0.0217
16961TIP3    H251766   2.170   7.223   2.368  0.3270 -0.3267  1.8294
16962TIP3   OH251767   8.239   9.741   9.578  0.1643  0.4283  0.0600
16962TIP3    H151768   8.325   9.783   9.575 -0.2749  1.4696  1.1813
16962TIP3    H251769   8.195   9.782   9.653 -1.9282  1.1167 -1.4639
16963TIP3   OH251770   9.620   9.560   4.181  0.0046 -0.2772 -0.1652
16963TIP3    H151771   9.687   9.599   4.125 -0.5746  0.4133 -0.3932
16963TIP3    H251772   9.538   9.573   4.133 -0.6824  1.4570  1.3804
16964TIP3   OH251773  10.162   2.532   7.835 -0.4943  0.0405 -0.5254
16964TIP3    H151774  10.112   2.531   7.753  0.3083  0.0068 -1.0228
16964TIP3    H251775  10.106   2.579   7.897 -1.4076 -0.5306 -0.8989
16965TIP3   OH251776   0.989   0.863   5.590  0.1335  0.0581 -0.1193
16965TIP3    H151777   1.069   0.818   5.617 -0.0970 -0.5851 -0.4915
16965TIP3    H251778   1.013   0.955   5.589  0.9176 -0.1376 -0.3614
16966TIP3   OH251779   8.466  10.718   4.719  0.5700 -0.4357 -0.9424
16966TIP3    H151780   8.552  10.685   4.743 -0.4384 -1.7827  1.0692
16966TIP3    H251781   8.427  10.648   4.666 -0.3570 -1.1573  0.6287
16967TIP3   OH251782   6.859   5.943   2.402  0.2639  0.7118 -0.6203
16967TIP3    H151783   6.909   5.980   2.475 -0.6128 -1.3935  1.1603
16967TIP3    H251784   6.793   6.009   2.382 -0.5603  0.6416  1.6729
16968TIP3   OH251785   1.985   6.459   8.922  0.2576  0.0817  0.3654
16968TIP3    H151786   2.011   6.542   8.962 -0.8241 -0.1139  1.5170
16968TIP3    H251787   2.016   6.466   8.832  2.1316  0.8266  1.0087
16969TIP3   OH251788   9.504   4.046   6.267 -0.6389 -0.2442  0.6483
16969TIP3    H151789   9.420   4.091   6.275 -0.4672 -0.0539  1.4961
16969TIP3    H251790   9.549   4.092   6.197 -0.2830  1.2279  1.7948
16970TIP3   OH251791   1.291   9.270   2.686  0.3736  0.1767 -0.2770
16970TIP3    H151792   1.294   9.182   2.648  0.3777  0.3320 -0.6390
16970TIP3    H251793   1.379   9.285   2.719  0.5286  0.2644 -0.7230
16971TIP3   OH251794   3.071   9.930   5.157  0.0459  0.1258  0.5961
16971TIP3    H151795   3.071   9.874   5.079 -2.5785  1.3529 -0.3943
16971TIP3    H251796   3.117   9.878   5.223  1.2969 -1.4735 -1.3810
16972TIP3   OH251797   7.197   4.585   0.008 -0.1551  0.3735 -0.0142
16972TIP3    H151798   7.140   4.662  -0.001 -0.6277  0.2597  1.6386
16972TIP3    H251799   7.277   4.620   0.048  0.1407  0.2080 -0.4614
16973TIP3   OH251800   7.731   8.585   8.986  0.1881  0.4711 -0.1592
16973TIP3    H151801   7.636   8.581   8.982  0.1991  0.7447 -0.7119
16973TIP3    H251802   7.757   8.495   9.007 -0.2431  0.6704  1.3409
16974TIP3   OH251803   3.188   2.933   3.585  0.2522  0.8706 -0.5268
16974TIP3    H151804   3.158   2.843   3.575  0.6697  0.5418  0.9256
16974TIP3    H251805   3.201   2.965   3.496  1.0036 -0.8121 -1.0496
16975TIP3   OH251806   6.000   3.532   2.521 -0.2180  0.3790  0.0804
16975TIP3    H151807   6.031   3.518   2.611  1.4645  1.4678 -0.2744
16975TIP3    H251808   5.931   3.597   2.530 -0.2783  0.2511  0.6222
16976TIP3   OH251809   1.718   8.937   0.835  0.1104 -0.1067 -0.1274
16976TIP3    H151810   1.774   8.948   0.912  0.6135  1.8906 -0.7193
16976TIP3    H251811   1.630   8.926   0.871  0.1874  1.8331  0.7630
16977TIP3   OH251812   8.498   5.190   9.613 -0.1270 -0.0877 -0.2977
16977TIP3    H151813   8.468   5.111   9.659  0.6911 -0.2853 -0.0941
16977TIP3    H251814   8.575   5.161   9.564  1.0835  0.8955  0.9310
16978TIP3   OH251815   8.789   4.624  10.395 -0.2345 -0.3713 -0.0674
16978TIP3    H151816   8.866   4.668  10.360 -0.7967  0.9901  0.3604
16978TIP3    H251817   8.715   4.677  10.365 -1.0746 -1.9628 -0.9509
16979TIP3   OH251818   8.884   8.929   8.595 -0.0829  0.3696  0.2969
16979TIP3    H151819   8.823   8.997   8.625 -0.7278 -0.6658  1.4106
16979TIP3    H251820   8.970   8.959   8.624  0.0781  2.0445 -1.6394
16980TIP3   OH251821   5.001   0.619   1.377 -0.1237 -0.1565  0.2696
16980TIP3    H151822   4.927   0.630   1.318 -0.5554  2.9308  1.2166
16980TIP3    H251823   5.049   0.544   1.341 -0.8529  0.9511 -3.4570
16981TIP3   OH251824   4.390   6.638   1.487  0.2347 -0.6803 -0.0761
16981TIP3    H151825   4.342   6.716   1.456  2.1368  0.9608  0.9100
16981TIP3    H251826   4.332   6.599   1.552 -0.4256  0.3663 -0.0076
16982TIP3   OH251827   9.689   4.217   7.408 -0.2026 -0.2789 -0.6156
16982TIP3    H151828   9.644   4.287   7.455  1.4505  0.8024 -0.5613
16982TIP3    H251829   9.688   4.143   7.470  1.1151  0.8274  0.8235
16983TIP3   OH251830   5.223   0.808   1.203  0.1137  0.1344 -0.0422
16983TIP3    H151831   5.129   0.801   1.189 -0.1048  0.9966  0.8015
16983TIP3    H251832   5.233   0.809   1.299  0.8248  1.4231 -0.0925
16984TIP3   OH251833   3.945   7.898   3.852 -0.2998 -0.2436 -0.0968
16984TIP3    H151834   3.877   7.965   3.856  0.9983  1.0922  0.2680
16984TIP3    H251835   4.014   7.935   3.798  0.5799 -1.1591  0.3418
16985TIP3   OH251836   2.140   8.107   4.928  0.0826  0.6942  0.3707
16985TIP3    H151837   2.123   8.188   4.977 -0.0979  1.9526 -1.6417
16985TIP3    H251838   2.210   8.131   4.866  1.6009 -1.3416  1.1703
16986TIP3   OH251839   4.536   7.082   8.686 -0.5468 -0.4222 -0.2168
16986TIP3    H151840   4.572   7.010   8.634 -0.8065 -1.2981  0.7802
16986TIP3    H251841   4.582   7.077   8.770 -1.8181 -0.5602  0.5075
16987TIP3   OH251842   7.650   3.061   9.926  0.3248 -0.4845 -0.2101
16987TIP3    H151843   7.599   2.985   9.897 -1.1844 -0.1450  1.3830
16987TIP3    H251844   7.589   3.112   9.979  2.4350 -0.3177  2.2738
16988TIP3   OH251845   5.659   4.928   8.328  0.4476  0.0565  0.2851
16988TIP3    H151846   5.751   4.905   8.319  0.7036  0.5298  1.5032
16988TIP3    H251847   5.660   5.021   8.351 -0.3403  0.0716  0.2824
16989TIP3   OH251848   4.735   6.459   9.651  0.3526  0.3528  0.5047
16989TIP3    H151849   4.809   6.483   9.595 -0.3558  1.6551  0.0842
16989TIP3    H251850   4.681   6.401   9.597  0.9753 -0.5074  0.7728
16990TIP3   OH251851   5.719   3.744   4.445 -0.4629 -0.2512 -0.9303
16990TIP3    H151852   5.655   3.679   4.473 -2.3104  0.7663 -2.6131
16990TIP3    H251853   5.695   3.766   4.355  1.5451  1.0511 -1.2306
16991TIP3   OH251854   3.887   9.080   0.591 -0.0964 -0.4087 -0.4461
16991TIP3    H151855   3.955   9.116   0.534  0.6170 -0.8555  0.1032
16991TIP3    H251856   3.860   9.000   0.546 -1.1573  0.3947 -1.2910
16992TIP3   OH251857   6.832  10.121   2.298 -0.3647  0.0264  0.3963
16992TIP3    H151858   6.851  10.214   2.308  0.0720 -0.2100  2.2077
16992TIP3    H251859   6.746  10.110   2.341 -0.7790 -0.2809 -0.4944
16993TIP3   OH251860   2.943   4.729   5.215 -0.0941 -0.1211 -0.0188
16993TIP3    H151861   2.855   4.713   5.180 -0.0875  1.0065 -0.6072
16993TIP3    H251862   2.928   4.783   5.293  0.1279  1.1176 -0.8165
16994TIP3   OH251863  10.519   4.395   5.579 -0.6818  1.1605 -0.5528
16994TIP3    H151864  10.490   4.355   5.661  1.1535 -0.3561 -0.5794
16994TIP3    H251865  10.508   4.489   5.592  0.2183  0.9987  1.6912
16995TIP3   OH251866   7.132   7.662   5.642  0.2936 -0.5120 -0.1662
16995TIP3    H151867   7.149   7.723   5.713  1.3865  1.4507 -1.9727
16995TIP3    H251868   7.208   7.603   5.642 -0.5642 -1.6834  1.3275
16996TIP3   OH251869   5.802   3.202   0.423 -0.0419  0.1999 -0.6124
16996TIP3    H151870   5.718   3.211   0.378  0.9352 -3.0498 -3.5186
16996TIP3    H251871   5.843   3.288   0.416 -2.4642  1.4336 -0.4247
16997TIP3   OH251872   2.913   7.240   4.538  0.2724 -0.1705  0.0441
16997TIP3    H151873   2.998   7.263   4.576 -0.3271 -0.7116  1.7931
16997TIP3    H251874   2.929   7.157   4.492  1.0461  0.5910 -1.1294
16998TIP3   OH251875   8.895   0.177   1.230 -0.3032  0.0374  0.1520
16998TIP3    H151876   8.831   0.175   1.301 -0.5702  1.1931 -0.0376
16998TIP3    H251877   8.866   0.248   1.173 -0.2709 -1.0648 -1.2984
16999TIP3   OH251878   6.322   3.620   2.210  0.2101  0.1419 -0.1871
16999TIP3    H151879   6.384   3.682   2.250  2.0855 -2.1748  0.7007
16999TIP3    H251880   6.310   3.653   2.121 -0.4179  2.8425  0.8016
17000TIP3   OH251881  10.103   2.440   8.957 -0.3641 -0.3012 -0.2371
17000TIP3    H151882  10.150   2.473   9.033  0.9386  2.6884 -2.1136
17000TIP3    H251883  10.172   2.414   8.896 -1.2471  0.0048 -1.4045
17001TIP3   OH251884   4.328   0.482   2.235  0.2180  0.5248  0.3568
17001TIP3    H151885   4.368   0.540   2.170 -1.3585  1.1043 -0.1539
17001TIP3    H251886   4.244   0.523   2.255 -2.2374 -2.7723 -1.9556
17002TIP3   OH251887   9.730   7.030   7.008  0.7176 -0.1961 -0.5679
17002TIP3    H151888   9.686   6.945   7.011  0.2783  0.0226 -0.6804
17002TIP3    H251889   9.804   7.017   6.948 -0.3864 -0.0326 -2.0323
17003TIP3   OH251890   1.549   7.957   1.094 -0.2506  0.1429  0.3756
17003TIP3    H151891   1.618   7.933   1.033  1.0154  1.9534  1.0166
17003TIP3    H251892   1.472   7.971   1.038  0.4644  0.2135 -0.6227
17004TIP3   OH251893   4.653   9.625   1.746 -0.1163 -0.0527 -0.8082
17004TIP3    H151894   4.641   9.552   1.806 -1.3574 -0.3331 -1.3632
17004TIP3    H251895   4.742   9.656   1.762 -0.7152  0.4894  1.8294
17005TIP3   OH251896   3.016  10.031   2.242 -0.1925  0.5058  0.2282
17005TIP3    H151897   3.072  10.102   2.274 -0.2163  0.0063  1.4356
17005TIP3    H251898   2.998   9.978   2.320 -1.3491 -0.0254 -0.3780
17006TIP3   OH251899   0.969   3.552   4.268  0.2322 -0.7577  0.0040
17006TIP3    H151900   1.001   3.626   4.217  2.1951 -0.1786  1.9211
17006TIP3    H251901   0.922   3.591   4.341 -0.9387 -1.5213 -0.3026
17007TIP3   OH251902   2.633   5.223   0.732  0.3568 -1.0189 -0.3973
17007TIP3    H151903   2.696   5.226   0.804 -0.5918 -2.0789  0.5142
17007TIP3    H251904   2.623   5.315   0.706  0.8256 -0.6236  0.7309
17008TIP3   OH251905   9.886   3.660   0.498 -0.7654  0.0097  0.4609
17008TIP3    H151906   9.902   3.603   0.573  0.9774  0.7716  0.7206
17008TIP3    H251907   9.946   3.733   0.511 -0.4215  0.1615 -1.6990
17009TIP3   OH251908   9.226   7.418   7.397 -0.1404  0.4031 -0.0354
17009TIP3    H151909   9.281   7.358   7.447  0.8652  1.5747  0.3234
17009TIP3    H251910   9.286   7.485   7.366 -1.2491  1.3155 -0.2820
17010TIP3   OH251911   4.506   8.711   6.029  0.1338  0.2977  0.9681
17010TIP3    H151912   4.554   8.639   5.988  0.0846 -0.7715  2.6547
17010TIP3    H251913   4.514   8.694   6.123 -0.2583  2.2776  1.4066
17011TIP3   OH251914   8.224   5.823   7.781 -0.3785  0.4817  0.6555
17011TIP3    H151915   8.133   5.839   7.756  0.0131 -1.4823 -2.4950
17011TIP3    H251916   8.219   5.755   7.848 -1.2249 -0.8617 -0.7196
17012TIP3   OH251917   7.303   3.188   0.952 -0.4563  0.0582  0.4584
17012TIP3    H151918   7.287   3.282   0.958 -0.7529 -0.0856  2.2832
17012TIP3    H251919   7.251   3.150   1.022 -1.4742 -1.6463 -1.1284
17013TIP3   OH251920   9.112   5.949   1.758 -0.2229 -0.3028 -0.1214
17013TIP3    H151921   9.134   5.857   1.771 -1.6183 -0.4327  1.5949
17013TIP3    H251922   9.020   5.949   1.732 -0.0461  0.5831 -0.8011
17014TIP3   OH251923   8.402   6.266   9.884  0.3005 -0.3143  0.0601
17014TIP3    H151924   8.444   6.253   9.799  3.9194 -0.7023  1.7132
17014TIP3    H251925   8.406   6.361   9.898  1.0297 -0.3839  0.3665
17015TIP3   OH251926   1.802   7.243  10.149  0.3206  0.0451  0.2793
17015TIP3    H151927   1.763   7.204  10.070  2.8234  0.3517 -1.2220
17015TIP3    H251928   1.727   7.273  10.200 -1.4185  0.1814 -2.1611
17016TIP3   OH251929   8.995   3.850   2.834 -0.4163 -0.3182  0.6044
17016TIP3    H151930   8.974   3.943   2.824 -0.1789 -0.2183  1.0049
17016TIP3    H251931   9.080   3.839   2.790  0.1844 -0.0677  1.6569
17017TIP3   OH251932   4.715   9.926  10.507  0.3793  0.3321  0.1335
17017TIP3    H151933   4.625   9.955  10.518  0.4641  0.2441  1.1128
17017TIP3    H251934   4.764   9.973  10.575  0.8504 -0.5895  0.4414
17018TIP3   OH251935   9.494  10.457   0.331 -0.0778  0.2114  0.4918
17018TIP3    H151936   9.481  10.546   0.362  0.4556  0.6714 -0.5303
17018TIP3    H251937   9.582  10.458   0.294 -1.2187  0.2025 -2.4873
17019TIP3   OH251938   5.824   5.599   0.251 -0.3631  0.1701 -0.1182
17019TIP3    H151939   5.827   5.561   0.163  0.3661  3.4137 -1.6467
17019TIP3    H251940   5.731   5.613   0.268 -0.4880 -0.1759 -0.4956
17020TIP3   OH251941   0.315   5.212   4.810 -0.0275 -0.3248  0.5193
17020TIP3    H151942   0.402   5.178   4.832 -0.1301 -0.4992  0.6639
17020TIP3    H251943   0.255   5.164   4.868 -0.1269  0.4947  1.1162
17021TIP3   OH251944   5.539  10.472   8.440 -0.0052 -0.3259 -0.4689
17021TIP3    H151945   5.485  10.499   8.365 -0.9918  1.9429  0.9192
17021TIP3    H251946   5.563  10.382   8.421 -1.6847 -0.4161 -2.6669
17022TIP3   OH251947   8.785   3.818   9.897 -0.1320 -0.0456  0.3203
17022TIP3    H151948   8.872   3.796   9.931  0.6634  0.7943 -1.0798
17022TIP3    H251949   8.727   3.811   9.973  1.0435 -1.1901  1.1640
17023TIP3   OH251950  10.081   4.942   3.335  0.6494 -0.6553  0.5659
17023TIP3    H151951  10.133   4.919   3.257  2.0578  1.1779  0.9059
17023TIP3    H251952   9.999   4.975   3.299  1.1695 -0.0953 -0.1660
17024TIP3   OH251953   7.170   2.931   5.897  0.2317  0.0740 -0.2645
17024TIP3    H151954   7.213   2.849   5.874 -1.1329 -0.7582  0.0682
17024TIP3    H251955   7.240   2.985   5.933  1.3543 -0.5474 -1.4409
17025TIP3   OH251956   1.593   6.787   2.999  0.0695 -0.4567 -0.1094
17025TIP3    H151957   1.600   6.882   2.995 -0.8406 -0.3484  0.5899
17025TIP3    H251958   1.673   6.759   3.044  1.1815 -0.1975 -1.8184
17026TIP3   OH251959   7.917   5.669   2.483 -0.2558 -0.3400  0.3785
17026TIP3    H151960   7.922   5.576   2.460 -0.0287 -0.8326  2.2218
17026TIP3    H251961   7.826   5.681   2.511 -0.1344 -0.1485  0.6902
17027TIP3   OH251962   7.153   5.994   8.938  0.0217 -0.1007  0.2745
17027TIP3    H151963   7.084   5.935   8.906 -0.3624 -0.1174  1.1262
17027TIP3    H251964   7.207   5.939   8.995 -0.0619  0.2526  0.7001
17028TIP3   OH251965   3.799   0.592   9.925 -0.8906 -0.3228  0.1138
17028TIP3    H151966   3.761   0.680   9.925 -2.6249 -1.0469 -0.5708
17028TIP3    H251967   3.852   0.590  10.005 -2.5068  0.6358  1.2657
17029TIP3   OH251968   7.373   1.136   8.666  0.2470  0.1526  0.4784
17029TIP3    H151969   7.320   1.155   8.588 -1.1786 -3.0011  0.5012
17029TIP3    H251970   7.313   1.088   8.723  2.4088 -1.1820  1.7256
17030TIP3   OH251971   9.756   5.505   1.852 -0.4987 -0.3491  0.5881
17030TIP3    H151972   9.689   5.472   1.911 -2.2054  0.8273 -0.5994
17030TIP3    H251973   9.738   5.599   1.845 -0.5163 -0.4756 -1.9171
17031TIP3   OH251974   1.763   7.473   7.786  0.1775  0.0718  0.0078
17031TIP3    H151975   1.675   7.505   7.803  0.0636 -2.0133  4.7158
17031TIP3    H251976   1.751   7.410   7.714 -2.0746  0.1440  0.2351
17032TIP3   OH251977   9.638   8.336   3.878  0.4637 -0.3716 -0.0338
17032TIP3    H151978   9.698   8.411   3.879  0.3789 -0.1851 -2.3962
17032TIP3    H251979   9.565   8.363   3.934  1.9369 -0.0949  1.8682
17033TIP3   OH251980   2.023  10.008   9.344 -0.6575  0.2484 -0.2793
17033TIP3    H151981   2.002   9.953   9.268 -1.2087  0.2322 -0.1242
17033TIP3    H251982   2.103  10.055   9.318  1.2170 -2.3180  0.4719
17034TIP3   OH251983   9.322   0.893   0.020  0.5626  0.7695  0.5658
17034TIP3    H151984   9.303   0.824  -0.044  2.2771  1.5741 -0.9248
17034TIP3    H251985   9.236   0.920   0.053 -0.3840  0.2141 -1.3074
17035TIP3   OH251986   5.986   3.459   3.494 -0.5956  0.0818 -0.0726
17035TIP3    H151987   5.979   3.517   3.418 -1.7077  0.7911  0.5427
17035TIP3    H251988   5.905   3.474   3.543  0.4266  0.2429  1.6710
17036TIP3   OH251989  10.497   8.821   7.627 -0.1574  0.2379  0.9866
17036TIP3    H151990  10.447   8.890   7.582 -1.7084  0.3608  2.7893
17036TIP3    H251991  10.471   8.741   7.583 -0.2023  0.5484  0.4357
17037TIP3   OH251992  10.087   5.007   9.513 -0.2975 -0.2397  0.2737
17037TIP3    H151993  10.165   5.060   9.531 -1.4634  1.5541  0.3231
17037TIP3    H251994  10.113   4.950   9.440  1.1033  0.1834  0.4109
17038TIP3   OH251995   9.108   0.861   6.965  0.4008 -0.1700  0.3019
17038TIP3    H151996   9.129   0.824   6.879  1.1678  0.3568  0.2544
17038TIP3    H251997   9.126   0.789   7.026  0.2962 -0.4022  0.0624
17039TIP3   OH251998   9.721   3.572   5.765  0.5532  0.2681 -0.1474
17039TIP3    H151999   9.803   3.523   5.758  0.1895 -0.4396  0.5150
17039TIP3    H252000   9.661   3.513   5.810 -1.0206 -0.0891 -2.5160
17040TIP3   OH252001   3.352   7.418   0.690 -0.4150 -0.4121  0.1078
17040TIP3    H152002   3.381   7.327   0.702  0.2640 -0.0963  0.9566
17040TIP3    H252003   3.406   7.469   0.751 -1.4361  0.4465  0.3309
17041TIP3   OH252004   5.781   9.932   7.102 -0.3034  0.7121 -0.2353
17041TIP3    H152005   5.732   9.855   7.132  1.8401 -0.8646 -0.5335
17041TIP3    H252006   5.736  10.006   7.142 -2.4441 -0.6699  0.0866
17042TIP3   OH252007   1.887   9.141   8.951  0.1016 -0.0865 -0.3601
17042TIP3    H152008   1.929   9.104   9.028  0.4108 -0.5296 -0.7331
17042TIP3    H252009   1.872   9.066   8.893 -1.4358  0.0273 -0.1460
17043TIP3   OH252010   4.833   8.651   4.789  0.3655  0.6964  0.5561
17043TIP3    H152011   4.784   8.682   4.712  1.3035  0.4841 -0.1469
17043TIP3    H252012   4.924   8.646   4.759  0.6191 -0.2406  1.4176
17044TIP3   OH252013   2.240   7.541   6.087  0.1017 -0.8393 -0.0268
17044TIP3    H152014   2.245   7.556   6.181 -0.0741 -0.0061 -0.1409
17044TIP3    H252015   2.167   7.596   6.058 -1.4277 -2.9235 -0.3072
17045TIP3   OH252016   5.903   1.604   6.153  0.0693 -0.5050 -0.3598
17045TIP3    H152017   5.872   1.580   6.066 -1.1996 -1.1722  0.2603
17045TIP3    H252018   5.925   1.697   6.146  1.0107 -0.8067 -1.6590
17046TIP3   OH252019   2.376   7.136   9.831 -0.0819 -0.0446 -0.1253
17046TIP3    H152020   2.330   7.125   9.748  0.4368 -0.6248 -0.3456
17046TIP3    H252021   2.347   7.063   9.885  1.4829 -1.1529 -0.7034
17047TIP3   OH252022   1.869   6.015   9.375 -0.4484 -0.5223  0.3669
17047TIP3    H152023   1.795   5.986   9.430 -0.5614 -1.7135 -0.3653
17047TIP3    H252024   1.947   5.985   9.422 -0.4696 -0.0876  0.6820
17048TIP3   OH252025   3.754   9.414   9.469 -0.7293 -0.5143 -0.3070
17048TIP3    H152026   3.751   9.319   9.463  1.3872 -0.6056 -0.5408
17048TIP3    H252027   3.708   9.435   9.550  0.4858 -1.8969  0.7747
17049TIP3   OH252028   8.409  10.058   9.689 -0.0084  0.0920 -0.1111
17049TIP3    H152029   8.314  10.049   9.696 -0.1380  0.1401 -1.4635
17049TIP3    H252030   8.424  10.151   9.672  0.3980  0.3222  1.3747
17050TIP3   OH252031   3.922   2.064   4.039 -0.1731  0.4441  0.4955
17050TIP3    H152032   3.964   2.053   3.953  1.0572 -0.1087  1.1447
17050TIP3    H252033   3.833   2.093   4.018 -0.2372 -0.6873 -1.0115
17051TIP3   OH252034   0.620   4.786   5.756  0.1446 -0.0329  0.1403
17051TIP3    H152035   0.631   4.881   5.765 -0.1278 -0.0886  1.1976
17051TIP3    H252036   0.534   4.777   5.714  0.7218  0.2027 -1.1461
17052TIP3   OH252037   3.357   1.768   6.504  0.3559 -0.1778 -0.0399
17052TIP3    H152038   3.445   1.733   6.488 -0.0500 -0.4479 -1.8891
17052TIP3    H252039   3.352   1.847   6.450 -0.1354  0.5220  0.9924
17053TIP3   OH252040   4.015   3.539   4.611 -0.6473 -0.0498 -0.2729
17053TIP3    H152041   4.030   3.625   4.649  2.4647  0.2464 -1.8696
17053TIP3    H252042   4.003   3.555   4.517 -1.0896 -1.2770 -0.4484
17054TIP3   OH252043   0.933   6.702   9.538  0.1983 -0.7384  0.1103
17054TIP3    H152044   0.950   6.611   9.562 -2.7250 -1.6949 -0.8905
17054TIP3    H252045   0.872   6.734   9.605  0.8311  0.3297  0.1905
17055TIP3   OH252046   2.254  10.525   7.087  0.1762 -0.0957 -0.4623
17055TIP3    H152047   2.260  10.592   7.155 -0.0077  0.0378 -0.5796
17055TIP3    H252048   2.181  10.552   7.032  0.5198 -0.0454 -0.8922
17056TIP3   OH252049   0.152   6.348   9.358  0.6929  0.4789  0.0447
17056TIP3    H152050   0.153   6.325   9.451  0.6615 -0.3172 -0.1490
17056TIP3    H252051   0.079   6.409   9.349 -0.4729 -0.8450  0.2197
17057TIP3   OH252052   7.647   3.459   7.156  0.1786 -0.2540  0.1838
17057TIP3    H152053   7.660   3.367   7.181  1.7065 -0.6268 -1.7479
17057TIP3    H252054   7.561   3.461   7.115 -0.3732 -0.5465  1.2734
17058TIP3   OH252055   6.539   8.909   2.131  0.5526  0.1020  0.2279
17058TIP3    H152056   6.495   8.991   2.152 -2.4340 -0.8942 -1.5939
17058TIP3    H252057   6.587   8.928   2.050  1.5308  0.5165  0.8790
17059TIP3   OH252058   0.136   0.428   6.618  0.2849  0.7159  0.2744
17059TIP3    H152059   0.209   0.427   6.556  1.4762  0.1122  1.6274
17059TIP3    H252060   0.116   0.521   6.631  1.2119  0.9185  0.3111
17060TIP3   OH252061   5.037   7.723   0.059 -0.6566 -0.6853 -0.7995
17060TIP3    H152062   4.973   7.793   0.062 -1.7234 -1.6593  0.4377
17060TIP3    H252063   4.986   7.644   0.042  0.2048 -1.4552  0.0313
17061TIP3   OH252064   6.644   5.325   4.211 -0.0143 -0.0896  1.2951
17061TIP3    H152065   6.607   5.248   4.254 -1.0590  0.0809  0.7253
17061TIP3    H252066   6.604   5.325   4.124  2.2944 -0.6122  0.1509
17062TIP3   OH252067   7.177   3.218   6.384 -0.0941  0.2489 -0.5341
17062TIP3    H152068   7.142   3.219   6.295  0.2026  1.7403 -0.6706
17062TIP3    H252069   7.141   3.140   6.424 -2.4856  0.9944 -1.1015
17063TIP3   OH252070   8.671   2.578   4.521  0.0810  0.6880  0.2101
17063TIP3    H152071   8.688   2.613   4.434  0.2214 -0.3945 -0.2155
17063TIP3    H252072   8.583   2.609   4.543 -0.7561 -0.5632 -1.1433
17064TIP3   OH252073   0.366   7.867   7.532 -0.3499  0.1734  0.2072
17064TIP3    H152074   0.317   7.877   7.614 -1.2114 -1.4050 -0.0732
17064TIP3    H252075   0.310   7.812   7.477 -0.7408  2.8077 -2.2642
17065TIP3   OH252076   5.825   6.550   7.241  0.1710 -0.0511 -0.2418
17065TIP3    H152077   5.795   6.475   7.189 -0.0802  1.3434 -2.2029
17065TIP3    H252078   5.745   6.591   7.273  0.1828  0.7444 -1.2004
17066TIP3   OH252079   0.291   6.630   9.878 -0.1149  0.1610  0.9979
17066TIP3    H152080   0.243   6.645   9.959 -0.3198  1.1238  0.7116
17066TIP3    H252081   0.383   6.631   9.903 -0.1948 -0.2301  1.3169
17067TIP3   OH252082   4.384   3.321   3.917 -0.0762  0.1877  0.5897
17067TIP3    H152083   4.351   3.238   3.953  0.0312 -0.6426 -1.1428
17067TIP3    H252084   4.421   3.298   3.832  0.8385  1.8708  0.4851
17068TIP3   OH252085  10.014   0.695   7.146  0.2702  0.5667  0.1807
17068TIP3    H152086  10.071   0.629   7.108  1.5368  1.2111  0.8694
17068TIP3    H252087  10.019   0.769   7.086  1.3325  1.1478  0.9461
17069TIP3   OH252088   7.201  10.717   1.896  0.0271 -0.2941  0.0605
17069TIP3    H152089   7.239  10.679   1.975 -0.3748  1.4567  1.1572
17069TIP3    H252090   7.138  10.781   1.928 -2.0279 -1.3069 -1.7065
17070TIP3   OH252091   2.297   3.669   1.477  0.0085 -0.0418  0.0095
17070TIP3    H152092   2.305   3.589   1.528 -0.7473 -1.2224 -1.6451
17070TIP3    H252093   2.233   3.648   1.409  0.2309  1.7831 -0.8212
17071TIP3   OH252094   7.004   2.421   3.251 -0.0544 -0.2726 -0.1419
17071TIP3    H152095   7.053   2.491   3.294  1.8014 -1.7684  0.2856
17071TIP3    H252096   7.049   2.408   3.168  0.3596 -1.7179  0.2852
17072TIP3   OH252097   4.514  10.138   1.827 -0.0903 -0.6104  0.1676
17072TIP3    H152098   4.561  10.071   1.876 -1.8715 -1.3220  0.9913
17072TIP3    H252099   4.457  10.179   1.892  0.3808  1.1836 -0.4982
17073TIP3   OH252100   9.745   8.643   8.443  0.4303  0.2340 -0.3151
17073TIP3    H152101   9.735   8.580   8.372  0.9896 -0.5638  0.3025
17073TIP3    H252102   9.778   8.722   8.401 -1.3622  0.5319 -1.2846
17074TIP3   OH252103   6.097  10.059   9.497 -0.4822 -0.1111  0.8446
17074TIP3    H152104   6.119  10.128   9.434  0.7333 -0.8897  0.3489
17074TIP3    H252105   6.026  10.095   9.549 -1.8026  0.4438 -1.2144
17075TIP3   OH252106   0.305   3.450   9.803 -0.2594 -0.0489 -0.2684
17075TIP3    H152107   0.250   3.454   9.724 -2.0872  0.3407  0.9569
17075TIP3    H252108   0.357   3.371   9.792 -1.5450 -0.8025 -1.2226
17076TIP3   OH252109   4.198   3.741   3.444 -0.0343  0.8021  0.1289
17076TIP3    H152110   4.180   3.664   3.497  2.5680 -0.6471 -0.9269
17076TIP3    H252111   4.216   3.706   3.356 -1.2198  2.8568 -1.0285
17077TIP3   OH252112   9.773   9.958   9.392  0.0647 -0.1226  0.1362
17077TIP3    H152113   9.756  10.051   9.409 -0.7499  0.3168 -2.6334
17077TIP3    H252114   9.711   9.935   9.323  1.1388 -2.3972 -0.1450
17078TIP3   OH252115   8.160   5.827   4.946 -0.0780  0.1609 -0.2009
17078TIP3    H152116   8.119   5.777   4.875  1.3009 -0.4890 -0.5610
17078TIP3    H252117   8.089   5.840   5.010 -1.3975  0.9093 -1.7383
17079TIP3   OH252118   7.817   1.531  10.545  0.0707  0.1023 -0.2877
17079TIP3    H152119   7.774   1.592  10.605  0.0731 -0.9467  0.8230
17079TIP3    H252120   7.835   1.453  10.598  2.8976  0.2835 -0.8251
17080TIP3   OH252121   2.702   5.513   9.862  0.1444  0.2314  0.4261
17080TIP3    H152122   2.729   5.554   9.780 -1.6510 -0.7264 -0.7291
17080TIP3    H252123   2.781   5.470   9.895  0.8764  0.5185 -0.8891
17081TIP3   OH252124   7.625   5.569   3.316 -0.2773 -0.4793  0.1826
17081TIP3    H152125   7.532   5.583   3.300 -0.2302 -0.3105  0.0486
17081TIP3    H252126   7.637   5.587   3.409  0.1932  2.7492 -0.3656
17082TIP3   OH252127   7.802   6.910   5.152  0.0970  0.2551 -0.5879
17082TIP3    H152128   7.882   6.946   5.113  1.3618 -1.1435  0.5593
17082TIP3    H252129   7.830   6.877   5.237 -2.1851  1.5859  0.7732
17083TIP3   OH252130   3.029   8.982   5.091 -0.2128 -0.5326 -0.3145
17083TIP3    H152131   3.061   9.072   5.092 -0.2185 -0.5166  1.4126
17083TIP3    H252132   2.935   8.991   5.073 -0.5013 -0.0459  1.2588
17084TIP3   OH252133   6.349   7.140   9.950  0.6340 -0.1563  1.1024
17084TIP3    H152134   6.370   7.078  10.020 -1.6668 -0.1845  1.8617
17084TIP3    H252135   6.254   7.134   9.941  0.4127  2.7004  0.6673
17085TIP3   OH252136  10.623   2.979   0.912  0.0799  0.0209  0.0756
17085TIP3    H152137  10.661   3.035   0.979  0.0849  1.0291 -0.7362
17085TIP3    H252138  10.650   2.890   0.936 -0.7840  0.2289  1.9516
17086TIP3   OH252139   5.614   5.966   2.257 -0.1777  0.7434  0.0403
17086TIP3    H152140   5.700   5.976   2.298 -0.2989 -1.5579  1.0151
17086TIP3    H252141   5.557   5.937   2.329 -1.2250  0.0392 -1.0492
17087TIP3   OH252142   7.408   4.253   0.136 -0.1730  0.1767  0.0303
17087TIP3    H152143   7.388   4.277   0.045  0.7590 -0.9355 -0.4860
17087TIP3    H252144   7.323   4.228   0.172 -0.7066  1.4940 -0.2383
17088TIP3   OH252145   0.110   8.032   7.947  0.0623 -0.0884  0.5512
17088TIP3    H152146   0.034   8.089   7.956  0.7301  0.6798  1.5556
17088TIP3    H252147   0.185   8.088   7.969  0.9438 -0.7835 -0.5718
17089TIP3   OH252148   3.121  10.210   8.622 -0.3419 -0.6719  0.1983
17089TIP3    H152149   3.075  10.262   8.688  0.0190 -0.5043  0.3229
17089TIP3    H252150   3.213  10.217   8.646 -0.3217 -1.7584  0.4890
17090TIP3   OH252151   2.345   7.077   2.855 -0.2270  0.0319 -0.1919
17090TIP3    H152152   2.252   7.062   2.875 -0.5283  0.9890 -0.8091
17090TIP3    H252153   2.381   6.989   2.846 -1.1805 -0.3612 -0.3593
17091TIP3   OH252154   7.164   7.018   1.131 -0.0782  0.7330 -0.5522
17091TIP3    H152155   7.157   7.016   1.036 -0.7365 -3.1027 -0.5952
17091TIP3    H252156   7.082   6.978   1.162  0.7263  0.5262  1.5225
17092TIP3   OH252157   9.736   0.266   0.446  0.4116  0.4558  0.1552
17092TIP3    H152158   9.811   0.310   0.406  0.4859 -0.3424 -0.6104
17092TIP3    H252159   9.733   0.299   0.535  2.0678  0.0076  0.3977
17093TIP3   OH252160   0.247   6.465   7.997 -0.3958  0.3382 -0.5904
17093TIP3    H152161   0.167   6.415   8.009 -0.0210 -0.3461 -0.8957
17093TIP3    H252162   0.219   6.556   8.004 -1.0716  0.0943  0.0499
17094TIP3   OH252163   4.561   7.023   1.381 -0.1867  0.1471  0.5507
17094TIP3    H152164   4.598   7.029   1.469  2.1525  0.1232 -0.3790
17094TIP3    H252165   4.560   7.113   1.349 -1.1703  0.1748  0.6215
17095TIP3   OH252166   5.664   7.387  10.019  0.0743  0.9577  1.1181
17095TIP3    H152167   5.725   7.392   9.945 -0.7396 -0.5624  0.2923
17095TIP3    H252168   5.614   7.468  10.015  0.1883  0.9941  0.1182
17096TIP3   OH252169   2.100   7.706   2.108  0.1528 -0.4101  0.4530
17096TIP3    H152170   2.179   7.652   2.105  0.2710 -0.4376  2.4601
17096TIP3    H252171   2.039   7.655   2.162 -0.4984  0.5276  0.6204
17097TIP3   OH252172   0.198   9.240   9.963  0.3654  0.1522  0.2162
17097TIP3    H152173   0.227   9.152   9.986 -1.7510 -0.3027  1.4481
17097TIP3    H252174   0.262   9.299  10.004  1.3603 -0.7816  0.0436
17098TIP3   OH252175   9.686   8.597   4.121  0.6141 -0.2736 -0.1206
17098TIP3    H152176   9.756   8.646   4.078 -0.8115  1.3905 -0.6289
17098TIP3    H252177   9.697   8.616   4.214 -0.1559  1.3906 -0.3406
17099TIP3   OH252178   1.641   0.645   7.173  0.1172  0.5811 -0.2749
17099TIP3    H152179   1.711   0.642   7.239  0.3944  0.6724 -0.5639
17099TIP3    H252180   1.663   0.720   7.118  0.3785 -0.0180 -1.0153
17100TIP3   OH252181   4.012   5.114   5.471 -0.1730 -0.4501 -0.2156
17100TIP3    H152182   3.981   5.182   5.411  0.7436 -0.4880 -0.7478
17100TIP3    H252183   3.933   5.086   5.518 -0.4271  1.6976  0.7711
17101TIP3   OH252184  10.704   9.720   2.785  0.0974 -0.6809 -0.7763
17101TIP3    H152185  10.789   9.737   2.744  0.8765 -1.2493  0.5433
17101TIP3    H252186  10.718   9.737   2.878 -0.9803 -1.7097 -0.3969
17102TIP3   OH252187   9.672   2.283   8.740  0.3124 -0.5938 -0.0643
17102TIP3    H152188   9.640   2.241   8.820  0.1710 -1.8054 -0.7423
17102TIP3    H252189   9.705   2.212   8.686 -2.0935 -0.1865 -2.2667
17103TIP3   OH252190   8.813   1.661   2.417  0.3294  0.0506  0.4881
17103TIP3    H152191   8.867   1.586   2.440  0.2832 -0.4238 -0.8724
17103TIP3    H252192   8.864   1.737   2.444  0.9917 -0.4331  0.6047
17104TIP3   OH252193   8.185   1.406   5.738 -0.1086  0.4677 -0.8022
17104TIP3    H152194   8.276   1.380   5.750  0.1849  0.8005 -2.1284
17104TIP3    H252195   8.188   1.502   5.736 -0.5958  0.5073 -0.2097
17105TIP3   OH252196   9.909   2.336   0.291  0.3912  0.5395  0.1463
17105TIP3    H152197   9.821   2.298   0.289  0.5865  0.0421 -1.8494
17105TIP3    H252198   9.899   2.419   0.337 -0.8636 -0.0893  1.0458
17106TIP3   OH252199   0.814  10.021   9.309 -0.9063 -0.8117  0.3293
17106TIP3    H152200   0.769  10.065   9.381 -0.6138  0.3323 -0.1713
17106TIP3    H252201   0.834  10.090   9.246  0.8504 -1.4013  0.1654
17107TIP3   OH252202   0.034   4.777   4.817 -0.4572 -0.8108 -0.2206
17107TIP3    H152203  -0.018   4.849   4.783 -1.0078 -1.4879 -0.8366
17107TIP3    H252204   0.120   4.787   4.777 -0.0452  0.3694  0.8753
17108TIP3   OH252205   3.893  10.864   6.528 -0.2839  0.0469 -0.0695
17108TIP3    H152206   3.835  10.940   6.527 -1.1409 -0.5878  0.1702
17108TIP3    H252207   3.981  10.900   6.518 -0.8288  0.9372 -2.1358
17109TIP3   OH252208   8.834   2.999   4.879 -0.0033  0.4593 -0.0337
17109TIP3    H152209   8.899   2.995   4.949 -2.0442 -1.3534  1.9242
17109TIP3    H252210   8.867   2.940   4.812  0.3172 -0.5973  1.0237
17110TIP3   OH252211   8.386   2.135   2.871  0.4740 -0.1707  0.1444
17110TIP3    H152212   8.464   2.175   2.910  0.6435  0.8532 -1.1549
17110TIP3    H252213   8.396   2.041   2.888  2.2718 -0.1305 -0.4422
17111TIP3   OH252214  10.361   3.498   2.944  0.9136  0.6143  0.1366
17111TIP3    H152215  10.448   3.507   2.983  1.0354  2.4439 -0.4718
17111TIP3    H252216  10.372   3.431   2.877  1.6028  0.1027  0.7474
17112TIP3   OH252217   1.204   5.289   7.376 -0.4080  0.0216 -0.7143
17112TIP3    H152218   1.241   5.339   7.303 -1.2514 -0.6766 -1.6436
17112TIP3    H252219   1.128   5.340   7.403 -1.0283 -0.5051 -1.3955
17113TIP3   OH252220   6.219   3.314   3.252  0.7427  0.8577  0.3434
17113TIP3    H152221   6.205   3.378   3.321  0.3283  0.9402  0.1804
17113TIP3    H252222   6.262   3.363   3.182 -0.4557  1.1935 -0.1777
17114TIP3   OH252223   6.362   3.977   1.098  0.9465 -0.1867 -0.0610
17114TIP3    H152224   6.410   3.970   1.180 -2.3219 -0.5994  1.9784
17114TIP3    H252225   6.343   4.070   1.088 -0.6998 -0.3701  1.0120
17115TIP3   OH252226   8.022   5.548   2.829  0.1995 -0.7529  0.3726
17115TIP3    H152227   8.065   5.499   2.899  0.6687  0.1338  0.7105
17115TIP3    H252228   7.929   5.547   2.852  0.6546  2.7690  3.1518
17116TIP3   OH252229   9.257   5.340   4.960  0.0908 -0.2423  0.3449
17116TIP3    H152230   9.346   5.335   4.993  0.5335  3.1887 -0.0325
17116TIP3    H252231   9.266   5.373   4.870 -1.5139 -1.1507 -0.1989
17117TIP3   OH252232   3.425   2.487   8.027  0.1192 -0.2624  0.3010
17117TIP3    H152233   3.494   2.530   8.078  1.4144 -2.1939  0.2793
17117TIP3    H252234   3.373   2.559   7.992 -0.5537  1.1869  3.8893
17118TIP3   OH252235   7.988   2.735   3.405 -0.5963 -0.4513 -0.3025
17118TIP3    H152236   7.998   2.824   3.440 -1.6759 -0.6713  0.6325
17118TIP3    H252237   8.078   2.707   3.386 -0.2468  0.8492 -0.6722
17119TIP3   OH252238   5.182   3.188   1.676  0.7292  0.5566 -0.9575
17119TIP3    H152239   5.269   3.162   1.706  0.5463  0.7945 -0.1994
17119TIP3    H252240   5.151   3.114   1.625  0.9606  0.0406 -0.3645
17120TIP3   OH252241   6.689   6.390   7.085 -0.6865 -0.7189  0.6035
17120TIP3    H152242   6.668   6.452   7.154 -0.9784  1.8406 -1.6328
17120TIP3    H252243   6.782   6.404   7.067 -0.8236 -0.6900 -0.1234
17121TIP3   OH252244   8.049   3.042   0.597  0.6938 -0.3533  0.1382
17121TIP3    H152245   8.078   3.104   0.530 -0.1103  0.8466  0.8616
17121TIP3    H252246   8.125   3.030   0.653  0.6943  0.4126  0.3041
17122TIP3   OH252247   3.237   1.727   7.068 -0.2667  0.2104 -0.0179
17122TIP3    H152248   3.208   1.682   7.147  0.7787 -1.0721 -0.3298
17122TIP3    H252249   3.156   1.761   7.029 -0.9696 -0.4743  0.7936
17123TIP3   OH252250   0.950  10.527   7.301 -0.0418 -0.4475 -0.0402
17123TIP3    H152251   0.995  10.584   7.239  2.5815 -1.6453  0.6075
17123TIP3    H252252   0.883  10.583   7.341  0.8665  1.4889 -1.0744
17124TIP3   OH252253   7.431   7.859   4.275 -0.1140 -0.1501 -0.1561
17124TIP3    H152254   7.500   7.880   4.213 -0.2654  0.7410 -0.0422
17124TIP3    H252255   7.370   7.805   4.226 -0.2233  0.5321 -0.7895
17125TIP3   OH252256   5.817   3.774   6.021  0.0172  0.0297  0.3638
17125TIP3    H152257   5.858   3.729   5.947  1.1864  1.9061 -0.1657
17125TIP3    H252258   5.803   3.704   6.086  0.9578 -1.2510 -0.7518
17126TIP3   OH252259   9.161   0.728   9.606 -0.2405 -0.2594 -0.2456
17126TIP3    H152260   9.128   0.744   9.518 -2.1114  0.8748  0.5962
17126TIP3    H252261   9.254   0.707   9.594  0.1474  2.1464 -2.3090
17127TIP3   OH252262   3.163  10.214   9.406  0.5565  0.4445  0.6835
17127TIP3    H152263   3.247  10.234   9.365 -0.0517 -0.1047 -0.9127
17127TIP3    H252264   3.147  10.122   9.383 -0.3049  0.4295  1.3022
17128TIP3   OH252265   4.604   8.683   1.023 -0.0664  0.0915 -0.2534
17128TIP3    H152266   4.637   8.623   0.956 -1.7910 -1.7657  0.4365
17128TIP3    H252267   4.595   8.767   0.978 -1.5985 -1.1870 -2.5531
17129TIP3   OH252268   5.707   3.055   7.105 -0.1543 -0.1423  0.3030
17129TIP3    H152269   5.695   2.972   7.153  1.3170 -0.1552  0.7047
17129TIP3    H252270   5.739   3.116   7.172 -1.0101  0.6911 -0.0448
17130TIP3   OH252271   0.578   2.581   0.256  0.0894 -0.3471 -0.4793
17130TIP3    H152272   0.580   2.586   0.351  0.1872  0.2845 -0.5098
17130TIP3    H252273   0.553   2.669   0.228 -1.5712 -0.9457 -0.9914
17131TIP3   OH252274   1.044   7.066   0.827  0.2569 -0.1571  0.5606
17131TIP3    H152275   1.023   7.153   0.792 -0.2117 -0.0444  1.1098
17131TIP3    H252276   1.085   7.020   0.754  0.5321  0.5348  0.2714
17132TIP3   OH252277   3.005  10.458   4.118  0.3842 -0.0148  0.1481
17132TIP3    H152278   2.942  10.481   4.050 -0.8012 -1.6989  0.6178
17132TIP3    H252279   3.071  10.405   4.073 -2.1347 -4.0303  0.7033
17133TIP3   OH252280   0.971   1.005   9.089  0.2608 -0.4758 -0.2897
17133TIP3    H152281   0.906   1.026   9.155  1.8174 -0.9018  1.4614
17133TIP3    H252282   0.965   1.076   9.025  0.2037  1.1481  1.4516
17134TIP3   OH252283   8.751   8.405  10.593 -0.0526  0.0020  0.9789
17134TIP3    H152284   8.697   8.415  10.515 -0.6043  1.2200  1.5005
17134TIP3    H252285   8.832   8.365  10.560 -0.6326 -0.3773 -0.0562
17135TIP3   OH252286   9.462   7.122   0.447  0.4712  0.0937  0.0221
17135TIP3    H152287   9.475   7.163   0.361  1.4685 -1.3624 -0.5685
17135TIP3    H252288   9.520   7.171   0.506  1.0554  0.0407 -0.4977
17136TIP3   OH252289   7.010   0.044   1.927  0.3099 -0.2689 -0.3219
17136TIP3    H152290   6.931   0.055   1.874  0.5769  1.2188 -0.4450
17136TIP3    H252291   7.080   0.082   1.873  0.7033  0.6317  0.7841
17137TIP3   OH252292  10.833   9.453   0.155  0.1867  0.6558 -0.2265
17137TIP3    H152293  10.866   9.363   0.151 -3.1156 -0.9781  3.1057
17137TIP3    H252294  10.904   9.502   0.197  0.8692 -1.2205  0.9565
17138TIP3   OH252295   5.806   7.398   4.983 -0.4362  0.1621 -0.2522
17138TIP3    H152296   5.771   7.368   4.899 -0.6669  2.5561 -1.0962
17138TIP3    H252297   5.785   7.492   4.985  1.4523  0.6097  1.5256
17139TIP3   OH252298   2.139   0.091   0.515  0.5219  0.4887 -0.2742
17139TIP3    H152299   2.082   0.138   0.455 -0.3020  0.9341  0.8321
17139TIP3    H252300   2.116  -0.001   0.502  0.2763  0.5897 -0.5608
17140TIP3   OH252301   1.448   0.536   1.341  0.0483  0.1031  0.6575
17140TIP3    H152302   1.514   0.499   1.401  0.6383  1.1650  0.6881
17140TIP3    H252303   1.473   0.628   1.332 -1.3109  0.4700  0.4773
17141TIP3   OH252304  10.873   3.353   8.664 -0.8149  0.3560 -0.3943
17141TIP3    H152305  10.895   3.444   8.644  0.3150  0.3401  0.6499
17141TIP3    H252306  10.903   3.340   8.754  1.5842 -1.8150 -1.3839
17142TIP3   OH252307   0.963   7.767   0.380 -0.3308  0.4126 -0.2171
17142TIP3    H152308   1.030   7.821   0.337 -0.3579  0.7298  0.1380
17142TIP3    H252309   0.885   7.777   0.325 -0.0242 -0.1562 -0.7732
17143TIP3   OH252310   2.134   0.648   4.476 -0.0375 -0.5278  0.2235
17143TIP3    H152311   2.042   0.638   4.502 -0.1210 -0.9058 -0.2149
17143TIP3    H252312   2.131   0.701   4.396  0.2468  0.9558  1.1556
17144TIP3   OH252313   7.391  10.327   6.953 -0.4497  0.2767 -0.1434
17144TIP3    H152314   7.438  10.407   6.931  1.8854 -0.4054  1.9794
17144TIP3    H252315   7.374  10.334   7.047  1.2586 -2.3208  0.4709
17145TIP3   OH252316   7.258   5.580   9.931  0.5543  0.4771 -0.3497
17145TIP3    H152317   7.243   5.555  10.022  0.1677  0.9306 -0.2842
17145TIP3    H252318   7.353   5.572   9.920  0.3868 -1.9722 -0.6317
17146TIP3   OH252319   9.652   4.059   9.471  0.1931 -0.0238  0.2069
17146TIP3    H152320   9.598   4.117   9.524  0.1805  0.3935 -0.2531
17146TIP3    H252321   9.684   3.993   9.532  1.5336  1.3789  1.0994
17147TIP3   OH252322  10.098   0.624   3.544  0.5800 -0.1959 -0.1280
17147TIP3    H152323  10.056   0.552   3.591  1.9578 -1.3926 -0.6673
17147TIP3    H252324  10.026   0.677   3.511 -0.4419 -0.5718  1.4017
17148TIP3   OH252325   0.154   6.512   8.957  0.0135 -0.6174  0.4608
17148TIP3    H152326   0.192   6.438   9.004 -0.9317 -1.2172  0.3059
17148TIP3    H252327   0.063   6.516   8.987 -0.3899 -0.5199 -0.7190
17149TIP3   OH252328   7.166   0.883   6.880 -0.0525  0.0451 -0.1235
17149TIP3    H152329   7.258   0.864   6.862 -0.3121 -2.2446  0.6211
17149TIP3    H252330   7.161   0.891   6.975 -0.5236  0.7848 -0.2038
17150TIP3   OH252331  10.762   3.521   9.445  0.0686 -0.3825 -0.1637
17150TIP3    H152332  10.766   3.561   9.532  2.2202 -2.3467  0.7469
17150TIP3    H252333  10.760   3.595   9.385  0.5193  1.0592  1.4987
17151TIP3   OH252334   4.362   2.208   9.426 -0.2795 -0.6205  0.3648
17151TIP3    H152335   4.341   2.254   9.344 -0.4988  0.7790  1.1817
17151TIP3    H252336   4.303   2.133   9.426 -0.8016 -0.2332 -0.4158
17152TIP3   OH252337   7.546   7.958   9.781 -0.4171  0.0051 -0.2908
17152TIP3    H152338   7.466   7.974   9.732 -0.4319  0.8433 -0.0074
17152TIP3    H252339   7.596   7.897   9.726 -1.2611 -0.5611 -0.4389
17153TIP3   OH252340  10.760   3.830   3.828 -0.0941  0.0954 -0.4055
17153TIP3    H152341  10.789   3.793   3.745 -0.4740 -0.9906 -0.0731
17153TIP3    H252342  10.687   3.887   3.805 -0.2324 -0.2416 -0.8106
17154TIP3   OH252343   7.199   5.943   2.998  0.2076  0.2334  0.1403
17154TIP3    H152344   7.277   5.889   2.982 -0.1424 -0.0972 -0.4654
17154TIP3    H252345   7.131   5.905   2.944 -0.7478 -0.2551  1.6294
17155TIP3   OH252346   6.469   0.289   0.868 -0.3269  0.1219  0.1014
17155TIP3    H152347   6.438   0.309   0.780 -2.3063 -1.9741  0.2367
17155TIP3    H252348   6.474   0.194   0.871 -0.0217  0.1528  2.1765
17156TIP3   OH252349   8.776   2.059   8.227  0.2901  0.1780 -0.1737
17156TIP3    H152350   8.778   2.051   8.323  1.0683  1.3073 -0.0745
17156TIP3    H252351   8.757   1.970   8.196 -1.8032  0.1437  1.0604
17157TIP3   OH252352   4.296   0.440   0.064 -0.2648 -0.2269 -0.1010
17157TIP3    H152353   4.245   0.498   0.122  0.2653  0.8350 -0.6620
17157TIP3    H252354   4.384   0.478   0.063 -0.3513  0.0262 -1.8938
17158TIP3   OH252355   9.982   7.907  10.247  0.0578 -0.0553 -0.2028
17158TIP3    H152356   9.979   8.000  10.222 -1.7436  0.4507  1.5771
17158TIP3    H252357  10.073   7.892  10.271  0.7994  0.6958 -2.2690
17159TIP3   OH252358   5.367   6.898   9.172  0.1022  0.3064 -0.0955
17159TIP3    H152359   5.285   6.850   9.159  0.9833 -1.1000 -0.7078
17159TIP3    H252360   5.423   6.870   9.099  2.1578 -1.0381  1.8637
17160TIP3   OH252361   6.891   5.750  10.045 -0.0887 -0.5645  0.9936
17160TIP3    H152362   6.941   5.816   9.997 -1.3662 -0.1366  0.1964
17160TIP3    H252363   6.831   5.800  10.100 -0.3400 -1.0577  1.1733
17161TIP3   OH252364   7.133   6.848   9.051 -0.2394  0.0846 -0.0526
17161TIP3    H152365   7.172   6.794   8.981 -0.2575 -0.6524  0.4887
17161TIP3    H252366   7.189   6.925   9.056 -0.5258  0.4014 -1.2163
17162TIP3   OH252367   0.357   3.137   1.662 -0.6005 -0.0568  0.0751
17162TIP3    H152368   0.274   3.184   1.672 -0.0642  0.6363  1.6973
17162TIP3    H252369   0.424   3.206   1.659  0.0540 -0.6325  0.7266
17163TIP3   OH252370   3.152   3.013   4.605  0.0765 -0.6359 -0.2295
17163TIP3    H152371   3.136   2.947   4.538 -1.1558 -0.2461 -0.3439
17163TIP3    H252372   3.222   2.977   4.659  0.2011 -1.5170 -0.9685
17164TIP3   OH252373   8.221   3.118   6.476  0.1684  0.0860 -0.6782
17164TIP3    H152374   8.160   3.186   6.445  2.6429  2.8181  0.0158
17164TIP3    H252375   8.276   3.163   6.540  2.2159 -2.5342 -0.4583
17165TIP3   OH252376   0.820   8.355   7.131 -0.0791 -0.1854  0.0287
17165TIP3    H152377   0.835   8.446   7.158 -0.0784  0.3135 -1.5450
17165TIP3    H252378   0.735   8.357   7.087 -0.6390 -1.2051  1.0217
17166TIP3   OH252379   4.391   1.111   5.911  0.0056  0.7253  0.1635
17166TIP3    H152380   4.335   1.187   5.894  2.9061  2.6982 -1.4248
17166TIP3    H252381   4.456   1.143   5.973  0.6080 -0.8177  0.3518
17167TIP3   OH252382   4.817  10.389   6.877 -0.2599  0.5389  0.0816
17167TIP3    H152383   4.751  10.399   6.808  2.0239  1.0405 -2.1852
17167TIP3    H252384   4.826  10.294   6.887 -0.6585  0.4603 -0.2590
17168TIP3   OH252385   0.521   9.359   7.613  0.7927  0.0719  0.0154
17168TIP3    H152386   0.512   9.285   7.553 -0.0716 -0.3499  0.6505
17168TIP3    H252387   0.607   9.346   7.654  1.2101  0.1395 -0.8125
17169TIP3   OH252388   8.542   5.009   1.159 -0.0323 -0.1820 -0.1222
17169TIP3    H152389   8.586   4.937   1.203 -0.1495 -0.4011 -0.3587
17169TIP3    H252390   8.543   5.081   1.223  0.2423 -0.3347  0.0465
17170TIP3   OH252391   2.682   5.814  10.728 -0.4034 -0.0532  0.3307
17170TIP3    H152392   2.680   5.853  10.815  0.1404 -1.0521  0.8123
17170TIP3    H252393   2.591   5.797  10.706 -0.5193 -0.1064  0.8506
17171TIP3   OH252394   0.810   4.071   5.861  0.1648  0.4040  0.0063
17171TIP3    H152395   0.811   3.976   5.861  0.8333  0.3668  2.2010
17171TIP3    H252396   0.730   4.094   5.815  0.9422 -1.1350 -2.2941
17172TIP3   OH252397   6.358   1.694   0.941 -0.6401 -0.0272  0.4153
17172TIP3    H152398   6.343   1.725   0.852 -0.0911 -0.9387 -0.0071
17172TIP3    H252399   6.339   1.600   0.938  1.7837 -0.6030  0.6084
17173TIP3   OH252400   4.087   6.553  10.099 -0.5732  0.8038 -0.0893
17173TIP3    H152401   4.060   6.470  10.137  1.0727 -1.2767 -3.0435
17173TIP3    H252402   4.144   6.593  10.165  0.0213 -1.2710  0.7341
17174TIP3   OH252403   1.508   1.244   4.063 -0.1042 -0.0567  0.0787
17174TIP3    H152404   1.430   1.228   4.116 -2.1843  0.6800 -2.5071
17174TIP3    H252405   1.504   1.176   3.995  0.7150  0.8519 -0.8979
17175TIP3   OH252406   3.877   6.952   0.097  0.6504 -0.8340  0.0881
17175TIP3    H152407   3.964   6.933   0.062  0.5258 -0.6110 -0.3515
17175TIP3    H252408   3.816   6.928   0.027  0.4962  1.2474 -0.5512
17176TIP3   OH252409   1.305   2.778   7.031 -0.0792 -0.1755 -0.0090
17176TIP3    H152410   1.364   2.833   7.081 -0.1064 -0.2683  0.1258
17176TIP3    H252411   1.348   2.692   7.029 -1.1348 -0.7935  1.7930
17177TIP3   OH252412   0.544   8.065   4.286 -0.3024 -0.1377 -0.0377
17177TIP3    H152413   0.638   8.072   4.303 -0.0874 -1.3855 -0.6812
17177TIP3    H252414   0.504   8.099   4.367  0.6770  0.4458  0.2315
17178TIP3   OH252415   4.914   3.761   9.891 -0.4796 -0.4120 -0.3119
17178TIP3    H152416   4.983   3.796   9.947 -0.1729 -1.6678  0.1288
17178TIP3    H252417   4.834   3.772   9.941 -0.4394  0.0000 -0.3379
17179TIP3   OH252418   3.537   5.401   0.767  0.1799  0.7682 -0.0132
17179TIP3    H152419   3.484   5.326   0.742 -1.4810  1.9094 -0.1187
17179TIP3    H252420   3.626   5.368   0.772 -0.5277 -1.2208  0.0970
17180TIP3   OH252421   5.277   5.730   1.708  0.5042  0.9272 -0.3039
17180TIP3    H152422   5.354   5.761   1.661  0.3128  0.6435 -0.8099
17180TIP3    H252423   5.289   5.635   1.714 -0.8309  0.5540 -2.3342
17181TIP3   OH252424   0.935   4.736   8.064 -0.1552  0.1355  0.2530
17181TIP3    H152425   0.928   4.641   8.071 -3.0815  0.2994  0.8219
17181TIP3    H252426   1.003   4.760   8.127 -1.8517 -1.3355  2.8321
17182TIP3   OH252427   6.828   5.030   2.667 -0.2840  0.5678 -0.4200
17182TIP3    H152428   6.743   5.016   2.711  0.6528  0.0644  1.3216
17182TIP3    H252429   6.836   5.125   2.662 -0.2587  0.6520  0.8842
17183TIP3   OH252430   3.244   2.021   0.423 -0.7083  0.1593  0.0660
17183TIP3    H152431   3.255   1.930   0.395 -1.2984  1.0516 -3.5245
17183TIP3    H252432   3.149   2.033   0.429 -0.6238  0.0624  2.6596
17184TIP3   OH252433   9.788   6.419   4.010  0.1341 -0.2036 -0.6378
17184TIP3    H152434   9.816   6.503   3.975  0.9739  0.7278  2.0403
17184TIP3    H252435   9.700   6.406   3.974  0.3387  1.3595 -1.7895
17185TIP3   OH252436   8.603   9.658   3.423 -0.7140  0.0549  0.1913
17185TIP3    H152437   8.667   9.714   3.380 -0.7195 -0.7452 -0.9093
17185TIP3    H252438   8.651   9.619   3.497 -0.6344  1.2556  0.8002
17186TIP3   OH252439   2.058   3.475   9.833  0.2059  0.0176  0.0534
17186TIP3    H152440   2.056   3.388   9.872  1.8617 -0.0356  0.1133
17186TIP3    H252441   2.146   3.508   9.854 -1.2664  2.8771  2.5409
17187TIP3   OH252442   4.515   9.162   5.052  0.1973 -0.4563  0.0174
17187TIP3    H152443   4.454   9.090   5.068  0.9861 -1.1598 -0.0467
17187TIP3    H252444   4.552   9.183   5.138 -1.4800  1.2521  0.3892
17188TIP3   OH252445   3.647   6.885   0.885  0.1168 -0.0371 -0.1078
17188TIP3    H152446   3.588   6.941   0.935  0.9734  1.3421 -0.6001
17188TIP3    H252447   3.592   6.848   0.816 -0.7131 -0.7386  0.8942
17189TIP3   OH252448   3.760   8.094   1.550  0.1243  0.2034 -0.1058
17189TIP3    H152449   3.847   8.134   1.541 -0.6440  1.5544 -2.8264
17189TIP3    H252450   3.699   8.165   1.530 -1.5721 -0.9973  0.5674
17190TIP3   OH252451   2.259   1.816   9.966 -0.2647  0.1226 -0.6285
17190TIP3    H152452   2.173   1.812   9.925 -1.1800 -0.9260  1.2488
17190TIP3    H252453   2.245   1.866  10.047  0.2530 -2.1400  0.9631
17191TIP3   OH252454   6.360   2.121   1.435  0.1825 -0.2379  0.3614
17191TIP3    H152455   6.321   2.206   1.417 -0.5123 -0.9455 -1.6992
17191TIP3    H252456   6.302   2.081   1.500 -0.5823  0.1012 -0.1045
17192TIP3   OH252457   1.694  10.746   3.693  0.2783 -0.3011  0.3178
17192TIP3    H152458   1.628  10.787   3.638 -0.0565 -0.2884  0.7199
17192TIP3    H252459   1.665  10.655   3.702 -0.2499 -0.0460  1.3336
17193TIP3   OH252460   3.499   9.580   1.923  0.4472  0.2215  0.0908
17193TIP3    H152461   3.584   9.611   1.893  0.0735  1.3858  0.1709
17193TIP3    H252462   3.454   9.552   1.844  1.4216 -1.8185  0.2009
17194TIP3   OH252463   3.109   9.521   5.217 -0.6527 -0.0913  0.0841
17194TIP3    H152464   3.094   9.543   5.125  0.8642 -0.2760 -0.2343
17194TIP3    H252465   3.021   9.504   5.252 -1.3111  0.5868 -1.1600
17195TIP3   OH252466   7.325   9.870   7.511  0.1743  0.5804 -0.9591
17195TIP3    H152467   7.299   9.857   7.419  1.1666  0.2647 -1.2051
17195TIP3    H252468   7.317   9.965   7.525  0.2854  0.6675 -1.4604
17196TIP3   OH252469   4.893   2.008   4.128 -0.1342 -0.0375 -0.3422
17196TIP3    H152470   4.800   1.987   4.117  0.0452 -0.4118 -1.3281
17196TIP3    H252471   4.930   1.995   4.040  1.2433 -1.9650  0.4586
17197TIP3   OH252472   5.930   6.636   7.562 -0.0066 -0.4362  0.3456
17197TIP3    H152473   5.838   6.658   7.578  0.0644 -1.4183  2.5612
17197TIP3    H252474   5.932   6.602   7.473 -1.6444  0.3133 -0.0232
17198TIP3   OH252475   2.804   1.939   7.655  0.2609 -0.2921  0.4286
17198TIP3    H152476   2.823   2.028   7.686  0.7146 -0.2146 -0.0586
17198TIP3    H252477   2.830   1.883   7.728  1.8403 -0.1429  0.0171
17199TIP3   OH252478   0.960  10.728   2.145  0.1593  0.4174  0.0928
17199TIP3    H152479   0.881  10.731   2.090 -0.0211  0.2758  0.3451
17199TIP3    H252480   1.021  10.788   2.101 -0.1640  0.6989  0.0188
17200TIP3   OH252481   5.542   1.454   6.804 -0.8117 -0.0629  0.4206
17200TIP3    H152482   5.540   1.382   6.741 -0.3278 -0.0695  0.4118
17200TIP3    H252483   5.489   1.523   6.763 -1.4758 -0.4975  0.5387
17201TIP3   OH252484   9.129  10.182   1.412 -0.4416 -0.3921  0.0985
17201TIP3    H152485   9.194  10.208   1.477 -1.6239 -0.5987  1.3963
17201TIP3    H252486   9.176  10.119   1.356  1.1699  1.2326 -0.4992
17202TIP3   OH252487   4.094   0.500   0.293 -0.2899 -0.3789 -0.1520
17202TIP3    H152488   4.053   0.417   0.316 -1.6893  0.6962  1.4456
17202TIP3    H252489   4.021   0.560   0.278  0.6877  0.7903 -0.3952
17203TIP3   OH252490   2.858   7.302   2.608 -0.5778  0.0368  0.7904
17203TIP3    H152491   2.934   7.252   2.640  1.0389  1.2916 -0.9283
17203TIP3    H252492   2.802   7.236   2.568 -0.0314 -0.8163  1.3835
17204TIP3   OH252493   7.303   3.387   9.474 -0.6833  0.0513 -0.1502
17204TIP3    H152494   7.289   3.293   9.473  0.8499 -0.2035 -0.4532
17204TIP3    H252495   7.339   3.407   9.388 -1.3771  0.9810 -0.2306
17205TIP3   OH252496   4.419   9.288   9.671  0.3489 -0.3582 -0.0382
17205TIP3    H152497   4.479   9.248   9.608  0.7350  2.3721 -1.5414
17205TIP3    H252498   4.346   9.320   9.619  0.2293  1.1387  0.9693
17206TIP3   OH252499   9.396   9.265   4.544 -0.5512  0.0908  0.8032
17206TIP3    H152500   9.461   9.248   4.613 -0.0396  1.1755  0.6084
17206TIP3    H252501   9.426   9.347   4.503 -2.8198  1.4429  1.6612
17207TIP3   OH252502   2.654   6.715   9.252 -0.1903  0.4939 -0.5405
17207TIP3    H152503   2.687   6.801   9.277 -2.0812  1.3310 -0.6957
17207TIP3    H252504   2.732   6.663   9.232  1.2224  1.0464  2.9137
17208TIP3   OH252505   2.590   3.052   5.653  0.2447  0.5724  0.5398
17208TIP3    H152506   2.544   3.055   5.569  1.3520  0.0130 -0.1120
17208TIP3    H252507   2.618   2.960   5.662  0.8656  0.8065  1.1070
17209TIP3   OH252508   6.682   7.948   3.732 -0.6684  0.0195 -0.0528
17209TIP3    H152509   6.685   7.891   3.809 -0.0565 -0.3482 -0.3361
17209TIP3    H252510   6.709   7.891   3.659 -0.7362  0.4930 -0.4537
17210TIP3   OH252511   6.191   3.780   9.667 -0.0114  0.5161 -0.5299
17210TIP3    H152512   6.162   3.723   9.596  4.0065 -3.0980  0.3160
17210TIP3    H252513   6.283   3.798   9.647  1.6409 -1.5173  3.9689
17211TIP3   OH252514   1.342   0.146   5.151 -0.3244  0.3895  0.3980
17211TIP3    H152515   1.431   0.156   5.116 -0.8409  2.1153 -0.4936
17211TIP3    H252516   1.301   0.231   5.137 -2.5458 -0.7351 -0.3815
17212TIP3   OH252517   5.450   5.890   6.762  0.2881 -0.6968  0.8429
17212TIP3    H152518   5.379   5.955   6.763  1.1815  0.3014  0.6680
17212TIP3    H252519   5.530   5.942   6.756  1.0625 -1.7960  1.3507
17213TIP3   OH252520   1.609   4.547   5.811 -0.1469 -0.2721  0.0650
17213TIP3    H152521   1.584   4.555   5.719  1.1595 -1.4456 -0.4319
17213TIP3    H252522   1.703   4.563   5.812 -0.0773 -0.6393  1.1493
17214TIP3   OH252523   5.485   5.940   1.029  0.2073 -0.4769 -0.3754
17214TIP3    H152524   5.557   5.902   1.078  2.5013  2.2413 -1.3735
17214TIP3    H252525   5.497   5.909   0.939  0.6265  0.5222 -0.6856
17215TIP3   OH252526   3.310   5.265   0.841  1.1656 -0.0253  0.2295
17215TIP3    H152527   3.215   5.267   0.851  1.0792 -0.8809 -0.3267
17215TIP3    H252528   3.342   5.244   0.928  0.8312 -0.0124  0.3583
17216TIP3   OH252529   4.933   9.573   8.896 -0.7827 -0.1482 -0.1941
17216TIP3    H152530   4.892   9.513   8.959 -0.6809 -0.4788 -0.4370
17216TIP3    H252531   4.867   9.641   8.881 -0.3509  0.6009  1.1754
17217TIP3   OH252532   5.482   7.989   5.593 -0.2346 -0.1409  0.0561
17217TIP3    H152533   5.526   7.904   5.594  1.2993  0.6190  0.3277
17217TIP3    H252534   5.489   8.021   5.683 -0.8902  0.2401 -0.0193
17218TIP3   OH252535   5.696   3.323  10.204 -0.2731  0.5786 -1.1481
17218TIP3    H152536   5.707   3.408  10.247  1.1614  1.4342 -3.0793
17218TIP3    H252537   5.645   3.272  10.267  0.1282  2.3413  0.7445
17219TIP3   OH252538   3.430   2.518  10.168 -0.5849 -0.5032  0.1390
17219TIP3    H152539   3.413   2.480  10.254  0.3984 -1.1077  0.0814
17219TIP3    H252540   3.447   2.610  10.185 -0.8616 -0.5256  0.5363
17220TIP3   OH252541   3.765   5.328   3.139 -0.1122  1.0425  0.2603
17220TIP3    H152542   3.721   5.243   3.146  1.6430 -0.2624 -2.8512
17220TIP3    H252543   3.848   5.315   3.185 -0.4145  1.5954  0.9926
17221TIP3   OH252544   6.700   9.443   2.213 -0.2683 -0.5188 -0.2024
17221TIP3    H152545   6.611   9.413   2.229 -0.6750  0.5031 -0.4985
17221TIP3    H252546   6.719   9.503   2.284  0.0625 -0.4586 -0.3370
17222TIP3   OH252547   9.155  10.802   0.677  0.1371  0.1659  0.4172
17222TIP3    H152548   9.242  10.791   0.716 -0.1783  1.0408  1.4049
17222TIP3    H252549   9.160  10.884   0.629 -0.4078  0.6910  1.2428
17223TIP3   OH252550   6.565   6.279   0.331  0.1229  0.2595 -0.4403
17223TIP3    H152551   6.502   6.222   0.288  0.7752  0.3554 -1.5724
17223TIP3    H252552   6.551   6.365   0.290  1.1666  0.2120 -0.9258
17224TIP3   OH252553   1.601   4.130   9.561 -0.0731 -1.2030  0.1799
17224TIP3    H152554   1.643   4.082   9.633  4.4968  0.7457 -0.7832
17224TIP3    H252555   1.592   4.219   9.595  0.2516 -0.7260 -0.9350
17225TIP3   OH252556   3.501  10.729   0.723  0.0481  0.5151  0.2567
17225TIP3    H152557   3.505  10.806   0.665 -2.8387 -1.0318 -2.2623
17225TIP3    H252558   3.591  10.695   0.722  0.2336  0.6703 -3.3750
17226TIP3   OH252559   0.322   7.749   5.912 -0.4687  0.2597 -0.1156
17226TIP3    H152560   0.314   7.655   5.901  0.9219  0.2020 -1.0127
17226TIP3    H252561   0.234   7.779   5.935 -1.2318 -1.0778 -1.1476
17227TIP3   OH252562   7.102   9.109   3.700 -0.2561  0.5636  0.1615
17227TIP3    H152563   7.135   9.189   3.741  0.4547  0.1823  0.3546
17227TIP3    H252564   7.161   9.041   3.730 -2.0513 -0.4279  1.7008
17228TIP3   OH252565   5.179   5.367   7.756 -0.1434 -0.2451 -0.0876
17228TIP3    H152566   5.142   5.385   7.669 -1.5532  0.0643  0.5392
17228TIP3    H252567   5.124   5.417   7.816  0.0948 -1.3281  1.0884
17229TIP3   OH252568   9.917   1.227   4.790  0.1320 -0.1843 -0.0357
17229TIP3    H152569   9.890   1.135   4.789  0.4139 -0.2781 -2.0371
17229TIP3    H252570   9.843   1.273   4.829 -0.8015 -1.0422 -0.7477
17230TIP3   OH252571   5.936   3.323   1.705 -0.3748 -0.5040 -0.6147
17230TIP3    H152572   5.926   3.367   1.620  1.2101  0.5556 -0.3043
17230TIP3    H252573   5.983   3.242   1.685  0.0303 -0.2382 -0.7782
17231TIP3   OH252574   1.104   5.389   5.593 -0.0757  0.1733 -0.0994
17231TIP3    H152575   1.108   5.428   5.680 -1.0598 -0.3810  0.2077
17231TIP3    H252576   1.086   5.464   5.535 -1.1204  0.3280  0.3893
17232TIP3   OH252577   6.115   7.139   7.874  0.6948 -0.1254 -0.2859
17232TIP3    H152578   6.080   7.068   7.928 -0.3331  0.9482  0.5348
17232TIP3    H252579   6.207   7.144   7.897  0.8328 -1.3407 -0.5381
17233TIP3   OH252580   2.070   4.737  10.002 -0.3359 -0.1024 -0.4880
17233TIP3    H152581   2.155   4.711   9.967  0.0100  2.1135 -1.4879
17233TIP3    H252582   2.006   4.699   9.942 -0.0562 -1.4598  0.0503
17234TIP3   OH252583   7.491   9.731   6.052  0.2769  0.1977  1.2670
17234TIP3    H152584   7.568   9.776   6.017  0.9684  0.4354  2.9855
17234TIP3    H252585   7.439   9.801   6.092 -1.1117  0.1064 -0.3034
17235TIP3   OH252586   9.044   3.421   0.048 -0.8081  0.4932  0.1220
17235TIP3    H152587   8.996   3.348   0.009 -0.4998  0.3482  0.0142
17235TIP3    H252588   9.031   3.494  -0.013 -1.5624  0.6798  0.5001
17236TIP3   OH252589   0.451   9.598   3.559 -0.0087 -0.2249  0.1465
17236TIP3    H152590   0.366   9.614   3.518  1.4212  0.0394 -3.0307
17236TIP3    H252591   0.454   9.658   3.633 -1.7042  1.4485 -1.0419
17237TIP3   OH252592   8.683   4.264   0.584  0.1122 -0.2156  0.2594
17237TIP3    H152593   8.619   4.207   0.626 -1.1665 -0.5704 -1.9990
17237TIP3    H252594   8.682   4.344   0.636 -1.1965 -0.7109  1.0471
17238TIP3   OH252595   1.163   0.713   7.606 -0.0559  0.2210 -0.1473
17238TIP3    H152596   1.256   0.695   7.617 -0.0864  0.3619  0.3619
17238TIP3    H252597   1.119   0.644   7.655 -0.2480 -0.4889 -1.2901
17239TIP3   OH252598   3.871   9.068   6.567 -0.4405 -0.1175  0.3692
17239TIP3    H152599   3.816   9.103   6.636  0.4453  0.0820  0.9973
17239TIP3    H252600   3.922   9.143   6.536 -0.1744 -0.3894  0.1312
17240TIP3   OH252601   8.230   9.211   0.554  0.3181  0.4522 -1.1628
17240TIP3    H152602   8.155   9.182   0.605  1.0737 -1.2180 -0.9397
17240TIP3    H252603   8.212   9.303   0.534 -2.0409 -0.0554 -1.5864
17241TIP3   OH252604   9.097   7.659   2.180 -0.2743 -0.2954 -0.2513
17241TIP3    H152605   9.178   7.707   2.161  0.4023 -0.4101  1.9828
17241TIP3    H252606   9.042   7.722   2.226 -1.9722  0.1028 -2.6691
17242TIP3   OH252607   9.135   4.876   1.995 -0.2022 -0.7724 -0.1111
17242TIP3    H152608   9.201   4.910   2.055 -0.5712  0.9308 -0.6250
17242TIP3    H252609   9.061   4.852   2.051 -0.0479 -0.4380  0.2410
17243TIP3   OH252610   5.843   5.953   0.992 -0.1677  0.2161 -0.4316
17243TIP3    H152611   5.787   5.965   0.915 -0.2544  0.3257 -0.3543
17243TIP3    H252612   5.832   6.035   1.041 -0.6005 -0.0970  0.0061
17244TIP3   OH252613   8.385   1.830   6.919 -0.7145 -0.3829 -0.2525
17244TIP3    H152614   8.426   1.817   6.834  0.9106  0.9372  0.2713
17244TIP3    H252615   8.380   1.742   6.957 -0.6248 -0.8650 -1.3144
17245TIP3   OH252616   9.499   4.309   2.489 -0.1749  0.6301 -0.1001
17245TIP3    H152617   9.473   4.218   2.502  0.8673  0.5093  1.3176
17245TIP3    H252618   9.459   4.356   2.563 -0.2301  1.2197 -0.4995
17246TIP3   OH252619   9.356   9.504   7.026  0.0239  0.2983 -0.0380
17246TIP3    H152620   9.384   9.579   7.078 -2.2410  1.1173  0.1094
17246TIP3    H252621   9.361   9.533   6.936  1.3585 -0.2117 -0.1583
17247TIP3   OH252622   9.417   9.448   1.522  0.5315 -0.3375 -0.7683
17247TIP3    H152623   9.338   9.467   1.573  0.7346 -1.5657  0.0533
17247TIP3    H252624   9.468   9.529   1.525 -0.8225  0.5867 -1.5934
17248TIP3   OH252625   1.492   7.365   7.229 -0.0680 -0.1442 -0.2634
17248TIP3    H152626   1.399   7.387   7.237 -0.1374 -0.6374  0.3740
17248TIP3    H252627   1.509   7.307   7.303  0.7286 -0.1315 -0.4310
17249TIP3   OH252628   4.694   1.521   3.872 -0.6780 -0.4228  0.5683
17249TIP3    H152629   4.713   1.607   3.910  0.9167 -0.7619  0.6094
17249TIP3    H252630   4.607   1.531   3.833 -0.0191  1.5956 -0.5254
17250TIP3   OH252631   9.190  10.339   3.203  0.1979 -0.5445  0.9542
17250TIP3    H152632   9.118  10.317   3.262 -0.4441  1.9335  1.1870
17250TIP3    H252633   9.147  10.360   3.120  0.5963  1.0421  1.1190
17251TIP3   OH252634   1.653   8.982   5.429 -0.2676 -0.0773  0.2457
17251TIP3    H152635   1.613   8.960   5.513  1.3628 -0.6061  0.9233
17251TIP3    H252636   1.630   8.908   5.372 -1.2812  0.2289  0.2414
17252TIP3   OH252637   4.859  10.688   0.358  0.3914 -0.2178  0.4141
17252TIP3    H152638   4.946  10.697   0.319  1.1844 -2.3818  1.5259
17252TIP3    H252639   4.814  10.769   0.335  3.1589  1.6279  0.9542
17253TIP3   OH252640   7.784   6.398   3.610  0.3363 -0.0907  0.6752
17253TIP3    H152641   7.742   6.379   3.694 -1.6228 -0.6095 -0.3644
17253TIP3    H252642   7.804   6.311   3.574  2.3247  0.1336  1.0871
17254TIP3   OH252643   2.193   0.923   5.219 -0.3443  0.1246  0.1473
17254TIP3    H152644   2.211   0.839   5.177 -0.5918  0.0561  0.1760
17254TIP3    H252645   2.228   0.988   5.158 -1.5350  0.0733 -0.6320
17255TIP3   OH252646   2.758   7.054   2.494 -0.0345 -0.2048 -0.6981
17255TIP3    H152647   2.837   7.049   2.440  0.5251  1.2332 -0.0763
17255TIP3    H252648   2.772   6.989   2.563  0.5396 -0.0630 -0.6765
17256TIP3   OH252649   0.070   9.945   8.673 -0.0768 -0.0913 -0.3503
17256TIP3    H152650   0.097  10.025   8.628 -0.1728 -0.3686 -0.9211
17256TIP3    H252651   0.149   9.890   8.674  0.1129  0.1811  0.4437
17257TIP3   OH252652   5.569   0.061  10.456 -0.0706 -0.0899 -0.0194
17257TIP3    H152653   5.586   0.055  10.362 -0.2279 -1.3620  0.0193
17257TIP3    H252654   5.596   0.150  10.480 -0.9944  0.5999 -1.4532
17258TIP3   OH252655   4.227   6.539   4.064 -0.1520 -0.0471  0.0650
17258TIP3    H152656   4.293   6.492   4.013  0.8821  0.4677  0.8942
17258TIP3    H252657   4.171   6.580   3.998  0.7009 -0.0080 -0.6581
17259TIP3   OH252658   1.612  10.240   7.151 -0.2012  0.0779  0.5399
17259TIP3    H152659   1.571  10.276   7.230 -0.2740  0.7113  0.2137
17259TIP3    H252660   1.593  10.146   7.156 -0.0162  0.0808  1.3865
17260TIP3   OH252661   9.881   0.844   9.148 -0.1321 -0.2597 -0.0157
17260TIP3    H152662   9.971   0.873   9.162  0.5875 -2.1769 -0.2863
17260TIP3    H252663   9.845   0.906   9.085  0.4031  1.5495  1.3632
17261TIP3   OH252664   4.100   4.466   4.792  0.4002  0.2364  0.3718
17261TIP3    H152665   4.056   4.551   4.798 -0.9732 -0.3326 -0.9563
17261TIP3    H252666   4.115   4.453   4.698 -0.0014 -1.2591  0.4879
17262TIP3   OH252667   3.256   3.122  10.357 -0.4032 -0.6839 -0.4320
17262TIP3    H152668   3.195   3.050  10.341 -0.4966 -0.4396 -1.2326
17262TIP3    H252669   3.209   3.180  10.418 -0.9697 -0.5177 -1.0079
17263TIP3   OH252670   8.303   4.783   3.728 -0.7788 -0.6009 -0.4132
17263TIP3    H152671   8.345   4.698   3.719  0.9561  0.0922  0.4495
17263TIP3    H252672   8.358   4.829   3.792 -2.3381  0.7485  0.0231
17264TIP3   OH252673   4.420   1.692   5.427  0.1267 -0.5484  0.2262
17264TIP3    H152674   4.396   1.725   5.513 -0.2126 -0.1290 -0.0219
17264TIP3    H252675   4.337   1.687   5.379  0.3440 -0.5375 -0.1548
17265TIP3   OH252676   6.946   3.809   4.659 -0.3130 -0.0608 -0.3782
17265TIP3    H152677   6.861   3.808   4.615  0.2605  1.4925 -1.6425
17265TIP3    H252678   6.951   3.896   4.698  0.8419  0.0030 -0.6473
17266TIP3   OH252679   6.474   6.010   5.238  0.1580 -0.2252  0.3257
17266TIP3    H152680   6.459   5.944   5.170 -0.8526 -1.2026  1.4370
17266TIP3    H252681   6.562   5.990   5.272  1.0054  0.7653 -1.1647
17267TIP3   OH252682   1.070   9.987   5.523  0.0712  0.2187  0.5466
17267TIP3    H152683   1.064   9.998   5.618 -2.1774 -1.3072  0.6806
17267TIP3    H252684   0.982  10.010   5.491  0.6775  0.3593 -1.1160
17268TIP3   OH252685   4.915   8.157   6.595  0.0933  0.2999  0.0970
17268TIP3    H152686   5.003   8.119   6.598  0.7362  1.5597 -1.3218
17268TIP3    H252687   4.929   8.251   6.608 -1.2360  0.3312  1.5265
17269TIP3   OH252688   1.204   3.466  10.461  0.0588 -0.2666 -0.1568
17269TIP3    H152689   1.298   3.451  10.473  0.0697  0.6735  1.2927
17269TIP3    H252690   1.168   3.462  10.550 -0.7984  2.1176 -0.3088
17270TIP3   OH252691   6.714   1.412   4.785  0.1179  0.3491  0.4979
17270TIP3    H152692   6.685   1.323   4.805 -1.4126  0.7744  0.3433
17270TIP3    H252693   6.770   1.436   4.858 -0.5540 -0.2663  1.2405
17271TIP3   OH252694   9.264   3.900   7.283  0.2274 -0.4124 -0.0613
17271TIP3    H152695   9.356   3.881   7.263 -0.1903 -3.2201  0.2643
17271TIP3    H252696   9.215   3.832   7.237 -1.6126  0.2933  0.7517
17272TIP3   OH252697   4.966   5.404   2.635  0.1073 -0.2345 -0.6520
17272TIP3    H152698   4.970   5.441   2.723 -2.2340 -1.8266  0.2370
17272TIP3    H252699   5.038   5.446   2.588  0.4047  1.9419  1.5140
17273TIP3   OH252700   9.116   5.920   2.163  0.0675 -0.1843 -0.0256
17273TIP3    H152701   9.152   5.862   2.096  1.9629  0.6243  0.2116
17273TIP3    H252702   9.192   5.949   2.213 -1.2913 -1.0554  2.7847
17274TIP3   OH252703   4.895   1.612   0.098 -0.9981 -0.2135 -0.0548
17274TIP3    H152704   4.924   1.612   0.007  1.2006 -1.6853  0.5813
17274TIP3    H252705   4.838   1.536   0.105 -0.7802 -0.3807 -0.0922
17275TIP3   OH252706   1.845   4.786   4.794 -0.1860  0.2847 -0.1059
17275TIP3    H152707   1.776   4.736   4.837  0.6497  0.8794  2.1318
17275TIP3    H252708   1.813   4.877   4.796  0.6364  0.5882  1.0938
17276TIP3   OH252709   7.996   2.430   1.476 -0.7816 -0.5852 -0.0642
17276TIP3    H152710   7.907   2.458   1.452 -0.8320  1.4429  2.0853
17276TIP3    H252711   8.042   2.512   1.496  1.2131 -1.6865  0.0915
17277TIP3   OH252712   7.840   2.106   8.975 -0.1113 -0.0905 -0.5391
17277TIP3    H152713   7.835   2.011   8.970 -0.1878 -0.1681  0.6486
17277TIP3    H252714   7.917   2.129   8.923 -0.2417 -0.7686 -1.0518
17278TIP3   OH252715   5.027   2.695   4.721  0.3107 -0.2517  0.3461
17278TIP3    H152716   5.097   2.733   4.668 -1.4389  0.4261 -1.6331
17278TIP3    H252717   5.055   2.709   4.812  1.4321  2.5454 -0.3360
17279TIP3   OH252718   6.723   1.447   2.359  0.3049  0.3625 -0.2441
17279TIP3    H152719   6.754   1.526   2.404 -0.0134  0.3297  0.0347
17279TIP3    H252720   6.746   1.376   2.418  3.0614 -0.0765 -1.6691
17280TIP3   OH252721   7.477   3.209   4.856  0.0549  0.0433  0.2629
17280TIP3    H152722   7.452   3.235   4.945  1.8413  3.0765  0.0181
17280TIP3    H252723   7.403   3.234   4.801 -0.1065  0.3392  0.6139
17281TIP3   OH252724   4.115   8.862   5.340  0.0415 -0.2265  0.2132
17281TIP3    H152725   4.143   8.798   5.275  0.5579  0.3595 -0.1536
17281TIP3    H252726   4.096   8.941   5.290 -2.3176 -0.5686  0.4399
17282TIP3   OH252727  10.324   3.978   2.687 -0.1999  0.6233 -0.1661
17282TIP3    H152728  10.249   4.026   2.653  0.0748  0.1388 -1.5119
17282TIP3    H252729  10.289   3.891   2.708 -0.5195  1.1264  1.4938
17283TIP3   OH252730  10.404   0.817   8.329  0.0461 -0.4413 -0.6093
17283TIP3    H152731  10.471   0.881   8.306 -0.9437  1.0064  0.3698
17283TIP3    H252732  10.365   0.791   8.245  0.4865  0.2024 -1.0193
17284TIP3   OH252733   0.405   2.163   5.553 -0.1958  0.0745 -0.8201
17284TIP3    H152734   0.318   2.203   5.552  0.1661  0.9169 -1.9184
17284TIP3    H252735   0.389   2.069   5.560 -1.2445  0.1493 -1.8559
17285TIP3   OH252736   8.435   6.024   8.838  0.3408  0.2127  0.0726
17285TIP3    H152737   8.393   5.968   8.773  0.5840  0.2988 -0.1588
17285TIP3    H252738   8.450   5.966   8.913 -0.8758  0.3548  0.4547
17286TIP3   OH252739   1.342   6.570   2.681 -0.0779 -0.1048  0.3145
17286TIP3    H152740   1.426   6.535   2.711  0.6474  0.9057 -0.5213
17286TIP3    H252741   1.350   6.575   2.586 -0.8478  0.6106  0.2809
17287TIP3   OH252742   1.462   2.889   0.986  0.1602  0.7019  0.3219
17287TIP3    H152743   1.438   2.975   0.950 -2.2894  0.1824  0.5332
17287TIP3    H252744   1.510   2.846   0.915  0.9173  2.0081  0.0061
17288TIP3   OH252745   3.468   7.532   9.512  0.5762  0.1169 -0.6517
17288TIP3    H152746   3.457   7.488   9.428 -0.6928 -0.3938 -0.2509
17288TIP3    H252747   3.379   7.553   9.540  0.8380 -0.9486  1.1927
17289TIP3   OH252748   3.785   3.221   1.283  0.6117  0.1053 -0.1131
17289TIP3    H152749   3.846   3.186   1.218 -0.1613 -0.6747 -0.4382
17289TIP3    H252750   3.818   3.188   1.366  0.3064 -0.8197 -0.3458
17290TIP3   OH252751   6.143  10.263   6.243  0.1489 -0.0853 -0.5529
17290TIP3    H152752   6.156  10.255   6.338 -0.6710 -1.5197 -0.5272
17290TIP3    H252753   6.089  10.341   6.232  2.9882  2.0662 -0.1463
17291TIP3   OH252754   2.136   4.369   8.345  0.9200  0.1314  0.4424
17291TIP3    H152755   2.222   4.401   8.318  1.2667  0.2031  1.5585
17291TIP3    H252756   2.088   4.448   8.371  1.5814 -0.1354  2.6665
17292TIP3   OH252757   4.445   8.698   7.918 -0.3475  0.3461 -0.4082
17292TIP3    H152758   4.354   8.685   7.943 -1.1106  1.0886 -2.6254
17292TIP3    H252759   4.466   8.787   7.946 -0.8482  0.7738 -1.3546
17293TIP3   OH252760   2.883   9.319   9.795  0.3841 -0.6918 -0.0651
17293TIP3    H152761   2.839   9.238   9.769  0.9200 -0.6562 -1.1552
17293TIP3    H252762   2.878   9.320   9.890 -1.0719 -1.1906 -0.1042
17294TIP3   OH252763   3.945   3.594   7.085 -0.3037 -0.5179  0.1385
17294TIP3    H152764   3.880   3.655   7.119 -1.1727  0.7393 -3.3806
17294TIP3    H252765   4.026   3.617   7.131 -0.8834  2.5466 -0.1802
17295TIP3   OH252766   6.479  10.771  10.036  0.2010 -0.0744  0.2878
17295TIP3    H152767   6.525  10.754  10.118  0.2042  1.7417  0.7192
17295TIP3    H252768   6.414  10.701  10.029  0.4949 -0.5022  1.6201
17296TIP3   OH252769   8.817   4.886  10.844  0.0985  0.7575 -0.2577
17296TIP3    H152770   8.905   4.856  10.821  0.2349  1.6190 -0.8980
17296TIP3    H252771   8.782   4.922  10.763 -1.5360 -1.1418 -0.4956
17297TIP3   OH252772   9.534   4.416   3.419  0.3604  0.0193 -0.2438
17297TIP3    H152773   9.490   4.345   3.373  1.9526  0.3069 -2.3823
17297TIP3    H252774   9.479   4.493   3.404  0.3647 -0.0956 -0.8753
17298TIP3   OH252775   0.593   8.146   5.689  0.0875  0.2388  0.0566
17298TIP3    H152776   0.570   8.086   5.760 -0.2247 -0.2913 -0.4739
17298TIP3    H252777   0.550   8.108   5.612 -0.0729  1.1200 -0.3026
17299TIP3   OH252778   4.235   8.306   8.563  0.4742 -0.0501  0.4524
17299TIP3    H152779   4.307   8.347   8.611  1.3434 -0.0273 -0.8317
17299TIP3    H252780   4.267   8.218   8.543 -0.4994 -0.6094  1.2368
17300TIP3   OH252781   3.682   9.835   2.116  0.4371 -0.5448  0.2624
17300TIP3    H152782   3.756   9.895   2.128 -0.4729  0.8115 -0.6817
17300TIP3    H252783   3.692   9.802   2.027 -0.3427  0.0307 -0.0506
17301TIP3   OH252784   9.933   3.023  10.843  0.1309  0.6211  0.1402
17301TIP3    H152785   9.844   3.059  10.854 -1.0959 -1.5081 -1.9186
17301TIP3    H252786   9.932   2.941  10.892  1.3537  1.0506  0.9361
17302TIP3   OH252787   8.860   5.785   7.962  0.1339 -0.3022  0.5093
17302TIP3    H152788   8.852   5.859   7.902 -0.8368 -1.5196 -0.9334
17302TIP3    H252789   8.884   5.825   8.046  0.2822  1.5688 -0.3719
17303TIP3   OH252790   7.793   0.328   6.433 -0.3507 -0.2984  0.1537
17303TIP3    H152791   7.789   0.399   6.497  0.3583 -2.3646  2.6652
17303TIP3    H252792   7.706   0.288   6.436 -1.0376  0.8796 -1.9018
17304TIP3   OH252793   5.327   9.324   2.894 -0.3554  0.3180 -0.6001
17304TIP3    H152794   5.307   9.412   2.861 -1.4744  0.1140 -0.5073
17304TIP3    H252795   5.241   9.282   2.903  0.1944 -1.0039 -1.2449
17305TIP3   OH252796   0.244   1.069   3.516  0.0902 -0.1221 -0.7144
17305TIP3    H152797   0.169   1.129   3.507 -1.0515 -1.2148  0.8780
17305TIP3    H252798   0.228   1.025   3.599  1.9004 -1.2728 -0.9436
17306TIP3   OH252799   8.085   9.685   5.806 -0.0335  0.2161  0.1626
17306TIP3    H152800   8.099   9.723   5.719 -0.7790  0.2540  0.0534
17306TIP3    H252801   8.105   9.592   5.795 -2.0822 -0.1839 -0.5733
17307TIP3   OH252802   6.493   2.560   8.736 -0.0463  0.2477  0.2556
17307TIP3    H152803   6.529   2.639   8.778 -0.9497 -0.5552  2.7282
17307TIP3    H252804   6.518   2.489   8.795 -0.9054 -1.0615 -0.9129
17308TIP3   OH252805  10.614   7.731   9.785  0.2944  0.3847  0.4579
17308TIP3    H152806  10.655   7.645   9.800  1.3524  1.0431  1.5056
17308TIP3    H252807  10.553   7.741   9.859  1.2433  1.1325  1.1722
17309TIP3   OH252808   7.056   6.483   9.170  0.6217 -0.0117  0.3213
17309TIP3    H152809   7.048   6.440   9.085  2.2806  1.1041 -0.4544
17309TIP3    H252810   6.982   6.450   9.221  0.1567 -1.4661 -1.2125
17310TIP3   OH252811   4.251   3.980   3.531  0.4101 -0.8399 -0.0183
17310TIP3    H152812   4.216   3.905   3.482 -1.2317 -0.8569  1.0934
17310TIP3    H252813   4.274   3.944   3.617 -1.4973  0.0933  0.9391
17311TIP3   OH252814   0.256   6.027   0.070 -0.6623  0.3816  0.4331
17311TIP3    H152815   0.195   5.954   0.060  0.0627 -0.1660 -0.0311
17311TIP3    H252816   0.335   5.988   0.107 -0.2339  0.9156  0.0885
17312TIP3   OH252817   1.406   8.707   3.660 -0.6507  0.7702  1.0046
17312TIP3    H152818   1.343   8.702   3.732 -0.5818 -0.2893  1.0145
17312TIP3    H252819   1.391   8.627   3.610  1.9215 -0.4963  2.0650
17313TIP3   OH252820   8.890   8.666   8.574  0.4170  0.1631 -0.2298
17313TIP3    H152821   8.927   8.626   8.652  0.2372 -0.7503 -0.6069
17313TIP3    H252822   8.887   8.760   8.594 -2.6171 -0.3015  2.1177
17314TIP3   OH252823  10.459   4.258   5.339 -0.1336  0.2457  0.2586
17314TIP3    H152824  10.481   4.321   5.408 -0.8207 -0.6008  1.2724
17314TIP3    H252825  10.384   4.210   5.373 -0.5183 -0.1626 -1.1135
17315TIP3   OH252826   0.714   2.025   0.163  0.3581 -0.1607 -0.1774
17315TIP3    H152827   0.725   2.047   0.070  2.2362  0.7233  0.2097
17315TIP3    H252828   0.719   2.109   0.208  2.4640 -0.8273  0.9442
17316TIP3   OH252829  10.740   5.698   2.617 -0.2140 -0.1611 -0.0279
17316TIP3    H152830  10.782   5.617   2.647 -1.9009 -1.2470 -0.4563
17316TIP3    H252831  10.711   5.679   2.528  0.7578  1.4956 -0.7491
17317TIP3   OH252832   8.780  10.547   8.290 -0.1287  0.1916  0.2614
17317TIP3    H152833   8.695  10.574   8.326  0.5546 -0.0814  2.2101
17317TIP3    H252834   8.843  10.606   8.331  0.7411 -0.3067 -0.3291
17318TIP3   OH252835   1.170   3.724   8.987 -0.4569  0.0271 -0.3368
17318TIP3    H152836   1.107   3.678   9.042 -1.8515  1.0696 -0.9796
17318TIP3    H252837   1.233   3.763   9.048  0.1996 -1.8807  0.2602
17319TIP3   OH252838   5.747   4.708   4.148 -0.1761  0.0557 -0.3839
17319TIP3    H152839   5.809   4.676   4.082 -0.6197 -1.9652  0.1007
17319TIP3    H252840   5.757   4.803   4.146  1.6445 -0.1040 -1.5632
17320TIP3   OH252841   5.501   9.147   8.010  0.5906  0.6435 -0.4578
17320TIP3    H152842   5.510   9.129   8.103 -0.9692  0.6787 -0.2755
17320TIP3    H252843   5.496   9.060   7.969  1.2737  0.6286 -0.5119
17321TIP3   OH252844   9.784  10.463   5.303 -0.7908  0.5858  0.2590
17321TIP3    H152845   9.841  10.438   5.230 -0.4394 -0.3135  0.8152
17321TIP3    H252846   9.705  10.498   5.262  0.0328  1.5602 -0.5274
17322TIP3   OH252847   0.427   5.704   4.201 -0.1352  0.2500 -0.7626
17322TIP3    H152848   0.390   5.689   4.114  0.4462 -1.3984 -0.7781
17322TIP3    H252849   0.352   5.700   4.260 -0.1841 -2.0974 -0.8834
17323TIP3   OH252850   6.703   4.958   3.909 -0.0775 -0.1584  0.7271
17323TIP3    H152851   6.623   4.905   3.911 -1.6677  2.1480  0.9446
17323TIP3    H252852   6.707   4.991   3.819  0.2517  0.3134  0.9173
17324TIP3   OH252853   9.717   3.463   9.270  0.1251  0.4991  0.3442
17324TIP3    H152854   9.676   3.401   9.210  2.6111 -0.4386 -0.5098
17324TIP3    H252855   9.712   3.547   9.224  0.8351  0.0397 -0.5854
17325TIP3   OH252856  10.371   5.110   9.546 -0.3130 -0.4067  0.2646
17325TIP3    H152857  10.342   5.165   9.472 -0.5684  0.2957  0.8724
17325TIP3    H252858  10.437   5.052   9.508 -1.2994 -0.8861 -0.7776
17326TIP3   OH252859   3.773   8.739   5.377  0.6366  0.3459  0.0341
17326TIP3    H152860   3.847   8.750   5.316 -0.1910 -0.2180 -1.1005
17326TIP3    H252861   3.703   8.703   5.323 -0.8238  1.8097  0.8612
17327TIP3   OH252862   3.020   3.634   4.722 -0.1389 -0.2371 -0.1092
17327TIP3    H152863   2.991   3.660   4.810 -0.3960  0.7634 -0.4798
17327TIP3    H252864   3.101   3.683   4.708 -0.8108  0.6632 -0.9556
17328TIP3   OH252865   9.172   2.565   2.488  0.1106  0.1548 -0.6642
17328TIP3    H152866   9.141   2.589   2.401  0.5021  0.6750 -0.6647
17328TIP3    H252867   9.233   2.635   2.512 -0.0270  0.0394  0.0468
17329TIP3   OH252868   7.544   2.697   8.336  0.1456 -0.0998 -0.6017
17329TIP3    H152869   7.598   2.634   8.288 -1.1320 -0.0322 -2.2201
17329TIP3    H252870   7.532   2.770   8.275 -0.2628  0.6927  0.4032
17330TIP3   OH252871   4.160   8.911   2.326 -0.2482 -0.1185 -0.7423
17330TIP3    H152872   4.132   8.879   2.411  0.2238 -1.1449 -0.9602
17330TIP3    H252873   4.255   8.916   2.332 -0.3434  2.2494 -0.3891
17331TIP3   OH252874   7.891   2.193   9.825 -0.3329  0.0718  0.4783
17331TIP3    H152875   7.832   2.144   9.768 -2.1544  2.2133  0.3642
17331TIP3    H252876   7.954   2.234   9.766 -1.0359  0.7374  0.1713
17332TIP3   OH252877   8.615  10.520   5.149 -0.4577  0.4845 -0.4324
17332TIP3    H152878   8.627  10.610   5.120 -1.2866  0.9316  0.5747
17332TIP3    H252879   8.575  10.475   5.074 -0.2776  1.0082 -0.8444
17333TIP3   OH252880   7.433   0.711   2.061  0.2945  0.2151  0.3569
17333TIP3    H152881   7.399   0.729   2.149 -1.1260 -0.1877 -0.0851
17333TIP3    H252882   7.508   0.654   2.076 -0.6863 -0.8880  1.2637
17334TIP3   OH252883  10.519   9.690   0.031 -0.3497 -0.0096  0.3519
17334TIP3    H152884  10.546   9.642  -0.047  1.2233  1.7525 -0.2753
17334TIP3    H252885  10.444   9.641   0.065 -0.6048 -1.2607 -1.8173
17335TIP3   OH252886   1.508   2.898   7.237  0.0851 -0.8223 -0.1284
17335TIP3    H152887   1.569   2.959   7.279  0.4094 -0.3010 -1.3263
17335TIP3    H252888   1.539   2.811   7.263 -0.5300 -0.5214  1.8099
17336TIP3   OH252889   5.336   8.764   7.471 -0.6522 -0.0567  0.4761
17336TIP3    H152890   5.428   8.743   7.450 -1.3216 -2.1569 -0.6305
17336TIP3    H252891   5.318   8.717   7.552 -0.8698  0.0586  0.4949
17337TIP3   OH252892   6.142   6.994   5.409  0.0896  0.0038 -0.0396
17337TIP3    H152893   6.090   6.927   5.365 -1.9452  1.1017  0.5567
17337TIP3    H252894   6.101   7.077   5.383  0.7675  0.8457  1.4592
17338TIP3   OH252895   4.772   9.820   8.897  0.9370  0.3562  0.1882
17338TIP3    H152896   4.829   9.889   8.864 -0.6874  1.4907 -0.3957
17338TIP3    H252897   4.695   9.822   8.839  0.8163 -1.9444  0.1647
17339TIP3   OH252898  10.027   7.327   3.203 -0.2202  0.3222  0.7142
17339TIP3    H152899   9.981   7.362   3.126  0.2625  1.1133  0.7644
17339TIP3    H252900  10.029   7.400   3.265 -1.2410 -0.5274  1.7873
17340TIP3   OH252901   4.364   2.698   1.446 -0.3417  0.1490  0.1467
17340TIP3    H152902   4.318   2.647   1.379 -0.1996  1.0043 -0.6238
17340TIP3    H252903   4.391   2.634   1.511 -0.2968 -0.7408 -0.7275
17341TIP3   OH252904   8.700   9.988   4.465 -0.2579  0.4810  0.3871
17341TIP3    H152905   8.627   9.931   4.490 -0.2684 -0.3471 -1.4387
17341TIP3    H252906   8.758   9.987   4.542 -1.4127 -0.0490  1.2909
17342TIP3   OH252907   5.655   8.935   6.636 -0.1022 -0.1884 -0.2723
17342TIP3    H152908   5.660   8.955   6.543 -0.4391 -1.0525 -0.4909
17342TIP3    H252909   5.598   9.002   6.673 -1.8996 -1.1844 -1.1208
17343TIP3   OH252910   6.053   0.395   7.257 -0.1857 -0.1116 -0.1342
17343TIP3    H152911   6.111   0.356   7.192 -0.4024 -1.2525  0.3420
17343TIP3    H252912   6.086   0.484   7.268  2.5175 -1.2056  1.3162
17344TIP3   OH252913   8.193   5.434  10.662  0.4948  0.2660 -0.3398
17344TIP3    H152914   8.277   5.422  10.618  1.7599 -0.3662  2.0735
17344TIP3    H252915   8.188   5.528  10.681  1.5334  0.0537  1.0772
17345TIP3   OH252916  10.378   4.557   0.541 -0.0548  0.6837 -0.7438
17345TIP3    H152917  10.327   4.631   0.508 -0.5378  0.8371  0.3209
17345TIP3    H252918  10.370   4.490   0.473  0.5504  1.6631 -1.8118
17346TIP3   OH252919   8.101   2.078   3.287 -0.0372 -0.6748  0.2903
17346TIP3    H152920   8.045   2.155   3.276  1.1864  0.1019 -0.7786
17346TIP3    H252921   8.098   2.034   3.202  1.7252 -0.0640 -0.1216
17347TIP3   OH252922   1.710   2.415   1.815  0.4625  0.8938  0.7582
17347TIP3    H152923   1.776   2.356   1.852 -0.2691 -0.3658  0.1259
17347TIP3    H252924   1.631   2.398   1.867  0.3424  1.5854  0.8059
17348TIP3   OH252925   4.350   7.675  10.462  0.2936 -0.2313 -0.1028
17348TIP3    H152926   4.413   7.728  10.413 -1.2601 -1.0062 -3.2153
17348TIP3    H252927   4.375   7.584  10.444 -0.2044 -0.5563  0.7554
17349TIP3   OH252928   6.030   2.015   2.277  0.4534 -0.0183 -0.3032
17349TIP3    H152929   6.094   1.994   2.209  0.4063 -0.3395 -0.2532
17349TIP3    H252930   5.984   1.932   2.292  0.5086  0.0364  0.1640
17350TIP3   OH252931   4.796   0.806   5.162  0.4447  0.7095 -0.4373
17350TIP3    H152932   4.877   0.834   5.204 -0.8890 -1.8482  4.6096
17350TIP3    H252933   4.726   0.843   5.217 -1.5347 -2.8356 -0.2960
17351TIP3   OH252934   1.207   4.635   0.092 -0.4655 -0.2888  0.1430
17351TIP3    H152935   1.232   4.669   0.006  1.1984  2.7114  1.6446
17351TIP3    H252936   1.242   4.546   0.093  0.6653  0.0588 -1.7820
17352TIP3   OH252937   4.986   5.280   9.621 -0.4898  0.1043 -0.0566
17352TIP3    H152938   4.935   5.361   9.623 -0.9679  0.0589 -3.5186
17352TIP3    H252939   4.922   5.212   9.599  0.3391 -0.7615  0.1510
17353TIP3   OH252940   2.180   2.097   8.090 -0.0944  0.2715  0.0496
17353TIP3    H152941   2.218   2.018   8.129 -1.4940  0.7980  2.7109
17353TIP3    H252942   2.221   2.169   8.137 -1.8261  0.9444  0.6060
17354TIP3   OH252943  10.423   3.789   9.072 -0.3742 -0.4194  0.1400
17354TIP3    H152944  10.390   3.710   9.028  0.9234 -0.9566  0.0724
17354TIP3    H252945  10.405   3.774   9.165 -0.4607 -0.6402  0.0886
17355TIP3   OH252946   1.454   6.651   4.582  0.2115 -0.0848 -0.7756
17355TIP3    H152947   1.394   6.692   4.645  2.9308  2.3195  0.4613
17355TIP3    H252948   1.396   6.602   4.523 -3.3509  4.3985 -1.5747
17356TIP3   OH252949   6.975   0.476   6.723  0.0956  0.9002 -0.1819
17356TIP3    H152950   6.976   0.519   6.638 -0.4438 -1.0835 -1.2594
17356TIP3    H252951   7.067   0.458   6.742  0.2649  1.8754 -0.0494
17357TIP3   OH252952   1.848   2.372   5.502  0.1772  0.3974 -0.5029
17357TIP3    H152953   1.923   2.326   5.540 -0.3049  1.1960  1.5169
17357TIP3    H252954   1.887   2.444   5.452  0.8541  2.3644  2.5561
17358TIP3   OH252955   1.272   2.637   8.160 -0.2306  0.0551  0.4631
17358TIP3    H152956   1.177   2.648   8.158 -0.5157 -2.0919  0.1127
17358TIP3    H252957   1.290   2.603   8.248  0.4314  1.8649  1.0702
17359TIP3   OH252958   7.953   8.811   7.816  0.0418  0.3166 -0.1948
17359TIP3    H152959   7.987   8.768   7.895 -0.7709 -1.0798 -0.5564
17359TIP3    H252960   7.876   8.858   7.846 -0.2904 -0.2464 -0.1392
17360TIP3   OH252961   6.464   3.533   9.086 -0.2026 -0.2529 -0.2913
17360TIP3    H152962   6.483   3.506   8.996 -0.6930 -1.8215  0.0402
17360TIP3    H252963   6.369   3.527   9.093 -0.2312  0.5595  0.1456
17361TIP3   OH252964   1.348   7.841   9.524 -0.5729  0.3073  0.0984
17361TIP3    H152965   1.435   7.870   9.496 -0.4120 -0.8801 -0.6667
17361TIP3    H252966   1.294   7.848   9.446 -0.8791 -0.0846  0.2730
17362TIP3   OH252967   2.851   9.636   9.902 -0.1829  0.2369  0.0493
17362TIP3    H152968   2.805   9.705   9.950  0.9279  0.4701  0.8222
17362TIP3    H252969   2.802   9.556   9.922 -0.7439  0.6016  0.1615
17363TIP3   OH252970   6.229   9.737   2.018  0.1934 -0.1957 -0.3835
17363TIP3    H152971   6.223   9.642   2.008  0.5220 -0.1780 -0.7574
17363TIP3    H252972   6.303   9.763   1.963  0.3663  0.2258  0.0402
17364TIP3   OH252973   4.079   7.675   5.232 -0.4608  0.3435  0.7294
17364TIP3    H152974   4.065   7.677   5.327  1.7516 -1.2288  1.1623
17364TIP3    H252975   4.152   7.615   5.220 -2.6289 -2.0217 -2.2386
17365TIP3   OH252976   5.839   6.359   1.569  0.8496  0.4137 -0.0553
17365TIP3    H152977   5.809   6.417   1.639 -0.4280  1.1848 -1.1921
17365TIP3    H252978   5.925   6.393   1.545  1.5003 -0.1126  1.3666
17366TIP3   OH252979  10.616   2.867   3.232 -0.2322 -0.3746  0.0588
17366TIP3    H152980  10.600   2.777   3.257 -2.2809  0.1901  1.0054
17366TIP3    H252981  10.705   2.886   3.263  0.2217 -2.0225 -0.1424
17367TIP3   OH252982   2.683   3.888   2.569 -0.1759 -0.3761 -0.4149
17367TIP3    H152983   2.661   3.854   2.656 -3.6903 -0.7077 -1.2794
17367TIP3    H252984   2.691   3.982   2.582 -0.9676 -0.3842  0.2245
17368TIP3   OH252985   5.920   5.221   3.405 -0.0121 -0.3498  0.0134
17368TIP3    H152986   5.890   5.239   3.316  1.2041 -1.9263 -0.7707
17368TIP3    H252987   5.840   5.205   3.455 -0.6508 -1.4702 -1.3096
17369TIP3   OH252988   2.965   2.725   4.456  0.7170 -0.2756  0.1297
17369TIP3    H152989   3.006   2.793   4.403  0.0030  0.8385  0.9494
17369TIP3    H252990   2.874   2.755   4.466  0.5819 -0.9801  1.1075
17370TIP3   OH252991   8.139   6.734   6.949 -0.0995 -0.2949 -0.2806
17370TIP3    H152992   8.050   6.709   6.974 -0.4726 -0.0690 -1.3080
17370TIP3    H252993   8.149   6.823   6.983  0.2391 -0.8186  1.0192
17371TIP3   OH252994   7.023   0.869   9.687 -0.1732  0.0226 -0.3691
17371TIP3    H152995   6.986   0.800   9.743 -1.4606  0.5230 -0.5583
17371TIP3    H252996   7.117   0.853   9.688 -0.4587 -1.9075 -0.6416
17372TIP3   OH252997   1.526   2.730   4.922 -0.1184 -0.2597 -0.3060
17372TIP3    H152998   1.496   2.730   5.013  1.6658  0.5716  0.3521
17372TIP3    H252999   1.577   2.649   4.914  2.2087  1.0171  0.4296
17373TIP3   OH253000   6.843   9.070   3.499 -0.1391  0.1208  0.0996
17373TIP3    H153001   6.929   9.033   3.518  0.8773  0.9209 -2.5414
17373TIP3    H253002   6.856   9.165   3.498 -1.3726  0.3239  0.9799
17374TIP3   OH253003   6.886   6.766   6.088 -0.1015 -0.0984 -0.7243
17374TIP3    H153004   6.857   6.707   6.158  1.0048  0.3646  0.1751
17374TIP3    H253005   6.976   6.739   6.070  0.4648  1.3603 -0.2134
17375TIP3   OH253006   9.135   3.546   9.701 -0.1817 -0.3546  0.2375
17375TIP3    H153007   9.204   3.482   9.686  0.0766 -0.3692  1.3855
17375TIP3    H253008   9.158   3.620   9.646  0.7285 -0.3872  0.5587
17376TIP3   OH253009   8.485   0.154   2.560 -0.1877  0.4380  0.0976
17376TIP3    H153010   8.493   0.143   2.654  1.6979  1.3000  0.0744
17376TIP3    H253011   8.393   0.176   2.546 -0.5336  0.0935  1.6880
17377TIP3   OH253012   9.770   6.315   5.796  0.5491 -0.4405  0.0323
17377TIP3    H153013   9.693   6.345   5.844  1.7048  2.5436  0.2715
17377TIP3    H253014   9.777   6.376   5.722  0.6048 -2.9868 -2.1995
17378TIP3   OH253015   3.506   3.738   9.138 -0.1435 -0.0032 -0.5336
17378TIP3    H153016   3.586   3.766   9.093 -0.0887 -0.5567 -0.7948
17378TIP3    H253017   3.439   3.735   9.069 -0.2276 -0.1658 -0.4477
17379TIP3   OH253018   9.026   9.675   7.228 -0.4730  0.4199 -0.2376
17379TIP3    H153019   9.018   9.641   7.317 -0.8762 -0.7985 -0.7193
17379TIP3    H253020   8.984   9.761   7.231  0.7791  1.0294  1.0672
17380TIP3   OH253021   2.821   4.282   2.106 -0.2067 -0.2840 -0.0169
17380TIP3    H153022   2.817   4.360   2.160 -0.5276 -0.6852  0.5498
17380TIP3    H253023   2.897   4.296   2.049 -0.3742  0.5153 -0.0513
17381TIP3   OH253024   9.307   5.916   7.125  0.1648 -0.0041  0.5093
17381TIP3    H153025   9.248   5.916   7.200  0.9176  0.1291  1.1135
17381TIP3    H253026   9.340   6.006   7.121  0.0381  0.0208 -0.0550
17382TIP3   OH253027   7.691   6.552   3.833 -0.3155  0.5966 -0.2787
17382TIP3    H153028   7.729   6.638   3.848 -0.9188  0.7284  0.6029
17382TIP3    H253029   7.720   6.499   3.907  1.6459 -0.5570 -1.7779
17383TIP3   OH253030   1.434   0.718   9.792  0.3719 -0.1118 -0.8656
17383TIP3    H153031   1.492   0.670   9.851 -0.9265 -0.9890 -0.2551
17383TIP3    H253032   1.484   0.725   9.710  1.3558 -0.7819 -0.3469
17384TIP3   OH253033   9.462  10.509  10.463  0.2620  0.5426 -0.7797
17384TIP3    H153034   9.368  10.494  10.468  0.3937 -0.1114 -0.1819
17384TIP3    H253035   9.493  10.443  10.400  0.4851 -0.0432 -0.0652
17385TIP3   OH253036   2.687   8.090   8.392  0.1970 -0.3555 -0.0833
17385TIP3    H153037   2.700   8.027   8.463 -0.5423  1.1923  1.4929
17385TIP3    H253038   2.776   8.109   8.361  0.5934 -0.5225  0.9178
17386TIP3   OH253039   9.419   0.088   4.425 -0.7347  0.4255  0.1227
17386TIP3    H153040   9.404   0.033   4.348  2.8475 -0.4146 -0.1737
17386TIP3    H253041   9.435   0.175   4.390  1.2656 -0.0287 -0.2473
17387TIP3   OH253042   5.453   1.091   9.230  0.5991  0.0011  0.2870
17387TIP3    H153043   5.363   1.070   9.206  0.7503 -1.5902  0.9753
17387TIP3    H253044   5.446   1.171   9.282 -0.2466  0.6487 -0.7810
17388TIP3   OH253045   2.336   6.479  10.749 -0.2665 -0.7993  0.0663
17388TIP3    H153046   2.253   6.436  10.770 -1.1887 -0.0452 -1.7886
17388TIP3    H253047   2.311   6.552  10.692  1.5970 -0.0096  0.1904
17389TIP3   OH253048   0.684   1.218   4.874 -0.1289 -0.8154  0.0535
17389TIP3    H153049   0.617   1.203   4.807  0.9792  0.7106 -1.4841
17389TIP3    H253050   0.659   1.302   4.914 -0.7751 -1.7048  1.6028
17390TIP3   OH253051   1.950   3.320   6.117  0.5158 -0.1881 -0.3053
17390TIP3    H153052   1.965   3.322   6.022  1.6271 -2.9292 -0.2587
17390TIP3    H253053   2.024   3.272   6.153 -0.5462 -0.3722  1.8310
17391TIP3   OH253054   0.155   0.501   1.897 -0.3220 -0.4011 -0.0225
17391TIP3    H153055   0.251   0.494   1.897 -0.3869 -1.6881 -0.8949
17391TIP3    H253056   0.135   0.558   1.971  1.1965  1.2347 -0.8034
17392TIP3   OH253057   6.368   8.049   6.051 -0.2782 -0.1501 -0.0864
17392TIP3    H153058   6.438   8.051   6.115 -1.4328  0.8718  1.2045
17392TIP3    H253059   6.413   8.045   5.966  1.3984  2.1320  0.5942
17393TIP3   OH253060   0.030   3.493   7.191 -0.0259  0.7230 -0.2373
17393TIP3    H153061   0.061   3.452   7.272 -2.0664 -0.4137  0.0272
17393TIP3    H253062   0.090   3.461   7.123 -0.1558 -0.8183  0.3438
17394TIP3   OH253063   2.998   5.285   4.786  0.1215 -0.0389  0.0281
17394TIP3    H153064   3.018   5.280   4.879 -0.6527 -1.8889  0.1407
17394TIP3    H253065   2.967   5.375   4.773  0.2739  0.2615  1.5370
17395TIP3   OH253066   6.534   0.999   7.940 -0.0384  0.3060 -1.1284
17395TIP3    H153067   6.526   1.012   7.845  0.3406  2.3092 -0.9242
17395TIP3    H253068   6.626   1.016   7.959 -0.4723  1.8028 -0.1804
17396TIP3   OH253069   6.235   1.046   6.663  0.5622  0.0565  0.4119
17396TIP3    H153070   6.142   1.034   6.686  0.5491 -1.2417 -0.2283
17396TIP3    H253071   6.281   1.032   6.746  0.2010  0.5728  0.7065
17397TIP3   OH253072   5.562  10.137   5.689  0.2761  0.2042 -0.4984
17397TIP3    H153073   5.467  10.129   5.692  0.1839  1.3762  0.6203
17397TIP3    H253074   5.581  10.172   5.602 -0.4555  1.3458 -0.2208
17398TIP3   OH253075   0.534  10.250   9.067 -0.4082 -0.2528 -0.1693
17398TIP3    H153076   0.444  10.226   9.086 -0.0834 -0.5945  0.9871
17398TIP3    H253077   0.527  10.311   8.993 -1.6585  0.4600  0.4979
17399TIP3   OH253078   0.845   2.409   1.367  0.1632  0.4361  0.4282
17399TIP3    H153079   0.914   2.423   1.433  1.5424 -2.0912 -0.3266
17399TIP3    H253080   0.815   2.319   1.383 -1.7760  0.8984 -0.3761
17400TIP3   OH253081   8.772   9.735   1.344 -0.4723  0.0192 -0.3190
17400TIP3    H153082   8.852   9.697   1.309 -0.2402  1.1323 -1.0787
17400TIP3    H253083   8.793   9.828   1.354 -1.1558  0.0450  1.0265
17401TIP3   OH253084   0.216   3.837   2.973  0.5103 -0.2591 -0.5073
17401TIP3    H153085   0.224   3.803   2.884 -1.1459  0.7168 -1.0865
17401TIP3    H253086   0.146   3.902   2.967 -0.4906 -1.0289  1.7563
17402TIP3   OH253087   8.460   9.506   4.352  0.2436  0.1965 -0.2429
17402TIP3    H153088   8.434   9.565   4.281  1.6600  0.4647 -0.5723
17402TIP3    H253089   8.381   9.455   4.371 -0.0163 -0.3498 -2.4643
17403TIP3   OH253090   1.449   1.032   5.675 -0.0277  0.0302 -0.5519
17403TIP3    H153091   1.477   0.998   5.761  0.4825 -0.9576 -1.0925
17403TIP3    H253092   1.467   1.126   5.680 -2.3109  0.4703  1.3178
17404TIP3   OH253093   5.876   7.173  10.334 -0.1532  0.1232  0.1074
17404TIP3    H153094   5.858   7.210  10.248 -0.0492 -0.5087 -0.1870
17404TIP3    H253095   5.814   7.101  10.343 -1.2364  1.1247  1.2063
17405TIP3   OH253096   3.395   5.841   7.592  0.3592 -0.6432 -0.1014
17405TIP3    H153097   3.480   5.858   7.633  0.1688  2.4779 -0.7305
17405TIP3    H253098   3.394   5.747   7.576  2.9014 -1.0601  1.5855
17406TIP3   OH253099   8.959   0.096   5.263 -0.1086  0.4993  0.0600
17406TIP3    H153100   8.888   0.125   5.320  1.6151  2.1666  1.5073
17406TIP3    H253101   8.948   0.149   5.183 -0.8454  0.2597 -0.0055
17407TIP3   OH253102   3.397   6.787   3.810 -0.3525 -0.0735  0.3903
17407TIP3    H153103   3.424   6.698   3.788 -0.3797 -0.1813  0.7926
17407TIP3    H253104   3.472   6.824   3.858 -0.7087 -0.1916  1.0371
17408TIP3   OH253105   8.350  10.386   1.372  0.1904 -0.2590 -0.3509
17408TIP3    H153106   8.361  10.302   1.416  0.1409 -0.0698  0.0307
17408TIP3    H253107   8.439  10.419   1.359  0.2846 -1.0482 -1.8565
17409TIP3   OH253108   4.637  10.064   4.929  0.0096 -0.0754 -0.2487
17409TIP3    H153109   4.676  10.134   4.981  0.4541 -0.1197 -0.5162
17409TIP3    H253110   4.646  10.092   4.839  0.4980 -0.6228 -0.3795
17410TIP3   OH253111   4.108   1.488   9.181 -0.0285 -0.1958 -0.3511
17410TIP3    H153112   4.133   1.398   9.164  0.3040 -0.1744  0.0372
17410TIP3    H253113   4.069   1.487   9.268 -0.7391 -0.1021 -0.6530
17411TIP3   OH253114   4.289   4.410  10.672  0.0119  0.2403  0.2210
17411TIP3    H153115   4.297   4.465  10.595 -1.2224  0.3427  0.1471
17411TIP3    H253116   4.374   4.365  10.679 -0.2312 -0.6657 -1.8689
17412TIP3   OH253117   2.741   1.159   4.809 -0.1374 -0.1866 -0.4648
17412TIP3    H153118   2.690   1.173   4.889 -1.3201 -1.2078 -1.0064
17412TIP3    H253119   2.710   1.226   4.748 -1.1197 -0.9926 -0.8964
17413TIP3   OH253120   5.083   7.237   9.271  0.3584  0.4072 -0.2489
17413TIP3    H153121   5.164   7.214   9.225 -0.5724 -2.1827 -0.7751
17413TIP3    H253122   5.099   7.209   9.361 -0.3023 -1.2379 -0.6042
17414TIP3   OH253123   1.589   6.168   1.840 -0.0168 -0.0420 -0.3965
17414TIP3    H153124   1.676   6.136   1.819  0.1748 -0.4483  0.8952
17414TIP3    H253125   1.599   6.263   1.849 -0.0505  0.1058 -1.7484
17415TIP3   OH253126   1.166   5.957   8.582  0.4085 -0.2829  0.1398
17415TIP3    H153127   1.213   5.917   8.655  1.3646  0.8272  0.1788
17415TIP3    H253128   1.236   5.991   8.525 -0.3374 -0.1409 -0.7125
17416TIP3   OH253129   9.887   4.666   4.889  0.0307 -0.4301  0.2224
17416TIP3    H153130   9.968   4.655   4.839 -0.0600  1.9661 -0.5836
17416TIP3    H253131   9.904   4.623   4.973  2.1122 -0.1108  0.0177
17417TIP3   OH253132   9.962   1.420   5.810 -0.0787  0.2638  0.1821
17417TIP3    H153133   9.959   1.513   5.786  1.2693  0.1157 -0.6778
17417TIP3    H253134   9.936   1.374   5.730 -2.5688 -0.1064  1.1134
17418TIP3   OH253135   3.904   2.780   7.575  0.0786  0.4792 -0.8212
17418TIP3    H153136   3.980   2.791   7.519 -0.7410 -0.9030 -2.3052
17418TIP3    H253137   3.837   2.836   7.536 -0.1742  0.3783 -0.5381
17419TIP3   OH253138   5.424  10.804   8.327 -0.3742 -0.0377 -0.2301
17419TIP3    H153139   5.428  10.708   8.332  1.4359 -0.0022 -0.3686
17419TIP3    H253140   5.455  10.833   8.412  1.2640  0.4066 -0.9404
17420TIP3   OH253141   6.693   6.856   2.757 -0.0753 -0.0045  0.6459
17420TIP3    H153142   6.727   6.818   2.838 -1.2126 -0.6809  0.8236
17420TIP3    H253143   6.691   6.783   2.695 -0.6102  0.1736  0.4536
17421TIP3   OH253144   0.396   0.379   4.009  0.1693  0.6207 -0.5954
17421TIP3    H153145   0.490   0.362   4.009  0.1954  0.6410  1.0530
17421TIP3    H253146   0.389   0.468   3.975  0.8587  1.0485  0.3217
17422TIP3   OH253147   5.855   5.151   9.264 -0.0332 -0.1601 -0.5918
17422TIP3    H153148   5.880   5.212   9.195 -1.7212  0.7804 -0.4007
17422TIP3    H253149   5.766   5.124   9.242 -0.2533 -0.5750  0.7212
17423TIP3   OH253150   5.273   7.556   3.320  0.6933  0.2969 -0.7127
17423TIP3    H153151   5.335   7.629   3.311  1.0835 -0.1915 -2.2917
17423TIP3    H253152   5.263   7.522   3.231 -1.5485  0.0982 -0.4397
17424TIP3   OH253153   3.063  10.874   0.047 -0.6463 -0.7374 -0.0767
17424TIP3    H153154   3.090  10.917   0.128 -0.4096  1.4033 -1.2244
17424TIP3    H253155   3.144  10.866  -0.004 -0.8960 -1.4971 -0.3631
17425TIP3   OH253156   9.271   8.434   0.685 -0.2086  0.0060 -0.3631
17425TIP3    H153157   9.205   8.388   0.737 -0.5814 -0.5389 -1.2914
17425TIP3    H253158   9.338   8.458   0.749 -0.0511 -1.7438  0.1965
17426TIP3   OH253159   6.978  10.039   7.418 -0.4920 -0.2162  0.8278
17426TIP3    H153160   6.935  10.018   7.501  0.5154 -0.6582  1.2505
17426TIP3    H253161   7.051  10.096   7.442  0.1432 -0.7947  0.3192
17427TIP3   OH253162   8.514   5.768  10.123  0.1573  0.1242 -0.4072
17427TIP3    H153163   8.570   5.814  10.060  0.0043  0.5272 -0.2565
17427TIP3    H253164   8.554   5.787  10.208 -0.7934  1.2980 -0.1968
17428TIP3   OH253165   3.194   7.581   9.581 -0.3147 -0.3787 -0.4385
17428TIP3    H153166   3.117   7.638   9.577  0.1876  0.4284  0.7483
17428TIP3    H253167   3.188   7.538   9.667  0.6585 -0.1454 -0.2435
17429TIP3   OH253168   1.785   8.908  10.068 -0.3428 -0.3912  0.2906
17429TIP3    H153169   1.795   8.877  10.158 -1.7125  0.4611  0.7705
17429TIP3    H253170   1.735   8.989  10.076 -1.7644 -1.0445 -1.3312
17430TIP3   OH253171   7.375   8.290   7.581 -0.0634 -0.4334  0.8951
17430TIP3    H153172   7.307   8.280   7.514 -2.5560  1.4572  2.9142
17430TIP3    H253173   7.457   8.283   7.533 -1.6683 -0.4349 -2.1315
17431TIP3   OH253174   5.687   4.163   7.054  0.1044 -0.3412  0.3681
17431TIP3    H153175   5.624   4.098   7.024  1.3073 -1.5724  0.4542
17431TIP3    H253176   5.759   4.113   7.091  0.8752  1.0493  0.8485
17432TIP3   OH253177  10.641  10.738   6.027  0.3528 -0.1346  0.4654
17432TIP3    H153178  10.685  10.660   5.991  0.8746  0.2886  0.1670
17432TIP3    H253179  10.548  10.717   6.022  0.5100 -1.0490  1.1021
17433TIP3   OH253180   7.319   6.241   6.915 -0.4596  0.3285 -0.2835
17433TIP3    H153181   7.354   6.162   6.957 -0.5019  0.3373 -0.2316
17433TIP3    H253182   7.351   6.236   6.825  1.1604  1.2252  0.2054
17434TIP3   OH253183   0.387   1.047   1.426 -0.3744 -0.0945  0.4539
17434TIP3    H153184   0.311   1.039   1.368 -1.2302 -3.3843  1.7917
17434TIP3    H253185   0.461   1.021   1.371 -0.4093  1.4149 -0.3707
17435TIP3   OH253186   1.201   5.571   8.948 -0.1224  0.1843  0.0632
17435TIP3    H153187   1.188   5.540   8.859  0.5926  2.0170 -0.7325
17435TIP3    H253188   1.289   5.542   8.971 -0.8942 -1.7117  0.8505
17436TIP3   OH253189  10.606  10.358   9.459 -0.2324  0.2920  0.0990
17436TIP3    H153190  10.582  10.288   9.521 -2.4117 -1.0308 -2.0742
17436TIP3    H253191  10.637  10.311   9.381  1.3743  1.8836 -0.2850
17437TIP3   OH253192   6.941   6.006   7.117  0.4860 -0.3560  0.0728
17437TIP3    H153193   6.931   5.961   7.201 -1.9426  1.2904  0.7854
17437TIP3    H253194   6.855   6.001   7.077  0.4563  2.4185 -0.4000
17438TIP3   OH253195   2.027   6.778   6.450 -0.2790  0.8114 -0.4362
17438TIP3    H153196   2.058   6.828   6.525 -0.4381 -0.5904  0.5909
17438TIP3    H253197   1.932   6.775   6.461 -0.1040 -2.6246  1.5213
17439TIP3   OH253198   3.345   3.474   9.657 -0.1019 -0.0749 -0.8463
17439TIP3    H153199   3.300   3.391   9.648 -2.4387  1.0314 -0.1921
17439TIP3    H253200   3.339   3.515   9.570 -0.6154  0.1682 -0.7028
17440TIP3   OH253201   6.909   3.921   5.980 -0.8392  0.3188  0.0435
17440TIP3    H153202   6.919   3.974   6.059 -1.8741 -0.7599  0.9442
17440TIP3    H253203   6.832   3.867   5.997 -0.3919 -0.7835 -1.2243
17441TIP3   OH253204  10.845   0.666  10.561 -0.3885  0.9149  0.0224
17441TIP3    H153205  10.782   0.727  10.522 -1.2585  0.2120  0.2843
17441TIP3    H253206  10.859   0.600  10.493 -1.3094  0.1135  0.5771
17442TIP3   OH253207   7.394   2.472   3.022  0.5781  0.1136 -0.1981
17442TIP3    H153208   7.431   2.453   2.935 -0.0918  0.5440 -0.5794
17442TIP3    H253209   7.443   2.415   3.081  0.0721 -1.2350 -1.0382
17443TIP3   OH253210  10.012   5.635   1.986  0.1333  0.4815  0.2751
17443TIP3    H153211   9.989   5.665   1.898  2.2014 -0.5965 -0.7164
17443TIP3    H253212  10.107   5.621   1.982  0.4349  1.2236  2.9552
17444TIP3   OH253213   8.750   5.601   0.684 -0.3420 -0.1915 -0.3443
17444TIP3    H153214   8.778   5.519   0.642 -0.8707 -0.3213 -0.4442
17444TIP3    H253215   8.673   5.628   0.634  0.4782  0.9748 -1.0439
17445TIP3   OH253216   0.879  10.421   8.151 -0.4067  0.7656  0.3285
17445TIP3    H153217   0.801  10.430   8.095  1.1999  0.4453 -2.1229
17445TIP3    H253218   0.921  10.341   8.120  1.3182  1.3594  1.0285
17446TIP3   OH253219   2.438   8.741   8.386  0.1805 -0.3829  0.9060
17446TIP3    H153220   2.417   8.787   8.306  0.5912  0.4864  1.2857
17446TIP3    H253221   2.356   8.698   8.412 -1.5000  3.4629  2.7246
17447TIP3   OH253222   9.190   8.908   1.590  0.2319  0.3079 -0.2825
17447TIP3    H153223   9.221   8.982   1.538 -2.4647  0.2936 -2.1146
17447TIP3    H253224   9.099   8.930   1.611 -0.4249 -2.1468 -0.2144
17448TIP3   OH253225   7.860   4.479   6.843  0.2694  0.5992  0.3826
17448TIP3    H153226   7.869   4.574   6.851  0.7613  0.5074  1.0374
17448TIP3    H253227   7.838   4.450   6.931 -3.4237  0.4371 -0.4328
17449TIP3   OH253228   4.151   2.908  10.637 -0.2484 -0.4747  0.3751
17449TIP3    H153229   4.180   2.856  10.562  0.7894  0.3430  0.1759
17449TIP3    H253230   4.059   2.927  10.619 -0.5077 -1.7809  0.2017
17450TIP3   OH253231   5.051   9.824   8.575  0.1297  0.6201  0.0356
17450TIP3    H153232   5.015   9.736   8.573 -1.1550  1.1315 -0.3265
17450TIP3    H253233   5.134   9.818   8.528 -0.7664 -0.0482 -1.5343
17451TIP3   OH253234   8.254   9.383   8.438  0.2267  0.1047  0.6498
17451TIP3    H153235   8.264   9.292   8.409  0.1457  0.0190  0.8832
17451TIP3    H253236   8.206   9.376   8.521 -1.4515  0.4642 -0.2303
17452TIP3   OH253237   2.968   8.334  10.549 -0.0202  0.1935  0.5123
17452TIP3    H153238   2.974   8.239  10.558  0.3426  0.0705 -0.8854
17452TIP3    H253239   3.055   8.366  10.572 -0.0293  0.1620  0.5920
17453TIP3   OH253240   2.897   8.566   2.591  0.1833  0.2232 -0.0347
17453TIP3    H153241   2.860   8.483   2.624  1.6662 -1.1722 -1.7192
17453TIP3    H253242   2.977   8.578   2.642 -0.3661  1.0167  0.6716
17454TIP3   OH253243  10.351   5.450   6.853  0.0863  0.2778  0.8399
17454TIP3    H153244  10.295   5.387   6.899 -1.0428  1.5949  1.3162
17454TIP3    H253245  10.351   5.528   6.908  1.8918  0.5556  0.5158
17455TIP3   OH253246   7.636   7.794   9.967  0.0494 -0.5996  0.6018
17455TIP3    H153247   7.551   7.780  10.008  0.0324 -0.5278  0.5897
17455TIP3    H253248   7.621   7.860   9.900  0.6719  1.6080  2.5244
17456TIP3   OH253249   8.720   6.477   0.880 -0.6022  0.1150  0.6136
17456TIP3    H153250   8.732   6.479   0.785 -0.4407 -1.1285  0.5891
17456TIP3    H253251   8.797   6.430   0.913 -1.3902 -0.8149  1.1986
17457TIP3   OH253252   8.542   9.962   1.085 -0.5597 -0.3352  0.4303
17457TIP3    H153253   8.493   9.886   1.054  0.4748 -1.2797  1.0637
17457TIP3    H253254   8.542  10.022   1.010  1.3283 -2.2900 -1.2961
17458TIP3   OH253255   0.996   5.703   8.494 -0.0526  0.0359  0.4590
17458TIP3    H153256   1.041   5.786   8.477 -0.9017  0.6440  1.0522
17458TIP3    H253257   0.918   5.706   8.439  0.7911 -1.1934 -0.8772
17459TIP3   OH253258   3.490   8.372   7.883 -0.7112  0.1955  0.0409
17459TIP3    H153259   3.471   8.446   7.826  0.2056  0.6365  0.2974
17459TIP3    H253260   3.545   8.314   7.831  0.2141  0.6487  0.5014
17460TIP3   OH253261   9.739   0.603   9.092  0.6691 -0.4322  0.5040
17460TIP3    H153262   9.672   0.553   9.138 -0.8975  1.5753  0.5353
17460TIP3    H253263   9.797   0.636   9.161  0.2583 -0.1639  0.7211
17461TIP3   OH253264   1.200   9.789   0.859  0.6634 -0.7045 -0.1458
17461TIP3    H153265   1.210   9.705   0.903 -2.9881 -1.0011  0.4247
17461TIP3    H253266   1.211   9.854   0.928  2.3538 -0.6857 -0.3750
17462TIP3   OH253267   7.114   3.722   1.677 -0.4592  0.1420 -0.4331
17462TIP3    H153268   7.117   3.667   1.598  1.0184  2.2953 -1.9864
17462TIP3    H253269   7.204   3.753   1.688 -1.0289  1.4162  1.0168
17463TIP3   OH253270   9.244  10.489   0.531 -0.2320 -0.0186 -0.1000
17463TIP3    H153271   9.274  10.398   0.540  2.8410  0.5780 -2.7358
17463TIP3    H253272   9.310  10.541   0.575 -2.0833  1.0608  1.5784
17464TIP3   OH253273   2.004   2.564   0.438 -0.0897  0.1062  0.1636
17464TIP3    H153274   2.082   2.517   0.411  0.7114  0.8837  1.0225
17464TIP3    H253275   1.932   2.501   0.427  1.0655 -1.7192  2.2917
17465TIP3   OH253276   6.448   2.613   3.893 -0.3693 -0.8935 -0.1166
17465TIP3    H153277   6.514   2.667   3.851 -0.4567 -1.3801 -0.9011
17465TIP3    H253278   6.365   2.653   3.868 -0.4198 -1.1447 -0.3537
17466TIP3   OH253279  10.313   4.291   2.007  0.1655 -0.4435 -0.7682
17466TIP3    H153280  10.244   4.299   2.073  1.8317 -1.7108  1.2426
17466TIP3    H253281  10.280   4.225   1.946 -0.2858 -1.2908  0.3589
17467TIP3   OH253282   6.487   8.318   5.468  0.0136 -0.3183  0.0754
17467TIP3    H153283   6.463   8.375   5.541  1.6698  0.8594 -0.2421
17467TIP3    H253284   6.574   8.286   5.490  1.0618  0.9729 -1.8565
17468TIP3   OH253285   4.026   7.352   7.390  0.3738  0.1342 -0.0186
17468TIP3    H153286   4.074   7.393   7.462  2.8184  0.0822 -1.4983
17468TIP3    H253287   4.066   7.266   7.380 -0.8578 -0.3977 -0.5774
17469TIP3   OH253288   1.076   5.654   4.348 -0.2470 -0.1529 -0.3597
17469TIP3    H153289   1.083   5.712   4.424  1.5871 -1.3925  0.4954
17469TIP3    H253290   1.128   5.697   4.280 -1.0369  0.4483 -0.5985
17470TIP3   OH253291   5.233   1.465   8.561  0.0827  0.0281 -0.1982
17470TIP3    H153292   5.169   1.418   8.507 -0.5929  0.5169  0.1524
17470TIP3    H253293   5.287   1.513   8.498  0.0589 -0.3328 -0.4959
17471TIP3   OH253294   6.207   3.260   1.389 -0.0617 -0.1539  0.1907
17471TIP3    H153295   6.278   3.325   1.392  0.6364 -0.8603 -0.5801
17471TIP3    H253296   6.242   3.188   1.336 -1.6191 -0.1937 -0.8580
17472TIP3   OH253297   3.145   5.546  10.010 -0.0310  0.5263 -0.0385
17472TIP3    H153298   3.084   5.480  10.041  0.9460 -0.8441 -0.9489
17472TIP3    H253299   3.170   5.595  10.088 -0.8650 -0.0963  0.6255
17473TIP3   OH253300  10.758   6.434   4.561  0.2874  0.0715 -0.0442
17473TIP3    H153301  10.848   6.465   4.565  0.6667 -0.9869  0.1187
17473TIP3    H253302  10.711   6.501   4.512  1.2727  0.4021 -0.5662
17474TIP3   OH253303   6.538   1.884   2.293  0.5302 -0.0522 -0.2666
17474TIP3    H153304   6.454   1.906   2.253  0.1277 -1.2724 -0.1229
17474TIP3    H253305   6.603   1.909   2.228  0.1032  1.3366 -0.1973
17475TIP3   OH253306   4.113  10.196   3.127  0.3017  0.1512 -0.2055
17475TIP3    H153307   4.120  10.137   3.202 -1.2109  1.3847  0.9492
17475TIP3    H253308   4.190  10.175   3.073  0.5183 -1.9247  0.8135
17476TIP3   OH253309   1.675   6.928   4.405 -0.1477 -0.0161 -0.0536
17476TIP3    H153310   1.747   6.865   4.401  1.1265  1.4144 -0.4231
17476TIP3    H253311   1.665   6.949   4.497 -0.1491 -0.2799  0.0061
17477TIP3   OH253312   1.767   5.772   4.024  0.4262 -0.0488 -0.1693
17477TIP3    H153313   1.774   5.834   4.096 -0.1969 -0.1397 -0.0258
17477TIP3    H253314   1.802   5.820   3.948  0.4437  0.2878  0.0490
17478TIP3   OH253315  10.792   5.916   6.817 -0.2417  0.0121 -0.5355
17478TIP3    H153316  10.823   5.825   6.818  1.0707  0.4412  0.1781
17478TIP3    H253317  10.870   5.968   6.836 -1.4779  1.1553  1.8867
17479TIP3   OH253318   1.293   6.849  10.827 -0.0273 -0.1534 -0.4154
17479TIP3    H153319   1.354   6.874  10.897  1.9863 -1.7446 -1.4886
17479TIP3    H253320   1.216   6.815  10.873  1.4536 -1.6509  1.1007
17480TIP3   OH253321   8.849   5.806   8.435  0.1679  0.0567  0.5103
17480TIP3    H153322   8.897   5.768   8.362 -0.4142  0.3334 -0.0237
17480TIP3    H253323   8.917   5.833   8.497  0.6552 -0.4001  0.1885
17481TIP3   OH253324  10.810   5.241   4.804 -0.6524 -0.0613  0.6116
17481TIP3    H153325  10.789   5.164   4.752 -0.3406 -0.3170  0.8666
17481TIP3    H253326  10.736   5.300   4.790 -1.8259 -1.1570  1.9286
17482TIP3   OH253327   0.053   0.862   3.230  0.3894  0.1265  0.4040
17482TIP3    H153328   0.025   0.776   3.260  1.5148 -0.8243 -1.1132
17482TIP3    H253329  -0.027   0.902   3.195 -0.2090 -0.1419  1.4144
17483TIP3   OH253330   8.628   7.024   4.799 -0.0071  0.0647  0.0950
17483TIP3    H153331   8.638   7.056   4.709 -0.4510  0.5756  0.2232
17483TIP3    H253332   8.718   7.016   4.832  0.1274  0.7508 -0.0949
17484TIP3   OH253333   5.739  10.134   0.262  0.0240 -0.0033 -0.5599
17484TIP3    H153334   5.700  10.047   0.272 -0.1335  0.1693  0.4853
17484TIP3    H253335   5.826  10.126   0.299 -0.2772  0.4765  0.2697
17485TIP3   OH253336  10.785   4.227  10.551  0.0026 -0.2977 -0.0959
17485TIP3    H153337  10.741   4.207  10.634  0.5767 -1.9710 -0.1523
17485TIP3    H253338  10.787   4.323  10.547 -1.4946 -0.1817  1.0264
17486TIP3   OH253339   6.206   3.195   5.157 -0.1126  0.5718  0.1469
17486TIP3    H153340   6.237   3.122   5.211 -0.3514 -0.0257 -0.5019
17486TIP3    H253341   6.112   3.202   5.178 -1.1576 -2.0745 -2.7399
17487TIP3   OH253342   3.297   4.534   1.783 -0.6912  0.3660  0.3782
17487TIP3    H153343   3.343   4.453   1.761 -1.5629 -0.3657  1.1815
17487TIP3    H253344   3.367   4.598   1.798  0.0184 -0.3464  0.1780
17488TIP3   OH253345   8.172   3.013   7.366 -0.1626  0.1058  0.1098
17488TIP3    H153346   8.118   2.951   7.415  1.2183 -0.1604  1.3813
17488TIP3    H253347   8.158   3.097   7.408  1.0041 -0.1173  1.0080
17489TIP3   OH253348   6.038   1.814   8.796  1.1894  0.6163  0.1498
17489TIP3    H153349   6.028   1.748   8.727  2.3395  1.0314 -0.4303
17489TIP3    H253350   6.022   1.766   8.877 -2.3241  0.5406 -0.4221
17490TIP3   OH253351   3.922   7.146  10.390 -0.4588 -0.1396 -0.0669
17490TIP3    H153352   3.902   7.153  10.483  1.2301  0.3483  0.3046
17490TIP3    H253353   3.839   7.163  10.346 -0.7833  2.2200  1.2901
17491TIP3   OH253354   4.813   5.266   0.539  0.0426  0.3840 -0.5286
17491TIP3    H153355   4.860   5.183   0.538 -0.0201  0.3422 -1.6488
17491TIP3    H253356   4.883   5.332   0.541  0.2379  0.3304 -2.5911
17492TIP3   OH253357  10.549   3.324  10.451  0.0048  0.5933  0.7366
17492TIP3    H153358  10.545   3.388  10.522 -0.4482  1.3676  0.0154
17492TIP3    H253359  10.475   3.265  10.468  1.5369 -0.9596  2.5098
17493TIP3   OH253360   6.896   7.421  10.359 -0.0093 -0.3552  0.2630
17493TIP3    H153361   6.844   7.342  10.342 -1.1410  0.4567 -0.2677
17493TIP3    H253362   6.950   7.431  10.281  0.1209 -0.5994  0.3216
17494TIP3   OH253363   1.262   6.158   0.048 -0.0040  0.0636  0.1416
17494TIP3    H153364   1.353   6.174   0.023 -0.4578  1.2348 -0.8391
17494TIP3    H253365   1.267   6.085   0.111  1.5482 -0.2306 -0.2792
17495TIP3   OH253366   1.076   8.885   0.092 -0.1838  0.1748 -0.1626
17495TIP3    H153367   1.076   8.831   0.171  1.1560 -0.9120 -0.8663
17495TIP3    H253368   1.157   8.936   0.098  0.4116 -0.6103 -1.2620
17496TIP3   OH253369   6.769   0.089   7.102 -0.1130  0.1147 -0.1816
17496TIP3    H153370   6.707   0.017   7.093 -1.6260  1.4083 -0.4747
17496TIP3    H253371   6.839   0.054   7.158 -0.9224 -1.4897 -0.1383
17497TIP3   OH253372   1.199  10.479   2.337  0.0063  0.0457 -0.2559
17497TIP3    H153373   1.243  10.405   2.295  1.0974  0.8309 -0.5486
17497TIP3    H253374   1.268  10.544   2.349 -1.2738  1.7847 -1.7518
17498TIP3   OH253375   7.822   1.205   9.567  0.7767 -0.4310 -0.5670
17498TIP3    H153376   7.789   1.154   9.641 -0.5627 -0.1864 -0.9600
17498TIP3    H253377   7.814   1.146   9.492  0.1584  0.0032 -0.8553
17499TIP3   OH253378   5.160   1.481   5.548 -0.9765  0.3855  0.0127
17499TIP3    H153379   5.224   1.418   5.582 -0.4360  0.1224 -1.4050
17499TIP3    H253380   5.076   1.450   5.582 -0.3579  0.9271  2.1845
17500TIP3   OH253381   1.551   8.161   4.724 -0.9705 -0.2820 -0.5294
17500TIP3    H153382   1.490   8.148   4.651 -0.7213 -0.7208 -0.6657
17500TIP3    H253383   1.579   8.073   4.748 -0.1563 -0.0776 -0.6714
17501TIP3   OH253384   2.026   4.908   8.072  0.3742  0.2727  0.3925
17501TIP3    H153385   1.972   4.845   8.025  0.7540  0.9374 -1.0243
17501TIP3    H253386   1.970   4.940   8.143  0.1152 -1.4766  1.0329
17502TIP3   OH253387   4.650   9.583   7.602 -0.3937 -0.1855 -0.3186
17502TIP3    H153388   4.594   9.649   7.645 -1.0103 -0.4705 -0.6799
17502TIP3    H253389   4.705   9.550   7.673 -1.1650 -0.3989  0.1968
17503TIP3   OH253390   8.507   6.746   1.070 -0.0209 -0.2907  0.2161
17503TIP3    H153391   8.505   6.806   1.144  0.0320 -0.4318  0.3313
17503TIP3    H253392   8.587   6.770   1.022 -0.2381  0.0292  0.0148
17504TIP3   OH253393   2.066   2.877   9.994 -0.3906 -0.5948 -0.0226
17504TIP3    H153394   2.075   2.962   9.952 -0.1410 -0.1616  0.8667
17504TIP3    H253395   2.102   2.815   9.931  0.0125  0.0344 -0.4272
17505TIP3   OH253396   8.183   8.070  10.515 -0.2767  0.1281  0.0323
17505TIP3    H153397   8.132   8.146  10.546 -2.1767 -0.7767 -0.7160
17505TIP3    H253398   8.242   8.107  10.449  0.5273  1.3078  1.3395
17506TIP3   OH253399   5.122   1.955   8.210 -0.5027 -0.2576  0.0289
17506TIP3    H153400   5.147   2.023   8.147  1.1574 -0.3249  0.5622
17506TIP3    H253401   5.089   1.883   8.155 -3.3167  1.2830 -0.4896
17507TIP3   OH253402   7.992   1.098   5.187 -0.0712 -0.2278 -0.9955
17507TIP3    H153403   8.079   1.133   5.210 -1.4153  2.1696  0.9426
17507TIP3    H253404   7.959   1.159   5.122 -0.5327 -0.8007 -1.3013
17508TIP3   OH253405   0.706   9.768   5.279 -0.5006 -0.2958 -0.0530
17508TIP3    H153406   0.788   9.766   5.329 -0.3780  0.1926 -0.2237
17508TIP3    H253407   0.724   9.829   5.207 -1.2581  0.4036  0.3343
17509TIP3   OH253408   2.644   9.864   4.170 -0.0440 -0.1037  0.4399
17509TIP3    H153409   2.591   9.924   4.223 -1.6183 -2.2616  1.4768
17509TIP3    H253410   2.735   9.888   4.190 -0.5761  2.4249  0.1377
17510TIP3   OH253411   6.511   2.105   2.832  0.0596  0.2065 -0.3210
17510TIP3    H153412   6.432   2.083   2.783  0.4665  1.4062 -1.5954
17510TIP3    H253413   6.578   2.119   2.765  0.8930  0.9541  0.6315
17511TIP3   OH253414   7.045   4.816   4.809  0.2329 -0.4103  0.4413
17511TIP3    H153415   7.005   4.897   4.776 -0.4592 -0.6801  0.6041
17511TIP3    H253416   7.126   4.845   4.851  0.4601  0.0930 -0.3158
17512TIP3   OH253417   7.560   4.231   1.505  0.7651 -0.3832 -0.0009
17512TIP3    H153418   7.551   4.233   1.601  0.1837  0.5854 -0.0664
17512TIP3    H253419   7.473   4.255   1.472  1.0187 -0.4957 -0.7693
17513TIP3   OH253420   4.218  10.101   2.016 -0.2418  0.5649  0.5004
17513TIP3    H153421   4.177  10.158   1.951 -1.3474 -0.8783 -0.1268
17513TIP3    H253422   4.242  10.022   1.968  1.9283  0.7524  1.2011
17514TIP3   OH253423   8.193   9.276   5.046 -0.2405  0.2762 -0.0665
17514TIP3    H153424   8.181   9.198   4.991  0.9386  1.3463 -1.9211
17514TIP3    H253425   8.119   9.273   5.107 -0.9360 -1.6063 -0.9129
17515TIP3   OH253426   9.914  10.697   1.481 -0.0213  0.0523 -0.3549
17515TIP3    H153427   9.975  10.684   1.408 -0.8969  0.4967 -1.2082
17515TIP3    H253428   9.954  10.653   1.555  0.2443 -1.6860 -1.4623
17516TIP3   OH253429   1.983   3.434   6.528  0.0077 -0.2950  0.2092
17516TIP3    H153430   2.038   3.355   6.533 -0.1847 -0.6326 -1.9717
17516TIP3    H253431   2.032   3.493   6.470 -0.8999  0.2716 -0.0007
17517TIP3   OH253432   2.938  10.601   1.109 -0.1658  0.0967  0.1340
17517TIP3    H153433   2.897  10.578   1.192 -1.0329 -0.3205 -0.3958
17517TIP3    H253434   2.870  10.585   1.043  0.4625  0.5381 -0.6448
17518TIP3   OH253435   2.150   2.711   2.411  0.8453 -0.0102 -0.5891
17518TIP3    H153436   2.084   2.740   2.474  2.3427 -1.8016  2.0096
17518TIP3    H253437   2.115   2.630   2.375  0.3983  0.5270 -1.3748
17519TIP3   OH253438   1.917   0.420   2.414  0.3854  0.0313  0.2500
17519TIP3    H153439   1.921   0.412   2.509  1.6373 -0.7207  0.1589
17519TIP3    H253440   1.885   0.335   2.384  0.9451 -0.0849 -0.0371
17520TIP3   OH253441   7.074   1.853   9.820  0.2867 -0.2643 -0.1505
17520TIP3    H153442   7.058   1.863   9.914 -2.6959  2.1631 -0.7424
17520TIP3    H253443   7.100   1.762   9.809  0.1706 -0.7560  2.9574
17521TIP3   OH253444   9.348   8.533   8.786 -0.4478  0.3190  0.3642
17521TIP3    H153445   9.385   8.598   8.846  1.7352 -0.4396 -0.0581
17521TIP3    H253446   9.419   8.514   8.725 -1.5845 -1.2205 -0.5537
17522TIP3   OH253447   6.377   7.075   1.453  0.2317  0.1496 -0.4159
17522TIP3    H153448   6.284   7.082   1.477  1.0238  2.0094  2.6411
17522TIP3    H253449   6.413   7.012   1.515  1.2014  0.1298 -0.9784
17523TIP3   OH253450   6.560   8.922   1.835 -0.5899 -0.3008 -0.5182
17523TIP3    H153451   6.618   8.872   1.777  1.0731  0.0117  0.8049
17523TIP3    H253452   6.483   8.866   1.845  0.4247 -1.7795 -0.5637
17524TIP3   OH253453   7.599   3.955   6.359  0.8408 -0.2891  0.2173
17524TIP3    H153454   7.655   3.877   6.357 -0.3563 -1.1686 -0.3737
17524TIP3    H253455   7.523   3.930   6.307 -0.4560  0.5890  1.6304
17525TIP3   OH253456   4.995   3.997   6.348  0.0067  0.3614  0.3213
17525TIP3    H153457   4.918   3.965   6.395  0.1838 -1.5607 -0.6201
17525TIP3    H253458   4.966   4.080   6.310 -2.4263 -1.3357 -1.8836
17526TIP3   OH253459   1.495  10.541   1.481 -0.3229 -0.2001 -0.0493
17526TIP3    H153460   1.554  10.470   1.456 -3.1656 -2.1418 -2.0178
17526TIP3    H253461   1.497  10.543   1.576  2.6724 -0.2711 -0.0404
17527TIP3   OH253462   9.654   3.364   1.061  0.1828  0.4543 -0.1028
17527TIP3    H153463   9.740   3.331   1.086 -0.0295 -0.4414 -0.4936
17527TIP3    H253464   9.594   3.292   1.080 -0.5383  1.1803  0.4615
17528TIP3   OH253465   0.485   1.401   8.187 -0.1159 -0.5883  0.0794
17528TIP3    H153466   0.532   1.476   8.149 -0.3657  0.1386  1.1533
17528TIP3    H253467   0.393   1.422   8.175 -0.1951 -0.3398  1.0860
17529TIP3   OH253468   0.987   8.025   7.677  0.3666  0.1821 -0.0952
17529TIP3    H153469   1.004   8.089   7.745  0.6502  0.8495 -0.7753
17529TIP3    H253470   1.071   8.016   7.631  0.7042 -1.6517  0.7733
17530TIP3   OH253471   9.834   4.058   4.664 -0.1452 -0.1153 -0.0978
17530TIP3    H153472   9.840   4.049   4.569  1.0411 -1.5914  0.0722
17530TIP3    H253473   9.890   4.132   4.685  3.2738 -2.4189 -0.2497
17531TIP3   OH253474   1.493   9.033   9.702  0.9037  0.1644 -0.3614
17531TIP3    H153475   1.563   9.021   9.637  1.1450 -0.3719 -0.0139
17531TIP3    H253476   1.536   9.077   9.775  1.0173 -0.6544  0.0763
17532TIP3   OH253477   9.953   7.812   3.546  0.0471  0.1072  0.1465
17532TIP3    H153478  10.040   7.804   3.584  1.3249  1.7604 -2.1600
17532TIP3    H253479   9.934   7.906   3.547 -1.5649 -0.1820  0.2775
17533TIP3   OH253480   0.957  10.831   6.080  0.1298 -0.6025  0.5052
17533TIP3    H153481   0.948  10.910   6.134 -0.0770 -1.1348  1.2598
17533TIP3    H253482   0.888  10.839   6.014  0.1861 -0.0977  0.4998
17534TIP3   OH253483   4.350   0.343   4.944  0.0032  0.5370 -0.2298
17534TIP3    H153484   4.398   0.287   5.006  2.6299  2.0355 -0.7341
17534TIP3    H253485   4.281   0.287   4.910  0.4917 -1.3529  1.6468
17535TIP3   OH253486   9.586   4.694   4.492 -0.4951  0.0788  0.1553
17535TIP3    H153487   9.564   4.771   4.545 -0.1570  0.1986  0.1253
17535TIP3    H253488   9.510   4.637   4.499 -1.3960  1.0758 -1.0259
17536TIP3   OH253489  10.722   8.796   6.713  0.3550 -0.1901  0.3687
17536TIP3    H153490  10.752   8.806   6.804 -0.8005  0.6865  0.6876
17536TIP3    H253491  10.672   8.714   6.713 -0.2756  0.1828  0.7292
17537TIP3   OH253492   6.297   7.735   4.001 -0.3879 -0.2458  0.1008
17537TIP3    H153493   6.250   7.770   4.078  0.1546 -1.2654  0.9285
17537TIP3    H253494   6.228   7.693   3.949 -0.6409 -0.3744  0.5243
17538TIP3   OH253495   7.673   7.358   0.563  0.2890  0.0060  0.0522
17538TIP3    H153496   7.591   7.382   0.519  0.8793 -2.7553 -2.9621
17538TIP3    H253497   7.651   7.280   0.614  0.5111  0.8482  1.4846
17539TIP3   OH253498   2.144   0.819   1.874  0.5184 -0.5077  0.1619
17539TIP3    H153499   2.229   0.817   1.830  0.8728 -1.4524  0.8663
17539TIP3    H253500   2.142   0.739   1.926 -0.7260 -0.3955  0.3110
17540TIP3   OH253501   3.054   2.045   9.128  0.3520  0.1227  0.5585
17540TIP3    H153502   2.992   2.065   9.058 -1.0768 -2.7476  0.8660
17540TIP3    H253503   3.132   2.096   9.105 -1.0784  1.6038 -1.4491
17541TIP3   OH253504   3.770   9.654   8.436 -0.3183 -0.2338 -0.2460
17541TIP3    H153505   3.713   9.670   8.511  0.0541 -0.2243  0.0398
17541TIP3    H253506   3.718   9.599   8.378 -0.0920 -1.5209  0.7068
17542TIP3   OH253507   1.767   5.400   1.771 -0.1102 -0.0236  0.0830
17542TIP3    H153508   1.687   5.374   1.726 -0.4880  0.6440  0.3440
17542TIP3    H253509   1.800   5.320   1.811 -0.4319 -0.3807 -0.3545
17543TIP3   OH253510   0.345   0.597   3.141  0.1032 -0.7708 -0.4658
17543TIP3    H153511   0.410   0.629   3.079 -0.0791 -1.4014 -0.9901
17543TIP3    H253512   0.371   0.635   3.225  1.6400 -1.6794 -0.4896
17544TIP3   OH253513   8.465   3.927   5.336 -0.4408 -0.3474 -0.3047
17544TIP3    H153514   8.515   3.854   5.298 -0.0405  0.1964 -0.8343
17544TIP3    H253515   8.528   3.998   5.343 -0.7102 -0.1912  0.6757
17545TIP3   OH253516   9.301   3.896   5.239  0.3082  0.8539 -0.1996
17545TIP3    H153517   9.347   3.828   5.289  0.0102  0.3711 -0.5708
17545TIP3    H253518   9.326   3.879   5.148  0.4897  1.4450 -0.2589
17546TIP3   OH253519   0.076   4.431  10.141 -0.5590 -0.1021 -0.7539
17546TIP3    H153520   0.033   4.361  10.190 -2.8427  2.7628  1.7129
17546TIP3    H253521   0.170   4.415  10.156 -1.0401 -1.7913  0.9804
17547TIP3   OH253522   8.098   0.641   8.234  0.1323  0.2767 -0.0389
17547TIP3    H153523   8.170   0.700   8.255  0.2991  0.0937 -0.0985
17547TIP3    H253524   8.028   0.666   8.295  0.8082 -0.6284  1.1363
17548TIP3   OH253525   0.440  10.388   1.842  0.4031  0.1484  0.2650
17548TIP3    H153526   0.440  10.301   1.882 -0.7036 -0.5831 -1.2188
17548TIP3    H253527   0.359  10.428   1.874 -0.2281 -0.2494 -0.7609
17549TIP3   OH253528   6.080   6.458   7.357  0.1559  0.0671  0.1339
17549TIP3    H153529   6.060   6.365   7.368  1.1001  0.0082  1.6678
17549TIP3    H253530   6.013   6.490   7.297  0.2898 -1.7555 -1.0414
17550TIP3   OH253531   4.613   9.989   0.743 -0.3049 -0.2225  0.6870
17550TIP3    H153532   4.534  10.008   0.693 -0.5324 -1.7176  0.4110
17550TIP3    H253533   4.613  10.054   0.814 -0.3585  1.4565 -0.7999
17551TIP3   OH253534  10.221   2.922   4.364  0.0947  0.0859  0.6758
17551TIP3    H153535  10.259   2.839   4.393  0.3634  0.2690  0.8429
17551TIP3    H253536  10.142   2.896   4.317  0.3003 -0.2803  0.5282
17552TIP3   OH253537  10.770   2.444  10.144  0.5970  0.3448  0.1821
17552TIP3    H153538  10.766   2.499  10.222 -0.1396  0.4352  0.0881
17552TIP3    H253539  10.769   2.355  10.178  4.4141  0.2590  0.4968
17553TIP3   OH253540  10.422   1.484  10.110  0.8209  0.2621  0.1003
17553TIP3    H153541  10.450   1.571  10.082 -1.0513  0.2104 -2.2035
17553TIP3    H253542  10.476   1.424  10.059  0.3463  0.1221 -0.2482
17554TIP3   OH253543   9.323   5.699   2.080 -0.2641  0.5983 -0.1573
17554TIP3    H153544   9.376   5.775   2.056  0.5322 -0.2554 -1.1693
17554TIP3    H253545   9.267   5.683   2.005  1.1188 -1.1218 -0.8809
17555TIP3   OH253546   2.097   9.058   6.706 -0.0172 -0.3205  0.3283
17555TIP3    H153547   2.076   9.145   6.738  0.4734 -1.0570  2.8975
17555TIP3    H253548   2.026   9.037   6.645 -0.9317  1.2923  0.7798
17556TIP3   OH253549   1.116   7.074   8.280 -0.1831 -0.5083  0.2550
17556TIP3    H153550   1.126   6.980   8.271 -1.3467 -0.5981 -0.2568
17556TIP3    H253551   1.092   7.105   8.193 -2.6292 -0.1633  0.9611
17557TIP3   OH253552   5.861   1.513   6.700 -0.4052 -0.2272  0.1802
17557TIP3    H153553   5.942   1.550   6.733 -0.3142 -1.1517  1.0448
17557TIP3    H253554   5.846   1.558   6.617  0.4493  0.6748  0.4933
17558TIP3   OH253555   4.055   0.916   7.468 -0.0582  0.5930  0.2821
17558TIP3    H153556   4.040   0.825   7.493  0.1638  0.6285  0.5487
17558TIP3    H253557   3.969   0.957   7.476 -0.4259  0.1373 -1.0146
17559TIP3   OH253558   5.899   1.028   5.505 -0.2089  0.5984  0.6297
17559TIP3    H153559   5.808   1.024   5.533 -0.1191 -0.2664  0.8370
17559TIP3    H253560   5.916   1.121   5.487 -1.6795  0.5584 -1.2837
17560TIP3   OH253561   3.278   9.039  10.211 -0.0156  0.0987 -0.0470
17560TIP3    H153562   3.317   9.075  10.131 -2.7788  1.4572 -0.8844
17560TIP3    H253563   3.302   8.946  10.209  0.9875  0.3420 -1.8144
17561TIP3   OH253564   3.634   2.875   9.059 -0.2880 -0.3281 -0.5213
17561TIP3    H153565   3.591   2.842   8.979 -0.0115  0.9326 -1.2143
17561TIP3    H253566   3.601   2.965   9.068  2.9922  1.1273 -1.7235
17562TIP3   OH253567   2.598   2.275   4.137 -0.0149  0.3067  0.7510
17562TIP3    H153568   2.515   2.272   4.184 -0.3029 -0.3435  0.1999
17562TIP3    H253569   2.660   2.311   4.202 -0.4630 -0.3270  1.5492
17563TIP3   OH253570   5.937   9.297   9.003 -0.2303  0.3779 -0.4131
17563TIP3    H153571   5.853   9.337   9.027 -0.8016 -0.6132 -0.6885
17563TIP3    H253572   6.002   9.343   9.055 -1.1566 -0.0822  1.2256
17564TIP3   OH253573  10.199   5.493   7.485 -0.3484  0.1074  0.1421
17564TIP3    H153574  10.259   5.497   7.560 -1.8788 -2.1368  1.6073
17564TIP3    H253575  10.250   5.449   7.417  0.7469  1.3293  0.1169
17565TIP3   OH253576   5.193   6.800   1.947 -0.3141  0.5823  0.1388
17565TIP3    H153577   5.140   6.805   2.026  0.6077 -2.8019  1.1485
17565TIP3    H253578   5.131   6.807   1.875 -1.6783  0.1045  1.2347
17566TIP3   OH253579  10.640   0.995   8.301  0.6756  0.2813  0.2871
17566TIP3    H153580  10.708   0.989   8.234  2.3743  0.0128  1.9789
17566TIP3    H253581  10.615   1.087   8.303  1.0510  0.3979 -0.2677
17567TIP3   OH253582   4.248   5.072  10.421  0.3215  0.8717 -0.2626
17567TIP3    H153583   4.311   5.025  10.367  0.3585  0.0248  0.4903
17567TIP3    H253584   4.299   5.143  10.461  0.5033  0.9427 -0.6143
17568TIP3   OH253585   6.433   2.557   1.931  0.1299 -0.0694 -0.1932
17568TIP3    H153586   6.399   2.637   1.890 -1.3783 -0.3062  0.5233
17568TIP3    H253587   6.374   2.541   2.004  1.8743 -0.4892  1.1941
17569TIP3   OH253588   4.209   4.622   4.536 -0.2558  0.8640 -0.0345
17569TIP3    H153589   4.233   4.532   4.517 -0.2122  0.5439  1.3949
17569TIP3    H253590   4.292   4.664   4.560 -0.2702  1.3072 -0.7232
17570TIP3   OH253591   1.858   6.780   4.883  1.2240  0.4368  0.6744
17570TIP3    H153592   1.923   6.850   4.884  1.8465 -0.1076 -0.3128
17570TIP3    H253593   1.886   6.721   4.954  2.0829 -0.0211 -0.0235
17571TIP3   OH253594  10.145  10.242   1.876 -0.3559 -0.2820  0.4598
17571TIP3    H153595  10.173  10.179   1.942  0.2859 -0.1766  0.2914
17571TIP3    H253596  10.085  10.192   1.820  0.7650 -0.9782 -0.1512
17572TIP3   OH253597   6.940   9.090   1.362  0.1041  0.3157 -0.1974
17572TIP3    H153598   6.921   9.181   1.386 -1.0549  0.1221 -0.2987
17572TIP3    H253599   6.854   9.053   1.341  0.2751 -1.3605  1.7405
17573TIP3   OH253600   9.278   0.353   8.253 -0.3521  1.3225  0.3251
17573TIP3    H153601   9.285   0.367   8.347 -1.1181  1.4606  0.3662
17573TIP3    H253602   9.295   0.260   8.241  1.0432  1.5348  0.4513
17574TIP3   OH253603   9.517   5.277   0.829  0.5146  0.5414 -0.0741
17574TIP3    H153604   9.593   5.333   0.815  1.0599 -0.2546 -0.3383
17574TIP3    H253605   9.551   5.202   0.877 -0.0151 -0.0312 -0.5846
17575TIP3   OH253606   9.543   9.575   1.147 -0.0667 -0.2850 -0.4396
17575TIP3    H153607   9.490   9.497   1.162  1.0587 -0.5797  2.9980
17575TIP3    H253608   9.631   9.542   1.129  0.3534  0.0933  0.7593
17576TIP3   OH253609   8.800   5.833  10.620  0.3919 -0.4733 -0.0365
17576TIP3    H153610   8.770   5.922  10.639 -1.5973 -0.6512 -1.9421
17576TIP3    H253611   8.892   5.843  10.596 -0.4711  1.6398 -3.1683
17577TIP3   OH253612   5.777   3.026   0.025  0.2077 -0.0324 -0.1578
17577TIP3    H153613   5.747   2.992   0.110  0.4097 -0.0503 -0.0942
17577TIP3    H253614   5.721   2.982  -0.039 -0.2133  0.2759 -0.0107
17578TIP3   OH253615   6.173  10.002   2.597  0.1157 -0.4697  0.2149
17578TIP3    H153616   6.264  10.019   2.618  0.0503  0.2488 -0.0519
17578TIP3    H253617   6.175   9.951   2.516  0.2430  1.4874 -1.0618
17579TIP3   OH253618   7.537   7.508   4.641 -0.8625 -0.7389  0.4674
17579TIP3    H153619   7.524   7.594   4.600  0.1322 -1.6758 -2.0481
17579TIP3    H253620   7.569   7.528   4.729 -1.6163  1.4524  0.3010
17580TIP3   OH253621   9.403   7.309   9.602  0.4474 -0.8226 -0.4553
17580TIP3    H153622   9.397   7.383   9.662 -0.3722  0.2137 -1.7564
17580TIP3    H253623   9.324   7.258   9.621 -1.0537  0.7288 -2.1295
17581TIP3   OH253624   9.199   6.899   6.796 -0.4108 -0.3335 -0.3033
17581TIP3    H153625   9.168   6.889   6.706  0.4657  1.0442 -0.8077
17581TIP3    H253626   9.121   6.922   6.847 -0.8373 -0.6821 -0.7943
17582TIP3   OH253627   6.614  10.658   4.145  0.0655 -0.3505  0.7092
17582TIP3    H153628   6.687  10.596   4.148 -0.0438 -0.4513  2.2209
17582TIP3    H253629   6.540  10.611   4.183 -0.7968 -0.2316 -0.7737
17583TIP3   OH253630   3.764   7.635   7.689 -0.1181 -0.1019 -0.5472
17583TIP3    H153631   3.850   7.669   7.664  0.0287 -0.7728 -0.9889
17583TIP3    H253632   3.748   7.563   7.627 -1.3483  0.5198 -0.9950
17584TIP3   OH253633   7.494   3.595   3.901 -0.1005 -0.5182 -0.0317
17584TIP3    H153634   7.583   3.613   3.932  0.1628 -1.3095 -0.3118
17584TIP3    H253635   7.490   3.500   3.890 -1.5328 -0.6866  1.6071
17585TIP3   OH253636   9.829   5.535  10.809  0.1840  0.0048  0.1863
17585TIP3    H153637   9.748   5.495  10.778  0.1838  0.1367  0.0164
17585TIP3    H253638   9.847   5.605  10.746  0.9564 -0.6675 -0.3578
17586TIP3   OH253639   2.413   9.165   6.151 -0.0963 -0.2701  0.4048
17586TIP3    H153640   2.491   9.214   6.124 -0.4247  1.2611  2.0417
17586TIP3    H253641   2.419   9.163   6.246 -0.4313 -2.9745  0.4383
17587TIP3   OH253642  10.261   9.888   0.156  0.3383  0.7820 -0.4611
17587TIP3    H153643  10.346   9.919   0.189  0.1419 -0.7726  1.7398
17587TIP3    H253644  10.266   9.793   0.165 -1.4297  0.6234 -0.9074
17588TIP3   OH253645   1.661   0.630   1.494 -0.1494  0.9301  0.3490
17588TIP3    H153646   1.663   0.702   1.431 -1.1435  0.8691  0.2431
17588TIP3    H253647   1.752   0.623   1.525  0.6498  0.1350 -1.9803
17589TIP3   OH253648   9.220   9.462   7.581  0.2839 -0.1532 -0.3732
17589TIP3    H153649   9.294   9.476   7.521  0.2164  0.8408 -0.2455
17589TIP3    H253650   9.151   9.518   7.547  0.3469  0.6865  0.8079
17590TIP3   OH253651   9.791   6.854   0.256  0.5634  0.5055  0.3037
17590TIP3    H153652   9.736   6.931   0.240 -0.3717 -0.1420  0.3663
17590TIP3    H253653   9.737   6.796   0.310  0.6620 -0.8796 -1.0255
17591TIP3   OH253654  10.532   5.433  10.865  0.2793 -0.3983 -0.1603
17591TIP3    H153655  10.439   5.441  10.884  0.6395  0.8989  1.2893
17591TIP3    H253656  10.551   5.340  10.875 -0.7088 -0.5627  0.3064
17592TIP3   OH253657  10.158   2.339  10.256  0.3912 -0.2252 -0.5470
17592TIP3    H153658  10.100   2.263  10.247  0.0094 -0.1491  1.1109
17592TIP3    H253659  10.244   2.307  10.228 -0.0213 -0.8968 -1.0852
17593TIP3   OH253660   7.389   8.186   6.343  0.0028  0.1429 -0.1711
17593TIP3    H153661   7.380   8.107   6.397  1.6641  0.6798  0.9560
17593TIP3    H253662   7.478   8.182   6.309 -0.2815  0.9660 -1.0403
17594TIP3   OH253663   4.275   2.029   5.747 -0.5516  0.2055 -0.5759
17594TIP3    H153664   4.186   2.036   5.780 -0.9688 -1.6748 -1.1645
17594TIP3    H253665   4.281   1.940   5.713  2.5925 -1.0285  2.5503
17595TIP3   OH253666   4.910   6.949   3.202 -0.3333  0.3179  0.3687
17595TIP3    H153667   4.960   6.933   3.283 -2.1211  1.0879  1.7001
17595TIP3    H253668   4.909   6.864   3.158  1.8687  0.2071  0.4088
17596TIP3   OH253669   9.961   7.326   5.245 -0.1705 -0.2047 -0.1369
17596TIP3    H153670  10.019   7.336   5.320  0.7921  0.6547 -0.9620
17596TIP3    H253671   9.929   7.414   5.227 -1.2037 -0.5625 -0.1216
17597TIP3   OH253672   1.830  10.562   1.422  0.3764 -0.4486 -0.1188
17597TIP3    H153673   1.784  10.479   1.438 -2.7910  1.2894  0.5437
17597TIP3    H253674   1.805  10.619   1.494  0.7276  1.7895 -1.6474
17598TIP3   OH253675   6.499   8.602   8.056  0.9569 -0.1224  0.1810
17598TIP3    H153676   6.474   8.690   8.029  2.8480  0.6933  0.9266
17598TIP3    H253677   6.554   8.570   7.985  1.9180  0.1030  0.8095
17599TIP3   OH253678   1.189   4.349  10.816 -0.5784 -0.2013  0.2942
17599TIP3    H153679   1.200   4.338  10.911 -1.9647  2.5425  0.8892
17599TIP3    H253680   1.128   4.280  10.791  1.4065 -2.2986  0.9121
17600TIP3   OH253681   9.355   1.840   9.651 -0.1894 -0.1930 -0.2298
17600TIP3    H153682   9.317   1.764   9.608  1.1978 -0.3761 -1.2239
17600TIP3    H253683   9.319   1.915   9.603  0.2728 -0.3436 -0.8305
17601TIP3   OH253684   7.741   8.889   1.017  0.3074  0.1588  0.2807
17601TIP3    H153685   7.805   8.932   1.074 -0.5753  0.2126  1.2514
17601TIP3    H253686   7.753   8.930   0.931  1.1864  0.5572  0.5873
17602TIP3   OH253687   4.497   5.989   3.019  0.0919 -0.1019 -0.3767
17602TIP3    H153688   4.521   6.075   2.984  0.0577 -0.4227 -1.2121
17602TIP3    H253689   4.531   5.926   2.955 -0.2216 -0.6979  0.0261
17603TIP3   OH253690   6.152   0.968   0.844  0.0602 -0.4340 -0.5201
17603TIP3    H153691   6.171   0.904   0.776  1.8937  0.0731 -0.5457
17603TIP3    H253692   6.235   0.980   0.890 -0.2505  1.8365 -0.4460
17604TIP3   OH253693   0.088   9.682   4.138 -0.5392  0.1604 -0.5350
17604TIP3    H153694   0.048   9.596   4.125 -1.2009  0.4172 -0.2766
17604TIP3    H253695   0.092   9.720   4.050 -1.9038  0.5572 -0.4658
17605TIP3   OH253696   7.665   8.584   7.929  0.2090 -0.7115 -0.4929
17605TIP3    H153697   7.692   8.579   7.837 -0.4183 -1.7626 -0.6481
17605TIP3    H253698   7.592   8.646   7.929 -1.0950 -2.1720 -1.0842
17606TIP3   OH253699   3.729   5.113   2.418 -0.1803  0.0086 -0.6226
17606TIP3    H153700   3.634   5.113   2.423 -0.2162  0.0494 -1.2305
17606TIP3    H253701   3.758   5.120   2.509 -0.7561  0.0336 -0.4386
17607TIP3   OH253702   7.890   3.008  10.076 -0.0757 -0.4613 -0.2862
17607TIP3    H153703   7.966   3.060  10.049  0.8364 -2.1020 -1.0062
17607TIP3    H253704   7.828   3.018  10.004  0.3092 -0.7716 -0.6698
17608TIP3   OH253705   4.802   7.700   9.243  0.2117  0.0960  0.6638
17608TIP3    H153706   4.882   7.664   9.204  0.7827 -0.9970  2.7319
17608TIP3    H253707   4.829   7.782   9.282 -0.4533  1.4067 -1.4528
17609TIP3   OH253708   3.457   3.687   5.690  0.0524 -0.1430 -0.1199
17609TIP3    H153709   3.369   3.652   5.673 -0.4224  1.1204 -0.3905
17609TIP3    H253710   3.469   3.753   5.622  1.8179 -1.2903 -0.9982
17610TIP3   OH253711   2.233   6.322   7.379  0.3000  0.0702 -0.2311
17610TIP3    H153712   2.219   6.245   7.434  1.0264  0.6242  0.7739
17610TIP3    H253713   2.271   6.288   7.298  0.1409 -0.6755  0.0046
17611TIP3   OH253714  10.165   1.884   5.172  0.3279  0.1652 -0.2540
17611TIP3    H153715  10.245   1.845   5.208  0.5533 -0.7344 -1.6234
17611TIP3    H253716  10.182   1.889   5.078 -0.5193  1.7131 -0.3498
17612TIP3   OH253717   2.707   2.299   2.231 -0.2482  0.2770 -0.2549
17612TIP3    H153718   2.690   2.264   2.318 -1.0275 -0.2485 -0.6117
17612TIP3    H253719   2.718   2.221   2.176 -0.0636  0.6052 -0.6875
17613TIP3   OH253720   1.812  10.480   2.183 -0.4072  0.1315  0.2107
17613TIP3    H153721   1.807  10.534   2.104  1.9119  1.2267  0.7147
17613TIP3    H253722   1.807  10.390   2.152 -0.0018  0.5567 -1.1511
17614TIP3   OH253723   4.415   9.615   1.509  0.4314  0.1684 -0.2479
17614TIP3    H153724   4.358   9.546   1.542  0.0422  0.0145 -1.1964
17614TIP3    H253725   4.459   9.650   1.586 -0.0121 -0.5620  0.3418
17615TIP3   OH253726   5.424   9.853   0.175  0.4018  0.5431  0.2951
17615TIP3    H153727   5.457   9.773   0.133  1.3949  0.6278  0.8900
17615TIP3    H253728   5.342   9.825   0.216  0.8771 -0.2474  0.7357
17616TIP3   OH253729   9.326   9.912   8.156 -0.0021 -0.4742 -0.9366
17616TIP3    H153730   9.247   9.910   8.103  0.7918 -2.2340 -2.1332
17616TIP3    H253731   9.377   9.836   8.128  0.9277 -0.9307  1.6718
17617TIP3   OH253732   1.543   6.218   9.781  0.0568  1.1383  0.5767
17617TIP3    H153733   1.565   6.151   9.846  0.2810  1.4068  0.7737
17617TIP3    H253734   1.547   6.171   9.697 -1.5054  0.4556  0.8445
17618TIP3   OH253735   6.025   1.405   8.889 -0.0172  0.3613  0.6687
17618TIP3    H153736   6.048   1.320   8.851  0.6649  0.8533 -0.0497
17618TIP3    H253737   5.935   1.420   8.861 -0.2065 -0.2009  0.9506
17619TIP3   OH253738   5.383   3.997   3.522  0.2066 -0.1926  0.2760
17619TIP3    H153739   5.346   4.076   3.563 -0.2646  0.1500 -0.7696
17619TIP3    H253740   5.459   4.029   3.473  0.9713 -0.6515  1.1367
17620TIP3   OH253741  10.542   3.021   5.821 -0.9109 -0.2793 -0.0355
17620TIP3    H153742  10.624   3.051   5.782 -0.0613 -2.4996 -0.1224
17620TIP3    H253743  10.506   2.961   5.755 -1.2346 -1.3570  1.0832
17621TIP3   OH253744   3.684   6.290   8.575 -0.0865 -0.0844 -0.0167
17621TIP3    H153745   3.738   6.357   8.615  0.9407 -0.9531  0.0874
17621TIP3    H253746   3.701   6.298   8.481  1.1450 -1.0849  0.0873
17622TIP3   OH253747   6.373   3.157   3.012 -0.0457  0.7625  0.1891
17622TIP3    H153748   6.293   3.138   2.963  0.4362  0.6931 -0.5793
17622TIP3    H253749   6.373   3.092   3.083 -0.1934  0.1515 -0.3656
17623TIP3   OH253750   2.639   5.143   8.732 -0.2183  0.6462 -0.1924
17623TIP3    H153751   2.596   5.223   8.702 -0.5873  0.7711  0.6494
17623TIP3    H253752   2.702   5.122   8.662 -0.8070  1.1172 -0.8748
17624TIP3   OH253753   0.127   9.360   4.313 -0.3355  0.2242 -0.4030
17624TIP3    H153754   0.198   9.376   4.376 -2.3760  1.3165  1.7821
17624TIP3    H253755   0.073   9.293   4.354 -1.6251  0.8261 -1.0576
17625TIP3   OH253756   4.924   9.288   1.206 -0.0199  0.4595 -0.2354
17625TIP3    H153757   5.004   9.241   1.183 -0.1214  0.0191  0.3076
17625TIP3    H253758   4.949   9.380   1.204  0.0995  0.4250 -1.6293
17626TIP3   OH253759   5.701   7.571   0.641  0.0479  0.1643  0.5581
17626TIP3    H153760   5.682   7.605   0.553  0.1792 -2.1022 -0.4159
17626TIP3    H253761   5.620   7.585   0.690  0.1387  1.9226  0.2768
17627TIP3   OH253762   2.891   4.563   7.560  0.4478 -0.0365 -0.1341
17627TIP3    H153763   2.970   4.509   7.555 -0.1866 -0.9134 -1.0059
17627TIP3    H253764   2.878   4.578   7.653 -0.0598 -2.4580  0.2278
17628TIP3   OH253765   8.727   9.036   3.812 -0.1610  0.0322  0.1342
17628TIP3    H153766   8.690   9.034   3.724  0.6547 -0.4846 -0.2019
17628TIP3    H253767   8.799   9.099   3.806  0.5891 -0.8125  0.1459
17629TIP3   OH253768   1.796   5.185   0.177 -0.2177  0.2305  0.1170
17629TIP3    H153769   1.822   5.106   0.224 -3.0587 -0.2711  1.0780
17629TIP3    H253770   1.849   5.254   0.215  2.1283 -1.0870 -0.5426
17630TIP3   OH253771   3.689  10.752   6.068  0.2932 -0.1257  0.3298
17630TIP3    H153772   3.597  10.725   6.078  0.4692 -0.6489  0.5591
17630TIP3    H253773   3.736  10.670   6.051  0.5084  0.2872 -1.3066
17631TIP3   OH253774  10.069  10.669   4.074  0.0233  0.0296  0.0822
17631TIP3    H153775  10.159  10.676   4.043  0.5299 -2.1106  0.9312
17631TIP3    H253776  10.064  10.731   4.147  0.6644  0.4826 -0.2461
17632TIP3   OH253777   5.947   2.420   1.307 -0.2850 -0.8024 -0.1077
17632TIP3    H153778   5.956   2.460   1.221  0.6089 -1.2304 -0.2152
17632TIP3    H253779   5.857   2.440   1.333 -0.8024 -1.2851 -1.4435
17633TIP3   OH253780  10.611   6.578   0.256 -0.0012 -0.5447 -0.0980
17633TIP3    H153781  10.696   6.620   0.270 -0.6026  1.1337 -1.1881
17633TIP3    H253782  10.547   6.646   0.277 -1.2330 -2.4166  2.9182
17634TIP3   OH253783   8.063   5.485   2.101 -0.1191  0.0542 -0.5922
17634TIP3    H153784   8.042   5.393   2.117 -2.3995  0.4046 -1.1822
17634TIP3    H253785   8.027   5.503   2.014  1.3722  1.2126 -1.0058
17635TIP3   OH253786   8.858   4.938   3.158 -0.2731  0.1322  0.3165
17635TIP3    H153787   8.882   4.939   3.251  1.6753  0.0836 -0.1266
17635TIP3    H253788   8.926   4.885   3.117  0.2340  2.0129 -1.4357
17636TIP3   OH253789   5.889   7.184   9.505  0.1328 -0.1731  0.5669
17636TIP3    H153790   5.926   7.116   9.561 -0.5472  0.7583  2.1920
17636TIP3    H253791   5.859   7.251   9.565  1.7098  2.0983 -1.0248
17637TIP3   OH253792   6.422   4.255   6.965 -0.2896 -0.7840 -0.5032
17637TIP3    H153793   6.479   4.317   6.919  1.0472 -1.9552 -0.4957
17637TIP3    H253794   6.357   4.230   6.900 -2.1631  2.1198  0.0656
17638TIP3   OH253795   1.956   7.330   0.964  0.2093 -0.2688 -0.0719
17638TIP3    H153796   1.947   7.237   0.983  1.3277  0.1078  2.9826
17638TIP3    H253797   2.037   7.355   1.009 -0.4913  2.3150 -0.0939
17639TIP3   OH253798   3.473   4.102   2.787 -0.0502  0.3614  0.6142
17639TIP3    H153799   3.519   4.099   2.703 -0.6463  0.5983  0.2730
17639TIP3    H253800   3.382   4.118   2.764 -0.0610  1.4752  1.3471
17640TIP3   OH253801   6.862   9.157   5.616 -0.0988 -0.7414  0.2054
17640TIP3    H153802   6.779   9.190   5.649 -0.3169 -0.6144 -0.4545
17640TIP3    H253803   6.928   9.216   5.652 -0.5694  1.3309 -2.0407
17641TIP3   OH253804  10.737   3.242   8.241 -0.0147  0.1664  0.4457
17641TIP3    H153805  10.677   3.317   8.242 -1.6483 -1.0986  1.8658
17641TIP3    H253806  10.815   3.275   8.196 -2.0553  1.6452 -2.3090
17642TIP3   OH253807   7.615   7.593   3.517 -0.1142 -0.2059 -0.3540
17642TIP3    H153808   7.660   7.644   3.450  0.2262  1.2661  0.9282
17642TIP3    H253809   7.531   7.636   3.528 -0.8661 -1.4571 -0.9946
17643TIP3   OH253810   5.708   2.046   9.799 -0.4193  0.7338 -0.3077
17643TIP3    H153811   5.630   2.013   9.754  1.4354 -3.1217 -1.1577
17643TIP3    H253812   5.697   2.015   9.889 -0.5478  1.5670 -0.0311
17644TIP3   OH253813   7.681   0.317   7.431  0.0528  0.0378 -0.2949
17644TIP3    H153814   7.705   0.229   7.400 -0.2610  0.1915 -0.9808
17644TIP3    H253815   7.586   0.322   7.418 -0.0402  0.2315  0.3925
17645TIP3   OH253816   1.006   9.028   4.392 -0.3345 -0.0483  0.0087
17645TIP3    H153817   1.069   8.979   4.445 -1.0798 -1.9905 -0.7976
17645TIP3    H253818   0.922   8.985   4.409 -1.3910  2.1226  0.6265
17646TIP3   OH253819   2.222  10.859   8.523  0.2574  0.6347  0.0625
17646TIP3    H153820   2.265  10.924   8.578  1.7307 -0.6198  0.4585
17646TIP3    H253821   2.185  10.795   8.584  0.1180  0.3074 -0.3551
17647TIP3   OH253822   7.389   7.135   6.758  0.3386  0.2418  0.1993
17647TIP3    H153823   7.469   7.187   6.753  0.4860 -0.0674 -1.5921
17647TIP3    H253824   7.415   7.057   6.807  0.6335  0.9475  1.1986
17648TIP3   OH253825   4.601   2.421   0.483 -0.6308  0.1171 -0.1969
17648TIP3    H153826   4.514   2.447   0.512 -1.0152  0.3042 -1.4259
17648TIP3    H253827   4.636   2.367   0.554 -0.9505  1.6470  1.1742
17649TIP3   OH253828   9.550   7.273   4.027  0.4267 -0.4682 -0.3433
17649TIP3    H153829   9.485   7.253   3.960 -0.6287 -2.1258  1.0788
17649TIP3    H253830   9.606   7.195   4.031 -0.8919 -1.4307  2.1219
17650TIP3   OH253831   8.556   9.888   6.242 -0.6028 -0.4471  0.7760
17650TIP3    H153832   8.558   9.973   6.198 -0.1897 -0.0915  1.4566
17650TIP3    H253833   8.475   9.846   6.211  0.0525 -0.5506 -0.9068
17651TIP3   OH253834   0.982   9.518   7.720 -0.8530 -0.4805 -0.6780
17651TIP3    H153835   1.032   9.555   7.647  0.4039  1.2482  0.9496
17651TIP3    H253836   0.900   9.568   7.721  0.0056  0.9930  0.2940
17652TIP3   OH253837   3.969   3.500   4.939 -0.3122 -0.0498 -0.0899
17652TIP3    H153838   3.953   3.562   4.868  1.5157  0.2854 -0.2693
17652TIP3    H253839   3.955   3.550   5.019 -1.0859 -0.0594 -0.2142
17653TIP3   OH253840   0.109   8.757   8.495 -0.2863  0.5847 -1.1808
17653TIP3    H153841   0.132   8.747   8.588  1.6030 -0.8361 -1.7401
17653TIP3    H253842   0.084   8.849   8.486 -1.0268  0.6415  0.8165
17654TIP3   OH253843   2.656   4.348   7.650 -0.6326 -0.2969  0.2026
17654TIP3    H153844   2.624   4.437   7.668 -3.3319 -1.5794  2.5880
17654TIP3    H253845   2.595   4.314   7.585  1.1877 -0.0579 -1.7104
17655TIP3   OH253846   1.066   6.101   6.467 -0.6532 -0.3145 -0.0565
17655TIP3    H153847   1.140   6.161   6.476 -0.2670 -1.0086  1.7565
17655TIP3    H253848   1.035   6.115   6.377  2.1606 -0.5850 -1.1700
17656TIP3   OH253849   8.237   0.616  10.886 -0.0553  0.5333  0.0973
17656TIP3    H153850   8.197   0.592  10.803 -0.4201 -1.9644  0.9169
17656TIP3    H253851   8.176   0.678  10.926 -1.4256 -0.6046 -0.1794
17657TIP3   OH253852  10.388   0.220   4.256 -0.3793  0.1203 -0.9556
17657TIP3    H153853  10.401   0.131   4.288  0.5383  0.8769  0.9192
17657TIP3    H253854  10.293   0.232   4.256 -0.4762 -0.6008 -0.5141
17658TIP3   OH253855   6.292   6.223  10.433  0.0972  0.1725  0.5444
17658TIP3    H153856   6.301   6.270  10.350 -4.7072  2.4050  0.9751
17658TIP3    H253857   6.345   6.273  10.495  2.9279 -0.9445 -0.7724
17659TIP3   OH253858  10.218   8.219   6.924 -0.1512 -0.3835  0.4453
17659TIP3    H153859  10.248   8.279   6.856  1.7659 -0.7863  0.8836
17659TIP3    H253860  10.123   8.226   6.921 -0.0562  0.9352 -1.0651
17660TIP3   OH253861   5.071   6.056   4.292 -0.0411 -0.5404  0.0969
17660TIP3    H153862   5.132   6.118   4.332  0.5688 -1.8064  1.1601
17660TIP3    H253863   5.036   6.104   4.216 -0.6702  1.6581  1.6459
17661TIP3   OH253864   2.695   6.481   9.530 -0.3600 -0.0489 -0.3006
17661TIP3    H153865   2.749   6.440   9.464 -1.8273  0.1418 -1.6811
17661TIP3    H253866   2.672   6.567   9.494  0.6995  1.0483  1.4903
17662TIP3   OH253867   0.560   9.913   4.842  0.1607 -0.8880  0.1587
17662TIP3    H153868   0.586   9.835   4.891 -0.8438 -1.3143  0.0154
17662TIP3    H253869   0.639   9.968   4.843  0.9227 -1.9453  0.1526
17663TIP3   OH253870   5.148   0.212   4.509 -0.2088 -0.1676  0.4982
17663TIP3    H153871   5.125   0.222   4.602 -0.4546  0.4341  0.3762
17663TIP3    H253872   5.088   0.270   4.463  0.3319  0.0199  0.0179
17664TIP3   OH253873   6.482   6.378   9.778  0.4277  0.1298  0.3608
17664TIP3    H153874   6.448   6.347   9.694 -2.1412 -0.1574  1.4226
17664TIP3    H253875   6.527   6.302   9.815  1.0585  0.0845 -0.4575
17665TIP3   OH253876   1.179   1.769   5.264 -0.4618 -0.1258  0.0084
17665TIP3    H153877   1.263   1.805   5.292  0.9716 -0.6304 -3.1049
17665TIP3    H253878   1.155   1.707   5.332  0.5277  1.6490  2.0681
17666TIP3   OH253879  10.562   2.803   6.486  0.1064 -0.4341  0.2563
17666TIP3    H153880  10.639   2.802   6.544 -0.3434  0.0838  0.8784
17666TIP3    H253881  10.489   2.784   6.544 -0.3269 -0.1232 -0.1826
17667TIP3   OH253882   6.823   3.131   8.360 -0.1723 -0.1042 -0.1351
17667TIP3    H153883   6.765   3.085   8.422  2.3925 -2.0671  0.9907
17667TIP3    H253884   6.807   3.088   8.276 -1.8292  0.8487 -0.3569
17668TIP3   OH253885   0.054   1.851   6.703 -0.3563  0.7050 -0.3237
17668TIP3    H153886   0.104   1.885   6.778 -0.3780 -0.0851  0.0640
17668TIP3    H253887   0.067   1.757   6.706 -1.2301  0.5555 -0.6866
17669TIP3   OH253888   6.903   4.353   1.702 -0.1326 -0.2836 -0.0275
17669TIP3    H153889   6.865   4.436   1.732 -1.3110  0.1538 -2.5152
17669TIP3    H253890   6.919   4.366   1.609  3.0782 -1.6548  0.2010
17670TIP3   OH253891   1.057   7.838   4.369 -0.8220  0.2944 -0.6810
17670TIP3    H153892   1.014   7.842   4.454 -1.6772 -2.2406 -0.9043
17670TIP3    H253893   0.990   7.802   4.310  0.1692  0.7287 -2.1391
17671TIP3   OH253894   2.921   5.301   1.816  0.1268  0.0087 -0.1454
17671TIP3    H153895   2.860   5.277   1.746  0.7296  0.8675 -0.9814
17671TIP3    H253896   2.990   5.350   1.772  0.9865 -0.2173  0.9252
17672TIP3   OH253897   2.102   1.372   7.593  0.2709  0.1612 -0.8201
17672TIP3    H153898   2.037   1.387   7.662 -0.9666 -1.4993 -1.5457
17672TIP3    H253899   2.180   1.342   7.640 -0.3977 -0.5000 -0.1103
17673TIP3   OH253900   8.962   5.273   7.867 -0.1552  0.0530  0.2420
17673TIP3    H153901   8.888   5.317   7.910 -0.2805 -0.2633  0.3465
17673TIP3    H253902   9.018   5.244   7.939 -1.1914 -1.9552  0.2807
17674TIP3   OH253903   0.303  10.862   5.646  0.6061 -0.0631  0.2658
17674TIP3    H153904   0.341  10.795   5.589  1.1112  1.2018 -0.9762
17674TIP3    H253905   0.370  10.931   5.647 -0.2084  0.7272  0.8893
17675TIP3   OH253906  10.514   7.040   9.870  0.7229 -0.2556 -0.3140
17675TIP3    H153907  10.583   7.106   9.871  3.0971 -2.5078 -2.0608
17675TIP3    H253908  10.512   7.008   9.780 -0.9514 -1.9259  0.2500
17676TIP3   OH253909   3.857   0.925   6.513  0.0757  0.5757 -0.0689
17676TIP3    H153910   3.795   0.984   6.555  0.3377  1.3079 -0.7000
17676TIP3    H253911   3.856   0.847   6.569 -0.1769  1.2129  0.8491
17677TIP3   OH253912   1.925   5.206   1.940 -0.3208 -0.7927 -0.3268
17677TIP3    H153913   1.984   5.131   1.947 -0.4801 -0.8078  1.2463
17677TIP3    H253914   1.959   5.268   2.005 -1.2632 -0.2746 -0.3198
17678TIP3   OH253915   7.834   3.326  10.504  0.2210 -0.0321  0.0239
17678TIP3    H153916   7.927   3.304  10.509  0.2386  0.1834  0.7632
17678TIP3    H253917   7.801   3.275  10.430  1.1199  0.6030 -0.8405
17679TIP3   OH253918   0.113   0.278  10.480  0.2802 -0.2542 -0.0456
17679TIP3    H153919   0.060   0.340  10.429  0.6606  0.2498  0.1580
17679TIP3    H253920   0.119   0.316  10.567 -0.6631 -1.2980  0.4949
17680TIP3   OH253921   3.786   1.197   1.781  0.0722  0.3035  0.0666
17680TIP3    H153922   3.820   1.286   1.772 -0.3176  0.5237  0.7143
17680TIP3    H253923   3.826   1.164   1.861 -0.5309  0.2479  0.3500
17681TIP3   OH253924   8.121   0.938   2.724 -0.1535  0.2168  0.2330
17681TIP3    H153925   8.179   0.944   2.648 -1.0397  0.1888 -0.4593
17681TIP3    H253926   8.036   0.913   2.688 -0.4937 -0.2180  1.2820
17682TIP3   OH253927   7.481   9.026   2.092  0.5803  0.3957  0.1209
17682TIP3    H153928   7.465   9.040   2.185 -0.1022 -2.1007  0.4382
17682TIP3    H253929   7.394   9.009   2.056  0.9439  0.4835 -0.8190
17683TIP3   OH253930   5.908   0.299   2.118  0.2372 -0.2227  0.3573
17683TIP3    H153931   5.867   0.334   2.039 -2.6275  1.0480  2.2245
17683TIP3    H253932   5.860   0.217   2.134  0.3017 -0.1122  1.1295
17684TIP3   OH253933   4.791   8.965   6.664 -0.6269 -0.1704  0.2281
17684TIP3    H153934   4.816   9.046   6.619 -1.0365 -1.9821 -3.7150
17684TIP3    H253935   4.723   8.991   6.726 -0.1044  2.5781 -0.2191
17685TIP3   OH253936   2.880   9.480   2.615  0.1710  0.2126 -0.5337
17685TIP3    H153937   2.899   9.407   2.556 -1.4409 -0.6018 -0.0939
17685TIP3    H253938   2.902   9.447   2.702  0.6063  0.6950 -0.4555
17686TIP3   OH253939   3.358   5.461   3.901 -0.4465  0.1600 -0.3929
17686TIP3    H153940   3.321   5.473   3.814  1.0894 -0.6428 -1.2041
17686TIP3    H253941   3.453   5.455   3.887 -0.1600 -0.0882  1.3198
17687TIP3   OH253942   9.878   2.945   4.357  0.8050  0.4378  0.2808
17687TIP3    H153943   9.913   2.943   4.268 -0.1868 -1.1721 -0.1076
17687TIP3    H253944   9.808   2.880   4.357 -0.0796  1.3226  1.8973
17688TIP3   OH253945   6.749   8.470   5.007 -0.1249 -0.1783 -0.5496
17688TIP3    H153946   6.779   8.394   4.957  0.0172 -0.2687 -0.3279
17688TIP3    H253947   6.817   8.536   4.991 -1.3806  0.7129 -2.6273
17689TIP3   OH253948   4.985   9.838   9.624 -0.5278  0.1063  0.0633
17689TIP3    H153949   4.943   9.787   9.692  1.0536 -0.6937  0.4838
17689TIP3    H253950   4.918   9.849   9.556 -0.7674 -3.1040 -0.3633
17690TIP3   OH253951  10.352   4.354   6.359  0.0395  0.7007  0.3796
17690TIP3    H153952  10.335   4.408   6.436 -0.0292  1.2725 -0.0324
17690TIP3    H253953  10.354   4.265   6.392  0.6136  0.9939  1.1461
17691TIP3   OH253954   9.276   4.883   3.277 -0.1275 -0.1665  0.5901
17691TIP3    H153955   9.309   4.793   3.277  0.7561  0.1369 -0.1463
17691TIP3    H253956   9.292   4.915   3.366 -0.5224 -0.7592  0.8783
17692TIP3   OH253957   5.935   5.868   9.161 -0.2058  0.1490  0.0095
17692TIP3    H153958   5.985   5.815   9.224  1.2750  1.1479 -0.2658
17692TIP3    H253959   5.859   5.899   9.210 -0.0485 -0.6008  0.7468
17693TIP3   OH253960   0.977   6.090   2.568 -0.1461  0.0677 -0.5250
17693TIP3    H153961   0.936   6.048   2.492  0.2027  0.2982 -0.8414
17693TIP3    H253962   1.041   6.150   2.531 -0.8539  1.1353 -0.0922
17694TIP3   OH253963   6.758   5.579   2.489  0.0455 -0.6111  0.3604
17694TIP3    H153964   6.760   5.486   2.467 -1.6794 -0.5432 -0.2135
17694TIP3    H253965   6.694   5.586   2.560  0.5769  0.0733  0.7884
17695TIP3   OH253966   2.374  10.476   3.658 -0.0355  0.0367 -0.2292
17695TIP3    H153967   2.409  10.388   3.643  1.6933  0.9429 -1.8304
17695TIP3    H253968   2.343  10.504   3.572  0.1678  1.3197  0.1048
17696TIP3   OH253969   4.097   0.495   6.787  0.2832 -0.8986  0.0731
17696TIP3    H153970   4.016   0.448   6.808  0.2176 -1.0008 -0.4045
17696TIP3    H253971   4.124   0.534   6.871 -1.2749  0.7225 -0.1147
17697TIP3   OH253972  10.091   4.175   2.554 -0.3602 -0.7107 -0.5776
17697TIP3    H153973  10.118   4.119   2.482 -3.0774 -1.2287 -1.2914
17697TIP3    H253974  10.000   4.153   2.569 -0.3855  0.6806  1.8490
17698TIP3   OH253975   8.479   3.714   9.086  0.5451 -0.1567 -0.4067
17698TIP3    H153976   8.514   3.756   9.164  0.4556 -1.3939  0.3271
17698TIP3    H253977   8.546   3.650   9.061  0.1378 -0.4582 -0.7471
17699TIP3   OH253978   2.926   1.629   7.422  0.1953 -0.0844  0.0714
17699TIP3    H153979   2.965   1.653   7.505  0.6951 -1.6353  0.3196
17699TIP3    H253980   2.931   1.533   7.419  0.1461 -0.0800 -1.7137
17700TIP3   OH253981   2.769   7.166   5.125  0.1693 -0.2984 -0.4269
17700TIP3    H153982   2.700   7.156   5.190  0.8576 -1.0271  0.2155
17700TIP3    H253983   2.723   7.194   5.046 -0.7697 -0.0861  0.1718
17701TIP3   OH253984   1.580   5.753   6.183  0.3679  0.2622 -0.3907
17701TIP3    H153985   1.644   5.758   6.254  0.7432 -0.8208 -0.6302
17701TIP3    H253986   1.496   5.766   6.226  0.6345  0.1958  0.1607
17702TIP3   OH253987   7.125  10.484   8.018  0.0609  0.5044 -0.2550
17702TIP3    H153988   7.052  10.435   8.055  0.1517  0.1114 -0.6023
17702TIP3    H253989   7.133  10.453   7.928  0.0448  1.2334 -0.5170
17703TIP3   OH253990   8.837   2.420   0.874 -0.5185  0.0744 -0.4793
17703TIP3    H153991   8.862   2.476   0.947 -1.3832 -0.1185 -0.0236
17703TIP3    H253992   8.909   2.357   0.867 -0.8435 -0.4839  0.8151
17704TIP3   OH253993   4.860   1.660   2.098  0.3087 -0.4641  0.2633
17704TIP3    H153994   4.909   1.733   2.062  1.2453 -0.6463  1.1088
17704TIP3    H253995   4.796   1.701   2.157 -0.5626 -0.2279 -0.8206
17705TIP3   OH253996   7.132   3.625   5.750 -0.2043 -0.4205  0.0562
17705TIP3    H153997   7.133   3.567   5.826 -0.7784 -0.1201  0.2973
17705TIP3    H253998   7.100   3.709   5.784  0.2677 -0.0664 -0.3638
17706TIP3   OH253999   6.370   0.602   7.773  0.0929  0.2798  0.0785
17706TIP3    H154000   6.418   0.554   7.706 -0.1467  1.6526 -1.1058
17706TIP3    H254001   6.312   0.660   7.725  0.8864  2.3037  1.4361
17707TIP3   OH254002   3.189   4.980   2.500 -0.2158  0.1152 -0.2322
17707TIP3    H154003   3.133   4.932   2.561 -0.0175  0.7245  0.4502
17707TIP3    H254004   3.134   4.994   2.423 -0.8935  0.4017  0.2908
17708TIP3   OH254005   1.505   9.591   0.017 -0.5065 -0.0414 -0.2189
17708TIP3    H154006   1.566   9.606  -0.056 -0.3661  1.2483  0.1239
17708TIP3    H254007   1.419   9.613  -0.019 -0.6972 -1.1843 -0.5010
17709TIP3   OH254008   6.671   5.773  10.220 -0.0986 -0.1014  0.0688
17709TIP3    H154009   6.657   5.840  10.287  3.2605  0.2892  0.5628
17709TIP3    H254010   6.733   5.712  10.259  0.0422 -1.2538 -1.8186
17710TIP3   OH254011   9.073   1.500   3.760 -0.6898 -0.4504  0.3367
17710TIP3    H154012   9.050   1.482   3.851  0.5054 -1.0088  0.5378
17710TIP3    H254013   9.040   1.424   3.711 -0.7296 -0.4688  0.3928
17711TIP3   OH254014   0.831   7.188   0.217 -0.3108  0.3702 -0.4341
17711TIP3    H154015   0.780   7.247   0.273 -1.3493  0.6352 -1.6214
17711TIP3    H254016   0.824   7.226   0.129  2.3912  0.7055 -0.5859
17712TIP3   OH254017   9.461  10.022   8.819 -0.1915 -0.2560 -0.1257
17712TIP3    H154018   9.397   9.989   8.882 -0.6014 -1.7527 -1.2805
17712TIP3    H254019   9.456   9.963   8.745  1.3488  0.5817 -0.9710
17713TIP3   OH254020   3.987   8.893   9.428 -0.1093  0.4130  0.2059
17713TIP3    H154021   3.967   8.802   9.405  0.8699  0.2778 -0.1597
17713TIP3    H254022   3.970   8.898   9.522 -0.6886 -0.0015  0.1285
17714TIP3   OH254023   8.464   4.183   9.676  0.1246  0.0169  0.3681
17714TIP3    H154024   8.472   4.108   9.736 -0.4980  0.4463  1.0081
17714TIP3    H254025   8.519   4.250   9.716 -0.6261  0.4469  0.6944
17715TIP3   OH254026   9.048   2.673   9.541  0.4189 -0.2050 -0.4024
17715TIP3    H154027   9.096   2.726   9.477 -0.9063 -0.3269 -1.5522
17715TIP3    H254028   9.067   2.714   9.625  1.7115  0.3466 -0.9426
17716TIP3   OH254029   2.024   8.190   4.539  0.2465  0.5143 -0.3121
17716TIP3    H154030   1.987   8.123   4.596  1.3158 -0.1519 -0.3701
17716TIP3    H254031   1.952   8.252   4.524 -0.6704 -0.4660 -0.0319
17717TIP3   OH254032   7.290   9.500   2.387 -0.4683  0.2826  0.0811
17717TIP3    H154033   7.217   9.549   2.348 -0.5148  0.2625  0.1443
17717TIP3    H254034   7.356   9.566   2.406 -0.4828  0.3049  0.0548
17718TIP3   OH254035   8.756   6.835   3.425  0.3276 -0.1288  0.0322
17718TIP3    H154036   8.725   6.910   3.374  0.2539  0.3696  0.7865
17718TIP3    H254037   8.690   6.767   3.410  0.1029  0.1420 -0.2262
17719TIP3   OH254038  10.080   6.578   8.072  0.2215  0.6537  0.2912
17719TIP3    H154039  10.093   6.593   8.166  0.3218 -2.6424  0.9235
17719TIP3    H254040   9.989   6.550   8.065 -0.0543  1.7314 -0.7785
17720TIP3   OH254041   4.085   3.550   9.098  0.1046 -0.2112  0.0261
17720TIP3    H154042   4.015   3.579   9.040 -0.1130  0.3799  0.5730
17720TIP3    H254043   4.081   3.455   9.095  1.5601 -0.2806 -2.6966
17721TIP3   OH254044   9.125   5.148   9.748  0.6045  0.0594 -0.6418
17721TIP3    H154045   9.048   5.204   9.747  0.1361 -0.5575  0.0603
17721TIP3    H254046   9.120   5.101   9.831  0.8258 -1.2254 -1.3134
17722TIP3   OH254047   1.509   9.839   7.128 -0.3673  0.6913 -0.0897
17722TIP3    H154048   1.600   9.846   7.100 -0.2026 -0.1699  0.2016
17722TIP3    H254049   1.477   9.929   7.127 -0.0990  0.8025 -2.0733
17723TIP3   OH254050   1.646   1.024   9.443  0.3592  0.4260 -0.3082
17723TIP3    H154051   1.631   0.946   9.497  0.0302  0.6106 -0.1322
17723TIP3    H254052   1.706   0.994   9.374  0.0820 -0.0290 -0.3547
17724TIP3   OH254053   4.242   6.940   9.293 -0.0323 -0.1487 -0.0400
17724TIP3    H154054   4.251   6.877   9.222  1.2017 -1.0275  0.8721
17724TIP3    H254055   4.250   6.888   9.373 -3.1685  0.5232  0.8467
17725TIP3   OH254056  10.277   9.487   0.440 -0.0903 -0.0031  0.4972
17725TIP3    H154057  10.249   9.562   0.492 -1.4682 -0.2925  0.2012
17725TIP3    H254058  10.286   9.416   0.504  1.5093  0.4346  0.8271
17726TIP3   OH254059   0.752   9.894   2.605 -0.4578 -0.1059  0.2711
17726TIP3    H154060   0.680   9.859   2.554 -1.2806  0.1342  1.2265
17726TIP3    H254061   0.736   9.989   2.608 -0.1111 -0.0500  0.5026
17727TIP3   OH254062   7.749   5.038   7.841  0.1080 -0.1042  0.5733
17727TIP3    H154063   7.661   5.076   7.842 -0.5403 -1.5235  1.9183
17727TIP3    H254064   7.799   5.092   7.903  0.1075  0.5037  0.0520
17728TIP3   OH254065  10.679   8.281   2.298  0.0412  0.2663 -0.3734
17728TIP3    H154066  10.773   8.274   2.314 -0.0176 -1.9522 -0.6559
17728TIP3    H254067  10.671   8.351   2.234  1.3618  1.3715  0.6157
17729TIP3   OH254068  10.141   1.355   6.189  0.6343 -0.5102  0.2352
17729TIP3    H154069  10.102   1.313   6.112  0.2594 -0.1422  0.2244
17729TIP3    H254070  10.102   1.310   6.264  1.0223 -0.8896  0.2125
17730TIP3   OH254071   2.128   1.664   7.597 -0.2323  0.2146  0.0401
17730TIP3    H154072   2.197   1.646   7.661  2.0688  0.7164 -2.1166
17730TIP3    H254073   2.094   1.578   7.573  2.6812 -0.5482 -1.8735
17731TIP3   OH254074   9.643   9.830   8.314 -0.4655 -0.5265  0.7128
17731TIP3    H154075   9.688   9.908   8.346  0.0657 -0.8773  0.8339
17731TIP3    H254076   9.668   9.824   8.222 -1.3140  0.0062  0.4334
17732TIP3   OH254077   5.112  10.162   6.217 -0.1827  0.0044 -0.2264
17732TIP3    H154078   5.025  10.147   6.180 -1.4350  2.4168  1.4169
17732TIP3    H254079   5.133  10.080   6.261 -1.2494 -0.9057 -1.3239
17733TIP3   OH254080   4.268   8.036   5.440  0.3433 -0.4015  0.1971
17733TIP3    H154081   4.194   8.067   5.388 -0.4102 -0.9578  0.9152
17733TIP3    H254082   4.296   8.113   5.490 -1.5338 -0.8225  1.9926
17734TIP3   OH254083   8.520   8.928   6.580 -0.2228 -0.1464  0.0422
17734TIP3    H154084   8.577   8.986   6.530  0.0063 -0.0486  0.4137
17734TIP3    H254085   8.565   8.915   6.663 -0.5169 -0.4486  0.1599
17735TIP3   OH254086   5.183   9.810   2.998 -0.1858  0.3607  0.0599
17735TIP3    H154087   5.271   9.810   3.035 -0.2262  3.3588  0.3924
17735TIP3    H254088   5.126   9.834   3.071 -1.1514 -0.4016 -0.4200
17736TIP3   OH254089   4.547   7.380   3.686  0.5328 -0.2923 -0.3102
17736TIP3    H154090   4.541   7.294   3.727  3.1253 -1.0807 -1.3659
17736TIP3    H254091   4.600   7.366   3.608 -0.1008  2.0419 -1.2442
17737TIP3   OH254092   7.299   8.487   0.308 -0.1864  0.0353  0.2817
17737TIP3    H154093   7.315   8.441   0.390 -0.3144  0.6441  0.6549
17737TIP3    H254094   7.386   8.519   0.281 -0.1711 -0.0209  0.2640
17738TIP3   OH254095   3.677   5.626   6.997 -0.4341 -0.1856 -0.2830
17738TIP3    H154096   3.710   5.701   6.948 -0.7878  0.4395  0.4071
17738TIP3    H254097   3.743   5.611   7.065 -0.6620 -0.1056 -0.0421
17739TIP3   OH254098   3.526  10.104   4.350 -0.3118 -0.0631  0.1922
17739TIP3    H154099   3.451  10.164   4.355 -0.6474 -0.3371 -1.1028
17739TIP3    H254100   3.596  10.157   4.313 -0.5891 -0.4319 -0.8898
17740TIP3   OH254101   7.384   8.535   9.684 -0.0155  0.1545 -0.3353
17740TIP3    H154102   7.338   8.616   9.663  0.6371 -0.0287 -2.8398
17740TIP3    H254103   7.317   8.466   9.672 -0.4032  0.2370  1.1753
17741TIP3   OH254104   5.069   2.904   5.377 -0.0652 -0.5029  0.4930
17741TIP3    H154105   4.985   2.941   5.403  0.5936  2.1730 -0.7785
17741TIP3    H254106   5.047   2.836   5.314 -1.2875  0.4859 -0.1860
17742TIP3   OH254107   1.671  10.502   6.720 -0.4877  0.3422  0.8244
17742TIP3    H154108   1.621  10.424   6.744  0.2129 -0.2186  0.5038
17742TIP3    H254109   1.715  10.479   6.638  0.5645  0.6829  1.2679
17743TIP3   OH254110   5.606   0.502   8.289 -0.5555 -0.5061 -0.0738
17743TIP3    H154111   5.655   0.503   8.371 -0.0248 -1.6226 -0.3531
17743TIP3    H254112   5.532   0.561   8.305  0.0252 -0.0004  0.8862
17744TIP3   OH254113   5.411   4.853   5.231  0.9125 -0.2298 -0.2137
17744TIP3    H154114   5.432   4.869   5.323 -0.7182  0.8805  0.0158
17744TIP3    H254115   5.476   4.789   5.202  4.4605  2.7895  0.3734
17745TIP3   OH254116  10.887  10.180   1.524  0.5287  0.2463  0.0412
17745TIP3    H154117  10.976  10.146   1.538  0.0548 -0.8756  0.4212
17745TIP3    H254118  10.841  10.110   1.478 -0.7988 -0.1310  1.8245
17746TIP3   OH254119   4.440   5.348   4.609  0.0481  0.6791  0.1047
17746TIP3    H154120   4.388   5.303   4.676 -2.5338 -0.4145 -2.4499
17746TIP3    H254121   4.496   5.280   4.571 -0.1718  0.7670 -0.3815
17747TIP3   OH254122   4.956   3.258  10.877 -0.1629  0.5745 -0.7527
17747TIP3    H154123   5.010   3.337  10.884 -1.1671  1.2743 -0.6058
17747TIP3    H254124   4.894   3.278  10.807 -0.6722  0.0664 -0.4595
17748TIP3   OH254125   8.337   0.340   8.731 -0.6696 -0.0158  0.3218
17748TIP3    H154126   8.338   0.248   8.760  0.4684  0.2789  1.2966
17748TIP3    H254127   8.339   0.335   8.635  0.6891 -1.0203  0.3732
17749TIP3   OH254128   0.269   9.487   2.165 -0.9760 -0.2505  0.2790
17749TIP3    H154129   0.214   9.566   2.165 -1.4805 -0.5727 -0.7029
17749TIP3    H254130   0.356   9.518   2.188 -1.5963  0.2419  2.0745
17750TIP3   OH254131   0.246  10.679   2.700  0.5055  0.0162  0.2874
17750TIP3    H154132   0.222  10.604   2.645 -2.3027  0.3730  0.8883
17750TIP3    H254133   0.229  10.755   2.644 -1.2445  0.3268  1.1634
17751TIP3   OH254134   7.580   2.589   0.697  0.1939  0.2634  0.0324
17751TIP3    H154135   7.509   2.592   0.761  1.8530 -2.2048  2.2345
17751TIP3    H254136   7.592   2.680   0.670 -2.1485  1.0849  1.4326
17752TIP3   OH254137   9.657   7.247   0.620 -0.2224  0.2316  0.6642
17752TIP3    H154138   9.589   7.253   0.686 -0.6169  0.9909  0.2111
17752TIP3    H254139   9.697   7.161   0.633 -2.9369 -1.3439 -0.6573
17753TIP3   OH254140   1.587  10.562   7.237  0.5153 -0.0575 -0.1822
17753TIP3    H154141   1.504  10.521   7.211 -0.4521 -0.4087  2.9363
17753TIP3    H254142   1.564  10.652   7.259  1.5449  0.6356 -1.8071
17754TIP3   OH254143  10.573   2.165   2.503 -0.2503 -0.2597  0.8083
17754TIP3    H154144  10.528   2.109   2.439  0.5940  0.1096 -0.1169
17754TIP3    H254145  10.648   2.200   2.456  0.7776 -0.5124  2.2062
17755TIP3   OH254146   0.644   3.693   6.754 -0.3212  0.2431 -0.2961
17755TIP3    H154147   0.700   3.752   6.804  0.1739 -0.4718 -0.0025
17755TIP3    H254148   0.661   3.606   6.790  1.3966 -0.5857 -2.8753
17756TIP3   OH254149   4.968   4.159   2.937  0.0137  0.1476  0.1859
17756TIP3    H154150   4.894   4.109   2.971 -0.5005  1.0074  0.3452
17756TIP3    H254151   5.032   4.158   3.009 -0.4200  0.6025  0.5800
17757TIP3   OH254152   3.399   7.456   2.981 -0.1751 -0.1016 -0.5972
17757TIP3    H154153   3.431   7.516   2.913 -0.1983  0.0821 -0.4497
17757TIP3    H254154   3.383   7.513   3.057  3.5227 -0.7115  0.8875
17758TIP3   OH254155   6.121   9.823   0.492 -0.1908 -0.5789  0.3632
17758TIP3    H154156   6.139   9.733   0.465  1.3869 -0.6365  1.4563
17758TIP3    H254157   6.094   9.816   0.584 -4.0232 -0.2626 -0.5651
17759TIP3   OH254158   1.847   1.940   8.831 -0.0024 -0.5190  0.0504
17759TIP3    H154159   1.795   1.998   8.777  1.1053  1.0387  0.5675
17759TIP3    H254160   1.866   1.991   8.910 -1.3127 -2.5858  1.8254
17760TIP3   OH254161   7.654   5.385   6.406  0.7646  0.2900  0.0665
17760TIP3    H154162   7.602   5.330   6.348  1.8139 -0.3466 -0.2950
17760TIP3    H254163   7.696   5.323   6.466 -1.5764  0.9803  2.6953
17761TIP3   OH254164   0.832   8.069   3.732 -0.0295 -0.7577 -0.3274
17761TIP3    H154165   0.769   8.089   3.663 -1.5208 -3.2470  0.2012
17761TIP3    H254166   0.789   8.097   3.813  1.5335  1.7510 -0.2570
17762TIP3   OH254167   7.374   1.972   4.079  0.3541  0.0345 -0.9759
17762TIP3    H154168   7.320   1.939   4.008 -0.2169 -0.2498 -0.4169
17762TIP3    H254169   7.431   1.898   4.102  0.8896  0.2825 -1.4552
17763TIP3   OH254170   8.755   6.876   0.616 -0.0132  0.4693 -0.0197
17763TIP3    H154171   8.725   6.966   0.601  1.4488  0.7735 -1.4122
17763TIP3    H254172   8.820   6.883   0.686 -0.4174  0.3688  0.3735
17764TIP3   OH254173   4.067   1.922   9.155 -0.5561 -0.1105 -0.2871
17764TIP3    H154174   4.048   1.852   9.092  0.0299  1.0542 -1.8190
17764TIP3    H254175   3.982   1.939   9.197 -0.5573 -2.2225  0.6945
17765TIP3   OH254176   3.239   5.473   3.365 -0.4647 -0.5123  0.4361
17765TIP3    H154177   3.199   5.404   3.418 -2.1073  1.7249  2.3216
17765TIP3    H254178   3.333   5.457   3.371 -0.7934 -2.4315  0.9695
17766TIP3   OH254179   8.295   7.086   1.909 -1.0902  0.1948 -0.5842
17766TIP3    H154180   8.259   7.146   1.974  1.7388 -0.5078  1.8050
17766TIP3    H254181   8.278   7.129   1.825 -0.7344  3.4774  0.8955
17767TIP3   OH254182   9.854   0.797   4.091 -0.2608 -0.0690  0.5201
17767TIP3    H154183   9.826   0.816   4.181  0.8480  1.9784  0.4845
17767TIP3    H254184   9.949   0.805   4.093 -0.1338 -0.9704 -0.6582
17768TIP3   OH254185   6.779   4.013   9.542 -0.0166  0.5410  0.6524
17768TIP3    H154186   6.787   4.014   9.637  0.4373 -1.1415  0.6526
17768TIP3    H254187   6.815   4.097   9.514 -0.2010  1.0785  1.9546
17769TIP3   OH254188   0.803   9.853   0.163 -0.4275 -0.7830 -0.4085
17769TIP3    H154189   0.777   9.767   0.129  0.8680 -1.5405  0.4120
17769TIP3    H254190   0.899   9.852   0.159 -0.3707  0.3500  0.2762
17770TIP3   OH254191  10.758  10.891  10.756 -0.3844  0.6997  0.1592
17770TIP3    H154192  10.750  10.948  10.679 -1.4022 -0.5787 -0.7307
17770TIP3    H254193  10.739  10.803  10.723  2.8196 -0.4859  1.1304
17771TIP3   OH254194   7.300   8.994   5.757  0.0682  0.4504  0.1505
17771TIP3    H154195   7.262   9.079   5.778  0.7718  0.6139  0.8214
17771TIP3    H254196   7.226   8.933   5.761 -0.1648  0.7825  1.2655
17772TIP3   OH254197   9.827   7.606   9.057  0.1174 -0.0312  0.2628
17772TIP3    H154198   9.893   7.619   8.989  1.8514  0.4947  1.9555
17772TIP3    H254199   9.781   7.690   9.062 -1.8666 -0.8664 -1.9904
17773TIP3   OH254200  10.643   6.000   7.158 -0.6886 -0.5844 -0.0468
17773TIP3    H154201  10.639   5.915   7.202  1.4872 -0.1764  1.0685
17773TIP3    H254202  10.645   6.064   7.229 -1.2541  0.3483 -0.8518
17774TIP3   OH254203   3.634   0.403  10.665  0.2046 -0.4282  0.2941
17774TIP3    H154204   3.618   0.474  10.727 -2.4463  2.3897 -3.1914
17774TIP3    H254205   3.729   0.388  10.670  0.5203  1.6683  2.8265
17775TIP3   OH254206   2.933   8.880   7.042 -0.3503  0.0177  0.0501
17775TIP3    H154207   2.918   8.787   7.058 -0.2470  0.3248  2.2506
17775TIP3    H254208   2.856   8.923   7.077 -0.6508  0.7698 -1.4482
17776TIP3   OH254209   5.144   9.477   9.300 -0.6349 -0.1545 -0.3662
17776TIP3    H154210   5.172   9.545   9.362  0.8993 -1.0378 -0.0412
17776TIP3    H254211   5.109   9.407   9.355 -2.6025  0.4994 -0.7229
17777TIP3   OH254212  10.547   6.501   8.744 -0.2350 -0.0526 -0.2426
17777TIP3    H154213  10.630   6.539   8.715 -1.4051  0.3763 -3.3816
17777TIP3    H254214  10.517   6.448   8.670 -2.2173 -1.1324  1.2405
17778TIP3   OH254215   7.390   9.277   7.969  0.2825  0.1546 -0.0538
17778TIP3    H154216   7.460   9.321   7.920  0.4788  0.3822  0.4298
17778TIP3    H254217   7.336   9.236   7.901  0.4619  0.6018 -0.4751
17779TIP3   OH254218   2.846   2.076   9.340 -0.0745 -0.0700 -0.8699
17779TIP3    H154219   2.792   1.999   9.321  0.9281 -0.9826 -0.1303
17779TIP3    H254220   2.909   2.079   9.268  0.5853 -0.6161 -0.3343
17780TIP3   OH254221   5.720   5.339   7.428 -0.1140  0.2700  0.0151
17780TIP3    H154222   5.724   5.249   7.461  0.2243  0.5485  0.7350
17780TIP3    H254223   5.660   5.384   7.487 -0.3363  0.5065 -0.3871
17781TIP3   OH254224   4.552  10.027   3.326  0.6703 -0.2333  0.2194
17781TIP3    H154225   4.504  10.109   3.321  0.5586 -0.1786  1.7597
17781TIP3    H254226   4.576  10.018   3.418  2.4833 -0.9079 -0.2559
17782TIP3   OH254227   3.847   0.576   1.575  0.3157  0.3258 -0.6146
17782TIP3    H154228   3.864   0.546   1.664  2.7537  1.1927 -0.7144
17782TIP3    H254229   3.765   0.625   1.581  1.0855  1.4953  1.4759
17783TIP3   OH254230   6.252  10.005   6.282 -0.8325 -0.0919 -0.0136
17783TIP3    H154231   6.234  10.095   6.308 -0.3094 -0.1732  0.6499
17783TIP3    H254232   6.193   9.989   6.208 -0.2368  1.1078 -0.7757
17784TIP3   OH254233   8.143   7.193   9.642  0.4361  0.3650  0.4940
17784TIP3    H154234   8.134   7.257   9.713  1.8245  2.1337 -0.8118
17784TIP3    H254235   8.095   7.232   9.569  0.5796 -0.5026 -0.0754
17785TIP3   OH254236   7.530   0.339   0.030 -0.5491 -0.3976 -0.6048
17785TIP3    H154237   7.542   0.246   0.046  1.6307  0.1624  1.6996
17785TIP3    H254238   7.507   0.376   0.115  0.1029  1.3479 -1.1253
17786TIP3   OH254239   7.949   7.488   2.033 -0.7622 -0.4265  0.1349
17786TIP3    H154240   8.017   7.425   2.008 -0.0114 -0.3066  1.7562
17786TIP3    H254241   7.877   7.471   1.973 -0.0849 -1.9554 -0.2879
17787TIP3   OH254242   8.019   1.106   4.474  0.3107 -0.4918  0.1594
17787TIP3    H154243   7.993   1.177   4.414 -2.0605 -1.6283 -0.2742
17787TIP3    H254244   8.010   1.144   4.561  1.9901  0.6077 -0.0956
17788TIP3   OH254245   1.581   3.115   4.220  0.1710  0.0806  0.1380
17788TIP3    H154246   1.628   3.176   4.163 -1.7920  0.7985 -0.7779
17788TIP3    H254247   1.501   3.094   4.172 -0.8937 -0.3958  2.0394
17789TIP3   OH254248   9.713   4.762   1.981  0.3834 -0.5697 -0.3720
17789TIP3    H154249   9.783   4.823   2.004  0.8467 -1.4924  0.7998
17789TIP3    H254250   9.719   4.693   2.047 -2.4976 -0.0168  0.6194
17790TIP3   OH254251   1.611   8.925   9.468 -0.0689  0.6044 -0.9646
17790TIP3    H154252   1.667   8.856   9.433 -0.7040  0.2548 -1.3130
17790TIP3    H254253   1.599   8.985   9.394 -1.1366  0.0424 -1.2722
17791TIP3   OH254254   6.508   9.233   7.463 -0.4044  0.3131  0.1605
17791TIP3    H154255   6.562   9.294   7.513  0.3905  1.1322 -1.6054
17791TIP3    H254256   6.545   9.235   7.375 -1.7963 -1.0039 -0.4995
17792TIP3   OH254257   5.663   1.771   9.345  0.1983 -0.4249 -0.3825
17792TIP3    H154258   5.665   1.682   9.380  1.1723 -0.0535  0.5496
17792TIP3    H254259   5.731   1.818   9.394 -1.0851  1.1434  0.0043
17793TIP3   OH254260  10.405   6.323   0.209  0.3280 -0.4608  0.4139
17793TIP3    H154261  10.483   6.362   0.171 -0.0814 -1.0823 -1.1153
17793TIP3    H254262  10.333   6.378   0.178 -0.0757 -1.3310 -0.2210
17794TIP3   OH254263   3.093   0.953   6.294 -0.4599  0.4127  0.1425
17794TIP3    H154264   3.083   1.004   6.214  0.6866  0.8139  0.2416
17794TIP3    H254265   3.181   0.915   6.288 -0.7856 -0.4663  0.6935
17795TIP3   OH254266  10.336   5.163   9.007  0.2999 -0.0288 -0.4114
17795TIP3    H154267  10.259   5.159   9.064  0.4107 -2.5287 -0.3424
17795TIP3    H254268  10.303   5.137   8.921  0.8420  0.1297 -0.6695
17796TIP3   OH254269   1.043   6.701   1.781 -0.0244 -0.0405  0.0251
17796TIP3    H154270   0.985   6.679   1.854 -0.6690  0.1254 -0.4310
17796TIP3    H254271   1.063   6.794   1.794 -0.2348  0.0187 -0.0812
17797TIP3   OH254272   7.977   4.046   9.119  0.0630  0.1486  0.1271
17797TIP3    H154273   7.931   3.962   9.121  0.8915 -0.3257 -0.3246
17797TIP3    H254274   7.914   4.108   9.156  0.6057 -1.2353  3.7850
17798TIP3   OH254275   9.713   7.712   8.702  0.2506 -0.3518  0.4927
17798TIP3    H154276   9.795   7.749   8.669  0.4396 -1.8055 -0.7666
17798TIP3    H254277   9.660   7.699   8.623 -1.0336  0.1644  1.2530
17799TIP3   OH254278   8.249   0.463   2.782  0.3448  0.8923  0.3735
17799TIP3    H154279   8.285   0.467   2.693 -0.6780  1.1202 -0.0366
17799TIP3    H254280   8.239   0.555   2.808 -0.4902  0.8437  0.2514
17800TIP3   OH254281   3.783   0.075   3.894  0.5384  0.4024  0.4093
17800TIP3    H154282   3.792  -0.001   3.950 -1.0713  0.6229  1.0047
17800TIP3    H254283   3.695   0.069   3.858 -0.2860  2.8134  1.7755
17801TIP3   OH254284   0.840   5.281  10.288  0.4360 -0.2963 -0.4414
17801TIP3    H154285   0.768   5.339  10.262  1.5185  0.9829 -0.7285
17801TIP3    H254286   0.831   5.204  10.231 -1.3644 -0.7036  0.3356
17802TIP3   OH254287   6.635   1.653   0.330 -0.3452  0.2709  0.0699
17802TIP3    H154288   6.658   1.742   0.304 -0.2271  0.2647  0.1558
17802TIP3    H254289   6.707   1.599   0.298 -1.1605 -0.0081 -1.3884
17803TIP3   OH254290   2.373   1.672   1.980  0.1163  0.3331 -0.3544
17803TIP3    H154291   2.431   1.723   1.923 -0.5336  1.1162 -0.3105
17803TIP3    H254292   2.422   1.664   2.062 -0.2419  1.8755  0.0402
17804TIP3   OH254293   9.955   8.586   0.243 -0.2671  0.0746 -0.5997
17804TIP3    H154294   9.894   8.655   0.216  0.2235  0.9387  0.4073
17804TIP3    H254295   9.911   8.504   0.219 -1.5884  0.6852 -0.3698
17805TIP3   OH254296   1.549   2.913  10.771 -0.4030 -0.0590  0.1935
17805TIP3    H154297   1.644   2.913  10.779 -0.3242  2.6454  0.2135
17805TIP3    H254298   1.533   2.910  10.677 -0.2437  0.3547  0.1495
17806TIP3   OH254299   9.067   9.940   6.370  0.7953  0.0596  0.1540
17806TIP3    H154300   9.032   9.966   6.285  1.9484  0.7009 -0.1433
17806TIP3    H254301   9.026   9.999   6.433  1.7550  1.2069 -0.2616
17807TIP3   OH254302   3.238   8.383   2.181 -0.0351  0.6491 -0.3259
17807TIP3    H154303   3.252   8.289   2.194 -1.5925  0.1794 -1.6667
17807TIP3    H254304   3.157   8.402   2.229 -1.5792  0.5162 -2.6811
17808TIP3   OH254305   5.984   2.286   6.798 -0.3672 -0.3078 -0.3207
17808TIP3    H154306   5.936   2.203   6.794  0.3257 -0.9418  2.6032
17808TIP3    H254307   5.946   2.339   6.727 -1.7973 -2.5878 -1.3692
17809TIP3   OH254308   8.325   5.607   1.699  0.6763  0.8552 -0.5670
17809TIP3    H154309   8.387   5.642   1.635  0.0878  0.7911 -1.1824
17809TIP3    H254310   8.309   5.517   1.672  1.8867  0.1990  0.7903
17810TIP3   OH254311   0.130   6.481   4.518 -0.4176 -0.5734  0.1489
17810TIP3    H154312   0.171   6.445   4.439  0.4192  0.2577  0.1921
17810TIP3    H254313   0.078   6.555   4.486 -0.0969 -0.2500  0.3657
17811TIP3   OH254314   2.062   5.352   8.408 -0.1729 -0.0773  0.5815
17811TIP3    H154315   2.070   5.416   8.479  2.3365 -0.2358  0.5081
17811TIP3    H254316   2.027   5.403   8.334 -0.5792  0.6114  1.2302
17812TIP3   OH254317   4.382   4.782   7.489 -0.1475 -0.3090 -0.5113
17812TIP3    H154318   4.351   4.693   7.472  1.1410 -0.4920 -2.1332
17812TIP3    H254319   4.361   4.831   7.409 -1.2898  1.0176  0.5370
17813TIP3   OH254320   9.531   2.400   2.761  0.5598  0.1649 -0.7292
17813TIP3    H154321   9.542   2.490   2.728 -0.8839  0.0275 -1.6921
17813TIP3    H254322   9.438   2.382   2.750  0.3907 -0.6808  1.5624
17814TIP3   OH254323   2.574   7.510   4.778  0.0849 -0.1284  0.1205
17814TIP3    H154324   2.571   7.449   4.705  1.3507 -1.1148  0.8577
17814TIP3    H254325   2.637   7.577   4.751  0.2621 -0.2815  0.1550
17815TIP3   OH254326   6.999   0.585   2.199 -0.5627  0.0248  0.0990
17815TIP3    H154327   6.933   0.569   2.267 -1.5006  0.6024 -0.6449
17815TIP3    H254328   7.051   0.658   2.233 -2.0310  1.3813 -0.4559
17816TIP3   OH254329   6.025   9.486   0.737 -0.0627 -0.3051  0.5078
17816TIP3    H154330   5.943   9.494   0.784  0.6763  1.2579  1.5994
17816TIP3    H254331   6.090   9.526   0.794  2.0709 -4.0926  1.0926
17817TIP3   OH254332   4.692   0.293   7.233  0.2410  0.0640 -0.4538
17817TIP3    H154333   4.770   0.344   7.254  0.0228  0.3742 -0.3810
17817TIP3    H254334   4.659   0.333   7.152 -0.3950  0.5782  0.0490
17818TIP3   OH254335   4.810   3.062   9.251  0.2144 -0.8286  0.4600
17818TIP3    H154336   4.773   3.038   9.336 -0.5957 -1.5720 -0.0929
17818TIP3    H254337   4.765   3.007   9.188  0.1585  0.3359 -0.5706
17819TIP3   OH254338  10.277   6.583   9.824  0.4955  0.4608  0.0387
17819TIP3    H154339  10.278   6.507   9.883 -0.2542  0.8879  0.6143
17819TIP3    H254340  10.216   6.559   9.755 -0.7694  1.0434  0.9263
17820TIP3   OH254341   6.952   5.012   1.481 -0.3571  0.3973  0.4703
17820TIP3    H154342   6.956   5.041   1.572 -0.7134  3.4529 -0.3790
17820TIP3    H254343   6.887   4.941   1.481  1.4963 -1.5081  2.9067
17821TIP3   OH254344  10.596   1.196   8.685  0.6517  0.5744 -0.7195
17821TIP3    H154345  10.534   1.130   8.718  0.1555  2.0479  1.5094
17821TIP3    H254346  10.662   1.145   8.637  0.8020 -1.6992  1.6739
17822TIP3   OH254347   0.408  10.424   8.111 -0.2409  0.1547 -0.5352
17822TIP3    H154348   0.448  10.506   8.082 -0.3449  0.6227  0.5949
17822TIP3    H254349   0.441  10.411   8.200 -0.3725 -0.9419 -0.6296
17823TIP3   OH254350   2.900   7.974   6.866  0.0153 -0.1004  0.1342
17823TIP3    H154351   2.898   7.913   6.792 -0.8826  0.3977 -0.2658
17823TIP3    H254352   2.850   7.929   6.935 -0.8534  0.2614 -0.2403
17824TIP3   OH254353   9.054   5.989   5.566  0.0631  0.4157  0.3953
17824TIP3    H154354   9.102   6.051   5.511  2.6148  0.0320  2.0376
17824TIP3    H254355   8.992   5.948   5.506  2.4922  0.2007 -2.2072
17825TIP3   OH254356   5.490   9.933   4.596  0.1562  0.0817  0.3733
17825TIP3    H154357   5.488   9.843   4.627  0.2545  0.1257  0.5096
17825TIP3    H254358   5.436   9.981   4.658 -0.0237  0.0900  0.2115
17826TIP3   OH254359   9.278   8.834   8.975  0.7406 -0.4295 -0.3562
17826TIP3    H154360   9.328   8.915   8.980  0.6311 -0.4176  0.9880
17826TIP3    H254361   9.340   8.766   8.999  0.2327 -0.4510  0.9853
17827TIP3   OH254362   3.825   6.639   3.163  0.0995  0.9456 -0.0562
17827TIP3    H154363   3.775   6.562   3.135  1.7814 -0.1738 -0.2039
17827TIP3    H254364   3.905   6.635   3.110  0.6836  2.2204  0.6812
17828TIP3   OH254365  10.550   3.684   2.194 -0.4733  0.4897 -0.2908
17828TIP3    H154366  10.618   3.676   2.261 -0.9379 -0.3763  0.0888
17828TIP3    H254367  10.593   3.731   2.122  1.4098 -2.4092 -1.2205
17829TIP3   OH254368   7.035   5.433  10.619 -0.3955 -0.0348  0.6713
17829TIP3    H154369   6.962   5.377  10.592 -0.9217  0.8431  0.2191
17829TIP3    H254370   7.113   5.389  10.585 -0.7085 -1.0012  1.1884
17830TIP3   OH254371   2.738   0.213   7.758  0.2493 -0.5349  0.0143
17830TIP3    H154372   2.682   0.291   7.757  0.2775 -0.4942  0.9072
17830TIP3    H254373   2.820   0.243   7.796 -0.0726 -1.2125  1.2884
17831TIP3   OH254374   7.433   4.874   6.272 -0.1332  0.2202  0.2923
17831TIP3    H154375   7.490   4.798   6.258  0.4313  0.3131  1.8287
17831TIP3    H254376   7.491   4.941   6.307 -0.9678  0.7275  0.7251
17832TIP3   OH254377   8.575   2.287   4.557  0.5283 -0.0291 -0.5846
17832TIP3    H154378   8.496   2.335   4.584 -0.3452 -1.0196 -1.2805
17832TIP3    H254379   8.614   2.342   4.489 -0.4089 -0.2369 -1.3039
17833TIP3   OH254380   6.165   3.758   2.463  0.0690 -0.1973 -0.0433
17833TIP3    H154381   6.124   3.842   2.485  1.2855  0.6893 -1.0275
17833TIP3    H254382   6.096   3.693   2.476 -0.7893  0.9009  1.1143
17834TIP3   OH254383  10.714   9.736   3.336 -0.6768 -0.3351 -0.5209
17834TIP3    H154384  10.705   9.664   3.397  0.1350 -0.9983 -1.1623
17834TIP3    H254385  10.685   9.700   3.252 -2.2613  0.7049 -0.4687
17835TIP3   OH254386   6.602   3.112   2.103  0.1906  0.1910  0.7729
17835TIP3    H154387   6.677   3.053   2.112 -0.3189 -0.4678  0.7909
17835TIP3    H254388   6.536   3.075   2.162 -0.6250 -0.0084 -0.2325
17836TIP3   OH254389   4.534   3.313   3.035  0.0092  0.2128  0.2720
17836TIP3    H154390   4.573   3.266   2.961 -0.7874 -1.0118  0.6038
17836TIP3    H254391   4.549   3.405   3.015  3.1707 -0.1467  0.4323
17837TIP3   OH254392   0.336   6.638   4.958  0.3007  0.0315 -0.2867
17837TIP3    H154393   0.300   6.563   4.912  2.5970 -0.6676 -1.0805
17837TIP3    H254394   0.260   6.679   5.001 -1.3972 -1.2065 -1.9562
17838TIP3   OH254395   2.582   1.709  10.735  0.2528  1.0175 -0.0278
17838TIP3    H154396   2.526   1.764  10.680  1.1957  0.1010 -1.9906
17838TIP3    H254397   2.537   1.624  10.738  0.3579  0.9741  0.3834
17839TIP3   OH254398   8.179   6.804   4.546  0.1063 -0.0939 -0.8446
17839TIP3    H154399   8.272   6.823   4.552 -0.0654  0.8250 -0.8830
17839TIP3    H254400   8.140   6.853   4.618 -0.2434 -1.2932 -0.1895
17840TIP3   OH254401   1.542   2.043   5.961 -0.3657 -0.3567 -0.9367
17840TIP3    H154402   1.525   2.069   6.051  3.3206  0.7513 -0.3966
17840TIP3    H254403   1.529   2.123   5.910  2.6266  0.5559 -0.4920
17841TIP3   OH254404   4.766   3.999   6.117 -0.5156  0.0958  0.0165
17841TIP3    H154405   4.755   3.927   6.180 -1.3589  0.1142 -0.1094
17841TIP3    H254406   4.821   4.063   6.164  0.4570 -0.7244  0.0403
17842TIP3   OH254407   3.461   9.064   2.962 -0.2114 -0.5833 -0.2986
17842TIP3    H154408   3.451   9.148   2.918  0.9429  0.1435  0.7327
17842TIP3    H254409   3.395   9.008   2.923 -1.5889  1.0485 -0.4219
17843TIP3   OH254410   8.286   8.173   0.214  0.5917 -0.1955 -0.3992
17843TIP3    H154411   8.366   8.140   0.173 -0.6701 -1.4384 -1.9858
17843TIP3    H254412   8.218   8.163   0.147 -1.2517 -0.8122  1.4347
17844TIP3   OH254413   2.720   4.823   1.911  0.1143  0.1933 -0.2236
17844TIP3    H154414   2.664   4.891   1.875 -0.0599  1.2291  1.8663
17844TIP3    H254415   2.800   4.868   1.936 -0.2526 -0.2042  1.7940
17845TIP3   OH254416   6.737   6.878   9.957  0.3910  0.1443  0.1018
17845TIP3    H154417   6.739   6.941   9.886 -0.2883 -0.3538 -0.3702
17845TIP3    H254418   6.769   6.796   9.918 -0.3451 -0.2264  0.2553
17846TIP3   OH254419   5.106   4.088   4.142  0.1691 -0.2080 -0.1400
17846TIP3    H154420   5.191   4.113   4.105 -0.1806  2.8475  0.8810
17846TIP3    H254421   5.126   4.061   4.231  0.1088  0.3328  0.0408
17847TIP3   OH254422   4.375   1.418   1.610 -0.0725  0.0400  0.1909
17847TIP3    H154423   4.427   1.494   1.638 -1.5375  0.7956  0.9152
17847TIP3    H254424   4.375   1.424   1.514  0.5934  0.4148  0.2069
17848TIP3   OH254425   6.275   7.538   5.523  0.2005 -0.2334 -1.0699
17848TIP3    H154426   6.290   7.445   5.544 -0.4948 -0.5413 -1.8826
17848TIP3    H254427   6.219   7.536   5.446  0.5445  0.8759 -1.3580
17849TIP3   OH254428   3.233   1.418   8.546 -0.2159  0.2037 -0.3313
17849TIP3    H154429   3.287   1.390   8.472  1.3582  1.0382  0.4334
17849TIP3    H254430   3.258   1.509   8.560 -1.8796  0.6136  0.0590
17850TIP3   OH254431   7.257  10.508  10.546 -0.3695  0.3137 -0.7427
17850TIP3    H154432   7.175  10.485  10.503 -0.2418  1.0044 -1.3830
17850TIP3    H254433   7.237  10.590  10.592 -0.9618 -1.1864  1.9106
17851TIP3   OH254434   9.766   1.300   1.709 -0.0542 -0.3266 -0.2951
17851TIP3    H154435   9.674   1.275   1.717 -0.6093  2.1532  2.2448
17851TIP3    H254436   9.764   1.384   1.663  0.6470  0.9221  1.8194
17852TIP3   OH254437   7.444   3.329   8.839  0.2023 -0.2992 -0.0572
17852TIP3    H154438   7.440   3.302   8.747  1.9413  0.5798 -0.4501
17852TIP3    H254439   7.359   3.368   8.857  0.1455  0.3672 -1.6159
17853TIP3   OH254440   1.442   3.525   1.199 -1.0724  0.4181 -0.1772
17853TIP3    H154441   1.491   3.580   1.260  0.3108 -0.7294 -0.2175
17853TIP3    H254442   1.422   3.446   1.248  0.3322 -0.6590 -1.2521
17854TIP3   OH254443   0.700   6.287   7.105 -0.0963  0.5749  0.8498
17854TIP3    H154444   0.784   6.283   7.060 -0.4187 -1.1528  0.3599
17854TIP3    H254445   0.722   6.314   7.195  1.0423 -0.4027  0.8856
17855TIP3   OH254446   9.200   5.081   0.519 -0.3413 -0.0411  0.4397
17855TIP3    H154447   9.117   5.116   0.485 -1.6294 -2.8912  0.3486
17855TIP3    H254448   9.258   5.080   0.443 -1.0164 -0.1499 -0.0862
17856TIP3   OH254449   6.395   2.052   3.792 -0.4054  0.4078  0.2338
17856TIP3    H154450   6.319   2.047   3.734 -1.8052 -0.5270  2.0432
17856TIP3    H254451   6.410   2.146   3.803 -0.9211  0.6025 -0.5852
17857TIP3   OH254452   5.489   8.723   6.479 -0.4470 -0.1784  0.7406
17857TIP3    H154453   5.486   8.797   6.417 -2.2313 -1.2324 -0.5221
17857TIP3    H254454   5.513   8.763   6.562  1.7227  1.3544 -0.4999
17858TIP3   OH254455   4.112   1.754   8.411 -0.0187  0.4768  0.4117
17858TIP3    H154456   4.040   1.817   8.414 -0.1134  0.3316  1.3055
17858TIP3    H254457   4.187   1.803   8.446  0.2251  0.4999 -0.1343
17859TIP3   OH254458   3.370   9.791   5.595 -1.0154 -0.2482 -0.7498
17859TIP3    H154459   3.348   9.702   5.569 -0.5218 -0.9730  1.1969
17859TIP3    H254460   3.373   9.789   5.690 -0.2088  1.6703 -0.6855
17860TIP3   OH254461   0.151   6.580   0.067  0.0183  0.4460  0.7372
17860TIP3    H154462   0.083   6.566   0.002  0.3361  1.6834  0.0922
17860TIP3    H254463   0.193   6.495   0.078 -0.3224  0.1179 -0.3662
17861TIP3   OH254464   0.874   7.554   3.711  0.5593 -0.1245  0.0403
17861TIP3    H154465   0.930   7.477   3.707 -0.8946 -1.2305 -0.1049
17861TIP3    H254466   0.789   7.520   3.739  0.4001  1.7391  2.1121
17862TIP3   OH254467   5.141   5.619   1.218  0.4397  0.6217 -0.0503
17862TIP3    H154468   5.215   5.601   1.161 -0.4518 -0.3387 -0.9313
17862TIP3    H254469   5.108   5.704   1.189  0.6060  0.5997 -0.3050
17863TIP3   OH254470   4.229   5.306   4.282  0.4260 -0.9388  0.8039
17863TIP3    H154471   4.309   5.259   4.257  0.1954 -0.5347 -0.7660
17863TIP3    H254472   4.170   5.237   4.314  0.6329 -1.5364 -0.0688
17864TIP3   OH254473   4.992   8.538   6.300  0.1795 -0.3712 -0.6471
17864TIP3    H154474   4.912   8.545   6.248  0.3848 -0.5082 -0.9868
17864TIP3    H254475   4.998   8.622   6.346  0.0490 -0.2031 -0.9308
17865TIP3   OH254476   1.948   6.330   1.744  0.2501  0.1133  0.3102
17865TIP3    H154477   1.993   6.316   1.660  0.8927  0.3996  0.5949
17865TIP3    H254478   1.934   6.242   1.778  0.4943  0.0117  0.1559
17866TIP3   OH254479   9.265   2.516   5.378 -0.1034 -0.6404 -0.2263
17866TIP3    H154480   9.304   2.595   5.415  0.9369 -0.4262 -1.7046
17866TIP3    H254481   9.172   2.537   5.367 -0.1219 -0.1620  0.7246
17867TIP3   OH254482   6.459   6.966   9.622  0.0006 -0.3815  0.1630
17867TIP3    H154483   6.432   7.046   9.668 -0.4137  0.4408 -1.4579
17867TIP3    H254484   6.472   6.902   9.692 -1.7675  0.4866  1.3680
17868TIP3   OH254485   4.460   7.128   4.727  0.9491 -0.5174  0.3976
17868TIP3    H154486   4.387   7.155   4.783 -0.3723 -0.5682 -1.2162
17868TIP3    H254487   4.468   7.034   4.740 -1.0555 -1.0026 -1.3002
17869TIP3   OH254488   2.526   2.748   6.824 -0.5616  0.3155  0.2902
17869TIP3    H154489   2.488   2.806   6.890 -0.7777  1.0633 -0.4835
17869TIP3    H254490   2.588   2.694   6.874  1.1301  2.5193  0.7521
17870TIP3   OH254491   1.507   5.228   1.703  0.5035 -0.3428 -0.1458
17870TIP3    H154492   1.560   5.165   1.752 -0.6972 -1.0745  0.2375
17870TIP3    H254493   1.428   5.180   1.680 -1.5903  1.6561  2.2828
17871TIP3   OH254494   0.613   4.910   8.987 -0.1302 -0.0248  0.0000
17871TIP3    H154495   0.637   4.833   8.935 -0.1146  0.1508 -0.2588
17871TIP3    H254496   0.685   4.971   8.974 -1.6449  1.4441 -2.6766
17872TIP3   OH254497   2.863   5.308   9.936  0.1668  0.2941  0.3005
17872TIP3    H154498   2.890   5.310  10.028  0.7373 -0.6752  0.1613
17872TIP3    H254499   2.804   5.233   9.930  0.2644  0.2516 -0.1641
17873TIP3   OH254500   8.769   3.105   5.600 -0.0638  0.0207 -0.1740
17873TIP3    H154501   8.805   3.017   5.608  0.1510  0.2453  2.4746
17873TIP3    H254502   8.820   3.158   5.662 -1.7429  1.4263  0.1107
17874TIP3   OH254503   2.869   2.444  10.849 -0.0881 -0.4340 -0.0635
17874TIP3    H154504   2.787   2.460  10.895 -0.7351  0.2052 -1.4138
17874TIP3    H254505   2.893   2.354  10.873 -0.1894  0.0009  1.8195
17875TIP3   OH254506   7.416   0.615   7.908  0.0552  0.2061 -0.2620
17875TIP3    H154507   7.341   0.626   7.849 -1.3068  0.0605  1.3933
17875TIP3    H254508   7.491   0.606   7.849 -1.2105  0.3565 -1.9681
17876TIP3   OH254509   9.817   0.175   7.827  0.4920  0.1928  0.0878
17876TIP3    H154510   9.846   0.211   7.743 -1.3691  0.5206 -0.4647
17876TIP3    H254511   9.738   0.225   7.848 -0.3614 -1.4213  0.8953
17877TIP3   OH254512   4.998   5.526   7.932  0.3997  0.0427  0.2296
17877TIP3    H154513   4.991   5.499   8.024 -0.5668  1.1014  0.4968
17877TIP3    H254514   5.016   5.620   7.937  1.5719 -0.1137 -0.6727
17878TIP3   OH254515   4.580   9.217  10.387  0.0455 -0.2482 -0.0804
17878TIP3    H154516   4.507   9.278  10.372 -0.1988 -0.3500  0.6940
17878TIP3    H254517   4.584   9.166  10.306 -1.7152 -1.2638  0.4110
17879TIP3   OH254518   7.126   3.325   9.668  0.2115 -0.3283  0.4335
17879TIP3    H154519   7.181   3.352   9.595 -0.5608 -1.3719 -0.5786
17879TIP3    H254520   7.060   3.395   9.676  0.7045  0.1206  0.5835
17880TIP3   OH254521   9.597   0.762   7.105  0.2020  0.4361 -0.2502
17880TIP3    H154522   9.660   0.794   7.041  0.8522  0.7252  0.5176
17880TIP3    H254523   9.594   0.831   7.172  1.6882 -1.0748  1.4795
17881TIP3   OH254524   5.634   5.320   1.644  0.3079  0.5425  0.2026
17881TIP3    H154525   5.567   5.256   1.619  0.6734 -0.3687  1.4681
17881TIP3    H254526   5.602   5.403   1.608  0.1603 -0.4096 -2.0709
17882TIP3   OH254527   7.326   0.842   9.321  0.2453  0.2915  0.1427
17882TIP3    H154528   7.333   0.894   9.241 -1.3983  1.3367  0.6164
17882TIP3    H254529   7.243   0.795   9.311 -1.0323  1.9592  2.0109
17883TIP3   OH254530   3.480   4.193   6.947 -0.1516  0.1538  0.2436
17883TIP3    H154531   3.563   4.232   6.976 -0.0759  0.7734 -0.7240
17883TIP3    H254532   3.496   4.169   6.856 -1.1005  0.4972 -0.0282
17884TIP3   OH254533   3.247   3.461   3.081  0.2911 -0.0476 -0.1965
17884TIP3    H154534   3.337   3.488   3.059  0.0383 -0.0462 -1.2788
17884TIP3    H254535   3.204   3.450   2.997 -0.7084 -0.1554  0.3129
17885TIP3   OH254536   8.662   5.937   3.899  0.4047  0.2844 -0.4031
17885TIP3    H154537   8.704   5.983   3.827  2.8411  0.1555  0.8328
17885TIP3    H254538   8.614   6.004   3.947  0.6940  0.7940 -0.8249
17886TIP3   OH254539   6.957  10.655   2.134  0.0163  0.9663 -0.0870
17886TIP3    H154540   7.005  10.574   2.154 -0.0417  0.9372 -0.0652
17886TIP3    H254541   7.024  10.723   2.136 -0.0268  1.0019  0.4671
17887TIP3   OH254542   8.207   7.670   6.388  0.1984 -0.8503 -0.3503
17887TIP3    H154543   8.220   7.742   6.450 -0.8253  0.5983 -1.7158
17887TIP3    H254544   8.230   7.591   6.437 -0.9542  0.1630  2.0007
17888TIP3   OH254545   3.363   4.782   3.701  0.3296 -0.6882 -0.2736
17888TIP3    H154546   3.350   4.732   3.621  0.7726 -0.9011 -0.2142
17888TIP3    H254547   3.456   4.773   3.720  0.6059  0.8441 -0.7218
17889TIP3   OH254548   3.137   4.358   0.434  0.2161 -0.4856 -0.7562
17889TIP3    H154549   3.131   4.338   0.527 -1.6098 -0.5265 -0.8350
17889TIP3    H254550   3.073   4.429   0.421 -0.5095 -1.3550 -2.1794
17890TIP3   OH254551   3.683   3.787   8.421  0.4580  0.6782 -0.5312
17890TIP3    H154552   3.715   3.742   8.343 -0.6642 -0.7646 -0.1981
17890TIP3    H254553   3.596   3.751   8.436 -0.1727  2.4045  0.2430
17891TIP3   OH254554   4.388   6.830  10.818 -0.6437  0.0067 -0.0079
17891TIP3    H154555   4.366   6.903  10.760  0.4645 -0.0348 -0.5058
17891TIP3    H254556   4.442   6.772  10.764  0.3216 -0.0967  1.0363
17892TIP3   OH254557   6.377   3.367   1.620 -0.1929 -0.1916  0.0514
17892TIP3    H154558   6.420   3.281   1.619 -0.0569 -0.1454  0.9570
17892TIP3    H254559   6.449   3.429   1.610 -0.2112 -0.1630  0.0999
17893TIP3   OH254560   9.869   7.381   9.246  0.3834  0.1710 -0.2766
17893TIP3    H154561   9.821   7.373   9.328  0.9834  0.3729  0.0969
17893TIP3    H254562   9.820   7.446   9.196 -0.2094 -0.2428 -0.2500
17894TIP3   OH254563   7.606   9.137   5.920  0.1560 -0.3287  0.0039
17894TIP3    H154564   7.594   9.042   5.921 -0.2056 -0.3048  1.5694
17894TIP3    H254565   7.668   9.154   5.849 -2.5227 -1.3370 -2.7805
17895TIP3   OH254566   2.512   1.061   7.134  0.4059 -0.4328 -0.3174
17895TIP3    H154567   2.516   0.990   7.198  1.1880  0.6602  0.9020
17895TIP3    H254568   2.421   1.090   7.134  0.6264  0.4159  1.3409
17896TIP3   OH254569   0.090  10.261   9.528  0.3694  0.0529 -0.1059
17896TIP3    H154570   0.131  10.216   9.602  1.2019  1.3417  0.2371
17896TIP3    H254571   0.138  10.343   9.519 -1.6998  1.3436 -0.1138
17897TIP3   OH254572   1.082   3.191   1.766  0.2600 -0.1806 -0.1153
17897TIP3    H154573   1.065   3.223   1.854 -1.0014 -0.8663 -0.0944
17897TIP3    H254574   0.996   3.189   1.724  0.8731  0.4329 -1.4768
17898TIP3   OH254575   3.935   9.437   4.357  0.0010  0.3162 -0.2417
17898TIP3    H154576   3.894   9.456   4.273 -0.4435 -0.2519 -0.1648
17898TIP3    H254577   4.003   9.373   4.337 -1.6614 -1.6779  0.1071
17899TIP3   OH254578   0.708   7.888   9.268 -0.0252  1.2620  0.0732
17899TIP3    H154579   0.618   7.880   9.236  0.2800  0.6590 -0.6735
17899TIP3    H254580   0.702   7.944   9.345 -1.0947  0.9007  0.2593
17900TIP3   OH254581   6.598   9.306   3.623 -0.0686  0.0467 -0.0011
17900TIP3    H154582   6.677   9.311   3.567  0.7649 -0.1492  1.1271
17900TIP3    H254583   6.604   9.220   3.664 -0.0859  0.6157  1.2157
17901TIP3   OH254584   9.125   1.094   9.973  0.2852 -0.2249  0.0158
17901TIP3    H154585   9.082   1.087   9.887  0.6414 -2.9962 -0.0251
17901TIP3    H254586   9.070   1.042  10.031  1.8347 -1.1837  0.6798
17902TIP3   OH254587   9.596   5.956   2.291  0.6260  0.3694 -0.3077
17902TIP3    H154588   9.562   5.900   2.360 -1.4169  2.6844  0.6977
17902TIP3    H254589   9.691   5.951   2.301  0.4063  0.4305  2.5725
17903TIP3   OH254590   9.479  10.046   2.614  0.0836  0.3300  0.1912
17903TIP3    H154591   9.423  10.016   2.685 -2.0644  1.3083 -1.0083
17903TIP3    H254592   9.562  10.069   2.657 -0.2367 -1.5220  1.9583
17904TIP3   OH254593   0.883   2.304   3.864 -0.3625  0.1154 -0.2785
17904TIP3    H154594   0.854   2.382   3.911 -1.4908 -0.6391  0.3170
17904TIP3    H254595   0.904   2.241   3.933 -2.0423 -1.0166 -0.7497
17905TIP3   OH254596   3.511   3.843   0.251  0.2004  0.3273 -0.2111
17905TIP3    H154597   3.458   3.923   0.253 -2.3906 -1.0875  4.6635
17905TIP3    H254598   3.454   3.778   0.208  1.3252  0.4844 -2.0130
17906TIP3   OH254599   6.129   2.533   4.139  0.2617  0.2269  0.1047
17906TIP3    H154600   6.117   2.542   4.234  3.5958 -0.2394  0.6831
17906TIP3    H254601   6.121   2.622   4.105  1.3245  0.7575  1.1830
17907TIP3   OH254602   2.798   6.383   1.968 -0.0588  0.4117 -0.0844
17907TIP3    H154603   2.717   6.360   2.013  0.6384  0.3070  1.1497
17907TIP3    H254604   2.808   6.478   1.983  1.3524  0.0063  2.0561
17908TIP3   OH254605   5.661   6.409   2.661  0.2296  0.0746  0.2861
17908TIP3    H154606   5.747   6.370   2.652  0.1937  0.2396 -0.9327
17908TIP3    H254607   5.641   6.444   2.574 -0.3343  1.5524  0.9651
17909TIP3   OH254608   3.048   3.021   3.789 -0.1568  0.2256  0.1584
17909TIP3    H154609   2.966   3.022   3.739 -0.7768  0.5385  1.1505
17909TIP3    H254610   3.117   3.015   3.723 -0.9026  1.7157 -0.7959
17910TIP3   OH254611   2.806   6.400   6.176  0.2030 -0.3174 -0.2083
17910TIP3    H154612   2.748   6.474   6.192 -0.1750 -0.7114  0.2893
17910TIP3    H254613   2.815   6.395   6.081 -0.5502 -0.2317 -0.2870
17911TIP3   OH254614   5.955   4.248   0.049 -0.3436 -0.2621  0.4164
17911TIP3    H154615   6.033   4.195   0.032 -0.2296 -0.0458  0.2622
17911TIP3    H254616   5.887   4.184   0.068 -0.7333 -0.5751 -1.8258
17912TIP3   OH254617   9.166   4.062   0.408 -0.1485  0.0354 -0.2529
17912TIP3    H154618   9.227   4.036   0.338  0.4795  0.8975 -0.0507
17912TIP3    H254619   9.214   4.128   0.457 -0.9874  0.1944  0.3700
17913TIP3   OH254620   6.490   4.679   9.586  0.3722 -0.2537  0.1506
17913TIP3    H154621   6.471   4.755   9.531 -2.3142 -2.0984 -1.7522
17913TIP3    H254622   6.476   4.710   9.676 -0.1764  1.5917 -0.5157
17914TIP3   OH254623   3.397   8.568   0.108  0.3794  0.3036  0.7826
17914TIP3    H154624   3.356   8.646   0.070  0.3788 -0.6044 -1.2147
17914TIP3    H254625   3.413   8.591   0.199 -1.1063  2.0534  0.6644
17915TIP3   OH254626  10.491  10.196  10.485 -0.0766  0.0345 -0.1579
17915TIP3    H154627  10.567  10.240  10.447 -0.6885  0.3768 -1.0389
17915TIP3    H254628  10.489  10.224  10.576  0.3817  0.6726 -0.3419
17916TIP3   OH254629   8.886   3.916   9.056 -0.4883 -0.1072 -0.2301
17916TIP3    H154630   8.806   3.960   9.087  0.9354  0.9336  2.3692
17916TIP3    H254631   8.883   3.830   9.097  0.8665  0.8764  2.1701
17917TIP3   OH254632   1.998   4.117   1.597 -0.8809 -0.2617 -0.3733
17917TIP3    H154633   2.042   4.193   1.634 -1.5018  0.8360 -1.8112
17917TIP3    H254634   2.027   4.044   1.651  0.2954  0.8815  0.5945
17918TIP3   OH254635   3.690   7.449   1.455  0.4668 -0.1523 -0.0892
17918TIP3    H154636   3.660   7.532   1.417 -0.0569 -0.3883 -0.2043
17918TIP3    H254637   3.670   7.457   1.549  1.7389  0.4204  0.1483
17919TIP3   OH254638   6.061   7.129   0.993 -0.0162  0.2584  0.4917
17919TIP3    H154639   6.132   7.193   0.984  2.0258 -1.5528  2.5436
17919TIP3    H254640   6.068   7.075   0.914 -1.0636  1.7861 -0.7239
17920TIP3   OH254641   3.308   2.123   7.103 -0.4316 -0.2620  0.4539
17920TIP3    H154642   3.321   2.065   7.178 -0.2494  0.0044  0.6296
17920TIP3    H254643   3.283   2.207   7.142 -1.7515 -0.4918  0.1712
17921TIP3   OH254644   3.823   7.644   0.375  0.1968  0.6707 -0.2083
17921TIP3    H154645   3.819   7.718   0.436 -0.8897  1.1430 -0.8109
17921TIP3    H254646   3.731   7.623   0.357  0.4861 -0.6605 -0.2655
17922TIP3   OH254647   4.229   5.216   8.221  0.1756  0.0562  0.0743
17922TIP3    H154648   4.210   5.202   8.128  0.5230  2.2447 -0.3802
17922TIP3    H254649   4.274   5.136   8.249  1.1585 -0.1570 -1.9600
17923TIP3   OH254650  10.397   4.438   2.765  0.7519 -0.0153 -0.0157
17923TIP3    H154651  10.303   4.441   2.746  0.7087 -0.5635  0.0813
17923TIP3    H254652  10.402   4.419   2.859  0.9617  1.8404  0.3707
17924TIP3   OH254653   6.185   4.391   5.174  0.2036 -0.2865 -0.5008
17924TIP3    H154654   6.097   4.405   5.139  0.1311 -1.7222 -0.9683
17924TIP3    H254655   6.172   4.331   5.247  0.8579 -1.1633 -1.0838
17925TIP3   OH254656   2.097   9.326   4.862 -0.0958  0.1661 -0.5088
17925TIP3    H154657   2.026   9.270   4.831 -1.4913  1.2641  0.5828
17925TIP3    H254658   2.101   9.309   4.956  1.4354 -0.2463 -0.6337
17926TIP3   OH254659   2.076   1.307   2.542  0.0274  0.1104 -0.1208
17926TIP3    H154660   1.983   1.287   2.552  0.3337 -0.8034  1.1211
17926TIP3    H254661   2.108   1.318   2.631  1.5473 -1.7287 -0.3764
17927TIP3   OH254662   0.407   0.237   9.839  0.1091  0.3699 -0.2120
17927TIP3    H154663   0.478   0.176   9.818  0.3034  0.6817 -0.4588
17927TIP3    H254664   0.357   0.193   9.908  1.1907  0.6433  0.7710
17928TIP3   OH254665   8.225   4.723   7.506 -0.0867 -0.1088 -0.2842
17928TIP3    H154666   8.291   4.668   7.548  0.3167  2.1935  2.3890
17928TIP3    H254667   8.275   4.780   7.448 -0.0795 -0.1472 -0.3160
17929TIP3   OH254668   5.449   1.332   4.711 -0.2509 -0.8976  0.2330
17929TIP3    H154669   5.436   1.259   4.650 -1.7981 -0.5363  0.1044
17929TIP3    H254670   5.367   1.339   4.759  0.3225 -0.0253  1.1277
17930TIP3   OH254671   7.342   0.860  10.896  0.0704 -0.2805 -0.4458
17930TIP3    H154672   7.252   0.868  10.926 -0.0806 -1.5119 -0.4978
17930TIP3    H254673   7.361   0.766  10.903  1.5934  0.0491  0.2726
17931TIP3   OH254674   2.652   6.089   5.065 -0.7731 -0.5259 -0.3886
17931TIP3    H154675   2.673   6.009   5.114  0.8620 -0.1466 -0.4010
17931TIP3    H254676   2.637   6.155   5.132  0.8217 -0.1641 -0.3393
17932TIP3   OH254677   7.009   1.040   8.921 -0.1477  0.1269 -0.2914
17932TIP3    H154678   7.091   1.027   8.874  0.2565 -1.4680  0.7677
17932TIP3    H254679   6.941   1.020   8.856  0.2764  1.5195 -1.1883
17933TIP3   OH254680   2.583   2.444   8.255  0.1688 -0.2490 -0.4539
17933TIP3    H154681   2.598   2.465   8.163  0.6573 -1.5334 -0.6797
17933TIP3    H254682   2.569   2.350   8.257  0.0125 -0.2192  0.7723
17934TIP3   OH254683   7.205   1.979   6.056  0.1179 -0.6747 -0.2208
17934TIP3    H154684   7.287   1.993   6.102 -0.4873 -0.9273  0.9569
17934TIP3    H254685   7.215   2.030   5.975  1.3560 -0.5658 -0.0234
17935TIP3   OH254686   7.653   1.884   9.367 -0.7686 -0.0531  0.0978
17935TIP3    H154687   7.557   1.884   9.373 -0.6819  0.6265  2.0333
17935TIP3    H254688   7.677   1.977   9.365 -0.0294  0.0216  4.0145
17936TIP3   OH254689   6.814   6.359   1.113 -0.7962 -0.2114 -0.2802
17936TIP3    H154690   6.872   6.338   1.186 -1.4271  1.5089  0.7835
17936TIP3    H254691   6.817   6.282   1.057  0.4358 -1.2159  1.0882
17937TIP3   OH254692   5.141   1.415   0.343  0.2639  0.1064 -0.0873
17937TIP3    H154693   5.193   1.432   0.422  0.3987 -0.1554 -0.1167
17937TIP3    H254694   5.200   1.436   0.271 -0.1953  1.3340 -0.1260
17938TIP3   OH254695   9.734   1.903   9.025 -0.4139  0.1243  0.0878
17938TIP3    H154696   9.786   1.930   9.101  0.0162 -1.5690  0.4542
17938TIP3    H254697   9.775   1.948   8.951 -0.9041  1.8871  0.8298
17939TIP3   OH254698   6.432   9.051   0.756  0.0397 -0.2845  0.2313
17939TIP3    H154699   6.520   9.071   0.788 -0.5319 -0.5246  2.0766
17939TIP3    H254700   6.405   8.975   0.807 -1.9079  0.8391  0.9773
17940TIP3   OH254701   5.372   4.183   8.009  1.0130  0.4301  0.3119
17940TIP3    H154702   5.312   4.255   7.992 -1.9887 -1.7773  0.6169
17940TIP3    H254703   5.395   4.191   8.101 -0.6141  0.1662  0.7742
17941TIP3   OH254704   0.324   8.862   7.012  0.1006 -0.1268  0.3924
17941TIP3    H154705   0.399   8.842   6.955 -0.9447 -1.5045 -0.5891
17941TIP3    H254706   0.258   8.897   6.952  0.4358  2.6216  1.4858
17942TIP3   OH254707   5.985   7.355   6.866 -0.0307  0.0816  0.3002
17942TIP3    H154708   5.977   7.278   6.923 -3.3874  0.0110 -0.0386
17942TIP3    H254709   6.033   7.323   6.790 -1.5805 -1.8544  0.0417
17943TIP3   OH254710   2.072   6.903  10.077 -0.4905  0.2013 -0.1337
17943TIP3    H154711   2.046   6.891  10.168  0.1391  0.2954  0.0612
17943TIP3    H254712   1.999   6.867  10.026 -1.0173  0.4996  0.3996
17944TIP3   OH254713   2.994   0.337   6.467  0.2005  0.2776 -0.2688
17944TIP3    H154714   3.011   0.244   6.457  0.2010  0.3682 -1.2160
17944TIP3    H254715   2.915   0.342   6.521  1.2279 -0.2168  1.3442
17945TIP3   OH254716   8.783   9.580   5.760  0.2512 -0.3282  0.1665
17945TIP3    H154717   8.823   9.621   5.684  0.3611 -0.2966  0.2406
17945TIP3    H254718   8.720   9.645   5.792  0.7381 -0.0356  0.5438
17946TIP3   OH254719   8.501   3.582   7.998  0.0507 -0.3975  0.0335
17946TIP3    H154720   8.506   3.646   8.069 -1.2573 -0.6649  0.3965
17946TIP3    H254721   8.407   3.575   7.979  0.1054 -2.4888  0.2914
17947TIP3   OH254722   5.820   2.350   7.909  0.1318  0.1008  0.4336
17947TIP3    H154723   5.891   2.401   7.870 -0.9962  2.0767  0.8360
17947TIP3    H254724   5.849   2.259   7.901  1.4050  0.6444 -1.9879
17948TIP3   OH254725   2.266   4.229   8.979 -0.3444 -0.1334  0.5951
17948TIP3    H154726   2.325   4.295   9.016 -0.3204  0.3755 -0.3432
17948TIP3    H254727   2.310   4.146   8.995 -0.5317  0.0204  2.0939
17949TIP3   OH254728   7.888   4.652   9.619 -0.1401 -0.2345  0.0838
17949TIP3    H154729   7.914   4.592   9.688  0.4890 -1.5368 -1.2134
17949TIP3    H254730   7.808   4.614   9.582 -1.7880  1.6561  1.4998
17950TIP3   OH254731  10.536   2.994   4.442  0.4452  0.1821 -0.3999
17950TIP3    H154732  10.465   3.057   4.455 -0.0487 -0.4610  0.0680
17950TIP3    H254733  10.516   2.952   4.359 -0.6061 -1.1047  0.4661
17951TIP3   OH254734   5.905   7.690   3.721 -0.0250 -0.8291 -0.2135
17951TIP3    H154735   5.994   7.662   3.698 -0.5988 -0.2726 -3.6611
17951TIP3    H254736   5.865   7.613   3.762  1.1352 -2.1279 -1.4105
17952TIP3   OH254737   3.219   6.834   5.693 -0.0127 -0.3593  0.2607
17952TIP3    H154738   3.289   6.876   5.643  0.0859 -1.5992 -0.6784
17952TIP3    H254739   3.250   6.745   5.708 -0.7939 -0.5131  1.0707
17953TIP3   OH254740   2.707   6.670   4.789 -0.3952  0.4567  0.1428
17953TIP3    H154741   2.629   6.638   4.745 -0.6506 -0.3294  1.1437
17953TIP3    H254742   2.742   6.594   4.835  0.2463  1.0926  0.7382
17954TIP3   OH254743   7.380   5.423   6.763  0.2346 -1.1400  0.4024
17954TIP3    H154744   7.405   5.409   6.672  0.8012 -0.6006  0.4722
17954TIP3    H254745   7.445   5.375   6.814  0.8733 -0.1214  0.5691
17955TIP3   OH254746   0.028   8.845   1.901 -0.3042  0.1068 -0.1395
17955TIP3    H154747   0.079   8.841   1.819 -0.4960  0.6731 -0.2906
17955TIP3    H254748   0.043   8.933   1.934 -0.3869 -0.0549  0.3418
17956TIP3   OH254749   9.335   3.496   5.530  0.3205  0.2852 -0.7392
17956TIP3    H154750   9.247   3.494   5.566  0.4926  1.3894 -0.2226
17956TIP3    H254751   9.391   3.464   5.601  0.2794 -1.2026 -1.3338
17957TIP3   OH254752   2.191   0.330   6.590 -0.2151  0.0298  0.6122
17957TIP3    H154753   2.123   0.378   6.637 -0.4154 -0.7801  1.1587
17957TIP3    H254754   2.143   0.263   6.541  0.0646  0.3679 -0.1453
17958TIP3   OH254755   8.147   1.062   1.765 -0.5492 -0.5463  0.2354
17958TIP3    H154756   8.152   1.151   1.731 -0.9814 -0.5486  0.1599
17958TIP3    H254757   8.116   1.073   1.855  0.1012 -0.5730  0.4652
17959TIP3   OH254758   7.507   0.569   8.940  0.3388  0.5562  0.5751
17959TIP3    H154759   7.600   0.557   8.960 -0.1276  0.9844  3.3065
17959TIP3    H254760   7.461   0.527   9.012 -1.7612 -2.4035 -2.1711
17960TIP3   OH254761   6.520   1.607  10.507  0.4475 -0.2094 -0.2491
17960TIP3    H154762   6.557   1.520  10.521  2.3513  0.8720  2.3434
17960TIP3    H254763   6.464   1.621  10.583 -2.2664 -0.2267 -2.1276
17961TIP3   OH254764   4.723   4.674   9.846  0.8974  0.4495  0.2751
17961TIP3    H154765   4.647   4.672   9.788  0.1781  3.5324  0.9081
17961TIP3    H254766   4.718   4.592   9.895 -1.7012  0.2858 -0.1293
17962TIP3   OH254767   8.173   9.237   7.299 -0.1295 -0.5936 -0.0630
17962TIP3    H154768   8.125   9.319   7.285 -1.1885 -1.4691 -2.0022
17962TIP3    H254769   8.249   9.244   7.241 -0.9033 -1.4657 -1.2275
17963TIP3   OH254770   5.487   6.228   7.660  0.3276 -0.2667 -0.0807
17963TIP3    H154771   5.572   6.183   7.660 -1.1332 -3.3998  1.5783
17963TIP3    H254772   5.504   6.310   7.707  2.4578 -0.7347  0.0969
17964TIP3   OH254773   8.472   4.863   3.928  0.3715  1.0284 -0.0074
17964TIP3    H154774   8.564   4.862   3.953  0.2915 -0.6454  0.3725
17964TIP3    H254775   8.428   4.814   3.998 -0.6798  1.1011 -0.5992
17965TIP3   OH254776   2.038   2.020   2.290  0.0858  0.1897  0.3178
17965TIP3    H154777   1.947   1.993   2.294 -0.1143  0.6349 -0.7863
17965TIP3    H254778   2.087   1.949   2.331 -0.6572 -0.5861 -0.1268
17966TIP3   OH254779   4.113  10.558   3.327  0.6362  0.5956  0.0961
17966TIP3    H154780   4.122  10.594   3.239  3.0136 -0.6599 -0.2766
17966TIP3    H254781   4.046  10.491   3.319 -1.0699  2.2478 -0.0851
17967TIP3   OH254782   1.487   1.916   7.024 -0.6796  0.1577  0.2509
17967TIP3    H154783   1.427   1.927   6.951  2.2091  1.3996 -2.1176
17967TIP3    H254784   1.520   1.827   7.015  0.1421  0.5199 -0.3477
17968TIP3   OH254785   1.680   3.654  10.300  0.3048  0.0225  0.7089
17968TIP3    H154786   1.629   3.700  10.234  0.5993  1.5314  1.4799
17968TIP3    H254787   1.755   3.712  10.318  1.8080 -1.6969  0.2760
17969TIP3   OH254788  10.268   7.022   7.911 -0.2174  0.0572 -0.4781
17969TIP3    H154789  10.332   6.976   7.858  0.3597 -0.2464  0.4490
17969TIP3    H254790  10.186   6.977   7.895  0.3334 -1.3285  0.4090
17970TIP3   OH254791   6.080   5.177   0.671 -0.4225  0.0537 -0.9568
17970TIP3    H154792   6.071   5.260   0.717  0.9011  0.0150 -0.5821
17970TIP3    H254793   6.164   5.184   0.625  1.4514 -2.2729  1.7079
17971TIP3   OH254794   7.421   4.343   8.485 -0.5547 -0.1156  0.8487
17971TIP3    H154795   7.402   4.429   8.523 -1.7210 -0.5605  1.3481
17971TIP3    H254796   7.347   4.288   8.513  0.5343 -1.4724  1.1568
17972TIP3   OH254797   6.295   5.957   3.364  1.1601  0.1851 -0.0590
17972TIP3    H154798   6.380   5.999   3.379  2.5120 -2.5134  0.4182
17972TIP3    H254799   6.256   5.951   3.451  0.8194  0.7123 -0.1714
17973TIP3   OH254800   2.982   8.399   0.118 -0.5226 -0.1913  0.2616
17973TIP3    H154801   2.924   8.414   0.043 -0.7694 -0.6553  0.3544
17973TIP3    H254802   2.975   8.479   0.170 -0.2025  0.2123 -0.3028
17974TIP3   OH254803   0.306   1.219   3.950 -0.0343 -0.0853 -0.5490
17974TIP3    H154804   0.230   1.253   3.903 -0.6810  0.0005  0.5219
17974TIP3    H254805   0.271   1.147   4.003  0.6221 -0.0232 -0.0182
17975TIP3   OH254806   9.256   6.677   7.923 -0.2894  0.1679 -0.9003
17975TIP3    H154807   9.298   6.731   7.856  0.7282 -0.5765 -0.8826
17975TIP3    H254808   9.298   6.702   8.005 -0.8513  0.3855 -0.6731
17976TIP3   OH254809   0.345  10.423   0.220  0.0314 -0.0035 -0.0487
17976TIP3    H154810   0.294  10.412   0.300  1.4629  0.3655  0.9664
17976TIP3    H254811   0.357  10.517   0.211 -1.1286  0.0481 -1.3989
17977TIP3   OH254812   6.452   6.099   3.008  0.0982  0.1507  0.6718
17977TIP3    H154813   6.490   6.178   2.969 -0.9694  0.8745  1.0711
17977TIP3    H254814   6.527   6.040   3.020  0.9648  1.2253  0.6940
17978TIP3   OH254815   0.756   9.653   6.274 -0.3745 -0.2527  0.1826
17978TIP3    H154816   0.783   9.732   6.322 -0.9611  0.4529 -0.6043
17978TIP3    H254817   0.821   9.587   6.297  0.7997  0.7900 -0.0423
17979TIP3   OH254818   2.072   6.797   1.642 -0.0793 -0.1655  0.0998
17979TIP3    H154819   1.987   6.791   1.598 -0.5556 -0.1079  0.9647
17979TIP3    H254820   2.110   6.879   1.611  0.2076 -0.7680 -1.1988
17980TIP3   OH254821   5.066   6.646   8.868 -0.6119 -1.0093  0.2996
17980TIP3    H154822   5.116   6.677   8.793  0.7601 -0.9312  1.2169
17980TIP3    H254823   4.977   6.637   8.834 -0.1331 -0.5234 -1.2049
17981TIP3   OH254824   0.252   4.849   0.640  0.4663  0.2175  0.4878
17981TIP3    H154825   0.244   4.869   0.733 -0.8222  0.8324  0.2639
17981TIP3    H254826   0.162   4.843   0.608  0.8829 -0.5509 -0.6116
17982TIP3   OH254827   9.389   0.176   9.550 -0.3569  0.1367  0.1713
17982TIP3    H154828   9.479   0.157   9.526 -0.6299 -1.9640  0.5653
17982TIP3    H254829   9.343   0.093   9.535 -1.6043  0.2558  2.8236
17983TIP3   OH254830   4.098   7.172   1.597 -0.1324 -0.0765  0.1818
17983TIP3    H154831   4.118   7.156   1.689  1.2741 -0.4896 -0.1711
17983TIP3    H254832   4.121   7.263   1.583 -3.4554  1.0414  0.9789
17984TIP3   OH254833   0.584   6.379   9.222 -0.1439 -0.2884 -0.7279
17984TIP3    H154834   0.530   6.451   9.253  0.9746  0.0270  0.5690
17984TIP3    H254835   0.558   6.304   9.275 -0.5755 -0.5925 -1.3589
17985TIP3   OH254836   7.563   0.793   5.223  0.1830  0.3445 -0.2625
17985TIP3    H154837   7.538   0.812   5.132 -1.3169  1.7950  0.4034
17985TIP3    H254838   7.481   0.792   5.271  0.9444 -0.5841  1.0726
17986TIP3   OH254839   3.457   0.455   5.459 -0.4642 -0.3080 -0.3724
17986TIP3    H154840   3.394   0.523   5.435 -1.4689 -1.6245 -1.6051
17986TIP3    H254841   3.537   0.479   5.414 -0.6643  0.3137 -0.4054
17987TIP3   OH254842   1.540   2.770   1.205  0.1878 -0.0387 -0.1436
17987TIP3    H154843   1.508   2.680   1.195 -1.2982  0.6539 -2.8582
17987TIP3    H254844   1.499   2.818   1.132  1.7777  2.6115  0.5576
17988TIP3   OH254845   5.446   0.651  10.331  0.3635  0.7576 -0.7467
17988TIP3    H154846   5.387   0.591  10.286 -0.4717  2.1145 -1.5446
17988TIP3    H254847   5.388   0.711  10.379  1.2063 -0.4598  2.0233
17989TIP3   OH254848   4.644   7.662   9.466  0.0971 -0.2302 -0.3609
17989TIP3    H154849   4.677   7.669   9.376  0.9684  0.7495  0.0172
17989TIP3    H254850   4.634   7.568   9.481  0.6519 -0.4374 -1.2294
17990TIP3   OH254851   3.289  10.280   1.516 -0.1667 -0.1956  0.2103
17990TIP3    H154852   3.370  10.237   1.490  0.2633 -0.6918  2.2243
17990TIP3    H254853   3.313  10.372   1.527 -0.0355 -0.2307  0.2122
17991TIP3   OH254854   6.695   9.433   7.537 -0.2130 -0.4459  0.3010
17991TIP3    H154855   6.789   9.440   7.524 -0.0014 -1.9200  0.7628
17991TIP3    H254856   6.663   9.523   7.541  1.2630  0.0729  0.7255
17992TIP3   OH254857   8.268   6.743  10.804 -0.2685  0.3863 -0.4864
17992TIP3    H154858   8.175   6.760  10.788 -0.3718  0.5646  0.2624
17992TIP3    H254859   8.287   6.789  10.886 -0.0730 -1.4810  0.5681
17993TIP3   OH254860   8.536   6.522   9.663  0.0646 -0.1435  0.1348
17993TIP3    H154861   8.629   6.513   9.643 -0.0392  1.4448 -1.2833
17993TIP3    H254862   8.497   6.439   9.634  0.9291 -0.5547  0.1145
17994TIP3   OH254863   4.453   1.988   9.658  0.3527 -0.0730  0.7487
17994TIP3    H154864   4.373   1.945   9.688 -0.5751  0.7964 -0.3815
17994TIP3    H254865   4.455   2.071   9.707  1.5432 -0.8477  2.0965
17995TIP3   OH254866  10.201   0.525   9.615  0.2816  0.2240 -0.0584
17995TIP3    H154867  10.186   0.588   9.544  1.5490  0.2894 -0.2965
17995TIP3    H254868  10.247   0.452   9.573 -2.7394 -1.7749 -0.1760
17996TIP3   OH254869   9.233   6.637   9.208 -0.1090  0.0519 -0.3686
17996TIP3    H154870   9.291   6.711   9.192  1.6085 -1.0727  0.2849
17996TIP3    H254871   9.290   6.560   9.203 -1.2205 -1.0198  1.7244
17997TIP3   OH254872   4.216   1.238   9.174 -0.4502  0.0765 -0.5441
17997TIP3    H154873   4.242   1.240   9.082  0.4327  0.2203 -0.2944
17997TIP3    H254874   4.164   1.158   9.182 -0.7273  0.1751 -1.2067
17998TIP3   OH254875   1.639   9.377   6.541  0.2554 -0.3767  0.5012
17998TIP3    H154876   1.579   9.303   6.539  0.8030 -0.8098 -0.4659
17998TIP3    H254877   1.649   9.404   6.449  0.0496  0.9126  0.8344
17999TIP3   OH254878   1.068   4.769   2.614 -0.0571  0.4034 -0.5513
17999TIP3    H154879   1.012   4.821   2.671  0.5558  0.2322  0.2202
17999TIP3    H254880   1.069   4.818   2.531 -0.2937  1.0906 -0.1597
18000TIP3   OH254881   7.820   7.387   4.374 -0.4376 -0.4217  0.8726
18000TIP3    H154882   7.769   7.320   4.421  0.3354 -0.8521  1.1158
18000TIP3    H254883   7.845   7.450   4.441 -1.2631  0.1860  0.6220
18001TIP3   OH254884  10.445   3.131   4.150 -1.3975  0.3887  0.5432
18001TIP3    H154885  10.509   3.060   4.160 -1.2484  0.6167  1.3011
18001TIP3    H254886  10.421   3.154   4.240 -1.2441  1.4710  0.3265
18002TIP3   OH254887   0.842   2.362   5.534 -0.0567 -0.2445  0.7921
18002TIP3    H154888   0.833   2.421   5.608 -0.2275  0.4177  0.2508
18002TIP3    H254889   0.933   2.373   5.506 -0.8302  2.0820 -1.1853
18003TIP3   OH254890   9.124   6.530  10.282  0.2507  0.0554 -0.3091
18003TIP3    H154891   9.206   6.579  10.285 -0.2705  0.9294  0.9692
18003TIP3    H254892   9.147   6.445  10.244  1.7571  0.2597  0.0881
18004TIP3   OH254893   4.794   0.449  10.744  0.2083 -0.1844 -0.5197
18004TIP3    H154894   4.888   0.431  10.741  0.3460  0.5326 -0.6532
18004TIP3    H254895   4.766   0.414  10.829  0.6691 -0.0550 -0.3087
18005TIP3   OH254896   0.633   7.915   1.661  0.2337  0.5652 -0.2099
18005TIP3    H154897   0.720   7.875   1.664  0.5629  1.3411  1.7304
18005TIP3    H254898   0.577   7.847   1.624  0.8473 -1.6519  2.6062
18006TIP3   OH254899  10.255   4.666   4.422 -0.0755 -0.0589  0.3724
18006TIP3    H154900  10.292   4.658   4.510  1.3261 -0.3116 -0.2035
18006TIP3    H254901  10.165   4.696   4.436 -0.3066 -1.3434  1.9298
18007TIP3   OH254902   0.428   2.873   9.422  0.2456  0.0748  0.1507
18007TIP3    H154903   0.443   2.947   9.364  1.0952  1.6430  2.2396
18007TIP3    H254904   0.512   2.826   9.423 -0.3060 -1.0228 -1.2101
18008TIP3   OH254905   0.736   7.323   8.572 -0.1314 -0.0210 -0.1996
18008TIP3    H154906   0.692   7.253   8.621  1.8549 -0.2826  1.3503
18008TIP3    H254907   0.730   7.295   8.480 -1.7613 -0.8005  0.1039
18009TIP3   OH254908   9.885   6.221   1.244  0.3509  0.5453  0.5440
18009TIP3    H154909   9.830   6.296   1.219  0.3304  0.4628  0.3384
18009TIP3    H254910   9.953   6.259   1.299  0.0061  0.6271  0.9160
18010TIP3   OH254911   1.945   8.517   1.363  0.3814 -0.0548 -0.0321
18010TIP3    H154912   1.894   8.580   1.415  0.6868  0.7040 -0.6268
18010TIP3    H254913   1.968   8.448   1.425  2.0301  1.5617  1.2730
18011TIP3   OH254914   6.356  10.351   3.360 -0.4781 -0.0059  0.6255
18011TIP3    H154915   6.425  10.316   3.417 -0.6311 -1.5660 -0.1134
18011TIP3    H254916   6.279  10.298   3.380 -0.3783 -1.0147 -1.4127
18012TIP3   OH254917   9.547   2.380   2.390  0.0062 -0.0059 -0.9750
18012TIP3    H154918   9.621   2.423   2.431 -0.2817 -0.3890 -0.0287
18012TIP3    H254919   9.586   2.320   2.326  0.5017 -0.1277 -0.5632
18013TIP3   OH254920   2.168   7.737  10.524  0.4046  0.2475 -0.0639
18013TIP3    H154921   2.240   7.756  10.584  1.3100 -1.2555 -0.6191
18013TIP3    H254922   2.160   7.816  10.470  0.6434  0.9880  0.9392
18014TIP3   OH254923   5.438  10.812   4.217 -0.1685  0.3968 -0.0139
18014TIP3    H154924   5.424  10.730   4.263 -0.5098  1.3086  1.5830
18014TIP3    H254925   5.495  10.863   4.275 -0.0960  1.3552 -0.8856
18015TIP3   OH254926   0.119   1.226   0.460 -0.1669 -0.4433 -0.1020
18015TIP3    H154927   0.210   1.246   0.480 -0.1847 -1.4350  1.0847
18015TIP3    H254928   0.071   1.247   0.541 -0.9188 -0.3552 -0.5585
18016TIP3   OH254929   2.803   3.536   7.640 -0.2806 -0.3345 -0.4131
18016TIP3    H154930   2.833   3.532   7.549 -1.9202 -0.8880 -0.9660
18016TIP3    H254931   2.711   3.508   7.636 -0.3920 -0.3356  1.4129
18017TIP3   OH254932   1.148   9.342   3.179 -0.1970 -0.2383  0.0848
18017TIP3    H154933   1.062   9.306   3.201 -0.0618 -1.2730 -0.9536
18017TIP3    H254934   1.146   9.432   3.210 -1.7751 -0.1465 -0.2208
18018TIP3   OH254935  10.878   0.721   1.346 -0.2500 -0.3156  0.1570
18018TIP3    H154936  10.823   0.686   1.417  0.7546 -0.6450  0.7893
18018TIP3    H254937  10.835   0.692   1.266 -0.5302 -1.3047  0.6562
18019TIP3   OH254938   3.938   3.604   7.964 -0.0017 -0.0046  0.1618
18019TIP3    H154939   4.009   3.542   7.949 -0.1800 -1.0358  3.0512
18019TIP3    H254940   3.868   3.575   7.905  0.0689 -2.3706  1.1495
18020TIP3   OH254941   7.009   8.856   8.637 -0.3323 -0.2802  0.3362
18020TIP3    H154942   7.016   8.896   8.724 -0.1884  3.3844 -1.1983
18020TIP3    H254943   6.924   8.885   8.604  0.4097 -0.0292 -1.4586
18021TIP3   OH254944   8.074  10.362   6.542 -0.1366  0.6997 -0.0103
18021TIP3    H154945   8.056  10.281   6.590 -0.7659 -0.1473 -1.5898
18021TIP3    H254946   8.021  10.428   6.584  0.9870  0.5035  1.8177
18022TIP3   OH254947   9.796   4.497  10.470 -0.0597 -0.5347  0.0180
18022TIP3    H154948   9.855   4.490  10.396  1.7310  1.4867  1.1149
18022TIP3    H254949   9.772   4.590  10.472 -2.0219 -1.0064  0.5682
18023TIP3   OH254950   8.818   3.671   1.264 -0.0151  0.3772 -0.1777
18023TIP3    H154951   8.903   3.632   1.282  0.4385 -0.1831 -3.0392
18023TIP3    H254952   8.757   3.597   1.270 -0.2550  0.6667  1.2944
18024TIP3   OH254953   1.382  10.225   8.579 -0.4887 -0.2068 -0.6473
18024TIP3    H154954   1.318  10.154   8.572  0.1939 -0.8208 -0.7663
18024TIP3    H254955   1.440  10.213   8.504 -1.1616  1.3053 -1.4577
18025TIP3   OH254956   9.219   3.870   3.398  0.0089 -0.2595  0.2122
18025TIP3    H154957   9.153   3.846   3.334  1.3106 -3.0259 -0.2593
18025TIP3    H254958   9.300   3.832   3.363  1.6878  2.2005  1.2121
18026TIP3   OH254959   4.817   4.118   4.111  0.3856 -0.4395  0.5914
18026TIP3    H154960   4.900   4.078   4.136  0.7858  1.0088  1.6923
18026TIP3    H254961   4.832   4.153   4.023  1.3953  0.9681  1.2861
18027TIP3   OH254962   3.562   5.406   4.343 -0.3374  0.0237 -0.0345
18027TIP3    H154963   3.520   5.321   4.328  0.7988 -0.4802 -0.4614
18027TIP3    H254964   3.619   5.391   4.419  0.0828  0.3289 -0.2878
18028TIP3   OH254965   0.630   6.340   5.213  0.2849 -0.1711  0.7812
18028TIP3    H154966   0.632   6.421   5.161  0.2446 -0.0595  0.9536
18028TIP3    H254967   0.604   6.368   5.300 -2.2419 -0.6967  0.2612
18029TIP3   OH254968   2.588   1.241   8.727  0.3138  0.9572  0.0884
18029TIP3    H154969   2.610   1.231   8.820  1.9015 -0.1757 -0.3693
18029TIP3    H254970   2.527   1.169   8.710 -0.1002  1.2590  0.2824
18030TIP3   OH254971   8.375   7.910   8.532  0.3070  0.4871 -0.2171
18030TIP3    H154972   8.439   7.971   8.497 -0.1255  1.1443  0.1284
18030TIP3    H254973   8.350   7.946   8.617 -0.6444  0.3401 -0.4186
18031TIP3   OH254974   9.328   6.366   2.076 -0.1147  0.1169  0.0865
18031TIP3    H154975   9.240   6.329   2.087  0.4145 -2.5444 -2.9421
18031TIP3    H254976   9.338   6.374   1.981  2.1701  2.4823  0.4384
18032TIP3   OH254977   7.903   2.739   7.883  0.6440  0.2293 -0.3093
18032TIP3    H154978   7.995   2.747   7.857  0.3693  1.5321 -0.9706
18032TIP3    H254979   7.860   2.813   7.841 -0.8492 -0.7602 -0.6038
18033TIP3   OH254980   4.966   7.164   2.752  0.4338  0.5366 -0.2251
18033TIP3    H154981   5.039   7.183   2.811  0.3167  1.1332 -0.2654
18033TIP3    H254982   4.893   7.144   2.810  1.0213 -1.6741 -0.1848
18034TIP3   OH254983   6.299  10.894   5.667 -0.0501  0.3247  0.4982
18034TIP3    H154984   6.244  10.834   5.718 -0.7571  1.1349  0.7230
18034TIP3    H254985   6.327  10.842   5.592 -2.3349  0.2535 -0.4108
18035TIP3   OH254986   5.183   1.001   0.603 -0.1613  0.0921  0.1486
18035TIP3    H154987   5.183   1.050   0.521  1.5026  1.8930  1.1514
18035TIP3    H254988   5.102   1.028   0.647 -2.1509 -2.4605 -1.6856
18036TIP3   OH254989   4.993   7.125  10.685 -0.7733 -0.4681 -0.2169
18036TIP3    H154990   4.979   7.123  10.780 -2.8684 -1.1527 -0.4878
18036TIP3    H254991   5.005   7.034  10.660  2.1994 -0.1135 -0.3641
18037TIP3   OH254992   4.691   2.398  10.447  0.2834  0.0399  0.6304
18037TIP3    H154993   4.631   2.417  10.519 -0.8087 -0.2791 -0.1663
18037TIP3    H254994   4.697   2.480  10.398 -1.1282 -0.4612 -0.4358
18038TIP3   OH254995   6.456   4.460   7.205 -0.7667 -0.5129  0.1706
18038TIP3    H154996   6.467   4.411   7.123  2.1770 -0.1746  0.2643
18038TIP3    H254997   6.476   4.396   7.273 -1.7626 -0.3958  0.5963
18039TIP3   OH254998   0.082   4.299   7.084  0.0392 -0.0182 -0.3175
18039TIP3    H154999  -0.002   4.267   7.053  0.1483 -0.9431  0.3112
18039TIP3    H255000   0.141   4.286   7.009 -0.2308  0.0415 -0.5437
18040TIP3   OH255001   3.407   4.188   5.056  0.7862 -0.1303  0.1717
18040TIP3    H155002   3.313   4.175   5.060  0.5283  1.3620 -0.3512
18040TIP3    H255003   3.441   4.108   5.017 -0.3125 -0.4988 -0.0449
18041TIP3   OH255004  10.033  10.241  10.831 -0.1344 -0.5166  0.4290
18041TIP3    H155005  10.087  10.316  10.854  1.2458 -1.3995  0.1855
18041TIP3    H255006  10.058  10.219  10.741 -1.0417 -0.8374  0.2390
18042TIP3   OH255007   9.126   8.798   7.993 -0.1447  0.3169  0.1424
18042TIP3    H155008   9.176   8.733   7.944  0.2503  0.7910 -0.0966
18042TIP3    H255009   9.189   8.833   8.056  0.4827  2.4189 -1.5271
18043TIP3   OH255010   6.957   3.218   3.869 -0.1364 -0.2049  0.5402
18043TIP3    H155011   6.932   3.133   3.832  0.7533  0.1879 -1.0716
18043TIP3    H255012   7.053   3.219   3.863 -0.0514  0.3881  1.7768
18044TIP3   OH255013   3.029   0.263   9.657  0.1560  0.2087 -0.2289
18044TIP3    H155014   3.036   0.284   9.750  0.4455  0.3693 -0.2867
18044TIP3    H255015   2.973   0.185   9.654 -1.0238  1.0128 -0.0083
18045TIP3   OH255016   0.949   4.613  10.532  0.2961 -0.0315 -0.3591
18045TIP3    H155017   0.940   4.708  10.540  0.4889  0.0106 -0.6109
18045TIP3    H255018   0.888   4.589  10.463  0.9075  0.0378 -0.9388
18046TIP3   OH255019   8.944   1.437   1.800  0.6720 -0.1797  0.3442
18046TIP3    H155020   9.022   1.384   1.812  0.3563 -0.5699  0.7273
18046TIP3    H255021   8.960   1.487   1.720  2.1185  1.1625  1.4087
18047TIP3   OH255022   4.925   1.653  10.739 -0.4891  0.0881 -0.4901
18047TIP3    H155023   4.834   1.680  10.754 -0.0394  0.0861  3.1218
18047TIP3    H255024   4.918   1.568  10.696 -2.2193 -0.1282  0.1405
18048TIP3   OH255025   8.333   2.658   1.034 -0.0134  0.2621 -0.3928
18048TIP3    H155026   8.312   2.635   0.943 -0.5271 -1.0195  0.0305
18048TIP3    H255027   8.407   2.602   1.056 -0.7741 -0.4726  0.4045
18049TIP3   OH255028   7.268   9.936   4.036 -0.0992  0.5787 -0.1916
18049TIP3    H155029   7.215   9.929   4.115  0.2315  1.0045  0.0712
18049TIP3    H255030   7.218   9.993   3.978  0.4827  1.7227  0.4097
18050TIP3   OH255031   7.675  10.098   2.710 -0.8267  0.4254 -0.1149
18050TIP3    H155032   7.647  10.190   2.713 -0.0440  0.6470  0.6895
18050TIP3    H255033   7.718  10.083   2.794  0.4120 -0.2395 -0.8352
18051TIP3   OH255034   9.026   8.275   5.592 -0.1626  0.2103  0.1048
18051TIP3    H155035   8.941   8.292   5.633 -0.3421  0.2010 -0.2580
18051TIP3    H255036   9.052   8.358   5.554  0.8709  0.7069  1.7787
18052TIP3   OH255037   0.501   2.302   4.088 -0.2220 -0.1454  0.1520
18052TIP3    H155038   0.552   2.349   4.154 -0.7559 -0.1205  0.5598
18052TIP3    H255039   0.492   2.213   4.124  0.0471 -0.3203 -0.2042
18053TIP3   OH255040  10.753   3.002   3.979  0.4514 -0.3916  0.3330
18053TIP3    H155041  10.682   3.062   3.955  0.9019 -0.4601 -1.2484
18053TIP3    H255042  10.726   2.917   3.945  0.7645 -0.6605  0.7465
18054TIP3   OH255043  10.239   4.162   4.713 -0.1378 -0.1356  0.5770
18054TIP3    H155044  10.306   4.228   4.729 -0.2803 -0.0035  0.6244
18054TIP3    H255045  10.172   4.208   4.663  0.6096 -0.6985 -1.0048
18055TIP3   OH255046   8.630   8.395   2.473  0.3093  0.6917 -0.1092
18055TIP3    H155047   8.668   8.412   2.387  0.0310  2.0419  0.0100
18055TIP3    H255048   8.654   8.304   2.493  2.3985  1.0834 -0.5693
18056TIP3   OH255049   3.315   8.342   5.566  0.0280 -0.0462 -0.5298
18056TIP3    H155050   3.310   8.342   5.662 -0.2992 -1.2169 -0.5312
18056TIP3    H255051   3.388   8.400   5.546 -0.1207  0.4845  0.4146
18057TIP3   OH255052   7.474   8.040   8.677  0.4101  0.2534  0.0659
18057TIP3    H155053   7.520   8.118   8.646 -1.8883  0.4070 -3.3985
18057TIP3    H255054   7.513   7.967   8.628  0.3073 -0.3332  0.8278
18058TIP3   OH255055   6.946   7.613   0.323 -0.1036  0.1943  0.1894
18058TIP3    H155056   6.918   7.562   0.399 -0.3214  0.7131  0.4679
18058TIP3    H255057   7.012   7.673   0.358  1.4808 -1.1022 -0.4871
18059TIP3   OH255058   6.873   7.354   9.892  0.3049  0.0765  0.2966
18059TIP3    H155059   6.898   7.372   9.802 -0.9852 -0.8267 -0.2780
18059TIP3    H255060   6.899   7.264   9.907  0.5075  0.2206  0.8271
18060TIP3   OH255061   2.086   9.915   7.624 -0.2135 -0.3992  0.4704
18060TIP3    H155062   2.088   9.820   7.611  2.9603 -0.4286  0.3513
18060TIP3    H255063   2.116   9.951   7.541 -2.1987  0.8454  0.2224
18061TIP3   OH255064   6.649   8.729   4.425  0.2484  0.1324 -0.2054
18061TIP3    H155065   6.653   8.819   4.459  1.2610  0.5307 -1.2901
18061TIP3    H255066   6.668   8.739   4.331 -0.6355 -1.1149 -0.5271
18062TIP3   OH255067   9.510   8.656   3.432  0.2708 -1.1951  0.2769
18062TIP3    H155068   9.433   8.706   3.404  0.0222 -2.7000 -2.0701
18062TIP3    H255069   9.581   8.721   3.433  0.2145 -0.7553 -3.7641
18063TIP3   OH255070   4.301   3.612  10.004 -0.4687 -0.1839  0.3284
18063TIP3    H155071   4.291   3.583  10.095 -0.2518  0.6744  0.6358
18063TIP3    H255072   4.285   3.707  10.008 -0.4269 -0.1408 -0.5238
18064TIP3   OH255073   4.261   9.033  10.008 -0.0108 -0.0507  0.1380
18064TIP3    H155074   4.293   8.992   9.928  2.5157 -1.4767  1.7604
18064TIP3    H255075   4.218   8.963  10.056 -1.5308  0.7980  0.0751
18065TIP3   OH255076   1.844   8.767   0.655 -0.0871  0.0170 -0.1599
18065TIP3    H155077   1.824   8.780   0.563  0.5970  0.2297 -0.2858
18065TIP3    H255078   1.791   8.832   0.701  0.5344  0.7668 -0.5038
18066TIP3   OH255079   5.613   7.257   0.875  0.3345 -0.1346 -0.0340
18066TIP3    H155080   5.582   7.339   0.837 -2.0641 -0.9609 -0.0556
18066TIP3    H255081   5.649   7.208   0.801  0.0735  0.1613 -0.3583
18067TIP3   OH255082   5.435   5.065   8.719 -0.5251 -0.2204  0.3895
18067TIP3    H155083   5.352   5.021   8.740 -0.7183 -0.5188 -0.9044
18067TIP3    H255084   5.462   5.106   8.801 -1.4768 -0.9056  1.0669
18068TIP3   OH255085   0.616  10.191   3.563  0.6653 -0.4062  0.0134
18068TIP3    H155086   0.627  10.285   3.572 -0.9358 -0.1102 -0.7064
18068TIP3    H255087   0.586  10.179   3.473 -2.5040 -1.2221  1.0562
18069TIP3   OH255088   5.761  10.607   2.839  0.4301 -0.5221 -0.4795
18069TIP3    H155089   5.833  10.668   2.824  0.8500 -0.7392  0.5625
18069TIP3    H255090   5.778  10.535   2.779  0.4392 -0.0486 -1.0581
18070TIP3   OH255091   8.000   7.605   9.779  0.4480  0.1554  0.5160
18070TIP3    H155092   7.906   7.596   9.788  0.4066  1.6157  2.0640
18070TIP3    H255093   8.012   7.675   9.716  0.5938 -1.6582 -1.6000
18071TIP3   OH255094  10.127   9.455   2.714  0.3137  0.0109  0.2307
18071TIP3    H155095  10.113   9.361   2.726 -0.4295  0.3126  2.0975
18071TIP3    H255096  10.039   9.492   2.710  0.5633  0.4922 -2.2864
18072TIP3   OH255097  10.118   1.315   3.513 -0.6571  0.2539 -0.0385
18072TIP3    H155098  10.098   1.327   3.606  2.1068  0.9747  0.5562
18072TIP3    H255099  10.209   1.284   3.512 -1.1491 -1.4308 -2.4628
18073TIP3   OH255100   1.428   6.728   9.894  0.1763  0.1893  0.4150
18073TIP3    H155101   1.373   6.795   9.852 -1.3223  0.7874  3.1003
18073TIP3    H255102   1.393   6.645   9.862 -1.1676  0.6054  0.7704
18074TIP3   OH255103   4.595   2.032   6.676 -0.4419  0.3261 -0.1365
18074TIP3    H155104   4.556   2.108   6.718 -1.8697 -0.9846  1.0352
18074TIP3    H255105   4.525   1.996   6.621  0.7246  0.7591 -2.0183
18075TIP3   OH255106   5.099  10.869   3.050  0.0169  0.1348 -0.0255
18075TIP3    H155107   5.071  10.898   3.137  0.0230 -0.4757  0.1845
18075TIP3    H255108   5.155  10.793   3.067 -0.0214 -0.0156 -0.5649
18076TIP3   OH255109   6.166   1.458   3.318  0.3007 -0.5308  0.2689
18076TIP3    H155110   6.093   1.510   3.352 -0.0667 -0.4026 -0.6662
18076TIP3    H255111   6.214   1.518   3.261  0.9327 -0.7158  0.6080
18077TIP3   OH255112   6.709   2.504   8.452 -0.0527  0.0145 -0.0532
18077TIP3    H155113   6.705   2.427   8.509  0.7245 -0.1605 -0.2230
18077TIP3    H255114   6.683   2.577   8.508  0.6361 -0.1666  0.5070
18078TIP3   OH255115   9.848   6.377   7.622  0.4753  0.2024 -0.0217
18078TIP3    H155116   9.812   6.423   7.545  0.7327  1.5383  0.6309
18078TIP3    H255117   9.906   6.441   7.663 -2.2422  0.8499  3.2224
18079TIP3   OH255118   5.718  10.216   1.416 -0.0330 -0.3770  0.1263
18079TIP3    H155119   5.640  10.161   1.411  0.8829 -1.7089 -0.0467
18079TIP3    H255120   5.790  10.155   1.435  0.9725  0.8044  0.2701
18080TIP3   OH255121  10.264   0.279   1.527 -0.1687  0.7662  0.4422
18080TIP3    H155122  10.182   0.328   1.520 -0.1844  0.5823 -1.1078
18080TIP3    H255123  10.239   0.188   1.512  0.4381  0.8404 -1.2364
18081TIP3   OH255124   6.672   6.141   2.361  0.1419 -0.0645  1.1012
18081TIP3    H155125   6.669   6.147   2.456 -0.9821 -2.1184  1.2500
18081TIP3    H255126   6.582   6.159   2.333  0.3318 -0.0593  0.4731
18082TIP3   OH255127   0.141   6.086   6.536  0.3791  0.0874 -0.0971
18082TIP3    H155128   0.203   6.157   6.551 -1.7689  1.9000  0.6943
18082TIP3    H255129   0.144   6.033   6.615 -0.0391  0.9544  0.5097
18083TIP3   OH255130   3.224   2.740   9.911  0.6785 -0.6311  0.8545
18083TIP3    H155131   3.319   2.743   9.911  0.7570 -2.2900  0.9713
18083TIP3    H255132   3.198   2.799   9.982  1.5529  0.6285  0.1629
18084TIP3   OH255133   0.456   2.676   2.440  0.4551  0.2221 -0.4364
18084TIP3    H155134   0.395   2.735   2.395 -1.5007 -2.1761 -1.1632
18084TIP3    H255135   0.488   2.617   2.372  1.5496 -0.2202  0.4255
18085TIP3   OH255136  10.108   3.182   7.061 -0.2737  0.0099  0.1029
18085TIP3    H155137  10.029   3.207   7.013 -0.5902  2.6641  1.7742
18085TIP3    H255138  10.175   3.242   7.028  0.2314 -0.1195  0.8775
18086TIP3   OH255139   4.946   6.513   9.458 -0.8124 -0.1270 -0.0530
18086TIP3    H155140   4.964   6.434   9.406 -1.1011 -0.7553  0.7851
18086TIP3    H255141   4.945   6.584   9.393  0.0834 -0.7103 -0.7391
18087TIP3   OH255142   2.783   1.422   5.027 -0.1779  0.1021  0.3784
18087TIP3    H155143   2.833   1.345   5.000 -0.3737  0.5975 -1.5573
18087TIP3    H255144   2.845   1.475   5.076  1.1481  0.5024 -1.6071
18088TIP3   OH255145  10.087   9.983   8.436 -0.2789  0.7457 -0.2834
18088TIP3    H155146  10.177   9.981   8.467 -1.1997 -0.1204  2.6842
18088TIP3    H255147  10.046  10.054   8.484 -1.0137  1.7808 -2.3112
18089TIP3   OH255148   2.749   0.488   0.683  0.5184  0.0738  0.2017
18089TIP3    H155149   2.682   0.444   0.735  1.4464 -0.6054  0.8485
18089TIP3    H255150   2.711   0.573   0.662 -1.0790 -0.8011 -0.5960
18090TIP3   OH255151   1.517   2.931   6.851  0.1774 -0.0563  0.0471
18090TIP3    H155152   1.423   2.933   6.833 -0.1648 -0.3634  1.6689
18090TIP3    H255153   1.555   2.982   6.779 -1.3717  1.4810  0.2311
18091TIP3   OH255154  10.188   9.605   4.891 -0.4424 -0.5702 -0.3364
18091TIP3    H155155  10.176   9.531   4.832  0.9429  1.0227 -2.7797
18091TIP3    H255156  10.247   9.664   4.845 -1.3623  2.0275  1.5359
18092TIP3   OH255157   8.201   0.601   2.254 -0.2596  0.3151  0.9625
18092TIP3    H155158   8.172   0.693   2.255  0.6827  0.6399 -0.0819
18092TIP3    H255159   8.277   0.600   2.196  0.0265 -1.0560  1.3247
18093TIP3   OH255160   5.767   7.258   1.871  1.0368  0.8571  0.3441
18093TIP3    H155161   5.821   7.255   1.792  0.9941  0.6851  0.3213
18093TIP3    H255162   5.801   7.332   1.921  1.6675  0.3874  0.6097
18094TIP3   OH255163   5.705   1.039   7.286  0.5106  0.2799  0.4760
18094TIP3    H155164   5.773   1.055   7.351 -0.8494  1.1967  1.7228
18094TIP3    H255165   5.673   1.126   7.263 -0.5453 -0.1600  0.2405
18095TIP3   OH255166  10.072   0.375   0.946  0.3814 -0.3173 -0.2358
18095TIP3    H155167  10.160   0.398   0.975  0.6893 -0.4214 -1.0583
18095TIP3    H255168  10.085   0.299   0.890 -0.6100 -2.8517  2.6600
18096TIP3   OH255169   3.746   1.889   1.846  0.2523 -0.3182  0.2160
18096TIP3    H155170   3.822   1.904   1.790 -0.0332  1.1555  0.1804
18096TIP3    H255171   3.726   1.796   1.835  1.1042 -0.3884 -0.9762
18097TIP3   OH255172   3.287   5.317   5.842  0.4308  0.5084  0.1376
18097TIP3    H155173   3.323   5.373   5.912 -1.2987  1.0743  0.6229
18097TIP3    H255174   3.304   5.365   5.762 -1.9749  2.3873  0.6248
18098TIP3   OH255175   2.753   5.450   7.760 -0.2150 -0.6594 -0.0167
18098TIP3    H155176   2.680   5.488   7.711 -1.1365 -0.7569  1.2283
18098TIP3    H255177   2.794   5.389   7.699  0.4428  1.2650 -1.5875
18099TIP3   OH255178   2.431   5.833   5.437 -0.2980 -0.4445  0.2504
18099TIP3    H155179   2.389   5.771   5.376  0.8336 -0.6026 -0.4231
18099TIP3    H255180   2.471   5.777   5.504  2.1885 -0.6857 -1.2709
18100TIP3   OH255181   6.230   9.937   1.004  0.1271  0.2339  0.0103
18100TIP3    H155182   6.249  10.011   1.062  0.4034 -0.0181  0.2454
18100TIP3    H255183   6.212   9.864   1.063 -1.1334  0.3425 -0.2169
18101TIP3   OH255184   6.462   0.013   7.453 -0.2723 -0.5630 -0.0650
18101TIP3    H155185   6.395   0.046   7.513  0.9904  0.6247  0.7742
18101TIP3    H255186   6.416  -0.048   7.396 -2.1037  0.3739  0.3371
18102TIP3   OH255187   6.925   7.570   3.214 -0.3872  0.2209  0.6473
18102TIP3    H155188   6.872   7.636   3.170  0.5692  0.7153  0.1944
18102TIP3    H255189   6.885   7.487   3.190  0.1544  0.4617 -1.3011
18103TIP3   OH255190   8.375   3.666   7.581 -0.3755  0.0627  0.3463
18103TIP3    H155191   8.386   3.719   7.503 -0.4008  0.7259  0.7907
18103TIP3    H255192   8.456   3.614   7.586 -1.0108 -1.1217 -0.9563
18104TIP3   OH255193   1.936   6.919   6.168 -0.0069  0.1668 -0.0240
18104TIP3    H155194   1.915   6.930   6.260 -0.6328  2.2754 -0.3678
18104TIP3    H255195   2.031   6.927   6.163  0.0695 -0.3694  0.4653
18105TIP3   OH255196   6.622   6.859   1.215  0.8782  0.3238 -0.7715
18105TIP3    H155197   6.530   6.886   1.215  0.1294 -1.9264 -0.1815
18105TIP3    H255198   6.661   6.903   1.290  0.5308  1.9746 -1.5284
18106TIP3   OH255199   8.795   4.389   7.812  0.4310  0.9388 -0.0138
18106TIP3    H155200   8.885   4.363   7.794  0.9729  1.6697  1.4149
18106TIP3    H255201   8.800   4.483   7.828 -0.4220  0.8433  0.9366
18107TIP3   OH255202   9.399   0.565   9.998  0.3929 -0.0772  0.3516
18107TIP3    H155203   9.337   0.625   9.955  0.7652  2.3239  2.9061
18107TIP3    H255204   9.485   0.602   9.980  0.7029 -0.3089  1.3131
18108TIP3   OH255205   2.775   8.242   2.371  0.5458 -0.8195  0.7933
18108TIP3    H155206   2.738   8.154   2.373 -0.6041 -0.3570  0.5007
18108TIP3    H255207   2.823   8.246   2.289 -0.3466 -0.8053  0.2654
18109TIP3   OH255208   3.665   4.560   2.337 -0.3724 -0.5517  0.1199
18109TIP3    H155209   3.729   4.630   2.344  0.1254 -0.9162 -0.6261
18109TIP3    H255210   3.583   4.605   2.316  0.3004 -0.2756 -2.1912
18110TIP3   OH255211   2.530   2.195   7.636 -0.4662 -0.0733 -0.7739
18110TIP3    H155212   2.510   2.107   7.666 -2.3720  0.4901 -0.3107
18110TIP3    H255213   2.603   2.223   7.691 -1.5548 -0.4029  0.9091
18111TIP3   OH255214   4.285   5.344   1.753  0.0304  0.0310  0.2695
18111TIP3    H155215   4.336   5.276   1.709 -0.4139 -0.1441  0.0178
18111TIP3    H255216   4.321   5.348   1.841  2.3044  1.7662 -0.6207
18112TIP3   OH255217   2.355   2.554   8.993  0.2144  0.3938  0.3180
18112TIP3    H155218   2.291   2.623   9.009  0.9408  1.0632  0.4193
18112TIP3    H255219   2.437   2.588   9.030  1.2355  0.6588 -2.0165
18113TIP3   OH255220   3.186   0.578   1.081 -0.5219  0.4216  0.2624
18113TIP3    H155221   3.108   0.607   1.034 -0.2811  0.7879  0.0817
18113TIP3    H255222   3.255   0.576   1.015 -0.6524 -1.1699  0.1303
18114TIP3   OH255223   0.163  10.872   8.043 -0.1601  0.0632 -0.5047
18114TIP3    H155224   0.255  10.872   8.071 -0.2853 -2.8045  0.2732
18114TIP3    H255225   0.126  10.950   8.085  2.2722  2.5367 -2.5549
18115TIP3   OH255226   4.682   5.942   8.416  0.0747 -0.4212  0.4687
18115TIP3    H155227   4.654   5.857   8.382  0.9658 -1.2868  1.8096
18115TIP3    H255228   4.777   5.942   8.406  0.4750 -1.0036  3.4471
18116TIP3   OH255229   2.380   0.262   3.320 -0.0505  0.0026 -0.4802
18116TIP3    H155230   2.441   0.213   3.265 -1.0588 -2.6048  0.5492
18116TIP3    H255231   2.320   0.304   3.259  0.5386 -0.5087 -1.4234
18117TIP3   OH255232  10.636   6.773   5.888  0.5239 -0.2788  0.1973
18117TIP3    H155233  10.605   6.683   5.889 -0.1213 -0.0559  0.6371
18117TIP3    H255234  10.648   6.795   5.980  3.0980 -0.7211  0.0544
18118TIP3   OH255235   1.101  10.276   7.084 -0.1154 -0.8620  0.2924
18118TIP3    H155236   1.010  10.300   7.103 -0.2460 -0.5054 -0.7124
18118TIP3    H255237   1.097  10.232   6.999  0.4975 -2.0042  0.8355
18119TIP3   OH255238   5.414   7.632   3.760  0.6469 -0.1884 -0.6136
18119TIP3    H155239   5.439   7.645   3.669 -1.8419  1.4088 -1.1673
18119TIP3    H255240   5.385   7.541   3.764  0.8734 -0.2986 -1.3917
18120TIP3   OH255241  10.702   2.150  10.321  0.0246 -0.1394 -0.0257
18120TIP3    H155242  10.763   2.092  10.276 -1.6518 -1.7156 -0.4142
18120TIP3    H255243  10.734   2.154  10.411  1.1290 -0.2916 -0.3997
18121TIP3   OH255244   5.070   3.486   5.090 -0.1335  0.5515 -0.1611
18121TIP3    H155245   5.083   3.543   5.015  0.9484  1.1941  0.4874
18121TIP3    H255246   5.106   3.535   5.164  0.0780 -0.6384  0.5459
18122TIP3   OH255247   6.435   2.149   6.289  0.0297 -0.1046 -0.6261
18122TIP3    H155248   6.464   2.180   6.203 -3.8458  0.3352 -1.9805
18122TIP3    H255249   6.420   2.055   6.278  0.1348 -0.1732 -0.2213
18123TIP3   OH255250   5.706   7.086   8.471  0.5626  0.2559  0.0097
18123TIP3    H155251   5.771   7.022   8.442  1.1482  1.0989 -0.5948
18123TIP3    H255252   5.665   7.116   8.390  0.4919  0.8361  0.2570
18124TIP3   OH255253   8.352  10.622   6.610  0.1705  0.1784  0.1705
18124TIP3    H155254   8.325  10.532   6.595  1.7907 -0.1206 -1.2549
18124TIP3    H255255   8.432  10.632   6.559  0.6377  2.1067  1.1806
18125TIP3   OH255256   6.560   5.671   7.520  0.1649  0.5873 -0.0961
18125TIP3    H155257   6.556   5.608   7.448  0.4462  1.0355 -0.5080
18125TIP3    H255258   6.653   5.692   7.529  0.0287  1.3350 -0.3129
18126TIP3   OH255259   2.085   2.396   5.226 -0.1167  0.0098  0.6192
18126TIP3    H155260   2.109   2.305   5.244 -2.2684 -0.4406  1.5737
18126TIP3    H255261   2.118   2.445   5.302  3.2451  0.5651 -1.0043
18127TIP3   OH255262   6.830   9.044   2.670 -0.1285  0.1396  0.0682
18127TIP3    H155263   6.854   9.007   2.585  0.1781  1.3005 -0.3704
18127TIP3    H255264   6.737   9.064   2.662 -0.1208  0.1636  0.0406
18128TIP3   OH255265   5.342   3.473  10.420  0.4938 -0.1703 -0.2625
18128TIP3    H155266   5.266   3.478  10.363  0.1505  0.5661  0.2415
18128TIP3    H255267   5.347   3.559  10.461  2.6130  0.3908 -1.5633
18129TIP3   OH255268   0.028   0.994   9.936 -0.1723  0.5091  0.2157
18129TIP3    H155269  -0.024   1.052   9.879 -0.4481  0.1077  0.0540
18129TIP3    H255270   0.070   1.053   9.999  1.4858  1.1728 -1.4148
18130TIP3   OH255271   7.390   0.730   4.425  0.1868  0.2536  0.4008
18130TIP3    H155272   7.418   0.687   4.506  0.5312  0.9931  0.6843
18130TIP3    H255273   7.337   0.804   4.454 -0.0210  0.2942 -0.0666
18131TIP3   OH255274   0.040   2.401   9.948 -0.7482  0.0783  0.1182
18131TIP3    H155275   0.108   2.379  10.012 -0.6912  1.0952  0.4240
18131TIP3    H255276  -0.039   2.414  10.001 -0.1238  3.7061  0.4327
18132TIP3   OH255277   6.386   7.857   0.462 -0.1496 -0.0871 -0.1322
18132TIP3    H155278   6.353   7.897   0.543 -2.5351 -0.7522 -0.7001
18132TIP3    H255279   6.428   7.776   0.491 -0.3063  0.0522  0.5063
18133TIP3   OH255280   4.292   3.264   9.673 -0.4399 -0.0156 -0.9611
18133TIP3    H155281   4.283   3.202   9.745  0.6725 -0.2462 -0.9969
18133TIP3    H255282   4.328   3.343   9.713 -0.8170  0.2265 -1.0933
18134TIP3   OH255283  10.103   1.698  10.109 -0.2639  0.4342 -0.2832
18134TIP3    H155284  10.063   1.752  10.176 -1.7022  0.1163 -0.8625
18134TIP3    H255285  10.136   1.621  10.155 -2.4858 -0.4583 -0.0978
18135TIP3   OH255286  10.499   5.388   8.917  0.0130 -0.0856 -0.3124
18135TIP3    H155287  10.451   5.338   8.983 -2.6235  0.2712 -1.8288
18135TIP3    H255288  10.528   5.323   8.853 -0.3612 -0.0752 -0.4960
18136TIP3   OH255289   8.736   6.288   7.006 -0.0174  0.0709 -0.2718
18136TIP3    H155290   8.703   6.199   7.016  0.1553  0.1156  0.8745
18136TIP3    H255291   8.784   6.305   7.087  0.6791  0.9038 -0.8474
18137TIP3   OH255292   1.356   3.757   9.489 -0.1206 -0.3319  0.2070
18137TIP3    H155293   1.305   3.683   9.456 -2.0333  1.1117 -0.2994
18137TIP3    H255294   1.431   3.718   9.533 -0.5166 -2.5112 -0.9337
18138TIP3   OH255295   0.016   6.496   5.151 -0.2155 -0.1546 -0.3674
18138TIP3    H155296   0.058   6.418   5.114 -1.1633 -0.0951 -1.6125
18138TIP3    H255297  -0.050   6.461   5.211  1.1013 -0.2508  1.1153
18139TIP3   OH255298   1.942  10.137   8.045  0.8621 -0.8562  0.1868
18139TIP3    H155299   1.968  10.070   8.108 -0.8717 -0.1679  1.7090
18139TIP3    H255300   1.949  10.094   7.959  1.2231 -2.4811  1.0021
18140TIP3   OH255301   0.456   3.993  10.064  0.0994 -0.0769 -0.3476
18140TIP3    H155302   0.506   4.073  10.080 -0.4604  0.1402  0.3751
18140TIP3    H255303   0.489   3.930  10.129 -2.6256  1.0038  2.3486
18141TIP3   OH255304  10.478   8.504   8.527 -0.3011 -0.1431  0.3963
18141TIP3    H155305  10.513   8.551   8.603  1.1557 -0.7519  0.1489
18141TIP3    H255306  10.552   8.451   8.497 -1.3908 -1.2693 -0.3715
18142TIP3   OH255307   8.689   4.742   7.277 -0.9777  0.0167  0.1406
18142TIP3    H155308   8.668   4.808   7.343 -2.0141  0.9860 -1.1003
18142TIP3    H255309   8.770   4.772   7.237 -0.5183 -0.4047  0.7377
18143TIP3   OH255310   6.454   0.935   9.451  0.2490  0.1767 -0.2656
18143TIP3    H155311   6.510   0.861   9.473  0.4121  0.8866  2.0284
18143TIP3    H255312   6.365   0.901   9.463  0.1593 -0.5362 -2.4990
18144TIP3   OH255313   2.624   2.721   8.884 -0.1240  0.2780  0.0250
18144TIP3    H155314   2.589   2.694   8.799 -1.3365  0.1008  0.5505
18144TIP3    H255315   2.718   2.730   8.870 -0.4087  1.1280 -1.5606
18145TIP3   OH255316   0.105   4.591   6.435 -0.1293  0.1368  0.6170
18145TIP3    H155317   0.072   4.578   6.524 -0.3634 -1.3037  0.3389
18145TIP3    H255318   0.195   4.622   6.447 -0.8072  2.0065  1.3503
18146TIP3   OH255319   9.760   0.570   3.655  0.0081  0.3757  0.1261
18146TIP3    H155320   9.691   0.546   3.718 -0.4316  0.0759 -0.4618
18146TIP3    H255321   9.812   0.636   3.701 -0.2652  0.1113  0.8345
18147TIP3   OH255322   9.790   3.574   2.575 -0.2179  0.7465 -0.1186
18147TIP3    H155323   9.748   3.593   2.491  0.3795  1.0008 -0.3650
18147TIP3    H255324   9.787   3.658   2.622  0.8402  1.0086 -0.5059
18148TIP3   OH255325   5.176   4.937   8.801 -0.0034  0.2401  0.0915
18148TIP3    H155326   5.216   4.910   8.884  1.8423  1.1399 -0.4420
18148TIP3    H255327   5.083   4.942   8.820 -0.0701 -2.9097  1.1550
18149TIP3   OH255328  10.123   8.727   8.349  0.5108  0.6253 -0.0944
18149TIP3    H155329  10.086   8.665   8.287  0.4769  0.7150 -0.1654
18149TIP3    H255330  10.116   8.812   8.305  0.7787  0.6460 -0.0996
18150TIP3   OH255331   1.401   0.956   8.917 -0.1021 -0.7525  0.2759
18150TIP3    H155332   1.467   0.892   8.942  1.1915  0.0085 -1.0847
18150TIP3    H255333   1.423   1.035   8.967 -1.8604 -1.3546  2.1724
18151TIP3   OH255334  10.618   1.320   9.667  0.1491 -0.3248 -0.0923
18151TIP3    H155335  10.623   1.275   9.583  2.4609  0.1098 -0.2430
18151TIP3    H255336  10.653   1.408   9.650 -0.5749  0.2152  1.0535
18152TIP3   OH255337   3.549   1.375   0.277  0.1849 -0.0829 -0.3605
18152TIP3    H155338   3.530   1.283   0.293 -1.1271  0.0379 -1.0964
18152TIP3    H255339   3.645   1.379   0.270  0.5232 -0.8797  2.5436
18153TIP3   OH255340   3.190   3.941   9.210 -0.1789  0.0905 -0.4188
18153TIP3    H155341   3.125   4.002   9.246 -0.3135 -0.4266  0.2385
18153TIP3    H255342   3.157   3.919   9.123  0.0442  1.2054 -0.7975
18154TIP3   OH255343   9.892   9.228   5.323 -0.7119 -0.1631  0.2094
18154TIP3    H155344   9.855   9.177   5.395  0.4606  1.1877  1.8422
18154TIP3    H255345   9.986   9.232   5.342 -0.1880 -0.5949 -1.9621
18155TIP3   OH255346   0.134   8.697   5.836  0.3704  0.5027 -1.0953
18155TIP3    H155347   0.221   8.710   5.874 -0.3698  1.3909  0.3973
18155TIP3    H255348   0.137   8.742   5.752  0.8330  2.0881 -0.2697
18156TIP3   OH255349  10.780   7.588  10.409 -0.1166  0.3249  0.0956
18156TIP3    H155350  10.854   7.568  10.352 -0.2101  0.5864 -0.1211
18156TIP3    H255351  10.714   7.523  10.386  0.6141 -0.9217  1.4084
18157TIP3   OH255352  10.145   6.225   4.826  0.0030 -0.4895 -0.5086
18157TIP3    H155353  10.139   6.309   4.781 -0.3927  0.0000  0.4324
18157TIP3    H255354  10.085   6.233   4.900  0.1729 -1.5019 -0.2469
18158TIP3   OH255355   2.309   4.939  10.027 -0.2197  0.2830 -0.2122
18158TIP3    H155356   2.270   4.968  10.109  0.3519  0.7545 -0.0928
18158TIP3    H255357   2.365   5.013  10.001  0.4992 -0.3254 -0.4189
18159TIP3   OH255358   3.891   2.265  10.369 -0.1273 -0.2717 -0.1561
18159TIP3    H155359   3.877   2.185  10.319  0.5221 -0.3447 -0.2359
18159TIP3    H255360   3.948   2.239  10.441  2.5793  0.6340 -1.8222
18160TIP3   OH255361   6.495   4.266   3.321  0.1756  0.4998  0.4252
18160TIP3    H155362   6.446   4.342   3.352  0.3114  1.0377 -0.6283
18160TIP3    H255363   6.578   4.302   3.291  0.0470  0.0235 -0.5520
18161TIP3   OH255364  10.178   2.059   6.279 -0.6346  0.5898  0.7255
18161TIP3    H155365  10.118   2.085   6.210 -0.6784  1.4285  1.0670
18161TIP3    H255366  10.122   2.029   6.350 -0.6262  0.6963  0.7773
18162TIP3   OH255367   5.317   5.493   2.294  0.2153 -0.7111  0.2832
18162TIP3    H155368   5.307   5.481   2.199  1.2560 -0.4924  0.1309
18162TIP3    H255369   5.280   5.413   2.332 -2.5387  0.2400 -0.1415
18163TIP3   OH255370   0.687   0.964   8.287  0.4675  0.1657  0.4228
18163TIP3    H155371   0.767   0.957   8.339  0.6745  1.8881  0.3880
18163TIP3    H255372   0.644   1.042   8.320 -1.1378 -0.6321  0.3107
18164TIP3   OH255373  10.494   8.201   9.520  0.0725  0.2287 -0.8952
18164TIP3    H155374  10.475   8.235   9.607 -0.9232 -2.3384 -0.0219
18164TIP3    H255375  10.563   8.136   9.534  0.8612  0.7167 -2.2695
18165TIP3   OH255376   6.689   6.571   1.327 -0.1928 -0.2583 -0.4227
18165TIP3    H155377   6.652   6.502   1.271  1.1264  1.2770 -3.4174
18165TIP3    H255378   6.634   6.648   1.309 -0.6573 -0.0646  1.6256
18166TIP3   OH255379   7.837   2.665   5.462  0.1731 -0.1626 -0.0484
18166TIP3    H155380   7.895   2.604   5.508  1.3627  0.4622 -0.6539
18166TIP3    H255381   7.765   2.611   5.431  1.4104 -1.3838 -0.9569
18167TIP3   OH255382  10.405   9.189   4.365  0.3941  0.1125 -0.0866
18167TIP3    H155383  10.312   9.212   4.361 -0.2437 -2.3271 -0.8203
18167TIP3    H255384  10.421   9.173   4.458 -0.7561 -2.2445 -0.2093
18168TIP3   OH255385   7.132   2.896   2.695  0.2968  0.5751 -0.1046
18168TIP3    H155386   7.184   2.882   2.615  3.4239  1.6739  1.5659
18168TIP3    H255387   7.087   2.979   2.681  2.3694  1.7824 -0.1057
18169TIP3   OH255388   1.038   6.701   6.571 -0.1494  0.2668 -1.0574
18169TIP3    H155389   1.124   6.726   6.535  0.4286  1.2987  0.9116
18169TIP3    H255390   1.003   6.783   6.606 -1.3999 -0.3933 -0.7301
18170TIP3   OH255391   1.286   5.487   4.331 -0.7437 -0.1030  0.2363
18170TIP3    H155392   1.209   5.543   4.341 -0.8717 -0.4102  1.0442
18170TIP3    H255393   1.317   5.504   4.242 -2.2165 -0.5756 -0.4030
18171TIP3   OH255394   0.654   2.507   3.483 -0.2932 -0.1850  0.0128
18171TIP3    H155395   0.628   2.589   3.525  0.8293  1.0818 -1.6326
18171TIP3    H255396   0.721   2.471   3.542  0.7655  1.2070 -0.2722
18172TIP3   OH255397  10.107   9.834   9.659 -0.3109  0.0812  0.2690
18172TIP3    H155398  10.150   9.831   9.573  2.4623 -0.3030  1.5651
18172TIP3    H255399  10.128   9.921   9.694 -1.0459  0.0777  0.7432
18173TIP3   OH255400   7.436   2.250   3.842  0.1509  0.2431 -0.3255
18173TIP3    H155401   7.459   2.252   3.935  0.0903  0.8476 -0.3151
18173TIP3    H255402   7.508   2.204   3.800  0.4769  0.4976 -0.0521
18174TIP3   OH255403   4.967   8.511   3.118 -0.6941  0.1570 -0.4112
18174TIP3    H155404   5.001   8.459   3.046  1.6349  0.5419  0.3317
18174TIP3    H255405   4.891   8.461   3.150 -0.4732 -1.0933 -1.7535
18175TIP3   OH255406   7.500   7.043   7.208  0.1577 -0.3181 -0.5795
18175TIP3    H155407   7.538   7.050   7.296  0.7348  1.1360 -0.9209
18175TIP3    H255408   7.528   6.958   7.176  2.2714  0.2640 -0.3893
18176TIP3   OH255409   4.241   1.222   0.349  0.8887  0.0741 -0.1603
18176TIP3    H155410   4.224   1.245   0.440  3.4415  0.7957  0.2325
18176TIP3    H255411   4.219   1.129   0.343  1.0035 -0.0746  1.3028
18177TIP3   OH255412  10.301   8.688   3.138  0.3233 -0.4687  0.2718
18177TIP3    H155413  10.265   8.609   3.097 -0.6980 -0.5969  1.3488
18177TIP3    H255414  10.274   8.681   3.230 -0.0310  1.2680  0.3345
18178TIP3   OH255415   3.441  10.323   7.138 -0.0092 -0.0126  0.7709
18178TIP3    H155416   3.354  10.363   7.144  0.3256  0.8623  0.0342
18178TIP3    H255417   3.496  10.390   7.098  0.8404 -0.8135  0.5425
18179TIP3   OH255418   3.183   2.414   3.966 -0.6567  0.3613 -0.4921
18179TIP3    H155419   3.183   2.457   3.880  2.6728  2.1538  0.2522
18179TIP3    H255420   3.136   2.476   4.023 -0.7037  0.3411 -0.5083
18180TIP3   OH255421   6.956   8.640  10.851 -0.4708  0.0145 -0.4286
18180TIP3    H155422   6.898   8.686  10.790 -0.6829  1.2423  0.6526
18180TIP3    H255423   6.924   8.664  10.938 -0.3280 -1.8950  0.2025
18181TIP3   OH255424   7.985   7.552  10.423  0.3455  0.4442 -0.0840
18181TIP3    H155425   8.060   7.561  10.481 -0.7694 -0.4922  1.6126
18181TIP3    H255426   7.972   7.457  10.416  0.0011  0.5674 -1.2798
18182TIP3   OH255427   0.417   5.653   3.093 -0.0793 -0.1798 -0.5736
18182TIP3    H155428   0.453   5.596   3.161  0.9079  1.8225  0.6906
18182TIP3    H255429   0.338   5.608   3.063  0.2032 -1.7904  0.9087
18183TIP3   OH255430  10.188   4.740   0.448  0.1890 -0.6045 -0.4830
18183TIP3    H155431  10.119   4.788   0.402 -1.7224 -3.0498 -0.3299
18183TIP3    H255432  10.212   4.796   0.521 -0.4417  1.0223 -1.4709
18184TIP3   OH255433   5.371   3.012   7.649  0.4912  0.1320  0.1047
18184TIP3    H155434   5.374   3.050   7.561  1.3477 -0.4959 -0.1525
18184TIP3    H255435   5.309   3.067   7.697 -0.6017  0.0041 -1.1078
18185TIP3   OH255436  10.554   9.585   6.414 -0.5570  0.8407  0.4631
18185TIP3    H155437  10.487   9.517   6.413 -0.7105  0.9929 -0.5853
18185TIP3    H255438  10.519   9.652   6.474  0.0051 -0.3716  2.2087
18186TIP3   OH255439   5.299   4.190   6.185 -0.4187 -0.0467 -0.3827
18186TIP3    H155440   5.258   4.261   6.235 -1.3041 -1.8740  1.6116
18186TIP3    H255441   5.393   4.205   6.197 -0.5620  1.1619 -0.5826
18187TIP3   OH255442   7.789   7.512   7.628 -0.6283  0.1010  0.5539
18187TIP3    H155443   7.753   7.559   7.702 -0.8261  0.0943  0.4622
18187TIP3    H255444   7.850   7.574   7.587  1.0821 -0.5846  1.9258
18188TIP3   OH255445  10.297   4.551   6.545 -0.1852  0.0099  0.1699
18188TIP3    H155446  10.239   4.581   6.615 -1.7885 -0.5736 -0.8450
18188TIP3    H255447  10.272   4.603   6.469  1.1393  0.2390 -0.1302
18189TIP3   OH255448   4.009   7.909   9.368 -0.5027 -0.6632 -0.0132
18189TIP3    H155449   3.937   7.929   9.427  0.7395 -2.5889  2.3404
18189TIP3    H255450   3.979   7.833   9.318 -1.0682  0.1902 -1.0151
18190TIP3   OH255451   8.618  10.238   9.512 -0.2048  0.2100  0.0248
18190TIP3    H155452   8.581  10.274   9.592 -0.5009  2.3513 -1.0020
18190TIP3    H255453   8.664  10.159   9.540 -1.1753  0.3249  2.1163
18191TIP3   OH255454   9.950   1.421   1.369 -0.2650 -0.2074  0.3959
18191TIP3    H155455   9.950   1.375   1.285 -0.6855 -0.3579  0.4759
18191TIP3    H255456  10.032   1.395   1.411 -1.2862 -2.3135  1.2060
18192TIP3   OH255457  10.731   8.340   9.403  0.0287  0.3444 -0.3366
18192TIP3    H155458  10.737   8.352   9.308  0.4803 -2.1797 -0.7036
18192TIP3    H255459  10.644   8.303   9.417  0.9768 -1.9701 -0.1843
18193TIP3   OH255460   3.002   1.046   1.874 -0.1960  0.0426  0.3219
18193TIP3    H155461   2.910   1.071   1.880 -0.0812  0.6009 -0.2046
18193TIP3    H255462   3.049   1.108   1.930 -0.0540  0.2528 -0.0246
18194TIP3   OH255463   9.403   6.072   1.164 -0.0701 -0.1481 -0.1996
18194TIP3    H155464   9.335   6.114   1.217 -2.1971 -4.2449  0.6854
18194TIP3    H255465   9.471   6.048   1.226  0.6900  0.9737 -0.5548
18195TIP3   OH255466   5.843   4.736   8.835 -0.3382 -0.0638  0.1330
18195TIP3    H155467   5.803   4.798   8.774  1.2614  0.3903 -0.4982
18195TIP3    H255468   5.794   4.655   8.823 -0.7473  0.3343 -0.9773
18196TIP3   OH255469   7.481   9.388   4.535  0.4222  0.0705  0.3613
18196TIP3    H155470   7.472   9.304   4.581 -0.5509  0.6062  1.1829
18196TIP3    H255471   7.446   9.371   4.447  0.4401 -0.4376  0.4482
18197TIP3   OH255472   7.804   7.490   0.240 -0.0889  0.0072  0.4944
18197TIP3    H155473   7.855   7.571   0.230 -0.6954  0.2095 -1.2533
18197TIP3    H255474   7.861   7.432   0.291  1.0333  0.9509  0.3558
18198TIP3   OH255475  10.509   2.058   6.337 -0.6208  0.9378 -0.1805
18198TIP3    H155476  10.463   1.982   6.301  0.0107  0.2106  0.5034
18198TIP3    H255477  10.547   2.101   6.260  1.5469 -1.1467 -0.3913
18199TIP3   OH255478   9.959  10.643   7.998  0.3931  0.0071 -0.0245
18199TIP3    H155479  10.052  10.639   7.976  0.5179  3.7230 -0.8433
18199TIP3    H255480   9.956  10.694   8.079 -0.9053 -0.1267  0.0277
18200TIP3   OH255481   0.219   0.373   4.219  0.5331  0.1143 -0.2794
18200TIP3    H155482   0.305   0.357   4.179 -0.3637  0.9919 -2.7320
18200TIP3    H255483   0.185   0.449   4.172 -1.9992 -0.8148 -0.0875
18201TIP3   OH255484   5.927   4.337   2.717 -0.2579 -0.3031 -0.0273
18201TIP3    H155485   5.999   4.391   2.749  0.7395 -1.7206  0.2013
18201TIP3    H255486   5.955   4.309   2.630  0.4269 -2.4736  0.8238
18202TIP3   OH255487   8.056   8.622   8.532  0.4199  0.7238  0.2389
18202TIP3    H155488   7.967   8.619   8.497  0.3131 -0.5281  0.5825
18202TIP3    H255489   8.046   8.601   8.625  1.0278  1.0602  0.3860
18203TIP3   OH255490   9.505   8.459   6.613  0.0100  0.9605  0.4908
18203TIP3    H155491   9.592   8.424   6.634 -0.4547  0.1646  1.1926
18203TIP3    H255492   9.480   8.414   6.532  0.3796  1.4305  0.1119
18204TIP3   OH255493   0.082   0.590   2.143 -0.1926  0.2371  0.2446
18204TIP3    H155494   0.132   0.563   2.220  0.4007 -1.8976 -0.8046
18204TIP3    H255495  -0.008   0.599   2.175  0.3689  1.4736  1.5910
18205TIP3   OH255496   9.110   1.955   7.874  0.0558 -0.0769 -0.3435
18205TIP3    H155497   9.145   1.878   7.829  1.2644  1.0300 -1.4130
18205TIP3    H255498   9.135   1.943   7.965  1.4161 -0.3481 -0.7235
18206TIP3   OH255499   7.154   1.825   1.877 -0.1525  0.2649  0.1014
18206TIP3    H155500   7.188   1.882   1.946  0.0111  0.6215 -0.2697
18206TIP3    H255501   7.233   1.793   1.831  0.1230 -3.4805  2.7341
18207TIP3   OH255502   6.050   2.408   5.188 -0.0918  0.4674 -0.1982
18207TIP3    H155503   5.987   2.387   5.118  0.6270 -2.6239 -0.0520
18207TIP3    H255504   6.107   2.475   5.149  0.0076 -0.8203 -2.4368
18208TIP3   OH255505   2.736   7.157   0.155  0.3527 -0.1460 -0.9322
18208TIP3    H155506   2.648   7.170   0.192  0.7176  0.8170 -0.3481
18208TIP3    H255507   2.741   7.063   0.138 -0.7768 -0.2247 -0.9390
18209TIP3   OH255508   4.988   2.173   1.168 -0.0093  0.3878 -0.2573
18209TIP3    H155509   4.967   2.180   1.075 -0.3927  1.6248 -0.1081
18209TIP3    H255510   4.906   2.195   1.212  0.1049 -0.4432  0.3760
18210TIP3   OH255511   4.130   3.073   0.093  0.3679 -0.1360 -0.0866
18210TIP3    H155512   4.092   3.160   0.105 -1.0941 -0.6136 -1.0556
18210TIP3    H255513   4.055   3.016   0.077  1.4595 -1.2041 -1.6058
18211TIP3   OH255514   3.010  10.727   8.463  0.5013  0.2232 -0.0386
18211TIP3    H155515   2.991  10.649   8.515 -0.5898  0.3814 -0.1618
18211TIP3    H255516   3.037  10.693   8.378  0.3238 -0.0282  0.0035
18212TIP3   OH255517   6.298   1.451   7.775 -0.2535  0.4694  0.3388
18212TIP3    H155518   6.372   1.432   7.832  0.4676 -2.5890 -1.3564
18212TIP3    H255519   6.298   1.546   7.765  2.7348  0.6653  1.3427
18213TIP3   OH255520   4.180   8.541   3.771  0.1393 -0.3772  0.3923
18213TIP3    H155521   4.224   8.513   3.691  0.5339  1.3207 -0.0218
18213TIP3    H255522   4.125   8.466   3.795 -1.0121 -0.5006 -2.1937
18214TIP3   OH255523   9.005   9.858   9.659  0.2269 -0.1684  0.0490
18214TIP3    H155524   9.047   9.942   9.647  0.9889 -0.5743 -0.1655
18214TIP3    H255525   9.077   9.795   9.662 -0.4213 -1.0613 -1.8013
18215TIP3   OH255526   6.118   6.753   6.433 -0.3676  0.4933 -0.2067
18215TIP3    H155527   6.102   6.661   6.410 -0.8453  0.5347 -0.0682
18215TIP3    H255528   6.167   6.789   6.359  0.9570 -0.1956  0.3076
18216TIP3   OH255529   8.232  10.720   7.681  0.0985  0.8070 -0.7484
18216TIP3    H155530   8.159  10.759   7.633 -0.1516  2.0584  0.5416
18216TIP3    H255531   8.310  10.759   7.643  0.0947 -0.2699 -1.9028
18217TIP3   OH255532   6.064   0.990   3.140  0.5169  0.5845  0.2541
18217TIP3    H155533   6.135   0.967   3.080  0.1542  0.7291 -0.2478
18217TIP3    H255534   5.996   1.026   3.082 -0.2314 -0.1877  0.6483
18218TIP3   OH255535   0.644   7.584   0.089  0.0808 -0.0542 -0.6743
18218TIP3    H155536   0.714   7.586   0.024  0.8650 -1.6245  0.0712
18218TIP3    H255537   0.663   7.657   0.148  0.7289 -0.0739 -0.8490
18219TIP3   OH255538   7.147   2.649   0.246 -0.5084 -0.0887  0.1213
18219TIP3    H155539   7.211   2.578   0.248 -0.3430  0.0599  0.1512
18219TIP3    H255540   7.187   2.716   0.190  0.5020  1.0663  2.1262
18220TIP3   OH255541   9.429   9.962   5.987  0.2023  0.2503 -0.4760
18220TIP3    H155542   9.495  10.030   5.999 -0.4634  1.0233 -1.0813
18220TIP3    H255543   9.476   9.889   5.949  0.7100  0.7918 -0.8990
18221TIP3   OH255544   2.153   9.840   2.815  0.4030 -0.0965  0.4727
18221TIP3    H155545   2.228   9.798   2.856  0.3907 -0.4938  0.1038
18221TIP3    H255546   2.190   9.897   2.748  0.3581 -1.1185 -0.4641
18222TIP3   OH255547   1.579   2.702   5.774  0.5322  0.0138 -0.3244
18222TIP3    H155548   1.577   2.759   5.698  0.4872  0.0262 -0.3134
18222TIP3    H255549   1.512   2.636   5.756 -0.5999  0.9201  0.4229
18223TIP3   OH255550   8.306   0.451   3.219  0.6042 -0.8665 -0.3570
18223TIP3    H155551   8.319   0.364   3.182 -1.1458 -0.6898 -1.5484
18223TIP3    H255552   8.357   0.451   3.300  2.1916 -2.3061 -1.2954
18224TIP3   OH255553   4.288   7.137   1.047  0.3040  0.0370 -0.3793
18224TIP3    H155554   4.327   7.187   0.975  0.4297  0.5411  0.0291
18224TIP3    H255555   4.261   7.054   1.008 -0.3421  0.6087 -1.1871
18225TIP3   OH255556  10.227   1.692   1.478  0.4449  0.4657  0.0986
18225TIP3    H155557  10.305   1.640   1.458  0.0586 -0.4726  0.9395
18225TIP3    H255558  10.188   1.649   1.554 -0.6978  1.1310 -0.0788
18226TIP3   OH255559   4.330  10.309   8.851 -0.4486  0.1167  0.1557
18226TIP3    H155560   4.246  10.324   8.808 -0.1915 -0.4828 -0.5726
18226TIP3    H255561   4.360  10.225   8.816 -0.6106 -0.8171  2.0844
18227TIP3   OH255562   7.168   8.288  10.279  0.1387 -0.5569 -0.0956
18227TIP3    H155563   7.139   8.205  10.315 -0.1379 -1.0278 -1.3679
18227TIP3    H255564   7.234   8.319  10.341 -0.9207 -0.9099  1.2559
18228TIP3   OH255565  10.092   2.398   1.828  0.4208 -0.0106  0.0749
18228TIP3    H155566  10.004   2.415   1.860  0.4388  0.0895  0.0742
18228TIP3    H255567  10.081   2.334   1.758  0.4331 -0.6208  0.6214
18229TIP3   OH255568   7.886   5.033   1.898  0.0795 -0.7827  0.6142
18229TIP3    H155569   7.795   5.056   1.915 -0.3878 -0.2632 -2.1800
18229TIP3    H255570   7.937   5.094   1.952 -1.1860 -0.7310  1.8082
18230TIP3   OH255571   7.346   3.720   1.385 -0.0837 -0.2674  0.2413
18230TIP3    H155572   7.257   3.754   1.395 -0.6603 -1.8562  0.9208
18230TIP3    H255573   7.388   3.780   1.323 -1.4601  0.8056  0.2945
18231TIP3   OH255574   4.742   5.456   8.175  0.2320  0.4451 -0.4583
18231TIP3    H155575   4.833   5.435   8.197  0.5925  1.9541 -0.4097
18231TIP3    H255576   4.690   5.402   8.235  1.1595  2.2338  2.1156
18232TIP3   OH255577   2.900   2.031  10.736  0.0144 -0.4569  0.1917
18232TIP3    H155578   2.990   2.060  10.745 -0.3602  0.2828  1.8813
18232TIP3    H255579   2.904   1.936  10.748  0.4581 -0.3136  1.2402
18233TIP3   OH255580   8.200   8.893   9.766  0.2004 -0.5256  0.2045
18233TIP3    H155581   8.242   8.870   9.683  1.4842  2.9601 -0.2669
18233TIP3    H255582   8.264   8.948   9.811 -2.3236  1.7501  1.2515
18234TIP3   OH255583   3.861   7.727   8.350 -0.5344  0.4327 -0.0196
18234TIP3    H155584   3.898   7.661   8.292 -1.0349 -0.3701  0.5536
18234TIP3    H255585   3.771   7.698   8.365 -1.3755  2.2381 -1.2507
18235TIP3   OH255586   7.455   9.032   6.522 -0.5419 -0.4548 -0.6912
18235TIP3    H155587   7.520   9.050   6.589 -0.3135  1.3134 -1.3192
18235TIP3    H255588   7.494   8.964   6.467  0.1641 -0.4180 -0.2373
18236TIP3   OH255589   5.004   0.058   2.802 -0.4558  0.2016  0.1796
18236TIP3    H155590   5.036   0.038   2.890 -0.4705  0.5828  0.2744
18236TIP3    H255591   5.070   0.021   2.743  0.4529  1.4553  0.3749
18237TIP3   OH255592   6.365   9.544   2.949 -0.3124  0.3351 -0.2367
18237TIP3    H155593   6.280   9.545   2.992  0.0714 -0.2477  0.5702
18237TIP3    H255594   6.429   9.550   3.021  0.3490 -1.1992 -0.6538
18238TIP3   OH255595   2.998   8.748   9.236 -0.4503  0.0480 -0.2745
18238TIP3    H155596   3.068   8.749   9.172 -0.9548  2.8129 -0.8904
18238TIP3    H255597   2.970   8.656   9.239 -2.1897 -0.0092 -6.0341
18239TIP3   OH255598   0.238   0.441   5.979 -0.1617 -0.6568 -0.1501
18239TIP3    H155599   0.186   0.421   5.901  1.0095 -1.3942 -0.7674
18239TIP3    H255600   0.173   0.455   6.048 -1.2094 -0.4043 -1.1454
18240TIP3   OH255601   0.559   1.123  10.130  0.7069  0.1353  0.7046
18240TIP3    H155602   0.505   1.181  10.183 -1.1836  0.8424 -1.8019
18240TIP3    H255603   0.562   1.041  10.180  0.3774  1.2200  2.6071
18241TIP3   OH255604  10.382   7.202   5.860  0.9553  0.2386 -0.4229
18241TIP3    H155605  10.431   7.217   5.941  0.2504 -1.7082  0.4350
18241TIP3    H255606  10.405   7.112   5.835  0.6674  0.5930 -2.0425
18242TIP3   OH255607  10.361  10.870   4.361 -0.3693  0.7939  0.5539
18242TIP3    H155608  10.371  10.890   4.454  2.3513  1.4302  0.2138
18242TIP3    H255609  10.373  10.775   4.355 -0.0074  0.8228  0.7970
18243TIP3   OH255610   8.752  10.259   8.637 -0.6464 -0.1778 -0.4561
18243TIP3    H155611   8.790  10.209   8.564 -2.2672 -0.0739 -1.4321
18243TIP3    H255612   8.699  10.195   8.684 -1.8622  0.3468 -1.0696
18244TIP3   OH255613   1.895   7.790   1.364  0.1197  0.3726 -0.5835
18244TIP3    H155614   1.952   7.811   1.290  0.4450  0.8472 -0.2067
18244TIP3    H255615   1.824   7.737   1.326 -0.3042  1.5118 -1.4327
18245TIP3   OH255616  10.495   2.838   1.317  0.2620  0.2970  0.0395
18245TIP3    H155617  10.428   2.851   1.384  1.1878  1.0268  0.8481
18245TIP3    H255618  10.464   2.887   1.242 -0.6276 -0.2538  0.0344
18246TIP3   OH255619   5.146   1.359   3.933 -0.0684  0.3010 -0.7659
18246TIP3    H155620   5.215   1.416   3.968 -0.4204 -1.0046  2.4624
18246TIP3    H255621   5.065   1.397   3.966 -0.4740 -0.7326 -0.5213
18247TIP3   OH255622   0.739   1.775   9.835 -0.1718  0.8137 -0.3838
18247TIP3    H155623   0.704   1.727   9.760 -1.1853 -0.3698  0.7914
18247TIP3    H255624   0.790   1.710   9.884 -1.0638  1.0600  0.9187
18248TIP3   OH255625   1.386   2.947   3.271  0.0274 -0.3499 -0.1185
18248TIP3    H155626   1.342   2.960   3.187 -0.1843 -0.1669  0.0199
18248TIP3    H255627   1.363   3.024   3.322 -0.2322 -0.6856  0.2743
18249TIP3   OH255628   5.758   3.107   4.396  0.3400  0.2722  0.6412
18249TIP3    H155629   5.825   3.174   4.383 -1.7494  2.5771  0.8100
18249TIP3    H255630   5.705   3.111   4.316  0.4898 -1.6349  0.4105
18250TIP3   OH255631   3.999   8.660   3.272 -0.0589 -0.2886 -0.2655
18250TIP3    H155632   3.981   8.576   3.314  2.4637  0.1513  1.9225
18250TIP3    H255633   3.922   8.713   3.293 -1.2049 -1.6489 -0.7753
18251TIP3   OH255634   8.733   2.184   1.297  0.0321 -0.1322  0.0317
18251TIP3    H155635   8.718   2.266   1.250 -0.0393 -0.8269 -1.2144
18251TIP3    H255636   8.650   2.166   1.341 -0.9857 -0.9747 -2.0695
18252TIP3   OH255637   6.546   9.119   3.056  0.0058  0.2374 -0.1938
18252TIP3    H155638   6.615   9.054   3.069  0.7376  0.5257 -2.3449
18252TIP3    H255639   6.572   9.168   2.978 -2.3622  0.7170 -0.7699
18253TIP3   OH255640   0.544   6.170   1.190 -0.7579 -0.4956  0.0281
18253TIP3    H155641   0.637   6.162   1.170 -0.9395  0.7641 -1.4734
18253TIP3    H255642   0.540   6.166   1.286  0.5480 -3.0009  0.0736
18254TIP3   OH255643   6.755   3.077   9.807  0.6874 -0.0054  0.0070
18254TIP3    H155644   6.689   3.062   9.740  1.4299 -1.4157 -0.4625
18254TIP3    H255645   6.713   3.051   9.889 -0.3043  1.9569  0.1579
18255TIP3   OH255646   4.753   3.137   3.320 -0.0010 -0.2255  0.5391
18255TIP3    H155647   4.794   3.050   3.327  2.6217  0.7048 -1.3720
18255TIP3    H255648   4.822   3.192   3.283 -2.8372  1.7437 -2.2846
18256TIP3   OH255649  10.794   9.815   4.678 -0.0264 -0.2511 -0.0554
18256TIP3    H155650  10.859   9.758   4.718  0.2753 -0.1063 -0.3363
18256TIP3    H255651  10.826   9.904   4.693  0.4413 -0.2059 -1.1862
18257TIP3   OH255652   4.911   6.380   1.494 -0.1558 -0.1876 -0.4312
18257TIP3    H155653   4.824   6.341   1.501  0.2327 -1.3015 -1.5417
18257TIP3    H255654   4.947   6.374   1.583 -0.5233 -1.4002 -0.3405
18258TIP3   OH255655   3.891   4.015   0.325 -0.9291 -0.2886  0.1465
18258TIP3    H155656   3.820   4.028   0.388 -0.2254  0.5525  0.7883
18258TIP3    H255657   3.944   3.945   0.363  0.5665  1.4721  1.5387
18259TIP3   OH255658   7.005   7.188   7.142 -0.6076  0.0393  1.0594
18259TIP3    H155659   7.042   7.187   7.054 -1.2541 -0.4401  0.7818
18259TIP3    H255660   7.081   7.178   7.200 -0.0436  1.5211  0.6244
18260TIP3   OH255661   3.738   0.406   8.631  0.1093  0.2565 -0.6651
18260TIP3    H155662   3.771   0.494   8.647  0.2161  0.1806 -0.4626
18260TIP3    H255663   3.814   0.349   8.641  0.0413  0.1429 -0.8006
18261TIP3   OH255664  10.811   2.398   9.600 -0.3600  0.6617  0.1047
18261TIP3    H155665  10.814   2.306   9.626  2.2323  1.1468  1.8878
18261TIP3    H255666  10.819   2.397   9.505 -2.4863 -0.9614 -0.1289
18262TIP3   OH255667   8.606   4.906   7.497 -0.1711  0.0975 -0.8043
18262TIP3    H155668   8.533   4.943   7.447 -2.4007 -1.0375  1.4233
18262TIP3    H255669   8.632   4.977   7.556 -1.0134 -0.1971 -0.0590
18263TIP3   OH255670   0.174   1.602   4.926  0.0801 -0.0125 -0.1126
18263TIP3    H155671   0.089   1.642   4.943  0.7635  1.6708 -0.3989
18263TIP3    H255672   0.163   1.510   4.950 -1.9072  0.0858 -0.5105
18264TIP3   OH255673   6.421   1.133   5.559 -0.1229  0.2320 -0.2367
18264TIP3    H155674   6.328   1.151   5.545 -0.1813  1.0584  1.1260
18264TIP3    H255675   6.429   1.039   5.543 -0.9964  0.3255 -1.3344
18265TIP3   OH255676   8.685   2.366   8.700  0.1234 -0.0284  0.0440
18265TIP3    H155677   8.708   2.375   8.792 -1.4596 -3.0544  0.8681
18265TIP3    H255678   8.601   2.411   8.691  0.3001  0.3052  0.0773
18266TIP3   OH255679   0.589   2.957   3.798  0.2923  0.3471  0.1772
18266TIP3    H155680   0.578   2.999   3.883 -2.7787  0.6093 -0.2216
18266TIP3    H255681   0.535   3.009   3.738  1.9946 -0.1055 -1.8862
18267TIP3   OH255682   4.410   5.563   9.661 -0.1258 -0.7446  0.1763
18267TIP3    H155683   4.352   5.544   9.587  0.3579  0.5992 -0.5912
18267TIP3    H255684   4.470   5.629   9.627 -0.7197  0.9160  2.1476
18268TIP3   OH255685   7.178   7.363  10.860  0.2088  0.1662 -0.0185
18268TIP3    H155686   7.265   7.391  10.830  1.9138 -2.9565  1.5405
18268TIP3    H255687   7.146   7.437  10.913  1.4420  1.7601 -1.3672
18269TIP3   OH255688   1.180   3.261   3.401  0.5319  0.4911 -0.5282
18269TIP3    H155689   1.190   3.186   3.459  1.1429  2.0451  1.4975
18269TIP3    H255690   1.164   3.335   3.460  0.3355  2.0301 -2.4077
18270TIP3   OH255691   6.211   7.610   2.165  0.0662 -0.0474 -0.4753
18270TIP3    H155692   6.210   7.515   2.177  1.8004  0.0983  1.3139
18270TIP3    H255693   6.119   7.636   2.175 -0.0557 -1.2059  2.5296
18271TIP3   OH255694   4.728   8.350   4.465 -1.0540  0.0620 -0.4163
18271TIP3    H155695   4.803   8.409   4.459 -0.6947 -0.1778  1.2898
18271TIP3    H255696   4.767   8.263   4.471 -1.4795 -0.1014  0.0149
18272TIP3   OH255697   8.231   7.898   2.688  0.0993 -0.6180  0.1317
18272TIP3    H155698   8.326   7.903   2.699  0.4780 -1.5933 -2.1221
18272TIP3    H255699   8.202   7.839   2.757  1.0786 -0.0361  1.0621
18273TIP3   OH255700  10.361   2.318   2.961 -0.5209  0.5771  0.3156
18273TIP3    H155701  10.293   2.351   2.901 -1.0259  1.3274  1.2803
18273TIP3    H255702  10.316   2.306   3.044  0.0237 -1.1048  0.3918
18274TIP3   OH255703   6.364   0.431   7.980 -0.1352 -0.2816 -1.0758
18274TIP3    H155704   6.426   0.358   7.971 -0.4349 -0.6709 -0.1373
18274TIP3    H255705   6.377   0.483   7.901 -0.6989 -1.9434 -2.3398
18275TIP3   OH255706   7.250   9.944   5.102 -0.7364 -0.0306 -0.2895
18275TIP3    H155707   7.173   9.940   5.158  0.0783 -0.1857  0.8634
18275TIP3    H255708   7.266   9.853   5.075  0.5730 -0.4523  1.6877
18276TIP3   OH255709   5.525   9.655   2.388 -0.1757 -0.4381 -0.9376
18276TIP3    H155710   5.490   9.585   2.332 -0.6953 -0.7338 -0.2568
18276TIP3    H255711   5.505   9.627   2.477 -0.6238  0.6925 -0.6612
18277TIP3   OH255712   2.319   1.658   1.430  0.3659 -0.0109  0.2197
18277TIP3    H155713   2.322   1.725   1.498 -1.2979  1.4053 -1.0168
18277TIP3    H255714   2.394   1.679   1.373  0.3815  0.2432  0.3337
18278TIP3   OH255715   7.544   4.065   7.080  0.2056 -0.6918 -0.0854
18278TIP3    H155716   7.461   4.097   7.045  0.1703 -1.8171 -1.0996
18278TIP3    H255717   7.526   4.045   7.172 -0.2134  0.5250  0.1105
18279TIP3   OH255718   4.738   4.778   7.402  0.0015 -0.5241 -0.1621
18279TIP3    H155719   4.702   4.861   7.435 -1.0243 -1.1111  0.2373
18279TIP3    H255720   4.683   4.757   7.326  0.6919 -0.5085 -0.6740
18280TIP3   OH255721   4.499   9.089  10.155  0.2739  0.2149  0.0284
18280TIP3    H155722   4.500   9.167  10.100  0.9434  0.0091 -0.2569
18280TIP3    H255723   4.409   9.057  10.149 -0.5600  2.0369  1.7166
18281TIP3   OH255724   6.933   0.424   5.526  0.3286 -0.5595 -0.1801
18281TIP3    H155725   7.003   0.452   5.467 -1.1202 -2.2565 -2.9140
18281TIP3    H255726   6.883   0.503   5.545  0.0669 -0.1403 -2.3936
18282TIP3   OH255727   2.343   8.933   9.930 -0.4670 -0.2499 -0.6168
18282TIP3    H155728   2.341   9.028   9.922 -1.9763 -0.2174 -0.2870
18282TIP3    H255729   2.257   8.905   9.898 -0.9847 -1.2801  1.4555
18283TIP3   OH255730   6.512   8.273   1.640  0.0831 -0.1307 -0.2907
18283TIP3    H155731   6.465   8.306   1.563  0.3698  0.6716 -0.1221
18283TIP3    H255732   6.605   8.279   1.616  0.6480  5.0436  1.8871
18284TIP3   OH255733  10.888   0.860   7.323  0.0496 -0.3212  0.1123
18284TIP3    H155734  10.863   0.878   7.414 -2.0069 -0.4056 -0.4056
18284TIP3    H255735  10.844   0.928   7.272 -2.3446 -2.7089 -1.2187
18285TIP3   OH255736   6.293   1.652   3.060  0.4259  0.3681  0.2884
18285TIP3    H155737   6.364   1.691   3.009  0.4450  1.8944  1.4290
18285TIP3    H255738   6.272   1.717   3.127 -1.3203 -0.5146  0.6605
18286TIP3   OH255739   1.129   4.897   8.762  0.2877 -0.1369  0.1136
18286TIP3    H155740   1.115   4.958   8.835  1.9326  1.8371 -1.1102
18286TIP3    H255741   1.117   4.951   8.684  2.7110 -1.1083 -1.0148
18287TIP3   OH255742  10.031   6.860   7.690  0.5530  0.2200 -0.0002
18287TIP3    H155743  10.046   6.775   7.650 -1.6538 -1.4173  2.3465
18287TIP3    H255744  10.079   6.856   7.773  0.0444  1.1000  0.3490
18288TIP3   OH255745  10.047   7.636   9.549  0.3048 -0.0844 -0.1043
18288TIP3    H155746   9.995   7.716   9.558  0.4192  0.3192 -2.5281
18288TIP3    H255747   9.985   7.566   9.568 -0.2048  0.4969  0.4818
18289TIP3   OH255748   0.082   8.018   6.928  0.3806 -0.0445 -0.1333
18289TIP3    H155749   0.150   7.955   6.903 -1.0063 -1.3246 -0.8706
18289TIP3    H255750   0.066   8.068   6.848 -0.1299 -0.3272 -0.2113
18290TIP3   OH255751   5.295   9.893   7.040  0.1958 -0.0223 -0.4448
18290TIP3    H155752   5.365   9.955   7.061 -1.8757  2.6370 -0.8860
18290TIP3    H255753   5.291   9.893   6.944  1.3383 -2.3502 -0.5623
18291TIP3   OH255754   1.592   3.130   6.675 -0.3518  0.8114 -0.0713
18291TIP3    H155755   1.515   3.185   6.660 -1.3130 -0.2578  0.7333
18291TIP3    H255756   1.666   3.191   6.674 -1.2210  1.8928 -0.6799
18292TIP3   OH255757   8.053   7.524   1.127  0.5178 -0.3358 -0.7099
18292TIP3    H155758   8.038   7.605   1.176  1.5791 -0.2716 -0.4609
18292TIP3    H255759   7.974   7.473   1.140 -0.2071  0.7044 -0.9463
18293TIP3   OH255760   2.511   0.639   8.786  0.4105  0.5968  0.1231
18293TIP3    H155761   2.549   0.693   8.716  0.2082 -0.3352 -0.7270
18293TIP3    H255762   2.432   0.603   8.747  0.5647 -0.3388  0.6650
18294TIP3   OH255763   9.205   1.256   1.802  0.2420 -0.6100 -0.0506
18294TIP3    H155764   9.163   1.190   1.747 -1.1793 -0.0767  0.3346
18294TIP3    H255765   9.210   1.217   1.889  1.7766 -1.1580 -0.3546
18295TIP3   OH255766   1.525   3.419   6.057  0.1252  0.0994  0.2436
18295TIP3    H155767   1.492   3.509   6.056  1.6671  0.6983 -0.8928
18295TIP3    H255768   1.609   3.424   6.101  0.7757 -0.5431 -0.8610
18296TIP3   OH255769   8.524  10.202   1.785  0.5447 -0.2647 -0.5368
18296TIP3    H155770   8.493  10.128   1.733 -0.3263  1.1530 -2.1261
18296TIP3    H255771   8.610  10.223   1.747  0.9209 -0.6075  0.1032
18297TIP3   OH255772   8.053   6.866   5.249 -0.0494  0.1792 -0.2010
18297TIP3    H155773   8.125   6.813   5.215  1.1212  1.2386  0.5185
18297TIP3    H255774   8.059   6.948   5.200 -0.4664  0.4489  0.2000
18298TIP3   OH255775   6.783   2.112   9.293 -0.2853  0.2588  0.1093
18298TIP3    H155776   6.828   2.030   9.274  1.1207  1.0972 -0.3776
18298TIP3    H255777   6.715   2.089   9.356 -1.4702 -1.6775 -1.7710
18299TIP3   OH255778  10.813  10.906   7.144  0.5365 -0.8281  0.5087
18299TIP3    H155779  10.869  10.965   7.094 -0.7302  0.4636  0.5474
18299TIP3    H255780  10.795  10.833   7.084 -1.5349  1.0186 -1.2996
18300TIP3   OH255781   9.312   8.069   0.665  0.7985  0.2033  0.7802
18300TIP3    H155782   9.244   8.003   0.652  0.6921  0.3789  0.4250
18300TIP3    H255783   9.295   8.134   0.597  1.6313 -0.0052  0.3592
18301TIP3   OH255784   5.148   2.046  10.675  0.0333  0.8035 -0.0420
18301TIP3    H155785   5.207   2.043  10.751  0.9342  2.9284 -0.5720
18301TIP3    H255786   5.206   2.061  10.601 -1.0167  0.8598 -0.8637
18302TIP3   OH255787   1.845   4.341   8.773 -0.2950  0.1115  0.6670
18302TIP3    H155788   1.935   4.310   8.776 -0.0891  0.6526  0.1983
18302TIP3    H255789   1.809   4.302   8.693  0.3621  2.0956 -0.6601
18303TIP3   OH255790   8.100   6.158   3.701  0.2703 -0.7203  0.0684
18303TIP3    H155791   8.137   6.244   3.681  0.8368 -1.1647 -0.8116
18303TIP3    H255792   8.083   6.161   3.795 -0.6356  0.7036 -0.1101
18304TIP3   OH255793   1.532   8.577   6.645 -0.5812 -0.0902 -0.2753
18304TIP3    H155794   1.472   8.515   6.603 -0.6246  0.1086 -0.5064
18304TIP3    H255795   1.490   8.662   6.634  0.9585  0.4396 -2.7526
18305TIP3   OH255796   0.848   2.940   9.034 -0.0414 -0.4675 -0.1101
18305TIP3    H155797   0.805   3.020   9.063  0.5409  0.1222 -0.8241
18305TIP3    H255798   0.817   2.926   8.945 -2.2574 -2.5832  0.8757
18306TIP3   OH255799   5.469   5.264   9.017 -0.0997  0.1700 -0.2815
18306TIP3    H155800   5.528   5.216   9.075  0.5224  0.6978 -0.4563
18306TIP3    H255801   5.384   5.261   9.061  0.2196  0.0310  0.3435
18307TIP3   OH255802   9.227   6.742   1.966  0.1990 -0.3486 -0.1248
18307TIP3    H155803   9.166   6.704   2.029  0.3852 -0.3535  0.0555
18307TIP3    H255804   9.179   6.814   1.926 -0.2803 -0.9849 -0.7225
18308TIP3   OH255805   0.801  10.293   7.383 -0.3054 -0.2496 -0.0625
18308TIP3    H155806   0.767  10.238   7.312  2.1947 -4.5919  1.6982
18308TIP3    H255807   0.871  10.344   7.342 -0.8200 -0.4766 -1.2558
18309TIP3   OH255808   1.759   7.835   2.350 -0.1787 -0.1416 -0.0943
18309TIP3    H155809   1.822   7.907   2.364 -0.0373 -0.6523  2.4192
18309TIP3    H255810   1.770   7.779   2.426 -0.8257 -2.4844 -1.6198
18310TIP3   OH255811   1.937   4.745   1.114  0.4779 -0.3378 -0.3387
18310TIP3    H155812   1.964   4.661   1.078  0.3333  0.3380 -2.0956
18310TIP3    H255813   1.967   4.743   1.205 -0.7205 -2.8310  0.0963
18311TIP3   OH255814   4.380   5.587   3.294 -0.0816  0.3355 -0.1688
18311TIP3    H155815   4.363   5.665   3.348 -0.7696 -0.8465  1.3890
18311TIP3    H255816   4.345   5.610   3.208 -2.2387  1.0163  0.8187
18312TIP3   OH255817   9.330   2.605   0.979  0.7348 -0.5193 -0.2296
18312TIP3    H155818   9.366   2.689   0.952 -1.0810  0.5080  0.3918
18312TIP3    H255819   9.333   2.551   0.900  1.9248  0.1046 -0.6310
18313TIP3   OH255820   2.086   5.797  10.602  0.0063  0.0639  0.5435
18313TIP3    H155821   2.001   5.758  10.624  0.8096 -2.3320 -0.2843
18313TIP3    H255822   2.138   5.788  10.682 -0.2073  0.6574  0.7542
18314TIP3   OH255823   3.075   5.971   2.262 -0.4593  0.1358  0.4079
18314TIP3    H155824   3.092   6.065   2.269 -2.2037  0.5028  0.2490
18314TIP3    H255825   3.039   5.960   2.173 -0.1081 -0.7139  0.3638
18315TIP3   OH255826   3.150   9.701   8.854  0.4555  0.4805  0.4817
18315TIP3    H155827   3.143   9.699   8.950  0.2189  0.1324  0.4594
18315TIP3    H255828   3.066   9.736   8.825  0.4033  0.2796  0.3885
18316TIP3   OH255829   9.692   4.587   8.471 -0.1013 -0.2396  0.2587
18316TIP3    H155830   9.684   4.583   8.566 -1.0896  0.4966  0.2180
18316TIP3    H255831   9.613   4.544   8.438  0.9436 -1.8563 -0.2653
18317TIP3   OH255832   0.962   2.865   6.222 -0.4946  0.2667 -0.1733
18317TIP3    H155833   0.970   2.807   6.298 -0.3290  1.3215  0.6382
18317TIP3    H255834   1.035   2.842   6.165  0.9660  1.2368  1.2317
18318TIP3   OH255835   3.068  10.780   3.483 -0.5901  0.5478 -0.5109
18318TIP3    H155836   2.980  10.771   3.521 -1.5355 -4.1190 -3.0058
18318TIP3    H255837   3.061  10.738   3.397  4.4422 -1.6495 -0.1573
18319TIP3   OH255838   1.514   0.877   0.994 -0.0966 -0.3587  0.0794
18319TIP3    H155839   1.558   0.803   0.952  1.8625  0.4165  0.6685
18319TIP3    H255840   1.453   0.909   0.928  1.4526 -0.4255 -1.4418
18320TIP3   OH255841   9.419   2.473   6.396  0.3129  0.3040 -0.1289
18320TIP3    H155842   9.463   2.487   6.480  1.0612  0.8379 -0.6102
18320TIP3    H255843   9.337   2.428   6.420  0.4715  0.5340  0.8921
18321TIP3   OH255844   9.077   5.629   6.584  0.6304  0.0826 -0.5618
18321TIP3    H155845   9.124   5.545   6.581 -1.0620 -0.9019 -0.7224
18321TIP3    H255846   9.009   5.621   6.518  0.0323  1.3591 -0.1312
18322TIP3   OH255847   8.995   4.760   4.733 -0.0235 -0.0619  0.1384
18322TIP3    H155848   9.061   4.709   4.781  0.8279 -0.2226 -1.1663
18322TIP3    H255849   8.939   4.694   4.693  0.6207  0.0090 -0.9190
18323TIP3   OH255850   4.188   1.364   3.900 -0.6858  0.4163  0.4517
18323TIP3    H155851   4.190   1.447   3.948 -1.2640  0.7543 -0.0966
18323TIP3    H255852   4.098   1.333   3.909 -1.4457  1.6127 -2.2909
18324TIP3   OH255853   4.584  10.105   8.634 -0.2651  0.5601  0.2512
18324TIP3    H155854   4.522  10.178   8.635 -0.0669  0.7515 -0.3850
18324TIP3    H255855   4.667  10.145   8.606 -0.4010 -0.0773 -1.1637
18325TIP3   OH255856   1.619   4.154  10.211 -0.5494 -0.1801  0.0788
18325TIP3    H155857   1.668   4.236  10.204 -0.9964  0.0902  0.0649
18325TIP3    H255858   1.660   4.096  10.147  1.0167 -0.6115  1.4065
18326TIP3   OH255859   3.218   2.680   2.888  0.2078 -0.2991 -0.0747
18326TIP3    H155860   3.270   2.755   2.917 -1.0067  0.2031  0.9057
18326TIP3    H255861   3.137   2.718   2.856 -0.5248 -1.1956  0.6474
18327TIP3   OH255862   8.875   1.793   8.089 -0.0071  0.6246 -0.7375
18327TIP3    H155863   8.838   1.727   8.148  1.9330 -0.0576 -0.2160
18327TIP3    H255864   8.946   1.832   8.138 -0.1432  2.0552 -1.6284
18328TIP3   OH255865   9.764   7.827   6.893 -0.4114 -0.7230  0.3559
18328TIP3    H155866   9.793   7.868   6.812  1.0988 -1.7400  0.3272
18328TIP3    H255867   9.703   7.890   6.932  0.2348  0.5895 -0.6782
18329TIP3   OH255868   7.530   0.198  10.647  0.2666 -0.2437  0.2190
18329TIP3    H155869   7.494   0.286  10.661  0.0193 -0.3395  0.1802
18329TIP3    H255870   7.459   0.139  10.670  0.6701 -0.4567  0.9688
18330TIP3   OH255871   1.866   9.599   4.782  0.0525  0.1306 -0.2592
18330TIP3    H155872   1.829   9.549   4.710 -2.0863 -0.0192  0.8786
18330TIP3    H255873   1.960   9.581   4.777 -0.3754 -2.1668 -1.2612
18331TIP3   OH255874   4.038  10.463   7.756 -0.0169  0.1247  0.1643
18331TIP3    H155875   4.092  10.443   7.680 -0.6033  0.7487 -0.4197
18331TIP3    H255876   3.975  10.528   7.726  0.3418  1.1057  1.4128
18332TIP3   OH255877   1.964   2.707   5.665 -0.1301  0.6495 -0.3300
18332TIP3    H155878   1.941   2.755   5.586 -1.5015  2.2514  0.9738
18332TIP3    H255879   2.022   2.766   5.713 -1.1877  0.6902  0.9367
18333TIP3   OH255880   2.872   4.564   7.826 -0.3257 -0.9068  0.3168
18333TIP3    H155881   2.798   4.531   7.878 -2.9511  1.2522 -1.7541
18333TIP3    H255882   2.949   4.545   7.880 -2.4886 -1.7715  3.4256
18334TIP3   OH255883   3.537   2.310   0.906  0.0915 -0.2654 -0.0028
18334TIP3    H155884   3.601   2.268   0.849 -0.9187  0.1888 -1.5362
18334TIP3    H255885   3.453   2.273   0.879 -0.4061 -0.1611  1.3241
18335TIP3   OH255886  10.403   2.254   6.475  0.6416 -0.0436  0.4083
18335TIP3    H155887  10.424   2.180   6.419  0.2396 -0.3239  0.6173
18335TIP3    H255888  10.337   2.304   6.426 -0.0976 -0.5743  0.8426
18336TIP3   OH255889   4.292   0.595   2.541 -0.7953  0.2660 -0.2139
18336TIP3    H155890   4.248   0.571   2.623 -1.0711  1.7426  0.1138
18336TIP3    H255891   4.364   0.533   2.533 -0.5224  0.3244  1.3691
18337TIP3   OH255892   9.526   3.075   6.747 -0.4661 -0.0052 -0.0039
18337TIP3    H155893   9.544   3.144   6.684 -1.4187 -1.0557 -1.4878
18337TIP3    H255894   9.611   3.057   6.787 -0.2583  2.2552  0.7281
18338TIP3   OH255895   8.674   1.502   5.578 -0.0473 -0.4078 -0.0122
18338TIP3    H155896   8.600   1.462   5.532 -0.3574  0.5752 -0.3952
18338TIP3    H255897   8.680   1.590   5.541  1.4268 -0.5291 -0.0890
18339TIP3   OH255898   4.031   0.822   3.402 -0.0153  0.0084 -0.2076
18339TIP3    H155899   4.070   0.824   3.489 -0.9604 -0.3375  0.2441
18339TIP3    H255900   3.941   0.853   3.415  0.5073  2.3179 -1.4693
18340TIP3   OH255901   9.323   8.187   1.999  0.0366 -0.4184  0.0291
18340TIP3    H155902   9.372   8.256   2.043 -0.8259 -1.3039  2.5269
18340TIP3    H255903   9.386   8.115   1.989  0.9352  0.5928 -2.5742
18341TIP3   OH255904   5.795   4.142   8.918 -0.2787  0.0956 -0.2790
18341TIP3    H155905   5.723   4.086   8.946  0.6498 -0.5122  1.0233
18341TIP3    H255906   5.754   4.227   8.900 -1.4204 -0.4461 -0.3327
18342TIP3   OH255907   8.155   6.244   9.042 -0.5896  0.4120  0.0297
18342TIP3    H155908   8.124   6.208   8.960 -1.0884  0.6313  0.1184
18342TIP3    H255909   8.089   6.219   9.106 -1.2341  1.9045 -0.0035
18343TIP3   OH255910   7.109   5.967   5.683  0.5438  0.4804  0.2115
18343TIP3    H155911   7.118   6.061   5.694 -2.0505  0.9993 -1.2245
18343TIP3    H255912   7.063   5.938   5.761  2.1869  0.1852  1.1091
18344TIP3   OH255913   7.226  10.434   5.718  0.3165 -0.2069 -0.2420
18344TIP3    H155914   7.272  10.517   5.705 -0.6354  0.3823  0.0152
18344TIP3    H255915   7.135  10.453   5.695 -0.5759 -0.3066  2.7437
18345TIP3   OH255916   9.245  10.656   2.922 -0.3759  0.2620 -0.0404
18345TIP3    H155917   9.289  10.741   2.930 -0.9916  0.5971 -0.1763
18345TIP3    H255918   9.278  10.621   2.839 -1.0425  0.9209 -0.6033
18346TIP3   OH255919   1.296   7.092   4.732  0.5830  0.7469  0.5149
18346TIP3    H155920   1.288   7.016   4.790 -3.3826  0.3186 -0.3132
18346TIP3    H255921   1.322   7.056   4.648 -2.3232 -0.0549 -0.1672
18347TIP3   OH255922   2.360   6.545   5.444 -0.4643  0.1063 -0.9837
18347TIP3    H155923   2.402   6.519   5.362  0.6625  1.2295 -0.7992
18347TIP3    H255924   2.341   6.638   5.433  0.1875  0.4029  0.2221
18348TIP3   OH255925   4.447   1.878  10.341 -0.1255  0.5203  0.0631
18348TIP3    H155926   4.432   1.973  10.336 -0.6756  0.4685  0.5872
18348TIP3    H255927   4.542   1.869  10.350 -0.1594  1.0794  1.1527
18349TIP3   OH255928   2.865   4.980   5.709  0.6813  0.0701 -0.0531
18349TIP3    H155929   2.878   5.070   5.681 -0.3454  0.4195  0.5220
18349TIP3    H255930   2.770   4.966   5.701  0.9654 -1.4365 -1.5197
18350TIP3   OH255931   2.443   3.868   6.201  0.2098 -0.0939  0.4103
18350TIP3    H155932   2.376   3.934   6.219  0.6108  1.1617 -2.2538
18350TIP3    H255933   2.393   3.787   6.186 -0.3857 -0.1046  2.1502
18351TIP3   OH255934   7.861  10.721   3.890  0.4416 -0.2866  0.0369
18351TIP3    H155935   7.802  10.649   3.910  1.3741 -0.4293  2.6386
18351TIP3    H255936   7.915  10.688   3.818 -0.4044 -1.4257 -0.0998
18352TIP3   OH255937   4.277   5.951   2.655 -0.8159  0.6040 -0.4053
18352TIP3    H155938   4.231   5.868   2.653 -1.0667  0.6939  0.8689
18352TIP3    H255939   4.266   5.983   2.745  0.6018  1.2649 -0.4433
18353TIP3   OH255940   5.371   6.231   2.857  0.4923 -0.2840  0.1703
18353TIP3    H155941   5.362   6.311   2.806 -1.9538 -1.4872 -1.4635
18353TIP3    H255942   5.450   6.189   2.823 -0.4565 -0.5001 -1.8663
18354TIP3   OH255943   2.201   4.445   6.447 -0.1212 -1.1365 -0.3098
18354TIP3    H155944   2.178   4.459   6.355 -0.6172 -1.6507 -0.2644
18354TIP3    H255945   2.144   4.374   6.476 -1.5781  0.4771  1.0171
18355TIP3   OH255946   0.631   5.358   1.369 -0.4009  0.4597  0.7428
18355TIP3    H155947   0.569   5.403   1.311  0.3374 -1.2447 -1.5502
18355TIP3    H255948   0.709   5.415   1.369 -0.8811  1.1369  1.2076
18356TIP3   OH255949   3.431   6.428   6.456  0.5304  0.0669 -0.0493
18356TIP3    H155950   3.519   6.440   6.493  0.7662 -0.9919 -0.2459
18356TIP3    H255951   3.392   6.359   6.509 -0.5530  1.1614  0.6383
18357TIP3   OH255952   6.094   2.300   0.743  0.4177  0.1455  0.1975
18357TIP3    H155953   6.090   2.245   0.664  0.3647 -0.4624  0.6194
18357TIP3    H255954   6.046   2.379   0.719 -1.1955 -0.7802  0.1920
18358TIP3   OH255955   6.552   6.523   7.623 -0.1269  0.1741 -0.1636
18358TIP3    H155956   6.470   6.548   7.581 -0.9281  0.4145  1.4405
18358TIP3    H255957   6.524   6.482   7.705  1.2625 -2.3757 -0.8423
18359TIP3   OH255958   1.744   7.384   0.531  0.1659 -0.0532 -0.1678
18359TIP3    H155959   1.828   7.367   0.490  0.1660  0.6230 -0.4626
18359TIP3    H255960   1.714   7.466   0.491 -0.4166 -0.0475  0.2673
18360TIP3   OH255961   1.023   3.606   0.312  0.5379 -0.1217 -0.6303
18360TIP3    H155962   0.927   3.605   0.320  0.5801  0.7680  0.2240
18360TIP3    H255963   1.044   3.698   0.295  1.2013 -0.4398 -1.6043
18361TIP3   OH255964   4.506   4.544   0.141  0.0461  0.0110  0.5175
18361TIP3    H155965   4.526   4.634   0.113  1.4659 -0.4662 -0.1041
18361TIP3    H255966   4.470   4.503   0.062  1.9760 -0.7099 -0.0414
18362TIP3   OH255967   8.913   9.596  10.268 -0.0827  0.2587  0.3795
18362TIP3    H155968   8.846   9.560  10.326 -0.4264 -0.3386 -0.3756
18362TIP3    H255969   8.996   9.563  10.305 -0.3418 -0.6766  0.1582
18363TIP3   OH255970  10.554   6.851   3.580  0.3462 -0.3368 -0.4334
18363TIP3    H155971  10.593   6.881   3.498  0.5038  0.3373 -0.1267
18363TIP3    H255972  10.480   6.911   3.593  1.4042  0.7659  0.8237
18364TIP3   OH255973   0.263   3.911   7.581 -0.5654  0.0437 -0.4826
18364TIP3    H155974   0.342   3.906   7.634 -1.4809 -1.1549  0.8255
18364TIP3    H255975   0.212   3.982   7.620 -0.3404  0.5353 -1.0639
18365TIP3   OH255976   5.297   0.579   1.060  0.2008 -0.2963  0.0166
18365TIP3    H155977   5.222   0.557   1.004  1.1132 -2.1661 -0.5429
18365TIP3    H255978   5.276   0.666   1.094 -0.6720  0.6969 -2.7556
18366TIP3   OH255979   9.568   0.355   9.939 -0.1544 -0.4279 -0.5729
18366TIP3    H155980   9.652   0.384   9.975 -0.7079 -1.1661  1.4167
18366TIP3    H255981   9.510   0.430   9.950 -0.5468 -0.9262  0.9342
18367TIP3   OH255982   5.098   1.389   4.255 -0.7623 -0.0132 -0.0380
18367TIP3    H155983   5.143   1.473   4.256 -0.8879  0.0490  0.2927
18367TIP3    H255984   5.032   1.399   4.186 -2.7302  1.1901  1.8942
18368TIP3   OH255985   8.676   6.572   4.771  0.4555 -0.6756 -0.5135
18368TIP3    H155986   8.758   6.543   4.811  1.1589  1.5432 -0.1939
18368TIP3    H255987   8.698   6.590   4.680  1.4628  3.5488  0.3584
18369TIP3   OH255988   8.762   7.393   3.517 -0.2470  0.1240  0.0295
18369TIP3    H155989   8.784   7.313   3.470  0.1687  0.8027 -0.9660
18369TIP3    H255990   8.837   7.409   3.574  0.8220  1.0954 -1.5603
18370TIP3   OH255991   3.812   5.961   0.058  0.0816  0.3466  0.2520
18370TIP3    H155992   3.903   5.932   0.059  0.2318  0.7200 -0.7016
18370TIP3    H255993   3.814   6.042   0.006 -1.2034 -1.1668 -2.3779
18371TIP3   OH255994   1.922   1.841   1.072 -0.0670 -0.4366  0.0923
18371TIP3    H155995   1.881   1.843   1.158  1.9456  0.0584  1.1200
18371TIP3    H255996   1.983   1.767   1.076  0.7594  0.1853 -0.5269
18372TIP3   OH255997   6.314   2.407   6.255 -0.0643  0.4491 -0.4785
18372TIP3    H155998   6.356   2.323   6.275 -0.4549  0.5417  0.8044
18372TIP3    H255999   6.368   2.445   6.185  1.2143 -0.0277  0.2204
18373TIP3   OH256000   3.034   0.986   1.285 -0.2965  0.2495 -0.0782
18373TIP3    H156001   3.022   0.989   1.380 -1.4183 -0.5123 -0.1759
18373TIP3    H256002   3.127   0.970   1.273  0.0957  1.6488  0.8635
18374TIP3   OH256003   1.955   5.703   8.697  0.7350 -0.5020 -0.7198
18374TIP3    H156004   1.985   5.612   8.688 -1.1278 -1.0554 -1.8544
18374TIP3    H256005   2.034   5.756   8.686  1.7338 -1.9486 -0.7581
18375TIP3   OH256006   6.270   1.899   7.243 -0.5726  0.4021 -0.4202
18375TIP3    H156007   6.205   1.853   7.189 -1.6342  0.9851  0.3327
18375TIP3    H256008   6.288   1.980   7.195 -0.9786  0.5895 -0.2613
18376TIP3   OH256009   9.173   0.488   0.962  0.3545  0.1446 -0.1239
18376TIP3    H156010   9.174   0.399   0.998  0.1891  0.1945  0.0034
18376TIP3    H256011   9.140   0.542   1.033 -0.9701  0.1071 -0.6701
18377TIP3   OH256012   8.910   2.953   2.040 -0.3202  0.0741 -0.7109
18377TIP3    H156013   8.989   2.899   2.045 -0.3225  0.0621 -0.8079
18377TIP3    H256014   8.903   2.976   1.948 -0.2619  0.3265 -0.6535
18378TIP3   OH256015   1.906  10.549   3.991  0.1124  0.1433 -0.2820
18378TIP3    H156016   1.961  10.490   4.043 -1.8221 -1.0411  0.5337
18378TIP3    H256017   1.838  10.492   3.954 -1.5659  1.7693  0.1586
18379TIP3   OH256018   4.735   3.504   5.156 -0.3779 -0.1706 -0.6534
18379TIP3    H156019   4.704   3.503   5.247  0.1071 -0.4194 -0.4850
18379TIP3    H256020   4.830   3.497   5.164 -0.3971 -1.3087 -1.2126
18380TIP3   OH256021   1.721   8.474   9.513 -0.1300  0.3476 -0.0099
18380TIP3    H156022   1.748   8.383   9.499 -0.5046  0.1540  0.5253
18380TIP3    H256023   1.720   8.485   9.608  0.9092  1.2171 -0.0759
18381TIP3   OH256024   0.903   5.261   9.463 -0.1337  0.1728  0.4837
18381TIP3    H156025   0.872   5.200   9.396 -1.2984  1.0501  0.1911
18381TIP3    H256026   0.861   5.344   9.441  0.3417  0.7452  1.6600
18382TIP3   OH256027   6.106   2.164  10.030 -0.1168  0.2576  0.1650
18382TIP3    H156028   6.051   2.121  10.096  3.4481 -1.8245  2.1554
18382TIP3    H256029   6.084   2.120   9.948 -0.9999 -0.9085  0.9943
18383TIP3   OH256030   1.766   8.361   4.734  0.6421 -0.2064 -0.3834
18383TIP3    H156031   1.861   8.361   4.747  0.6065 -0.8487 -0.0889
18383TIP3    H256032   1.740   8.270   4.743 -0.2348  0.1584  1.3232
18384TIP3   OH256033  10.620   4.670   0.358  0.2665 -0.0212  0.7253
18384TIP3    H156034  10.707   4.648   0.394 -0.3078  0.5847  2.6316
18384TIP3    H256035  10.597   4.595   0.304  0.9366 -1.3518  2.1766
18385TIP3   OH256036   9.019   7.105   3.847 -0.3174 -0.1837  1.0974
18385TIP3    H156037   8.965   7.028   3.862  0.0126 -0.7524 -0.5176
18385TIP3    H256038   9.090   7.097   3.911 -0.8671 -0.6413  1.6579
18386TIP3   OH256039   2.854  10.028   0.686  0.0420 -0.5245 -0.3609
18386TIP3    H156040   2.938   9.994   0.716 -0.4625 -1.2073  0.3044
18386TIP3    H256041   2.790   9.964   0.717 -0.6844 -0.2326 -1.2256
18387TIP3   OH256042   0.417   1.811   9.886  0.3101  0.0142 -0.4636
18387TIP3    H156043   0.467   1.789   9.964  2.8248  2.1285 -1.3194
18387TIP3    H256044   0.380   1.897   9.904 -2.5242 -1.1294 -0.1995
18388TIP3   OH256045   8.998   6.741   3.856  0.6774 -0.0237  0.8698
18388TIP3    H156046   8.952   6.795   3.920  0.7114 -0.1919  1.0353
18388TIP3    H256047   8.953   6.657   3.856 -0.1405  0.3838 -0.2774
18389TIP3   OH256048   2.980   2.654   7.417  0.4096 -0.3126  0.3713
18389TIP3    H156049   3.000   2.563   7.442 -0.5782 -0.0500  2.3818
18389TIP3    H256050   2.905   2.647   7.359  1.2480 -0.8367 -0.6846
18390TIP3   OH256051   4.443   2.125   2.416  0.1844 -0.7746  0.1101
18390TIP3    H156052   4.402   2.198   2.463  0.0713 -0.6532 -0.1758
18390TIP3    H256053   4.500   2.083   2.481  1.4217  0.4790 -0.1320
18391TIP3   OH256054   8.504   8.441   7.275  0.4402  0.0076  0.7250
18391TIP3    H156055   8.538   8.366   7.226  0.5212  0.7497 -0.3736
18391TIP3    H256056   8.409   8.435   7.264  0.4728  0.3161  0.2560
18392TIP3   OH256057   7.041   8.524   7.613  0.1336 -0.4041 -0.2008
18392TIP3    H156058   6.992   8.516   7.531  1.8796  0.7621 -1.4228
18392TIP3    H256059   7.008   8.605   7.652  0.6652  0.0763 -0.7361
18393TIP3   OH256060  10.238   2.058   3.730 -0.3247  0.3960  0.5138
18393TIP3    H156061  10.170   1.991   3.725  1.2645 -1.2620  0.1525
18393TIP3    H256062  10.214   2.122   3.663 -0.4404 -1.2336 -1.0450
18394TIP3   OH256063   6.648  10.638   2.216  0.1367 -0.8641  0.7720
18394TIP3    H156064   6.729  10.689   2.215  0.1907 -0.8077  2.6771
18394TIP3    H256065   6.676  10.547   2.203  0.2105 -0.6130 -1.0288
18395TIP3   OH256066   5.535   3.397   0.691  0.2232 -0.7870  0.2898
18395TIP3    H156067   5.445   3.415   0.717  0.3109  0.6162 -0.2778
18395TIP3    H256068   5.528   3.342   0.613 -0.0766 -2.7408  1.6380
18396TIP3   OH256069   3.204   8.244   0.052 -0.1481 -0.3604 -0.6045
18396TIP3    H156070   3.252   8.325   0.074  0.1960 -0.9147  0.8150
18396TIP3    H256071   3.113   8.263   0.076 -0.5889  0.4654 -2.6948
18397TIP3   OH256072   3.666   7.756   5.000 -0.3093  0.2457 -0.2789
18397TIP3    H156073   3.728   7.717   4.938 -0.1055 -0.4591  0.3576
18397TIP3    H256074   3.715   7.763   5.082 -0.8574  0.3190  0.0439
18398TIP3   OH256075   5.681  10.180   7.216  0.2075  0.0264 -0.0583
18398TIP3    H156076   5.653  10.262   7.258  0.4494 -0.4519  1.0537
18398TIP3    H256077   5.600  10.130   7.206  0.3590 -0.5849  1.4739
18399TIP3   OH256078   4.442  10.270   3.283  0.0470  0.3682 -0.2815
18399TIP3    H156079   4.364  10.321   3.306  0.8632  1.2951  0.5147
18399TIP3    H256080   4.506  10.335   3.255  0.5217 -0.3919 -0.9994
18400TIP3   OH256081  10.217   3.949   4.555  0.1917  0.1896  0.1169
18400TIP3    H156082  10.228   4.033   4.600  0.3423  0.0677  0.3085
18400TIP3    H256083  10.167   3.895   4.617 -0.0385  0.1893 -0.0692
18401TIP3   OH256084   4.854   3.761   7.590  0.1999  0.0028  0.4217
18401TIP3    H156085   4.830   3.723   7.675  0.9591 -0.1691  0.5631
18401TIP3    H256086   4.831   3.693   7.527 -0.2147  0.0664  0.4978
18402TIP3   OH256087   9.391   8.138   6.124  0.0316 -0.0738 -0.4585
18402TIP3    H156088   9.389   8.049   6.090 -4.7969  0.2146 -1.7179
18402TIP3    H256089   9.372   8.130   6.217  0.8810 -0.3756 -0.3068
18403TIP3   OH256090   9.727   4.446   2.685  0.1902 -0.0880 -0.3726
18403TIP3    H156091   9.718   4.500   2.607 -0.5788  0.7687  0.2816
18403TIP3    H256092   9.719   4.508   2.758  0.7077 -0.8898  0.3863
18404TIP3   OH256093   8.008  10.493   8.277 -0.3304  0.3478  0.6527
18404TIP3    H156094   7.937  10.547   8.312 -1.8184 -1.1151  0.0177
18404TIP3    H256095   8.032  10.435   8.350 -0.3831  0.2792  0.6168
18405TIP3   OH256096   6.918   5.956   7.388 -0.6338 -0.7894 -0.4146
18405TIP3    H156097   6.904   5.938   7.481 -0.6529  0.6642 -0.1192
18405TIP3    H256098   7.001   5.913   7.368 -1.7496 -3.1269 -0.3415
18406TIP3   OH256099   0.690   3.708   3.148  0.3886 -0.0004 -0.3400
18406TIP3    H156100   0.604   3.747   3.132  0.6437  0.1004 -1.5480
18406TIP3    H256101   0.744   3.780   3.179  0.6716  0.4961 -1.9051
18407TIP3   OH256102  10.106   4.660   2.808 -0.0048 -0.1191 -0.5090
18407TIP3    H156103  10.044   4.703   2.749 -1.3134 -0.1492  0.7872
18407TIP3    H256104  10.123   4.575   2.768  0.9168  0.7055 -1.9799
18408TIP3   OH256105   6.422   2.734   1.149 -0.0970  0.9504 -0.0014
18408TIP3    H156106   6.367   2.771   1.080 -1.0236  0.9160  0.6897
18408TIP3    H256107   6.476   2.807   1.178  0.5696  0.8697 -1.0089
18409TIP3   OH256108   0.597   4.841   4.443 -0.0277 -0.0644  0.2368
18409TIP3    H156109   0.626   4.869   4.356  2.7879 -2.0792  0.3736
18409TIP3    H256110   0.654   4.888   4.504 -0.3870 -0.4140  0.8622
18410TIP3   OH256111   0.236  10.890   7.109 -0.3260  0.5476  0.3043
18410TIP3    H156112   0.300  10.820   7.098  0.7092  1.5691 -0.5395
18410TIP3    H256113   0.171  10.874   7.040  0.0932  0.6028 -0.1111
18411TIP3   OH256114   8.528   2.821   3.687  0.1825 -0.0534  0.1526
18411TIP3    H156115   8.584   2.766   3.741  1.0446  0.5809 -0.0766
18411TIP3    H256116   8.461   2.761   3.653  0.8393 -0.8668  0.2612
18412TIP3   OH256117   1.333   9.686   0.363 -0.4470 -0.3069  0.1205
18412TIP3    H156118   1.254   9.672   0.310 -0.4187 -0.2128  0.0531
18412TIP3    H256119   1.301   9.698   0.452 -0.6008  0.9037 -0.0772
18413TIP3   OH256120   3.315   6.796   7.772  0.0329 -0.6013  0.7885
18413TIP3    H156121   3.249   6.768   7.836 -1.6823 -0.0935 -0.6586
18413TIP3    H256122   3.266   6.805   7.690  2.1437 -1.2396 -0.6242
18414TIP3   OH256123   6.331   6.774   1.427 -0.2370 -0.1753 -0.1744
18414TIP3    H156124   6.350   6.774   1.333  0.7451  1.5670 -0.0165
18414TIP3    H256125   6.235   6.780   1.432 -0.2287  1.0885 -1.0862
18415TIP3   OH256126   3.087   5.899   0.090  0.3795 -0.2085  0.2273
18415TIP3    H156127   3.095   5.807   0.067 -0.5269 -0.3378  0.3663
18415TIP3    H256128   3.162   5.941   0.048 -0.3634 -0.6797 -1.6903
18416TIP3   OH256129  10.902   3.401  10.493 -0.1043 -0.4904 -0.1222
18416TIP3    H156130  10.830   3.361  10.541  0.7080 -0.6342  1.0242
18416TIP3    H256131  10.901   3.493  10.522 -0.5447 -0.2030 -1.0063
18417TIP3   OH256132  10.190   1.990   8.279  0.0533 -0.0311  0.1430
18417TIP3    H156133  10.188   1.932   8.356 -0.0507  0.5793  0.6120
18417TIP3    H256134  10.142   1.942   8.212 -2.7508  0.7323  1.4320
18418TIP3   OH256135   0.352   3.307   5.940  0.2287 -0.5739  0.0389
18418TIP3    H156136   0.403   3.230   5.917  2.4940  0.3201  1.7625
18418TIP3    H256137   0.405   3.381   5.911  0.1383  0.4056  2.2001
18419TIP3   OH256138   2.427   2.540   0.826  0.1763 -0.4800 -0.0865
18419TIP3    H156139   2.396   2.592   0.900 -1.5420 -1.6560  0.0762
18419TIP3    H256140   2.394   2.586   0.749  0.5490 -0.1471 -0.0497
18420TIP3   OH256141   6.030   0.501   8.369 -0.0403  0.1461 -0.3761
18420TIP3    H156142   6.029   0.406   8.383  0.1265  0.4164  1.8454
18420TIP3    H256143   5.945   0.531   8.400  0.4600  0.8662  0.3551
18421TIP3   OH256144   1.294  10.401   6.866 -0.6615 -0.2650 -0.0674
18421TIP3    H156145   1.251  10.318   6.886 -0.3777 -0.0762  1.4457
18421TIP3    H256146   1.368  10.378   6.809 -1.2791 -0.8909 -0.6204
18422TIP3   OH256147   5.473   0.936   7.965 -0.3756 -0.2762  0.1677
18422TIP3    H156148   5.437   0.927   7.877 -2.6517  1.2825  0.8494
18422TIP3    H256149   5.549   0.993   7.954  1.5644 -2.8931 -1.1799
18423TIP3   OH256150   4.417   7.469   1.140  0.3298  0.2782 -0.3111
18423TIP3    H156151   4.432   7.491   1.232 -1.4608 -2.7024  0.8421
18423TIP3    H256152   4.451   7.380   1.131  0.0526  0.3357 -2.4377
18424TIP3   OH256153   1.827   7.103   7.347 -0.0051 -0.2280 -0.0771
18424TIP3    H156154   1.913   7.146   7.344  0.0781 -0.1964  1.8855
18424TIP3    H256155   1.844   7.016   7.310  0.5980  0.1702 -0.7865
18425TIP3   OH256156   2.260   3.722   8.037 -0.0220 -0.3622 -0.0064
18425TIP3    H156157   2.321   3.786   8.074 -0.4752  0.4425 -0.6333
18425TIP3    H256158   2.201   3.773   7.982 -0.1769 -1.3634 -0.8066
18426TIP3   OH256159   6.965   1.463   5.339  0.2825 -0.1359  0.1156
18426TIP3    H156160   6.940   1.387   5.392  0.4136 -0.6040 -0.4920
18426TIP3    H256161   7.001   1.525   5.402  1.2221 -1.0215  0.4698
18427TIP3   OH256162   4.049   4.918   2.583 -0.3969  0.1028 -0.1447
18427TIP3    H156163   4.009   4.947   2.664 -2.2579  0.7533 -1.2460
18427TIP3    H256164   4.069   4.825   2.598  1.8661  0.8197  1.9699
18428TIP3   OH256165   0.229   9.232   2.273 -0.1822  0.4898  0.3723
18428TIP3    H156166   0.135   9.248   2.271 -0.1260  0.7671 -1.4281
18428TIP3    H256167   0.268   9.313   2.240  0.6078 -0.0633 -0.0822
18429TIP3   OH256168   3.214   3.220   1.710 -0.7818  0.2737 -0.2397
18429TIP3    H156169   3.184   3.305   1.676  1.0628  0.7636 -0.8088
18429TIP3    H256170   3.223   3.165   1.632 -0.2036  0.1718 -0.1110
18430TIP3   OH256171   2.154   8.089   6.596  0.6120 -0.5815  0.7731
18430TIP3    H156172   2.244   8.061   6.614  0.6594 -1.1939 -0.3592
18430TIP3    H256173   2.151   8.103   6.502  0.0680  1.4813  1.0426
18431TIP3   OH256174   7.882   3.977  10.273  0.1049 -0.2188 -0.1110
18431TIP3    H156175   7.796   3.964  10.232 -1.1979  0.9755  2.0677
18431TIP3    H256176   7.928   3.895  10.258 -1.4247 -0.9312 -1.2537
18432TIP3   OH256177   5.836   6.587   4.081  0.5509 -0.2965 -0.3123
18432TIP3    H156178   5.895   6.568   4.155  0.5346  1.1816  0.1087
18432TIP3    H256179   5.877   6.660   4.035 -1.0006  0.8748  0.0786
18433TIP3   OH256180   1.507   8.678  10.415 -0.0842 -0.1541 -0.4884
18433TIP3    H156181   1.458   8.680  10.497 -1.0745 -1.7515 -0.9950
18433TIP3    H256182   1.591   8.638  10.439  0.1269  0.5398 -0.0334
18434TIP3   OH256183   9.647   9.944   1.098 -0.2035 -0.1208  0.1362
18434TIP3    H156184   9.598  10.003   1.156 -1.7734 -0.4618 -0.7641
18434TIP3    H256185   9.580   9.885   1.063  1.0230 -1.1751 -0.4988
18435TIP3   OH256186   8.609   1.539   8.949  0.0077  0.1313 -0.5110
18435TIP3    H156187   8.556   1.610   8.985 -0.3032  0.5531 -1.7522
18435TIP3    H256188   8.645   1.495   9.026 -2.2381 -0.2779  0.3755
18436TIP3   OH256189   2.804   5.898   1.080 -0.0931 -0.5294  0.1156
18436TIP3    H156190   2.812   5.825   1.019 -0.9764 -0.1248 -0.5171
18436TIP3    H256191   2.861   5.966   1.043  0.8687 -0.9357  0.8004
18437TIP3   OH256192   5.063   8.834   0.371  0.0243 -0.2854  0.1058
18437TIP3    H156193   4.987   8.884   0.402 -0.4197 -0.4217 -0.7394
18437TIP3    H256194   5.025   8.760   0.323  0.6732 -1.2591  1.0178
18438TIP3   OH256195   7.491   1.149   3.716  0.0256 -0.0793  0.2656
18438TIP3    H156196   7.471   1.242   3.720  0.3815 -0.0264  0.8709
18438TIP3    H256197   7.580   1.142   3.750  0.3997 -0.5163 -0.7680
18439TIP3   OH256198   1.691   5.832   1.749 -0.4848 -0.1147  0.7671
18439TIP3    H156199   1.642   5.836   1.667  2.3375 -1.2758 -1.1364
18439TIP3    H256200   1.644   5.769   1.803 -1.3892 -0.7383 -0.7055
18440TIP3   OH256201   2.890   6.099  10.887  0.4439 -0.2861  0.3450
18440TIP3    H156202   2.932   6.013  10.890 -0.9839 -0.9952  1.0227
18440TIP3    H256203   2.879   6.124  10.979 -0.3551 -0.0037  0.1862
18441TIP3   OH256204   8.225   5.947   3.135 -0.0839  0.2847 -0.4471
18441TIP3    H156205   8.311   5.944   3.176  0.2791  2.3113 -0.9696
18441TIP3    H256206   8.236   5.901   3.052 -0.1092 -1.3906  0.4381
18442TIP3   OH256207   7.849  10.531   9.023 -0.2303 -0.0706 -0.1535
18442TIP3    H156208   7.830  10.437   9.026 -1.2353  0.1101 -0.3255
18442TIP3    H256209   7.821  10.559   8.936  0.7357  0.2684 -0.3695
18443TIP3   OH256210   8.401   7.020   6.247  0.3467 -0.1072 -0.5019
18443TIP3    H156211   8.439   6.976   6.323  1.8688  0.0480 -1.1401
18443TIP3    H256212   8.430   6.968   6.172 -1.3941 -0.4444 -0.9893
18444TIP3   OH256213  10.040   0.904   6.266  0.2932  0.0568 -0.2271
18444TIP3    H156214   9.944   0.911   6.266  0.0549 -2.1681  1.3978
18444TIP3    H256215  10.070   0.991   6.293 -1.3399  0.3901  0.6418
18445TIP3   OH256216   1.573   0.407   7.278 -0.5990 -0.1364 -0.0196
18445TIP3    H156217   1.662   0.383   7.255  0.0481  0.0472  2.1344
18445TIP3    H256218   1.564   0.498   7.249  1.2224  1.1171  2.9272
18446TIP3   OH256219   3.475   8.507   3.182  0.1734 -0.2339 -0.1319
18446TIP3    H156220   3.479   8.456   3.263 -0.6561  0.7209  0.5344
18446TIP3    H256221   3.381   8.514   3.164  0.3253  0.2345 -0.7508
18447TIP3   OH256222   8.302   1.274   2.491  0.0801 -0.1161 -0.2856
18447TIP3    H156223   8.243   1.316   2.428 -0.2436 -0.4749 -0.2319
18447TIP3    H256224   8.289   1.180   2.476  0.5048 -0.1992 -0.1436
18448TIP3   OH256225   8.364   7.641   2.415 -0.2164  0.1466  0.5640
18448TIP3    H156226   8.403   7.699   2.350 -2.5861  1.2396 -0.0101
18448TIP3    H256227   8.286   7.606   2.372 -1.0547 -0.2675  2.3117
18449TIP3   OH256228   4.152   1.774   7.460  0.4711  0.0866 -1.0688
18449TIP3    H156229   4.148   1.870   7.463  0.4527  0.0810 -0.9333
18449TIP3    H256230   4.166   1.754   7.367  0.0168  0.2072 -1.1680
18450TIP3   OH256231   7.601   8.934   6.281  0.2409 -0.0107 -0.1962
18450TIP3    H156232   7.580   8.975   6.197 -0.9457 -0.8949 -0.3648
18450TIP3    H256233   7.668   8.869   6.260 -1.3079 -1.4652 -0.8182
18451TIP3   OH256234   8.441   6.594   2.794 -0.4949 -0.2959 -0.5552
18451TIP3    H156235   8.404   6.590   2.706 -1.4488 -1.2584 -0.1217
18451TIP3    H256236   8.408   6.676   2.831 -2.4946 -1.2616 -0.0766
18452TIP3   OH256237   6.414   1.310   3.197  0.5455  0.3412 -0.3430
18452TIP3    H156238   6.360   1.267   3.264  0.7439  1.2647  0.4260
18452TIP3    H256239   6.375   1.282   3.114  0.6137 -1.2386  0.1163
18453TIP3   OH256240   1.553   2.154   1.577  0.5735  0.4462  0.2775
18453TIP3    H156241   1.524   2.189   1.660  0.1086  2.8553 -0.8239
18453TIP3    H256242   1.511   2.068   1.571  0.3269  0.3860  2.3240
18454TIP3   OH256243   2.503   1.521   8.082  0.0087  0.3575  0.6681
18454TIP3    H156244   2.565   1.449   8.074  0.4189  0.8606 -1.1127
18454TIP3    H256245   2.558   1.600   8.081 -0.5717  0.7638  0.3183
18455TIP3   OH256246   4.997   1.379   9.630  0.4584 -0.2683  0.1797
18455TIP3    H156247   5.086   1.375   9.595  0.1798 -0.0556 -0.5765
18455TIP3    H256248   5.000   1.450   9.694  0.3673  1.1272 -1.2987
18456TIP3   OH256249   4.818   3.972   3.083  0.2655 -0.4823 -0.2567
18456TIP3    H156250   4.867   3.936   3.157  0.2589 -1.0247 -0.5074
18456TIP3    H256251   4.740   3.916   3.077 -0.6397  0.6717  0.4387
18457TIP3   OH256252   5.819   1.486   7.499 -0.1881 -0.3726 -0.0150
18457TIP3    H156253   5.872   1.562   7.475 -1.0266  0.7278  1.4111
18457TIP3    H256254   5.741   1.493   7.444 -0.1281 -0.3578 -0.0978
18458TIP3   OH256255   3.113  10.725   2.006  0.1971  0.3011 -0.1254
18458TIP3    H156256   3.028  10.768   2.021  0.2599  1.1288 -1.9257
18458TIP3    H256257   3.108  10.645   2.058 -2.3987 -0.5390 -1.4971
18459TIP3   OH256258   1.557   8.142   9.922 -0.0326  0.7672  0.3455
18459TIP3    H156259   1.532   8.049   9.919 -2.8019  1.4642 -0.6286
18459TIP3    H256260   1.637   8.146   9.870  0.9654 -1.2421  1.5604
18460TIP3   OH256261   0.656   8.267   3.629 -0.4638 -0.0977  0.0542
18460TIP3    H156262   0.735   8.309   3.594 -0.3121 -1.0956 -0.8450
18460TIP3    H256263   0.584   8.319   3.594 -0.2729 -0.4386 -0.8750
18461TIP3   OH256264   9.332   3.813   3.970  0.1707  0.0392 -0.0025
18461TIP3    H156265   9.365   3.864   4.044  0.7506  0.5440 -0.6012
18461TIP3    H256266   9.411   3.774   3.931 -0.2628 -1.3561  0.4724
18462TIP3   OH256267   7.180   0.484   2.005  0.0778  0.0543  0.0085
18462TIP3    H156268   7.111   0.513   2.065 -1.3483  1.2856 -2.1086
18462TIP3    H256269   7.237   0.561   1.996  0.7001 -0.3627  0.3054
18463TIP3   OH256270   7.091   1.117   9.425 -0.2319 -0.6438  0.2548
18463TIP3    H156271   7.051   1.204   9.433 -0.5019 -0.7846  0.4378
18463TIP3    H256272   7.107   1.107   9.331 -1.5217 -0.9759  0.0435
18464TIP3   OH256273   5.249   1.934   0.824 -0.3678  0.3186  0.2121
18464TIP3    H156274   5.193   1.986   0.767  0.9596  1.1725 -0.3540
18464TIP3    H256275   5.244   1.977   0.909 -1.1890 -0.0932  0.3844
18465TIP3   OH256276   8.903   5.350  10.512  0.7466 -0.1644  0.5349
18465TIP3    H156277   8.902   5.446  10.513 -2.5426 -0.0798 -0.3891
18465TIP3    H256278   8.871   5.325  10.599  0.6070 -0.4033  0.4153
18466TIP3   OH256279   7.224   8.665   2.829  0.5094  0.8061  0.2979
18466TIP3    H156280   7.222   8.613   2.910  0.1970  0.9765  0.3994
18466TIP3    H256281   7.318   8.679   2.813  0.6795 -1.0050 -0.5180
18467TIP3   OH256282   7.685   8.507  10.515 -0.1183 -0.5549  0.2242
18467TIP3    H156283   7.697   8.415  10.491  0.4526  0.1198 -2.3518
18467TIP3    H256284   7.654   8.549  10.435 -1.6785  1.2998  1.7018
18468TIP3   OH256285   0.327   8.558   5.431 -0.0948 -0.4142  0.2287
18468TIP3    H156286   0.361   8.471   5.411  0.1432 -0.1846 -0.3691
18468TIP3    H256287   0.302   8.553   5.524  0.5857 -0.9030  0.3908
18469TIP3   OH256288   5.746   4.585   3.209 -0.0724  0.0362 -0.2135
18469TIP3    H156289   5.660   4.628   3.207 -0.1312 -0.0462  0.3464
18469TIP3    H256290   5.788   4.620   3.287  0.7072  0.6402 -0.8831
18470TIP3   OH256291   9.209   3.145   3.532  0.4715  0.2253 -0.1928
18470TIP3    H156292   9.182   3.217   3.474  1.3629  0.6203 -0.1311
18470TIP3    H256293   9.134   3.132   3.590 -1.7086 -2.1271 -3.2010
18471TIP3   OH256294   6.291   2.220   8.424 -0.1594  0.0041  0.0846
18471TIP3    H156295   6.305   2.314   8.435 -1.0327  0.1890 -0.2532
18471TIP3    H256296   6.348   2.179   8.489 -0.4682  0.7998  0.8756
18472TIP3   OH256297   1.325   3.722   8.227  0.1813 -0.5223  0.7347
18472TIP3    H156298   1.337   3.644   8.281  0.1172 -0.8512  0.2770
18472TIP3    H256299   1.412   3.740   8.190  0.2781 -0.1566  1.1345
18473TIP3   OH256300   4.422   3.897   9.154 -0.4007 -0.3444  0.1638
18473TIP3    H156301   4.431   3.821   9.097 -1.4468  0.3629 -0.9900
18473TIP3    H256302   4.338   3.885   9.199 -1.0355  0.5663 -0.7414
18474TIP3   OH256303   0.831  10.093   4.190  0.0627 -0.3460  0.0436
18474TIP3    H156304   0.881  10.163   4.230 -0.8339  0.4333 -0.1750
18474TIP3    H256305   0.891  10.018   4.191  0.6664  0.1200  1.2261
18475TIP3   OH256306   7.476  10.107   3.310  0.4123  0.4514  0.4059
18475TIP3    H156307   7.428  10.024   3.317 -1.4737  1.2732 -1.5754
18475TIP3    H256308   7.420  10.171   3.355  2.0796  0.6586  2.3607
18476TIP3   OH256309   4.595   6.501   1.727  0.1092 -0.0562  0.0426
18476TIP3    H156310   4.584   6.505   1.632  1.1420 -0.2473 -0.1060
18476TIP3    H256311   4.625   6.411   1.744 -1.5095 -0.5043  0.7373
18477TIP3   OH256312   6.995   5.501   2.740  0.4603  0.1632 -0.1390
18477TIP3    H156313   7.077   5.478   2.784  0.5441  2.6063  1.1056
18477TIP3    H256314   7.021   5.517   2.649  1.7043  2.2923  0.5244
18478TIP3   OH256315   4.516   8.827   8.868  0.3023 -0.4304  0.1174
18478TIP3    H156316   4.456   8.885   8.821 -0.5207 -1.6810 -0.4258
18478TIP3    H256317   4.486   8.739   8.847 -0.0009 -1.0759  2.8947
18479TIP3   OH256318   5.977   1.992   5.130  0.7030  0.3527  0.0203
18479TIP3    H156319   5.984   1.907   5.086  2.2396  0.3773  0.1873
18479TIP3    H256320   5.883   2.014   5.124  0.0159 -1.9570  1.1678
18480TIP3   OH256321   6.642   6.223   8.346  0.4207  0.2166  0.1943
18480TIP3    H156322   6.620   6.130   8.350  3.0190 -0.4280  2.7488
18480TIP3    H256323   6.737   6.225   8.334  0.4987  2.5004  0.7033
18481TIP3   OH256324   0.212   7.733   4.450 -0.7197 -0.5457 -0.0477
18481TIP3    H156325   0.194   7.659   4.509 -2.2816  0.8639  1.3572
18481TIP3    H256326   0.284   7.780   4.491 -3.0924  1.5833  2.0461
18482TIP3   OH256327  10.437   2.612   0.454 -0.4229  0.6882  0.0911
18482TIP3    H156328  10.499   2.571   0.514 -0.7920  0.0783  0.0649
18482TIP3    H256329  10.365   2.641   0.509 -1.2346 -0.7752 -0.1580
18483TIP3   OH256330   2.453   6.059  10.525  0.2126 -0.7019  0.1859
18483TIP3    H156331   2.468   6.046  10.618 -0.3119  0.7833  0.4978
18483TIP3    H256332   2.391   6.131  10.520  1.0327 -0.0470 -1.3301
18484TIP3   OH256333   6.227   4.607   4.045 -0.1364 -0.3031  0.0902
18484TIP3    H156334   6.266   4.529   4.084 -0.4633 -0.1045  0.8394
18484TIP3    H256335   6.214   4.667   4.119 -0.8209  0.0588 -0.3130
18485TIP3   OH256336   8.168   9.911  10.599  0.4792 -0.2517  0.4623
18485TIP3    H156337   8.253   9.873  10.624 -0.6298 -1.4294  2.7738
18485TIP3    H256338   8.172  10.001  10.629  0.2349 -0.8626  2.4508
18486TIP3   OH256339   1.068   2.942   7.684  0.1944 -0.1309 -0.9154
18486TIP3    H156340   0.993   2.959   7.627  1.7265  2.3980 -2.3771
18486TIP3    H256341   1.030   2.903   7.763 -2.3445 -1.0692 -2.4748
18487TIP3   OH256342   8.924   8.715   4.948  0.2676  0.2197  0.2726
18487TIP3    H156343   8.955   8.626   4.928  2.2333  0.9383 -0.1067
18487TIP3    H256344   8.968   8.770   4.883 -2.6789  1.2875 -1.0279
18488TIP3   OH256345   5.912   3.900  10.011 -0.4708 -0.4832  0.2066
18488TIP3    H156346   5.988   3.864  10.057 -1.1524 -2.5366 -0.1920
18488TIP3    H256347   5.914   3.859   9.925 -1.8500 -0.2999  0.0660
18489TIP3   OH256348   1.928   4.965   9.622 -0.1245  0.0968  0.1475
18489TIP3    H156349   2.012   4.920   9.625  0.5042  0.7297 -3.5171
18489TIP3    H256350   1.863   4.895   9.630  0.8182 -0.9821 -1.2751
18490TIP3   OH256351   7.854   3.667   7.548  0.2595  0.2067  0.7284
18490TIP3    H156352   7.864   3.582   7.592  0.8141 -0.1125  0.0032
18490TIP3    H256353   7.818   3.724   7.615 -0.7621 -0.7757  1.0373
18491TIP3   OH256354   7.394   4.542  10.366  0.4497 -0.2308 -0.0375
18491TIP3    H156355   7.392   4.634  10.342  1.6572 -0.1180  0.2436
18491TIP3    H256356   7.305   4.523  10.395 -0.5595  0.1282 -2.6247
18492TIP3   OH256357  10.123   7.041   6.438 -0.1356  0.2196  0.1037
18492TIP3    H156358  10.119   6.975   6.507 -0.0023 -0.3141 -0.3954
18492TIP3    H256359  10.115   6.992   6.357 -1.3176  0.9442 -0.2361
18493TIP3   OH256360   3.506   3.028   1.648 -0.1342  0.2679  0.0967
18493TIP3    H156361   3.537   3.107   1.691 -2.7115  1.1823  0.4765
18493TIP3    H256362   3.488   2.967   1.720 -2.9379  1.2344  0.3466
18494TIP3   OH256363   3.140   7.133   5.216 -0.4039 -0.1348 -0.1729
18494TIP3    H156364   3.106   7.222   5.214 -1.3105 -0.4358 -3.1247
18494TIP3    H256365   3.067   7.078   5.188 -0.1786 -2.0093  2.5607
18495TIP3   OH256366  10.405   4.363   5.874 -0.1646 -0.1200 -0.4218
18495TIP3    H156367  10.385   4.294   5.937  0.6071 -0.4023 -0.4685
18495TIP3    H256368  10.424   4.440   5.927 -1.2445  0.1203 -0.3764
18496TIP3   OH256369   9.768   8.153   6.229 -0.4015  0.5445  0.0919
18496TIP3    H156370   9.679   8.160   6.195 -0.2388  2.0630 -0.0874
18496TIP3    H256371   9.784   8.058   6.235 -2.0814  0.2445  0.3222
18497TIP3   OH256372   8.957   9.732   4.785 -0.3083  0.1856 -0.1986
18497TIP3    H156373   9.028   9.760   4.843 -2.3026  0.1531  2.4493
18497TIP3    H256374   8.999   9.672   4.723  1.7694 -1.0155  2.1601
18498TIP3   OH256375   2.526   4.846   0.088 -0.6255  1.1656  0.1192
18498TIP3    H156376   2.432   4.831   0.076 -0.0998 -2.1623 -0.6079
18498TIP3    H256377   2.553   4.891   0.007 -1.2276  0.0601 -0.7211
18499TIP3   OH256378   5.530   6.622   0.122  0.0275  0.0425  0.5299
18499TIP3    H156379   5.436   6.629   0.139 -0.0803 -1.8210  0.9045
18499TIP3    H256380   5.543   6.672   0.042 -1.0004  1.6140  1.2993
18500TIP3   OH256381   5.765   4.957   5.264  0.4913  0.2577  0.4904
18500TIP3    H156382   5.723   4.951   5.178 -1.1307 -0.2378  1.2968
18500TIP3    H256383   5.714   5.023   5.311 -0.5788 -1.6426  2.1216
18501TIP3   OH256384   2.040   8.431   6.372 -0.5374  0.2657 -0.5815
18501TIP3    H156385   2.101   8.458   6.304  0.1744 -0.5141 -0.2760
18501TIP3    H256386   1.996   8.354   6.336 -0.7899  0.3791 -0.5116
18502TIP3   OH256387   9.157   8.360   6.396 -0.6443  0.0051 -0.9996
18502TIP3    H156388   9.100   8.418   6.448 -0.3454 -0.7193  0.1766
18502TIP3    H256389   9.106   8.280   6.386  0.2317 -0.7589  0.3125
18503TIP3   OH256390   9.380   1.046   8.454  0.1239  0.3699 -0.1490
18503TIP3    H156391   9.303   1.031   8.509 -1.1010  0.1918 -1.8022
18503TIP3    H256392   9.375   1.138   8.430  0.4385  0.3648 -0.2382
18504TIP3   OH256393   8.873   6.165   1.521  0.2372  0.6783  0.2788
18504TIP3    H156394   8.847   6.166   1.429  2.3007  0.2106 -0.3474
18504TIP3    H256395   8.834   6.245   1.557 -1.9249  0.0833 -0.5697
18505TIP3   OH256396   2.582   1.137   7.393  0.2366 -0.2602 -0.0036
18505TIP3    H156397   2.579   1.146   7.298  0.3257  0.1038  0.0268
18505TIP3    H256398   2.494   1.109   7.417  0.3106 -0.6981 -0.2257
18506TIP3   OH256399   0.291   9.363   9.031 -0.4134  0.3234 -0.4095
18506TIP3    H156400   0.351   9.432   9.004 -1.9209  1.3700 -1.2786
18506TIP3    H256401   0.262   9.323   8.949 -2.0719  0.9171 -0.1557
18507TIP3   OH256402  10.177   4.160   1.804 -0.5250  0.1557 -0.2246
18507TIP3    H156403  10.092   4.203   1.792  0.6457  2.0210 -3.1074
18507TIP3    H256404  10.162   4.069   1.780 -1.7845  0.3664 -0.2816
18508TIP3   OH256405   9.799   6.422  10.197 -0.1829 -0.2719  0.1186
18508TIP3    H156406   9.830   6.512  10.209 -3.3554  0.9704 -0.0940
18508TIP3    H256407   9.824   6.376  10.277  0.6484  1.0579  0.6492
18509TIP3   OH256408   5.252   8.945  10.142  0.8167 -1.2891 -0.1808
18509TIP3    H156409   5.335   8.912  10.107  0.0107 -1.7876 -1.7206
18509TIP3    H256410   5.191   8.872  10.133 -0.0881 -0.5477 -0.2309
18510TIP3   OH256411   5.063   6.704  10.163 -0.0279 -0.5184  0.6274
18510TIP3    H156412   5.117   6.767  10.212 -0.7454  0.0526  0.7071
18510TIP3    H256413   5.047   6.633  10.225 -0.5607 -0.0090  1.0831
18511TIP3   OH256414   9.106   0.802   8.555 -0.4052  0.1582  0.1852
18511TIP3    H156415   9.160   0.874   8.588  0.1928  0.3995 -1.2762
18511TIP3    H256416   9.087   0.825   8.465  0.9684 -2.1529 -0.7894
18512TIP3   OH256417   4.822   6.296   8.942  0.1031 -0.5261 -0.8309
18512TIP3    H156418   4.911   6.261   8.939  0.3890  0.0633  0.3526
18512TIP3    H256419   4.781   6.251   9.016 -0.4280 -0.4334 -1.0661
18513TIP3   OH256420   0.634   8.362   2.877 -0.9039  0.2635 -0.0307
18513TIP3    H156421   0.606   8.277   2.912  0.8965 -1.1686 -1.7859
18513TIP3    H256422   0.569   8.384   2.811 -2.5789  1.4161  1.9014
18514TIP3   OH256423   7.529   1.990   0.634 -0.1055 -0.4328  0.0105
18514TIP3    H156424   7.609   1.937   0.639  0.0735 -0.0416  1.9296
18514TIP3    H256425   7.502   1.983   0.542  2.3044 -0.2863 -0.7830
18515TIP3   OH256426   7.988   5.962   6.620 -0.0330  0.4209  0.2142
18515TIP3    H156427   8.007   6.042   6.570  0.9284 -0.7566 -1.4033
18515TIP3    H256428   7.968   5.896   6.554  0.1100 -0.9219  1.4522
18516TIP3   OH256429   5.866   9.804  10.813 -0.2747 -0.0107 -0.1430
18516TIP3    H156430   5.782   9.821  10.771 -0.5970  0.9403  0.8271
18516TIP3    H256431   5.844   9.789  10.905  0.6714  1.1529  0.3051
18517TIP3   OH256432  10.381   4.832   7.112  0.2131 -0.3125 -0.4222
18517TIP3    H156433  10.402   4.770   7.042  0.4389 -0.3910 -0.2833
18517TIP3    H256434  10.432   4.910   7.090  0.9631 -0.6446  0.1362
18518TIP3   OH256435  10.876   0.757   0.039 -0.3235 -0.2334  0.8935
18518TIP3    H156436  10.888   0.789   0.128  0.9555 -0.9389  0.9968
18518TIP3    H256437  10.794   0.709   0.041  0.2911 -1.2836  2.0100
18519TIP3   OH256438   2.918   4.052   5.184  0.0577  0.5911  0.1194
18519TIP3    H156439   3.010   4.072   5.196  0.2622  0.5614 -1.2209
18519TIP3    H256440   2.917   3.967   5.138 -0.5144  1.7543 -2.1719
18520TIP3   OH256441   8.946   5.469   1.305 -0.5594 -0.1586 -0.0304
18520TIP3    H156442   8.959   5.541   1.367  0.4314 -0.9340  0.7022
18520TIP3    H256443   8.874   5.418   1.342 -0.4217 -0.2370  0.1324
18521TIP3   OH256444   3.924   2.820   0.241  0.5905  0.0727 -0.9772
18521TIP3    H156445   3.919   2.898   0.296  3.3040 -0.2823 -0.0569
18521TIP3    H256446   3.919   2.853   0.151 -0.1889  1.0677 -0.5908
18522TIP3   OH256447   5.014   6.441   7.617 -0.2461 -0.9334  0.0287
18522TIP3    H156448   5.003   6.442   7.522  1.6022 -0.4109 -0.2104
18522TIP3    H256449   5.034   6.350   7.638  2.4256 -0.5501 -0.5333
18523TIP3   OH256450   4.216   4.483   8.153  0.4644  0.0372 -0.6141
18523TIP3    H156451   4.233   4.545   8.225 -1.7342 -1.6433  1.5339
18523TIP3    H256452   4.244   4.398   8.187 -0.3686 -0.7679 -1.8532
18524TIP3   OH256453   7.489   6.232   4.312 -0.3998 -0.4474 -0.2018
18524TIP3    H156454   7.573   6.222   4.357 -0.8326 -0.0043  0.7350
18524TIP3    H256455   7.485   6.158   4.252  0.1574 -1.1181  0.5641
18525TIP3   OH256456   5.447   4.901   7.496 -0.1954 -0.1651 -0.0182
18525TIP3    H156457   5.513   4.878   7.431 -0.1786 -0.1013 -0.0244
18525TIP3    H256458   5.365   4.908   7.447 -0.2265 -0.3455  0.0058
18526TIP3   OH256459   2.972   1.164   7.919 -0.2256 -0.1112 -0.0776
18526TIP3    H156460   2.998   1.142   7.829 -1.1665  1.4557 -0.7742
18526TIP3    H256461   2.996   1.257   7.928  0.7948 -0.5054  1.6631
18527TIP3   OH256462   7.455   4.592   2.657  0.0221 -0.2953  0.0277
18527TIP3    H156463   7.361   4.581   2.644  0.1029  1.2899 -2.5602
18527TIP3    H256464   7.493   4.509   2.628 -0.4536 -0.1237 -1.1097
18528TIP3   OH256465   2.409   2.276   7.911 -0.5851 -0.1016  0.0787
18528TIP3    H156466   2.480   2.212   7.913 -0.7435 -0.2921 -0.3105
18528TIP3    H256467   2.346   2.241   7.847 -1.5263 -0.4562  1.1732
18529TIP3   OH256468   5.851   1.441  10.145  0.0231  0.0213 -0.0155
18529TIP3    H156469   5.836   1.364  10.200  0.0298 -0.4816 -0.7009
18529TIP3    H256470   5.769   1.491  10.150  0.1062  0.0947  0.6226
18530TIP3   OH256471   8.979   9.028   7.100  0.9257 -0.1225  0.3955
18530TIP3    H156472   8.885   9.010   7.110  0.8921 -0.2854 -0.1586
18530TIP3    H256473   9.022   8.946   7.120  0.8004 -0.7395 -1.6510
18531TIP3   OH256474   3.638   9.966   3.568 -0.5695 -0.9169 -0.5697
18531TIP3    H156475   3.678   9.890   3.525  0.1883 -0.7298 -0.2156
18531TIP3    H256476   3.700  10.037   3.552 -1.1446 -0.4312 -0.6648
18532TIP3   OH256477   4.713  10.103   3.960 -0.7241  0.3022 -0.2827
18532TIP3    H156478   4.730  10.025   3.908  3.0801  2.6024 -3.1125
18532TIP3    H256479   4.756  10.087   4.044 -0.1425 -0.7231 -0.7650
18533TIP3   OH256480   4.585   0.799  10.804  0.2941 -0.5212 -0.5288
18533TIP3    H156481   4.576   0.820  10.711  0.8628  1.0426 -0.2598
18533TIP3    H256482   4.669   0.839  10.829  0.2846 -1.1671  0.5965
18534TIP3   OH256483   2.378   3.193   7.545  0.3575  0.1121 -0.3729
18534TIP3    H156484   2.460   3.231   7.517 -0.5894  0.6047 -2.6990
18534TIP3    H256485   2.346   3.251   7.614  1.1711  0.8272 -0.5937
18535TIP3   OH256486   4.609   8.384   2.482  0.1489  0.2089  0.4520
18535TIP3    H156487   4.532   8.330   2.466  0.4054 -0.7113  2.1230
18535TIP3    H256488   4.638   8.411   2.395 -2.1947  0.8109 -0.2161
18536TIP3   OH256489   5.855  10.053   4.464 -0.3593  0.4290 -0.0778
18536TIP3    H156490   5.788   9.989   4.438  1.1057 -0.5768 -1.5522
18536TIP3    H256491   5.864  10.041   4.559  0.2825 -2.0048 -0.3801
18537TIP3   OH256492   2.361   4.504   3.606 -0.1218 -0.6718 -0.4528
18537TIP3    H156493   2.433   4.563   3.583 -0.2732  0.5437  1.8915
18537TIP3    H256494   2.399   4.443   3.669 -0.7605 -1.0540 -0.4291
18538TIP3   OH256495   5.147   8.499   1.029  0.6264  0.3316 -0.1371
18538TIP3    H156496   5.061   8.459   1.029  0.5995  0.2284  2.0841
18538TIP3    H256497   5.130   8.593   1.038  0.7479  0.6727 -2.6894
18539TIP3   OH256498   5.664   9.327   9.751 -0.2341  0.0537  0.1458
18539TIP3    H156499   5.607   9.251   9.762 -0.6890  0.5983  1.7128
18539TIP3    H256500   5.752   9.290   9.752 -0.4505 -0.4680  0.8898
18540TIP3   OH256501  10.694  10.586   8.824 -0.0317  0.2557  0.1284
18540TIP3    H156502  10.679  10.552   8.912 -0.0666 -1.8502 -0.6248
18540TIP3    H256503  10.762  10.529   8.787 -0.1876  0.9294 -1.2780
18541TIP3   OH256504   9.902   9.650   8.020 -0.3581 -0.3757  0.3549
18541TIP3    H156505   9.921   9.703   8.098  0.9016  0.1218 -0.2466
18541TIP3    H256506   9.808   9.658   8.008 -0.5087 -0.0816  1.5605
18542TIP3   OH256507   4.160   4.518   7.795  0.4010  0.4376  0.3526
18542TIP3    H156508   4.218   4.466   7.850  0.7340 -1.0952 -1.3524
18542TIP3    H256509   4.192   4.608   7.804  0.0960  0.3611  3.0221
18543TIP3   OH256510   8.079   8.543   9.065  0.1657 -0.3529  0.3268
18543TIP3    H156511   8.165   8.502   9.052 -0.2768 -0.5889 -2.4513
18543TIP3    H256512   8.098   8.624   9.113  1.8872 -0.5510  0.0504
18544TIP3   OH256513  10.703   3.390   6.511 -0.2760 -0.0544  0.0199
18544TIP3    H156514  10.797   3.394   6.491 -0.2837 -0.8152 -0.1961
18544TIP3    H256515  10.679   3.299   6.494 -0.7159 -0.2592  1.5711
18545TIP3   OH256516   2.763   0.428   3.885  0.2498 -0.0913  0.0126
18545TIP3    H156517   2.800   0.402   3.970 -1.7350 -0.4457  0.8273
18545TIP3    H256518   2.718   0.510   3.903 -0.2763 -0.2248 -0.6545
18546TIP3   OH256519   9.628   7.062   3.829  0.1855  0.1153 -0.1158
18546TIP3    H156520   9.589   6.986   3.873 -2.0262 -0.3311 -2.5705
18546TIP3    H256521   9.554   7.122   3.814  1.2833  1.3013 -1.0501
18547TIP3   OH256522   0.069   8.093   4.622  0.3457  0.2721 -0.4561
18547TIP3    H156523   0.148   8.102   4.676  0.9895 -0.8063 -1.1805
18547TIP3    H256524   0.048   8.182   4.595 -0.1371  0.8874  1.7345
18548TIP3   OH256525   8.242   9.173   8.224  0.5598  0.5262 -0.4028
18548TIP3    H156526   8.228   9.119   8.147  1.4101 -1.5406  0.8033
18548TIP3    H256527   8.334   9.201   8.217  0.1671  1.7109 -0.9436
18549TIP3   OH256528  10.572   9.207   2.860  0.3419 -0.1335  0.3900
18549TIP3    H156529  10.508   9.141   2.833  0.8359 -0.7848  0.7978
18549TIP3    H256530  10.551   9.225   2.951  1.4299 -1.1736  0.8624
18550TIP3   OH256531   7.205   8.047   5.536  0.0469  0.2086  0.4194
18550TIP3    H156532   7.140   8.055   5.606  0.8291  0.7676  1.0990
18550TIP3    H256533   7.177   7.970   5.486 -1.5436  0.8621  0.2583
18551TIP3   OH256534   0.780   4.303  10.594 -0.2199  0.0828  0.1170
18551TIP3    H156535   0.791   4.379  10.537  2.0980  0.2530  0.6929
18551TIP3    H256536   0.708   4.326  10.652  0.9544  2.1989  0.8042
18552TIP3   OH256537   4.921   7.910   4.071  0.5116  0.0542  0.2654
18552TIP3    H156538   4.963   7.859   4.140 -0.8086  0.9995  1.8367
18552TIP3    H256539   4.827   7.897   4.085  0.1705  1.9412 -0.0020
18553TIP3   OH256540   9.830   0.857   9.628  0.4175 -0.5161  0.5027
18553TIP3    H156541   9.904   0.879   9.572 -0.7764  1.3905 -0.4533
18553TIP3    H256542   9.812   0.938   9.677 -0.4459 -1.2331  1.4190
18554TIP3   OH256543   7.595   8.234   4.379 -0.5312 -0.4492  0.0532
18554TIP3    H156544   7.636   8.206   4.297 -0.4030  1.2618 -0.4981
18554TIP3    H256545   7.658   8.295   4.418 -1.5293  0.3992  0.3617
18555TIP3   OH256546  10.069   9.727   8.798  0.2485  0.3299 -0.2440
18555TIP3    H156547   9.993   9.782   8.819 -0.2633 -1.3591  2.9837
18555TIP3    H256548  10.144   9.784   8.809 -0.3908  1.1794 -0.1845
18556TIP3   OH256549   8.222   6.870   8.893  0.4228 -0.2220  0.0330
18556TIP3    H156550   8.262   6.785   8.911 -0.1381 -0.3110  0.9096
18556TIP3    H256551   8.237   6.921   8.972 -1.4218 -0.3513  0.4977
18557TIP3   OH256552   0.255   5.692   6.932  0.0260 -0.3739  0.2138
18557TIP3    H156553   0.330   5.725   6.982 -0.3147 -0.8145  1.0364
18557TIP3    H256554   0.233   5.608   6.974  0.1214 -1.0585 -1.0797
18558TIP3   OH256555   0.282  10.210   5.285 -0.3987 -0.5495 -0.0019
18558TIP3    H156556   0.281  10.117   5.261  1.2046 -0.2273 -1.4989
18558TIP3    H256557   0.244  10.255   5.209  2.2733  0.2660 -0.9874
18559TIP3   OH256558   3.864   1.283   4.886 -0.4046 -0.0545  0.3203
18559TIP3    H156559   3.892   1.217   4.822  0.1574  1.1642 -0.7412
18559TIP3    H256560   3.810   1.235   4.948  1.3027 -1.8412  0.5115
18560TIP3   OH256561   4.653   4.944   7.004 -0.2473  0.5322  0.1382
18560TIP3    H156562   4.656   4.853   7.031 -2.4569  0.4653  0.3629
18560TIP3    H256563   4.661   4.941   6.908  1.4152  0.2710  0.2692
18561TIP3   OH256564   3.103   5.334   1.337  0.1974  1.4857  0.4594
18561TIP3    H156565   3.187   5.376   1.356 -0.1163  2.2228  0.2072
18561TIP3    H256566   3.043   5.405   1.317  0.0139  0.8631 -1.3984
18562TIP3   OH256567   7.424   9.755   2.454 -0.1483  0.4609 -0.3832
18562TIP3    H156568   7.477   9.797   2.522  3.3177  0.0527 -2.5667
18562TIP3    H256569   7.434   9.812   2.377  0.9469 -1.9115 -2.1366
18563TIP3   OH256570   4.862   3.008   4.672  0.7316  0.1126 -0.4550
18563TIP3    H156571   4.931   3.006   4.606  1.9195 -0.0555  0.7540
18563TIP3    H256572   4.793   2.953   4.636  2.1774 -1.6222 -0.7087
18564TIP3   OH256573   1.479   2.193   5.716  0.3110 -0.0128  0.5199
18564TIP3    H156574   1.546   2.127   5.697 -1.2673 -1.5204 -0.0402
18564TIP3    H256575   1.411   2.178   5.650 -1.7412 -0.1907  2.5693
18565TIP3   OH256576   4.428   6.110   1.933  0.3572  0.2235  0.3680
18565TIP3    H156577   4.405   6.052   2.006  0.2926  0.3079  0.4148
18565TIP3    H256578   4.413   6.057   1.855  0.5783  0.0813  0.4213
18566TIP3   OH256579   0.360   3.900   6.925  0.0522 -0.0802 -0.1914
18566TIP3    H156580   0.446   3.937   6.903 -1.1321  1.6531 -2.2655
18566TIP3    H256581   0.347   3.832   6.858 -0.2388 -0.2593  0.0479
18567TIP3   OH256582   0.298   0.724   5.934  0.2696  0.6449  0.0314
18567TIP3    H156583   0.316   0.630   5.937  0.6536  0.6867 -0.6690
18567TIP3    H256584   0.207   0.729   5.905  0.7762  0.4971 -1.6931
18568TIP3   OH256585   4.071   9.501   0.763 -0.3151 -0.0507  0.7464
18568TIP3    H156586   4.149   9.555   0.752  0.2572 -1.0662 -0.3272
18568TIP3    H256587   4.002   9.564   0.785  0.4618  1.0496  0.1367
18569TIP3   OH256588   5.468   8.457   0.602  0.0110  0.1985  0.7574
18569TIP3    H156589   5.560   8.436   0.615  0.0728 -1.4315 -1.6237
18569TIP3    H256590   5.465   8.498   0.515 -1.6913 -1.7483 -0.1913
18570TIP3   OH256591   7.085  10.267   4.328 -0.2727  1.0079  0.2074
18570TIP3    H156592   7.052  10.299   4.412  1.8757  1.6012  0.9075
18570TIP3    H256593   7.109  10.347   4.280 -0.7522  0.6436 -0.6478
18571TIP3   OH256594   9.906   8.819   2.364 -0.4306  0.0915 -1.0118
18571TIP3    H156595   9.894   8.726   2.382 -0.2380 -0.1367 -2.0088
18571TIP3    H256596   9.887   8.829   2.271  0.2213  0.9212 -1.0770
18572TIP3   OH256597   4.803   0.100   2.613 -0.1254  0.3227 -0.0355
18572TIP3    H156598   4.876   0.085   2.674  0.1824 -1.0414 -0.6985
18572TIP3    H256599   4.840   0.084   2.526 -1.5730 -2.1381 -0.2952
18573TIP3   OH256600   1.970   5.401   4.056 -0.3649  0.0362 -0.4658
18573TIP3    H156601   1.955   5.308   4.070 -1.3477  0.3192  0.4886
18573TIP3    H256602   1.883   5.439   4.049 -0.0740  1.2087  1.4604
18574TIP3   OH256603   3.409  10.184   7.981 -0.1796 -0.3827 -0.0687
18574TIP3    H156604   3.491  10.186   7.932  0.5734 -0.7930  1.1292
18574TIP3    H256605   3.430  10.224   8.065 -0.6345 -2.3880  1.0653
18575TIP3   OH256606  10.460   2.220   5.830  0.2344  0.5580 -0.6913
18575TIP3    H156607  10.372   2.241   5.864 -0.5314 -1.0870 -1.5580
18575TIP3    H256608  10.455   2.240   5.736  0.4409 -0.5375 -0.9452
18576TIP3   OH256609  10.383   1.903   5.006 -0.2376  0.0458  0.0520
18576TIP3    H156610  10.452   1.878   4.945  0.2419 -1.0879  1.0225
18576TIP3    H256611  10.398   1.848   5.083 -0.0141  2.3411  1.7437
18577TIP3   OH256612   4.694   0.564   0.528  0.3413 -0.2033 -0.3384
18577TIP3    H156613   4.736   0.497   0.581 -0.9630 -0.2870  0.6431
18577TIP3    H256614   4.727   0.647   0.563 -1.8423 -0.1689  1.9269
18578TIP3   OH256615   5.423  10.736  10.407  0.2670  0.5486 -0.2984
18578TIP3    H156616   5.432  10.662  10.467  1.3156  0.3587 -0.6584
18578TIP3    H256617   5.472  10.807  10.449  0.9080  0.4480 -0.8631
18579TIP3   OH256618   8.923   4.104   0.783 -0.0018 -0.4111 -0.2742
18579TIP3    H156619   8.929   4.033   0.719  1.2718 -1.1415  0.6008
18579TIP3    H256620   8.830   4.106   0.808  0.0090 -2.1167  0.0416
18580TIP3   OH256621   5.556   0.697   9.854 -0.7750 -0.0878  0.1515
18580TIP3    H156622   5.557   0.745   9.771 -1.6219  0.1626  0.2769
18580TIP3    H256623   5.497   0.747   9.910  0.3806  0.1696  1.1741
18581TIP3   OH256624   8.747  10.618   4.723  0.2570  0.1030 -0.4197
18581TIP3    H156625   8.797  10.593   4.645 -1.4535  1.0656 -1.8907
18581TIP3    H256626   8.813  10.650   4.784  1.5107  0.9423 -2.1176
18582TIP3   OH256627   7.172   3.674   4.366 -0.6075  0.5085 -0.7069
18582TIP3    H156628   7.186   3.635   4.279 -2.4329 -0.4941 -0.6219
18582TIP3    H256629   7.259   3.701   4.395  0.1257  0.3471 -2.6056
18583TIP3   OH256630   5.732   0.383   1.184  0.1782  1.0917  0.0510
18583TIP3    H156631   5.787   0.389   1.106 -1.4881 -1.1234 -1.4399
18583TIP3    H256632   5.776   0.318   1.239 -0.1667  0.3782 -0.4923
18584TIP3   OH256633   5.880   7.197  10.046 -0.4760  0.4914 -0.4260
18584TIP3    H156634   5.795   7.238  10.058 -0.8364 -0.0617 -1.0037
18584TIP3    H256635   5.860   7.108  10.017  0.2959  0.3995 -0.7118
18585TIP3   OH256636   3.352   6.212   2.010  0.5376  0.5561 -0.2882
18585TIP3    H156637   3.419   6.279   2.020 -0.2429  1.4672 -0.9045
18585TIP3    H256638   3.270   6.256   2.032  0.1561 -0.6590  0.9294
18586TIP3   OH256639   9.150   5.634   8.249 -0.0843 -0.4716  0.1256
18586TIP3    H156640   9.203   5.664   8.175  0.9126 -1.0599  0.5898
18586TIP3    H256641   9.182   5.686   8.323 -0.9382 -0.0293  0.1966
18587TIP3   OH256642   4.066   5.040  10.641  0.2637 -0.0112 -0.3759
18587TIP3    H156643   4.073   4.948  10.667 -0.0879  0.0775  0.0584
18587TIP3    H256644   4.091   5.041  10.549 -1.1196 -0.7667 -0.8001
18588TIP3   OH256645   3.199   1.058   6.903  1.0752 -0.2883 -0.0596
18588TIP3    H156646   3.138   1.131   6.890  2.5474  0.9205 -0.4857
18588TIP3    H256647   3.143   0.983   6.923 -0.5370  0.7789 -0.3850
18589TIP3   OH256648   0.464   8.000   5.492 -0.0398  0.3469  0.4837
18589TIP3    H156649   0.472   8.016   5.398  2.0846 -1.1527  0.3332
18589TIP3    H256650   0.370   8.004   5.510 -0.4880  0.5794 -1.7047
18590TIP3   OH256651   4.081   1.490   5.492 -0.0860 -0.3276 -0.3862
18590TIP3    H156652   4.076   1.474   5.398  0.9673 -1.0197 -0.3464
18590TIP3    H256653   4.020   1.426   5.531 -1.9492  1.1907 -0.6675
18591TIP3   OH256654  10.205   2.291   2.729  0.0566 -0.0406 -0.0657
18591TIP3    H156655  10.267   2.350   2.686  0.1463 -0.5478 -0.6614
18591TIP3    H256656  10.211   2.210   2.678 -1.9183  0.2423 -0.8550
18592TIP3   OH256657   0.419   0.920  10.875 -0.2369 -0.0766 -0.3144
18592TIP3    H156658   0.328   0.941  10.895 -0.4757 -0.1028 -1.3281
18592TIP3    H256659   0.424   0.923  10.780  0.8334 -0.0526 -0.2703
18593TIP3   OH256660   1.122   1.962   7.228  0.0961 -0.2491 -0.2147
18593TIP3    H156661   1.179   1.888   7.251  0.5822  0.8513  2.4937
18593TIP3    H256662   1.042   1.946   7.276  0.2640  1.0363  0.5268
18594TIP3   OH256663   6.640   4.358   3.707 -0.5527  0.3182  0.2168
18594TIP3    H156664   6.549   4.385   3.721 -0.8667 -1.1657  1.2578
18594TIP3    H256665   6.643   4.267   3.737  0.5485 -0.7342 -2.6643
18595TIP3   OH256666   4.855   8.716   0.685 -0.9673  0.4324 -0.8639
18595TIP3    H156667   4.892   8.645   0.632 -0.7848  0.3705 -0.6546
18595TIP3    H256668   4.930   8.756   0.728 -1.3327 -1.3586  1.6480
18596TIP3   OH256669   4.837  10.079   5.600 -0.7092  0.9674 -0.2723
18596TIP3    H156670   4.759  10.100   5.652  0.3379  1.9740  0.9576
18596TIP3    H256671   4.866   9.994   5.634  0.9903  2.3911  2.2183
18597TIP3   OH256672   9.193   5.612   7.501  0.0280 -0.2899 -0.4340
18597TIP3    H156673   9.222   5.703   7.489  0.0638 -0.4658 -1.8500
18597TIP3    H256674   9.110   5.608   7.453 -0.6921 -0.6650  0.7894
18598TIP3   OH256675   9.098   8.105   0.116 -0.8261 -0.5678  0.3133
18598TIP3    H156676   9.060   8.030   0.161  1.8207 -1.7991  0.7004
18598TIP3    H256677   9.175   8.127   0.169 -0.8215  1.6204 -0.5164
18599TIP3   OH256678   2.893   6.800   3.977  0.2396  0.2731  0.0309
18599TIP3    H156679   2.898   6.884   4.023 -1.2633  0.1557  0.4585
18599TIP3    H256680   2.967   6.802   3.916  0.2300  1.9188  0.0276
18600TIP3   OH256681   9.221   9.299   5.369 -0.0344 -0.0607 -0.3459
18600TIP3    H156682   9.145   9.339   5.325  0.8983  1.5127 -0.6165
18600TIP3    H256683   9.190   9.213   5.397 -2.2925  0.9407  0.5330
18601TIP3   OH256684   8.510   0.382  10.901  0.5152  0.6459 -0.0704
18601TIP3    H156685   8.595   0.342  10.919  0.4229 -0.1707 -1.3089
18601TIP3    H256686   8.513   0.403  10.807 -0.5866  0.7408 -0.0951
18602TIP3   OH256687   5.782   0.498   1.614  0.2639  0.1275 -0.9966
18602TIP3    H156688   5.770   0.581   1.567  1.2766 -0.2842 -2.0224
18602TIP3    H256689   5.720   0.438   1.572 -0.2883  0.2936 -0.4244
18603TIP3   OH256690   5.755   2.470   4.787  0.4059 -0.0760 -0.0792
18603TIP3    H156691   5.671   2.470   4.833  0.2078 -0.6350 -0.4294
18603TIP3    H256692   5.746   2.541   4.723  0.4633  0.3145  0.3401
18604TIP3   OH256693   9.726   6.850  10.002  0.4293  0.0600 -0.3704
18604TIP3    H156694   9.690   6.823  10.087 -2.8842 -0.6020 -1.8491
18604TIP3    H256695   9.791   6.916  10.024 -0.8650  0.4825  2.6564
18605TIP3   OH256696   1.517   8.043   5.336 -0.3588 -0.6239 -0.4490
18605TIP3    H156697   1.557   7.971   5.288 -0.0706 -0.0788 -1.0406
18605TIP3    H256698   1.582   8.113   5.333 -0.2531 -0.6285  0.8935
18606TIP3   OH256699   5.087   7.375   7.124 -0.5715 -0.1419  0.2372
18606TIP3    H156700   5.162   7.429   7.148  0.9394 -2.1685  0.3349
18606TIP3    H256701   5.015   7.407   7.178  0.2366  1.7816  0.2311
18607TIP3   OH256702   8.702   4.279   2.717 -0.7371 -0.2004 -0.0908
18607TIP3    H156703   8.649   4.322   2.649 -0.5690  1.1837  0.6158
18607TIP3    H256704   8.651   4.290   2.797 -1.6779 -3.1570 -0.1593
18608TIP3   OH256705   1.834   9.022   8.483  0.0729 -0.0558  0.1493
18608TIP3    H156706   1.750   8.992   8.448 -0.1599  1.2648 -0.4838
18608TIP3    H256707   1.900   8.970   8.438 -0.3791 -0.7722  0.3041
18609TIP3   OH256708   1.605   6.573   0.261 -0.0883  0.2265  0.4479
18609TIP3    H156709   1.546   6.564   0.185 -0.5686  0.8424  0.7421
18609TIP3    H256710   1.556   6.628   0.322  0.9410  1.0400  0.5535
18610TIP3   OH256711   6.489   9.494   0.905  0.6431  0.7539 -0.7890
18610TIP3    H156712   6.532   9.556   0.964 -0.3425  1.1357 -0.4486
18610TIP3    H256713   6.486   9.412   0.954  1.3751  0.5981 -0.9913
18611TIP3   OH256714   2.859   6.739   8.962  0.3836 -0.0761 -0.0419
18611TIP3    H156715   2.770   6.772   8.952  0.4814 -0.3369 -2.1707
18611TIP3    H256716   2.915   6.809   8.929  0.8330 -0.7189 -0.6760
18612TIP3   OH256717   6.708   3.331   7.906  0.0902  0.3691 -0.0697
18612TIP3    H156718   6.713   3.406   7.965  1.5357  0.1490  0.1061
18612TIP3    H256719   6.673   3.260   7.959  0.6536  0.3778  0.3117
18613TIP3   OH256720   9.895   3.343   5.758 -0.4022 -0.4707 -0.1525
18613TIP3    H156721   9.945   3.299   5.826 -0.2122 -1.1004 -0.6918
18613TIP3    H256722   9.949   3.335   5.679  0.3065  1.9660  0.0150
18614TIP3   OH256723   1.720   9.278   4.778  0.2329  0.2417 -0.2479
18614TIP3    H156724   1.682   9.365   4.771 -0.9695 -0.2677 -0.2656
18614TIP3    H256725   1.797   9.281   4.721  0.0593  1.2050 -0.4521
18615TIP3   OH256726   4.043   6.710   9.408 -0.2394  0.1087 -0.8383
18615TIP3    H156727   4.049   6.780   9.343 -0.9357 -0.7050 -1.8135
18615TIP3    H256728   3.979   6.649   9.371 -2.2653  0.6390  1.5800
18616TIP3   OH256729   5.461   6.809   2.779 -0.1699 -0.2207 -0.3334
18616TIP3    H156730   5.375   6.804   2.820  0.4743 -0.2192  1.1071
18616TIP3    H256731   5.523   6.800   2.852  1.0543 -0.7573 -1.3852
18617TIP3   OH256732   2.071   4.606  10.233 -0.2232  0.3206  0.6822
18617TIP3    H156733   2.076   4.674  10.300 -3.5899  0.2067  1.2188
18617TIP3    H256734   2.052   4.653  10.152 -1.3480  0.1536  0.8309
18618TIP3   OH256735   5.073  10.380   1.481  0.4652 -0.0510  0.2965
18618TIP3    H156736   5.023  10.307   1.517  0.8534 -0.5526 -0.1685
18618TIP3    H256737   5.006  10.443   1.454  0.1556  0.1480  1.4727
18619TIP3   OH256738   6.762   8.289   7.627  0.7631  0.8117 -0.3289
18619TIP3    H156739   6.826   8.292   7.557 -1.0124  2.0029 -2.0290
18619TIP3    H256740   6.697   8.355   7.602 -1.4883 -0.8103  0.8907
18620TIP3   OH256741   3.315  10.167   8.895 -0.5523  0.4994  0.0149
18620TIP3    H156742   3.244  10.201   8.948  0.1859  2.6035 -0.2382
18620TIP3    H256743   3.394  10.207   8.932  0.2803 -0.2115 -0.9276
18621TIP3   OH256744   9.491   4.397  10.903  0.4640  0.4140  0.1921
18621TIP3    H156745   9.503   4.305  10.882 -0.6242  0.8125 -2.5606
18621TIP3    H256746   9.558   4.442  10.851  1.0604  1.2074  1.5907
18622TIP3   OH256747   2.814   8.681   5.555  0.0180 -0.0843 -0.3612
18622TIP3    H156748   2.821   8.586   5.560  1.4857 -0.1372 -2.3618
18622TIP3    H256749   2.865   8.713   5.630 -2.2235 -0.8233  1.5780
18623TIP3   OH256750   8.545   8.393   3.622 -0.5734  0.7775  0.2816
18623TIP3    H156751   8.458   8.361   3.597 -1.9251  2.1952  2.7829
18623TIP3    H256752   8.575   8.444   3.547 -1.5247 -0.3478 -0.9130
18624TIP3   OH256753   6.917  10.223   6.370 -0.3972  0.8802 -0.1431
18624TIP3    H156754   6.956  10.235   6.457  0.7260  1.2737 -0.6748
18624TIP3    H256755   6.832  10.265   6.375 -0.2595  1.0680  0.7146
18625TIP3   OH256756   4.144   0.328  10.780 -0.2412  0.1341  0.0642
18625TIP3    H156757   4.215   0.278  10.740 -0.4441  0.2848 -0.4938
18625TIP3    H256758   4.187   0.380  10.848  0.0351 -0.4625  0.3517
18626TIP3   OH256759   0.180   7.582   0.145 -0.4418 -0.4538  0.3745
18626TIP3    H156760   0.156   7.546   0.231 -1.7628 -1.6698 -0.4557
18626TIP3    H256761   0.168   7.676   0.155 -4.3525 -0.7931  0.5243
18627TIP3   OH256762   1.881   1.746   0.611  0.2042 -0.3754  0.2920
18627TIP3    H156763   1.894   1.713   0.522  1.0612  0.4211  0.0947
18627TIP3    H256764   1.787   1.761   0.619  0.0791 -0.8064 -0.3494
18628TIP3   OH256765   5.269   6.543   2.093  0.5933  0.5110 -0.0639
18628TIP3    H156766   5.274   6.609   2.024  1.2120 -0.9441 -1.4586
18628TIP3    H256767   5.178   6.515   2.093  0.7776 -0.1450 -0.9714
18629TIP3   OH256768  10.639   7.798   5.244 -0.3238 -0.4381  0.5733
18629TIP3    H156769  10.636   7.717   5.194 -1.6889  0.0367 -0.1706
18629TIP3    H256770  10.727   7.832   5.230 -0.1031 -1.2291 -0.0258
18630TIP3   OH256771   1.987   1.661   4.268  0.2770 -0.1071 -0.3271
18630TIP3    H156772   2.078   1.658   4.238  0.4598  1.7240 -0.0402
18630TIP3    H256773   1.993   1.673   4.363 -0.2676  0.4031 -0.3543
18631TIP3   OH256774  10.585  10.274  10.082 -0.5040 -0.3481  0.2853
18631TIP3    H156775  10.502  10.244  10.120  0.0958  0.0806  2.0569
18631TIP3    H256776  10.589  10.367  10.103 -1.3965  0.6453 -3.3526
18632TIP3   OH256777   7.437   5.625   9.591  0.2408 -0.4773  0.1199
18632TIP3    H156778   7.503   5.628   9.660 -0.9341 -0.1389  1.2759
18632TIP3    H256779   7.408   5.716   9.582  1.2012 -0.3121 -1.6727
18633TIP3   OH256780   5.961   1.663   1.674  0.0980 -0.6972  0.1208
18633TIP3    H156781   5.931   1.678   1.584  0.1332 -1.6806 -0.0642
18633TIP3    H256782   5.890   1.614   1.716  0.0755 -0.2310  0.6426
18634TIP3   OH256783   0.973   3.083  10.400  0.6501 -0.5748  0.3393
18634TIP3    H156784   0.908   3.151  10.417  2.3769  1.2722 -0.0440
18634TIP3    H256785   0.933   3.028  10.333 -0.5759  0.3840  0.2351
18635TIP3   OH256786  10.753   9.088   4.216 -0.3173  0.1188  0.3636
18635TIP3    H156787  10.775   9.080   4.309  2.0901  1.1906 -0.0370
18635TIP3    H256788  10.703   9.169   4.210 -2.3153 -1.0014  0.9414
18636TIP3   OH256789   4.928   5.553   2.338  0.1995 -0.5478 -0.1507
18636TIP3    H156790   4.848   5.570   2.289 -0.0569  1.4582  0.8616
18636TIP3    H256791   4.998   5.591   2.285  0.2519 -0.7033 -0.1930
18637TIP3   OH256792   5.877  10.362   6.866  0.5294  0.2596  0.3591
18637TIP3    H156793   5.851  10.360   6.958  1.1743  0.8464  0.5598
18637TIP3    H256794   5.795  10.352   6.818  0.2570 -0.6661  0.9938
18638TIP3   OH256795   9.292   9.272   5.095  0.0519  0.2602  0.2961
18638TIP3    H156796   9.289   9.261   5.190  0.8610  0.4967  0.3567
18638TIP3    H256797   9.385   9.289   5.076  0.0107 -0.4657 -0.6095
18639TIP3   OH256798   2.939   1.135   4.317  0.3683 -0.7910  0.3856
18639TIP3    H156799   2.910   1.199   4.252  0.9169  0.4320  1.3057
18639TIP3    H256800   2.869   1.070   4.320  0.2810 -0.8375 -1.3373
18640TIP3   OH256801   4.003   2.966   0.515 -0.5246 -0.3368 -0.0666
18640TIP3    H156802   3.948   2.941   0.589 -0.2450 -2.2725 -0.4704
18640TIP3    H256803   4.092   2.948   0.545 -0.2238  1.0106 -0.0895
18641TIP3   OH256804   1.430   1.603   0.761  0.0209 -0.0478  0.7035
18641TIP3    H156805   1.427   1.652   0.679  0.9231 -0.1258  0.6121
18641TIP3    H256806   1.431   1.670   0.830 -0.1327  0.0292  0.6308
18642TIP3   OH256807   5.100   4.757   0.386  0.0041  0.7924  0.1298
18642TIP3    H156808   5.024   4.763   0.328  1.7031 -1.2657 -2.5212
18642TIP3    H256809   5.102   4.667   0.416  0.3067  1.3285  1.8658
18643TIP3   OH256810   7.373   3.768   1.663  0.3371 -0.5831 -0.3278
18643TIP3    H156811   7.456   3.801   1.698 -0.2960  2.1267 -1.1680
18643TIP3    H256812   7.395   3.741   1.573  0.5534 -0.9858 -0.1539
18644TIP3   OH256813   4.771  10.222   1.664 -0.2571 -0.0165 -0.1622
18644TIP3    H156814   4.675  10.227   1.668 -0.1534  2.0553  1.3278
18644TIP3    H256815   4.798  10.220   1.756  1.1336 -1.4016 -0.5589
18645TIP3   OH256816   2.503   7.844   6.996 -0.0779  0.0763 -0.4136
18645TIP3    H156817   2.488   7.917   6.935 -1.8419 -0.3291 -0.5256
18645TIP3    H256818   2.482   7.881   7.082  2.4329  0.6558  0.0247
18646TIP3   OH256819   6.922   7.242   9.537 -0.3089  0.0472  0.5326
18646TIP3    H156820   6.997   7.209   9.587 -1.3636 -0.4633  1.8216
18646TIP3    H256821   6.919   7.186   9.459  1.5432  1.0610 -0.3262
18647TIP3   OH256822  10.518   4.889   6.485 -0.4135  0.0466 -0.1652
18647TIP3    H156823  10.554   4.975   6.508  1.3693 -0.7194  0.0745
18647TIP3    H256824  10.520   4.887   6.390 -1.3718  0.6216 -0.2093
18648TIP3   OH256825   2.194   7.831   9.715 -0.7363 -0.0151  0.1348
18648TIP3    H156826   2.250   7.760   9.747  0.5403  1.6633  1.8643
18648TIP3    H256827   2.210   7.834   9.621  0.6295 -0.8048  0.3201
18649TIP3   OH256828   5.915  10.325   4.489 -0.2477 -0.3884 -0.3418
18649TIP3    H156829   5.961  10.304   4.570  0.6367  0.2458 -0.6666
18649TIP3    H256830   5.894  10.239   4.451 -0.1298 -0.6846  0.2529
18650TIP3   OH256831   1.551   4.474  10.479 -0.6549  0.3199  0.2986
18650TIP3    H156832   1.556   4.528  10.558 -1.6115  1.0872 -0.1430
18650TIP3    H256833   1.474   4.506  10.432  0.3652  0.4715 -1.3837
18651TIP3   OH256834   6.329   6.918   7.803  0.1155 -0.3828  0.9821
18651TIP3    H156835   6.338   7.011   7.824  0.5098  0.6813 -2.9573
18651TIP3    H256836   6.238   6.897   7.827 -0.0687  1.0963  1.7023
18652TIP3   OH256837   9.371   6.540  10.761 -0.0876 -0.0735  0.2456
18652TIP3    H156838   9.290   6.569  10.802 -0.1889 -1.2932  0.9526
18652TIP3    H256839   9.438   6.598  10.798 -0.5629  0.6412  0.0071
18653TIP3   OH256840   2.496  10.149   2.439  0.2668  0.1790 -0.0710
18653TIP3    H156841   2.413  10.184   2.473 -0.3622 -0.3794 -0.9676
18653TIP3    H256842   2.488  10.157   2.344 -0.0402 -2.5491 -0.3724
18654TIP3   OH256843   5.858   4.683   8.119 -0.5053  0.5873 -0.5772
18654TIP3    H156844   5.781   4.713   8.166 -0.8670 -0.3770 -0.5379
18654TIP3    H256845   5.838   4.700   8.027 -1.4003 -0.9744 -0.7064
18655TIP3   OH256846   0.351   4.085   8.425 -0.2330  0.2872 -0.5183
18655TIP3    H156847   0.284   4.048   8.367  0.4585  1.2813 -1.9903
18655TIP3    H256848   0.346   4.030   8.504  0.6975 -2.9707 -2.5234
18656TIP3   OH256849   0.296   7.127   2.204  0.7755  0.0728  0.3017
18656TIP3    H156850   0.247   7.140   2.122 -0.8086  1.2930  1.3673
18656TIP3    H256851   0.234   7.082   2.261  1.6500 -0.2081  1.0494
18657TIP3   OH256852   7.130   0.533   8.128  0.5594  0.2255 -0.0075
18657TIP3    H156853   7.137   0.440   8.108 -0.2462  0.1788 -0.1224
18657TIP3    H256854   7.170   0.543   8.215  0.5804 -0.2413  0.0357
18658TIP3   OH256855   9.630   0.054   9.400  0.4703  0.2746 -0.8710
18658TIP3    H156856   9.652  -0.023   9.453 -0.6330  0.3816 -0.2146
18658TIP3    H256857   9.710   0.106   9.399  0.1854  0.9346  1.8857
18659TIP3   OH256858   9.393   2.112   9.164  0.3364 -0.0420  0.5019
18659TIP3    H156859   9.387   2.042   9.099 -0.1737  1.7694 -1.5446
18659TIP3    H256860   9.481   2.104   9.201  0.5105 -1.3407 -0.1493
18660TIP3   OH256861   3.947   9.615   9.338 -0.0459  0.5893 -0.2201
18660TIP3    H156862   3.896   9.545   9.380  0.0456  0.9278  0.4773
18660TIP3    H256863   4.020   9.568   9.296 -0.3201  0.2084 -0.2777
18661TIP3   OH256864   5.068   2.016   7.520  0.3253  0.4386  0.1798
18661TIP3    H156865   5.014   1.947   7.556 -2.1392  1.8068 -0.6722
18661TIP3    H256866   5.107   1.979   7.441 -1.5857  0.1973 -0.6952
18662TIP3   OH256867   1.503   0.643  10.883  0.4118 -0.2144 -0.8459
18662TIP3    H156868   1.468   0.705  10.819 -0.6446 -1.4108 -1.4888
18662TIP3    H256869   1.478   0.557  10.848  1.9642 -1.0259 -0.0830
18663TIP3   OH256870   6.152   0.603   3.484 -0.1781  0.1285 -0.2831
18663TIP3    H156871   6.194   0.672   3.432  0.6642  0.7211  1.1288
18663TIP3    H256872   6.187   0.521   3.449  0.2858  0.5098 -0.7228
18664TIP3   OH256873   6.822   2.072   7.412 -0.7045 -0.0149  0.4167
18664TIP3    H156874   6.876   1.994   7.400 -0.5206 -0.2234  2.3420
18664TIP3    H256875   6.743   2.039   7.455 -1.1377  0.6961  0.1731
18665TIP3   OH256876   3.323   3.064   9.779  0.2769 -0.1113 -0.1862
18665TIP3    H156877   3.264   3.131   9.812  1.8615  0.0090  2.7128
18665TIP3    H256878   3.303   2.986   9.831  1.7308 -0.4449 -0.0754
18666TIP3   OH256879   7.994   6.240   9.861  0.4726  0.3236 -0.5636
18666TIP3    H156880   7.915   6.203   9.822  0.2962 -0.1670  0.2500
18666TIP3    H256881   8.060   6.232   9.792  0.6286 -2.1765 -0.1985
18667TIP3   OH256882   9.099   4.854   8.123  0.4099  0.1589  0.7993
18667TIP3    H156883   9.183   4.844   8.167  1.1709  1.5630 -0.2717
18667TIP3    H256884   9.044   4.900   8.187  0.5740 -0.4016  1.3530
18668TIP3   OH256885   1.434   5.471   0.452 -0.2094  0.4323 -0.1652
18668TIP3    H156886   1.502   5.498   0.391  0.3234 -0.0448  0.1993
18668TIP3    H256887   1.399   5.390   0.414 -1.6262  1.4440 -1.1257
18669TIP3   OH256888   1.943   1.211   8.850 -0.5670 -0.1312 -0.4575
18669TIP3    H156889   1.962   1.300   8.821 -4.1612  0.0243 -2.8323
18669TIP3    H256890   1.884   1.222   8.925 -0.3328 -0.5649 -0.2019
18670TIP3   OH256891   7.677   5.668   1.951 -0.2990  0.0456 -0.6831
18670TIP3    H156892   7.610   5.605   1.922  0.3010 -0.1134 -1.7704
18670TIP3    H256893   7.710   5.630   2.032 -1.0265 -0.2437 -0.5082
18671TIP3   OH256894   7.777   6.455   4.390  0.0749  0.0117  0.2583
18671TIP3    H156895   7.869   6.433   4.403  0.6936  1.0106 -1.8795
18671TIP3    H256896   7.729   6.387   4.435  1.8052  0.7654  3.5569
18672TIP3   OH256897   0.824   6.752  10.064  0.7949  0.3253 -0.1830
18672TIP3    H156898   0.783   6.826  10.020  2.0765 -0.0090 -2.0385
18672TIP3    H256899   0.880   6.792  10.131  1.3741  1.0270 -1.0724
18673TIP3   OH256900   6.999   3.583   9.641 -0.0098  0.1175 -0.1704
18673TIP3    H156901   6.999   3.643   9.715  0.1822  0.7610 -0.6881
18673TIP3    H256902   7.032   3.634   9.567  0.0747 -0.5940 -0.6426
18674TIP3   OH256903   3.959   8.105  10.782 -0.1493 -0.0414  0.1087
18674TIP3    H156904   4.036   8.049  10.789 -0.1283  0.0103  0.2834
18674TIP3    H256905   3.991   8.193  10.801 -0.5203 -0.2123  1.6652
18675TIP3   OH256906  10.451   6.755   8.019  0.1959  0.2214  0.2911
18675TIP3    H156907  10.436   6.783   8.109  2.0777 -1.2878  1.1364
18675TIP3    H256908  10.546   6.747   8.011  0.1142  0.5848 -1.9418
18676TIP3   OH256909   3.740   2.863   6.427 -0.0378  0.5883 -0.2925
18676TIP3    H156910   3.740   2.922   6.502  1.1976  0.6532 -0.3295
18676TIP3    H256911   3.761   2.777   6.464  1.0102  0.6996 -0.6177
18677TIP3   OH256912   1.627   0.239  10.264  0.7872  0.1302  0.0952
18677TIP3    H156913   1.688   0.178  10.305  1.0417  1.5543  1.9600
18677TIP3    H256914   1.681   0.297  10.212  0.7268 -0.1491 -0.2866
18678TIP3   OH256915   0.589   0.303  10.305 -0.2173  0.5666  0.1487
18678TIP3    H156916   0.581   0.379  10.248  1.2820 -0.0140 -0.9174
18678TIP3    H256917   0.659   0.251  10.265 -1.3224 -1.4675  0.7335
18679TIP3   OH256918   9.410   1.904   5.576 -0.0111  0.0519  0.0217
18679TIP3    H156919   9.347   1.976   5.581 -0.3555 -0.1637 -0.9726
18679TIP3    H256920   9.356   1.825   5.580  0.0036 -0.1457 -2.3140
18680TIP3   OH256921   9.854   4.120   8.013  0.2746 -0.1041 -0.1451
18680TIP3    H156922   9.840   4.026   8.017 -2.2165  0.2356  1.9365
18680TIP3    H256923   9.798   4.156   8.081 -0.7038  3.0898 -2.3689
18681TIP3   OH256924   2.276  10.302   3.289  0.5362 -0.1662  0.5956
18681TIP3    H156925   2.208  10.358   3.327 -0.5128 -0.1261 -1.2489
18681TIP3    H256926   2.317  10.357   3.222  0.3763 -1.1581 -0.3369
18682TIP3   OH256927   8.373   3.481   1.278  0.3058 -0.1003 -1.0108
18682TIP3    H156928   8.438   3.417   1.248 -0.4099 -1.6591  0.5774
18682TIP3    H256929   8.288   3.441   1.258 -0.1671  0.8166 -0.9122
18683TIP3   OH256930   5.863   9.904   9.384 -0.3774 -0.0308 -0.3339
18683TIP3    H156931   5.860   9.959   9.462 -0.8308  1.7490 -1.5546
18683TIP3    H256932   5.773   9.874   9.372 -0.2764 -0.4382 -0.0915
18684TIP3   OH256933   4.356   3.062   6.173  0.2498 -0.1585  0.0691
18684TIP3    H156934   4.382   3.100   6.257  1.4398  1.2598 -0.9027
18684TIP3    H256935   4.390   2.973   6.175  1.6256  0.3507  0.5045
18685TIP3   OH256936   3.348   6.808   9.822  0.0462 -0.2077 -0.4023
18685TIP3    H156937   3.297   6.747   9.768 -0.5496 -1.0403  1.0236
18685TIP3    H256938   3.353   6.764   9.908 -0.0505  1.5704  0.5535
18686TIP3   OH256939   7.231   5.442   7.222 -0.6677 -0.6479 -0.1859
18686TIP3    H156940   7.208   5.513   7.162  1.2464 -0.0602 -0.3143
18686TIP3    H256941   7.206   5.362   7.175 -1.0949 -0.1175 -0.8759
18687TIP3   OH256942   1.091   0.050  10.817  0.0871  0.1003  0.1721
18687TIP3    H156943   1.159   0.039  10.750  0.4100 -0.6309  0.6064
18687TIP3    H256944   1.134   0.098  10.887 -0.7271  2.4094 -0.8242
18688TIP3   OH256945   7.645  10.869   1.569 -0.7257 -0.4878 -0.2319
18688TIP3    H156946   7.595  10.832   1.641  0.2775  0.2301  0.8570
18688TIP3    H256947   7.605  10.830   1.491 -1.9526 -1.1332  0.6717
18689TIP3   OH256948   7.663   5.017   2.265 -0.1833  0.2484  0.0793
18689TIP3    H156949   7.671   4.994   2.357  1.7777  0.5884  0.0369
18689TIP3    H256950   7.643   5.111   2.265  0.8981  0.4925  0.1731
18690TIP3   OH256951   3.137   4.675   3.805  0.0220 -0.0291  0.3601
18690TIP3    H156952   3.225   4.702   3.777  0.0712  0.4503  0.9591
18690TIP3    H256953   3.129   4.708   3.894 -1.1201  0.7697 -0.0057
18691TIP3   OH256954   1.851   4.901   2.214  0.1095  0.2854  0.2001
18691TIP3    H156955   1.927   4.900   2.273  0.3964  1.3834 -0.1353
18691TIP3    H256956   1.782   4.859   2.265  1.0572 -1.1859  0.3252
18692TIP3   OH256957   6.119  10.609  10.207 -0.1081 -0.0412 -0.6821
18692TIP3    H156958   6.025  10.622  10.192 -0.4852  0.4215  1.7219
18692TIP3    H256959   6.140  10.668  10.279  1.7559 -1.0980 -0.3085
18693TIP3   OH256960   8.620   3.819   5.581 -0.0161 -0.2811 -0.0940
18693TIP3    H156961   8.565   3.762   5.634 -0.0820 -0.5432 -0.4433
18693TIP3    H256962   8.582   3.816   5.493 -1.8656  2.6272  0.4711
18694TIP3   OH256963   8.732   9.121   6.110 -0.3130  0.3075  0.4192
18694TIP3    H156964   8.646   9.082   6.090 -0.8441  1.3400  0.6055
18694TIP3    H256965   8.731   9.205   6.065  1.3633 -0.4361 -1.1175
18695TIP3   OH256966   5.286   8.896   3.902  0.1839  0.2118 -0.1690
18695TIP3    H156967   5.233   8.856   3.833 -2.0129  2.1259  0.2728
18695TIP3    H256968   5.271   8.843   3.979 -1.6994  1.0541  0.1038
18696TIP3   OH256969   3.938   7.371   2.499 -0.1921  0.2819 -0.3461
18696TIP3    H156970   3.936   7.306   2.570  1.5539  0.0628 -0.4490
18696TIP3    H256971   4.030   7.378   2.476 -0.4606  2.0962 -1.0240
18697TIP3   OH256972   8.939   6.699  10.109 -0.9624 -0.0635  0.5404
18697TIP3    H156973   8.984   6.622  10.143 -0.7793 -0.0684  0.2904
18697TIP3    H256974   8.878   6.723  10.178 -1.2309 -0.6106  0.4968
18698TIP3   OH256975   5.316   7.045   2.422  0.4128 -0.0495  0.4691
18698TIP3    H156976   5.381   7.053   2.491  1.9843 -1.2336 -0.7758
18698TIP3    H256977   5.327   6.956   2.389 -0.5056  0.3605 -1.0702
18699TIP3   OH256978   0.693   8.563   5.950  0.3033  0.0394 -0.2218
18699TIP3    H156979   0.626   8.557   5.881 -0.0947 -0.5801  0.2106
18699TIP3    H256980   0.645   8.549   6.032  1.0369 -0.8869  0.0653
18700TIP3   OH256981   1.132   5.297   5.021 -0.0084 -0.3863 -0.3192
18700TIP3    H156982   1.038   5.284   5.027  0.1279 -2.1243 -1.3388
18700TIP3    H256983   1.152   5.286   4.928  1.0200  1.4719 -0.3560
18701TIP3   OH256984   4.275   4.664   1.015 -0.1376 -0.0846 -0.6178
18701TIP3    H156985   4.250   4.717   0.939 -0.2095  0.4024 -0.2607
18701TIP3    H256986   4.299   4.728   1.082 -0.9286 -0.4882  0.0671
18702TIP3   OH256987   5.555  10.124   8.677 -0.0925  0.0154 -0.0280
18702TIP3    H156988   5.616  10.197   8.671 -1.0705  1.1012  2.0159
18702TIP3    H256989   5.481  10.149   8.621  0.2725 -0.1645 -0.5924
18703TIP3   OH256990   3.337   5.849   7.016  0.8808  0.3342  0.4045
18703TIP3    H156991   3.295   5.929   6.983  0.8772 -0.0420 -0.5375
18703TIP3    H256992   3.264   5.791   7.037  0.8968 -0.2692 -1.1053
18704TIP3   OH256993   6.582   5.194   7.044  0.2433 -0.6614 -0.1398
18704TIP3    H156994   6.502   5.153   7.078  0.5219 -1.5085 -0.4706
18704TIP3    H256995   6.557   5.285   7.028 -1.0211 -1.1818 -1.3757
18705TIP3   OH256996   6.325   5.108   7.100  0.0066 -0.1596 -0.1248
18705TIP3    H156997   6.325   5.012   7.093 -2.2368 -0.1837 -0.4404
18705TIP3    H256998   6.248   5.135   7.050  0.6467  1.8277 -0.0911
18706TIP3   OH256999   9.028  10.864   3.366  0.3698 -0.6954 -0.0116
18706TIP3    H157000   8.988  10.870   3.278  0.3447 -0.2320  0.0344
18706TIP3    H257001   9.052  10.771   3.373 -0.2480 -0.8861 -0.2398
18707TIP3   OH257002   4.351   2.502   0.352 -0.6008 -0.2159 -0.1165
18707TIP3    H157003   4.287   2.550   0.299 -0.5693 -0.6665 -0.5661
18707TIP3    H257004   4.298   2.461   0.421 -0.8107 -0.6442 -0.5276
18708TIP3   OH257005   4.868   4.058   3.816  0.1543 -0.2338  0.0118
18708TIP3    H157006   4.777   4.058   3.787  0.0903 -0.5446  0.2149
18708TIP3    H257007   4.878   3.975   3.864  0.4395 -0.0231  0.3157
18709TIP3   OH257008   0.684   1.330   5.559 -0.3074  0.2721 -0.3506
18709TIP3    H157009   0.605   1.362   5.602 -0.5636  0.3929 -0.9148
18709TIP3    H257010   0.658   1.246   5.520 -0.5252  0.9181 -1.6484
18710TIP3   OH257011  10.628   1.971   4.235  0.2030 -0.4760 -0.0177
18710TIP3    H157012  10.691   2.007   4.172  2.0895  0.7635  2.4123
18710TIP3    H257013  10.546   2.017   4.216  0.4438 -0.8305 -2.1362
18711TIP3   OH257014   4.470   1.183   6.306 -0.1871  0.2434  0.0481
18711TIP3    H157015   4.552   1.203   6.260 -0.2348  2.2629  0.7234
18711TIP3    H257016   4.465   1.250   6.374 -2.5945  0.4043 -0.2125
18712TIP3   OH257017   5.120   8.283   2.261 -0.1345 -0.4883 -0.6166
18712TIP3    H157018   5.124   8.234   2.179  0.3796  0.8178 -1.3913
18712TIP3    H257019   5.198   8.255   2.309  1.4111  1.1393 -2.0093
18713TIP3   OH257020   5.712   0.433   0.292 -0.0184 -0.1127 -0.7974
18713TIP3    H157021   5.690   0.525   0.308  0.9668 -0.1126  0.8475
18713TIP3    H257022   5.720   0.395   0.380  1.6528 -1.2471 -1.3918
18714TIP3   OH257023   8.227   4.048   6.337 -0.2032  0.4707  0.0092
18714TIP3    H157024   8.228   4.040   6.432  0.2263  0.3344 -0.0070
18714TIP3    H257025   8.298   4.109   6.317  0.1126  0.0171 -0.2675
18715TIP3   OH257026   0.805   3.794   0.899  0.2697 -0.7597  0.4431
18715TIP3    H157027   0.714   3.795   0.868  1.1328 -1.6589 -2.5276
18715TIP3    H257028   0.807   3.729   0.969 -1.5979  0.2912  1.5416
18716TIP3   OH257029   0.112  10.579   8.617 -0.0438 -0.1811  0.0103
18716TIP3    H157030   0.080  10.498   8.576 -0.3562  0.7433 -1.6936
18716TIP3    H257031   0.085  10.648   8.556  0.5281  1.1760  1.2457
18717TIP3   OH257032  10.783   8.402   5.408  0.6101  0.4962  0.4010
18717TIP3    H157033  10.798   8.420   5.501 -1.7843  1.7061  0.6275
18717TIP3    H257034  10.819   8.478   5.363  1.7595 -0.0848  0.3106
18718TIP3   OH257035   0.381   9.400   9.303 -0.1718 -0.4897  0.4305
18718TIP3    H157036   0.356   9.388   9.211  1.6005 -0.9327 -0.0361
18718TIP3    H257037   0.366   9.314   9.343 -1.1190 -0.2477  0.6259
18719TIP3   OH257038   5.099   6.195   9.641  0.2755  0.8726 -0.4577
18719TIP3    H157039   5.014   6.175   9.602 -0.5340  0.1557  1.5443
18719TIP3    H257040   5.160   6.135   9.599 -0.6588 -0.2592 -0.2479
18720TIP3   OH257041   5.632   5.465   6.606  0.0362 -0.4587  0.2039
18720TIP3    H157042   5.714   5.469   6.556  0.2314  0.7703  0.5869
18720TIP3    H257043   5.573   5.523   6.559  0.0017  0.1681  1.0074
18721TIP3   OH257044   8.696   1.157   7.078  0.3802 -0.7582  0.2334
18721TIP3    H157045   8.784   1.179   7.048  0.9493 -2.3983  0.6142
18721TIP3    H257046   8.657   1.241   7.102  2.3376 -0.1239  1.3888
18722TIP3   OH257047  10.333   3.201   9.035  0.1624  0.2861  0.1291
18722TIP3    H157048  10.329   3.142   9.109 -0.8206  0.3813  0.1670
18722TIP3    H257049  10.395   3.160   8.974 -1.2349 -1.3100 -0.2897
18723TIP3   OH257050   8.030   0.044   8.304  0.0915 -0.0916  0.2417
18723TIP3    H157051   8.052   0.116   8.362  0.6126  0.3782 -0.5344
18723TIP3    H257052   8.032  -0.034   8.361 -3.6407  0.7599  1.8983
18724TIP3   OH257053  10.138   2.570  10.066 -0.0669 -0.0529  0.1909
18724TIP3    H157054  10.138   2.504   9.996 -0.3397 -0.3091  0.4331
18724TIP3    H257055  10.151   2.520  10.146  0.4174  0.2602  0.3101
18725TIP3   OH257056   3.718   3.898  10.575  0.5143 -0.6050 -0.5218
18725TIP3    H157057   3.797   3.920  10.624  0.0737 -0.7667  0.2755
18725TIP3    H257058   3.660   3.858  10.639  0.4195 -2.0361 -1.4669
18726TIP3   OH257059   7.225   7.491   0.553  0.1884  0.4506 -0.0113
18726TIP3    H157060   7.219   7.558   0.621  1.7795  0.3363  0.2639
18726TIP3    H257061   7.157   7.427   0.576  2.8180 -1.3939  3.5162
18727TIP3   OH257062   0.294   9.753   4.635  0.3562 -0.1554  0.2807
18727TIP3    H157063   0.250   9.725   4.716 -3.1209  1.4730 -0.8689
18727TIP3    H257064   0.258   9.840   4.617  0.4188 -0.7505 -3.3747
18728TIP3   OH257065   9.764   3.493   7.331 -0.0387  0.0902 -0.4971
18728TIP3    H157066   9.857   3.477   7.314 -0.3987 -2.2674 -0.5056
18728TIP3    H257067   9.725   3.499   7.244  0.0761  1.2324 -0.4965
18729TIP3   OH257068   8.599   8.903   4.491 -0.6581  0.1100 -0.4795
18729TIP3    H157069   8.509   8.932   4.506 -0.3404  0.9324 -0.1264
18729TIP3    H257070   8.611   8.909   4.396 -0.7935  0.5323 -0.4692
18730TIP3   OH257071   3.707   3.475   7.837  0.0886  0.3521 -0.2709
18730TIP3    H157072   3.624   3.453   7.796 -0.4791  1.1526  0.4135
18730TIP3    H257073   3.686   3.545   7.898  1.1468  0.0855  0.4303
18731TIP3   OH257074   9.071   8.924   2.514  0.3143 -0.2216 -0.4055
18731TIP3    H157075   9.120   8.962   2.587 -0.0928  1.7426 -1.0980
18731TIP3    H257076   9.094   8.979   2.439 -2.7959  0.7208 -0.8015
18732TIP3   OH257077   1.675   9.966  10.131  0.4711  0.0252 -0.2731
18732TIP3    H157078   1.709  10.020  10.202  0.9420  0.2116 -0.6311
18732TIP3    H257079   1.753   9.922  10.095  0.5370  1.3310 -1.8466
18733TIP3   OH257080   9.425   3.940   0.981 -0.6379 -0.3723 -0.1154
18733TIP3    H157081   9.406   3.850   0.954 -1.3794  0.3185 -2.0889
18733TIP3    H257082   9.341   3.985   0.970 -0.4917  0.4064  1.6686
18734TIP3   OH257083   1.753   5.744   5.096  0.3361 -0.2904  0.5989
18734TIP3    H157084   1.847   5.737   5.110  0.6710 -0.6057 -1.4367
18734TIP3    H257085   1.745   5.782   5.008 -1.4385 -0.1902  0.7660
18735TIP3   OH257086   4.762   4.213   0.666 -0.8965  0.1195 -0.3985
18735TIP3    H157087   4.679   4.165   0.667 -2.0626  2.0190  0.4521
18735TIP3    H257088   4.810   4.180   0.741 -0.4196 -1.6803 -1.4422
18736TIP3   OH257089   1.871   9.184   7.135 -0.2591 -0.1948  0.6637
18736TIP3    H157090   1.776   9.172   7.132 -0.7334  2.6807  1.3428
18736TIP3    H257091   1.898   9.149   7.219 -0.8835 -0.1718  0.8732
18737TIP3   OH257092   5.556   4.139   0.698 -0.0238  0.4349  0.1104
18737TIP3    H157093   5.574   4.233   0.707 -0.6688  0.4364  1.6840
18737TIP3    H257094   5.598   4.115   0.616 -0.8350  2.3446 -0.9444
18738TIP3   OH257095   1.093   0.059   2.639  0.0542 -0.2173 -0.1099
18738TIP3    H157096   1.106   0.053   2.733  3.1852 -0.4847 -0.4326
18738TIP3    H257097   1.095  -0.032   2.608  3.1597 -0.0604 -0.7203
18739TIP3   OH257098   3.720   4.246   5.042  0.0264 -0.3452 -0.0409
18739TIP3    H157099   3.646   4.277   4.991  1.1940  1.2540 -0.8130
18739TIP3    H257100   3.795   4.250   4.983  1.3634  1.2418  1.6152
18740TIP3   OH257101  10.240   6.160   6.177 -0.4103  0.6183 -0.1610
18740TIP3    H157102  10.278   6.186   6.261  0.2192  0.6366 -0.4429
18740TIP3    H257103  10.175   6.093   6.199 -0.2941  0.6711  0.3452
18741TIP3   OH257104   1.162   1.363   6.834 -0.3601 -0.2447 -0.6541
18741TIP3    H157105   1.175   1.418   6.911  0.2801  1.4499 -1.9067
18741TIP3    H257106   1.102   1.294   6.863  0.0468  0.1947  1.3936
18742TIP3   OH257107   9.521   5.521   9.258  0.5814  0.2072  0.1026
18742TIP3    H157108   9.427   5.503   9.266  0.2291  1.6099 -0.6239
18742TIP3    H257109   9.553   5.453   9.198 -0.1945  0.4007 -0.5412
18743TIP3   OH257110   9.315   2.242   5.016 -0.0264  0.1517 -0.4982
18743TIP3    H157111   9.369   2.305   5.064  1.3729 -0.7129 -0.8643
18743TIP3    H257112   9.270   2.192   5.084  0.9970 -0.2560 -0.0950
18744TIP3   OH257113   8.393   3.364   9.335  0.0704  0.2328  0.2895
18744TIP3    H157114   8.351   3.451   9.332  0.9722  0.8172  2.6660
18744TIP3    H257115   8.353   3.320   9.410  0.1832 -1.1284 -0.4195
18745TIP3   OH257116   8.825   8.323   9.340  0.3467 -0.0054  0.0297
18745TIP3    H157117   8.887   8.282   9.279 -1.3446 -1.1618 -0.9949
18745TIP3    H257118   8.848   8.289   9.426  1.8843  0.5468 -0.1374
18746TIP3   OH257119   4.822   4.448   2.563  0.5013 -0.0227 -0.0911
18746TIP3    H157120   4.823   4.353   2.554  0.3691  0.0112 -0.5302
18746TIP3    H257121   4.914   4.474   2.564  0.5383 -0.1749  0.2465
18747TIP3   OH257122   3.850   3.524   3.752 -0.9453  0.2456  0.2472
18747TIP3    H157123   3.876   3.573   3.674 -1.5253 -1.1402 -0.8402
18747TIP3    H257124   3.879   3.579   3.825  3.3162 -0.2167 -0.8228
18748TIP3   OH257125   7.367   3.797   5.680 -0.0839  0.0618  0.3513
18748TIP3    H157126   7.411   3.786   5.596 -1.8276  1.1388 -0.7557
18748TIP3    H257127   7.285   3.748   5.671 -0.2241  0.0506  1.4929
18749TIP3   OH257128   5.203   3.690   0.741  0.3352 -0.1590  0.0691
18749TIP3    H157129   5.158   3.693   0.657 -0.1626 -0.0838  0.3369
18749TIP3    H257130   5.296   3.696   0.718  0.2020 -0.0841 -0.4706
18750TIP3   OH257131   8.385   0.354   0.965 -0.9326 -0.4673  0.5033
18750TIP3    H157132   8.379   0.285   0.900 -1.8243 -0.0247  0.0990
18750TIP3    H257133   8.455   0.411   0.934 -1.5200 -0.1189 -0.2182
18751TIP3   OH257134   9.142   7.057   8.985 -0.0902  0.0724  0.3715
18751TIP3    H157135   9.173   7.048   9.075  3.0159 -0.3633 -0.6243
18751TIP3    H257136   9.126   6.967   8.956 -1.0633  0.2104  0.4688
18752TIP3   OH257137   0.156  10.653   9.868 -0.2130 -0.5688 -0.3673
18752TIP3    H157138   0.200  10.718   9.923  3.4305 -2.6811 -0.5001
18752TIP3    H257139   0.106  10.705   9.805 -1.2839  1.9531  2.3247
18753TIP3   OH257140   0.851   1.336   8.239 -0.0086 -0.1862  0.3928
18753TIP3    H157141   0.912   1.347   8.311 -0.0236  0.0056  0.3762
18753TIP3    H257142   0.786   1.273   8.272  0.4111 -0.6863  0.2712
18754TIP3   OH257143   8.939   8.548   5.668 -0.2117 -0.4971 -0.2694
18754TIP3    H157144   8.901   8.614   5.609 -1.5415 -2.5115 -1.8269
18754TIP3    H257145   9.008   8.595   5.715 -0.7328  1.8543 -1.6596
18755TIP3   OH257146   4.090   6.926  10.433  0.1586  0.3082 -0.0368
18755TIP3    H157147   4.178   6.941  10.400 -0.4978  1.6906 -1.2602
18755TIP3    H257148   4.041   7.006  10.412 -1.6887 -0.8501 -0.4246
18756TIP3   OH257149   6.947  10.484   8.787  0.2525  0.1887 -0.2858
18756TIP3    H157150   6.998  10.444   8.857 -0.6883 -2.2613 -0.9275
18756TIP3    H257151   7.008  10.487   8.712  0.3474  0.0776 -0.2126
18757TIP3   OH257152   7.123   2.814   1.566 -0.3460 -0.4052 -0.0712
18757TIP3    H157153   7.084   2.729   1.586 -0.8487 -0.1411  0.0973
18757TIP3    H257154   7.216   2.803   1.584 -0.3876 -0.9623 -0.1903
18758TIP3   OH257155   1.082   0.006  10.036  0.9497 -0.1133  0.0515
18758TIP3    H157156   1.104  -0.040   9.955  0.8241 -1.7172  0.8931
18758TIP3    H257157   0.988   0.024  10.030  1.0170  0.1280 -0.3159
18759TIP3   OH257158   5.490   0.031   6.790 -0.1712  0.3388  0.4933
18759TIP3    H157159   5.580   0.018   6.760  0.1046 -1.7075  2.0158
18759TIP3    H257160   5.439  -0.035   6.743 -0.7451  0.9274  0.2721
18760TIP3   OH257161   1.411   9.663   6.631  0.2569  0.0205 -0.4337
18760TIP3    H157162   1.389   9.672   6.723  2.9402 -0.1790  0.3108
18760TIP3    H257163   1.334   9.695   6.584 -1.2524 -0.0846  1.8382
18761TIP3   OH257164   9.334   8.759   2.459 -0.1886  0.3172 -0.3854
18761TIP3    H157165   9.411   8.734   2.511 -0.8408  0.4576  0.6823
18761TIP3    H257166   9.289   8.676   2.442 -0.2056  0.3221 -0.3628
18762TIP3   OH257167   0.469   8.584   2.345 -0.4524  0.2756 -0.4302
18762TIP3    H157168   0.425   8.627   2.272 -1.9836  0.1095  0.3378
18762TIP3    H257169   0.480   8.654   2.410  1.0672  0.4678 -0.8629
18763TIP3   OH257170   1.000   1.371   5.971  0.0559  0.2133  0.1483
18763TIP3    H157171   1.093   1.392   5.966  0.0459  0.1798 -0.2144
18763TIP3    H257172   0.988   1.299   5.909 -0.4213  1.0063 -0.7261
18764TIP3   OH257173   5.758   9.663   9.177 -0.0322 -0.4163 -0.3438
18764TIP3    H157174   5.713   9.599   9.122  0.8198 -1.9211  0.6555
18764TIP3    H257175   5.802   9.611   9.244  1.7871  1.1132 -0.2739
18765TIP3   OH257176   6.207   5.051   1.000 -0.4616 -0.1570  0.7939
18765TIP3    H157177   6.230   4.959   0.983 -1.4821 -0.1553 -0.9394
18765TIP3    H257178   6.111   5.052   0.996 -0.5251  0.7939  2.0533
18766TIP3   OH257179   1.073   3.345  10.224 -0.0186  0.0476 -0.0412
18766TIP3    H157180   1.123   3.267  10.199 -0.7632 -0.1401 -1.0084
18766TIP3    H257181   1.101   3.364  10.314  0.5666 -1.0165  0.0157
18767TIP3   OH257182   9.454   2.914   9.591  0.1546  0.0860 -0.0259
18767TIP3    H157183   9.449   2.996   9.542  0.5756  0.1381  0.0137
18767TIP3    H257184   9.540   2.916   9.632  0.7013 -0.9516 -1.0709
18768TIP3   OH257185   7.291   6.008   9.627 -0.0984 -0.0378  0.2811
18768TIP3    H157186   7.232   6.083   9.633 -0.1569 -0.0463 -0.1497
18768TIP3    H257187   7.242   5.936   9.669 -0.0812  0.1372  0.6073
18769TIP3   OH257188   0.161   2.295   5.571  0.5387  0.0954 -0.0128
18769TIP3    H157189   0.127   2.375   5.530  0.0054 -0.1319 -0.0240
18769TIP3    H257190   0.094   2.228   5.552  1.2010 -0.4659 -0.4099
18770TIP3   OH257191   6.568   3.276   0.319 -0.1683  0.6693 -0.4367
18770TIP3    H157192   6.538   3.187   0.301 -1.2890  0.7172  1.0064
18770TIP3    H257193   6.654   3.264   0.360  0.1422  0.3132 -1.1865
18771TIP3   OH257194   4.094   4.504   2.022  0.7267  0.4640  0.6840
18771TIP3    H157195   4.038   4.559   2.077 -0.6923  2.0076 -2.1014
18771TIP3    H257196   4.163   4.562   1.990  0.8459 -0.0707 -0.0762
18772TIP3   OH257197   5.482   9.078   8.265  0.0736  0.1775 -0.5850
18772TIP3    H157198   5.519   8.992   8.286  1.8211  0.8477 -0.7216
18772TIP3    H257199   5.392   9.075   8.298  0.1916 -1.5971 -0.3543
18773TIP3   OH257200   3.064   5.283   6.031  0.4292  0.3015  0.7415
18773TIP3    H157201   3.117   5.303   5.955 -0.2026 -0.6573  0.0168
18773TIP3    H257202   3.122   5.233   6.089  0.0464 -1.8156 -0.5844
18774TIP3   OH257203   2.594   7.431   8.196 -0.9246 -0.3020  0.1325
18774TIP3    H157204   2.520   7.391   8.241 -0.5106 -0.8808  0.3090
18774TIP3    H257205   2.671   7.397   8.241 -0.5675  1.3022  0.8033
18775TIP3   OH257206   9.581   7.498  10.042  0.5605  0.1167  0.0782
18775TIP3    H157207   9.506   7.531  10.093  0.2373  0.3885 -0.5595
18775TIP3    H257208   9.650   7.562  10.057  0.7360 -0.2323  0.8212
18776TIP3   OH257209   4.906   4.552   1.164 -0.0450 -0.1578  0.5878
18776TIP3    H157210   4.903   4.502   1.083 -0.7683 -0.1181  0.5895
18776TIP3    H257211   4.987   4.603   1.157  0.6567 -1.2556  0.5563
18777TIP3   OH257212  10.794   6.332   2.416 -0.1467  0.0410 -0.9159
18777TIP3    H157213  10.872   6.387   2.409  0.0146  0.0118  0.4445
18777TIP3    H257214  10.733   6.383   2.471 -0.5928 -0.4736 -0.9223
18778TIP3   OH257215   0.921   3.774   7.337 -0.0506  0.3988  0.8472
18778TIP3    H157216   0.987   3.786   7.270  0.6883 -1.3739  1.2248
18778TIP3    H257217   0.843   3.817   7.302  0.4011 -0.2248 -0.9880
18779TIP3   OH257218   0.112   6.205   6.805 -0.3020  0.3104  0.4855
18779TIP3    H157219   0.040   6.195   6.867 -1.9846  0.8606 -1.2669
18779TIP3    H257220   0.161   6.123   6.811 -1.5347 -0.3944  1.1913
18780TIP3   OH257221   2.909   7.931   1.300 -0.4954 -0.0017  0.4788
18780TIP3    H157222   2.931   7.886   1.218  0.3953 -0.3092  0.8722
18780TIP3    H257223   2.981   7.991   1.315 -0.2981 -0.4557  1.3981
18781TIP3   OH257224   5.477   3.402   9.875 -0.0104 -0.3421 -0.0949
18781TIP3    H157225   5.549   3.365   9.926 -0.2869 -2.0348 -0.8409
18781TIP3    H257226   5.501   3.385   9.783 -1.2993 -0.8556 -0.3577
18782TIP3   OH257227   9.530   3.772   5.675  0.2211  0.3102 -0.4291
18782TIP3    H157228   9.544   3.689   5.720 -1.1880 -0.3022 -1.0376
18782TIP3    H257229   9.552   3.839   5.740 -0.7795 -0.5495  0.8432
18783TIP3   OH257230   4.723   2.461   5.886  0.1765  0.1714 -0.4184
18783TIP3    H157231   4.655   2.444   5.951  0.6336 -1.3180 -0.3007
18783TIP3    H257232   4.692   2.418   5.806  0.0603  1.1932 -0.9479
18784TIP3   OH257233   0.944   8.501   4.749 -0.1656  0.3783 -0.5367
18784TIP3    H157234   0.865   8.555   4.739 -0.9012 -0.5811 -0.1390
18784TIP3    H257235   0.913   8.412   4.730  0.4388 -0.2467  1.2741
18785TIP3   OH257236   3.466   9.628   0.693 -0.1726  0.4037  0.1822
18785TIP3    H157237   3.479   9.653   0.784 -0.1237  0.6905  0.0992
18785TIP3    H257238   3.431   9.539   0.696  2.8839 -0.8954  0.3890
18786TIP3   OH257239   1.736   0.311  10.624 -0.5767 -0.1706  0.5954
18786TIP3    H157240   1.718   0.219  10.602 -1.4499  0.2120 -0.3800
18786TIP3    H257241   1.784   0.344  10.548  1.1219 -0.2007  1.6043
18787TIP3   OH257242   1.549   8.362   7.609 -0.3173  0.2771 -0.3266
18787TIP3    H157243   1.487   8.318   7.667 -1.4882  2.9495  0.6035
18787TIP3    H257244   1.617   8.395   7.667 -0.7196  1.7080 -0.6331
18788TIP3   OH257245   5.233   3.391   2.468  0.0242 -1.0740  0.3733
18788TIP3    H157246   5.155   3.431   2.506 -1.2953 -2.5708 -0.6304
18788TIP3    H257247   5.219   3.297   2.476  1.4370 -1.3921 -0.4141
18789TIP3   OH257248   5.066   8.333   4.723  0.0020  0.2018  0.1950
18789TIP3    H157249   5.057   8.284   4.805  0.6393  0.0086  0.1485
18789TIP3    H257250   5.067   8.266   4.655 -2.4206  0.4246 -0.1567
18790TIP3   OH257251   8.625   1.534   4.826 -0.5478  0.1652  0.1910
18790TIP3    H157252   8.643   1.545   4.733  1.6179  0.3336  0.5810
18790TIP3    H257253   8.533   1.559   4.835  0.1526  4.1079 -1.2914
18791TIP3   OH257254   9.485   6.040   0.351  0.0733  0.7783  0.6298
18791TIP3    H157255   9.492   5.967   0.412 -1.8966  0.8211  0.9696
18791TIP3    H257256   9.465   5.999   0.267  2.9341  0.7051 -0.1376
18792TIP3   OH257257   8.564  10.008  10.503  0.2350  0.2958  0.4738
18792TIP3    H157258   8.612  10.083  10.538 -1.7321  1.1338  1.5334
18792TIP3    H257259   8.526   9.966  10.580 -1.4813  0.2310 -0.3704
18793TIP3   OH257260   1.944   5.926   0.427 -0.0562  0.3947 -0.3481
18793TIP3    H157261   1.874   5.925   0.361 -1.3662 -2.0896  0.9709
18793TIP3    H257262   1.982   5.839   0.423  0.7784  0.6589  1.2551
18794TIP3   OH257263   1.989   9.449   2.458  0.0862  0.3633  0.0272
18794TIP3    H157264   2.007   9.472   2.367  0.7954  1.4538  0.4221
18794TIP3    H257265   2.041   9.512   2.509 -2.6338  1.7897  1.2140
18795TIP3   OH257266   6.404   7.991   1.365 -0.1909  0.2064  0.3686
18795TIP3    H157267   6.468   8.005   1.296  0.5085 -0.4124  0.8779
18795TIP3    H257268   6.347   8.068   1.361  2.6989  2.6776  2.2068
18796TIP3   OH257269   3.678   5.194   5.484 -0.0026  0.2037  0.4389
18796TIP3    H157270   3.658   5.231   5.571  0.3019 -0.4607  0.7985
18796TIP3    H257271   3.662   5.266   5.424  1.2387  1.1416  1.1934
18797TIP3   OH257272   6.932   7.857   6.954  0.4837 -0.1601  0.4580
18797TIP3    H157273   6.978   7.777   6.930  1.4419  1.1821 -2.7309
18797TIP3    H257274   6.999   7.911   6.996  0.7266  0.1529 -0.3086
18798TIP3   OH257275   0.656   5.104  10.417 -0.1257  0.5605 -0.2309
18798TIP3    H157276   0.708   5.024  10.410  1.4041  1.4849 -0.0271
18798TIP3    H257277   0.610   5.111  10.334  0.1713 -0.2346 -0.4647
18799TIP3   OH257278   3.956   8.298   1.490 -0.2937 -0.2813 -0.2337
18799TIP3    H157279   4.030   8.346   1.454  1.2885 -1.5268  1.1844
18799TIP3    H257280   3.908   8.362   1.542 -0.6668  0.6988 -1.7257
18800TIP3   OH257281   5.118   5.430   0.840 -0.3518  0.1996  0.4981
18800TIP3    H157282   5.201   5.383   0.836 -0.4542  0.0885 -0.4379
18800TIP3    H257283   5.142   5.522   0.831 -0.3857  0.1126 -0.6120
18801TIP3   OH257284   2.003   9.023   0.091 -0.1078 -0.0585  0.3727
18801TIP3    H157285   1.976   9.092   0.031 -1.6620  0.9524  2.1119
18801TIP3    H257286   2.089   9.052   0.123  0.7902 -0.6743 -1.3912
18802TIP3   OH257287   3.130   7.104  10.020  0.3433  0.5605  0.6305
18802TIP3    H157288   3.170   7.086   9.934  1.5676  0.8280  1.1176
18802TIP3    H257289   3.067   7.034  10.032  0.0926  0.5561 -0.5251
18803TIP3   OH257290   3.016   1.440   6.539 -0.1833  0.8050  0.3017
18803TIP3    H157291   2.973   1.481   6.613 -0.9850  0.6925 -0.0866
18803TIP3    H257292   2.996   1.347   6.548 -1.7573  0.9698 -0.9514
18804TIP3   OH257293   4.094   4.024   9.290 -0.4320  0.4650 -0.2033
18804TIP3    H157294   4.011   4.040   9.335 -0.0955  1.4036  0.1126
18804TIP3    H257295   4.150   3.985   9.356 -0.5893 -0.0785 -0.3893
18805TIP3   OH257296   5.744   8.108   0.578 -0.2932 -0.6314 -0.0539
18805TIP3    H157297   5.714   8.179   0.521 -0.9661 -1.2287 -0.4740
18805TIP3    H257298   5.701   8.124   0.662  0.6125  0.1904  0.2726
18806TIP3   OH257299   8.053   0.820   2.408  0.5413  0.1642  0.5166
18806TIP3    H157300   7.994   0.793   2.337 -0.5500  4.5534 -0.5130
18806TIP3    H257301   7.997   0.824   2.486  0.8543 -0.9729  0.8198
18807TIP3   OH257302   0.360  10.026   6.916  0.2214  0.1894  0.0518
18807TIP3    H157303   0.283   9.970   6.924 -0.3409  0.8420 -0.7089
18807TIP3    H257304   0.331  10.100   6.862  2.0034 -0.7695 -2.4193
18808TIP3   OH257305   3.529   0.504   9.716  0.3337  0.2152 -0.0594
18808TIP3    H157306   3.597   0.560   9.678  0.4651  0.4702  0.5306
18808TIP3    H257307   3.447   0.537   9.679  0.3600  1.1219  0.6408
18809TIP3   OH257308   1.151   0.569   1.563  0.1464 -0.3859  0.0103
18809TIP3    H157309   1.222   0.631   1.543  0.3609 -0.1978  1.2756
18809TIP3    H257310   1.190   0.483   1.548 -0.7625 -0.3238 -3.8611
18810TIP3   OH257311   6.383   7.456   5.184  0.3944  0.6849 -0.0404
18810TIP3    H157312   6.441   7.527   5.212  1.6594 -0.4524  0.2806
18810TIP3    H257313   6.314   7.500   5.134  1.2479  2.1150 -0.0012
18811TIP3   OH257314   5.221   8.140   4.859  0.4854  0.1965  0.1755
18811TIP3    H157315   5.182   8.104   4.939 -1.1109  1.8843  0.2334
18811TIP3    H257316   5.313   8.117   4.865  0.3151 -0.1626  2.2691
18812TIP3   OH257317   6.756   9.846   1.490 -0.2400  0.2100 -0.0227
18812TIP3    H157318   6.769   9.904   1.415 -1.4908  1.2351  0.5068
18812TIP3    H257319   6.730   9.762   1.451 -2.2367  1.0981 -0.7646
18813TIP3   OH257320   6.686   2.995   2.811  0.1529 -0.3014  0.2486
18813TIP3    H157321   6.689   2.908   2.773  0.8870 -0.4091  0.5230
18813TIP3    H257322   6.660   3.052   2.739 -1.9037 -0.9153  0.4365
18814TIP3   OH257323   8.704  10.021   8.174  0.0486 -0.3863 -0.6781
18814TIP3    H157324   8.722   9.962   8.101  0.5797 -1.1722  0.0660
18814TIP3    H257325   8.649   9.971   8.233 -0.9819  0.4930 -0.8557
18815TIP3   OH257326   3.989   9.012   3.417  0.5672 -0.0838  0.2691
18815TIP3    H157327   3.971   9.088   3.361 -0.9359  1.8064  3.1113
18815TIP3    H257328   3.922   8.949   3.393  0.1210  0.5719 -0.2738
18816TIP3   OH257329   1.683   5.487   4.002  0.3065  0.1237  0.2802
18816TIP3    H157330   1.669   5.476   3.908  0.2723 -3.1182  0.5761
18816TIP3    H257331   1.680   5.582   4.015 -1.3255  0.6173 -2.7225
18817TIP3   OH257332   3.656   9.022   6.211  0.0577 -0.0838 -0.4375
18817TIP3    H157333   3.674   8.968   6.134 -2.2013  1.4206 -2.1741
18817TIP3    H257334   3.616   9.102   6.175 -1.3113  0.5809  2.3034
18818TIP3   OH257335  10.173   6.054   2.910 -0.0403 -0.8494  0.0859
18818TIP3    H157336  10.219   6.077   2.830  1.0543 -0.8391  0.6974
18818TIP3    H257337  10.211   5.970   2.937 -1.5793 -1.6973 -0.2919
18819TIP3   OH257338   1.604   5.267   3.050 -0.9195 -0.8740  0.3171
18819TIP3    H157339   1.655   5.242   3.127  0.0702 -0.9175 -0.3351
18819TIP3    H257340   1.631   5.205   2.982  0.0140  0.6168 -0.7402
18820TIP3   OH257341  10.155   7.138   4.084  0.0970  0.4718 -0.0854
18820TIP3    H157342  10.060   7.155   4.078  0.0185  0.1832  0.3337
18820TIP3    H257343  10.171   7.125   4.178  0.2035 -1.4930 -0.3367
18821TIP3   OH257344  10.077   9.244   6.027 -0.2080  0.0500  0.0353
18821TIP3    H157345  10.048   9.300   5.955  0.3185  1.0162  0.5470
18821TIP3    H257346  10.083   9.156   5.989  0.4643  0.6129 -1.2223
18822TIP3   OH257347   4.611   7.529   8.668 -0.1750  0.5177  0.6671
18822TIP3    H157348   4.576   7.519   8.580 -0.7316 -0.9526  1.0292
18822TIP3    H257349   4.586   7.618   8.694 -0.1658  0.9041 -0.5605
18823TIP3   OH257350   5.317   7.084   7.531  0.1137 -0.4262 -0.0505
18823TIP3    H157351   5.297   6.999   7.492  1.9831 -1.1393  0.4407
18823TIP3    H257352   5.388   7.119   7.476  1.1353 -0.3692  1.2702
18824TIP3   OH257353   9.602   2.068  10.666  0.3271 -0.2274 -0.7716
18824TIP3    H157354   9.646   1.990  10.632 -0.5223 -1.1613  0.1884
18824TIP3    H257355   9.508   2.047  10.661  0.0147  1.1940 -1.5556
18825TIP3   OH257356   0.483   5.589   5.865  0.1494  0.0209  0.2718
18825TIP3    H157357   0.547   5.577   5.935  0.9760  0.7014 -0.3452
18825TIP3    H257358   0.510   5.526   5.798  0.6693  0.8559 -0.3215
18826TIP3   OH257359   0.597   5.285   4.055 -0.1319  0.0586 -0.1026
18826TIP3    H157360   0.570   5.374   4.030 -0.4034  0.5152  1.7121
18826TIP3    H257361   0.682   5.273   4.012 -0.5922  0.7645 -1.2557
18827TIP3   OH257362   7.779   1.463   2.243  0.3563  0.2903  0.0938
18827TIP3    H157363   7.827   1.542   2.268 -0.5529  0.9014 -0.0666
18827TIP3    H257364   7.756   1.421   2.326  0.6195  0.3258  0.1852
18828TIP3   OH257365  10.507   4.168  10.166 -0.2317  0.2872  0.5247
18828TIP3    H157366  10.559   4.239  10.129 -0.7043  1.0015  1.1939
18828TIP3    H257367  10.452   4.138  10.093  0.5234  0.0831  0.0360
18829TIP3   OH257368   6.921   2.216   3.435 -0.2075  0.5035 -0.3922
18829TIP3    H157369   6.826   2.217   3.443 -0.3235  0.3157 -1.5192
18829TIP3    H257370   6.940   2.285   3.372  0.4824  1.1029  0.4501
18830TIP3   OH257371   0.554   2.429   5.822  0.3753  0.7311  0.1145
18830TIP3    H157372   0.496   2.413   5.747 -0.8316 -0.2809  1.1983
18830TIP3    H257373   0.510   2.497   5.872  1.1400  1.3526 -0.0483
18831TIP3   OH257374   8.333   6.813   2.910  0.7833 -0.1935 -0.1213
18831TIP3    H157375   8.321   6.854   2.824  0.7720 -2.8040 -1.4554
18831TIP3    H257376   8.244   6.806   2.945  0.7208  0.3450 -0.1682
18832TIP3   OH257377   3.658   7.410   9.957 -0.2694 -0.3651  0.4306
18832TIP3    H157378   3.596   7.471   9.916  0.2348 -0.3901 -0.4008
18832TIP3    H257379   3.744   7.449   9.940 -0.0500 -0.3175  1.6013
18833TIP3   OH257380   1.696   1.407   6.255  0.4393 -0.0631 -0.1664
18833TIP3    H157381   1.644   1.410   6.335  1.0299  0.3457  0.2130
18833TIP3    H257382   1.763   1.474   6.268 -0.8473  1.6994 -1.9914
18834TIP3   OH257383   7.212   6.727   0.134  0.2483 -0.1847 -0.3618
18834TIP3    H157384   7.126   6.763   0.114 -0.8778 -2.4590  0.1655
18834TIP3    H257385   7.258   6.727   0.050 -1.1895 -1.2702 -1.1833
18835TIP3   OH257386   0.057   3.604   4.209  0.3016 -0.5711 -0.4411
18835TIP3    H157387   0.049   3.680   4.151  1.1066 -0.5112 -0.4885
18835TIP3    H257388   0.016   3.633   4.291 -0.4810 -0.5175 -0.8438
18836TIP3   OH257389   9.335   0.352   3.867 -0.1843  0.2572  0.2834
18836TIP3    H157390   9.273   0.364   3.795  0.6028 -0.8103 -0.6274
18836TIP3    H257391   9.336   0.257   3.882  1.0940  0.2580  0.3682
18837TIP3   OH257392   0.630  10.860   7.250  0.3406  0.2883  0.0493
18837TIP3    H157393   0.702  10.828   7.195  0.6330 -1.1779  1.2175
18837TIP3    H257394   0.558  10.799   7.234 -0.0758  0.7378  0.1688
18838TIP3   OH257395   5.793   4.456  10.229 -0.5071  0.5779  0.7052
18838TIP3    H157396   5.810   4.392  10.160 -1.2703  0.7293  0.3686
18838TIP3    H257397   5.700   4.478  10.219 -0.7214  0.3495  1.9916
18839TIP3   OH257398   9.189   3.573   9.230 -0.0545 -0.1401  0.3813
18839TIP3    H157399   9.243   3.626   9.172  0.4596 -0.7871  0.2528
18839TIP3    H257400   9.174   3.492   9.180  0.7544 -0.8812  1.3009
18840TIP3   OH257401   5.000   4.680   9.771  0.3626 -0.5932  0.4004
18840TIP3    H157402   4.907   4.676   9.793  0.4088 -1.5641  0.4765
18840TIP3    H257403   5.023   4.589   9.751  1.1292 -0.2589 -0.3005
18841TIP3   OH257404   3.866   2.486   0.779  0.3697 -0.2439  0.0885
18841TIP3    H157405   3.857   2.546   0.853  1.1818  0.9063 -0.7113
18841TIP3    H257406   3.896   2.541   0.707 -2.9638 -0.7457 -1.9101
18842TIP3   OH257407   2.498  10.235   7.846  0.2596 -0.1014  0.1334
18842TIP3    H157408   2.570  10.217   7.786  0.6420 -0.5506  0.7088
18842TIP3    H257409   2.500  10.163   7.909 -0.9316 -0.3249 -0.0501
18843TIP3   OH257410   5.187   8.608  10.711 -0.1352  0.2978  0.1201
18843TIP3    H157411   5.140   8.634  10.790 -0.8945  1.5264 -0.7068
18843TIP3    H257412   5.233   8.687  10.683 -1.1225  0.3283 -1.5115
18844TIP3   OH257413   5.929  10.542   8.005  0.3730  0.5608  0.3926
18844TIP3    H157414   5.934  10.453   7.971  1.4798  0.8910 -0.3478
18844TIP3    H257415   5.844  10.546   8.049  0.1140 -0.7148  0.0421
18845TIP3   OH257416   7.428   5.801   2.959 -0.0463 -0.2927 -0.1216
18845TIP3    H157417   7.475   5.841   2.886 -0.6317  0.1785 -0.2449
18845TIP3    H257418   7.490   5.804   3.032  1.0049 -1.8856 -0.8923
18846TIP3   OH257419   0.649  10.889   8.268  0.1372 -0.6217 -0.1017
18846TIP3    H157420   0.634  10.898   8.362  0.6036 -0.0001 -0.0785
18846TIP3    H257421   0.634  10.796   8.250  3.6327 -1.5990  1.2612
18847TIP3   OH257422   8.882   6.463   4.071  0.1642  0.1183 -0.0984
18847TIP3    H157423   8.828   6.387   4.051  1.1608  0.0627 -3.1187
18847TIP3    H257424   8.971   6.435   4.050  1.0622  1.0650  2.1339
18848TIP3   OH257425   7.994   2.972   3.521  0.4950 -0.5362  0.5738
18848TIP3    H157426   8.042   3.017   3.590  0.1132  0.9205 -0.0683
18848TIP3    H257427   7.959   3.043   3.466 -0.9917 -1.6000  0.0934
18849TIP3   OH257428   8.691   0.396   3.467  0.2344 -0.0578  0.0023
18849TIP3    H157429   8.671   0.345   3.388  0.5350 -0.6813  0.3213
18849TIP3    H257430   8.630   0.470   3.463 -2.0972 -1.7942  0.8690
18850TIP3   OH257431   3.649   4.500   0.183  0.5166 -0.9436  0.0559
18850TIP3    H157432   3.616   4.551   0.257 -0.9523 -0.6690 -0.7663
18850TIP3    H257433   3.608   4.539   0.106  1.7611 -1.4358 -0.8950
18851TIP3   OH257434   3.626  10.846   1.267 -0.0679 -0.4238 -0.0613
18851TIP3    H157435   3.630  10.818   1.176  0.5363 -0.4610 -0.0225
18851TIP3    H257436   3.710  10.822   1.304  0.3229  1.0277  0.0827
18852TIP3   OH257437   7.647   2.787   1.107 -0.9404 -0.1490  0.0439
18852TIP3    H157438   7.609   2.785   1.195  0.9393 -0.2815  0.8951
18852TIP3    H257439   7.633   2.877   1.077  0.6257  0.6396  1.5359
18853TIP3   OH257440   0.519   9.939   5.404  0.2432  0.0061  0.2910
18853TIP3    H157441   0.442   9.922   5.458  0.5334 -1.7937  0.1975
18853TIP3    H257442   0.539   9.854   5.364  2.0495  0.5304  0.0095
18854TIP3   OH257443   6.898   9.406   3.904 -0.1586  0.0951 -0.5880
18854TIP3    H157444   6.897   9.312   3.889  1.7094  0.1501 -1.3260
18854TIP3    H257445   6.817   9.437   3.863  0.5934 -0.8720 -2.9831
18855TIP3   OH257446   1.056   9.695   3.733  0.2082  0.4735 -0.0952
18855TIP3    H157447   1.037   9.701   3.827  0.0773 -0.4441 -0.0509
18855TIP3    H257448   1.106   9.613   3.724 -0.3912  0.1816 -0.9153
18856TIP3   OH257449   2.660   4.171   0.126  0.0844  0.2143  0.0512
18856TIP3    H157450   2.711   4.252   0.133  1.0533 -0.4492  1.2029
18856TIP3    H257451   2.601   4.173   0.200 -0.3244  0.1482 -0.2693
18857TIP3   OH257452   9.145   0.683   7.518 -0.0940 -0.6370 -0.1491
18857TIP3    H157453   9.180   0.641   7.440  1.0324 -1.0941  0.5752
18857TIP3    H257454   9.093   0.614   7.561  0.8188 -0.9685  0.4510
18858TIP3   OH257455   2.023   3.839   5.971 -0.0444  0.0864 -0.0603
18858TIP3    H157456   2.010   3.832   5.877  1.3311 -3.0819 -0.1317
18858TIP3    H257457   2.115   3.818   5.985  0.0939  1.6755  1.9627
18859TIP3   OH257458   0.394   9.021   4.805 -0.4501  0.3131 -0.5753
18859TIP3    H157459   0.329   9.088   4.827  0.8591  1.1589  0.9177
18859TIP3    H257460   0.478   9.058   4.833  0.6538 -0.9056 -2.0760
18860TIP3   OH257461   8.823   1.524   0.269  0.3695 -0.4206 -0.0545
18860TIP3    H157462   8.824   1.613   0.234  0.3670 -1.4205 -2.8127
18860TIP3    H257463   8.906   1.516   0.316  0.1828  1.1290  0.6339
18861TIP3   OH257464   1.729   1.410   6.597  0.4911  0.5229  0.0139
18861TIP3    H157465   1.640   1.399   6.629  0.3300  0.3054 -0.5173
18861TIP3    H257466   1.746   1.504   6.606 -0.4084  0.8502 -1.4985
18862TIP3   OH257467   5.033   0.977   9.560  0.1271 -0.1200 -0.0878
18862TIP3    H157468   5.008   0.897   9.607  0.1909 -0.1664 -0.1319
18862TIP3    H257469   5.045   1.042   9.629 -1.3187  0.2483 -0.1498
18863TIP3   OH257470   1.929   7.563   7.260  0.0704  0.0415 -0.5032
18863TIP3    H157471   1.960   7.487   7.211 -0.3996 -0.0390 -0.6797
18863TIP3    H257472   1.833   7.558   7.254  0.0345  1.7747 -2.2549
18864TIP3   OH257473   2.165   2.514   1.176  0.4308  0.0750 -0.1452
18864TIP3    H157474   2.143   2.551   1.090  1.8882 -0.0072 -0.5688
18864TIP3    H257475   2.087   2.531   1.229 -0.1345  0.9635 -1.2130
18865TIP3   OH257476   1.376   3.260   6.618  0.5580 -0.0973  0.5116
18865TIP3    H157477   1.316   3.292   6.686  1.0575  1.2610  0.3581
18865TIP3    H257478   1.352   3.310   6.540  0.5718 -1.0104 -0.0769
18866TIP3   OH257479   8.495   7.990   0.083 -0.0167  0.1654 -0.4166
18866TIP3    H157480   8.546   7.912   0.106 -0.8617 -0.7885 -1.6113
18866TIP3    H257481   8.417   7.955   0.041 -0.4596  1.6773 -0.9081
18867TIP3   OH257482   5.914  10.153   1.915 -0.0370  0.0644  0.5694
18867TIP3    H157483   5.882  10.134   2.003  0.7273  0.2844  0.8970
18867TIP3    H257484   5.911  10.248   1.908  2.1165  0.2412  1.2367
18868TIP3   OH257485   6.393   9.431   4.003 -0.0141  0.0206 -0.3006
18868TIP3    H157486   6.357   9.504   4.052 -0.3803 -0.3965  0.0502
18868TIP3    H257487   6.487   9.450   3.997 -0.1116  0.5238 -0.2246
18869TIP3   OH257488   5.039   3.731   6.258 -0.6162  0.5685 -0.1567
18869TIP3    H157489   5.067   3.739   6.167  2.2052 -1.5091  0.3864
18869TIP3    H257490   5.039   3.821   6.292 -0.0118  1.2065 -1.7595
18870TIP3   OH257491   4.025   2.401   8.652 -0.3324  0.3396  0.3604
18870TIP3    H157492   4.083   2.416   8.577 -2.3422 -0.3634 -1.4243
18870TIP3    H257493   4.044   2.311   8.679 -0.1174  0.3451  0.2303
18871TIP3   OH257494   6.170   2.627   6.062 -0.8351  0.5813 -0.1144
18871TIP3    H157495   6.228   2.604   5.989 -0.6179  2.2899 -0.5137
18871TIP3    H257496   6.212   2.589   6.139 -0.3019  0.0110 -0.6740
18872TIP3   OH257497   6.183  10.167   8.096  0.0266 -0.0151  0.2652
18872TIP3    H157498   6.248  10.235   8.113 -0.5396  0.7987 -0.7153
18872TIP3    H257499   6.234  10.094   8.061  0.5540  0.1730  0.6238
18873TIP3   OH257500   4.015   0.779   8.497 -0.1540  0.2146  0.3719
18873TIP3    H157501   4.088   0.821   8.451  0.8526 -0.9212  0.8800
18873TIP3    H257502   3.959   0.745   8.427 -0.6980  1.8748 -0.0368
18874TIP3   OH257503   4.449   1.565   0.316  0.7254 -0.4807  0.0760
18874TIP3    H157504   4.386   1.620   0.362  0.5522 -0.0911 -0.6214
18874TIP3    H257505   4.534   1.608   0.329  1.3239 -2.2291  3.0441
18875TIP3   OH257506   2.963   2.699   5.338  0.2228  0.7939  0.1178
18875TIP3    H157507   2.928   2.750   5.265  1.9992  0.5293 -0.9977
18875TIP3    H257508   2.999   2.621   5.297  0.6796  0.3289  1.3697
18876TIP3   OH257509   9.970   6.667   4.030 -0.1132 -0.7742 -0.0290
18876TIP3    H157510  10.028   6.679   4.105 -1.6888 -1.1510  1.2877
18876TIP3    H257511   9.933   6.754   4.015  1.7743 -0.1772 -1.7998
18877TIP3   OH257512   3.317   6.986   3.604  0.1685  0.0447  0.4456
18877TIP3    H157513   3.336   6.920   3.670  0.0286 -0.9656 -0.4890
18877TIP3    H257514   3.288   6.936   3.528 -3.2798  1.2961  0.7481
18878TIP3   OH257515   4.340   5.556   8.823 -0.1481 -0.5949 -0.4283
18878TIP3    H157516   4.253   5.529   8.853 -0.7523  0.7941 -0.8500
18878TIP3    H257517   4.342   5.650   8.838  1.5696 -0.7029  0.2402
18879TIP3   OH257518   8.089   7.729   4.667  0.6135 -0.5908  0.2862
18879TIP3    H157519   7.995   7.742   4.679  0.8854  0.5303  1.4967
18879TIP3    H257520   8.124   7.818   4.657  1.5250 -1.0095 -0.3763
18880TIP3   OH257521   2.083   1.807   8.816 -0.1358  0.3350 -0.7078
18880TIP3    H157522   2.002   1.849   8.846  0.5979  1.4815 -0.2637
18880TIP3    H257523   2.059   1.767   8.732 -1.0047  1.2484 -0.9215
18881TIP3   OH257524   4.129  10.268   7.948 -0.7791  0.4022  0.0939
18881TIP3    H157525   4.050  10.245   7.997 -1.0670  1.6238  0.2401
18881TIP3    H257526   4.099  10.332   7.883  0.0012  0.5228 -0.1555
18882TIP3   OH257527   1.323   5.749   1.907 -0.1962  0.1215  0.3304
18882TIP3    H157528   1.338   5.835   1.867  0.0806 -0.4783 -0.9138
18882TIP3    H257529   1.402   5.732   1.959  0.1780  0.2153 -0.1963
18883TIP3   OH257530   9.039   4.539  10.451  0.0438 -0.1539  0.2065
18883TIP3    H157531   9.038   4.446  10.429  1.8156  0.0986 -1.1834
18883TIP3    H257532   8.950   4.569  10.436 -0.4001 -1.5020  0.0555
18884TIP3   OH257533  10.557   2.610   1.163 -0.2054 -0.0952  0.1738
18884TIP3    H157534  10.528   2.664   1.237 -0.5584  4.6894 -3.0299
18884TIP3    H257535  10.649   2.590   1.183  0.2565  2.6234  1.2074
18885TIP3   OH257536   4.809   3.582   7.393 -0.2141 -0.3407 -0.7593
18885TIP3    H157537   4.864   3.522   7.341 -0.5953 -0.0428 -1.5259
18885TIP3    H257538   4.764   3.635   7.327 -0.8041 -0.0340 -0.1113
18886TIP3   OH257539  10.302   1.018   9.163  0.0685  0.2019  0.1792
18886TIP3    H157540  10.287   1.110   9.181  2.2001  0.5383  0.4562
18886TIP3    H257541  10.272   0.972   9.241  1.2097  0.8879  1.0415
18887TIP3   OH257542  10.680   5.688   9.214  0.1014  0.0532  0.0052
18887TIP3    H157543  10.691   5.773   9.257  2.1875 -0.4365  0.5832
18887TIP3    H257544  10.674   5.626   9.287 -1.0623 -0.3496 -0.4159
18888TIP3   OH257545   4.315   5.895   9.267 -0.5287  0.5972  0.0628
18888TIP3    H157546   4.362   5.943   9.197  0.7836  1.4418  1.4524
18888TIP3    H257547   4.285   5.964   9.326 -0.0390 -0.1976  1.2626
18889TIP3   OH257548   9.032   8.719   2.698 -0.6438 -0.0807 -0.1165
18889TIP3    H157549   8.996   8.640   2.659 -0.6625 -0.7456  1.1966
18889TIP3    H257550   9.025   8.786   2.630 -2.1604 -0.7911 -0.6796
18890TIP3   OH257551   8.371   5.918   3.697 -0.0138  0.3820 -0.0899
18890TIP3    H157552   8.284   5.956   3.681 -0.7089 -0.9924  0.3373
18890TIP3    H257553   8.385   5.929   3.791 -0.6357 -1.2094  0.2195
18891TIP3   OH257554   6.523   8.469   3.056  0.3663  1.1699  0.1256
18891TIP3    H157555   6.603   8.478   3.005 -0.8429  4.0502 -1.4968
18891TIP3    H257556   6.482   8.389   3.021  1.7430  0.5290 -0.1112
18892TIP3   OH257557   0.340   8.230   7.977  0.0097  0.2088 -0.6742
18892TIP3    H157558   0.394   8.209   8.052  0.4700 -0.9561 -1.3136
18892TIP3    H257559   0.394   8.288   7.923  1.1872 -1.9348 -1.9316
18893TIP3   OH257560   7.028   2.389   3.909 -0.2657  0.3858  0.0825
18893TIP3    H157561   7.001   2.306   3.869 -1.4564  0.1679  1.2716
18893TIP3    H257562   6.961   2.407   3.975 -0.6890  2.9068 -0.9140
18894TIP3   OH257563   9.275   9.483   9.979  0.3013  0.4792  0.2560
18894TIP3    H157564   9.350   9.508   9.926  1.8480  1.1066  2.5801
18894TIP3    H257565   9.301   9.505  10.069 -2.7237  0.8537  1.1434
18895TIP3   OH257566   9.451   9.076   5.783  0.0966 -0.6497  0.4970
18895TIP3    H157567   9.453   9.007   5.717  1.4583 -0.6784  0.5504
18895TIP3    H257568   9.534   9.122   5.773 -1.3430  1.9009 -0.4863
18896TIP3   OH257569   6.912   7.597   9.749 -0.0124 -0.2262 -0.2624
18896TIP3    H157570   6.883   7.600   9.840  1.8553  1.4118  0.3623
18896TIP3    H257571   6.999   7.559   9.752  0.7741  1.3691 -1.0860
18897TIP3   OH257572   3.289  10.753   0.884 -0.5407  0.2075 -0.8171
18897TIP3    H157573   3.365  10.775   0.831  0.4909  0.9606  0.8787
18897TIP3    H257574   3.310  10.788   0.971 -2.2944 -0.6676  0.0055
18898TIP3   OH257575   1.905   1.516   2.876  0.9030 -0.1354  0.0777
18898TIP3    H157576   1.885   1.569   2.953  0.9766  1.1116 -0.7348
18898TIP3    H257577   1.872   1.567   2.803  0.6854 -1.3822 -0.7185
18899TIP3   OH257578   4.731   0.450   7.020 -0.0545  0.1296  0.4109
18899TIP3    H157579   4.820   0.467   6.991 -0.2244 -0.7276 -0.6889
18899TIP3    H257580   4.697   0.536   7.046  0.2482  0.9331 -1.6420
18900TIP3   OH257581   8.485   6.062   4.532 -0.0038  0.4751  0.3270
18900TIP3    H157582   8.473   6.157   4.528  1.0829  0.6382  0.5672
18900TIP3    H257583   8.579   6.051   4.546 -0.1473 -0.6368  0.4630
18901TIP3   OH257584   3.816   4.262   3.250 -0.4452 -0.0478 -0.4854
18901TIP3    H157585   3.740   4.210   3.223 -0.6979  0.9064 -1.6733
18901TIP3    H257586   3.883   4.197   3.271 -1.1972 -0.8745 -0.5899
18902TIP3   OH257587   4.056   9.856   0.648  0.1723  0.0721 -0.9035
18902TIP3    H157588   4.106   9.919   0.700 -0.4579  0.5526 -0.8645
18902TIP3    H257589   4.069   9.883   0.558 -1.2178  1.1459 -0.8245
18903TIP3   OH257590   1.611   7.509   8.934 -0.4453 -0.7387 -0.2647
18903TIP3    H157591   1.631   7.602   8.927 -1.8352 -0.4100 -0.2049
18903TIP3    H257592   1.658   7.480   9.012 -1.1524  0.2588  0.5627
18904TIP3   OH257593   5.573   1.108   2.717 -0.2141 -0.0545 -0.1627
18904TIP3    H157594   5.653   1.135   2.672  0.0090 -0.9479 -0.3125
18904TIP3    H257595   5.506   1.109   2.648 -0.0561 -0.5623 -0.3303
18905TIP3   OH257596   6.789  10.638  10.622 -0.3369 -0.3750 -0.2634
18905TIP3    H157597   6.795  10.692  10.701 -1.2361 -0.0759 -0.3804
18905TIP3    H257598   6.790  10.548  10.654 -0.6035 -0.2577  0.0873
18906TIP3   OH257599   3.761   9.098  10.360  0.4137  0.1310 -0.1447
18906TIP3    H157600   3.773   9.188  10.330  1.8078 -0.6337 -2.0879
18906TIP3    H257601   3.841   9.079  10.409  0.3572 -0.2147 -0.1843
18907TIP3   OH257602   2.986   9.106   9.133 -0.5510  0.0514 -0.0264
18907TIP3    H157603   2.971   9.042   9.063 -0.8503  0.4949 -0.3718
18907TIP3    H257604   3.050   9.166   9.097  0.8918 -0.9091  0.8574
18908TIP3   OH257605   1.903   8.214   7.689 -0.2394 -0.4227 -0.4049
18908TIP3    H157606   1.881   8.231   7.780 -0.1363  0.6693 -0.5610
18908TIP3    H257607   1.904   8.301   7.648  0.4384 -0.8199 -1.2772
18909TIP3   OH257608   3.398   0.035   1.047 -0.0131  0.4298  0.0654
18909TIP3    H157609   3.377   0.119   1.007 -0.6514  0.5533  0.6425
18909TIP3    H257610   3.492   0.024   1.032  0.1475  1.4136  0.2912
18910TIP3   OH257611   3.709   8.601  10.163 -0.5131 -0.3546 -0.2212
18910TIP3    H157612   3.637   8.657  10.132  0.2646  0.4594 -0.6092
18910TIP3    H257613   3.742   8.645  10.241 -0.7189 -0.9663  0.2170
18911TIP3   OH257614   3.191   9.006   3.197 -0.2326 -0.2062  0.0654
18911TIP3    H157615   3.133   9.065   3.244  1.4075  1.7609 -0.2465
18911TIP3    H257616   3.193   9.040   3.108  0.0765 -1.2730 -0.3476
18912TIP3   OH257617   8.122   6.458   6.523  0.1151 -0.4632  0.3833
18912TIP3    H157618   8.215   6.473   6.544 -0.2142  1.5954  0.5453
18912TIP3    H257619   8.110   6.496   6.436 -0.7899  0.1941  0.7829
18913TIP3   OH257620   7.797   1.839   7.084  0.3074  0.8378  0.7465
18913TIP3    H157621   7.832   1.915   7.131  3.0885  1.4233 -1.9530
18913TIP3    H257622   7.785   1.869   6.994  0.0525 -1.5113 -0.0901
18914TIP3   OH257623   7.839   3.162   2.977  0.2221 -0.1315 -0.1546
18914TIP3    H157624   7.781   3.221   3.026  1.5363  0.2240  1.0471
18914TIP3    H257625   7.841   3.082   3.030  0.0507 -0.5076 -0.7145
18915TIP3   OH257626   4.783   4.405   9.715 -0.4238  0.1447  0.5466
18915TIP3    H157627   4.745   4.318   9.701 -1.1145  0.8404 -2.5356
18915TIP3    H257628   4.762   4.425   9.807  0.2914 -3.1224  1.5497
18916TIP3   OH257629   2.366   7.040   4.248  1.1779 -0.0277  0.2275
18916TIP3    H157630   2.375   7.062   4.340  1.9021 -0.3900  0.2523
18916TIP3    H257631   2.434   6.974   4.232  0.9242 -0.1232 -0.5126
18917TIP3   OH257632   8.694   8.522   0.108 -0.3625  0.0781  0.3989
18917TIP3    H157633   8.646   8.444   0.078  0.4197 -1.3818  2.6530
18917TIP3    H257634   8.754   8.542   0.037 -1.5314 -0.4945 -0.8121
18918TIP3   OH257635   1.349   3.615   8.816 -0.1747 -0.2406  0.8627
18918TIP3    H157636   1.326   3.525   8.793 -2.0394  0.4790 -0.3107
18918TIP3    H257637   1.277   3.645   8.871 -0.9260  1.2788 -0.8186
18919TIP3   OH257638   8.523   7.668   3.045  0.1159 -0.2089 -0.0905
18919TIP3    H157639   8.535   7.599   3.110 -1.7321 -0.4737  0.0355
18919TIP3    H257640   8.430   7.663   3.021  0.1050  1.6990 -0.6744
18920TIP3   OH257641   2.575   2.762  10.093 -0.4493 -0.0437  0.0176
18920TIP3    H157642   2.482   2.774  10.112 -0.2097  1.1517  0.5069
18920TIP3    H257643   2.592   2.821  10.019  0.1647  0.6514  0.6927
18921TIP3   OH257644   9.460   9.165   2.700 -0.0652 -0.1190 -0.1449
18921TIP3    H157645   9.442   9.117   2.619  0.1341  0.3177 -0.4500
18921TIP3    H257646   9.555   9.155   2.712  0.7966  3.5668 -2.4235
18922TIP3   OH257647   7.891   0.350   2.882 -0.4743 -0.2043  0.1581
18922TIP3    H157648   7.799   0.368   2.903 -0.8005 -1.8281  0.1816
18922TIP3    H257649   7.906   0.261   2.911  1.6997  0.6692  2.0468
18923TIP3   OH257650   2.894   2.564   8.652  0.0472  0.1679 -0.1773
18923TIP3    H157651   2.972   2.528   8.610  1.6252  0.4937  2.2607
18923TIP3    H257652   2.863   2.632   8.592  1.7046  0.0856 -1.1694
18924TIP3   OH257653   4.972   1.421   7.824 -0.1193  0.4453 -0.3830
18924TIP3    H157654   4.998   1.334   7.857  1.1186  1.3387  1.1330
18924TIP3    H257655   4.881   1.431   7.851 -0.7422 -0.9174 -1.8080
18925TIP3   OH257656   2.915   0.095   5.898 -0.2318 -0.1551  0.3271
18925TIP3    H157657   3.002   0.113   5.934 -0.3810 -0.1891  0.7033
18925TIP3    H257658   2.905   0.158   5.826  0.6526 -1.0369 -0.6106
18926TIP3   OH257659   2.980   4.208   3.516  0.3081  0.2256 -0.5776
18926TIP3    H157660   2.944   4.218   3.605 -1.2415 -1.1259 -0.9931
18926TIP3    H257661   3.074   4.196   3.529  0.3581  1.6638  0.7358
18927TIP3   OH257662   1.359   8.219   1.602 -0.7408 -0.0186  0.0905
18927TIP3    H157663   1.271   8.256   1.596 -1.1628 -1.0251 -0.0891
18927TIP3    H257664   1.388   8.210   1.511 -0.2084  0.8302  0.1570
18928TIP3   OH257665   3.398   4.453   7.913  0.3425 -0.2191 -0.3441
18928TIP3    H157666   3.396   4.548   7.924 -0.6768 -0.2483 -0.1858
18928TIP3    H257667   3.358   4.438   7.827 -1.9206 -0.6272  0.6982
18929TIP3   OH257668   6.144  10.858   0.126  0.5746  0.4573  0.0089
18929TIP3    H157669   6.049  10.845   0.131  0.3945  0.9558 -1.6006
18929TIP3    H257670   6.169  10.884   0.215 -0.4498 -1.6756  1.0051
18930TIP3   OH257671   8.269   0.224   2.359  1.0239 -0.3734 -0.1988
18930TIP3    H157672   8.231   0.311   2.356  3.6345  0.8996  0.2117
18930TIP3    H257673   8.220   0.173   2.295 -1.9264  0.7443  1.0163
18931TIP3   OH257674   8.370  10.125  10.755 -0.4854  0.3128 -0.4204
18931TIP3    H157675   8.282  10.163  10.744 -0.0607  2.3827  2.2834
18931TIP3    H257676   8.429  10.193  10.723  0.1918 -0.2389 -0.3654
18932TIP3   OH257677  10.413   7.882   8.717  0.1592 -0.3291 -0.0609
18932TIP3    H157678  10.444   7.970   8.697  0.5051 -0.6237 -0.8783
18932TIP3    H257679  10.317   7.891   8.721  0.1950  0.0843 -0.1162
18933TIP3   OH257680   2.854   3.505   3.571  0.5834  0.2992 -0.0029
18933TIP3    H157681   2.863   3.589   3.527  0.7775  0.2449 -0.0692
18933TIP3    H257682   2.815   3.526   3.656 -0.5385  0.3096 -0.5126
18934TIP3   OH257683   5.803   8.881   9.639 -0.4456  0.0353  0.1497
18934TIP3    H157684   5.839   8.921   9.560  1.1413  3.0860  2.1965
18934TIP3    H257685   5.857   8.803   9.653  0.2847  0.3300 -0.9073
18935TIP3   OH257686   4.096   2.755  10.838 -0.7659 -0.0656 -0.2201
18935TIP3    H157687   4.009   2.719  10.821 -0.7762  0.3560 -1.0881
18935TIP3    H257688   4.108   2.823  10.771  0.8812 -1.1841 -1.1129
18936TIP3   OH257689   2.323   8.796   4.702  0.2836 -0.0947 -0.3275
18936TIP3    H157690   2.348   8.756   4.619 -0.7524 -0.6225 -0.3937
18936TIP3    H257691   2.229   8.782   4.708  0.3478 -0.0741  0.9433
18937TIP3   OH257692   4.956   7.918   1.025  0.5242  0.7335 -0.1406
18937TIP3    H157693   4.920   7.860   1.092  0.2566  1.9485  0.7929
18937TIP3    H257694   5.010   7.860   0.970 -2.0381 -0.9892 -1.0625
18938TIP3   OH257695   5.407   4.012   7.243  0.3657 -0.2411  0.1052
18938TIP3    H157696   5.390   4.021   7.149 -0.9352  2.7804  0.5009
18938TIP3    H257697   5.373   4.093   7.281 -0.0815 -1.7849  3.3378
18939TIP3   OH257698   8.853   8.410   4.282 -0.7710  0.1463 -0.1080
18939TIP3    H157699   8.928   8.351   4.274 -0.0713  1.0407 -0.1921
18939TIP3    H257700   8.819   8.393   4.370 -1.0219 -0.8894 -0.3880
18940TIP3   OH257701   9.061   0.496   9.401  0.2522 -0.3124  0.1976
18940TIP3    H157702   9.026   0.586   9.404  0.1531 -0.3721  1.5242
18940TIP3    H257703   9.053   0.465   9.491  0.4806 -1.5925 -0.2099
18941TIP3   OH257704   7.320   4.443   4.831  0.4861  0.0654  0.4123
18941TIP3    H157705   7.302   4.532   4.858 -2.3534 -0.4552  0.5222
18941TIP3    H257706   7.323   4.393   4.912 -1.3100 -0.4218  0.2209
18942TIP3   OH257707   8.937   4.275  10.035  0.1033  0.0090 -0.1193
18942TIP3    H157708   8.949   4.369  10.028 -1.4247  0.4209  1.8682
18942TIP3    H257709   8.971   4.240   9.953  0.3531  2.3132 -1.0644
18943TIP3   OH257710   1.221   0.226   6.123 -0.6430  0.5808  0.1674
18943TIP3    H157711   1.268   0.163   6.178 -0.3214  1.5368  1.0311
18943TIP3    H257712   1.134   0.233   6.164 -0.9006  0.2148 -0.3129
18944TIP3   OH257713  10.693   7.626   2.696 -0.2887  0.9586  0.8557
18944TIP3    H157714  10.726   7.674   2.620  1.1105  0.2600  0.9712
18944TIP3    H257715  10.743   7.661   2.770 -1.9846  1.9734  1.5594
18945TIP3   OH257716   0.226  10.015   4.524  0.1177 -0.3105  0.1048
18945TIP3    H157717   0.249  10.098   4.482  2.8351 -1.1875 -0.3763
18945TIP3    H257718   0.252   9.948   4.460 -0.3977 -1.5766  1.1654
18946TIP3   OH257719   1.671   0.736   3.089  0.0263 -0.0761  0.6063
18946TIP3    H157720   1.675   0.763   3.181  0.0070  2.6406 -0.0978
18946TIP3    H257721   1.634   0.812   3.044  1.4289 -0.7519 -1.8588
18947TIP3   OH257722   6.603   5.403   6.464 -0.1474  0.3217 -0.3024
18947TIP3    H157723   6.622   5.481   6.515  0.4919  0.2013 -0.3453
18947TIP3    H257724   6.567   5.341   6.528 -2.4063  1.2362 -0.5773
18948TIP3   OH257725   0.106   5.281   3.997 -0.7167  0.4600  0.1727
18948TIP3    H157726   0.185   5.261   4.046 -1.1096 -1.0683  0.2369
18948TIP3    H257727   0.136   5.303   3.909 -0.1690  0.7543  0.4323
18949TIP3   OH257728  10.103   2.124   4.320  0.3816  0.4540 -0.0150
18949TIP3    H157729  10.012   2.103   4.343  0.5223 -0.9231 -0.6182
18949TIP3    H257730  10.099   2.213   4.284 -0.4462  1.0867  1.5519
18950TIP3   OH257731   1.227   7.592   7.498 -0.6489 -0.4569 -0.7876
18950TIP3    H157732   1.264   7.679   7.481  2.3816 -1.2750  0.8588
18950TIP3    H257733   1.207   7.593   7.592 -2.2269 -1.0470 -1.0767
18951TIP3   OH257734   9.886   3.230   4.663 -0.3032  0.1048 -0.5305
18951TIP3    H157735   9.920   3.236   4.574  2.0127 -0.1057  0.2940
18951TIP3    H257736   9.940   3.163   4.706 -2.1781 -0.7061  0.7107
18952TIP3   OH257737   7.634   5.893   4.401 -0.5518  0.2227 -0.3430
18952TIP3    H157738   7.673   5.941   4.329  1.9131 -0.3847  0.5133
18952TIP3    H257739   7.540   5.911   4.393 -0.0138  3.1383 -1.5025
18953TIP3   OH257740   1.013   0.348  10.856  0.4465  0.2445 -0.0023
18953TIP3    H157741   1.013   0.330  10.762  0.7905  0.3937 -0.0349
18953TIP3    H257742   0.970   0.434  10.864  1.9146  1.0288 -0.2013
18954TIP3   OH257743   7.327   3.906   6.745  0.2050  0.4286  0.1618
18954TIP3    H157744   7.376   3.953   6.677  0.7912 -1.1084 -0.5095
18954TIP3    H257745   7.325   3.967   6.819 -0.4164  2.1251 -1.1945
18955TIP3   OH257746   6.715   8.626   4.703  0.5127  0.1544 -0.1012
18955TIP3    H157747   6.748   8.642   4.615 -0.1822 -0.0248 -0.4076
18955TIP3    H257748   6.792   8.628   4.760  0.9776  0.1478 -0.7320
18956TIP3   OH257749   5.712   8.579   1.964  0.1110 -0.0192 -0.1057
18956TIP3    H157750   5.640   8.516   1.975  1.0784 -1.4895 -1.7242
18956TIP3    H257751   5.753   8.583   2.051 -1.1733 -0.0954  0.5236
18957TIP3   OH257752   7.811   2.236   5.538  0.2404  0.7012 -0.4396
18957TIP3    H157753   7.757   2.184   5.479 -0.6018  0.3084  0.6420
18957TIP3    H257754   7.890   2.255   5.488 -0.4809  0.4515 -1.7088
18958TIP3   OH257755   2.976  10.065   1.784  0.3112 -0.2389  0.1121
18958TIP3    H157756   3.067  10.036   1.789 -0.0557 -1.3884  0.3218
18958TIP3    H257757   2.953  10.088   1.874  0.0459 -1.0671  0.2619
18959TIP3   OH257758   7.328   8.875   8.133  0.1393  0.0562  0.5691
18959TIP3    H157759   7.261   8.941   8.150 -0.3517 -0.6222  1.4176
18959TIP3    H257760   7.320   8.855   8.040  0.9330  1.8355  0.0795
18960TIP3   OH257761   5.108   2.655   1.864 -0.1798 -0.4219  0.9774
18960TIP3    H157762   5.167   2.581   1.881 -1.0206 -1.4147 -0.2183
18960TIP3    H257763   5.041   2.648   1.931  0.9239  0.6064  2.2336
18961TIP3   OH257764   8.788   3.719   3.360 -0.3629 -0.6880 -0.0503
18961TIP3    H157765   8.876   3.757   3.355 -0.4557 -0.6128 -1.3719
18961TIP3    H257766   8.791   3.664   3.439  0.0857  1.2110  1.3531
18962TIP3   OH257767   3.807   6.838   2.853  0.0557 -0.2174  0.3331
18962TIP3    H157768   3.784   6.877   2.937 -1.4390  1.2622 -0.6970
18962TIP3    H257769   3.864   6.903   2.812  2.7713 -1.9580  1.0751
18963TIP3   OH257770   3.491   3.952   3.460 -0.4515 -0.0328 -0.8216
18963TIP3    H157771   3.410   3.936   3.412 -1.2502 -0.9407  0.7499
18963TIP3    H257772   3.467   4.018   3.526  0.9466  2.2152 -2.3861
18964TIP3   OH257773   4.442   2.179   8.663 -0.1395 -0.4079 -0.2557
18964TIP3    H157774   4.534   2.155   8.670  0.0100 -0.4106 -1.8733
18964TIP3    H257775   4.429   2.196   8.569 -1.3837  1.2016  0.1746
18965TIP3   OH257776   5.745   4.155   5.228  0.2078 -0.5672 -0.5659
18965TIP3    H157777   5.835   4.124   5.214  0.3032 -1.8807  2.2205
18965TIP3    H257778   5.756   4.237   5.277 -0.0678 -1.3177  0.7925
18966TIP3   OH257779   0.935  10.793   7.402 -0.3857 -0.4728  0.4720
18966TIP3    H157780   1.026  10.823   7.403 -0.6186  0.2540  1.4884
18966TIP3    H257781   0.905  10.812   7.313  0.5749 -1.1358 -0.0097
18967TIP3   OH257782   6.467   2.590   4.744  0.0255  0.6501  0.0409
18967TIP3    H157783   6.470   2.515   4.684  0.3027  1.2250 -0.6794
18967TIP3    H257784   6.453   2.551   4.830 -2.2400 -0.1102 -0.5985
18968TIP3   OH257785  10.573   8.532   0.001  0.2860  0.3429 -0.0309
18968TIP3    H157786  10.573   8.605  -0.060  2.0487  0.1336 -0.3364
18968TIP3    H257787  10.638   8.471  -0.034 -1.2882 -1.4889  0.0991
18969TIP3   OH257788   4.320   3.126   4.845 -0.1989 -0.1458 -0.5543
18969TIP3    H157789   4.263   3.173   4.907 -0.5494 -1.2090 -0.0534
18969TIP3    H257790   4.376   3.072   4.901  1.1492  0.6931 -1.0578
18970TIP3   OH257791   5.626   6.745   7.996  0.0977  0.0644  0.3245
18970TIP3    H157792   5.656   6.768   7.908 -0.1789 -2.6516 -0.5638
18970TIP3    H257793   5.532   6.760   7.995  0.2067  0.8276  0.4721
18971TIP3   OH257794   5.318   0.970   9.501 -0.2893 -0.0261  0.4904
18971TIP3    H157795   5.237   0.968   9.552 -0.1845 -1.1792  0.6443
18971TIP3    H257796   5.330   0.879   9.472  0.0919  0.4390 -0.8826
18972TIP3   OH257797   6.853   2.674   3.915  0.6680 -0.0432  0.6222
18972TIP3    H157798   6.886   2.690   4.003  1.5250  0.4193  0.2282
18972TIP3    H257799   6.904   2.600   3.882  0.4885 -0.0893  0.4436
18973TIP3   OH257800   5.130   7.938   6.543  0.3803 -0.1570  0.0011
18973TIP3    H157801   5.214   7.980   6.525  0.0550 -0.3335 -2.1210
18973TIP3    H257802   5.154   7.854   6.583  1.2066 -0.0918 -0.3263
18974TIP3   OH257803   1.739   8.922  10.334 -0.3295  0.2425  0.2231
18974TIP3    H157804   1.758   8.853  10.398  1.7827  0.7193  0.2139
18974TIP3    H257805   1.714   8.997  10.388 -1.0967 -0.0724  0.3199
18975TIP3   OH257806   7.763   5.206   2.796 -0.4019  0.0235  0.1030
18975TIP3    H157807   7.707   5.144   2.749 -1.3443  0.4670  0.6069
18975TIP3    H257808   7.704   5.248   2.859  0.7021 -0.1654  1.3085
18976TIP3   OH257809   4.356   9.990   2.710 -0.1749  0.4232 -0.1413
18976TIP3    H157810   4.300  10.032   2.645 -1.7369 -0.5123  0.5358
18976TIP3    H257811   4.327   9.899   2.711  1.1682 -0.0230  0.4680
18977TIP3   OH257812   8.110   1.428   2.693  0.1849  0.8117 -0.3122
18977TIP3    H157813   8.152   1.369   2.630 -1.3278 -0.1719 -0.4367
18977TIP3    H257814   8.032   1.381   2.722  0.4744  1.5457  1.8020
18978TIP3   OH257815   1.378   5.988   1.777  0.8890 -0.0859 -0.3268
18978TIP3    H157816   1.452   6.042   1.804 -0.6026  1.2432  1.3470
18978TIP3    H257817   1.379   5.992   1.682  0.4967  3.4891 -0.2980
18979TIP3   OH257818   8.395   6.504   6.302  0.0769 -0.4480 -0.7671
18979TIP3    H157819   8.463   6.467   6.358 -0.6691  0.3691  0.7467
18979TIP3    H257820   8.435   6.581   6.263 -0.3305  0.7863  1.1455
18980TIP3   OH257821   4.355   5.448   9.927 -0.2323 -0.3698  0.3100
18980TIP3    H157822   4.371   5.496   9.846  0.4412 -2.5082 -0.8736
18980TIP3    H257823   4.262   5.426   9.923  0.1167 -1.8032 -0.6927
18981TIP3   OH257824   6.828   3.200   5.600 -0.3248 -0.6363 -0.2744
18981TIP3    H157825   6.822   3.277   5.657 -1.3961 -0.2520 -0.8622
18981TIP3    H257826   6.885   3.139   5.647 -1.5344 -0.5224  1.4331
18982TIP3   OH257827   5.962   6.224   3.524  0.4545  0.7983  0.0654
18982TIP3    H157828   6.033   6.281   3.492 -0.6823  1.8840 -0.6419
18982TIP3    H257829   5.946   6.254   3.613  0.4511  1.0048 -0.0037
18983TIP3   OH257830   9.826   4.560   4.598 -0.2471 -0.6560  0.1303
18983TIP3    H157831   9.802   4.539   4.507  1.5852  0.5193 -0.6822
18983TIP3    H257832   9.764   4.627   4.624 -0.5643 -0.7440 -0.3842
18984TIP3   OH257833   5.305   8.849  10.624  0.6495  0.4083 -0.3878
18984TIP3    H157834   5.370   8.906  10.665 -0.8241  0.6616  1.7764
18984TIP3    H257835   5.275   8.898  10.548  2.5881  0.4874 -1.1711
18985TIP3   OH257836   5.646   7.199   5.877  0.1020  0.5294  0.1241
18985TIP3    H157837   5.641   7.290   5.909 -0.1061  0.1564  1.2098
18985TIP3    H257838   5.714   7.201   5.810  1.6660  1.0819  1.6361
18986TIP3   OH257839  10.215   6.361   8.548  0.8797  0.1713 -0.3644
18986TIP3    H157840  10.184   6.324   8.466 -3.0495  1.9077  0.0981
18986TIP3    H257841  10.153   6.328   8.614  0.7864  2.7862  0.9803
18987TIP3   OH257842  10.875   1.185   6.684  0.3221 -0.1063  0.2808
18987TIP3    H157843  10.951   1.228   6.722 -0.3054 -0.2530  1.7678
18987TIP3    H257844  10.902   1.093   6.675  0.1064 -0.3052  1.4832
18988TIP3   OH257845   5.109   2.516   1.512  0.5820 -0.2521  0.1403
18988TIP3    H157846   5.193   2.562   1.510 -0.1284  1.2169  1.4363
18988TIP3    H257847   5.124   2.441   1.570  0.7609  0.6145  1.2587
18989TIP3   OH257848   9.234   0.651   0.294 -0.0518 -0.1984 -0.3804
18989TIP3    H157849   9.265   0.716   0.357 -1.4516  0.3646 -0.2324
18989TIP3    H257850   9.313   0.623   0.248  1.1848 -1.4511  2.3199
18990TIP3   OH257851   4.207   2.755   6.503  0.7618 -0.5222  0.0259
18990TIP3    H157852   4.220   2.681   6.561 -0.3485 -0.3844  0.4893
18990TIP3    H257853   4.199   2.717   6.416 -0.8493 -1.0786  0.3881
18991TIP3   OH257854   5.262   1.015   8.153 -0.5512 -0.4664 -0.2476
18991TIP3    H157855   5.188   0.955   8.154 -0.5308 -0.5669 -1.9935
18991TIP3    H257856   5.320   0.981   8.084 -0.1067  1.0356 -0.6516
18992TIP3   OH257857   8.320   6.378  10.885 -0.1446  0.0737 -0.0998
18992TIP3    H157858   8.308   6.426  10.967  1.7889  0.4402  0.0089
18992TIP3    H257859   8.396   6.419  10.844  0.0838 -1.3381 -1.1691
18993TIP3   OH257860   0.614   8.543   1.834  0.4291  0.3249  0.2035
18993TIP3    H157861   0.556   8.497   1.895 -0.6907 -0.2642 -1.2493
18993TIP3    H257862   0.701   8.532   1.872 -0.0019 -1.6099  0.7519
18994TIP3   OH257863   1.424   7.544   9.286 -0.7916 -0.2969  0.0467
18994TIP3    H157864   1.363   7.559   9.358  0.2895  1.0855  0.7287
18994TIP3    H257865   1.469   7.462   9.310  0.9823  1.1412  2.0726
18995TIP3   OH257866   3.860  10.204   7.737 -0.1919 -0.0489  0.2002
18995TIP3    H157867   3.814  10.284   7.710  0.6921  0.1935 -0.6147
18995TIP3    H257868   3.936  10.198   7.679  0.9560 -0.3197  1.6735
18996TIP3   OH257869   0.108   4.548   9.699  0.5909 -0.1926  0.6994
18996TIP3    H157870   0.079   4.494   9.625  0.0782 -1.6524  1.9250
18996TIP3    H257871   0.063   4.632   9.686 -1.0276 -1.0699  0.3893
18997TIP3   OH257872   4.377  10.379  10.120 -0.6017  0.1836 -0.4713
18997TIP3    H157873   4.413  10.378  10.209 -0.3094 -1.0284 -0.5880
18997TIP3    H257874   4.359  10.472  10.103 -0.6156  0.4450  0.8259
18998TIP3   OH257875   1.328   3.761   4.086  0.6367  0.2417  0.3480
18998TIP3    H157876   1.387   3.687   4.103  0.6155  0.2651  0.5222
18998TIP3    H257877   1.243   3.732   4.118  0.4066 -0.0384 -0.4811
18999TIP3   OH257878   1.186   3.062   2.011 -0.2327 -0.3248  0.3151
18999TIP3    H157879   1.199   3.107   2.094 -1.3461 -1.1507  0.9573
18999TIP3    H257880   1.116   2.999   2.028 -1.2154  0.1819 -1.4917
19000TIP3   OH257881   8.965  10.500   2.687  0.3298  0.2676 -0.5565
19000TIP3    H157882   8.967  10.571   2.622 -2.4408 -1.0689 -2.3054
19000TIP3    H257883   9.028  10.436   2.654 -1.2642 -0.5309 -2.2347
19001TIP3   OH257884   9.331   4.802   9.867 -0.0709  0.0431 -0.7101
19001TIP3    H157885   9.310   4.818   9.959 -2.9769 -2.7705 -0.7012
19001TIP3    H257886   9.351   4.888   9.832 -3.0802  1.9162  1.6500
19002TIP3   OH257887   3.769   3.756   9.481  0.4235 -0.5518 -0.3036
19002TIP3    H157888   3.683   3.755   9.524 -0.1600  1.2145 -1.3547
19002TIP3    H257889   3.784   3.664   9.457 -2.5795 -0.5657 -2.7554
19003TIP3   OH257890  10.010   3.917   0.086 -0.1487 -0.3839  0.4316
19003TIP3    H157891  10.068   3.990   0.109  0.2138 -0.6436  0.3642
19003TIP3    H257892  10.052   3.841   0.127 -1.1696 -0.3709  1.5404
19004TIP3   OH257893   3.952   4.672   3.134  0.1852 -0.8051  0.2055
19004TIP3    H157894   3.887   4.625   3.082  1.1724 -0.9847 -0.9183
19004TIP3    H257895   4.021   4.607   3.150  0.4795 -0.3865  0.6621
19005TIP3   OH257896   1.055   0.513   2.474 -0.2734  0.1546 -0.0140
19005TIP3    H157897   0.977   0.471   2.437 -0.0711  0.8134 -1.2337
19005TIP3    H257898   1.128   0.471   2.429 -0.0108  0.8493 -0.2425
19006TIP3   OH257899   6.587   6.278   4.491 -0.6429  0.3136  0.0188
19006TIP3    H157900   6.505   6.316   4.459 -1.8125 -0.3107  2.1478
19006TIP3    H257901   6.575   6.270   4.585  1.3518 -1.0842  0.2025
19007TIP3   OH257902   2.221   3.186   5.030 -0.0075  0.4847 -0.1572
19007TIP3    H157903   2.133   3.225   5.033 -0.0238  0.4523 -0.2080
19007TIP3    H257904   2.223   3.140   4.946 -0.5815 -1.0062  0.6067
19008TIP3   OH257905   0.395   6.061   5.493 -0.0385 -0.0923  0.1290
19008TIP3    H157906   0.306   6.095   5.491  0.0108  0.0815  0.6499
19008TIP3    H257907   0.447   6.132   5.531  0.4658  0.1278 -0.9519
19009TIP3   OH257908   3.604   8.292   1.498 -0.0398  0.1011 -0.4235
19009TIP3    H157909   3.540   8.274   1.567 -0.8324  0.3618 -1.0745
19009TIP3    H257910   3.568   8.368   1.451 -0.3633 -1.0315 -2.1147
19010TIP3   OH257911   2.215   8.599   6.946 -0.0678  0.2518 -0.0393
19010TIP3    H157912   2.213   8.504   6.941  2.8812 -0.0728  2.2242
19010TIP3    H257913   2.149   8.621   7.012  0.7051 -0.4478  0.9868
19011TIP3   OH257914   7.414   5.959   6.788  0.1947 -0.2105  0.3757
19011TIP3    H157915   7.430   5.976   6.880 -0.4819 -0.0465  0.4693
19011TIP3    H257916   7.400   5.864   6.783  0.9101 -0.3202  0.3282
19012TIP3   OH257917   0.909   4.695   4.396  0.0603  0.2600  0.4904
19012TIP3    H157918   0.942   4.609   4.371 -1.2440 -0.0300 -0.3596
19012TIP3    H257919   0.853   4.678   4.472 -1.8369 -0.0130 -0.8890
19013TIP3   OH257920   0.496   2.159   1.779 -0.7011 -0.4165 -0.0781
19013TIP3    H157921   0.460   2.092   1.837  1.9008 -1.4191  0.5473
19013TIP3    H257922   0.551   2.110   1.717 -0.5200  0.9555 -1.0397
19014TIP3   OH257923   9.956  10.769   6.437  0.0549  0.0599 -0.5127
19014TIP3    H157924   9.880  10.816   6.472 -0.7523 -1.1648 -0.5780
19014TIP3    H257925  10.029  10.798   6.492 -0.2665  1.9327 -1.0100
19015TIP3   OH257926   1.182   9.691   1.645  0.2389  0.0355  0.2262
19015TIP3    H157927   1.205   9.622   1.707 -0.1958 -0.6520 -0.3609
19015TIP3    H257928   1.104   9.732   1.682  0.1392 -0.1935  0.2725
19016TIP3   OH257929   4.599   7.380   8.920 -0.3045  0.5654  0.4640
19016TIP3    H157930   4.593   7.407   8.829  2.4182 -0.4765 -0.1396
19016TIP3    H257931   4.608   7.461   8.970 -0.6186  1.0948 -0.3391
19017TIP3   OH257932   1.278   5.066   9.010 -0.7082 -0.1280 -0.8390
19017TIP3    H157933   1.335   5.130   8.967 -1.2354  0.9065 -0.0632
19017TIP3    H257934   1.329   4.985   9.010  0.7519  0.7266 -0.2564
19018TIP3   OH257935   4.364   9.332   7.374 -0.6429 -0.4460  0.6470
19018TIP3    H157936   4.307   9.338   7.451 -0.2511 -1.4000  1.0262
19018TIP3    H257937   4.453   9.339   7.410 -0.4829  1.1312  0.0581
19019TIP3   OH257938   8.936   0.671   5.965 -0.1808  0.1935  0.3168
19019TIP3    H157939   8.912   0.587   5.927  1.5369 -0.0408 -0.3362
19019TIP3    H257940   9.014   0.653   6.016 -0.9884  1.0136  1.9251
19020TIP3   OH257941   3.241   1.180   1.504  0.4337 -0.5772  0.1165
19020TIP3    H157942   3.151   1.212   1.505  1.5748  3.1140  2.0157
19020TIP3    H257943   3.251   1.134   1.588  0.4330 -0.6756  0.0631
19021TIP3   OH257944   3.850   3.890   2.084  0.2369 -0.0932 -0.0733
19021TIP3    H157945   3.857   3.984   2.072  0.1460 -0.1966 -1.0211
19021TIP3    H257946   3.833   3.856   1.996  1.3684 -1.0934  0.0692
19022TIP3   OH257947   0.758   4.157   2.543  0.0076 -0.8540 -0.2502
19022TIP3    H157948   0.766   4.238   2.594  2.3690 -0.3658 -1.2668
19022TIP3    H257949   0.806   4.092   2.593 -0.6332 -1.2596 -0.1592
19023TIP3   OH257950   4.470   6.661   0.120 -0.0470  0.2167  0.2090
19023TIP3    H157951   4.457   6.710   0.038  1.8495  1.3540  0.5358
19023TIP3    H257952   4.424   6.712   0.186  1.2011  1.1576  0.3946
19024TIP3   OH257953   4.106   3.954   2.338  0.0349 -0.3306  0.2467
19024TIP3    H157954   4.092   3.947   2.432 -0.4548  0.5865  0.2518
19024TIP3    H257955   4.195   3.987   2.329  0.1092 -0.4949  0.3864
19025TIP3   OH257956  10.055   2.024   1.038 -0.1016 -0.7050 -0.1288
19025TIP3    H157957  10.071   2.067   1.122 -0.7810 -0.3096 -0.1885
19025TIP3    H257958   9.970   1.981   1.049  0.3156 -1.5814 -0.2557
19026TIP3   OH257959   3.789  10.328   7.052 -0.2119  0.1917 -0.7538
19026TIP3    H157960   3.818  10.278   6.975  2.4543 -0.6238  0.6406
19026TIP3    H257961   3.737  10.266   7.103 -0.3988  0.1405 -1.0058
19027TIP3   OH257962   6.877  10.232  10.311  0.3516  0.1185 -0.1136
19027TIP3    H157963   6.866  10.322  10.342  0.4386 -1.0576  3.9116
19027TIP3    H257964   6.788  10.199  10.297  0.1005 -0.0994  1.7502
19028TIP3   OH257965   9.287   0.579   4.311  0.2436  0.1197 -0.1848
19028TIP3    H157966   9.245   0.661   4.336  0.0481 -0.4824  1.5983
19028TIP3    H257967   9.223   0.537   4.253 -0.8215  0.0571  0.9956
19029TIP3   OH257968   6.095   1.487   8.061  0.3220  0.0603  0.3748
19029TIP3    H157969   6.057   1.463   7.976 -0.7704 -0.3242  0.9520
19029TIP3    H257970   6.084   1.409   8.115  0.8304  0.3711  0.9299
19030TIP3   OH257971   9.281   3.749   2.489  0.3605 -0.3483 -0.5479
19030TIP3    H157972   9.358   3.776   2.539 -0.9750 -1.4591  2.3006
19030TIP3    H257973   9.290   3.654   2.479 -0.2734 -0.3777 -0.8994
19031TIP3   OH257974   8.443   4.284  10.144 -0.1637  0.1247  0.4362
19031TIP3    H157975   8.407   4.197  10.159 -2.8624  0.8995 -0.8772
19031TIP3    H257976   8.430   4.331  10.226 -0.9296 -0.0154  0.3976
19032TIP3   OH257977  10.707   3.823   4.834  0.1808 -0.2472 -0.8847
19032TIP3    H157978  10.688   3.800   4.925  2.2523 -0.5972 -0.4901
19032TIP3    H257979  10.622   3.850   4.798 -0.8732 -1.0395  0.8516
19033TIP3   OH257980   0.383   9.090   6.437 -0.3591  0.3454  0.4937
19033TIP3    H157981   0.374   8.994   6.431  0.5390  0.3265 -1.7521
19033TIP3    H257982   0.293   9.121   6.445 -0.6934 -0.6770  0.9437
19034TIP3   OH257983   7.531   2.188   5.107 -0.0828  0.5576 -0.0486
19034TIP3    H157984   7.559   2.205   5.197 -2.5277  2.9998  0.3834
19034TIP3    H257985   7.569   2.260   5.056 -0.2332  0.2248 -0.6338
19035TIP3   OH257986   5.462   0.628   1.685 -0.5463 -0.3972 -0.6745
19035TIP3    H157987   5.525   0.563   1.653 -0.3270 -0.1763 -0.7031
19035TIP3    H257988   5.502   0.712   1.662 -1.1020 -0.2558 -1.1641
19036TIP3   OH257989   3.232   6.577   9.626 -0.5802  0.1619  0.1804
19036TIP3    H157990   3.203   6.629   9.551 -0.0981 -0.0854 -0.1841
19036TIP3    H257991   3.159   6.519   9.645 -0.8685  0.5192  0.1704
19037TIP3   OH257992  10.652   4.038   8.719  0.1949 -0.2693 -0.0442
19037TIP3    H157993  10.639   3.944   8.705 -0.8619 -0.1243 -0.1129
19037TIP3    H257994  10.636   4.078   8.634 -0.3971  0.0671  0.2180
19038TIP3   OH257995   7.686   7.598   0.975 -0.9597 -0.0316  0.5873
19038TIP3    H157996   7.699   7.504   0.960  2.1411  0.5258 -1.0137
19038TIP3    H257997   7.725   7.614   1.061 -0.2238 -0.0213  0.2600
19039TIP3   OH257998  10.377   0.820  10.884  0.2922  0.1196  0.4866
19039TIP3    H157999  10.292   0.862  10.870  0.3151 -0.0970 -0.3542
19039TIP3    H258000  10.376   0.794  10.976 -0.7132 -0.2280  0.3944
19040TIP3   OH258001   5.011   0.567   0.386  0.4122  0.1209 -0.2985
19040TIP3    H158002   5.076   0.637   0.394  2.6253 -1.9155  1.0640
19040TIP3    H258003   5.060   0.487   0.404 -1.8478 -1.8924 -2.3849
19041TIP3   OH258004   0.690   7.150   6.911  0.2108  0.6350 -0.2708
19041TIP3    H158005   0.726   7.169   6.825 -0.9402  0.7866 -0.7415
19041TIP3    H258006   0.618   7.213   6.921 -0.6648 -0.3893  0.1242
19042TIP3   OH258007  10.125   6.229   0.357 -0.4023  0.0890 -0.5459
19042TIP3    H158008  10.160   6.145   0.325 -0.0807  0.7082 -1.8822
19042TIP3    H258009  10.203   6.277   0.386 -0.1344  1.2028 -2.8923
19043TIP3   OH258010   3.159   0.416   5.277 -0.4283 -0.1924 -0.0082
19043TIP3    H158011   3.240   0.460   5.302 -0.1857  0.1271 -1.2845
19043TIP3    H258012   3.138   0.452   5.191 -1.6140 -0.7035  0.0506
19044TIP3   OH258013   0.056   6.530   2.436  0.3324  0.1222 -0.3204
19044TIP3    H158014   0.004   6.576   2.502 -0.9940 -0.7365 -0.7435
19044TIP3    H258015   0.138   6.510   2.481  0.1438  1.0966  0.4978
19045TIP3   OH258016  10.657   4.800   8.330  0.1184  0.6728 -0.3193
19045TIP3    H158017  10.688   4.729   8.387  0.5876  0.5756 -0.6840
19045TIP3    H258018  10.731   4.816   8.271 -1.2553 -0.9726 -2.6033
19046TIP3   OH258019   5.304   2.940   3.847  0.2589 -0.6085 -0.3310
19046TIP3    H158020   5.234   3.005   3.861  0.4613 -0.6451  1.0187
19046TIP3    H258021   5.382   2.992   3.830  0.1448 -0.5312 -0.6140
19047TIP3   OH258022   0.470  10.315   7.675 -0.6884 -0.5439  0.0967
19047TIP3    H158023   0.439  10.259   7.746 -3.7156 -0.0468 -0.6883
19047TIP3    H258024   0.474  10.402   7.713 -3.0020 -0.1506 -0.4032
19048TIP3   OH258025   4.519   6.768   0.643 -0.4315  0.4550 -0.2823
19048TIP3    H158026   4.511   6.783   0.737  0.2966  1.6306 -0.3930
19048TIP3    H258027   4.541   6.853   0.607  5.4501 -0.8692 -0.8301
19049TIP3   OH258028   3.132   3.756   6.557  0.1539 -0.1756  0.1843
19049TIP3    H158029   3.226   3.743   6.567  0.5095  1.0820 -1.1452
19049TIP3    H258030   3.101   3.676   6.513  0.7919 -0.1569 -0.3132
19050TIP3   OH258031   9.515   2.697   2.731  0.0576  0.0858  0.1592
19050TIP3    H158032   9.463   2.721   2.654  0.7461 -2.4003 -1.1871
19050TIP3    H258033   9.598   2.743   2.719 -1.0235  2.5884  1.3793
19051TIP3   OH258034   9.557   8.273   4.361 -0.1280  0.3407  0.1231
19051TIP3    H158035   9.477   8.282   4.412  0.6224 -1.7215  1.8325
19051TIP3    H258036   9.530   8.290   4.271 -2.1282  1.2748  0.8363
19052TIP3   OH258037   7.153   8.834   5.298  0.2552 -0.3768 -0.2995
19052TIP3    H158038   7.245   8.829   5.320  0.2692 -1.9508 -0.6317
19052TIP3    H258039   7.107   8.820   5.381  0.3233 -1.3945 -0.4234
19053TIP3   OH258040   4.320   2.125   0.462  0.1851 -0.0297 -0.4651
19053TIP3    H158041   4.224   2.129   0.465  0.0720 -2.0917 -0.2699
19053TIP3    H258042   4.348   2.155   0.549 -0.3890 -1.2240  0.1563
19054TIP3   OH258043   8.097  10.481   2.248 -0.3458  0.5898 -0.3721
19054TIP3    H158044   8.061  10.406   2.201 -0.6652 -0.2939  1.2025
19054TIP3    H258045   8.133  10.444   2.328  0.4090  2.0019 -0.0314
19055TIP3   OH258046  10.514   1.015   4.447 -0.1058 -0.1605 -0.6439
19055TIP3    H158047  10.569   1.051   4.378  0.8122  0.6570  0.4804
19055TIP3    H258048  10.575   0.989   4.516 -1.0958  0.4718  0.5013
19056TIP3   OH258049   1.589   5.767   8.044  0.0059 -0.5053 -0.2842
19056TIP3    H158050   1.647   5.750   8.118 -1.8910 -2.9756  0.7723
19056TIP3    H258051   1.507   5.795   8.084 -0.1445  1.1922 -1.6560
19057TIP3   OH258052   8.575   9.186   9.825 -0.0781  0.0079 -0.2687
19057TIP3    H158053   8.617   9.272   9.832  1.5176 -0.8096  0.6866
19057TIP3    H258054   8.564   9.172   9.731  0.7527  0.7514 -0.4863
19058TIP3   OH258055   2.047   9.994   3.504 -0.3180  0.0066  0.0070
19058TIP3    H158056   2.025   9.988   3.411  0.0672  0.1629 -0.0953
19058TIP3    H258057   2.072  10.086   3.517  0.2743 -0.1653  0.1179
19059TIP3   OH258058   7.571   4.900  10.014 -0.2877 -0.0853 -0.8009
19059TIP3    H158059   7.646   4.880  10.069 -0.6832 -0.3924 -0.3695
19059TIP3    H258060   7.573   4.996  10.005 -0.4824  0.0198  0.1330
19060TIP3   OH258061   2.569   8.793   0.540  0.0532  0.4624 -0.1345
19060TIP3    H158062   2.479   8.797   0.509 -0.4749 -0.6393  1.1187
19060TIP3    H258063   2.562   8.762   0.631  1.4683  3.3695  1.1375
19061TIP3   OH258064   1.500   8.274   6.060  0.3066 -0.0084 -0.2414
19061TIP3    H158065   1.565   8.204   6.072 -0.8632 -0.9400  0.7972
19061TIP3    H258066   1.488   8.311   6.147  2.6420  3.1980 -1.0574
19062TIP3   OH258067   8.635   8.889   4.206 -0.9915  0.7862  0.4831
19062TIP3    H158068   8.562   8.908   4.147  0.0789  0.7917 -0.8887
19062TIP3    H258069   8.653   8.796   4.193 -1.6609  0.4166  1.9231
19063TIP3   OH258070   9.288   4.197   9.369 -0.2185 -0.1807  0.3965
19063TIP3    H158071   9.285   4.122   9.429  0.8902 -0.0114  0.6792
19063TIP3    H258072   9.315   4.271   9.424 -0.9101  0.3568  0.0360
19064TIP3   OH258073   4.208   2.669  10.015  0.0009 -0.1572 -0.1813
19064TIP3    H158074   4.170   2.591   9.974  1.9642 -1.1684 -0.2059
19064TIP3    H258075   4.136   2.709  10.062 -0.7950 -2.8286  1.0595
19065TIP3   OH258076   7.002   3.067   7.846  0.1693  0.6877 -0.0749
19065TIP3    H158077   7.098   3.068   7.846  0.1801  1.1186  1.3804
19065TIP3    H258078   6.979   2.996   7.786  1.3879  0.5907 -0.4585
19066TIP3   OH258079   9.993   8.098   5.250  0.3848 -0.3722 -0.6879
19066TIP3    H158080   9.903   8.128   5.242  0.2197 -0.1755  1.3477
19066TIP3    H258081  10.042   8.177   5.273  0.4748 -1.0086  1.5347
19067TIP3   OH258082   1.856   8.811  10.904  0.0486 -0.1673 -0.1285
19067TIP3    H158083   1.884   8.783  10.817 -0.7563  0.3589 -0.5722
19067TIP3    H258084   1.911   8.887  10.924 -0.7331  0.6016 -0.8122
19068TIP3   OH258085   2.046   0.999   6.992 -0.1959  0.0840 -0.2991
19068TIP3    H158086   1.969   1.055   7.006 -0.3088  0.1143 -0.9812
19068TIP3    H258087   2.018   0.938   6.924  0.4255  0.1773 -0.6420
19069TIP3   OH258088   4.321   2.311   3.160  0.0538  0.2614  0.0540
19069TIP3    H158089   4.321   2.263   3.243 -2.0878  1.0935  0.5814
19069TIP3    H258090   4.352   2.247   3.096 -0.2713 -1.0404  1.1537
19070TIP3   OH258091   3.793   8.483   0.046 -0.2548 -0.1628  0.2232
19070TIP3    H158092   3.803   8.448   0.134  0.2222 -1.3738 -0.2948
19070TIP3    H258093   3.867   8.544   0.035  0.7957 -1.4432  0.0014
19071TIP3   OH258094   5.192   6.109  10.577 -0.0874  0.5446  0.3471
19071TIP3    H158095   5.137   6.066  10.643 -1.4898  0.3849 -0.8660
19071TIP3    H258096   5.161   6.072  10.494  1.3083  1.0948 -0.4328
19072TIP3   OH258097   2.211   7.597   6.353 -0.2349  0.1285  0.4268
19072TIP3    H158098   2.156   7.674   6.367 -0.1773 -0.0608  1.9194
19072TIP3    H258099   2.266   7.593   6.432  1.1593 -0.3038 -0.5330
19073TIP3   OH258100   2.753   2.877  10.815  0.3255  0.5569  0.1602
19073TIP3    H158101   2.718   2.881  10.726 -2.7692 -2.7100  1.0229
19073TIP3    H258102   2.840   2.837  10.804  0.2368  0.7254 -1.4192
19074TIP3   OH258103   0.750  10.058   8.950 -0.0278 -0.4855 -0.3036
19074TIP3    H158104   0.692  10.128   8.979  0.1112  0.9170 -3.1459
19074TIP3    H258105   0.699   9.978   8.965 -1.7519  0.5164 -0.5487
19075TIP3   OH258106   1.304   3.955   9.741  0.2292 -0.2932 -0.2335
19075TIP3    H158107   1.257   3.939   9.659  0.0333 -0.7459 -0.0382
19075TIP3    H258108   1.363   3.879   9.749  2.1814  1.0297 -1.3001
19076TIP3   OH258109   0.976   6.477   8.827  0.1745 -0.0926 -0.4175
19076TIP3    H158110   1.005   6.476   8.918  2.7048 -0.4591 -1.1442
19076TIP3    H258111   1.006   6.393   8.792 -0.8169  0.0201 -1.6018
19077TIP3   OH258112   2.658  10.466   5.249  0.0062  0.6570 -0.1164
19077TIP3    H158113   2.569  10.499   5.235  0.1318  0.3290 -1.9504
19077TIP3    H258114   2.706  10.540   5.285 -0.6705  1.2885 -0.4777
19078TIP3   OH258115   5.696   8.841   9.280  0.0543 -0.3336  0.2281
19078TIP3    H158116   5.666   8.781   9.212  2.1042  1.0515 -2.0639
19078TIP3    H258117   5.775   8.800   9.315  0.0182 -0.1828  0.4907
19079TIP3   OH258118   0.587   6.287   0.617  0.3946  0.2339  0.5611
19079TIP3    H158119   0.665   6.239   0.592  1.3425  1.5240  0.9466
19079TIP3    H258120   0.581   6.277   0.712 -1.4988 -2.1382  0.2853
19080TIP3   OH258121   8.112   5.145   5.401  0.2245 -0.2398 -0.2612
19080TIP3    H158122   8.105   5.167   5.494 -1.4499 -0.3681 -0.3237
19080TIP3    H258123   8.132   5.052   5.399 -0.2999 -0.3595 -0.0218
19081TIP3   OH258124   5.146   2.180   8.071 -0.0585  0.0375 -0.1270
19081TIP3    H158125   5.162   2.170   7.977  0.3200 -0.0369 -0.0538
19081TIP3    H258126   5.214   2.240   8.100  0.3362 -0.5851  0.2582
19082TIP3   OH258127   7.600   5.742   1.506  0.6346 -0.7612  0.9762
19082TIP3    H158128   7.525   5.743   1.565  0.4921 -0.3571  0.7924
19082TIP3    H258129   7.663   5.801   1.547 -0.5109  1.7277 -0.5933
19083TIP3   OH258130   6.367   8.575   6.556  0.3622 -0.4000 -0.2283
19083TIP3    H158131   6.419   8.567   6.636 -0.8534  0.6279  0.7008
19083TIP3    H258132   6.278   8.591   6.587 -0.5379 -2.0176 -1.7700
19084TIP3   OH258133   9.318   2.810  10.666 -0.0521  0.1393  0.3729
19084TIP3    H158134   9.323   2.895  10.621  0.0814  0.3667  0.8153
19084TIP3    H258135   9.386   2.815  10.733  0.7887 -0.7742 -0.3626
19085TIP3   OH258136   7.789   5.060   6.779  0.2608 -0.1055  0.1917
19085TIP3    H158137   7.883   5.051   6.793  0.3982  1.6554  0.6378
19085TIP3    H258138   7.750   5.048   6.866  0.2247  0.6033  0.2848
19086TIP3   OH258139   8.227   1.962   0.771  0.2881  0.0911  0.1046
19086TIP3    H158140   8.262   2.024   0.706  0.0883 -0.0933 -0.1822
19086TIP3    H258141   8.213   1.881   0.721  1.1599 -0.3916  0.6156
19087TIP3   OH258142   3.157   2.825   9.345 -0.2979  0.2873  0.7861
19087TIP3    H158143   3.226   2.868   9.395 -1.1708  1.2364  1.1915
19087TIP3    H258144   3.172   2.731   9.359  2.4498  0.2763 -1.1641
19088TIP3   OH258145   2.430   4.336   1.283 -0.2727 -0.6288 -0.1011
19088TIP3    H158146   2.413   4.424   1.316  1.3360 -0.2011 -0.3183
19088TIP3    H258147   2.396   4.278   1.351 -0.6038  0.1784  0.4378
19089TIP3   OH258148   3.410   6.044   1.524 -0.0859 -0.3219 -0.1435
19089TIP3    H158149   3.399   6.046   1.619  0.3884  0.5610 -0.0894
19089TIP3    H258150   3.376   5.959   1.497 -0.6206 -0.4098  0.7673
19090TIP3   OH258151   5.892   1.489  10.504  0.1702  0.0417 -0.2871
19090TIP3    H158152   5.912   1.526  10.590  0.0512 -0.2424 -0.1388
19090TIP3    H258153   5.824   1.547  10.468 -0.1334 -0.1246  0.0137
19091TIP3   OH258154   3.788   0.893   3.508 -0.0480 -0.0081  0.1674
19091TIP3    H158155   3.818   0.911   3.597 -0.2846 -1.0092  0.4630
19091TIP3    H258156   3.750   0.805   3.513 -0.0368 -0.0867 -0.9295
19092TIP3   OH258157   7.069   8.398   8.411 -0.0661  0.0960 -0.2053
19092TIP3    H158158   7.057   8.433   8.323  0.3812  0.9696  0.0698
19092TIP3    H258159   7.153   8.352   8.408 -0.8020 -1.2764 -0.6539
19093TIP3   OH258160   2.856   9.847   8.837  0.1990  0.0076 -0.2117
19093TIP3    H158161   2.860   9.937   8.870 -0.8528  0.7276 -1.9143
19093TIP3    H258162   2.763   9.826   8.840 -0.1270  0.5162 -3.5662
19094TIP3   OH258163   9.706   7.140   3.333 -0.1411 -0.5260 -0.0504
19094TIP3    H158164   9.650   7.134   3.410  0.3224 -1.3542  0.2438
19094TIP3    H258165   9.784   7.089   3.357 -0.8346 -2.5460 -1.7854
19095TIP3   OH258166   0.901   5.648   3.683  0.0399 -0.2956 -0.0221
19095TIP3    H158167   0.833   5.702   3.721 -2.6919 -2.6878 -1.1205
19095TIP3    H258168   0.911   5.682   3.594 -0.1540 -0.3111 -0.0500
19096TIP3   OH258169   1.069   1.582   2.174 -0.5087  0.0081  0.3795
19096TIP3    H158170   0.983   1.550   2.147 -0.2641  0.1680 -0.6185
19096TIP3    H258171   1.108   1.615   2.094 -0.3671  1.9273  1.1802
19097TIP3   OH258172   9.971   3.608   5.385  0.1571 -0.1649 -0.0243
19097TIP3    H158173  10.052   3.595   5.335 -0.3403 -1.6293 -0.5110
19097TIP3    H258174   9.999   3.652   5.465  1.6730 -1.8338  0.4324
19098TIP3   OH258175   4.419   3.357   6.069 -0.1478 -0.1467  0.4425
19098TIP3    H158176   4.410   3.441   6.112 -0.1435 -0.1241  0.3998
19098TIP3    H258177   4.404   3.292   6.138 -0.1626 -0.1111  0.4723
19099TIP3   OH258178   2.202   7.012   1.951  0.1697  0.3456  0.2807
19099TIP3    H158179   2.271   6.973   1.897  0.0094  0.2164  0.1680
19099TIP3    H258180   2.206   6.965   2.034  0.0432  0.1583  0.1806
19100TIP3   OH258181   2.613   7.842   1.761  0.5307 -0.2756 -0.4556
19100TIP3    H158182   2.674   7.812   1.828 -0.8862 -0.6061  0.7380
19100TIP3    H258183   2.603   7.936   1.779 -0.3827 -0.4998  0.2640
19101TIP3   OH258184   6.517  10.663   4.957  0.0516 -0.5299  0.5372
19101TIP3    H158185   6.441  10.614   4.925  0.2272  0.2321 -1.1403
19101TIP3    H258186   6.530  10.731   4.892  2.3435 -0.8090  0.6425
19102TIP3   OH258187   5.990   2.735   5.756  0.1388  0.8236  0.2850
19102TIP3    H158188   6.049   2.763   5.685  2.0036 -0.2332  1.3380
19102TIP3    H258189   6.017   2.645   5.774 -0.2838  1.0763  2.3325
19103TIP3   OH258190   9.333   0.810   7.260  0.1618 -1.0831  0.5714
19103TIP3    H158191   9.350   0.852   7.176 -2.2010  0.8897  0.9927
19103TIP3    H258192   9.408   0.835   7.314  0.0061  0.6179  0.0638
19104TIP3   OH258193   6.287   0.417   4.417  0.3333  0.3052 -0.1481
19104TIP3    H158194   6.233   0.433   4.494  0.9842 -0.4221  0.4708
19104TIP3    H258195   6.226   0.418   4.344 -0.4912 -0.3124  0.5136
19105TIP3   OH258196   2.026   6.399   8.638 -0.5841 -0.2641 -0.2174
19105TIP3    H158197   2.006   6.306   8.641 -1.1975 -0.1085  1.4254
19105TIP3    H258198   2.091   6.408   8.569  1.5684 -2.2990  1.4252
19106TIP3   OH258199   1.868   2.096   5.415  0.3755 -0.4574  0.6145
19106TIP3    H158200   1.831   2.180   5.444  1.4825 -0.2277  1.4127
19106TIP3    H258201   1.814   2.071   5.340 -1.5328 -0.2511  1.8384
19107TIP3   OH258202  10.020   8.142   8.705 -0.5623 -0.5473 -0.6196
19107TIP3    H158203  10.066   8.192   8.772 -1.8176 -1.3087  0.8694
19107TIP3    H258204  10.061   8.169   8.623 -0.1256  1.6877  0.2664
19108TIP3   OH258205   1.747   3.961   1.638 -0.2697 -0.1789  0.3004
19108TIP3    H158206   1.766   3.901   1.709 -1.4960  1.7637  2.4181
19108TIP3    H258207   1.826   4.015   1.630  0.6186 -1.6134 -1.2281
19109TIP3   OH258208   4.487   3.276  10.758  0.3375  0.8150 -0.4886
19109TIP3    H158209   4.428   3.324  10.700  0.2356  0.7468 -0.4436
19109TIP3    H258210   4.441   3.193  10.774  1.1565  0.0803 -1.7380
19110TIP3   OH258211  10.395   8.616   5.727  0.0887 -0.3240 -0.3245
19110TIP3    H158212  10.320   8.564   5.699  0.7651 -0.6901 -1.5668
19110TIP3    H258213  10.385   8.700   5.681 -0.4323  0.2694  0.8331
19111TIP3   OH258214  10.031   4.239   0.918 -0.6422  0.0281  0.4558
19111TIP3    H158215  10.098   4.222   0.984 -1.4629 -0.4515  1.1944
19111TIP3    H258216   9.985   4.156   0.909 -4.4261  1.4426  3.7804
19112TIP3   OH258217   0.746   8.960   5.345 -0.3822 -0.1662 -0.1307
19112TIP3    H158218   0.712   8.926   5.262  0.6903 -0.9615 -0.2633
19112TIP3    H258219   0.827   9.006   5.320  0.9006 -1.8977  0.6369
19113TIP3   OH258220   9.332   3.397   0.053 -0.6687 -0.1764 -0.1975
19113TIP3    H158221   9.355   3.477   0.100 -0.6986  2.0450 -3.6440
19113TIP3    H258222   9.239   3.408   0.031 -0.3229 -0.3832 -1.9397
19114TIP3   OH258223   0.999   7.712   5.227  0.0583  0.7910  0.1650
19114TIP3    H158224   0.974   7.688   5.139 -0.1022 -1.3655  0.7554
19114TIP3    H258225   0.917   7.718   5.276  0.2907 -1.5675  0.9646
19115TIP3   OH258226   9.005   4.507   4.382 -0.6492  0.0485 -0.1890
19115TIP3    H158227   9.016   4.574   4.315 -0.6427  1.4792  1.1838
19115TIP3    H258228   9.032   4.426   4.340 -0.4999  0.9237 -1.8516
19116TIP3   OH258229  10.306   1.754   7.457  0.0987  0.3209 -0.2551
19116TIP3    H158230  10.305   1.679   7.397 -1.7130 -0.1755  0.3413
19116TIP3    H258231  10.311   1.714   7.544 -1.4404  0.8369  0.0967
19117TIP3   OH258232   5.456   5.257   2.906 -0.2357 -0.2388  0.3522
19117TIP3    H158233   5.535   5.251   2.961 -0.4098 -1.7866  0.4637
19117TIP3    H258234   5.453   5.175   2.858 -2.2775 -0.6215  1.0254
19118TIP3   OH258235   2.618   3.059   8.682 -0.0683 -0.4330  0.4574
19118TIP3    H158236   2.567   3.042   8.761  1.0791 -2.3262  0.8475
19118TIP3    H258237   2.709   3.046   8.709  0.3671 -0.7312 -1.0632
19119TIP3   OH258238   9.108   5.511   2.730  0.0760 -0.1635  0.4375
19119TIP3    H158239   9.161   5.458   2.671 -0.6921 -0.6803  0.1870
19119TIP3    H258240   9.157   5.592   2.741  1.1841 -0.8558  0.6864
19120TIP3   OH258241  10.168   6.615   9.520  0.3529  0.6296  0.2867
19120TIP3    H158242  10.257   6.646   9.510  0.5800  0.0668  0.4898
19120TIP3    H258243  10.113   6.689   9.496  0.8741  0.8682 -0.1795
19121TIP3   OH258244   8.624   4.849   0.307  0.2688 -0.5532 -0.0128
19121TIP3    H158245   8.552   4.903   0.339  1.0197  0.5701 -0.1537
19121TIP3    H258246   8.585   4.763   0.292 -1.7250  0.6660 -2.6223
19122TIP3   OH258247   8.498  10.067   8.374 -0.4452 -0.5296 -0.0050
19122TIP3    H158248   8.450  10.146   8.402 -0.2730 -0.5882  0.4598
19122TIP3    H258249   8.449   9.994   8.412 -1.0053 -0.6910 -1.0217
19123TIP3   OH258250   3.758   7.096   7.356  0.1230  0.4472 -0.1115
19123TIP3    H158251   3.820   7.061   7.291 -1.1611  0.0833 -1.1890
19123TIP3    H258252   3.807   7.165   7.401  0.8352  1.2770 -2.0213
19124TIP3   OH258253   3.858   2.241   4.744 -0.4734  0.6474  0.1236
19124TIP3    H158254   3.820   2.311   4.690 -0.3812 -0.4066 -1.3810
19124TIP3    H258255   3.949   2.267   4.755 -0.5672  1.0313  0.0238
19125TIP3   OH258256   7.329   2.110   5.296 -0.1479  0.4731  0.1532
19125TIP3    H158257   7.271   2.186   5.306 -1.8733 -0.5106 -1.5642
19125TIP3    H258258   7.381   2.130   5.218 -1.6264 -0.6239 -1.1877
19126TIP3   OH258259   1.664   8.535   7.809 -0.2203  0.1629  0.4615
19126TIP3    H158260   1.700   8.562   7.893  0.6830  2.2545 -0.5334
19126TIP3    H258261   1.593   8.597   7.793  1.1150  1.3154 -1.3337
19127TIP3   OH258262   3.174   5.336   4.331  0.5758  0.2055 -0.6206
19127TIP3    H158263   3.211   5.401   4.271  0.9161  2.1958  1.5908
19127TIP3    H258264   3.135   5.388   4.401 -0.7121 -1.9924  0.3886
19128TIP3   OH258265   5.891   5.091   1.095  0.2678 -0.0182 -0.1503
19128TIP3    H158266   5.815   5.039   1.119 -0.3866  0.6923 -0.6165
19128TIP3    H258267   5.911   5.064   1.005 -0.0014  0.4386 -0.3511
19129TIP3   OH258268  10.225   6.215   1.098 -0.2888 -0.0096  0.4595
19129TIP3    H158269  10.187   6.180   1.178 -0.1878 -2.3257 -0.4428
19129TIP3    H258270  10.186   6.302   1.090  0.2164  0.5883  3.3382
19130TIP3   OH258271   0.367   7.511   4.275 -0.2523  0.5334 -0.4703
19130TIP3    H158272   0.347   7.593   4.230 -0.4092  0.4769 -0.5048
19130TIP3    H258273   0.439   7.473   4.224  0.0887  0.8402 -0.2187
19131TIP3   OH258274   8.204   5.399   0.046 -0.1545  0.4335 -0.2087
19131TIP3    H158275   8.235   5.387  -0.044 -0.6666 -2.3666 -0.0828
19131TIP3    H258276   8.109   5.393   0.039 -0.2319  0.8303  0.4491
19132TIP3   OH258277   3.295   7.787   4.968  0.1159 -0.0210  0.2733
19132TIP3    H158278   3.202   7.792   4.944 -0.9245 -3.0839  2.9436
19132TIP3    H258279   3.307   7.696   4.997  3.4874  0.7950  1.8894
19133TIP3   OH258280   2.625   3.118   7.422 -0.0742  0.8397 -0.5656
19133TIP3    H158281   2.630   3.197   7.369 -1.9559  1.0624 -0.5035
19133TIP3    H258282   2.563   3.062   7.376 -1.0621  0.6605  0.8951
19134TIP3   OH258283   8.121   3.599   7.131  0.4604 -0.6551  0.0899
19134TIP3    H158284   8.027   3.615   7.129  0.6424  0.5329  0.2884
19134TIP3    H258285   8.159   3.682   7.157  1.5962 -1.0162 -0.3421
19135TIP3   OH258286  10.045   9.899   1.552  0.5214 -0.6348 -0.4118
19135TIP3    H158287  10.133   9.882   1.586  0.9727  0.4159 -1.0188
19135TIP3    H258288   9.986   9.854   1.614  1.4118 -0.2517  0.7341
19136TIP3   OH258289   6.589   9.663   7.778 -0.1382 -0.3368 -0.2153
19136TIP3    H158290   6.534   9.586   7.766 -0.4067 -0.1446 -0.2218
19136TIP3    H258291   6.605   9.667   7.872  1.0802 -1.2281 -0.3608
19137TIP3   OH258292  10.635   1.081  10.140 -1.1989 -0.3420 -0.4624
19137TIP3    H158293  10.724   1.045  10.147  0.0612  2.4279 -0.8596
19137TIP3    H258294  10.597   1.037  10.065 -0.4309 -2.0583  0.1029
19138TIP3   OH258295   8.718   3.959   6.591 -0.1809 -0.1395  0.3965
19138TIP3    H158296   8.659   4.023   6.630 -1.1680 -1.2098  0.7326
19138TIP3    H258297   8.696   3.877   6.635  0.9273 -0.7436 -0.1457
19139TIP3   OH258298   1.847  10.812   4.612  0.4815 -0.5123  0.4347
19139TIP3    H158299   1.875  10.888   4.561  0.1974 -0.6574  0.0654
19139TIP3    H258300   1.906  10.741   4.585 -0.1667 -0.7939 -0.2769
19140TIP3   OH258301   5.114  10.859   3.828 -0.4954  0.5622 -0.0561
19140TIP3    H158302   5.119  10.767   3.803 -3.0779 -0.3854  2.3396
19140TIP3    H258303   5.187  10.873   3.887 -0.7330 -0.2787  0.4364
19141TIP3   OH258304   2.257   4.073   4.338  0.2319 -0.5344  0.1964
19141TIP3    H158305   2.195   4.020   4.288  0.0536 -1.5981  1.4963
19141TIP3    H258306   2.342   4.033   4.319  0.4588  0.4137 -0.9302
19142TIP3   OH258307   0.274   4.807   4.717  0.0711 -0.1859 -0.0525
19142TIP3    H158308   0.334   4.734   4.701 -0.5007 -0.7698  0.4173
19142TIP3    H258309   0.310   4.879   4.664  2.5330  0.2354  1.9885
19143TIP3   OH258310   4.110   1.289   1.886 -0.1130  0.6864 -0.1435
19143TIP3    H158311   4.035   1.233   1.905  0.6090 -0.1110  0.4311
19143TIP3    H258312   4.143   1.314   1.972  1.9696 -1.2870 -0.2654
19144TIP3   OH258313   1.046   0.481   6.465  0.1476  0.4112  0.1926
19144TIP3    H158314   0.954   0.496   6.489 -0.2693  1.0308 -1.5972
19144TIP3    H258315   1.067   0.552   6.404  1.4413 -0.3881 -0.3452
19145TIP3   OH258316   6.732   7.523   5.386 -0.1173  0.4329  0.3400
19145TIP3    H158317   6.649   7.571   5.389 -0.2263  0.2255  0.6595
19145TIP3    H258318   6.789   7.572   5.445  0.1877  0.9425 -0.3617
19146TIP3   OH258319   3.098   6.658   9.346 -0.2558  0.2534 -0.4043
19146TIP3    H158320   3.010   6.696   9.336  0.0547  0.6108 -2.1000
19146TIP3    H258321   3.157   6.725   9.311  0.5408 -0.6639 -0.8583
19147TIP3   OH258322   6.742   7.872   4.518 -0.3159 -0.3188  0.3753
19147TIP3    H158323   6.669   7.901   4.464 -0.0988 -1.3844 -0.5242
19147TIP3    H258324   6.721   7.904   4.606 -0.0829  2.4961 -0.5065
19148TIP3   OH258325   7.181   0.471   5.818  0.2828 -0.0941 -0.1665
19148TIP3    H158326   7.133   0.540   5.863 -0.5531 -0.2636 -0.7627
19148TIP3    H258327   7.260   0.459   5.870  0.0912  0.7911  0.3631
19149TIP3   OH258328   6.879   8.019   1.716  0.1029 -0.2911  0.0208
19149TIP3    H158329   6.838   7.937   1.745  0.0560  0.2989  1.6612
19149TIP3    H258330   6.913   7.998   1.629 -1.5011 -1.5197 -0.3600
19150TIP3   OH258331   1.595   6.614   7.795 -0.3536 -0.1781  0.1337
19150TIP3    H158332   1.581   6.524   7.767 -0.5101 -0.2043  0.2928
19150TIP3    H258333   1.622   6.607   7.887 -1.5231 -0.0021  0.5032
19151TIP3   OH258334   0.879   1.598   2.489  0.3349  0.2753 -0.1338
19151TIP3    H158335   0.894   1.520   2.436  0.9312 -0.3931  0.9708
19151TIP3    H258336   0.957   1.604   2.545 -0.4905  0.6467  1.0089
19152TIP3   OH258337   9.730   8.193  10.186 -0.8988  0.3183  0.0324
19152TIP3    H158338   9.742   8.225  10.275 -1.2473 -1.2081  0.6565
19152TIP3    H258339   9.815   8.157  10.162 -1.0482 -0.0612  0.0743
19153TIP3   OH258340   9.477   6.793  10.507  0.4803 -0.6021  0.2346
19153TIP3    H158341   9.512   6.872  10.548  1.0389  0.1307 -1.5367
19153TIP3    H258342   9.385   6.791  10.534  0.8359 -0.2210  1.5494
19154TIP3   OH258343   7.059  10.383   1.319 -0.3727  0.1329 -0.3637
19154TIP3    H158344   7.046  10.428   1.403 -0.2378 -0.1847 -0.1695
19154TIP3    H258345   6.988  10.319   1.315  1.0717 -1.6651  0.7387
19155TIP3   OH258346   1.941  10.521   6.685 -0.5185  0.7063  0.3877
19155TIP3    H158347   2.021  10.504   6.735 -0.7381  0.6019  0.7098
19155TIP3    H258348   1.875  10.464   6.725 -0.6236  0.3903 -0.2275
19156TIP3   OH258349   1.848   0.430  10.399 -0.8748  0.3588 -0.6799
19156TIP3    H158350   1.860   0.414  10.305 -0.5356  1.2157 -0.7876
19156TIP3    H258351   1.860   0.524  10.409 -0.2235  0.1791  0.3260
19157TIP3   OH258352   5.333  10.221   2.986 -0.6620 -0.0204  0.1832
19157TIP3    H158353   5.254  10.268   3.012  0.6648  1.4575  1.7893
19157TIP3    H258354   5.370  10.189   3.068  1.3614  0.9597 -0.2705
19158TIP3   OH258355   6.654   9.956   8.948 -0.2428 -0.1412 -0.3603
19158TIP3    H158356   6.678   9.892   9.015  1.2113  1.2610  0.5285
19158TIP3    H258357   6.589   9.911   8.894 -1.0501 -1.5348  1.6391
19159TIP3   OH258358  10.766   2.492   1.297  0.2404  0.0809 -0.0661
19159TIP3    H158359  10.715   2.420   1.333 -0.1964  0.6917  0.5659
19159TIP3    H258360  10.825   2.517   1.368  0.5293  0.2164 -0.3518
19160TIP3   OH258361   4.258   2.005   3.798 -0.2526  0.1845 -0.5436
19160TIP3    H158362   4.305   1.926   3.822 -0.3985  0.0142 -0.8139
19160TIP3    H258363   4.165   1.982   3.806 -0.2995  0.2235 -0.9497
19161TIP3   OH258364   5.208   0.950   4.352  0.2377 -0.6790  0.1659
19161TIP3    H158365   5.114   0.939   4.371  0.1472  0.2717  0.3067
19161TIP3    H258366   5.241   0.861   4.345 -0.7747 -1.0286 -0.3550
19162TIP3   OH258367   6.016   6.854   6.034 -0.0532  0.3077 -0.0242
19162TIP3    H158368   5.942   6.893   5.988 -0.9636  1.0458  1.9220
19162TIP3    H258369   6.041   6.779   5.981 -0.9017  1.1848 -1.7628
19163TIP3   OH258370   5.115   7.216   6.317  0.0623  0.3731  0.0505
19163TIP3    H158371   5.026   7.181   6.312  0.2196 -0.1879  0.9865
19163TIP3    H258372   5.149   7.184   6.400  0.6388  1.7731  0.3887
19164TIP3   OH258373   8.703   1.736   5.198 -0.5621  0.3393  1.0480
19164TIP3    H158374   8.629   1.695   5.153  0.6770 -0.7923 -0.0508
19164TIP3    H258375   8.713   1.822   5.156 -2.4237  1.3506  2.5434
19165TIP3   OH258376   4.343   6.800   5.430 -0.5966  0.2795 -0.1323
19165TIP3    H158377   4.348   6.732   5.363 -2.1804  0.6488 -0.6525
19165TIP3    H258378   4.427   6.845   5.425 -0.5062 -0.0177 -1.5289
19166TIP3   OH258379   5.012   6.142   1.916  0.0990  0.3459 -0.2565
19166TIP3    H158380   4.977   6.061   1.878 -1.5019  0.2252  1.3129
19166TIP3    H258381   4.978   6.142   2.006 -1.8568  3.8033 -0.8233
19167TIP3   OH258382   6.818   4.170   9.798  0.1916  0.4667  0.2185
19167TIP3    H158383   6.892   4.211   9.842  0.1724  0.7437 -0.0042
19167TIP3    H258384   6.767   4.131   9.868  0.8685 -0.2494  0.3188
19168TIP3   OH258385   2.671   6.002   6.829  0.5012 -0.3503 -0.3113
19168TIP3    H158386   2.741   6.028   6.890  0.0240  2.0012 -0.6656
19168TIP3    H258387   2.708   6.017   6.742  0.7549 -2.5472 -0.6383
19169TIP3   OH258388   5.407  10.579   4.375 -0.6373  0.1514  0.7145
19169TIP3    H158389   5.461  10.609   4.448 -1.0322  1.2531  0.5728
19169TIP3    H258390   5.382  10.490   4.398 -0.7316  0.4724  1.9066
19170TIP3   OH258391   3.593   1.706   9.211  0.7865 -0.2157 -0.1919
19170TIP3    H158392   3.592   1.630   9.269 -1.3052  0.3100  0.5874
19170TIP3    H258393   3.589   1.781   9.270  0.5301  0.4008 -0.9687
19171TIP3   OH258394  10.749   0.011   8.047 -0.4668  0.0567 -0.1625
19171TIP3    H158395  10.725  -0.053   8.114  0.4036 -0.5205 -0.3844
19171TIP3    H258396  10.806   0.073   8.092 -1.0835  0.5252 -0.0152
19172TIP3   OH258397   4.233   4.772  10.675 -0.5903  0.0509 -0.0398
19172TIP3    H158398   4.308   4.749  10.619  0.0209 -0.2828  0.8808
19172TIP3    H258399   4.202   4.688  10.709 -1.0026  0.2420  0.0618
19173TIP3   OH258400   8.278   3.968   7.607 -0.1468 -0.1301  0.3840
19173TIP3    H158401   8.288   3.874   7.593  0.9343  0.0867 -0.4345
19173TIP3    H258402   8.201   3.976   7.663 -0.6942 -1.4543 -0.1472
19174TIP3   OH258403   9.687   4.256   3.066 -0.3152 -0.1876 -0.2845
19174TIP3    H158404   9.729   4.220   3.144 -2.4116 -1.2634  0.4133
19174TIP3    H258405   9.674   4.349   3.087  2.2384  0.3918 -0.8266
19175TIP3   OH258406   2.324   1.809   0.081  0.5296  0.0352 -0.1507
19175TIP3    H158407   2.412   1.844   0.095  0.4899 -0.0276  0.2788
19175TIP3    H258408   2.279   1.823   0.164  0.7817 -1.7945  0.3393
19176TIP3   OH258409   1.533   5.072   5.858 -0.3489  0.1300  0.2004
19176TIP3    H158410   1.489   5.112   5.783  0.3786 -0.4457 -0.5645
19176TIP3    H258411   1.494   5.113   5.935 -0.9314  0.9206 -0.5063
19177TIP3   OH258412   0.785   0.454   5.632  0.5168 -0.0320  0.1472
19177TIP3    H158413   0.708   0.511   5.630  0.1114 -0.5622  0.5601
19177TIP3    H258414   0.847   0.501   5.687  0.6597  0.5960 -0.5205
19178TIP3   OH258415   7.113   4.272   3.926 -0.4643 -0.3266 -0.0276
19178TIP3    H158416   7.116   4.230   4.012  0.7021  1.1622  0.7043
19178TIP3    H258417   7.149   4.206   3.866 -0.3538 -1.0269  0.7826
19179TIP3   OH258418   3.850   6.567   3.534  0.5021  0.4384  0.3423
19179TIP3    H158419   3.855   6.480   3.494  0.4574  1.1218 -1.2599
19179TIP3    H258420   3.849   6.551   3.628 -1.3386 -1.3956  0.0867
19180TIP3   OH258421   3.008   5.859   8.556  0.9883  0.2014 -0.3897
19180TIP3    H158422   3.024   5.933   8.615  0.1000  0.7284 -0.7943
19180TIP3    H258423   2.976   5.790   8.613  3.2831 -0.4420  0.2433
19181TIP3   OH258424   7.815   8.656   2.893  0.4569 -0.1600  0.0978
19181TIP3    H158425   7.868   8.715   2.946 -1.5377  0.2976  1.6832
19181TIP3    H258426   7.812   8.697   2.807  0.9687  0.8467  0.5432
19182TIP3   OH258427   2.696   1.624   0.066  0.2722 -0.3161  0.4732
19182TIP3    H158428   2.681   1.530   0.058  0.3786 -0.4487  1.6675
19182TIP3    H258429   2.640   1.663  -0.001 -0.6966 -1.1614  0.7687
19183TIP3   OH258430   8.200   5.544   4.212  0.5457 -0.4297 -0.3841
19183TIP3    H158431   8.206   5.539   4.307  0.4019  0.2021 -0.3363
19183TIP3    H258432   8.108   5.562   4.194  1.0747  2.9080 -0.4435
19184TIP3   OH258433   4.318   1.687   9.262  0.3933 -0.4691  0.5161
19184TIP3    H158434   4.255   1.619   9.239 -3.4193  2.3923  1.5139
19184TIP3    H258435   4.280   1.729   9.339  2.5708  2.7321  0.0184
19185TIP3   OH258436   2.985   5.114   5.194 -0.6980  0.7954 -0.2936
19185TIP3    H158437   2.972   5.074   5.280 -2.1750  3.0561  0.6140
19185TIP3    H258438   2.991   5.040   5.134  3.1971 -1.0753  1.9497
19186TIP3   OH258439   6.202   4.581   3.699 -0.2797  0.4484 -0.2239
19186TIP3    H158440   6.149   4.554   3.624 -1.6727  2.1446  0.0927
19186TIP3    H258441   6.247   4.659   3.670  0.8963 -0.1180  0.0298
19187TIP3   OH258442   8.076   7.547  10.036 -0.4901 -0.5228  0.1240
19187TIP3    H158443   8.018   7.609  10.080 -0.8374 -1.1143  0.5149
19187TIP3    H258444   8.060   7.559   9.943 -0.1353  0.3726  0.1666
19188TIP3   OH258445   9.213   9.967   8.529  0.2087 -0.5910 -0.1900
19188TIP3    H158446   9.202  10.023   8.606  0.7484  0.1924 -0.6674
19188TIP3    H258447   9.249   9.885   8.563 -1.1412 -0.8869  0.5948
19189TIP3   OH258448   7.794   0.626   5.707 -0.5032  0.0783 -0.0811
19189TIP3    H158449   7.858   0.573   5.754  0.0889  1.0061  0.1883
19189TIP3    H258450   7.736   0.660   5.776  1.4050  2.8796  0.3145
19190TIP3   OH258451   2.154  10.721   3.592  0.2543 -0.2596 -0.3430
19190TIP3    H158452   2.085  10.745   3.654  0.0935  0.9810 -0.9798
19190TIP3    H258453   2.203  10.801   3.577  2.5831 -1.3498  0.9447
19191TIP3   OH258454   3.148   1.700   1.741 -0.0221  0.3384 -0.0865
19191TIP3    H158455   3.195   1.618   1.725  0.1920  0.2399  0.9957
19191TIP3    H258456   3.057   1.674   1.756  0.0477  0.2981  0.2662
19192TIP3   OH258457   3.610   9.545  10.454  0.3801 -0.4965  0.1662
19192TIP3    H158458   3.589   9.477  10.518 -0.1382 -0.6754 -0.1874
19192TIP3    H258459   3.526   9.567  10.413  0.3483  1.0928  0.9949
19193TIP3   OH258460  10.569   6.924   3.908 -0.3199 -0.4509  0.7634
19193TIP3    H158461  10.588   6.888   3.822 -1.5144 -2.9253  1.4274
19193TIP3    H258462  10.613   6.864   3.969 -0.6020  0.4662  1.9007
19194TIP3   OH258463   2.895   9.167   5.652  0.4467  0.1024  0.9201
19194TIP3    H158464   2.976   9.117   5.650  0.2721 -0.1685  0.3211
19194TIP3    H258465   2.827   9.103   5.630  0.3081  0.7524 -0.6659
19195TIP3   OH258466  10.102   9.090   4.889 -0.1853  0.0242 -0.6601
19195TIP3    H158467  10.077   9.067   4.979  0.3241 -0.2333 -0.5757
19195TIP3    H258468  10.088   9.009   4.839 -3.2013  0.9271 -1.4362
19196TIP3   OH258469   7.971   2.033   0.940  0.1975 -0.4221  0.6144
19196TIP3    H158470   8.017   2.116   0.955  1.7203 -1.5101  2.3235
19196TIP3    H258471   8.040   1.969   0.924 -0.9247 -1.5033 -0.0955
19197TIP3   OH258472   1.110   2.750   3.437  0.2017 -0.0375  0.2640
19197TIP3    H158473   1.205   2.765   3.428  0.5469 -1.2558  1.4963
19197TIP3    H258474   1.075   2.765   3.349  1.4588  0.9095 -0.1111
19198TIP3   OH258475   4.928   9.467   7.303  0.3398  0.2631 -0.0565
19198TIP3    H158476   4.883   9.548   7.326 -0.4522  0.2821 -1.5583
19198TIP3    H258477   4.934   9.418   7.385 -0.5459  1.1693  0.5644
19199TIP3   OH258478   0.782  10.778   1.869  0.3922 -0.1905  0.5583
19199TIP3    H158479   0.864  10.738   1.843  0.0307  0.0160 -0.9758
19199TIP3    H258480   0.750  10.822   1.791  0.2808  2.2899  1.9112
19200TIP3   OH258481   3.721   2.716  10.404 -0.8492 -0.5965 -0.3908
19200TIP3    H158482   3.625   2.719  10.414 -0.7489  1.4794  0.4215
19200TIP3    H258483   3.734   2.690  10.313 -2.1549 -1.7342 -0.2957
19201TIP3   OH258484  10.336   6.296   9.807  0.1624  0.4447 -0.1758
19201TIP3    H158485  10.409   6.250   9.848  0.7444  0.4105 -1.2140
19201TIP3    H258486  10.268   6.297   9.874  0.5857 -0.8253  0.2984
19202TIP3   OH258487   1.407   0.083   6.500 -0.3877 -0.0053 -0.4462
19202TIP3    H158488   1.464   0.006   6.500  1.2357  1.1542 -0.6936
19202TIP3    H258489   1.355   0.074   6.420  0.1240 -0.5891 -0.7267
19203TIP3   OH258490   1.233   2.494   8.570  0.3387  0.4225  0.0202
19203TIP3    H158491   1.241   2.518   8.663  2.0454  2.5246 -0.5892
19203TIP3    H258492   1.207   2.575   8.527 -0.9756 -0.6625 -1.3070
19204TIP3   OH258493   0.861   7.281   9.332  0.1319 -0.3685  0.3184
19204TIP3    H158494   0.876   7.321   9.247  1.0700 -0.3758  0.4706
19204TIP3    H258495   0.766   7.280   9.341  0.0127 -0.5775 -0.8186
19205TIP3   OH258496   2.868   3.191   0.772 -0.2822 -0.7384 -0.6009
19205TIP3    H158497   2.875   3.194   0.867  2.1157 -1.6616 -0.6952
19205TIP3    H258498   2.806   3.261   0.751  0.4557  0.6515  1.5051
19206TIP3   OH258499   0.044   9.326  10.551  0.0292  0.4507  0.1463
19206TIP3    H158500  -0.051   9.319  10.560  0.0504 -0.6917 -0.4121
19206TIP3    H258501   0.062   9.420  10.553 -1.3273  0.7966 -1.9040
19207TIP3   OH258502   8.254   1.031   4.322  0.3310 -0.3376  0.0126
19207TIP3    H158503   8.238   0.975   4.246 -0.2123  0.4549 -0.4712
19207TIP3    H258504   8.166   1.052   4.354  0.4420  1.6446 -0.8651
19208TIP3   OH258505   5.639   8.129   8.370 -0.0861  0.0925 -0.3735
19208TIP3    H158506   5.717   8.105   8.320  0.3832  1.7061 -0.4666
19208TIP3    H258507   5.592   8.191   8.314 -0.4872  0.5304  0.4216
19209TIP3   OH258508   0.233   7.673   7.378  0.2138 -0.0170  0.0958
19209TIP3    H158509   0.215   7.581   7.359  0.0328  0.1684 -0.6557
19209TIP3    H258510   0.275   7.706   7.298 -0.0307  0.6346  0.2321
19210TIP3   OH258511   3.577   1.975   3.723 -0.3499 -0.1477 -0.5037
19210TIP3    H158512   3.644   1.908   3.709 -0.8713 -1.3486  2.0376
19210TIP3    H258513   3.625   2.049   3.762 -0.5100 -1.4178  2.3523
19211TIP3   OH258514   7.214   2.668   3.493  0.1130  0.8932  0.1751
19211TIP3    H158515   7.124   2.639   3.508  0.7907 -0.5219  1.8004
19211TIP3    H258516   7.226   2.660   3.398 -0.9462 -0.5330  0.1253
19212TIP3   OH258517   4.172   7.130   1.307 -0.1225  0.3005 -0.2797
19212TIP3    H158518   4.220   7.150   1.227 -1.1769  0.3212 -0.9306
19212TIP3    H258519   4.195   7.199   1.368 -0.4319  1.1136 -1.0655
19213TIP3   OH258520   9.256   2.098   3.951 -0.1193 -0.2110 -0.0864
19213TIP3    H158521   9.201   2.176   3.944 -0.8082 -0.6111  0.6685
19213TIP3    H258522   9.202   2.034   3.997  0.9197 -0.6757  0.5410
19214TIP3   OH258523   7.073   5.067   6.453  0.5497 -0.6176 -0.2306
19214TIP3    H158524   6.994   5.110   6.420  1.2084  0.1584 -0.8278
19214TIP3    H258525   7.041   5.011   6.524 -0.8206 -1.7876 -1.6691
19215TIP3   OH258526   0.045   3.620   8.586  0.0218 -0.0432 -0.7332
19215TIP3    H158527   0.084   3.668   8.659  1.1067 -1.7513 -0.1324
19215TIP3    H258528   0.045   3.683   8.514  0.5612  1.1396  0.2532
19216TIP3   OH258529   8.736   2.851   6.159  0.0017  0.3130  0.0945
19216TIP3    H158530   8.772   2.850   6.248  0.0400 -2.0299  0.1273
19216TIP3    H258531   8.642   2.864   6.172 -0.0147 -0.1691  0.5153
19217TIP3   OH258532   7.424   6.959   4.189 -0.0182  0.1368 -0.4532
19217TIP3    H158533   7.417   6.865   4.169 -0.3696 -0.3159  1.5215
19217TIP3    H258534   7.448   6.961   4.282  1.0248  2.0143 -0.7387
19218TIP3   OH258535   0.016   6.611   7.766 -0.7955 -0.0229  0.2041
19218TIP3    H158536   0.048   6.682   7.710  1.4180 -0.6771  0.5222
19218TIP3    H258537  -0.079   6.617   7.762 -0.6698  2.5496 -0.2918
19219TIP3   OH258538   4.094   5.768   3.172  0.0643  0.0556 -0.6282
19219TIP3    H158539   4.039   5.693   3.149  0.1007  0.2586 -1.4090
19219TIP3    H258540   4.126   5.801   3.088  1.0199  0.2166 -0.2092
19220TIP3   OH258541   9.311   5.463   7.202  0.2242 -0.1278 -0.3430
19220TIP3    H158542   9.255   5.392   7.235  3.1739 -1.8550  1.3878
19220TIP3    H258543   9.397   5.422   7.190  1.5250  2.6922 -1.4873
19221TIP3   OH258544   0.518   5.608   3.428 -0.0532 -0.1530  0.0616
19221TIP3    H158545   0.479   5.694   3.416  1.5671  0.7280  0.8409
19221TIP3    H258546   0.524   5.597   3.523 -1.1511 -1.5914  0.0127
19222TIP3   OH258547  10.145   9.801   7.495 -0.4919 -0.3086 -0.6383
19222TIP3    H158548  10.126   9.835   7.407 -1.3819 -1.0448 -0.7482
19222TIP3    H258549  10.061   9.805   7.541  0.1286  0.8054  0.4516
19223TIP3   OH258550   3.165   0.589   8.918 -0.7595 -0.5303 -0.6099
19223TIP3    H158551   3.124   0.505   8.935 -1.0648 -0.4772 -1.0678
19223TIP3    H258552   3.093   0.647   8.893 -0.9882  0.6553  2.3714
19224TIP3   OH258553   6.741  10.314   9.314 -0.2203 -0.4518  0.4321
19224TIP3    H158554   6.670  10.343   9.372  0.4091 -1.4923  1.7830
19224TIP3    H258555   6.712  10.340   9.226 -0.3053  2.9673  1.3429
19225TIP3   OH258556   3.472   2.288   4.334 -0.3962  0.0502  0.1468
19225TIP3    H158557   3.446   2.282   4.242 -1.3962 -3.5800  0.5130
19225TIP3    H258558   3.564   2.316   4.332 -0.6624  0.8896 -1.8766
19226TIP3   OH258559   6.641   3.341   8.354 -0.0458  0.0099 -0.3393
19226TIP3    H158560   6.620   3.346   8.448  1.1522  2.1857 -0.1353
19226TIP3    H258561   6.714   3.279   8.350 -0.8665 -1.0146 -0.0174
19227TIP3   OH258562   1.989   5.927   4.527  0.0732  0.8144  0.2188
19227TIP3    H158563   2.056   5.885   4.580  0.6885  0.7642 -0.5840
19227TIP3    H258564   1.971   6.010   4.573  4.4535  3.4091 -2.1312
19228TIP3   OH258565   7.309   0.671   4.120 -0.0816 -0.0407 -0.3218
19228TIP3    H158566   7.325   0.680   4.213  0.6398 -2.0818 -0.1804
19228TIP3    H258567   7.392   0.694   4.078 -0.2078  0.2612 -0.4024
19229TIP3   OH258568   1.814   0.037   2.032  0.0410  0.0534  0.3830
19229TIP3    H158569   1.750  -0.011   2.084  0.3876 -1.2255 -0.3378
19229TIP3    H258570   1.763   0.071   1.957 -0.2102  0.8890  0.9103
19230TIP3   OH258571   4.429   3.638   3.772 -0.0358 -0.4827 -0.2281
19230TIP3    H158572   4.377   3.559   3.784 -1.8462  0.3864 -1.8270
19230TIP3    H258573   4.484   3.620   3.696  2.8548 -1.7242  1.9533
19231TIP3   OH258574   0.056   9.568   7.607 -0.1450  0.5551  0.4333
19231TIP3    H158575   0.061   9.646   7.552  0.6285 -0.5430 -1.1418
19231TIP3    H258576   0.145   9.534   7.608 -0.2721  0.2201  1.9253
19232TIP3   OH258577   3.086   6.551   8.746 -0.0522 -0.1508 -0.4546
19232TIP3    H158578   3.117   6.532   8.657 -0.0855 -1.1660 -0.2586
19232TIP3    H258579   3.040   6.634   8.737 -3.6032 -2.0515 -2.3220
19233TIP3   OH258580   5.386   2.468   2.385  0.3230  0.0712 -0.7065
19233TIP3    H158581   5.374   2.562   2.374 -0.5337 -0.0112 -0.5050
19233TIP3    H258582   5.447   2.460   2.460 -1.9443  0.4370  1.2973
19234TIP3   OH258583   9.120   0.954   5.498 -0.4160  0.0162 -1.2292
19234TIP3    H158584   9.123   1.043   5.465  1.0592 -0.7550 -3.3952
19234TIP3    H258585   9.103   0.900   5.421 -3.6295 -1.4886  0.3534
19235TIP3   OH258586   5.308  10.624   7.018 -0.4572 -0.2740 -0.4209
19235TIP3    H158587   5.376  10.636   6.951  0.3501 -1.3356  0.1787
19235TIP3    H258588   5.245  10.694   7.000  0.7077  0.6512 -1.1013
19236TIP3   OH258589   2.799   4.355   9.295 -0.1884 -0.0096  0.7728
19236TIP3    H158590   2.794   4.279   9.354 -2.5802 -1.4400 -1.0430
19236TIP3    H258591   2.740   4.419   9.334 -0.6091 -0.3678  0.7440
19237TIP3   OH258592   1.016   2.810   3.163  0.3469 -0.0078  0.6185
19237TIP3    H158593   0.937   2.762   3.135 -0.8918  2.4125 -0.3336
19237TIP3    H258594   0.982   2.883   3.214  2.0645  0.6703  0.8308
19238TIP3   OH258595  10.028   9.769   7.050 -0.6284  0.0374 -0.0885
19238TIP3    H158596  10.068   9.745   6.966 -0.2709 -1.7841  0.5554
19238TIP3    H258597  10.017   9.685   7.095 -2.3397  0.8257  1.0205
19239TIP3   OH258598   4.262   9.400   7.630 -0.2732 -0.4859  0.4151
19239TIP3    H158599   4.281   9.463   7.700 -1.0438  1.4133 -0.9790
19239TIP3    H258600   4.209   9.450   7.567  0.0660 -2.2197 -1.3437
19240TIP3   OH258601   3.713   7.387   9.552  0.4147 -0.0919 -0.1064
19240TIP3    H158602   3.624   7.395   9.518  0.1184 -0.8152  0.4745
19240TIP3    H258603   3.712   7.440   9.632  0.5205 -0.0758 -0.1152
19241TIP3   OH258604   7.364   4.138   7.844  0.1493 -0.5419  0.3243
19241TIP3    H158605   7.361   4.176   7.756  0.4332 -3.3570 -0.9953
19241TIP3    H258606   7.275   4.108   7.860  0.6410 -2.3719 -0.1612
19242TIP3   OH258607   6.817   6.762   4.159  0.5402  0.4620 -0.8949
19242TIP3    H158608   6.752   6.704   4.197  0.8807  1.5902  1.5860
19242TIP3    H258609   6.793   6.849   4.191  2.4968  1.0830 -0.9924
19243TIP3   OH258610   8.360   4.619  10.547  0.3102 -0.1828  0.0705
19243TIP3    H158611   8.392   4.649  10.632  0.4341 -1.9691  0.6917
19243TIP3    H258612   8.279   4.573  10.566  0.0557 -0.1333 -0.8501
19244TIP3   OH258613   2.002  10.615   0.627  0.3934  0.0792 -0.3259
19244TIP3    H158614   2.072  10.661   0.581  1.3496 -0.5663  0.4480
19244TIP3    H258615   1.931  10.609   0.563  0.7378  1.4240 -0.8718
19245TIP3   OH258616   8.111   7.938   3.535 -0.0437 -0.2906 -0.0141
19245TIP3    H158617   8.195   7.905   3.503  1.4628  2.6377  0.5867
19245TIP3    H258618   8.107   8.029   3.505 -3.1272 -0.3617 -0.1784
19246TIP3   OH258619   2.233   2.855   6.692 -0.4426 -0.0426 -0.0642
19246TIP3    H158620   2.255   2.875   6.783  2.4886  1.6617 -1.0115
19246TIP3    H258621   2.176   2.778   6.698  1.1230 -1.1645  3.1148
19247TIP3   OH258622   9.255   5.130   5.875 -0.0466  0.6204  0.3738
19247TIP3    H158623   9.194   5.202   5.861 -0.3622  0.2505 -0.2078
19247TIP3    H258624   9.238   5.101   5.964 -0.7362  0.5064  0.2108
19248TIP3   OH258625   9.237   3.402   2.283  0.4516 -0.6512  0.0766
19248TIP3    H158626   9.150   3.442   2.290 -0.0919 -1.5928 -0.9433
19248TIP3    H258627   9.273   3.440   2.203  0.7172 -0.7503  0.1495
19249TIP3   OH258628   0.931   5.041   5.988 -0.2648  0.0929  0.4757
19249TIP3    H158629   0.937   4.997   6.073  0.3022  1.5638  1.2240
19249TIP3    H258630   1.023   5.054   5.962 -0.3461  2.1948  1.0408
19250TIP3   OH258631   1.524  10.049   2.787 -0.2810  0.1030  0.4074
19250TIP3    H158632   1.491   9.999   2.862 -0.5335 -2.5738 -1.3836
19250TIP3    H258633   1.611  10.013   2.770 -1.1814 -1.1296 -2.0469
19251TIP3   OH258634   1.341   0.493   0.265 -0.1053  0.7090 -0.0245
19251TIP3    H158635   1.291   0.444   0.199 -1.9329 -1.2479  2.5772
19251TIP3    H258636   1.416   0.437   0.283 -0.6675  0.2100  0.8864
19252TIP3   OH258637   0.331   5.546   1.870  0.1766 -0.9132  0.3855
19252TIP3    H158638   0.377   5.469   1.835  0.8332 -0.0768 -0.6582
19252TIP3    H258639   0.371   5.560   1.956  2.1557 -0.0182 -0.6285
19253TIP3   OH258640   9.674   4.279   8.868  0.3338 -0.4586  0.2104
19253TIP3    H158641   9.761   4.254   8.900  1.1660 -1.9450 -2.7938
19253TIP3    H258642   9.613   4.234   8.927  1.6741 -1.6730  0.7585
19254TIP3   OH258643   2.499   3.349   9.477  0.2283  0.7258  0.5822
19254TIP3    H158644   2.472   3.263   9.443  1.5344  0.2903  0.5839
19254TIP3    H258645   2.433   3.410   9.444 -0.8290 -0.3111  0.7448
19255TIP3   OH258646   5.061   3.415   9.654  0.2761 -0.2143 -0.5137
19255TIP3    H158647   5.043   3.432   9.562  0.2123 -0.8162 -0.6121
19255TIP3    H258648   5.136   3.472   9.674  1.9272 -1.8636 -1.6085
19256TIP3   OH258649   6.299   3.139   6.115  0.2718  0.4215  0.0093
19256TIP3    H158650   6.204   3.136   6.121  0.3359 -1.4507  1.0189
19256TIP3    H258651   6.329   3.071   6.176  2.3564  2.5859  1.6171
19257TIP3   OH258652  10.898   3.788   0.509  0.2300 -0.1737 -0.0845
19257TIP3    H158653  10.987   3.820   0.492 -0.1571  0.9344 -0.0765
19257TIP3    H258654  10.853   3.862   0.548 -0.6270 -0.8242  0.1891
19258TIP3   OH258655   6.919   7.100  10.441  0.6666  0.7895 -0.1697
19258TIP3    H158656   6.903   7.088  10.347  0.7138  0.2968 -0.1162
19258TIP3    H258657   6.948   7.014  10.472 -0.9058  0.5128  0.6122
19259TIP3   OH258658   3.624   4.594   8.856 -0.5020 -0.4390 -0.0060
19259TIP3    H158659   3.587   4.678   8.884  0.5903  0.0076  0.1313
19259TIP3    H258660   3.628   4.600   8.761  1.4446  0.5080  0.0891
19260TIP3   OH258661   6.852   7.336   2.454 -0.1597  0.0111 -0.1474
19260TIP3    H158662   6.838   7.268   2.388  0.2277 -0.3452  0.1317
19260TIP3    H258663   6.765   7.356   2.487 -0.2548 -0.5227 -0.0649
19261TIP3   OH258664   4.085   8.000  10.430  0.1072  0.1514  0.4132
19261TIP3    H158665   4.150   8.070  10.446  0.0730  0.0348  1.0978
19261TIP3    H258666   4.004   8.034  10.467 -0.2005  0.2411 -0.3307
19262TIP3   OH258667  10.776   6.841   6.517 -0.0448 -0.1760 -0.2067
19262TIP3    H158668  10.870   6.846   6.499  0.3472  1.2579  1.8672
19262TIP3    H258669  10.745   6.931   6.506 -0.9547 -0.4234  0.2181
19263TIP3   OH258670  10.519   6.488   0.643  0.3008 -0.0244  0.1256
19263TIP3    H158671  10.529   6.428   0.569  0.1498  0.1712 -0.0554
19263TIP3    H258672  10.426   6.510   0.643  0.1721 -0.5189  0.7641
19264TIP3   OH258673   3.887   2.936   2.128 -0.2290  0.0768  0.4937
19264TIP3    H158674   3.838   2.920   2.047 -1.6239  0.5142  1.2146
19264TIP3    H258675   3.866   2.861   2.183  0.6760 -0.1931  0.4889
19265TIP3   OH258676   2.324   4.880   0.582  0.0413 -0.4267  0.0067
19265TIP3    H158677   2.295   4.945   0.518 -0.5294  0.5330  1.2008
19265TIP3    H258678   2.416   4.902   0.598 -0.0701 -0.0828  0.1939
19266TIP3   OH258679   5.526  10.891   1.827 -0.2578 -0.0886 -0.1174
19266TIP3    H158680   5.592  10.824   1.808 -0.7746 -0.6757  0.0894
19266TIP3    H258681   5.449  10.862   1.779 -0.4929  0.3539 -0.0092
19267TIP3   OH258682   5.953   4.666   3.983  0.1838  0.1716  0.4282
19267TIP3    H158683   5.993   4.743   3.941  0.2359 -0.9041 -1.5872
19267TIP3    H258684   6.012   4.594   3.963 -2.8000 -1.5990 -3.1152
19268TIP3   OH258685   7.031   0.701   4.129  0.6443  0.3675 -0.2342
19268TIP3    H158686   7.126   0.703   4.124  0.6291  1.3987 -0.3802
19268TIP3    H258687   7.011   0.721   4.220  0.5692 -0.4380 -0.0666
19269TIP3   OH258688  10.578   8.536   5.080  0.5643 -0.1834 -0.4133
19269TIP3    H158689  10.487   8.548   5.107  0.4208 -1.1302 -0.4198
19269TIP3    H258690  10.592   8.441   5.087  0.8323 -0.3645 -2.6943
19270TIP3   OH258691   5.918   1.160   2.967  0.0687  0.4204  0.6946
19270TIP3    H158692   5.880   1.246   2.987 -3.7726 -0.9389  0.0756
19270TIP3    H258693   5.951   1.168   2.878  1.3847  1.6765  1.2553
19271TIP3   OH258694   5.927   7.403  10.502  0.0516 -0.2076 -0.0892
19271TIP3    H158695   5.867   7.386  10.576  1.9461  1.1259  1.8795
19271TIP3    H258696   5.958   7.317  10.476  0.3429 -0.6668  1.6171
19272TIP3   OH258697   4.286  10.216   1.337 -0.2694 -0.4427 -0.2725
19272TIP3    H158698   4.280  10.310   1.321  1.8604 -0.0591  0.7654
19272TIP3    H258699   4.198  10.190   1.362 -1.1712  1.0221 -1.7190
19273TIP3   OH258700   7.443   2.669   9.625 -0.3051 -0.4269  0.6494
19273TIP3    H158701   7.462   2.575   9.628  0.2926 -0.3156  0.5100
19273TIP3    H258702   7.505   2.704   9.561 -1.6942 -0.2046 -0.6400
19274TIP3   OH258703   2.346   9.925   0.490  0.5628  0.3795 -0.0225
19274TIP3    H158704   2.264   9.883   0.517  1.9502 -2.5964 -0.0115
19274TIP3    H258705   2.320  10.011   0.458 -2.3143  0.3075  1.7706
19275TIP3   OH258706   0.781   2.881   0.562  0.0371  0.4301  0.1894
19275TIP3    H158707   0.782   2.965   0.607  0.1369  0.5534 -0.0400
19275TIP3    H258708   0.743   2.900   0.476 -1.8507 -0.1254  0.8477
19276TIP3   OH258709   3.080   8.333   9.442 -0.1405 -0.3209 -0.1861
19276TIP3    H158710   3.173   8.321   9.460  0.5634  2.6118 -1.2354
19276TIP3    H258711   3.043   8.363   9.525  0.2276  0.1801 -0.2037
19277TIP3   OH258712   1.774   8.488   6.028 -0.0724 -0.1207 -0.0294
19277TIP3    H158713   1.729   8.450   6.103 -1.9985 -0.6382 -1.3666
19277TIP3    H258714   1.775   8.582   6.046 -1.1771 -0.1616  0.3366
19278TIP3   OH258715   3.813   3.275   5.832 -0.4002  0.0666 -0.0575
19278TIP3    H158716   3.767   3.356   5.856  0.0840  0.7033 -1.1729
19278TIP3    H258717   3.744   3.212   5.815 -0.7755 -0.2273  2.2455
19279TIP3   OH258718   9.860   8.131   0.463 -0.0934  0.3728  0.2140
19279TIP3    H158719   9.879   8.196   0.531  0.9995 -0.0399  0.3180
19279TIP3    H258720   9.794   8.074   0.503 -0.2675  0.7754  0.5164
19280TIP3   OH258721   5.249   7.385   9.563  0.2277 -0.4908  0.2230
19280TIP3    H158722   5.250   7.451   9.493  3.1923  0.5317  1.0582
19280TIP3    H258723   5.164   7.398   9.607 -0.6508  0.5009 -1.6479
19281TIP3   OH258724   2.457  10.254   8.607 -0.6302  0.0234  0.3036
19281TIP3    H158725   2.548  10.275   8.587 -1.0699  0.0653 -1.8680
19281TIP3    H258726   2.460  10.166   8.644  0.2601 -0.1235 -0.1020
19282TIP3   OH258727   5.602   0.742   2.708  0.2687 -0.5918 -0.0137
19282TIP3    H158728   5.546   0.668   2.684  0.0820 -0.9289  1.3429
19282TIP3    H258729   5.541   0.810   2.737  0.4781 -0.1742 -0.5361
19283TIP3   OH258730   0.077   0.548   3.550  0.4579 -0.1415  0.2205
19283TIP3    H158731   0.041   0.577   3.466  0.9078 -0.8504 -0.2308
19283TIP3    H258732   0.001   0.519   3.600  0.2524 -0.3641 -0.2131
19284TIP3   OH258733   8.966  10.081   1.685 -0.6739  0.2069  0.2511
19284TIP3    H158734   9.045  10.031   1.664  0.0644  0.9763  1.1250
19284TIP3    H258735   8.907  10.017   1.726 -1.1350 -0.7246 -1.7424
19285TIP3   OH258736  10.214   3.123   0.116  0.4654 -0.0549 -0.1800
19285TIP3    H158737  10.126   3.159   0.103  1.0345  2.6931  2.4837
19285TIP3    H258738  10.202   3.054   0.181  0.0147 -1.5781 -1.7957
19286TIP3   OH258739   6.901   4.564   4.485  0.1590  0.0414 -1.0585
19286TIP3    H158740   6.886   4.573   4.579 -0.3418 -2.0125 -0.8901
19286TIP3    H258741   6.994   4.582   4.474  0.1071  0.8913 -0.2752
19287TIP3   OH258742   5.548   0.339   7.348  0.3745 -0.0495  0.3894
19287TIP3    H158743   5.539   0.292   7.431  0.4187 -0.4848  0.1534
19287TIP3    H258744   5.571   0.271   7.284 -1.0462  0.0472 -0.2528
19288TIP3   OH258745   8.271   3.822   3.820 -0.0576 -0.0748  0.8064
19288TIP3    H158746   8.307   3.794   3.736  0.7599  0.6795  0.8897
19288TIP3    H258747   8.212   3.751   3.846  2.8624 -2.4079  1.6330
19289TIP3   OH258748   2.820   8.428   3.788  0.1136  0.1674  0.0983
19289TIP3    H158749   2.830   8.492   3.717 -1.1496 -1.7876 -1.9955
19289TIP3    H258750   2.853   8.346   3.751 -3.0397 -1.5406  0.7206
19290TIP3   OH258751   6.424   4.891   0.290 -0.2379 -0.2767  0.3932
19290TIP3    H158752   6.467   4.936   0.363  1.0201  1.5689 -1.3767
19290TIP3    H258753   6.493   4.837   0.252  0.2575  1.6338 -1.6177
19291TIP3   OH258754   4.999   1.876   2.008 -0.2909  0.7434  0.4731
19291TIP3    H158755   4.999   1.887   1.913 -1.4394  0.3001  0.4147
19291TIP3    H258756   5.090   1.892   2.034 -0.2182  2.1068 -0.5447
19292TIP3   OH258757   2.920   3.572   8.749  0.0656 -0.5343 -0.1290
19292TIP3    H158758   2.865   3.494   8.763  0.6787 -0.6450  2.1158
19292TIP3    H258759   2.924   3.614   8.835  1.0889  1.1015 -0.9233
19293TIP3   OH258760   6.221   4.116   2.372 -0.0735 -0.5823 -0.5413
19293TIP3    H158761   6.303   4.071   2.352 -0.3979 -1.1596 -0.5694
19293TIP3    H258762   6.200   4.090   2.462 -0.2320 -0.4391 -0.5357
19294TIP3   OH258763   1.297   7.725   6.050  0.8378 -0.0994 -0.1616
19294TIP3    H158764   1.362   7.695   5.987  1.3367  1.0132 -0.1922
19294TIP3    H258765   1.263   7.806   6.013 -0.5708 -0.6550 -0.1394
19295TIP3   OH258766   8.544   4.752   4.953  0.3604 -0.4921 -0.3472
19295TIP3    H158767   8.600   4.700   4.895  0.3524 -1.1662  0.2321
19295TIP3    H258768   8.599   4.772   5.029  0.0024 -0.6640 -0.0372
19296TIP3   OH258769   1.602   4.123   6.444 -0.2210  0.5955 -0.3142
19296TIP3    H158770   1.694   4.148   6.438  0.1762 -1.0374 -2.7447
19296TIP3    H258771   1.567   4.175   6.516  2.6925  0.9277  1.0088
19297TIP3   OH258772   0.065   8.268   3.159 -0.2577 -0.3250  0.4595
19297TIP3    H158773   0.107   8.246   3.242  1.1162  1.0524  0.1717
19297TIP3    H258774   0.039   8.360   3.168 -0.5840 -0.3166 -0.4248
19298TIP3   OH258775   2.398   2.533   6.666 -0.0088  0.2233  0.1831
19298TIP3    H158776   2.406   2.615   6.714  1.1929  1.0015 -1.2679
19298TIP3    H258777   2.480   2.526   6.617 -0.6767 -1.1609 -0.8007
19299TIP3   OH258778   9.365   9.142   1.869  0.3269 -0.3029 -0.7214
19299TIP3    H158779   9.283   9.131   1.821  0.5656  0.2864 -1.2626
19299TIP3    H258780   9.372   9.236   1.885  0.7104 -0.3926 -0.3409
19300TIP3   OH258781   2.652   2.828   2.646  0.3271 -0.2547  0.0709
19300TIP3    H158782   2.705   2.904   2.672 -2.3028  1.5488  0.6039
19300TIP3    H258783   2.628   2.786   2.729  1.5082 -1.5218 -0.2077
19301TIP3   OH258784   9.395   2.326   2.096  0.6634  0.2817  0.1347
19301TIP3    H158785   9.462   2.260   2.114  0.1517  0.2434  2.0946
19301TIP3    H258786   9.374   2.314   2.003  2.7765 -0.2274 -0.3166
19302TIP3   OH258787   8.094   5.684   0.803 -0.0067  0.4481 -0.0240
19302TIP3    H158788   8.028   5.743   0.841  2.3095  2.6129  0.9087
19302TIP3    H258789   8.159   5.743   0.764  0.3732 -1.6266 -2.8488
19303TIP3   OH258790   0.794   0.439   6.877  0.1756 -0.3170  0.8522
19303TIP3    H158791   0.859   0.368   6.878  0.5755  0.0461  0.9456
19303TIP3    H258792   0.752   0.434   6.963 -1.1216 -1.6328  0.1841
19304TIP3   OH258793   4.128  10.662   8.931  0.3266 -0.3218  0.8337
19304TIP3    H158794   4.106  10.747   8.893 -1.3981 -1.6372 -1.3327
19304TIP3    H258795   4.217  10.673   8.965  0.0499  2.3901  0.9038
19305TIP3   OH258796   0.944   8.711  10.122  0.0425  0.1583  0.1515
19305TIP3    H158797   0.863   8.704  10.072 -0.1584  2.8610 -0.0237
19305TIP3    H258798   0.915   8.726  10.212  0.3831 -0.2726  0.3392
19306TIP3   OH258799   8.953   8.604   0.708 -0.1339 -0.7329 -0.1098
19306TIP3    H158800   8.979   8.516   0.735 -0.6043 -1.0637 -0.7125
19306TIP3    H258801   8.991   8.615   0.620 -3.3051 -1.9036 -1.8098
19307TIP3   OH258802   9.763   3.920   3.342 -0.4859  0.1893  0.1927
19307TIP3    H158803   9.785   4.013   3.345  3.2536 -0.5548  1.7292
19307TIP3    H258804   9.676   3.915   3.380 -0.0231  2.9432  1.9151
19308TIP3   OH258805   7.342   8.432   0.566 -0.4077  0.4081 -0.4086
19308TIP3    H158806   7.421   8.397   0.607 -1.0936 -0.3187  0.3487
19308TIP3    H258807   7.324   8.513   0.614 -0.9951 -0.2451  0.4990
19309TIP3   OH258808   4.300   9.417   2.076  0.5246  0.0526  0.0300
19309TIP3    H158809   4.304   9.365   1.995  0.7792 -0.9119  0.6518
19309TIP3    H258810   4.211   9.404   2.108 -0.7226  3.0687 -1.7561
19310TIP3   OH258811   4.910   5.768   8.499 -0.3697  0.2657  0.0407
19310TIP3    H158812   4.833   5.724   8.463 -0.8181  1.3876 -0.3897
19310TIP3    H258813   4.929   5.719   8.580 -1.3970 -0.1543  0.0439
19311TIP3   OH258814  10.903   8.303   1.463 -0.1715 -0.1142 -0.1147
19311TIP3    H158815  10.850   8.268   1.533 -1.3150  0.2184 -0.7929
19311TIP3    H258816  10.919   8.394   1.487 -0.4644 -0.0332 -0.2252
19312TIP3   OH258817   4.184   1.455  10.206 -0.3468  0.7329 -0.1158
19312TIP3    H158818   4.129   1.525  10.241 -2.0132  0.5419 -2.1758
19312TIP3    H258819   4.124   1.382  10.192  0.8253 -0.1791 -0.5599
19313TIP3   OH258820   6.788   6.030   9.661  0.3163 -0.3946 -0.4267
19313TIP3    H158821   6.846   6.097   9.625  0.7832 -1.6007 -2.0460
19313TIP3    H258822   6.841   5.950   9.662 -0.0003 -0.6373  2.1243
19314TIP3   OH258823   5.501   7.059   3.799 -0.0865 -0.5597  0.4878
19314TIP3    H158824   5.469   6.997   3.865 -0.3890  0.2817  1.1519
19314TIP3    H258825   5.422   7.088   3.753 -0.0860  0.1231  0.8958
19315TIP3   OH258826   8.282   4.088   0.470  0.0182  0.1455  0.1202
19315TIP3    H158827   8.223   4.138   0.527  0.1123 -0.3311  0.6515
19315TIP3    H258828   8.292   4.142   0.392 -0.6419  0.5139  0.2793
19316TIP3   OH258829   1.597   4.535   3.577  0.3885  0.1276 -0.2551
19316TIP3    H158830   1.619   4.513   3.487 -1.1699 -0.9565 -0.4073
19316TIP3    H258831   1.587   4.450   3.621 -0.0185  0.6262  0.6470
19317TIP3   OH258832   5.005   0.959   3.104 -0.1044  0.2026  0.3515
19317TIP3    H158833   4.986   1.052   3.090 -2.3466  0.0016  1.5994
19317TIP3    H258834   5.100   0.955   3.115  0.2212  2.1131 -1.1932
19318TIP3   OH258835   2.876   8.311  10.303  0.7293  0.3619 -0.6717
19318TIP3    H158836   2.947   8.255  10.275  1.1751  0.8668 -0.5710
19318TIP3    H258837   2.880   8.309  10.399 -1.1747 -1.8572 -0.5478
19319TIP3   OH258838   8.247   6.280   5.468  0.0938 -0.5438  0.2039
19319TIP3    H158839   8.307   6.284   5.393  0.4676 -2.0846  0.3927
19319TIP3    H258840   8.204   6.194   5.461 -1.2242  0.0347  0.7454
19320TIP3   OH258841   2.460   2.044   8.599  0.5158 -0.0135 -0.3844
19320TIP3    H158842   2.398   2.093   8.544  1.3069 -1.5448 -2.8353
19320TIP3    H258843   2.542   2.092   8.589  0.6422 -0.2533 -0.5053
19321TIP3   OH258844   3.525   2.085   6.940  0.3654  0.6164  0.1346
19321TIP3    H158845   3.458   2.076   7.007  0.3056 -2.8673 -0.2217
19321TIP3    H258846   3.479   2.070   6.858  1.5869 -3.0989 -0.0443
19322TIP3   OH258847   1.568  10.062   8.896 -0.1015  0.0053 -0.5903
19322TIP3    H158848   1.574  10.158   8.901 -1.2872  0.0708 -0.0955
19322TIP3    H258849   1.602  10.032   8.980  0.2191 -0.0133 -0.7245
19323TIP3   OH258850   2.209   2.065   4.451 -0.2124  0.1382 -0.4649
19323TIP3    H158851   2.129   2.044   4.499 -0.2156 -0.3343 -0.6644
19323TIP3    H258852   2.250   1.980   4.435 -0.2541  0.2728 -1.3556
19324TIP3   OH258853   4.222   0.783   2.983 -0.2661  0.2517  0.2729
19324TIP3    H158854   4.217   0.699   3.029  0.0503  0.1834  0.1833
19324TIP3    H258855   4.210   0.849   3.052 -1.0207  0.1275  0.2682
19325TIP3   OH258856   4.373   1.899   0.294 -0.3753  0.0542  1.1708
19325TIP3    H158857   4.313   1.843   0.343  1.4047 -0.4042  2.9571
19325TIP3    H258858   4.382   1.977   0.349  0.1401  0.3970  0.5994
19326TIP3   OH258859   6.379   3.394   2.814  0.1061 -0.1816 -0.1610
19326TIP3    H158860   6.464   3.430   2.791  1.1343 -1.7552  1.0435
19326TIP3    H258861   6.396   3.304   2.841 -1.8137 -0.2873  0.9171
19327TIP3   OH258862   4.888   2.542   1.358 -1.0730 -0.3610  0.3758
19327TIP3    H158863   4.953   2.538   1.429 -0.2541 -1.3995 -0.3997
19327TIP3    H258864   4.925   2.488   1.289 -0.9979  2.0061 -1.5689
19328TIP3   OH258865   6.110   4.600   3.412 -0.4941  0.1825  0.4259
19328TIP3    H158866   6.086   4.540   3.341  0.4713  0.7176 -0.3876
19328TIP3    H258867   6.029   4.645   3.434 -0.8499 -0.1380 -0.1954
19329TIP3   OH258868  10.388   2.498  10.542  0.0533 -0.6089  0.0796
19329TIP3    H158869  10.311   2.490  10.487 -0.4007 -1.7519  0.8298
19329TIP3    H258870  10.391   2.415  10.590  0.7590  0.1167  1.3346
19330TIP3   OH258871   0.404   0.063   6.697 -0.0491  0.0254  0.2591
19330TIP3    H158872   0.322   0.095   6.733  0.1346 -0.4075  1.0987
19330TIP3    H258873   0.403  -0.031   6.714  0.7885  0.0707  0.6515
19331TIP3   OH258874   4.811   1.185   1.326  0.0715 -0.1192 -0.2190
19331TIP3    H158875   4.735   1.243   1.318  1.8070  2.2309 -0.6729
19331TIP3    H258876   4.825   1.153   1.237 -0.5918 -0.9010 -0.0580
19332TIP3   OH258877   7.600   8.312   8.080  0.4741  0.4537  0.2199
19332TIP3    H158878   7.514   8.345   8.054  0.4914  0.6602  0.4219
19332TIP3    H258879   7.662   8.366   8.030  0.5520  1.7390  1.6421
19333TIP3   OH258880   4.103   6.571   6.636  0.3450 -0.3772  0.1310
19333TIP3    H158881   4.139   6.651   6.675  1.3164 -1.5539  1.8171
19333TIP3    H258882   4.049   6.533   6.706 -1.0468 -0.6420 -1.0415
19334TIP3   OH258883   5.133   2.330   7.503  0.4098  0.3558  0.1810
19334TIP3    H158884   5.132   2.248   7.454  1.6087  1.9844 -2.8327
19334TIP3    H258885   5.193   2.314   7.576  2.1526 -0.8964 -1.4520
19335TIP3   OH258886   5.087   3.622   7.691 -0.2655 -0.4547 -0.2922
19335TIP3    H158887   5.027   3.683   7.648  0.4541 -0.9853 -2.1549
19335TIP3    H258888   5.152   3.679   7.732  0.0969  0.0906 -1.5615
19336TIP3   OH258889   8.489   6.002   2.047  0.0642 -0.2284 -0.3440
19336TIP3    H158890   8.566   5.945   2.044 -0.4807 -0.9745 -0.4097
19336TIP3    H258891   8.525   6.090   2.061  1.1171 -0.1957 -2.6995
19337TIP3   OH258892   0.019   2.688   1.735 -0.1015 -0.3042 -0.5127
19337TIP3    H158893  -0.050   2.664   1.797 -0.0509  0.2059 -0.2483
19337TIP3    H258894   0.028   2.612   1.678  0.6505 -1.2583  0.8209
19338TIP3   OH258895   4.191   3.946   2.045 -0.2697 -0.5107  0.5549
19338TIP3    H158896   4.169   3.886   2.117 -0.5917 -1.0054  0.0497
19338TIP3    H258897   4.113   4.001   2.035 -0.3700 -0.6943  0.3314
19339TIP3   OH258898   4.923   4.774   8.367  0.2517 -0.3348 -0.0840
19339TIP3    H158899   4.917   4.686   8.330  2.1830 -0.8388  0.7044
19339TIP3    H258900   5.016   4.796   8.362 -0.0675  1.3147  0.5606
19340TIP3   OH258901   7.351   8.490   5.106  0.3147 -0.4620  0.0071
19340TIP3    H158902   7.298   8.553   5.057 -1.7938 -1.1236  1.3104
19340TIP3    H258903   7.299   8.471   5.184  0.9299 -3.6879 -0.2371
19341TIP3   OH258904   9.473   5.687   8.033  0.1573  0.3483 -0.4703
19341TIP3    H158905   9.463   5.760   8.093 -0.9881 -1.0038  1.0608
19341TIP3    H258906   9.567   5.669   8.032  0.3663  1.3796 -0.3453
19342TIP3   OH258907   5.106   3.562   1.053 -0.6177 -0.2145 -0.3229
19342TIP3    H158908   5.197   3.573   1.024 -1.0455 -0.4488 -1.8434
19342TIP3    H258909   5.113   3.535   1.144  0.7992  0.9367 -0.0525
19343TIP3   OH258910   7.590   7.828   8.552  0.0452 -0.1386  0.2342
19343TIP3    H158911   7.626   7.776   8.624  0.9689 -0.2860 -0.3167
19343TIP3    H258912   7.660   7.829   8.486  0.4608  2.5881  0.5996
19344TIP3   OH258913   7.858   5.514   7.267 -0.0089  0.5682  0.0922
19344TIP3    H158914   7.857   5.547   7.177  1.4641  1.1689  0.2735
19344TIP3    H258915   7.950   5.517   7.293 -0.5181  1.2793  1.9576
19345TIP3   OH258916   9.662   5.094   4.358 -0.6323  0.1691 -0.3413
19345TIP3    H158917   9.588   5.075   4.416  0.9322 -0.4173  1.5492
19345TIP3    H258918   9.716   5.155   4.407  2.0679 -2.2895  0.0406
19346TIP3   OH258919   5.653   8.000   9.193  0.3629  0.0717 -0.1099
19346TIP3    H158920   5.656   8.078   9.248  0.9219  0.7147 -1.0349
19346TIP3    H258921   5.712   7.938   9.236  0.4349  0.3974  0.2622
19347TIP3   OH258922   8.604   4.267   5.874  0.2402 -0.9067  0.1432
19347TIP3    H158923   8.626   4.192   5.819  1.7167 -0.8359  0.5937
19347TIP3    H258924   8.576   4.229   5.957 -0.2910 -0.9784 -0.0669
19348TIP3   OH258925   6.323   9.938   8.038 -0.1230 -0.0888  0.2434
19348TIP3    H158926   6.381   9.925   8.113 -0.7280 -0.8609  0.5970
19348TIP3    H258927   6.364   9.887   7.967 -1.2852 -2.2180  1.0015
19349TIP3   OH258928   6.744   6.002   3.827  0.2212  0.1908 -0.0291
19349TIP3    H158929   6.686   6.077   3.841  0.4417  0.1022  1.5572
19349TIP3    H258930   6.777   5.981   3.914  1.1493 -0.9681 -0.6330
19350TIP3   OH258931   8.340   2.903  10.514  0.4733 -1.3214 -0.6713
19350TIP3    H158932   8.410   2.846  10.546  1.0954 -0.9901 -1.3971
19350TIP3    H258933   8.302   2.856  10.441  0.2341 -1.3000 -0.5622
19351TIP3   OH258934   3.427   7.566   3.629 -0.6478 -0.2662  0.2725
19351TIP3    H158935   3.437   7.542   3.721 -0.0452  1.8165  0.7882
19351TIP3    H258936   3.358   7.632   3.629 -0.4107 -0.0011 -0.7314
19352TIP3   OH258937   3.358   5.014   6.215  0.0329 -0.2487 -0.2335
19352TIP3    H158938   3.346   4.926   6.250  0.8374 -0.7056 -1.0609
19352TIP3    H258939   3.433   5.048   6.264 -0.6078  0.1929  0.4620
19353TIP3   OH258940   1.756   1.273   4.188 -0.5378  0.1103 -0.7147
19353TIP3    H158941   1.813   1.263   4.111 -0.7281 -2.8648 -0.5713
19353TIP3    H258942   1.668   1.266   4.153 -0.6641 -0.0669 -0.3605
19354TIP3   OH258943   7.380   4.927   5.968  0.1571  0.1082 -0.2252
19354TIP3    H158944   7.463   4.971   5.987 -0.8165  1.5350  1.0034
19354TIP3    H258945   7.380   4.850   6.025 -0.5046  1.5978  1.9125
19355TIP3   OH258946   7.196   0.268   3.809 -0.2670 -0.6850 -0.2776
19355TIP3    H158947   7.247   0.303   3.882  0.9713  1.5405 -2.0985
19355TIP3    H258948   7.117   0.233   3.850  0.3315  0.5636  2.1058
19356TIP3   OH258949   5.138   2.570   6.748  0.2151  0.0480 -0.1948
19356TIP3    H158950   5.224   2.557   6.790  0.6062 -0.9337 -1.2501
19356TIP3    H258951   5.094   2.633   6.804  0.0460 -2.3907  2.6938
19357TIP3   OH258952   1.430   5.441   8.969 -0.3894  0.7554  0.3496
19357TIP3    H158953   1.412   5.349   8.988  0.8901  0.5419  0.6189
19357TIP3    H258954   1.503   5.464   9.026 -0.8509  2.0178  0.4612
19358TIP3   OH258955   2.287   3.900   0.423 -0.2869  0.4130  0.0474
19358TIP3    H158956   2.238   3.976   0.455 -0.6625  0.3570 -0.3816
19358TIP3    H258957   2.221   3.832   0.409  0.1672 -0.3413  1.3884
19359TIP3   OH258958   4.576   5.127   1.294  0.1135 -0.3167 -0.1813
19359TIP3    H158959   4.664   5.097   1.315 -0.0886 -0.3578  0.6743
19359TIP3    H258960   4.588   5.196   1.229  0.8667  0.5091  0.7961
19360TIP3   OH258961   2.766   6.910   9.839 -0.8399 -0.5957  0.4072
19360TIP3    H158962   2.740   6.990   9.886  0.7515  0.6622 -0.7409
19360TIP3    H258963   2.685   6.879   9.799 -1.3185  1.1597 -0.1045
19361TIP3   OH258964   2.293   6.987   0.129  0.0946 -0.0050  0.8599
19361TIP3    H158965   2.308   6.915   0.190  0.1014  0.0708  0.9476
19361TIP3    H258966   2.317   6.951   0.043 -1.7498 -0.7297  0.6116
19362TIP3   OH258967   7.962   2.253   6.052  0.1058  0.3172 -0.1774
19362TIP3    H158968   7.912   2.247   5.971 -0.5542 -1.4621  0.3129
19362TIP3    H258969   8.025   2.181   6.046  0.3758  0.4787  0.6616
19363TIP3   OH258970   2.578   0.060   0.856 -0.0560  0.5858  0.6522
19363TIP3    H158971   2.600   0.030   0.944  0.0049  0.0376  0.4539
19363TIP3    H258972   2.640   0.014   0.799 -0.6617  0.2662  0.2445
19364TIP3   OH258973   0.507   5.295   6.112  0.1226 -0.4225  0.2019
19364TIP3    H158974   0.559   5.375   6.100  0.4515 -0.3442  1.9602
19364TIP3    H258975   0.420   5.320   6.082  0.8273 -0.2995 -1.9839
19365TIP3   OH258976   4.571   5.248   7.027 -0.1830 -0.0246  0.1865
19365TIP3    H158977   4.613   5.168   7.059  0.3105 -0.1360 -0.6948
19365TIP3    H258978   4.478   5.226   7.021 -0.1937 -0.1992  0.9182
19366TIP3   OH258979  10.247   6.432   4.079  0.4342 -0.0908 -0.1404
19366TIP3    H158980  10.236   6.526   4.067 -0.2046 -0.3537 -1.8141
19366TIP3    H258981  10.307   6.425   4.153 -1.3591  1.5717  1.5918
19367TIP3   OH258982  10.706   1.133   6.145 -0.6170 -0.0470  0.2983
19367TIP3    H158983  10.777   1.161   6.086 -1.4265 -0.2634 -0.8203
19367TIP3    H258984  10.735   1.160   6.232  1.0286 -0.4887 -0.0743
19368TIP3   OH258985   7.524   7.195   3.858 -0.3255  0.6335 -0.1629
19368TIP3    H158986   7.480   7.187   3.943 -3.0065 -0.1561 -1.5278
19368TIP3    H258987   7.542   7.289   3.850  1.5557  0.5568  1.9271
19369TIP3   OH258988   4.650   6.234   6.875  0.9380  0.2506  0.3118
19369TIP3    H158989   4.669   6.152   6.921 -1.4780 -0.9699 -0.6549
19369TIP3    H258990   4.692   6.224   6.790  0.7629  0.0708  0.2456
19370TIP3   OH258991   6.015   7.927   7.888 -0.1085  0.4064  0.2466
19370TIP3    H158992   6.109   7.940   7.898  0.1307 -0.7859 -0.2690
19370TIP3    H258993   5.994   7.855   7.948 -0.8906  1.3095  1.0987
19371TIP3   OH258994  10.507   6.756   7.048  0.4092  0.2418 -0.0268
19371TIP3    H158995  10.454   6.835   7.040  0.1922 -0.0736 -2.7607
19371TIP3    H258996  10.590   6.778   7.007 -0.0552 -1.2246 -1.8894
19372TIP3   OH258997   6.240   2.979   8.026 -0.4023  0.0582  0.0371
19372TIP3    H158998   6.148   2.953   8.033 -0.5310 -0.2382 -2.0496
19372TIP3    H258999   6.258   3.026   8.107 -2.6102  0.7731  0.1760
19373TIP3   OH259000   6.516   6.382   4.753 -1.0372 -0.0747 -0.1116
19373TIP3    H159001   6.555   6.408   4.837  1.6925 -1.0177 -0.9617
19373TIP3    H259002   6.450   6.317   4.776 -1.4967  0.8675  1.3786
19374TIP3   OH259003   9.956   1.778   2.991  0.2007 -0.2164  0.4824
19374TIP3    H159004   9.950   1.873   2.978 -0.2642 -0.2348  0.5638
19374TIP3    H259005  10.043   1.756   2.957 -0.4887 -0.0719 -1.5342
19375TIP3   OH259006   2.068   4.813   2.361  0.2498 -0.4548  0.0272
19375TIP3    H159007   2.038   4.790   2.449 -2.4329  0.8484 -0.4410
19375TIP3    H259008   2.149   4.763   2.350 -0.6596 -2.6531  2.2474
19376TIP3   OH259009   9.689   1.072   0.888  0.3808  0.0881 -0.2325
19376TIP3    H159010   9.738   1.115   0.958  0.1157  0.0788 -0.0391
19376TIP3    H259011   9.610   1.040   0.931  0.2922 -0.0584 -0.5043
19377TIP3   OH259012   6.516   7.068   7.380 -0.1478  0.0648  0.3716
19377TIP3    H159013   6.518   7.131   7.308  1.5487 -1.5922 -1.1317
19377TIP3    H259014   6.491   6.986   7.339 -2.5647 -0.2904  2.3386
19378TIP3   OH259015   4.619   1.077   7.056  0.6142  0.1645 -1.1811
19378TIP3    H159016   4.583   1.016   7.121  0.5382  0.3356 -1.0619
19378TIP3    H259017   4.645   1.021   6.983  0.8729 -0.0510 -0.9276
19379TIP3   OH259018   2.520   4.425   6.643  0.0906 -0.3099  0.0455
19379TIP3    H159019   2.477   4.407   6.727 -0.6504  1.1846  0.0249
19379TIP3    H259020   2.584   4.354   6.633 -0.3560 -0.9593  1.4847
19380TIP3   OH259021   1.439   2.638   3.704  0.2615 -0.3869 -0.2025
19380TIP3    H159022   1.364   2.579   3.719 -0.1995  0.2179 -0.1003
19380TIP3    H259023   1.429   2.666   3.613 -0.6758  1.1124  0.3301
19381TIP3   OH259024   9.580   7.827   5.074  0.0487 -0.3814 -0.1679
19381TIP3    H159025   9.545   7.907   5.034  1.8540 -0.3290 -1.8022
19381TIP3    H259026   9.503   7.779   5.104 -1.2591  0.6158 -1.7939
19382TIP3   OH259027   0.119   0.975   5.176 -0.3059 -0.0956  0.0354
19382TIP3    H159028   0.052   0.970   5.245 -1.2204  0.5218 -0.7734
19382TIP3    H259029   0.159   0.888   5.175 -1.1285 -0.4951  0.5291
19383TIP3   OH259030   2.488   8.810  10.588 -0.0295 -0.5631  0.5570
19383TIP3    H159031   2.428   8.885  10.589  1.0112  0.4584 -2.6371
19383TIP3    H259032   2.557   8.835  10.527  1.1452 -3.5671  0.4732
19384TIP3   OH259033   5.435   0.826   4.136 -0.3769  0.3184 -0.2341
19384TIP3    H159034   5.424   0.921   4.122  1.7458  0.6102 -0.2588
19384TIP3    H259035   5.396   0.786   4.059 -0.7401  1.2195 -0.5328
19385TIP3   OH259036   9.483   7.233   6.935 -0.0790 -0.1464  0.2463
19385TIP3    H159037   9.477   7.139   6.947 -2.8316 -0.1762 -0.7108
19385TIP3    H259038   9.558   7.245   6.876 -0.0616 -1.7884 -0.1089
19386TIP3   OH259039   4.796   2.752   0.432 -0.1840  0.6736  0.0696
19386TIP3    H159040   4.712   2.733   0.390 -1.3280  1.3445  1.8940
19386TIP3    H259041   4.778   2.828   0.487  2.0094  1.6874 -0.5112
19387TIP3   OH259042   9.166   6.015  10.705 -0.1273 -0.3923 -0.3257
19387TIP3    H159043   9.254   6.050  10.694  0.1928 -0.7155  1.0396
19387TIP3    H259044   9.108   6.090  10.688  0.4740  0.2668  0.4550
19388TIP3   OH259045   9.542   7.099  10.201 -0.5139 -0.4110  0.0707
19388TIP3    H159046   9.592   7.018  10.191 -0.3355 -0.2824 -0.0682
19388TIP3    H259047   9.588   7.163  10.148  1.5950  0.8181  3.0956
19389TIP3   OH259048   8.355   1.664   3.307 -0.0543  0.0988 -0.1871
19389TIP3    H159049   8.368   1.676   3.401  0.1403 -1.0448 -0.0525
19389TIP3    H259050   8.264   1.635   3.300 -0.1404  0.4155 -0.3749
19390TIP3   OH259051   2.624   5.243  10.647 -0.6633 -0.0580 -0.2195
19390TIP3    H159052   2.578   5.170  10.689 -0.8187  0.1325 -0.0593
19390TIP3    H259053   2.603   5.319  10.701 -0.9608  0.2094 -0.7041
19391TIP3   OH259054   7.032   7.113   5.846 -0.1535  0.1164  0.3535
19391TIP3    H159055   6.988   7.178   5.900 -0.3957  0.3616 -0.1246
19391TIP3    H259056   7.014   7.141   5.756  1.1409  0.3295  0.1389
19392TIP3   OH259057   8.820   5.015  10.603  0.3852  0.0028  0.1677
19392TIP3    H159058   8.839   5.089  10.662 -1.5541  1.7932 -1.2807
19392TIP3    H259059   8.824   5.053  10.515  2.6347 -2.4593 -0.9198
19393TIP3   OH259060  10.619   2.487   0.615  1.0422  0.4612  0.8604
19393TIP3    H159061  10.700   2.435   0.611 -0.0540 -1.2675 -0.2232
19393TIP3    H259062  10.598   2.493   0.708  2.1669  0.5509  1.1178
19394TIP3   OH259063   8.278   2.073   1.238  0.2815 -0.7030 -0.2766
19394TIP3    H159064   8.242   2.051   1.324 -1.4383 -0.9822 -1.0367
19394TIP3    H259065   8.255   2.165   1.225  2.8821  0.1858  0.6407
19395TIP3   OH259066   6.842  10.193   7.222  0.0788  0.1766  0.0406
19395TIP3    H159067   6.874  10.277   7.187  0.8502 -0.4907 -0.9129
19395TIP3    H259068   6.909  10.165   7.284  0.0842  0.0110 -0.0397
19396TIP3   OH259069   5.007  10.609   5.978 -0.2900 -1.0064  0.0781
19396TIP3    H159070   5.042  10.669   5.912 -3.1807  2.4591  1.3830
19396TIP3    H259071   4.930  10.570   5.936 -0.8702 -0.4799  0.6410
19397TIP3   OH259072   0.031   2.350   2.098  1.1435 -0.2529 -0.2179
19397TIP3    H159073  -0.029   2.425   2.091  1.6002  0.2850  1.3639
19397TIP3    H259074  -0.011   2.281   2.046 -1.0015  0.0031  1.0686
19398TIP3   OH259075   3.332   2.512   2.283  0.8338 -0.3357 -0.4660
19398TIP3    H159076   3.296   2.563   2.357 -0.2452 -0.1940 -1.0627
19398TIP3    H259077   3.427   2.519   2.293  0.7057  0.9921  0.0185
19399TIP3   OH259078   8.990   6.921   7.777  0.6849  0.0556  0.0474
19399TIP3    H159079   8.963   6.850   7.836 -1.0391 -0.1230 -0.8892
19399TIP3    H259080   9.085   6.923   7.784  0.6286 -0.9631  1.6696
19400TIP3   OH259081   3.316   7.232   7.145 -0.4491  0.0560 -0.7796
19400TIP3    H159082   3.411   7.239   7.136  0.3135 -2.9145  2.6751
19400TIP3    H259083   3.292   7.301   7.207 -0.5651  0.6102 -1.4213
19401TIP3   OH259084  10.353   6.175   9.258  0.3290  0.1644 -0.1931
19401TIP3    H159085  10.436   6.219   9.273  0.3737 -0.0136  0.0787
19401TIP3    H259086  10.288   6.230   9.301  0.3562  0.0915 -0.0588
19402TIP3   OH259087  10.790   9.955   9.426  0.0439 -0.3796  0.1107
19402TIP3    H159088  10.694   9.950   9.433 -0.1431 -0.2760 -1.9608
19402TIP3    H259089  10.821   9.927   9.512 -1.7726 -3.0963 -0.0104
19403TIP3   OH259090  10.659  10.035   7.920  0.2080  0.1795 -0.5594
19403TIP3    H159091  10.645   9.990   8.003  1.9189 -0.1056 -0.3827
19403TIP3    H259092  10.729  10.098   7.938 -0.8977  1.6882 -1.2584
19404TIP3   OH259093  10.603   5.189   4.251  0.1455  0.0315  0.2259
19404TIP3    H159094  10.528   5.130   4.251  1.0450 -1.1412 -0.7732
19404TIP3    H259095  10.662   5.155   4.184  0.3363  2.5422 -1.0310
19405TIP3   OH259096   0.746   2.197   6.454  0.3791 -0.5830 -0.3343
19405TIP3    H159097   0.760   2.164   6.365 -1.3494 -2.2394 -0.0713
19405TIP3    H259098   0.833   2.223   6.484  1.4591 -2.5262 -1.5543
19406TIP3   OH259099   2.908   0.170   3.446  0.3361  0.4291 -0.0174
19406TIP3    H159100   2.982   0.119   3.477 -0.6980 -0.7785  0.5608
19406TIP3    H259101   2.876   0.216   3.524 -0.2009  0.0540 -0.0112
19407TIP3   OH259102  10.731   0.028   3.718 -0.2306 -0.5109 -0.3468
19407TIP3    H159103  10.821   0.024   3.684 -0.5061  0.0692 -1.1666
19407TIP3    H259104  10.710   0.121   3.719  0.0068 -0.4078  2.1409
19408TIP3   OH259105   3.040   5.709   1.894  0.7395  0.4578 -0.0651
19408TIP3    H159106   3.038   5.701   1.799 -1.2186 -1.3379  0.0378
19408TIP3    H259107   2.974   5.647   1.925  2.2532 -0.0313  2.5548
19409TIP3   OH259108   1.964   1.833   6.920  0.1984 -0.1720  0.1221
19409TIP3    H159109   1.980   1.923   6.891  2.0110 -0.0205  1.4219
19409TIP3    H259110   2.046   1.787   6.900 -0.9840 -1.7659 -1.2563
19410TIP3   OH259111   7.636   4.512   5.517 -0.4523  0.1691 -0.1845
19410TIP3    H159112   7.568   4.451   5.487 -0.5075  0.5748 -0.9034
19410TIP3    H259113   7.685   4.462   5.582 -0.0611 -0.9174 -1.2658
19411TIP3   OH259114   2.309   3.920   9.210  0.1812 -0.3639  0.7885
19411TIP3    H159115   2.340   3.855   9.273  0.2777  0.9308  2.1249
19411TIP3    H259116   2.373   3.991   9.216  0.5287 -0.4398 -1.2262
19412TIP3   OH259117   6.730   4.415   3.266  0.7045  0.0101 -0.4077
19412TIP3    H159118   6.709   4.495   3.315  3.0803  1.2312 -1.2065
19412TIP3    H259119   6.792   4.368   3.323  2.1069  0.5751 -1.4059
19413TIP3   OH259120  10.547   0.171   0.585 -0.5199 -0.3052  0.1700
19413TIP3    H159121  10.547   0.086   0.628  0.5230 -0.2330  0.3573
19413TIP3    H259122  10.615   0.164   0.518 -0.5725  0.3073  0.0423
19414TIP3   OH259123   5.564   6.492   2.404  0.3631  0.4448  0.3247
19414TIP3    H159124   5.596   6.577   2.376  1.7010 -0.5469 -1.3923
19414TIP3    H259125   5.540   6.447   2.323 -0.0110 -0.9297  1.1583
19415TIP3   OH259126   7.674   1.028   2.776  0.3977  0.1458 -0.3142
19415TIP3    H159127   7.716   1.075   2.848  1.2605  0.3061 -0.8962
19415TIP3    H259128   7.591   1.073   2.762  0.1731  0.0423  0.6468
19416TIP3   OH259129  10.458   0.046   8.120  0.0631 -0.4382  0.2131
19416TIP3    H159130  10.493   0.104   8.187  0.8617 -0.6621 -0.0086
19416TIP3    H259131  10.367   0.031   8.147 -0.3702  1.4254 -0.0813
19417TIP3   OH259132   2.013   4.846  10.368  0.1203  0.0113  0.3380
19417TIP3    H159133   2.034   4.896  10.289  0.8984  0.5699  0.8744
19417TIP3    H259134   1.919   4.856  10.380  0.2205  1.1166  0.2658
19418TIP3   OH259135   7.676   7.583   6.243  0.3903 -0.3420 -0.6764
19418TIP3    H159136   7.738   7.624   6.183  0.2298 -1.6917 -1.8255
19418TIP3    H259137   7.590   7.603   6.206  0.2064  0.1100 -0.0237
19419TIP3   OH259138   6.697   6.599  10.475  0.3403  0.4318  0.1556
19419TIP3    H159139   6.751   6.615  10.398  1.7195 -2.3980  0.4078
19419TIP3    H259140   6.609   6.625  10.448  1.0392  0.8215 -1.8940
19420TIP3   OH259141   1.754   0.147  10.847  0.0016  0.3839  0.0379
19420TIP3    H159142   1.689   0.158  10.916  0.5542 -1.5959  0.9357
19420TIP3    H259143   1.753   0.231  10.801 -2.2280  0.8633  0.8154
19421TIP3   OH259144   1.470   1.492   6.434  0.1604 -0.2206 -0.1484
19421TIP3    H159145   1.476   1.586   6.417 -1.9929 -0.3418 -2.1495
19421TIP3    H259146   1.401   1.483   6.500 -0.1767 -0.4074 -0.5185
19422TIP3   OH259147   6.242   7.057   9.367  0.5146  0.2642 -0.2093
19422TIP3    H159148   6.224   7.061   9.461 -0.3489 -2.1751 -0.1805
19422TIP3    H259149   6.309   7.123   9.352 -1.5368  2.9310  1.5211
19423TIP3   OH259150   1.945   9.612   7.890  0.4289 -0.3510  0.1718
19423TIP3    H159151   1.910   9.526   7.913  0.9680 -0.3823  0.8891
19423TIP3    H259152   1.965   9.605   7.797  2.2068 -1.6233  0.6098
19424TIP3   OH259153   7.180   4.905   7.047 -0.6282 -0.2927  0.0465
19424TIP3    H159154   7.178   4.812   7.024  0.7186 -0.7584  1.6317
19424TIP3    H259155   7.265   4.918   7.088 -2.0647  0.8157  3.0288
19425TIP3   OH259156   2.253   8.940   8.907 -0.0303 -0.0249 -0.2106
19425TIP3    H159157   2.229   8.962   8.818  0.7676 -2.3754 -1.0888
19425TIP3    H259158   2.341   8.902   8.900  0.1024 -0.1409  1.5715
19426TIP3   OH259159   1.234   8.424   9.714  0.0299  0.2781 -0.1211
19426TIP3    H159160   1.283   8.392   9.789 -1.3924  1.1787  1.2659
19426TIP3    H259161   1.300   8.447   9.649  1.3012 -0.4666  0.8763
19427TIP3   OH259162  10.060   1.169   6.368  0.1721  0.6234  0.3978
19427TIP3    H159163   9.987   1.222   6.401 -1.1124 -0.4897 -0.5267
19427TIP3    H259164  10.119   1.160   6.443 -1.7722 -0.3526  1.8953
19428TIP3   OH259165   2.864   1.269   0.167 -0.1190  0.6524  0.1337
19428TIP3    H159166   2.894   1.297   0.254  0.7977  0.0377  0.0227
19428TIP3    H259167   2.942   1.235   0.124 -0.7013  0.3333 -0.6948
19429TIP3   OH259168   1.238   1.513   4.391 -0.8851  0.3622 -0.1916
19429TIP3    H159169   1.328   1.483   4.380 -0.6568  0.9652 -0.0327
19429TIP3    H259170   1.186   1.454   4.336 -0.3054  0.4552 -0.8585
19430TIP3   OH259171   2.297   9.218   5.407  0.6177 -0.0288 -0.0381
19430TIP3    H159172   2.206   9.243   5.423  0.0615 -1.3773 -0.8715
19430TIP3    H259173   2.338   9.221   5.493 -1.0752 -2.5258  0.9626
19431TIP3   OH259174   5.729   3.047   6.072  0.4255  0.4706 -0.1455
19431TIP3    H159175   5.737   3.099   5.991  0.4452  0.3083 -0.2466
19431TIP3    H259176   5.732   2.956   6.043 -0.1961  0.4070 -0.0271
19432TIP3   OH259177  10.480   0.769   2.754  0.1905  0.1991 -0.7083
19432TIP3    H159178  10.427   0.730   2.685 -1.1737 -2.7026  1.7613
19432TIP3    H259179  10.417   0.812   2.812  0.5267 -1.7873  1.3164
19433TIP3   OH259180   2.757   3.588   7.353 -0.0948 -0.2263  0.1307
19433TIP3    H159181   2.769   3.677   7.320 -2.0518  0.4860  1.2174
19433TIP3    H259182   2.847   3.558   7.370  0.6030  2.1425  1.2431
19434TIP3   OH259183   8.796   6.718   6.005  0.7859 -0.4652  0.2740
19434TIP3    H159184   8.755   6.698   5.920  0.4474 -1.6663  0.6983
19434TIP3    H259185   8.764   6.806   6.026  0.1625 -0.5071 -0.4285
19435TIP3   OH259186   6.600   7.165   2.126  0.7267 -0.3933  0.1286
19435TIP3    H159187   6.507   7.187   2.127  0.7981  0.0819 -1.1857
19435TIP3    H259188   6.636   7.209   2.203  0.4985  2.6273 -1.3189
19436TIP3   OH259189   3.052   1.381   7.394 -0.0017  0.1313  0.5731
19436TIP3    H159190   3.134   1.332   7.397 -0.5853 -0.8804  0.4160
19436TIP3    H259191   3.000   1.336   7.328  0.3977  2.5118 -1.5154
19437TIP3   OH259192   6.322   6.766   1.941 -0.3047 -0.1509 -0.5768
19437TIP3    H159193   6.319   6.860   1.926 -0.3719 -0.2567 -1.2426
19437TIP3    H259194   6.388   6.733   1.880  1.3958 -0.2574  1.2144
19438TIP3   OH259195  10.524   4.605   6.204 -0.0885  0.2710  0.6347
19438TIP3    H159196  10.541   4.572   6.292 -0.8999 -0.4107  0.5528
19438TIP3    H259197  10.605   4.589   6.156 -0.3016 -1.2072  0.7253
19439TIP3   OH259198   0.777   1.397  10.221  0.3833 -0.6880  0.5938
19439TIP3    H159199   0.709   1.372  10.283  1.3056 -0.3680  1.7865
19439TIP3    H259200   0.840   1.325  10.224  0.6736 -0.4459  0.3923
19440TIP3   OH259201   2.581   5.114   6.953  0.0366  0.3059 -0.0461
19440TIP3    H159202   2.648   5.077   6.896  0.3140  0.9566 -0.1508
19440TIP3    H259203   2.613   5.202   6.974  0.4939 -0.3271  2.0587
19441TIP3   OH259204   4.443   9.738   3.567 -0.0154  0.5979  0.0292
19441TIP3    H159205   4.477   9.657   3.529  0.5016 -0.1016  1.8951
19441TIP3    H259206   4.383   9.772   3.500 -0.5525 -1.5102 -0.6432
19442TIP3   OH259207   3.128  10.647   2.916  0.2110  0.0536 -0.3230
19442TIP3    H159208   3.119  10.554   2.896  0.6419 -0.3113  1.0257
19442TIP3    H259209   3.062  10.691   2.863 -0.3549 -1.0842 -0.5681
19443TIP3   OH259210   2.943   2.293   7.184 -0.1084 -0.6745  0.2222
19443TIP3    H159211   2.904   2.310   7.270  0.5272  0.7179  0.2696
19443TIP3    H259212   2.992   2.211   7.196  0.2776 -0.3077  1.3149
19444TIP3   OH259213   7.126   0.544   8.740  0.3725 -0.4497 -0.1428
19444TIP3    H159214   7.068   0.608   8.781  1.1512 -0.5879  1.2382
19444TIP3    H259215   7.077   0.462   8.741  0.3948 -0.4596  0.5717
19445TIP3   OH259216   7.431   5.996   7.083 -0.2448  0.2543 -0.1467
19445TIP3    H159217   7.515   6.024   7.119 -0.5819 -0.9738  1.7378
19445TIP3    H259218   7.372   5.993   7.159 -1.3881 -1.0842 -1.0308
19446TIP3   OH259219   5.933   3.626   5.543 -0.0754  0.2501 -0.1191
19446TIP3    H159220   5.871   3.555   5.525  0.9377 -0.7206  0.1409
19446TIP3    H259221   6.017   3.593   5.511  1.0364  0.0617  2.6946
19447TIP3   OH259222   2.667   1.884   2.004  0.0709 -0.8879  0.2228
19447TIP3    H159223   2.613   1.950   2.048 -0.6059 -0.0053 -1.8010
19447TIP3    H259224   2.711   1.837   2.076  1.1891  2.2168  1.7608
19448TIP3   OH259225   7.480   7.045   1.408  0.0705  0.0812  0.2200
19448TIP3    H159226   7.516   6.969   1.453  0.0529  0.3316  0.6561
19448TIP3    H259227   7.557   7.093   1.377  0.2102  1.4482  2.5008
19449TIP3   OH259228   0.029   0.457   4.995 -0.4187  0.5307  0.1079
19449TIP3    H159229   0.084   0.432   5.069  1.1286  1.3810 -0.7050
19449TIP3    H259230   0.066   0.409   4.921 -1.1178  0.6953 -0.3518
19450TIP3   OH259231   4.882   5.735   0.913 -0.3167  0.0371  0.4976
19450TIP3    H159232   4.810   5.777   0.961  0.1970  0.3833  0.9638
19450TIP3    H259233   4.951   5.724   0.977  1.1749  2.3746 -0.5904
19451TIP3   OH259234   4.742   5.948   6.308 -0.6119  0.6880  0.4560
19451TIP3    H159235   4.792   5.998   6.373 -1.8677  1.7292  0.6610
19451TIP3    H259236   4.659   5.929   6.351  0.0836 -2.3766  0.6952
19452TIP3   OH259237   6.321   7.592   6.821  0.4352  0.1560  0.1884
19452TIP3    H159238   6.265   7.617   6.895  0.2993 -1.5884  0.7353
19452TIP3    H259239   6.394   7.546   6.861  1.1759  0.5613 -0.6746
19453TIP3   OH259240   4.461   7.866   9.102 -0.0874  0.1667  0.3784
19453TIP3    H159241   4.469   7.928   9.175  3.3343 -0.7859  0.9948
19453TIP3    H259242   4.528   7.893   9.039 -0.0590 -1.5315 -0.3957
19454TIP3   OH259243   0.560   6.852   9.386 -0.7116  0.7217  0.5408
19454TIP3    H159244   0.580   6.928   9.331  2.3898  0.6301  1.3792
19454TIP3    H259245   0.582   6.880   9.475 -0.8565 -0.7049  1.0507
19455TIP3   OH259246   9.135   5.439  10.691  0.4339  0.4715  0.0661
19455TIP3    H159247   9.074   5.434  10.618  0.0854  2.5659  0.1486
19455TIP3    H259248   9.214   5.395  10.660  1.1288  3.1827 -2.5170
19456TIP3   OH259249   2.537   1.146   5.267  0.3522 -0.3395 -0.1047
19456TIP3    H159250   2.565   1.168   5.356  1.3311 -1.2564 -0.1788
19456TIP3    H259251   2.543   1.051   5.262 -0.0675 -0.3292 -1.0413
19457TIP3   OH259252  10.113   3.126   0.719 -0.2089 -0.1984  0.6378
19457TIP3    H159253  10.035   3.072   0.735 -0.8519  0.6678  0.4964
19457TIP3    H259254  10.097   3.167   0.634  1.1454 -1.2501 -0.1788
19458TIP3   OH259255   2.767   8.743  10.700  0.5304 -0.2970  0.1156
19458TIP3    H159256   2.702   8.678  10.729 -1.4935  1.6392  0.2136
19458TIP3    H259257   2.722   8.827  10.710  3.1317  1.1673  0.2354
19459TIP3   OH259258   1.632   5.466   4.290  0.4305  0.2240 -0.5735
19459TIP3    H159259   1.589   5.381   4.290  1.0567 -0.1137  0.7632
19459TIP3    H259260   1.603   5.508   4.209 -3.2630  0.4507  0.6826
19460TIP3   OH259261   0.195   9.755   1.057 -0.0073 -0.3521 -0.0895
19460TIP3    H159262   0.248   9.685   1.018  0.2484 -1.2917  1.8380
19460TIP3    H259263   0.256   9.806   1.109 -0.2443  1.2293 -1.2914
19461TIP3   OH259264   5.681   8.654   1.088  0.3188 -0.3588 -0.6508
19461TIP3    H159265   5.697   8.692   1.174 -2.2068 -0.4068 -0.1012
19461TIP3    H259266   5.691   8.727   1.027 -0.1411  0.1892 -0.0769
19462TIP3   OH259267   9.257   0.410  10.808 -0.1148  0.4007 -0.0666
19462TIP3    H159268   9.176   0.386  10.764 -0.5123  0.8090  0.4250
19462TIP3    H259269   9.325   0.396  10.743 -0.4156 -1.2232 -0.0613
19463TIP3   OH259270   1.014   7.251   3.952  0.0220 -0.6812 -0.7087
19463TIP3    H159271   0.941   7.284   4.005 -0.1230 -0.7606 -0.8592
19463TIP3    H259272   1.014   7.156   3.966  0.0825 -0.6841 -0.7249
19464TIP3   OH259273   9.630   1.138   6.430  0.0276  0.0196  0.2144
19464TIP3    H159274   9.546   1.134   6.474 -0.5347  0.7028 -0.7480
19464TIP3    H259275   9.636   1.229   6.398  1.1426 -0.0034  0.2980
19465TIP3   OH259276   6.919   7.982  10.365 -0.6711 -0.3256 -0.0303
19465TIP3    H159277   6.899   7.889  10.370 -0.3928 -0.3275  2.4047
19465TIP3    H259278   6.833   8.024  10.355 -0.7428 -0.8402 -1.8108
19466TIP3   OH259279   3.395  10.080   3.459  0.0000 -0.0297  0.3131
19466TIP3    H159280   3.454  10.093   3.384  1.3994 -0.3584  1.3191
19466TIP3    H259281   3.437  10.012   3.511 -2.3105 -1.7635  0.0591
19467TIP3   OH259282   8.601   6.165   0.878 -0.0608 -0.1725 -1.0398
19467TIP3    H159283   8.595   6.222   0.955  0.3248  0.5641 -1.5459
19467TIP3    H259284   8.607   6.225   0.804  0.9759 -0.8588 -1.5346
19468TIP3   OH259285   8.314   8.755   2.398 -0.0238 -0.8950 -0.2391
19468TIP3    H159286   8.219   8.745   2.399 -0.1788  0.3866  0.2570
19468TIP3    H259287   8.335   8.794   2.482  0.6070  1.2883 -1.3297
19469TIP3   OH259288   2.514   3.721   6.539  0.1799 -0.0341  0.8986
19469TIP3    H159289   2.458   3.794   6.511 -1.6486 -1.6622  0.1049
19469TIP3    H259290   2.500   3.654   6.473 -0.6609 -2.2935  3.2287
19470TIP3   OH259291   6.243   7.376  10.353 -0.1855  0.0634 -0.2740
19470TIP3    H159292   6.334   7.357  10.330 -0.2033  0.8096 -1.0163
19470TIP3    H259293   6.200   7.395  10.269 -1.3050 -1.3496 -0.0607
19471TIP3   OH259294   4.168  10.681   7.314 -0.1330  0.4639 -0.2078
19471TIP3    H159295   4.204  10.691   7.226  0.4753  1.0860  0.0943
19471TIP3    H259296   4.112  10.604   7.309 -0.5192  0.7976 -1.2705
19472TIP3   OH259297   3.018   9.663   8.323  0.6030  0.5204 -0.3258
19472TIP3    H159298   3.007   9.747   8.280  0.9835  0.2677 -0.9349
19472TIP3    H259299   3.076   9.614   8.265 -1.3218 -0.9699 -1.1144
19473TIP3   OH259300   2.225   5.958   7.912 -0.2393 -0.2015 -0.6013
19473TIP3    H159301   2.145   5.923   7.872 -0.2196 -1.2398  0.2321
19473TIP3    H259302   2.274   5.881   7.939  0.7884  0.4421 -0.5783
19474TIP3   OH259303   4.327   6.098   9.497  0.3810  0.2698 -0.2592
19474TIP3    H159304   4.281   6.021   9.530 -0.7975  0.8928 -0.3819
19474TIP3    H259305   4.259   6.165   9.489  1.3327  1.2498 -0.3961
19475TIP3   OH259306   0.644   9.925   1.897  0.6575 -0.0100  0.4994
19475TIP3    H159307   0.737   9.908   1.915  1.0939 -0.7465 -2.1155
19475TIP3    H259308   0.598   9.851   1.937  1.1518  0.4129  1.9028
19476TIP3   OH259309   8.066   2.922   4.290  0.3751  0.5957  0.2296
19476TIP3    H159310   8.074   2.998   4.347 -0.9140  1.0193 -0.1214
19476TIP3    H259311   8.078   2.956   4.202 -1.7745  0.7131 -0.0607
19477TIP3   OH259312   2.344   7.965   9.482  0.2456 -0.1284 -0.6445
19477TIP3    H159313   2.257   7.988   9.452 -0.0945  0.4504  0.7050
19477TIP3    H259314   2.365   8.030   9.550  1.0329 -1.2312  0.2234
19478TIP3   OH259315   0.219   9.656   7.918  0.1222 -0.3263 -0.5998
19478TIP3    H159316   0.124   9.653   7.921  0.0881  1.0683  1.1766
19478TIP3    H259317   0.242   9.739   7.960  2.1412 -0.7892 -0.6770
19479TIP3   OH259318   8.237   7.403   6.487 -0.4262 -0.0102  0.0314
19479TIP3    H159319   8.170   7.392   6.419 -0.6068  0.5834  0.1050
19479TIP3    H259320   8.315   7.360   6.451 -1.2044 -1.9141  0.5136
19480TIP3   OH259321  10.055   7.746   1.736 -0.3415  0.4619  0.3131
19480TIP3    H159322  10.122   7.790   1.788 -1.1121  1.1614  0.7374
19480TIP3    H259323  10.095   7.734   1.650 -0.6816  3.6233 -0.3932
19481TIP3   OH259324   3.446   9.822   1.489 -0.6163  0.0621 -0.3765
19481TIP3    H159325   3.478   9.903   1.530 -0.8509 -0.1693  0.2671
19481TIP3    H259326   3.356   9.842   1.464 -0.0278  0.6996 -2.1532
19482TIP3   OH259327   4.264   4.747   6.199  0.1138  0.1770  0.7315
19482TIP3    H159328   4.350   4.789   6.193  0.6556 -1.0880 -1.1697
19482TIP3    H259329   4.207   4.802   6.145 -0.1578  0.7128  1.5519
19483TIP3   OH259330   2.832  10.681   3.612  0.7688  0.0273 -0.4733
19483TIP3    H159331   2.791  10.631   3.541  0.7101  0.2565 -0.6027
19483TIP3    H259332   2.778  10.760   3.620  2.3501  1.3759 -2.0719
19484TIP3   OH259333   1.989   1.426   4.068  0.6800  0.4629  0.3023
19484TIP3    H159334   2.072   1.391   4.102  0.1657 -0.0904  1.0193
19484TIP3    H259335   1.969   1.499   4.126  1.2731  1.3859 -0.6211
19485TIP3   OH259336   7.201  10.104   7.197 -0.1148  0.0464 -0.1212
19485TIP3    H159337   7.181  10.120   7.105  1.7626 -0.1757 -0.6127
19485TIP3    H259338   7.174  10.013   7.212 -1.1000  0.3083 -0.2235
19486TIP3   OH259339  10.433   8.312   0.331  0.5268  0.0232 -0.3239
19486TIP3    H159340  10.516   8.308   0.379 -0.1711 -0.3350  0.8857
19486TIP3    H259341  10.366   8.300   0.398 -0.4379 -2.1829 -1.5734
19487TIP3   OH259342   5.003   9.132   9.909  0.4295 -0.1642 -0.3668
19487TIP3    H159343   4.947   9.091   9.975  1.5567 -1.4842 -0.1946
19487TIP3    H259344   4.995   9.226   9.926 -1.1133 -0.3657  0.1399
19488TIP3   OH259345   3.250   2.142   5.799 -0.0594  0.2919  0.0106
19488TIP3    H159346   3.265   2.212   5.735  0.2983 -0.9898 -1.3824
19488TIP3    H259347   3.292   2.065   5.760 -0.6819 -0.7694  1.3480
19489TIP3   OH259348   9.077   9.177   7.986 -0.1648 -0.2598 -0.8031
19489TIP3    H159349   9.121   9.203   8.067 -0.6167 -0.9685 -0.3243
19489TIP3    H259350   9.138   9.202   7.916  1.6471 -2.4888 -0.1012
19490TIP3   OH259351   1.372   5.346  10.701  0.5727 -0.6479  0.5020
19490TIP3    H159352   1.286   5.365  10.739  0.6704 -0.1357  0.4769
19490TIP3    H259353   1.378   5.406  10.626  0.8660 -0.8253  0.3863
19491TIP3   OH259354  10.510   0.314   9.265  0.0107  0.1991  0.3974
19491TIP3    H159355  10.584   0.254   9.256  1.3650  1.6393  1.3534
19491TIP3    H259356  10.495   0.346   9.176  0.7597  0.1362  0.2401
19492TIP3   OH259357   3.342   8.008   7.587 -0.0330 -0.1815  0.5908
19492TIP3    H159358   3.275   8.043   7.645 -1.2644 -0.4498 -0.6253
19492TIP3    H259359   3.337   7.913   7.600 -0.4882 -0.2627 -0.1044
19493TIP3   OH259360   9.342   7.707   4.274 -0.0021 -0.5225  0.2705
19493TIP3    H159361   9.284   7.758   4.217 -0.2308 -1.3154 -0.2301
19493TIP3    H259362   9.428   7.716   4.234  0.2140  0.5569  0.9460
19494TIP3   OH259363   7.494   7.209   4.133 -0.3890 -0.1971 -0.3552
19494TIP3    H159364   7.568   7.224   4.192  0.3411 -2.5821 -0.5462
19494TIP3    H259365   7.480   7.114   4.136 -1.5480 -0.1685 -2.5732
19495TIP3   OH259366   0.283   5.291   6.393 -0.1122  1.1414 -0.2434
19495TIP3    H159367   0.377   5.301   6.404 -0.1141  1.0040 -0.0832
19495TIP3    H259368   0.245   5.372   6.428 -0.1094  0.7544  0.6905
19496TIP3   OH259369   7.460   3.160   1.766 -0.0288  0.8731  0.1371
19496TIP3    H159370   7.456   3.127   1.677  1.0804  0.6169  0.1618
19496TIP3    H259371   7.428   3.250   1.760  0.7118  1.0971 -0.6611
19497TIP3   OH259372   5.167   4.094   8.632 -0.2562 -0.2526  0.7800
19497TIP3    H159373   5.134   4.049   8.710 -1.0471  1.2893  1.3885
19497TIP3    H259374   5.089   4.114   8.581 -0.1680  1.9503  1.4044
19498TIP3   OH259375   8.111   3.340   7.880 -0.2073  0.2946  0.0009
19498TIP3    H159376   8.030   3.386   7.899 -0.2796  0.6128 -1.0163
19498TIP3    H259377   8.143   3.310   7.965  0.2619  2.8965  0.8400
19499TIP3   OH259378   7.249   0.384   4.694 -1.3861  0.2207 -0.0325
19499TIP3    H159379   7.180   0.443   4.724  0.2876  1.3313  1.8726
19499TIP3    H259380   7.265   0.410   4.603  0.1607  3.7118  1.0819
19500TIP3   OH259381   9.338   7.566   4.933  0.1244 -0.4887 -0.2555
19500TIP3    H159382   9.270   7.620   4.891  2.6189  3.6888  0.5435
19500TIP3    H259383   9.367   7.507   4.864 -1.1794  0.8348 -2.0418
19501TIP3   OH259384   0.678   5.070   5.878 -0.9269 -0.4190  0.0019
19501TIP3    H159385   0.615   5.119   5.930 -0.4017  2.2456 -1.6781
19501TIP3    H259386   0.748   5.046   5.939 -1.0305  1.2960  0.8462
19502TIP3   OH259387   3.188   1.168   5.586  0.3300  0.1788 -1.0460
19502TIP3    H159388   3.182   1.246   5.641 -1.4459 -0.6277 -0.0167
19502TIP3    H259389   3.269   1.126   5.613  0.0714  0.4116  0.1203
19503TIP3   OH259390   7.554   6.351   6.427 -0.0169  0.4885  0.5521
19503TIP3    H159391   7.641   6.384   6.452 -0.5541  2.0398  0.4812
19503TIP3    H259392   7.542   6.382   6.338 -0.1600 -0.7853  0.1068
19504TIP3   OH259393   6.407   7.053   5.422 -0.7490  0.1654  0.4427
19504TIP3    H159394   6.313   7.036   5.409 -0.3589 -2.8990  0.8152
19504TIP3    H259395   6.444   6.967   5.441  1.9863  1.4610  1.4877
19505TIP3   OH259396   9.982   9.268   6.278 -0.5829  0.3962 -0.4013
19505TIP3    H159397  10.035   9.246   6.201  0.0889  0.6213 -0.0190
19505TIP3    H259398   9.917   9.198   6.283  1.0910 -1.2200  0.3951
19506TIP3   OH259399   7.188   8.207  10.852 -0.0579  0.1496 -0.2574
19506TIP3    H159400   7.104   8.206  10.806 -0.0769  1.3616 -0.2797
19506TIP3    H259401   7.178   8.275  10.919 -0.1287 -1.7689  1.7730
19507TIP3   OH259402  10.569   4.330   7.615 -0.2209 -0.0396 -0.2437
19507TIP3    H159403  10.589   4.400   7.552  3.0600 -1.4914 -1.0120
19507TIP3    H259404  10.636   4.339   7.682  1.2596 -3.2321 -1.1163
19508TIP3   OH259405   8.350   2.242   6.111  0.4019  0.1644 -0.8484
19508TIP3    H159406   8.364   2.331   6.078  0.3947  0.1824 -0.8031
19508TIP3    H259407   8.426   2.224   6.166  0.2065  0.2941 -0.5350
19509TIP3   OH259408   2.513  10.224   3.671 -0.1992  0.6929 -0.1356
19509TIP3    H159409   2.593  10.258   3.712 -0.9016  3.2907 -0.7604
19509TIP3    H259410   2.519  10.129   3.683  0.9554  1.0661  3.4771
19510TIP3   OH259411   9.045   1.400   0.026  0.2838 -0.2171  0.1153
19510TIP3    H159412   8.951   1.391   0.010  0.5747 -2.9556 -0.7424
19510TIP3    H259413   9.052   1.450   0.107 -1.7985  1.8672 -0.8899
19511TIP3   OH259414   7.571   3.182   0.251  0.4418  0.1954 -0.3751
19511TIP3    H159415   7.518   3.199   0.329  0.0784 -0.3369 -0.5025
19511TIP3    H259416   7.626   3.260   0.242 -0.0368  0.5785 -0.0138
19512TIP3   OH259417   9.190   1.278   6.363 -0.9558  0.2892  0.3273
19512TIP3    H159418   9.183   1.188   6.332 -0.7072 -0.1858  1.5896
19512TIP3    H259419   9.116   1.289   6.422  0.2088  0.1617  1.8995
19513TIP3   OH259420   8.725   1.093   0.934 -0.2421  0.0761  0.7371
19513TIP3    H159421   8.710   1.015   0.881 -0.9363  0.5597  0.1976
19513TIP3    H259422   8.638   1.132   0.944 -0.2109 -0.2995  2.7119
19514TIP3   OH259423   7.508   2.880   5.202 -0.4324 -0.1145  0.1407
19514TIP3    H159424   7.431   2.841   5.161 -1.2848  0.6921  0.9174
19514TIP3    H259425   7.473   2.930   5.276  0.4370  2.7566 -1.2171
19515TIP3   OH259426   7.980   6.850   8.736  0.0668 -0.6054  0.5888
19515TIP3    H159427   8.066   6.867   8.773  1.0735  0.3926 -1.9621
19515TIP3    H259428   7.998   6.798   8.657 -1.5143  0.6134 -0.6498
19516TIP3   OH259429   8.391   2.863   5.082  0.2480 -0.8493  0.0099
19516TIP3    H159430   8.468   2.865   5.024 -0.2315 -0.5307 -0.6282
19516TIP3    H259431   8.344   2.784   5.056 -0.3797 -0.2868 -0.5815
19517TIP3   OH259432   3.344   8.739   8.743  0.2063  0.3202  0.4177
19517TIP3    H159433   3.256   8.734   8.705  0.0600  2.2326  0.4053
19517TIP3    H259434   3.376   8.649   8.740 -0.6791 -0.0056 -2.1560
19518TIP3   OH259435   2.957   6.091   5.990  0.6404  0.2551  0.0694
19518TIP3    H159436   2.863   6.089   6.009  0.6598 -0.0381  0.1503
19518TIP3    H259437   2.971   6.017   5.931  1.3232 -1.7356  2.5240
19519TIP3   OH259438   4.672   7.543   5.573 -0.1338  0.2772 -0.8145
19519TIP3    H159439   4.688   7.635   5.549 -0.0573 -0.1465 -2.4775
19519TIP3    H259440   4.622   7.508   5.500 -0.2751 -0.9876 -0.1263
19520TIP3   OH259441   1.334   5.027   1.874 -0.0933 -0.0025  0.4819
19520TIP3    H159442   1.402   5.043   1.940  2.1898 -1.0827 -1.4792
19520TIP3    H259443   1.363   4.948   1.828 -1.5213  0.7495 -1.8677
19521TIP3   OH259444   4.836   4.727   3.354 -0.2993 -0.1947 -0.7291
19521TIP3    H159445   4.844   4.733   3.449  0.7559 -2.1501 -0.6552
19521TIP3    H259446   4.794   4.810   3.329  0.0876  0.7028  1.3361
19522TIP3   OH259447   5.711   9.528   6.977 -0.2264  0.7949  0.1257
19522TIP3    H159448   5.722   9.563   7.065 -1.3317 -1.1476  1.1103
19522TIP3    H259449   5.638   9.467   6.985  0.3708 -0.2693 -1.8914
19523TIP3   OH259450   7.304  10.758   8.034  0.2775  0.4998  0.1505
19523TIP3    H159451   7.317  10.688   7.970 -1.1415  1.9151 -1.8202
19523TIP3    H259452   7.387  10.804   8.038  0.4379  0.2691 -0.5213
19524TIP3   OH259453   6.219   7.730   1.212  0.3237 -0.3535 -0.1030
19524TIP3    H159454   6.283   7.763   1.149 -0.8928  1.2778 -0.5408
19524TIP3    H259455   6.230   7.787   1.289 -1.2920  0.6552 -0.5800
19525TIP3   OH259456   4.251   1.545   4.096 -0.0419 -0.2481  0.0213
19525TIP3    H159457   4.222   1.636   4.083 -0.9021 -0.7460 -1.9897
19525TIP3    H259458   4.346   1.551   4.101 -0.1629  0.9349  1.8589
19526TIP3   OH259459   6.003   2.456  10.068 -0.5171  0.5353  0.1304
19526TIP3    H159460   6.057   2.467   9.990  0.2774 -1.2028  0.4060
19526TIP3    H259461   5.925   2.410  10.038 -1.2667  1.8545 -0.0191
19527TIP3   OH259462   3.868   8.381   2.575 -0.4067 -0.2135  0.4693
19527TIP3    H159463   3.853   8.337   2.659  0.2848 -1.0066  0.1924
19527TIP3    H259464   3.944   8.336   2.538 -0.9606 -0.1585 -0.7833
19528TIP3   OH259465   5.704   1.691   9.789  0.2956 -0.2232 -0.0409
19528TIP3    H159466   5.663   1.641   9.860  0.1108 -0.2442 -0.1621
19528TIP3    H259467   5.635   1.750   9.758  0.3240 -0.3313 -0.3156
19529TIP3   OH259468   9.878   3.693   1.619  0.0859  0.0174 -0.3117
19529TIP3    H159469   9.842   3.760   1.676  0.8917 -0.6161  0.9830
19529TIP3    H259470   9.839   3.611   1.650 -2.1566 -0.0372 -2.8715
19530TIP3   OH259471   4.020   8.423   4.479 -0.4802  0.5845 -0.5160
19530TIP3    H159472   4.034   8.518   4.482  0.8971  0.4215 -1.1916
19530TIP3    H259473   4.087   8.390   4.420 -0.0269 -0.9756  0.7855
19531TIP3   OH259474   8.767  10.220   6.698  0.2472 -0.2120  0.4327
19531TIP3    H159475   8.697  10.154   6.694 -0.1232  0.0179  2.3355
19531TIP3    H259476   8.816  10.198   6.777  1.1138  0.8508  0.2095
19532TIP3   OH259477   5.880   6.870   2.467 -0.2394 -0.4575 -0.3265
19532TIP3    H159478   5.880   6.961   2.437  0.2069  0.5196  2.3707
19532TIP3    H259479   5.966   6.836   2.441 -0.5573 -0.2990 -1.7047
19533TIP3   OH259480   9.883  10.702   5.053 -0.3623  0.0694 -0.1572
19533TIP3    H159481   9.880  10.785   5.102 -1.3211 -0.2002  0.2500
19533TIP3    H259482   9.864  10.727   4.963 -1.3530  0.2077  0.0818
19534TIP3   OH259483   3.517   5.115   1.979 -0.0762  0.5000  0.3026
19534TIP3    H159484   3.563   5.199   1.966  2.2043 -0.6658  0.3095
19534TIP3    H259485   3.478   5.122   2.066  1.2461  1.0657  0.8790
19535TIP3   OH259486  10.191   5.728   6.754  0.5287 -0.3395  0.3722
19535TIP3    H159487  10.251   5.689   6.691  1.6743 -1.6306  2.1771
19535TIP3    H259488  10.108   5.683   6.740  1.4379 -2.4809  1.4016
19536TIP3   OH259489   9.743   4.068   0.186 -0.7718  0.5045 -0.4665
19536TIP3    H159490   9.792   3.990   0.159 -0.2921  1.3979 -2.3356
19536TIP3    H259491   9.755   4.072   0.281  0.5193 -0.8046 -0.5369
19537TIP3   OH259492   2.420   6.764   7.844  0.3407 -0.0502 -0.1874
19537TIP3    H159493   2.398   6.722   7.761  0.9438  0.6317 -0.7064
19537TIP3    H259494   2.341   6.755   7.897  0.1244 -0.9539 -0.6378
19538TIP3   OH259495   4.704   7.818   0.763 -0.5554 -0.6847 -0.3152
19538TIP3    H159496   4.623   7.837   0.810 -0.6173 -2.1453  0.2233
19538TIP3    H259497   4.739   7.904   0.740 -1.1726  0.0505  1.3166
19539TIP3   OH259498   0.886   8.032   6.670  0.2289 -0.4169 -0.1071
19539TIP3    H159499   0.960   8.089   6.649 -1.5271  1.3212 -1.9294
19539TIP3    H259500   0.879   8.037   6.765  1.7733  0.2268  0.0084
19540TIP3   OH259501   9.267   0.435   1.316  0.1770 -0.2893  0.2953
19540TIP3    H159502   9.183   0.471   1.345 -1.6867 -2.6251 -1.7584
19540TIP3    H259503   9.251   0.341   1.307  2.7066 -0.6623 -1.2006
19541TIP3   OH259504   0.063   6.736   3.238 -0.2776 -0.0615 -0.6177
19541TIP3    H159505  -0.010   6.686   3.276  0.8503  0.2789  2.1914
19541TIP3    H259506   0.058   6.821   3.280  0.3043  0.8511 -2.2950
19542TIP3   OH259507   4.387   6.525   7.672 -0.0508 -0.2057 -0.1720
19542TIP3    H159508   4.390   6.580   7.750 -1.1038 -0.3624 -0.0038
19542TIP3    H259509   4.423   6.441   7.701 -2.4052 -0.9876  0.8126
19543TIP3   OH259510   2.069  10.496   4.774  0.0367 -0.4144 -0.1503
19543TIP3    H159511   2.026  10.459   4.851  0.6139 -0.2072  0.2787
19543TIP3    H259512   2.156  10.521   4.805 -1.2204  4.0730  0.3870
19544TIP3   OH259513   2.348   1.263   7.674 -0.2493 -1.0106  0.5396
19544TIP3    H159514   2.413   1.329   7.650 -0.9529 -0.4600  0.1300
19544TIP3    H259515   2.375   1.185   7.626  0.6187 -1.0479  1.0703
19545TIP3   OH259516   4.088   5.491   4.533  0.0015 -0.4931 -0.0031
19545TIP3    H159517   4.083   5.462   4.624  0.5084  0.5146  0.3631
19545TIP3    H259518   4.180   5.480   4.509 -0.1671 -0.9451 -0.4742
19546TIP3   OH259519   4.472   9.934   4.263 -0.0253 -0.3153  0.5000
19546TIP3    H159520   4.442   9.945   4.172  1.4768 -0.0915  0.0064
19546TIP3    H259521   4.494   9.841   4.270  0.3216 -0.2357  0.4819
19547TIP3   OH259522   9.482   0.463   5.351 -0.2354 -0.0121  0.6314
19547TIP3    H159523   9.449   0.404   5.419  1.0708 -1.9868 -0.3296
19547TIP3    H259524   9.406   0.479   5.295 -0.7206 -0.4627  1.1446
19548TIP3   OH259525   5.274   1.680   9.959 -0.2677 -0.2806 -0.2384
19548TIP3    H159526   5.343   1.617   9.939 -1.7515 -1.5054 -1.7757
19548TIP3    H259527   5.310   1.765   9.930  0.3872 -0.9707 -1.5308
19549TIP3   OH259528  10.893   4.679   1.064  0.5903  0.1114 -0.3223
19549TIP3    H159529  10.971   4.645   1.108  0.4068 -0.8836 -0.7205
19549TIP3    H259530  10.915   4.769   1.041  1.5264 -0.0818 -0.2149
19550TIP3   OH259531   7.411  10.047   0.407 -0.5127  0.0213 -0.0391
19550TIP3    H159532   7.372   9.990   0.342 -1.1705  0.4533 -0.0310
19550TIP3    H259533   7.411   9.995   0.488 -0.1691 -0.3284 -0.2636
19551TIP3   OH259534  10.609   9.230   2.554 -0.5950  0.4192  0.3819
19551TIP3    H159535  10.610   9.306   2.611 -2.5465  0.6248  0.1768
19551TIP3    H259536  10.535   9.178   2.584 -0.5779 -0.3468 -0.8527
19552TIP3   OH259537   4.211   7.217   6.630 -0.0320  0.3675  0.5327
19552TIP3    H159538   4.192   7.149   6.566  2.4733 -0.1178  0.1881
19552TIP3    H259539   4.182   7.180   6.714  1.1499 -1.1314  0.3361
19553TIP3   OH259540   2.941   8.805   7.791  0.8048  0.3422  0.4662
19553TIP3    H159541   2.847   8.809   7.777  0.5277 -2.1089  1.1480
19553TIP3    H259542   2.977   8.787   7.704  0.4762 -0.3140  0.4600
19554TIP3   OH259543  10.739  10.004   1.325 -0.0210  0.3919 -0.1044
19554TIP3    H159544  10.736   9.909   1.338 -0.6594  0.4273  0.0197
19554TIP3    H259545  10.787  10.016   1.243  0.5713 -0.0101  0.1736
19555TIP3   OH259546   1.744   3.686   6.769 -0.0445 -0.0285 -0.3887
19555TIP3    H159547   1.819   3.729   6.811 -0.3849 -1.0418  1.3734
19555TIP3    H259548   1.671   3.704   6.828 -1.2237  0.9081 -2.0565
19556TIP3   OH259549   2.817   0.702   7.859 -0.7199 -0.3640  0.0071
19556TIP3    H159550   2.788   0.680   7.947 -2.3199  1.2483 -0.0712
19556TIP3    H259551   2.854   0.790   7.867 -0.0075 -0.5687 -0.7888
19557TIP3   OH259552   4.811   5.218   2.321 -0.0017 -0.1293  0.2744
19557TIP3    H159553   4.774   5.183   2.402 -1.1794 -1.1888 -0.6590
19557TIP3    H259554   4.905   5.224   2.337 -0.2524  0.0331  1.8227
19558TIP3   OH259555   4.474   4.657   1.436 -0.0846  0.2201 -0.3394
19558TIP3    H159556   4.567   4.631   1.435 -0.2298 -0.5382  1.5464
19558TIP3    H259557   4.475   4.749   1.412  1.1250  0.1114 -0.7913
19559TIP3   OH259558   7.591   6.471   0.050  0.2338 -0.5034 -0.6985
19559TIP3    H159559   7.580   6.425   0.134 -0.6848  0.9721  0.0460
19559TIP3    H259560   7.508   6.456   0.004 -1.1569  2.3964  0.6408
19560TIP3   OH259561   8.469   3.367   4.503  0.2896  0.2297 -0.5311
19560TIP3    H159562   8.438   3.276   4.505  1.4348 -0.1627  1.0451
19560TIP3    H259563   8.552   3.366   4.550  0.5361  2.0382 -0.8348
19561TIP3   OH259564   0.161   8.801   4.497  0.0543 -0.0784  0.0320
19561TIP3    H159565   0.211   8.883   4.495 -2.2075  1.4047 -2.1044
19561TIP3    H259566   0.105   8.809   4.574  0.2629  0.1025  0.1655
19562TIP3   OH259567   9.066   3.027   5.032  0.3448  0.0429 -0.3536
19562TIP3    H159568   9.149   3.005   4.989  0.9311  0.4855  0.5318
19562TIP3    H259569   9.083   3.015   5.125 -1.1005 -1.5344 -0.2430
19563TIP3   OH259570   1.357   5.070   9.578 -0.0752 -0.6154  0.1414
19563TIP3    H159571   1.413   5.002   9.541 -0.2309 -1.2635  1.0690
19563TIP3    H259572   1.298   5.094   9.507 -0.2302 -1.6857 -0.1065
19564TIP3   OH259573   8.983   6.968   6.149  0.3916  0.0504  0.3566
19564TIP3    H159574   9.007   7.029   6.079  0.6266 -0.4820 -0.0388
19564TIP3    H259575   9.045   6.895   6.139 -0.2118 -0.4923  0.4869
19565TIP3   OH259576   1.184   2.930   9.370  0.5995  0.2005 -0.0401
19565TIP3    H159577   1.183   3.025   9.380 -1.9081  0.1458  0.8682
19565TIP3    H259578   1.252   2.913   9.305 -0.9591  2.8621 -2.5596
19566TIP3   OH259579   6.667  10.358   7.433 -0.0773  0.1924  0.1195
19566TIP3    H159580   6.665  10.366   7.337  0.8539 -3.2657 -0.3079
19566TIP3    H259581   6.574  10.359   7.458 -0.4542 -1.0404 -1.0988
19567TIP3   OH259582   5.041   4.801  10.555  0.3755 -0.1296 -0.3366
19567TIP3    H159583   5.106   4.731  10.554  2.2879  1.5202 -2.2432
19567TIP3    H259584   5.081   4.871  10.606 -0.7506  0.2278  0.0893
19568TIP3   OH259585   8.828   8.675   1.005 -0.1562  0.8209 -0.5392
19568TIP3    H159586   8.867   8.728   1.075 -0.3825  0.2991 -0.0142
19568TIP3    H259587   8.829   8.733   0.928  1.4638  0.8943 -0.4923
19569TIP3   OH259588   7.303   0.264   5.107  0.0155  0.4332  0.2959
19569TIP3    H159589   7.388   0.222   5.093 -0.3154 -0.4892  0.9542
19569TIP3    H259590   7.245   0.225   5.042  0.5234  2.5116 -1.5131
19570TIP3   OH259591   9.149   0.013   5.010 -0.0170 -0.3064  0.3391
19570TIP3    H159592   9.060  -0.006   4.981 -0.2838 -0.0899  1.0149
19570TIP3    H259593   9.164  -0.049   5.082 -0.6683  1.5320  2.1489
19571TIP3   OH259594   2.851   8.878   9.893  0.1660 -0.4600 -0.1273
19571TIP3    H159595   2.860   8.958   9.842  0.4330 -0.0158  0.6150
19571TIP3    H259596   2.936   8.834   9.884 -0.1653 -0.9449 -0.9960
19572TIP3   OH259597   1.767   2.042   2.555  0.2928 -0.0839  0.2727
19572TIP3    H159598   1.842   1.990   2.584 -0.7239 -1.6804  0.1240
19572TIP3    H259599   1.693   1.981   2.557 -0.9038  1.3084 -0.1211
19573TIP3   OH259600  10.896   4.069   0.177  0.1449  0.1133  0.3675
19573TIP3    H159601  10.963   4.019   0.131  0.4717 -0.8671  1.8584
19573TIP3    H259602  10.838   4.003   0.214 -2.9642  0.9258 -2.6193
19574TIP3   OH259603   9.784   0.990   2.718  0.2371 -0.0186  0.3527
19574TIP3    H159604   9.761   1.033   2.800 -0.1621 -0.9001  0.7132
19574TIP3    H259605   9.732   0.910   2.717 -0.0628  0.1546 -0.9378
19575TIP3   OH259606   4.514   2.206   8.220 -0.0486  0.1177 -0.6877
19575TIP3    H159607   4.476   2.238   8.138 -1.3028 -0.6623 -0.4257
19575TIP3    H259608   4.560   2.126   8.195  1.7150  1.1969 -1.0528
19576TIP3   OH259609   9.514   1.443   0.263  0.2168 -0.4334 -0.4100
19576TIP3    H159610   9.499   1.533   0.231 -0.5618  0.8900  3.1734
19576TIP3    H259611   9.439   1.426   0.320  1.4150 -2.5755  0.6279
19577TIP3   OH259612   4.268   6.284   0.744 -0.0881  0.0480  0.5083
19577TIP3    H159613   4.195   6.341   0.721 -0.0961 -0.2952 -0.3506
19577TIP3    H259614   4.344   6.342   0.748 -0.1270  0.1554 -0.1951
19578TIP3   OH259615   0.974   9.884   1.710  0.3964 -0.0731 -0.2383
19578TIP3    H159616   0.904   9.881   1.645 -1.0260  1.4869  1.1117
19578TIP3    H259617   0.932   9.857   1.792  2.0463 -1.6612  0.1587
19579TIP3   OH259618   0.269   4.918   0.055  0.1929  0.4887  0.0275
19579TIP3    H159619   0.307   4.999   0.021  1.6845  0.2575  1.0073
19579TIP3    H259620   0.328   4.892   0.127 -1.0557 -0.6911  0.6899
19580TIP3   OH259621   9.232  10.389   0.226  0.0528  0.0076  0.1644
19580TIP3    H159622   9.303  10.411   0.286  0.8592 -0.1235 -0.7065
19580TIP3    H259623   9.226  10.465   0.167 -0.6955  0.1175  0.3666
19581TIP3   OH259624   5.979   1.267   6.096 -0.5497  0.5332  0.4862
19581TIP3    H159625   5.926   1.303   6.168 -0.3090 -0.4811  1.2039
19581TIP3    H259626   6.055   1.325   6.090 -0.6105  0.6743  1.0162
19582TIP3   OH259627  10.231   4.099   6.676  0.1972 -0.4703  0.2870
19582TIP3    H159628  10.169   4.103   6.749  0.0287 -1.4174  0.2131
19582TIP3    H259629  10.312   4.068   6.715 -0.0073 -1.3785  0.0205
19583TIP3   OH259630   6.109   9.087   3.230 -0.7811  0.5913 -0.3352
19583TIP3    H159631   6.192   9.048   3.205 -0.2276  0.8245  1.0456
19583TIP3    H259632   6.118   9.180   3.210  0.7628  1.3462  3.1060
19584TIP3   OH259633  10.580   6.147   6.364 -0.3681 -0.0164 -0.2496
19584TIP3    H159634  10.638   6.102   6.425  0.7750  0.7994 -0.7038
19584TIP3    H259635  10.589   6.239   6.387 -3.0849  0.0257  1.0225
19585TIP3   OH259636   5.508   4.705   3.679 -0.5485  0.8729  0.5509
19585TIP3    H159637   5.536   4.659   3.600 -0.8826  2.7388 -0.7321
19585TIP3    H259638   5.485   4.636   3.741  2.7994 -0.6959  0.2192
19586TIP3   OH259639   0.466   7.158   4.178  0.0920  0.4728  0.3462
19586TIP3    H159640   0.442   7.236   4.127  1.1694  0.6439  0.0871
19586TIP3    H259641   0.404   7.091   4.149  0.3209  0.7256 -0.7780
19587TIP3   OH259642   6.042   3.390   4.596  0.0884  0.3030  0.0128
19587TIP3    H159643   6.087   3.312   4.564 -1.7419 -1.1843  0.8841
19587TIP3    H259644   6.021   3.440   4.517  1.0123 -0.2371 -0.5807
19588TIP3   OH259645   7.605   4.509   6.661 -0.2567 -0.3642 -0.0634
19588TIP3    H159646   7.620   4.428   6.613 -0.8751 -0.8779  0.5935
19588TIP3    H259647   7.666   4.505   6.735  0.1074  0.0413 -0.3308
19589TIP3   OH259648   9.652   0.544   0.074 -0.2168 -0.3827  0.0563
19589TIP3    H159649   9.703   0.480   0.123  0.9141 -0.2836 -0.9460
19589TIP3    H259650   9.562   0.531   0.104  0.3219 -0.8655  1.5312
19590TIP3   OH259651   1.782   4.332   4.785 -0.0600  0.2559  0.2844
19590TIP3    H159652   1.824   4.246   4.794 -1.4525 -0.4468  0.2318
19590TIP3    H259653   1.856   4.392   4.776  0.9820 -0.8248  1.0597
19591TIP3   OH259654   8.152   7.697   7.678  0.1431  0.2779 -0.0499
19591TIP3    H159655   8.071   7.740   7.650  0.0965 -0.1594 -0.6020
19591TIP3    H259656   8.153   7.707   7.773 -1.4338 -1.1653  0.1754
19592TIP3   OH259657   1.059   7.424  10.763 -0.0943 -0.1556 -0.2308
19592TIP3    H159658   1.041   7.453  10.674 -0.3015 -0.9635 -0.4588
19592TIP3    H259659   1.016   7.338  10.770  0.8456 -0.5967  0.2906
19593TIP3   OH259660  10.294   1.803   6.648  0.2540  0.1267 -0.3067
19593TIP3    H159661  10.369   1.745   6.638 -1.8655 -2.9962  0.2440
19593TIP3    H259662  10.314   1.855   6.726  1.3358 -1.5689  0.6113
19594TIP3   OH259663   0.728   8.983  10.205  0.0285  0.3767 -0.1002
19594TIP3    H159664   0.741   9.038  10.283  0.1393  0.4042 -0.1382
19594TIP3    H259665   0.808   8.994  10.155  0.1807 -0.0653  0.0414
19595TIP3   OH259666   8.371   4.491   1.730  0.6994  0.2622  0.2263
19595TIP3    H159667   8.339   4.403   1.747 -2.1169  1.0603 -0.4861
19595TIP3    H259668   8.314   4.548   1.783  1.6557  1.7410 -0.2738
19596TIP3   OH259669   9.568   8.149   3.031 -0.2202 -0.6275  0.2109
19596TIP3    H159670   9.533   8.170   3.118 -0.6816 -2.0541  0.4038
19596TIP3    H259671   9.656   8.186   3.031 -0.2724 -0.4802  1.2414
19597TIP3   OH259672   8.472   1.578   3.969  0.0354 -0.3208 -1.1198
19597TIP3    H159673   8.414   1.591   4.043  1.6509 -1.4321  0.4397
19597TIP3    H259674   8.551   1.628   3.991 -0.3887  1.4856 -3.3516
19598TIP3   OH259675   4.488   8.267   5.765 -0.0818  0.4085 -0.1528
19598TIP3    H159676   4.429   8.339   5.744 -1.2786 -0.2954  0.7074
19598TIP3    H259677   4.483   8.209   5.689 -0.7311  0.2206  0.0246
19599TIP3   OH259678   7.005   4.098   0.812 -0.4556  0.2911  0.2327
19599TIP3    H159679   6.971   4.027   0.867  1.2902  0.2596  1.3420
19599TIP3    H259680   6.933   4.162   0.808 -1.9527 -1.3593 -0.5506
19600TIP3   OH259681   6.472   4.091   9.759 -0.4853  0.0545  0.2345
19600TIP3    H159682   6.460   4.186   9.764  0.5599  0.2582 -0.6359
19600TIP3    H259683   6.440   4.067   9.672 -2.3391 -0.6819  1.0770
19601TIP3   OH259684   1.076   5.205  10.379  0.0555 -0.2850 -0.0141
19601TIP3    H159685   1.005   5.265  10.356 -1.2112 -1.1863  1.3934
19601TIP3    H259686   1.155   5.251  10.351 -1.1142 -0.1066 -3.5390
19602TIP3   OH259687   3.538   8.285   0.567  0.3755  0.1231 -0.4803
19602TIP3    H159688   3.542   8.272   0.472 -1.1172 -1.3395 -0.3827
19602TIP3    H259689   3.615   8.338   0.587  0.2551  1.2363 -2.6297
19603TIP3   OH259690   2.425   5.629   1.427  0.8758 -0.2375  0.5466
19603TIP3    H159691   2.340   5.624   1.384  1.2771 -1.1031 -0.1588
19603TIP3    H259692   2.426   5.554   1.487  1.2816 -0.4355  0.2932
19604TIP3   OH259693   8.667   4.195   4.743 -0.1157 -0.0783 -0.3161
19604TIP3    H159694   8.617   4.270   4.773 -1.7084 -0.7175 -1.2217
19604TIP3    H259695   8.661   4.198   4.647 -0.5611 -1.5480 -0.3704
19605TIP3   OH259696   4.110   7.417   5.767  0.3557  0.3487  0.2234
19605TIP3    H159697   4.115   7.492   5.826  0.9432  1.5334 -1.2662
19605TIP3    H259698   4.153   7.346   5.814  2.5809  1.7776  0.4663
19606TIP3   OH259699   2.266   9.920   6.033 -0.1637  0.3155 -0.0318
19606TIP3    H159700   2.313   9.878   6.105 -0.1730 -0.8867 -0.7018
19606TIP3    H259701   2.302  10.008   6.029 -0.7438  0.7088  1.9686
19607TIP3   OH259702   5.929   0.709   0.510  0.1465 -0.4121  0.1578
19607TIP3    H159703   5.899   0.795   0.479  0.0447 -0.2350  0.7270
19607TIP3    H259704   5.919   0.652   0.434 -3.2579 -0.7484  0.7004
19608TIP3   OH259705   7.589   3.913   5.279 -0.2945  0.1377  0.2853
19608TIP3    H159706   7.585   3.995   5.328 -0.8138  0.9477 -1.0614
19608TIP3    H259707   7.677   3.913   5.239  0.0520 -0.4207  1.0310
19609TIP3   OH259708   5.356  10.299   7.197 -0.1205  0.4709 -1.1332
19609TIP3    H159709   5.328  10.234   7.262 -0.6454  1.8168  0.0333
19609TIP3    H259710   5.316  10.381   7.226  0.4187  1.3044 -2.6410
19610TIP3   OH259711   2.067   2.665   0.690  0.2087  0.2445 -0.4319
19610TIP3    H159712   2.033   2.653   0.601 -0.0377  2.6468 -0.7171
19610TIP3    H259713   2.161   2.679   0.678  0.5724 -1.5543 -0.0624
19611TIP3   OH259714   6.082   3.963   6.899 -0.4556  0.2203 -0.1434
19611TIP3    H159715   6.009   3.901   6.901  0.2132 -0.7345 -2.1788
19611TIP3    H259716   6.118   3.954   6.811  2.9716 -0.3714  1.1586
19612TIP3   OH259717   2.288  10.243   2.596  0.3564  0.1611  0.0331
19612TIP3    H159718   2.296  10.300   2.672 -0.1833 -1.3562  1.2988
19612TIP3    H259719   2.202  10.203   2.604  0.9004 -1.2122 -0.4822
19613TIP3   OH259720   0.357   0.875   0.494 -0.5455 -0.1835 -0.1278
19613TIP3    H159721   0.288   0.884   0.560 -1.3327  0.3726 -1.0034
19613TIP3    H259722   0.332   0.935   0.424 -0.0097 -1.1305 -1.1732
19614TIP3   OH259723   3.931   2.834   4.569 -0.1419 -0.9166 -0.0267
19614TIP3    H159724   3.916   2.902   4.503  1.5721 -2.2673 -1.9413
19614TIP3    H259725   4.000   2.870   4.625 -0.1324 -0.5637 -0.2626
19615TIP3   OH259726   5.330   8.823   9.791 -0.3055  0.2498  0.2982
19615TIP3    H159727   5.385   8.792   9.719 -0.7327  1.6326 -0.6548
19615TIP3    H259728   5.393   8.847   9.860  0.4344  2.4911 -1.0350
19616TIP3   OH259729   3.464   0.127   7.790 -0.4009  0.1055  0.6900
19616TIP3    H159730   3.525   0.094   7.724 -1.4738 -0.7969  0.1213
19616TIP3    H259731   3.503   0.102   7.874  0.3138  0.0974  0.3580
19617TIP3   OH259732  10.360  10.276   7.982 -0.5948 -0.0707  0.1995
19617TIP3    H159733  10.430  10.340   7.998 -1.0902  0.1762  1.5505
19617TIP3    H259734  10.391  10.196   8.023 -0.3103 -0.4958 -0.8230
19618TIP3   OH259735   4.758   4.727   3.629  0.1466 -0.2878  0.0570
19618TIP3    H159736   4.683   4.784   3.648 -0.2418 -0.0520 -2.0069
19618TIP3    H259737   4.790   4.701   3.716 -0.8453  1.5066  1.0256
19619TIP3   OH259738  10.894   2.417   7.721 -0.1089 -0.4807  0.8277
19619TIP3    H159739  10.860   2.351   7.782 -1.6099 -0.5963 -0.0495
19619TIP3    H259740  10.823   2.480   7.713  0.5548  0.1970  0.1612
19620TIP3   OH259741   0.104   2.633   0.308 -0.4308  0.1071  0.0236
19620TIP3    H159742   0.058   2.631   0.392 -0.4420  1.3995  0.0688
19620TIP3    H259743   0.189   2.674   0.328 -0.4554  0.4716 -0.6014
19621TIP3   OH259744   2.592  10.076   8.348 -0.0256  0.2236  0.5071
19621TIP3    H159745   2.531  10.077   8.275  0.3298  1.8891  0.1893
19621TIP3    H259746   2.563  10.002   8.403 -0.7716 -0.5488 -0.8831
19622TIP3   OH259747   4.743   8.111  10.767  0.6921  0.2216  0.3594
19622TIP3    H159748   4.795   8.191  10.759  0.0756  0.7225  1.1372
19622TIP3    H259749   4.663   8.139  10.812  0.1201 -0.6894 -0.0494
19623TIP3   OH259750   5.315   2.494   4.676 -0.0481 -0.0441 -0.8956
19623TIP3    H159751   5.282   2.583   4.670  0.9952  0.3843 -0.6055
19623TIP3    H259752   5.402   2.498   4.636  0.0232 -0.9189 -0.8476
19624TIP3   OH259753   4.834   7.497   4.247  0.3974 -0.1701 -0.0227
19624TIP3    H159754   4.791   7.512   4.331  1.0049 -1.4733  0.5435
19624TIP3    H259755   4.768   7.521   4.182 -0.7132 -0.8466  0.8203
19625TIP3   OH259756   0.392   9.458   6.843 -0.3010  0.4147 -0.2036
19625TIP3    H159757   0.345   9.539   6.821 -1.4974  0.2961  1.6388
19625TIP3    H259758   0.484   9.482   6.841 -0.5708  1.4666 -0.9778
19626TIP3   OH259759   3.383   5.450   1.347 -0.3932  0.0982 -0.0129
19626TIP3    H159760   3.414   5.477   1.261 -1.6934  1.3167 -0.1350
19626TIP3    H259761   3.458   5.463   1.405  0.9155 -1.9569 -1.1144
19627TIP3   OH259762   5.911   3.793   2.034 -0.3326 -0.2560 -0.8701
19627TIP3    H159763   5.918   3.700   2.052 -0.3458 -0.3057 -1.1067
19627TIP3    H259764   5.973   3.835   2.093 -0.6893 -0.3714 -0.4148
19628TIP3   OH259765   4.748   8.452   7.360  0.5397 -0.1755 -0.6488
19628TIP3    H159766   4.699   8.445   7.442 -0.3323  0.7730 -1.0702
19628TIP3    H259767   4.685   8.428   7.292  0.3501  1.9279 -1.2735
19629TIP3   OH259768  10.443   3.274   2.145 -0.1120  0.4106 -0.1323
19629TIP3    H159769  10.389   3.266   2.066  0.3275  0.1938 -0.4152
19629TIP3    H259770  10.405   3.211   2.207 -0.3207  0.4187 -0.2517
19630TIP3   OH259771   7.688   6.535   8.197  0.3216 -0.2490  0.0945
19630TIP3    H159772   7.705   6.618   8.152 -1.8992 -0.0909 -0.5346
19630TIP3    H259773   7.672   6.472   8.127 -2.4669 -0.1500  0.5156
19631TIP3   OH259774   6.990   9.692   7.155 -0.5195 -0.2010  0.2575
19631TIP3    H159775   7.020   9.628   7.091  0.5656 -0.1412  0.6734
19631TIP3    H259776   6.924   9.646   7.206 -0.5015 -0.6525 -0.1235
19632TIP3   OH259777   3.328   3.206  10.116  0.0293  0.0610  0.0038
19632TIP3    H159778   3.409   3.172  10.076 -1.1715  0.3332 -2.9198
19632TIP3    H259779   3.322   3.160  10.200  2.7283 -0.6443 -0.0878
19633TIP3   OH259780   0.533   5.975   8.212 -0.3292 -0.0634 -0.0426
19633TIP3    H159781   0.482   6.049   8.179  2.3288  1.8546 -0.1826
19633TIP3    H259782   0.617   5.981   8.166  1.8018 -0.1600  3.4353
19634TIP3   OH259783   6.230   8.887   4.675 -0.0024  0.1816 -0.0620
19634TIP3    H159784   6.184   8.871   4.757  0.7706  0.0002  0.3493
19634TIP3    H259785   6.304   8.826   4.677  1.2082  1.5812  0.0678
19635TIP3   OH259786   7.716   9.380   9.914  0.1746  0.5246 -0.3786
19635TIP3    H159787   7.660   9.390   9.837  0.2482 -1.7999 -0.8131
19635TIP3    H259788   7.793   9.433   9.894 -0.1368  0.5622 -1.5965
19636TIP3   OH259789   1.826   7.957   8.167  0.3240 -0.2082  0.1699
19636TIP3    H159790   1.877   8.034   8.143  2.2879 -1.5541 -0.2575
19636TIP3    H259791   1.758   7.990   8.225  2.1412  1.6226  1.3959
19637TIP3   OH259792   2.691   7.763   6.455  0.2579  0.1314 -0.4405
19637TIP3    H159793   2.755   7.735   6.520  1.3424 -1.6568 -2.1391
19637TIP3    H259794   2.705   7.703   6.381 -1.1777  1.7808 -2.1550
19638TIP3   OH259795  10.440   8.081   2.169 -0.3756  0.4037  0.8006
19638TIP3    H159796  10.409   8.008   2.116  0.0725  0.1845  0.8313
19638TIP3    H259797  10.365   8.105   2.223 -0.0624 -1.1879  2.0525
19639TIP3   OH259798  10.455   5.954  10.639 -0.0183  0.0648 -0.2761
19639TIP3    H159799  10.459   6.050  10.632 -1.6164  0.2038  0.2555
19639TIP3    H259800  10.505   5.923  10.563  0.3506  1.3199 -0.5795
19640TIP3   OH259801  10.334   2.686   4.440  0.5945 -0.0991 -0.5954
19640TIP3    H159802  10.329   2.616   4.505  0.4312 -0.0825 -0.5899
19640TIP3    H259803  10.368   2.644   4.361  0.9251 -0.0915 -0.4593
19641TIP3   OH259804   9.995   8.060   6.933 -0.3977  0.4576 -0.5820
19641TIP3    H159805   9.950   7.986   6.974  0.5875  0.6309  0.8907
19641TIP3    H259806  10.061   8.020   6.876  0.4367  0.1516  0.5542
19642TIP3   OH259807   5.893   1.566   2.097 -0.1581 -0.3110  0.2672
19642TIP3    H159808   5.804   1.530   2.095 -1.4599  2.6456 -0.8139
19642TIP3    H259809   5.939   1.519   2.027 -0.7295 -2.1042  1.0390
19643TIP3   OH259810   3.000   8.136   7.499  0.2117 -0.4797 -0.2443
19643TIP3    H159811   3.066   8.194   7.537 -0.4719  0.3965 -0.3601
19643TIP3    H259812   3.039   8.105   7.417  1.2048 -1.4275  0.5560
19644TIP3   OH259813   4.784   6.664   3.334  0.4781  0.6060 -0.1052
19644TIP3    H159814   4.800   6.738   3.393 -1.2824 -0.3510  1.6774
19644TIP3    H259815   4.865   6.613   3.337  0.3751  0.5010  1.6708
19645TIP3   OH259816   2.079   2.944   0.768 -0.4199 -0.1165 -0.3474
19645TIP3    H159817   2.031   2.985   0.696 -0.2887  0.2277 -0.2395
19645TIP3    H259818   2.052   2.852   0.765  0.1406 -0.2616 -1.2999
19646TIP3   OH259819   0.353   4.933   8.150 -0.2754  0.3729 -0.3743
19646TIP3    H159820   0.317   4.854   8.109  0.0806 -0.0606  0.1367
19646TIP3    H259821   0.277   4.989   8.165 -1.1443 -1.4158  2.6782
19647TIP3   OH259822   4.574   1.457   5.680  0.0177  0.1441  0.4025
19647TIP3    H159823   4.556   1.366   5.659 -1.8045  0.1308  1.7408
19647TIP3    H259824   4.488   1.494   5.700  0.7928  1.9994  0.5025
19648TIP3   OH259825   5.784   1.977   3.746 -0.1151 -0.6994 -0.0501
19648TIP3    H159826   5.848   2.042   3.775  0.3908 -0.5770 -1.4101
19648TIP3    H259827   5.761   1.930   3.826  0.6727  0.1272  0.6881
19649TIP3   OH259828   4.249   0.874   8.386  0.2190  0.1997 -0.2579
19649TIP3    H159829   4.279   0.809   8.322  3.3268  1.0156  0.2056
19649TIP3    H259830   4.316   0.942   8.384 -1.8793  2.4355  0.7486
19650TIP3   OH259831   0.418   6.573   6.895  0.1469  0.5169 -0.0954
19650TIP3    H159832   0.411   6.507   6.827 -1.3320  0.6951 -0.1477
19650TIP3    H259833   0.414   6.657   6.849 -1.8555  0.6521  0.2308
19651TIP3   OH259834   1.077   3.876   9.320 -0.7828 -0.3858 -0.4931
19651TIP3    H159835   1.035   3.843   9.399  0.7187 -0.9362  0.0998
19651TIP3    H259836   1.170   3.855   9.330 -0.0420  2.2446 -0.9866
19652TIP3   OH259837   9.661   5.570   7.219 -0.6848  0.2146  0.0113
19652TIP3    H159838   9.623   5.487   7.191 -0.3881  0.7860 -2.3004
19652TIP3    H259839   9.724   5.592   7.151 -0.7992  2.3645  0.5204
19653TIP3   OH259840   6.153   8.752   3.905 -0.1325  0.4005  0.0153
19653TIP3    H159841   6.106   8.718   3.830 -0.0652 -0.8965  0.5396
19653TIP3    H259842   6.184   8.838   3.877  0.1681 -0.1919 -1.5456
19654TIP3   OH259843   1.104  10.534   5.713 -0.3251  0.2726 -0.5528
19654TIP3    H159844   1.164  10.549   5.640 -0.4950 -0.0813 -0.7673
19654TIP3    H259845   1.134  10.452   5.753 -0.6460  0.1089 -0.6443
19655TIP3   OH259846   8.585   0.251   9.669 -0.8141 -0.0952  0.0892
19655TIP3    H159847   8.603   0.311   9.741 -1.9817 -0.4140  0.6854
19655TIP3    H259848   8.624   0.292   9.592  0.7797  0.0791  0.9469
19656TIP3   OH259849   0.384   6.683  10.339 -0.1745  0.0119  0.5068
19656TIP3    H159850   0.377   6.620  10.267  0.3887  0.5265 -0.0096
19656TIP3    H259851   0.350   6.765  10.303 -1.9335 -0.2212  1.5127
19657TIP3   OH259852   1.597  10.126   4.894  0.4536  0.3480  0.2847
19657TIP3    H159853   1.576  10.072   4.818  0.9853  1.4652 -0.6849
19657TIP3    H259854   1.692  10.116   4.903  0.4144  0.3579  0.7006
19658TIP3   OH259855   2.080   0.935  10.145 -0.3006 -0.2215  0.1897
19658TIP3    H159856   2.103   0.878  10.072 -0.6813  0.3289 -0.3684
19658TIP3    H259857   2.019   0.999  10.108  0.7758  1.0791  0.5890
19659TIP3   OH259858   8.454   9.342   0.986 -0.5366 -0.4508  0.7515
19659TIP3    H159859   8.381   9.399   1.009 -1.5430 -1.6943  0.7442
19659TIP3    H259860   8.413   9.262   0.953  0.7809 -1.6749  1.8985
19660TIP3   OH259861   3.014   9.892   1.476 -0.5936  0.1313  0.3673
19660TIP3    H159862   2.984   9.956   1.411 -2.0945 -1.0748 -0.1719
19660TIP3    H259863   2.935   9.864   1.521  0.4619  1.4002  3.2464
19661TIP3   OH259864   4.879   4.348   0.976 -0.3779  0.7665 -0.6016
19661TIP3    H159865   4.931   4.267   0.974  0.0333  1.0114  0.1453
19661TIP3    H259866   4.804   4.328   0.920 -0.1733 -0.0644 -0.6035
19662TIP3   OH259867   0.693   0.345   5.163 -0.1086 -0.3931 -0.2956
19662TIP3    H159868   0.773   0.353   5.112  0.5916 -0.1181  0.8084
19662TIP3    H259869   0.687   0.427   5.213 -0.3132 -0.9741  0.6718
19663TIP3   OH259870   9.830   1.335   7.044 -0.4283  0.1923  0.5361
19663TIP3    H159871   9.864   1.271   7.107  1.3809  0.8329  0.2775
19663TIP3    H259872   9.793   1.282   6.973  1.5825 -0.6272  0.0323
19664TIP3   OH259873   6.100  10.340   4.719 -0.1224  0.2488 -0.0390
19664TIP3    H159874   6.112  10.359   4.812  1.1276  1.4119 -0.3951
19664TIP3    H259875   6.142  10.256   4.706 -1.8227 -0.7832  0.7378
19665TIP3   OH259876   7.358   0.988   9.107 -0.2276 -0.5624  0.4018
19665TIP3    H159877   7.443   1.013   9.143 -0.4044  1.6492 -0.5330
19665TIP3    H259878   7.379   0.936   9.030  0.2589 -0.7380  0.6471
19666TIP3   OH259879   2.936   8.298   0.680  0.9188  0.0525  0.0626
19666TIP3    H159880   2.957   8.246   0.603  1.4738  0.1003  0.1761
19666TIP3    H259881   2.924   8.234   0.750  1.2867  0.0605  0.1321
19667TIP3   OH259882   4.754   5.576   0.704 -0.3338 -0.5279 -0.4515
19667TIP3    H159883   4.743   5.483   0.726  4.0392 -1.1392  0.1341
19667TIP3    H259884   4.781   5.617   0.786  0.0167  0.7432 -1.1822
19668TIP3   OH259885   8.904   3.999   0.369  0.0845  0.1778  0.2094
19668TIP3    H159886   8.992   4.004   0.406  0.6473  0.3016 -1.1103
19668TIP3    H259887   8.849   3.972   0.442  1.0288  1.2089  1.3440
19669TIP3   OH259888   0.423   3.568   6.070  0.2232  0.5624  0.4034
19669TIP3    H159889   0.400   3.646   6.120 -0.8977  1.0826 -0.8711
19669TIP3    H259890   0.343   3.543   6.025  1.0811 -0.1028 -0.8294
19670TIP3   OH259891   3.904   4.356   4.374 -0.0964  0.6800  0.4331
19670TIP3    H159892   3.879   4.441   4.337  0.6340 -0.5348 -3.2903
19670TIP3    H259893   4.000   4.353   4.364 -0.0561 -0.3972  0.9664
19671TIP3   OH259894   1.777   1.453   8.366  0.1574  0.5650  0.3217
19671TIP3    H159895   1.828   1.378   8.396 -0.8444  0.1988  1.1389
19671TIP3    H259896   1.750   1.430   8.277  0.6913  0.3971  0.2020
19672TIP3   OH259897   1.303   6.195  10.345  0.4348  0.1106 -0.1425
19672TIP3    H159898   1.319   6.101  10.359  1.0258  0.3126  0.6234
19672TIP3    H259899   1.208   6.204  10.355  0.4468 -0.3136  0.4642
19673TIP3   OH259900   7.358   4.302   8.947 -0.3610  0.0728 -0.0008
19673TIP3    H159901   7.384   4.249   9.022  0.8869  0.6043 -0.0426
19673TIP3    H259902   7.400   4.260   8.872 -0.1061  0.6060 -0.1581
19674TIP3   OH259903   2.733   4.141   0.656  0.1414  0.0270 -0.4405
19674TIP3    H159904   2.753   4.115   0.746  0.2073 -1.3926 -0.8376
19674TIP3    H259905   2.679   4.219   0.665  1.6627  1.0156  0.7819
19675TIP3   OH259906   2.469   8.322   9.474 -0.2104  0.4398  0.2182
19675TIP3    H159907   2.536   8.300   9.409  0.2128  2.6331 -0.1859
19675TIP3    H259908   2.387   8.319   9.425 -0.2059 -0.4101  0.2460
19676TIP3   OH259909   6.371   7.362   8.977 -0.0149  0.3101  0.0427
19676TIP3    H159910   6.313   7.294   8.942 -2.3142  2.0412  0.2301
19676TIP3    H259911   6.423   7.390   8.902  0.6339 -1.2488 -0.1462
19677TIP3   OH259912   3.630   7.538   0.816  0.2027  0.1507  0.1019
19677TIP3    H159913   3.561   7.597   0.784 -0.7991 -1.0609 -0.0593
19677TIP3    H259914   3.712   7.581   0.790 -0.5138  0.0711 -2.6704
19678TIP3   OH259915   4.216   7.469   8.632 -0.5248  0.4612 -0.0915
19678TIP3    H159916   4.258   7.392   8.593  1.4725  1.0822  0.7672
19678TIP3    H259917   4.122   7.451   8.622 -0.1717 -2.6403  1.0880
19679TIP3   OH259918   2.611   1.234   3.954 -0.1070  0.7924 -0.3462
19679TIP3    H159919   2.518   1.246   3.934 -0.0072  1.2723 -0.5397
19679TIP3    H259920   2.655   1.244   3.870  0.1882  1.3567 -0.1266
19680TIP3   OH259921   8.580   3.012   9.085 -0.4332  0.2777 -0.4992
19680TIP3    H159922   8.503   2.966   9.051 -0.9657  0.4289  0.4513
19680TIP3    H259923   8.634   3.029   9.008  0.7451 -3.5717 -0.7154
19681TIP3   OH259924   3.936   4.203   7.247 -0.6217  0.2904  0.8017
19681TIP3    H159925   4.008   4.187   7.186 -2.1142 -0.7711 -0.7900
19681TIP3    H259926   3.970   4.177   7.333  0.5477 -1.2305 -0.0755
19682TIP3   OH259927   6.200   5.531   9.753  0.2723  0.3192  0.1377
19682TIP3    H159928   6.118   5.516   9.800 -0.2752 -0.0414 -0.9017
19682TIP3    H259929   6.174   5.581   9.676  0.6094 -1.9882 -1.5652
19683TIP3   OH259930   0.285   1.501   3.317  0.6909  0.2559 -0.1350
19683TIP3    H159931   0.263   1.523   3.408 -0.9345 -0.3062 -0.3517
19683TIP3    H259932   0.379   1.486   3.318  0.6898  0.1494  1.4971
19684TIP3   OH259933   0.911   8.050   9.503 -0.0396  0.2699 -0.3392
19684TIP3    H159934   0.821   8.045   9.537  0.0154 -0.3876 -0.2823
19684TIP3    H259935   0.965   8.061   9.581  0.0725 -1.0783 -0.2058
19685TIP3   OH259936   4.651   2.467   7.987  0.1470  0.0127  0.0140
19685TIP3    H159937   4.635   2.479   8.081 -0.1081 -0.7222  0.0684
19685TIP3    H259938   4.597   2.393   7.963  1.1672 -0.6017 -0.4460
19686TIP3   OH259939   3.361   0.714   3.470  0.4980  0.4516 -0.1570
19686TIP3    H159940   3.441   0.759   3.442 -0.5614  0.6081 -3.2429
19686TIP3    H259941   3.377   0.622   3.449 -0.3484  0.5779 -1.3965
19687TIP3   OH259942   7.131   3.002   3.568  0.0275 -0.1704 -0.5580
19687TIP3    H159943   7.181   2.923   3.545 -0.6135 -0.5772 -0.5964
19687TIP3    H259944   7.096   2.982   3.655 -1.0140 -0.3741 -1.0110
19688TIP3   OH259945   0.730   3.846   3.456  0.2013  0.6365  0.4344
19688TIP3    H159946   0.777   3.892   3.526  2.7903  0.5391 -1.1246
19688TIP3    H259947   0.722   3.911   3.386  1.5540 -0.4347 -0.7861
19689TIP3   OH259948   3.717  10.706   7.700  0.0012 -0.1107 -0.1110
19689TIP3    H159949   3.674  10.773   7.648  1.4868  0.4917 -0.6036
19689TIP3    H259950   3.793  10.750   7.739  1.5983 -1.7031 -1.2638
19690TIP3   OH259951   3.823   3.374   1.760  0.3315 -0.7382 -0.0464
19690TIP3    H159952   3.913   3.342   1.769  0.4603 -0.2821  0.3574
19690TIP3    H259953   3.827   3.436   1.687  0.5460 -0.0249  0.5641
19691TIP3   OH259954   4.085  10.377   6.790 -0.0752 -0.3062  0.0121
19691TIP3    H159955   4.015  10.312   6.791  0.8584 -1.3997 -1.3238
19691TIP3    H259956   4.045  10.457   6.757 -0.8882 -0.6425  0.1733
19692TIP3   OH259957   1.666   9.417   6.806  0.0186 -0.4869  0.1740
19692TIP3    H159958   1.608   9.493   6.816 -0.9515 -1.2726  0.7262
19692TIP3    H259959   1.668   9.401   6.711  1.0229  0.7939 -0.0553
19693TIP3   OH259960   3.732   4.468   7.318 -0.2794 -0.3667 -0.8693
19693TIP3    H159961   3.652   4.435   7.359 -0.0760 -1.8956 -1.6135
19693TIP3    H259962   3.803   4.438   7.375 -0.2307  2.7376  0.9419
19694TIP3   OH259963   1.627   2.801   7.716 -0.2464 -0.8382 -0.7282
19694TIP3    H159964   1.571   2.862   7.763  1.7222  0.1978  0.3816
19694TIP3    H259965   1.595   2.715   7.741 -0.4036 -0.2831  1.0952
19695TIP3   OH259966   1.160   5.323   3.778 -0.2361  0.0601 -0.1518
19695TIP3    H159967   1.066   5.329   3.761 -0.3138  0.7519  0.4808
19695TIP3    H259968   1.192   5.413   3.769  0.0722  0.1129  1.2452
19696TIP3   OH259969   1.113   4.251   6.847 -0.5880 -0.5147 -0.2194
19696TIP3    H159970   1.164   4.224   6.770  1.9857  2.2989  0.2924
19696TIP3    H259971   1.032   4.287   6.810 -0.0053 -0.4787 -1.5349
19697TIP3   OH259972   9.448   4.971   4.546  0.9388 -0.3569  0.1429
19697TIP3    H159973   9.437   4.949   4.638  0.1645 -1.0317 -0.0977
19697TIP3    H259974   9.362   5.003   4.518  1.5544  1.2617  0.0140
19698TIP3   OH259975  10.329   9.734   6.257 -0.1071 -0.1063  0.7848
19698TIP3    H159976  10.399   9.673   6.230  1.3209  2.1612 -1.0933
19698TIP3    H259977  10.253   9.706   6.206  0.2782 -0.8375  0.5886
19699TIP3   OH259978   7.684   5.319   9.091  0.1690  0.0408  1.0645
19699TIP3    H159979   7.779   5.335   9.089  0.3270 -0.8995  0.2049
19699TIP3    H259980   7.669   5.271   9.172  0.4344  0.1308  1.1686
19700TIP3   OH259981   4.887   3.544   1.444  0.1956  0.4562 -0.5376
19700TIP3    H159982   4.981   3.550   1.430  0.2806  1.3221  0.3263
19700TIP3    H259983   4.875   3.555   1.538 -0.5314 -3.0570 -0.0707
19701TIP3   OH259984   5.396   6.759   6.051 -0.1360  0.0383  0.2281
19701TIP3    H159985   5.445   6.837   6.077  0.6946  0.5286 -2.4878
19701TIP3    H259986   5.307   6.790   6.035  0.3969  0.7152 -1.7295
19702TIP3   OH259987   9.237   7.553   2.758  0.4631 -0.6390  0.3173
19702TIP3    H159988   9.246   7.648   2.751 -0.3937 -0.6234 -1.0112
19702TIP3    H259989   9.317   7.518   2.719  0.7530 -0.4666  0.7530
19703TIP3   OH259990   6.948   1.886   9.319 -0.6286  0.6308 -0.7288
19703TIP3    H159991   6.982   1.906   9.406 -0.0521  2.1877 -1.2899
19703TIP3    H259992   6.986   1.800   9.298 -1.8704 -0.4431  1.0758
19704TIP3   OH259993   7.052  10.818   6.549 -0.1953  0.0658  0.1665
19704TIP3    H159994   7.130  10.782   6.592  0.8015 -0.2522 -1.7579
19704TIP3    H259995   7.016  10.744   6.500  0.0896  0.9183 -1.3918
19705TIP3   OH259996   0.748   7.434   3.163 -0.9236 -0.2278 -0.2276
19705TIP3    H159997   0.787   7.504   3.110 -1.8943 -1.1557 -2.2610
19705TIP3    H259998   0.752   7.468   3.253 -0.0394  1.8024 -0.9596
19706TIP3   OH259999   5.434   7.673   1.404  0.1363 -0.4597 -0.1712
19706TIP3    H160000   5.444   7.767   1.389 -0.4924 -0.5644 -1.3300
19706TIP3    H260001   5.504   7.651   1.465  0.7962  0.6128 -0.5145
19707TIP3   OH260002   7.253   3.389  10.615  0.4898  0.4277 -0.2686
19707TIP3    H160003   7.305   3.309  10.612 -0.4065 -0.1377 -1.2012
19707TIP3    H260004   7.249   3.419  10.525  0.5795  1.3835  0.0327
19708TIP3   OH260005   8.144   4.217   7.164 -0.1304  0.0600 -0.3953
19708TIP3    H160006   8.227   4.170   7.172 -0.0818  0.0686 -0.8152
19708TIP3    H260007   8.162   4.286   7.100 -0.6454 -0.3713 -1.0229
19709TIP3   OH260008   4.296   4.225   8.682 -0.0166  0.1854 -0.1010
19709TIP3    H160009   4.361   4.162   8.710  0.2914  0.7145  0.4138
19709TIP3    H260010   4.216   4.174   8.671  0.6140 -0.5666 -1.3110
19710TIP3   OH260011  10.055   8.529   5.153 -0.9004  0.3729 -0.2022
19710TIP3    H160012   9.993   8.577   5.098 -0.6164  2.1494  0.9362
19710TIP3    H260013  10.012   8.446   5.171 -2.2581  0.9395 -0.7076
19711TIP3   OH260014   1.710   0.616   7.684 -0.3797 -0.0429 -0.1735
19711TIP3    H160015   1.796   0.623   7.724 -0.6885 -2.7666  1.1930
19711TIP3    H260016   1.712   0.533   7.637 -2.0263  0.2020 -0.7535
19712TIP3   OH260017   9.632   6.074   0.082  0.6244 -0.2506  0.1871
19712TIP3    H160018   9.641   6.129   0.159  0.5351 -1.4933  1.1146
19712TIP3    H260019   9.653   5.986   0.113 -3.5878 -1.5912 -0.0814
19713TIP3   OH260020   7.235   3.748   4.748  0.0699 -0.1756  0.2467
19713TIP3    H160021   7.223   3.696   4.669  1.3517  0.1459 -0.1748
19713TIP3    H260022   7.153   3.798   4.755  0.8195  1.6487 -2.2905
19714TIP3   OH260023  10.174   1.021   3.852 -0.8061 -0.3488  0.3360
19714TIP3    H160024  10.144   0.930   3.857 -0.2034 -0.5738 -0.0694
19714TIP3    H260025  10.252   1.024   3.907  0.8528 -0.7920 -1.8314
19715TIP3   OH260026   3.359   5.331   5.569 -1.3199 -0.2411 -0.3511
19715TIP3    H160027   3.415   5.372   5.503 -1.5817  2.3327  0.8942
19715TIP3    H260028   3.413   5.261   5.606  0.2400  0.6942 -0.7531
19716TIP3   OH260029   1.978   0.270   5.753  0.5817 -0.1586 -0.0248
19716TIP3    H160030   1.924   0.235   5.683  0.2650  0.4559 -0.0967
19716TIP3    H260031   2.068   0.253   5.726  0.4645  0.2019 -0.6428
19717TIP3   OH260032   9.638   6.305   8.442  0.1221 -0.2706  0.6249
19717TIP3    H160033   9.686   6.251   8.505 -0.3421 -0.7509  0.5827
19717TIP3    H260034   9.624   6.247   8.367 -0.1131  0.0097  0.4492
19718TIP3   OH260035   7.685   6.684   0.225  0.1333 -0.0453 -0.0252
19718TIP3    H160036   7.599   6.722   0.241  0.0036 -0.1209 -0.5165
19718TIP3    H260037   7.668   6.613   0.163  0.7396  0.8821 -1.2954
19719TIP3   OH260038   0.823   7.969  10.509 -0.2741 -0.0633  0.5664
19719TIP3    H160039   0.764   8.036  10.471 -0.2978  0.1192  0.9199
19719TIP3    H260040   0.764   7.910  10.556 -0.4112 -1.1380 -0.8803
19720TIP3   OH260041   7.008   8.861   1.581  0.1858  0.1633  0.0956
19720TIP3    H160042   7.087   8.810   1.568  0.4570  0.2986  1.1674
19720TIP3    H260043   6.979   8.883   1.492  1.2070 -0.0881 -0.3117
19721TIP3   OH260044   1.202   3.447   5.743  0.0630  0.3999 -0.6743
19721TIP3    H160045   1.167   3.427   5.830  0.1292 -0.8133 -0.9092
19721TIP3    H260046   1.297   3.436   5.752  0.1623  1.2105 -0.6676
19722TIP3   OH260047   0.232   8.559   6.316  0.5727  0.4431  0.2011
19722TIP3    H160048   0.256   8.649   6.338  0.0159  1.0637 -1.5853
19722TIP3    H260049   0.305   8.506   6.348  0.3680  1.3602  2.3405
19723TIP3   OH260050  10.063   1.431   3.784  0.1417  0.1221  0.1639
19723TIP3    H160051  10.021   1.493   3.844 -0.5470 -0.9103  0.7715
19723TIP3    H260052  10.048   1.345   3.824  0.4745 -0.5023 -1.0166
19724TIP3   OH260053   1.618   6.549   8.099  0.0356 -0.0227  0.2648
19724TIP3    H160054   1.661   6.463   8.104  0.3371  0.0824 -0.4186
19724TIP3    H260055   1.679   6.608   8.143 -0.7054 -0.3372  1.7915
19725TIP3   OH260056   5.313   5.551   3.986  0.3787 -0.0797 -0.2300
19725TIP3    H160057   5.246   5.534   3.920  1.2868  0.8664 -1.4268
19725TIP3    H260058   5.269   5.607   4.050  0.4742  2.0440 -1.9224
19726TIP3   OH260059   0.980   1.961   2.146 -0.3006 -0.1239 -0.0955
19726TIP3    H160060   0.980   1.922   2.059 -1.3646 -0.8882  0.2188
19726TIP3    H260061   1.071   1.960   2.174 -0.2579 -2.2338 -0.1877
19727TIP3   OH260062   7.778   8.893   6.670 -0.3749 -0.4008  0.0124
19727TIP3    H160063   7.832   8.932   6.602 -1.0684  0.4528 -0.0681
19727TIP3    H260064   7.740   8.968   6.717 -0.0826 -0.9711  1.2022
19728TIP3   OH260065   8.180   1.386   3.406  0.0590  0.0847 -0.2768
19728TIP3    H160066   8.138   1.469   3.387  0.4818  0.6888  1.2493
19728TIP3    H260067   8.135   1.353   3.484  0.2686 -0.8503 -0.5329
19729TIP3   OH260068   2.947   6.825   5.641 -0.0799  0.3375 -0.1616
19729TIP3    H160069   2.971   6.852   5.552  0.0188 -1.5263 -0.7453
19729TIP3    H260070   3.023   6.849   5.694  0.4542  0.1891 -0.8411
19730TIP3   OH260071   8.865   9.668   0.757 -0.1131 -0.5597  0.0619
19730TIP3    H160072   8.790   9.650   0.701  0.5105 -0.7504 -0.7262
19730TIP3    H260073   8.863   9.599   0.823 -1.7447  0.5413  1.2534
19731TIP3   OH260074   6.871   3.044   4.287 -0.5478 -0.3482  0.0346
19731TIP3    H160075   6.819   3.007   4.215  1.3012 -2.2502 -0.4131
19731TIP3    H260076   6.930   3.107   4.244 -0.4894 -0.3528  0.1077
19732TIP3   OH260077   4.524   4.141   7.825 -0.7365  0.2533 -0.1596
19732TIP3    H160078   4.534   4.084   7.749  1.4072  0.6379 -0.2352
19732TIP3    H260079   4.477   4.218   7.791  0.4291  0.5421 -1.1853
19733TIP3   OH260080   3.207   4.871   0.540 -0.3154 -0.0380 -0.4526
19733TIP3    H160081   3.160   4.810   0.598  0.5517 -0.0910  0.2083
19733TIP3    H260082   3.264   4.920   0.599 -0.0955  0.5547 -1.1514
19734TIP3   OH260083   9.735   7.946  10.511 -0.4379  0.4270  0.7318
19734TIP3    H160084   9.752   8.032  10.472  0.6088  0.0969  0.4343
19734TIP3    H260085   9.733   7.962  10.605 -1.7235  1.0161  0.6215
19735TIP3   OH260086   9.729   4.775   3.641 -0.1824  0.5716 -0.4112
19735TIP3    H160087   9.819   4.809   3.642  0.5501 -1.2307  0.8324
19735TIP3    H260088   9.707   4.769   3.548  3.6675 -5.1666 -1.5006
19736TIP3   OH260089   0.348   9.743   2.759  0.0006  0.6708  0.5595
19736TIP3    H160090   0.354   9.815   2.695 -1.1473  0.9147  0.7098
19736TIP3    H260091   0.430   9.749   2.808  0.2667  1.3909  0.0589
19737TIP3   OH260092   3.765   8.921   1.974  0.4543 -0.0258  0.1794
19737TIP3    H160093   3.800   8.843   2.017  0.4610  0.3280  0.8339
19737TIP3    H260094   3.789   8.911   1.882  0.4394 -0.8016  0.2552
19738TIP3   OH260095   0.553   8.172   7.587  0.0671 -0.2413 -0.6534
19738TIP3    H160096   0.474   8.123   7.607  0.6428 -1.6063 -1.5660
19738TIP3    H260097   0.625   8.112   7.608  0.9218  1.2687  0.9563
19739TIP3   OH260098   3.674   8.461   9.104  0.3353 -0.7200  0.4319
19739TIP3    H160099   3.712   8.445   9.018  1.5324 -0.0987  0.8203
19739TIP3    H260100   3.660   8.555   9.108  0.8328 -0.6678  1.1283
19740TIP3   OH260101   8.589   9.010   5.792 -0.1858  0.5988 -0.0513
19740TIP3    H160102   8.657   8.943   5.795 -0.7428  0.0345 -0.0324
19740TIP3    H260103   8.547   8.999   5.707 -1.8950 -0.6945  0.9095
19741TIP3   OH260104   7.799   5.906   1.603 -0.2172  0.1424  0.1229
19741TIP3    H160105   7.862   5.933   1.669  1.0391 -1.1538 -0.4949
19741TIP3    H260106   7.783   5.985   1.551 -1.7087  1.3643  2.2775
19742TIP3   OH260107   2.522   2.371   6.027  0.4713  0.6226 -0.5458
19742TIP3    H160108   2.493   2.366   6.118 -0.2244  0.8933 -0.7477
19742TIP3    H260109   2.612   2.340   6.029  0.1914 -0.1958  0.1069
19743TIP3   OH260110   8.887   7.716   3.877  0.4547  0.4843 -0.1206
19743TIP3    H160111   8.858   7.659   3.806  1.7271 -0.9839  0.4816
19743TIP3    H260112   8.827   7.699   3.949 -0.0253  0.9801 -0.3968
19744TIP3   OH260113   9.646   5.770   1.737 -0.2061 -0.2991 -0.2718
19744TIP3    H160114   9.651   5.859   1.701  0.0955  0.3831  1.3963
19744TIP3    H260115   9.638   5.714   1.659  0.2890  1.1196 -1.3998
19745TIP3   OH260116   6.654   7.047   5.611  0.3312 -0.2123 -0.1656
19745TIP3    H160117   6.672   7.071   5.702  0.6848  1.0063 -0.5353
19745TIP3    H260118   6.604   7.120   5.576 -0.2633 -0.9111 -0.8176
19746TIP3   OH260119   6.844   3.268   0.975  0.0648  0.4840 -0.5316
19746TIP3    H160120   6.762   3.310   0.948 -0.4243  1.2509  1.8792
19746TIP3    H260121   6.826   3.175   0.974 -1.6158  0.6825  1.9025
19747TIP3   OH260122   9.658   8.798   6.323  0.4090  0.1947 -0.3926
19747TIP3    H160123   9.713   8.852   6.380 -1.5227 -0.0327  1.8191
19747TIP3    H260124   9.686   8.708   6.340 -0.5017  0.0879  0.6379
19748TIP3   OH260125   7.530   6.415   0.372 -0.2696 -0.0431  0.5780
19748TIP3    H160126   7.565   6.352   0.310  0.7442 -0.1534  1.2382
19748TIP3    H260127   7.486   6.362   0.438 -0.1513 -0.0107  0.6831
19749TIP3   OH260128   6.798   0.906   8.430 -0.6476 -0.4158  0.1375
19749TIP3    H160129   6.788   0.992   8.390 -0.0709 -0.3595  0.1103
19749TIP3    H260130   6.709   0.870   8.432 -0.9079  0.2305  0.2750
19750TIP3   OH260131   0.140   1.477   9.887  0.1347  0.4410 -0.2192
19750TIP3    H160132   0.089   1.546   9.929 -0.0171  0.0556  0.2370
19750TIP3    H260133   0.079   1.403   9.881  0.3566  0.2789 -0.5208
19751TIP3   OH260134   1.960   8.244   6.150  0.0140 -0.2584  0.0881
19751TIP3    H160135   1.993   8.274   6.066  0.3558  0.5678  0.5023
19751TIP3    H260136   1.872   8.211   6.132 -0.4283  1.1275 -0.3677
19752TIP3   OH260137   6.968   2.132   2.708 -0.0712 -0.1388  0.2594
19752TIP3    H160138   6.891   2.122   2.764  0.4574 -1.6406  0.7890
19752TIP3    H260139   7.030   2.067   2.742  0.1617 -1.3440 -2.2224
19753TIP3   OH260140   9.791   8.944   9.397  0.4841  0.0936  0.0439
19753TIP3    H160141   9.790   8.864   9.345  1.3570  0.4812 -0.5888
19753TIP3    H260142   9.791   8.915   9.488  2.9883 -0.6975 -0.1415
19754TIP3   OH260143   9.230   5.911   4.652 -0.1959 -0.2704  0.2068
19754TIP3    H160144   9.140   5.912   4.685 -0.1177  0.4499  0.4212
19754TIP3    H260145   9.279   5.859   4.717 -0.0778  0.9950  1.1756
19755TIP3   OH260146   3.617   2.116   3.976 -0.1171  0.0839 -0.4525
19755TIP3    H160147   3.591   2.207   3.987 -1.0689 -0.1751 -0.5211
19755TIP3    H260148   3.537   2.070   3.951  0.5217 -0.6227 -1.2880
19756TIP3   OH260149   9.205   5.175   3.246 -0.2223 -0.0368 -0.0457
19756TIP3    H160150   9.216   5.190   3.152 -0.0881  1.9225  0.2470
19756TIP3    H260151   9.188   5.081   3.253  0.5120 -0.3637 -1.9494
19757TIP3   OH260152  10.294  10.248   6.092  0.0052  0.6448  0.2117
19757TIP3    H160153  10.382  10.265   6.059 -0.0876 -1.5100 -1.3748
19757TIP3    H260154  10.303  10.168   6.143 -0.9396  0.7093  0.5008
19758TIP3   OH260155   6.267   1.361  10.595 -0.5640 -0.0765 -0.0546
19758TIP3    H160156   6.208   1.357  10.521 -0.9750 -0.8430  0.3104
19758TIP3    H260157   6.286   1.455  10.605 -0.1666 -0.0025 -1.3744
19759TIP3   OH260158   1.633  10.891   2.472 -0.0982 -0.3569 -0.7698
19759TIP3    H160159   1.697  10.958   2.497 -0.2344  0.5348 -2.5599
19759TIP3    H260160   1.598  10.858   2.554  1.9375 -0.1630  0.2277
19760TIP3   OH260161   4.184   4.826   8.870 -0.9226  0.1627 -0.4798
19760TIP3    H160162   4.150   4.897   8.925 -0.0803  0.2940 -0.1168
19760TIP3    H260163   4.186   4.750   8.928 -2.1053 -0.2382 -0.9521
19761TIP3   OH260164  10.889   5.765   9.421  0.1719  0.5468 -0.2133
19761TIP3    H160165  10.844   5.833   9.370  0.9108 -0.0901 -1.7643
19761TIP3    H260166  10.818   5.718   9.466 -0.5582  0.7746 -1.1001
19762TIP3   OH260167   5.934   6.036   7.970  0.2593 -0.3006 -0.3837
19762TIP3    H160168   5.971   5.973   8.032 -1.1093 -0.7185  0.0512
19762TIP3    H260169   5.956   6.122   8.006 -1.4279 -0.5185  1.3190
19763TIP3   OH260170   3.672   1.719   0.310 -0.7942  0.7627 -0.1881
19763TIP3    H160171   3.643   1.810   0.304  2.5862  1.9258 -1.2663
19763TIP3    H260172   3.679   1.691   0.219 -0.4477 -0.1082  0.1015
19764TIP3   OH260173   2.409   0.551   7.837 -0.6914 -0.0933 -0.1495
19764TIP3    H160174   2.319   0.517   7.834  0.0003 -2.0785 -0.2611
19764TIP3    H260175   2.422   0.576   7.928 -0.2581 -3.2965  0.8118
19765TIP3   OH260176   4.369   5.986   1.042  0.0054  0.2779  0.0605
19765TIP3    H160177   4.292   6.043   1.049 -0.2982  0.0428 -1.0972
19765TIP3    H260178   4.335   5.897   1.051  0.0644  0.1509 -0.8269
19766TIP3   OH260179   9.563   4.994   9.404  0.0217 -0.1550  0.0552
19766TIP3    H160180   9.617   4.915   9.395  0.4130  0.1793 -0.5969
19766TIP3    H260181   9.535   4.993   9.495  1.1747 -0.3101  0.4257
19767TIP3   OH260182   9.082   7.802   6.865  0.7959  0.0656 -1.0203
19767TIP3    H160183   9.135   7.805   6.785 -0.7447 -0.5253 -2.1265
19767TIP3    H260184   9.010   7.742   6.843 -0.5819  1.1934  0.2445
19768TIP3   OH260185   3.844   7.701   3.091  0.1306 -0.5304 -1.2089
19768TIP3    H160186   3.823   7.648   3.014 -2.1787 -0.8325 -0.4750
19768TIP3    H260187   3.921   7.659   3.129  1.7540  0.0140 -3.6365
19769TIP3   OH260188   4.363   6.251   6.252 -0.0370 -0.2894  0.4630
19769TIP3    H160189   4.397   6.333   6.217 -0.4792 -0.7130 -1.0458
19769TIP3    H260190   4.429   6.222   6.316  1.9225 -0.5174 -1.5356
19770TIP3   OH260191   9.836   5.470   9.657 -0.2170  0.6434 -0.3117
19770TIP3    H160192   9.768   5.505   9.599 -1.8718  0.9196  1.6913
19770TIP3    H260193   9.839   5.532   9.730  0.8096 -0.4474  0.6031
19771TIP3   OH260194   8.110   6.138   1.362 -0.1771 -0.3219  0.4542
19771TIP3    H160195   8.175   6.208   1.373  1.4484 -1.5520 -0.7399
19771TIP3    H260196   8.084   6.143   1.271 -0.1539 -1.1665  0.3894
19772TIP3   OH260197   9.627  10.744   3.217  0.3102 -0.2145  0.3426
19772TIP3    H160198   9.712  10.708   3.243  0.0796 -0.7976  0.2814
19772TIP3    H260199   9.611  10.815   3.280  0.8862 -0.0315  0.2950
19773TIP3   OH260200   8.898   7.082   9.337 -0.6302  0.1562 -0.6804
19773TIP3    H160201   8.862   7.138   9.268  0.8894 -0.5179 -2.0965
19773TIP3    H260202   8.821   7.041   9.376 -1.5464  0.3820 -2.1595
19774TIP3   OH260203   2.216   9.591   9.526 -0.4680  0.4557 -0.2390
19774TIP3    H160204   2.218   9.571   9.619 -0.3800  1.0266 -0.1104
19774TIP3    H260205   2.250   9.681   9.521 -1.2608  0.7380 -0.7328
19775TIP3   OH260206   8.107   3.050   4.810  0.1963 -0.4088 -0.1885
19775TIP3    H160207   8.065   2.979   4.762  0.3285 -1.4096  1.1389
19775TIP3    H260208   8.061   3.053   4.894  1.3166 -0.0532  0.4289
19776TIP3   OH260209   0.953   2.755   1.446  0.1255  0.0600 -0.0502
19776TIP3    H160210   0.885   2.763   1.378  1.3537 -1.3451 -1.5098
19776TIP3    H260211   0.989   2.667   1.435  1.1497  0.1993  1.7178
19777TIP3   OH260212   0.515   3.518   8.890 -0.0902 -0.2594  0.2858
19777TIP3    H160213   0.435   3.477   8.923  0.8198 -1.6834  0.8110
19777TIP3    H260214   0.559   3.552   8.968 -0.5710  1.2952 -0.0898
19778TIP3   OH260215   1.181   7.014   6.301  0.4422 -0.3511  0.4951
19778TIP3    H160216   1.112   7.035   6.364  2.7175  0.7422  2.8110
19778TIP3    H260217   1.248   7.080   6.316  1.6325 -0.7615 -2.3520
19779TIP3   OH260218   6.426   3.424   0.491 -0.4901 -0.0288  0.1291
19779TIP3    H160219   6.488   3.497   0.484 -1.5719  0.8267 -1.0872
19779TIP3    H260220   6.469   3.352   0.444 -0.1376  0.3530 -0.1419
19780TIP3   OH260221   4.572   5.581   2.955 -0.3853 -0.2257  0.0815
19780TIP3    H160222   4.638   5.649   2.966  0.1535 -0.9626  1.7620
19780TIP3    H260223   4.582   5.554   2.863  1.6904 -0.3184  0.2711
19781TIP3   OH260224   9.537   9.333   5.000 -0.2637  0.3043 -0.2169
19781TIP3    H160225   9.551   9.412   4.947  1.5262 -0.2757 -0.7146
19781TIP3    H260226   9.583   9.351   5.082 -0.0839 -0.0893 -0.2260
19782TIP3   OH260227   7.207   4.949   4.077 -0.5287  0.2604  0.3384
19782TIP3    H160228   7.260   4.883   4.121 -0.2249  0.3063  0.0451
19782TIP3    H260229   7.117   4.921   4.092 -0.5256  1.1078  2.3286
19783TIP3   OH260230   0.116   5.812   8.792 -0.3584  0.0180 -0.4657
19783TIP3    H160231   0.028   5.826   8.827 -0.6173  0.7703 -1.3682
19783TIP3    H260232   0.165   5.890   8.818 -0.0485 -0.2526 -0.2333
19784TIP3   OH260233   1.681   9.113   1.684  0.1028 -0.6092  0.8103
19784TIP3    H160234   1.609   9.100   1.622 -0.3909  2.1717  0.6524
19784TIP3    H260235   1.755   9.138   1.629  0.1146  0.2712  1.2120
19785TIP3   OH260236   4.840   7.451   7.242 -0.6593 -0.5801 -0.0343
19785TIP3    H160237   4.794   7.386   7.189 -1.0742 -1.8330  1.7592
19785TIP3    H260238   4.793   7.533   7.227 -1.1431 -1.0340 -1.0773
19786TIP3   OH260239   6.214   4.338   2.935 -0.5653 -0.0620 -0.0410
19786TIP3    H160240   6.221   4.251   2.896  0.7260  1.2186 -3.0069
19786TIP3    H260241   6.259   4.331   3.019 -0.6206 -2.2545 -0.1283
19787TIP3   OH260242   8.749   6.869   6.299  0.2808  0.1036  0.2284
19787TIP3    H160243   8.819   6.887   6.236 -0.6185  1.1107 -0.5367
19787TIP3    H260244   8.735   6.774   6.293  0.4710  0.1273 -0.8279
19788TIP3   OH260245  10.055   7.420  10.604 -0.6387 -0.4785  0.3092
19788TIP3    H160246  10.123   7.462  10.658 -2.0598 -1.4346  3.0286
19788TIP3    H260247  10.071   7.327  10.614 -2.8554 -0.7702  1.8633
19789TIP3   OH260248   9.132   1.242   4.995  0.7737  0.2672 -0.2052
19789TIP3    H160249   9.037   1.247   5.008  0.7307 -0.1103 -0.3832
19789TIP3    H260250   9.166   1.208   5.078  0.8001  0.8156  0.0153
19790TIP3   OH260251   3.585   6.582  10.832 -0.1167 -0.3244 -0.3201
19790TIP3    H160252   3.515   6.607  10.892  1.9727  0.7426  1.8495
19790TIP3    H260253   3.572   6.488  10.819 -2.8804  0.0959 -1.4131
19791TIP3   OH260254   2.927   3.346   4.096 -0.0470 -0.0631  0.2866
19791TIP3    H160255   2.989   3.358   4.024 -2.5694  0.3822 -1.9743
19791TIP3    H260256   2.918   3.433   4.135 -0.1907  0.1299 -0.1813
19792TIP3   OH260257  10.563   0.784   3.392 -0.5137  0.0353  0.0381
19792TIP3    H160258  10.506   0.755   3.463 -0.6116  0.3322  0.0847
19792TIP3    H260259  10.575   0.878   3.408 -0.8487  0.1860 -0.5553
19793TIP3   OH260260   6.178   0.974   3.567 -0.3229 -0.1835 -0.3702
19793TIP3    H160261   6.273   0.977   3.579 -0.0791 -1.3345 -1.6970
19793TIP3    H260262   6.162   1.030   3.491 -0.7659  0.3487  0.1115
19794TIP3   OH260263   2.509   7.995   5.772 -0.2107  0.6978  1.1860
19794TIP3    H160264   2.488   8.027   5.859  0.8192 -0.3031  1.8398
19794TIP3    H260265   2.480   7.904   5.772  0.2215  0.5494  0.6578
19795TIP3   OH260266   7.489  10.362   0.634 -0.0231  0.3914  0.4849
19795TIP3    H160267   7.486  10.426   0.564  1.0386 -0.7526 -0.6673
19795TIP3    H260268   7.497  10.414   0.714  0.2444  1.6882 -0.3565
19796TIP3   OH260269   5.835   4.326   4.033 -0.5907  0.0892  0.2614
19796TIP3    H160270   5.870   4.271   4.103  0.5950 -1.0656 -1.2020
19796TIP3    H260271   5.904   4.390   4.015 -1.5032  1.3966  1.1423
19797TIP3   OH260272   5.317   7.440   7.253 -0.1522  0.3882 -0.0657
19797TIP3    H160273   5.339   7.523   7.210  1.5413  0.0179  0.0384
19797TIP3    H260274   5.308   7.463   7.346  0.3141  0.4590 -0.0362
19798TIP3   OH260275   0.822   4.083   1.192  0.3601 -0.1403  0.1674
19798TIP3    H160276   0.842   4.130   1.111 -0.9823  0.5757  0.2263
19798TIP3    H260277   0.809   4.151   1.257  0.8176 -0.6945  0.8526
19799TIP3   OH260278   2.234   7.203   4.045  0.2559 -0.0712  0.1547
19799TIP3    H160279   2.206   7.158   3.965  0.7933 -0.0876 -0.0266
19799TIP3    H260280   2.291   7.139   4.089  1.3718  0.5810 -0.3151
19800TIP3   OH260281   4.081   0.751   8.995  0.1032 -0.0619  0.0209
19800TIP3    H160282   4.170   0.735   9.025 -0.1029  0.2334  0.8082
19800TIP3    H260283   4.091   0.782   8.905  0.6786 -1.7403 -0.5222
19801TIP3   OH260284   4.169   9.092   8.269 -0.5061  0.3738 -0.0933
19801TIP3    H160285   4.210   9.024   8.216  0.8678  2.9125 -2.5287
19801TIP3    H260286   4.083   9.104   8.230 -0.6471  0.2572  0.1742
19802TIP3   OH260287   4.232   3.634   8.739 -0.5102 -0.3137  0.1788
19802TIP3    H160288   4.273   3.560   8.694  0.8812  0.8791 -0.5832
19802TIP3    H260289   4.211   3.696   8.669  1.6174  1.5535  1.0827
19803TIP3   OH260290   1.750   1.872   2.903 -0.3316  0.0759  0.1170
19803TIP3    H160291   1.683   1.807   2.878 -2.0676  2.7732 -3.0435
19803TIP3    H260292   1.813   1.869   2.832  2.7999 -1.9137  2.7150
19804TIP3   OH260293   8.662   0.882   0.744  0.0307  0.1188 -0.0731
19804TIP3    H160294   8.580   0.931   0.734 -0.1543 -0.2520 -0.3893
19804TIP3    H260295   8.651   0.804   0.689  0.6733  0.1639 -0.2813
19805TIP3   OH260296   5.600   8.439   3.207 -0.4750 -0.0861 -0.2736
19805TIP3    H160297   5.554   8.360   3.179  0.6390 -1.3031  1.1389
19805TIP3    H260298   5.538   8.484   3.264 -0.3089 -1.2123  0.8369
19806TIP3   OH260299   2.288   9.757   8.799 -0.4099 -0.3652  0.0737
19806TIP3    H160300   2.299   9.739   8.893  1.2841 -0.4206 -0.0952
19806TIP3    H260301   2.235   9.685   8.767  0.0179 -1.0125  0.7818
19807TIP3   OH260302   2.879   6.194   9.723  0.0829 -0.2936  0.1844
19807TIP3    H160303   2.886   6.228   9.812 -3.6193  0.2134  0.4318
19807TIP3    H260304   2.904   6.101   9.730 -0.6073 -0.3817  1.8749
19808TIP3   OH260305   7.104   7.624   2.172  0.0367  0.2664 -0.1260
19808TIP3    H160306   7.101   7.534   2.140 -0.4138  0.0974  0.3757
19808TIP3    H260307   7.036   7.628   2.239 -1.0935  1.4477 -1.3031
19809TIP3   OH260308   0.742   9.084  10.475  0.3641  0.6224  0.0852
19809TIP3    H160309   0.690   9.159  10.504 -1.8591 -0.4574 -0.8035
19809TIP3    H260310   0.699   9.009  10.516  0.7272 -0.4049 -1.3458
19810TIP3   OH260311   9.091   0.233   6.519  0.2406  0.4367  0.4870
19810TIP3    H160312   9.099   0.230   6.614  0.0107 -0.3378  0.4901
19810TIP3    H260313   9.180   0.221   6.487  0.5689  2.2538  0.5992
19811TIP3   OH260314  10.366  10.532  10.636  0.2161  0.3507  0.5758
19811TIP3    H160315  10.329  10.522  10.548  0.6564 -1.3136  0.5573
19811TIP3    H260316  10.460  10.544  10.621  0.2148  0.6619  0.7996
19812TIP3   OH260317   5.804   1.881   9.553  0.2941 -0.1220  0.0713
19812TIP3    H160318   5.886   1.910   9.512 -0.3972 -0.1605 -1.3870
19812TIP3    H260319   5.818   1.897   9.647  1.5817  0.8204 -0.2438
19813TIP3   OH260320   9.468   1.134   0.440 -0.3046 -0.5062 -0.6927
19813TIP3    H160321   9.390   1.189   0.436 -1.3114 -1.7619  0.4809
19813TIP3    H260322   9.470   1.087   0.357 -1.9140 -1.8231 -0.0570
19814TIP3   OH260323   4.084  10.087   5.359 -0.3416  0.0079 -0.3229
19814TIP3    H160324   4.079  10.027   5.285 -1.3719 -1.5430  0.9171
19814TIP3    H260325   4.074  10.030   5.436 -0.3189  1.6640  0.9565
19815TIP3   OH260326   1.982   4.599   0.733  0.3824 -0.2115  0.1338
19815TIP3    H160327   1.900   4.599   0.782  1.2604  1.0906  1.6810
19815TIP3    H260328   1.955   4.596   0.642 -1.3229 -2.9748  0.5900
19816TIP3   OH260329   4.134   7.738   4.707  0.0381  0.0865  0.0442
19816TIP3    H160330   4.186   7.733   4.626  2.7013 -2.2614  1.7217
19816TIP3    H260331   4.153   7.824   4.742  0.7708  0.2369 -0.6841
19817TIP3   OH260332   0.678   0.901   9.667 -0.0964 -0.3484 -0.2662
19817TIP3    H160333   0.709   0.975   9.719  2.0233 -1.9950  0.9764
19817TIP3    H260334   0.719   0.913   9.581  0.8457 -0.4424  0.1586
19818TIP3   OH260335   5.395   1.168   1.400  0.0887  0.3925  0.3837
19818TIP3    H160336   5.349   1.241   1.443 -2.9554  0.0885 -2.0536
19818TIP3    H260337   5.327   1.122   1.351  2.3262 -2.7551 -0.0797
19819TIP3   OH260338   8.696   6.513  10.674 -0.1096 -0.2730 -0.3761
19819TIP3    H160339   8.658   6.544  10.756 -1.4702 -1.3398 -0.5725
19819TIP3    H260340   8.650   6.562  10.606  1.9644  1.6234 -0.5235
19820TIP3   OH260341   4.560   6.765   5.169  0.1233 -0.3922  0.1339
19820TIP3    H160342   4.574   6.680   5.211 -1.1132 -0.1282  1.1427
19820TIP3    H260343   4.471   6.758   5.132  0.4015  0.1190 -0.6563
19821TIP3   OH260344   1.475   5.414   1.991 -0.0762 -0.2375 -0.4916
19821TIP3    H160345   1.533   5.345   2.022  0.2515 -0.1013 -0.7941
19821TIP3    H260346   1.499   5.491   2.042  0.4704 -0.0114 -1.0755
19822TIP3   OH260347   5.611   6.102   9.686 -0.3722  0.0724  0.2213
19822TIP3    H160348   5.607   6.035   9.617  0.9734 -0.9831  1.1048
19822TIP3    H260349   5.701   6.097   9.719 -0.9769  0.5374  2.0729
19823TIP3   OH260350   9.340   2.191   0.131 -0.5404  0.6273 -0.2577
19823TIP3    H160351   9.276   2.174   0.062 -1.3533  1.9980  0.1229
19823TIP3    H260352   9.420   2.215   0.084 -0.5650 -0.1687 -0.7242
19824TIP3   OH260353   1.071  10.532   0.433  0.0262  1.0009  0.3344
19824TIP3    H160354   1.023  10.450   0.449  2.0603 -0.7492 -1.6929
19824TIP3    H260355   1.039  10.563   0.349  1.3666  0.5679 -0.3689
19825TIP3   OH260356   7.642   5.988   5.172  0.0228  0.0251  0.5333
19825TIP3    H160357   7.622   6.077   5.144 -1.0477 -0.3065  0.2110
19825TIP3    H260358   7.727   5.995   5.217 -0.0623  1.2003  0.5221
19826TIP3   OH260359   2.950   8.767   1.013 -0.0775  0.1825 -0.6359
19826TIP3    H160360   2.984   8.700   0.954  0.1733  2.3778 -3.1890
19826TIP3    H260361   2.873   8.802   0.968 -0.8026  0.9468  1.0920
19827TIP3   OH260362   3.016   4.029   2.114 -0.3715  0.0398 -0.2856
19827TIP3    H160363   3.034   4.071   2.030 -0.4256 -2.0386 -1.4154
19827TIP3    H260364   2.948   4.084   2.154 -0.1287  1.2492 -1.4524
19828TIP3   OH260365   8.184  10.864  10.882  0.8708 -0.0796 -0.4598
19828TIP3    H160366   8.193  10.959  10.875 -0.8210  0.0168 -1.8952
19828TIP3    H260367   8.097  10.845  10.848  1.1943 -2.1621 -0.2590
19829TIP3   OH260368   5.541   4.527   0.005  0.4389 -0.4487  0.1506
19829TIP3    H160369   5.545   4.573  -0.079 -0.3549 -1.6301 -0.5691
19829TIP3    H260370   5.632   4.508   0.027  0.7664  1.2042  0.3381
19830TIP3   OH260371   0.057   4.047  10.463 -0.2097  0.1216 -0.3283
19830TIP3    H160372   0.001   4.115  10.502 -0.2693 -0.8058  1.3149
19830TIP3    H260373   0.003   3.968  10.465  0.1421 -0.1711 -1.4786
19831TIP3   OH260374   9.306   5.897   4.104 -0.1046 -0.1293 -0.0672
19831TIP3    H160375   9.303   5.888   4.199  2.5639 -0.9306  0.0260
19831TIP3    H260376   9.393   5.933   4.086 -0.7451  0.5267 -2.1899
19832TIP3   OH260377   1.046   2.932  10.076  0.0370 -0.2015 -0.1264
19832TIP3    H160378   0.966   2.925  10.128 -0.1596  0.7042 -0.2844
19832TIP3    H260379   1.100   2.859  10.105 -1.8855 -2.4879 -1.8608
19833TIP3   OH260380   6.474   9.753   2.484  0.3258  0.0240 -0.5005
19833TIP3    H160381   6.391   9.799   2.468  1.1310  1.3047 -1.1699
19833TIP3    H260382   6.492   9.768   2.577  0.6222  1.1957 -0.7280
19834TIP3   OH260383   5.081   9.803   4.970 -0.3420 -0.1742  0.4196
19834TIP3    H160384   5.154   9.788   5.030  0.1979 -1.3810 -0.4921
19834TIP3    H260385   5.003   9.775   5.018 -0.1504  0.5700  1.1868
19835TIP3   OH260386   8.535   5.617   8.400  0.3166  0.0001  0.0700
19835TIP3    H160387   8.506   5.526   8.388  0.8693 -0.2421  0.4884
19835TIP3    H260388   8.619   5.622   8.354  0.9404 -0.0902  1.1342
19836TIP3   OH260389  10.760   8.129   1.637  0.0534 -0.4863  0.6124
19836TIP3    H160390  10.759   8.044   1.682 -0.4337 -2.6905 -3.1653
19836TIP3    H260391  10.684   8.126   1.578  0.1455  2.5333  0.1888
19837TIP3   OH260392   4.984   5.520   2.881 -0.2512  0.1033  0.2269
19837TIP3    H160393   4.969   5.606   2.920  1.7113  0.5503  0.0581
19837TIP3    H260394   5.071   5.525   2.842 -0.6874 -1.4944 -1.0860
19838TIP3   OH260395  10.820   3.241   9.756  0.2261 -0.6539 -0.1166
19838TIP3    H160396  10.835   3.329   9.790  2.3046 -0.7939 -0.5658
19838TIP3    H260397  10.761   3.200   9.821  0.5234  0.5262  0.9341
19839TIP3   OH260398  10.661   8.091   5.396 -0.0090 -0.4308  0.1563
19839TIP3    H160399  10.623   8.172   5.430 -1.3223 -0.5380 -0.9875
19839TIP3    H260400  10.620   8.078   5.310 -0.6428 -2.8496  0.7273
19840TIP3   OH260401   3.081   4.272   1.239 -0.5873  0.0739 -0.2989
19840TIP3    H160402   3.101   4.214   1.313 -1.9080 -2.5341 -1.8436
19840TIP3    H260403   3.164   4.317   1.221  0.2748 -0.6609  1.5281
19841TIP3   OH260404   0.007   8.217  10.000 -0.6839 -0.1467 -0.0227
19841TIP3    H160405   0.090   8.262   9.987 -1.5983  1.9115  0.7033
19841TIP3    H260406  -0.003   8.212  10.095 -1.8468  0.6416 -0.0765
19842TIP3   OH260407   0.733   8.477  10.503 -0.4547  0.1141  0.5857
19842TIP3    H160408   0.735   8.479  10.598  1.9048  2.2823  0.5851
19842TIP3    H260409   0.747   8.385  10.480  0.9013 -0.1605  2.3435
19843TIP3   OH260410  10.833   2.947   1.767 -0.1079  0.0200 -0.2899
19843TIP3    H160411  10.876   2.865   1.743 -0.6964 -0.0662 -1.1218
19843TIP3    H260412  10.742   2.922   1.782  0.1560  0.1488  1.7331
19844TIP3   OH260413   6.442   4.624   5.959  0.5878 -0.4199  0.2193
19844TIP3    H160414   6.432   4.648   6.051 -2.1428  1.3746 -0.4186
19844TIP3    H260415   6.354   4.595   5.932  0.9942  0.3131 -2.1334
19845TIP3   OH260416   8.419   2.013   9.358  0.4216 -0.2479  0.5830
19845TIP3    H160417   8.458   1.926   9.366  0.2853 -0.3196  0.4805
19845TIP3    H260418   8.338   1.999   9.309 -0.2110 -0.2433  1.5918
19846TIP3   OH260419   9.492   6.934   9.471  0.2220  0.2501 -0.1303
19846TIP3    H160420   9.538   6.973   9.545  0.7701  2.7911 -1.6871
19846TIP3    H260421   9.482   6.842   9.495  2.2882  0.5121  2.1434
19847TIP3   OH260422   8.225   1.669   9.043 -0.0940 -0.4724  0.0130
19847TIP3    H160423   8.200   1.667   8.950  0.1585  1.4084 -0.1362
19847TIP3    H260424   8.186   1.590   9.080 -0.5140 -1.0714 -1.6132
19848TIP3   OH260425   3.088   8.986   3.574  0.2749  0.3401  0.1644
19848TIP3    H160426   3.161   8.933   3.607 -0.3415 -1.2860 -0.9753
19848TIP3    H260427   3.031   8.924   3.530 -1.2327  1.7639  0.0187
19849TIP3   OH260428   1.780   4.160   0.028  0.2104 -0.1519 -0.3769
19849TIP3    H160429   1.692   4.177  -0.004  1.2917 -0.3449 -3.8162
19849TIP3    H260430   1.775   4.074   0.069 -0.8974 -0.9171 -2.0245
19850TIP3   OH260431  10.048   1.464   2.288 -0.3953  0.1673  0.5346
19850TIP3    H160432  10.071   1.407   2.362  0.5343 -0.7736 -0.4377
19850TIP3    H260433  10.014   1.404   2.222 -0.3176  0.8712 -0.1509
19851TIP3   OH260434   4.553  10.259   9.201  0.6199  0.4758  0.2814
19851TIP3    H160435   4.497  10.331   9.173  1.4308  0.5138 -1.3380
19851TIP3    H260436   4.623  10.256   9.136 -0.1667 -2.7224 -0.5642
19852TIP3   OH260437   8.543   5.356   7.551 -0.7057 -0.5959  0.2156
19852TIP3    H160438   8.523   5.386   7.639 -0.3576  0.3027  0.0031
19852TIP3    H260439   8.618   5.409   7.524 -1.8510  0.3474 -1.2561
19853TIP3   OH260440   0.923   8.678   3.791  0.0063 -0.3093  0.1711
19853TIP3    H160441   0.891   8.734   3.720 -0.4156 -0.7542  0.0055
19853TIP3    H260442   0.845   8.663   3.846 -0.2893 -2.0885 -0.6832
19854TIP3   OH260443   6.626   0.068   1.974  0.2078 -0.1409  0.4498
19854TIP3    H160444   6.660   0.144   2.020 -0.5107  0.3324  0.2153
19854TIP3    H260445   6.653   0.079   1.883 -0.7047  0.3350  0.2239
19855TIP3   OH260446   7.104   2.098   7.818 -0.0848  0.1737 -0.2189
19855TIP3    H160447   7.175   2.124   7.877 -1.0155  0.2447  0.9153
19855TIP3    H260448   7.024   2.121   7.866 -0.9004 -1.3574 -0.7700
19856TIP3   OH260449   5.637   4.214   8.357 -0.1157 -0.5473  0.1577
19856TIP3    H160450   5.661   4.270   8.282  1.3622 -0.5978  0.5635
19856TIP3    H260451   5.544   4.231   8.370  0.2860  1.9464  0.3341
19857TIP3   OH260452   1.303   3.115   5.116  0.0834  0.1857 -0.0499
19857TIP3    H160453   1.286   3.035   5.166 -2.0713 -0.4066 -1.5568
19857TIP3    H260454   1.381   3.094   5.064 -0.1263 -0.7314 -0.0110
19858TIP3   OH260455   6.287   8.599   4.910 -0.9552  0.2200  0.1459
19858TIP3    H160456   6.306   8.601   4.816 -1.4650  2.7539  0.0460
19858TIP3    H260457   6.374   8.599   4.951 -0.7359  0.0581 -0.2964
19859TIP3   OH260458   6.195   6.393   7.976  0.2610 -0.1632  0.2056
19859TIP3    H160459   6.162   6.420   8.061  2.4566  1.2178  0.7159
19859TIP3    H260460   6.153   6.453   7.914 -1.8894 -1.6217  0.1273
19860TIP3   OH260461   4.557   5.417   6.231 -0.4587 -0.1478  1.0415
19860TIP3    H160462   4.566   5.497   6.282 -0.3918  1.3768 -1.2308
19860TIP3    H260463   4.629   5.419   6.169 -1.0204 -1.4761  0.2864
19861TIP3   OH260464   5.126   7.106   7.141 -0.1456  1.1054  0.2479
19861TIP3    H160465   5.111   7.198   7.119 -0.0360  1.1640  0.4115
19861TIP3    H260466   5.095   7.097   7.231  2.2805  1.6442  1.2230
19862TIP3   OH260467   6.537   4.213   6.505 -0.1005 -0.2999  0.6444
19862TIP3    H160468   6.554   4.132   6.552 -0.3029 -0.0312  1.1862
19862TIP3    H260469   6.529   4.280   6.573 -3.9198 -0.4697  0.6109
19863TIP3   OH260470   7.622   3.426   5.607  0.4366  0.6459 -0.0392
19863TIP3    H160471   7.595   3.420   5.515 -1.6581  1.7582  0.4421
19863TIP3    H260472   7.708   3.468   5.604 -0.5820  2.8528 -1.4592
19864TIP3   OH260473   6.254   9.714   5.087  0.2842 -0.5227 -0.6390
19864TIP3    H160474   6.159   9.720   5.098  0.4355 -0.4537  0.8288
19864TIP3    H260475   6.281   9.646   5.150  1.4288  0.9181  0.5112
19865TIP3   OH260476   4.987   6.882   3.748  0.6226  0.4544 -0.0704
19865TIP3    H160477   4.896   6.909   3.738 -0.0340 -1.5669  0.1541
19865TIP3    H260478   5.002   6.884   3.842  0.2309 -0.9210  0.0407
19866TIP3   OH260479   0.894   9.372   0.873 -0.3962 -0.0116 -0.0508
19866TIP3    H160480   0.885   9.301   0.937 -1.6491 -1.0527 -1.2899
19866TIP3    H260481   0.961   9.430   0.909  1.3214 -2.2687  0.6276
19867TIP3   OH260482   1.106   3.156   1.438 -0.1288 -0.5686 -0.1377
19867TIP3    H160483   1.126   3.124   1.350  1.5579  0.7841 -0.3143
19867TIP3    H260484   1.130   3.083   1.496  2.8546 -0.0977 -0.5727
19868TIP3   OH260485   8.143   2.920   1.066 -0.1001  0.2181 -0.5913
19868TIP3    H160486   8.230   2.935   1.103 -0.1872 -0.0747 -0.2560
19868TIP3    H260487   8.159   2.887   0.978  0.1511 -0.8778 -0.1435
19869TIP3   OH260488   2.318   5.370  10.866 -0.6988  0.0455 -0.2535
19869TIP3    H160489   2.392   5.391  10.810 -0.6352  0.4068 -0.0415
19869TIP3    H260490   2.245   5.418  10.827 -1.1882 -1.5380 -1.3655
19870TIP3   OH260491   4.375   1.587   0.716  0.6195  0.3267 -0.1322
19870TIP3    H160492   4.308   1.526   0.745 -0.7121  1.4340 -0.7676
19870TIP3    H260493   4.362   1.665   0.770 -0.3607  1.5263 -2.0115
19871TIP3   OH260494   3.716   3.919   4.931  0.6288  0.1543  0.8573
19871TIP3    H160495   3.699   4.001   4.883 -0.3801 -1.0551 -0.9987
19871TIP3    H260496   3.793   3.882   4.887  0.3434 -0.4606  0.8737
19872TIP3   OH260497   0.408   2.675   7.597 -0.0526 -0.5165  0.1130
19872TIP3    H160498   0.335   2.729   7.629  1.6545  2.4614 -0.6065
19872TIP3    H260499   0.378   2.642   7.513 -0.4637  1.0857 -0.4082
19873TIP3   OH260500  10.359   9.005  10.109  0.4835 -0.2490 -0.1738
19873TIP3    H160501  10.265   8.997  10.127  0.0985  4.4591  1.5206
19873TIP3    H260502  10.363   9.031  10.017  0.1819 -0.7907 -0.3453
19874TIP3   OH260503   2.655   1.369   6.624  0.0959  0.1902  0.3118
19874TIP3    H160504   2.670   1.337   6.535  0.2068 -0.5805  0.5958
19874TIP3    H260505   2.572   1.416   6.619 -0.0097 -0.0376 -0.1568
19875TIP3   OH260506   6.731   6.523   6.516  0.1690  0.2779 -0.2991
19875TIP3    H160507   6.657   6.582   6.532  0.1498  0.1004  0.2780
19875TIP3    H260508   6.770   6.510   6.603 -1.2484 -2.4867  0.0076
19876TIP3   OH260509  10.496   7.537   8.377  0.1120 -0.5029  0.0234
19876TIP3    H160510  10.526   7.628   8.374  0.6466 -0.6740  0.0249
19876TIP3    H260511  10.451   7.530   8.461  0.8819 -0.4781  0.4508
19877TIP3   OH260512   9.571   7.034   3.144 -0.1165  0.0492 -0.5676
19877TIP3    H160513   9.601   6.948   3.114 -0.2220 -0.1275 -0.1804
19877TIP3    H260514   9.621   7.050   3.224  0.0318  0.4308 -0.7360
19878TIP3   OH260515   2.257   1.291   1.266 -0.2374  0.3146 -0.2493
19878TIP3    H160516   2.303   1.298   1.350  0.3470 -0.0353 -0.5319
19878TIP3    H260517   2.324   1.259   1.205 -0.1167  2.3374 -1.2804
19879TIP3   OH260518   8.063   5.105   7.892 -0.3476  0.0058 -1.0162
19879TIP3    H160519   8.125   5.033   7.878 -0.4172 -0.3302  0.2396
19879TIP3    H260520   8.078   5.165   7.820  1.5775  0.0145 -0.6518
19880TIP3   OH260521   1.287  10.687   6.582  0.2943 -0.0895  0.1205
19880TIP3    H160522   1.381  10.702   6.584  0.0741  1.4958  0.6563
19880TIP3    H260523   1.263  10.700   6.490  0.4391  0.8794  0.2016
19881TIP3   OH260524   0.895   2.218   0.430 -0.5110  0.6904 -0.2366
19881TIP3    H160525   0.953   2.275   0.378 -0.6702  0.2215 -0.9422
19881TIP3    H260526   0.810   2.225   0.387 -0.6145  0.1835 -0.1199
19882TIP3   OH260527   9.197   5.366   1.940 -0.0234 -0.3233  0.5832
19882TIP3    H160528   9.279   5.355   1.892 -0.6737 -0.0677 -0.6226
19882TIP3    H260529   9.155   5.280   1.936  0.1339 -0.4252  1.1040
19883TIP3   OH260530   5.280   1.228   5.615  0.3388 -0.2094  0.0423
19883TIP3    H160531   5.188   1.204   5.631  0.3295 -0.1502  0.0796
19883TIP3    H260532   5.311   1.163   5.553 -0.2447  0.7933 -1.3644
19884TIP3   OH260533   6.842   8.154   3.620  1.0121  0.2330  0.5193
19884TIP3    H160534   6.770   8.217   3.615  0.5099 -0.3383  0.4126
19884TIP3    H260535   6.806   8.079   3.666  0.7691 -1.0444 -1.5958
19885TIP3   OH260536   8.264   3.726   0.295  0.2869 -0.3748 -0.0673
19885TIP3    H160537   8.299   3.779   0.224  1.7590 -0.7196  0.3654
19885TIP3    H260538   8.309   3.758   0.373  0.1025 -1.2767  0.4213
19886TIP3   OH260539   6.766   8.522   2.891 -0.4549  0.6020  0.3354
19886TIP3    H160540   6.780   8.493   2.801  0.7708  1.1067  0.3379
19886TIP3    H260541   6.849   8.503   2.936 -1.0068  0.4589  1.3278
19887TIP3   OH260542   1.441   2.177   8.587  0.0257  0.3589 -0.1417
19887TIP3    H160543   1.389   2.099   8.606  0.2347  0.3080  0.2307
19887TIP3    H260544   1.467   2.168   8.495 -2.3805  1.3991 -1.0147
19888TIP3   OH260545   8.974   1.072   7.609  0.5452  0.2128 -0.0865
19888TIP3    H160546   9.064   1.091   7.581  1.0742 -1.0125  0.6682
19888TIP3    H260547   8.954   1.140   7.673 -0.0020  1.9454 -2.0024
19889TIP3   OH260548   9.071   3.298   6.677  0.0812 -0.2329  0.0623
19889TIP3    H160549   9.142   3.350   6.641 -0.8810  2.5935  1.8664
19889TIP3    H260550   9.094   3.207   6.657  3.6253  0.6111 -0.3166
19890TIP3   OH260551   6.370   9.414   7.138  0.6081 -0.1840 -0.5755
19890TIP3    H160552   6.422   9.490   7.111  0.1426  0.3498  0.0169
19890TIP3    H260553   6.435   9.344   7.149  1.5448  0.9907  2.1775
19891TIP3   OH260554  10.391   8.396   3.166 -0.2640  0.3605 -1.0768
19891TIP3    H160555  10.475   8.352   3.155  0.0491  0.3183  0.9339
19891TIP3    H260556  10.376   8.443   3.084  2.1908  1.1561 -1.1454
19892TIP3   OH260557   8.530   3.407   6.575  0.2759 -0.2669 -0.5568
19892TIP3    H160558   8.538   3.312   6.585  1.2742 -0.1109  0.2671
19892TIP3    H260559   8.614   3.442   6.606 -1.0838  1.0530  2.0141
19893TIP3   OH260560  10.353   7.378   3.063  0.4756  0.6771 -0.5033
19893TIP3    H160561  10.272   7.388   3.113  0.4008 -1.4925 -0.1004
19893TIP3    H260562  10.422   7.390   3.128  0.5166  2.1562 -0.7765
19894TIP3   OH260563   9.304   0.983   3.362  0.1148  0.2138 -0.0211
19894TIP3    H160564   9.316   1.030   3.444  0.7809  0.0716 -0.0367
19894TIP3    H260565   9.244   0.912   3.383  0.7656 -0.1905  0.4817
19895TIP3   OH260566   9.344   7.486   6.973  0.2376  0.7046 -0.4932
19895TIP3    H160567   9.381   7.398   6.965 -1.1781 -0.0103  0.4694
19895TIP3    H260568   9.252   7.475   6.950 -0.0621  1.8479  0.1239
19896TIP3   OH260569   6.295   6.524   1.665 -0.4149  0.3729  0.9766
19896TIP3    H160570   6.275   6.607   1.621 -2.0467 -0.3218  0.3329
19896TIP3    H260571   6.390   6.516   1.658 -0.5159  0.5836 -1.9388
19897TIP3   OH260572   6.514   8.585   9.185  0.3960 -0.3707 -0.1243
19897TIP3    H160573   6.571   8.591   9.262 -1.1833  1.6169  0.9713
19897TIP3    H260574   6.551   8.513   9.135  1.5632 -1.6905  2.4187
19898TIP3   OH260575   0.126   6.054   9.260 -0.3256  0.5880  0.2734
19898TIP3    H160576   0.127   5.991   9.188  0.4487  0.7382  0.1419
19898TIP3    H260577   0.213   6.046   9.299  1.1844  4.0270 -1.9266
19899TIP3   OH260578   0.272  10.892  10.375 -0.1437  0.0148  0.3764
19899TIP3    H160579   0.313  10.976  10.394  0.7504 -0.1808 -0.5925
19899TIP3    H260580   0.345  10.832  10.362 -0.7617 -1.1165  1.8101
19900TIP3   OH260581   3.063   8.882   4.309 -0.1395 -0.1999  0.0988
19900TIP3    H160582   3.087   8.863   4.400 -0.4812  1.6600  0.6282
19900TIP3    H260583   2.990   8.944   4.316  0.5919  0.8925 -1.4235
19901TIP3   OH260584  10.086   5.033   2.425  0.4014  0.3011  0.6596
19901TIP3    H160585  10.141   4.957   2.408  0.9154  1.0560 -1.1755
19901TIP3    H260586  10.005   5.016   2.377 -0.2489  0.0909  1.7721
19902TIP3   OH260587   3.252   8.909   1.373 -0.5047  0.1737 -0.6554
19902TIP3    H160588   3.195   8.842   1.334  0.8505 -1.6579  0.3667
19902TIP3    H260589   3.296   8.949   1.298 -2.3688  0.9768 -1.3923
19903TIP3   OH260590   8.189   8.190   1.839 -0.9234  0.1078 -0.3065
19903TIP3    H160591   8.220   8.115   1.889  0.9424 -0.4625 -2.1793
19903TIP3    H260592   8.111   8.158   1.793 -0.4084 -0.5461 -0.7292
19904TIP3   OH260593   1.161   3.394   1.310  0.4812 -0.0496  0.5060
19904TIP3    H160594   1.125   3.314   1.348  0.1867  0.0157  0.3716
19904TIP3    H260595   1.255   3.378   1.304  0.2055 -1.2924 -1.6043
19905TIP3   OH260596   4.187   1.127   2.351 -0.4254 -0.0834  0.0094
19905TIP3    H160597   4.106   1.177   2.335 -0.3800 -0.8410 -3.4184
19905TIP3    H260598   4.156   1.041   2.379 -0.9112 -0.4546 -1.5321
19906TIP3   OH260599   2.530   0.666   9.608  0.3326  0.1078 -0.1518
19906TIP3    H160600   2.566   0.665   9.519  5.5005  2.6626  1.5272
19906TIP3    H260601   2.533   0.575   9.636  2.5227 -0.2663 -1.3631
19907TIP3   OH260602   8.905   3.338   6.409  0.5088 -0.1272 -0.0532
19907TIP3    H160603   8.846   3.373   6.476  1.6633  0.5518  0.6394
19907TIP3    H260604   8.899   3.243   6.419  0.8305 -0.0350  1.1836
19908TIP3   OH260605   1.972   9.342   3.400  0.5844 -0.0968  0.3571
19908TIP3    H160606   1.976   9.262   3.452  0.4880 -0.3824 -0.0635
19908TIP3    H260607   1.880   9.366   3.399  0.5078 -0.3979 -0.1288
19909TIP3   OH260608   0.842   5.792   7.561 -0.7673  0.3584 -0.1608
19909TIP3    H160609   0.843   5.868   7.619  2.1471  0.1058  0.2491
19909TIP3    H260610   0.867   5.828   7.475  1.5853 -0.2017  0.2383
19910TIP3   OH260611   2.987  10.506  10.561  0.0350 -0.1284 -0.4484
19910TIP3    H160612   3.001  10.600  10.571 -0.3176  0.1629 -2.2925
19910TIP3    H260613   3.023  10.486  10.474 -1.1411 -1.4338 -0.6638
19911TIP3   OH260614   9.415   7.425   3.099 -0.8125 -0.5551  0.5779
19911TIP3    H160615   9.499   7.432   3.054 -2.0647  0.5788 -1.7474
19911TIP3    H260616   9.428   7.473   3.181  0.4271  0.8877 -0.3961
19912TIP3   OH260617   8.247   1.898  10.068 -0.0689  0.3198 -0.1972
19912TIP3    H160618   8.290   1.961  10.010  0.0238 -1.7719 -2.5768
19912TIP3    H260619   8.318   1.847  10.105 -0.2720 -0.5407 -0.9622
19913TIP3   OH260620   9.983   8.189   4.481  0.0099 -0.1019 -0.0454
19913TIP3    H160621  10.029   8.122   4.532  0.2214 -0.3795 -0.6007
19913TIP3    H260622   9.891   8.179   4.506 -0.3903 -2.3917 -2.0845
19914TIP3   OH260623  10.327   1.888   9.622  0.5919 -0.5202 -0.2519
19914TIP3    H160624  10.377   1.967   9.642  0.1948 -0.1780 -0.5898
19914TIP3    H260625  10.276   1.872   9.700 -0.2588  0.2795 -0.6254
19915TIP3   OH260626   4.775   9.215   0.524  0.4528 -0.7849 -0.5149
19915TIP3    H160627   4.870   9.225   0.522  0.2968  0.8373 -1.2698
19915TIP3    H260628   4.742   9.300   0.553 -0.7773 -1.2776 -0.4190
19916TIP3   OH260629   7.478   5.199  10.674  0.1268 -0.3294  0.0294
19916TIP3    H160630   7.521   5.113  10.671  0.1197 -0.3165 -1.0504
19916TIP3    H260631   7.399   5.185  10.725  1.8736 -0.1150  2.9948
19917TIP3   OH260632   0.940   3.166   5.910 -0.0914  0.6849 -0.4382
19917TIP3    H160633   0.921   3.192   6.001  0.4651  0.7673 -0.3463
19917TIP3    H260634   1.029   3.131   5.913 -0.1567  0.4810 -0.9136
19918TIP3   OH260635   7.464   9.035   7.413 -0.3031  0.4493 -0.2466
19918TIP3    H160636   7.512   9.092   7.353  1.5165 -1.0038 -0.2413
19918TIP3    H260637   7.461   8.950   7.369 -1.0391 -0.0367  0.6856
19919TIP3   OH260638   2.883   3.651   1.606 -0.0837  0.0007 -0.0308
19919TIP3    H160639   2.803   3.658   1.658 -0.3062 -1.5787 -0.1310
19919TIP3    H260640   2.905   3.742   1.584 -1.8966  0.4555 -0.1020
19920TIP3   OH260641   6.088   5.947   3.588 -0.5291 -0.3040  0.1941
19920TIP3    H160642   6.071   6.041   3.578 -0.5445 -0.4318 -1.0826
19920TIP3    H260643   6.004   5.905   3.568 -0.0827 -0.6681 -1.0044
19921TIP3   OH260644   4.007   9.062   4.608 -0.3014 -0.2778 -0.3657
19921TIP3    H160645   3.933   9.057   4.669 -0.4489  1.5345 -0.3439
19921TIP3    H260646   3.967   9.092   4.526  0.4375  1.3036 -0.1932
19922TIP3   OH260647   8.128  10.626   8.949 -0.1430 -0.0216  0.0569
19922TIP3    H160648   8.189  10.617   9.021  1.6510 -1.1639 -1.5133
19922TIP3    H260649   8.112  10.721   8.943  0.3915  0.1676  1.3467
19923TIP3   OH260650   2.539   5.497  10.750 -0.1385 -0.7317  0.5910
19923TIP3    H160651   2.539   5.552  10.828  0.0482 -1.3389  1.0194
19923TIP3    H260652   2.513   5.556  10.679 -1.9800 -0.5241  1.3680
19924TIP3   OH260653   5.886   6.057   5.110  0.5098  0.2268  0.0976
19924TIP3    H160654   5.888   6.129   5.172  0.3328  1.3408 -1.1553
19924TIP3    H260655   5.901   5.979   5.164 -0.0377  1.1029  1.5814
19925TIP3   OH260656   8.128  10.549   1.256  0.0271  0.4890 -0.1051
19925TIP3    H160657   8.115  10.543   1.162  0.9133  1.4258 -0.3127
19925TIP3    H260658   8.198  10.487   1.275 -0.5268 -0.1073  0.0432
19926TIP3   OH260659   6.362   1.858   4.323  0.1604 -1.0064 -0.1721
19926TIP3    H160660   6.319   1.933   4.364  1.5180 -0.5650  0.5154
19926TIP3    H260661   6.361   1.877   4.230  0.0686 -0.3614 -0.0396
19927TIP3   OH260662   9.136   8.020  10.657  0.6284 -0.0507  0.4354
19927TIP3    H160663   9.041   8.024  10.667  0.4964 -0.3363 -0.5440
19927TIP3    H260664   9.165   8.110  10.667  0.3764 -0.0963  1.7286
19928TIP3   OH260665   3.227   5.589   0.860  1.3068 -0.0379  0.3651
19928TIP3    H160666   3.306   5.537   0.871 -0.8095 -3.0438  3.4564
19928TIP3    H260667   3.200   5.574   0.769  2.9285 -1.0275  0.0229
19929TIP3   OH260668   3.926   8.663   4.103 -0.7942 -0.1679 -0.2604
19929TIP3    H160669   3.905   8.695   4.015  1.2595 -0.7997 -1.0435
19929TIP3    H260670   3.893   8.573   4.104 -0.7921 -0.1709 -0.4021
19930TIP3   OH260671  10.157   5.793   8.575 -0.1149  0.4993 -0.3025
19930TIP3    H160672  10.073   5.749   8.592 -0.6828  1.9606  0.8387
19930TIP3    H260673  10.136   5.859   8.508  0.3191  0.3433 -0.6007
19931TIP3   OH260674  10.624   3.519   8.811  0.2577  0.0923  0.3033
19931TIP3    H160675  10.570   3.496   8.887 -0.7916 -0.6543 -0.6322
19931TIP3    H260676  10.585   3.470   8.738  1.6038  0.3220 -0.6103
19932TIP3   OH260677   2.901   4.310   8.478 -0.2663  0.1676  0.1557
19932TIP3    H160678   2.824   4.262   8.508  0.2176 -1.2988 -0.8327
19932TIP3    H260679   2.970   4.244   8.474 -0.4053 -0.0155 -4.5924
19933TIP3   OH260680   9.410   5.473   5.620  0.2927  0.5060 -0.0669
19933TIP3    H160681   9.345   5.428   5.674 -2.2375  1.8012 -1.8130
19933TIP3    H260682   9.444   5.542   5.677 -1.0753  0.8065  0.4202
19934TIP3   OH260683   9.322   0.739   0.539  0.1568  0.7693  0.0523
19934TIP3    H160684   9.274   0.697   0.610  0.8720  0.8067  0.5762
19934TIP3    H260685   9.369   0.668   0.495  0.6221  0.8821  0.3502
19935TIP3   OH260686   1.296   0.500   6.165 -0.1609  0.3909 -0.1237
19935TIP3    H160687   1.318   0.412   6.133  1.5607  0.6476  0.2411
19935TIP3    H260688   1.220   0.526   6.113 -1.3360 -1.6749  0.4327
19936TIP3   OH260689   9.141   7.648   8.408  0.1724 -0.0256 -0.0121
19936TIP3    H160690   9.196   7.697   8.347  0.6309 -0.4770  0.0291
19936TIP3    H260691   9.192   7.569   8.428 -1.2260 -1.3383 -1.3444
19937TIP3   OH260692   0.139   6.693   2.974  0.1731  0.2085 -0.7897
19937TIP3    H160693   0.116   6.708   3.066  2.4528 -0.6694  0.0010
19937TIP3    H260694   0.077   6.626   2.944  0.1451 -0.3588  0.4831
19938TIP3   OH260695   3.121   6.365   2.660  0.2673 -0.1608  0.2228
19938TIP3    H160696   3.142   6.295   2.721  0.3921  0.6039  1.0724
19938TIP3    H260697   3.161   6.443   2.698 -0.7579  0.5740 -0.1655
19939TIP3   OH260698   4.797   8.666   8.094  0.2078 -0.0011 -0.2583
19939TIP3    H160699   4.883   8.649   8.133 -0.6882 -2.2831  0.9076
19939TIP3    H260700   4.793   8.609   8.018 -0.3417 -0.0300 -0.2142
19940TIP3   OH260701   8.389   9.461   5.412  0.3103  0.2477 -0.0145
19940TIP3    H160702   8.436   9.400   5.354  0.9395 -0.4965  1.2416
19940TIP3    H260703   8.315   9.410   5.445 -0.0848  0.6921 -0.2077
19941TIP3   OH260704   8.472   9.918   4.601  0.2353  0.3315 -0.7604
19941TIP3    H160705   8.407   9.850   4.618  0.8613  0.0043  0.3963
19941TIP3    H260706   8.430   9.999   4.629  0.0819  0.2105 -0.6411
19942TIP3   OH260707   4.109   3.793   9.784  0.2481 -0.4087 -0.0368
19942TIP3    H160708   4.104   3.844   9.865  0.7316  1.3640 -1.0791
19942TIP3    H260709   4.201   3.767   9.778  0.2253 -0.4855 -0.0461
19943TIP3   OH260710   2.406   7.299   3.002 -0.2195 -0.1078  0.3339
19943TIP3    H160711   2.401   7.210   2.967  0.0346  0.5271 -1.3809
19943TIP3    H260712   2.341   7.301   3.072  0.3115 -1.8534  0.9185
19944TIP3   OH260713   6.855   1.671   8.879 -0.7732 -0.5042  0.3439
19944TIP3    H160714   6.896   1.611   8.942 -0.9333 -0.5809  0.3742
19944TIP3    H260715   6.849   1.754   8.926  1.7108  0.2416 -0.4961
19945TIP3   OH260716   5.351   8.849   0.193 -0.6090  0.4880  0.0313
19945TIP3    H160717   5.299   8.770   0.205 -0.7093  0.5542  0.0273
19945TIP3    H260718   5.290   8.914   0.160 -0.6253  0.6946  0.4603
19946TIP3   OH260719   9.902   4.391   2.906  0.0389 -0.1163  0.4507
19946TIP3    H160720   9.865   4.358   2.824 -2.2515  0.2560  1.2785
19946TIP3    H260721   9.873   4.328   2.972  0.2572  0.6191  1.2557
19947TIP3   OH260722  10.878   9.752   2.446  0.3193  0.2335  0.3351
19947TIP3    H160723  10.895   9.698   2.524 -0.5416 -0.4764  0.0498
19947TIP3    H260724  10.852   9.837   2.481 -3.4289 -1.0018  1.0297
19948TIP3   OH260725   1.674   3.402   6.897  0.8411 -0.2322 -0.3834
19948TIP3    H160726   1.647   3.375   6.985  0.6374  0.4653 -0.2304
19948TIP3    H260727   1.643   3.492   6.889  3.1041  0.6322 -0.2020
19949TIP3   OH260728   6.592   4.496   7.770 -0.0115  0.2106 -0.0828
19949TIP3    H160729   6.502   4.475   7.746  0.0417  1.2340 -1.3024
19949TIP3    H260730   6.630   4.533   7.690  1.1105  0.9680  0.7640
19950TIP3   OH260731   0.770  10.756   2.602 -0.0036  0.0966  0.6583
19950TIP3    H160732   0.824  10.685   2.636  0.6499 -0.0406 -0.5895
19950TIP3    H260733   0.785  10.828   2.663  0.3083 -0.4511  1.2397
19951TIP3   OH260734   9.957   5.542   1.394  0.1787 -0.6629 -0.2673
19951TIP3    H160735  10.039   5.586   1.417 -0.1518  0.0492 -0.4126
19951TIP3    H260736   9.912   5.529   1.477 -1.3602  2.5835 -0.4216
19952TIP3   OH260737   7.390   1.915   9.333  0.7289 -0.7747 -0.1093
19952TIP3    H160738   7.311   1.932   9.281 -0.3057 -1.2104  1.2569
19952TIP3    H260739   7.361   1.855   9.402  2.3830 -1.3473  0.1267
19953TIP3   OH260740   4.063   9.881   6.465  0.0907  0.1329 -0.0164
19953TIP3    H160741   4.092   9.869   6.375 -1.6759  1.6775 -0.8468
19953TIP3    H260742   4.062   9.976   6.478 -0.8806 -0.0117  1.2128
19954TIP3   OH260743   9.336  10.174   9.590  0.3297 -0.6582  0.3430
19954TIP3    H160744   9.345  10.093   9.640  1.0993 -0.3186  0.7785
19954TIP3    H260745   9.409  10.228   9.619 -0.7159  0.5733  0.7496
19955TIP3   OH260746   0.247   1.118   2.923  0.4591  0.0062  0.0003
19955TIP3    H160747   0.223   1.167   3.002  0.1319  0.3822 -0.3305
19955TIP3    H260748   0.250   1.027   2.952  1.0352  0.2078  0.6130
19956TIP3   OH260749   6.693   9.696  10.872 -0.2856 -0.3890  0.2481
19956TIP3    H160750   6.652   9.768  10.920  0.7615  1.4604 -1.4629
19956TIP3    H260751   6.621   9.637  10.850 -1.0166 -0.4503  2.5867
19957TIP3   OH260752  10.119   9.424   3.835 -0.5743  0.5518  0.2226
19957TIP3    H160753  10.069   9.485   3.890 -1.1364  0.5887 -0.3196
19957TIP3    H260754  10.137   9.350   3.892  0.7594  1.5276  1.1236
19958TIP3   OH260755   2.879   5.626   3.155  0.3348 -0.6090 -0.5032
19958TIP3    H160756   2.905   5.537   3.131 -0.1166 -0.8743 -0.0347
19958TIP3    H260757   2.799   5.615   3.207 -0.4566  0.1510 -1.5038
19959TIP3   OH260758   5.275   5.077   4.548 -0.3726 -0.3417 -0.2483
19959TIP3    H160759   5.216   5.038   4.613 -0.0131 -2.2757 -1.0099
19959TIP3    H260760   5.357   5.092   4.596 -1.6829  3.5172  1.1561
19960TIP3   OH260761   3.932   7.176   7.022 -0.2272 -0.3687 -0.2574
19960TIP3    H160762   3.926   7.128   6.939 -0.4568 -0.7282 -0.0356
19960TIP3    H260763   4.009   7.233   7.011 -0.0784 -0.6301 -0.6053
19961TIP3   OH260764   6.243   7.195   7.172 -0.2315 -0.3290  0.0873
19961TIP3    H160765   6.234   7.121   7.232 -1.7891  0.0160  0.3416
19961TIP3    H260766   6.177   7.179   7.104 -0.3108  0.6053 -0.0714
19962TIP3   OH260767   9.323   9.504   0.809  0.0234  0.3534 -0.5176
19962TIP3    H160768   9.331   9.443   0.882 -4.4802 -0.7382 -0.6330
19962TIP3    H260769   9.355   9.455   0.733 -0.6113 -0.7170 -0.1153
19963TIP3   OH260770  10.052   9.912   5.879 -0.3562 -0.3309  0.4816
19963TIP3    H160771  10.045   9.862   5.798  1.4756  1.5972 -0.9899
19963TIP3    H260772   9.972   9.965   5.881 -0.5882 -0.6657  0.1252
19964TIP3   OH260773   0.583  10.609   2.169  0.3765  0.1450 -0.0363
19964TIP3    H160774   0.521  10.672   2.132  1.0720  0.2192 -1.1070
19964TIP3    H260775   0.652  10.664   2.207  0.7520  0.0346 -0.5597
19965TIP3   OH260776   7.299   7.443   9.946  0.5323  0.4233  0.2921
19965TIP3    H160777   7.316   7.353   9.974  0.1992  0.1229 -0.4429
19965TIP3    H260778   7.366   7.495   9.990  0.6384 -0.1650  0.8370
19966TIP3   OH260779  10.551   6.890  10.697  0.8949  0.2249 -0.4127
19966TIP3    H160780  10.500   6.836  10.758 -0.4399  0.3308 -1.3632
19966TIP3    H260781  10.517   6.978  10.709  1.3629  0.4274 -0.5643
19967TIP3   OH260782   8.171   7.870   6.962  0.4948 -0.2369  0.7965
19967TIP3    H160783   8.130   7.907   6.884  1.1297 -2.8205 -0.8651
19967TIP3    H260784   8.241   7.814   6.929  0.9628 -1.2304  3.2323
19968TIP3   OH260785   9.153   5.649   6.206 -0.5567 -0.0393 -0.5347
19968TIP3    H160786   9.087   5.714   6.228 -0.2387 -0.1107  0.6764
19968TIP3    H260787   9.106   5.566   6.202 -0.1921 -0.5285  2.8986
19969TIP3   OH260788   0.686   9.098   1.787 -0.7507 -0.5270 -0.3705
19969TIP3    H160789   0.616   9.035   1.769 -0.3747 -0.7230 -1.1734
19969TIP3    H260790   0.767   9.052   1.767 -0.3372 -0.4672  1.0410
19970TIP3   OH260791   1.014  10.610   9.610  0.1662  0.0414 -0.3997
19970TIP3    H160792   0.937  10.583   9.660 -0.6275 -0.3935 -1.7925
19970TIP3    H260793   0.979  10.633   9.524  1.4822  0.8032 -0.7487
19971TIP3   OH260794   9.792  10.099   1.932  0.3125  0.1890  0.4857
19971TIP3    H160795   9.723  10.071   1.872  1.1019 -0.9866  0.0812
19971TIP3    H260796   9.829  10.176   1.890  0.0859  0.0644  0.0396
19972TIP3   OH260797   1.925   6.150   2.091  0.5572  0.4993  0.0640
19972TIP3    H160798   1.962   6.238   2.080  1.4433  0.1908  0.5302
19972TIP3    H260799   1.993   6.091   2.061  0.4362 -0.0746  0.8766
19973TIP3   OH260800   6.305   8.912   4.378 -0.1256 -0.2614 -0.4074
19973TIP3    H160801   6.290   8.903   4.473 -0.3810  0.3776 -0.3827
19973TIP3    H260802   6.324   9.005   4.365  1.0532 -0.5382 -0.8387
19974TIP3   OH260803   2.125   4.368   3.553  0.4184  0.1546 -0.0055
19974TIP3    H160804   2.145   4.307   3.482 -0.8491  0.0781 -0.3214
19974TIP3    H260805   2.197   4.432   3.551  0.4855  0.0681 -1.2610
19975TIP3   OH260806  10.235   7.066  10.397  0.1790 -0.2547 -0.0312
19975TIP3    H160807  10.282   7.134  10.445  1.2829 -0.7187 -0.4087
19975TIP3    H260808  10.304   7.008  10.365 -0.6741 -1.0153 -0.5335
19976TIP3   OH260809   2.875   6.548   2.888  0.2109  0.4234 -0.2792
19976TIP3    H160810   2.784   6.558   2.916  0.3276  0.2734  0.1619
19976TIP3    H260811   2.883   6.605   2.811  0.3396  2.2568  1.0402
19977TIP3   OH260812   2.461   1.956   5.729 -0.4071  0.0620  0.3125
19977TIP3    H160813   2.543   1.992   5.764 -0.4049 -1.8306  2.4715
19977TIP3    H260814   2.392   2.000   5.778 -0.5301 -0.6136  0.7584
19978TIP3   OH260815   4.395   6.491   2.761 -0.7715  0.9855 -0.6855
19978TIP3    H160816   4.323   6.451   2.712 -0.1765  1.3662 -1.9257
19978TIP3    H260817   4.354   6.561   2.811 -1.3213  0.9609 -1.0890
19979TIP3   OH260818   7.012   1.220   3.804 -0.5008  0.0537 -0.1284
19979TIP3    H160819   7.064   1.294   3.772 -1.1055  0.4358 -0.2554
19979TIP3    H260820   6.941   1.212   3.741 -0.8794 -0.1336  0.3137
19980TIP3   OH260821   7.909   4.038   7.221 -0.6334  0.2521 -0.3924
19980TIP3    H160822   7.878   4.039   7.130 -0.1299 -0.1533 -0.5750
19980TIP3    H260823   7.833   4.009   7.272 -0.4891 -0.9929 -0.8642
19981TIP3   OH260824   3.722   1.435   0.692 -0.7400  0.1828  0.6697
19981TIP3    H160825   3.632   1.458   0.716 -0.3310  1.7235  0.8292
19981TIP3    H260826   3.752   1.379   0.763 -1.4633 -0.0715  0.7833
19982TIP3   OH260827   1.293   4.833   1.394  0.7483 -0.0603  0.1026
19982TIP3    H160828   1.319   4.903   1.333 -0.0624 -1.5173 -2.0154
19982TIP3    H260829   1.206   4.858   1.424 -0.3973 -1.0245 -2.1841
19983TIP3   OH260830   3.000   8.327   9.887  0.2101  0.5550 -0.3479
19983TIP3    H160831   2.954   8.377   9.820  0.2791  1.0967 -0.0092
19983TIP3    H260832   2.958   8.241   9.888 -0.1099  0.7061 -0.7457
19984TIP3   OH260833   8.089   6.868   8.420  0.0381 -1.0502  0.1831
19984TIP3    H160834   8.069   6.847   8.329 -0.4238 -0.6998  0.2001
19984TIP3    H260835   8.167   6.817   8.440  0.1694 -1.0920 -0.4250
19985TIP3   OH260836  10.072   0.358   2.056  0.4318  0.1681  0.8220
19985TIP3    H160837  10.059   0.314   2.140 -0.4941 -0.3920  0.3999
19985TIP3    H260838   9.984   0.378   2.025  0.7429  0.0464 -0.1888
19986TIP3   OH260839   0.113   9.717   6.104 -0.0808 -0.2059  0.3922
19986TIP3    H160840   0.183   9.681   6.159 -0.5974 -1.3581  0.3374
19986TIP3    H260841   0.113   9.661   6.026  0.2165  1.0058 -0.5107
19987TIP3   OH260842   6.960   5.746   6.908  0.4716 -0.1123 -0.2652
19987TIP3    H160843   7.022   5.790   6.849 -0.4577  0.6273 -0.7110
19987TIP3    H260844   6.879   5.796   6.900 -0.3546 -1.3680 -0.0795
19988TIP3   OH260845   2.880   0.996   5.187 -0.4672 -0.0210 -0.0109
19988TIP3    H160846   2.821   0.951   5.249 -1.5021  0.1531 -0.8531
19988TIP3    H260847   2.932   1.054   5.243  0.0910 -1.3776  0.9612
19989TIP3   OH260848   5.065   7.001   0.337 -0.2926  0.4720  0.2819
19989TIP3    H160849   5.083   6.908   0.343  0.7436  0.6373 -0.1308
19989TIP3    H260850   4.970   7.006   0.321  0.0132 -0.6300 -2.4484
19990TIP3   OH260851   4.137   2.308   5.293  0.2768 -0.3661 -0.0544
19990TIP3    H160852   4.164   2.392   5.257 -1.1700  0.5794  0.9270
19990TIP3    H260853   4.174   2.243   5.234 -0.2076  1.0259 -1.9994
19991TIP3   OH260854   3.643   7.246   3.580  0.3254  0.6646 -0.2501
19991TIP3    H160855   3.595   7.314   3.533  0.2694 -0.3602 -1.7415
19991TIP3    H260856   3.629   7.167   3.528  2.0559 -0.0619  0.3346
19992TIP3   OH260857   4.373   4.184   3.689 -0.0956  0.1117  0.4499
19992TIP3    H160858   4.340   4.115   3.632 -1.7606 -0.2352  1.7575
19992TIP3    H260859   4.436   4.140   3.746  0.8742  0.2672 -0.4769
19993TIP3   OH260860   2.257   4.701   0.848 -0.0089 -0.0739  0.7335
19993TIP3    H160861   2.298   4.622   0.813  1.8939  0.0471  2.5132
19993TIP3    H260862   2.177   4.711   0.797 -0.1147 -2.9156  0.2096
19994TIP3   OH260863   5.790   2.360   9.978  0.1665  0.1641 -0.1097
19994TIP3    H160864   5.794   2.371   9.883 -1.7716  0.0430 -0.2444
19994TIP3    H260865   5.743   2.277   9.990  0.9936 -0.1669  0.9659
19995TIP3   OH260866  10.420   6.925   7.709  0.8114  0.0431 -0.3758
19995TIP3    H160867  10.419   6.830   7.717  1.0381 -0.0258 -1.0562
19995TIP3    H260868  10.499   6.943   7.658  0.6678  0.5783 -0.4137
19996TIP3   OH260869   4.179   8.811   3.961 -0.4601 -0.1125  0.4599
19996TIP3    H160870   4.148   8.856   3.883  1.7340  0.4778 -0.1480
19996TIP3    H260871   4.197   8.722   3.931  1.1608  0.3297  0.0405
19997TIP3   OH260872   3.942   9.480   4.872  0.4837  0.5829  0.2070
19997TIP3    H160873   3.958   9.483   4.778  1.4992  0.6797  0.3646
19997TIP3    H260874   3.974   9.564   4.905 -3.3050  2.2089  0.2042
19998TIP3   OH260875   7.453   1.564   1.354 -0.2832 -0.5891  0.4568
19998TIP3    H160876   7.380   1.551   1.413 -0.2793 -0.8714  0.3993
19998TIP3    H260877   7.473   1.477   1.320 -0.6936 -0.3441 -0.4427
19999TIP3   OH260878   1.553   7.353   3.593 -0.7028 -0.3613 -0.1613
19999TIP3    H160879   1.459   7.341   3.576 -0.5218 -1.0153 -0.7127
19999TIP3    H260880   1.566   7.313   3.679 -1.2340  1.2265  0.7210
20000TIP3   OH260881   3.082   4.594   1.920 -0.3997  0.0104 -0.1138
20000TIP3    H160882   3.072   4.671   1.864 -0.0950  0.4654  0.4531
20000TIP3    H260883   3.167   4.558   1.894  0.2029  0.7844  0.7253
20001TIP3   OH260884   2.054   7.401   7.560  0.4522  0.2103 -0.3596
20001TIP3    H160885   2.122   7.388   7.627  0.5853  0.1591 -0.5030
20001TIP3    H260886   2.013   7.314   7.551 -1.5170  0.8151  1.7271
20002TIP3   OH260887   8.863   6.995   1.950 -0.1836  0.0391  0.4481
20002TIP3    H160888   8.882   6.930   1.882 -0.0146 -0.1258  0.6544
20002TIP3    H260889   8.772   6.977   1.975 -0.2493  0.1047  0.2630
20003TIP3   OH260890  10.907   0.735   0.789  0.4247  0.1707 -0.1681
20003TIP3    H160891  10.853   0.656   0.796 -0.1713  0.4175 -1.6299
20003TIP3    H260892  10.942   0.748   0.877  0.0220 -1.3579  0.2446
20004TIP3   OH260893   7.561   1.742   7.836 -1.0393 -0.0551 -0.2344
20004TIP3    H160894   7.597   1.731   7.924  1.0113 -0.3111 -1.0274
20004TIP3    H260895   7.543   1.835   7.828  1.8016  0.5748 -0.5296
20005TIP3   OH260896   8.497   1.516   1.546 -0.2232  0.9832 -0.1534
20005TIP3    H160897   8.402   1.516   1.554 -0.3001 -2.1990  0.1149
20005TIP3    H260898   8.516   1.463   1.469  1.3417 -0.2245  0.9906
20006TIP3   OH260899   2.804  10.810   4.083  0.1733 -0.1523  0.8130
20006TIP3    H160900   2.805  10.900   4.115  0.1137  0.3724 -0.6028
20006TIP3    H260901   2.711  10.784   4.087 -0.0113  0.3395 -0.0552
20007TIP3   OH260902   0.482   5.035   0.658  0.5787  0.5607  0.3041
20007TIP3    H160903   0.410   4.979   0.631  0.9378  0.6802 -0.9467
20007TIP3    H260904   0.514   4.996   0.739  0.4014 -0.6707 -0.2015
20008TIP3   OH260905   8.047   2.748   3.749 -0.2125  0.2239  0.1524
20008TIP3    H160906   8.117   2.712   3.803 -0.1951  0.1314  0.0685
20008TIP3    H260907   8.070   2.724   3.660  0.2363  1.1653  0.0042
20009TIP3   OH260908   3.017   4.958  10.589  0.1598  0.1109  0.5460
20009TIP3    H160909   3.027   5.015  10.513  0.3919 -1.2368 -0.4670
20009TIP3    H260910   2.926   4.971  10.617 -0.2661 -0.1877 -0.6544
20010TIP3   OH260911   4.010   0.395   0.828  0.5553 -0.1335 -0.1215
20010TIP3    H160912   3.963   0.390   0.745  2.5763 -1.3063 -1.2686
20010TIP3    H260913   4.054   0.480   0.825  2.4198 -1.0900 -1.3310
20011TIP3   OH260914   0.487   0.487   0.048 -0.6020  0.0153  0.3315
20011TIP3    H160915   0.394   0.503   0.034 -0.6253 -0.0648  0.3927
20011TIP3    H260916   0.529   0.571   0.029 -0.7226  0.1494  0.6494
20012TIP3   OH260917   6.153   9.535   6.238  0.1874 -0.5390 -0.0344
20012TIP3    H160918   6.116   9.595   6.303 -0.3954 -0.4031 -0.4870
20012TIP3    H260919   6.109   9.451   6.256  0.2472 -0.5773 -0.0652
20013TIP3   OH260920   4.832   0.508   4.244  0.6515 -0.0799  0.4174
20013TIP3    H160921   4.755   0.564   4.256  0.4371 -0.2439 -0.1807
20013TIP3    H260922   4.859   0.485   4.333 -0.1803 -0.2823  0.6198
20014TIP3   OH260923   8.647   2.655   6.427 -0.1715 -0.0326  0.0018
20014TIP3    H160924   8.677   2.565   6.420 -0.1623  0.0239 -0.7538
20014TIP3    H260925   8.705   2.695   6.492  1.6810  0.1703 -1.6799
20015TIP3   OH260926   3.823   6.181   1.100  0.3796 -0.1096 -0.4581
20015TIP3    H160927   3.805   6.213   1.188  2.0342 -0.0301 -0.1027
20015TIP3    H260928   3.779   6.243   1.042 -1.2440 -0.5140  0.2991
20016TIP3   OH260929   3.201   8.410   6.722 -0.0463  0.7092 -0.2516
20016TIP3    H160930   3.247   8.489   6.694  1.9809 -0.6999 -1.1031
20016TIP3    H260931   3.268   8.355   6.762 -1.3620 -0.6824  0.1644
20017TIP3   OH260932   8.873   6.958   7.359  0.2701  0.1648  0.2904
20017TIP3    H160933   8.811   6.999   7.420  0.2532  0.4315  0.1005
20017TIP3    H260934   8.940   7.025   7.344  0.1807  0.1688 -0.1147
20018TIP3   OH260935   5.748   7.808   4.720 -0.3757  0.3591 -0.0242
20018TIP3    H160936   5.692   7.768   4.785 -0.9164  0.2664 -0.5367
20018TIP3    H260937   5.835   7.772   4.737 -0.5039  0.3721  0.6634
20019TIP3   OH260938   7.192   6.065   2.699 -0.1769 -0.2280 -0.1195
20019TIP3    H160939   7.262   6.018   2.653  0.2138  0.0100  0.2272
20019TIP3    H260940   7.237   6.120   2.762 -0.7101 -0.6149  0.6167
20020TIP3   OH260941   8.422   3.304   8.411 -0.0953 -0.2589 -0.5387
20020TIP3    H160942   8.441   3.391   8.444 -1.2155 -0.6644  1.3085
20020TIP3    H260943   8.507   3.270   8.382  0.3264  1.4587 -1.4239
20021TIP3   OH260944   4.693   7.314   3.464 -0.0424  0.5291  0.0298
20021TIP3    H160945   4.607   7.273   3.454 -0.2596  0.7940  0.6913
20021TIP3    H260946   4.751   7.265   3.406 -0.5335  0.0081 -0.0268
20022TIP3   OH260947   1.402   9.367   3.369  0.6025 -0.3731 -0.7093
20022TIP3    H160948   1.403   9.299   3.437  0.5062  0.2601 -0.0621
20022TIP3    H260949   1.311   9.393   3.362  0.7951  0.4850 -0.1388
20023TIP3   OH260950   6.326   5.185   3.265  0.2576  0.4040 -0.2814
20023TIP3    H160951   6.246   5.141   3.292  1.3844 -0.8388  1.2477
20023TIP3    H260952   6.319   5.194   3.170 -0.7645 -1.5836 -0.4253
20024TIP3   OH260953  10.411   8.272   7.106  0.1888 -0.1151 -0.2942
20024TIP3    H160954  10.456   8.192   7.130  0.9762 -0.2799 -2.1783
20024TIP3    H260955  10.355   8.248   7.033  1.5392  1.3071 -1.8805
20025TIP3   OH260956   6.333   1.793   0.674  0.5867  0.0302 -0.4311
20025TIP3    H160957   6.285   1.843   0.608 -0.4452 -0.8879 -0.3947
20025TIP3    H260958   6.412   1.764   0.629  0.1265 -0.1684 -1.1195
20026TIP3   OH260959   7.426   1.615   4.620  0.3094  0.3520 -0.2238
20026TIP3    H160960   7.412   1.674   4.694 -2.5719 -3.5168  2.7095
20026TIP3    H260961   7.355   1.636   4.559  0.0735  0.6805  0.1597
20027TIP3   OH260962   7.231   5.453   1.026 -0.1659 -0.2300 -0.4874
20027TIP3    H160963   7.246   5.528   1.084 -0.6579 -0.6368  0.1708
20027TIP3    H260964   7.318   5.425   0.999  0.0776 -0.2127  0.2807
20028TIP3   OH260965   4.757   4.508  10.752 -0.0128 -0.0228  0.0464
20028TIP3    H160966   4.757   4.478  10.843 -0.5922  0.6449  0.2716
20028TIP3    H260967   4.832   4.464  10.713  0.7889  0.3775  1.0805
20029TIP3   OH260968   5.904   1.340   6.959 -0.3842 -0.5125 -0.4226
20029TIP3    H160969   5.936   1.424   6.926 -1.0488 -0.4262 -0.8540
20029TIP3    H260970   5.876   1.293   6.881 -0.2766 -1.0278 -0.1531
20030TIP3   OH260971   4.010   9.958   2.816 -0.5033  0.1572  0.6571
20030TIP3    H160972   4.018   9.871   2.776 -0.6879  0.6764 -0.5587
20030TIP3    H260973   3.935   9.998   2.772 -0.8296  0.6866  1.6814
20031TIP3   OH260974   4.410   0.250   3.056 -0.5670 -0.2376  0.0582
20031TIP3    H160975   4.440   0.321   3.000  0.5377 -0.5527  0.2233
20031TIP3    H260976   4.370   0.294   3.131  0.1618  0.2134  0.1913
20032TIP3   OH260977   3.541   9.098   9.095 -0.4175 -0.1247  0.0040
20032TIP3    H160978   3.610   9.037   9.123  0.1192  0.2807 -0.3937
20032TIP3    H260979   3.504   9.058   9.016 -0.8822 -0.5211  0.4263
20033TIP3   OH260980   9.306   7.234   7.605 -0.2664 -0.1569  0.5836
20033TIP3    H160981   9.218   7.217   7.637 -0.6820  0.8937  0.0560
20033TIP3    H260982   9.363   7.222   7.681 -1.3201  3.3065  2.1108
20034TIP3   OH260983   7.943   2.228   9.230  0.2518 -0.0819  0.0405
20034TIP3    H160984   7.946   2.153   9.290 -0.1324  1.0198  1.4988
20034TIP3    H260985   7.897   2.195   9.153 -1.4302 -0.9308  1.3323
20035TIP3   OH260986   4.849   9.326   5.955  0.0130 -0.0860 -0.0894
20035TIP3    H160987   4.843   9.341   5.861  0.3386 -0.0018 -0.0981
20035TIP3    H260988   4.801   9.244   5.970 -0.6528  0.2755 -0.2268
20036TIP3   OH260989   9.848   5.660   4.627  0.2700 -0.4490 -0.6353
20036TIP3    H160990   9.937   5.669   4.592  0.7217 -1.7401  0.1157
20036TIP3    H260991   9.808   5.591   4.574  1.2707 -3.1038  1.7924
20037TIP3   OH260992   9.058   2.266   0.954 -0.1902 -0.4050 -0.5873
20037TIP3    H160993   9.147   2.233   0.957 -0.8734 -2.3256  1.8555
20037TIP3    H260994   9.064   2.356   0.985  0.9057 -0.4169 -0.7259
20038TIP3   OH260995   3.374   4.294   0.087  0.1715 -0.0919  0.4839
20038TIP3    H160996   3.379   4.386   0.113  1.7213 -0.7964  3.1083
20038TIP3    H260997   3.388   4.295  -0.008 -0.2830  2.3685  0.3737
20039TIP3   OH260998   7.820  10.639   8.400 -0.1899  0.3250 -0.1029
20039TIP3    H160999   7.742  10.601   8.439 -0.1635  0.5953  0.2199
20039TIP3    H261000   7.823  10.728   8.434  0.7835  0.0179  0.6714
20040TIP3   OH261001   2.961   4.535  10.239 -0.0399 -0.4735 -0.0257
20040TIP3    H161002   2.918   4.450  10.243  0.7157 -0.8794 -0.3682
20040TIP3    H261003   3.026   4.532  10.309 -2.1422  1.0625  2.1776
20041TIP3   OH261004   8.954   6.403   5.851  0.1070  0.0720  0.3328
20041TIP3    H161005   9.026   6.369   5.906  0.7361 -0.6358 -0.8957
20041TIP3    H261006   8.941   6.336   5.785  2.1568  2.5603 -2.9049
20042TIP3   OH261007   9.478   3.139   8.739  0.7259 -0.4914  1.2275
20042TIP3    H161008   9.465   3.125   8.833  0.3576 -0.0005  1.2518
20042TIP3    H261009   9.471   3.234   8.728  0.6095 -0.5630  0.6807
20043TIP3   OH261010   0.400   2.803   8.424  0.5099  0.3307 -0.1002
20043TIP3    H161011   0.438   2.886   8.450  0.2490  0.0428  1.2540
20043TIP3    H261012   0.312   2.826   8.393 -0.3038  0.3757  2.1016
20044TIP3   OH261013   3.734   0.635   3.524  0.0327 -0.2887 -0.1281
20044TIP3    H161014   3.764   0.551   3.489  1.3552 -0.5824  1.5902
20044TIP3    H261015   3.721   0.619   3.618  0.9322  1.5769  0.3636
20045TIP3   OH261016   0.563   0.993   0.843  0.1470 -0.1286 -0.6645
20045TIP3    H161017   0.554   1.079   0.801  0.1708 -1.0819 -2.7769
20045TIP3    H261018   0.648   0.995   0.885  0.4170  0.6678 -1.2291
20046TIP3   OH261019   8.579   2.395   8.430  0.1027 -0.2818 -0.2912
20046TIP3    H161020   8.603   2.488   8.428 -1.2851  0.1481 -3.1689
20046TIP3    H261021   8.640   2.354   8.369 -1.1851 -0.6309 -1.3979
20047TIP3   OH261022   5.584   3.951   8.270 -0.2606 -0.1432  0.2431
20047TIP3    H161023   5.524   3.909   8.332  0.0306  0.2779  0.8190
20047TIP3    H261024   5.608   4.033   8.312 -1.5116  1.0387 -1.2381
20048TIP3   OH261025   3.010   6.160   3.875 -0.5205 -0.1173  0.2853
20048TIP3    H161026   2.993   6.125   3.962  0.7798  0.9659  1.0054
20048TIP3    H261027   3.103   6.144   3.860 -0.6991 -0.1696 -0.8644
20049TIP3   OH261028   5.389   7.592   8.420  0.3964 -0.9675  0.2658
20049TIP3    H161029   5.391   7.498   8.438  2.1716 -0.8753  0.8036
20049TIP3    H261030   5.434   7.631   8.495  1.2924  0.1283 -0.8176
20050TIP3   OH261031   1.241   9.489   6.459  0.7920  0.7453  0.2664
20050TIP3    H161032   1.320   9.518   6.414  1.5404  0.0891  1.1119
20050TIP3    H261033   1.272   9.424   6.522 -0.4593  0.2903  0.4428
20051TIP3   OH261034   1.372   5.918   5.928 -0.2923  0.1911  0.5928
20051TIP3    H161035   1.465   5.908   5.948 -0.3679  1.2764  1.5536
20051TIP3    H261036   1.328   5.861   5.991 -0.3261  0.3950  0.7533
20052TIP3   OH261037   9.341   5.086   1.027  0.5011 -0.0738 -0.8178
20052TIP3    H161038   9.411   5.127   1.078  0.5955  0.4836 -1.3797
20052TIP3    H261039   9.262   5.135   1.051  0.7956  1.2306 -2.3205
20053TIP3   OH261040   8.114   8.202   3.765  0.1076 -0.6221  0.1656
20053TIP3    H161041   8.032   8.154   3.775  0.2376 -0.5498  1.8885
20053TIP3    H261042   8.166   8.177   3.842  1.2789  0.1545 -0.3413
20054TIP3   OH261043   1.475   0.491   3.090  0.3777 -0.0510  0.1480
20054TIP3    H161044   1.561   0.532   3.105  0.0816  0.8636 -0.5666
20054TIP3    H261045   1.427   0.555   3.038 -0.9665 -0.2910  1.0470
20055TIP3   OH261046   5.833  10.615   9.460 -0.2048  0.6897 -0.0993
20055TIP3    H161047   5.865  10.702   9.439 -0.5509  0.7080 -0.5658
20055TIP3    H261048   5.865  10.559   9.390 -1.7301  0.8359 -0.9651
20056TIP3   OH261049   9.252   4.259  10.556  0.0472 -0.1329 -0.2415
20056TIP3    H161050   9.203   4.180  10.579 -0.2635 -0.4793 -1.9142
20056TIP3    H261051   9.330   4.227  10.511  0.4060  0.4942 -0.0776
20057TIP3   OH261052   9.561   4.285  10.139  0.1621 -0.9740  0.6645
20057TIP3    H161053   9.556   4.259  10.231  0.0454 -0.0291  0.9342
20057TIP3    H261054   9.481   4.336  10.124  0.2270 -1.0415  0.0661
20058TIP3   OH261055   8.702   8.088   6.723 -0.3463 -0.6287 -0.3619
20058TIP3    H161056   8.768   8.090   6.654  0.2885  1.5024  0.2264
20058TIP3    H261057   8.750   8.110   6.803 -1.7867  1.7290 -0.0195
20059TIP3   OH261058   5.587   0.262   1.798 -0.7538 -0.1231 -0.3073
20059TIP3    H161059   5.600   0.167   1.790  0.9107 -0.1740  1.9570
20059TIP3    H261060   5.496   0.271   1.826 -0.6412 -1.1700  0.4787
20060TIP3   OH261061  10.284   5.742  10.713  0.4440 -0.3349 -0.4979
20060TIP3    H161062  10.357   5.774  10.659  1.4284 -0.5422  0.6697
20060TIP3    H261063  10.323   5.724  10.798 -0.6520 -1.9984 -0.2936
20061TIP3   OH261064   5.013   6.497   3.725  0.6560 -0.2109 -0.4360
20061TIP3    H161065   4.924   6.465   3.708 -0.0415  1.1534  0.5137
20061TIP3    H261066   5.021   6.497   3.820  1.1796  1.0024 -0.4661
20062TIP3   OH261067   6.929   3.766   9.820  0.2053  0.0384  0.5501
20062TIP3    H161068   6.962   3.855   9.808  1.3760 -0.4308  0.2077
20062TIP3    H261069   6.844   3.778   9.862 -0.4772  1.4100 -1.0849
20063TIP3   OH261070  10.423  10.434   6.581 -0.4283  0.4759  0.0617
20063TIP3    H161071  10.475  10.387   6.516 -1.6688  0.9976 -1.3879
20063TIP3    H261072  10.485  10.491   6.625  0.6114 -0.5464 -0.0286
20064TIP3   OH261073   6.201   3.050   9.624  0.1380 -0.2850 -0.1369
20064TIP3    H161074   6.171   2.970   9.582 -0.4728  0.3371 -0.9219
20064TIP3    H261075   6.214   3.112   9.552 -0.0195  0.5194  0.5059
20065TIP3   OH261076   6.805   3.036   0.842 -0.0191  0.3698  0.1743
20065TIP3    H161077   6.887   3.039   0.791  0.3798 -0.4938  0.7433
20065TIP3    H261078   6.826   2.982   0.918 -1.4152 -0.7472 -0.1986
20066TIP3   OH261079   8.381   2.552   2.280 -0.4646 -0.0688  0.4061
20066TIP3    H161080   8.361   2.462   2.306  2.4217 -0.8512  0.3063
20066TIP3    H261081   8.428   2.588   2.355  2.0227 -0.0924 -1.0288
20067TIP3   OH261082   8.941   5.583   9.248  0.6564 -0.7540 -0.3482
20067TIP3    H161083   8.911   5.500   9.209 -1.3963  0.3371 -1.2715
20067TIP3    H261084   8.946   5.565   9.341 -1.1712 -1.5747 -0.3579
20068TIP3   OH261085   0.997   5.153   2.394 -0.3593  0.1173  0.1714
20068TIP3    H161086   1.042   5.225   2.439 -0.7121  0.1361  0.5045
20068TIP3    H261087   0.911   5.189   2.372 -0.9602 -0.5452  1.3364
20069TIP3   OH261088   9.209   4.393   3.442  0.1127  0.1252 -0.0540
20069TIP3    H161089   9.199   4.424   3.531  1.5000  0.5127 -0.0046
20069TIP3    H261090   9.176   4.303   3.444 -1.1862  0.6032  0.4941
20070TIP3   OH261091   3.736   8.096   6.608 -0.2947  0.5478  0.2216
20070TIP3    H161092   3.808   8.034   6.622 -1.1547 -0.0820  2.3151
20070TIP3    H261093   3.718   8.090   6.514  1.3202 -0.4581 -0.0817
20071TIP3   OH261094   8.527   8.592   3.221 -0.2939  0.4766  0.3271
20071TIP3    H161095   8.598   8.651   3.197 -0.3943  1.0154  1.3163
20071TIP3    H261096   8.540   8.515   3.164  2.4700 -0.4427  1.9922
20072TIP3   OH261097   5.008   3.243   2.890 -0.1107  0.1116 -0.0090
20072TIP3    H161098   5.101   3.257   2.874 -0.2436  0.3433 -0.5692
20072TIP3    H261099   4.970   3.331   2.897 -0.5248  0.0419 -1.1623
20073TIP3   OH261100   3.403   6.718   0.411  0.2141 -0.4622  0.8671
20073TIP3    H161101   3.308   6.728   0.413  0.1849 -0.7247  0.7684
20073TIP3    H261102   3.418   6.623   0.411  0.4747 -0.4229  0.8600
20074TIP3   OH261103   9.128   4.290  10.866  0.5495 -0.7406  0.1225
20074TIP3    H161104   9.058   4.299  10.930 -0.5431 -0.9241 -1.0073
20074TIP3    H261105   9.159   4.379  10.851 -2.7307  0.1121 -2.8648
20075TIP3   OH261106   9.696   9.961   3.593 -0.1281 -0.6695  0.1164
20075TIP3    H161107   9.781   9.998   3.571  0.0893 -0.6014  1.0308
20075TIP3    H261108   9.705   9.934   3.685 -0.5581 -2.1918 -0.2748
20076TIP3   OH261109   6.332   9.638   4.170  0.5035 -0.3716 -0.5931
20076TIP3    H161110   6.405   9.664   4.225 -0.0371  0.0267 -0.0409
20076TIP3    H261111   6.278   9.717   4.164 -1.3858 -1.4025  1.4298
20077TIP3   OH261112   4.466   5.646   0.239  0.7849  0.5153  0.0362
20077TIP3    H161113   4.445   5.555   0.258  1.3750  0.1710 -0.8752
20077TIP3    H261114   4.450   5.655   0.145  1.7420  1.0523 -0.0911
20078TIP3   OH261115   4.386   0.752   7.464  0.2857  0.0931 -0.2084
20078TIP3    H161116   4.296   0.722   7.464  0.3843 -0.2969 -1.7604
20078TIP3    H261117   4.396   0.800   7.546 -1.4952  0.6313 -0.2689
20079TIP3   OH261118   2.952  10.902   1.691  0.4961  0.3807  0.2821
20079TIP3    H161119   3.037  10.933   1.721  1.5074 -0.3744 -1.6387
20079TIP3    H261120   2.967  10.810   1.667 -1.0725 -0.0135  0.6921
20080TIP3   OH261121   9.096   1.261   8.225  0.2416 -0.1638 -0.1838
20080TIP3    H161122   9.013   1.271   8.178 -0.0116 -0.3098  0.2188
20080TIP3    H261123   9.072   1.215   8.305  1.0199 -1.9779 -0.9538
20081TIP3   OH261124   6.021   5.648   3.577 -0.0416  0.0414  0.3930
20081TIP3    H161125   6.038   5.689   3.662  1.2692  1.3877 -0.4585
20081TIP3    H261126   5.939   5.688   3.547 -0.9053 -0.9772  1.2971
20082TIP3   OH261127   6.751   3.749   4.095  0.3776 -0.4304 -0.0874
20082TIP3    H161128   6.742   3.706   4.010  0.7161  0.2603 -0.4852
20082TIP3    H261129   6.704   3.692   4.156 -0.6902 -0.4483 -0.8967
20083TIP3   OH261130   0.728   6.468   4.206  0.0753 -0.0152  0.3073
20083TIP3    H161131   0.690   6.451   4.120  1.0194  0.9485 -0.3276
20083TIP3    H261132   0.652   6.480   4.264 -0.5689 -1.3938 -0.2102
20084TIP3   OH261133   1.681   2.103  10.675  0.3611  0.8978 -0.1459
20084TIP3    H161134   1.753   2.044  10.656 -0.3094 -0.2111  0.6807
20084TIP3    H261135   1.686   2.119  10.769 -0.4853  0.7592 -0.0659
20085TIP3   OH261136   1.841   8.902   6.899 -0.1060 -0.2141  0.1035
20085TIP3    H161137   1.849   8.991   6.935  1.8813 -0.4939  0.4667
20085TIP3    H261138   1.782   8.912   6.824  0.5371  1.5386 -0.2265
20086TIP3   OH261139   8.049   7.424   3.882 -0.1701  0.3176 -0.4752
20086TIP3    H161140   8.123   7.463   3.929 -0.1867 -0.0939 -0.1006
20086TIP3    H261141   8.090   7.369   3.816 -0.1330 -0.2384  0.0039
20087TIP3   OH261142   5.514   8.025   7.308  0.3356  0.6106  0.1250
20087TIP3    H161143   5.585   8.043   7.246  0.9217 -4.6732 -1.2560
20087TIP3    H261144   5.435   8.021   7.254  0.4574 -1.6055  0.0145
20088TIP3   OH261145   3.856   8.619   1.341 -0.1909 -0.2088 -0.1437
20088TIP3    H161146   3.898   8.699   1.310  1.8094 -0.9265  0.5941
20088TIP3    H261147   3.921   8.577   1.397 -1.1926 -2.3258 -0.4554
20089TIP3   OH261148   8.869   6.802   4.734 -0.3051 -0.2268 -0.3561
20089TIP3    H161149   8.822   6.791   4.817 -2.2495  1.3079 -1.1673
20089TIP3    H261150   8.900   6.715   4.712  0.1249 -0.6975  1.8895
20090TIP3   OH261151   4.143   3.551   7.332 -0.4805  0.3612 -0.2395
20090TIP3    H161152   4.139   3.493   7.256  1.5257 -0.6741  0.4014
20090TIP3    H261153   4.216   3.519   7.384  0.0155  2.8060  0.7089
20091TIP3   OH261154  10.394   6.396   2.595 -0.0769  0.1072  0.0938
20091TIP3    H161155  10.375   6.393   2.501  1.3581  0.1427 -0.2301
20091TIP3    H261156  10.338   6.466   2.628 -1.6224 -0.8237 -0.4545
20092TIP3   OH261157   8.114   5.499   6.093 -0.6000  0.3024  0.4200
20092TIP3    H161158   8.079   5.587   6.079  1.2009  0.7615 -1.8442
20092TIP3    H261159   8.065   5.444   6.032 -0.4893  0.0949  0.5188
20093TIP3   OH261160   7.439   0.080   2.794 -0.0079 -0.1335  0.0327
20093TIP3    H161161   7.390   0.029   2.858 -1.2551 -0.4080 -1.0809
20093TIP3    H261162   7.507   0.020   2.762  0.8056  0.0983  1.2540
20094TIP3   OH261163   9.293   9.354   8.991 -0.5264 -0.2895  0.1945
20094TIP3    H161164   9.315   9.300   9.067 -0.1623 -1.5232 -0.7501
20094TIP3    H261165   9.374   9.358   8.940 -0.0445  2.4976  0.9626
20095TIP3   OH261166   1.073   0.603   5.341  0.2659 -0.4377 -0.7892
20095TIP3    H161167   1.006   0.537   5.358  0.2890 -0.5394 -1.0941
20095TIP3    H261168   1.084   0.647   5.425 -0.5493 -0.0760 -0.8603
20096TIP3   OH261169   8.003   3.403   3.193  0.2246 -0.2163 -0.0919
20096TIP3    H161170   7.981   3.311   3.206 -0.1337  0.0908  1.7660
20096TIP3    H261171   7.923   3.451   3.215  1.2298  0.6573  1.9628
20097TIP3   OH261172   3.937   9.350   7.062 -0.7174 -0.3107  0.6780
20097TIP3    H161173   4.002   9.325   7.127 -0.6149 -0.7536  0.4079
20097TIP3    H261174   3.875   9.278   7.060  0.3841 -1.2960 -1.1637
20098TIP3   OH261175   7.714   0.785   8.844  0.2274  0.0671  0.3387
20098TIP3    H161176   7.720   0.725   8.770 -0.2248  1.1328 -0.5980
20098TIP3    H261177   7.742   0.734   8.920  0.9650 -0.9745 -0.6118
20099TIP3   OH261178   9.830   0.452   1.982 -0.0807  0.7153 -0.2985
20099TIP3    H161179   9.855   0.544   1.979 -2.3375  1.3858 -0.2344
20099TIP3    H261180   9.814   0.428   1.891 -1.9516  1.1893 -0.1525
20100TIP3   OH261181   4.007   6.952   2.079  0.1970 -0.6643  0.0137
20100TIP3    H161182   4.082   6.953   2.139  0.2484 -2.0159 -0.0096
20100TIP3    H261183   4.043   6.984   1.996  0.7073 -1.1352  0.0492
20101TIP3   OH261184   2.070   2.992   2.974  0.4808 -0.1498  0.2506
20101TIP3    H161185   2.108   3.025   3.056  1.2024  0.4229 -0.3029
20101TIP3    H261186   2.128   2.921   2.948  0.1114 -0.4916  0.3649
20102TIP3   OH261187   0.406   3.365   1.881  0.3322  0.3378 -0.6814
20102TIP3    H161188   0.320   3.325   1.891 -0.1460  1.5010  0.0923
20102TIP3    H261189   0.393   3.437   1.820  0.7684  0.4628 -0.6358
20103TIP3   OH261190   0.871   9.573   4.834 -0.0029 -0.1876  0.3685
20103TIP3    H161191   0.873   9.490   4.787 -2.5394 -0.6788  0.9697
20103TIP3    H261192   0.886   9.550   4.926  1.5866  0.3512  0.2767
20104TIP3   OH261193   2.536   4.838   6.087  0.0688  0.8049 -0.2679
20104TIP3    H161194   2.484   4.771   6.133  0.6601 -0.4735 -1.3978
20104TIP3    H261195   2.584   4.882   6.156 -0.4978  0.2069  0.5341
20105TIP3   OH261196  10.350  10.188   9.069  0.1733  0.1020  0.0128
20105TIP3    H161197  10.380  10.278   9.065  1.2725 -0.1280  1.9656
20105TIP3    H261198  10.426  10.138   9.098 -0.8303 -1.2088  0.5249
20106TIP3   OH261199   2.581   1.956   4.180  0.0612  0.0663  0.0550
20106TIP3    H161200   2.531   2.009   4.118 -0.7570  0.7067  1.2112
20106TIP3    H261201   2.663   1.937   4.135 -0.6789  0.1148 -1.3860
20107TIP3   OH261202   0.959   2.446   4.405  0.4617  0.2901  0.8326
20107TIP3    H161203   1.053   2.457   4.391  0.4290  0.7467  0.9326
20107TIP3    H261204   0.924   2.536   4.404  0.2449  0.2603  2.3053
20108TIP3   OH261205   2.255   2.142   0.219  0.2043 -0.0803 -0.0922
20108TIP3    H161206   2.238   2.181   0.305  2.5565  0.0852  0.3662
20108TIP3    H261207   2.213   2.056   0.222 -0.9496  0.4816  0.6539
20109TIP3   OH261208  10.016   4.682   8.268  0.5188 -0.1352 -0.0681
20109TIP3    H161209  10.039   4.658   8.178  1.0063 -0.8157  0.2264
20109TIP3    H261210  10.051   4.610   8.321  0.2209  0.2531  0.6642
20110TIP3   OH261211   5.618   8.369   6.216  0.3371 -0.0221  0.2521
20110TIP3    H161212   5.525   8.381   6.230  0.4966  0.5287  0.8576
20110TIP3    H261213   5.654   8.457   6.210  1.1029 -0.1706  1.9840
20111TIP3   OH261214   1.911   1.003   2.236 -0.2577  0.2083 -0.3388
20111TIP3    H161215   1.863   0.955   2.168  0.9875 -2.0474  0.2839
20111TIP3    H261216   2.002   0.975   2.225  0.4538  2.0523  0.4350
20112TIP3   OH261217   0.278   7.563   2.882 -0.5611  0.6202 -0.6389
20112TIP3    H161218   0.311   7.651   2.900  1.6535 -0.3687  0.4836
20112TIP3    H261219   0.258   7.527   2.969  0.2338 -0.5600 -0.9209
20113TIP3   OH261220   3.599   3.032   4.815  0.4095 -0.1519  0.4287
20113TIP3    H161221   3.685   2.993   4.825 -0.4257 -1.6144  2.6867
20113TIP3    H261222   3.582   3.076   4.899 -1.1470 -0.1748  0.1674
20114TIP3   OH261223  10.528   4.041   3.876 -0.5090  0.6130 -0.0979
20114TIP3    H161224  10.478   3.964   3.851  0.3132 -0.4751  1.4308
20114TIP3    H261225  10.466   4.096   3.924 -0.5461 -0.2241  0.8495
20115TIP3   OH261226   2.426   3.890  10.897  0.2050 -0.3911  0.5463
20115TIP3    H161227   2.368   3.819  10.924  2.9691 -3.0932 -0.0337
20115TIP3    H261228   2.449   3.870  10.807 -1.4031  3.1690 -0.8551
20116TIP3   OH261229   7.455   7.526   6.043 -0.7201 -0.1435 -0.2482
20116TIP3    H161230   7.456   7.619   6.065  1.0199 -0.5215  1.4737
20116TIP3    H261231   7.450   7.525   5.947  0.8687  1.7767 -0.4165
20117TIP3   OH261232   6.975   4.508  10.759  0.5638  0.3041  0.5091
20117TIP3    H161233   7.037   4.515  10.832  1.0495  1.4805  0.0014
20117TIP3    H261234   6.993   4.422  10.720  1.9909  0.7038  0.2635
20118TIP3   OH261235   0.948   8.862   3.585  0.3959 -0.6696  0.1368
20118TIP3    H161236   0.934   8.957   3.590  1.7623 -0.4465  0.2543
20118TIP3    H261237   0.863   8.826   3.560 -0.1747  0.5755  0.2113
20119TIP3   OH261238   7.448   6.270  10.047  0.6016 -0.4522 -0.2940
20119TIP3    H161239   7.401   6.329   9.988  0.8478 -1.2674 -1.3269
20119TIP3    H261240   7.398   6.189  10.045  1.2387 -0.8468 -0.2517
20120TIP3   OH261241   1.826   5.574   5.854  0.3738 -0.1724  0.6575
20120TIP3    H161242   1.867   5.527   5.781 -0.3588 -0.2282  0.2735
20120TIP3    H261243   1.893   5.634   5.885  0.7248 -0.2217  0.0005
20121TIP3   OH261244   1.301   9.233   9.357  0.6299 -0.2336  0.2818
20121TIP3    H161245   1.393   9.209   9.370  0.4678 -1.5972 -0.8202
20121TIP3    H261246   1.255   9.149   9.354 -0.6736  0.4324  0.8846
20122TIP3   OH261247   4.274   5.178   3.655  0.1160 -1.0451 -0.8159
20122TIP3    H161248   4.226   5.258   3.675  0.2055 -1.7561  2.7884
20122TIP3    H261249   4.361   5.209   3.629  0.9008  0.1663  2.6874
20123TIP3   OH261250   3.826   3.751   6.414 -0.6926 -0.1156 -0.0961
20123TIP3    H161251   3.785   3.731   6.330 -0.8808 -0.1797  0.0105
20123TIP3    H261252   3.871   3.671   6.439 -0.2494  0.0493 -0.3574
20124TIP3   OH261253   7.850   4.890   5.683  0.3115 -0.5457 -0.3244
20124TIP3    H161254   7.765   4.918   5.650  0.3225 -0.0110  0.0951
20124TIP3    H261255   7.912   4.918   5.615  0.2670  0.0074 -0.1412
20125TIP3   OH261256   8.162   1.301   6.531 -0.3783  0.1234 -0.3936
20125TIP3    H161257   8.187   1.393   6.539 -0.9920  0.5159 -2.3586
20125TIP3    H261258   8.135   1.292   6.439 -1.2125 -1.8003  0.0022
20126TIP3   OH261259   6.602   2.507   9.851  0.3645  0.0848  0.0286
20126TIP3    H161260   6.652   2.525   9.931  0.4890  0.0972 -0.0510
20126TIP3    H261261   6.669   2.506   9.782  0.3156 -0.3969 -0.0089
20127TIP3   OH261262   9.679  10.320   7.447 -0.8635 -0.1647 -0.4079
20127TIP3    H161263   9.650  10.406   7.475 -0.3547  0.3208 -1.3472
20127TIP3    H261264   9.625  10.299   7.371  0.0880  0.0289 -1.1539
20128TIP3   OH261265   5.825   6.450   6.686 -0.2005 -0.0013 -0.1392
20128TIP3    H161266   5.874   6.523   6.649 -0.4692 -0.5819 -1.7342
20128TIP3    H261267   5.833   6.461   6.780  1.4361  0.9672 -0.3455
20129TIP3   OH261268   5.317   0.693   5.172 -0.7785  0.2710 -0.3371
20129TIP3    H161269   5.398   0.653   5.205  0.0946  2.9493  1.0755
20129TIP3    H261270   5.247   0.644   5.213  0.2325  0.2137  1.4167
20130TIP3   OH261271   9.124  10.700   9.606 -0.6331  0.0583 -0.7970
20130TIP3    H161272   9.167  10.688   9.690 -1.3694 -1.0949 -0.5684
20130TIP3    H261273   9.127  10.795   9.591 -1.4117  0.4015  1.0199
20131TIP3   OH261274   0.626   5.602  10.450  0.0452  0.0740 -0.1006
20131TIP3    H161275   0.586   5.682  10.416 -0.2652  0.4413  1.1025
20131TIP3    H261276   0.573   5.532  10.412 -0.9634  0.5155  0.4461
20132TIP3   OH261277   4.782   2.580   9.401 -0.1383 -0.3539  0.3855
20132TIP3    H161278   4.843   2.640   9.359 -1.1289  1.1338  0.9865
20132TIP3    H261279   4.808   2.579   9.493 -1.4702  0.9773  0.8274
20133TIP3   OH261280  10.676   2.572  10.373 -0.4941  1.0712 -0.2665
20133TIP3    H161281  10.630   2.650  10.403 -2.1065  0.0085  0.1296
20133TIP3    H261282  10.688   2.519  10.452 -0.3072  0.4736 -0.6916
20134TIP3   OH261283   1.672   6.107   2.967 -0.2993  0.1884 -0.0709
20134TIP3    H161284   1.608   6.059   2.914 -0.1113 -0.8516  0.5951
20134TIP3    H261285   1.757   6.082   2.930 -0.2413  0.9128 -0.4333
20135TIP3   OH261286   6.522   3.102   7.156 -0.6147 -0.1140 -0.0034
20135TIP3    H161287   6.604   3.059   7.133 -1.2468 -0.1657 -2.4388
20135TIP3    H261288   6.514   3.091   7.251  3.1466  1.6066  0.7090
20136TIP3   OH261289   1.955   1.617  10.833 -0.4644  0.0179 -0.4035
20136TIP3    H161290   1.905   1.557  10.888 -2.0963 -1.0207 -2.8113
20136TIP3    H261291   1.948   1.702  10.878  4.1317 -1.6902  4.5279
20137TIP3   OH261292   6.347   2.819   0.901  0.5540  0.0256 -0.5473
20137TIP3    H161293   6.332   2.898   0.848  1.8643  1.1295  0.6284
20137TIP3    H261294   6.425   2.780   0.863  0.3718 -0.2731 -0.6183
20138TIP3   OH261295  10.763   8.994  10.042 -0.3350  0.2559  0.0915
20138TIP3    H161296  10.831   8.940  10.001  0.3583  1.3380 -0.2229
20138TIP3    H261297  10.758   9.072   9.988  0.5704  1.7170  1.9624
20139TIP3   OH261298   7.587  10.849   2.192 -0.4535 -0.2281 -0.1728
20139TIP3    H161299   7.541  10.886   2.117 -1.0006  0.8268  0.6638
20139TIP3    H261300   7.553  10.896   2.268  1.4341  0.0622  0.5623
20140TIP3   OH261301   7.053   5.706   5.259 -0.0151 -0.1893 -0.7414
20140TIP3    H161302   6.988   5.752   5.206  1.0423  1.2882 -0.8118
20140TIP3    H261303   7.071   5.766   5.331 -0.0826 -1.3889  0.3012
20141TIP3   OH261304   4.031   6.552   1.403 -0.1308 -0.4192 -0.8456
20141TIP3    H161305   4.018   6.638   1.363 -0.1921  0.6627  1.3545
20141TIP3    H261306   3.961   6.544   1.467  1.1289 -1.1440  0.5162
20142TIP3   OH261307   3.185   6.995   8.351 -0.0214  0.1771 -0.5792
20142TIP3    H161308   3.238   6.960   8.423  1.1338  0.7886 -1.1031
20142TIP3    H261309   3.210   7.087   8.346  0.1013  0.0892 -1.9144
20143TIP3   OH261310   7.561   8.982   2.427 -0.6100 -0.2536 -0.4579
20143TIP3    H161311   7.546   9.074   2.446 -0.2297 -0.4968  1.1142
20143TIP3    H261312   7.488   8.936   2.468 -0.2666 -0.7315 -0.3715
20144TIP3   OH261313   5.722   4.833   1.345  0.3147  0.0000  0.1560
20144TIP3    H161314   5.636   4.860   1.313  0.0929 -0.2592  0.5189
20144TIP3    H261315   5.721   4.856   1.438  0.4019 -0.5635  0.3020
20145TIP3   OH261316   6.588   3.395   9.861  0.2955 -0.3192  0.1940
20145TIP3    H161317   6.540   3.459   9.807  1.3376  0.0625 -0.3164
20145TIP3    H261318   6.669   3.440   9.884  0.9658 -1.3981 -0.0173
20146TIP3   OH261319   6.895   2.171   3.825  0.2845 -0.0400  0.1339
20146TIP3    H161320   6.896   2.078   3.801 -1.9120 -0.6882  2.1464
20146TIP3    H261321   6.813   2.204   3.788  1.2099  1.2366 -0.8588
20147TIP3   OH261322   3.674   8.563   7.209 -0.2044 -0.0296  0.2359
20147TIP3    H161323   3.692   8.478   7.251  0.3377  0.9971  2.2209
20147TIP3    H261324   3.728   8.563   7.131 -1.3389 -2.0898 -0.6200
20148TIP3   OH261325   6.369   6.575   1.178  0.8777  0.3693 -0.0191
20148TIP3    H161326   6.275   6.589   1.190  0.8787  0.6812 -0.3591
20148TIP3    H261327   6.384   6.486   1.209  0.1964 -0.2646 -1.4028
20149TIP3   OH261328   5.194   8.091  10.025 -0.4432 -0.4240  0.1369
20149TIP3    H161329   5.099   8.098  10.039 -0.4499 -1.8343  1.0183
20149TIP3    H261330   5.205   8.104   9.931 -1.2282  2.0469  0.2983
20150TIP3   OH261331   2.413   4.234   6.897  0.0399 -0.6218  0.2181
20150TIP3    H161332   2.318   4.245   6.896 -0.0330 -1.1318 -1.3151
20150TIP3    H261333   2.448   4.323   6.890 -0.3355 -0.4575  0.4096
20151TIP3   OH261334   4.696   9.166   1.107 -0.0270  0.8249 -0.0431
20151TIP3    H161335   4.772   9.212   1.143  1.4622 -2.0314  0.7098
20151TIP3    H261336   4.688   9.088   1.161 -1.6741 -0.4648 -2.0221
20152TIP3   OH261337   7.863   5.404   2.412  0.0612 -0.3863 -0.0121
20152TIP3    H161338   7.777   5.380   2.446  0.7045  1.5549  3.4760
20152TIP3    H261339   7.914   5.324   2.416 -1.0913 -1.1749 -0.5111
20153TIP3   OH261340   1.871   5.005   8.279  0.3165  0.2183  0.1598
20153TIP3    H161341   1.904   5.062   8.348  1.0882 -0.4650  0.3817
20153TIP3    H261342   1.858   4.920   8.322  1.4853 -0.4156 -0.6443
20154TIP3   OH261343   6.026  10.816   3.593  0.1161 -0.1271  0.1165
20154TIP3    H161344   5.974  10.776   3.663  0.1820 -0.5745 -0.0916
20154TIP3    H261345   6.116  10.791   3.613  0.0378 -1.1031 -0.6824
20155TIP3   OH261346   5.326   8.703   0.674  0.2762 -0.4389 -0.8577
20155TIP3    H161347   5.278   8.682   0.754  1.1954  0.3701 -0.0757
20155TIP3    H261348   5.360   8.619   0.644 -0.5055 -0.8300 -0.7003
20156TIP3   OH261349   9.139   1.189   7.207 -0.2307 -0.0915 -0.6423
20156TIP3    H161350   9.235   1.187   7.213 -0.3003  0.6398  1.9033
20156TIP3    H261351   9.114   1.096   7.207  0.4676 -0.2945 -1.4378
20157TIP3   OH261352   5.058   3.129   8.492 -0.3858  0.1719 -0.2166
20157TIP3    H161353   4.993   3.149   8.425  0.8863 -1.1100 -1.9083
20157TIP3    H261354   5.085   3.215   8.525 -1.3628  0.8160 -1.0175
20158TIP3   OH261355   4.483   8.006   4.227 -0.0071 -0.1709 -0.3595
20158TIP3    H161356   4.534   7.960   4.161  0.4674 -0.9511  0.5314
20158TIP3    H261357   4.545   8.025   4.297 -0.7277 -0.3293  0.3478
20159TIP3   OH261358   3.166   5.416   7.001 -0.2008 -0.7782 -1.1577
20159TIP3    H161359   3.238   5.453   7.053 -0.4650  1.5918 -2.3538
20159TIP3    H261360   3.115   5.366   7.065 -0.1770  1.4977  0.8288
20160TIP3   OH261361   0.992  10.898   9.188 -0.1633  0.1214 -0.2532
20160TIP3    H161362   0.970  10.939   9.104 -4.4720  0.3959  0.7554
20160TIP3    H261363   1.055  10.831   9.167 -0.0309  1.1110 -3.4851
20161TIP3   OH261364   2.906   5.973   7.447 -0.4823 -0.3163  0.4070
20161TIP3    H161365   2.873   5.998   7.533 -2.1938 -1.2750  0.0707
20161TIP3    H261366   2.971   5.904   7.465  0.9059  1.0938  1.0315
20162TIP3   OH261367  10.212   3.824   6.864 -0.3171 -0.4904  0.3601
20162TIP3    H161368  10.140   3.850   6.921  1.1744  0.1357  2.0634
20162TIP3    H261369  10.283   3.886   6.885  0.6190 -0.8360 -1.5114
20163TIP3   OH261370   5.809   9.237   6.221 -0.2077 -0.1234 -0.2043
20163TIP3    H161371   5.810   9.240   6.125  0.0902 -0.7978 -0.2249
20163TIP3    H261372   5.869   9.166   6.244 -0.1147  0.1716  0.4916
20164TIP3   OH261373   1.763   6.377   9.752  0.6384 -0.0547 -0.3633
20164TIP3    H161374   1.670   6.353   9.756  0.1875  1.4384 -0.8531
20164TIP3    H261375   1.801   6.316   9.689 -0.4329  0.4365 -1.5450
20165TIP3   OH261376   6.360   8.602   2.426 -0.8338  0.2264  0.0391
20165TIP3    H161377   6.449   8.630   2.407 -0.7992  0.2460  0.2292
20165TIP3    H261378   6.365   8.507   2.430 -1.0534  0.1422 -1.1298
20166TIP3   OH261379   0.985   7.739   1.880  0.0046  0.1189 -0.5367
20166TIP3    H161380   0.946   7.674   1.823  0.7587  0.8419 -1.9367
20166TIP3    H261381   1.067   7.700   1.909  0.8534  0.7137 -2.0316
20167TIP3   OH261382   0.385   1.889   5.572  0.2080 -0.5125 -0.1103
20167TIP3    H161383   0.361   1.855   5.487 -0.1411  1.8765 -1.0496
20167TIP3    H261384   0.373   1.816   5.632 -2.6839 -1.3966 -1.5873
20168TIP3   OH261385  10.866   9.526   7.852  0.4202  0.3542  0.1408
20168TIP3    H161386  10.790   9.493   7.805  0.2915 -0.4348  0.8818
20168TIP3    H261387  10.931   9.544   7.784  0.0473 -0.2453 -0.3838
20169TIP3   OH261388   6.534  10.635  10.568  0.0082  0.0580  0.3080
20169TIP3    H161389   6.618  10.636  10.614 -0.2005 -2.1344  0.8310
20169TIP3    H261390   6.558  10.647  10.476  1.1128 -2.0550  0.2502
20170TIP3   OH261391   6.030   1.314   1.146 -0.1873  0.4470  0.0873
20170TIP3    H161392   6.122   1.289   1.147 -0.2022  0.3791 -0.1629
20170TIP3    H261393   5.983   1.232   1.134 -0.3666  0.2687  1.7900
20171TIP3   OH261394   5.041   2.222   0.527 -0.1651  0.3065 -0.1063
20171TIP3    H161395   5.002   2.282   0.464  1.0463  0.5861 -0.6298
20171TIP3    H261396   5.050   2.140   0.479  0.6447  0.4837 -0.2712
20172TIP3   OH261397   5.638   1.848  10.507 -0.4771  0.0330  0.4091
20172TIP3    H161398   5.640   1.933  10.464 -1.1077  0.3553  0.9945
20172TIP3    H261399   5.706   1.797  10.464  0.1318  0.9453  0.2790
20173TIP3   OH261400   9.950  10.351   2.260  0.2354  0.3836  0.3008
20173TIP3    H161401   9.992  10.336   2.345 -0.1350  0.0741  0.4261
20173TIP3    H261402  10.022  10.382   2.204  0.5022  0.4841  0.6942
20174TIP3   OH261403   8.709   7.095   8.450  0.0726 -0.1424  0.0697
20174TIP3    H161404   8.697   7.021   8.510 -1.7419  0.0763  0.0515
20174TIP3    H261405   8.708   7.056   8.363  2.5256 -0.4393  0.1264
20175TIP3   OH261406   1.892   9.228   6.524  0.1937 -0.1875 -0.2463
20175TIP3    H161407   1.837   9.304   6.505 -1.4743 -1.5635 -1.1782
20175TIP3    H261408   1.943   9.215   6.444  0.4043 -0.1216 -0.1239
20176TIP3   OH261409   7.746  10.035  10.670  0.0555  0.1134 -0.0729
20176TIP3    H161410   7.752   9.951  10.714  1.9944  0.6209  0.7515
20176TIP3    H261411   7.801  10.026  10.593  2.1159  1.2477  1.1859
20177TIP3   OH261412   6.400   0.764   0.175 -0.0731 -0.3399 -0.6022
20177TIP3    H161413   6.361   0.851   0.166  1.3290  0.5612  1.4539
20177TIP3    H261414   6.344   0.719   0.238  0.8411  0.1647  0.6148
20178TIP3   OH261415   6.533   6.378   7.864 -0.0929  0.5307  0.2695
20178TIP3    H161416   6.568   6.338   7.944 -0.9455  0.7631  0.7763
20178TIP3    H261417   6.442   6.398   7.886 -0.1280  1.2668 -0.5209
20179TIP3   OH261418   6.957   7.843   0.885 -0.2360 -0.3235 -0.5881
20179TIP3    H161419   6.908   7.836   0.967 -0.3408  0.8765 -0.5338
20179TIP3    H261420   6.890   7.846   0.817 -0.1643 -0.6375 -0.6776
20180TIP3   OH261421   8.547   2.754   3.981  0.5869  0.7616  0.6625
20180TIP3    H161422   8.453   2.764   3.972  0.4570 -0.2908  0.7164
20180TIP3    H261423   8.562   2.660   3.976  1.7921  0.9832 -0.7724
20181TIP3   OH261424   0.365   4.157   1.533  0.1310 -0.7364  0.2045
20181TIP3    H161425   0.378   4.064   1.550  0.1869 -1.0813 -1.4970
20181TIP3    H261426   0.446   4.185   1.490  0.8475  0.5657  2.2362
20182TIP3   OH261427   3.654   7.878   2.023 -0.3838  0.4003  0.2845
20182TIP3    H161428   3.741   7.845   2.043 -0.0852 -0.1552 -1.6962
20182TIP3    H261429   3.595   7.811   2.057 -0.1909  1.5462  3.1101
20183TIP3   OH261430   8.159   0.869   9.822 -0.1839  0.1883 -0.3207
20183TIP3    H161431   8.209   0.804   9.870 -0.8067 -0.8515 -1.0330
20183TIP3    H261432   8.102   0.910   9.888 -2.4989 -2.6085 -0.3903
20184TIP3   OH261433  10.688   5.631  10.496 -0.1238  0.2163 -0.3070
20184TIP3    H161434  10.673   5.647  10.403 -0.6570  0.3896 -0.1950
20184TIP3    H261435  10.780   5.653  10.510  0.1275 -0.4065 -0.9155
20185TIP3   OH261436   0.843   5.531   9.462 -0.0075 -0.2285 -0.1549
20185TIP3    H161437   0.904   5.605   9.452  0.6898 -0.7889 -0.1010
20185TIP3    H261438   0.799   5.525   9.377  1.1183 -0.7720 -0.7213
20186TIP3   OH261439   6.245   9.685   7.201  0.2613 -0.0974 -0.1294
20186TIP3    H161440   6.254   9.592   7.181 -0.0781 -0.2179  0.2699
20186TIP3    H261441   6.152   9.697   7.220  0.4174  0.1816  0.5086
20187TIP3   OH261442   8.125   6.516   6.269  0.0198 -0.1055  0.6562
20187TIP3    H161443   8.080   6.584   6.218 -1.5497 -1.6154 -0.0443
20187TIP3    H261444   8.218   6.529   6.248 -0.3248  1.2683 -0.1363
20188TIP3   OH261445   8.815   1.726   5.494 -0.1034  0.5222  0.3832
20188TIP3    H161446   8.756   1.747   5.421  0.2923  0.3100  0.0033
20188TIP3    H261447   8.903   1.734   5.458  0.0833 -0.2416  0.6595
20189TIP3   OH261448   9.104  10.405   2.917  0.3626  0.2086  0.3269
20189TIP3    H161449   9.018  10.381   2.882 -0.3413 -0.2820  2.2825
20189TIP3    H261450   9.118  10.495   2.886 -0.0889 -0.2589 -1.3547
20190TIP3   OH261451   1.928   3.526   9.546 -0.5926 -0.3522 -0.2392
20190TIP3    H161452   1.985   3.473   9.602 -0.6854  0.3780  0.5535
20190TIP3    H261453   1.936   3.485   9.460  2.3542  0.6225 -0.5458
20191TIP3   OH261454   4.309   3.880   3.770  0.5133 -0.0453 -0.2437
20191TIP3    H161455   4.368   3.805   3.765 -0.4495 -1.0673  2.3694
20191TIP3    H261456   4.338   3.928   3.848 -0.0219  1.3323 -0.8577
20192TIP3   OH261457   9.726   7.868   9.825 -0.0332 -0.5254 -0.1011
20192TIP3    H161458   9.700   7.779   9.800  1.6812 -0.8004 -1.0050
20192TIP3    H261459   9.755   7.860   9.915  2.1598 -1.3700 -0.8297
20193TIP3   OH261460   0.493   6.340   8.043  0.0982 -0.0668  0.2617
20193TIP3    H161461   0.420   6.399   8.024  0.0183  0.0033  0.7882
20193TIP3    H261462   0.453   6.268   8.091  0.7317  1.1004  2.6750
20194TIP3   OH261463   0.682   9.445   0.715 -0.0951  0.1621  0.1103
20194TIP3    H161464   0.620   9.373   0.724 -0.1852  0.0933 -0.9007
20194TIP3    H261465   0.752   9.425   0.777 -0.2309 -0.6815  0.0044
20195TIP3   OH261466   2.403   0.470  10.829  0.5060  0.3164  0.3685
20195TIP3    H161467   2.442   0.384  10.843 -0.2325 -0.0086  0.5118
20195TIP3    H261468   2.369   0.495  10.915 -1.1419 -0.2118 -0.0829
20196TIP3   OH261469   1.881   2.603  10.490  0.1415 -0.4888  0.1369
20196TIP3    H161470   1.971   2.612  10.521  0.1636 -2.3275  0.7149
20196TIP3    H261471   1.889   2.578  10.398  0.3771 -3.1114  0.7790
20197TIP3   OH261472   2.761   3.019   5.892  0.3020 -0.2389 -0.1984
20197TIP3    H161473   2.842   2.968   5.890  0.4330 -0.1189  1.1207
20197TIP3    H261474   2.724   3.009   5.804  1.3901 -0.8649 -0.6045
20198TIP3   OH261475   7.512  10.205   9.483  0.4175 -0.9152  0.0591
20198TIP3    H161476   7.571  10.281   9.477  0.6937 -0.8898  2.2291
20198TIP3    H261477   7.429  10.242   9.514  0.1659 -1.3417 -0.1047
20199TIP3   OH261478   4.898   1.187   3.819  0.2649  0.7728  0.4920
20199TIP3    H161479   4.885   1.102   3.778  1.6102  0.3364  0.9254
20199TIP3    H261480   4.932   1.167   3.906 -2.2516  1.6822  1.7944
20200TIP3   OH261481   1.998   2.945   5.815  0.1699 -0.3178 -0.2049
20200TIP3    H161482   1.925   2.912   5.866  0.2316 -1.0638 -0.5894
20200TIP3    H261483   1.958   2.989   5.740  0.0693  1.0300  0.6004
20201TIP3   OH261484   1.724   1.181   5.624 -0.1314  0.0493 -0.7626
20201TIP3    H161485   1.818   1.164   5.614 -0.2453 -0.4281 -1.0364
20201TIP3    H261486   1.708   1.174   5.718 -0.2196 -1.6677 -0.8704
20202TIP3   OH261487   2.493   9.493   6.889 -0.1784  0.0319 -0.6802
20202TIP3    H161488   2.480   9.512   6.796 -0.8452 -2.4833 -1.1853
20202TIP3    H261489   2.404   9.484   6.924  0.0567  1.2045  0.3075
20203TIP3   OH261490   8.580   8.464   1.697 -0.3529 -0.6893  0.5309
20203TIP3    H161491   8.512   8.407   1.733  0.3416 -1.9733 -0.1092
20203TIP3    H261492   8.618   8.413   1.625 -1.0000  1.3579 -1.3903
20204TIP3   OH261493   3.005   4.559   8.291 -0.1469 -0.1021  0.4194
20204TIP3    H161494   2.982   4.468   8.314 -0.7278  0.2147  1.1307
20204TIP3    H261495   2.977   4.610   8.366  1.1222  0.5577  0.4554
20205TIP3   OH261496   9.443   6.061   5.241  0.0375 -0.5435 -0.5229
20205TIP3    H161497   9.533   6.043   5.268 -0.0332 -0.2051 -0.0419
20205TIP3    H261498   9.419   5.987   5.185 -0.1971 -1.8830  1.2563
20206TIP3   OH261499   8.826   9.822   7.970  0.6652 -0.5397  0.2695
20206TIP3    H161500   8.769   9.749   7.993 -0.0512  0.1520  0.7595
20206TIP3    H261501   8.799   9.846   7.881  1.8738 -1.7523 -0.4650
20207TIP3   OH261502   0.293   9.346   5.178 -0.1036  0.5151  0.4863
20207TIP3    H161503   0.310   9.414   5.113 -0.1659 -0.2649 -0.3660
20207TIP3    H261504   0.354   9.366   5.249  0.1148  1.2585  0.1075
20208TIP3   OH261505   0.342   0.516  10.421  0.1586 -0.8742 -0.0168
20208TIP3    H161506   0.384   0.450  10.476  0.4260 -1.0680 -0.4466
20208TIP3    H261507   0.398   0.593  10.429  1.0920 -1.3933 -1.2564
20209TIP3   OH261508   1.592  10.862   3.164 -0.3773 -0.2228  0.1515
20209TIP3    H161509   1.626  10.950   3.181 -0.4978 -0.3445  1.0631
20209TIP3    H261510   1.627  10.808   3.235  1.3473 -1.3705 -1.4797
20210TIP3   OH261511   1.264   1.323  10.833 -0.1158 -0.3141 -0.1869
20210TIP3    H161512   1.175   1.342  10.863  0.0120 -1.7845  1.3062
20210TIP3    H261513   1.252   1.265  10.758 -0.5309 -3.4076  2.0678
20211TIP3   OH261514   8.980   5.156   0.369  0.5953 -0.3510 -0.4449
20211TIP3    H161515   8.937   5.086   0.418 -1.8747  1.2166 -0.1877
20211TIP3    H261516   8.943   5.150   0.281  0.5396  0.4514 -0.4861
20212TIP3   OH261517   1.792   1.836   7.156  0.8609 -0.2312  1.0219
20212TIP3    H161518   1.829   1.857   7.070 -0.1886 -0.0310  0.5973
20212TIP3    H261519   1.708   1.794   7.136  0.5261 -0.0333  1.9506
20213TIP3   OH261520   2.057   3.195   1.449  0.4344 -0.2756 -0.3074
20213TIP3    H161521   2.017   3.151   1.374  0.1816 -0.7782  0.1190
20213TIP3    H261522   2.148   3.166   1.449  0.4684 -0.1682 -0.5003
20214TIP3   OH261523   8.721   3.834   3.668 -0.3609  0.2402  0.6687
20214TIP3    H161524   8.683   3.747   3.676  0.9732 -0.4884 -0.4973
20214TIP3    H261525   8.647   3.890   3.643 -0.7434 -1.1221 -1.5389
20215TIP3   OH261526   2.990   7.474   2.306 -0.3251 -0.2759  0.0483
20215TIP3    H161527   3.020   7.383   2.302  1.2357  0.2540 -2.3707
20215TIP3    H261528   2.910   7.475   2.253  0.3140 -0.0693 -0.9498
20216TIP3   OH261529   9.569   5.054   3.390 -0.0673  0.1739  0.1252
20216TIP3    H161530   9.505   5.073   3.459 -0.4345 -1.1514  0.1726
20216TIP3    H261531   9.638   5.119   3.403 -0.5924  0.5583  1.1265
20217TIP3   OH261532   7.164   5.701   6.588 -0.0420  0.3857  0.0145
20217TIP3    H161533   7.109   5.634   6.627  1.9506 -2.1083 -1.1626
20217TIP3    H261534   7.251   5.685   6.625  1.0603  0.4948 -2.3283
20218TIP3   OH261535   1.904   0.326   3.833  0.3983 -0.3259 -0.0612
20218TIP3    H161536   1.870   0.239   3.809 -0.7742  0.6610 -2.2652
20218TIP3    H261537   1.851   0.352   3.908 -0.3320 -0.8719 -0.3701
20219TIP3   OH261538   2.330   9.418   5.166 -0.3811  0.2506 -0.4483
20219TIP3    H161539   2.296   9.393   5.252  2.6715  0.0030  0.8130
20219TIP3    H261540   2.302   9.348   5.108 -2.0709  0.1576  0.4186
20220TIP3   OH261541   2.892   6.492   7.869  0.0929  0.3821 -0.1134
20220TIP3    H161542   2.962   6.473   7.807  0.7685  0.4116  0.6319
20220TIP3    H261543   2.813   6.495   7.815  0.6585  0.3613 -0.9649
20221TIP3   OH261544   9.787   5.359   4.197 -0.7385  0.1369  0.4627
20221TIP3    H161545   9.842   5.353   4.119 -0.0863  1.0243  0.8393
20221TIP3    H261546   9.740   5.276   4.199  0.0077 -0.3243 -0.3020
20222TIP3   OH261547   3.525  10.594   9.904 -0.1771 -0.0581 -0.4721
20222TIP3    H161548   3.463  10.637   9.845  0.6772  2.1107  0.1089
20222TIP3    H261549   3.547  10.661   9.969  1.8022 -1.1680  0.0962
20223TIP3   OH261550  10.490   7.026   1.483 -0.5268 -0.2310 -0.4408
20223TIP3    H161551  10.439   7.020   1.564 -0.5305  0.5131 -0.3859
20223TIP3    H261552  10.515   6.935   1.465  2.2524 -0.1439  2.1779
20224TIP3   OH261553   3.392  10.348   5.624 -0.9697 -0.0607  0.4667
20224TIP3    H161554   3.316  10.389   5.583  0.7262  2.5892 -0.2623
20224TIP3    H261555   3.449  10.324   5.551  0.3650  1.1058  1.0903
20225TIP3   OH261556   4.890   8.099   2.169  0.6327 -0.4709  0.9450
20225TIP3    H161557   4.968   8.121   2.118  0.1718 -0.3825  0.2707
20225TIP3    H261558   4.923   8.045   2.241  1.0914 -2.0469 -0.3829
20226TIP3   OH261559   1.137   3.159   4.575 -0.1055 -0.0547  0.1943
20226TIP3    H161560   1.108   3.168   4.485  1.3280 -0.4939 -0.3315
20226TIP3    H261561   1.194   3.234   4.590  0.5009 -0.5448  0.3852
20227TIP3   OH261562   0.197   9.408   9.624  0.1330  0.7013  0.5642
20227TIP3    H161563   0.163   9.497   9.634 -1.2363  0.1510  1.1431
20227TIP3    H261564   0.283   9.411   9.665  0.7361  2.0924 -0.6997
20228TIP3   OH261565   4.155   9.178   1.196 -0.3363 -0.0404 -0.4722
20228TIP3    H161566   4.146   9.237   1.122 -1.2543  1.3737  0.7191
20228TIP3    H261567   4.068   9.139   1.208 -0.5286  0.6515  0.5600
20229TIP3   OH261568   4.958   6.286   9.266  0.2262  0.4276  0.1651
20229TIP3    H161569   4.953   6.368   9.215 -0.0645  0.9423  1.0037
20229TIP3    H261570   5.034   6.240   9.229  1.7121  2.0452  1.0596
20230TIP3   OH261571   2.622   4.752  10.133  0.0110 -0.6989  0.2774
20230TIP3    H161572   2.638   4.818  10.200 -0.3755 -0.5688  0.2474
20230TIP3    H261573   2.639   4.668  10.176 -1.9953 -0.7342  1.1169
20231TIP3   OH261574   5.525   7.803  10.614  0.0874  0.4612  0.0693
20231TIP3    H161575   5.600   7.812  10.555 -1.2443  0.0719 -1.7519
20231TIP3    H261576   5.490   7.892  10.622  1.5852  0.9464  2.1971
20232TIP3   OH261577   8.148   4.456   7.937 -0.2059  0.2654  0.7818
20232TIP3    H161578   8.135   4.413   7.852  1.4417 -0.9998  1.1122
20232TIP3    H261579   8.072   4.429   7.989 -1.2914  1.1441 -0.2910
20233TIP3   OH261580   6.584   2.831   2.236 -0.2734  0.2512  0.0307
20233TIP3    H161581   6.643   2.773   2.188  0.4672 -0.2461  1.4663
20233TIP3    H261582   6.509   2.843   2.178  0.8698  0.2585 -1.5234
20234TIP3   OH261583   1.499   0.616   5.808 -0.1275  0.1335 -0.5767
20234TIP3    H161584   1.560   0.588   5.876  0.3990 -0.1053 -1.1327
20234TIP3    H261585   1.488   0.710   5.823 -0.0391  0.0753 -0.1445
20235TIP3   OH261586   0.344   3.734   3.685 -0.2722  0.1939 -0.3993
20235TIP3    H161587   0.404   3.785   3.740 -0.1383 -0.2033 -0.1773
20235TIP3    H261588   0.277   3.702   3.745 -0.3140  0.0359 -0.5295
20236TIP3   OH261589   1.221   7.444   2.492 -0.1985  0.4433  0.8229
20236TIP3    H161590   1.262   7.357   2.490 -2.5347 -0.7396  0.7476
20236TIP3    H261591   1.258   7.486   2.570  3.3034  0.6943 -0.7506
20237TIP3   OH261592   2.268   4.072   4.889 -0.2046 -0.3427 -0.2298
20237TIP3    H161593   2.299   4.117   4.810  1.6851  3.0660  2.1910
20237TIP3    H261594   2.347   4.033   4.926 -1.1267 -2.1755 -0.1153
20238TIP3   OH261595   3.920   8.140   4.970 -0.0525  0.2760 -0.1526
20238TIP3    H161596   3.890   8.178   5.053  1.8043 -0.1080  0.7680
20238TIP3    H261597   4.013   8.122   4.985 -0.3368 -2.6838 -1.2327
20239TIP3   OH261598  10.155  10.041   3.259  0.2012 -0.4890  0.3281
20239TIP3    H161599  10.097  10.111   3.289  1.4946 -0.0079  1.8813
20239TIP3    H261600  10.173  10.061   3.167  0.4875  1.2154  0.7245
20240TIP3   OH261601   8.806   0.480   1.670  0.5392 -0.2715  0.2011
20240TIP3    H161602   8.719   0.448   1.648 -0.1595 -0.3958  2.8420
20240TIP3    H261603   8.828   0.542   1.599 -2.2328  0.7424  0.1180
20241TIP3   OH261604   9.409   0.899   5.120  0.6190 -0.1604 -0.1623
20241TIP3    H161605   9.496   0.865   5.099  1.2997  1.5262 -0.2351
20241TIP3    H261606   9.383   0.853   5.199  1.2288 -1.2573 -0.5904
20242TIP3   OH261607   6.247   6.444   8.908  0.1693  0.6981  0.3905
20242TIP3    H161608   6.230   6.521   8.962  1.6223  2.0530 -0.9550
20242TIP3    H261609   6.342   6.435   8.909  0.2296  0.6535 -1.7036
20243TIP3   OH261610   0.894   3.382   1.978 -0.5389  0.4115  0.1007
20243TIP3    H161611   0.901   3.474   1.956 -0.4667  0.5948  0.8559
20243TIP3    H261612   0.817   3.351   1.930  0.4811  0.3974 -1.6176
20244TIP3   OH261613   0.607   8.137   9.164  0.0399  0.6791 -0.1820
20244TIP3    H161614   0.579   8.128   9.256 -0.1389 -0.5385 -0.3384
20244TIP3    H261615   0.554   8.073   9.117  1.6095 -0.2227 -0.8105
20245TIP3   OH261616   9.844   0.057   5.602 -0.2140  0.5246 -0.5057
20245TIP3    H161617   9.772   0.021   5.551 -0.8459  1.1740 -0.0946
20245TIP3    H261618   9.830   0.151   5.600  0.1321  0.5999  0.3046
20246TIP3   OH261619   5.856   1.621   8.142 -1.0488  0.2243  0.0444
20246TIP3    H161620   5.827   1.617   8.051 -1.3268  1.1304  0.0774
20246TIP3    H261621   5.940   1.576   8.143 -0.0623  1.9504 -1.0878
20247TIP3   OH261622   3.662   6.071   2.017  0.0738 -0.2738  0.6224
20247TIP3    H161623   3.712   6.146   2.049 -1.5085  0.6712  1.0146
20247TIP3    H261624   3.690   6.060   1.926  1.4052 -0.1667  1.0018
20248TIP3   OH261625   2.344   9.816   9.619 -0.2566 -0.2042 -0.2318
20248TIP3    H161626   2.395   9.787   9.695 -0.6335  0.4944  0.2916
20248TIP3    H261627   2.409   9.827   9.550  0.1763 -0.2595  0.1607
20249TIP3   OH261628   6.353   0.495   9.903 -0.4370 -0.7094 -0.3523
20249TIP3    H161629   6.411   0.444   9.846 -0.1977 -0.8968  0.0599
20249TIP3    H261630   6.312   0.431   9.960  1.2385 -0.3079  1.4172
20250TIP3   OH261631   8.425   5.319   5.703 -0.3499  0.5791  0.1747
20250TIP3    H161632   8.407   5.226   5.717  0.7438  0.5301  1.5090
20250TIP3    H261633   8.508   5.320   5.656 -1.5631  0.8846 -2.1443
20251TIP3   OH261634   0.403   3.778   0.993 -0.3232 -0.2478  0.0955
20251TIP3    H161635   0.372   3.846   0.933  1.5350  1.7518  1.2609
20251TIP3    H261636   0.327   3.759   1.049 -0.2139  2.9441  1.5096
20252TIP3   OH261637   9.246   9.652   1.666 -0.4275  0.3297 -0.3580
20252TIP3    H161638   9.339   9.649   1.687 -0.9546  1.4502  2.5478
20252TIP3    H261639   9.240   9.711   1.591  1.2271 -0.1195 -0.8807
20253TIP3   OH261640   1.336   5.498   6.919  0.1597  0.2127 -0.2267
20253TIP3    H161641   1.332   5.408   6.885  1.6518  0.3772 -0.9141
20253TIP3    H261642   1.409   5.538   6.871 -1.1421  2.1286 -0.7285
20254TIP3   OH261643   4.534   6.219   6.455  0.4052  0.3628 -0.1137
20254TIP3    H161644   4.560   6.137   6.497  0.8080  0.1871 -0.7028
20254TIP3    H261645   4.573   6.288   6.509  1.3436  0.1268 -0.4792
20255TIP3   OH261646   5.503  10.291   4.550  0.4011  0.1792 -0.1834
20255TIP3    H161647   5.423  10.242   4.531  1.0213 -0.8422 -0.2257
20255TIP3    H261648   5.488  10.327   4.638 -0.0780 -0.0615 -0.1625
20256TIP3   OH261649   3.752   2.620   2.912  0.4953  0.5188 -0.1464
20256TIP3    H161650   3.716   2.575   2.836  0.3896  0.6573 -0.1772
20256TIP3    H261651   3.718   2.571   2.987  0.9225  0.1360 -0.1951
20257TIP3   OH261652   7.425   6.632   0.501 -0.0829  0.2322 -0.0385
20257TIP3    H161653   7.468   6.554   0.466 -2.3658 -1.1801  0.0848
20257TIP3    H261654   7.417   6.691   0.426  0.6536 -0.0977 -0.3907
20258TIP3   OH261655   0.260   6.310   9.101  0.3339  0.2582  0.1821
20258TIP3    H161656   0.348   6.275   9.111  0.5823  1.1088  1.0427
20258TIP3    H261657   0.225   6.314   9.190 -0.4160  0.3290 -0.1115
20259TIP3   OH261658   9.318   1.602   9.557  0.3062 -0.2178 -0.1510
20259TIP3    H161659   9.392   1.552   9.524  1.9224  1.6438  0.4343
20259TIP3    H261660   9.272   1.542   9.615  0.3907 -1.9132 -1.7589
20260TIP3   OH261661   3.448   9.984   5.382 -0.1019  0.1548 -0.1149
20260TIP3    H161662   3.390   9.938   5.443 -0.2699  0.2986 -0.1653
20260TIP3    H261663   3.403  10.067   5.365  0.9572  1.0548  1.2303
20261TIP3   OH261664   0.751   8.493   0.139 -0.4182 -0.0894 -0.3669
20261TIP3    H161665   0.738   8.482   0.044  2.3662  0.9371 -0.9802
20261TIP3    H261666   0.679   8.549   0.167  0.5047  2.4278 -2.6149
20262TIP3   OH261667  10.329   6.410   2.320 -0.4402  0.5223 -0.2924
20262TIP3    H161668  10.405   6.355   2.299  1.1466  2.4948 -0.0890
20262TIP3    H261669  10.278   6.413   2.240 -0.2243 -0.7306 -0.4890
20263TIP3   OH261670  10.838   3.436   5.486  0.2961  0.0406 -0.3880
20263TIP3    H161671  10.842   3.435   5.390 -0.6486  0.4014 -0.4380
20263TIP3    H261672  10.870   3.349   5.512  1.5110  0.2904 -0.9730
20264TIP3   OH261673   8.821   6.498   0.612 -0.0470  0.1928  0.1366
20264TIP3    H161674   8.913   6.470   0.618  0.0424  0.5052  0.2111
20264TIP3    H261675   8.817   6.549   0.531 -0.1560  0.1798  0.1346
20265TIP3   OH261676   2.438   3.468   8.103 -0.1799 -0.8049 -0.2242
20265TIP3    H161677   2.388   3.542   8.068 -1.5082 -2.0163 -0.9719
20265TIP3    H261678   2.372   3.409   8.139  0.9658 -0.9322  1.8342
20266TIP3   OH261679   4.599  10.473   1.339 -0.0955 -0.2925 -0.0772
20266TIP3    H161680   4.672  10.414   1.320 -0.0751  0.1405 -1.4338
20266TIP3    H261681   4.531  10.449   1.276 -0.0694  1.1313 -0.7034
20267TIP3   OH261682   3.429  10.810   1.587  0.0495  0.0239 -0.3799
20267TIP3    H161683   3.388  10.893   1.564  1.7738  1.1562  0.4582
20267TIP3    H261684   3.365  10.767   1.644 -1.3820  0.1837 -1.7826
20268TIP3   OH261685   3.678   0.649   9.537  0.4945 -0.2707  0.5804
20268TIP3    H161686   3.715   0.568   9.503  1.9992  0.9434 -0.8538
20268TIP3    H261687   3.599   0.664   9.484  1.8369  0.6681 -1.2696
20269TIP3   OH261688   9.651   5.144   4.671  0.2979 -0.1856  0.0592
20269TIP3    H161689   9.691   5.062   4.701  3.0332  0.6474 -1.0756
20269TIP3    H261690   9.564   5.117   4.640  0.3503 -2.3027  1.5211
20270TIP3   OH261691   0.577   9.837   0.962 -0.5475  0.0078 -0.0216
20270TIP3    H161692   0.561   9.931   0.956  2.2354  0.5201 -0.6871
20270TIP3    H261693   0.575   9.807   0.872  1.8010  0.1230 -0.1790
20271TIP3   OH261694   8.145   4.420   4.040 -0.5482  0.3558  0.1333
20271TIP3    H161695   8.193   4.474   3.977 -0.8807  0.4149 -0.0730
20271TIP3    H261696   8.154   4.467   4.123  0.2662  0.0508  0.2304
20272TIP3   OH261697   9.138  10.764   8.254  0.1880 -0.2596 -0.8486
20272TIP3    H161698   9.191  10.802   8.324 -0.9103 -0.7249  0.2653
20272TIP3    H261699   9.099  10.839   8.209  0.8545  0.0383 -0.9419
20273TIP3   OH261700   9.263   9.798   3.433  0.2783  0.3928  0.1764
20273TIP3    H161701   9.315   9.876   3.414 -0.1062 -0.0625 -3.2943
20273TIP3    H261702   9.255   9.753   3.349 -5.0598  0.0431  0.5334
20274TIP3   OH261703   2.517   8.268   5.390  0.3532 -0.3816 -0.6112
20274TIP3    H161704   2.486   8.358   5.384  1.7201  0.1228 -0.3996
20274TIP3    H261705   2.515   8.248   5.483 -0.9811 -0.9621 -0.7494
20275TIP3   OH261706   8.844   9.644   4.286 -0.2782  0.5117 -0.3669
20275TIP3    H161707   8.825   9.551   4.274  0.2531  0.6475 -2.7562
20275TIP3    H261708   8.788   9.671   4.358 -1.4787 -1.3587 -0.5409
20276TIP3   OH261709   6.053   0.784   2.265 -0.0554 -0.6736  0.3372
20276TIP3    H161710   6.063   0.693   2.237 -0.4287 -1.1849  1.7764
20276TIP3    H261711   6.024   0.831   2.187  3.0115 -1.1760 -1.2474
20277TIP3   OH261712   4.138   8.017   3.156 -0.5695  0.0189  0.1536
20277TIP3    H161713   4.159   7.962   3.081  1.5649 -2.1144  2.1394
20277TIP3    H261714   4.212   8.076   3.165 -1.1262  0.7208  0.2051
20278TIP3   OH261715   0.817   4.920   2.198 -0.3687 -0.0018 -0.4530
20278TIP3    H161716   0.805   4.838   2.151  0.4946  0.3632 -1.3502
20278TIP3    H261717   0.868   4.975   2.138  1.6832  0.1358  1.2988
20279TIP3   OH261718   9.825   9.283   7.795  0.8929 -0.1753  0.1850
20279TIP3    H161719   9.841   9.376   7.778  0.7224  0.0461  1.1822
20279TIP3    H261720   9.836   9.274   7.889 -2.2322 -0.4910  0.6227
20280TIP3   OH261721   2.502   9.258   1.513 -0.6580  0.3868  0.2290
20280TIP3    H161722   2.503   9.325   1.445 -2.0905 -0.7862 -1.0121
20280TIP3    H261723   2.452   9.186   1.475  2.2143 -2.1093  0.8612
20281TIP3   OH261724   7.068   2.112   4.564  0.0718 -0.0275  0.5975
20281TIP3    H161725   7.080   2.154   4.650 -0.5465 -0.4399  0.8943
20281TIP3    H261726   7.101   2.023   4.577  0.9870  0.2266  0.0895
20282TIP3   OH261727   1.768   2.893   3.950 -0.6505 -0.1620  0.4266
20282TIP3    H161728   1.803   2.854   4.031  1.2933 -0.6496 -0.5944
20282TIP3    H261729   1.725   2.820   3.905  1.4578 -0.8336 -0.6479
20283TIP3   OH261730  10.584   1.825   7.639 -0.5437 -1.3146 -0.1553
20283TIP3    H161731  10.559   1.868   7.556  2.1770 -0.0124 -0.4087
20283TIP3    H261732  10.566   1.891   7.706 -0.2847 -1.3763 -0.0257
20284TIP3   OH261733   4.819   0.311   1.342 -0.6338  0.2022  0.5197
20284TIP3    H161734   4.858   0.300   1.428 -0.6515  0.3924  0.5517
20284TIP3    H261735   4.819   0.222   1.304 -0.4422  0.1528  0.6344
20285TIP3   OH261736   0.875   7.042   2.311 -0.0055  0.2115 -0.3081
20285TIP3    H161737   0.830   6.991   2.379 -0.9452  1.5549  0.1179
20285TIP3    H261738   0.956   7.072   2.354 -0.4655  0.8289  0.1506
20286TIP3   OH261739   6.387   7.353   2.056 -0.1193 -0.2044  0.4200
20286TIP3    H161740   6.474   7.335   2.020  1.1571  1.5126  2.3847
20286TIP3    H261741   6.327   7.301   2.003  2.0830 -1.3054 -1.1220
20287TIP3   OH261742   1.281   8.984   2.588 -0.1502  0.0809  0.5592
20287TIP3    H161743   1.373   8.962   2.573 -0.0430  1.0508 -0.3019
20287TIP3    H261744   1.242   8.989   2.501 -1.1280 -0.6856  0.9231
20288TIP3   OH261745   4.905   2.648   2.168  0.7743  0.2291  0.2474
20288TIP3    H161746   4.847   2.661   2.243 -0.2508 -1.2926 -0.2223
20288TIP3    H261747   4.856   2.683   2.094  0.6921 -0.5466 -0.0700
20289TIP3   OH261748   4.737   3.759   1.130  0.1699  0.4414  0.2609
20289TIP3    H161749   4.767   3.757   1.221 -0.8343 -1.3512  0.5782
20289TIP3    H261750   4.756   3.849   1.102  1.4242  0.7499  1.9036
20290TIP3   OH261751   6.090   2.769  10.705  0.7329  0.1968  0.4035
20290TIP3    H161752   6.163   2.816  10.746  0.2343  1.1945  0.1724
20290TIP3    H261753   6.078   2.813  10.621 -1.3691  1.3160  1.2334
20291TIP3   OH261754   6.312   5.237   2.997  0.3145  0.0056  0.1731
20291TIP3    H161755   6.393   5.192   2.972  0.4823 -0.6628  1.8474
20291TIP3    H261756   6.339   5.328   3.013  1.1686 -0.6100  2.6149
20292TIP3   OH261757   1.567   6.866   8.419  0.0533 -0.5070  0.1468
20292TIP3    H161758   1.652   6.875   8.376 -0.6213 -1.1882 -1.3832
20292TIP3    H261759   1.584   6.811   8.495  1.4878  1.6466  1.4922
20293TIP3   OH261760   1.193  10.798   7.077 -0.2356  0.0814 -0.1992
20293TIP3    H161761   1.186  10.882   7.123 -1.1805  0.2866 -0.6893
20293TIP3    H261762   1.257  10.814   7.008 -1.0212  0.6627 -0.8160
20294TIP3   OH261763   4.710   0.173   7.709  0.5778  0.6482  0.0073
20294TIP3    H161764   4.701   0.180   7.804  0.0297  1.9749 -0.1182
20294TIP3    H261765   4.626   0.204   7.674  1.2579  1.5130 -0.9322
20295TIP3   OH261766   5.176   5.795   6.725  0.4260 -0.4405 -0.2849
20295TIP3    H161767   5.183   5.813   6.631 -2.4978  1.6778 -0.2085
20295TIP3    H261768   5.086   5.767   6.738  1.0025 -1.5161  1.8133
20296TIP3   OH261769   5.065   8.180   4.386 -0.0268  0.8427  0.0206
20296TIP3    H161770   5.148   8.209   4.424  0.8103 -1.0674 -0.2449
20296TIP3    H261771   5.088   8.106   4.330 -2.0224 -0.3471  0.6539
20297TIP3   OH261772   7.201   1.967   8.595  0.8034 -0.8555  0.0499
20297TIP3    H161773   7.212   1.887   8.545  0.2306 -0.2286 -1.1214
20297TIP3    H261774   7.189   2.036   8.529 -2.9939 -0.4059  0.9481
20298TIP3   OH261775   4.353   8.556   2.094  0.0701  0.0139  0.6999
20298TIP3    H161776   4.258   8.565   2.094  0.0497 -0.1531  0.0758
20298TIP3    H261777   4.383   8.619   2.160 -0.4784 -0.0275  0.9953
20299TIP3   OH261778   3.553  10.133   2.100 -0.6354  0.6287  0.1286
20299TIP3    H161779   3.639  10.162   2.129 -0.3761 -0.9949  1.0866
20299TIP3    H261780   3.556  10.038   2.104 -2.8666  0.5245  1.4500
20300TIP3   OH261781   4.139   5.464   5.910  1.0846 -0.2653  0.1380
20300TIP3    H161782   4.211   5.405   5.932  2.3568  1.8608  2.0342
20300TIP3    H261783   4.133   5.524   5.984  0.1633  2.2945 -1.8626
20301TIP3   OH261784   9.946  10.546   4.713 -0.2413  0.1337 -0.3537
20301TIP3    H161785   9.937  10.637   4.742 -0.4124  0.0670 -0.1959
20301TIP3    H261786   9.913  10.546   4.623 -2.4164 -0.2050  0.3696
20302TIP3   OH261787   9.183   1.537   7.617 -0.7037 -0.2053 -0.3205
20302TIP3    H161788   9.178   1.629   7.592 -2.1099 -0.5841 -1.5852
20302TIP3    H261789   9.147   1.490   7.542 -0.5354 -1.7521  0.5280
20303TIP3   OH261790   2.994  10.791  10.640 -0.7245 -0.4479  0.0770
20303TIP3    H161791   3.044  10.869  10.665 -0.2317 -0.5062 -0.6680
20303TIP3    H261792   2.919  10.790  10.699 -0.8138  0.6761  0.0038
20304TIP3   OH261793   9.207   1.078   4.334  0.1677  0.0798 -0.6886
20304TIP3    H161794   9.211   1.118   4.247 -2.3720 -0.8338 -1.3355
20304TIP3    H261795   9.150   1.137   4.384  0.2402 -0.2890 -0.1702
20305TIP3   OH261796   9.348  10.751   8.541 -0.0222  0.1234  0.6802
20305TIP3    H161797   9.419  10.702   8.502 -0.5814 -1.5118  1.6169
20305TIP3    H261798   9.302  10.688   8.596 -2.5853  0.9304 -0.3506
20306TIP3   OH261799   7.856   9.973   3.504  0.1034 -0.6934  0.3253
20306TIP3    H161800   7.947   9.947   3.487 -0.2724 -0.8858 -1.6256
20306TIP3    H261801   7.823  10.001   3.419 -1.5226 -0.1252  1.1081
20307TIP3   OH261802   0.714   6.088   9.982  0.0123  0.5333  0.4856
20307TIP3    H161803   0.653   6.161   9.994 -1.0007  0.0083 -1.1492
20307TIP3    H261804   0.712   6.070   9.888  2.4130  0.2125  0.4336
20308TIP3   OH261805   2.523   7.631   2.020 -0.8497 -0.1866  0.7803
20308TIP3    H161806   2.452   7.616   2.082 -1.6134 -0.1841 -0.0845
20308TIP3    H261807   2.503   7.575   1.945  0.7987 -1.2782  1.0881
20309TIP3   OH261808   3.335   1.069   4.210 -0.1496  0.1446 -0.4747
20309TIP3    H161809   3.335   1.001   4.278 -0.1086  0.0873 -0.5311
20309TIP3    H261810   3.281   1.032   4.140  0.8056 -0.3357 -0.9988
20310TIP3   OH261811   6.492   5.843   5.847  0.1042 -0.6854 -0.2454
20310TIP3    H161812   6.445   5.813   5.770 -0.1223 -0.4069 -0.2183
20310TIP3    H261813   6.516   5.762   5.894 -0.1960 -0.8367 -0.3480
20311TIP3   OH261814   0.208   5.231   3.540  0.5346 -0.1321 -0.0365
20311TIP3    H161815   0.186   5.316   3.502  0.3886 -0.8912 -1.7662
20311TIP3    H261816   0.177   5.167   3.475 -2.3879 -1.6953  2.5983
20312TIP3   OH261817   9.779   7.432   2.698 -0.1030 -0.3403  0.2050
20312TIP3    H161818   9.702   7.477   2.733  0.5957 -0.5565  2.1288
20312TIP3    H261819   9.743   7.374   2.631 -1.4218  0.5987  0.0379
20313TIP3   OH261820   8.416   2.504   6.180 -0.3574  0.0877  0.1961
20313TIP3    H161821   8.358   2.580   6.188  1.3950  1.5999 -0.5335
20313TIP3    H261822   8.436   2.479   6.270  1.1416  2.2469  0.5254
20314TIP3   OH261823   7.577  10.703   2.696  0.2194 -0.2539  0.2247
20314TIP3    H161824   7.643  10.662   2.640  0.2175 -0.0569  0.0761
20314TIP3    H261825   7.624  10.774   2.740  0.0278  0.0928 -0.1264
20315TIP3   OH261826   0.323   9.500  10.421 -0.5136  0.2828  0.7465
20315TIP3    H161827   0.333   9.406  10.410  0.5618  0.6179 -1.5355
20315TIP3    H261828   0.410   9.531  10.444 -0.3401  0.9662 -0.7382
20316TIP3   OH261829   0.078  10.647   8.154  0.0403  0.2970 -0.2008
20316TIP3    H161830   0.121  10.728   8.126  2.8068 -0.7401  0.7179
20316TIP3    H261831   0.040  10.667   8.239 -3.3670  1.8149 -1.8860
20317TIP3   OH261832   3.753   6.861   9.258 -0.1497 -0.2754  0.6035
20317TIP3    H161833   3.750   6.770   9.289 -0.6812 -0.0860  1.1370
20317TIP3    H261834   3.795   6.909   9.330  0.7130 -0.1874  0.0636
20318TIP3   OH261835   6.323  10.010   0.469  0.5353  0.1585 -0.2106
20318TIP3    H161836   6.323  10.043   0.380 -0.6385  2.9876  0.7398
20318TIP3    H261837   6.242   9.960   0.477 -1.1158  2.6990  0.0994
20319TIP3   OH261838   0.724  10.194  10.148 -0.3977  0.3243 -0.1312
20319TIP3    H161839   0.706  10.102  10.170 -0.8762 -0.0110 -1.7901
20319TIP3    H261840   0.655  10.218  10.086  0.0045  1.6660 -0.0954
20320TIP3   OH261841   6.634   5.244   9.415  0.1019  0.1299  0.0068
20320TIP3    H161842   6.699   5.281   9.475 -0.1873 -1.3232  1.2625
20320TIP3    H261843   6.673   5.253   9.329  1.2416  0.7811  0.5745
20321TIP3   OH261844   9.965   7.182   6.154  0.0452 -0.2611  0.2676
20321TIP3    H161845  10.036   7.204   6.214  0.5832  0.5064 -0.6235
20321TIP3    H261846  10.009   7.158   6.072 -0.6491 -1.7524  0.2980
20322TIP3   OH261847   4.040   4.764   6.395 -0.6912 -0.3025 -0.0453
20322TIP3    H161848   4.066   4.676   6.423 -0.1392 -0.2005 -0.2058
20322TIP3    H261849   4.093   4.779   6.316 -1.2719 -0.0871 -0.3968
20323TIP3   OH261850   9.539   5.336   7.119  0.1935  0.1029 -0.3030
20323TIP3    H161851   9.498   5.251   7.102 -0.3561  0.3388 -0.1711
20323TIP3    H261852   9.548   5.376   7.032 -0.8609  0.5059 -0.2353
20324TIP3   OH261853   3.430   2.920   9.474  0.6933  0.1808 -0.7247
20324TIP3    H161854   3.464   2.896   9.560 -1.7641  0.1900  0.3405
20324TIP3    H261855   3.390   3.006   9.487 -3.3806 -1.4614 -0.6146
20325TIP3   OH261856   2.132   3.833   4.900  0.4449 -0.1460  0.1867
20325TIP3    H161857   2.153   3.923   4.875  0.8905 -0.2581  0.1437
20325TIP3    H261858   2.210   3.783   4.875  0.4779 -0.4299  0.8484
20326TIP3   OH261859   6.841   5.977   4.062  0.4836 -0.4079  0.1659
20326TIP3    H161860   6.851   5.950   4.153  1.2221  1.1647  0.5783
20326TIP3    H261861   6.833   6.072   4.065  0.8511 -0.2866 -1.4424
20327TIP3   OH261862  10.752   7.461   4.986 -0.2944  0.0059 -0.1890
20327TIP3    H161863  10.773   7.370   5.008 -2.0965 -0.2544  0.6078
20327TIP3    H261864  10.785   7.511   5.061 -0.3456 -0.1239 -0.0780
20328TIP3   OH261865   9.867   3.941   6.094  0.1306  0.5230 -0.4594
20328TIP3    H161866   9.935   3.952   6.160  1.6290 -0.2121 -1.8327
20328TIP3    H261867   9.832   3.854   6.110  1.3945 -0.1788 -1.4197
20329TIP3   OH261868   7.877   0.310   4.135  0.2604 -0.1221  0.7115
20329TIP3    H161869   7.908   0.347   4.053  0.4175  0.0295  0.8382
20329TIP3    H261870   7.854   0.220   4.114  1.4408 -0.4413  0.7762
20330TIP3   OH261871   0.237   6.188  10.384  0.4780 -0.6369  0.2794
20330TIP3    H161872   0.307   6.224  10.439  0.5080 -0.7848  0.3368
20330TIP3    H261873   0.268   6.101  10.360  0.8959 -0.2220 -0.7430
20331TIP3   OH261874   1.352   0.777   7.278 -0.5763  0.5900  0.4835
20331TIP3    H161875   1.318   0.692   7.303  0.6018 -0.0455  0.0107
20331TIP3    H261876   1.413   0.759   7.206  0.0262  1.7723  0.6635
20332TIP3   OH261877   4.097   3.089   8.726  0.4490  0.0998  0.0950
20332TIP3    H161878   4.111   3.182   8.710  0.6758 -0.0454 -0.5806
20332TIP3    H261879   4.156   3.068   8.798 -0.8654  0.8540  1.4440
20333TIP3   OH261880   9.580   2.356  10.049 -0.1861 -0.1354  0.3146
20333TIP3    H161881   9.545   2.266  10.049 -0.3957 -0.0584 -0.1906
20333TIP3    H261882   9.639   2.358  10.123 -0.1318 -0.7170  0.2954
20334TIP3   OH261883   2.457   0.864   6.247  0.5107  0.5113  0.4777
20334TIP3    H161884   2.479   0.848   6.155  0.9922 -0.7845  0.7991
20334TIP3    H261885   2.527   0.821   6.296 -1.7502 -2.2612  1.5358
20335TIP3   OH261886   6.855   9.828   2.775  0.1829  0.2367  0.8668
20335TIP3    H161887   6.826   9.859   2.861 -0.9295 -0.6558  0.8332
20335TIP3    H261888   6.825   9.896   2.714  0.5423  0.6252  1.1133
20336TIP3   OH261889   3.792   7.209   7.800 -0.5163  0.0068  0.3817
20336TIP3    H161890   3.708   7.195   7.845 -0.2966 -1.2669  0.4349
20336TIP3    H261891   3.775   7.279   7.738 -1.6009 -0.1676  0.4688
20337TIP3   OH261892   4.068   2.050   7.484 -0.4355 -1.5638  0.3002
20337TIP3    H161893   4.078   2.122   7.546  1.5247 -2.5775  1.2361
20337TIP3    H261894   3.991   2.003   7.514 -2.3154  0.5581 -0.8525
20338TIP3   OH261895   7.387   8.139   2.714 -0.3194  0.1512 -0.1868
20338TIP3    H161896   7.418   8.118   2.802 -0.0083  0.3012 -0.2589
20338TIP3    H261897   7.344   8.059   2.683 -1.3327  0.4062  0.4862
20339TIP3   OH261898   7.566   9.115   1.599 -0.2857  0.2562  0.2812
20339TIP3    H161899   7.598   9.100   1.688  0.1819 -0.8023 -0.0414
20339TIP3    H261900   7.486   9.064   1.593 -1.1173  1.5041  0.5374
20340TIP3   OH261901   0.101   6.805   7.595 -0.2961  0.4293  0.2020
20340TIP3    H161902   0.121   6.791   7.502 -1.3455  2.4585 -0.3902
20340TIP3    H261903   0.113   6.899   7.609 -4.5588  1.0906  0.8885
20341TIP3   OH261904   6.224   9.643   8.755 -0.2774  0.2724 -0.1799
20341TIP3    H161905   6.159   9.698   8.798 -0.2075  0.7454 -0.6640
20341TIP3    H261906   6.283   9.705   8.711  0.5936 -0.1351  0.3825
20342TIP3   OH261907   8.303   0.306   9.833 -0.3420 -0.2064  0.3626
20342TIP3    H161908   8.314   0.364   9.757  0.7293 -0.6914  0.1258
20342TIP3    H261909   8.253   0.232   9.799  3.0963 -2.1672 -0.8999
20343TIP3   OH261910   2.324   1.467   3.552 -0.2342 -0.2426 -0.3091
20343TIP3    H161911   2.334   1.523   3.475 -1.5175 -0.4331 -0.6347
20343TIP3    H261912   2.254   1.509   3.602 -0.1700 -0.7367  0.1975
20344TIP3   OH261913   9.004   2.825   4.555  0.0120  0.5255  0.4960
20344TIP3    H161914   9.091   2.839   4.518  0.0002 -0.2618  0.1467
20344TIP3    H261915   8.948   2.888   4.511  0.2101  0.3304 -0.0487
20345TIP3   OH261916   9.093   9.524   4.669  0.0591 -0.1135 -0.1283
20345TIP3    H161917   9.166   9.569   4.628  0.5547  0.0625  0.9132
20345TIP3    H261918   9.063   9.461   4.603  1.6463 -0.7458 -0.2849
20346TIP3   OH261919   3.358   6.712   2.838 -0.6513  0.2123  0.1393
20346TIP3    H161920   3.376   6.677   2.925  1.6553  1.4189  0.2161
20346TIP3    H261921   3.372   6.806   2.847 -3.9300  0.9251 -0.7304
20347TIP3   OH261922   8.619   3.613  10.316  0.1920  0.6925 -0.0937
20347TIP3    H161923   8.648   3.661  10.394  1.3024  0.3072 -0.2577
20347TIP3    H261924   8.691   3.622  10.254 -1.0744  1.8084 -1.4621
20348TIP3   OH261925   2.003   6.163   5.888  0.3836 -0.2822 -0.3479
20348TIP3    H161926   2.030   6.189   5.977  0.6081 -2.5520  0.3228
20348TIP3    H261927   1.909   6.180   5.886  0.0748 -1.6285  0.9170
20349TIP3   OH261928   6.620   0.631   7.275 -0.0959  0.1252  0.4104
20349TIP3    H161929   6.713   0.656   7.272  0.0745 -0.5338  0.0719
20349TIP3    H261930   6.573   0.713   7.260  0.4534  0.2514 -0.6952
20350TIP3   OH261931   2.600   8.121  10.047  0.2437 -0.6700  0.5294
20350TIP3    H161932   2.685   8.139  10.008  0.2611 -0.8226  0.4935
20350TIP3    H261933   2.611   8.033  10.086 -0.2577 -1.1981 -0.4973
20351TIP3   OH261934   3.648  10.233  10.372 -0.0652  0.4731 -0.1767
20351TIP3    H161935   3.686  10.147  10.356 -1.1838 -0.6024  2.4000
20351TIP3    H261936   3.701  10.293  10.318  0.6566 -1.7863 -2.1515
20352TIP3   OH261937   4.994   0.745   6.552 -0.3535  0.0996 -0.0715
20352TIP3    H161938   5.083   0.712   6.567 -1.5034 -2.6973  1.3385
20352TIP3    H261939   4.974   0.798   6.629  0.2429  1.1222 -0.6140
20353TIP3   OH261940   6.517   3.490   6.737 -0.1674  0.4755  0.1089
20353TIP3    H161941   6.582   3.420   6.739  0.1191  0.6942 -0.7965
20353TIP3    H261942   6.433   3.445   6.746  0.0356  0.0377 -0.1321
20354TIP3   OH261943  10.248   3.636   6.463  0.7832  0.1327  0.3528
20354TIP3    H161944  10.303   3.714   6.460 -0.0384  0.7424  0.6563
20354TIP3    H261945  10.172   3.663   6.515  1.2952 -1.4002  2.0062
20355TIP3   OH261946   4.952   5.713   5.871  0.0571  0.0405  0.2345
20355TIP3    H161947   4.876   5.693   5.817  0.6260  1.2912 -1.0877
20355TIP3    H261948   5.007   5.770   5.817  2.1186 -1.0888  1.0081
20356TIP3   OH261949   9.716   8.343   4.619 -0.4039  0.0437  0.6448
20356TIP3    H161950   9.629   8.325   4.656 -0.8049 -0.6435 -0.5567
20356TIP3    H261951   9.697   8.386   4.535  0.3852 -0.7325  0.0558
20357TIP3   OH261952   5.789   4.579   0.410 -0.4345  0.5950 -0.1751
20357TIP3    H161953   5.863   4.538   0.365 -0.4757 -2.5680  2.2865
20357TIP3    H261954   5.826   4.610   0.493 -1.4877  0.8245  0.2194
20358TIP3   OH261955   7.828   7.551   0.720 -0.1220 -0.5455  0.6246
20358TIP3    H161956   7.813   7.467   0.763 -1.1434 -1.6633 -1.7012
20358TIP3    H261957   7.789   7.541   0.633 -0.2155  2.3330  0.2161
20359TIP3   OH261958  10.253   8.834  10.419 -0.1715  0.5285 -0.5720
20359TIP3    H161959  10.269   8.888  10.497  0.2430  0.0665 -0.3314
20359TIP3    H261960  10.328   8.774  10.416 -2.0168 -2.0399  0.8412
20360TIP3   OH261961   1.601   7.534   1.447  0.3386 -0.3286 -0.0996
20360TIP3    H161962   1.548   7.521   1.526 -0.5372  0.8435 -0.4665
20360TIP3    H261963   1.555   7.603   1.399  0.8133 -1.0758 -1.6803
20361TIP3   OH261964   9.223  10.796   1.012  0.3084 -0.5721  0.0126
20361TIP3    H161965   9.273  10.715   1.013 -0.9632 -1.3751  0.3591
20361TIP3    H261966   9.146  10.777   0.959  1.5624  1.4262 -2.7749
20362TIP3   OH261967   3.015   7.067   9.692  0.1967 -0.0471  0.5443
20362TIP3    H161968   2.969   7.149   9.672  0.3423 -0.1025 -0.0599
20362TIP3    H261969   2.949   7.011   9.732 -0.4493 -0.3339 -0.8369
20363TIP3   OH261970   4.989   8.658   5.022 -0.2925 -0.1420  0.4358
20363TIP3    H161971   4.963   8.663   4.930 -1.9026 -1.5695  0.7713
20363TIP3    H261972   5.031   8.742   5.040 -2.7920  1.4637 -0.7453
20364TIP3   OH261973   2.308   1.565   0.432 -0.3917 -0.3580 -0.3256
20364TIP3    H161974   2.328   1.488   0.485  0.3736 -0.6965 -1.0799
20364TIP3    H261975   2.278   1.631   0.495  0.1664 -0.8542  0.4770
20365TIP3   OH261976   1.336   4.729   8.642 -0.5995 -0.1048  0.4759
20365TIP3    H161977   1.319   4.637   8.623 -1.2215  0.1556 -0.2412
20365TIP3    H261978   1.250   4.766   8.663 -0.3770  0.3504  0.6028
20366TIP3   OH261979   9.462   0.354   4.339 -0.0810 -0.1833  0.0547
20366TIP3    H161980   9.392   0.419   4.342 -0.1471 -0.2575  0.1390
20366TIP3    H261981   9.465   0.327   4.247  0.3330  0.3503 -0.0894
20367TIP3   OH261982   1.621   8.938   9.137 -0.1095  0.5123  0.8334
20367TIP3    H161983   1.686   8.955   9.205  1.6509  2.8214 -1.2839
20367TIP3    H261984   1.641   9.000   9.067 -1.0721 -2.4656 -2.3764
20368TIP3   OH261985   0.935  10.267   9.117  0.1545  0.3649 -0.2737
20368TIP3    H161986   0.919  10.361   9.122  0.9586  0.4489  1.1830
20368TIP3    H261987   0.950  10.251   9.024 -0.8082  1.5204 -0.6616
20369TIP3   OH261988   3.965   9.495   3.405  0.2697  0.4526 -0.1905
20369TIP3    H161989   3.967   9.562   3.337 -0.1209 -1.6806 -2.4418
20369TIP3    H261990   3.874   9.467   3.409  0.6995 -1.0427 -0.4607
20370TIP3   OH261991   4.703   6.105   9.094  0.2128 -0.3024 -0.1139
20370TIP3    H161992   4.618   6.148   9.086 -0.3823 -1.6176 -1.4025
20370TIP3    H261993   4.709   6.081   9.186 -0.6299  0.1739  0.0814
20371TIP3   OH261994   9.003  10.469   9.535  0.6933  0.6631 -0.2214
20371TIP3    H161995   8.918  10.514   9.540  1.0216  1.3225 -0.4844
20371TIP3    H261996   9.066  10.532   9.568  1.0602  0.0877  0.1975
20372TIP3   OH261997   5.879   1.752   0.886 -0.4442  0.2366 -0.3254
20372TIP3    H161998   5.943   1.682   0.894  0.7730  0.7989 -3.6429
20372TIP3    H261999   5.892   1.806   0.964 -0.6520 -2.4861  1.7412
20373TIP3   OH262000   2.753   7.000   2.930  0.0825  0.0112 -0.4240
20373TIP3    H162001   2.768   7.054   3.007 -1.1909 -2.2338  1.5696
20373TIP3    H262002   2.696   7.053   2.874 -0.5379  1.0111  1.0861
20374TIP3   OH262003   0.172   2.849   5.590 -0.4364 -0.2854  0.2103
20374TIP3    H162004   0.144   2.863   5.681  1.3128  2.6413  0.4349
20374TIP3    H262005   0.243   2.785   5.595 -1.0501 -0.9377  0.7406
20375TIP3   OH262006   2.736   4.755   9.313 -0.9576 -0.3527  0.2245
20375TIP3    H162007   2.718   4.813   9.239  3.9498  0.5054 -0.6289
20375TIP3    H262008   2.729   4.811   9.390 -1.3609 -0.0267 -0.0442
20376TIP3   OH262009   7.673   5.910   5.773  0.2698 -0.1604  0.2557
20376TIP3    H162010   7.686   5.876   5.862  0.6883 -1.9735 -0.4466
20376TIP3    H262011   7.759   5.941   5.746  0.5818 -1.3330 -0.1601
20377TIP3   OH262012   9.269   2.393   8.383  0.0517  0.0464 -0.0560
20377TIP3    H162013   9.278   2.347   8.299 -1.9905  1.3739 -1.0934
20377TIP3    H262014   9.183   2.366   8.416  0.5591  0.0387  1.3414
20378TIP3   OH262015   9.591   7.919   6.426  0.1891 -0.3006 -1.0804
20378TIP3    H162016   9.631   7.935   6.340 -1.5189  0.0609 -1.8461
20378TIP3    H262017   9.533   7.844   6.411 -1.5747  0.9372 -0.7738
20379TIP3   OH262018   0.814   8.653   6.911  0.3626 -0.0399  0.2269
20379TIP3    H162019   0.766   8.572   6.898 -0.4949  0.1996  1.7164
20379TIP3    H262020   0.825   8.660   7.006  2.6255  0.3343 -0.0054
20380TIP3   OH262021   7.701   8.228   4.651  0.1624  0.3459 -0.7041
20380TIP3    H162022   7.776   8.198   4.598  0.8156 -2.3105  1.4796
20380TIP3    H262023   7.722   8.318   4.673  3.0020 -0.4029  0.1394
20381TIP3   OH262024   6.248   0.762   3.266  0.0262  0.0341  0.0598
20381TIP3    H162025   6.270   0.689   3.208 -0.7224  0.0496 -0.2584
20381TIP3    H262026   6.319   0.825   3.254  0.0119 -0.0807 -0.6383
20382TIP3   OH262027   1.762  10.568   8.291 -0.7548 -0.5189  0.3123
20382TIP3    H162028   1.814  10.533   8.364 -0.4581  0.0015  0.3544
20382TIP3    H262029   1.798  10.525   8.213  0.0230  0.1318  0.2935
20383TIP3   OH262030   3.816   1.946  10.823 -0.3033 -0.7843  0.5024
20383TIP3    H162031   3.791   2.030  10.862 -0.3851  0.6141 -2.2993
20383TIP3    H262032   3.908   1.958  10.798 -0.4482 -1.3470 -0.3306
20384TIP3   OH262033  10.086   9.687   6.091 -0.0057 -0.3506 -0.5524
20384TIP3    H162034  10.044   9.720   6.011 -0.8265 -1.5741 -0.6582
20384TIP3    H262035  10.014   9.646   6.140  0.7225 -0.7292  0.2186
20385TIP3   OH262036  10.100   6.960   7.001  0.4175  0.3924  0.3151
20385TIP3    H162037  10.065   7.041   7.038  1.0316 -0.0380  1.9173
20385TIP3    H262038  10.195   6.973   7.002  0.4627  0.6889 -1.9684
20386TIP3   OH262039   6.743   9.160   8.058 -0.3413  0.4207 -0.0566
20386TIP3    H162040   6.813   9.225   8.051 -0.2209  0.4044  0.9341
20386TIP3    H262041   6.760   9.116   8.141  0.1842 -1.5874 -1.1671
20387TIP3   OH262042   0.969   1.184   6.866  0.6163  0.1437  0.1365
20387TIP3    H162043   1.005   1.151   6.949  2.4573  1.0514 -0.2326
20387TIP3    H262044   0.983   1.113   6.804 -0.9991 -0.6377  0.6155
20388TIP3   OH262045   2.607   9.074   8.874 -0.2957  0.2899 -0.1323
20388TIP3    H162046   2.701   9.062   8.888 -0.1560  1.0756 -0.3869
20388TIP3    H262047   2.577   8.990   8.838  0.0196 -0.5023  1.3378
20389TIP3   OH262048   9.552   7.301   7.426  0.5153  0.2850 -0.2333
20389TIP3    H162049   9.502   7.288   7.507  2.2718  0.1825  0.9054
20389TIP3    H262050   9.505   7.250   7.360  0.8062 -2.5093  1.5118
20390TIP3   OH262051   2.630   5.475   8.100 -0.7333  0.0736  0.2558
20390TIP3    H162052   2.652   5.385   8.122 -0.9188  0.3145  1.4734
20390TIP3    H262053   2.550   5.468   8.047  0.5309 -0.5991 -1.6497
20391TIP3   OH262054   3.803   4.832   9.059  0.2084  0.5981 -0.0133
20391TIP3    H162055   3.874   4.805   9.117 -0.5904 -0.7330  0.3933
20391TIP3    H262056   3.724   4.828   9.114 -0.2448  1.6533 -0.5616
20392TIP3   OH262057   6.415   4.543   5.319  0.2368  0.0115 -0.4438
20392TIP3    H162058   6.346   4.537   5.252  1.4409 -0.5521 -1.6712
20392TIP3    H262059   6.494   4.511   5.276  0.8753 -1.2995  1.5514
20393TIP3   OH262060   5.297   2.686   4.358  0.1009 -0.6574  0.1228
20393TIP3    H162061   5.386   2.709   4.330 -0.2710 -0.0103 -0.5715
20393TIP3    H262062   5.302   2.593   4.380  1.6219 -0.0332  2.8276
20394TIP3   OH262063  10.326   8.546  10.400 -0.3089  0.2723  0.2039
20394TIP3    H162064  10.349   8.482  10.467  0.6620 -0.3349 -0.6664
20394TIP3    H262065  10.238   8.575  10.423  0.1421  0.3947  1.9539
20395TIP3   OH262066   8.907   6.069  10.004 -0.3032  0.5743  0.5599
20395TIP3    H162067   8.947   5.982  10.000 -0.9068  0.3241 -0.6919
20395TIP3    H262068   8.869   6.075  10.091  1.6444  0.4722  1.4630
20396TIP3   OH262069   1.399   1.711   9.869 -0.4233 -0.2315 -0.1422
20396TIP3    H162070   1.485   1.671   9.875  1.1623  2.9513  0.2362
20396TIP3    H262071   1.382   1.747   9.956 -3.7761 -3.5518  0.8448
20397TIP3   OH262072   8.477   7.935   6.681  0.1981  0.1733  0.2105
20397TIP3    H162073   8.525   8.003   6.728 -2.3251  0.4397  2.6207
20397TIP3    H262074   8.522   7.929   6.596  2.4981  2.5113  1.1221
20398TIP3   OH262075   5.230   3.902   7.432 -0.4140  0.6387 -0.0177
20398TIP3    H162076   5.280   3.957   7.372 -0.1776  0.0123 -0.3992
20398TIP3    H262077   5.271   3.816   7.426 -2.1861 -0.1934 -1.1795
20399TIP3   OH262078   2.934   4.761   4.569 -0.3276  0.4815 -0.3074
20399TIP3    H162079   2.920   4.748   4.663  4.0809  1.3073  0.6725
20399TIP3    H262080   2.910   4.853   4.555 -3.2147 -0.2365 -0.6323
20400TIP3   OH262081   1.154  10.540   2.661  0.0391  0.1347  0.1052
20400TIP3    H162082   1.168  10.480   2.588 -0.8473 -2.3406  1.8049
20400TIP3    H262083   1.240  10.552   2.700 -0.0185 -1.9528  1.0326
20401TIP3   OH262084   7.363   6.328   0.088  0.0136 -1.1382 -0.5643
20401TIP3    H162085   7.305   6.376   0.147  0.0807 -1.4516 -0.2341
20401TIP3    H262086   7.307   6.260   0.050 -0.2199 -0.4547 -1.4606
20402TIP3   OH262087   5.638   8.022  10.169  0.0980  0.2050  0.2100
20402TIP3    H162088   5.680   8.046  10.087  0.9492 -2.6819 -0.3024
20402TIP3    H262089   5.562   8.079  10.175  0.8011  1.4523 -1.8518
20403TIP3   OH262090   0.965   8.454   5.801  0.2779 -0.1870  0.8501
20403TIP3    H162091   0.956   8.371   5.753  1.3002  0.0049  0.2842
20403TIP3    H262092   0.883   8.463   5.850 -0.8405 -0.3686 -0.9038
20404TIP3   OH262093   4.636  10.138   8.308  0.4462 -0.0982 -0.2061
20404TIP3    H162094   4.565  10.106   8.364  0.6975  1.4281  1.0296
20404TIP3    H262095   4.628  10.233   8.311  2.8176  0.1267  0.3575
20405TIP3   OH262096  10.760   6.893  10.162  0.0285  0.3208  0.2620
20405TIP3    H162097  10.768   6.800  10.141 -1.7128 -0.1893  1.6116
20405TIP3    H262098  10.789   6.900  10.252 -1.0320  0.8325  0.5851
20406TIP3   OH262099   9.893   2.408   5.912  0.2225 -0.5912 -0.1543
20406TIP3    H162100   9.870   2.483   5.857  0.0589  0.5058  1.3235
20406TIP3    H262101   9.863   2.331   5.864  0.1251  0.3110 -1.5770
20407TIP3   OH262102   8.220   4.672   0.585 -0.0490 -0.2005 -0.2001
20407TIP3    H162103   8.228   4.699   0.493  1.0046 -1.6571 -0.5758
20407TIP3    H262104   8.190   4.581   0.581 -1.2633  0.1182  0.9543
20408TIP3   OH262105   3.782   2.022   5.213 -0.5428  0.3258  0.4414
20408TIP3    H162106   3.796   2.117   5.210 -0.9550  0.3794 -2.1488
20408TIP3    H262107   3.689   2.011   5.194 -0.2939 -0.6299 -0.2820
20409TIP3   OH262108   7.586  10.426   4.718  0.8622  0.5489  0.1959
20409TIP3    H162109   7.516  10.368   4.748  0.9068 -1.1550 -2.6567
20409TIP3    H262110   7.667  10.381   4.742  0.9418  0.8063  0.4183
20410TIP3   OH262111   8.388   4.797   2.619  0.1569  0.4882 -0.7989
20410TIP3    H162112   8.358   4.797   2.710  1.3345  0.0175 -0.3996
20410TIP3    H262113   8.315   4.758   2.571 -0.3894  0.5257 -0.0319
20411TIP3   OH262114   1.847   4.927   5.909  0.0808  0.1635  0.0317
20411TIP3    H162115   1.785   4.972   5.966 -0.7686 -1.8761  0.8051
20411TIP3    H262116   1.921   4.988   5.901 -2.0000  2.7134 -1.0374
20412TIP3   OH262117   9.741   0.357   0.705  0.1261 -0.3141  0.0840
20412TIP3    H162118   9.799   0.429   0.678 -1.2713  0.3874 -1.1769
20412TIP3    H262119   9.684   0.396   0.771 -1.0363 -0.0524 -1.0398
20413TIP3   OH262120   8.671   3.344   3.482  0.9312 -0.4232  0.5971
20413TIP3    H162121   8.693   3.284   3.410  1.3096 -1.2987  1.4171
20413TIP3    H262122   8.613   3.294   3.538 -0.3971  0.6976  0.2676
20414TIP3   OH262123   6.532   5.467  10.795 -0.1296  0.2582 -0.5846
20414TIP3    H162124   6.492   5.393  10.749 -3.2221  1.0555  0.5585
20414TIP3    H262125   6.547   5.532  10.726  3.0203 -1.3919 -1.6829
20415TIP3   OH262126   4.253  10.664   3.905 -0.2496 -0.3119  0.3028
20415TIP3    H162127   4.159  10.650   3.922 -1.0135  3.5205  0.1000
20415TIP3    H262128   4.289  10.686   3.990 -0.2520  1.2458 -0.0693
20416TIP3   OH262129   9.156   6.752   6.065  0.3168  0.6100  0.4601
20416TIP3    H162130   9.237   6.765   6.114  1.2803 -2.5771 -0.0267
20416TIP3    H262131   9.182   6.760   5.973 -0.0874  0.3189  0.3162
20417TIP3   OH262132   1.050   5.879  10.336  0.0253 -0.0570  0.1436
20417TIP3    H162133   1.093   5.806  10.292 -0.6382 -0.7789  0.6642
20417TIP3    H262134   0.978   5.904  10.278 -0.3496 -0.4722  0.4233
20418TIP3   OH262135   6.837   2.621   7.260 -0.3947  0.0256  1.0609
20418TIP3    H162136   6.899   2.652   7.194 -2.9662  0.9930 -1.0169
20418TIP3    H262137   6.830   2.694   7.322  0.3153 -0.0149  1.2061
20419TIP3   OH262138   8.714   7.071   7.782 -0.3428 -0.2588  0.3196
20419TIP3    H162139   8.737   7.164   7.780 -0.3063 -0.2591 -1.6454
20419TIP3    H262140   8.798   7.025   7.781 -0.3170 -0.2645 -1.7745
20420TIP3   OH262141   5.699   0.283  10.539  0.2803 -0.1115 -0.3375
20420TIP3    H162142   5.728   0.278  10.448 -0.5433 -0.5291 -0.5824
20420TIP3    H262143   5.778   0.264  10.590  1.0011  1.1975 -0.9239
20421TIP3   OH262144   8.566   5.326   0.728 -0.0327  0.4312 -0.0674
20421TIP3    H162145   8.595   5.266   0.797 -0.8511 -0.6720 -0.6556
20421TIP3    H262146   8.509   5.388   0.773 -2.3620 -1.5687 -0.0068
20422TIP3   OH262147   7.057   8.520   0.927  0.2112  0.4485  0.0105
20422TIP3    H162148   7.043   8.598   0.981  2.0655  0.5765  0.3552
20422TIP3    H262149   7.092   8.454   0.987 -1.0285 -0.5818 -0.3485
20423TIP3   OH262150   9.419   9.075   3.350 -0.2015  0.3443 -0.0746
20423TIP3    H162151   9.414   9.135   3.275 -0.7498  0.1919 -0.1625
20423TIP3    H262152   9.512   9.074   3.373 -0.3154  2.1668  0.6746
20424TIP3   OH262153   0.635   3.169   3.370 -0.2170 -0.1136  0.0077
20424TIP3    H162154   0.641   3.088   3.421 -0.2829  1.0057  1.9035
20424TIP3    H262155   0.626   3.140   3.280 -1.1125 -2.2273  0.7108
20425TIP3   OH262156   5.399   4.105  10.441 -0.2205 -0.1254  0.2621
20425TIP3    H162157   5.384   4.094  10.535 -0.2544  0.5027  0.3354
20425TIP3    H262158   5.349   4.034  10.400  0.1210 -0.6538  0.7354
20426TIP3   OH262159   8.376   7.835   6.057  0.0616 -0.5290  0.4185
20426TIP3    H162160   8.375   7.767   5.989 -0.0766  1.6317 -1.8682
20426TIP3    H262161   8.296   7.819   6.107 -1.2946 -0.6376 -1.6395
20427TIP3   OH262162   7.754   0.405   4.510 -0.3002 -0.0112 -0.4064
20427TIP3    H162163   7.684   0.384   4.573  0.1331 -1.4788 -0.3739
20427TIP3    H262164   7.709   0.453   4.440 -1.0806  0.2943  0.2806
20428TIP3   OH262165   7.289   7.726   8.831  0.6962 -0.2028 -0.1719
20428TIP3    H162166   7.351   7.772   8.888  0.1228  0.6922 -0.2440
20428TIP3    H262167   7.203   7.744   8.869  0.2550  0.8416 -1.5548
20429TIP3   OH262168  10.746   1.705   0.113  0.0390  0.9460 -0.1670
20429TIP3    H162169  10.695   1.786   0.109 -1.2524  0.1839  0.2614
20429TIP3    H262170  10.803   1.709   0.037  0.2772  2.4380  0.0600
20430TIP3   OH262171   8.166   2.724  10.309 -0.0368 -0.2060 -0.2208
20430TIP3    H162172   8.153   2.650  10.367  0.5280  0.5805  0.9507
20430TIP3    H262173   8.078   2.748  10.280 -0.3859 -0.2966  0.7324
20431TIP3   OH262174   2.369   8.454   3.000  0.3489  0.5321 -0.4051
20431TIP3    H162175   2.316   8.534   3.005  0.8480  0.9023 -0.9799
20431TIP3    H262176   2.424   8.457   3.078 -1.0580 -0.2986  0.6812
20432TIP3   OH262177   4.415   1.166   8.563  0.0363 -0.3299  0.5527
20432TIP3    H162178   4.500   1.211   8.556  0.6146 -1.5614 -0.9625
20432TIP3    H262179   4.400   1.131   8.475 -1.4741 -1.1762  1.1224
20433TIP3   OH262180   5.874   6.218   2.585 -0.1240  0.2570 -0.0601
20433TIP3    H162181   5.912   6.135   2.557  1.3470  0.3005  1.6044
20433TIP3    H262182   5.875   6.273   2.507 -1.0353 -1.2186 -1.1649
20434TIP3   OH262183   7.679   4.574   7.403 -0.4708 -0.1335  0.1634
20434TIP3    H162184   7.670   4.479   7.402 -0.3227 -0.1539  0.6108
20434TIP3    H262185   7.593   4.607   7.427 -0.6481 -0.1315 -0.4489
20435TIP3   OH262186   8.436   6.653   5.004 -0.3255  0.5696  0.5819
20435TIP3    H162187   8.431   6.747   5.021  0.3096  0.6186  0.5263
20435TIP3    H262188   8.500   6.644   4.934 -1.8240  0.2510 -0.7949
20436TIP3   OH262189   0.049   0.203   9.451  0.0167  0.1214  0.3967
20436TIP3    H162190   0.129   0.247   9.420 -0.3757  1.8386  1.6567
20436TIP3    H262191   0.080   0.124   9.494  0.9971  0.5187  0.4453
20437TIP3   OH262192   2.056   9.822   3.257  0.5236 -0.2590  0.1694
20437TIP3    H162193   1.961   9.823   3.266  0.5508 -0.2081  0.4523
20437TIP3    H262194   2.079   9.911   3.231  0.6774  0.2946  2.0525
20438TIP3   OH262195   7.275   6.011   0.032  0.1397  0.6631  0.0436
20438TIP3    H162196   7.272   6.001   0.127  2.2339 -1.6119 -0.0370
20438TIP3    H262197   7.184   6.017   0.005 -0.5475  0.0948  2.0989
20439TIP3   OH262198   6.350   9.275   9.190 -0.4905 -0.0743  0.2157
20439TIP3    H162199   6.375   9.309   9.276 -1.9895  0.0545  0.6224
20439TIP3    H262200   6.274   9.326   9.164  1.1613  1.3863 -2.2193
20440TIP3   OH262201  10.780   5.100   3.479 -0.2366 -0.3653 -0.1227
20440TIP3    H162202  10.848   5.099   3.547  0.3589  0.5006 -0.6739
20440TIP3    H262203  10.826   5.077   3.399 -0.4888  0.6504 -0.5780
20441TIP3   OH262204   2.907   8.204   6.647  0.0594 -0.1893 -0.3794
20441TIP3    H162205   2.944   8.245   6.569 -0.9928 -0.3261 -0.9724
20441TIP3    H262206   2.963   8.129   6.665  1.3059  0.8061  0.0109
20442TIP3   OH262207   6.162   5.575   5.242  0.3086  0.1076  0.1773
20442TIP3    H162208   6.242   5.624   5.225  0.2258 -0.4149 -1.9371
20442TIP3    H262209   6.173   5.543   5.332  2.1768  0.5786  0.1672
20443TIP3   OH262210   5.683   0.764  10.462 -0.1010  0.4692  0.1188
20443TIP3    H162211   5.702   0.718  10.380  0.7354  0.4496  0.3191
20443TIP3    H262212   5.587   0.774  10.462 -0.1123  0.4692 -0.8543
20444TIP3   OH262213   9.796   5.997  10.270 -0.3632  0.2923 -0.0441
20444TIP3    H162214   9.729   6.035  10.326 -1.1696 -0.8173 -0.2099
20444TIP3    H262215   9.866   5.971  10.330  0.0285  1.6377  0.1075
20445TIP3   OH262216   9.821   8.185   2.037  0.1777 -0.0059  0.4379
20445TIP3    H162217   9.764   8.202   1.962  0.3382 -0.1722  0.2753
20445TIP3    H262218   9.891   8.130   2.001  0.7452  0.6561  0.5034
20446TIP3   OH262219   2.496  10.622   6.876  0.5127  0.1537  0.2862
20446TIP3    H162220   2.499  10.530   6.903  2.0998 -0.2142 -1.0005
20446TIP3    H262221   2.477  10.619   6.782 -0.4895  1.2077  0.4298
20447TIP3   OH262222   6.586   7.925   9.423 -0.3280  0.2778  0.7916
20447TIP3    H162223   6.652   7.923   9.492  1.4187 -0.0230 -0.8115
20447TIP3    H262224   6.579   7.835   9.393 -1.5704  0.2843  0.9750
20448TIP3   OH262225   2.893   7.512   7.168 -0.2496 -0.2196 -0.7970
20448TIP3    H162226   2.826   7.579   7.165 -0.8189 -0.8077 -2.6268
20448TIP3    H262227   2.950   7.538   7.240 -0.4215  2.2252 -1.4664
20449TIP3   OH262228   7.672   1.721   4.401  0.1993  0.4363 -0.5652
20449TIP3    H162229   7.645   1.641   4.446  3.4830 -1.2870 -1.2881
20449TIP3    H262230   7.639   1.792   4.455 -0.0856 -1.4734  1.9472
20450TIP3   OH262231   8.787   4.580   2.215  0.3537  0.1243 -0.4133
20450TIP3    H162232   8.805   4.644   2.284  1.5384 -1.0684  0.4440
20450TIP3    H262233   8.820   4.620   2.135  0.5927  0.8022  0.0225
20451TIP3   OH262234   1.567   1.851  10.120 -0.6355 -0.4806 -0.1235
20451TIP3    H162235   1.651   1.867  10.162 -1.0028  1.2014  0.0478
20451TIP3    H262236   1.516   1.805  10.187 -0.9285  1.4282  1.0635
20452TIP3   OH262237   3.236   0.944   5.315 -0.2790  0.1107 -0.2231
20452TIP3    H162238   3.302   1.000   5.355 -0.2278 -1.6591  2.4636
20452TIP3    H262239   3.168   1.004   5.284  0.4248  1.7283  1.2231
20453TIP3   OH262240   4.434   7.754   9.606  0.0226  0.6718 -0.1044
20453TIP3    H162241   4.490   7.700   9.549 -1.9873 -1.5870 -0.1072
20453TIP3    H262242   4.349   7.755   9.561 -0.1469  3.6573  0.0942
20454TIP3   OH262243  10.475   5.807   6.586  0.0371 -0.4775  0.0912
20454TIP3    H162244  10.552   5.765   6.624  0.3380 -0.2041 -0.2118
20454TIP3    H262245  10.481   5.788   6.493  0.8900  1.3325 -0.2674
20455TIP3   OH262246   6.896   9.754   4.694 -0.4028  0.3363  0.3941
20455TIP3    H162247   6.904   9.692   4.621 -1.5339  1.2656 -0.5679
20455TIP3    H262248   6.984   9.759   4.731  0.4757  0.6530 -1.6023
20456TIP3   OH262249   8.273   3.067   8.428  0.6970 -0.2307 -0.1307
20456TIP3    H162250   8.313   3.152   8.447  1.2108 -0.5054  0.0361
20456TIP3    H262251   8.220   3.082   8.350  1.2913  0.0990 -0.4822
20457TIP3   OH262252   2.005   7.622   7.784 -0.2185 -0.5713 -0.4821
20457TIP3    H162253   1.927   7.567   7.790  0.1854 -1.0459  0.6549
20457TIP3    H262254   2.052   7.588   7.708 -0.3752 -1.2827 -0.2691
20458TIP3   OH262255   3.148  10.780   0.620  0.1953 -0.6559 -0.2944
20458TIP3    H162256   3.234  10.768   0.661  0.4380  0.6696 -0.3572
20458TIP3    H262257   3.157  10.862   0.571 -0.5668 -1.4129 -1.7546
20459TIP3   OH262258   5.140   2.112   4.200  0.6365 -0.1928  0.0668
20459TIP3    H162259   5.170   2.118   4.291  2.9230 -0.4246 -0.6199
20459TIP3    H262260   5.046   2.095   4.208  0.9961 -1.6185  2.4125
20460TIP3   OH262261   6.233   6.553   2.078  0.4148 -0.1845 -0.6874
20460TIP3    H162262   6.307   6.494   2.093  0.1825 -0.6047 -1.1551
20460TIP3    H262263   6.268   6.622   2.022  1.0666  0.9353  1.0368
20461TIP3   OH262264   6.178   1.539   8.388  0.1658  0.1519  0.6114
20461TIP3    H162265   6.227   1.584   8.319  1.1585  0.5062  1.5350
20461TIP3    H262266   6.218   1.452   8.392 -0.2759 -0.0660  0.3531
20462TIP3   OH262267   7.560  10.534   5.720 -0.9261 -0.3242 -0.3116
20462TIP3    H162268   7.489  10.498   5.773 -1.5521 -0.8104 -1.4516
20462TIP3    H262269   7.517  10.597   5.662 -0.4896 -0.8084 -1.1833
20463TIP3   OH262270   4.719   7.779   5.793  0.4851 -0.2579  0.3288
20463TIP3    H162271   4.681   7.693   5.777  0.0285  0.2191 -1.3412
20463TIP3    H262272   4.798   7.762   5.844 -0.7954 -1.4429  2.0408
20464TIP3   OH262273   7.702   9.016   3.117 -0.2861  0.3539 -0.2095
20464TIP3    H162274   7.703   8.954   3.190 -1.1308  1.0665  0.4319
20464TIP3    H262275   7.723   9.100   3.158  1.1080  0.4749 -1.1012
20465TIP3   OH262276   0.822   0.674   1.945 -0.1938  0.2816 -0.8326
20465TIP3    H162277   0.738   0.719   1.956 -1.8247 -3.1194  3.3081
20465TIP3    H262278   0.886   0.734   1.984 -1.4659  1.0301  0.1864
20466TIP3   OH262279   2.732   4.107   6.403 -0.1220  0.0944  0.3238
20466TIP3    H162280   2.718   4.160   6.482  2.2210  0.3130  0.6638
20466TIP3    H262281   2.763   4.023   6.436 -1.4352 -0.6774 -0.3241
20467TIP3   OH262282   0.735   6.645   9.280 -0.2244  0.4794  0.6516
20467TIP3    H162283   0.655   6.693   9.299 -1.0819 -0.6072 -0.0525
20467TIP3    H262284   0.805   6.709   9.291 -1.2520  1.6676  0.4976
20468TIP3   OH262285   8.777   3.101   6.840  0.0388 -0.0476 -0.7842
20468TIP3    H162286   8.725   3.036   6.793 -0.6825  0.8534 -1.2535
20468TIP3    H262287   8.764   3.182   6.792 -1.5459  1.1573  1.5088
20469TIP3   OH262288   6.253   6.849   6.179  0.0505 -0.6480  0.2230
20469TIP3    H162289   6.173   6.849   6.126 -0.6044 -1.4298  1.1750
20469TIP3    H262290   6.315   6.798   6.127 -0.8922 -2.2719  0.6004
20470TIP3   OH262291   5.477   5.381   7.568  0.3592 -0.1082 -0.0678
20470TIP3    H162292   5.486   5.294   7.606  0.8318 -0.3111 -0.6225
20470TIP3    H262293   5.397   5.376   7.515 -0.4507  0.2575  1.0903
20471TIP3   OH262294  10.050   0.475   7.413 -0.5767 -0.2321 -0.4777
20471TIP3    H162295  10.041   0.507   7.323  1.1138  0.0570 -0.5635
20471TIP3    H262296  10.068   0.382   7.403 -1.2531 -0.3839 -0.3802
20472TIP3   OH262297   4.097   7.166   7.794 -0.3670 -0.1772 -0.6209
20472TIP3    H162298   4.134   7.097   7.738 -0.9059  0.4073 -1.7454
20472TIP3    H262299   4.012   7.185   7.754 -0.7753  0.2508  0.4332
20473TIP3   OH262300   9.779   2.317   2.812  0.3834  0.2259  0.0757
20473TIP3    H162301   9.786   2.223   2.799  1.2801  0.4578 -1.3556
20473TIP3    H262302   9.685   2.335   2.813  0.2150 -0.5604 -0.6643
20474TIP3   OH262303   8.704   2.286   6.503  0.0871  0.0331  0.3613
20474TIP3    H162304   8.704   2.262   6.595 -0.7395  1.6149  0.8181
20474TIP3    H262305   8.775   2.349   6.495  0.6085 -0.6203 -0.2486
20475TIP3   OH262306   9.650   3.527   9.634  0.1782 -0.2858  0.1433
20475TIP3    H162307   9.698   3.561   9.558 -0.2822  0.0630  0.0032
20475TIP3    H262308   9.578   3.476   9.596 -1.1433  1.3690  0.2884
20476TIP3   OH262309   5.980   7.831   3.956  0.5974  0.2756 -0.6691
20476TIP3    H162310   5.959   7.782   3.877 -0.1810  0.2994 -0.4815
20476TIP3    H262311   5.975   7.923   3.929 -2.4171  0.4116  0.0131
20477TIP3   OH262312   4.557   8.779   6.898 -0.1350 -0.2759 -0.1780
20477TIP3    H162313   4.547   8.691   6.860 -0.2894 -0.0310 -0.7163
20477TIP3    H262314   4.648   8.783   6.926  0.5496  0.2068 -2.2750
20478TIP3   OH262315   0.662   8.158   5.200  0.1510  0.0577 -0.1219
20478TIP3    H162316   0.728   8.210   5.245 -0.5048  0.5810  0.2538
20478TIP3    H262317   0.670   8.070   5.237  0.0011  0.3462  0.6013
20479TIP3   OH262318   4.469   2.969   2.222 -0.1976  0.4989 -0.0367
20479TIP3    H162319   4.525   3.034   2.179 -0.4764  0.5416 -0.3501
20479TIP3    H262320   4.474   2.990   2.315  2.3599 -1.1041  0.2718
20480TIP3   OH262321  10.598   8.066   4.772  0.3184 -0.1683  0.5886
20480TIP3    H162322  10.564   8.108   4.692  0.1327 -1.4365 -0.0104
20480TIP3    H262323  10.519   8.045   4.823  0.4008  0.0042  0.7891
20481TIP3   OH262324   7.549   8.444   6.490 -0.0271  0.2554  0.6096
20481TIP3    H162325   7.464   8.415   6.521 -1.3863  1.3408 -1.8135
20481TIP3    H262326   7.612   8.386   6.533 -2.0782 -1.4549  1.4323
20482TIP3   OH262327   8.797   9.395   9.023  0.0425 -0.0097 -0.2228
20482TIP3    H162328   8.789   9.300   9.028 -1.0397 -0.2220 -3.7281
20482TIP3    H262329   8.748   9.420   8.945 -0.5386  3.5881  1.1104
20483TIP3   OH262330   9.449   0.803   4.742 -0.1458  0.3553  0.0952
20483TIP3    H162331   9.358   0.813   4.713  0.1067 -0.3478 -1.0313
20483TIP3    H262332   9.442   0.778   4.834 -1.0950  0.4337  0.0570
20484TIP3   OH262333   0.043   1.319   7.284  0.4391  0.0366 -0.1333
20484TIP3    H162334   0.119   1.358   7.241  0.3298  0.0721 -0.2914
20484TIP3    H262335   0.076   1.291   7.370  0.5485  0.3566 -0.0725
20485TIP3   OH262336   9.950   3.210   1.860 -0.4212  0.5859 -0.6825
20485TIP3    H162337  10.023   3.151   1.877 -1.4083 -0.5414 -0.2406
20485TIP3    H262338   9.915   3.231   1.947 -1.2011  0.3468 -0.9260
20486TIP3   OH262339   0.133   1.559   6.600  1.1912 -0.4446 -0.1393
20486TIP3    H162340   0.171   1.517   6.677  0.3459  2.3717  1.9693
20486TIP3    H262341   0.048   1.517   6.589  0.1722  0.8896  2.1845
20487TIP3   OH262342   3.049   8.847  10.122 -0.4493  0.4116 -0.5763
20487TIP3    H162343   3.067   8.825  10.031 -0.0610 -0.7748 -0.2369
20487TIP3    H262344   2.999   8.772  10.155 -0.8217  0.9516  0.1159
20488TIP3   OH262345   1.969  10.334   0.403 -0.4313  0.0101  0.1374
20488TIP3    H162346   2.059  10.300   0.405  0.0132  1.1185  2.1458
20488TIP3    H262347   1.960  10.381   0.486 -2.7789  0.2099 -0.1750
20489TIP3   OH262348   3.336   5.832  10.585  0.1058 -0.0626 -0.5885
20489TIP3    H162349   3.409   5.889  10.611  0.6135 -0.4116 -1.2075
20489TIP3    H262350   3.350   5.817  10.492 -0.2488 -0.8692 -0.5197
20490TIP3   OH262351   0.115   0.380   4.525  0.9689 -0.4606  0.3287
20490TIP3    H162352   0.190   0.427   4.488  0.6792  0.3553  0.7733
20490TIP3    H262353   0.042   0.401   4.466  0.9622 -0.8446  0.1905
20491TIP3   OH262354   0.757   3.426   3.241  0.1320  0.2151  0.1481
20491TIP3    H162355   0.776   3.517   3.261  1.2779  0.3553 -1.3624
20491TIP3    H262356   0.661   3.420   3.245  0.0792  1.2969  0.9376
20492TIP3   OH262357   7.990   6.588   8.614 -0.0373  0.3483 -0.1349
20492TIP3    H162358   8.062   6.590   8.551  0.5810  1.2693  0.5771
20492TIP3    H262359   7.920   6.540   8.569  1.3232 -1.3637 -0.5158
20493TIP3   OH262360   3.381   4.424   9.514 -0.1116  0.3542 -0.6315
20493TIP3    H162361   3.403   4.507   9.471 -1.0793  0.0281 -1.8092
20493TIP3    H262362   3.287   4.430   9.529 -0.1201 -0.3818 -0.3872
20494TIP3   OH262363  10.585   1.336   0.481  0.2511  0.0161 -0.0725
20494TIP3    H162364  10.608   1.421   0.444 -1.5986  0.1815 -0.9564
20494TIP3    H262365  10.665   1.306   0.523  1.8856  0.7564 -2.4733
20495TIP3   OH262366   5.974   9.711   8.658 -0.0889  0.2373 -0.0408
20495TIP3    H162367   5.893   9.672   8.690 -0.9846  1.0185 -1.2604
20495TIP3    H262368   5.980   9.795   8.703  1.2956 -0.7751  1.7951
20496TIP3   OH262369   1.734  10.354  10.763  0.1701 -0.1554 -0.8297
20496TIP3    H162370   1.816  10.350  10.716  0.0176 -0.8379 -1.0545
20496TIP3    H262371   1.693  10.268  10.748 -0.1187 -0.1995  0.1012
20497TIP3   OH262372   1.803   1.246   7.469 -0.0974  0.5286 -0.1005
20497TIP3    H162373   1.824   1.254   7.562 -1.9442 -2.5506  0.7039
20497TIP3    H262374   1.850   1.168   7.441 -0.0624  1.0714 -1.6381
20498TIP3   OH262375   5.575   5.910   9.456  0.0796 -0.3478  0.1104
20498TIP3    H162376   5.521   5.851   9.404 -0.8500 -0.2470  0.9240
20498TIP3    H262377   5.639   5.945   9.394 -1.5167  0.4264 -1.1896
20499TIP3   OH262378  10.459   0.156   4.780  0.5693  0.1537 -0.5426
20499TIP3    H162379  10.464   0.231   4.839  1.4955  1.0118 -1.6407
20499TIP3    H262380  10.373   0.165   4.738 -0.0343 -0.3848  0.5380
20500TIP3   OH262381   4.918   6.108   1.388 -0.0369 -0.4419  0.1961
20500TIP3    H162382   4.997   6.061   1.416 -0.6327 -1.8790 -0.4469
20500TIP3    H262383   4.932   6.198   1.418  1.1335 -1.0170  1.4953
20501TIP3   OH262384   3.102   3.448   2.771 -0.1636  0.3440  0.3444
20501TIP3    H162385   3.100   3.431   2.676 -1.5617 -1.0845  0.5803
20501TIP3    H262386   3.034   3.513   2.785 -2.3811 -1.8894  0.7004
20502TIP3   OH262387   0.078   8.740  10.524  0.5637  0.6654  0.3630
20502TIP3    H162388   0.156   8.771  10.571  0.0679 -0.5957  2.1482
20502TIP3    H262389   0.023   8.817  10.516  1.7168  1.4408 -0.3698
20503TIP3   OH262390   5.189   5.583   4.255 -0.4726 -0.2803  0.5526
20503TIP3    H162391   5.223   5.539   4.333  0.5738 -0.4719  0.0161
20503TIP3    H262392   5.157   5.667   4.287  1.2420  0.2436  1.0038
20504TIP3   OH262393   9.719   6.194   3.117 -0.2109 -0.1159  0.5348
20504TIP3    H162394   9.663   6.270   3.102  1.3135  0.9447  0.0481
20504TIP3    H262395   9.800   6.214   3.072  0.5165 -1.7092  1.0535
20505TIP3   OH262396   6.735   0.109   6.184 -0.2221 -0.2835  0.0495
20505TIP3    H162397   6.708   0.041   6.246 -0.3362  0.4148  0.7927
20505TIP3    H262398   6.771   0.178   6.239 -0.8282  0.5877 -0.6224
20506TIP3   OH262399   4.569   7.479   2.988 -0.0477 -0.4897  0.4934
20506TIP3    H162400   4.503   7.415   2.962 -0.3795 -0.7263  1.8537
20506TIP3    H262401   4.593   7.454   3.078 -0.5203  1.5597  1.2248
20507TIP3   OH262402   6.981   8.286   7.410 -0.1173 -0.5198 -0.3488
20507TIP3    H162403   7.072   8.293   7.381  0.1381 -0.1163  0.5095
20507TIP3    H262404   6.931   8.330   7.342  0.4457  0.2049 -0.3078
20508TIP3   OH262405   8.665   4.988   2.617 -0.2415  0.3773 -0.0769
20508TIP3    H162406   8.681   4.957   2.707 -1.7641  3.5630  1.4281
20508TIP3    H262407   8.570   4.981   2.606 -0.2892  1.8053 -0.7057
20509TIP3   OH262408   4.574  10.669   4.885  0.2048 -0.1958  0.6462
20509TIP3    H162409   4.482  10.696   4.885  0.3379  0.2647  0.2277
20509TIP3    H262410   4.572  10.578   4.857  0.0524  0.4671 -1.6831
20510TIP3   OH262411  10.057   9.939   2.647 -0.3044  0.7393  0.0780
20510TIP3    H162412  10.020   9.872   2.590 -0.5685  0.2538  0.8112
20510TIP3    H262413  10.049   9.903   2.735  0.2619  1.4040  0.4105
20511TIP3   OH262414   2.414   5.726   6.305  0.3797  0.4381 -0.0487
20511TIP3    H162415   2.444   5.793   6.243  0.3877 -0.3881 -0.9713
20511TIP3    H262416   2.404   5.647   6.251 -1.4689  0.1629  0.6253
20512TIP3   OH262417   2.773  10.084   9.305 -0.6026 -0.0483  0.6246
20512TIP3    H162418   2.743  10.090   9.214 -1.3734 -1.0927  0.7862
20512TIP3    H262419   2.817  10.167   9.322  1.2948 -0.5520 -1.3326
20513TIP3   OH262420   0.473   2.982   4.366 -0.3598  0.0338 -0.3369
20513TIP3    H162421   0.409   2.930   4.317 -0.6264  0.1074 -0.0658
20513TIP3    H262422   0.439   2.985   4.455 -1.7121  2.7659 -0.8135
20514TIP3   OH262423   7.787   7.877   8.371 -0.0867 -0.4573  0.1362
20514TIP3    H162424   7.833   7.817   8.311  1.5046 -0.9418  1.7590
20514TIP3    H262425   7.822   7.963   8.350  1.0533 -0.7283  0.8552
20515TIP3   OH262426   5.841   6.755   4.818 -0.3100  0.0549  0.5054
20515TIP3    H162427   5.922   6.708   4.797 -1.2097 -1.1463 -0.3984
20515TIP3    H262428   5.851   6.839   4.774  1.3651  0.8365  2.2232
20516TIP3   OH262429   8.285   9.093   6.266  0.1267  0.0608  0.4166
20516TIP3    H162430   8.290   9.032   6.339 -0.4297  0.5526  0.8706
20516TIP3    H262431   8.265   9.178   6.306 -0.1633  0.3405 -0.3003
20517TIP3   OH262432   9.447   6.275   5.029  0.4375 -0.1427  0.1098
20517TIP3    H162433   9.399   6.215   4.972 -1.3954  0.2303  1.1929
20517TIP3    H262434   9.429   6.244   5.117 -2.3724  3.1270  0.8746
20518TIP3   OH262435   2.660   8.037   6.537 -0.1128 -0.1475  0.1706
20518TIP3    H162436   2.645   7.943   6.523 -0.0755  0.0878 -1.7118
20518TIP3    H262437   2.755   8.045   6.550  0.0107 -0.2919 -0.5832
20519TIP3   OH262438   3.237   7.253   3.419 -0.0347 -0.3301 -0.1112
20519TIP3    H162439   3.149   7.215   3.415  0.4934 -1.5349 -1.2005
20519TIP3    H262440   3.288   7.189   3.468  0.5918 -0.4269 -0.8748
20520TIP3   OH262441   7.887   3.829   6.323  0.6790  0.4173 -0.0384
20520TIP3    H162442   7.844   3.765   6.265  0.2991  0.6782 -0.0507
20520TIP3    H262443   7.910   3.779   6.401  0.6192  0.2040 -0.1558
20521TIP3   OH262444   9.063   3.802   9.346  0.4640  0.4506 -0.0639
20521TIP3    H162445   9.111   3.725   9.317 -2.4718 -2.1110  1.2602
20521TIP3    H262446   9.117   3.876   9.319  4.3905 -2.0429  0.2417
20522TIP3   OH262447  10.694   6.668   0.732  0.3552 -0.1878 -0.1591
20522TIP3    H162448  10.728   6.636   0.816  0.4088 -0.6120 -0.3393
20522TIP3    H262449  10.635   6.598   0.702 -0.3715  0.3585 -0.0440
20523TIP3   OH262450   6.719   9.618   1.333  0.1751  0.1353  0.6964
20523TIP3    H162451   6.666   9.539   1.349 -0.7758  0.4751 -0.6792
20523TIP3    H262452   6.688   9.651   1.249  1.1826  1.4987  0.8424
20524TIP3   OH262453   2.639   2.919   8.017  0.4037  0.3569  0.1034
20524TIP3    H162454   2.655   3.013   8.029 -0.6925  0.8264 -1.7503
20524TIP3    H262455   2.553   2.904   8.057 -0.8996  0.8720 -2.3124
20525TIP3   OH262456   2.829   3.193   7.639 -0.0631  0.2321 -0.6060
20525TIP3    H162457   2.768   3.164   7.571  0.3975 -0.8245 -0.5892
20525TIP3    H262458   2.824   3.126   7.707  1.9397 -0.5192 -1.1208
20526TIP3   OH262459   2.225   5.929   9.009 -0.2698 -0.0293 -0.0504
20526TIP3    H162460   2.240   6.014   8.968 -1.1295 -0.6275 -1.7000
20526TIP3    H262461   2.242   5.944   9.102 -0.3657  1.9302 -0.3037
20527TIP3   OH262462   8.092   2.671   5.244 -0.2527  0.2260 -0.4070
20527TIP3    H162463   8.007   2.713   5.232 -0.5325  0.0846  0.8750
20527TIP3    H262464   8.148   2.741   5.278 -0.4347 -0.1444  0.7174
20528TIP3   OH262465   5.031   4.220   7.148 -0.0204  0.3375 -0.5107
20528TIP3    H162466   5.054   4.287   7.083  1.4354  1.7041  1.2981
20528TIP3    H262467   5.101   4.224   7.213  0.3982 -3.3301 -0.5157
20529TIP3   OH262468   1.100   1.076   3.928  0.2812 -0.1480  0.2855
20529TIP3    H162469   1.168   1.092   3.993  0.4923  2.5870 -0.4843
20529TIP3    H262470   1.146   1.035   3.855  0.4090 -1.4705  1.0901
20530TIP3   OH262471   4.846   1.314   2.871 -0.1389  0.6831 -0.4250
20530TIP3    H162472   4.899   1.381   2.828 -1.7357  0.8660 -2.2611
20530TIP3    H262473   4.824   1.253   2.801  0.1417 -1.0477  0.9321
20531TIP3   OH262474   8.145   9.995   9.694 -0.1359 -0.3662 -0.0234
20531TIP3    H162475   8.061  10.006   9.739  1.3527  0.7192  2.7631
20531TIP3    H262476   8.122   9.985   9.602 -3.2219  1.9381  0.3354
20532TIP3   OH262477   6.829   3.627   2.436 -0.8201  0.5961 -0.0517
20532TIP3    H162478   6.898   3.668   2.384 -1.2621  1.8737  0.3343
20532TIP3    H262479   6.842   3.533   2.423  1.5526  0.7487  0.7128
20533TIP3   OH262480   5.620   4.158   0.216  0.2755 -0.1462 -1.0347
20533TIP3    H162481   5.639   4.169   0.123 -1.0859 -1.1250 -1.4630
20533TIP3    H262482   5.525   4.167   0.222  0.3735  0.1606  0.3078
20534TIP3   OH262483   2.586   5.444   0.564 -0.1190 -0.2401  0.6202
20534TIP3    H162484   2.609   5.417   0.475 -2.3067 -1.5322  0.3697
20534TIP3    H262485   2.622   5.532   0.573 -0.2142  0.0805 -1.7118
20535TIP3   OH262486   7.753   0.569   6.626 -0.3990 -0.0647  0.2208
20535TIP3    H162487   7.826   0.596   6.681  0.8611 -1.4932 -0.6931
20535TIP3    H262488   7.678   0.618   6.660  1.2996  2.9093  0.0279
20536TIP3   OH262489   4.679  10.771   7.311  0.0981 -0.0901  0.0750
20536TIP3    H162490   4.586  10.785   7.330 -0.2606 -1.0135 -0.9780
20536TIP3    H262491   4.717  10.750   7.396 -0.7349 -0.1468  0.4466
20537TIP3   OH262492   6.728   2.052   4.972  0.6276 -0.1009 -0.2255
20537TIP3    H162493   6.638   2.064   5.003  0.8644  1.3089  0.0091
20537TIP3    H262494   6.774   2.014   5.047  0.5248  0.4794  0.1389
20538TIP3   OH262495   3.986   3.848   0.123 -0.4090 -0.2832 -0.4170
20538TIP3    H162496   3.909   3.886   0.165 -0.6846 -2.2001  0.9329
20538TIP3    H262497   3.993   3.760   0.159  2.0747 -0.3972 -0.9436
20539TIP3   OH262498   6.240   8.811   8.646  0.5882 -0.2312  0.1323
20539TIP3    H162499   6.239   8.750   8.719  1.6713  1.3592  1.5569
20539TIP3    H262500   6.172   8.875   8.667 -0.2314 -0.6492 -1.1154
20540TIP3   OH262501   8.517   0.240   2.236 -0.0346 -0.0480 -0.3721
20540TIP3    H162502   8.568   0.289   2.300 -0.1749 -1.0763  0.5624
20540TIP3    H262503   8.426   0.251   2.263 -0.0033 -1.7161  0.5566
20541TIP3   OH262504   7.787   4.630   0.904  0.3925 -0.5885  0.7100
20541TIP3    H162505   7.822   4.626   0.993  0.8374 -0.5257  0.5385
20541TIP3    H262506   7.826   4.555   0.859 -1.4673 -1.8794  1.1395
20542TIP3   OH262507   3.832   0.015   7.371  0.4179 -0.4616 -1.0317
20542TIP3    H162508   3.827   0.064   7.289  1.2038  0.7900 -0.3665
20542TIP3    H262509   3.925   0.012   7.392  0.1412  0.8145  0.6810
20543TIP3   OH262510   5.807   8.590   3.670  0.2689  0.4259 -0.5450
20543TIP3    H162511   5.856   8.621   3.593  1.0457 -1.0643 -0.6854
20543TIP3    H262512   5.743   8.529   3.634 -0.3203  0.7912 -0.1349
20544TIP3   OH262513   2.685   2.251   0.398 -0.1510 -0.3896  0.2926
20544TIP3    H162514   2.662   2.167   0.440  1.3278  0.1953  2.4415
20544TIP3    H262515   2.780   2.258   0.408 -0.4415  2.5410  2.3050
20545TIP3   OH262516   4.046   0.717   7.052 -0.6062  0.1867 -0.1140
20545TIP3    H162517   4.053   0.812   7.056 -3.4990  0.4652  1.1678
20545TIP3    H262518   4.089   0.686   7.132 -0.4505  0.5109 -0.0722
20546TIP3   OH262519   8.866   1.749   4.485 -0.5683  0.1062  0.2105
20546TIP3    H162520   8.798   1.755   4.553 -1.4983  4.3358 -0.7988
20546TIP3    H262521   8.940   1.798   4.521  0.0458 -0.1562 -0.6753
20547TIP3   OH262522   0.342   0.625   0.396  0.0590 -0.0491 -0.3277
20547TIP3    H162523   0.325   0.637   0.303  0.1874 -0.3974 -0.3967
20547TIP3    H262524   0.318   0.709   0.436 -4.0852 -1.1137 -0.0769
20548TIP3   OH262525   6.072   6.095   8.358  0.3744 -0.0442  0.0778
20548TIP3    H162526   6.152   6.139   8.331 -0.0188  0.8382  0.3088
20548TIP3    H262527   6.079   6.008   8.320  0.6118  0.6044 -1.4844
20549TIP3   OH262528  10.350   4.789   1.070 -0.6064  0.0019  0.1045
20549TIP3    H162529  10.404   4.868   1.064 -1.3547  0.4311 -1.7884
20549TIP3    H262530  10.317   4.790   1.160  0.9743  0.7599  0.7140
20550TIP3   OH262531   0.996   9.545   9.233 -0.4306  0.3604 -0.1966
20550TIP3    H162532   1.068   9.555   9.296  0.6694  1.2362 -1.5519
20550TIP3    H262533   0.930   9.608   9.262 -0.1445  0.4063  0.3705
20551TIP3   OH262534   8.138  10.270   4.214  0.2703 -0.5294  0.0774
20551TIP3    H162535   8.214  10.217   4.189 -2.1012 -3.9841 -0.5708
20551TIP3    H262536   8.093  10.287   4.131  0.5653  1.9940  0.3813
20552TIP3   OH262537   9.728   3.865   8.321  0.4520  0.4350 -0.0261
20552TIP3    H162538   9.730   3.855   8.226 -1.9277 -0.4870 -0.0441
20552TIP3    H262539   9.753   3.779   8.355  1.1921  0.7314  0.2026
20553TIP3   OH262540   4.877   0.097   7.127 -0.0603  0.1807 -0.2388
20553TIP3    H162541   4.868   0.165   7.194  0.0506 -0.5845  0.5709
20553TIP3    H262542   4.789   0.085   7.092 -0.1268  0.5601 -0.2065
20554TIP3   OH262543   2.355   2.693   7.964 -0.1387  0.0472  0.2978
20554TIP3    H162544   2.438   2.653   7.991 -0.3945  0.3981  1.6566
20554TIP3    H262545   2.342   2.661   7.875  1.2294 -0.3762  0.2172
20555TIP3   OH262546   2.009   9.313   8.220 -0.0844 -0.2788  0.4141
20555TIP3    H162547   2.090   9.364   8.217 -0.0155 -0.3915  0.3364
20555TIP3    H262548   2.020   9.255   8.296  0.3646 -1.0429 -0.2187
20556TIP3   OH262549   2.195   3.507   4.759  0.5760  0.0539 -0.6127
20556TIP3    H162550   2.252   3.437   4.727 -0.9080 -0.3041 -2.6500
20556TIP3    H262551   2.169   3.555   4.680  0.4796  2.0923  0.5961
20557TIP3   OH262552   0.815   3.366   1.295 -0.0765  0.1256 -0.3756
20557TIP3    H162553   0.801   3.426   1.369  0.2245  1.2874 -1.2186
20557TIP3    H262554   0.907   3.341   1.301 -0.5681 -1.5030  0.8520
20558TIP3   OH262555   1.091  10.436   3.979  1.1170 -0.0282 -0.3142
20558TIP3    H162556   1.034  10.421   3.904 -1.3165  0.1834  1.3731
20558TIP3    H262557   1.109  10.349   4.014  0.4482 -0.0265  0.0647
20559TIP3   OH262558   3.823   1.849   3.656 -0.2891 -0.1556 -0.2107
20559TIP3    H162559   3.850   1.824   3.568 -0.1421 -0.4602 -0.0820
20559TIP3    H262560   3.851   1.776   3.711  1.6376  1.0164  0.4360
20560TIP3   OH262561   4.270   2.408   4.061  0.0601  0.7957 -0.4839
20560TIP3    H162562   4.359   2.409   4.096  0.0239  1.6192 -0.3874
20560TIP3    H262563   4.241   2.318   4.070 -0.6479  1.2587  3.3764
20561TIP3   OH262564   3.968   7.068   3.163  0.1332 -0.0574 -0.0488
20561TIP3    H162565   4.008   7.142   3.209  0.4499  0.0333 -0.4689
20561TIP3    H262566   3.964   7.095   3.072 -3.9360  1.3189  0.3606
20562TIP3   OH262567   9.869   6.035   5.545  0.0985 -0.0046 -0.2863
20562TIP3    H162568   9.880   6.053   5.639 -0.2782  0.0783 -0.2576
20562TIP3    H262569   9.872   6.122   5.504  0.4445 -0.0547 -0.3726
20563TIP3   OH262570  10.799   5.941   8.614 -0.5466 -0.3981  0.0272
20563TIP3    H162571  10.795   5.850   8.585  1.8786 -0.7967  0.7046
20563TIP3    H262572  10.710   5.962   8.641 -0.9950 -2.8817  0.7233
20564TIP3   OH262573  10.518   1.040   5.653 -0.1098  0.6214 -0.4347
20564TIP3    H162574  10.535   1.134   5.647  0.8592  0.3940 -1.5534
20564TIP3    H262575  10.519   1.022   5.747 -2.4955  2.0689 -0.0240
20565TIP3   OH262576   4.276   6.070   8.042 -0.6117 -0.3801  0.4539
20565TIP3    H162577   4.297   6.077   8.135  0.9816  0.0519  0.1052
20565TIP3    H262578   4.250   6.159   8.017  0.9798  0.0070  0.0747
20566TIP3   OH262579   3.166   6.048   5.796 -0.1957  0.1660 -0.4094
20566TIP3    H162580   3.131   6.098   5.870  0.8335  1.5445 -0.8025
20566TIP3    H262581   3.239   5.999   5.834 -0.0238  0.4339 -0.3876
20567TIP3   OH262582   2.596   2.969   4.837 -0.1261  0.0222  0.8140
20567TIP3    H162583   2.679   3.009   4.813 -1.2842  0.7748 -2.6113
20567TIP3    H262584   2.537   2.993   4.765 -2.7603 -2.1127  2.0921
20568TIP3   OH262585   8.334   2.858   8.275  0.3526 -0.3297 -0.1814
20568TIP3    H162586   8.372   2.903   8.200 -1.4665  0.1284 -0.8786
20568TIP3    H262587   8.342   2.921   8.347  3.1210 -1.1933  0.3657
20569TIP3   OH262588   4.733   4.697   0.581  0.1700 -0.3300  0.0603
20569TIP3    H162589   4.673   4.676   0.509  0.5591  0.2727 -0.4572
20569TIP3    H262590   4.792   4.622   0.586  0.3301 -0.2467 -0.4626
20570TIP3   OH262591  10.353   1.770   4.709 -0.1796 -0.2793 -0.5657
20570TIP3    H162592  10.418   1.828   4.750 -2.3273  1.3373  0.7549
20570TIP3    H262593  10.317   1.721   4.782  0.4926 -2.2296 -1.4820
20571TIP3   OH262594   5.550   5.137   6.509 -1.0674  0.0313  0.3879
20571TIP3    H162595   5.493   5.100   6.576 -1.8468  2.0063  0.9113
20571TIP3    H262596   5.559   5.229   6.534 -0.8376  0.6819 -1.8626
20572TIP3   OH262597   9.677   5.900   3.133 -0.0214  0.2174  0.0754
20572TIP3    H162598   9.608   5.932   3.190  0.5809  1.3613  0.1948
20572TIP3    H262599   9.692   5.972   3.071 -1.4857 -1.4066 -2.3342
20573TIP3   OH262600   9.724   1.496   7.253 -0.1784  0.9776 -0.1341
20573TIP3    H162601   9.703   1.413   7.295  0.7164  0.1242 -1.2891
20573TIP3    H262602   9.741   1.473   7.162  2.1860  2.0692 -0.0555
20574TIP3   OH262603   6.743   8.343   8.138  0.1903  0.6786 -0.1283
20574TIP3    H162604   6.666   8.333   8.081  0.1563  1.1315 -0.1649
20574TIP3    H262605   6.717   8.411   8.201  0.5682  0.8501 -0.1532
20575TIP3   OH262606   3.476   5.915   8.192 -0.4584  0.4133 -0.3863
20575TIP3    H162607   3.519   5.896   8.276 -0.5551 -0.6482 -0.5591
20575TIP3    H262608   3.443   6.004   8.201 -2.0984 -0.3068  1.4191
20576TIP3   OH262609   0.196   1.093   3.198 -0.0028 -0.1603 -0.1705
20576TIP3    H162610   0.147   1.175   3.203 -0.3065 -0.0415 -3.3587
20576TIP3    H262611   0.129   1.025   3.200  0.0803 -0.2391  0.0251
20577TIP3   OH262612   0.375   2.976   4.624  0.7378 -0.0867 -0.0589
20577TIP3    H162613   0.414   2.964   4.710  0.7560  1.1195  0.1165
20577TIP3    H262614   0.348   3.068   4.622  2.5408  0.4943 -2.0502
20578TIP3   OH262615   4.349   4.840   2.784 -0.6383 -0.9266 -0.6692
20578TIP3    H162616   4.337   4.752   2.820 -0.0058 -0.1146  1.6846
20578TIP3    H262617   4.372   4.894   2.860  0.7966  0.9205 -2.3309
20579TIP3   OH262618  10.044   8.952   9.922 -0.1393  0.8091 -0.2480
20579TIP3    H162619  10.065   9.040   9.953 -2.1774  0.6398  1.8690
20579TIP3    H262620  10.045   8.897  10.000 -1.5480 -0.4906 -1.0629
20580TIP3   OH262621   5.366   0.685   4.369  0.3316  0.4432 -0.0103
20580TIP3    H162622   5.445   0.691   4.422  1.8006 -1.3539 -1.8479
20580TIP3    H262623   5.393   0.711   4.281 -0.1792 -3.1619 -1.4330
20581TIP3   OH262624   9.909   5.611  10.344  0.6997 -0.2817  0.4488
20581TIP3    H162625   9.883   5.521  10.325  2.6847 -1.4128  2.6664
20581TIP3    H262626   9.950   5.607  10.430  1.3136  2.6822  0.3988
20582TIP3   OH262627   5.658   3.117   7.413 -0.2098  0.4228  0.1668
20582TIP3    H162628   5.592   3.070   7.364  0.6967 -1.6544  0.7966
20582TIP3    H262629   5.688   3.054   7.479  2.5471  1.1455 -0.2536
20583TIP3   OH262630   6.965   1.300  10.422  0.0992 -0.0693 -0.2714
20583TIP3    H162631   7.016   1.326  10.345  1.0414  1.0951  0.7019
20583TIP3    H262632   6.946   1.207  10.408  0.1888  0.1273 -1.9265
20584TIP3   OH262633   4.739   3.390  10.289 -0.3396  0.2677 -0.0387
20584TIP3    H162634   4.795   3.319  10.256  0.0152  0.1473  0.8094
20584TIP3    H262635   4.657   3.346  10.313 -0.9509  0.4958 -1.6054
20585TIP3   OH262636   3.445  10.777  10.142 -0.1171  0.3402 -0.3494
20585TIP3    H162637   3.451  10.756  10.235  0.3564  0.7940 -0.2719
20585TIP3    H262638   3.490  10.861  10.134  1.2606 -0.4478 -1.2432
20586TIP3   OH262639   2.125   5.478   5.789 -0.5705  0.6750  0.1849
20586TIP3    H162640   2.052   5.454   5.732 -1.1350  0.9861  0.7779
20586TIP3    H262641   2.197   5.497   5.728 -0.6055 -0.8034 -0.3667
20587TIP3   OH262642   4.011   4.872   4.274  0.0154  0.5144  0.1262
20587TIP3    H162643   3.972   4.838   4.354  2.4425  1.6196  1.8974
20587TIP3    H262644   4.049   4.956   4.299  1.2869  0.6779 -2.0730
20588TIP3   OH262645   1.988   3.579   7.476  0.0806 -0.9915 -0.2421
20588TIP3    H162646   1.924   3.648   7.491  0.4613 -0.8617  0.8913
20588TIP3    H262647   2.059   3.622   7.427  0.0137 -0.7372 -0.1174
20589TIP3   OH262648   3.885   5.115   6.548 -0.2877  0.2571 -0.2689
20589TIP3    H162649   3.858   5.025   6.533 -0.2108  0.2726 -0.4913
20589TIP3    H262650   3.856   5.162   6.470  1.0121  0.1449 -0.8299
20590TIP3   OH262651   2.438   3.353   1.364 -0.3578 -0.3074 -1.0481
20590TIP3    H162652   2.479   3.284   1.312  1.0275 -0.1823 -0.1894
20590TIP3    H262653   2.473   3.339   1.453  0.4501  1.8464 -0.9751
20591TIP3   OH262654   0.115   0.293   4.803  0.0580 -0.0791 -0.1014
20591TIP3    H162655   0.116   0.337   4.718 -1.4712  0.1594 -0.0213
20591TIP3    H262656   0.187   0.230   4.799  2.2260  2.2342 -0.3070
20592TIP3   OH262657   4.607   4.012   9.321 -0.0957  0.8086  0.3202
20592TIP3    H162658   4.569   3.990   9.236  0.7169 -0.0873  0.1785
20592TIP3    H262659   4.534   4.005   9.382 -0.3654  0.0196 -0.0823
20593TIP3   OH262660   1.400   7.559   4.157 -0.6702  0.8095 -0.3373
20593TIP3    H162661   1.363   7.647   4.167 -0.4361  0.9762 -0.8698
20593TIP3    H262662   1.338   7.512   4.102 -0.3405  0.9405 -0.8327
20594TIP3   OH262663   7.113   2.836   4.480 -0.9214  0.5025  0.2411
20594TIP3    H162664   7.151   2.922   4.460 -0.4574 -0.1366 -1.8997
20594TIP3    H262665   7.126   2.785   4.400  1.6451 -2.6316  2.3637
20595TIP3   OH262666   0.512   8.782   2.522  0.1532 -0.0573  0.2816
20595TIP3    H162667   0.576   8.803   2.589  0.0471  2.3309 -0.2635
20595TIP3    H262668   0.432   8.826   2.550 -0.1994  0.0588 -0.8350
20596TIP3   OH262669   1.134   9.107   7.023  0.1889 -0.8775  0.2618
20596TIP3    H162670   1.161   9.187   6.977 -2.5321  1.8749  2.9539
20596TIP3    H262671   1.178   9.113   7.108  0.0777 -2.4083  0.4468
20597TIP3   OH262672   7.649   7.847   2.846 -0.1944  0.1221 -0.7105
20597TIP3    H162673   7.729   7.865   2.896 -0.7718 -0.0794  0.3282
20597TIP3    H262674   7.586   7.912   2.877 -0.6311 -0.1399 -1.0368
20598TIP3   OH262675   4.107   2.921   4.767 -0.0212 -0.0605  0.0282
20598TIP3    H162676   4.102   2.898   4.859 -0.0908 -1.4146 -0.2943
20598TIP3    H262677   4.201   2.916   4.746 -0.2281 -2.3656 -0.5716
20599TIP3   OH262678   3.518   1.993   6.041  0.3065  0.3607 -0.4584
20599TIP3    H162679   3.555   2.035   5.964 -0.8761  2.1041 -0.1280
20599TIP3    H262680   3.432   2.034   6.052 -0.8858 -2.0853 -0.0247
20600TIP3   OH262681   0.560   3.459   8.657  0.5123 -0.1979  0.2958
20600TIP3    H162682   0.546   3.471   8.751  0.9397  0.8523  0.2510
20600TIP3    H262683   0.539   3.545   8.619 -0.2613 -0.7924 -0.6414
20601TIP3   OH262684   5.537   2.810   1.082  0.1271  0.4984 -0.4011
20601TIP3    H162685   5.561   2.775   0.996  1.9385  1.0876 -0.1888
20601TIP3    H262686   5.594   2.886   1.093  0.2206  0.2096  1.4799
20602TIP3   OH262687   0.321   5.253   4.179 -0.1641  0.3728 -0.0540
20602TIP3    H162688   0.387   5.195   4.141  0.0676  0.9988 -0.6298
20602TIP3    H262689   0.328   5.239   4.274  0.6833  0.3190 -0.1173
20603TIP3   OH262690   2.848   3.807   0.847  0.0209  0.2458  0.4409
20603TIP3    H162691   2.825   3.798   0.755 -1.6211  0.6296  0.7665
20603TIP3    H262692   2.902   3.886   0.851  0.8678 -0.2877 -0.2974
20604TIP3   OH262693   9.879   0.501   1.056  0.0283 -0.2355 -0.2179
20604TIP3    H162694   9.901   0.456   1.137  1.7314 -0.8613 -0.9586
20604TIP3    H262695   9.942   0.467   0.992 -1.7499 -0.3583 -2.0151
20605TIP3   OH262696   6.421   3.547   5.133 -0.0198 -0.4354 -0.0011
20605TIP3    H162697   6.438   3.465   5.086  0.2542 -0.5100  0.2269
20605TIP3    H262698   6.446   3.616   5.071 -0.5225 -0.5147 -0.2992
20606TIP3   OH262699   3.339   9.246   5.471  0.2961  0.3261  0.4470
20606TIP3    H162700   3.374   9.329   5.503 -0.1807  0.1385  1.4882
20606TIP3    H262701   3.277   9.272   5.402  1.8686  0.6893 -0.8775
20607TIP3   OH262702   2.951   0.440   5.960  0.0653  0.2051 -0.1592
20607TIP3    H162703   2.940   0.368   6.021  1.0601  1.8846  2.1781
20607TIP3    H262704   2.991   0.401   5.882  1.0010 -1.6818  1.2148
20608TIP3   OH262705   3.631   7.752   8.936 -0.0454  0.5151  0.2249
20608TIP3    H162706   3.595   7.734   9.023 -0.0073  1.0539  0.3568
20608TIP3    H262707   3.555   7.768   8.881 -0.0622  0.3293  0.1924
20609TIP3   OH262708   6.841   6.348   4.095 -0.0267 -0.4275  0.0615
20609TIP3    H162709   6.847   6.432   4.141  2.8142 -0.3581 -0.2703
20609TIP3    H262710   6.792   6.291   4.155  0.8436  0.5508  1.7866
20610TIP3   OH262711   6.998   4.906   3.496  0.6037  0.1072  0.7784
20610TIP3    H162712   7.004   4.919   3.591 -0.1563 -0.2828  0.8851
20610TIP3    H262713   7.055   4.831   3.479  1.4949  0.7593  0.7798
20611TIP3   OH262714   3.613   4.842   1.447 -0.2173  0.3238 -0.5017
20611TIP3    H162715   3.612   4.805   1.359 -1.3540  0.7811 -0.7042
20611TIP3    H262716   3.697   4.888   1.454 -0.3156  0.6754 -1.5215
20612TIP3   OH262717   1.362   9.440   5.679 -0.0858  0.0085  0.5349
20612TIP3    H162718   1.434   9.392   5.719  0.5895  0.1760 -0.4590
20612TIP3    H262719   1.316   9.479   5.753  1.7033  1.1064  1.1268
20613TIP3   OH262720   5.895   8.990   4.775 -0.0853  0.0721 -0.0613
20613TIP3    H162721   5.860   8.950   4.696  0.0377  0.6422 -0.4115
20613TIP3    H262722   5.907   9.082   4.752  0.0825  0.2166  0.5765
20614TIP3   OH262723   6.032   6.322   0.850  1.0068  0.5543  1.0271
20614TIP3    H162724   5.988   6.401   0.880  0.0318 -0.1110  1.3988
20614TIP3    H262725   5.983   6.295   0.772  2.0132  0.9086  0.2480
20615TIP3   OH262726   2.348   9.577   0.903 -0.2083  0.3215 -0.0999
20615TIP3    H162727   2.323   9.589   0.811  0.7121 -1.1747 -0.5715
20615TIP3    H262728   2.443   9.590   0.904 -0.1229 -0.3185  0.5211
20616TIP3   OH262729   0.258   5.124   0.401  0.4189  0.1740 -0.2270
20616TIP3    H162730   0.196   5.061   0.366 -1.2743  0.7079  1.6393
20616TIP3    H262731   0.222   5.149   0.486  2.0550  2.1734 -0.0376
20617TIP3   OH262732   9.099   7.371   1.143  0.6857 -0.1649  0.2310
20617TIP3    H162733   9.122   7.319   1.220 -0.3132 -0.1194  0.5823
20617TIP3    H262734   9.004   7.359   1.134  0.2332  2.3039  0.8857
20618TIP3   OH262735   1.510   6.960   0.945  0.0276  0.1916  0.6571
20618TIP3    H162736   1.444   6.910   0.992 -0.4759  1.9147  1.8945
20618TIP3    H262737   1.476   7.050   0.944  0.3681  0.3980 -2.4169
20619TIP3   OH262738   0.417   4.957   1.054  0.3824 -0.6896  0.3838
20619TIP3    H162739   0.442   5.020   1.121  1.1510 -0.9421  0.3478
20619TIP3    H262740   0.488   4.893   1.054  1.8244  0.7117 -2.4905
20620TIP3   OH262741   9.750   0.736   0.399  0.6862  0.4425 -0.1312
20620TIP3    H162742   9.677   0.765   0.453  0.0180 -0.4086 -0.5515
20620TIP3    H262743   9.774   0.813   0.347 -1.4221  0.1738 -1.6519
20621TIP3   OH262744   9.573   2.210   3.532  0.3869  0.3317  0.3216
20621TIP3    H162745   9.661   2.178   3.510  0.7951  1.0744  0.8426
20621TIP3    H262746   9.532   2.228   3.448 -0.2971 -2.6260 -0.1012
20622TIP3   OH262747   1.712   3.168   3.019  0.3998 -0.7364  0.3723
20622TIP3    H162748   1.618   3.170   2.999  0.8290 -0.6303 -1.9046
20622TIP3    H262749   1.753   3.138   2.938  2.5773  2.4129  0.1289
20623TIP3   OH262750   9.471   1.279   1.694  0.0292 -0.3074  0.2601
20623TIP3    H162751   9.385   1.280   1.737  0.6029  1.3409  1.4638
20623TIP3    H262752   9.462   1.340   1.621 -0.0127 -0.6245  0.0017
20624TIP3   OH262753   1.467   5.901   1.494 -0.3505 -0.0181 -0.1720
20624TIP3    H162754   1.549   5.928   1.453 -0.8506  0.3144 -0.9737
20624TIP3    H262755   1.401   5.958   1.456 -1.1095 -0.9505 -0.2832
20625TIP3   OH262756   7.350   7.241   1.960 -0.1961  0.3203  0.4187
20625TIP3    H162757   7.420   7.186   1.926  1.1317  1.6838  0.8027
20625TIP3    H262758   7.350   7.225   2.054 -0.3785  0.3657  0.4277
20626TIP3   OH262759   9.839   4.633   1.776 -0.1160  0.0437 -0.3170
20626TIP3    H162760   9.789   4.701   1.820 -1.3370  0.6048 -2.4226
20626TIP3    H262761   9.775   4.567   1.752  0.5556 -0.4166 -0.9123
20627TIP3   OH262762   0.727  10.218   3.983  1.1681 -0.9430 -0.5496
20627TIP3    H162763   0.762  10.177   4.062  0.4921  0.5914  0.5844
20627TIP3    H262764   0.634  10.198   3.985  1.1485 -0.9060 -0.9755
20628TIP3   OH262765   9.655   7.765   2.902 -0.4550 -0.1892 -0.5135
20628TIP3    H162766   9.624   7.831   2.841 -0.0401 -1.1330 -1.7816
20628TIP3    H262767   9.581   7.752   2.962 -0.4557  1.5502 -0.0892
20629TIP3   OH262768   1.812   2.330   1.276  0.3242  0.0509  0.2581
20629TIP3    H162769   1.894   2.282   1.278  2.0077  2.6698 -0.2854
20629TIP3    H262770   1.816   2.388   1.351 -0.5831  0.8824 -0.3053
20630TIP3   OH262771   3.763  10.464   3.834 -0.0683 -0.0823  0.1909
20630TIP3    H162772   3.720  10.518   3.900  0.1104  0.7976 -0.3872
20630TIP3    H262773   3.708  10.473   3.756  0.4031 -0.0807 -0.1470
20631TIP3   OH262774   2.248   5.809   0.921 -0.2459 -0.5427 -0.2050
20631TIP3    H162775   2.201   5.726   0.913  0.3792 -0.8457 -0.8361
20631TIP3    H262776   2.339   5.788   0.898  0.1598  0.0835  0.7477
20632TIP3   OH262777   5.248  10.218   1.149  0.4394 -0.1193  0.1080
20632TIP3    H162778   5.216  10.138   1.108  0.8788 -0.2384 -0.0116
20632TIP3    H262779   5.316  10.249   1.090  3.0765 -1.7835  2.0435
20633TIP3   OH262780   2.499   7.281   6.646 -0.5683 -0.2098  0.6692
20633TIP3    H162781   2.557   7.221   6.694 -0.9066 -1.6029 -0.5915
20633TIP3    H262782   2.557   7.353   6.619  0.3701 -1.0659  0.3232
20634TIP3   OH262783   7.589   0.504   4.227 -0.4423 -0.2101  0.3756
20634TIP3    H162784   7.568   0.535   4.139 -1.2546  1.2275  1.0370
20634TIP3    H262785   7.639   0.575   4.267  0.3336 -1.0383  0.9342
20635TIP3   OH262786   6.971   8.379   0.524 -0.2033 -0.0706 -0.3810
20635TIP3    H162787   7.012   8.450   0.476 -0.4070  0.5572  0.3534
20635TIP3    H262788   6.951   8.416   0.610 -1.2682 -0.6870 -0.3364
20636TIP3   OH262789  10.025   1.919   4.882 -0.1125  0.2193  0.3223
20636TIP3    H162790  10.011   1.825   4.898  1.2007  0.1087  0.9884
20636TIP3    H262791  10.027   1.927   4.787  0.6408 -0.6009  0.2502
20637TIP3   OH262792   5.729   6.951   7.763  0.1194 -0.3847 -0.4814
20637TIP3    H162793   5.698   7.029   7.716 -0.3528  0.0836  0.5842
20637TIP3    H262794   5.692   6.878   7.713 -0.9918  0.1176 -0.4343
20638TIP3   OH262795  10.897   3.451   2.468  0.0047 -0.2767 -0.3016
20638TIP3    H162796  10.917   3.363   2.434 -0.1448 -0.1660 -0.6757
20638TIP3    H262797  10.835   3.435   2.538  1.3169 -0.6235  0.8360
20639TIP3   OH262798   1.928   6.203   2.582 -0.0825 -0.2011 -0.3710
20639TIP3    H162799   1.992   6.171   2.645  2.1215  1.3528 -1.6853
20639TIP3    H262800   1.955   6.165   2.498 -0.9064  0.4657 -0.9603
20640TIP3   OH262801   5.686   4.904   8.644  0.2317  1.2813  0.2647
20640TIP3    H162802   5.742   4.966   8.598  0.6761  1.1945  0.6797
20640TIP3    H262803   5.607   4.954   8.665  0.2880  1.4961 -0.0404
20641TIP3   OH262804   1.124   0.994   7.570 -0.2128 -0.3459  0.4139
20641TIP3    H162805   1.153   0.914   7.614  1.1366 -1.2648 -1.9439
20641TIP3    H262806   1.052   0.964   7.514 -0.6414  0.4072  0.5547
20642TIP3   OH262807   3.168   2.600   4.592 -0.8424  0.7713  0.2063
20642TIP3    H162808   3.132   2.682   4.560  0.4730  0.7539 -1.4890
20642TIP3    H262809   3.184   2.548   4.513  1.1872  0.1095  0.9742
20643TIP3   OH262810   1.209   8.393  10.555  0.2591 -0.3023 -0.1461
20643TIP3    H162811   1.155   8.464  10.589  0.7165  0.4168 -0.8713
20643TIP3    H262812   1.215   8.410  10.461 -1.1366 -2.3391 -0.6695
20644TIP3   OH262813   5.100   7.381   8.632 -0.4506 -0.4328 -0.6234
20644TIP3    H162814   5.154   7.460   8.632 -0.8234 -0.1776 -0.9681
20644TIP3    H262815   5.037   7.395   8.703 -1.6745  0.3858 -1.8204
20645TIP3   OH262816   3.166   0.659   0.443 -0.1267  0.3468 -0.3570
20645TIP3    H162817   3.106   0.690   0.512 -1.3162 -3.0129  0.3132
20645TIP3    H262818   3.251   0.653   0.487  0.0518  2.0832 -0.3971
20646TIP3   OH262819   3.845   3.039   8.800  0.1995 -0.0281  0.1530
20646TIP3    H162820   3.826   3.128   8.772  1.8376  0.4373  0.4192
20646TIP3    H262821   3.934   3.022   8.768  1.3263 -0.2720  3.1166
20647TIP3   OH262822   9.465   8.934   7.382 -0.3757  0.3343 -0.5954
20647TIP3    H162823   9.432   8.865   7.440  0.4875  0.5062  0.1307
20647TIP3    H262824   9.542   8.968   7.428 -1.7733  2.9912 -0.0484
20648TIP3   OH262825   1.890   7.503   9.982 -0.0985  1.0264 -0.5710
20648TIP3    H162826   1.856   7.535   9.898 -1.9224  0.3118 -0.1499
20648TIP3    H262827   1.826   7.533  10.046 -0.9858 -1.9362  0.0453
20649TIP3   OH262828   6.093   7.685   0.206  0.5073 -0.2366 -0.2415
20649TIP3    H162829   6.177   7.728   0.191  0.7084 -0.7783 -0.7367
20649TIP3    H262830   6.068   7.653   0.119 -0.5140  0.4544 -0.2146
20650TIP3   OH262831   4.122  10.227   9.239  0.0608 -0.3203  0.2964
20650TIP3    H162832   4.076  10.157   9.283 -2.3007  1.5702  1.0447
20650TIP3    H262833   4.086  10.229   9.150  0.4810 -0.3488  0.1183
20651TIP3   OH262834   2.896   8.401   1.107  0.2868 -0.6889 -0.8803
20651TIP3    H162835   2.985   8.421   1.080  0.2464 -0.2191 -0.6673
20651TIP3    H262836   2.905   8.364   1.195  0.2410 -0.3094 -0.7158
20652TIP3   OH262837   6.313  10.310  10.504  0.4302  0.0759  0.3424
20652TIP3    H162838   6.345  10.220  10.510 -1.8975 -0.8612 -0.1950
20652TIP3    H262839   6.267  10.325  10.586  1.6201  1.1920  0.8561
20653TIP3   OH262840   0.823   3.027   6.984 -0.0085 -0.0192  0.2309
20653TIP3    H162841   0.758   3.056   6.921  1.1033 -0.2127 -1.0548
20653TIP3    H262842   0.875   2.962   6.937 -0.2454 -1.5162  1.9277
20654TIP3   OH262843   9.710   1.451  10.887  0.5844  0.2622  0.0142
20654TIP3    H162844   9.673   1.365  10.905 -0.0411  0.3504 -0.7801
20654TIP3    H262845   9.785   1.433  10.830 -0.0747  0.2882 -0.8873
20655TIP3   OH262846   6.184   2.603   0.982 -0.1820 -0.2127 -0.2580
20655TIP3    H162847   6.223   2.642   0.904  0.6808  1.6751  1.0350
20655TIP3    H262848   6.235   2.524   0.997  0.6492  0.2045 -0.7711
20656TIP3   OH262849   0.288   2.407   8.062  0.3403 -0.2717  0.2741
20656TIP3    H162850   0.378   2.376   8.071 -0.8498 -4.2074  0.3638
20656TIP3    H262851   0.243   2.372   8.139 -1.7272 -0.3811 -0.9252
20657TIP3   OH262852   1.401   6.320   5.099  0.1945 -0.5415 -0.0893
20657TIP3    H162853   1.344   6.362   5.164 -0.2306  0.4297 -1.0342
20657TIP3    H262854   1.355   6.239   5.076 -0.6040 -0.0037 -0.4833
20658TIP3   OH262855   3.665   4.290   2.231  0.0758 -0.1950 -0.1563
20658TIP3    H162856   3.673   4.382   2.255  0.6357 -0.1787 -0.3758
20658TIP3    H262857   3.714   4.243   2.299  0.2554 -0.2797 -0.3387
20659TIP3   OH262858   6.756   1.064   0.182  0.1527 -0.0546 -0.1734
20659TIP3    H162859   6.738   1.064   0.276  0.0970  1.5572 -0.1649
20659TIP3    H262860   6.716   0.982   0.151 -0.9116 -0.0212  1.0010
20660TIP3   OH262861   4.710   3.623   6.865 -0.2911  0.3787 -0.4412
20660TIP3    H162862   4.716   3.530   6.842  0.9096  0.6181 -1.1762
20660TIP3    H262863   4.725   3.626   6.959  0.0223 -0.1472 -0.4705
20661TIP3   OH262864   9.100   3.595  10.382 -0.2720 -0.8874  0.1550
20661TIP3    H162865   9.067   3.622  10.468 -1.4382 -1.4296 -0.1076
20661TIP3    H262866   9.024   3.558  10.337  0.4481 -1.1285 -0.9073
20662TIP3   OH262867   6.169   8.147   9.651 -0.5197 -0.0363  0.5244
20662TIP3    H162868   6.234   8.159   9.581 -1.4790  1.2295 -0.1871
20662TIP3    H262869   6.086   8.138   9.605 -1.0981  0.2607  1.4801
20663TIP3   OH262870  10.897   0.033   1.164  0.4345  0.5241 -0.4464
20663TIP3    H162871  10.977  -0.011   1.192  0.7056 -0.1820 -2.2525
20663TIP3    H262872  10.876   0.091   1.237  2.4455  0.5614  0.1700
20664TIP3   OH262873   1.158   4.785   3.881 -0.6626  0.2025  0.0638
20664TIP3    H162874   1.237   4.806   3.829  0.5104 -0.7076  1.4101
20664TIP3    H262875   1.152   4.857   3.944 -1.3471  0.6455 -0.4979
20665TIP3   OH262876  10.449   4.096   3.067 -0.6957  0.3462 -0.0209
20665TIP3    H162877  10.502   4.066   2.994 -0.0973  1.3237  0.0023
20665TIP3    H262878  10.365   4.120   3.028 -1.2596 -1.4453 -0.0218
20666TIP3   OH262879   4.127   0.921   6.157  0.1671 -1.1556 -0.0241
20666TIP3    H162880   4.126   1.016   6.141 -1.2679 -1.3764 -1.5033
20666TIP3    H262881   4.098   0.911   6.247 -0.2225 -0.2156 -0.0337
20667TIP3   OH262882   3.382   6.309   1.051  0.4465 -0.2941 -0.3136
20667TIP3    H162883   3.288   6.322   1.056  0.4031  0.1163 -1.7168
20667TIP3    H262884   3.395   6.215   1.054 -0.0627 -0.3799 -0.7989
20668TIP3   OH262885  10.830   9.766   7.270  0.0451 -0.3358 -0.0773
20668TIP3    H162886  10.743   9.736   7.246 -1.3860  2.1619  1.4469
20668TIP3    H262887  10.868   9.695   7.321 -1.9121 -0.7604  0.8489
20669TIP3   OH262888   8.201   2.873   6.721  0.3714 -0.1115  0.5450
20669TIP3    H162889   8.235   2.806   6.661 -0.6762 -0.6551  0.5347
20669TIP3    H262890   8.262   2.945   6.713  0.3964 -0.2707 -1.0065
20670TIP3   OH262891   6.292   2.306   4.707  0.2593  0.2978 -0.7047
20670TIP3    H162892   6.224   2.254   4.749  1.2769 -0.8046 -0.3754
20670TIP3    H262893   6.254   2.333   4.624 -1.1711  1.1108  0.1732
20671TIP3   OH262894   6.021   7.826   0.895 -0.3047 -0.8525  0.3205
20671TIP3    H162895   6.023   7.888   0.968  0.5283 -1.3669  0.7506
20671TIP3    H262896   6.001   7.880   0.818 -0.0667 -0.1315  0.7577
20672TIP3   OH262897   3.219   4.679   9.087 -0.2198 -0.3766  0.1848
20672TIP3    H162898   3.207   4.594   9.129  2.2794 -1.4918 -1.1712
20672TIP3    H262899   3.281   4.663   9.016  0.7429  2.6729  0.1884
20673TIP3   OH262900   6.097   6.695   2.636 -0.5386  0.8148  0.3067
20673TIP3    H162901   6.093   6.630   2.707 -2.6982 -0.5938 -0.9976
20673TIP3    H262902   6.144   6.650   2.566 -0.3306  1.3923  0.0758
20674TIP3   OH262903   6.173   3.634   9.896 -0.0079 -0.2622  0.0501
20674TIP3    H162904   6.153   3.700   9.830 -1.4142 -0.0940  0.6154
20674TIP3    H262905   6.093   3.582   9.902  0.7048 -1.3436  0.4070
20675TIP3   OH262906   4.569   6.105  10.029 -0.0423 -0.3874 -0.4458
20675TIP3    H162907   4.526   6.043   9.970  0.8252 -1.4995  0.0760
20675TIP3    H262908   4.661   6.081  10.028  0.1787  0.3355  0.4489
20676TIP3   OH262909   1.079   2.064   6.828  0.4880  0.2686 -0.0352
20676TIP3    H162910   1.001   2.118   6.820 -0.3319 -1.0570 -1.4559
20676TIP3    H262911   1.073   2.025   6.916  0.1187  0.9990  0.2668
20677TIP3   OH262912   0.341   1.741   9.009  0.2277  0.2153  0.1728
20677TIP3    H162913   0.248   1.765   9.015  0.5100  2.0416 -1.6985
20677TIP3    H262914   0.386   1.809   9.059  0.6317 -0.2165  0.4022
20678TIP3   OH262915   0.045   2.926   8.447 -0.0230  0.3423 -0.0186
20678TIP3    H162916   0.078   2.987   8.513  0.3283  0.5299 -0.3637
20678TIP3    H262917   0.052   2.840   8.488  0.7596  0.3976 -0.0242
20679TIP3   OH262918   2.031   4.241   5.893  0.1315 -0.0119  0.0305
20679TIP3    H162919   1.941   4.219   5.915 -1.1633  2.3531 -2.3181
20679TIP3    H262920   2.038   4.224   5.799  2.3116 -0.5862  0.2453
20680TIP3   OH262921  10.710   9.918   8.640  0.4991 -0.0741 -0.6518
20680TIP3    H162922  10.804   9.920   8.658  0.5194  0.0088 -0.7688
20680TIP3    H262923  10.694   9.829   8.607  0.5850  0.0006 -0.8956
20681TIP3   OH262924   2.552   5.531   4.707 -0.1582 -0.2332 -0.6183
20681TIP3    H162925   2.564   5.597   4.638 -0.5671  0.3746 -0.1166
20681TIP3    H262926   2.598   5.566   4.783  0.5619 -1.0523 -0.6620
20682TIP3   OH262927   3.225   7.555   8.881  0.5049 -0.2755  0.6765
20682TIP3    H162928   3.165   7.630   8.882 -0.7914 -1.2448 -0.6292
20682TIP3    H262929   3.252   7.546   8.972 -1.4435  0.1332  1.3547
20683TIP3   OH262930   4.842   6.881   6.918  0.0839 -0.1915 -0.8184
20683TIP3    H162931   4.768   6.821   6.923 -0.3548  0.4306  1.7055
20683TIP3    H262932   4.804   6.967   6.938  1.3182  0.2952 -0.4910
20684TIP3   OH262933   5.543   8.654   5.011  1.0046  0.3998 -0.1240
20684TIP3    H162934   5.518   8.590   4.943 -0.2630  0.1705  0.5201
20684TIP3    H262935   5.541   8.738   4.967 -0.3020  0.3065 -0.2788
20685TIP3   OH262936   6.628   4.774   8.901  0.1508  0.5887 -0.3911
20685TIP3    H162937   6.570   4.775   8.977 -0.8816 -1.6018 -1.0597
20685TIP3    H262938   6.641   4.866   8.879 -0.3767  1.2386  1.7658
20686TIP3   OH262939   1.144   8.891   4.593  0.4815 -0.0660 -0.7154
20686TIP3    H162940   1.111   8.810   4.553  0.7427  0.5749 -2.2699
20686TIP3    H262941   1.097   8.897   4.676 -0.6243 -1.0574 -1.2454
20687TIP3   OH262942   2.083   8.729   6.112  0.1417  0.1578 -0.0973
20687TIP3    H162943   2.165   8.688   6.138  0.7241  0.8140 -0.8511
20687TIP3    H262944   2.029   8.727   6.191  1.8280  2.0543  1.2181
20688TIP3   OH262945   4.400   4.648  10.487 -0.2117 -0.7674  0.1818
20688TIP3    H162946   4.478   4.604  10.453 -0.1058 -0.3931 -0.0608
20688TIP3    H262947   4.342   4.658  10.411  0.5944  1.3160 -0.2348
20689TIP3   OH262948   8.305   3.299  10.325 -0.1311  0.1514  0.1124
20689TIP3    H162949   8.226   3.271  10.372 -0.9860 -0.2745 -1.4877
20689TIP3    H262950   8.373   3.302  10.392 -1.4108  0.1357  1.4653
20690TIP3   OH262951   6.810   3.355   2.194 -0.4100  0.6520  0.3072
20690TIP3    H162952   6.791   3.266   2.224 -0.5194  0.2517 -0.8945
20690TIP3    H262953   6.768   3.360   2.108  1.0653  1.2799 -0.4070
20691TIP3   OH262954   7.562  10.633   9.383 -0.4924  0.1203 -0.2235
20691TIP3    H162955   7.588  10.550   9.423 -0.6617  0.1362 -0.0786
20691TIP3    H262956   7.511  10.608   9.306 -0.0705  0.0879 -0.4943
20692TIP3   OH262957   7.738   6.857  10.682 -0.1754  0.4605  0.1615
20692TIP3    H162958   7.713   6.770  10.652  0.6356  0.1315  0.4028
20692TIP3    H262959   7.695   6.917  10.622 -0.4087 -0.1218 -0.2574
20693TIP3   OH262960   1.934  10.315   9.944 -0.9545  0.8652  0.0455
20693TIP3    H162961   1.882  10.283   9.871 -1.5598 -0.7615  1.1219
20693TIP3    H262962   1.901  10.267  10.020  2.3081 -0.5302  0.7547
20694TIP3   OH262963   5.314   3.445   7.444  1.0380  0.2830  0.0087
20694TIP3    H162964   5.346   3.533   7.459  1.7217  0.1551 -0.6398
20694TIP3    H262965   5.228   3.442   7.487  1.7940  0.6910  1.5970
20695TIP3   OH262966   8.996   4.936   4.000  0.1623  0.1217  0.1329
20695TIP3    H162967   8.985   5.001   3.931  0.1240 -1.6091 -1.5793
20695TIP3    H262968   9.078   4.959   4.043  0.3316  1.0643 -0.6703
20696TIP3   OH262969   0.422   4.239   4.261 -0.2594 -0.5837 -0.2021
20696TIP3    H162970   0.444   4.321   4.306 -1.8949 -0.1252 -0.1676
20696TIP3    H262971   0.347   4.204   4.309  0.0218 -1.7844 -0.6034
20697TIP3   OH262972   7.493   2.990   2.212 -0.2027 -0.0246 -0.4840
20697TIP3    H162973   7.571   3.013   2.263 -0.7951  1.8100 -0.3405
20697TIP3    H262974   7.518   3.009   2.121  0.7612 -3.0395 -0.9709
20698TIP3   OH262975   2.390   7.438   7.965 -0.2516  0.1159  0.6106
20698TIP3    H162976   2.348   7.475   8.043 -0.3173  4.2690 -1.1271
20698TIP3    H262977   2.482   7.464   7.972 -0.3573  0.9858 -0.8862
20699TIP3   OH262978   3.341   5.108   4.182 -0.3311 -0.3431 -0.3640
20699TIP3    H162979   3.327   5.044   4.252 -1.9378  0.0687 -0.2695
20699TIP3    H262980   3.279   5.179   4.201 -0.1289  0.2146 -1.6727
20700TIP3   OH262981   3.879  10.117   4.461 -0.1043  0.4293 -0.3478
20700TIP3    H162982   3.875  10.022   4.447  1.0249  0.6459 -2.4535
20700TIP3    H262983   3.825  10.154   4.391  2.1138  1.4208 -1.6253
20701TIP3   OH262984   3.030   2.253   5.051 -1.0057  0.0951  0.2361
20701TIP3    H162985   3.069   2.166   5.041 -0.9416  0.3583 -2.7285
20701TIP3    H262986   2.966   2.259   4.980 -0.4867  2.6925 -0.1125
20702TIP3   OH262987   4.384   4.468   8.964  0.3121 -0.3047  0.0002
20702TIP3    H162988   4.324   4.416   9.018  1.7655 -0.6547  1.3200
20702TIP3    H262989   4.328   4.503   8.894 -1.7580  0.6077  2.0023
20703TIP3   OH262990  10.591   2.227   4.793 -0.3035 -0.4999  0.3031
20703TIP3    H162991  10.530   2.294   4.823  0.4045 -0.6570  2.2618
20703TIP3    H262992  10.672   2.274   4.775  0.3780 -0.8096  2.2484
20704TIP3   OH262993   9.692   8.278   8.069  0.5294 -0.0399  0.7010
20704TIP3    H162994   9.672   8.232   7.987 -0.4127  2.8187 -0.8007
20704TIP3    H262995   9.749   8.350   8.042  0.5442  0.7100  2.6283
20705TIP3   OH262996   8.567  10.891   9.263  0.4940 -0.2853  0.2310
20705TIP3    H162997   8.531  10.972   9.298 -1.2620 -1.6912  1.9179
20705TIP3    H262998   8.646  10.876   9.315  1.0847  0.5397 -0.4037
20706TIP3   OH262999   8.610   3.461   5.205 -0.2058 -0.2272 -0.5211
20706TIP3    H163000   8.588   3.424   5.290  0.6777 -1.9321 -0.9905
20706TIP3    H263001   8.556   3.413   5.142  0.6168 -0.4334 -1.0980
20707TIP3   OH263002   7.051   2.241   1.910 -0.5816  0.1226 -0.2966
20707TIP3    H163003   7.037   2.335   1.917  1.8219  0.5210  0.1567
20707TIP3    H263004   7.054   2.223   1.816 -0.1019  0.6892 -0.3970
20708TIP3   OH263005   7.283   5.636   1.302  1.0093  0.5419 -0.0029
20708TIP3    H163006   7.276   5.563   1.364 -1.4101  1.8039  1.3626
20708TIP3    H263007   7.367   5.677   1.322  0.0862  1.2349  2.9569
20709TIP3   OH263008   6.433   5.376   0.303  0.2052  0.2124 -0.0508
20709TIP3    H163009   6.470   5.445   0.247 -1.7957  1.8202  0.4520
20709TIP3    H263010   6.368   5.333   0.247  1.3765 -1.2536 -0.3279
20710TIP3   OH263011   7.771   6.771   8.055  0.3486  0.0809  0.4878
20710TIP3    H163012   7.821   6.746   7.977  1.8340  2.1573  0.6667
20710TIP3    H263013   7.696   6.819   8.021 -0.7061 -1.6384  0.2786
20711TIP3   OH263014  10.259   9.429   4.207  0.5362  0.4173  0.1935
20711TIP3    H163015  10.341   9.458   4.249  0.8365  0.5275 -0.4544
20711TIP3    H263016  10.199   9.502   4.221  0.7863  0.6623  0.0085
20712TIP3   OH263017   1.416   8.742   9.118 -0.4967 -0.4048 -0.4873
20712TIP3    H163018   1.499   8.788   9.102 -0.0330 -1.2798 -0.6616
20712TIP3    H263019   1.349   8.810   9.110  0.3358  0.8046  1.8730
20713TIP3   OH263020   8.149  10.309   7.911  0.4088 -0.0723 -0.2792
20713TIP3    H163021   8.174  10.250   7.981 -0.4656 -0.3505 -0.1869
20713TIP3    H263022   8.064  10.344   7.938  2.0118  3.3042  0.9925
20714TIP3   OH263023   4.023   3.176   5.386  0.3376 -0.0850 -0.2923
20714TIP3    H163024   4.104   3.173   5.437 -0.1678 -0.1514  0.5147
20714TIP3    H263025   3.999   3.268   5.384 -0.0469 -0.1694  0.2440
20715TIP3   OH263026   2.950   6.218   4.821  0.2565  0.4019  0.0621
20715TIP3    H163027   3.026   6.212   4.764  0.6025  1.2490  0.4218
20715TIP3    H263028   2.984   6.206   4.909 -0.0615  0.5202  0.2039
20716TIP3   OH263029   4.573   6.199   1.165 -0.8237 -0.1623  0.1172
20716TIP3    H163030   4.554   6.279   1.213 -1.8150 -0.2359 -0.1351
20716TIP3    H263031   4.488   6.165   1.138 -0.3965 -1.0751 -0.1550
20717TIP3   OH263032   9.943   4.567   7.088 -0.0592 -0.3745  0.6818
20717TIP3    H163033   9.906   4.575   7.000 -1.8185 -0.7202  1.3502
20717TIP3    H263034   9.914   4.646   7.133  2.3327  0.6818  0.4763
20718TIP3   OH263035   6.392   4.168  10.828 -0.2905  0.0731 -0.2483
20718TIP3    H163036   6.389   4.248  10.881  1.9026  0.0667  0.0015
20718TIP3    H263037   6.395   4.200  10.738  1.7794  0.4029 -0.1173
20719TIP3   OH263038  10.452  10.834   4.642 -0.1530  0.3397 -0.5675
20719TIP3    H163039  10.484  10.760   4.693 -0.0110  1.2109  0.6598
20719TIP3    H263040  10.460  10.909   4.702 -2.9647  0.8802 -0.7362
20720TIP3   OH263041   0.514   1.243   5.267  0.9629 -0.4997 -0.1205
20720TIP3    H163042   0.440   1.183   5.271  0.6651 -0.1600 -0.3946
20720TIP3    H263043   0.486   1.319   5.319  1.2987 -0.5565  0.1474
20721TIP3   OH263044   1.371   4.441  10.137 -0.2345  1.2044 -0.1231
20721TIP3    H163045   1.382   4.518  10.082  0.7148  2.3743  1.5998
20721TIP3    H263046   1.313   4.471  10.208 -0.1418  0.2238  0.3795
20722TIP3   OH263047   1.079   1.398   3.754 -0.0124  0.0006 -0.3757
20722TIP3    H163048   1.081   1.429   3.663 -1.0484  0.0426 -0.3935
20722TIP3    H263049   0.990   1.366   3.767 -0.0429  0.4847  0.7802
20723TIP3   OH263050   8.524   3.635   6.974  0.5046 -0.3778  0.3260
20723TIP3    H163051   8.555   3.684   7.050  1.4266  0.8612 -0.8120
20723TIP3    H263052   8.533   3.543   7.000  2.6085 -0.0254  1.0517
20724TIP3   OH263053   8.359   7.856   3.432 -0.5188 -0.1464 -0.2016
20724TIP3    H163054   8.400   7.938   3.460  1.1893 -0.0383 -2.6985
20724TIP3    H263055   8.397   7.790   3.491 -0.4969  0.5962  0.6406
20725TIP3   OH263056   5.891   6.516   5.504 -0.2456  0.1713 -0.3644
20725TIP3    H163057   5.877   6.609   5.486  0.5000 -0.0924 -2.7284
20725TIP3    H263058   5.856   6.503   5.592 -3.7350  1.9510 -1.2710
20726TIP3   OH263059  10.298   7.199   0.481  0.4210  0.5081 -0.1644
20726TIP3    H163060  10.386   7.236   0.474  1.6971 -2.1807  0.5448
20726TIP3    H263061  10.261   7.239   0.560  2.1697 -0.4319  1.2100
20727TIP3   OH263062   7.623   5.959   9.102 -0.5159  0.1018 -0.4310
20727TIP3    H163063   7.629   5.976   9.008 -0.6393 -1.3103 -0.7197
20727TIP3    H263064   7.713   5.936   9.128 -0.5341  0.2212 -0.2579
20728TIP3   OH263065   5.807   2.713   1.597  0.5807 -0.1399  0.1671
20728TIP3    H163066   5.728   2.742   1.644  1.6890 -0.4080  2.3224
20728TIP3    H263067   5.781   2.632   1.554 -1.1154  1.2671 -1.6856
20729TIP3   OH263068   1.087   9.240   8.827  0.7465 -0.6020  0.7781
20729TIP3    H163069   1.083   9.326   8.869  1.5547 -0.2664  0.1794
20729TIP3    H263070   1.018   9.190   8.871 -0.4997  0.6732  0.3834
20730TIP3   OH263071   2.714   7.802   4.075 -0.7409 -0.0120  0.0378
20730TIP3    H163072   2.799   7.847   4.073 -0.2477 -0.7742  1.7219
20730TIP3    H263073   2.649   7.872   4.073 -0.0252  0.7057  1.0659
20731TIP3   OH263074   2.894   9.135   3.065  0.0771  0.1369 -0.1283
20731TIP3    H163075   2.929   9.173   3.145  0.1393  0.1928 -0.1818
20731TIP3    H263076   2.970   9.101   3.019 -0.1677 -1.8524  0.8462
20732TIP3   OH263077   5.051   1.203   3.019 -0.3265 -0.0700  0.3283
20732TIP3    H163078   4.979   1.260   2.993 -0.7383  0.5443  2.6320
20732TIP3    H263079   5.122   1.263   3.044  0.8902 -0.6602 -1.4888
20733TIP3   OH263080   6.212   5.183   8.485 -0.1258  0.1846 -0.5064
20733TIP3    H163081   6.305   5.198   8.468 -0.0508  0.5207  0.1749
20733TIP3    H263082   6.173   5.173   8.398  0.7950 -1.4855 -0.7839
20734TIP3   OH263083   0.483   2.986   9.135  0.0083  0.1093 -0.4789
20734TIP3    H163084   0.566   3.030   9.154  0.3344 -0.6537 -0.1092
20734TIP3    H263085   0.508   2.898   9.107 -0.6374  0.1495 -1.2254
20735TIP3   OH263086   4.338  10.218   6.762 -0.5706  0.3908 -0.2006
20735TIP3    H163087   4.306  10.134   6.794  0.9666  0.3779  1.4754
20735TIP3    H263088   4.269  10.280   6.782  0.1415  0.3148  2.9913
20736TIP3   OH263089   8.206   3.318   8.146  0.7294 -0.4025  0.4628
20736TIP3    H163090   8.249   3.378   8.207 -1.5607  1.9261 -0.0373
20736TIP3    H263091   8.152   3.261   8.201 -0.5391  1.0176  0.7447
20737TIP3   OH263092   3.809   1.786   2.631  0.1099 -0.3848  0.3009
20737TIP3    H163093   3.806   1.706   2.683 -2.1834 -0.4614  0.1736
20737TIP3    H263094   3.830   1.758   2.542  0.9559 -0.6250  0.5719
20738TIP3   OH263095   2.521  10.345   7.535  0.1826 -0.1563 -0.3700
20738TIP3    H163096   2.526  10.423   7.591  2.5494  0.5572 -1.4452
20738TIP3    H263097   2.481  10.279   7.590 -0.2135  1.3142  1.1990
20739TIP3   OH263098   0.622   4.775   8.605 -0.0757  0.0625 -0.2554
20739TIP3    H163099   0.565   4.802   8.533 -1.0106  0.2786  0.5397
20739TIP3    H263100   0.562   4.750   8.675  0.8054  0.3242  0.6208
20740TIP3   OH263101   0.303  10.575   1.365 -0.3685  0.5903  0.9225
20740TIP3    H163102   0.223  10.533   1.398  0.5011 -0.7389  1.4243
20740TIP3    H263103   0.363  10.573   1.440  0.8596 -0.3822 -0.0528
20741TIP3   OH263104   4.946   3.682   0.587 -0.0905 -0.1776  0.0186
20741TIP3    H163105   4.986   3.740   0.522  0.9789 -2.1623 -1.2241
20741TIP3    H263106   4.859   3.719   0.603 -0.2608  0.5837 -2.3347
20742TIP3   OH263107   9.063   7.138   5.284  0.2950  0.2082  0.0087
20742TIP3    H163108   9.045   7.211   5.226  0.8173  0.0532 -0.3603
20742TIP3    H263109   8.990   7.137   5.346 -0.6772 -0.0834 -1.1050
20743TIP3   OH263110   5.010   0.903   7.708  0.2947 -0.6070  0.2849
20743TIP3    H163111   5.076   0.959   7.668  0.4288  0.9974  2.5495
20743TIP3    H263112   4.965   0.863   7.634  1.6124  0.8174 -1.3995
20744TIP3   OH263113   4.489   1.632   8.147 -0.1183 -0.2995 -0.2991
20744TIP3    H163114   4.499   1.555   8.091 -1.3394 -0.8426  0.2060
20744TIP3    H263115   4.474   1.597   8.235 -1.5325  0.4778 -0.1947
20745TIP3   OH263116   7.904   2.589   0.251  0.4030 -0.3536 -0.2354
20745TIP3    H163117   7.952   2.617   0.329  3.0989 -1.5398 -1.3519
20745TIP3    H263118   7.846   2.519   0.282  1.5894 -0.9561  0.6729
20746TIP3   OH263119   3.170   7.641   1.476  0.9392  0.3677  0.6037
20746TIP3    H163120   3.210   7.727   1.485  0.1305  0.9908 -1.3612
20746TIP3    H263121   3.236   7.587   1.433  0.6221  0.6674 -0.2704
20747TIP3   OH263122   2.562  10.850  10.133 -0.4573 -0.0423 -0.1203
20747TIP3    H163123   2.610  10.869  10.214 -1.7441  1.2836  0.3870
20747TIP3    H263124   2.619  10.881  10.063 -0.3277  1.0501  0.4424
20748TIP3   OH263125   2.141   1.934   5.062 -0.2923  0.0552  0.1024
20748TIP3    H163126   2.138   1.840   5.080  1.5423  0.0323  0.5229
20748TIP3    H263127   2.139   1.975   5.148  0.0180  0.3369 -0.0197
20749TIP3   OH263128   7.069   9.650   1.426  0.3278  0.0605 -0.1147
20749TIP3    H163129   7.110   9.566   1.403  2.0551  0.2449  1.9614
20749TIP3    H263130   6.978   9.640   1.398  0.0581 -3.1412  1.3702
20750TIP3   OH263131   4.512  10.248   1.561 -0.0150  0.0621  0.7630
20750TIP3    H163132   4.449  10.252   1.489  1.0669 -0.7812 -0.2589
20750TIP3    H263133   4.470  10.194   1.627 -0.4263 -0.4046  0.1338
20751TIP3   OH263134   4.832   7.164   4.252  0.1762 -0.1165 -0.1231
20751TIP3    H163135   4.858   7.252   4.278 -0.4842  0.0057  0.1315
20751TIP3    H263136   4.829   7.114   4.333  3.3328 -1.1559 -0.5260
20752TIP3   OH263137   8.400   9.772   0.259 -0.1043  0.5427  0.4467
20752TIP3    H163138   8.415   9.849   0.205 -2.0332  0.5511 -0.1731
20752TIP3    H263139   8.305   9.759   0.256  0.1175 -1.6329  0.8257
20753TIP3   OH263140   4.088   1.790   0.656 -0.0543  0.3494 -0.3376
20753TIP3    H163141   4.079   1.880   0.623  0.5008  0.3887 -0.3943
20753TIP3    H263142   4.062   1.795   0.747  3.2546  1.3199  0.6885
20754TIP3   OH263143   6.729   8.035   5.787 -0.0103  0.4096 -0.1528
20754TIP3    H163144   6.657   8.082   5.829 -1.8864 -0.7530 -1.8588
20754TIP3    H263145   6.697   7.945   5.779  1.4703 -0.0485 -1.3596
20755TIP3   OH263146   7.608   3.372   2.122  0.0196 -0.4556 -0.0784
20755TIP3    H163147   7.514   3.382   2.137  0.1945  0.4865  0.4223
20755TIP3    H263148   7.650   3.403   2.202  0.7387 -2.0388  0.2027
20756TIP3   OH263149   9.463   7.722   1.871 -0.5416  0.0617 -0.6890
20756TIP3    H163150   9.511   7.781   1.813  0.1445 -1.2963 -1.5793
20756TIP3    H263151   9.468   7.637   1.826 -0.7281 -0.8535  0.9557
20757TIP3   OH263152  10.410   4.983   7.510 -0.1754  0.0362 -0.2689
20757TIP3    H163153  10.428   4.889   7.516 -2.0017 -0.2561  1.9782
20757TIP3    H263154  10.354   4.992   7.433 -0.6391 -0.8490 -0.0460
20758TIP3   OH263155   7.622   9.026   3.818  0.3247 -0.0761 -0.3448
20758TIP3    H163156   7.628   8.958   3.751  1.3859 -0.0324 -0.3086
20758TIP3    H263157   7.651   9.106   3.772 -0.7850  0.3301 -0.3553
20759TIP3   OH263158   8.535   4.787  10.370 -0.8174 -0.0988  0.1409
20759TIP3    H163159   8.478   4.863  10.358 -1.4898 -0.8878 -1.9916
20759TIP3    H263160   8.477   4.719  10.404 -0.0709  0.4489  2.7743
20760TIP3   OH263161   9.460   9.448   5.307  0.3187  0.4800 -0.0053
20760TIP3    H163162   9.375   9.406   5.296 -0.1135  0.9124  1.4898
20760TIP3    H263163   9.442   9.541   5.297  0.3501  0.6830  1.5304
20761TIP3   OH263164   1.187   5.866   6.480 -0.0784 -0.8073 -0.5977
20761TIP3    H163165   1.186   5.960   6.464  0.5931 -0.8261 -0.7570
20761TIP3    H263166   1.094   5.840   6.477 -0.4097  0.1130  1.0814
20762TIP3   OH263167   1.675   2.877   9.794  0.4536 -0.7662 -0.2473
20762TIP3    H163168   1.743   2.839   9.739 -0.9214 -1.5863 -1.4486
20762TIP3    H263169   1.628   2.937   9.737 -0.5758 -1.1223  0.1832
20763TIP3   OH263170  10.490   6.451   5.281  0.3898 -0.2319  0.4398
20763TIP3    H163171  10.579   6.422   5.301  0.5066  0.1648  0.4889
20763TIP3    H263172  10.488   6.543   5.306  0.2684  0.0307 -0.5298
20764TIP3   OH263173  10.131   9.478  10.007 -0.0196 -0.1823 -0.5449
20764TIP3    H163174  10.079   9.487  10.086 -0.1859 -1.1993 -0.5203
20764TIP3    H263175  10.100   9.547   9.949 -0.2273  0.2707  0.0926
20765TIP3   OH263176   9.998   2.408   9.383  0.5533 -0.4663  0.1462
20765TIP3    H163177  10.019   2.470   9.314  0.6693  0.9910  1.4303
20765TIP3    H263178   9.905   2.423   9.402  0.3887 -1.2095 -0.0244
20766TIP3   OH263179   7.159  10.718   9.102 -0.1409 -0.1613  0.0745
20766TIP3    H163180   7.150  10.786   9.169  0.5248 -1.6907  1.7984
20766TIP3    H263181   7.069  10.700   9.073 -0.2423  2.3297 -1.4289
20767TIP3   OH263182   4.914   5.109   0.931 -0.3338  0.5682  0.4745
20767TIP3    H163183   4.936   5.041   0.995 -0.0224  0.8187  0.6331
20767TIP3    H263184   4.916   5.063   0.847 -0.4483  0.3051  0.6135
20768TIP3   OH263185   8.840   6.370   3.705  0.0498  0.0784 -0.0096
20768TIP3    H163186   8.861   6.293   3.759 -0.1622  0.4984  0.6753
20768TIP3    H263187   8.910   6.432   3.723  0.7440 -0.3023 -1.2898
20769TIP3   OH263188  10.214   2.446   5.533  0.6535  0.1371 -0.8035
20769TIP3    H163189  10.225   2.478   5.444  1.5352  0.7508 -0.4815
20769TIP3    H263190  10.125   2.411   5.535  1.2795 -1.7087 -2.4702
20770TIP3   OH263191   2.634   7.629  10.309 -0.1613 -0.2691 -0.0482
20770TIP3    H163192   2.722   7.594  10.327  0.5966  0.6850 -1.5958
20770TIP3    H263193   2.574   7.559  10.336  1.0787 -1.0286  0.8597
20771TIP3   OH263194   7.094   8.677   5.555  0.1642  0.6483 -0.2054
20771TIP3    H163195   7.089   8.749   5.618  1.5448 -1.2504  2.2708
20771TIP3    H263196   7.015   8.626   5.570 -0.3264  1.0591 -1.2634
20772TIP3   OH263197   8.829   6.180   1.863 -0.0856  0.2333 -0.5265
20772TIP3    H163198   8.812   6.099   1.913 -0.8045  0.5187 -0.2857
20772TIP3    H263199   8.921   6.175   1.840  1.0105  1.2199  2.9546
20773TIP3   OH263200   5.450   6.426   4.241 -0.1622  0.1702  0.2101
20773TIP3    H163201   5.487   6.513   4.224 -0.0261 -0.0510 -0.6463
20773TIP3    H263202   5.484   6.402   4.327  1.6239  0.0190 -0.5061
20774TIP3   OH263203   4.119   5.887   3.422 -0.0100 -0.7521  0.0671
20774TIP3    H163204   4.137   5.848   3.336  0.9555 -0.3496  0.0758
20774TIP3    H263205   4.188   5.853   3.478  0.9197  0.9880  0.0596
20775TIP3   OH263206   9.203  10.799   7.303 -0.4135 -0.2700  0.4349
20775TIP3    H163207   9.115  10.836   7.300 -0.8107 -1.2279 -0.4042
20775TIP3    H263208   9.192  10.717   7.352 -0.3683 -1.3030 -1.2320
20776TIP3   OH263209   6.529   4.889   7.856  0.6431  0.0260 -0.3671
20776TIP3    H163210   6.554   4.938   7.777  0.3497 -0.4749 -0.7742
20776TIP3    H263211   6.499   4.957   7.917 -0.8884  0.2958 -1.3477
20777TIP3   OH263212   1.957   0.008   9.874  0.0222  0.6611 -0.0664
20777TIP3    H163213   1.878   0.053   9.846 -0.6946 -0.9226 -0.7642
20777TIP3    H263214   1.951   0.005   9.969 -0.0807  1.7101 -0.0334
20778TIP3   OH263215   4.688   8.209   9.889 -0.3739  0.2296  0.4543
20778TIP3    H163216   4.644   8.143   9.835 -1.8553  1.3012  0.3161
20778TIP3    H263217   4.728   8.268   9.825 -1.4326  1.0308  0.5052
20779TIP3   OH263218   5.229   0.396   0.496 -0.1424  0.5916  0.3850
20779TIP3    H163219   5.289   0.322   0.511 -0.3280  0.2478 -0.5027
20779TIP3    H263220   5.204   0.424   0.584 -0.3213 -0.6137  0.7408
20780TIP3   OH263221   7.509   5.955   3.306  0.6095  0.4070  0.0503
20780TIP3    H163222   7.575   5.909   3.254  0.0680  1.1398 -1.3622
20780TIP3    H263223   7.426   5.919   3.276  0.3243 -0.3012  1.6088
20781TIP3   OH263224   8.704  10.258   1.417  0.2521 -0.3285  0.3657
20781TIP3    H163225   8.646  10.224   1.349  0.5787 -1.6329  0.7080
20781TIP3    H263226   8.755  10.327   1.373 -1.5429  0.8657  0.0719
20782TIP3   OH263227   0.042   2.923   1.496  0.2076 -0.1518  0.1470
20782TIP3    H163228  -0.034   2.866   1.509  0.0122 -0.4307 -1.8753
20782TIP3    H263229   0.021   3.003   1.544 -1.2961 -0.3180 -0.1853
20783TIP3   OH263230  10.026   0.900   6.934 -0.4328 -0.0391  0.1711
20783TIP3    H163231  10.099   0.929   6.988 -1.1690  0.3747  0.9560
20783TIP3    H263232  10.060   0.906   6.844  0.7244 -0.5213  0.5525
20784TIP3   OH263233   2.003   4.832   2.921  0.3042 -0.3352 -0.4260
20784TIP3    H163234   1.915   4.837   2.956  0.4533  1.4957 -0.1932
20784TIP3    H263235   2.002   4.893   2.847  1.5208  0.1878 -0.0373
20785TIP3   OH263236   2.538   2.731   6.151  0.1479  0.3078  0.6667
20785TIP3    H163237   2.452   2.696   6.126  0.1766  0.4267  0.3956
20785TIP3    H263238   2.552   2.699   6.240 -1.1405  2.0974  1.5652
20786TIP3   OH263239   4.059   0.254   0.399  0.5921  0.7274  0.3165
20786TIP3    H163240   4.084   0.203   0.321  0.4620  0.7758  0.2429
20786TIP3    H263241   4.104   0.210   0.471 -0.0529  0.0917  0.3475
20787TIP3   OH263242   9.838   0.794   3.104 -0.0664  0.7544  0.2566
20787TIP3    H163243   9.836   0.769   3.012  1.3533  1.1121  0.1019
20787TIP3    H263244   9.876   0.719   3.149 -1.0058  0.4785  0.5891
20788TIP3   OH263245   9.562   4.610   5.332 -0.5633 -0.1801  0.1413
20788TIP3    H163246   9.566   4.527   5.380 -0.8438 -0.6315 -0.5871
20788TIP3    H263247   9.630   4.602   5.265 -0.2662  0.3813  0.3781
20789TIP3   OH263248   6.461   7.583   7.931 -0.2144  0.0287 -0.3218
20789TIP3    H163249   6.462   7.643   8.006 -2.1429  0.6823 -0.7476
20789TIP3    H263250   6.395   7.518   7.954  0.2895 -0.6695 -0.8163
20790TIP3   OH263251   6.405   1.249   0.162  0.3305 -0.1158 -0.0757
20790TIP3    H163252   6.497   1.272   0.149  0.4452 -1.3881 -1.8304
20790TIP3    H263253   6.356   1.319   0.119  0.4898  0.1638  0.1924
20791TIP3   OH263254   1.839   6.866   0.754 -0.3132 -0.5815 -1.0020
20791TIP3    H163255   1.855   6.818   0.673 -0.7861  0.0443 -1.4772
20791TIP3    H263256   1.868   6.807   0.823  0.2344 -1.0662 -1.6332
20792TIP3   OH263257   0.615   1.893   4.284 -0.5044 -0.8108 -0.1905
20792TIP3    H163258   0.566   1.903   4.366 -1.8846  0.8472 -1.1536
20792TIP3    H263259   0.692   1.949   4.295 -0.8047 -0.4138 -0.1087
20793TIP3   OH263260   7.388   7.978   5.817 -0.0588  0.2004  0.0103
20793TIP3    H163261   7.414   8.048   5.876 -1.4661  1.1245 -0.4173
20793TIP3    H263262   7.436   7.996   5.736 -0.9228  1.1008 -0.3246
20794TIP3   OH263263  10.694   6.014   2.639  0.1806  0.0930 -0.2453
20794TIP3    H163264  10.765   5.956   2.611 -0.6308  0.0293 -2.3146
20794TIP3    H263265  10.615   5.959   2.633 -0.3281  0.7993 -0.1761
20795TIP3   OH263266   3.373   8.404   0.833 -0.0462  0.0817  0.7744
20795TIP3    H163267   3.442   8.341   0.813  0.4118  0.8341 -0.0970
20795TIP3    H263268   3.292   8.361   0.803  0.3700  0.2747 -0.6972
20796TIP3   OH263269   1.216   7.613   5.402  0.3738  0.2838  0.2084
20796TIP3    H163270   1.175   7.581   5.321  0.1679  0.6121  0.1805
20796TIP3    H263271   1.258   7.695   5.377  1.6925 -0.4060  0.0660
20797TIP3   OH263272   2.229   9.597   4.414 -0.3839 -0.5208  0.1656
20797TIP3    H163273   2.309   9.645   4.391 -0.7021 -0.1985 -0.2582
20797TIP3    H263274   2.261   9.519   4.460  0.5549 -3.1138 -4.3214
20798TIP3   OH263275   9.122   7.246   9.612 -0.3288  0.1019  0.1347
20798TIP3    H163276   9.108   7.311   9.681 -1.6778  0.8500 -0.7938
20798TIP3    H263277   9.113   7.296   9.530 -0.5924 -1.1104 -0.5944
20799TIP3   OH263278   5.426   5.472   7.002 -0.1478 -0.3597  0.1431
20799TIP3    H163279   5.375   5.553   7.003 -0.2866 -0.4116 -1.2497
20799TIP3    H263280   5.432   5.447   7.094 -1.3137  0.4755  0.4763
20800TIP3   OH263281   1.454   6.882   6.997 -0.2916  0.0919  0.0181
20800TIP3    H163282   1.406   6.963   7.012  1.2915  0.6435  2.9305
20800TIP3    H263283   1.393   6.813   7.025 -0.9512  0.4079 -0.6159
20801TIP3   OH263284   2.344   3.485   8.403  0.1923 -0.2495 -0.2946
20801TIP3    H163285   2.311   3.456   8.318 -1.9053 -0.7330  0.6284
20801TIP3    H263286   2.361   3.404   8.451 -0.7518  0.0041  0.4939
20802TIP3   OH263287   1.496   3.013   6.410  0.0777 -0.0972  0.0812
20802TIP3    H163288   1.581   3.046   6.439  0.1054  0.4558 -0.6004
20802TIP3    H263289   1.435   3.044   6.477  0.1776  0.9364 -0.2798
20803TIP3   OH263290   1.472   5.571   8.725 -0.1483  0.1517  0.0838
20803TIP3    H163291   1.475   5.532   8.812  2.0241  2.2429  1.0903
20803TIP3    H263292   1.382   5.601   8.716 -0.0816  1.3168  2.3745
20804TIP3   OH263293   8.851   4.449   8.731  0.1353 -0.2991 -0.1279
20804TIP3    H163294   8.926   4.481   8.681  1.8761 -1.5945  1.4855
20804TIP3    H263295   8.834   4.518   8.795  1.1685 -0.7417  0.6581
20805TIP3   OH263296   2.481   5.982   0.279  0.0652 -0.1152 -0.1026
20805TIP3    H163297   2.563   5.934   0.292  1.4657  2.1355 -0.1548
20805TIP3    H263298   2.471   6.034   0.359 -1.4922 -0.5512  0.0190
20806TIP3   OH263299   4.442   2.924   8.264  0.5621  0.0506  0.4113
20806TIP3    H163300   4.347   2.920   8.254  0.6107  0.6903 -0.3725
20806TIP3    H263301   4.467   2.833   8.281  0.0098 -0.4714 -1.3823
20807TIP3   OH263302   7.123   9.703   4.805 -0.4026  0.1936 -0.0788
20807TIP3    H163303   7.206   9.715   4.758 -0.5760  1.7647 -0.0462
20807TIP3    H263304   7.149   9.701   4.897 -0.1990 -1.5480 -0.1490
20808TIP3   OH263305   4.396   4.992  10.754 -0.0527  0.3532 -0.2890
20808TIP3    H163306   4.344   5.029  10.826 -1.0031  1.5752 -1.5679
20808TIP3    H263307   4.341   4.923  10.717 -0.4513  1.1360 -1.1641
20809TIP3   OH263308   8.981   5.628   7.318  0.2798 -0.3402  0.2232
20809TIP3    H163309   8.948   5.584   7.240  0.0962  0.4826 -0.1753
20809TIP3    H263310   8.917   5.697   7.335 -0.2982 -1.2172  1.7821
20810TIP3   OH263311   8.987   6.656   5.812 -0.2030  0.1547  0.0479
20810TIP3    H163312   8.919   6.697   5.865  0.0699  0.2059  0.3647
20810TIP3    H263313   8.973   6.562   5.823 -1.1315  0.1439 -1.0703
20811TIP3   OH263314  10.589   5.291   3.423  0.6223 -0.0026  0.1715
20811TIP3    H163315  10.673   5.246   3.424  0.0504 -1.0940  1.7456
20811TIP3    H263316  10.610   5.381   3.448  1.4404 -0.0078 -0.4598
20812TIP3   OH263317   3.308   0.286   6.172 -0.5850 -0.2676 -0.2613
20812TIP3    H163318   3.257   0.365   6.154 -1.1029 -0.1797  1.4482
20812TIP3    H263319   3.381   0.317   6.225 -0.9048 -0.9432  0.5921
20813TIP3   OH263320   9.613   7.226   8.664  0.1170  0.9451 -0.0018
20813TIP3    H163321   9.601   7.275   8.745 -2.4894 -0.5868  0.6339
20813TIP3    H263322   9.684   7.165   8.682 -1.0220  0.0094  1.4787
20814TIP3   OH263323   3.863   5.834   8.211 -0.0012 -0.5237  0.2570
20814TIP3    H163324   3.843   5.927   8.223  2.3076  0.0173  0.3364
20814TIP3    H263325   3.819   5.790   8.284 -0.7114  0.5524  0.5010
20815TIP3   OH263326   5.928   4.454   9.724  0.1308 -0.5106  0.5326
20815TIP3    H163327   5.870   4.378   9.716  1.3782 -1.4403  0.0457
20815TIP3    H263328   5.878   4.517   9.776 -2.0914 -0.4804 -1.5161
20816TIP3   OH263329   0.236   1.103   7.851 -0.3120  0.2861  0.2079
20816TIP3    H163330   0.261   1.012   7.861 -0.2386  0.2712 -0.0788
20816TIP3    H263331   0.296   1.151   7.908 -1.1365  0.0635  1.3028
20817TIP3   OH263332   4.008   3.666   2.182  0.2579  0.0405 -0.1362
20817TIP3    H163333   3.960   3.747   2.165 -0.0776 -0.0338  0.4411
20817TIP3    H263334   4.041   3.676   2.271  0.9812 -0.0765 -0.3874
20818TIP3   OH263335   7.235   6.798   5.172  0.9367 -0.3428 -0.3640
20818TIP3    H163336   7.312   6.783   5.117  1.5455 -0.6902  0.5541
20818TIP3    H263337   7.191   6.873   5.132  2.4439  0.6836 -0.1782
20819TIP3   OH263338   2.439   0.605   8.114 -0.7195  0.1637 -0.1761
20819TIP3    H163339   2.452   0.512   8.133  0.5854  0.7614  2.1613
20819TIP3    H263340   2.357   0.627   8.158  0.5517  0.7612  2.0339
20820TIP3   OH263341   3.233  10.440   8.800  0.3319  0.0978 -0.0769
20820TIP3    H163342   3.279  10.488   8.730 -1.1031  0.6858 -0.6633
20820TIP3    H263343   3.303  10.412   8.860  1.4083  1.2867 -0.7175
20821TIP3   OH263344   4.373   1.614   6.859 -0.6865  0.0688 -0.5718
20821TIP3    H163345   4.458   1.582   6.890 -0.6818 -0.1102 -0.7699
20821TIP3    H263346   4.347   1.552   6.792 -1.9007 -1.0106  0.8253
20822TIP3   OH263347   5.018   1.141   5.648 -0.1586  0.3025 -0.7001
20822TIP3    H163348   4.970   1.169   5.570 -1.0279 -0.2407 -0.3680
20822TIP3    H263349   4.959   1.159   5.721  0.2167 -0.1911 -0.2644
20823TIP3   OH263350   3.523  10.273   6.531  0.6395  0.1264  0.0105
20823TIP3    H163351   3.559  10.187   6.553 -0.9559 -0.7803 -0.7752
20823TIP3    H263352   3.598  10.322   6.496  2.4750  0.3881  3.7453
20824TIP3   OH263353   4.197  10.469   1.226  0.2550  0.2175 -0.1858
20824TIP3    H163354   4.105  10.442   1.224  0.3358 -0.1926  0.8511
20824TIP3    H263355   4.196  10.556   1.265  0.2357  0.5806 -0.9858
20825TIP3   OH263356   7.784   4.712   3.492  0.4109  0.6374 -0.1252
20825TIP3    H163357   7.789   4.632   3.441  0.4121  1.5908 -1.6660
20825TIP3    H263358   7.820   4.688   3.578  0.2096 -1.0388 -0.4808
20826TIP3   OH263359   9.603   6.183   0.933 -0.2904  0.8314  0.3093
20826TIP3    H163360   9.671   6.243   0.903  0.5971 -0.0037  0.5838
20826TIP3    H263361   9.570   6.222   1.014 -0.4425  1.4623 -0.0516
20827TIP3   OH263362   5.546   9.936   5.934 -0.3248 -0.1609 -0.3566
20827TIP3    H163363   5.630   9.913   5.973  0.1999 -0.4245 -1.5861
20827TIP3    H263364   5.554   9.907   5.843 -1.7216 -0.1211 -0.5073
20828TIP3   OH263365   9.595   2.239   4.076  0.4331  0.5982 -0.4693
20828TIP3    H163366   9.632   2.325   4.058  3.2789 -0.3733  0.3071
20828TIP3    H263367   9.586   2.236   4.171  0.9776 -0.1842 -0.4334
20829TIP3   OH263368   4.090  10.013  10.292  0.5995  0.2861  0.2504
20829TIP3    H163369   4.082  10.104  10.264 -0.1317 -0.1187 -0.9457
20829TIP3    H263370   4.157  10.014  10.360 -0.1034  1.8522  0.9519
20830TIP3   OH263371   7.101   5.776   2.693 -0.4329 -0.4323  1.0079
20830TIP3    H163372   7.157   5.850   2.671 -0.1743 -0.6922  0.7792
20830TIP3    H263373   7.085   5.732   2.610 -3.0934  1.0677  0.6382
20831TIP3   OH263374   7.193   0.151   0.689  0.1807 -0.2745  0.1646
20831TIP3    H163375   7.130   0.143   0.618  1.8621  1.9654 -1.7625
20831TIP3    H263376   7.165   0.229   0.737  0.0390 -0.7772  0.9080
20832TIP3   OH263377   1.967   2.877   2.567  0.5841 -0.0749 -0.1659
20832TIP3    H163378   2.034   2.945   2.565 -0.3109  0.8683  0.4785
20832TIP3    H263379   1.950   2.864   2.661 -1.6049  1.2459 -0.3160
20833TIP3   OH263380   1.343   2.270   8.180  0.1870  0.1253 -0.0824
20833TIP3    H163381   1.350   2.190   8.233  2.0149 -0.2738 -0.8448
20833TIP3    H263382   1.259   2.260   8.135  0.4950 -1.5428 -0.3808
20834TIP3   OH263383   9.553   9.422   8.363  0.2333 -0.4414 -0.1811
20834TIP3    H163384   9.464   9.390   8.348  0.0987  0.2293 -0.8938
20834TIP3    H263385   9.590   9.432   8.275  1.5470 -2.1372  0.1354
20835TIP3   OH263386   1.865   2.698   1.582  0.3419  0.0602  0.2257
20835TIP3    H163387   1.810   2.774   1.562 -0.6926  0.2680  3.2447
20835TIP3    H263388   1.951   2.734   1.602  0.6843  0.0908 -1.2486
20836TIP3   OH263389  10.739   5.456   5.313  0.1844  0.0819  0.0622
20836TIP3    H163390  10.737   5.419   5.225 -0.2586  0.0340  0.0893
20836TIP3    H263391  10.771   5.545   5.301 -0.4411  0.2678 -0.2188
20837TIP3   OH263392   6.065   5.757  10.517 -0.2734 -0.4254  0.0120
20837TIP3    H163393   6.059   5.850  10.494  3.4993  0.1901  0.8533
20837TIP3    H263394   6.087   5.713  10.434  1.4739 -0.0055  0.2374
20838TIP3   OH263395   5.702   0.264   8.931 -0.0954  0.5018 -0.1725
20838TIP3    H163396   5.679   0.356   8.921  0.6835  0.8989  1.3977
20838TIP3    H263397   5.621   0.222   8.959 -0.2686  0.8394 -0.1667
20839TIP3   OH263398   6.351   7.882  10.411 -0.4728 -0.0683 -0.2202
20839TIP3    H163399   6.317   7.917  10.493  2.0921  1.4324  0.3372
20839TIP3    H263400   6.374   7.792  10.431  0.7405  0.4742  0.9744
20840TIP3   OH263401  10.892   6.639   4.891 -0.1463  0.4702  0.2117
20840TIP3    H163402  10.970   6.589   4.867 -1.5030 -0.9859 -1.4767
20840TIP3    H263403  10.884   6.705   4.822 -1.3256 -0.5326 -0.6686
20841TIP3   OH263404   0.624   8.667   4.671  0.1954  0.2929  0.3371
20841TIP3    H163405   0.535   8.685   4.701  0.4680  3.8600 -0.5588
20841TIP3    H263406   0.679   8.731   4.717  2.0832 -0.7846 -0.2982
20842TIP3   OH263407   8.668   7.249  10.187  0.1712 -0.0629 -0.5805
20842TIP3    H163408   8.689   7.212  10.101  1.0361  0.9814 -0.8510
20842TIP3    H263409   8.709   7.189  10.250  0.4013 -0.2885 -0.9447
20843TIP3   OH263410   9.849   7.297   4.321 -0.2947 -0.2401  0.2337
20843TIP3    H163411   9.843   7.234   4.393  1.6604 -2.2045 -1.1647
20843TIP3    H263412   9.907   7.365   4.354  2.2764 -2.1410  0.0211
20844TIP3   OH263413   7.054   4.446   0.215 -0.5420  0.4519 -0.2370
20844TIP3    H163414   7.122   4.496   0.171  1.1196 -1.3033  0.1600
20844TIP3    H263415   7.027   4.501   0.289 -0.9494  1.9665 -1.4663
20845TIP3   OH263416   5.973   4.451   3.213  0.0951  0.4006 -0.6988
20845TIP3    H163417   5.974   4.359   3.188  1.9284  0.4570 -0.9264
20845TIP3    H263418   5.880   4.475   3.211 -0.4941 -1.5911 -0.0179
20846TIP3   OH263419   7.217   7.921   5.131  0.0965 -0.4794  0.3121
20846TIP3    H163420   7.297   7.938   5.179 -0.3550 -1.7236  1.5671
20846TIP3    H263421   7.194   8.006   5.092  1.9891 -0.1080 -0.0766
20847TIP3   OH263422   0.667  10.850   8.886  0.0897 -0.2373  0.4004
20847TIP3    H163423   0.575  10.829   8.899 -0.2704 -0.0850 -1.5182
20847TIP3    H263424   0.712  10.766   8.891 -0.1397 -0.3094  1.3626
20848TIP3   OH263425   5.165   9.026   8.062 -0.1122 -0.2068  0.6554
20848TIP3    H163426   5.203   9.098   8.113 -0.6942  0.0612  0.7127
20848TIP3    H263427   5.240   8.969   8.042  0.3665  0.4512  0.5449
20849TIP3   OH263428   7.434   6.492   9.086  0.1859 -0.4779  0.1613
20849TIP3    H163429   7.425   6.397   9.096  0.5117 -0.9014 -2.7703
20849TIP3    H263430   7.503   6.503   9.020 -1.7751  1.6834 -1.6895
20850TIP3   OH263431   2.105   4.175   4.561  0.3341  0.0046 -0.7189
20850TIP3    H163432   2.170   4.168   4.631  1.7046  1.8545 -1.7220
20850TIP3    H263433   2.154   4.157   4.481 -1.0410 -1.3428 -1.3054
20851TIP3   OH263434   1.029   0.597   3.498 -0.3040 -0.1394 -0.4080
20851TIP3    H163435   1.097   0.664   3.491 -0.3815 -0.1529 -1.2923
20851TIP3    H263436   1.073   0.515   3.478 -0.3018 -0.3179  0.2818
20852TIP3   OH263437   0.226   3.732   0.227  0.1203 -0.2882  1.0853
20852TIP3    H163438   0.240   3.793   0.299 -0.2639 -0.1428  1.0333
20852TIP3    H263439   0.169   3.664   0.263 -0.2401 -0.1075  0.8570
20853TIP3   OH263440   8.697   9.229   6.872  0.4830 -0.2080  0.1538
20853TIP3    H163441   8.671   9.143   6.841  0.0984  0.3379 -1.1004
20853TIP3    H263442   8.614   9.277   6.882  0.7929  0.7568 -1.4809
20854TIP3   OH263443   0.850   8.891   9.877  0.0336  0.1775 -0.1482
20854TIP3    H163444   0.824   8.822   9.817  0.2653  0.7001 -0.8604
20854TIP3    H263445   0.945   8.900   9.864  0.3028 -0.4737  1.1201
20855TIP3   OH263446   4.765   1.269   5.135 -0.2637 -0.2126  0.4921
20855TIP3    H163447   4.782   1.363   5.139 -0.4598 -0.1820  0.6026
20855TIP3    H263448   4.671   1.260   5.155 -0.0280 -0.5183  1.4890
20856TIP3   OH263449   9.746   7.197   2.952 -0.7296 -0.0429  0.0290
20856TIP3    H163450   9.668   7.153   2.919 -1.0201  0.8482 -0.5253
20856TIP3    H263451   9.730   7.290   2.932 -0.8914  0.5533  2.6122
20857TIP3   OH263452   6.181   3.649   8.620  0.4705  0.2704 -0.5330
20857TIP3    H163453   6.197   3.722   8.680 -0.1250  0.7245 -0.9222
20857TIP3    H263454   6.092   3.662   8.588  0.0739 -1.0478 -0.0335
20858TIP3   OH263455   6.013   7.908   8.509  0.2159 -0.2735  0.1725
20858TIP3    H163456   5.998   8.002   8.500  2.7556  0.3361  1.3885
20858TIP3    H263457   6.084   7.901   8.573  3.5279 -2.6795 -3.2920
20859TIP3   OH263458   4.127   2.387   0.865 -0.3347  0.1120  0.0618
20859TIP3    H163459   4.128   2.314   0.927 -0.6933  0.8548  0.9493
20859TIP3    H263460   4.035   2.401   0.845 -0.2391  0.0594 -0.4333
20860TIP3   OH263461  10.846   8.724   3.605  0.4249  1.1109  0.2905
20860TIP3    H163462  10.911   8.736   3.674 -0.2916  2.3811  0.7913
20860TIP3    H263463  10.767   8.767   3.640 -1.4941 -2.4601  0.8061
20861TIP3   OH263464   8.084   3.389   6.477 -0.0252 -0.2162 -0.5123
20861TIP3    H163465   8.005   3.335   6.472 -1.1445  1.3963 -1.2399
20861TIP3    H263466   8.115   3.394   6.386  2.2838 -2.6299  0.0008
20862TIP3   OH263467   8.682   1.345   2.872  0.3782  0.0564 -0.0112
20862TIP3    H163468   8.728   1.400   2.935  0.5158  0.2804 -0.3023
20862TIP3    H263469   8.689   1.393   2.789  1.3818 -0.8602 -0.4932
20863TIP3   OH263470   5.918   7.025   4.736  0.0264 -0.0321  0.3288
20863TIP3    H163471   5.874   7.080   4.671  0.7645 -0.5398 -0.6245
20863TIP3    H263472   6.011   7.034   4.716  0.1721 -1.5663  0.1929
20864TIP3   OH263473   0.049   4.489   8.436 -0.3276  0.1704 -0.2528
20864TIP3    H163474   0.109   4.422   8.469  0.5045  1.2624  0.5199
20864TIP3    H263475   0.089   4.519   8.354 -0.1321  0.4800 -0.0436
20865TIP3   OH263476   0.684   5.786   3.813 -0.0798  0.1729 -0.2995
20865TIP3    H163477   0.613   5.849   3.799  1.3244  1.6666 -0.9084
20865TIP3    H263478   0.713   5.802   3.903  0.7899  0.9673 -0.7076
20866TIP3   OH263479   0.361   7.032   6.484  0.0327  0.2780 -0.2891
20866TIP3    H163480   0.366   7.127   6.497  0.8602  0.6463 -2.7444
20866TIP3    H263481   0.350   7.021   6.390  2.5831 -2.1078 -0.4492
20867TIP3   OH263482   2.879   1.799   0.507  0.0529 -0.1641  0.1341
20867TIP3    H163483   2.829   1.717   0.513  1.0337 -0.7493  0.5179
20867TIP3    H263484   2.957   1.784   0.561 -0.9539  1.9389  2.3670
20868TIP3   OH263485   9.866   9.217   9.513 -0.0686  0.2836  0.0334
20868TIP3    H163486   9.820   9.139   9.483  0.0642 -0.3976  1.5172
20868TIP3    H263487   9.890   9.263   9.432 -0.0908 -1.2329 -0.8764
20869TIP3   OH263488   2.100   2.764   3.417 -0.2182  0.0888 -0.1676
20869TIP3    H163489   2.100   2.675   3.451 -0.1967  0.5487  1.0988
20869TIP3    H263490   2.008   2.793   3.424  0.1531  0.9485  1.6539
20870TIP3   OH263491   1.383   9.753   3.416  0.9610  0.3568  0.3836
20870TIP3    H163492   1.360   9.784   3.503 -0.2076  1.3039 -0.2258
20870TIP3    H263493   1.323   9.800   3.357  2.0781  0.1653 -0.9743
20871TIP3   OH263494   3.042   0.142   7.114 -0.1334  0.3541  0.1129
20871TIP3    H163495   3.035   0.105   7.202  2.5481 -0.8097 -0.0612
20871TIP3    H263496   3.081   0.229   7.127 -1.2399  0.8692  0.1346
20872TIP3   OH263497   9.173   8.607   0.173  0.5879 -0.0026 -0.3936
20872TIP3    H163498   9.234   8.652   0.115 -0.8611  4.1305  0.9339
20872TIP3    H263499   9.087   8.625   0.136 -0.1254 -1.2577  0.5603
20873TIP3   OH263500   9.540   3.832   3.490 -0.3799 -0.8638  0.7174
20873TIP3    H163501   9.497   3.898   3.543  1.8638 -0.3068  1.9925
20873TIP3    H263502   9.515   3.749   3.530  1.0017 -0.4682  2.5312
20874TIP3   OH263503   8.434   6.583   0.799  0.0942 -0.1980 -0.0478
20874TIP3    H163504   8.485   6.662   0.815 -0.6550  0.1617  0.6738
20874TIP3    H263505   8.498   6.512   0.799  0.7406  0.3761 -0.4204
20875TIP3   OH263506   4.547   1.653   1.261 -0.2614  0.1658 -0.0107
20875TIP3    H163507   4.637   1.622   1.248 -0.3005 -0.3323  0.7937
20875TIP3    H263508   4.512   1.665   1.173  0.1568 -0.9465 -0.3444
20876TIP3   OH263509   8.345   9.644   4.155 -0.0973 -0.3581  0.5217
20876TIP3    H163510   8.341   9.592   4.075  0.3910  1.2124 -0.5670
20876TIP3    H263511   8.254   9.651   4.184 -0.2570 -1.0794  0.2120
20877TIP3   OH263512   4.826   0.853   0.057  0.5262  0.3210 -0.2168
20877TIP3    H163513   4.761   0.924   0.061  0.3049  0.3332 -2.6178
20877TIP3    H263514   4.799   0.793   0.127 -2.1585  0.2916 -1.1532
20878TIP3   OH263515   5.600   9.088   4.754  0.4540  0.3263 -0.0114
20878TIP3    H163516   5.558   9.153   4.698  0.2622 -0.5574 -0.9199
20878TIP3    H263517   5.694   9.101   4.741  0.4075 -0.1056 -0.8292
20879TIP3   OH263518  10.598   1.927   4.541  0.5981  0.0121  0.0096
20879TIP3    H163519  10.552   1.868   4.482  0.8304 -0.2177  0.0601
20879TIP3    H263520  10.665   1.968   4.486  1.4804 -0.9519  0.3458
20880TIP3   OH263521   9.816   5.989   1.090 -0.0765 -0.0397  0.1963
20880TIP3    H163522   9.858   5.911   1.127 -0.6082  0.1672  1.2665
20880TIP3    H263523   9.824   6.056   1.159 -0.0446  0.7149 -0.5221
20881TIP3   OH263524   3.481   8.765   7.218  0.2924  0.4613  0.5210
20881TIP3    H163525   3.399   8.715   7.222 -0.4605  1.6542  0.5466
20881TIP3    H263526   3.546   8.702   7.189 -1.5055  0.4542 -4.4992
20882TIP3   OH263527   0.485   4.431   1.205  0.1374 -0.2189  0.3673
20882TIP3    H163528   0.581   4.431   1.209  0.1465 -0.9946  0.3746
20882TIP3    H263529   0.459   4.510   1.252  0.7755  0.0682  0.2556
20883TIP3   OH263530   2.134   2.047   1.496 -0.0137 -0.0706 -0.3087
20883TIP3    H163531   2.098   2.049   1.408  2.2104 -0.8891 -1.3084
20883TIP3    H263532   2.226   2.070   1.485 -0.0495  1.6576  2.0538
20884TIP3   OH263533   5.290   4.469   5.931  0.6552 -0.0326 -0.0881
20884TIP3    H163534   5.294   4.493   5.838  1.0925  0.8751  0.1460
20884TIP3    H263535   5.300   4.374   5.932 -2.4456 -0.4662 -1.1500
20885TIP3   OH263536   0.476  10.099   1.105 -0.3248  0.3607 -0.1177
20885TIP3    H163537   0.432  10.182   1.123 -0.4041  0.5276 -1.0059
20885TIP3    H263538   0.524  10.079   1.185 -2.6955 -0.2757  1.2152
20886TIP3   OH263539   4.216   9.145   2.515  0.2251  0.3072 -0.4418
20886TIP3    H163540   4.308   9.118   2.504 -0.1717 -1.6599  0.5252
20886TIP3    H263541   4.166   9.070   2.482 -0.9936  0.0166  1.8551
20887TIP3   OH263542   1.795   4.725   8.360  0.5610 -0.2601 -0.6237
20887TIP3    H163543   1.759   4.723   8.271  1.1206  0.8444 -0.8927
20887TIP3    H263544   1.719   4.739   8.416  0.2737 -0.3926 -0.9717
20888TIP3   OH263545  10.631   6.736   2.080 -0.4354  0.0281  0.5639
20888TIP3    H163546  10.623   6.646   2.047  1.3416  0.7264 -2.1254
20888TIP3    H263547  10.693   6.729   2.153  2.8542 -0.6084 -2.0348
20889TIP3   OH263548   2.133   8.886   6.954  0.4389 -0.5276 -0.0756
20889TIP3    H163549   2.116   8.796   6.927  1.5235 -0.7009 -0.2345
20889TIP3    H263550   2.102   8.940   6.881 -1.9702 -0.6180  0.7945
20890TIP3   OH263551   5.104   6.604   3.126 -0.4447  0.6032  0.4071
20890TIP3    H163552   5.092   6.649   3.043 -0.6866 -2.6811 -1.4999
20890TIP3    H263553   5.090   6.511   3.106 -2.5434 -0.2093  4.5347
20891TIP3   OH263554   9.917   1.761   2.187 -0.0776 -0.5407  0.2700
20891TIP3    H163555   9.860   1.817   2.241 -0.1056  0.4865 -0.7762
20891TIP3    H263556  10.005   1.774   2.223 -0.4066 -1.7926  1.6141
20892TIP3   OH263557   9.563   6.765   1.597 -0.2898  0.2027 -0.3629
20892TIP3    H163558   9.544   6.678   1.632  1.4483  0.6923  2.0767
20892TIP3    H263559   9.534   6.825   1.667  1.4640  1.3758 -0.5930
20893TIP3   OH263560   1.075   4.311   6.503  0.2034 -0.4146 -0.7270
20893TIP3    H163561   1.115   4.224   6.509  1.1070 -0.0337 -0.9897
20893TIP3    H263562   0.982   4.296   6.516  0.5456 -1.1986  1.1834
20894TIP3   OH263563   1.015   6.776  10.288 -0.1117 -0.1509  0.1744
20894TIP3    H163564   1.055   6.708  10.341  1.4204  1.8331  1.7286
20894TIP3    H263565   1.085   6.840  10.274 -1.1672  0.6158 -2.1476
20895TIP3   OH263566   9.563   6.984   8.863 -0.7500  0.0817 -0.4822
20895TIP3    H163567   9.487   7.040   8.848  1.0331  2.8789  0.0596
20895TIP3    H263568   9.628   7.015   8.799  0.4458 -1.1061  0.1181
20896TIP3   OH263569   6.493   4.109  10.530 -0.5777 -0.1890 -0.1141
20896TIP3    H163570   6.558   4.087  10.462  0.4242 -0.1536  0.8101
20896TIP3    H263571   6.484   4.029  10.581  0.5806  0.5212  1.2414
20897TIP3   OH263572   5.287   2.422   4.938 -0.6642 -0.7307  0.2596
20897TIP3    H163573   5.246   2.500   4.976 -2.4295 -0.8557 -1.2318
20897TIP3    H263574   5.284   2.437   4.844  1.6873 -1.3436  0.0316
20898TIP3   OH263575   4.416   5.858   1.413 -0.1495  0.1767  0.1968
20898TIP3    H163576   4.358   5.912   1.358  1.1723  0.2174 -1.2299
20898TIP3    H263577   4.499   5.905   1.415 -0.1427  0.1648  2.3018
20899TIP3   OH263578   1.455   8.593   9.852 -0.1445 -0.4466 -0.1478
20899TIP3    H163579   1.546   8.619   9.866  0.1458 -2.5271  2.5609
20899TIP3    H263580   1.449   8.505   9.890 -2.8361 -1.2184 -2.0779
20900TIP3   OH263581   9.051   3.690   3.231  0.4165  0.1410  0.1306
20900TIP3    H163582   9.009   3.606   3.214  1.9333 -0.4793 -0.8234
20900TIP3    H263583   9.145   3.672   3.221  0.7072  2.4541 -2.7155
20901TIP3   OH263584  10.734   3.664   0.090 -0.5725  0.0976  0.3835
20901TIP3    H163585  10.733   3.570   0.072 -2.0074 -0.2599  2.0613
20901TIP3    H263586  10.822   3.692   0.065  0.2653 -1.9115  0.8899
20902TIP3   OH263587  10.725   0.351   3.179 -0.1670 -0.4592  0.1579
20902TIP3    H163588  10.726   0.282   3.245 -0.1019  0.8497  1.5871
20902TIP3    H263589  10.636   0.387   3.183 -0.4129 -0.8981 -1.0682
20903TIP3   OH263590   8.904   3.298  10.084  0.2090 -0.2093 -0.8326
20903TIP3    H163591   8.902   3.375  10.028 -1.0841  0.7534  0.4522
20903TIP3    H263592   8.812   3.284  10.108  0.6617 -0.8298  0.6687
20904TIP3   OH263593   7.341   5.629   3.266  0.3855  0.0661 -0.4937
20904TIP3    H163594   7.347   5.721   3.291  2.2313  0.2494 -1.4742
20904TIP3    H263595   7.274   5.628   3.197  0.1048  0.6014 -0.2380
20905TIP3   OH263596   2.468  10.590  10.222 -0.5718  0.1359 -0.2149
20905TIP3    H163597   2.498  10.678  10.200 -0.8080 -0.0418 -1.3444
20905TIP3    H263598   2.539  10.532  10.193 -0.2002 -0.0290  0.9740
20906TIP3   OH263599  10.396   0.176   3.597 -0.5863  0.3323 -0.3856
20906TIP3    H163600  10.467   0.128   3.555 -1.0399 -0.9207  0.2247
20906TIP3    H263601  10.410   0.162   3.691 -1.8729 -0.2877 -0.2702
20907TIP3   OH263602   3.796  10.605  10.826 -0.5470  0.3347 -0.1256
20907TIP3    H163603   3.887  10.602  10.857 -0.0837  0.4578 -1.4106
20907TIP3    H263604   3.764  10.516  10.839  0.6447 -0.4634 -2.0761
20908TIP3   OH263605   6.813   5.336   9.107  0.3578 -0.3019 -0.3068
20908TIP3    H163606   6.810   5.415   9.160  1.3016  0.9481 -2.0191
20908TIP3    H263607   6.887   5.286   9.142  1.4573  0.8729 -0.9027
20909TIP3   OH263608   6.648   5.377   4.769  0.2827  0.1135 -0.6579
20909TIP3    H163609   6.665   5.290   4.803  0.6584 -0.0015 -1.1252
20909TIP3    H263610   6.604   5.362   4.685 -1.4256  0.3964  0.1331
20910TIP3   OH263611   1.713   4.656   5.418  0.4959 -0.2813  0.3697
20910TIP3    H163612   1.666   4.674   5.499 -0.7561  0.9585 -0.5876
20910TIP3    H263613   1.650   4.676   5.348  1.2514 -2.1015 -0.9248
20911TIP3   OH263614   3.990   5.545   9.647  0.0160  0.0967  0.1632
20911TIP3    H163615   3.896   5.531   9.638 -0.6078  1.0441  3.6021
20911TIP3    H263616   4.028   5.458   9.651 -0.6433 -0.2937 -1.4698
20912TIP3   OH263617   5.346   5.523   9.083  0.0755  0.0256  0.1833
20912TIP3    H163618   5.411   5.537   9.015  1.2072  2.5823  1.6644
20912TIP3    H263619   5.362   5.433   9.113  2.5167  0.3602  0.0631
20913TIP3   OH263620   1.208   7.471   6.174  0.0613 -0.7035  0.3731
20913TIP3    H163621   1.220   7.560   6.141  1.7339 -1.5092 -1.4222
20913TIP3    H263622   1.184   7.482   6.266  0.0436  1.5952  0.1421
20914TIP3   OH263623  10.342  10.905   8.474 -0.1320  0.1377 -0.6368
20914TIP3    H163624  10.318  10.874   8.386  1.4572 -0.1386 -1.0094
20914TIP3    H263625  10.324  10.831   8.532  1.4553 -0.7386 -1.1823
20915TIP3   OH263626  10.501  10.339   4.349 -0.3012 -0.5525 -0.0315
20915TIP3    H163627  10.566  10.269   4.361 -0.0084 -0.3627 -0.4913
20915TIP3    H263628  10.501  10.356   4.255  1.1517  1.5161  0.2828
20916TIP3   OH263629   4.669   5.799   0.318 -0.0343 -0.3153  0.8285
20916TIP3    H163630   4.591   5.753   0.287  0.5434 -1.5109  1.0911
20916TIP3    H263631   4.741   5.755   0.274  0.4805  1.1278  0.1709
20917TIP3   OH263632   0.977   9.603   1.229 -0.1797  0.9411  0.2362
20917TIP3    H163633   0.986   9.698   1.240 -0.0588  1.0271 -0.5205
20917TIP3    H263634   0.889   9.591   1.194 -0.4505  0.7054  0.9730
20918TIP3   OH263635   5.796   6.885   1.287 -0.5811  0.5918  0.1941
20918TIP3    H163636   5.726   6.919   1.232 -0.7048  1.8696  1.1032
20918TIP3    H263637   5.750   6.836   1.356 -0.5794  1.2219  0.6500
20919TIP3   OH263638   6.507   7.953  10.193 -0.6229  0.1583  0.2113
20919TIP3    H163639   6.512   8.048  10.198 -0.1606  0.1507 -0.0267
20919TIP3    H263640   6.420   7.931  10.227 -1.2386  0.7479 -0.9360
20920TIP3   OH263641   6.663   9.849   7.587  0.3095 -0.1778 -0.1000
20920TIP3    H163642   6.637   9.779   7.647  1.4584 -1.3428 -0.9238
20920TIP3    H263643   6.752   9.871   7.613 -0.3139  1.6074  0.6843
20921TIP3   OH263644   5.478   8.059   0.253 -0.0903  0.0226  0.8766
20921TIP3    H163645   5.547   8.120   0.281 -0.2350  0.8458 -0.4489
20921TIP3    H263646   5.435   8.033   0.334  2.0978 -0.9338  1.8194
20922TIP3   OH263647   5.911   4.402   6.145  0.1598  0.2428  0.7352
20922TIP3    H163648   5.858   4.374   6.069  1.1297 -2.4009  0.9237
20922TIP3    H263649   5.851   4.393   6.219 -0.5618  2.1118  0.4405
20923TIP3   OH263650   9.877   2.938   5.276  0.0559  0.7976 -0.5677
20923TIP3    H163651   9.793   2.984   5.276  0.9036  2.4223 -1.5614
20923TIP3    H263652   9.926   2.979   5.347 -0.2841 -0.7979  0.6393
20924TIP3   OH263653   1.366   4.163   1.752  0.4953  0.1881 -0.5151
20924TIP3    H163654   1.388   4.237   1.808  0.6621 -1.7283  2.0888
20924TIP3    H263655   1.422   4.174   1.675  0.3028  2.8596 -0.3644
20925TIP3   OH263656   3.671   1.795   8.686  0.1301 -0.5873  0.0584
20925TIP3    H163657   3.598   1.823   8.741 -0.2605  0.1266 -0.7910
20925TIP3    H263658   3.661   1.700   8.681  0.8148 -0.8106  2.0649
20926TIP3   OH263659   9.666   0.409   8.332 -0.1725 -0.4859  0.8469
20926TIP3    H163660   9.585   0.444   8.368 -0.3275 -0.2622  0.2938
20926TIP3    H263661   9.730   0.480   8.342 -1.2852  1.4764 -3.3779
20927TIP3   OH263662   5.055   8.494   1.987 -0.1337 -0.0583 -0.2412
20927TIP3    H163663   5.089   8.407   2.010  0.5351 -0.0041 -0.9899
20927TIP3    H263664   5.019   8.483   1.899  0.1624  0.4744 -0.4322
20928TIP3   OH263665   9.985   3.686   6.316  0.3000 -0.1510 -0.1622
20928TIP3    H163666  10.003   3.598   6.351 -0.6403  0.4966  2.1273
20928TIP3    H263667   9.947   3.670   6.229  1.5426 -1.9194 -0.4357
20929TIP3   OH263668   4.525   2.101   3.006  0.8237 -0.1374  0.4418
20929TIP3    H163669   4.563   2.098   3.093  0.0070 -1.3624  0.7829
20929TIP3    H263670   4.600   2.096   2.947  1.2791 -1.3589  1.0912
20930TIP3   OH263671   1.006   9.323   7.177  0.3278  0.8109 -0.6307
20930TIP3    H163672   1.070   9.386   7.143 -0.8773  1.0156 -2.6491
20930TIP3    H263673   1.009   9.249   7.116 -0.9549  0.5882 -0.4557
20931TIP3   OH263674   4.507   2.932   8.777  0.0570  0.2098 -0.3464
20931TIP3    H163675   4.568   2.870   8.817  0.5636  0.5224 -0.6260
20931TIP3    H263676   4.425   2.884   8.770  0.8258 -0.9461 -1.9357
20932TIP3   OH263677   8.553   7.924   6.428 -0.5515  0.1238 -0.4600
20932TIP3    H163678   8.548   7.830   6.409 -0.3738  0.3166 -1.5522
20932TIP3    H263679   8.473   7.960   6.388 -0.6178  0.4460 -0.0454
20933TIP3   OH263680   2.834   4.286   7.027  0.3848  0.2459  0.1218
20933TIP3    H163681   2.894   4.233   6.975  0.0827  1.1851 -1.2461
20933TIP3    H263682   2.762   4.227   7.049  1.9423 -1.0263  2.1665
20934TIP3   OH263683   7.753   8.375  10.745  0.2220 -0.4356  0.8529
20934TIP3    H163684   7.740   8.430  10.667 -1.2534  0.4016  1.6502
20934TIP3    H263685   7.742   8.286  10.713 -1.5259 -0.0527  0.2667
20935TIP3   OH263686   9.816   8.777   6.647  0.1560  0.1900  0.2895
20935TIP3    H163687   9.766   8.757   6.727  0.4471  0.5087  0.5553
20935TIP3    H263688   9.821   8.694   6.601 -1.0718  0.2597 -0.0024
20936TIP3   OH263689   9.044   3.628   2.645 -1.0811  1.1210 -0.3989
20936TIP3    H163690   9.062   3.689   2.574 -2.5290 -0.0281 -1.8308
20936TIP3    H263691   8.956   3.651   2.676 -0.6209  1.3632  0.7735
20937TIP3   OH263692   1.494   4.697   0.770  0.2338  0.1593 -0.0058
20937TIP3    H163693   1.491   4.649   0.687  1.4834 -4.0539  2.0946
20937TIP3    H263694   1.585   4.693   0.798 -0.4505 -0.3805  2.4567
20938TIP3   OH263695   7.694   0.428   3.263  0.2261  0.1003 -0.4477
20938TIP3    H163696   7.646   0.399   3.340  3.7454  0.0450  1.9588
20938TIP3    H263697   7.715   0.348   3.215  0.1575 -0.1267 -0.0988
20939TIP3   OH263698   4.283   3.846   1.453 -0.6454 -0.3513  0.6660
20939TIP3    H163699   4.321   3.917   1.504 -0.0752 -0.6997  0.7438
20939TIP3    H263700   4.359   3.795   1.423 -0.9580 -0.1211 -0.5862
20940TIP3   OH263701   7.788   3.739   2.056 -0.3927 -0.5403  0.5267
20940TIP3    H163702   7.880   3.755   2.077 -0.2766 -0.2551 -0.1519
20940TIP3    H263703   7.781   3.644   2.049 -0.6409 -0.7257  2.6572
20941TIP3   OH263704   3.143   0.338   4.227 -0.2669 -0.3195  0.3862
20941TIP3    H163705   3.125   0.255   4.184 -1.1235  0.1388 -0.1709
20941TIP3    H263706   3.058   0.382   4.232  0.0869  0.3142  1.1206
20942TIP3   OH263707   5.605   4.684   5.152 -0.0053  0.2667  0.0403
20942TIP3    H163708   5.642   4.758   5.103  1.0624 -1.1380 -1.3890
20942TIP3    H263709   5.660   4.609   5.128 -1.4420 -1.1416  0.9177
20943TIP3   OH263710   4.381   0.318  10.594  0.2761 -1.0003 -0.0989
20943TIP3    H163711   4.446   0.381  10.624 -0.8578 -0.2436  0.8530
20943TIP3    H263712   4.426   0.268  10.526  1.1007  1.1172 -1.2241
20944TIP3   OH263713   3.487   1.499   7.700 -0.4276 -0.1065  0.0227
20944TIP3    H163714   3.474   1.456   7.785 -0.7881 -0.5062 -0.2260
20944TIP3    H263715   3.577   1.476   7.676 -0.3974 -0.1762  0.1947
20945TIP3   OH263716   7.049  10.812   4.589 -0.1347  0.2295  0.2855
20945TIP3    H163717   7.010  10.886   4.544  0.1768 -0.4978 -1.2339
20945TIP3    H263718   7.123  10.850   4.637 -0.7066  1.0711  0.5334
20946TIP3   OH263719   4.656   6.407   2.369  0.6241  0.3022  0.3687
20946TIP3    H163720   4.689   6.449   2.290  1.8890  0.4753  0.9659
20946TIP3    H263721   4.664   6.313   2.351 -0.5256  0.3124 -0.2773
20947TIP3   OH263722   6.256   8.901   2.338 -0.2800 -0.1027  0.0144
20947TIP3    H163723   6.187   8.894   2.273  1.3898 -2.0715 -1.6841
20947TIP3    H263724   6.256   8.817   2.383  1.3084 -0.3709 -0.4104
20948TIP3   OH263725   5.517   0.111   3.375 -0.0638  0.1585  0.0955
20948TIP3    H163726   5.530   0.016   3.380  0.3755  0.2243  0.2129
20948TIP3    H263727   5.585   0.141   3.314  0.2159  0.4786  0.5581
20949TIP3   OH263728   9.906   6.090   7.694 -0.4365  0.0158  0.3446
20949TIP3    H163729   9.870   6.058   7.612  1.2812 -1.4230  0.0890
20949TIP3    H263730   9.907   6.185   7.685 -0.7332 -0.1032 -1.0836
20950TIP3   OH263731   8.629   0.259   4.768 -0.0121  0.0628 -0.1410
20950TIP3    H163732   8.640   0.203   4.691 -0.7013 -2.5093  1.5265
20950TIP3    H263733   8.580   0.205   4.830 -1.8109  2.9667  1.1662
20951TIP3   OH263734   2.049   1.919  10.775  0.2968 -0.1955  0.2249
20951TIP3    H163735   2.002   2.002  10.769 -1.8375 -1.3912 -2.5535
20951TIP3    H263736   1.980   1.852  10.764  2.2058 -2.2106 -0.3035
20952TIP3   OH263737   9.262   1.944   8.573 -0.1914 -0.0736  0.1492
20952TIP3    H163738   9.200   1.887   8.618  0.2173 -1.5341 -1.0438
20952TIP3    H263739   9.208   1.995   8.512 -0.3299 -0.7283 -0.2839
20953TIP3   OH263740   7.309   7.631   8.062  0.3359  0.1898  0.1688
20953TIP3    H163741   7.277   7.715   8.094  2.6546  1.1323  0.2010
20953TIP3    H263742   7.396   7.622   8.103  0.2937 -2.0480 -0.1289
20954TIP3   OH263743   1.159   4.394   3.820  0.1455 -0.7129 -0.6891
20954TIP3    H163744   1.083   4.436   3.781  1.1001  0.8543 -0.9424
20954TIP3    H263745   1.153   4.414   3.913 -0.5827 -1.9860 -0.4311
20955TIP3   OH263746   3.250   8.293   0.602 -0.0742 -0.7703 -0.7732
20955TIP3    H163747   3.222   8.345   0.527 -0.6047 -2.3097 -1.6952
20955TIP3    H263748   3.345   8.283   0.590 -0.1045 -0.7231 -1.0659
20956TIP3   OH263749   6.007  10.056   6.975  0.0746 -0.1518 -0.5609
20956TIP3    H163750   5.924  10.036   7.018 -0.2318  0.7808 -0.7004
20956TIP3    H263751   6.065   9.983   6.999 -1.0324 -1.2558 -1.1818
20957TIP3   OH263752   2.956  10.629   1.672 -0.2496  0.4580  0.5351
20957TIP3    H163753   2.999  10.546   1.693  1.9017  1.5947  0.8827
20957TIP3    H263754   2.884  10.635   1.735 -0.3673 -1.0493  0.5932
20958TIP3   OH263755   9.807   0.313   4.605 -0.2251  0.0620  0.8748
20958TIP3    H163756   9.863   0.246   4.644 -0.2341 -0.1761  0.4758
20958TIP3    H263757   9.739   0.264   4.558 -0.3412  0.3507  0.7393
20959TIP3   OH263758   6.918   3.567   7.034  0.6652 -0.2838 -0.5217
20959TIP3    H163759   7.011   3.555   7.016  1.0779  2.0879 -0.2833
20959TIP3    H263760   6.915   3.615   7.116 -0.6801  1.1663 -1.3712
20960TIP3   OH263761   1.437   3.763   3.500  0.3770  0.1684  0.2682
20960TIP3    H163762   1.409   3.823   3.569  0.2131 -1.5964  1.8283
20960TIP3    H263763   1.362   3.759   3.440 -0.1714  0.4394  0.9180
20961TIP3   OH263764  10.391   8.791   1.529  0.4605  0.2855  0.1963
20961TIP3    H163765  10.396   8.716   1.589 -0.3578  0.4155  0.4344
20961TIP3    H263766  10.310   8.836   1.554  0.8132  1.1068 -0.1186
20962TIP3   OH263767   0.361   4.969   2.839  0.3962 -0.3785  0.3155
20962TIP3    H163768   0.292   4.981   2.904  1.4247 -0.5343  1.4831
20962TIP3    H263769   0.407   5.052   2.837 -1.8222  0.9936 -3.0250
20963TIP3   OH263770   1.485   8.121   6.502 -0.7433 -0.5010  0.5744
20963TIP3    H163771   1.573   8.149   6.478 -0.8520 -0.1652  0.5535
20963TIP3    H263772   1.465   8.048   6.444 -0.4499 -0.6277  0.6323
20964TIP3   OH263773   5.005   0.201   6.058  0.0356 -0.0367 -0.6779
20964TIP3    H163774   5.046   0.153   6.129 -3.3497 -3.4590 -0.7232
20964TIP3    H263775   4.929   0.242   6.097 -0.3380  0.3782 -1.7890
20965TIP3   OH263776   3.954   3.630   8.881 -0.5465  0.6874 -0.1181
20965TIP3    H163777   3.936   3.723   8.875 -0.5057  0.5989 -2.6671
20965TIP3    H263778   4.033   3.617   8.829  0.4881 -0.5631  1.6400
20966TIP3   OH263779   9.012   0.635   4.708  0.1948 -0.3445 -0.4936
20966TIP3    H163780   8.963   0.654   4.628 -1.1952 -1.3316  0.0858
20966TIP3    H263781   8.963   0.564   4.749  1.1502 -0.1614  1.0080
20967TIP3   OH263782   7.950   6.444   2.512 -0.1386  0.5149 -0.2973
20967TIP3    H163783   8.014   6.425   2.444 -0.9154 -1.8590 -0.4756
20967TIP3    H263784   7.866   6.421   2.472 -0.6605 -0.4470  1.2557
20968TIP3   OH263785   5.369   7.044   8.362  0.2457  0.2005 -0.0815
20968TIP3    H163786   5.462   7.039   8.338  0.1102  2.2857 -1.3780
20968TIP3    H263787   5.326   7.077   8.282 -1.4502  0.2379  0.8052
20969TIP3   OH263788   7.646   9.016   0.512  0.3695 -0.1259 -0.4643
20969TIP3    H163789   7.614   8.926   0.501  0.5426 -0.4794  1.4943
20969TIP3    H263790   7.589   9.069   0.457 -2.0155 -1.0344  0.9741
20970TIP3   OH263791   2.512   5.359   2.424 -0.2023 -0.8320 -0.4200
20970TIP3    H163792   2.575   5.287   2.417  0.4027 -0.2631 -0.9768
20970TIP3    H263793   2.495   5.366   2.518 -0.9804 -2.2894 -0.4270
20971TIP3   OH263794   3.242   3.062   3.360 -0.0915  0.3736 -0.1832
20971TIP3    H163795   3.235   3.039   3.267 -1.4136  0.8299 -0.2175
20971TIP3    H263796   3.272   3.153   3.360  0.6639  0.1298 -0.1390
20972TIP3   OH263797   8.489   0.114  10.281  0.0024 -0.8203  0.5504
20972TIP3    H163798   8.496   0.142  10.372  1.2521 -0.6857  0.4341
20972TIP3    H263799   8.580   0.096  10.254 -0.1363  0.6421 -1.1104
20973TIP3   OH263800   9.973   2.336  10.856  0.3300 -0.7461 -0.4620
20973TIP3    H163801  10.032   2.266  10.885  2.4586  0.6209 -1.2517
20973TIP3    H263802  10.014   2.416  10.888  0.3871  0.4814 -3.2858
20974TIP3   OH263803   0.702   4.580   6.573  0.6468 -0.4366 -0.0825
20974TIP3    H163804   0.723   4.582   6.666 -0.4649  0.7179  0.1698
20974TIP3    H263805   0.785   4.601   6.530  0.5683  2.1664  0.8218
20975TIP3   OH263806   7.836   5.455   4.770 -0.6287 -0.3255  0.4827
20975TIP3    H163807   7.796   5.426   4.687 -1.9771 -0.5283  1.1817
20975TIP3    H263808   7.774   5.429   4.837 -0.2013  1.0815  1.4608
20976TIP3   OH263809   8.113   8.012   6.051  0.4063 -0.1418 -0.1547
20976TIP3    H163810   8.106   7.930   6.100  1.7523  0.1338  0.5383
20976TIP3    H263811   8.111   7.985   5.959 -0.2880 -0.8391  0.0564
20977TIP3   OH263812   7.664   4.442   9.719  0.2175 -0.5609  0.1969
20977TIP3    H163813   7.593   4.415   9.777  0.5879 -0.6793  0.6024
20977TIP3    H263814   7.670   4.372   9.654 -0.4279 -0.2591 -0.1956
20978TIP3   OH263815   0.905  10.762   4.395  0.0896  0.1951  0.7486
20978TIP3    H163816   0.913  10.755   4.300 -3.0727  0.6928  0.3272
20978TIP3    H263817   0.938  10.678   4.428 -1.9199 -1.4546 -1.1275
20979TIP3   OH263818  10.440   9.638   2.425 -0.2646 -0.9741 -0.2085
20979TIP3    H163819  10.459   9.675   2.511 -2.7369 -1.8429  0.8124
20979TIP3    H263820  10.409   9.712   2.373 -0.9936 -0.8324  0.4169
20980TIP3   OH263821   0.476   8.765   6.330  0.5751 -0.1268  0.1106
20980TIP3    H163822   0.507   8.777   6.420 -1.9598 -0.4795  1.1024
20980TIP3    H263823   0.389   8.805   6.329  0.5565 -0.0978 -2.2226
20981TIP3   OH263824   5.857   6.901   1.726 -0.0670  0.0043  0.4410
20981TIP3    H163825   5.849   6.813   1.689  1.2159 -0.8307  2.0278
20981TIP3    H263826   5.780   6.911   1.782  0.3566 -0.5698  1.1350
20982TIP3   OH263827   2.827   5.674   6.786  0.7434  0.0307 -0.0294
20982TIP3    H163828   2.732   5.666   6.797  0.7487  1.1642  0.9691
20982TIP3    H263829   2.863   5.601   6.836  0.4551  0.6351  1.0815
20983TIP3   OH263830   4.820   6.033  10.582  0.0042 -0.2264  0.2353
20983TIP3    H163831   4.798   6.126  10.577  0.8342  0.1144  2.2371
20983TIP3    H263832   4.915   6.030  10.572  0.0409 -0.8045  0.7127
20984TIP3   OH263833   3.302   1.520   5.451 -0.1787  0.5058 -0.3332
20984TIP3    H163834   3.269   1.609   5.462 -2.3507 -0.2069 -0.6133
20984TIP3    H263835   3.311   1.510   5.356 -2.1492 -0.2596 -0.4854
20985TIP3   OH263836   2.202   5.902   6.290 -0.0514  0.0985  0.0813
20985TIP3    H163837   2.278   5.914   6.233  0.4526  0.2222  0.7642
20985TIP3    H263838   2.223   5.823   6.340 -0.3028  0.2189  0.3768
20986TIP3   OH263839   5.674   9.396   5.172  0.1499  0.3846 -0.5149
20986TIP3    H163840   5.635   9.317   5.208  1.7636 -0.1682  0.1010
20986TIP3    H263841   5.655   9.464   5.236  1.6435 -0.2548  0.6587
20987TIP3   OH263842   6.935   4.088   3.127 -0.4491 -0.1189  0.2191
20987TIP3    H163843   6.952   4.035   3.204 -2.2701 -1.2170 -0.0847
20987TIP3    H263844   6.969   4.175   3.149  0.4513 -0.8021  1.6291
20988TIP3   OH263845   3.099   9.667   3.320  0.3802 -0.2471  0.7314
20988TIP3    H163846   3.185   9.709   3.307  0.3435 -0.5012 -0.3888
20988TIP3    H263847   3.044   9.737   3.356  0.5608  0.4537 -0.2913
20989TIP3   OH263848   8.189   4.710   8.012  0.2518 -0.0501 -0.0544
20989TIP3    H163849   8.165   4.754   7.931 -3.5683  0.7080  1.2849
20989TIP3    H263850   8.153   4.622   8.004 -2.0557  0.6724  1.5152
20990TIP3   OH263851   0.630  10.723   4.725  0.6053 -0.1116 -0.0514
20990TIP3    H163852   0.560  10.760   4.778  0.5542 -1.4566  0.8607
20990TIP3    H263853   0.625  10.771   4.642 -2.0127 -0.7502 -0.3730
20991TIP3   OH263854   3.869  10.287  10.098 -0.3469 -0.0673  0.0462
20991TIP3    H163855   3.960  10.269  10.073 -0.5821  0.8891 -1.5772
20991TIP3    H263856   3.834  10.340  10.027 -1.6765  1.0588  1.4735
20992TIP3   OH263857   6.288   6.160   5.357  0.3467  0.2323  0.1606
20992TIP3    H163858   6.215   6.098   5.354 -0.0735  0.6994  0.5105
20992TIP3    H263859   6.362   6.113   5.319 -0.2716 -0.0645 -0.7091
20993TIP3   OH263860   8.891   3.950   6.372 -1.1144  0.0071  0.1102
20993TIP3    H163861   8.933   3.865   6.372 -1.1536 -0.0120 -0.0493
20993TIP3    H263862   8.829   3.946   6.445 -0.0454  0.4323  1.0736
20994TIP3   OH263863   7.379   0.434   0.554 -1.0391 -0.1537  0.6125
20994TIP3    H163864   7.375   0.340   0.541 -2.8332  0.0131 -0.4506
20994TIP3    H263865   7.461   0.449   0.601 -1.4125 -2.3604  2.0806
20995TIP3   OH263866   8.880   4.260   0.069 -0.5955 -0.5045  0.0341
20995TIP3    H163867   8.787   4.282   0.071 -0.3473  0.5845  1.5550
20995TIP3    H263868   8.911   4.281   0.157  1.5650  1.3642 -1.0738
20996TIP3   OH263869   8.928   5.249   7.609 -0.6877  0.0144 -0.0549
20996TIP3    H163870   9.007   5.219   7.564 -1.5639 -0.9283 -0.9921
20996TIP3    H263871   8.959   5.276   7.696  0.7544  0.2413 -0.6144
20997TIP3   OH263872   7.564   4.651   6.421 -0.7155 -0.1360  0.0881
20997TIP3    H163873   7.591   4.630   6.510 -0.2209  0.4139  0.0666
20997TIP3    H263874   7.611   4.588   6.366 -0.8542 -0.3338  0.1943
20998TIP3   OH263875   3.377   1.104   7.582  0.1546 -0.7356 -0.8543
20998TIP3    H163876   3.312   1.146   7.525  0.9782  0.3241 -1.0629
20998TIP3    H263877   3.461   1.142   7.554  0.7350 -1.2224  0.1587
20999TIP3   OH263878   1.650   9.239   7.601 -0.2789 -0.0310 -0.2796
20999TIP3    H163879   1.615   9.150   7.594  0.1296 -0.2024 -0.1448
20999TIP3    H263880   1.725   9.231   7.660 -0.0462  0.3466 -0.5199
21000TIP3   OH263881   5.401  10.550   9.936  0.5194 -0.4967 -0.2388
21000TIP3    H163882   5.350  10.556  10.017  0.0786  0.4729 -0.5837
21000TIP3    H263883   5.381  10.630   9.888  1.5061 -0.6186 -0.8927
21001TIP3   OH263884   0.474   1.882  10.798  0.1922  0.0110 -0.1482
21001TIP3    H163885   0.552   1.933  10.821  0.2254 -1.0482  2.4896
21001TIP3    H263886   0.406   1.947  10.782  1.5315  0.9534 -2.3714
21002TIP3   OH263887   6.781   4.547   1.288  0.3899 -0.3686  0.4728
21002TIP3    H163888   6.781   4.470   1.231  2.2610 -0.0140 -0.0980
21002TIP3    H263889   6.768   4.621   1.228  0.2505 -0.1389  0.7852
21003TIP3   OH263890   7.155   3.396  10.361 -0.7030 -0.3693 -0.6605
21003TIP3    H163891   7.060   3.391  10.360 -0.8267  1.3686 -0.4260
21003TIP3    H263892   7.177   3.444  10.281 -0.1082  0.3077 -0.0976
21004TIP3   OH263893   1.446   8.594   3.417 -0.4761 -0.0469  0.1645
21004TIP3    H163894   1.522   8.645   3.387 -1.0505  1.5755  1.3076
21004TIP3    H263895   1.471   8.503   3.401  2.1471  0.3443  1.3442
21005TIP3   OH263896   4.815   7.228   0.446  0.7368 -0.4978  0.3875
21005TIP3    H163897   4.861   7.285   0.508 -0.5917 -0.0923  1.0418
21005TIP3    H263898   4.723   7.249   0.459  0.1913 -2.9164  0.7449
21006TIP3   OH263899   5.358   0.275  10.743 -0.0190 -0.5318 -0.3106
21006TIP3    H163900   5.319   0.328  10.674 -0.7164  0.2217  0.6369
21006TIP3    H263901   5.404   0.338  10.799  2.9988 -1.4143 -1.6088
21007TIP3   OH263902   9.690   6.310   6.914  0.4841 -0.3900 -0.3707
21007TIP3    H163903   9.683   6.386   6.972  0.7647 -0.8888  0.3321
21007TIP3    H263904   9.776   6.319   6.872  1.9339 -1.8914  2.0378
21008TIP3   OH263905   0.729  10.424  10.334 -0.1397 -0.0921  0.6549
21008TIP3    H163906   0.718  10.346  10.280  0.9407 -0.3106  0.7306
21008TIP3    H263907   0.796  10.400  10.399 -0.3251  0.6542  1.1363
21009TIP3   OH263908   4.970   1.479   5.979  1.1151 -0.4082  0.3551
21009TIP3    H163909   4.943   1.545   6.043 -2.9121 -0.2532 -1.2080
21009TIP3    H263910   5.003   1.530   5.905 -0.3889 -0.2027 -0.1894
21010TIP3   OH263911   8.816   2.423   0.156 -0.1395  0.5007  0.0526
21010TIP3    H163912   8.905   2.398   0.134 -0.3924 -0.6671  0.2760
21010TIP3    H263913   8.799   2.501   0.103  1.4080  1.4610  0.9206
21011TIP3   OH263914   6.686   3.862   5.471  0.0430  0.5659 -0.1667
21011TIP3    H163915   6.626   3.833   5.539 -0.0693  0.4841 -0.2997
21011TIP3    H263916   6.668   3.955   5.460  0.8120  0.8312  0.6789
21012TIP3   OH263917   3.934   6.509   0.772 -0.0312  0.2528  0.4864
21012TIP3    H163918   3.966   6.453   0.843 -1.3625 -1.7174 -0.3953
21012TIP3    H263919   3.866   6.562   0.813 -1.8520 -1.9223  0.4555
21013TIP3   OH263920   6.328   8.541   8.781  0.7508 -0.3588 -0.0832
21013TIP3    H163921   6.314   8.469   8.720 -3.0734  1.4201 -1.6171
21013TIP3    H263922   6.404   8.588   8.745 -0.3382 -0.3462 -2.5463
21014TIP3   OH263923   5.934   2.172   0.522 -0.0901  0.6006 -0.0860
21014TIP3    H163924   5.858   2.226   0.545  0.7718  1.2558  1.3164
21014TIP3    H263925   5.925   2.095   0.578 -0.0786  0.3639 -0.4105
21015TIP3   OH263926   7.278   6.616   4.947 -0.4222  0.1632 -0.4791
21015TIP3    H163927   7.189   6.642   4.925 -2.0280 -3.1755  1.2876
21015TIP3    H263928   7.328   6.628   4.866 -2.7712  0.8885 -1.9001
21016TIP3   OH263929   4.945   6.385   2.421  0.2606  0.3981  0.6188
21016TIP3    H163930   5.034   6.402   2.453 -0.3341  0.1052  2.5505
21016TIP3    H263931   4.927   6.294   2.446 -0.8176  0.6649  0.8866
21017TIP3   OH263932   4.315   2.149   1.855  0.4361 -0.2529  0.4763
21017TIP3    H163933   4.357   2.217   1.908  0.7626 -0.4906  0.5218
21017TIP3    H263934   4.235   2.191   1.823 -0.8934 -0.7508  2.8817
21018TIP3   OH263935  10.497   8.145   8.724  0.4270  0.2800  0.4145
21018TIP3    H163936  10.555   8.214   8.692  1.0656 -0.5375 -0.2379
21018TIP3    H263937  10.536   8.118   8.808  0.5118  0.3046  0.3832
21019TIP3   OH263938   4.865   9.811   5.669 -0.5156 -0.2205  0.2847
21019TIP3    H163939   4.856   9.781   5.759  0.5812  0.1018  0.5127
21019TIP3    H263940   4.853   9.732   5.616  2.3631 -1.1788  0.8733
21020TIP3   OH263941   6.738  10.785   6.328 -0.0661 -0.1636  0.0986
21020TIP3    H163942   6.722  10.821   6.415 -1.4677 -2.3902  0.8434
21020TIP3    H263943   6.823  10.740   6.336  0.1690  0.2638  0.0659
21021TIP3   OH263944   5.257   1.194   8.800  0.5045  0.2617 -0.2728
21021TIP3    H163945   5.179   1.189   8.746 -0.8929 -2.8710  1.7097
21021TIP3    H263946   5.229   1.244   8.877  1.2307  1.1858 -0.5919
21022TIP3   OH263947   6.870   9.294   0.361  0.1963 -0.5384 -0.2153
21022TIP3    H163948   6.851   9.382   0.327 -0.0823  0.1054  1.4641
21022TIP3    H263949   6.939   9.261   0.305 -0.3737  0.3551 -1.5024
21023TIP3   OH263950   1.104   3.532   9.900  0.3524  0.0435  0.0717
21023TIP3    H163951   1.038   3.600   9.917 -0.6187 -0.8542  0.0314
21023TIP3    H263952   1.127   3.499   9.987 -0.2042 -0.4982  0.0231
21024TIP3   OH263953   2.120   3.145   6.583 -0.0351 -0.0263 -0.0278
21024TIP3    H163954   2.061   3.090   6.634 -0.4148 -0.1739 -0.6067
21024TIP3    H263955   2.184   3.084   6.546 -0.1719 -0.0175 -0.2830
21025TIP3   OH263956  10.228  10.260   2.849 -0.6042 -0.3654  0.1620
21025TIP3    H163957  10.284  10.273   2.772 -0.6407 -0.5085  0.1114
21025TIP3    H263958  10.256  10.327   2.911  1.0434 -1.7282  0.9572
21026TIP3   OH263959   3.339   5.374   4.873  0.5042 -0.2570 -0.3701
21026TIP3    H163960   3.341   5.468   4.855  1.1040 -0.2606 -0.3536
21026TIP3    H263961   3.249   5.347   4.855  0.2365  0.3921 -0.0086
21027TIP3   OH263962   1.429   9.690   3.851  0.7455 -0.9599  0.1867
21027TIP3    H163963   1.518   9.719   3.829  0.4040 -1.0334 -1.4297
21027TIP3    H263964   1.439   9.596   3.870  1.0104 -0.9798 -0.0373
21028TIP3   OH263965   2.555  10.117   4.338  0.2023 -0.2770  0.0346
21028TIP3    H163966   2.599  10.173   4.402  2.4144  0.6451 -2.1268
21028TIP3    H263967   2.463  10.144   4.342  0.5026  0.6772  1.8235
21029TIP3   OH263968   7.161   7.411   0.289 -0.5145  0.3204  0.8086
21029TIP3    H163969   7.182   7.441   0.378  0.7115 -0.3351  0.7642
21029TIP3    H263970   7.224   7.340   0.272 -0.9965  0.1631 -0.4338
21030TIP3   OH263971   5.054   7.313   5.577  0.7261 -0.2804 -0.1684
21030TIP3    H163972   5.119   7.248   5.552 -0.2146 -1.3486  0.1006
21030TIP3    H263973   5.027   7.288   5.665 -1.8137 -1.3550 -1.1699
21031TIP3   OH263974   3.863   8.320   5.859  0.1323  0.2424  0.5091
21031TIP3    H163975   3.934   8.303   5.921  1.0725  0.7567 -0.3859
21031TIP3    H263976   3.785   8.286   5.902  0.8535  0.0166  1.6976
21032TIP3   OH263977  10.255   5.745   0.644  0.4302 -0.0044  0.5104
21032TIP3    H163978  10.207   5.805   0.701  1.9306 -0.5406  2.4923
21032TIP3    H263979  10.346   5.774   0.651  1.0712 -1.9566  0.8402
21033TIP3   OH263980   4.775   5.020   1.767 -0.4527 -0.0947  0.3675
21033TIP3    H163981   4.686   5.005   1.799 -0.7539  1.7615  0.5330
21033TIP3    H263982   4.808   5.091   1.822  0.8300 -0.1676 -0.2700
21034TIP3   OH263983   3.924   0.150  10.508 -0.1636  0.4976 -0.4425
21034TIP3    H163984   3.896   0.113  10.593  5.2483  1.6136  2.2431
21034TIP3    H263985   3.912   0.244  10.518 -1.3025  0.5527 -1.8843
21035TIP3   OH263986   6.443   6.319   1.293  0.6492 -0.0570  0.3896
21035TIP3    H163987   6.384   6.295   1.365 -1.0873  0.3086 -0.8504
21035TIP3    H263988   6.531   6.300   1.326 -0.1836 -1.0210  2.1546
21036TIP3   OH263989   0.006   9.548   6.739 -0.1573 -0.0130  0.4456
21036TIP3    H163990   0.087   9.580   6.699 -1.3551  2.6958 -0.0051
21036TIP3    H263991   0.001   9.593   6.824 -0.5643 -1.1905  1.0762
21037TIP3   OH263992   1.008   4.301   9.979 -0.4528  0.2854  0.0983
21037TIP3    H163993   0.962   4.224   9.945 -0.2090 -0.0548  0.5262
21037TIP3    H263994   1.100   4.286   9.956 -0.2437 -0.0735  1.1185
21038TIP3   OH263995   7.015   4.995   1.753  0.0000 -0.2520 -0.1625
21038TIP3    H163996   7.089   4.936   1.763 -0.1285 -0.4314 -0.2727
21038TIP3    H263997   7.052   5.082   1.768  0.0856 -0.3970  0.5276
21039TIP3   OH263998   1.419   6.321   8.480  0.3212 -0.0919  0.1910
21039TIP3    H163999   1.457   6.297   8.565 -0.7339 -1.3847  0.3339
21039TIP3    H264000   1.380   6.407   8.494 -1.4077 -1.0248  1.5863
21040TIP3   OH264001   5.480   1.577   9.191  0.3028  0.1808  0.2217
21040TIP3    H164002   5.540   1.583   9.265 -0.8471 -0.7359  1.2729
21040TIP3    H264003   5.534   1.545   9.119  0.7334 -2.6869  1.6802
21041TIP3   OH264004   7.598   2.514   6.927  0.9239 -0.2988  0.4351
21041TIP3    H164005   7.638   2.511   6.840 -0.3993 -0.7917 -0.1724
21041TIP3    H264006   7.535   2.442   6.927 -1.4409  1.6584  0.6044
21042TIP3   OH264007  10.864   8.127   7.694  0.2536  0.7558  0.2054
21042TIP3    H164008  10.779   8.167   7.673  0.8747  1.4800 -1.0707
21042TIP3    H264009  10.863   8.116   7.789 -0.2110  3.2339  0.5441
21043TIP3   OH264010   3.527   6.693   8.597  0.2504  0.1109  0.0604
21043TIP3    H164011   3.590   6.662   8.663  1.3080 -1.2975 -1.5098
21043TIP3    H264012   3.580   6.745   8.537 -0.3012 -0.1985 -0.7048
21044TIP3   OH264013   1.525   1.691   1.983 -0.0858  0.2903  0.4307
21044TIP3    H164014   1.620   1.692   1.991 -0.0828  2.0200  0.5945
21044TIP3    H264015   1.507   1.738   1.902 -0.7999 -0.3424  0.2074
21045TIP3   OH264016   8.352   4.165   2.964  0.6413  0.5342 -0.3170
21045TIP3    H164017   8.303   4.230   3.015  1.2741  1.7923 -1.2736
21045TIP3    H264018   8.442   4.194   2.969  0.9988 -0.4893 -0.4903
21046TIP3   OH264019   3.980   8.598   0.300 -0.2679  0.7551  0.6074
21046TIP3    H164020   3.975   8.635   0.212 -1.3356  2.7572  1.4469
21046TIP3    H264021   4.074   8.585   0.315 -0.0829  0.1938 -0.8677
21047TIP3   OH264022   4.809   1.077   7.483  0.0353 -0.0518 -0.1675
21047TIP3    H164023   4.792   0.983   7.490 -3.7377  0.4644 -0.4356
21047TIP3    H264024   4.815   1.094   7.389  1.0386 -0.0113 -0.1121
21048TIP3   OH264025   1.253   7.750   2.278  0.4482 -0.0692  0.0102
21048TIP3    H164026   1.320   7.693   2.315 -1.0965 -2.1616 -0.1852
21048TIP3    H264027   1.229   7.708   2.195 -0.3563  1.1996 -0.4369
21049TIP3   OH264028   0.857  10.346   3.325 -0.3810  0.0498  0.3927
21049TIP3    H164029   0.851  10.253   3.344  1.2009  0.3038  2.5467
21049TIP3    H264030   0.882  10.351   3.233  0.1365 -1.6856  0.4140
21050TIP3   OH264031   8.988   3.482   2.332 -0.4113 -0.7226  0.7462
21050TIP3    H164032   8.921   3.423   2.297 -1.7217  0.6499  0.8638
21050TIP3    H264033   8.961   3.499   2.422  0.8759 -1.2283  1.2615
21051TIP3   OH264034   2.505   4.025   5.016  0.2138  0.2261  0.3554
21051TIP3    H164035   2.543   3.998   5.100  0.6683 -1.3861 -0.3382
21051TIP3    H264036   2.572   4.081   4.977 -0.3689  1.7391  1.4213
21052TIP3   OH264037   5.518   2.260   1.070 -0.6299  0.3475  0.0477
21052TIP3    H164038   5.562   2.206   1.004  0.5251 -1.0972  1.9011
21052TIP3    H264039   5.484   2.335   1.021  0.6208 -0.4023 -2.0907
21053TIP3   OH264040   7.250   8.382   6.540 -0.4932  0.6793 -0.0353
21053TIP3    H164041   7.198   8.345   6.469 -1.2620 -0.9112  1.2934
21053TIP3    H264042   7.194   8.452   6.576 -0.0496  1.5726 -1.0286
21054TIP3   OH264043   0.500   1.662   3.804  0.3601 -0.6283 -0.2825
21054TIP3    H164044   0.435   1.605   3.845  0.0445 -0.0338  0.0560
21054TIP3    H264045   0.526   1.723   3.873  2.3472 -1.7276  0.0137
21055TIP3   OH264046   9.580   4.223   9.678  0.5239  0.7242  0.0371
21055TIP3    H164047   9.639   4.293   9.651 -0.7478  2.3158  1.1472
21055TIP3    H264048   9.510   4.269   9.725 -0.8210 -1.2287  0.0234
21056TIP3   OH264049   7.419   0.092   8.077 -0.9522 -0.1149 -0.9257
21056TIP3    H164050   7.335   0.120   8.041 -2.5034 -0.7427  1.9471
21056TIP3    H264051   7.435   0.151   8.151  0.2537 -1.1176 -0.3488
21057TIP3   OH264052   5.731   4.103  10.867  0.6421  0.0594  0.6515
21057TIP3    H164053   5.747   4.024  10.814  1.8390  0.8630 -0.2248
21057TIP3    H264054   5.656   4.144  10.825  0.1848 -0.4576  0.9451
21058TIP3   OH264055   7.786  10.793   3.355 -0.3172 -0.1235  0.1070
21058TIP3    H164056   7.855  10.728   3.369 -1.5896 -1.8277 -1.0419
21058TIP3    H264057   7.756  10.816   3.443 -0.7191 -2.1433  0.5486
21059TIP3   OH264058   8.614   6.549   5.264  0.2461 -0.0932  0.9420
21059TIP3    H164059   8.539   6.501   5.230 -0.5032  0.9405  1.0992
21059TIP3    H264060   8.688   6.490   5.251 -0.4997 -0.9016  0.2603
21060TIP3   OH264061   5.466   5.609   1.452  0.0759 -0.3539  0.3905
21060TIP3    H164062   5.546   5.588   1.402  0.5288  0.4424  0.7758
21060TIP3    H264063   5.472   5.702   1.470 -2.2158  0.3323 -1.8130
21061TIP3   OH264064   5.487   8.386   1.617 -0.1023 -0.1668  0.2079
21061TIP3    H164065   5.521   8.462   1.569  0.2452 -0.5355 -0.1377
21061TIP3    H264066   5.392   8.395   1.611 -0.1004  1.0443  1.4387
21062TIP3   OH264067   8.335   5.771   9.560 -0.3063 -0.3175  0.1810
21062TIP3    H164068   8.359   5.806   9.646  0.1729 -0.8348  0.2668
21062TIP3    H264069   8.240   5.766   9.562 -0.2696 -0.8834  0.9176
21063TIP3   OH264070   2.465  10.037   8.038 -0.1217  0.5598 -0.1880
21063TIP3    H164071   2.394  10.067   8.094 -0.8300  0.7114 -1.1587
21063TIP3    H264072   2.445   9.945   8.022  0.6239  0.2365  0.6004
21064TIP3   OH264073   1.048   9.868   9.494  0.3290 -0.0816  0.0167
21064TIP3    H164074   0.975   9.922   9.466  0.9913  0.0134 -1.6844
21064TIP3    H264075   1.124   9.927   9.491  0.6905 -0.5212  0.3938
21065TIP3   OH264076   7.938   5.077   4.764 -0.3905 -0.0600 -0.0030
21065TIP3    H164077   7.994   5.154   4.754  0.0823 -0.1785  1.5644
21065TIP3    H264078   7.957   5.024   4.686  0.9706  0.3543  0.0213
21066TIP3   OH264079   6.697   9.607  10.435 -0.2771 -0.2661  0.5795
21066TIP3    H164080   6.625   9.552  10.404 -0.2220  0.4121 -0.8385
21066TIP3    H264081   6.655   9.670  10.494 -0.7764 -0.2118  0.1764
21067TIP3   OH264082   2.316   1.640   7.802 -0.0584 -0.0196 -0.4519
21067TIP3    H164083   2.370   1.581   7.749  0.7319 -0.8867  1.2383
21067TIP3    H264084   2.305   1.595   7.885 -1.3181  1.2652  0.1254
21068TIP3   OH264085   3.388   5.575   6.410 -0.6326  0.1057 -0.6000
21068TIP3    H164086   3.435   5.577   6.493 -0.7369 -0.8639 -0.4985
21068TIP3    H264087   3.295   5.576   6.435 -0.6814 -1.4813 -0.6219
21069TIP3   OH264088   5.490   1.879   6.858 -0.6635 -0.3915 -0.0161
21069TIP3    H164089   5.501   1.941   6.931 -1.0680 -0.4921  0.1349
21069TIP3    H264090   5.525   1.925   6.782  0.5495 -0.6034  0.3888
21070TIP3   OH264091   1.395   0.346   9.417  0.1155  0.1517  0.3309
21070TIP3    H164092   1.361   0.435   9.427  0.8406  0.3276  1.3756
21070TIP3    H264093   1.320   0.290   9.438 -0.4363  0.4984 -0.6506
21071TIP3   OH264094   9.160   9.739   9.965 -0.1268 -0.5062 -0.1633
21071TIP3    H164095   9.220   9.674  10.002  1.3317  1.1104  0.4943
21071TIP3    H264096   9.185   9.745   9.873 -0.5144 -1.1400 -0.3088
21072TIP3   OH264097   4.644   3.863   3.350  0.1398  0.3010 -0.7439
21072TIP3    H164098   4.599   3.897   3.273 -0.2618 -1.9919 -1.6088
21072TIP3    H264099   4.612   3.773   3.358  3.8305 -1.1740 -0.8466
21073TIP3   OH264100   1.275   2.128   6.099 -0.2701 -0.2545 -0.7098
21073TIP3    H164101   1.264   2.049   6.151 -3.0665  1.2789  1.2662
21073TIP3    H264102   1.222   2.113   6.020 -1.1633 -0.2091 -0.1288
21074TIP3   OH264103   0.228   4.941   7.447  0.2743  0.8990  0.7858
21074TIP3    H164104   0.168   4.966   7.377 -1.0440 -1.7609  0.8278
21074TIP3    H264105   0.175   4.945   7.527  0.5245 -0.0744  1.0228
21075TIP3   OH264106   8.255   6.276   6.176  0.2501 -0.2773  0.2342
21075TIP3    H164107   8.295   6.354   6.214 -1.3939  0.7946 -0.1380
21075TIP3    H264108   8.329   6.218   6.156  1.8307  2.3087 -2.0955
21076TIP3   OH264109   6.771   2.503   0.533 -0.2909  0.2397  0.2733
21076TIP3    H164110   6.754   2.449   0.610  0.7729  0.2378  0.5159
21076TIP3    H264111   6.815   2.444   0.471  0.3022  0.6556  0.2936
21077TIP3   OH264112   4.374   4.251   0.994 -0.6779  0.0837  0.7389
21077TIP3    H164113   4.433   4.321   1.020  0.2711 -0.7943  1.0114
21077TIP3    H264114   4.420   4.170   1.018 -2.1179 -0.6251  1.2309
21078TIP3   OH264115   7.332   6.227   9.068 -0.3008  0.5235  0.6512
21078TIP3    H164116   7.320   6.148   9.014 -0.1893  0.6986  0.3659
21078TIP3    H264117   7.386   6.198   9.141  0.2958  0.4745  0.2045
21079TIP3   OH264118   7.400   9.825   8.074  0.0073 -0.8412 -0.1914
21079TIP3    H164119   7.433   9.743   8.110  0.2173 -1.0740 -0.8835
21079TIP3    H264120   7.315   9.803   8.036 -0.6763 -0.3765  1.0381
21080TIP3   OH264121   6.893   9.256   7.273 -0.6119  0.1027  0.1469
21080TIP3    H164122   6.902   9.177   7.327  0.4558 -0.8557 -1.3369
21080TIP3    H264123   6.982   9.291   7.269 -1.4488  3.0789  3.0677
21081TIP3   OH264124   4.800  10.878   8.314 -0.8194  0.7749 -0.0221
21081TIP3    H164125   4.745  10.956   8.305 -1.2389  0.5005  0.1413
21081TIP3    H264126   4.887  10.912   8.336 -0.8915  1.2179 -0.3994
21082TIP3   OH264127   3.286   9.955   2.956 -0.1954  0.0995  0.4339
21082TIP3    H164128   3.284  10.034   3.010 -1.7327 -0.0618  0.6587
21082TIP3    H264129   3.319   9.984   2.871  2.0553  0.4027  1.3294
21083TIP3   OH264130   6.798   1.643  10.750 -0.3678 -0.2801 -0.1624
21083TIP3    H164131   6.812   1.550  10.733 -0.2580 -0.3529  0.3189
21083TIP3    H264132   6.727   1.646  10.813 -2.2028  0.0696 -2.1389
21084TIP3   OH264133   4.873   2.198  10.029 -1.4671 -0.1480  0.1061
21084TIP3    H164134   4.801   2.193  10.092 -0.2652  2.7821  1.9754
21084TIP3    H264135   4.952   2.187  10.083 -0.4270  1.1500 -1.0624
21085TIP3   OH264136   9.357   8.394   3.786 -0.1601  0.5731  0.1217
21085TIP3    H164137   9.426   8.456   3.761 -0.8333  1.4292  0.3184
21085TIP3    H264138   9.282   8.450   3.808 -0.0080 -0.1606  2.8605
21086TIP3   OH264139   5.910   0.932   2.073 -0.6339 -0.3176  1.1607
21086TIP3    H164140   5.914   0.941   1.978  0.6900 -0.1420  1.2172
21086TIP3    H264141   5.827   0.973   2.097  0.1799  1.9985  0.3160
21087TIP3   OH264142   5.385   1.120   4.562  0.4942  0.4811  0.1075
21087TIP3    H164143   5.305   1.095   4.515 -0.4822  0.4301  1.7354
21087TIP3    H264144   5.455   1.078   4.512 -0.7454 -2.1298  0.3773
21088TIP3   OH264145   6.809  10.473   4.201  0.3144 -0.4351 -0.8873
21088TIP3    H164146   6.872  10.508   4.263  1.8556 -0.9641 -2.1009
21088TIP3    H264147   6.862  10.435   4.130 -1.3496 -0.8749 -1.9722
21089TIP3   OH264148   3.698   4.638  10.426  0.1279  0.1943  0.1817
21089TIP3    H164149   3.604   4.633  10.443  0.3579  0.9382  1.8212
21089TIP3    H264150   3.720   4.731  10.436  1.1982 -0.1052  0.7999
21090TIP3   OH264151   4.153   0.457   7.764  0.6504 -0.2452 -0.0774
21090TIP3    H164152   4.211   0.381   7.763  0.4451 -0.4119  0.4469
21090TIP3    H264153   4.095   0.443   7.689  1.1127 -0.2096 -0.4464
21091TIP3   OH264154   7.930   0.194   1.568  0.0024  0.0406 -0.3008
21091TIP3    H164155   7.864   0.227   1.507 -1.4244 -0.3694  0.9684
21091TIP3    H264156   7.932   0.099   1.553 -0.6521 -0.1152  0.5560
21092TIP3   OH264157   5.572  10.178   2.084  0.5432 -0.2135 -0.6022
21092TIP3    H164158   5.542  10.118   2.152  0.1460 -0.9008 -1.3722
21092TIP3    H264159   5.627  10.241   2.131 -0.1995 -0.3215  0.4458
21093TIP3   OH264160   8.929   3.705   0.718 -0.1075  0.5532 -0.6563
21093TIP3    H164161   9.010   3.704   0.667  0.4040 -2.6769  0.0064
21093TIP3    H264162   8.958   3.691   0.809 -1.3787 -0.8590 -0.4326
21094TIP3   OH264163   0.562   4.017   1.058 -0.3830 -0.3288  0.2772
21094TIP3    H164164   0.518   3.932   1.059 -0.1923 -0.4422 -0.4737
21094TIP3    H264165   0.653   3.997   1.078 -0.0535 -0.4858 -1.2853
21095TIP3   OH264166   4.815   6.767   0.756 -0.2853 -0.0349 -0.2545
21095TIP3    H164167   4.737   6.799   0.801  0.7437  1.2828  0.6788
21095TIP3    H264168   4.819   6.818   0.676 -0.7475 -0.6073 -0.6529
21096TIP3   OH264169   6.989  10.261   5.466 -0.3213  0.0738 -0.0872
21096TIP3    H164170   6.910  10.258   5.520 -0.6676  0.0105 -0.5967
21096TIP3    H264171   7.056  10.219   5.521 -1.1378 -1.8019 -0.4582
21097TIP3   OH264172   1.543   1.555  10.166 -0.6824 -0.0862  0.3764
21097TIP3    H164173   1.636   1.553  10.187 -0.4221 -1.7513 -0.7789
21097TIP3    H264174   1.537   1.522  10.076 -2.4696 -0.9180  0.7462
21098TIP3   OH264175   9.193   4.114   5.685 -0.2755 -0.2967 -0.9019
21098TIP3    H164176   9.269   4.120   5.627  1.8419 -0.9126  1.5998
21098TIP3    H264177   9.208   4.181   5.752 -1.5211 -0.9517  0.0869
21099TIP3   OH264178   4.532   3.787   0.759 -0.7187 -0.3025 -0.1453
21099TIP3    H164179   4.601   3.754   0.817 -0.4106  1.7621  0.7464
21099TIP3    H264180   4.551   3.749   0.674  1.5971  0.2871  0.0583
21100TIP3   OH264181   1.735   2.157   8.206 -0.3439  0.4985 -0.6656
21100TIP3    H164182   1.774   2.076   8.239  2.1515  1.5720 -0.7583
21100TIP3    H264183   1.679   2.129   8.134  0.4058 -1.1396 -0.6488
21101TIP3   OH264184   4.619  10.421   4.586  0.2011  0.2205 -0.3236
21101TIP3    H164185   4.570  10.503   4.589 -0.2780 -0.0898  0.7880
21101TIP3    H264186   4.651  10.416   4.496  2.0457  2.6613  0.0880
21102TIP3   OH264187   7.075   5.290   5.515  0.3107 -0.0199 -0.2266
21102TIP3    H164188   7.090   5.239   5.595  0.6550  0.3104 -0.0724
21102TIP3    H264189   7.125   5.371   5.530  1.4173 -0.4749 -1.2952
21103TIP3   OH264190   8.671   9.695  10.152  0.6001 -0.3939 -0.1630
21103TIP3    H164191   8.682   9.784  10.184 -0.6269  0.2412 -1.3881
21103TIP3    H264192   8.757   9.655  10.160  1.4038  1.2099 -0.4929
21104TIP3   OH264193   5.847  10.431   0.791 -0.5738 -0.3322  0.0689
21104TIP3    H164194   5.905  10.357   0.776 -0.1942  0.2230 -1.3293
21104TIP3    H264195   5.843  10.476   0.707  0.2139  1.9750  1.2039
21105TIP3   OH264196   6.421   4.387   5.748  0.0939  0.4884 -0.3685
21105TIP3    H164197   6.448   4.397   5.839  2.7593 -4.5205 -0.2382
21105TIP3    H264198   6.359   4.314   5.749  0.8262 -0.2531 -2.5865
21106TIP3   OH264199   8.386   6.557   7.475 -0.4438  0.3629 -0.0086
21106TIP3    H164200   8.472   6.586   7.445 -0.2505  0.4092  0.5629
21106TIP3    H264201   8.351   6.632   7.523  1.6719 -1.3301  4.8862
21107TIP3   OH264202   5.560   0.206  10.174 -0.3693 -0.6819 -0.3005
21107TIP3    H164203   5.482   0.258  10.154  0.3873 -0.2641 -2.4049
21107TIP3    H264204   5.537   0.117  10.149 -0.8866 -1.0040  1.1877
21108TIP3   OH264205   9.303  10.908   5.808  0.0514  0.7870 -0.3007
21108TIP3    H164206   9.372  10.955   5.762  0.1265 -1.4191 -2.7219
21108TIP3    H264207   9.350  10.848   5.866  0.3213 -0.9717 -2.2118
21109TIP3   OH264208   3.302   8.775  10.871 -0.0614 -0.8069  0.3561
21109TIP3    H164209   3.364   8.816  10.811 -2.0076  1.2918 -0.3653
21109TIP3    H264210   3.281   8.843  10.935  0.0196 -2.1828  1.9115
21110TIP3   OH264211  10.100   8.120   7.379  0.1171  0.3091  0.1739
21110TIP3    H164212  10.174   8.127   7.439 -0.1015 -0.0709  0.4979
21110TIP3    H264213  10.106   8.030   7.345  0.9548  0.8962 -1.3271
21111TIP3   OH264214   2.635   4.883   5.590 -0.0621 -0.1460 -0.0111
21111TIP3    H164215   2.552   4.906   5.631 -0.7900 -0.7579 -1.0867
21111TIP3    H264216   2.668   4.810   5.642  0.1792  0.5746  0.8662
21112TIP3   OH264217   3.748   0.202   5.266 -0.4864  0.1700  0.0371
21112TIP3    H164218   3.666   0.164   5.237 -1.0677  1.4949 -0.1158
21112TIP3    H264219   3.805   0.127   5.282 -2.1724 -0.8585  1.5647
21113TIP3   OH264220   8.045  10.408   6.908 -0.0348  0.4653 -0.2990
21113TIP3    H164221   8.120  10.464   6.930 -0.2511  0.3537  0.7789
21113TIP3    H264222   8.083  10.322   6.894  0.0293  0.3642  0.4429
21114TIP3   OH264223   2.807  10.536   8.295  0.1663  0.6042  0.1760
21114TIP3    H164224   2.856  10.559   8.216  0.1718  0.6864  0.2025
21114TIP3    H264225   2.872  10.498   8.353 -0.5016 -3.2097 -1.3187
21115TIP3   OH264226   7.526   6.171   1.256  0.3667 -0.3086 -0.0173
21115TIP3    H164227   7.596   6.143   1.198 -0.5142  0.0097 -1.2649
21115TIP3    H264228   7.462   6.100   1.254  1.1333 -1.1394  2.0335
21116TIP3   OH264229   0.777   4.861  10.353 -0.4611  0.2088 -0.1385
21116TIP3    H164230   0.864   4.880  10.316 -0.4153 -0.4272 -0.3843
21116TIP3    H264231   0.717   4.869  10.278 -0.7929  1.7929  0.2663
21117TIP3   OH264232   9.329   6.447   8.497  0.1915 -0.2877  0.5242
21117TIP3    H164233   9.262   6.472   8.560 -1.3828  0.2706 -1.3122
21117TIP3    H264234   9.304   6.359   8.469 -0.5771  0.4195 -1.1292
21118TIP3   OH264235   1.956   2.105   4.002 -0.1139  0.3941 -0.5854
21118TIP3    H164236   2.031   2.155   3.972 -0.1004  0.3381 -0.6449
21118TIP3    H264237   1.989   2.052   4.075  0.1048 -0.2424 -1.1354
21119TIP3   OH264238   7.591   1.117   0.956 -0.5700 -0.5480  0.2990
21119TIP3    H164239   7.560   1.029   0.975  0.1932 -0.9816 -0.3827
21119TIP3    H264240   7.629   1.148   1.038 -1.5008 -0.5556  0.7467
21120TIP3   OH264241   2.058   3.523   4.995  0.5179 -0.3775 -0.0097
21120TIP3    H164242   2.003   3.601   4.985  1.9106  0.6177 -0.1997
21120TIP3    H264243   2.111   3.521   4.916  0.1848 -1.8007 -0.2174
21121TIP3   OH264244   5.494   8.839   2.363  0.2256 -0.0552 -0.1483
21121TIP3    H164245   5.479   8.791   2.444  1.2508  0.7242  0.5232
21121TIP3    H264246   5.463   8.779   2.294  0.3200 -1.1679  0.7394
21122TIP3   OH264247   3.684   6.425   6.568  0.1250  0.1335  0.4674
21122TIP3    H164248   3.755   6.479   6.532  1.0541 -1.6626 -0.5696
21122TIP3    H264249   3.701   6.337   6.533 -1.8110 -0.6619  1.3734
21123TIP3   OH264250   8.278   4.785   1.372 -0.1821 -0.2109 -0.0213
21123TIP3    H164251   8.249   4.827   1.291 -0.7660  1.3840  0.9544
21123TIP3    H264252   8.199   4.742   1.406  0.2120 -1.4279 -0.5796
21124TIP3   OH264253   7.031   9.607   2.353 -0.1432  0.9266  0.0844
21124TIP3    H164254   6.954   9.650   2.316 -0.6764 -0.7990 -0.9484
21124TIP3    H264255   6.997   9.524   2.388  1.6577 -1.7851 -3.8417
21125TIP3   OH264256   4.406   7.998   8.660 -0.0467 -0.6349  1.0154
21125TIP3    H164257   4.387   8.063   8.727  0.1086 -1.9799  2.4408
21125TIP3    H264258   4.346   7.926   8.679 -0.9683 -0.5284 -1.1738
21126TIP3   OH264259   7.077   2.319   1.593  0.2881 -0.1377  0.2768
21126TIP3    H164260   7.134   2.290   1.521 -2.6968 -2.1679 -1.4735
21126TIP3    H264261   7.075   2.244   1.653  1.0044  0.7135  1.4105
21127TIP3   OH264262   8.115  10.218   2.426 -0.5308 -0.2918  0.0142
21127TIP3    H164263   8.129  10.198   2.333  0.2258  2.4088 -0.5535
21127TIP3    H264264   8.202  10.236   2.460 -0.4724 -3.6076  1.9919
21128TIP3   OH264265   8.535   2.146   8.619  0.1458 -0.0288  0.7391
21128TIP3    H164266   8.568   2.232   8.592  1.9076 -0.3852  1.6513
21128TIP3    H264267   8.493   2.111   8.540  1.8021  0.5456 -0.4597
21129TIP3   OH264268   6.115   7.905   2.508 -0.1920  0.3493  0.0472
21129TIP3    H164269   6.161   7.927   2.427 -1.5619 -0.2740 -0.9315
21129TIP3    H264270   6.149   7.818   2.531 -0.0947  0.3533 -0.0769
21130TIP3   OH264271   1.543   2.036   2.955  0.3748 -0.1533 -0.4091
21130TIP3    H164272   1.626   1.988   2.949  0.0550 -0.8166  0.2655
21130TIP3    H264273   1.546   2.100   2.884  0.8812 -1.0747 -1.2247
21131TIP3   OH264274   2.929   5.457   4.290 -0.6564  0.0868 -0.1724
21131TIP3    H164275   2.840   5.472   4.323 -0.4167  1.2117 -0.0079
21131TIP3    H264276   2.917   5.429   4.200 -1.1309  1.5654 -0.5806
21132TIP3   OH264277   4.749   4.627   1.374 -0.0929 -1.1267  0.2468
21132TIP3    H164278   4.803   4.628   1.295 -0.0484  2.3616  0.1728
21132TIP3    H264279   4.812   4.618   1.446  0.2055 -1.0148  0.0033
21133TIP3   OH264280  10.320   1.075   3.602 -0.0009 -0.2412 -0.3976
21133TIP3    H164281  10.276   1.020   3.537 -0.7145 -0.0031 -0.1255
21133TIP3    H264282  10.254   1.086   3.671  0.2274  0.7452 -0.3294
21134TIP3   OH264283   3.182   3.890   5.131  0.1168  0.0802 -0.2547
21134TIP3    H164284   3.207   3.951   5.201 -0.2521  1.0794 -0.9774
21134TIP3    H264285   3.101   3.850   5.162  0.9639 -0.9350  0.7425
21135TIP3   OH264286   1.930   7.829   6.804  0.1918  0.1778 -0.1837
21135TIP3    H164287   1.888   7.749   6.772  2.3597 -0.3200 -2.1489
21135TIP3    H264288   2.004   7.798   6.856  0.0683  0.9383  0.4611
21136TIP3   OH264289   8.084  10.708   0.582 -0.0562  0.2988 -0.7131
21136TIP3    H164290   7.998  10.746   0.599  0.7108  1.5559  0.6485
21136TIP3    H264291   8.086  10.627   0.633 -0.3662  0.3568 -0.6114
21137TIP3   OH264292   6.942   4.373   6.571  0.0936  0.0077  0.4005
21137TIP3    H164293   6.927   4.278   6.573 -0.6449  0.1234  0.6793
21137TIP3    H264294   6.857   4.411   6.593  1.0132  0.6964  3.2656
21138TIP3   OH264295  10.433   5.287   1.917 -0.2643  0.0145  0.0996
21138TIP3    H164296  10.506   5.344   1.892 -1.1637  0.7317 -0.9940
21138TIP3    H264297  10.462   5.244   1.997  1.0585  0.8494  0.0920
21139TIP3   OH264298   0.769   3.113   7.247  0.1690 -1.0051 -0.0359
21139TIP3    H164299   0.804   3.091   7.161  0.1488  0.6624 -0.5185
21139TIP3    H264300   0.799   3.043   7.305  1.7025 -1.2063 -1.0380
21140TIP3   OH264301   5.683   0.143   9.313  0.1866 -0.7130 -0.6879
21140TIP3    H164302   5.608   0.127   9.257 -0.0119 -3.5778  0.2442
21140TIP3    H264303   5.758   0.138   9.253 -0.2544  2.0642 -1.6035
21141TIP3   OH264304   9.727   6.397   1.468 -0.4819 -0.8039 -0.4983
21141TIP3    H164305   9.637   6.421   1.447  0.2196  0.0668 -2.8709
21141TIP3    H264306   9.779   6.472   1.436  1.0340 -0.9023  1.5639
21142TIP3   OH264307   7.422   2.796   1.654  0.4301  0.5195 -0.9686
21142TIP3    H164308   7.449   2.705   1.643  1.9086  0.8709 -0.4217
21142TIP3    H264309   7.503   2.843   1.671 -0.4266  1.7999 -0.3178
21143TIP3   OH264310   2.245   6.840   7.219 -0.4684  0.4951  0.4495
21143TIP3    H164311   2.154   6.847   7.248 -0.6698  0.2419 -0.1058
21143TIP3    H264312   2.274   6.755   7.252 -0.0125  1.1399  1.7566
21144TIP3   OH264313   9.414   7.131   6.523 -0.8797  0.3711  0.3326
21144TIP3    H164314   9.381   7.220   6.510 -1.0088  0.2629 -0.0599
21144TIP3    H264315   9.485   7.142   6.587 -0.0747  0.9232 -0.6392
21145TIP3   OH264316   8.380  10.519   4.554 -0.1085 -0.1633  0.2299
21145TIP3    H164317   8.345  10.433   4.532  1.3058 -0.1807 -2.3653
21145TIP3    H264318   8.334  10.579   4.494  2.9482  0.0052 -2.1868
21146TIP3   OH264319   7.768   6.296   9.124  0.3806 -0.3050  0.0772
21146TIP3    H164320   7.815   6.379   9.128 -0.3471  0.1125  0.0622
21146TIP3    H264321   7.811   6.241   9.189  0.8279  0.1041  0.1310
21147TIP3   OH264322  10.096   8.559   9.719  0.0145 -0.2043 -0.8341
21147TIP3    H164323  10.046   8.480   9.739 -0.6037  0.1707 -0.8612
21147TIP3    H264324  10.090   8.612   9.799  0.2711 -0.1035 -0.8809
21148TIP3   OH264325   3.214   6.080   0.442 -0.5498  0.5964 -0.1759
21148TIP3    H164326   3.207   6.039   0.528 -1.2458 -1.0799 -0.9856
21148TIP3    H264327   3.303   6.061   0.413 -1.2788 -1.6657 -1.1254
21149TIP3   OH264328  10.152   3.241   2.225  0.0666  0.6576  0.1747
21149TIP3    H164329  10.175   3.334   2.223 -1.0709  0.9668  0.4382
21149TIP3    H264330  10.120   3.226   2.314  1.6745 -0.3754  0.6214
21150TIP3   OH264331   9.674  10.220  10.904 -0.6429  0.1914 -0.4574
21150TIP3    H164332   9.598  10.238  10.959  0.2111  0.3003  0.7539
21150TIP3    H264333   9.706  10.307  10.879  0.0675  0.2375  0.5050
21151TIP3   OH264334   7.742   6.849   4.712  0.2346  0.2397  0.6065
21151TIP3    H164335   7.818   6.846   4.653  0.1652  1.2864  0.4464
21151TIP3    H264336   7.739   6.940   4.742 -0.3800 -0.0309  1.3844
21152TIP3   OH264337  10.893   4.222   2.661  0.3884  0.3069  1.3414
21152TIP3    H164338  10.930   4.233   2.573  0.6977  1.2434  1.5672
21152TIP3    H264339  10.810   4.270   2.658 -0.3301 -0.9114  1.1426
21153TIP3   OH264340   3.066   2.983   1.360  0.1089  0.2243  0.2105
21153TIP3    H164341   3.143   3.025   1.398 -0.5175 -0.7029  2.7259
21153TIP3    H264342   2.995   3.045   1.377  0.0924  0.5992 -1.1398
21154TIP3   OH264343   6.163   0.954   1.571 -0.4590  0.1809 -0.3356
21154TIP3    H164344   6.258   0.948   1.561 -0.2865 -0.8440  1.4699
21154TIP3    H264345   6.128   0.887   1.512  0.0771 -0.9048  0.5602
21155TIP3   OH264346   0.782   2.910   4.922  0.1941  0.0402  0.4667
21155TIP3    H164347   0.756   3.000   4.903 -1.0448 -0.4865 -0.4954
21155TIP3    H264348   0.838   2.916   4.999 -1.7476  1.4065  1.8530
21156TIP3   OH264349   2.822   9.455   2.190 -0.1125 -0.3015 -0.1059
21156TIP3    H164350   2.868   9.372   2.179 -0.5839 -0.5188 -0.4767
21156TIP3    H264351   2.729   9.431   2.195 -0.5054  0.3559 -2.6084
21157TIP3   OH264352   6.628   5.996   1.899 -0.3780 -0.3706 -0.2574
21157TIP3    H164353   6.612   6.089   1.914  2.6291  0.1446  0.4365
21157TIP3    H264354   6.713   5.993   1.855 -0.6105 -2.7741 -0.6541
21158TIP3   OH264355   3.081   3.656   6.913 -0.1317  0.2542 -0.0570
21158TIP3    H164356   3.038   3.572   6.896 -0.0727 -0.1845  1.7565
21158TIP3    H264357   3.033   3.693   6.987 -0.0242  1.7466 -0.7139
21159TIP3   OH264358   3.056   8.750   3.415  0.0791  0.4332  0.3675
21159TIP3    H164359   3.132   8.797   3.380 -0.2138  2.6753  2.4912
21159TIP3    H264360   3.005   8.726   3.337  2.9299 -1.2846 -1.1356
21160TIP3   OH264361   4.220   0.486   8.546 -0.1560 -0.1110  0.0467
21160TIP3    H164362   4.227   0.560   8.486 -0.4910  0.6872  0.9723
21160TIP3    H264363   4.308   0.448   8.548  0.1743  0.6461  0.0482
21161TIP3   OH264364   2.083   0.208   4.252 -0.1004 -0.3863  0.0520
21161TIP3    H164365   2.031   0.176   4.178  0.5485 -0.9550 -0.1728
21161TIP3    H264366   2.094   0.131   4.308  0.7352 -0.3567 -0.0527
21162TIP3   OH264367   3.524   1.675   1.128 -0.6109  0.2429  0.2774
21162TIP3    H164368   3.440   1.707   1.164 -0.8816 -1.0578  0.8622
21162TIP3    H264369   3.577   1.656   1.206 -0.6141 -1.0984 -0.0368
21163TIP3   OH264370   1.516   1.897  10.399 -0.1601 -0.6554 -0.3704
21163TIP3    H164371   1.430   1.899  10.358 -0.5188  0.4939  0.4100
21163TIP3    H264372   1.507   1.837  10.473  0.0718 -1.5166 -1.0188
21164TIP3   OH264373   4.157   5.357   9.451  0.5522 -0.3458  0.2074
21164TIP3    H164374   4.145   5.348   9.545 -0.1931  1.6538  0.3589
21164TIP3    H264375   4.073   5.389   9.419  1.2389  0.4430 -0.8985
21165TIP3   OH264376   4.257   4.270   8.394  0.3981 -0.8330 -0.2111
21165TIP3    H164377   4.294   4.277   8.482 -1.4421  0.5903  0.5175
21165TIP3    H264378   4.330   4.242   8.339  2.2438  0.7354  1.3151
21166TIP3   OH264379   7.219   1.553   0.560  0.6756  0.1820 -0.2582
21166TIP3    H164380   7.304   1.529   0.524  0.8636 -1.3149  1.0914
21166TIP3    H264381   7.159   1.487   0.525 -0.2413  1.8804 -2.1484
21167TIP3   OH264382   3.928   4.490   3.875  0.1672  0.8088 -0.0613
21167TIP3    H164383   4.005   4.434   3.882 -0.9701 -0.9143 -0.7275
21167TIP3    H264384   3.928   4.521   3.785  0.2267  1.0288  0.0140
21168TIP3   OH264385   8.865   4.425   9.063  0.2456 -0.0730 -0.4976
21168TIP3    H164386   8.842   4.500   9.008 -0.1286  0.5498  0.4682
21168TIP3    H264387   8.785   4.373   9.066  0.7895 -1.0178 -1.9288
21169TIP3   OH264388   9.336   1.551   2.611 -0.5521  0.0626  0.2356
21169TIP3    H164389   9.386   1.625   2.578  0.8801 -1.1500 -0.4300
21169TIP3    H264390   9.355   1.480   2.549 -1.5100 -0.9866  1.1068
21170TIP3   OH264391   7.031   5.875   7.739 -0.4221  0.3909 -0.3607
21170TIP3    H164392   7.000   5.852   7.827  2.4899  0.5587  0.7989
21170TIP3    H264393   7.088   5.803   7.714 -0.8919  0.5502 -1.9696
21171TIP3   OH264394   9.883   4.404   7.438  0.0120  0.4740 -0.4614
21171TIP3    H164395   9.803   4.368   7.477 -0.1674 -0.2801 -1.4768
21171TIP3    H264396   9.855   4.485   7.395 -0.5609 -0.5367 -2.1004
21172TIP3   OH264397   3.937   4.401   7.499  0.1937  0.2373  0.6103
21172TIP3    H164398   4.010   4.344   7.475 -1.0893 -0.1414 -2.9782
21172TIP3    H264399   3.976   4.488   7.507  1.2850 -0.2228  0.4617
21173TIP3   OH264400   4.463   3.530   0.569 -0.2766 -0.3929  0.2568
21173TIP3    H164401   4.425   3.489   0.491 -2.0461  0.3721  0.6733
21173TIP3    H264402   4.522   3.596   0.533  0.8075 -1.6663 -0.4061
21174TIP3   OH264403   5.306   2.089   3.871 -0.2968  0.1804  0.1632
21174TIP3    H164404   5.345   2.018   3.922 -1.5586 -0.1096  0.7670
21174TIP3    H264405   5.365   2.100   3.796  0.8733 -0.2924  0.9807
21175TIP3   OH264406   7.543   7.790   8.144 -0.4081  0.1506 -0.1032
21175TIP3    H164407   7.598   7.854   8.190 -0.5010 -0.3633  0.7434
21175TIP3    H264408   7.578   7.788   8.055  0.0296  0.8802  0.0450
21176TIP3   OH264409   3.290   6.587   7.264 -0.4339  0.6054 -0.2077
21176TIP3    H164410   3.320   6.655   7.204  4.1950 -0.7058  0.2455
21176TIP3    H264411   3.285   6.508   7.210  2.7257 -0.3485  0.6569
21177TIP3   OH264412   8.140   8.417   5.100 -0.5569  0.0580 -0.5677
21177TIP3    H164413   8.141   8.328   5.137  0.1086  1.3245  2.8646
21177TIP3    H264414   8.066   8.418   5.040 -2.5715 -1.9667  1.6907
21178TIP3   OH264415   6.372  10.135   5.781 -0.0412 -0.2912 -0.3442
21178TIP3    H164416   6.360  10.196   5.708  0.2967  1.0208  0.6566
21178TIP3    H264417   6.284  10.103   5.801 -0.2410 -0.0148 -0.7723
21179TIP3   OH264418   9.240   7.453   1.861 -0.7941 -0.2085  0.1274
21179TIP3    H164419   9.188   7.529   1.834 -0.2867 -0.2004 -0.8843
21179TIP3    H264420   9.328   7.471   1.828 -0.2902 -0.5139  1.2751
21180TIP3   OH264421   8.550   1.157   2.315 -0.5667 -0.2246  0.1906
21180TIP3    H164422   8.498   1.163   2.395  1.2953 -0.3974  1.4663
21180TIP3    H264423   8.641   1.160   2.345  0.1868 -0.7524 -1.8882
21181TIP3   OH264424   9.007  10.301  10.633 -0.1243  0.1869  0.2137
21181TIP3    H164425   8.962  10.272  10.713 -1.7822  2.4450  0.2016
21181TIP3    H264426   9.042  10.388  10.655  2.6768 -0.6820 -0.4122
21182TIP3   OH264427   3.753   5.983   0.513  0.0836 -0.4762  0.5449
21182TIP3    H164428   3.824   5.938   0.559  0.9534  0.3010  0.0162
21182TIP3    H264429   3.789   6.002   0.426 -1.3648 -1.4963 -0.3200
21183TIP3   OH264430   4.345   5.041   7.675 -0.1728 -0.3460 -0.2460
21183TIP3    H164431   4.335   4.964   7.619 -3.4001  0.4652 -1.0265
21183TIP3    H264432   4.263   5.045   7.724  0.0340  2.3579  0.0292
21184TIP3   OH264433   3.401   1.451   5.179 -0.4694 -0.5409 -0.3261
21184TIP3    H164434   3.484   1.470   5.222 -0.5547  2.8699 -1.3485
21184TIP3    H264435   3.425   1.408   5.097  0.2351 -0.1931 -0.3035
21185TIP3   OH264436   7.706   4.193   5.387  0.0346 -0.3709 -0.0210
21185TIP3    H164437   7.655   4.219   5.311  2.7138 -0.0310 -1.8456
21185TIP3    H264438   7.793   4.173   5.352  1.1363 -1.0993  2.8448
21186TIP3   OH264439   6.464   8.859   6.659  0.1120  0.6328 -0.4151
21186TIP3    H164440   6.402   8.832   6.591  1.2526  0.0613 -1.2539
21186TIP3    H264441   6.420   8.840   6.741 -0.7653  0.1089 -0.9963
21187TIP3   OH264442   3.859   5.904   4.844 -0.4140  0.1957 -0.8644
21187TIP3    H164443   3.844   5.832   4.783 -1.6219 -0.9118  0.6809
21187TIP3    H264444   3.774   5.921   4.884  0.1679  1.4609 -0.0688
21188TIP3   OH264445   7.425   7.756   6.183  0.5900  0.1947 -0.2171
21188TIP3    H164446   7.339   7.768   6.222  0.7344  2.2194 -0.4316
21188TIP3    H264447   7.459   7.844   6.171  2.4813 -0.5353 -0.6419
21189TIP3   OH264448   0.628   9.112   8.064 -0.4051  0.1225  0.7036
21189TIP3    H164449   0.641   9.202   8.034 -1.7093  0.4789  1.1672
21189TIP3    H264450   0.610   9.062   7.984  1.0987  0.0950  0.3515
21190TIP3   OH264451   9.785   8.737   0.083  0.8434 -0.2320  0.0600
21190TIP3    H164452   9.726   8.796   0.130 -0.7701 -0.3998 -1.6502
21190TIP3    H264453   9.850   8.794   0.042  0.7050  0.1275  0.3376
21191TIP3   OH264454   9.558   9.555   2.359  0.0709 -0.5670 -0.5249
21191TIP3    H164455   9.528   9.589   2.443 -0.2702 -0.7342 -0.5757
21191TIP3    H264456   9.560   9.460   2.372 -0.6564 -0.6447 -0.9170
21192TIP3   OH264457   2.173   0.822   7.307  0.0705  0.9629  0.0040
21192TIP3    H164458   2.171   0.733   7.343  0.3797  0.8120 -0.3521
21192TIP3    H264459   2.211   0.812   7.220  1.3171  1.6128  0.4624
21193TIP3   OH264460  10.263   8.876   5.689  0.1026 -0.1505 -0.7392
21193TIP3    H164461  10.179   8.831   5.680  0.1203  0.1411 -2.6934
21193TIP3    H264462  10.242   8.968   5.674  0.8788 -0.1772 -2.1574
21194TIP3   OH264463   8.460   4.603   1.211  0.7769  0.2187 -0.0742
21194TIP3    H164464   8.416   4.526   1.175  2.5205 -1.6567  1.5119
21194TIP3    H264465   8.398   4.637   1.276 -0.2216  0.4970 -1.1390
21195TIP3   OH264466   7.766  10.850   1.894  0.7942  0.2754  0.2670
21195TIP3    H164467   7.696  10.810   1.842  0.6405 -0.8902  1.3285
21195TIP3    H264468   7.836  10.784   1.895  0.5429 -0.0173  2.0283
21196TIP3   OH264469   8.236   9.502  10.151  0.3580  0.2329 -0.8706
21196TIP3    H164470   8.303   9.530  10.089  0.6419 -1.7838 -1.5481
21196TIP3    H264471   8.280   9.503  10.236  1.0149 -0.3242 -1.1993
21197TIP3   OH264472   4.784   7.734   9.887 -0.5993  0.8562 -0.0196
21197TIP3    H164473   4.704   7.712   9.936 -1.4350  0.9278 -1.3138
21197TIP3    H264474   4.846   7.761   9.955 -2.2322  2.5245  0.9013
21198TIP3   OH264475   7.902   7.270  10.374  0.5255 -0.0157  0.3081
21198TIP3    H164476   7.896   7.203  10.305 -0.0490 -0.2711  0.6004
21198TIP3    H264477   7.815   7.272  10.413  0.8498  0.1090  1.0445
21199TIP3   OH264478   4.458   1.820   1.489 -0.1150 -0.5742 -0.1466
21199TIP3    H164479   4.464   1.755   1.559  1.5763 -1.1391 -0.7576
21199TIP3    H264480   4.520   1.789   1.422 -1.3190  0.1943 -1.6944
21200TIP3   OH264481   4.906   2.338   5.178  0.3547  0.4513 -0.2828
21200TIP3    H164482   4.941   2.404   5.239 -1.3510  0.5491  0.6689
21200TIP3    H264483   4.938   2.254   5.213 -1.9881  0.3490  1.8717
21201TIP3   OH264484   3.147   3.347   3.623  0.2727  0.1273 -0.1704
21201TIP3    H164485   3.077   3.314   3.567 -1.3320  0.0375  1.7729
21201TIP3    H264486   3.118   3.434   3.649  3.2180  2.2725 -3.1197
21202TIP3   OH264487   1.905   6.924   8.668 -0.1508  0.5307 -0.1535
21202TIP3    H164488   1.872   6.914   8.579 -0.9004 -0.5044  0.2156
21202TIP3    H264489   1.920   7.018   8.678  0.0245  0.6489 -1.3898
21203TIP3   OH264490   3.423  10.000   7.436  0.1249  0.4903 -0.0871
21203TIP3    H164491   3.346  10.046   7.471  0.8609  0.1757  2.1207
21203TIP3    H264492   3.396   9.908   7.432  0.4052  0.3627  0.8033
21204TIP3   OH264493   0.306  10.756   4.573  0.2480  0.7692 -0.2133
21204TIP3    H164494   0.289  10.843   4.538  0.6152 -0.4082 -3.6796
21204TIP3    H264495   0.219  10.719   4.588  0.0612  1.0750 -0.5269
21205TIP3   OH264496   4.065   8.295   2.440 -0.3214  0.3879 -0.0053
21205TIP3    H164497   4.141   8.297   2.498 -1.1172  0.6376  1.0607
21205TIP3    H264498   4.102   8.290   2.352  0.9351  1.0470  0.4645
21206TIP3   OH264499   5.100   6.683   2.489 -0.3358 -0.2184 -0.5481
21206TIP3    H164500   5.164   6.616   2.514  0.4656  1.0149  0.8906
21206TIP3    H264501   5.150   6.745   2.435 -0.6684  0.0260 -0.5755
21207TIP3   OH264502   0.401  10.873   4.113  0.0440  0.0655 -0.3226
21207TIP3    H164503   0.313  10.858   4.150 -0.9140  1.3380 -1.9523
21207TIP3    H264504   0.386  10.883   4.019  1.6316  2.4045 -0.4056
21208TIP3   OH264505   2.407  10.561   7.700 -0.5287 -0.3078  0.4058
21208TIP3    H164506   2.367  10.476   7.718 -0.8713 -0.5421 -1.3095
21208TIP3    H264507   2.334  10.616   7.672  0.0496 -0.1895 -0.9239
21209TIP3   OH264508   1.754   3.507   3.902 -0.0958  0.1703 -0.3368
21209TIP3    H164509   1.748   3.513   3.807 -0.7099  1.5158 -0.2322
21209TIP3    H264510   1.772   3.414   3.919 -0.4750 -0.1830 -1.7321
21210TIP3   OH264511  10.311   0.123   0.903  0.0567  0.2938  0.0605
21210TIP3    H164512  10.331   0.191   0.839 -0.1702  1.0093  0.7362
21210TIP3    H264513  10.282   0.049   0.850  2.6297 -0.1556 -0.8452
21211TIP3   OH264514   4.462   0.186   5.131  0.6235 -0.2689 -0.2593
21211TIP3    H164515   4.436   0.098   5.107 -0.4262 -0.3234  0.9615
21211TIP3    H264516   4.551   0.196   5.096 -0.2298 -0.8081 -2.7584
21212TIP3   OH264517   4.540   6.213   5.736  0.4160 -0.0686  0.3507
21212TIP3    H164518   4.541   6.120   5.757  3.2206 -0.2802 -0.2599
21212TIP3    H264519   4.448   6.234   5.719 -0.7238 -1.9788  3.4343
21213TIP3   OH264520   6.922   0.115   9.063  0.1069  0.2242  0.0041
21213TIP3    H164521   6.975   0.145   9.137 -2.2367  1.7053  1.1925
21213TIP3    H264522   6.904   0.023   9.082 -1.2324  0.8053  1.8466
21214TIP3   OH264523   7.881   3.263   4.461  0.1632  0.3325  0.2361
21214TIP3    H164524   7.962   3.213   4.474  0.4000  0.7307  0.3439
21214TIP3    H264525   7.856   3.292   4.549 -1.1775 -1.3983  0.4675
21215TIP3   OH264526   6.803   4.383   0.455 -0.0671  0.3374 -0.1912
21215TIP3    H164527   6.823   4.470   0.419  0.7102 -0.3266 -1.4098
21215TIP3    H264528   6.723   4.357   0.411  0.2165  0.0373 -0.5297
21216TIP3   OH264529   6.101   7.857   7.045 -0.3171 -0.4771 -0.4759
21216TIP3    H164530   6.080   7.764   7.050  1.1616 -0.7819  2.4169
21216TIP3    H264531   6.185   7.860   7.001  0.2299 -0.6887  0.5147
21217TIP3   OH264532   7.277   5.468  10.174 -0.1393  0.3818 -0.0503
21217TIP3    H164533   7.371   5.464  10.154 -0.2084  1.2427 -0.5978
21217TIP3    H264534   7.272   5.515  10.257 -0.0041 -1.0972  0.8398
21218TIP3   OH264535   8.063   9.592   1.464 -0.4364  0.8093  0.8690
21218TIP3    H164536   8.133   9.588   1.399  0.3144  0.9535  1.6344
21218TIP3    H264537   8.083   9.670   1.516 -0.8278  0.5311  1.4548
21219TIP3   OH264538   3.915   0.109   1.211 -0.1585  0.1727 -0.0034
21219TIP3    H164539   3.870   0.123   1.295 -1.4510  1.3224 -0.8495
21219TIP3    H264540   3.911   0.014   1.198 -0.9664  0.0952  0.6980
21220TIP3   OH264541   1.637   3.529   4.811 -0.1749 -0.1482 -0.1541
21220TIP3    H164542   1.574   3.589   4.771  0.2424  0.2208 -0.2735
21220TIP3    H264543   1.649   3.460   4.745 -3.2369 -2.2873  1.3140
21221TIP3   OH264544   8.557   0.045   3.551 -0.1491 -0.0300  0.0302
21221TIP3    H164545   8.525  -0.029   3.500 -1.2265 -0.1272  0.8127
21221TIP3    H264546   8.488   0.111   3.544 -0.9162 -0.4898  2.2953
21222TIP3   OH264547   7.500   3.286   7.676 -0.4214 -0.0159 -0.2188
21222TIP3    H164548   7.536   3.294   7.765  1.1337  0.4131 -0.8456
21222TIP3    H264549   7.464   3.197   7.673 -0.4959 -0.0362  0.8358
21223TIP3   OH264550   0.830   2.276   4.796 -0.6447 -0.0700  0.3710
21223TIP3    H164551   0.897   2.339   4.823 -0.5579  0.1089 -0.2314
21223TIP3    H264552   0.872   2.191   4.803  0.1305  0.1242 -1.2889
21224TIP3   OH264553   2.149  10.606  10.034 -0.2550 -0.1455 -0.4074
21224TIP3    H164554   2.196  10.688  10.048  0.1446 -0.4660  0.1401
21224TIP3    H264555   2.213  10.548   9.993 -0.3353 -0.4031 -0.1665
21225TIP3   OH264556  10.699   0.677   1.825 -0.0326 -0.0789 -0.2220
21225TIP3    H164557  10.674   0.739   1.893  0.6927  0.4522 -0.4220
21225TIP3    H264558  10.770   0.720   1.778 -1.3256  0.0846 -2.1182
21226TIP3   OH264559   5.999   8.345   8.629 -0.0466  0.3459  0.0032
21226TIP3    H164560   6.081   8.340   8.680 -1.7165  0.3130  2.8929
21226TIP3    H264561   6.019   8.299   8.548  2.8148  0.4133  0.5420
21227TIP3   OH264562   8.621   4.833   5.694  0.5416 -0.0332 -0.4974
21227TIP3    H164563   8.671   4.865   5.769  1.5832 -0.9462 -0.7731
21227TIP3    H264564   8.682   4.775   5.648 -0.9114 -1.5214 -0.6181
21228TIP3   OH264565   9.469   6.898   5.270  0.2003 -0.7663  0.3399
21228TIP3    H164566   9.375   6.880   5.268  0.3308 -1.4081 -0.8839
21228TIP3    H264567   9.477   6.980   5.318 -1.2600  0.8429 -1.9669
21229TIP3   OH264568   3.462   3.492   1.926 -0.1971  0.2450 -0.5912
21229TIP3    H164569   3.447   3.498   1.831 -1.1215  1.5153 -0.4010
21229TIP3    H264570   3.392   3.435   1.957 -2.7143  3.2237 -0.1944
21230TIP3   OH264571   9.729   6.998   9.071  0.3980  0.2071  0.6447
21230TIP3    H164572   9.692   7.044   9.146  0.3080  0.4232  0.4661
21230TIP3    H264573   9.673   7.022   8.998 -0.3713 -1.1013  0.7555
21231TIP3   OH264574   6.140   8.410   0.792  0.0652 -0.4004 -0.2794
21231TIP3    H164575   6.070   8.403   0.857  1.0644 -2.2213  0.6907
21231TIP3    H264576   6.146   8.504   0.773 -1.7384 -0.0616  0.5706
21232TIP3   OH264577   3.636   3.428   9.652 -0.2441  0.2813 -0.1527
21232TIP3    H164578   3.608   3.337   9.644 -0.5963  0.3208  0.5232
21232TIP3    H264579   3.555   3.478   9.659 -0.0367  0.5127  0.7092
21233TIP3   OH264580   2.360  10.520   0.387  0.2542 -0.0391  0.0631
21233TIP3    H164581   2.338  10.541   0.296  1.9157  0.9046 -0.1578
21233TIP3    H264582   2.429  10.455   0.381  0.1706 -0.1893  0.6650
21234TIP3   OH264583   3.178   4.975   9.544 -0.2719 -0.8179  0.2777
21234TIP3    H164584   3.244   5.024   9.593 -0.7210 -0.6883  0.7575
21234TIP3    H264585   3.096   5.021   9.561  0.1499  2.5221 -4.8004
21235TIP3   OH264586   7.749   6.578   6.101 -0.2805  0.4454  0.2400
21235TIP3    H164587   7.668   6.630   6.098 -0.1253  0.8216  1.7597
21235TIP3    H264588   7.819   6.643   6.099  0.0141  0.1201 -1.0112
21236TIP3   OH264589   5.748   4.299   6.359  1.0098  0.2537  0.1190
21236TIP3    H164590   5.798   4.218   6.370  0.7278  0.0109 -0.3427
21236TIP3    H264591   5.660   4.269   6.334  1.3080  0.7250 -1.6306
21237TIP3   OH264592   8.609   8.623  10.288  0.4334  0.4874  0.3471
21237TIP3    H164593   8.656   8.580  10.217  0.2441  1.6551 -0.5184
21237TIP3    H264594   8.676   8.641  10.354  0.5537 -0.8722  0.6124
21238TIP3   OH264595   7.653   2.588   2.801  0.1119 -0.1802 -0.0334
21238TIP3    H164596   7.612   2.504   2.782  3.3133 -2.0819  0.6497
21238TIP3    H264597   7.684   2.619   2.716 -0.9799  0.3191 -0.2706
21239TIP3   OH264598   8.251   2.627   3.585  0.4678 -0.8294 -0.3361
21239TIP3    H164599   8.314   2.566   3.621  2.2830  0.1267 -1.7170
21239TIP3    H264600   8.217   2.583   3.507  1.3655 -0.3387 -1.0216
21240TIP3   OH264601   1.797   4.640   1.439  0.1362 -0.2843 -0.1394
21240TIP3    H164602   1.734   4.596   1.497  0.2385  1.0368  1.0451
21240TIP3    H264603   1.834   4.709   1.494 -0.2674  1.4964 -2.0016
21241TIP3   OH264604   7.090   2.552   2.688  0.0712 -0.6247 -0.3558
21241TIP3    H164605   7.030   2.546   2.614 -0.6751 -2.3692  0.3302
21241TIP3    H264606   7.089   2.644   2.713 -2.1292 -0.5540 -0.5474
21242TIP3   OH264607   6.932   6.114   6.001 -0.3024  0.4116 -0.6269
21242TIP3    H164608   6.871   6.059   5.951  2.1402 -2.2463 -0.9135
21242TIP3    H264609   6.957   6.184   5.940 -1.9062  0.7318 -0.9733
21243TIP3   OH264610   1.567   6.054   6.332 -0.1885  0.0783 -0.0330
21243TIP3    H164611   1.655   6.017   6.323 -0.6287 -0.6297 -1.9746
21243TIP3    H264612   1.580   6.134   6.384  2.1653  1.6476 -2.6928
21244TIP3   OH264613   2.628   9.227   6.548 -0.0619 -0.2129  0.2110
21244TIP3    H164614   2.584   9.293   6.494 -1.0538 -1.1663 -0.1862
21244TIP3    H264615   2.686   9.277   6.605  0.2830  0.8997 -1.0604
21245TIP3   OH264616   3.129   1.279   0.890 -0.2445 -0.3017  0.0026
21245TIP3    H164617   3.085   1.238   0.965 -0.3075 -0.0879  0.0834
21245TIP3    H264618   3.059   1.325   0.844 -0.1030  0.0596  0.1445
21246TIP3   OH264619   5.699   7.880   3.372  0.4442  0.4283 -0.2248
21246TIP3    H164620   5.773   7.885   3.312  0.1698  1.8573 -0.4793
21246TIP3    H264621   5.685   7.971   3.400  0.3058 -0.1293  1.6835
21247TIP3   OH264622   8.619   3.977   1.780 -1.3622  0.0317 -0.2512
21247TIP3    H164623   8.671   3.989   1.860  1.9873 -0.4655 -2.1561
21247TIP3    H264624   8.633   3.885   1.756 -1.3258  0.4544 -1.9766
21248TIP3   OH264625   8.970   5.687   6.818 -0.4795  0.7321  0.1108
21248TIP3    H164626   9.046   5.681   6.876 -0.0330 -0.8584 -0.5730
21248TIP3    H264627   9.006   5.673   6.730 -1.3196  1.7833 -0.4173
21249TIP3   OH264628   5.449   4.704   0.512  0.0198 -0.2477 -0.2857
21249TIP3    H164629   5.473   4.711   0.419  0.4459  2.1625 -0.0656
21249TIP3    H264630   5.369   4.650   0.511 -1.3476  1.6052 -2.3581
21250TIP3   OH264631   1.165   9.634   4.268 -0.2961  0.1499  0.2640
21250TIP3    H164632   1.225   9.560   4.273 -0.8125 -0.2790  0.2977
21250TIP3    H264633   1.078   9.595   4.279 -0.7530  0.4636 -1.7954
21251TIP3   OH264634   1.197   8.706   2.562 -0.1732  0.2770 -0.1477
21251TIP3    H164635   1.135   8.742   2.499 -0.1850 -0.4238 -0.5451
21251TIP3    H264636   1.281   8.703   2.515 -0.1045  0.0830 -0.0149
21252TIP3   OH264637   0.153   9.277   6.791 -0.1618 -0.0689 -0.4414
21252TIP3    H164638   0.210   9.277   6.868 -0.9062 -1.1596  0.1245
21252TIP3    H264639   0.089   9.346   6.808 -1.8205 -1.8729  1.0982
21253TIP3   OH264640   7.747   9.864   0.845 -0.4014  0.0423  0.2778
21253TIP3    H164641   7.664   9.824   0.820 -0.8217  0.0452  1.6096
21253TIP3    H264642   7.804   9.851   0.769 -1.0134 -1.6568  0.0821
21254TIP3   OH264643  10.814   5.658   7.040 -0.0879 -0.0288  0.0450
21254TIP3    H164644  10.823   5.657   6.945 -0.3574 -1.6825  0.0109
21254TIP3    H264645  10.844   5.746   7.066  2.6364 -0.4438 -1.3181
21255TIP3   OH264646   6.445   9.536   8.423  0.1750  0.4060 -0.1510
21255TIP3    H164647   6.373   9.474   8.415  0.0875  0.4432  0.3289
21255TIP3    H264648   6.415   9.614   8.376  0.5207 -0.1107 -1.2505
21256TIP3   OH264649   3.362   3.181   2.453 -0.1630 -0.6933  0.3625
21256TIP3    H164650   3.350   3.272   2.483 -0.4628 -0.9069  0.8932
21256TIP3    H264651   3.393   3.190   2.363  1.6140 -0.0154  1.0033
21257TIP3   OH264652  10.133   6.405   6.415 -0.0302  0.5529  0.5559
21257TIP3    H164653  10.216   6.356   6.416  0.0107  0.6183  0.4002
21257TIP3    H264654  10.066   6.337   6.414  0.0352  0.4558 -1.5388
21258TIP3   OH264655   9.001   7.189   2.815 -0.0431 -0.6145 -0.1820
21258TIP3    H164656   8.938   7.164   2.882 -0.6615  0.1172 -0.4774
21258TIP3    H264657   8.986   7.127   2.743 -0.0440 -0.7852 -0.0352
21259TIP3   OH264658   0.177   5.826   5.552  0.7958  0.2354  0.1404
21259TIP3    H164659   0.235   5.758   5.517  1.3447 -0.1679  1.7421
21259TIP3    H264660   0.234   5.879   5.609 -0.2825  0.0977  1.4094
21260TIP3   OH264661   3.220   9.944   0.500 -0.0578 -0.3273  0.1668
21260TIP3    H164662   3.204  10.038   0.501 -1.1888 -0.4814 -0.8685
21260TIP3    H264663   3.299   9.934   0.446  0.5106  0.0681  0.9096
21261TIP3   OH264664   6.202   2.302   3.977 -0.5783 -0.3488  0.1336
21261TIP3    H164665   6.119   2.263   3.949 -1.1321  1.4065 -0.8530
21261TIP3    H264666   6.177   2.384   4.019  0.6447  2.0352 -3.2857
21262TIP3   OH264667   4.407   0.092  10.747  0.0205  0.3644  0.5845
21262TIP3    H164668   4.368   0.161  10.694 -1.6252  0.5466  1.9311
21262TIP3    H264669   4.501   0.098  10.730 -0.1887  2.2354 -0.1248
21263TIP3   OH264670  10.655   7.124   0.038 -0.1627 -0.4923 -0.5853
21263TIP3    H164671  10.576   7.106   0.089 -0.3500 -3.1955 -1.6593
21263TIP3    H264672  10.718   7.059   0.069  1.0941  0.5299 -0.9278
21264TIP3   OH264673  10.736   9.406   3.278 -0.0309 -0.1267 -0.1626
21264TIP3    H164674  10.790   9.330   3.257  0.9388  0.0472  1.4873
21264TIP3    H264675  10.762   9.472   3.213  1.3872 -0.2203  0.2836
21265TIP3   OH264676   0.839   0.803   2.575 -0.0203  0.0281 -0.5316
21265TIP3    H164677   0.774   0.838   2.636  0.3519  0.9915 -0.6639
21265TIP3    H264678   0.808   0.715   2.555 -0.7984  0.1413  0.1043
21266TIP3   OH264679   6.103   5.582   2.786 -0.9517 -0.1591 -0.0700
21266TIP3    H164680   6.027   5.527   2.766 -1.7847  0.0884  2.2022
21266TIP3    H264681   6.073   5.672   2.771 -1.0526 -0.0735  0.6135
21267TIP3   OH264682   5.096   5.587   9.055 -0.3270 -0.4509  0.2615
21267TIP3    H164683   5.185   5.560   9.073 -0.3644 -0.3066  0.6870
21267TIP3    H264684   5.103   5.645   8.978  0.2858  1.5098  1.7022
21268TIP3   OH264685   8.589   2.883   0.916  0.5741 -0.0242  0.1371
21268TIP3    H164686   8.663   2.822   0.918 -0.1678 -0.9601 -0.3359
21268TIP3    H264687   8.566   2.889   0.823  0.9039  1.3368  0.1154
21269TIP3   OH264688   9.483   9.075   4.860 -0.1938  0.0473 -0.5360
21269TIP3    H164689   9.457   9.158   4.899  0.4428 -0.8904  2.1041
21269TIP3    H264690   9.579   9.077   4.860 -0.1659  0.0060 -2.1445
21270TIP3   OH264691   4.860   7.034   6.299  0.1884  0.8254  0.2290
21270TIP3    H164692   4.854   6.966   6.367 -2.0539  0.8419  0.1400
21270TIP3    H264693   4.841   7.115   6.346  0.3109  1.0481 -0.1135
21271TIP3   OH264694   3.819   6.970   7.980 -0.2499  1.2301 -0.4025
21271TIP3    H164695   3.830   7.064   7.968  0.3074  1.2308  0.0372
21271TIP3    H264696   3.900   6.932   7.946  0.3128  1.0629  1.0373
21272TIP3   OH264697  10.768   9.647   8.217 -0.4292 -0.4966  0.0260
21272TIP3    H164698  10.805   9.652   8.305 -0.9968  0.7333  0.2216
21272TIP3    H264699  10.807   9.569   8.178  0.3776 -0.6530  1.1164
21273TIP3   OH264700   5.220   4.410   5.365  0.1749 -0.2905  0.3825
21273TIP3    H164701   5.307   4.372   5.350  0.6687  1.8483 -3.4618
21273TIP3    H264702   5.234   4.505   5.358 -2.2797  0.1799  1.0550
21274TIP3   OH264703   4.811   1.854   8.972  0.0891 -0.3252 -0.2348
21274TIP3    H164704   4.744   1.858   9.041 -0.9682  1.6920 -1.2964
21274TIP3    H264705   4.811   1.941   8.933  1.9596 -0.8752 -1.6082
21275TIP3   OH264706   0.238  10.452   2.040 -0.2319 -0.0473 -0.4430
21275TIP3    H164707   0.227  10.541   2.074 -0.7364  0.5154 -2.0026
21275TIP3    H264708   0.150  10.415   2.041  0.3053 -1.6653  2.9381
21276TIP3   OH264709  10.599   4.597   4.732 -0.0415 -0.3892 -0.3311
21276TIP3    H164710  10.687   4.562   4.715  0.8613  0.8502  1.4342
21276TIP3    H264711  10.588   4.591   4.827 -0.5989  2.2020 -0.1442
21277TIP3   OH264712   5.578   5.787   2.050 -0.1603 -0.3371  0.0623
21277TIP3    H164713   5.618   5.847   2.113 -1.5610 -0.9598  1.6184
21277TIP3    H264714   5.644   5.777   1.981  1.0642  1.0729  0.9748
21278TIP3   OH264715   2.261  10.414   8.024  0.3139  0.2929 -0.6852
21278TIP3    H164716   2.264  10.382   7.934 -1.3536 -0.4676 -0.4915
21278TIP3    H264717   2.353  10.427   8.047  0.9407 -2.0890 -1.5769
21279TIP3   OH264718   0.042   1.195   1.349 -0.2269 -0.0633 -0.0437
21279TIP3    H164719   0.119   1.202   1.292 -1.6927 -1.6053 -2.3934
21279TIP3    H264720   0.059   1.117   1.402 -0.1642 -0.4012 -0.5540
21280TIP3   OH264721   9.619  10.732   6.264 -0.0635 -0.0261 -0.4363
21280TIP3    H164722   9.673  10.662   6.302 -0.2389  1.0171  1.9629
21280TIP3    H264723   9.683  10.796   6.232  0.3714  1.4826  2.9238
21281TIP3   OH264724   4.904   4.575   7.117  0.0269  0.1329  0.1631
21281TIP3    H164725   4.963   4.513   7.160 -1.8421 -1.1982  0.9610
21281TIP3    H264726   4.961   4.643   7.082  2.0343 -1.2664  0.5708
21282TIP3   OH264727   9.009   5.446   0.833 -0.0640 -0.1167 -0.8023
21282TIP3    H164728   9.013   5.421   0.925 -0.7926  0.4257 -0.6199
21282TIP3    H264729   9.100   5.469   0.811  0.2656 -1.0507 -0.4591
21283TIP3   OH264730   3.560   2.829   9.878 -0.1068  0.1609  0.6794
21283TIP3    H164731   3.627   2.881   9.833 -0.5748  1.5150  1.4796
21283TIP3    H264732   3.540   2.757   9.818  1.9293 -0.1878  0.3558
21284TIP3   OH264733   9.792   4.517   5.157  0.1888  0.0137 -0.3669
21284TIP3    H164734   9.751   4.450   5.101  0.2184  0.8491 -1.4132
21284TIP3    H264735   9.878   4.482   5.178  0.0035 -0.5063 -0.4598
21285TIP3   OH264736   6.085   0.904   4.246  0.2346  0.6727  0.1590
21285TIP3    H164737   6.130   0.883   4.165 -0.7752 -0.8510 -0.0454
21285TIP3    H264738   6.152   0.943   4.302  1.5627 -0.6656 -0.4567
21286TIP3   OH264739   6.628   2.812   5.090  0.0881 -0.1690 -0.0223
21286TIP3    H164740   6.687   2.769   5.028 -0.4005 -0.6722 -0.1412
21286TIP3    H264741   6.540   2.798   5.054 -0.0357  2.0343 -0.7811
21287TIP3   OH264742   0.374  10.365  10.694 -0.3854  0.3168 -0.2127
21287TIP3    H164743   0.439  10.366  10.764 -0.5038 -0.1455 -0.0946
21287TIP3    H264744   0.400  10.437  10.636  1.4349 -1.1145 -1.2795
21288TIP3   OH264745   9.211   4.542  10.260  0.4343 -0.3845 -0.4141
21288TIP3    H164746   9.148   4.552  10.331 -1.0084  0.7624 -1.7812
21288TIP3    H264747   9.295   4.566  10.299 -0.6534  2.6308  0.3742
21289TIP3   OH264748   8.743   4.126  10.458  0.3419  0.3950 -0.4338
21289TIP3    H164749   8.792   4.133  10.540  0.8196 -1.4120 -0.5146
21289TIP3    H264750   8.742   4.215  10.422 -0.1345  1.2761  1.6529
21290TIP3   OH264751   8.572   4.163   5.136  0.4698 -0.0767 -0.4393
21290TIP3    H164752   8.540   4.100   5.071 -0.4766  1.3946 -1.4749
21290TIP3    H264753   8.667   4.151   5.136  0.4719 -0.2985 -1.9412
21291TIP3   OH264754   8.843   3.171   4.137  0.1195 -0.0217  0.0467
21291TIP3    H164755   8.767   3.213   4.177  0.1508 -0.1543  0.2473
21291TIP3    H264756   8.917   3.223   4.166  0.1628 -0.2389  0.3265
21292TIP3   OH264757   8.390   2.688   7.934 -0.2178 -0.2169  0.3354
21292TIP3    H164758   8.373   2.653   8.022  0.6194  0.0134  0.5995
21292TIP3    H264759   8.467   2.744   7.946  1.4074 -2.0235 -0.9806
21293TIP3   OH264760   2.760   9.130   4.707  0.0658 -0.3000 -0.6807
21293TIP3    H164761   2.831   9.070   4.727 -0.4007 -0.2922  1.1719
21293TIP3    H264762   2.754   9.188   4.783 -0.7002  0.9153 -1.6149
21294TIP3   OH264763   3.414   3.376   3.578  0.6204  0.3668 -0.9884
21294TIP3    H164764   3.323   3.359   3.601  1.4455 -1.3013  1.4772
21294TIP3    H264765   3.425   3.339   3.490 -0.6960 -0.9085 -0.6415
21295TIP3   OH264766   8.965   1.006   6.306  0.0547  0.0752 -0.2769
21295TIP3    H164767   8.920   1.091   6.305  1.9618  1.1190 -0.7137
21295TIP3    H264768   8.933   0.964   6.386 -2.4169  0.3272 -1.0411
21296TIP3   OH264769   2.996   7.123   2.790  0.1305 -0.0265  0.1031
21296TIP3    H164770   2.907   7.113   2.827  1.2090 -2.3635  2.4462
21296TIP3    H264771   3.029   7.033   2.785  2.2830  0.7751 -0.9558
21297TIP3   OH264772  10.173   1.627   2.882  0.2522 -0.2594  0.4643
21297TIP3    H164773  10.130   1.542   2.876 -0.9016  0.1840  1.8038
21297TIP3    H264774  10.226   1.622   2.961 -1.8298  1.0498  2.0516
21298TIP3   OH264775   5.645   6.274   7.444  0.2476  0.0535  0.6034
21298TIP3    H164776   5.601   6.190   7.434 -1.0964  0.7967 -0.0084
21298TIP3    H264777   5.641   6.314   7.357  1.4502  0.4886  0.7241
21299TIP3   OH264778   5.987   0.015  10.196  0.7918  0.0823 -0.3636
21299TIP3    H164779   6.019   0.054  10.277  1.2062 -1.9593  0.5115
21299TIP3    H264780   6.067  -0.008  10.148  0.5572  0.1023 -0.7656
21300TIP3   OH264781   4.688   0.479   1.618  0.0060  0.2516 -0.6653
21300TIP3    H164782   4.717   0.424   1.545 -0.1237 -0.4615 -0.1820
21300TIP3    H264783   4.689   0.568   1.582 -1.2889 -0.1988 -1.9570
21301TIP3   OH264784   8.794   7.751   9.669  0.0442 -0.0029  0.0813
21301TIP3    H164785   8.716   7.753   9.614  0.8002 -0.4758 -1.0583
21301TIP3    H264786   8.781   7.822   9.732 -2.0665 -1.1293  1.0379
21302TIP3   OH264787   6.221   3.399   0.303 -0.2533 -0.3459  0.2758
21302TIP3    H164788   6.239   3.316   0.257  1.3703 -1.4875  2.7504
21302TIP3    H264789   6.278   3.396   0.380  0.2472  3.3610  0.2065
21303TIP3   OH264790   8.223   6.470   9.649  0.6150 -0.1498  0.4351
21303TIP3    H164791   8.295   6.469   9.586  0.6310  1.1827  0.4106
21303TIP3    H264792   8.147   6.497   9.598  0.4083 -0.1012  0.7665
21304TIP3   OH264793   6.012   4.500   4.911 -0.1389  0.5262  0.1018
21304TIP3    H164794   6.099   4.462   4.901 -0.1646  0.2395  0.8846
21304TIP3    H264795   5.955   4.425   4.931 -0.3732  0.8409  0.6270
21305TIP3   OH264796   6.015   1.395   7.773 -0.2553 -0.1705  0.4066
21305TIP3    H164797   6.102   1.404   7.733  0.4548  2.3803  2.2867
21305TIP3    H264798   5.958   1.368   7.700  1.8671 -0.8323 -1.1094
21306TIP3   OH264799   6.330   4.018   1.972  0.3064 -0.4887  0.2005
21306TIP3    H164800   6.323   3.942   2.030 -0.7082 -0.2504  0.4112
21306TIP3    H264801   6.247   4.020   1.925  0.4848  0.2526 -0.1029
21307TIP3   OH264802   4.808   2.917   7.695  0.5825 -0.0020  0.4934
21307TIP3    H164803   4.775   2.864   7.623 -1.5321  0.5508  1.0041
21307TIP3    H264804   4.888   2.873   7.723  2.8367  0.9775 -3.6145
21308TIP3   OH264805   5.971   1.863   6.283 -0.2875 -0.2725 -0.2714
21308TIP3    H164806   6.007   1.946   6.316  0.6563 -0.5565 -0.5531
21308TIP3    H264807   5.951   1.813   6.362 -1.3554  0.4170 -0.0867
21309TIP3   OH264808   5.924   9.276   5.738 -0.1020 -0.3525 -0.1252
21309TIP3    H164809   5.908   9.338   5.809 -2.2436 -0.7444 -0.1981
21309TIP3    H264810   6.019   9.262   5.740  0.0801  0.7122  1.7310
21310TIP3   OH264811   2.629   8.412   1.361  0.7661 -0.1435  0.0122
21310TIP3    H164812   2.593   8.384   1.445  2.6071 -2.0181  0.2793
21310TIP3    H264813   2.704   8.354   1.347  0.0593 -0.4384 -3.3288
21311TIP3   OH264814   4.776   1.766   3.996  0.2177  0.6503 -0.0932
21311TIP3    H164815   4.861   1.782   3.954  0.3551  0.5638  0.1518
21311TIP3    H264816   4.797   1.718   4.076 -0.2158 -1.5202 -1.1718
21312TIP3   OH264817   5.141   8.248  10.686 -0.8670  0.0836 -0.0911
21312TIP3    H164818   5.130   8.179  10.621 -0.4156  2.7091 -3.2076
21312TIP3    H264819   5.235   8.259  10.693 -0.9379  0.5202  0.2067
21313TIP3   OH264820   1.308   0.210   0.555 -0.2825 -0.6312 -0.6660
21313TIP3    H164821   1.274   0.213   0.644 -0.5677  2.5247 -0.7884
21313TIP3    H264822   1.271   0.287   0.512  3.7373  0.8044 -2.0280
21314TIP3   OH264823   5.632   7.947   6.099 -0.0023 -0.7376  0.0815
21314TIP3    H164824   5.562   8.012   6.110  0.1660 -0.7350  1.2704
21314TIP3    H264825   5.704   7.979   6.153  0.6688 -1.1145 -0.5639
21315TIP3   OH264826   5.708  10.767  10.781  0.5209  0.4256  0.0280
21315TIP3    H164827   5.647  10.778  10.709  2.8964  1.6473 -1.9464
21315TIP3    H264828   5.740  10.678  10.773  0.6433  0.5024 -0.3312
21316TIP3   OH264829   6.066   7.306   3.698  0.5265 -1.2919  0.2595
21316TIP3    H164830   6.034   7.384   3.652  0.2873 -0.5376  1.6415
21316TIP3    H264831   6.046   7.234   3.639  0.6363 -0.3247 -1.0003
21317TIP3   OH264832   0.834   9.785   7.571  0.1586  0.8887  0.0137
21317TIP3    H164833   0.749   9.817   7.542 -0.3650 -0.5695 -0.1798
21317TIP3    H264834   0.874   9.750   7.491 -0.0446 -0.4846  0.4852
21318TIP3   OH264835   4.086   5.979   4.226 -0.1045 -0.0620  0.5218
21318TIP3    H164836   4.050   5.947   4.308  1.1072 -0.5739  0.8763
21318TIP3    H264837   4.167   5.930   4.214  0.6873  1.3169 -0.0511
21319TIP3   OH264838   2.015   4.413   2.814 -0.4172 -0.1037  0.1258
21319TIP3    H164839   1.971   4.339   2.773 -1.7252  0.6372  0.1103
21319TIP3    H264840   1.975   4.419   2.901  1.8351 -1.2390  1.3191
21320TIP3   OH264841   2.667   4.148   8.519 -0.0045 -0.2657 -0.2248
21320TIP3    H164842   2.606   4.200   8.467 -1.0995 -0.9719  0.3223
21320TIP3    H264843   2.625   4.140   8.605  0.9553 -0.5980  0.2319
21321TIP3   OH264844   4.537   5.325   7.952 -0.0676  0.4563  0.1932
21321TIP3    H164845   4.497   5.392   8.007  1.1147  0.4783  1.0606
21321TIP3    H264846   4.561   5.256   8.013  1.0392  0.3718 -0.3219
21322TIP3   OH264847  10.248   1.021   1.770 -0.5321 -0.1980  0.3913
21322TIP3    H164848  10.253   0.939   1.818  0.1394 -0.3232  0.1151
21322TIP3    H264849  10.179   1.071   1.814 -1.5804 -1.2690  0.0079
21323TIP3   OH264850   9.125   1.396   0.735  0.2587 -0.3828 -0.2252
21323TIP3    H164851   9.081   1.385   0.819 -0.2269 -0.1363 -0.4485
21323TIP3    H264852   9.179   1.474   0.746 -0.4365  0.1298 -0.4105
21324TIP3   OH264853   1.462   3.440   9.058 -0.6637  0.1330 -0.2806
21324TIP3    H164854   1.407   3.475   8.988 -1.0823 -2.2029 -1.2093
21324TIP3    H264855   1.485   3.352   9.028  0.0702 -0.5223  2.0277
21325TIP3   OH264856   5.385   3.063   7.376 -0.1202  0.0118  0.3988
21325TIP3    H164857   5.315   3.103   7.325  0.0131 -0.7966 -0.4486
21325TIP3    H264858   5.389   2.973   7.344  1.5509  0.1426  0.1816
21326TIP3   OH264859   1.191   5.459   9.950  0.9766 -0.5634  0.6817
21326TIP3    H164860   1.129   5.479   9.880  2.0642 -0.2334 -0.2167
21326TIP3    H264861   1.226   5.373   9.928  1.2985 -0.4727  0.8245
21327TIP3   OH264862   0.112   1.951   5.499 -0.0198 -0.3133  0.3339
21327TIP3    H164863   0.160   1.912   5.572 -2.9511 -1.8756  1.6366
21327TIP3    H264864   0.051   2.012   5.540 -0.5637  0.0618 -0.9837
21328TIP3   OH264865   8.939   0.378   1.938 -0.0702 -0.3928 -0.2571
21328TIP3    H164866   8.847   0.403   1.926 -0.4905 -1.1211  1.1574
21328TIP3    H264867   8.937   0.282   1.942  0.3714 -0.3642  2.2029
21329TIP3   OH264868   6.004   8.622  10.643 -0.2089  0.3685 -0.2790
21329TIP3    H164869   6.059   8.594  10.570 -1.3910  0.8453 -1.3963
21329TIP3    H264870   6.047   8.700  10.678  0.9544 -0.4924  0.2755
21330TIP3   OH264871   1.522   2.665   9.546  0.2792 -0.0307 -0.4264
21330TIP3    H164872   1.445   2.722   9.544  0.1692 -0.1693 -0.1878
21330TIP3    H264873   1.504   2.599   9.478  0.5831  0.4370 -0.9745
21331TIP3   OH264874   0.522   3.848   4.646  0.4069 -1.1109  0.1424
21331TIP3    H164875   0.599   3.899   4.671  1.2241 -2.5864  0.7673
21331TIP3    H264876   0.520   3.851   4.550 -0.2551  1.0162  0.1707
21332TIP3   OH264877   6.728   3.241   7.291 -0.0375 -0.6312 -0.3026
21332TIP3    H164878   6.764   3.163   7.334  0.9869  0.9630  1.9494
21332TIP3    H264879   6.802   3.279   7.244 -0.9861 -1.9629 -3.1183
21333TIP3   OH264880   4.449   5.992   3.781 -0.0240 -0.0237  0.4835
21333TIP3    H164881   4.368   5.947   3.805  0.1839 -1.1665 -0.8323
21333TIP3    H264882   4.506   5.923   3.747  0.8628  1.0120 -0.2084
21334TIP3   OH264883   5.799   1.730   1.472 -0.4362  0.1761  0.5320
21334TIP3    H164884   5.779   1.707   1.381  1.7829 -2.0498  0.4985
21334TIP3    H264885   5.713   1.734   1.514 -1.5136  0.9966 -1.5732
21335TIP3   OH264886   4.748   2.060   8.016  0.1230  0.7147  0.3794
21335TIP3    H164887   4.839   2.048   7.990 -0.2471  0.1909 -0.7678
21335TIP3    H264888   4.709   2.109   7.944 -0.6785  0.2505  0.4882
21336TIP3   OH264889   8.060   7.835  10.597 -0.6739  0.2781 -0.2095
21336TIP3    H164890   7.987   7.828  10.536 -2.6861  1.0775  1.9575
21336TIP3    H264891   8.100   7.920  10.577 -2.0884  1.1015  0.3586
21337TIP3   OH264892   9.495   3.393   2.600 -0.2685 -0.0379  0.0417
21337TIP3    H164893   9.504   3.468   2.542 -1.7807  0.0802 -0.0843
21337TIP3    H264894   9.480   3.319   2.541 -0.8163 -0.0850  0.2356
21338TIP3   OH264895   2.268   4.683   4.394  0.1411  0.3043 -0.0833
21338TIP3    H164896   2.278   4.736   4.473 -0.4078  0.0996  0.1244
21338TIP3    H264897   2.227   4.602   4.424  1.2948 -0.3964 -0.3489
21339TIP3   OH264898   3.337   8.578   4.900  0.0999 -0.2461  0.1137
21339TIP3    H164899   3.385   8.496   4.911  2.2978  1.0534  0.7080
21339TIP3    H264900   3.281   8.583   4.978 -0.6470 -1.5070 -0.3086
21340TIP3   OH264901   1.986  10.443   7.810  0.5934  0.1129 -0.2577
21340TIP3    H164902   2.068  10.406   7.779  1.1249  0.2703  0.9327
21340TIP3    H264903   1.921  10.375   7.792  1.0411 -0.1558 -0.8746
21341TIP3   OH264904  10.841   8.239  10.269  0.7444 -0.6615  0.5874
21341TIP3    H164905  10.844   8.182  10.346 -2.3548 -0.2425  1.1536
21341TIP3    H264906  10.758   8.218  10.228 -0.1869  2.8383  0.3658
21342TIP3   OH264907   7.757   2.976   6.366 -0.3984  0.5057 -0.2759
21342TIP3    H164908   7.819   2.973   6.439 -2.1054  0.2075  1.2224
21342TIP3    H264909   7.764   2.889   6.326 -0.6901  0.0306  0.6541
21343TIP3   OH264910   5.115   7.354   1.889  0.0545 -0.4029  0.2861
21343TIP3    H164911   5.034   7.321   1.927 -0.4527  0.2848 -0.1680
21343TIP3    H264912   5.170   7.276   1.878 -0.3892 -0.8230  0.9453
21344TIP3   OH264913   6.764   1.604   0.829  0.1534 -0.6406 -0.3166
21344TIP3    H164914   6.688   1.604   0.771  0.3913 -0.3529 -0.6383
21344TIP3    H264915   6.822   1.670   0.791 -0.6004  1.1290  1.4393
21345TIP3   OH264916  10.786   7.593   0.544  0.7158  0.4449  0.3876
21345TIP3    H164917  10.724   7.667   0.542  0.0117 -0.1448 -0.2615
21345TIP3    H264918  10.825   7.593   0.456  0.1298 -0.4379  0.1248
21346TIP3   OH264919   5.217   4.373   6.363  0.5090 -0.2525 -0.0624
21346TIP3    H164920   5.193   4.318   6.437  0.7927  0.4153  0.5453
21346TIP3    H264921   5.147   4.438   6.358 -0.2181 -1.0860 -1.2444
21347TIP3   OH264922   0.730   4.141  10.361  0.6910 -0.2126  0.7563
21347TIP3    H164923   0.679   4.069  10.398  0.3697  0.3523  1.4420
21347TIP3    H264924   0.765   4.187  10.438 -1.0071  1.7284  0.4441
21348TIP3   OH264925   5.143   2.657   4.964 -0.5212 -0.3807 -0.5524
21348TIP3    H164926   5.122   2.697   5.049  0.6886  0.7050 -0.7285
21348TIP3    H264927   5.230   2.692   4.942  0.1335 -2.2770 -1.2463
21349TIP3   OH264928   4.113  10.295   5.722 -0.1145  0.4173  0.1751
21349TIP3    H164929   4.038  10.333   5.768 -0.8266  0.5314 -1.0543
21349TIP3    H264930   4.127  10.352   5.646  1.8415  0.9633  0.8716
21350TIP3   OH264931   9.177   1.340   3.212  0.1083 -0.3350 -0.3825
21350TIP3    H164932   9.105   1.401   3.227  0.7638  0.1777  0.8341
21350TIP3    H264933   9.166   1.274   3.281  2.8742  1.7510  2.3052
21351TIP3   OH264934   6.552   0.238   1.715  0.1796  0.8818  1.2156
21351TIP3    H164935   6.604   0.232   1.796  0.6312 -0.1956  0.8686
21351TIP3    H264936   6.618   0.244   1.646 -0.1531 -0.2707  0.7866
21352TIP3   OH264937   2.717   7.795   7.304  0.0388 -0.2274  0.5093
21352TIP3    H164938   2.785   7.815   7.368  0.7401  1.3046 -0.6414
21352TIP3    H264939   2.659   7.734   7.349  1.5582 -0.7210  1.9079
21353TIP3   OH264940   6.179   4.665   9.907 -0.0703  0.2827  0.1368
21353TIP3    H164941   6.085   4.678   9.908 -0.2010 -0.5818  0.2463
21353TIP3    H264942   6.194   4.594   9.970  0.9142  1.9777  1.9313
21354TIP3   OH264943   3.134   6.484   2.975 -0.3818  0.1698 -0.0062
21354TIP3    H164944   3.172   6.566   3.005 -1.2815  0.5487  0.1433
21354TIP3    H264945   3.041   6.504   2.962 -0.8968 -1.1519  1.3071
21355TIP3   OH264946   1.725   7.542   4.476  0.4782  0.3044 -0.7688
21355TIP3    H164947   1.758   7.452   4.484  1.1422  0.5343 -0.8665
21355TIP3    H264948   1.642   7.533   4.429 -2.1745 -0.8253  3.5886
21356TIP3   OH264949   0.339   3.704   4.813  0.1539  0.1799  0.0656
21356TIP3    H164950   0.378   3.772   4.757  2.8875 -0.9163  0.4691
21356TIP3    H264951   0.251   3.737   4.832  0.6929  2.7028 -1.2533
21357TIP3   OH264952   4.220   8.703   5.954 -0.2445 -0.1770 -0.5344
21357TIP3    H164953   4.300   8.753   5.966 -1.6870  1.8821  1.4578
21357TIP3    H264954   4.226   8.632   6.018  0.2014 -0.3247 -0.7393
21358TIP3   OH264955   0.270   7.500   1.063 -0.2575 -0.4425  0.2113
21358TIP3    H164956   0.257   7.571   1.001 -1.4802  0.0692  1.0166
21358TIP3    H264957   0.226   7.425   1.023  1.4609 -0.9409 -0.8760
21359TIP3   OH264958   6.911   0.121   4.513  0.0558 -0.4403  0.1001
21359TIP3    H164959   6.952   0.205   4.535  0.9017 -1.1089  1.1254
21359TIP3    H264960   6.817   0.139   4.520  0.2351  0.0298  1.9555
21360TIP3   OH264961   4.980   1.910  10.902 -0.1631  0.0191  0.5727
21360TIP3    H164962   5.031   1.845  10.950  0.4564  0.1040  0.0434
21360TIP3    H264963   5.022   1.915  10.816 -1.6397 -0.5883 -0.2057
21361TIP3   OH264964   8.194  10.677   1.499 -0.3002  0.5722 -0.2947
21361TIP3    H164965   8.106  10.704   1.524 -0.5843  0.2432 -0.9280
21361TIP3    H264966   8.183  10.634   1.414  0.0337 -1.9667  0.8564
21362TIP3   OH264967   5.760   8.520   2.969 -0.2666  0.0717  0.5842
21362TIP3    H164968   5.757   8.443   2.913  0.8052  0.5284 -0.1489
21362TIP3    H264969   5.726   8.491   3.054 -1.0030 -0.8777 -0.0199
21363TIP3   OH264970   5.911   3.188   7.970  0.2805  0.2871 -0.7397
21363TIP3    H164971   5.996   3.231   7.977  0.2159  0.2218  0.9439
21363TIP3    H264972   5.912   3.146   7.884  1.3302  1.5438 -1.3691
21364TIP3   OH264973   4.057   3.327   0.153 -0.0112 -0.4957 -0.1038
21364TIP3    H164974   4.075   3.289   0.240  1.8309 -1.7181 -0.9649
21364TIP3    H264975   4.141   3.361   0.124 -0.3942 -0.9098 -1.7823
21365TIP3   OH264976   0.659   8.424   3.221  0.0073 -0.0255  0.1455
21365TIP3    H164977   0.717   8.402   3.294  1.0764 -0.9319 -0.9227
21365TIP3    H264978   0.715   8.415   3.144 -1.2601  0.2841 -0.8298
21366TIP3   OH264979   4.367   7.113   7.092  0.6566  0.1708  0.2954
21366TIP3    H164980   4.351   7.207   7.106 -3.1196 -0.5774  2.1459
21366TIP3    H264981   4.417   7.086   7.169  0.2095  0.3280  0.6389
21367TIP3   OH264982   1.766   9.000   3.193  0.4597 -0.2089  0.2230
21367TIP3    H164983   1.737   9.090   3.206  1.9975  0.2511  0.7757
21367TIP3    H264984   1.695   8.946   3.229  0.6656  0.8641  2.4381
21368TIP3   OH264985   5.302   4.447   2.699 -0.4527 -0.2218 -0.3614
21368TIP3    H164986   5.238   4.435   2.769 -0.1852  2.5089  0.4540
21368TIP3    H264987   5.372   4.498   2.739 -0.3757  1.5872 -2.6271
21369TIP3   OH264988   9.337  10.531   6.614 -0.3606  0.3539  0.2918
21369TIP3    H164989   9.242  10.542   6.605 -0.2724  0.3363 -0.7165
21369TIP3    H264990   9.349  10.495   6.702 -1.3394 -0.2958  0.1705
21370TIP3   OH264991   2.050   5.920   5.739 -0.3650  0.2032  0.1915
21370TIP3    H164992   2.039   6.003   5.785  0.5324 -0.8086  2.3649
21370TIP3    H264993   1.974   5.868   5.767 -0.4073 -0.0403 -0.3745
21371TIP3   OH264994   5.799   8.298   2.003  0.1593 -0.6181 -0.1274
21371TIP3    H164995   5.849   8.380   1.997 -0.0981 -0.4031  0.5294
21371TIP3    H264996   5.707   8.327   2.005  0.1016 -0.7801  1.8774
21372TIP3   OH264997   7.946   2.189   1.261  0.7133 -0.8556 -0.1213
21372TIP3    H164998   7.895   2.255   1.307  0.9473  0.0343 -1.0974
21372TIP3    H264999   7.992   2.140   1.330  1.8802  1.1013  0.5678
21373TIP3   OH265000   5.767   2.521  10.464  0.9323  0.3156 -0.3033
21373TIP3    H165001   5.834   2.562  10.408  1.2906  0.6827  0.3826
21373TIP3    H265002   5.814   2.452  10.510  0.3792 -0.7573 -1.2881
21374TIP3   OH265003   3.916   7.290   1.384  0.1865  0.1053  0.4852
21374TIP3    H165004   3.858   7.363   1.404 -0.0584  0.1212 -0.2426
21374TIP3    H265005   3.943   7.256   1.469  0.5485  1.2258  0.8378
21375TIP3   OH265006   9.824   3.026   0.679 -0.4088  0.0870  0.3886
21375TIP3    H165007   9.766   3.035   0.755  1.0702  1.0762  1.4542
21375TIP3    H265008   9.825   3.113   0.639  1.3370  0.4553  1.1687
21376TIP3   OH265009   7.942   8.090   1.366  0.4678 -0.2469 -0.1402
21376TIP3    H165010   8.001   8.160   1.339  1.8786 -0.9115  1.1255
21376TIP3    H265011   7.869   8.136   1.408  0.2895  0.5535 -1.2816
21377TIP3   OH265012   3.892   5.628   7.170 -0.3853 -0.0124  0.3636
21377TIP3    H165013   3.973   5.577   7.179 -0.2496  0.1371  0.0404
21377TIP3    H265014   3.913   5.713   7.208  0.3133  0.7490 -1.5629
21378TIP3   OH265015   5.310   6.055   2.488 -0.1419 -0.8419  0.0416
21378TIP3    H165016   5.223   6.036   2.452 -0.0446  0.6820 -1.0858
21378TIP3    H265017   5.354   6.105   2.419  1.4349 -1.0995  0.8242
21379TIP3   OH265018   0.251  10.553   8.857  0.7192  0.4808  0.9175
21379TIP3    H165019   0.301  10.630   8.883  0.2597  0.5754  1.5240
21379TIP3    H265020   0.200  10.582   8.781  1.0058  0.5910  0.7619
21380TIP3   OH265021   1.283   8.709  10.581 -0.3385  0.2656  0.1221
21380TIP3    H165022   1.288   8.803  10.565  0.0971  0.1544 -0.4178
21380TIP3    H265023   1.306   8.700  10.673  1.1611  0.5671 -0.1854
21381TIP3   OH265024   6.079   5.561   3.069  0.3762  0.1320  0.2376
21381TIP3    H165025   6.077   5.568   2.973 -0.7791  1.7589  0.3466
21381TIP3    H265026   6.172   5.560   3.090  0.7522  3.2341 -0.7544
21382TIP3   OH265027   2.353   5.812   0.617  0.2430 -0.9538 -0.0736
21382TIP3    H165028   2.420   5.822   0.684 -0.3397 -0.1884  0.4078
21382TIP3    H265029   2.330   5.901   0.592 -0.6719 -1.2011 -0.1485
21383TIP3   OH265030  10.677   2.375   3.708  0.4657  0.4040  0.0694
21383TIP3    H165031  10.763   2.337   3.726  0.3047 -0.0930 -0.1923
21383TIP3    H265032  10.656   2.425   3.786  0.6057 -0.1955  0.4957
21384TIP3   OH265033   7.940   5.587   1.896 -0.3810 -0.3933 -0.0890
21384TIP3    H165034   7.892   5.513   1.858 -0.2151 -0.9122  0.7007
21384TIP3    H265035   7.871   5.646   1.927 -0.5251 -0.8440  0.4758
21385TIP3   OH265036   4.377   8.391   6.761  0.0432 -0.3262  0.5068
21385TIP3    H165037   4.316   8.462   6.781  1.0555  0.4654  0.8704
21385TIP3    H265038   4.458   8.416   6.805  0.1885 -2.1266  1.3489
21386TIP3   OH265039   6.805   1.095   5.156 -0.5669  0.2434 -0.1843
21386TIP3    H165040   6.836   1.014   5.115 -1.5417 -1.8769  2.9164
21386TIP3    H265041   6.871   1.114   5.223 -0.1078  2.3701 -1.1756
21387TIP3   OH265042   6.615   0.389   4.132 -0.0292 -0.4414  0.4957
21387TIP3    H165043   6.607   0.475   4.092  0.4967 -1.4808 -2.0706
21387TIP3    H265044   6.700   0.390   4.176 -0.3614  0.5532  1.1454
21388TIP3   OH265045   0.954   0.359   5.047  0.8905  0.7095  0.4904
21388TIP3    H165046   0.975   0.325   5.134  0.8927  0.5834  0.4412
21388TIP3    H265047   0.999   0.299   4.987  0.2441  0.3248  0.3765
21389TIP3   OH265048   0.970  10.607   1.155  0.3007 -0.3615 -0.6924
21389TIP3    H165049   1.057  10.646   1.140 -0.6300  1.9681 -0.5308
21389TIP3    H265050   0.937  10.652   1.233 -0.4764 -2.3171  0.1717
21390TIP3   OH265051   6.700   3.337   8.646 -0.5380 -0.1386  0.0235
21390TIP3    H165052   6.713   3.251   8.687 -0.3734 -0.4476 -0.6686
21390TIP3    H265053   6.789   3.371   8.633 -0.4721 -0.9041 -1.8615
21391TIP3   OH265054   0.639   9.725   8.612 -0.0588  0.1054  0.7952
21391TIP3    H165055   0.706   9.679   8.561  0.0906  0.1760  0.9278
21391TIP3    H265056   0.564   9.731   8.553  0.1858  0.3697  0.5099
21392TIP3   OH265057   8.858   4.904   3.414 -0.5306  0.2546 -0.4068
21392TIP3    H165058   8.840   4.943   3.500 -1.4584 -2.1658  0.6174
21392TIP3    H265059   8.932   4.845   3.430  0.0814  0.6863 -1.5868
21393TIP3   OH265060   4.948   8.113   8.755  0.1689 -0.4520  0.1004
21393TIP3    H165061   4.963   8.052   8.827  0.3545 -0.4245  0.0858
21393TIP3    H265062   4.990   8.194   8.783  0.8424 -0.6485 -0.3382
21394TIP3   OH265063  10.235  10.630   7.950  0.4073  0.4626 -0.1039
21394TIP3    H165064  10.206  10.557   7.896  1.0488  0.2452 -0.1615
21394TIP3    H265065  10.320  10.603   7.984  0.3103  0.8726  0.4802
21395TIP3   OH265066   6.312   4.960   5.943  0.1787 -0.0117 -0.2844
21395TIP3    H165067   6.242   4.902   5.912  0.0718  1.0823 -2.2559
21395TIP3    H265068   6.265   5.033   5.984  0.2966 -0.9663  1.6221
21396TIP3   OH265069  10.220  10.292   4.519 -0.7428 -0.4901  0.1269
21396TIP3    H165070  10.151  10.318   4.458  0.6446  0.4964 -1.0844
21396TIP3    H265071  10.263  10.374   4.543 -0.2669 -1.0414  1.2223
21397TIP3   OH265072   6.987   9.280   8.844 -0.0046  0.0821 -0.2929
21397TIP3    H165073   6.985   9.192   8.881 -0.5973 -0.0889 -0.7229
21397TIP3    H265074   7.007   9.267   8.751  0.3996  0.4348 -0.2568
21398TIP3   OH265075   8.066   3.468   2.932 -0.0752 -0.4825 -0.6236
21398TIP3    H165076   8.043   3.447   3.022 -1.8932 -1.4687 -1.2771
21398TIP3    H265077   8.148   3.420   2.916  0.0988 -0.5415  0.3890
21399TIP3   OH265078   1.843  10.616  10.607 -0.2683  0.0540 -0.1554
21399TIP3    H165079   1.788  10.658  10.541  1.6816  1.2609 -1.1331
21399TIP3    H265080   1.865  10.531  10.569 -0.3513  0.1385 -0.3969
21400TIP3   OH265081   8.115   5.386   8.927  0.1871 -0.1578  0.1574
21400TIP3    H165082   8.043   5.326   8.907  0.6807 -0.0054 -2.4938
21400TIP3    H265083   8.072   5.470   8.943 -0.2872  0.1662 -2.3810
21401TIP3   OH265084   5.741   5.901   0.081 -0.6583  0.7159  0.0432
21401TIP3    H165085   5.696   5.859   0.008 -0.4382 -0.7503  0.7294
21401TIP3    H265086   5.833   5.884   0.066 -0.5830  0.7445  0.4634
21402TIP3   OH265087   1.046   9.191   1.763  0.1912  0.0495  0.1953
21402TIP3    H165088   1.038   9.212   1.670 -1.5580  1.0734  0.5250
21402TIP3    H265089   1.043   9.096   1.766 -1.0252  0.0258 -0.7308
21403TIP3   OH265090   2.718   0.599   8.115  0.1460 -0.5226  0.3517
21403TIP3    H165091   2.742   0.507   8.103 -1.0282 -1.0662  1.8415
21403TIP3    H265092   2.624   0.597   8.135  0.3593  0.8737  1.6964
21404TIP3   OH265093   0.463   5.411   3.269 -0.0491  0.1051 -0.2238
21404TIP3    H165094   0.495   5.467   3.339 -2.4450  1.8054 -0.3822
21404TIP3    H265095   0.461   5.323   3.307 -0.6407  0.8767  1.6336
21405TIP3   OH265096   9.394   3.379   6.138 -0.1987  0.0977 -0.0297
21405TIP3    H165097   9.379   3.293   6.176 -2.0233  0.0495 -0.7678
21405TIP3    H265098   9.322   3.433   6.170  0.3046  1.0457 -0.4487
21406TIP3   OH265099   1.180   7.258   7.597  0.2045  0.0546  0.3528
21406TIP3    H165100   1.171   7.269   7.502 -0.6223 -0.1486  0.4021
21406TIP3    H265101   1.192   7.347   7.630  0.8343  0.0944  0.0255
21407TIP3   OH265102   3.419   0.369  10.081 -0.8158 -0.3078 -0.0221
21407TIP3    H165103   3.399   0.285  10.123  0.5103  0.3747  2.1297
21407TIP3    H265104   3.489   0.348  10.019 -0.6326 -0.8246  0.3476
21408TIP3   OH265105   1.074   0.290   5.321 -0.6451 -0.1638 -0.0172
21408TIP3    H165106   1.008   0.261   5.383 -1.2797  1.5721  0.1753
21408TIP3    H265107   1.157   0.261   5.360 -1.1275 -0.2833  0.9677
21409TIP3   OH265108   6.054   5.675   6.266 -0.3128  0.8090 -1.1139
21409TIP3    H165109   6.100   5.605   6.219 -0.8279 -0.6046  0.4285
21409TIP3    H265110   6.112   5.696   6.339 -0.9543  0.7896 -0.5990
21410TIP3   OH265111   7.735   7.257   6.013  0.0292 -0.2738 -0.3218
21410TIP3    H165112   7.658   7.293   5.969 -0.0847 -0.1857 -0.0532
21410TIP3    H265113   7.718   7.271   6.106 -0.6780 -2.3082 -0.1091
21411TIP3   OH265114   6.874  10.119   9.505 -0.2186 -0.6235 -0.4313
21411TIP3    H165115   6.843  10.029   9.520  0.9983 -1.1746 -1.0744
21411TIP3    H265116   6.841  10.142   9.418 -0.2749 -0.5583 -0.3929
21412TIP3   OH265117   2.996   8.417   4.028 -0.1485 -0.1778 -0.4450
21412TIP3    H165118   3.045   8.496   4.050  0.2995 -0.5832  0.0335
21412TIP3    H265119   2.951   8.438   3.946 -2.4967  1.6888  1.1664
21413TIP3   OH265120  10.114   1.324   4.075 -0.7047  0.2281  0.2683
21413TIP3    H165121  10.040   1.376   4.107 -0.0255  1.3983 -0.0043
21413TIP3    H265122  10.108   1.242   4.124 -3.4447 -0.6179 -1.3208
21414TIP3   OH265123   1.518   5.164   0.104  0.1231 -0.3727  0.2651
21414TIP3    H165124   1.547   5.121   0.023 -0.8332  0.4397 -0.5241
21414TIP3    H265125   1.600   5.187   0.148  0.9254  3.0404 -2.5205
21415TIP3   OH265126   5.468   5.308   6.796  0.0960 -0.1721  0.7770
21415TIP3    H165127   5.533   5.358   6.747 -2.0549  2.3046  0.2797
21415TIP3    H265128   5.455   5.357   6.877 -0.3116 -1.2739  1.4063
21416TIP3   OH265129   5.648   2.890   5.817  0.0400 -0.3342  0.1092
21416TIP3    H165130   5.627   2.965   5.761  0.1389  0.0633  0.5950
21416TIP3    H265131   5.564   2.845   5.829 -0.0677 -0.1605  0.0134
21417TIP3   OH265132   7.315   8.976   3.768 -0.1816 -0.2204  0.4559
21417TIP3    H165133   7.311   8.882   3.756 -1.2415 -0.4661  2.3821
21417TIP3    H265134   7.407   8.994   3.786  0.5223 -0.4724 -2.4165
21418TIP3   OH265135   2.762   9.314   7.189  0.0989  0.2825 -0.2564
21418TIP3    H165136   2.827   9.264   7.236  0.1196  0.6169  0.0758
21418TIP3    H265137   2.711   9.249   7.141  0.3226 -0.0234 -0.0777
21419TIP3   OH265138   4.143   0.849   2.740  0.2878 -0.6917 -0.0155
21419TIP3    H165139   4.074   0.787   2.719 -1.3186  0.2792  2.0812
21419TIP3    H265140   4.186   0.812   2.818 -1.1201  0.9997  1.6769
21420TIP3   OH265141   2.495   0.571   4.294 -0.3401 -0.0913 -0.1861
21420TIP3    H165142   2.542   0.577   4.377 -1.8370 -2.6345  0.9232
21420TIP3    H265143   2.489   0.662   4.264  2.7539  0.6293  0.9844
21421TIP3   OH265144   4.518   5.266   2.727  0.1226 -0.8451  0.0476
21421TIP3    H165145   4.437   5.219   2.706 -0.0488  0.4052 -2.4014
21421TIP3    H265146   4.521   5.268   2.823 -1.4167 -3.1145  0.2148
21422TIP3   OH265147   9.452  10.757   8.153  0.1521  0.2620  0.2936
21422TIP3    H165148   9.435  10.670   8.190  3.3346 -1.4558 -1.8038
21422TIP3    H265149   9.502  10.802   8.221 -0.5810  0.0833  0.9737
21423TIP3   OH265150   9.539   7.960   7.061 -0.0345 -0.2300 -0.7168
21423TIP3    H165151   9.489   7.880   7.078  1.0726 -1.0332 -1.1012
21423TIP3    H265152   9.588   7.974   7.142 -2.4121  1.7881  0.5035
21424TIP3   OH265153   8.251   8.840   4.929 -0.2135  0.1937 -1.0406
21424TIP3    H165154   8.318   8.863   4.864 -0.4409 -0.6691 -1.5927
21424TIP3    H265155   8.284   8.760   4.969 -0.5287  0.2181 -0.7305
21425TIP3   OH265156   9.722  10.870   0.369  0.2134  0.3339  0.3493
21425TIP3    H165157   9.740  10.964   0.376  0.1726  0.4333 -0.6132
21425TIP3    H265158   9.775  10.829   0.436  0.3736  1.0353  0.6561
21426TIP3   OH265159   5.266   1.592  10.475 -0.3740 -0.5623 -0.1607
21426TIP3    H165160   5.265   1.500  10.449  1.1801 -0.3167 -1.2865
21426TIP3    H265161   5.221   1.637  10.403  1.2193 -0.2057 -0.9929
21427TIP3   OH265162   6.447  10.084   2.695  0.0659  0.0794  0.2223
21427TIP3    H165163   6.523  10.031   2.672 -0.4119 -0.2217 -0.6996
21427TIP3    H265164   6.476  10.174   2.682  0.0540 -0.0597 -0.8183
21428TIP3   OH265165   5.248   1.953   5.573  0.1799  0.2758  0.1419
21428TIP3    H165166   5.187   1.953   5.647 -0.8979  1.0685 -0.7120
21428TIP3    H265167   5.222   2.029   5.521  2.7820  1.4960  0.4534
21429TIP3   OH265168   4.196   3.135   5.966  0.5026 -0.6714  0.0409
21429TIP3    H165169   4.252   3.109   6.039 -0.1381 -1.4806  0.2635
21429TIP3    H265170   4.127   3.189   6.006  1.7274  1.3240 -0.3940
21430TIP3   OH265171   2.808   6.488  10.561 -0.6472 -0.2245  0.1784
21430TIP3    H165172   2.721   6.454  10.582 -0.5663  0.3227  1.4903
21430TIP3    H265173   2.792   6.576  10.527 -0.8055 -1.2311 -2.5872
21431TIP3   OH265174   9.495   0.627   7.984  0.5224 -0.0461 -0.3851
21431TIP3    H165175   9.460   0.655   7.899 -1.2718  0.4582  0.4665
21431TIP3    H265176   9.533   0.706   8.021 -0.0164  0.0849 -0.1059
21432TIP3   OH265177  10.508   7.557  10.860  0.4615 -0.4973 -0.1896
21432TIP3    H165178  10.489   7.463  10.867  0.7070 -0.7517 -2.3346
21432TIP3    H265179  10.423   7.600  10.868  0.3782 -0.8653  1.0523
21433TIP3   OH265180   9.274   1.740   4.853  0.1437  0.3886  0.3112
21433TIP3    H165181   9.246   1.825   4.818  0.0758  0.2643  0.0614
21433TIP3    H265182   9.221   1.676   4.806  0.4541  0.1831  0.2349
21434TIP3   OH265183   5.029  10.794   1.772  0.0992 -0.0221  0.0153
21434TIP3    H165184   4.985  10.709   1.767 -0.5911  0.1938  1.7375
21434TIP3    H265185   4.988  10.838   1.846  1.8417  1.0057  0.4320
21435TIP3   OH265186   0.601   5.894   5.590 -0.0363 -0.1034  0.9013
21435TIP3    H165187   0.642   5.969   5.635  0.6606 -1.2615  2.2945
21435TIP3    H265188   0.537   5.934   5.532  0.4936  1.5969  1.4022
21436TIP3   OH265189   0.367   6.094   6.254  0.2901 -0.6834 -0.0973
21436TIP3    H165190   0.287   6.139   6.225  0.0450  0.8202  2.5683
21436TIP3    H265191   0.337   6.011   6.290 -0.2387  0.2564  1.7060
21437TIP3   OH265192   2.560   9.406   2.268 -0.1740  1.0040 -0.3493
21437TIP3    H165193   2.526   9.410   2.358 -1.2541  1.5513 -0.7593
21437TIP3    H265194   2.486   9.432   2.214 -0.2646 -1.5226 -1.5984
21438TIP3   OH265195   8.032   4.449   5.365 -0.3072 -0.3602 -0.1181
21438TIP3    H165196   8.041   4.500   5.445 -0.2772  0.1704 -0.4512
21438TIP3    H265197   8.034   4.358   5.393 -1.3161 -0.1771  0.5996
21439TIP3   OH265198   5.774   3.729   0.699 -0.3168 -0.5178 -0.4824
21439TIP3    H165199   5.816   3.678   0.629 -2.6802  0.3092 -2.6493
21439TIP3    H265200   5.807   3.818   0.686  1.1061 -0.7740  1.0812
21440TIP3   OH265201   7.034  10.108   8.281 -0.0087  0.0373  0.0220
21440TIP3    H165202   7.099  10.099   8.210  2.1124 -3.2027  2.0988
21440TIP3    H265203   7.033  10.022   8.323 -2.2853  1.3731  3.0307
21441TIP3   OH265204   2.340   7.724   1.287  0.6997 -0.0673 -0.3049
21441TIP3    H165205   2.340   7.781   1.211  0.0421  1.4501  0.7875
21441TIP3    H265206   2.252   7.686   1.289 -0.0835  1.6628  0.9071
21442TIP3   OH265207   5.111   5.735   3.827 -0.0838 -0.1236  0.2088
21442TIP3    H165208   5.055   5.659   3.837 -1.8610  0.9843 -0.8074
21442TIP3    H265209   5.115   5.774   3.914  3.8445 -3.1986  1.7251
21443TIP3   OH265210   5.585   5.117   0.764 -0.0725 -1.0204 -0.0684
21443TIP3    H165211   5.511   5.061   0.745  0.1070 -1.5379  0.7217
21443TIP3    H265212   5.631   5.073   0.835  1.8254 -1.4884 -1.4994
21444TIP3   OH265213   8.060   3.107   8.263  0.1184  0.0107  0.0878
21444TIP3    H165214   8.011   3.164   8.323 -0.0292  1.0467 -0.9640
21444TIP3    H265215   7.995   3.044   8.232  0.4684 -1.3016  1.8796
21445TIP3   OH265216   1.940   0.835   3.226  0.5114  0.7258 -0.0827
21445TIP3    H165217   1.901   0.901   3.168 -2.2586  0.2159  1.0264
21445TIP3    H265218   1.944   0.756   3.172  0.2524  0.8647 -0.3132
21446TIP3   OH265219   1.862   6.292   4.521 -0.2380  0.4165 -0.3597
21446TIP3    H165220   1.866   6.242   4.439 -0.6605  0.3028 -0.3115
21446TIP3    H265221   1.770   6.318   4.529 -0.6787 -1.3894  1.1492
21447TIP3   OH265222   4.746   2.253   1.251 -0.0900  0.9251 -0.2231
21447TIP3    H165223   4.683   2.184   1.272 -0.6800  0.8792 -1.9662
21447TIP3    H265224   4.709   2.332   1.288 -0.7732  0.7489 -0.5190
21448TIP3   OH265225   2.157   8.711   4.430 -0.4991  1.1256  0.8135
21448TIP3    H165226   2.209   8.776   4.382  1.1911  0.1747  1.2604
21448TIP3    H265227   2.080   8.697   4.376  0.7963  0.9391 -1.0840
21449TIP3   OH265228   7.996   4.144   7.468  0.0016  0.6799  0.0642
21449TIP3    H165229   7.975   4.098   7.386 -1.3267  1.6245 -0.1667
21449TIP3    H265230   7.912   4.147   7.515  0.8137 -0.1445  1.6273
21450TIP3   OH265231   7.536   3.485   8.536  0.1686 -0.5268 -0.0258
21450TIP3    H165232   7.602   3.500   8.604  1.1405  1.1462 -1.2476
21450TIP3    H265233   7.577   3.422   8.477  0.2773 -0.2369 -0.2626
21451TIP3   OH265234   4.567   1.630   1.657 -0.2397 -0.3629  0.1732
21451TIP3    H165235   4.547   1.627   1.750 -0.8615 -0.5514  0.0390
21451TIP3    H265236   4.658   1.659   1.653 -0.4367  0.3909  0.8149
21452TIP3   OH265237   0.773   8.889   6.463 -0.1158  0.2491  0.1864
21452TIP3    H165238   0.745   8.922   6.548  0.2183 -1.9494  1.2001
21452TIP3    H265239   0.741   8.799   6.459  0.1006  0.2010 -1.9265
21453TIP3   OH265240   0.920   6.877   7.847  0.0850 -0.1593 -0.8129
21453TIP3    H165241   1.008   6.867   7.811  0.8957  3.2891 -0.1196
21453TIP3    H265242   0.926   6.839   7.935  0.6885 -0.5211 -1.0028
21454TIP3   OH265243   5.316   9.970   0.470 -0.5185 -0.1299 -0.0745
21454TIP3    H165244   5.373  10.032   0.424 -1.6792  0.6757 -0.4844
21454TIP3    H265245   5.251   9.944   0.404  0.3778 -2.4054 -0.1391
21455TIP3   OH265246   0.481   8.659  10.618  0.2685 -0.4316 -0.9004
21455TIP3    H165247   0.552   8.661  10.553  1.5376 -2.3223  0.2963
21455TIP3    H265248   0.407   8.620  10.571  1.0317 -1.3809 -1.3634
21456TIP3   OH265249   1.835  10.636   7.153  0.3271 -0.4968  0.3536
21456TIP3    H165250   1.821  10.689   7.075  0.1252 -1.8202 -0.5241
21456TIP3    H265251   1.748  10.611   7.182  0.2571  1.5390  2.1579
21457TIP3   OH265252   8.183   2.266   2.145 -0.1704  1.1024  0.5359
21457TIP3    H165253   8.225   2.286   2.061 -1.9037 -0.3396 -0.7326
21457TIP3    H265254   8.174   2.171   2.145 -0.1030  1.0616  2.4468
21458TIP3   OH265255   8.682   9.391   7.311 -0.2350 -0.2567  0.0546
21458TIP3    H165256   8.650   9.476   7.282 -1.4128 -0.3190  1.0736
21458TIP3    H265257   8.762   9.377   7.262  0.6917  2.0358  0.8138
21459TIP3   OH265258   8.167   2.416   4.564 -0.5638  0.0636  0.0472
21459TIP3    H165259   8.167   2.421   4.468 -0.1650  1.3183  0.0938
21459TIP3    H265260   8.242   2.468   4.591  0.8458 -2.2747  0.9891
21460TIP3   OH265261   8.636  10.615   6.447  0.0909 -0.1927  0.4597
21460TIP3    H165262   8.711  10.599   6.504  0.1022 -0.4339  0.3802
21460TIP3    H265263   8.652  10.701   6.408  1.0114 -0.8366 -0.6281
21461TIP3   OH265264   8.409   2.932   1.138  0.1226  0.5310 -0.4347
21461TIP3    H165265   8.405   2.836   1.143  3.4379  0.3198  0.9869
21461TIP3    H265266   8.481   2.950   1.078  0.2502  2.1163  0.1418
21462TIP3   OH265267   1.460   6.609   0.034 -0.0463  0.1727  0.4366
21462TIP3    H165268   1.394   6.540   0.023 -0.0120  0.2042  0.0358
21462TIP3    H265269   1.425   6.683  -0.016  1.0274 -0.3027 -1.0857
21463TIP3   OH265270   4.768   1.726   9.870  0.0700 -0.3192  0.4864
21463TIP3    H165271   4.744   1.769   9.952  1.3643 -0.2930  0.8701
21463TIP3    H265272   4.746   1.789   9.802 -1.3317 -0.4702  0.7546
21464TIP3   OH265273   7.745   1.533   8.413 -0.2509 -0.1774 -0.4959
21464TIP3    H165274   7.709   1.581   8.338  3.2081  1.9359 -1.0065
21464TIP3    H265275   7.784   1.455   8.374 -2.3079 -1.4283 -0.1960
21465TIP3   OH265276   6.923   9.554   2.745 -0.1073 -0.4141 -0.0034
21465TIP3    H165277   6.834   9.534   2.773 -0.7189  0.3060 -1.3203
21465TIP3    H265278   6.918   9.644   2.711  1.4341  0.1803  1.1789
21466TIP3   OH265279   3.531   5.110   9.837 -0.1281  0.1872  1.0659
21466TIP3    H165280   3.509   5.068   9.919 -0.9711 -2.5610 -0.4401
21466TIP3    H265281   3.451   5.106   9.785  0.9585 -0.1735 -0.6721
21467TIP3   OH265282   9.348   9.176   9.186  0.5934 -0.2203  0.5843
21467TIP3    H165283   9.366   9.086   9.212  1.3625  0.2406  1.7163
21467TIP3    H265284   9.419   9.227   9.225  1.8700  0.5489 -2.4147
21468TIP3   OH265285   5.993   9.357   6.408 -0.0636 -0.1458  0.0304
21468TIP3    H165286   5.923   9.330   6.350 -0.5866  1.0229  0.0811
21468TIP3    H265287   5.964   9.442   6.443  1.3190  0.3138  0.1272
21469TIP3   OH265288   6.313   8.166   7.708 -0.2493 -0.6675 -0.3248
21469TIP3    H165289   6.375   8.129   7.770 -1.3429 -0.3584  1.0047
21469TIP3    H265290   6.245   8.205   7.763 -0.0426  1.7833 -1.6568
21470TIP3   OH265291   4.710   1.803   9.249  0.0649 -0.2521  0.5616
21470TIP3    H165292   4.779   1.818   9.313  1.6749 -2.6290 -0.4830
21470TIP3    H265293   4.634   1.849   9.284  1.7536  1.2455  2.4901
21471TIP3   OH265294   5.896   5.985   2.438  0.7011 -0.0172 -0.7314
21471TIP3    H165295   5.958   5.959   2.370  2.1482  1.0255  0.1056
21471TIP3    H265296   5.880   5.905   2.488  0.3282 -0.5894 -1.7483
21472TIP3   OH265297   2.290   6.540   5.768 -1.0465  0.0755 -0.0536
21472TIP3    H165298   2.252   6.485   5.700 -1.4584  0.3752 -0.0714
21472TIP3    H265299   2.383   6.546   5.745 -1.3665  1.0575 -1.2118
21473TIP3   OH265300  10.245   1.109   0.864  0.1250 -0.1200 -0.1534
21473TIP3    H165301  10.206   1.128   0.779  2.3545 -0.2859 -1.2925
21473TIP3    H265302  10.172   1.077   0.918 -1.2762 -0.3770 -2.1036
21474TIP3   OH265303   0.823   9.455   2.308 -0.1593  0.0448 -0.0796
21474TIP3    H165304   0.845   9.383   2.367 -0.1736 -0.7733 -1.0461
21474TIP3    H265305   0.905   9.477   2.265 -0.6628 -1.3847 -1.9115
21475TIP3   OH265306  10.679   7.139   5.500  0.3527 -0.0854 -0.0416
21475TIP3    H165307  10.671   7.120   5.594 -2.3243  3.0186  0.5615
21475TIP3    H265308  10.613   7.084   5.458 -1.3146  1.3852  0.5299
21476TIP3   OH265309   6.663   0.922   2.523 -0.0633  0.4138 -0.1403
21476TIP3    H165310   6.751   0.959   2.522  0.1319 -0.0536 -0.5993
21476TIP3    H265311   6.673   0.837   2.566 -0.2335  0.2207 -0.4803
21477TIP3   OH265312  10.292   3.147  10.033  0.7273 -0.4312 -0.4666
21477TIP3    H165313  10.304   3.063   9.990  0.2516 -2.5889  3.2235
21477TIP3    H265314  10.200   3.169  10.019  0.2132 -1.8209  0.5320
21478TIP3   OH265315  10.080   3.813   7.439  0.2098  0.6495  0.2094
21478TIP3    H165316  10.157   3.860   7.471 -0.7306  0.8795  2.2080
21478TIP3    H265317  10.068   3.741   7.500  0.1806 -0.8197 -1.4246
21479TIP3   OH265318   6.293   6.408   6.957 -0.2944 -0.3429 -0.2870
21479TIP3    H165319   6.326   6.471   7.021 -0.1826  0.1232 -0.8025
21479TIP3    H265320   6.241   6.460   6.896  0.0431 -0.7013 -0.8848
21480TIP3   OH265321  10.662   2.227   8.373 -0.3153  0.3200  0.0088
21480TIP3    H165322  10.589   2.185   8.419  0.4219 -1.6106 -0.4566
21480TIP3    H265323  10.623   2.302   8.328 -1.9714 -0.5424 -0.0801
21481TIP3   OH265324   6.027   3.219   8.744  0.0310  0.0901  0.2543
21481TIP3    H165325   5.977   3.277   8.687  1.4585 -1.0870 -2.4324
21481TIP3    H265326   6.113   3.261   8.752 -0.6381  1.1126  3.1605
21482TIP3   OH265327   1.815   2.650   9.471  0.6216  0.4553  0.4942
21482TIP3    H165328   1.792   2.562   9.502 -1.9583  0.8094 -0.1487
21482TIP3    H265329   1.786   2.708   9.541  2.9891  0.8365  1.2453
21483TIP3   OH265330   7.055   5.723   1.198 -0.3920  0.3815  0.8167
21483TIP3    H165331   7.140   5.709   1.241 -0.6704  1.2175  1.6780
21483TIP3    H265332   6.992   5.681   1.257 -0.7046  0.9093  0.8657
21484TIP3   OH265333   6.750   1.308   9.318 -0.1127  0.1080  0.3241
21484TIP3    H165334   6.733   1.371   9.248 -0.9660 -0.6819 -0.2074
21484TIP3    H265335   6.771   1.227   9.273  1.3630  0.0780  1.0016
21485TIP3   OH265336   3.339   0.046   7.477  0.7835  0.8671 -0.4422
21485TIP3    H165337   3.246   0.033   7.495  0.8131  0.8509 -0.2984
21485TIP3    H265338   3.343   0.071   7.384  0.8197 -1.2567 -1.0624
21486TIP3   OH265339   0.250   6.689   1.865  0.1942 -0.0770  0.2608
21486TIP3    H165340   0.266   6.683   1.959 -1.0082 -0.0087  0.4830
21486TIP3    H265341   0.275   6.779   1.842 -0.2489  0.1467  0.6601
21487TIP3   OH265342   1.666   3.376   0.254  0.5529  0.1777 -0.0159
21487TIP3    H165343   1.723   3.443   0.214 -0.8425  2.5625  1.7081
21487TIP3    H265344   1.579   3.416   0.254 -0.3352 -1.6415  1.1599
21488TIP3   OH265345   1.067   8.619   5.378 -0.0755 -0.3127 -0.3410
21488TIP3    H165346   1.103   8.531   5.383  0.6664 -0.0358 -0.6940
21488TIP3    H265347   1.111   8.667   5.448 -1.1285 -0.4322  0.4378
21489TIP3   OH265348  10.143   3.166   1.489  0.2267 -0.6591  0.0290
21489TIP3    H165349  10.167   3.135   1.401 -3.5294  1.3699 -1.9496
21489TIP3    H265350  10.060   3.122   1.508  0.3567 -0.1123  2.0774
21490TIP3   OH265351   9.819   8.651   2.788 -0.2888 -0.2804  0.2505
21490TIP3    H165352   9.845   8.560   2.774  0.7875 -0.0513  0.6581
21490TIP3    H265353   9.792   8.654   2.880 -0.4272 -0.2188  0.2067
21491TIP3   OH265354   2.067   3.594   2.947 -0.4949  0.0697  0.0921
21491TIP3    H165355   1.992   3.535   2.937 -1.3944  0.5145  3.2296
21491TIP3    H265356   2.029   3.677   2.976  1.0676  1.0487 -0.5079
21492TIP3   OH265357   8.040   5.292   9.199  0.2618  0.4715  0.5752
21492TIP3    H165358   8.099   5.350   9.151 -0.0765 -0.2980 -0.8326
21492TIP3    H265359   7.976   5.351   9.240  0.8239  1.1853  0.4406
21493TIP3   OH265360   9.446   8.549   7.785 -0.3482 -0.2013 -0.0601
21493TIP3    H165361   9.397   8.631   7.784  1.7562  1.1709  1.2767
21493TIP3    H265362   9.415   8.504   7.863  1.1792  1.1774  1.4232
21494TIP3   OH265363   3.640   3.712   6.203 -0.2000 -0.0959 -0.4136
21494TIP3    H165364   3.709   3.662   6.159 -0.1462  1.7011 -2.5440
21494TIP3    H265365   3.602   3.767   6.134 -2.6328  0.2225  1.0689
21495TIP3   OH265366   3.447   3.734   2.718 -0.1563 -0.4773  0.7536
21495TIP3    H165367   3.493   3.762   2.797 -1.1716  0.3320  1.0829
21495TIP3    H265368   3.505   3.758   2.646 -0.1412  0.7046  1.1462
21496TIP3   OH265369   6.083   9.277   6.689 -0.2984 -0.1760 -0.1956
21496TIP3    H165370   5.993   9.282   6.723 -0.2549  1.3727 -0.2337
21496TIP3    H265371   6.072   9.265   6.595 -0.4348 -1.7142 -0.0054
21497TIP3   OH265372   2.627   6.934  10.364 -0.4673 -0.2209  0.3568
21497TIP3    H165373   2.575   7.005  10.402 -1.0397 -1.3278  1.7077
21497TIP3    H265374   2.563   6.876  10.324 -0.1296 -0.6751  0.4638
21498TIP3   OH265375   9.585   1.768   1.040 -0.4097 -0.9635  0.4648
21498TIP3    H165376   9.543   1.684   1.056  0.5797 -1.5377  0.1488
21498TIP3    H265377   9.599   1.770   0.945 -0.5576 -0.3813  0.4537
21499TIP3   OH265378   1.764   5.554   2.116 -0.0938 -0.1876  0.2100
21499TIP3    H165379   1.765   5.458   2.118  1.1002 -0.1906  0.7618
21499TIP3    H265380   1.846   5.577   2.072 -1.2372  0.5878 -1.6116
21500TIP3   OH265381   8.136   2.266  10.874 -0.2660  0.2516  0.0260
21500TIP3    H165382   8.052   2.284  10.917 -0.1999  0.4555  0.0739
21500TIP3    H265383   8.121   2.289  10.782 -1.0376 -2.1522 -0.5138
21501TIP3   OH265384   0.226   8.377   9.946 -0.2842  0.1396 -0.3813
21501TIP3    H165385   0.309   8.366   9.992 -0.2452 -0.6410 -0.6252
21501TIP3    H265386   0.250   8.414   9.861 -0.1205 -0.5787 -0.6591
21502TIP3   OH265387   6.503   6.828   8.002 -0.1347  0.0882 -0.4742
21502TIP3    H165388   6.460   6.840   7.918 -1.8533 -1.0694  0.1917
21502TIP3    H265389   6.578   6.772   7.983 -1.5010 -1.6437 -1.0187
21503TIP3   OH265390   4.575   5.230   3.523 -0.6271 -0.1089  0.2362
21503TIP3    H165391   4.554   5.169   3.453  1.6775 -1.9256  1.0204
21503TIP3    H265392   4.659   5.269   3.497 -1.7659  2.4308  0.0206
21504TIP3   OH265393   8.982   1.243   3.690  0.0934  0.1569 -0.3310
21504TIP3    H165394   9.026   1.159   3.696  1.1835  0.7738  0.6416
21504TIP3    H265395   8.902   1.231   3.742  0.1651 -0.3258 -0.3244
21505TIP3   OH265396   0.225   1.416   0.665 -0.3950 -0.5811 -0.2138
21505TIP3    H165397   0.167   1.406   0.740  0.2115  0.4897  0.4109
21505TIP3    H265398   0.254   1.507   0.668  1.7028 -1.2027 -0.2104
21506TIP3   OH265399   7.535   6.668   7.612 -0.2755 -0.0071  0.3055
21506TIP3    H165400   7.480   6.640   7.685  0.3854 -2.4662 -0.0726
21506TIP3    H265401   7.485   6.645   7.534 -1.6576  3.9390 -0.1909
21507TIP3   OH265402   9.743   1.806  10.035  0.8128 -0.0491 -0.6474
21507TIP3    H165403   9.729   1.786   9.943  1.3371 -0.9352 -0.5458
21507TIP3    H265404   9.783   1.892  10.035 -0.7892  0.7400 -1.1426
21508TIP3   OH265405   7.599   8.699   6.458 -0.4714  0.2370  0.5370
21508TIP3    H165406   7.572   8.752   6.533  3.3702  1.4180  1.2949
21508TIP3    H265407   7.590   8.609   6.487 -0.6676  0.6444  1.7941
21509TIP3   OH265408   5.050   6.860   1.699  0.2541 -0.0616 -0.4038
21509TIP3    H165409   5.090   6.829   1.618 -0.8475  0.1306 -1.0375
21509TIP3    H265410   4.965   6.816   1.702 -0.1934  0.8175  0.0696
21510TIP3   OH265411   8.968   7.459   9.836  0.1565  0.6396  0.0853
21510TIP3    H165412   8.975   7.540   9.887 -1.0891  2.0421 -1.8457
21510TIP3    H265413   8.895   7.474   9.776 -0.3790 -2.1024 -0.0781
21511TIP3   OH265414   9.709   3.823  10.585  0.2899  0.0986 -0.3096
21511TIP3    H165415   9.754   3.758  10.531  1.5937  0.5641  0.1822
21511TIP3    H265416   9.778   3.882  10.615 -0.7694  1.3637 -0.2426
21512TIP3   OH265417   3.129   0.012   9.827  0.2437  0.2144  0.2067
21512TIP3    H165418   3.113   0.106   9.841 -0.7650  0.0197  0.4916
21512TIP3    H265419   3.056  -0.016   9.772  2.1388  0.1965 -2.5025
21513TIP3   OH265420   8.239   7.418  10.218  0.1788  0.0648 -1.4935
21513TIP3    H165421   8.199   7.441  10.302 -0.0126 -2.6529 -0.7434
21513TIP3    H265422   8.189   7.467  10.153 -1.0891  0.5749 -0.1783
21514TIP3   OH265423   2.138   2.835   6.078  0.0353  0.6057 -0.1313
21514TIP3    H165424   2.054   2.790   6.081 -0.7049  1.6988 -2.2027
21514TIP3    H265425   2.191   2.782   6.018  0.2447  0.8228 -0.1394
21515TIP3   OH265426   1.471   8.020   0.359 -0.4170 -0.6454 -0.1522
21515TIP3    H165427   1.464   7.933   0.399 -0.6635  0.2513  1.9001
21515TIP3    H265428   1.562   8.027   0.333 -0.2546 -1.3014  0.2121
21516TIP3   OH265429   6.509   2.398   1.339 -0.5878  0.3483  0.3621
21516TIP3    H165430   6.512   2.303   1.337  0.6012  0.3714 -0.5412
21516TIP3    H265431   6.536   2.424   1.250 -0.7720  1.5170  0.6335
21517TIP3   OH265432   1.709   5.126   6.151  0.3373  0.0797 -0.2466
21517TIP3    H165433   1.786   5.182   6.148 -0.2281  0.8267 -1.4945
21517TIP3    H265434   1.635   5.187   6.154 -0.2696 -0.5991 -1.0194
21518TIP3   OH265435   3.061   4.996   7.823  0.1596 -0.4890 -0.2310
21518TIP3    H165436   2.968   4.994   7.802  0.3803 -4.0652 -1.7276
21518TIP3    H265437   3.102   5.041   7.749 -0.1885 -1.5229 -1.0819
21519TIP3   OH265438   8.171   5.973   7.035 -0.4959  0.0108 -0.5889
21519TIP3    H165439   8.088   5.967   7.083 -0.7610  0.4765 -0.9780
21519TIP3    H265440   8.227   6.025   7.093 -0.1352 -1.1407  0.1253
21520TIP3   OH265441   0.271   5.968   4.572 -0.0495 -0.4349 -0.0214
21520TIP3    H165442   0.266   5.960   4.667 -1.6422  0.1489 -0.0269
21520TIP3    H265443   0.275   6.062   4.555  1.3887 -0.5646 -0.5107
21521TIP3   OH265444   1.525   6.533   6.079  0.5224 -0.2804 -0.2083
21521TIP3    H165445   1.575   6.558   6.157 -0.1774  0.7185 -0.0528
21521TIP3    H265446   1.575   6.570   6.006  0.5285 -0.1381 -0.1323
21522TIP3   OH265447   3.195   3.171   9.535 -0.3760 -0.3201 -0.2276
21522TIP3    H165448   3.158   3.101   9.589 -0.3604 -0.5192 -0.4705
21522TIP3    H265449   3.150   3.162   9.451 -1.1605  0.6378  0.0658
21523TIP3   OH265450  10.597   7.008   5.732  0.6034 -0.4517 -0.6897
21523TIP3    H165451  10.524   6.993   5.671 -1.0136 -1.7505  1.4108
21523TIP3    H265452  10.618   6.921   5.765  1.1852  0.2379  0.8274
21524TIP3   OH265453  10.297   9.250   6.967 -0.3404 -0.4536 -0.4716
21524TIP3    H165454  10.336   9.196   6.898 -1.0818 -2.3742  0.5255
21524TIP3    H265455  10.247   9.188   7.020 -1.1084  1.2227  0.8619
21525TIP3   OH265456   2.474   4.375   3.840  0.2236 -0.0505 -0.1772
21525TIP3    H165457   2.441   4.287   3.856  0.5359 -0.2223 -0.4764
21525TIP3    H265458   2.560   4.376   3.881  0.9102 -0.4019 -1.5535
21526TIP3   OH265459   8.717   2.437   8.951 -0.0880 -0.1135 -0.1325
21526TIP3    H165460   8.790   2.499   8.952  0.5694 -0.8475  1.8622
21526TIP3    H265461   8.639   2.492   8.940  0.6344  0.8017 -0.8847
21527TIP3   OH265462   8.330   2.050   0.532 -0.3874  0.0005  0.6832
21527TIP3    H165463   8.403   2.111   0.536  0.9408 -1.2522 -1.7648
21527TIP3    H265464   8.365   1.967   0.563 -1.7658  0.0784  2.6170
21528TIP3   OH265465  10.836   0.051  10.359  0.2419  0.0028 -0.0121
21528TIP3    H165466  10.925   0.086  10.371  0.5029 -1.2656  2.2224
21528TIP3    H265467  10.781   0.105  10.415  0.1393 -1.1159  1.0090
21529TIP3   OH265468   4.356   5.129   6.817  0.1809  0.0095  0.0609
21529TIP3    H165469   4.324   5.218   6.832  0.3437  0.2529 -0.9621
21529TIP3    H265470   4.277   5.074   6.822  0.0654  0.2156  0.5961
21530TIP3   OH265471   2.800   0.824   7.245 -0.0068 -0.0731 -0.2749
21530TIP3    H165472   2.706   0.841   7.249 -0.0212  0.0871 -1.1910
21530TIP3    H265473   2.808   0.738   7.205  0.1178 -2.0053  3.4432
21531TIP3   OH265474   6.313   3.010   8.299 -0.2958 -0.4369  0.1599
21531TIP3    H165475   6.339   3.003   8.391 -1.0137  0.9784  0.5164
21531TIP3    H265476   6.217   3.005   8.302 -0.3604  0.2658 -0.4187
21532TIP3   OH265477   6.856   9.974  10.581  0.0127 -0.0947  0.1113
21532TIP3    H165478   6.909   9.894  10.589  0.3579  0.2322  1.2321
21532TIP3    H265479   6.919  10.043  10.560 -0.0289  0.2038  0.9505
21533TIP3   OH265480   8.441   3.903   2.922 -0.4406  0.7139 -0.2691
21533TIP3    H165481   8.532   3.925   2.941 -0.8866  0.4631  2.6445
21533TIP3    H265482   8.391   3.972   2.964 -1.6120  0.2144 -0.8077
21534TIP3   OH265483   5.314   7.578   7.771  0.5294  0.2059 -0.1668
21534TIP3    H165484   5.295   7.604   7.860  0.7659 -1.0484  0.2759
21534TIP3    H265485   5.229   7.557   7.733  0.5825 -1.0086  0.3552
21535TIP3   OH265486   4.921  10.575   9.465 -0.1609  0.9209 -0.1133
21535TIP3    H165487   4.834  10.552   9.434 -0.5291  0.5141  1.1644
21535TIP3    H265488   4.951  10.498   9.513  0.1107  1.7242  1.0528
21536TIP3   OH265489   9.478   8.167   8.195  0.1729 -0.0894 -0.4416
21536TIP3    H165490   9.459   8.079   8.162 -0.5688  0.5336 -1.7441
21536TIP3    H265491   9.561   8.191   8.154  0.3837 -0.1849 -0.0740
21537TIP3   OH265492   0.568   3.582   4.692 -0.6708 -0.7089  0.0948
21537TIP3    H165493   0.532   3.668   4.667  1.9975  0.6576  0.5996
21537TIP3    H265494   0.580   3.588   4.786  0.0465 -1.4512  0.0601
21538TIP3   OH265495   7.749   0.708   0.694 -0.2102  0.3652  0.3872
21538TIP3    H165496   7.662   0.669   0.698 -0.2510  0.5231  1.1642
21538TIP3    H265497   7.741   0.791   0.741  0.3296  0.4353  0.3608
21539TIP3   OH265498   3.256   4.897   4.383  0.6732 -0.1361  0.1202
21539TIP3    H165499   3.294   4.871   4.467 -0.6128 -0.7149  0.5567
21539TIP3    H265500   3.164   4.914   4.403 -0.0081 -1.6885 -1.4385
21540TIP3   OH265501   2.189   1.932  10.486  0.4156  0.0771  0.2116
21540TIP3    H165502   2.282   1.914  10.504  0.1291 -1.1358  0.5801
21540TIP3    H265503   2.142   1.880  10.552 -0.5552 -0.5473 -0.9486
21541TIP3   OH265504   9.538   6.151   5.569  0.1149  0.2678 -0.0041
21541TIP3    H165505   9.506   6.066   5.537  0.6849 -1.1712  2.9479
21541TIP3    H265506   9.622   6.163   5.524  0.7364 -1.5115  0.5824
21542TIP3   OH265507   5.411   4.217   5.831 -0.5355  0.4725  0.1486
21542TIP3    H165508   5.340   4.167   5.791 -0.7951 -0.2440  1.4337
21542TIP3    H265509   5.456   4.259   5.757 -0.8208 -0.9977 -0.9047
21543TIP3   OH265510   0.503   6.049  10.234  0.0996 -0.0612  0.5819
21543TIP3    H165511   0.496   5.975  10.294  0.8752  1.2218  2.3551
21543TIP3    H265512   0.526   6.010  10.150 -1.4952 -1.9696  0.9635
21544TIP3   OH265513   2.902   2.574   6.307  0.2732  0.0475 -0.3500
21544TIP3    H165514   2.969   2.628   6.349 -0.9088  2.3689 -1.2249
21544TIP3    H265515   2.825   2.631   6.303 -1.3745 -2.0702 -0.5326
21545TIP3   OH265516   9.852   8.242   2.307  0.6025 -0.0701  0.7408
21545TIP3    H165517   9.819   8.256   2.219  1.4261  0.8002  0.5571
21545TIP3    H265518   9.869   8.148   2.312  0.8836 -0.0686 -0.1420
21546TIP3   OH265519   5.053   2.142   0.815  0.1951  0.3068 -0.0753
21546TIP3    H165520   5.064   2.235   0.796  3.0734 -0.1375 -1.1602
21546TIP3    H265521   4.983   2.114   0.755 -0.9095  1.7666  0.4646
21547TIP3   OH265522   4.150   4.309   3.850 -0.4986 -0.7455  0.1850
21547TIP3    H165523   4.243   4.288   3.858 -0.3976 -0.9780 -1.3216
21547TIP3    H265524   4.126   4.280   3.761 -1.4991  1.1734 -0.2216
21548TIP3   OH265525   9.946   2.303   1.577  0.2822 -0.1446  0.0427
21548TIP3    H165526   9.868   2.274   1.530  0.0122  1.2128 -0.3919
21548TIP3    H265527   9.991   2.362   1.516  3.0519 -2.8120 -0.7364
21549TIP3   OH265528  10.899   9.580   8.912  0.1317 -0.1912  0.2949
21549TIP3    H165529  10.933   9.513   8.853 -0.6281  0.2479 -0.6677
21549TIP3    H265530  10.860   9.531   8.984 -1.6901 -0.9012 -1.0787
21550TIP3   OH265531   6.832   5.661   7.556 -0.3832 -0.1492 -0.4582
21550TIP3    H165532   6.843   5.579   7.604 -2.0877 -0.9824 -1.3907
21550TIP3    H265533   6.860   5.640   7.467  1.5798  1.0396 -0.1941
21551TIP3   OH265534   5.386   4.041   8.988 -0.0592 -0.1366 -0.1413
21551TIP3    H165535   5.315   3.981   8.965  0.9627 -2.2593  1.8277
21551TIP3    H265536   5.343   4.127   8.995 -2.6495 -1.4308  1.7251
21552TIP3   OH265537   2.788   2.051   3.076 -0.1890  0.4898  0.0675
21552TIP3    H165538   2.876   2.017   3.094 -0.6460 -0.3304  0.8243
21552TIP3    H265539   2.771   2.110   3.150 -1.0108 -0.8264  0.9753
21553TIP3   OH265540   1.974   5.196  10.852 -0.2405 -0.5895 -0.3783
21553TIP3    H165541   1.907   5.215  10.918  1.4724  1.1370  0.9839
21553TIP3    H265542   2.057   5.204  10.899  0.9919 -1.9364 -2.1779
21554TIP3   OH265543   5.083   7.744   6.894 -0.0048  0.0178  0.5904
21554TIP3    H165544   5.022   7.818   6.897 -0.2010 -0.1732  2.6568
21554TIP3    H265545   5.150   7.772   6.831 -1.8228  0.4920 -1.2606
21555TIP3   OH265546  10.087   6.312   9.933 -0.0227 -0.3332  0.0710
21555TIP3    H165547  10.103   6.354  10.017  1.6777 -0.8292  0.0272
21555TIP3    H265548  10.073   6.220   9.955 -0.6037 -0.2903 -0.1079
21556TIP3   OH265549   6.234   1.694   3.658  0.8258 -0.1874  0.2704
21556TIP3    H165550   6.313   1.735   3.693  0.8871  0.0324 -0.1184
21556TIP3    H265551   6.200   1.758   3.595  2.2408 -1.7085 -2.1642
21557TIP3   OH265552   2.984   3.530   8.407  0.6470 -0.2100 -0.5893
21557TIP3    H165553   2.953   3.551   8.495  1.1947 -2.0868  0.1003
21557TIP3    H265554   2.920   3.468   8.373  0.3554  0.6236 -1.5898
21558TIP3   OH265555   2.296   8.600   6.232  0.3365 -0.1226  0.3364
21558TIP3    H165556   2.355   8.562   6.167  0.2479 -0.2969  0.3569
21558TIP3    H265557   2.328   8.567   6.316  1.7418  1.7566  0.6076
21559TIP3   OH265558  10.379   5.982   0.014  0.0137 -0.5006 -0.2700
21559TIP3    H165559  10.372   5.896   0.056 -1.8528 -0.4868 -0.4540
21559TIP3    H265560  10.427   5.965  -0.067  0.8797 -1.0933  0.3436
21560TIP3   OH265561   4.838   0.345   9.909 -0.6387 -0.3541  0.0933
21560TIP3    H165562   4.792   0.399   9.974 -0.3703 -0.8012  0.6620
21560TIP3    H265563   4.769   0.296   9.865 -0.6645 -1.6958  1.5594
21561TIP3   OH265564   9.746   9.527   6.036  0.1580 -0.4252  0.4909
21561TIP3    H165565   9.813   9.551   5.972  0.4982  0.5570  1.1889
21561TIP3    H265566   9.784   9.552   6.120 -1.0523  0.0638  0.9086
21562TIP3   OH265567   6.272   4.888   7.725 -0.1251  0.1644  0.1061
21562TIP3    H165568   6.362   4.866   7.748 -0.4653 -2.2879 -0.5506
21562TIP3    H265569   6.275   4.978   7.694  1.6996  0.8561  2.1040
21563TIP3   OH265570   7.918   5.972   5.651  0.3481 -0.6095 -0.0798
21563TIP3    H165571   7.963   6.057   5.654  1.1887 -0.9369 -1.9244
21563TIP3    H265572   7.983   5.908   5.678 -0.3895 -0.6746  1.6555
21564TIP3   OH265573   0.211   1.261   1.684 -0.1193  0.1282  0.1077
21564TIP3    H165574   0.189   1.354   1.685 -1.6870 -0.1961  2.0001
21564TIP3    H265575   0.307   1.260   1.686 -0.0386  1.6719 -1.0964
21565TIP3   OH265576   9.048  10.010   4.029  0.3825  0.4234 -0.1692
21565TIP3    H165577   9.047  10.095   4.071 -1.0756  0.1673  0.3703
21565TIP3    H265578   9.136  10.003   3.989  0.7997  1.8044  0.4732
21566TIP3   OH265579   1.794   0.697   9.711  0.3553  0.1223 -0.0912
21566TIP3    H165580   1.859   0.758   9.747  0.9177 -1.1818  1.2137
21566TIP3    H265581   1.742   0.750   9.651  1.5829  1.5933  0.0836
21567TIP3   OH265582   0.952   8.749   1.475  0.6205 -0.2253 -0.0995
21567TIP3    H165583   0.997   8.692   1.538  1.0623  2.4004  2.1710
21567TIP3    H265584   1.003   8.830   1.475 -0.5440  0.6070 -2.3738
21568TIP3   OH265585   3.642   1.866   3.035  0.0463  0.0816  0.1953
21568TIP3    H165586   3.643   1.885   2.941 -0.7825 -2.8311 -0.4793
21568TIP3    H265587   3.559   1.903   3.066 -0.5313 -0.5148 -0.6080
21569TIP3   OH265588   7.583   7.771   7.733 -0.3497 -0.1408  0.1272
21569TIP3    H165589   7.606   7.821   7.654 -0.9544 -0.8482 -0.5125
21569TIP3    H265590   7.549   7.837   7.794 -0.2888  0.3547 -0.3629
21570TIP3   OH265591   9.429   8.484   4.842  0.2036  0.4059 -0.0548
21570TIP3    H165592   9.448   8.573   4.872  0.5696  0.6375 -0.9390
21570TIP3    H265593   9.388   8.496   4.756  0.5733 -0.2902 -0.3360
21571TIP3   OH265594   3.312   4.534   0.306 -0.1224  0.2812 -0.5853
21571TIP3    H165595   3.265   4.470   0.358  1.5614 -0.2735  0.3125
21571TIP3    H265596   3.365   4.583   0.369 -0.3351  1.6504 -1.4196
21572TIP3   OH265597   8.434   7.241   8.746  0.1373  0.0676 -0.1301
21572TIP3    H165598   8.388   7.276   8.670 -1.3416 -0.3572  0.5278
21572TIP3    H265599   8.457   7.151   8.722 -1.9868 -0.7154  0.5367
21573TIP3   OH265600   2.837  10.398   8.991 -0.0512  0.2464 -0.5036
21573TIP3    H165601   2.902  10.468   8.997  0.5717 -0.0925 -2.4950
21573TIP3    H265602   2.780  10.411   9.067  0.2687  2.6578 -0.5992
21574TIP3   OH265603   8.299   5.211   9.967 -0.1698  0.1931 -0.5219
21574TIP3    H165604   8.370   5.154   9.938 -0.2531  0.3717 -1.0848
21574TIP3    H265605   8.258   5.242   9.886 -0.2679  0.8713 -0.2217
21575TIP3   OH265606   7.151   4.576   9.120  0.2719  0.0969 -0.5490
21575TIP3    H165607   7.230   4.610   9.161 -0.7323  2.4706 -0.4548
21575TIP3    H265608   7.163   4.595   9.027  0.3808 -0.7640 -0.7174
21576TIP3   OH265609   2.617   5.518  10.214  0.6062 -0.7630 -0.0057
21576TIP3    H165610   2.631   5.439  10.266  1.6002 -0.8182 -0.3362
21576TIP3    H265611   2.550   5.567  10.262  1.3960 -0.8754  1.2555
21577TIP3   OH265612   0.143   7.828   0.504 -0.3009 -0.6642  0.0380
21577TIP3    H165613   0.094   7.910   0.500  1.7913  0.6639  0.0698
21577TIP3    H265614   0.189   7.824   0.419 -0.8830 -2.1622 -0.2346
21578TIP3   OH265615   8.992   3.571   8.199  0.8673  0.0953 -0.1182
21578TIP3    H165616   9.011   3.602   8.110  2.5906 -1.2923 -0.3001
21578TIP3    H265617   8.959   3.482   8.186  1.5516 -0.2809  0.6218
21579TIP3   OH265618   9.477   5.772   7.345  0.4958 -0.0567  0.5445
21579TIP3    H165619   9.460   5.854   7.298  0.6195  0.0956  0.7651
21579TIP3    H265620   9.525   5.718   7.282  1.3277  0.4343  0.7505
21580TIP3   OH265621   5.845   4.181   7.648 -0.1068 -0.5497 -0.1972
21580TIP3    H165622   5.801   4.192   7.564 -0.4171  2.5901  0.2832
21580TIP3    H265623   5.866   4.087   7.651 -1.3929 -1.0483 -3.0741
21581TIP3   OH265624   9.441  10.861   4.971 -0.3009 -0.0553 -0.8238
21581TIP3    H165625   9.378  10.928   4.945  1.1932  1.1741 -1.4248
21581TIP3    H265626   9.390  10.798   5.022 -2.0512  0.7336 -1.5405
21582TIP3   OH265627   7.133   2.170   6.974 -0.0616  0.4194  0.1028
21582TIP3    H165628   7.039   2.181   6.990  0.0684  1.1921  0.4123
21582TIP3    H265629   7.175   2.227   7.039  0.6180  0.1925 -0.1251
21583TIP3   OH265630   4.126   1.735   5.358 -0.2881  0.1056  0.5053
21583TIP3    H165631   4.046   1.776   5.325 -1.6211  0.8165  4.1210
21583TIP3    H265632   4.098   1.651   5.393  0.8050 -0.1943  0.7122
21584TIP3   OH265633   4.927   0.357   2.749 -0.1395  0.0600  0.3251
21584TIP3    H165634   4.867   0.283   2.738  0.3577 -0.3908  0.5866
21584TIP3    H265635   5.008   0.317   2.781  0.8862  0.4391 -1.6457
21585TIP3   OH265636   7.765   3.177  10.285  0.4329 -0.3251 -0.2192
21585TIP3    H165637   7.812   3.095  10.302  1.3266 -0.0112 -1.0615
21585TIP3    H265638   7.688   3.151  10.236  0.0965 -0.7768  0.5312
21586TIP3   OH265639   9.876   8.555   6.483 -0.0271  0.4725  0.1207
21586TIP3    H165640   9.965   8.541   6.449  0.2022 -0.3622  0.9997
21586TIP3    H265641   9.821   8.497   6.430 -0.5235  2.9235 -2.2253
21587TIP3   OH265642   9.209   9.251   7.752  0.4156  0.2639 -0.1053
21587TIP3    H165643   9.293   9.225   7.713  0.1089  1.0055 -1.2870
21587TIP3    H265644   9.189   9.336   7.713 -1.0161 -0.0144 -0.0214
21588TIP3   OH265645   1.915   3.303   5.062  0.7438 -0.3611  0.3656
21588TIP3    H165646   1.984   3.368   5.046  0.5946  0.6678  3.3561
21588TIP3    H265647   1.853   3.317   4.991  2.4574  0.2890 -1.0917
21589TIP3   OH265648   6.006   6.662   6.666  0.2634  0.8025  0.2766
21589TIP3    H165649   6.043   6.720   6.599  0.4797 -0.3153 -0.5958
21589TIP3    H265650   6.007   6.715   6.746 -1.1797  2.6248 -0.8222
21590TIP3   OH265651   3.315   2.520   6.909  0.5517 -0.1461 -0.3999
21590TIP3    H165652   3.282   2.432   6.925  0.1622 -0.1681 -1.2480
21590TIP3    H265653   3.237   2.573   6.895  0.7980  0.2687 -0.2481
21591TIP3   OH265654   3.006   1.047   4.859 -0.6218  0.0025  0.4224
21591TIP3    H165655   2.933   1.102   4.832  1.5456  2.2265 -1.3131
21591TIP3    H265656   3.014   0.981   4.790 -0.7052  0.0442  0.3743
21592TIP3   OH265657   1.368  10.901   6.893  0.3032 -0.1507 -0.3023
21592TIP3    H165658   1.428  10.966   6.929  0.2677 -0.5584  0.5011
21592TIP3    H265659   1.425  10.834   6.855  0.3476 -0.2406 -0.0749
21593TIP3   OH265660   5.477   5.039   6.763  0.4478  0.4375 -0.4851
21593TIP3    H165661   5.548   5.019   6.825 -0.4815  0.5281  0.6491
21593TIP3    H265662   5.467   5.134   6.768 -1.2938  0.2150  1.1668
21594TIP3   OH265663   6.262   5.493   7.864 -0.1739 -0.3530 -0.3873
21594TIP3    H165664   6.261   5.534   7.778  0.1566 -0.1972 -0.3179
21594TIP3    H265665   6.181   5.443   7.868  0.0297 -0.7382 -0.9740
21595TIP3   OH265666   4.295   1.922   2.972  0.5704 -0.8700  0.2286
21595TIP3    H165667   4.359   1.992   2.983  0.6348 -0.4363 -2.1728
21595TIP3    H265668   4.218   1.965   2.936  0.4522 -1.9150 -0.8594
21596TIP3   OH265669   0.607   6.919   1.915 -0.0033 -0.0325 -0.5076
21596TIP3    H165670   0.624   6.831   1.881  1.1115 -0.3885  0.8986
21596TIP3    H265671   0.512   6.931   1.904  0.1393 -0.5365 -2.6622
21597TIP3   OH265672  10.525   9.389   5.383 -0.1149  0.2346  0.2695
21597TIP3    H165673  10.548   9.301   5.412  0.3459 -0.3493 -1.7650
21597TIP3    H265674  10.563   9.447   5.449  5.4565 -0.7321 -1.5880
21598TIP3   OH265675   0.935   7.945   9.152  0.2634  0.8758  0.0309
21598TIP3    H165676   0.924   7.989   9.067 -0.0378  0.6380 -0.0538
21598TIP3    H265677   0.846   7.937   9.186  0.0384 -1.5818 -0.9137
21599TIP3   OH265678   3.231   1.857  10.826  0.0337  0.1014 -0.0254
21599TIP3    H165679   3.263   1.779  10.780  0.8968 -0.3711  1.3097
21599TIP3    H265680   3.142   1.835  10.851  0.3896 -0.6181  0.6519
21600TIP3   OH265681   8.399   8.806   9.467  0.0277  0.1598 -0.2112
21600TIP3    H165682   8.436   8.882   9.420 -0.1654  0.4718  0.1358
21600TIP3    H265683   8.306   8.809   9.447  0.1941 -0.7038 -1.1915
21601TIP3   OH265684   3.954   5.076   6.847 -0.5555  0.1174  0.2658
21601TIP3    H165685   4.029   5.043   6.798 -0.7819 -1.3952  0.8777
21601TIP3    H265686   3.923   5.151   6.796  0.6815  0.0701 -0.5902
21602TIP3   OH265687  10.209   2.360   2.393  0.4836 -0.0614 -0.2065
21602TIP3    H165688  10.128   2.325   2.355  0.7967 -1.0597  0.0197
21602TIP3    H265689  10.214   2.319   2.479  0.1092  1.6926  0.6920
21603TIP3   OH265690  10.509   3.652   4.684  0.5342  0.0480 -0.2003
21603TIP3    H165691  10.457   3.723   4.645  0.9954  0.1163 -0.7154
21603TIP3    H265692  10.448   3.604   4.739  0.3921  1.3167  0.7847
21604TIP3   OH265693   3.413   7.794   8.752 -0.2399 -0.6411 -0.5084
21604TIP3    H165694   3.383   7.880   8.724  1.2821 -0.3954 -1.4792
21604TIP3    H265695   3.418   7.743   8.672  1.4018 -0.8073 -0.3261
21605TIP3   OH265696   0.278   0.698   3.629  0.5424 -1.0295 -0.6239
21605TIP3    H165697   0.319   0.719   3.545 -2.2644  1.3049 -1.6081
21605TIP3    H265698   0.201   0.646   3.605  0.0190 -0.8283  0.5583
21606TIP3   OH265699   9.215   0.820   2.716  0.5380  0.4610 -0.9833
21606TIP3    H165700   9.213   0.915   2.706 -3.0274  0.6803  0.2640
21606TIP3    H265701   9.262   0.806   2.798  3.2927  0.8353 -2.3775
21607TIP3   OH265702   2.976   1.766   8.801  0.4472 -0.0909  0.0838
21607TIP3    H165703   2.902   1.708   8.817  0.4398  0.3165  1.7358
21607TIP3    H265704   3.037   1.746   8.872  1.4497  0.3187 -0.6489
21608TIP3   OH265705   1.712   1.233  10.257  0.3150  0.2274  0.3814
21608TIP3    H165706   1.639   1.175  10.236 -1.0294  2.0088 -0.2014
21608TIP3    H265707   1.707   1.245  10.352  0.9961 -1.0736  0.5915
21609TIP3   OH265708   2.126   7.952   0.715  0.1495 -0.4043  0.7526
21609TIP3    H165709   2.170   8.009   0.653  1.6840 -1.7408  0.5408
21609TIP3    H265710   2.174   7.869   0.709 -2.7028 -2.1450  0.1450
21610TIP3   OH265711  10.659   9.047   8.957  0.0039  0.1294  0.2500
21610TIP3    H165712  10.589   9.023   9.018  1.5504 -2.1863  1.2646
21610TIP3    H265713  10.730   9.078   9.014 -0.4735  3.5316 -0.8217
21611TIP3   OH265714   6.319   8.813   1.907 -0.5860  0.0594  0.3257
21611TIP3    H165715   6.328   8.752   1.980  0.1373  1.2176  1.2521
21611TIP3    H265716   6.253   8.876   1.936 -0.8829  0.0787 -0.3598
21612TIP3   OH265717   9.745   6.776   8.616  0.1253  0.3536  0.0920
21612TIP3    H165718   9.705   6.690   8.602 -1.3418  1.0393 -0.0227
21612TIP3    H265719   9.805   6.786   8.542 -1.3243  0.3459 -1.1194
21613TIP3   OH265720   3.020   4.233   4.424  0.0738 -0.7265 -0.0481
21613TIP3    H165721   3.038   4.326   4.427  1.8091 -1.0324  0.1131
21613TIP3    H265722   2.924   4.226   4.425 -0.0821  0.9445  2.2921
21614TIP3   OH265723   2.516   6.820   9.822  0.4713  0.4624 -0.1175
21614TIP3    H165724   2.461   6.849   9.895 -0.1562 -0.2387 -0.2998
21614TIP3    H265725   2.495   6.727   9.812 -0.0588  0.7235 -1.6947
21615TIP3   OH265726  10.856   6.611   6.064  0.8906  0.0629  0.3835
21615TIP3    H165727  10.866   6.567   6.149  0.7303  0.1679  0.4583
21615TIP3    H265728  10.789   6.677   6.080  1.7475  0.9265  0.4957
21616TIP3   OH265729   2.251  10.641  10.785 -0.3542  0.1644 -0.1778
21616TIP3    H165730   2.181  10.577  10.790  0.7362 -1.0808 -0.3257
21616TIP3    H265731   2.312  10.606  10.720 -0.0320  1.6689 -0.7381
21617TIP3   OH265732   0.403   8.321   3.521  0.4540  0.1459 -0.7164
21617TIP3    H165733   0.333   8.385   3.504  1.4439  0.7656 -2.8472
21617TIP3    H265734   0.359   8.236   3.518 -0.1591  0.4822 -2.7514
21618TIP3   OH265735   1.046   1.456   3.189  0.2771 -0.2811  0.1380
21618TIP3    H165736   1.127   1.406   3.188 -0.4667 -1.5244 -1.5589
21618TIP3    H265737   1.069   1.541   3.151  1.0114 -0.1803  0.7881
21619TIP3   OH265738  10.067   6.516   0.474 -0.1767  0.1842 -1.0481
21619TIP3    H165739  10.048   6.452   0.542 -0.9003  0.0697 -1.3595
21619TIP3    H265740  10.001   6.502   0.407 -0.9094  1.8224 -0.7373
21620TIP3   OH265741   7.909   7.722  10.121  1.1121 -0.3446  0.1521
21620TIP3    H165742   7.891   7.749  10.211  0.9951 -0.1133  0.0600
21620TIP3    H265743   7.854   7.778  10.067  0.4746 -1.1285 -0.0198
21621TIP3   OH265744   5.792   3.129   8.227  0.6912 -0.0930  0.1109
21621TIP3    H165745   5.829   3.150   8.141  0.5043  0.7395  0.2230
21621TIP3    H265746   5.704   3.095   8.207  0.0325  1.5504  0.0176
21622TIP3   OH265747   3.796   2.914   0.722  0.7444  0.3759  0.4886
21622TIP3    H165748   3.792   2.840   0.661  3.4007  0.7915 -0.3161
21622TIP3    H265749   3.793   2.873   0.809  1.6603 -0.6694  0.0500
21623TIP3   OH265750   3.679   6.999   3.473  0.5395 -0.3542  0.0464
21623TIP3    H165751   3.621   6.951   3.414 -0.1606  1.1173 -0.5025
21623TIP3    H265752   3.741   6.933   3.504  0.3361 -1.3687 -1.5814
21624TIP3   OH265753   9.851   3.012  10.523  0.3007 -0.2877 -0.2622
21624TIP3    H165754   9.761   3.015  10.491 -0.3364  0.6016  1.4568
21624TIP3    H265755   9.845   2.970  10.609  1.8499 -2.0919 -0.9587
21625TIP3   OH265756   7.915   9.655   8.615  0.4617  0.1776 -0.2905
21625TIP3    H165757   7.834   9.692   8.651  0.7478  1.1019 -0.5560
21625TIP3    H265758   7.888   9.572   8.577 -0.3932  0.5302 -0.4982
21626TIP3   OH265759   2.080   3.679   3.569  0.1001  0.4109  0.0407
21626TIP3    H165760   2.140   3.605   3.583 -0.3547 -0.0908 -0.6100
21626TIP3    H265761   2.007   3.642   3.519  1.0902  1.8092 -2.6772
21627TIP3   OH265762   9.782   0.238   3.926 -0.1689 -0.2261  0.9187
21627TIP3    H165763   9.786   0.144   3.938  0.2180 -0.3172  0.1277
21627TIP3    H265764   9.872   0.265   3.912 -0.4158  0.0580 -0.2591
21628TIP3   OH265765   0.991   9.159   6.038  0.4730  0.5294 -0.2323
21628TIP3    H165766   0.931   9.122   5.974  1.1234  1.1039 -1.1952
21628TIP3    H265767   0.970   9.114   6.120 -1.9601  1.4426 -0.2784
21629TIP3   OH265768   4.619   5.583   4.073 -0.2844  0.1230 -0.5251
21629TIP3    H165769   4.663   5.662   4.105  0.8795 -0.6099 -0.2637
21629TIP3    H265770   4.687   5.533   4.029 -1.0553 -0.6548 -0.8812
21630TIP3   OH265771   2.653   5.188   9.531  0.0997  0.6602 -0.1464
21630TIP3    H165772   2.677   5.194   9.439  0.2240  2.8147 -0.0267
21630TIP3    H265773   2.602   5.267   9.548  0.2504  0.4212  1.6801
21631TIP3   OH265774   0.764   4.438   8.342  0.3342  0.0396  0.1622
21631TIP3    H165775   0.715   4.358   8.323 -1.2086  1.3508 -1.7680
21631TIP3    H265776   0.709   4.486   8.403  1.1290 -0.2266  1.1027
21632TIP3   OH265777   0.617  10.244   0.517  0.7924 -0.3716 -0.4673
21632TIP3    H165778   0.646  10.173   0.459  0.3989 -1.8193  1.0508
21632TIP3    H265779   0.680  10.245   0.588 -0.8295 -1.1919  1.0461
21633TIP3   OH265780   9.558   2.467   5.520 -0.1034  0.2403 -0.3315
21633TIP3    H165781   9.508   2.459   5.601  1.5799  0.5899  0.7995
21633TIP3    H265782   9.574   2.377   5.492 -1.9154  0.1178 -1.1260
21634TIP3   OH265783   1.797   7.194   6.050 -0.5886 -0.3909 -0.2910
21634TIP3    H165784   1.784   7.101   6.069 -0.3970 -0.2407  0.6034
21634TIP3    H265785   1.891   7.207   6.063 -0.7788  0.1457  0.5678
21635TIP3   OH265786   5.835   7.846   9.349  0.5798  0.4083  0.2397
21635TIP3    H165787   5.798   7.761   9.372  0.6384 -0.1083 -1.4242
21635TIP3    H265788   5.925   7.842   9.381  0.6893 -0.3028 -0.1248
21636TIP3   OH265789   2.236   2.952   8.983  0.0892 -0.0113 -0.1635
21636TIP3    H165790   2.209   3.015   8.916 -1.5197  1.0139  1.3757
21636TIP3    H265791   2.178   2.877   8.970  0.8115 -0.4657 -0.8614
21637TIP3   OH265792   5.644   8.462   1.329  0.1970 -0.0665  0.0844
21637TIP3    H165793   5.617   8.371   1.331 -0.3353  0.0724 -0.4574
21637TIP3    H265794   5.582   8.504   1.269  1.3250  0.3522 -0.8122
21638TIP3   OH265795   6.253   9.173   4.652 -0.3531 -0.5000  0.1606
21638TIP3    H165796   6.216   9.100   4.702 -1.2726  0.3571  0.7590
21638TIP3    H265797   6.338   9.141   4.623 -0.4431 -1.5666  1.0058
21639TIP3   OH265798   3.225   5.845   4.643 -0.7285 -0.5426 -0.2750
21639TIP3    H165799   3.285   5.890   4.583 -0.1763 -1.6474 -0.5687
21639TIP3    H265800   3.204   5.763   4.600 -3.7292  0.4192 -0.9315
21640TIP3   OH265801   2.235   9.522   2.792 -0.5192 -0.2630  0.1987
21640TIP3    H165802   2.199   9.590   2.735  0.8139  0.2514 -0.0661
21640TIP3    H265803   2.282   9.570   2.860 -0.4105 -0.9149  0.5903
21641TIP3   OH265804   8.743   6.918   1.571 -0.8317 -0.2304 -0.2400
21641TIP3    H165805   8.721   6.865   1.648  2.1042  0.2450  1.0819
21641TIP3    H265806   8.677   6.987   1.570 -0.6563  0.0883  2.2815
21642TIP3   OH265807   7.636  10.578   1.436  0.1827  0.0783 -0.0079
21642TIP3    H165808   7.726  10.566   1.405  0.3396  0.7213  0.1779
21642TIP3    H265809   7.588  10.609   1.360  0.0431 -0.5768 -0.1888
21643TIP3   OH265810   3.875   7.140   6.521 -0.1098 -0.3090 -0.6316
21643TIP3    H165811   3.780   7.145   6.528 -0.1025 -1.5405  0.8539
21643TIP3    H265812   3.901   7.227   6.490 -1.6421  0.3363 -0.2126
21644TIP3   OH265813   1.176   9.934   1.901 -0.1772  0.2377  0.3108
21644TIP3    H165814   1.090   9.976   1.909 -0.8677 -0.8969 -0.7768
21644TIP3    H265815   1.180   9.904   1.811  1.2824  0.0603  0.4141
21645TIP3   OH265816   6.191   5.452   0.762  0.2800  0.2754 -0.2332
21645TIP3    H165817   6.236   5.389   0.818  0.4441  0.3785 -0.2471
21645TIP3    H265818   6.258   5.481   0.700 -0.3198 -1.1027 -1.5929
21646TIP3   OH265819   4.859  10.251   1.932  0.7107  0.1183  0.0488
21646TIP3    H165820   4.883  10.169   1.975  0.7320 -1.5366 -2.8587
21646TIP3    H265821   4.783  10.283   1.982 -0.5805 -2.7575  0.1498
21647TIP3   OH265822   9.170   2.063  10.848  0.0751  0.1758  0.1884
21647TIP3    H165823   9.160   1.969  10.858 -1.9325  0.3270  0.0164
21647TIP3    H265824   9.131   2.082  10.762 -0.8403  1.3023  0.8095
21648TIP3   OH265825   1.123   7.956   8.418 -0.1386 -0.0133 -0.1996
21648TIP3    H165826   1.074   8.021   8.468 -0.2857 -0.3727  0.1340
21648TIP3    H265827   1.146   7.889   8.483  0.7503  0.1220 -0.3587
21649TIP3   OH265828   3.783   8.848   3.359  0.3126 -0.2121  0.6409
21649TIP3    H165829   3.696   8.879   3.331 -1.3853 -2.3595  3.0505
21649TIP3    H265830   3.773   8.830   3.452  4.1405  1.7028  1.6273
21650TIP3   OH265831   3.860   2.249   2.796 -0.5552  0.2761  0.3059
21650TIP3    H165832   3.885   2.305   2.723 -0.2663 -0.8237 -0.4552
21650TIP3    H265833   3.766   2.263   2.806 -0.1019  2.9563  1.9342
21651TIP3   OH265834   7.961  10.455   9.995  0.7215  0.1302  0.3281
21651TIP3    H165835   8.012  10.460   9.914  1.5488  0.3300  0.8517
21651TIP3    H265836   8.004  10.388  10.047  0.5335  0.3989  0.8399
21652TIP3   OH265837   6.674   2.199  10.563 -0.4320  0.1972 -0.0903
21652TIP3    H165838   6.644   2.255  10.635 -0.8909  1.8573 -1.4857
21652TIP3    H265839   6.738   2.140  10.603  0.3046  1.9296  1.4350
21653TIP3   OH265840   9.660   7.024   5.574  0.3855  0.4714  0.3050
21653TIP3    H165841   9.751   7.053   5.585  0.9781 -0.5866 -1.3446
21653TIP3    H265842   9.647   7.026   5.479 -0.8452 -0.7664  0.4285
21654TIP3   OH265843   1.814  10.394   4.480  0.2479  0.4211  0.4005
21654TIP3    H165844   1.881  10.461   4.495 -0.0069  0.9950 -0.8592
21654TIP3    H265845   1.734  10.432   4.516  0.1670  0.6830 -0.0402
21655TIP3   OH265846   9.725   5.040   2.599  0.0239  0.4749 -0.3279
21655TIP3    H165847   9.632   5.020   2.587 -0.2630  0.4326  1.7208
21655TIP3    H265848   9.769   4.956   2.584 -0.6450 -0.4369  2.3117
21656TIP3   OH265849   8.794   6.506   7.885  0.2380  0.5881 -0.1695
21656TIP3    H165850   8.844   6.447   7.829  1.3306  1.0512  0.2741
21656TIP3    H265851   8.860   6.565   7.921 -0.0276 -0.9531  3.2287
21657TIP3   OH265852   1.249   7.132   4.253  1.3926  0.0962  0.2949
21657TIP3    H165853   1.252   7.217   4.207 -0.3537  0.2517  0.3721
21657TIP3    H265854   1.204   7.074   4.192 -0.4665  0.1535  1.5245
21658TIP3   OH265855   0.877   1.214   4.018  0.5522 -0.3176 -0.6218
21658TIP3    H165856   0.837   1.170   4.093  0.8215  0.9806  0.3172
21658TIP3    H265857   0.952   1.160   3.996  0.1985 -0.9681 -0.2640
21659TIP3   OH265858   5.501   8.731   2.631  0.5898  0.4613  0.1386
21659TIP3    H165859   5.513   8.738   2.726  1.1381  0.3678  0.0778
21659TIP3    H265860   5.589   8.716   2.597  0.2240 -0.9057 -0.2670
21660TIP3   OH265861   0.121   1.233   7.534 -0.0601  0.3240  0.3717
21660TIP3    H165862   0.166   1.315   7.553  0.7579  0.0617 -0.3665
21660TIP3    H265863   0.175   1.166   7.577  1.2318 -0.1668 -1.8712
21661TIP3   OH265864   1.762   2.759   4.662  0.1960  0.5130 -0.0472
21661TIP3    H165865   1.733   2.810   4.737  0.4814  0.7103 -0.0705
21661TIP3    H265866   1.834   2.706   4.695 -0.4336 -0.2714  0.1113
21662TIP3   OH265867   3.812   2.443   9.153  0.4849  0.1420  0.1040
21662TIP3    H165868   3.863   2.456   9.073  0.1120 -0.8240 -0.3063
21662TIP3    H265869   3.865   2.484   9.222  0.8666  0.8791 -0.6055
21663TIP3   OH265870   1.937   9.407   4.319 -0.8469 -0.2356  0.3848
21663TIP3    H165871   1.856   9.385   4.274 -0.3022  0.7850 -1.1720
21663TIP3    H265872   1.980   9.323   4.335 -2.1735 -0.7803  1.2158
21664TIP3   OH265873   4.018   5.740  10.319  0.3369 -0.1019  0.5554
21664TIP3    H165874   3.980   5.680  10.255 -0.6778 -1.1150  2.0331
21664TIP3    H265875   3.999   5.827  10.285  1.0905 -0.5833 -1.2117
21665TIP3   OH265876   7.531   5.904   9.949 -0.2798  0.1327  0.0634
21665TIP3    H165877   7.448   5.947   9.969 -0.6289  1.0315 -2.8641
21665TIP3    H265878   7.596   5.958   9.994 -1.0656  1.2679 -0.1009
21666TIP3   OH265879   0.765   3.606   0.703 -0.3687 -0.1652 -0.2275
21666TIP3    H165880   0.677   3.639   0.721  0.2493  1.1796  0.4590
21666TIP3    H265881   0.799   3.581   0.789  0.3377  0.4202 -0.3287
21667TIP3   OH265882   7.244   4.570   9.482 -0.2359 -0.2029 -0.0562
21667TIP3    H165883   7.170   4.617   9.520 -0.7821 -0.1345 -1.1751
21667TIP3    H265884   7.321   4.609   9.523 -0.8071 -0.3831  1.2384
21668TIP3   OH265885  10.610   5.902   4.287 -0.1317 -0.1546 -0.1193
21668TIP3    H165886  10.552   5.848   4.341 -0.4026 -0.5319 -0.7789
21668TIP3    H265887  10.555   5.931   4.214 -0.6146  2.7131  1.2065
21669TIP3   OH265888   1.427   6.254   5.824 -0.2807 -0.3503  0.5731
21669TIP3    H165889   1.372   6.181   5.795 -1.3992  0.3616  0.8298
21669TIP3    H265890   1.413   6.259   5.918  0.5953 -0.4391  0.7178
21670TIP3   OH265891   5.418   1.564   3.315  0.2247  0.1069  0.0246
21670TIP3    H165892   5.438   1.657   3.311 -1.8601  0.5741 -1.0168
21670TIP3    H265893   5.497   1.521   3.283  0.1765  1.7095 -2.5348
21671TIP3   OH265894   7.830   1.427   1.208 -0.2311  0.1542  0.1325
21671TIP3    H165895   7.752   1.396   1.254  0.0692  0.2499  0.7101
21671TIP3    H265896   7.797   1.459   1.124 -0.6262 -1.0739 -0.1915
21672TIP3   OH265897   2.783   6.026   7.729  0.4032  0.2658 -0.2118
21672TIP3    H165898   2.848   6.071   7.782  0.5889  0.4946 -0.6232
21672TIP3    H265899   2.732   5.974   7.791  1.8534 -1.0105 -0.0404
21673TIP3   OH265900   5.024   9.992   3.680  0.2436 -0.3437  0.1564
21673TIP3    H165901   5.062  10.048   3.748 -0.6002 -1.5692  1.7139
21673TIP3    H265902   4.946  10.039   3.651 -0.7280 -0.8473  1.7976
21674TIP3   OH265903   7.204   5.496   5.201  0.3915  0.4683  0.0066
21674TIP3    H165904   7.140   5.567   5.203  0.1621  0.2930 -0.9569
21674TIP3    H265905   7.278   5.529   5.253 -0.4269  0.7061  1.0487
21675TIP3   OH265906   1.605   3.335   0.977  0.1435  0.0809  0.9292
21675TIP3    H165907   1.618   3.337   0.882 -2.1442 -0.1522  0.5645
21675TIP3    H265908   1.602   3.427   1.003 -0.6461  0.1711  0.5401
21676TIP3   OH265909   0.928   8.088  10.704  0.5446  0.2762  0.1267
21676TIP3    H165910   0.910   8.047  10.619  1.4208  0.8866 -0.3564
21676TIP3    H265911   0.890   8.175  10.697  0.0190  0.0944  0.6166
21677TIP3   OH265912   2.197   5.461   2.330  0.3199 -0.7667  0.1761
21677TIP3    H165913   2.235   5.470   2.417  2.7307  2.6256 -1.0219
21677TIP3    H265914   2.138   5.536   2.322 -0.7178 -1.6533 -0.7490
21678TIP3   OH265915   3.307   5.794   1.942  0.5775 -0.8213  0.3805
21678TIP3    H165916   3.215   5.769   1.956  0.0931  0.8142  0.2998
21678TIP3    H265917   3.357   5.719   1.976 -0.7351 -0.6448  2.9558
21679TIP3   OH265918   0.540   0.156   6.206 -0.2500 -0.7268  0.4572
21679TIP3    H165919   0.513   0.187   6.293  0.9147  0.5237  0.4090
21679TIP3    H265920   0.618   0.103   6.224 -0.9191 -1.8061  0.3019
21680TIP3   OH265921   9.737   1.511   2.296 -0.0974 -0.2597  0.2182
21680TIP3    H165922   9.827   1.544   2.304 -0.2156  0.3606 -0.8611
21680TIP3    H265923   9.683   1.575   2.342  0.0024 -0.6338  0.8692
21681TIP3   OH265924   2.997   6.531   5.693  0.2127  0.4345 -0.0687
21681TIP3    H165925   2.946   6.610   5.675 -1.5937 -0.4034  1.0640
21681TIP3    H265926   3.049   6.517   5.614 -0.3251  2.0927 -0.7449
21682TIP3   OH265927   6.364   1.315   1.776  0.2102  0.3852  0.0823
21682TIP3    H165928   6.455   1.345   1.786  0.6792 -1.2203  0.8984
21682TIP3    H265929   6.319   1.390   1.737  1.8033  1.3436 -0.0231
21683TIP3   OH265930   3.215   7.320   1.048 -0.5246 -0.5745  0.8310
21683TIP3    H165931   3.293   7.374   1.055 -1.8141  1.5727 -0.2833
21683TIP3    H265932   3.145   7.374   1.084 -1.6631 -2.1352  1.1069
21684TIP3   OH265933   0.057   6.947   9.992 -0.9498 -0.9474  0.1500
21684TIP3    H165934  -0.020   6.920  10.041 -1.6809 -3.0928 -2.0442
21684TIP3    H265935   0.028   6.955   9.902  1.4299 -2.2536 -0.8384
21685TIP3   OH265936   0.522   2.703   3.143  0.2518  0.1265  0.4350
21685TIP3    H165937   0.449   2.733   3.198  0.0840 -1.4168  1.1264
21685TIP3    H265938   0.480   2.668   3.065  0.3692  0.7134  0.1073
21686TIP3   OH265939   7.047   7.601   9.111 -0.2929 -0.1250  0.2929
21686TIP3    H165940   7.042   7.549   9.191 -0.0191 -0.4342  0.1098
21686TIP3    H265941   6.968   7.655   9.112  0.2394  0.6862  1.3314
21687TIP3   OH265942   0.557   5.378   1.933  0.5301  0.2852 -0.1828
21687TIP3    H165943   0.498   5.303   1.920  0.8110 -0.5403  2.6000
21687TIP3    H265944   0.643   5.345   1.909  0.3220  0.5667 -1.4007
21688TIP3   OH265945   4.571   0.739   5.937 -0.3507  0.7703 -0.0945
21688TIP3    H165946   4.493   0.683   5.936 -1.9658  2.8483  0.6481
21688TIP3    H265947   4.588   0.753   6.030  0.1380  1.3324 -0.2646
21689TIP3   OH265948   2.557   9.353   5.998 -0.3399 -0.4489  0.0929
21689TIP3    H165949   2.510   9.370   5.917  0.4920  0.8502 -0.1570
21689TIP3    H265950   2.637   9.307   5.970 -0.5991 -1.0470  0.3171
21690TIP3   OH265951   5.435   7.350   6.203  0.4461  0.1890 -0.0906
21690TIP3    H165952   5.395   7.430   6.237 -0.4660 -1.2860  2.6303
21690TIP3    H265953   5.528   7.372   6.192  0.1401  1.7163  0.2303
21691TIP3   OH265954   9.805   5.102  10.104 -0.0173 -0.1124 -0.5347
21691TIP3    H165955   9.802   5.105  10.009  1.1836  0.9825 -0.5698
21691TIP3    H265956   9.881   5.048  10.125  0.2103  0.3275 -0.2079
21692TIP3   OH265957   8.252   3.613   7.828 -0.1358  0.5893  0.3250
21692TIP3    H165958   8.286   3.629   7.740 -0.6680  0.5068  0.0973
21692TIP3    H265959   8.203   3.531   7.820 -2.4020  1.8933  0.0400
21693TIP3   OH265960   0.542   6.453   8.470 -0.8968 -0.2018  0.0624
21693TIP3    H165961   0.635   6.450   8.490 -1.0241  1.9780  1.2259
21693TIP3    H265962   0.523   6.367   8.431  2.1219  0.1970 -2.6811
21694TIP3   OH265963   5.546   3.954   6.949  0.2178  0.1538  0.0579
21694TIP3    H165964   5.450   3.958   6.957  0.2381 -1.2093  1.1855
21694TIP3    H265965   5.572   3.879   7.002  1.7321 -0.8044 -1.9074
21695TIP3   OH265966   9.906   2.118   4.004 -0.2653  0.4252 -0.6044
21695TIP3    H165967   9.896   2.180   4.076 -0.9456  1.2285 -1.3706
21695TIP3    H265968   9.883   2.169   3.926  0.2477 -0.4903 -1.3606
21696TIP3   OH265969  10.379   0.706   3.569 -0.2288  0.1009 -0.0950
21696TIP3    H165970  10.295   0.673   3.535  1.1455 -2.6778 -1.0978
21696TIP3    H265971  10.409   0.637   3.628  0.5065  1.9342  1.7781
21697TIP3   OH265972   9.361   7.000   5.636 -0.1857  0.0825 -0.1383
21697TIP3    H165973   9.331   6.926   5.584  0.8235 -1.0087  0.7657
21697TIP3    H265974   9.393   7.064   5.572  0.7943 -1.1135 -0.8903
21698TIP3   OH265975   7.966   5.031  10.395 -0.4666  0.3601  1.0237
21698TIP3    H165976   7.972   5.122  10.423  2.0512  0.3127  0.7978
21698TIP3    H265977   8.000   5.031  10.306  1.5784 -1.0558  1.7313
21699TIP3   OH265978   1.844   2.631   3.556  0.8242 -0.5045 -0.2325
21699TIP3    H165979   1.782   2.695   3.522 -0.0415 -0.3598  1.5064
21699TIP3    H265980   1.818   2.548   3.516  0.2900 -0.2251 -0.4743
21700TIP3   OH265981   8.174   1.701   2.371  0.4546  0.5822  0.2254
21700TIP3    H165982   8.233   1.651   2.314 -2.1117 -1.6896 -0.6670
21700TIP3    H265983   8.227   1.723   2.447  2.2349 -2.1647 -0.0782
21701TIP3   OH265984   6.920   6.410   5.015 -0.4954 -0.0469 -0.2316
21701TIP3    H165985   6.930   6.491   5.065  0.6318 -0.2156 -0.1685
21701TIP3    H265986   6.875   6.351   5.074 -0.7345  0.3184 -0.0435
21702TIP3   OH265987   6.978   5.327   2.174 -0.3050  0.1162  0.0667
21702TIP3    H165988   6.955   5.237   2.154 -2.3413  0.6523 -0.3059
21702TIP3    H265989   6.924   5.379   2.114  0.4264  1.5799  0.6244
21703TIP3   OH265990   5.999   8.989   7.341 -0.2095  0.4362  0.2802
21703TIP3    H165991   6.090   8.965   7.357 -0.4709 -1.4140 -0.7786
21703TIP3    H265992   6.001   9.045   7.264 -0.0609 -0.5879 -0.4710
21704TIP3   OH265993   0.096   4.362   0.799 -0.4349 -0.0750  0.5518
21704TIP3    H165994   0.098   4.300   0.726 -1.2106 -0.2377  0.6575
21704TIP3    H265995   0.008   4.401   0.794 -0.4140  0.0735  1.2642
21705TIP3   OH265996   1.004   0.607   4.133  0.1594 -0.3072  0.4853
21705TIP3    H165997   0.923   0.557   4.146  1.2592 -3.0750 -2.3037
21705TIP3    H265998   1.043   0.571   4.053  2.7555  2.8834  0.0996
21706TIP3   OH265999   7.351   5.841   6.266  0.0058 -0.0451  0.2261
21706TIP3    H166000   7.406   5.880   6.198 -0.9202 -0.1969 -0.6457
21706TIP3    H266001   7.263   5.877   6.249 -0.2362 -0.0534  1.3779
21707TIP3   OH266002   3.165   6.775   1.364 -0.6989  0.0357  0.7238
21707TIP3    H166003   3.194   6.772   1.456 -0.3864 -1.2530  0.5925
21707TIP3    H266004   3.220   6.712   1.319 -0.5070  1.0137 -0.4763
21708TIP3   OH266005   9.239   3.306   1.115  0.0773 -0.4362 -0.0533
21708TIP3    H166006   9.246   3.400   1.134  0.1792 -0.2902 -0.7830
21708TIP3    H266007   9.179   3.272   1.182  0.1498  0.1191  0.3023
21709TIP3   OH266008   8.226   8.571   9.725 -0.5088  0.4503 -0.4700
21709TIP3    H166009   8.181   8.495   9.688 -1.1578 -0.0967  1.3605
21709TIP3    H266010   8.197   8.645   9.671 -1.6522 -0.2670 -0.8629
21710TIP3   OH266011   7.401   0.115   7.476 -0.2910  0.4451  0.6096
21710TIP3    H166012   7.415   0.024   7.500  2.0979  1.3199  3.1008
21710TIP3    H266013   7.323   0.142   7.524  0.3715  0.2946  1.7979
21711TIP3   OH266014   9.464   8.238   8.800 -0.0907  0.0871  0.2474
21711TIP3    H166015   9.381   8.230   8.847 -0.5992 -0.1735 -0.6924
21711TIP3    H266016   9.499   8.323   8.829 -0.2716 -0.1719  1.2772
21712TIP3   OH266017   7.982   3.822   5.272  0.3844  0.3076 -0.3472
21712TIP3    H166018   8.030   3.762   5.214  0.0940 -0.6092  0.3433
21712TIP3    H266019   7.977   3.775   5.356  0.0767  1.2691  0.1819
21713TIP3   OH266020   6.562   4.079   4.540  0.4055  0.1145 -0.0631
21713TIP3    H166021   6.566   3.983   4.540  1.5574  0.1394  0.9753
21713TIP3    H266022   6.652   4.107   4.524  0.3069  1.0155  0.8597
21714TIP3   OH266023   6.821   3.934   9.143  0.3922 -0.3075  0.6519
21714TIP3    H166024   6.877   3.981   9.082 -0.2407  0.1628  0.4239
21714TIP3    H266025   6.822   3.989   9.222 -0.3273  0.0893  0.3930
21715TIP3   OH266026  10.223   4.728  10.131 -0.0355  0.8180 -0.3106
21715TIP3    H166027  10.298   4.679  10.165 -0.0558  1.6527  1.0195
21715TIP3    H266028  10.212   4.697  10.041  0.8626 -0.5183  0.0182
21716TIP3   OH266029   2.815   9.521   1.472 -0.1702 -0.3051 -0.6060
21716TIP3    H166030   2.825   9.507   1.566 -0.7059  1.8418 -0.1746
21716TIP3    H266031   2.721   9.528   1.458 -0.0450  2.1236 -0.7636
21717TIP3   OH266032   8.079   5.521   9.927  0.2391 -0.2099 -0.0751
21717TIP3    H166033   8.152   5.556   9.979  1.8392 -2.4308 -0.6661
21717TIP3    H266034   8.111   5.523   9.837 -1.4800  1.1486 -0.7023
21718TIP3   OH266035   3.250   9.098   1.564  0.4981  0.3183  0.1466
21718TIP3    H166036   3.163   9.111   1.601  0.1933  1.7988 -0.9690
21718TIP3    H266037   3.244   9.015   1.517  0.1346 -0.2953  1.2323
21719TIP3   OH266038   4.694   1.124   2.739 -0.1124  0.2429 -0.3877
21719TIP3    H166039   4.603   1.124   2.710 -0.7091 -1.2271  1.2576
21719TIP3    H266040   4.722   1.032   2.731  1.4737  0.7837 -1.5167
21720TIP3   OH266041   4.546   7.281   6.757  0.1230  0.3202 -0.2752
21720TIP3    H166042   4.635   7.315   6.749  0.2261 -0.0050 -0.5886
21720TIP3    H266043   4.492   7.357   6.776  0.5741  0.4143  0.6659
21721TIP3   OH266044   5.070   1.998   5.789  0.1596 -0.6904 -0.0752
21721TIP3    H166045   4.988   2.003   5.839  0.0646  1.1215 -0.3382
21721TIP3    H266046   5.134   1.967   5.852 -0.5594 -1.3120  0.3657
21722TIP3   OH266047   0.282   1.136   6.358  0.5628  0.0599  0.2440
21722TIP3    H166048   0.353   1.186   6.398  0.7859  0.0797 -0.1702
21722TIP3    H266049   0.295   1.148   6.264 -0.5801  0.8994  0.1774
21723TIP3   OH266050   7.381   0.435   4.460  0.1834  0.1208 -0.2052
21723TIP3    H166051   7.412   0.519   4.494 -0.4073 -0.1599  1.0619
21723TIP3    H266052   7.400   0.440   4.366  0.4786  1.5218 -0.1039
21724TIP3   OH266053   3.880   9.977   7.871  0.0036  0.0161 -0.5653
21724TIP3    H166054   3.929   9.934   7.801  1.8019  1.0236 -0.0055
21724TIP3    H266055   3.864  10.065   7.839  1.9562  0.8979  0.6947
21725TIP3   OH266056   1.314   4.431   0.931  0.0795  0.4473  0.4252
21725TIP3    H166057   1.370   4.399   0.860  0.3146 -0.6090  1.0570
21725TIP3    H266058   1.367   4.497   0.976 -0.1052  1.1871 -0.4163
21726TIP3   OH266059   3.734   3.218   7.234 -0.1119 -0.1438 -0.0090
21726TIP3    H166060   3.647   3.178   7.227 -0.2478  0.2667 -0.8046
21726TIP3    H266061   3.724   3.284   7.303 -0.0836 -0.9479  0.7865
21727TIP3   OH266062   4.033   2.538   9.413 -0.4816 -0.0731  0.4771
21727TIP3    H166063   4.042   2.464   9.353 -1.0960  0.3591 -0.1532
21727TIP3    H266064   4.121   2.575   9.419 -0.6280  0.6113 -1.1102
21728TIP3   OH266065   6.386   2.218   5.300  0.1449  0.3833  0.2833
21728TIP3    H166066   6.454   2.170   5.252  0.0282 -1.7266  2.0744
21728TIP3    H266067   6.306   2.201   5.250  0.3933  0.1022 -0.0326
21729TIP3   OH266068   7.904   6.069   8.578 -0.3424 -0.0090  0.4563
21729TIP3    H166069   7.903   5.974   8.561  1.6196 -0.5360  2.7433
21729TIP3    H266070   7.990   6.097   8.547 -0.3557  0.7423  1.0944
21730TIP3   OH266071   5.021   7.710   8.207 -0.2666  0.0606 -0.3307
21730TIP3    H166072   5.047   7.707   8.299 -1.2909  0.4436 -0.0193
21730TIP3    H266073   5.027   7.802   8.184 -1.4029  0.1715 -0.2269
21731TIP3   OH266074   8.725   9.820   5.912  0.4084 -0.2019  0.0671
21731TIP3    H166075   8.812   9.814   5.873  1.1890 -0.6685  1.7617
21731TIP3    H266076   8.742   9.823   6.006 -1.3823  0.5779  0.4016
21732TIP3   OH266077   5.023   5.439   7.303  0.5933 -0.6176  0.6010
21732TIP3    H166078   4.992   5.352   7.278 -0.3297 -0.4291  1.0411
21732TIP3    H266079   4.956   5.471   7.364 -0.3868  1.3637 -1.3723
21733TIP3   OH266080   9.508   4.492   6.872  0.0901 -0.3016 -0.2211
21733TIP3    H166081   9.455   4.443   6.809 -1.3974  0.3314  0.4774
21733TIP3    H266082   9.578   4.432   6.897  1.7612 -0.0140 -3.6872
21734TIP3   OH266083   7.471   9.354   5.737 -0.0293  0.0563  0.6695
21734TIP3    H166084   7.541   9.393   5.789 -0.0063  1.0078 -0.0558
21734TIP3    H266085   7.432   9.288   5.795 -1.3519  2.4494  2.6811
21735TIP3   OH266086   1.753   7.748   1.762  0.7328 -0.0804  0.0764
21735TIP3    H166087   1.749   7.653   1.770 -0.2517 -0.0899 -0.4249
21735TIP3    H266088   1.666   7.779   1.787  1.0317  0.6896  0.2118
21736TIP3   OH266089   6.969   7.688   2.735  0.2051 -0.1332  0.3236
21736TIP3    H166090   7.058   7.682   2.702  0.7105  2.0286  1.0781
21736TIP3    H266091   6.961   7.615   2.796  0.7619 -1.4991 -1.1672
21737TIP3   OH266092  10.577   1.603   5.723  0.2358  0.8846  0.5959
21737TIP3    H166093  10.543   1.572   5.806  2.3841 -0.3141  1.1006
21737TIP3    H266094  10.656   1.652   5.746  2.2924 -1.5468 -0.7974
21738TIP3   OH266095   4.304   8.458   1.837  0.0152 -0.4898 -0.2389
21738TIP3    H166096   4.353   8.494   1.911  2.5313 -0.8744 -1.6112
21738TIP3    H266097   4.262   8.534   1.798 -0.7659 -0.1835  1.1083
21739TIP3   OH266098   4.017   9.821   8.076  0.0624 -0.3664  0.4487
21739TIP3    H166099   3.965   9.862   8.007  1.1151  0.0438 -0.1380
21739TIP3    H266100   4.058   9.745   8.034  2.5256  1.1417 -0.1215
21740TIP3   OH266101   0.581   1.364   2.503 -0.0585  0.0962  0.6041
21740TIP3    H166102   0.514   1.325   2.447  1.8647 -2.1149 -0.2544
21740TIP3    H266103   0.616   1.437   2.452 -0.4517  0.0521  0.2682
21741TIP3   OH266104   1.723   4.841   9.788 -0.0275 -0.0049  0.1924
21741TIP3    H166105   1.658   4.772   9.798  0.8455 -0.6911  1.4784
21741TIP3    H266106   1.807   4.794   9.788  0.4875  0.8389 -1.5236
21742TIP3   OH266107   5.074   2.244   9.152  0.2767  0.1761  0.1540
21742TIP3    H166108   4.990   2.197   9.149  0.0870  0.5002  0.3357
21742TIP3    H266109   5.129   2.198   9.088 -0.4551  0.7695 -0.9296
21743TIP3   OH266110   7.733   8.889   8.837  0.0366  0.2749 -0.3742
21743TIP3    H166111   7.800   8.948   8.870 -1.5475  1.2774  1.2315
21743TIP3    H266112   7.750   8.806   8.881  0.7766  0.2162 -0.7450
21744TIP3   OH266113   0.468   6.677  10.807  0.1618 -0.3389  0.0285
21744TIP3    H166114   0.447   6.750  10.749 -0.7357 -0.8648 -0.3260
21744TIP3    H266115   0.435   6.600  10.762  0.2295 -0.8594  0.8478
21745TIP3   OH266116   4.982   7.187   8.377 -0.2788 -0.4578 -0.6462
21745TIP3    H166117   4.980   7.238   8.458  0.7117 -0.5723 -0.5251
21745TIP3    H266118   4.907   7.128   8.383  0.4951 -1.3792  0.8337
21746TIP3   OH266119   6.174   9.336  10.826  0.2571  0.2954  0.4421
21746TIP3    H166120   6.122   9.263  10.859  0.2044  0.1581  0.0593
21746TIP3    H266121   6.242   9.295  10.773 -0.4552  0.5628 -0.7358
21747TIP3   OH266122  10.339   6.438   8.013  0.4103 -0.1207 -0.3421
21747TIP3    H166123  10.326   6.344   8.021  0.1655 -0.2237 -1.6580
21747TIP3    H266124  10.255   6.476   8.036  0.5163 -0.2160  0.2141
21748TIP3   OH266125   8.204   7.198   4.511 -0.6826  0.0492 -0.8674
21748TIP3    H166126   8.177   7.271   4.567 -0.8391 -0.4605 -0.2807
21748TIP3    H266127   8.297   7.215   4.494 -0.5363 -0.0073 -0.1329
21749TIP3   OH266128   2.400   3.695   7.700  0.4103  0.1055  0.2178
21749TIP3    H166129   2.439   3.775   7.734  0.0406 -0.0606  1.0600
21749TIP3    H266130   2.306   3.712   7.697  0.0597 -0.9927  2.5010
21750TIP3   OH266131  10.393   1.169   5.268  0.3151  0.0134 -0.7318
21750TIP3    H166132  10.349   1.118   5.336  0.3390 -0.8011 -1.3115
21750TIP3    H266133  10.481   1.183   5.301 -0.6260  2.7176  1.0091
21751TIP3   OH266134   8.296   7.684   0.239 -0.1789  0.4356 -0.0328
21751TIP3    H166135   8.262   7.632   0.311  0.2839 -0.8313 -0.6942
21751TIP3    H266136   8.315   7.769   0.278 -0.5222 -0.0263  1.1944
21752TIP3   OH266137  10.026   9.564   9.352 -0.2839 -0.1346 -0.4728
21752TIP3    H166138   9.945   9.536   9.311  0.1045 -1.0005 -0.6723
21752TIP3    H266139  10.095   9.528   9.296  0.2429 -0.1015  0.1423
21753TIP3   OH266140   8.007   0.270   8.516  0.0864  0.2010 -0.2433
21753TIP3    H166141   7.926   0.294   8.471 -0.3944 -0.1830  0.3984
21753TIP3    H266142   8.030   0.348   8.566  0.7847  0.7345 -1.3621
21754TIP3   OH266143  10.892   1.769   1.471 -0.7589 -0.3438 -0.4349
21754TIP3    H166144  10.899   1.789   1.377 -0.8058 -0.5529 -0.4824
21754TIP3    H266145  10.798   1.770   1.489 -0.7717 -0.7199 -0.4796
21755TIP3   OH266146   3.258   1.763   0.329 -0.2218 -0.6781  0.2960
21755TIP3    H166147   3.279   1.689   0.385 -0.5696 -0.1990  1.0789
21755TIP3    H266148   3.247   1.725   0.241  0.3008 -1.4374  0.5516
21756TIP3   OH266149   9.119   2.506   0.074  0.1639  0.4729  0.0638
21756TIP3    H166150   9.098   2.597   0.056  0.2023  0.3819 -0.4545
21756TIP3    H266151   9.193   2.486   0.017 -1.0780 -0.4385 -1.3434
21757TIP3   OH266152   5.524   5.580   1.857  0.9141 -0.1067  0.1831
21757TIP3    H166153   5.533   5.621   1.943  0.6462 -0.6865  0.4935
21757TIP3    H266154   5.614   5.571   1.825  0.9925  0.4318  0.2465
21758TIP3   OH266155   3.153   7.251   2.298 -0.3987 -0.8325 -0.3357
21758TIP3    H166156   3.153   7.216   2.387 -3.6119  0.3910  0.2965
21758TIP3    H266157   3.244   7.244   2.269  0.7314 -1.4578  2.9468
21759TIP3   OH266158   5.089   8.948   7.013  0.5276 -0.8107  0.4660
21759TIP3    H166159   5.168   8.941   6.959  1.0744  0.9487  0.9879
21759TIP3    H266160   5.110   8.899   7.093  1.8924  1.2260  1.4375
21760TIP3   OH266161   9.353   7.592   6.045 -0.3360  0.1284  0.2823
21760TIP3    H166162   9.377   7.524   6.109  1.1034 -0.2215 -0.5998
21760TIP3    H266163   9.383   7.557   5.961  1.7757  2.4410 -0.0366
21761TIP3   OH266164   5.589   2.100   3.388  0.5586  0.1844 -0.1293
21761TIP3    H166165   5.657   2.078   3.325  2.0103 -0.3915  1.5663
21761TIP3    H266166   5.517   2.134   3.335  2.1682  0.8602 -1.9686
21762TIP3   OH266167   4.971   6.917   4.014  0.1982 -0.1948  0.3720
21762TIP3    H166168   5.028   6.919   4.091  1.5457  1.0847 -0.6153
21762TIP3    H266169   4.903   6.854   4.037  1.7827 -1.4886  1.7413
21763TIP3   OH266170   2.922   1.003   0.613  0.2253 -0.3459 -0.1346
21763TIP3    H166171   2.950   0.957   0.692 -2.2532  1.0499  1.6864
21763TIP3    H266172   3.002   1.014   0.562  1.6652 -2.5472  1.4881
21764TIP3   OH266173   7.534   0.547   0.754 -0.3578 -0.0856  0.4333
21764TIP3    H166174   7.574   0.521   0.837  0.1736 -1.0995 -0.1244
21764TIP3    H266175   7.450   0.585   0.779  0.4624  1.0873  1.5470
21765TIP3   OH266176   5.153   0.608   9.996 -0.0190 -0.2726 -0.2977
21765TIP3    H166177   5.155   0.607   9.900 -0.6158  0.3295 -0.3194
21765TIP3    H266178   5.083   0.670  10.018  1.5754  1.2967  0.5534
21766TIP3   OH266179   1.023   7.455  10.471 -0.3854 -0.4806  0.1633
21766TIP3    H166180   1.059   7.480  10.386  0.2485 -1.5829  0.0977
21766TIP3    H266181   0.958   7.388  10.451 -0.8048 -0.1750  0.4868
21767TIP3   OH266182   0.035   4.530   6.697 -0.3988 -0.3285 -0.4309
21767TIP3    H166183  -0.006   4.610   6.730 -1.0928 -1.1708  0.8244
21767TIP3    H266184  -0.038   4.468   6.687  0.5425 -2.0171  2.3204
21768TIP3   OH266185   3.362   7.224   6.768 -0.0683  0.0656  0.1669
21768TIP3    H166186   3.336   7.145   6.720  2.4129 -0.6095 -0.1982
21768TIP3    H266187   3.369   7.292   6.702  0.0056  0.0154  0.1236
21769TIP3   OH266188   4.742   9.160   5.411 -0.1077 -0.4967 -0.0514
21769TIP3    H166189   4.730   9.089   5.347  0.6542 -0.0381 -0.7273
21769TIP3    H266190   4.823   9.202   5.384 -1.3834  1.7101 -0.7201
21770TIP3   OH266191   2.624   4.130   1.255  0.2379 -0.6374 -0.1490
21770TIP3    H166192   2.653   4.222   1.254  0.7490 -0.7840  0.4312
21770TIP3    H266193   2.616   4.109   1.348 -0.5990 -0.9661 -0.2901
21771TIP3   OH266194   0.041   1.839   4.314 -0.1443 -0.1655  0.0115
21771TIP3    H166195   0.011   1.824   4.404  0.6693 -0.4265  0.2572
21771TIP3    H266196   0.071   1.930   4.314 -1.8100  0.4119 -0.5063
21772TIP3   OH266197   5.200  10.093   1.927  0.1195  0.6443  0.2236
21772TIP3    H166198   5.116  10.070   1.966 -0.4325  1.4752 -0.4338
21772TIP3    H266199   5.240  10.154   1.990 -0.4713  1.4589 -0.1708
21773TIP3   OH266200   9.183   3.961  10.234 -0.5032 -0.0861 -0.0557
21773TIP3    H166201   9.274   3.944  10.256 -0.7978  0.2925  1.6334
21773TIP3    H266202   9.139   3.966  10.319 -2.0827 -0.2040 -0.8370
21774TIP3   OH266203   5.169  10.054   0.036  0.1427 -0.1511  0.1359
21774TIP3    H166204   5.147  10.121  -0.028 -1.3529  0.7628  1.5150
21774TIP3    H266205   5.253  10.019   0.006 -1.3693 -1.1863 -3.3684
21775TIP3   OH266206   3.831   2.532   4.022 -0.3502  0.0860 -0.6617
21775TIP3    H166207   3.824   2.626   4.008 -1.4936  0.1570  0.2144
21775TIP3    H266208   3.911   2.506   3.975  0.6600  1.6894  0.0725
21776TIP3   OH266209   0.175   5.482   3.436 -0.2309 -0.6027 -0.4618
21776TIP3    H166210   0.237   5.513   3.371  1.4849  0.9532  1.7586
21776TIP3    H266211   0.090   5.511   3.404  0.3589 -1.1887 -2.6852
21777TIP3   OH266212   2.134   3.138   3.664  0.5811 -0.0527 -0.0368
21777TIP3    H166213   2.056   3.122   3.610  1.5166 -2.0686 -0.9058
21777TIP3    H266214   2.103   3.132   3.754 -0.0206 -2.6950 -0.3433
21778TIP3   OH266215   5.546   3.215  10.823 -0.1090 -1.0563 -0.5048
21778TIP3    H166216   5.565   3.121  10.816 -0.1110 -1.2403  1.4583
21778TIP3    H266217   5.626   3.253  10.857 -1.0689 -0.8601  1.6820
21779TIP3   OH266218   7.453   8.893   5.953 -0.1842 -0.0062 -0.0447
21779TIP3    H166219   7.385   8.914   5.889 -1.5055 -0.9223  1.0065
21779TIP3    H266220   7.485   8.806   5.926 -0.5295 -0.2599  0.3525
21780TIP3   OH266221   4.195   0.874   9.410  0.1848 -0.1362 -0.3512
21780TIP3    H166222   4.148   0.910   9.335  2.2464  1.2193 -1.0741
21780TIP3    H266223   4.177   0.935   9.481 -0.0068 -0.2065 -0.3402
21781TIP3   OH266224   1.265  10.559   7.817 -0.1223  0.1209  0.2599
21781TIP3    H166225   1.207  10.569   7.893  2.4889  0.3022  2.3645
21781TIP3    H266226   1.213  10.592   7.743 -2.7691 -0.0134  1.9266
21782TIP3   OH266227   3.827   9.952   1.583 -0.6608  0.4521 -0.2221
21782TIP3    H166228   3.762   9.885   1.559 -2.2329  1.7506  0.1989
21782TIP3    H266229   3.908   9.903   1.595 -1.5124 -1.2328 -0.9152
21783TIP3   OH266230   9.601   5.784   9.201 -0.0153 -0.2829  0.6527
21783TIP3    H166231   9.550   5.705   9.220  1.1130 -0.9508  1.0526
21783TIP3    H266232   9.683   5.771   9.248  0.7722  0.4763 -0.4551
21784TIP3   OH266233   5.362   0.257   5.676  0.1240  0.6778 -0.0907
21784TIP3    H166234   5.304   0.294   5.743 -2.2721 -1.3628 -0.8596
21784TIP3    H266235   5.314   0.269   5.594  1.2868 -0.1499 -0.9238
21785TIP3   OH266236   7.922   9.070   3.595  0.3571  0.2402 -0.6845
21785TIP3    H166237   7.964   9.075   3.681  0.9107  1.6600 -1.0135
21785TIP3    H266238   7.850   9.133   3.600 -0.6460 -0.8650 -0.7331
21786TIP3   OH266239   1.892   6.295   7.278  0.1934  0.7074 -0.5340
21786TIP3    H166240   1.938   6.308   7.195 -1.3043  0.8013 -1.3959
21786TIP3    H266241   1.799   6.300   7.255 -0.2839 -0.4267  0.9753
21787TIP3   OH266242   2.098   3.152   3.961 -0.3923  0.0271  0.4188
21787TIP3    H166243   2.110   3.247   3.968 -2.1323  0.3431 -0.3295
21787TIP3    H266244   2.013   3.137   4.002 -0.6777 -1.0424 -0.5327
21788TIP3   OH266245   2.982   2.334   9.413  0.3439 -0.0430 -0.2066
21788TIP3    H166246   3.025   2.290   9.487 -0.1190  0.0774  0.1399
21788TIP3    H266247   2.948   2.262   9.360  1.9972 -0.1903 -1.1385
21789TIP3   OH266248   9.331   5.133   7.816  0.6988 -0.0814  0.5008
21789TIP3    H166249   9.356   5.223   7.796  0.0631  0.2933  1.3220
21789TIP3    H266250   9.279   5.106   7.741  0.0246  0.6059  0.7036
21790TIP3   OH266251   8.667   2.301   7.934 -0.1394 -0.1405 -0.3020
21790TIP3    H166252   8.657   2.214   7.894 -0.1266 -0.4087  0.2564
21790TIP3    H266253   8.592   2.351   7.902 -0.6028 -0.6193  0.0001
21791TIP3   OH266254   3.755   4.766   5.819 -0.6922  0.5793  0.0133
21791TIP3    H166255   3.690   4.761   5.748  0.3707 -0.1801 -0.9545
21791TIP3    H266256   3.839   4.772   5.773 -0.0788  1.9492  1.2372
21792TIP3   OH266257   9.571   1.906   8.021  0.5645 -0.5125 -0.2082
21792TIP3    H166258   9.479   1.924   8.005  0.8015  0.9108 -0.1649
21792TIP3    H266259   9.593   1.961   8.097  1.5087 -0.6318 -0.3815
21793TIP3   OH266260   1.503   5.757   8.537 -0.3387 -0.4219  0.3168
21793TIP3    H166261   1.428   5.736   8.592 -0.1910 -0.1655  0.6192
21793TIP3    H266262   1.576   5.766   8.599  0.0690 -1.2707 -0.0244
21794TIP3   OH266263   2.047   1.703   4.527 -0.3520  0.1164 -0.1869
21794TIP3    H166264   2.009   1.627   4.571 -0.5815  0.3456  0.0151
21794TIP3    H266265   2.141   1.695   4.543 -0.2393 -0.7946 -1.2385
21795TIP3   OH266266   2.065   7.342   6.200 -0.9208  0.5215 -0.2256
21795TIP3    H166267   2.093   7.290   6.125  0.0303 -0.1240  0.5586
21795TIP3    H266268   2.145   7.379   6.236 -0.9337 -1.5049  2.1741
21796TIP3   OH266269   0.018   5.747   7.918 -0.1316  0.1225  0.4326
21796TIP3    H166270  -0.045   5.700   7.863 -0.8462  0.6344  0.8022
21796TIP3    H266271   0.015   5.702   8.002  0.9994 -0.6925  0.0592
21797TIP3   OH266272   2.762   7.423   6.340 -0.5327 -0.3687 -0.0552
21797TIP3    H166273   2.773   7.385   6.427 -2.0543 -0.4924  0.1188
21797TIP3    H266274   2.712   7.358   6.291 -0.4265  0.0597 -0.7568
21798TIP3   OH266275   1.417   9.700   0.696  1.1385 -0.0775  0.4689
21798TIP3    H166276   1.376   9.687   0.781  0.3847  0.1290  0.1456
21798TIP3    H266277   1.464   9.618   0.679  1.2522 -0.1373  1.0547
21799TIP3   OH266278   4.599   7.710   1.178 -0.4868  0.6077 -0.3434
21799TIP3    H166279   4.551   7.630   1.156 -0.9849  0.9038 -0.3371
21799TIP3    H266280   4.551   7.780   1.134  0.4212  0.8176 -1.0485
21800TIP3   OH266281   0.796   6.200   4.612  0.6789  0.3860 -0.3271
21800TIP3    H166282   0.858   6.170   4.546  1.1395  0.6537 -0.0141
21800TIP3    H266283   0.766   6.119   4.654  1.9504  0.3310  0.5411
21801TIP3   OH266284   2.981   4.937   4.966 -0.0971 -0.3945  0.2885
21801TIP3    H166285   3.046   4.893   4.911  0.6719 -2.5802  2.7234
21801TIP3    H266286   2.903   4.943   4.911  1.4468  0.1786 -1.9458
21802TIP3   OH266287   6.454   2.460   6.901 -0.7709  0.2670 -0.0083
21802TIP3    H166288   6.502   2.463   6.818 -1.1911 -3.3527 -0.5445
21802TIP3    H266289   6.486   2.382   6.945 -0.5437  2.0501  3.3854
21803TIP3   OH266290   3.286   3.449   9.962 -1.0755 -0.0442  0.7314
21803TIP3    H166291   3.292   3.372  10.018 -1.3826  0.1524  1.0393
21803TIP3    H266292   3.269   3.414   9.874 -0.0872 -0.3783  0.6576
21804TIP3   OH266293   0.976  10.270   8.847  0.1086 -0.2170 -0.3852
21804TIP3    H166294   0.922  10.198   8.813 -0.0117  0.5185 -1.8337
21804TIP3    H266295   0.997  10.322   8.770  0.7104  0.9664  0.5486
21805TIP3   OH266296   8.938   6.620   3.292 -0.0713  0.1307 -0.3255
21805TIP3    H166297   8.875   6.672   3.342 -0.8358 -0.4851 -0.6308
21805TIP3    H266298   8.932   6.532   3.330  2.1477  0.4977  1.0672
21806TIP3   OH266299   0.103   3.365   4.414 -0.5433  0.5158  0.9005
21806TIP3    H166300   0.009   3.352   4.419 -0.1916 -2.1260  1.9821
21806TIP3    H266301   0.120   3.438   4.474 -1.7429  0.0644  1.8344
21807TIP3   OH266302   2.459   5.639   1.942 -0.1815 -0.3617 -0.2987
21807TIP3    H166303   2.532   5.701   1.938 -1.1765  0.8556 -0.2353
21807TIP3    H266304   2.401   5.675   2.009 -1.3047 -0.7824 -1.0201
21808TIP3   OH266305   4.837   1.440   0.913  0.1249  0.4733  0.2498
21808TIP3    H166306   4.844   1.346   0.893  0.2484  0.4466  0.4141
21808TIP3    H266307   4.769   1.472   0.854 -0.8104  0.0348  1.0690
21809TIP3   OH266308   9.848   2.095   7.049 -0.0139 -0.1521  0.2407
21809TIP3    H166309   9.766   2.060   7.082 -0.3034  0.7992  0.5525
21809TIP3    H266310   9.916   2.046   7.096 -0.3685 -1.6536 -0.7555
21810TIP3   OH266311  10.531   1.344   6.104 -0.5691  0.2518  0.3303
21810TIP3    H166312  10.587   1.406   6.149  1.4598 -0.8146 -0.5905
21810TIP3    H266313  10.586   1.267   6.091 -1.3926  0.0463 -2.8139
21811TIP3   OH266314   9.536   5.366   4.964  0.0596  0.5022 -0.2140
21811TIP3    H166315   9.614   5.312   4.953 -0.3787 -0.1793 -0.0623
21811TIP3    H266316   9.560   5.452   4.930  1.2269  0.6094  0.8397
21812TIP3   OH266317   6.325   9.064   4.990 -0.3662  0.4677  0.1839
21812TIP3    H166318   6.393   9.054   4.923 -0.2375  1.3057  0.1776
21812TIP3    H266319   6.347   8.998   5.056  0.4659  0.7312  0.1857
21813TIP3   OH266320   7.007   0.414   6.172 -0.2177  0.2654 -0.4506
21813TIP3    H166321   6.971   0.402   6.260 -2.8680 -1.1155 -1.5979
21813TIP3    H266322   7.102   0.412   6.184 -0.5084 -0.1650  2.3273
21814TIP3   OH266323   4.695   6.353   8.531  0.1199 -0.2251 -0.0169
21814TIP3    H166324   4.612   6.311   8.508  0.0840 -0.6672  0.8968
21814TIP3    H266325   4.733   6.378   8.447 -1.2156  0.5274 -0.4266
21815TIP3   OH266326   8.869   7.729   4.165  0.5640 -0.0584 -1.1004
21815TIP3    H166327   8.888   7.723   4.259 -0.6380  0.4158 -0.7988
21815TIP3    H266328   8.954   7.745   4.124  1.4689 -2.5051 -0.3494
21816TIP3   OH266329   0.974   0.708  10.153 -0.4154  0.8697  0.0308
21816TIP3    H166330   0.996   0.778  10.092  1.2211  0.8574  0.5499
21816TIP3    H266331   0.966   0.630  10.097  1.2600  0.8216 -0.1904
21817TIP3   OH266332  10.602   9.344   9.475  0.2612  0.9785  0.6070
21817TIP3    H166333  10.589   9.396   9.396 -2.6603  0.9753  1.0006
21817TIP3    H266334  10.585   9.254   9.448  2.4463  0.5078  0.5907
21818TIP3   OH266335   0.633   5.660   2.420  0.0625  0.8724 -0.4498
21818TIP3    H166336   0.631   5.728   2.487  0.3166  1.5509 -1.1166
21818TIP3    H266337   0.718   5.671   2.377  1.4213 -1.7292  1.3032
21819TIP3   OH266338   8.360   4.464   8.396  0.4775  0.0254 -0.0178
21819TIP3    H166339   8.295   4.481   8.328 -1.0483 -2.0023  0.8204
21819TIP3    H266340   8.422   4.405   8.356  0.8224  0.5625 -0.2862
21820TIP3   OH266341   5.289   7.190   2.735  0.6717  0.1141 -0.3067
21820TIP3    H166342   5.339   7.177   2.655  0.0496  0.0872 -0.7037
21820TIP3    H266343   5.266   7.283   2.734 -0.5940 -0.1804 -0.9365
21821TIP3   OH266344   5.404   9.565   1.985 -0.3520  0.5216 -0.0299
21821TIP3    H166345   5.406   9.660   1.976 -0.5178  0.6829  1.3745
21821TIP3    H266346   5.348   9.550   2.062 -0.5639 -0.7251 -0.4056
21822TIP3   OH266347   4.786   4.250   5.468 -0.4706 -0.7892 -0.0132
21822TIP3    H166348   4.859   4.231   5.410 -0.1191  0.4634  0.0029
21822TIP3    H266349   4.755   4.164   5.496  0.4834 -1.3542 -0.6465
21823TIP3   OH266350   9.787   1.781   2.760 -0.0692 -0.0887  0.2563
21823TIP3    H166351   9.830   1.727   2.826 -1.1461  0.0068  1.0576
21823TIP3    H266352   9.694   1.765   2.773 -0.3266  0.3028 -0.9358
21824TIP3   OH266353   8.627   0.302   5.171 -0.2552 -0.2427  0.1045
21824TIP3    H166354   8.712   0.292   5.127 -0.1020 -1.0345  0.5648
21824TIP3    H266355   8.641   0.267   5.259 -1.1797 -0.8043  0.0456
21825TIP3   OH266356   8.164   8.045   4.446  0.3623  0.4049 -0.1187
21825TIP3    H166357   8.097   7.978   4.442 -0.9634  1.6843 -0.4847
21825TIP3    H266358   8.167   8.081   4.357  1.8242  0.1083 -0.2097
21826TIP3   OH266359   9.537   6.791   0.388 -0.4557  0.0196  0.3945
21826TIP3    H166360   9.470   6.758   0.328 -0.7223  0.8050  0.2471
21826TIP3    H266361   9.492   6.859   0.439  0.4406  1.1991 -0.3170
21827TIP3   OH266362   5.588   9.063   4.204  0.0456  0.1618  0.0763
21827TIP3    H166363   5.661   9.006   4.227 -1.0970 -1.0949  0.6716
21827TIP3    H266364   5.628   9.134   4.153  1.5598 -0.8825 -0.2360
21828TIP3   OH266365   0.386   4.460   2.664 -0.0934  0.3608 -0.4720
21828TIP3    H166366   0.301   4.418   2.671  0.2747 -0.3797 -0.3685
21828TIP3    H266367   0.373   4.547   2.703 -0.8639  0.3632 -0.7145
21829TIP3   OH266368   5.435   5.386   9.552  0.4478  0.4757 -0.1289
21829TIP3    H166369   5.504   5.385   9.485  1.4282 -1.6695  0.7999
21829TIP3    H266370   5.394   5.300   9.545  0.3485  0.3293  1.7515
21830TIP3   OH266371   7.580  10.602  10.240 -0.7270  0.6811 -0.0896
21830TIP3    H166372   7.590  10.637  10.151 -3.0933  0.2887 -0.5828
21830TIP3    H266373   7.654  10.638  10.288  0.9930  0.3766 -2.3589
21831TIP3   OH266374   5.440   0.465   4.127 -0.1770 -0.0293  0.6583
21831TIP3    H166375   5.374   0.526   4.095 -0.7227 -1.3325 -0.8705
21831TIP3    H266376   5.411   0.441   4.215 -1.9496 -0.8014 -0.0905
21832TIP3   OH266377   3.123   3.865  10.713 -0.2119  0.1892  0.6187
21832TIP3    H166378   3.194   3.926  10.734  0.2952 -0.0402 -0.3542
21832TIP3    H266379   3.063   3.870  10.788  1.5515 -0.6879  2.1731
21833TIP3   OH266380   0.709   8.715   3.502 -0.3818  0.2252  0.0101
21833TIP3    H166381   0.626   8.710   3.455  0.1950  0.3997 -1.0572
21833TIP3    H266382   0.684   8.713   3.595 -1.5229 -0.4948 -0.2873
21834TIP3   OH266383   1.283   9.445   5.982 -0.2598 -0.2972 -0.0762
21834TIP3    H166384   1.363   9.461   6.032  0.8199  0.2469 -1.8655
21834TIP3    H266385   1.220   9.507   6.018  0.6126  0.3827  0.3313
21835TIP3   OH266386   4.635   5.215   4.470  0.8403 -0.0806 -0.6439
21835TIP3    H166387   4.682   5.147   4.517  1.5188  0.5700 -0.3588
21835TIP3    H266388   4.681   5.223   4.387  0.4920 -0.2705 -0.8564
21836TIP3   OH266389   2.901   4.934  10.891 -0.0595 -0.0652  0.4794
21836TIP3    H166390   2.902   4.940  10.986 -0.7789 -0.2538  0.5073
21836TIP3    H266391   2.959   5.004  10.861  0.0052  0.1274  1.0540
21837TIP3   OH266392   8.657   5.192   5.927 -0.2064 -0.4850  0.4836
21837TIP3    H166393   8.752   5.175   5.925 -0.0546  0.1818  1.3248
21837TIP3    H266394   8.650   5.287   5.937 -0.9926 -0.3449 -1.1693
21838TIP3   OH266395   6.166  10.710   7.798 -0.2945 -0.5888 -0.3965
21838TIP3    H166396   6.159  10.804   7.815  0.1813 -0.3064 -1.6458
21838TIP3    H266397   6.078  10.685   7.769 -0.4315 -0.5431 -0.0286
21839TIP3   OH266398   2.667  10.763   9.752  0.3271 -0.9970 -0.0761
21839TIP3    H166399   2.691  10.681   9.709  0.1942 -1.0067 -0.1332
21839TIP3    H266400   2.571  10.766   9.746  0.3579 -0.6364 -0.4411
21840TIP3   OH266401   3.217   4.637   1.521  0.1243 -0.3438  0.0376
21840TIP3    H166402   3.247   4.613   1.609  1.4133  0.4626 -0.1429
21840TIP3    H266403   3.131   4.596   1.512  0.7558 -1.9822  0.9823
21841TIP3   OH266404   1.493   2.560   5.300  0.3328 -0.3717  0.3363
21841TIP3    H166405   1.535   2.517   5.375  1.1518 -0.3797 -0.1148
21841TIP3    H266406   1.539   2.642   5.290 -0.0302 -0.1979  0.0698
21842TIP3   OH266407   5.555   8.618   9.866  0.1048  0.1760 -0.5486
21842TIP3    H166408   5.489   8.554   9.840 -0.6052  0.7540 -0.1949
21842TIP3    H266409   5.628   8.565   9.898 -0.7025 -0.4600  0.2992
21843TIP3   OH266410  10.497   0.014   3.330 -0.6107 -0.7373 -0.0146
21843TIP3    H166411  10.465   0.093   3.287  0.6927 -0.5218 -0.6348
21843TIP3    H266412  10.450  -0.058   3.287 -0.3936 -0.4229 -0.7922
21844TIP3   OH266413   7.772   2.736   9.774  0.1140 -0.1109 -0.8171
21844TIP3    H166414   7.806   2.653   9.807  0.5266  0.6595  0.7854
21844TIP3    H266415   7.682   2.740   9.808  0.5858  0.7481  0.4078
21845TIP3   OH266416   4.271   7.442   3.643  0.0648 -0.6909 -0.4274
21845TIP3    H166417   4.365   7.427   3.658  0.9711  2.4742 -1.9892
21845TIP3    H266418   4.242   7.365   3.595  2.1349 -1.2689 -0.8780
21846TIP3   OH266419   8.314   7.707   9.622 -0.2058 -0.1001 -0.1677
21846TIP3    H166420   8.285   7.741   9.537  0.4224  1.2504  0.1294
21846TIP3    H266421   8.276   7.768   9.686  2.2527  1.0506  0.3014
21847TIP3   OH266422   3.450   9.708   4.422 -0.0903  0.4423  0.2937
21847TIP3    H166423   3.430   9.756   4.342 -0.9346 -0.5585 -0.1292
21847TIP3    H266424   3.499   9.770   4.476 -1.0418  1.7294 -0.2597
21848TIP3   OH266425   6.813   0.462   8.063 -1.1563  0.7110 -0.1009
21848TIP3    H166426   6.841   0.405   7.992 -0.2636  1.6707 -0.5372
21848TIP3    H266427   6.887   0.465   8.123 -0.6818  2.3705 -0.7056
21849TIP3   OH266428   9.962   4.967   8.791  0.1018  0.2635  0.6049
21849TIP3    H166429   9.984   5.058   8.810  2.8303 -0.0519 -0.6244
21849TIP3    H266430   9.893   4.974   8.724  0.9907  1.4599 -0.2341
21850TIP3   OH266431   3.892   5.091   8.750 -0.4610  0.6167  0.1446
21850TIP3    H166432   3.902   5.004   8.713 -1.0251  1.3248 -1.8288
21850TIP3    H266433   3.926   5.084   8.839 -1.1587 -1.7588  0.2763
21851TIP3   OH266434   6.755   9.853   3.398  0.8670 -0.1197 -0.6774
21851TIP3    H166435   6.673   9.807   3.416  0.0486  0.5394 -2.4738
21851TIP3    H266436   6.737   9.944   3.422  0.7900  0.1666 -1.7621
21852TIP3   OH266437   3.980   5.243   0.776 -0.1161 -0.2994  0.1971
21852TIP3    H166438   4.021   5.282   0.698  0.2582 -1.6797 -0.3217
21852TIP3    H266439   4.040   5.174   0.802 -1.0261 -0.8860  0.7755
21853TIP3   OH266440   3.062   7.034   3.249 -0.3161 -0.0527 -0.2077
21853TIP3    H166441   3.017   7.060   3.168 -0.2477  3.0663  0.6616
21853TIP3    H266442   3.153   7.020   3.222 -0.5987 -0.5704 -0.9284
21854TIP3   OH266443  10.831   2.456   0.996 -0.0370 -0.0090 -0.0046
21854TIP3    H166444  10.819   2.435   1.088 -0.8404  0.0180 -0.0881
21854TIP3    H266445  10.910   2.409   0.970 -0.4662 -0.9811  0.4093
21855TIP3   OH266446   3.003   1.719   9.863  0.0979  0.4139  0.2416
21855TIP3    H166447   3.056   1.722   9.783 -0.1603 -1.1821 -0.0358
21855TIP3    H266448   3.052   1.662   9.922 -0.5030  0.2500  0.5898
21856TIP3   OH266449   3.562   7.219   3.173 -0.1689 -0.2631 -0.1196
21856TIP3    H166450   3.576   7.262   3.089 -2.5142 -0.7283 -0.7971
21856TIP3    H266451   3.529   7.289   3.230  1.6987  0.1233  0.5687
21857TIP3   OH266452   4.748   7.438   1.741  0.4232 -0.2445 -0.0205
21857TIP3    H166453   4.798   7.380   1.683 -1.7207 -1.7968 -0.4662
21857TIP3    H266454   4.750   7.394   1.826 -2.7791 -2.2167 -0.7704
21858TIP3   OH266455   1.139   8.405   6.067  0.0170 -0.5004  0.4265
21858TIP3    H166456   1.153   8.460   5.990 -0.1321 -3.0537 -1.5995
21858TIP3    H266457   1.049   8.372   6.057  0.5538 -2.1805  0.7068
21859TIP3   OH266458   2.219   1.905   6.688 -0.3496  0.3007  0.2331
21859TIP3    H166459   2.235   1.825   6.738 -0.2414 -0.0833 -0.4036
21859TIP3    H266460   2.222   1.975   6.753  0.1998 -0.1454  0.6978
21860TIP3   OH266461  10.723   8.923   5.863 -0.3607 -0.3063 -0.1036
21860TIP3    H166462  10.726   8.857   5.794 -0.0074  1.7178 -2.1386
21860TIP3    H266463  10.708   8.873   5.943 -0.9899 -2.7547 -1.6365
21861TIP3   OH266464   9.583   6.716  10.878 -0.4833 -0.2888  0.1340
21861TIP3    H166465   9.658   6.764  10.844 -0.0350  0.0042  1.4641
21861TIP3    H266466   9.529   6.783  10.920 -1.9046 -0.3771 -1.4485
21862TIP3   OH266467   6.648   1.926   0.346 -0.2500  0.3216 -0.2096
21862TIP3    H166468   6.618   1.932   0.255  1.4425 -0.7439 -0.8820
21862TIP3    H266469   6.741   1.947   0.343 -0.2596  0.7430  1.3694
21863TIP3   OH266470   6.893   8.507   4.454  1.0988 -0.6820 -0.8501
21863TIP3    H166471   6.920   8.595   4.426  0.1350  0.3765  1.2826
21863TIP3    H266472   6.957   8.482   4.521  0.6259 -1.0045 -0.5076
21864TIP3   OH266473   4.149   9.412   9.267 -0.1645 -0.9813  0.5480
21864TIP3    H166474   4.175   9.491   9.219 -0.7919 -2.6323 -2.8323
21864TIP3    H266475   4.229   9.382   9.310 -0.2773  2.3245  3.5551
21865TIP3   OH266476   0.446   1.904   6.793  0.4623  0.0711 -0.3697
21865TIP3    H166477   0.438   1.994   6.762  0.4775 -0.0654 -0.7800
21865TIP3    H266478   0.521   1.868   6.745  1.3663  0.2729  0.8508
21866TIP3   OH266479   7.403   0.075   5.458 -0.1438 -0.2549 -0.0118
21866TIP3    H166480   7.362   0.075   5.544  0.1224  0.7874  0.1316
21866TIP3    H266481   7.355   0.141   5.409  0.8546  0.4402 -0.0850
21867TIP3   OH266482   8.900   2.491   5.683  0.0468 -0.2363 -0.5190
21867TIP3    H166483   8.860   2.475   5.597  2.5449  0.2418 -1.8492
21867TIP3    H266484   8.953   2.569   5.671 -0.1367  0.3209  1.7296
21868TIP3   OH266485   6.127   2.403   0.066 -0.3726 -0.3355 -0.2167
21868TIP3    H166486   6.066   2.389   0.139  0.1361 -0.7630  0.1422
21868TIP3    H266487   6.090   2.476   0.017 -0.2902  0.5401  0.9620
21869TIP3   OH266488  10.719   0.449   1.185 -0.1680  0.4911  0.2372
21869TIP3    H166489  10.671   0.433   1.104  0.2748 -0.1450  0.0952
21869TIP3    H266490  10.655   0.433   1.254 -0.3926  0.4873  0.0282
21870TIP3   OH266491   0.766   9.719  10.063 -0.1450 -0.3445 -0.0928
21870TIP3    H166492   0.722   9.713   9.979  1.5923 -1.2568 -0.9995
21870TIP3    H266493   0.792   9.629  10.083  0.1905 -0.0228  0.9966
21871TIP3   OH266494   9.346   5.814   7.820 -0.1544  0.3754 -0.2108
21871TIP3    H166495   9.262   5.768   7.816  0.2155 -0.2372 -2.0379
21871TIP3    H266496   9.390   5.777   7.897 -0.9842 -0.3079 -0.0435
21872TIP3   OH266497   4.580   6.976   9.231 -0.4663 -0.1186  0.3194
21872TIP3    H166498   4.605   6.887   9.205  0.7528 -0.1467  1.4834
21872TIP3    H266499   4.577   6.973   9.327 -2.2358  0.6376  0.3259
21873TIP3   OH266500   2.028   1.906   0.816  0.2775 -0.2149  0.0744
21873TIP3    H166501   1.981   1.845   0.759 -0.4243  0.1691  0.2281
21873TIP3    H266502   1.980   1.902   0.899  0.3983  0.3276  0.1738
21874TIP3   OH266503   7.076   4.411   5.633 -0.2800  0.2654 -0.3104
21874TIP3    H166504   6.986   4.437   5.613 -0.4553 -0.8342 -1.0604
21874TIP3    H266505   7.096   4.456   5.715 -1.7549  0.0289  0.2169
21875TIP3   OH266506  10.902   1.941   0.795  0.2677 -0.1946 -0.0832
21875TIP3    H166507  10.851   2.015   0.827 -0.3760 -0.3505 -0.7184
21875TIP3    H266508  10.873   1.929   0.705  0.0108 -1.5210  0.1507
21876TIP3   OH266509   0.228   0.384  10.211  0.0212 -0.2920  0.0440
21876TIP3    H166510   0.272   0.407  10.292  0.2218 -1.2642  0.2223
21876TIP3    H266511   0.263   0.298  10.188 -0.8396 -0.5133 -0.4852
21877TIP3   OH266512   1.719  10.107   4.054  0.1744  0.4125  0.5285
21877TIP3    H166513   1.679  10.075   3.973  0.9074 -1.4438  0.8451
21877TIP3    H266514   1.800  10.150   4.025  0.7269 -0.7465  0.2671
21878TIP3   OH266515   0.474   9.198   8.271  0.8315 -0.4273  0.1606
21878TIP3    H166516   0.391   9.240   8.247  0.9765 -0.3686 -0.2400
21878TIP3    H266517   0.521   9.189   8.188  0.6679 -1.6811  0.1873
21879TIP3   OH266518   1.368   1.929   6.765 -0.0784  0.7184 -0.3076
21879TIP3    H166519   1.299   1.915   6.700 -0.5667 -0.4424  0.4337
21879TIP3    H266520   1.429   1.856   6.752 -0.8322 -0.2726  1.3145
21880TIP3   OH266521   5.050   9.011   9.494 -0.2555 -0.2345  0.4287
21880TIP3    H166522   5.053   9.007   9.590 -0.4506 -0.7527  0.4149
21880TIP3    H266523   5.098   8.933   9.466  0.8560  0.5450  0.0917
21881TIP3   OH266524   5.099   1.860   5.185 -0.0305  0.2304 -0.3805
21881TIP3    H166525   5.125   1.819   5.268  0.0165 -0.2443 -0.6214
21881TIP3    H266526   5.043   1.933   5.210  0.0356  0.1267  0.0730
21882TIP3   OH266527   4.620   9.106   3.031 -0.4647  0.1632  0.4721
21882TIP3    H166528   4.544   9.155   3.061  0.1980  0.8885  0.9996
21882TIP3    H266529   4.672   9.090   3.110 -0.8658 -1.8116  0.4086
21883TIP3   OH266530   0.365   6.696   5.746 -0.2605 -0.6344  0.3063
21883TIP3    H166531   0.282   6.692   5.793 -1.0821 -1.9993 -1.1723
21883TIP3    H266532   0.354   6.638   5.671  0.8126  1.7151 -1.8603
21884TIP3   OH266533   4.925   6.979   5.878  0.5254  0.4206  0.0510
21884TIP3    H166534   4.872   6.923   5.935 -0.0940  1.3642  0.4250
21884TIP3    H266535   4.902   7.069   5.903  0.5138  0.8645 -1.4390
21885TIP3   OH266536   7.416  10.250   8.016  0.4918  0.5641 -0.1798
21885TIP3    H166537   7.430  10.300   7.935  1.3299 -0.2659 -0.5588
21885TIP3    H266538   7.504  10.228   8.046  0.2135  1.1239  1.1473
21886TIP3   OH266539   1.190   2.009   8.270  0.4375 -0.0002 -0.6064
21886TIP3    H166540   1.152   2.074   8.330  0.7404  0.4973 -0.9470
21886TIP3    H266541   1.114   1.960   8.236  0.1125  0.8052 -1.0766
21887TIP3   OH266542   3.177   5.265   9.374 -0.1021  0.0604  0.7828
21887TIP3    H166543   3.082   5.249   9.380 -0.3102  1.2391  0.8330
21887TIP3    H266544   3.187   5.357   9.397  1.2508 -0.4512  2.4174
21888TIP3   OH266545   7.277   3.955   8.942 -0.5599  0.2028 -0.7591
21888TIP3    H166546   7.298   3.975   9.033 -2.8692 -3.5807  0.8648
21888TIP3    H266547   7.358   3.920   8.906 -0.1577 -0.2559  0.5412
21889TIP3   OH266548   8.556   4.376   3.435 -0.0748  0.1132  0.2743
21889TIP3    H166549   8.528   4.288   3.407 -0.1513  0.3613 -0.4579
21889TIP3    H266550   8.497   4.435   3.389  0.1400  0.5577  0.5686
21890TIP3   OH266551  10.108   0.549   9.871  0.1949 -0.4495  0.2770
21890TIP3    H166552  10.160   0.517   9.797 -0.3902 -1.2648  0.2140
21890TIP3    H266553  10.089   0.471   9.923 -0.1865 -0.0158  0.8000
21891TIP3   OH266554   2.651   1.729   7.304  0.1669 -0.3709  0.0864
21891TIP3    H166555   2.617   1.727   7.215  0.7140  1.5618 -0.2180
21891TIP3    H266556   2.719   1.662   7.306 -0.0880 -0.6706 -0.8277
21892TIP3   OH266557   9.766   6.463   1.169  0.1331  0.2236  0.0493
21892TIP3    H166558   9.714   6.509   1.235 -0.1715 -0.7549  0.5092
21892TIP3    H266559   9.715   6.473   1.088  0.3408  1.1379  0.0134
21893TIP3   OH266560   1.312   1.484   8.964 -0.3399 -0.4795  0.0530
21893TIP3    H166561   1.401   1.508   8.990 -0.8122 -0.0733  1.3405
21893TIP3    H266562   1.299   1.530   8.881  0.7653 -0.8220 -0.3338
21894TIP3   OH266563   2.057   0.676   2.330  0.6355  0.0406 -0.2095
21894TIP3    H166564   2.134   0.678   2.387  0.6081  1.7419 -0.1826
21894TIP3    H266565   2.013   0.594   2.352  0.8489  0.4527  1.9295
21895TIP3   OH266566   2.640   9.377  10.307 -0.4292 -0.0233  0.4417
21895TIP3    H166567   2.591   9.411  10.382 -2.3699  0.1366 -0.8293
21895TIP3    H266568   2.600   9.291  10.290  0.1603 -0.1698 -0.2503
21896TIP3   OH266569   2.857   7.693   3.702 -0.2593 -0.0123 -0.0843
21896TIP3    H166570   2.789   7.667   3.640  0.0905  0.7008 -0.7930
21896TIP3    H266571   2.936   7.649   3.670 -0.2491 -0.3171  0.3533
21897TIP3   OH266572   5.170  10.833   6.942 -0.0571  0.1232 -0.0905
21897TIP3    H166573   5.152  10.886   7.020 -2.0423 -1.1689  0.4245
21897TIP3    H266574   5.208  10.894   6.879 -2.1327  2.1864  0.4929
21898TIP3   OH266575   2.206   8.594  10.596 -0.3504 -0.0238 -0.6596
21898TIP3    H166576   2.236   8.683  10.574 -2.7843  0.6974 -1.3662
21898TIP3    H266577   2.202   8.549  10.511 -1.2091 -0.1082 -0.5751
21899TIP3   OH266578  10.187   2.301   4.659 -0.7958 -0.5117  0.3985
21899TIP3    H166579  10.101   2.295   4.701 -2.3099 -0.2566 -2.4448
21899TIP3    H266580  10.220   2.211   4.658 -1.6549 -0.8303  0.3130
21900TIP3   OH266581   3.491   7.143   9.316  0.2379  0.1868 -0.1682
21900TIP3    H166582   3.442   7.199   9.376 -0.0047  0.8635 -0.9825
21900TIP3    H266583   3.546   7.089   9.373 -0.2603  0.5490  0.6740
21901TIP3   OH266584   0.153  10.284   2.727  0.2220 -0.3412  0.5399
21901TIP3    H166585   0.102  10.307   2.650  1.4206  0.8212  0.0673
21901TIP3    H266586   0.089  10.281   2.798 -0.3982  1.9660  0.1414
21902TIP3   OH266587   6.688   4.802   2.558  0.0372 -0.1881  0.3176
21902TIP3    H166588   6.727   4.726   2.600  1.9434 -0.9819 -2.6203
21902TIP3    H266589   6.748   4.874   2.578 -0.7627  0.1696  1.5238
21903TIP3   OH266590   8.968   5.998   9.445  0.3168 -0.3609  1.1057
21903TIP3    H166591   9.025   6.075   9.438  0.3504 -0.2956  2.0169
21903TIP3    H266592   8.983   5.966   9.534 -0.7477 -0.5975  1.2039
21904TIP3   OH266593   0.995   7.731   7.587 -0.1241 -0.0009 -0.3339
21904TIP3    H166594   1.052   7.808   7.587 -1.3062  0.8996 -1.0510
21904TIP3    H266595   1.002   7.695   7.499  2.2315 -2.1595  0.6146
21905TIP3   OH266596   4.153  10.292   2.505 -0.2823 -0.2399  0.7102
21905TIP3    H166597   4.098  10.265   2.431  0.3904  1.1427 -0.3533
21905TIP3    H266598   4.095  10.290   2.581 -0.3508 -4.3664  0.7607
21906TIP3   OH266599   5.289   9.027   4.253 -0.2133  0.2954  0.5547
21906TIP3    H166600   5.263   8.942   4.218  0.4092 -0.5760  2.0942
21906TIP3    H266601   5.385   9.024   4.253 -0.1832  1.1004  0.4069
21907TIP3   OH266602  10.218   4.110   8.842  1.1649 -0.0373 -0.3242
21907TIP3    H166603  10.242   4.202   8.843  2.8409 -0.4429 -0.0163
21907TIP3    H266604  10.149   4.103   8.776 -0.9631  1.8535  1.5240
21908TIP3   OH266605   9.187   4.297   3.821  0.0389  0.2843 -0.4243
21908TIP3    H166606   9.173   4.203   3.835  1.2189  0.4326  2.7804
21908TIP3    H266607   9.277   4.303   3.791 -0.4934  0.3586 -2.0781
21909TIP3   OH266608   7.172   4.158   5.110  0.2821 -0.2891 -0.0065
21909TIP3    H166609   7.208   4.069   5.113  2.7018  0.6439  1.7116
21909TIP3    H266610   7.249   4.215   5.101 -0.8981  1.7564  1.7856
21910TIP3   OH266611   3.805   1.471   0.430 -0.6288 -0.7483  0.0601
21910TIP3    H166612   3.769   1.478   0.519 -0.8168  0.3719 -0.1002
21910TIP3    H266613   3.764   1.543   0.382 -0.5530 -1.3693 -0.9516
21911TIP3   OH266614   9.922   9.695   6.506 -0.7717 -0.7204  0.3768
21911TIP3    H166615  10.012   9.727   6.494 -0.8629 -0.7395 -0.4120
21911TIP3    H266616   9.891   9.739   6.585 -0.8188  0.9739 -0.5413
21912TIP3   OH266617   2.803   4.009   4.505  0.2981 -0.2769 -0.4279
21912TIP3    H166618   2.732   4.022   4.442  0.6299  0.7977 -0.5954
21912TIP3    H266619   2.863   3.948   4.462  0.8877  1.0074 -1.4693
21913TIP3   OH266620   2.568   8.887   2.192  0.1226  0.1692  0.3413
21913TIP3    H166621   2.601   8.823   2.130 -1.1166  0.6429 -0.8614
21913TIP3    H266622   2.554   8.837   2.273 -1.1277 -1.1882 -0.6579
21914TIP3   OH266623   6.145   9.145   5.648 -0.2250  0.0374  0.4347
21914TIP3    H166624   6.172   9.144   5.556  0.3136 -0.7162  0.5920
21914TIP3    H266625   6.131   9.053   5.670 -0.0535  0.1883  1.1916
21915TIP3   OH266626   0.022  10.068  10.451  0.6767 -0.1192  0.3359
21915TIP3    H166627   0.015  10.103  10.362 -0.4635  2.5062  1.3677
21915TIP3    H266628  -0.063  10.027  10.468 -0.1117  1.7096  1.0608
21916TIP3   OH266629   3.351   4.004   1.638  0.1120  0.4074  0.0843
21916TIP3    H166630   3.403   4.009   1.718  1.0828 -1.6612 -0.3538
21916TIP3    H266631   3.296   3.927   1.649 -0.8916  0.9872 -0.6202
21917TIP3   OH266632   4.677   7.630   7.147  0.2029 -0.1174 -0.1011
21917TIP3    H166633   4.588   7.631   7.180 -0.2208 -0.2508 -1.1854
21917TIP3    H266634   4.669   7.655   7.055  1.0932 -1.5079 -0.5966
21918TIP3   OH266635   2.791   7.640   1.158 -0.1412  0.3507 -0.2902
21918TIP3    H166636   2.697   7.633   1.172  0.3202 -2.8338  2.3096
21918TIP3    H266637   2.806   7.732   1.139 -3.8219  0.8205 -1.6283
21919TIP3   OH266638   9.167   6.548   0.107  0.3832 -0.7063  0.1353
21919TIP3    H166639   9.106   6.596   0.163 -0.5356  1.9275 -2.8285
21919TIP3    H266640   9.125   6.462   0.094 -0.1793 -0.7650  2.0352
21920TIP3   OH266641   4.955  10.606   2.659  0.0033 -0.3885  0.3061
21920TIP3    H166642   5.042  10.573   2.679  0.0307 -0.4531  0.0794
21920TIP3    H266643   4.925  10.645   2.741  0.3942 -0.0344  0.2821
21921TIP3   OH266644   2.942   6.001   0.346  0.1300 -0.4619  0.0569
21921TIP3    H166645   3.020   6.055   0.357  1.2889 -2.5321  3.4315
21921TIP3    H266646   2.972   5.924   0.297 -0.5840  0.0708 -1.2758
21922TIP3   OH266647   1.409   0.098   9.600 -0.1123  0.1910 -0.2081
21922TIP3    H166648   1.376   0.045   9.528  1.3882  1.3707 -1.8533
21922TIP3    H266649   1.501   0.113   9.578 -0.0960  2.1281  1.0000
21923TIP3   OH266650   6.341   6.215   9.112  0.1501  0.1260  0.3619
21923TIP3    H166651   6.288   6.254   9.043  1.0122  1.0784  0.2146
21923TIP3    H266652   6.280   6.160   9.161 -0.4279 -0.7508 -1.2694
21924TIP3   OH266653   3.010   4.865   9.034  0.2477  0.4625 -0.3817
21924TIP3    H166654   3.083   4.925   9.018  0.3703  0.6978  0.9204
21924TIP3    H266655   3.049   4.792   9.081 -0.3489  0.6284  0.3948
21925TIP3   OH266656  10.488   0.182   8.360 -0.0254  0.2552 -0.3135
21925TIP3    H166657  10.565   0.195   8.415  0.1575 -0.7025 -0.3237
21925TIP3    H266658  10.439   0.113   8.404  0.2713 -0.7382 -1.5046
21926TIP3   OH266659   5.522   7.284   7.212  0.3996  0.0844 -0.5945
21926TIP3    H166660   5.598   7.337   7.190  0.4729  0.3016  0.1559
21926TIP3    H266661   5.453   7.347   7.232  0.5448 -0.0768  0.5118
21927TIP3   OH266662   1.513   4.091   8.888  0.2818  0.3750  0.0563
21927TIP3    H166663   1.539   4.003   8.917  0.5762  0.7562  1.0015
21927TIP3    H266664   1.549   4.150   8.955  0.5693  1.2679 -0.8500
21928TIP3   OH266665   9.740   2.052   8.545  0.2691 -0.0782 -0.7383
21928TIP3    H166666   9.692   2.089   8.471  1.1926  0.5609 -1.0503
21928TIP3    H266667   9.831   2.048   8.515  0.9272  1.5098  0.7956
21929TIP3   OH266668   9.281   3.047  10.552 -0.4279  0.6495  0.5133
21929TIP3    H166669   9.320   3.123  10.596  2.1177 -0.2830  0.0516
21929TIP3    H266670   9.248   3.082  10.469  2.0876  1.0814 -0.3877
21930TIP3   OH266671   5.725   3.480   9.973 -0.6541  0.4602  0.0406
21930TIP3    H166672   5.726   3.394  10.015 -0.4858 -0.2547 -1.3838
21930TIP3    H266673   5.651   3.525  10.014 -0.7977 -0.3808  0.7512
21931TIP3   OH266674   2.031   3.699   2.325 -1.0035 -0.3948  0.5316
21931TIP3    H166675   2.038   3.697   2.420 -1.6680  0.8501  0.6256
21931TIP3    H266676   1.944   3.665   2.306  0.1110 -3.3452  0.1499
21932TIP3   OH266677   1.962   1.467   8.704 -0.3847  0.3558 -0.1142
21932TIP3    H166678   1.946   1.461   8.610 -1.4928 -1.7151  0.1464
21932TIP3    H266679   2.052   1.439   8.715  0.7443  3.3477 -0.7513
21933TIP3   OH266680   7.505   9.888   4.139  0.2816  0.1703 -0.0219
21933TIP3    H166681   7.416   9.891   4.105 -0.0467  3.6749  0.8496
21933TIP3    H266682   7.538   9.803   4.110 -3.7826 -2.0095  0.9660
21934TIP3   OH266683   8.537   7.867   5.671 -0.1889 -0.2549  0.0938
21934TIP3    H166684   8.444   7.849   5.660 -0.1450 -1.8515  1.7849
21934TIP3    H266685   8.559   7.829   5.756  2.3087 -1.2792 -0.8925
21935TIP3   OH266686   6.434   0.916   4.523 -0.1188 -0.7038 -0.5710
21935TIP3    H166687   6.365   0.853   4.545  1.3218 -1.9865  0.5282
21935TIP3    H266688   6.421   0.988   4.584 -0.1975 -1.1760 -0.0142
21936TIP3   OH266689  10.764   8.590   7.434 -0.3429  0.4511  0.6302
21936TIP3    H166690  10.813   8.508   7.436  0.2699  0.8156  1.8855
21936TIP3    H266691  10.672   8.563   7.429 -0.0884 -0.2709 -0.3778
21937TIP3   OH266692   6.113   3.139   1.884 -0.3541 -0.5530  0.4381
21937TIP3    H166693   6.152   3.223   1.861 -1.5556  0.5387  2.1439
21937TIP3    H266694   6.086   3.101   1.800  1.0528  0.3013 -0.4376
21938TIP3   OH266695   9.911   0.350   5.763  0.0812  0.0271 -0.2205
21938TIP3    H166696   9.957   0.266   5.773 -1.6064 -0.8177  1.1124
21938TIP3    H266697   9.827   0.326   5.725 -0.2337  1.1999 -0.2894
21939TIP3   OH266698   6.249   6.352   0.672  0.2719  0.2094 -0.2219
21939TIP3    H166699   6.344   6.363   0.668  0.5465 -0.9007  1.7567
21939TIP3    H266700   6.221   6.409   0.743 -0.5442  0.4659 -0.7362
21940TIP3   OH266701   0.007   8.904   9.709 -0.2000 -0.2950 -0.1768
21940TIP3    H166702   0.080   8.966   9.702 -2.1376  1.9207 -2.7983
21940TIP3    H266703   0.027   8.837   9.643 -0.5686  0.3959 -1.0052
21941TIP3   OH266704   4.766   6.616   1.895  0.3194 -0.0219 -0.6608
21941TIP3    H166705   4.753   6.708   1.872 -2.9399  0.2701  1.5835
21941TIP3    H266706   4.719   6.567   1.827  0.1168  0.1311 -0.6312
21942TIP3   OH266707   1.780   6.455   1.186  0.3172  0.1973  0.0830
21942TIP3    H166708   1.694   6.498   1.187 -1.0042 -2.2589  0.6911
21942TIP3    H266709   1.825   6.495   1.112 -2.0247  0.3822 -1.3624
21943TIP3   OH266710   8.113   4.825   2.487  0.3827  0.3836  0.1416
21943TIP3    H166711   8.049   4.873   2.539 -0.5850  2.2087 -2.5141
21943TIP3    H266712   8.166   4.894   2.446  0.8479 -0.9085 -1.5228
21944TIP3   OH266713   6.537   7.947   5.339 -0.1648  0.1349 -0.2131
21944TIP3    H166714   6.483   8.021   5.367  1.1446  1.0250  0.0041
21944TIP3    H266715   6.627   7.976   5.352  0.4430 -0.6649 -2.2030
21945TIP3   OH266716   1.663   8.140   9.530  0.1182  0.2024  0.2982
21945TIP3    H166717   1.600   8.096   9.473  0.6889 -0.5027  0.1911
21945TIP3    H266718   1.671   8.081   9.606  0.7349  0.2204  0.2501
21946TIP3   OH266719   2.802   7.535   7.626  0.2075 -0.6322 -0.0846
21946TIP3    H166720   2.863   7.530   7.700 -1.7923 -2.1853  1.6033
21946TIP3    H266721   2.746   7.610   7.647 -0.6893 -1.3879  0.2966
21947TIP3   OH266722   5.909  10.476   9.218 -0.2349  0.4513 -0.3860
21947TIP3    H166723   5.936  10.566   9.198  2.9922 -0.0951  0.9592
21947TIP3    H266724   5.907  10.432   9.133  2.9046  0.6948 -0.6882
21948TIP3   OH266725   7.733   2.427   7.159  0.6479  0.2302 -0.3060
21948TIP3    H166726   7.723   2.334   7.182 -0.5231  0.2111 -0.8191
21948TIP3    H266727   7.692   2.435   7.073 -0.0196  1.3782  0.1001
21949TIP3   OH266728   9.780   9.824   2.678  0.7372  0.5436 -0.4025
21949TIP3    H166729   9.777   9.912   2.714 -0.8906  0.2965  0.1868
21949TIP3    H266730   9.767   9.836   2.584 -0.0606  0.9230 -0.2571
21950TIP3   OH266731   5.118   6.358   7.959  0.3404 -0.1230 -0.4716
21950TIP3    H166732   5.155   6.315   7.882  0.1103  0.7278 -1.0698
21950TIP3    H266733   5.166   6.441   7.965 -0.7058  0.4989 -0.6006
21951TIP3   OH266734  10.747   7.657  10.784 -0.0832  0.4728 -0.0363
21951TIP3    H166735  10.661   7.642  10.822  0.0823  1.1683  0.6529
21951TIP3    H266736  10.729   7.703  10.702 -0.3943  0.0425 -0.2102
21952TIP3   OH266737   6.198   8.449   1.250  0.2330 -0.1928  0.1133
21952TIP3    H166738   6.254   8.467   1.174 -0.8571  0.7923 -0.4880
21952TIP3    H266739   6.116   8.493   1.230 -0.1133  0.0033  1.8406
21953TIP3   OH266740   0.067   2.967   0.921  0.5964  0.0110  0.3266
21953TIP3    H166741   0.100   2.905   0.857 -1.3840 -0.4601 -0.3136
21953TIP3    H266742   0.103   2.937   1.005  1.0621 -0.9569 -0.2122
21954TIP3   OH266743   4.218   7.934  10.857  0.3250 -0.2740  0.0415
21954TIP3    H166744   4.248   7.958  10.945  1.7207  0.4582 -0.6003
21954TIP3    H266745   4.256   7.848  10.840  0.0998 -0.3915  0.1278
21955TIP3   OH266746   5.804   1.562   4.884 -0.1144 -0.1495  0.2635
21955TIP3    H166747   5.740   1.632   4.894 -2.2979 -2.1168  0.7851
21955TIP3    H266748   5.780   1.497   4.951  1.5039 -1.6332 -0.5145
21956TIP3   OH266749   1.700   1.948   5.237  0.5914 -0.5389  0.0458
21956TIP3    H166750   1.732   1.874   5.186 -0.4001 -0.7385 -0.3217
21956TIP3    H266751   1.605   1.946   5.224  0.5281  0.6475  0.2309
21957TIP3   OH266752   6.597   8.644   0.865 -0.0376 -0.4107  0.5950
21957TIP3    H166753   6.666   8.710   0.863 -1.3658  1.0756  0.8882
21957TIP3    H266754   6.638   8.567   0.904  1.7166  0.0477 -0.2334
21958TIP3   OH266755   7.472   0.482   0.257 -0.4967 -0.3178  0.2170
21958TIP3    H166756   7.456   0.438   0.340  0.2703  1.6159  1.4503
21958TIP3    H266757   7.509   0.567   0.281 -0.7273  0.5129 -2.0846
21959TIP3   OH266758   9.927   5.868   8.186  0.1088  0.0103  0.5029
21959TIP3    H166759   9.891   5.917   8.111  1.2911 -1.9909 -1.5213
21959TIP3    H266760  10.020   5.861   8.167  0.4005 -0.7771  2.0843
21960TIP3   OH266761  10.532  10.123   1.955 -0.0158  0.7400  0.0021
21960TIP3    H166762  10.514  10.123   1.861 -0.8565 -0.3597  0.1401
21960TIP3    H266763  10.612  10.073   1.965  0.9648  2.1882 -0.2438
21961TIP3   OH266764   1.354   3.680   2.685  0.1148 -0.3521 -0.1087
21961TIP3    H166765   1.296   3.743   2.643  0.0761 -0.6863 -0.5575
21961TIP3    H266766   1.406   3.732   2.746 -1.6769 -0.2256  1.4431
21962TIP3   OH266767   4.212   0.927   1.758 -0.8433  0.5572  0.6211
21962TIP3    H166768   4.132   0.883   1.730 -0.6142  1.0345 -0.8835
21962TIP3    H266769   4.194   1.020   1.747  0.0207  0.6560 -0.0597
21963TIP3   OH266770   5.532   0.306   5.090  0.4302  0.0225 -0.1998
21963TIP3    H166771   5.598   0.328   5.156  2.3599 -0.1412 -1.9751
21963TIP3    H266772   5.568   0.231   5.043 -1.4551 -0.6451 -0.6980
21964TIP3   OH266773   9.645   2.186   8.996 -0.1018 -0.2190 -0.3031
21964TIP3    H166774   9.656   2.092   9.003 -1.2276 -0.2443  2.9287
21964TIP3    H266775   9.735   2.221   8.997  0.3043 -1.2242 -0.7766
21965TIP3   OH266776   8.845  10.110   8.427 -0.1586  0.4198 -0.1046
21965TIP3    H166777   8.884  10.191   8.395  1.5528 -0.1841  0.3202
21965TIP3    H266778   8.811  10.067   8.349  1.2634  0.3545 -0.7091
21966TIP3   OH266779   0.186   5.914  10.222  0.1001  0.2239 -0.0447
21966TIP3    H166780   0.239   5.834  10.231  0.5680  0.5502  0.1205
21966TIP3    H266781   0.101   5.890  10.260 -0.2061 -0.6075 -1.1903
21967TIP3   OH266782   6.735   2.374   5.159 -0.3311 -0.2461  0.1156
21967TIP3    H166783   6.750   2.467   5.172 -1.2828 -0.0532 -0.1012
21967TIP3    H266784   6.707   2.366   5.068  1.4204 -0.9728 -0.3914
21968TIP3   OH266785   7.467   7.906   2.386 -0.1589 -0.3652 -0.1978
21968TIP3    H166786   7.437   7.820   2.356  1.3265 -0.9756 -0.0311
21968TIP3    H266787   7.466   7.960   2.307 -0.0765 -0.8389 -0.5294
21969TIP3   OH266788   9.560   2.433   8.309  0.0658  0.9136  0.2305
21969TIP3    H166789   9.491   2.420   8.244  1.6700  0.1980 -1.4312
21969TIP3    H266790   9.515   2.433   8.393 -1.7810 -0.8848 -0.6915
21970TIP3   OH266791  10.554   7.649   3.793  0.0256 -0.2319 -0.2987
21970TIP3    H166792  10.470   7.623   3.832  0.1176  0.0264  0.0752
21970TIP3    H266793  10.559   7.743   3.810  0.3610 -0.2357 -0.3859
21971TIP3   OH266794   7.554   4.182   8.020 -0.4632 -0.6266  0.1307
21971TIP3    H166795   7.531   4.271   8.048  0.7812 -0.0457 -0.6332
21971TIP3    H266796   7.486   4.159   7.956 -1.1459 -0.4791  0.7901
21972TIP3   OH266797   3.344   3.879   6.336 -0.4461 -0.1612 -0.1256
21972TIP3    H166798   3.286   3.817   6.291  0.4386 -0.1512 -1.3407
21972TIP3    H266799   3.425   3.830   6.350 -0.2288  0.2847  0.1731
21973TIP3   OH266800   4.199  10.733   1.245 -0.0721  0.1345 -0.3422
21973TIP3    H166801   4.121  10.783   1.268 -0.3942 -0.3091 -0.4413
21973TIP3    H266802   4.263  10.798   1.216  0.1317  0.6702  1.2087
21974TIP3   OH266803   1.936   6.310   6.411  0.1545 -0.2299  0.1859
21974TIP3    H166804   2.012   6.252   6.403  0.4794  0.3138 -0.8435
21974TIP3    H266805   1.968   6.396   6.383 -0.7596  0.0708  0.0294
21975TIP3   OH266806   0.297   0.282   2.215 -0.2744  0.1563  0.4479
21975TIP3    H166807   0.339   0.291   2.130 -0.0264  1.8661  0.7135
21975TIP3    H266808   0.205   0.301   2.199 -0.4097 -0.5107  0.4032
21976TIP3   OH266809   2.571   5.292   1.836 -0.2921  0.2501  0.3586
21976TIP3    H166810   2.619   5.282   1.754  1.2253  2.8358  0.8075
21976TIP3    H266811   2.501   5.354   1.815  0.1290  0.9595  0.9817
21977TIP3   OH266812   3.676   8.313  10.052  0.6629  0.3332 -0.3436
21977TIP3    H166813   3.622   8.283   9.979 -0.4592 -1.8505  1.2877
21977TIP3    H266814   3.617   8.369  10.103 -0.1169 -1.9083  1.3407
21978TIP3   OH266815   3.040   8.459   2.335 -0.4910 -0.1143 -0.2438
21978TIP3    H166816   2.986   8.523   2.382  2.5333  0.2456  3.1107
21978TIP3    H266817   3.023   8.376   2.380  1.8777  0.0860  1.1828
21979TIP3   OH266818   2.155   0.792   5.690 -0.6990 -0.2421 -0.0722
21979TIP3    H166819   2.212   0.756   5.758  0.6248  2.7408  0.5972
21979TIP3    H266820   2.215   0.818   5.620 -1.4308  1.1244 -0.2389
21980TIP3   OH266821   6.648  10.829   6.616  0.4471  0.1703 -0.3267
21980TIP3    H166822   6.620  10.915   6.588  1.4668  0.8766  0.7225
21980TIP3    H266823   6.690  10.844   6.701 -0.6630 -1.5644  0.5925
21981TIP3   OH266824   6.802   2.368   6.830  0.2402 -0.0453  0.2351
21981TIP3    H166825   6.863   2.324   6.889 -2.0395 -2.2644  1.1121
21981TIP3    H266826   6.793   2.307   6.756 -1.2308 -0.0254  0.3632
21982TIP3   OH266827   5.188   9.492   2.693  0.0681  0.1840  0.1845
21982TIP3    H166828   5.219   9.580   2.669  0.3554 -0.4967 -2.0913
21982TIP3    H266829   5.110   9.509   2.747  1.4347  1.8378  1.7703
21983TIP3   OH266830   2.590   2.287   8.595  0.2083 -0.5174 -0.6131
21983TIP3    H166831   2.513   2.315   8.644 -0.5424 -2.5913 -0.5111
21983TIP3    H266832   2.588   2.341   8.515  0.5855  1.7947  0.8360
21984TIP3   OH266833   3.589   7.545   8.179 -0.2750  0.2619  0.0029
21984TIP3    H166834   3.597   7.563   8.273  1.1975  0.6951 -0.1974
21984TIP3    H266835   3.610   7.627   8.136  0.9465 -0.4211 -0.7559
21985TIP3   OH266836   7.136   6.420   8.579  0.2325  0.4458  0.5837
21985TIP3    H166837   7.230   6.422   8.559  0.1484  0.5907  0.1850
21985TIP3    H266838   7.107   6.335   8.545 -0.2297  1.3449 -1.4645
21986TIP3   OH266839   8.739  10.765   6.112 -0.1422  0.0502  0.1199
21986TIP3    H166840   8.686  10.840   6.084 -1.4931 -1.1256 -0.5832
21986TIP3    H266841   8.819  10.804   6.146 -0.4323  1.7780 -1.0518
21987TIP3   OH266842   4.011   5.196   3.873 -0.1766  0.2515  0.2013
21987TIP3    H166843   4.027   5.281   3.833 -1.8376  0.9572  0.9647
21987TIP3    H266844   4.098   5.168   3.904  0.2153  2.3121  1.1566
21988TIP3   OH266845   3.789   8.613   6.940 -0.6703  0.4088 -0.2134
21988TIP3    H166846   3.846   8.685   6.965 -0.8866  0.3701  0.4371
21988TIP3    H266847   3.796   8.607   6.845  1.3077 -0.3503 -0.0599
21989TIP3   OH266848   1.351   7.839   5.653  0.3678 -0.2086 -0.2023
21989TIP3    H166849   1.271   7.879   5.617  0.0486 -0.9236 -0.3069
21989TIP3    H266850   1.340   7.845   5.748 -0.1608 -0.9627 -0.2065
21990TIP3   OH266851   3.295   8.593   4.603  0.7964  0.0765 -0.0346
21990TIP3    H166852   3.290   8.575   4.697  1.5892 -0.3490 -0.0630
21990TIP3    H266853   3.373   8.545   4.574  0.2190 -0.2744 -1.0265
21991TIP3   OH266854   7.607  10.716   4.721 -0.4669  0.1650 -0.3285
21991TIP3    H166855   7.574  10.699   4.633  0.2810  0.1192 -0.6065
21991TIP3    H266856   7.597  10.632   4.766 -0.4943  0.0828 -0.4852
21992TIP3   OH266857   0.217   9.897   5.839  0.4311  0.0278  0.3005
21992TIP3    H166858   0.230   9.949   5.919  1.0977 -1.5812  1.2826
21992TIP3    H266859   0.126   9.915   5.813  0.0884  0.3098  1.6212
21993TIP3   OH266860   6.039   0.152   0.624 -0.1709  0.1201  0.4231
21993TIP3    H166861   5.952   0.183   0.649  0.5853  1.9822  0.8780
21993TIP3    H266862   6.092   0.164   0.702  1.2012  1.9251 -0.7048
21994TIP3   OH266863   3.922   8.202   2.798 -0.3758 -0.4641  0.3687
21994TIP3    H166864   4.008   8.206   2.839 -0.1387 -0.3199 -0.1330
21994TIP3    H266865   3.875   8.278   2.833  0.2208  0.3195 -0.4929
21995TIP3   OH266866   8.472   6.937  10.322 -0.2033 -0.0275 -0.2086
21995TIP3    H166867   8.442   7.015  10.276  0.7338  0.7020  0.3616
21995TIP3    H266868   8.537   6.899  10.263 -0.3850 -0.1641 -0.3206
21996TIP3   OH266869   4.731   3.947   8.149 -0.3274 -0.2342 -0.0184
21996TIP3    H166870   4.710   4.033   8.186 -0.2616 -0.0428 -0.4170
21996TIP3    H266871   4.783   3.967   8.070 -0.7945 -0.6165 -0.4286
21997TIP3   OH266872   0.220   5.853   6.300  0.1367  0.3286 -0.6390
21997TIP3    H166873   0.283   5.782   6.289 -0.7369 -0.1609 -3.1974
21997TIP3    H266874   0.160   5.821   6.367  1.2278 -0.2137  0.1052
21998TIP3   OH266875   8.122   9.115   4.680  0.1035 -0.0720 -0.3022
21998TIP3    H166876   8.039   9.107   4.633  0.4049  0.9545 -1.0525
21998TIP3    H266877   8.103   9.171   4.755  0.2750  0.8815 -0.9465
21999TIP3   OH266878   7.923   8.389   6.479 -0.6415 -0.3380 -0.0671
21999TIP3    H166879   7.851   8.403   6.540 -1.2836 -0.5351 -0.7815
21999TIP3    H266880   7.938   8.294   6.480 -0.4155 -0.3040  0.0340
22000TIP3   OH266881   0.530   6.823   0.688 -0.0520  0.4419 -0.4300
22000TIP3    H166882   0.579   6.743   0.703 -0.8829  0.1880  1.1361
22000TIP3    H266883   0.578   6.890   0.736 -1.0698  0.2262  0.9616
22001TIP3   OH266884   6.744   4.576   1.737 -1.1948 -0.4786 -0.0757
22001TIP3    H166885   6.680   4.533   1.794 -1.0157  0.4177  0.8264
22001TIP3    H266886   6.731   4.669   1.752  0.7636 -0.2820  0.6523
22002TIP3   OH266887   5.325   8.472   3.988  0.3798 -0.3609 -0.5192
22002TIP3    H166888   5.278   8.403   4.034  0.3904 -0.5524 -0.7947
22002TIP3    H266889   5.289   8.471   3.899  0.9322 -0.5409 -0.7482
22003TIP3   OH266890   4.049   4.085   8.298 -0.1180  0.0824 -0.0767
22003TIP3    H166891   4.115   4.067   8.231  0.9213 -0.5234  1.0638
22003TIP3    H266892   4.099   4.118   8.372 -0.8009 -2.2247  1.5373
22004TIP3   OH266893   4.106   0.383   1.809 -0.0220  0.2653 -0.1577
22004TIP3    H166894   4.102   0.402   1.902 -0.0736 -1.3932  0.1961
22004TIP3    H266895   4.187   0.425   1.780  0.4460  0.0607  0.8140
22005TIP3   OH266896   4.042   2.370   5.651 -0.0621 -0.3624 -0.1489
22005TIP3    H166897   4.109   2.349   5.586 -0.1247 -0.1989 -0.2680
22005TIP3    H266898   3.971   2.309   5.633  1.9855 -4.2675  3.2421
22006TIP3   OH266899   8.490   8.016   9.320 -0.4433  0.1010  0.5000
22006TIP3    H166900   8.525   8.024   9.409  1.3773 -0.0705 -0.1543
22006TIP3    H266901   8.520   7.930   9.291 -0.3525  0.4711 -0.5406
22007TIP3   OH266902   0.156   9.185   1.230  0.1624  0.2973  0.4648
22007TIP3    H166903   0.077   9.140   1.200 -0.1410 -0.1338  1.8071
22007TIP3    H266904   0.123   9.261   1.278  0.6118  0.7756  0.0285
22008TIP3   OH266905   0.719   9.429   5.094  0.1754 -0.0440  0.2802
22008TIP3    H166906   0.780   9.408   5.164  1.7963  0.2652 -0.9882
22008TIP3    H266907   0.662   9.352   5.088 -0.3512  0.1281  2.2326
22009TIP3   OH266908   1.083   1.910   9.592  0.5143 -0.1741  0.6122
22009TIP3    H166909   0.991   1.921   9.567  1.1202  2.2765 -0.8565
22009TIP3    H266910   1.085   1.930   9.685 -0.4409 -0.3484  0.6814
22010TIP3   OH266911   3.700   1.572   9.449 -0.0345 -0.2107  0.1096
22010TIP3    H166912   3.643   1.649   9.454 -2.3747 -1.6252 -2.2018
22010TIP3    H266913   3.708   1.543   9.540 -1.9305  0.8356  0.6673
22011TIP3   OH266914   2.180   9.965   9.758 -0.9001  0.6167  0.0487
22011TIP3    H166915   2.103   9.983   9.704 -0.3794  1.2791 -0.5082
22011TIP3    H266916   2.233   9.906   9.705 -2.4782 -2.5633  1.7701
22012TIP3   OH266917   7.546   7.792   5.387 -0.2516 -0.9103 -0.2957
22012TIP3    H166918   7.476   7.856   5.375 -1.0248 -1.6826 -0.0237
22012TIP3    H266919   7.558   7.786   5.482 -0.1574 -1.1333 -0.3195
22013TIP3   OH266920   4.262   3.760   0.807  0.6888  0.1923  0.0393
22013TIP3    H166921   4.354   3.781   0.795  0.1539  3.2796  0.5030
22013TIP3    H266922   4.243   3.785   0.897 -0.9164  1.1230 -0.5168
22014TIP3   OH266923   4.033   2.204   6.286  0.3629 -0.1459  0.0159
22014TIP3    H166924   4.121   2.222   6.317 -0.1601  0.6019  1.1339
22014TIP3    H266925   4.023   2.257   6.208  0.0628  1.7842  1.2964
22015TIP3   OH266926   8.080   8.041   2.496  0.0668 -0.6466 -0.3070
22015TIP3    H166927   8.128   8.007   2.420  0.4908  1.1109 -0.8778
22015TIP3    H266928   8.135   8.020   2.571  2.4787  2.3277 -1.0472
22016TIP3   OH266929   9.108   4.206   1.234 -0.3390 -0.2256 -0.4085
22016TIP3    H166930   9.130   4.114   1.224 -1.3982 -0.2911 -2.7304
22016TIP3    H266931   9.175   4.241   1.293  1.1824 -2.0800 -0.9538
22017TIP3   OH266932   5.201   3.814   3.232 -0.2160  0.3150  0.4484
22017TIP3    H166933   5.236   3.769   3.155 -0.7060  0.9252 -0.1441
22017TIP3    H266934   5.115   3.775   3.246  0.0562 -0.1135  0.9773
22018TIP3   OH266935   6.435   7.538   4.366 -0.2960  0.2592  0.4085
22018TIP3    H166936   6.379   7.614   4.355 -1.7712 -0.7145  0.9356
22018TIP3    H266937   6.415   7.504   4.453  2.1403  0.6543  1.2151
22019TIP3   OH266938   4.085   3.042   5.744  0.0649  0.1990  0.0765
22019TIP3    H166939   4.134   3.093   5.809  2.2774 -2.1069  0.4133
22019TIP3    H266940   4.141   3.043   5.667 -0.3808 -0.7531 -0.2731
22020TIP3   OH266941  10.624   5.809   1.022  0.5389  0.4122 -0.1131
22020TIP3    H166942  10.628   5.718   1.052 -1.2572 -0.0624 -1.2074
22020TIP3    H266943  10.586   5.857   1.095  0.5514  0.1059  0.0953
22021TIP3   OH266944  10.551   2.359  10.852  0.1474 -0.4974  0.2258
22021TIP3    H166945  10.484   2.317  10.798 -0.2967 -2.5087  2.2022
22021TIP3    H266946  10.518   2.447  10.867 -0.7768 -0.6137 -0.9641
22022TIP3   OH266947   7.117   4.716   1.045 -0.4423  0.0034  0.6067
22022TIP3    H166948   7.089   4.797   1.003 -2.3901 -0.1688  1.4460
22022TIP3    H266949   7.095   4.728   1.138 -0.5122 -1.3670  0.7876
22023TIP3   OH266950   2.017   5.663   3.277 -0.4177  0.1177  0.1876
22023TIP3    H166951   1.944   5.601   3.277  0.4047 -0.8930 -0.4371
22023TIP3    H266952   2.084   5.621   3.223  0.7684  0.8447  1.0374
22024TIP3   OH266953   3.619   2.933   1.366  0.4868 -0.7147  0.2147
22024TIP3    H166954   3.651   2.990   1.436 -0.7249  0.4391 -0.1268
22024TIP3    H266955   3.652   2.972   1.285  1.2422 -1.6078  0.0781
22025TIP3   OH266956  10.328   2.122   6.741  0.8587 -0.1756  0.2048
22025TIP3    H166957  10.381   2.163   6.672  0.2894  0.1152 -0.0623
22025TIP3    H266958  10.391   2.107   6.812  1.2445  0.4388  0.0072
22026TIP3   OH266959   4.098   3.103   9.174 -0.4649 -0.6443  0.0379
22026TIP3    H166960   4.033   3.172   9.160 -0.1859 -0.3428  0.1995
22026TIP3    H266961   4.133   3.121   9.262 -1.8148 -2.1764  0.9526
22027TIP3   OH266962   3.609   5.355   6.081 -0.4246  0.1009 -0.1650
22027TIP3    H166963   3.579   5.318   6.164  0.2270 -0.0120  0.0208
22027TIP3    H266964   3.530   5.393   6.042 -0.3402  2.1936  1.5393
22028TIP3   OH266965   9.182   7.464   2.490 -0.1155 -0.6503  0.1153
22028TIP3    H166966   9.142   7.537   2.442  1.5307 -0.0955 -0.4981
22028TIP3    H266967   9.192   7.496   2.579 -0.8095 -0.7136  0.2202
22029TIP3   OH266968   7.237   6.377   0.652 -0.3358 -0.3918  0.0987
22029TIP3    H166969   7.147   6.393   0.681 -0.4507 -0.6857 -0.0825
22029TIP3    H266970   7.273   6.317   0.717 -0.2171 -0.1381  0.2638
22030TIP3   OH266971   2.045  10.099   3.193  0.8248 -0.5007  0.5469
22030TIP3    H166972   2.030  10.158   3.266  0.0719 -0.4810  0.3865
22030TIP3    H266973   2.132  10.124   3.159 -0.1196  1.6185 -0.5271
22031TIP3   OH266974   6.104   1.373  10.385 -0.1847 -0.2862 -0.1863
22031TIP3    H166975   6.028   1.418  10.423 -0.0503 -0.8853  0.8262
22031TIP3    H266976   6.065   1.302  10.333 -0.3293 -0.4875  0.1929
22032TIP3   OH266977   3.363   1.700   7.560  0.0945  0.3634  0.0366
22032TIP3    H166978   3.393   1.672   7.647  0.9013  0.7257 -0.1205
22032TIP3    H266979   3.429   1.761   7.530 -1.4750  2.2467  0.2270
22033TIP3   OH266980  10.739   1.036   3.138  0.0056  0.4345 -0.2982
22033TIP3    H166981  10.751   1.046   3.043 -0.3006 -0.6438 -0.4631
22033TIP3    H266982  10.655   0.991   3.147  0.9074 -1.2014  0.3922
22034TIP3   OH266983  10.496   0.979   9.909  0.8094  0.5649 -0.0263
22034TIP3    H166984  10.536   0.976   9.823 -0.0559  2.1263 -0.5298
22034TIP3    H266985  10.427   0.913   9.906  2.4266 -1.2203  0.4060
22035TIP3   OH266986  10.415   3.075   0.781 -0.2188 -0.7011  0.5136
22035TIP3    H166987  10.497   3.041   0.819  0.7547  0.3922 -0.5281
22035TIP3    H266988  10.382   3.003   0.727  1.6278 -0.2143 -1.3922
22036TIP3   OH266989   2.483   4.790   4.898  0.5162  0.1684  0.3543
22036TIP3    H166990   2.537   4.789   4.977  0.3423 -2.2110  0.5124
22036TIP3    H266991   2.521   4.722   4.843 -1.3639 -0.5050 -0.1758
22037TIP3   OH266992   4.377  10.473   1.009  0.0238  0.3000  0.9012
22037TIP3    H166993   4.294  10.432   1.034  0.3831 -0.5304  0.7590
22037TIP3    H266994   4.358  10.567   1.008 -0.7711  0.1511  1.3950
22038TIP3   OH266995   8.640   2.763   7.510  0.6746  0.0830  0.5960
22038TIP3    H166996   8.681   2.755   7.424  0.1629  1.6637  0.1639
22038TIP3    H266997   8.677   2.692   7.562  1.7447 -0.2895 -0.6360
22039TIP3   OH266998   9.500   3.883   0.315 -0.1575 -0.0902 -0.4718
22039TIP3    H166999   9.485   3.977   0.313 -3.6546 -0.4476  1.2771
22039TIP3    H267000   9.543   3.868   0.399 -1.1353 -0.1539  0.0348
22040TIP3   OH267001   7.056   1.190   1.541  1.0914 -0.0030 -0.8791
22040TIP3    H167002   7.020   1.278   1.534 -1.6576 -1.0952 -1.9528
22040TIP3    H267003   7.149   1.200   1.524  0.9826  2.7529 -0.2704
22041TIP3   OH267004   4.428   2.611   5.695 -0.0122  0.3429 -0.5902
22041TIP3    H167005   4.507   2.631   5.746 -0.1423  0.0160 -0.2538
22041TIP3    H267006   4.397   2.528   5.731 -1.2971  1.1426  0.2330
22042TIP3   OH267007   1.573   7.354  10.252  0.3042 -0.1455  0.1307
22042TIP3    H167008   1.582   7.355  10.347 -0.0956  0.2632  0.1679
22042TIP3    H267009   1.479   7.365  10.236  0.5245  1.3128 -0.3333
22043TIP3   OH267010   4.089  10.064   0.876 -0.2389  0.1690 -0.2416
22043TIP3    H167011   4.067  10.090   0.965 -0.2726 -1.7015  0.3177
22043TIP3    H267012   4.173  10.107   0.858  0.9551 -1.3099  1.5616
22044TIP3   OH267013   9.687   0.252   1.147 -0.6946  0.5613  0.6221
22044TIP3    H167014   9.624   0.184   1.170  0.5585 -0.5205  0.9828
22044TIP3    H267015   9.710   0.292   1.231 -1.6370  1.6496  0.3826
22045TIP3   OH267016   2.282   3.719   0.151 -0.3250 -0.1685  0.1398
22045TIP3    H167017   2.246   3.642   0.107  0.7168 -1.7699  1.9332
22045TIP3    H267018   2.272   3.700   0.245  0.2119  1.7788  0.6351
22046TIP3   OH267019   3.603   2.958   0.107 -0.1543 -0.5134 -0.2735
22046TIP3    H167020   3.664   3.026   0.077 -1.2572  0.7896  0.2973
22046TIP3    H267021   3.587   2.980   0.199 -2.4602 -0.0061 -0.7383
22047TIP3   OH267022   9.507   1.836   8.594  0.1322  0.1379 -0.5381
22047TIP3    H167023   9.429   1.883   8.568  0.2734 -0.4323 -2.0431
22047TIP3    H267024   9.575   1.903   8.602 -0.3394  0.5441  0.1762
22048TIP3   OH267025   2.576   2.584   3.927  0.3261 -0.9637  0.5364
22048TIP3    H167026   2.487   2.620   3.928  0.2860 -1.0446  0.0310
22048TIP3    H267027   2.601   2.585   3.835  0.6043 -1.5553  0.6047
22049TIP3   OH267028   0.525   0.369   0.277 -0.2855 -0.3349  0.7071
22049TIP3    H167029   0.518   0.406   0.189  2.0551  1.1712  1.0545
22049TIP3    H267030   0.436   0.344   0.300 -1.3447  1.3760 -1.1904
22050TIP3   OH267031   1.712   6.189   1.564 -0.4464 -0.0954 -0.1390
22050TIP3    H167032   1.784   6.236   1.522  1.4802 -2.0170  0.7962
22050TIP3    H267033   1.755   6.129   1.625 -2.9529  0.2149  2.1435
22051TIP3   OH267034   2.219   2.780   4.155 -0.3069  0.3074  0.0793
22051TIP3    H167035   2.189   2.837   4.084 -1.0623  0.0900  0.2162
22051TIP3    H267036   2.139   2.743   4.192  0.1502 -0.5822  0.2163
22052TIP3   OH267037   9.378   0.672   5.689  0.1375 -0.0739 -0.0488
22052TIP3    H167038   9.289   0.695   5.714  0.4367 -0.9518  1.9870
22052TIP3    H267039   9.395   0.725   5.611 -1.9920  0.4270 -0.2389
22053TIP3   OH267040   9.570   3.328   9.932 -0.7306 -0.1154  0.6042
22053TIP3    H167041   9.649   3.299   9.887 -2.0113 -2.1698 -0.4925
22053TIP3    H267042   9.590   3.417   9.961  1.5811 -0.1844 -0.5376
22054TIP3   OH267043   4.346   5.234   2.234  0.7876  0.3653  0.1334
22054TIP3    H167044   4.438   5.206   2.229  1.1508  1.2204  1.5541
22054TIP3    H267045   4.322   5.220   2.325  0.0747  1.8798  0.2037
22055TIP3   OH267046   4.451   1.046   8.300 -0.3192 -0.9252 -0.4699
22055TIP3    H167047   4.467   1.102   8.223  0.2643 -0.4879 -0.0390
22055TIP3    H267048   4.538   1.027   8.334 -0.5842 -0.8746  0.2532
22056TIP3   OH267049   7.677   0.482   5.478  0.1521 -0.0907 -0.2393
22056TIP3    H167050   7.710   0.530   5.554 -0.5482  0.4175 -0.2457
22056TIP3    H267051   7.747   0.489   5.413  0.7763 -0.5665  0.3609
22057TIP3   OH267052   2.551   8.388   3.895  0.0003 -0.5203 -0.4752
22057TIP3    H167053   2.625   8.420   3.843  0.0215  0.8989  0.3654
22057TIP3    H267054   2.514   8.317   3.843  0.5142  0.2970 -2.0209
22058TIP3   OH267055   7.433   1.984   3.660  0.2035 -1.0131 -0.2316
22058TIP3    H167056   7.378   1.973   3.738  1.2327 -1.2999  0.4911
22058TIP3    H267057   7.475   1.898   3.649  1.5069 -0.4480  0.0593
22059TIP3   OH267058   2.178  10.575   8.602 -0.5843 -0.0115 -0.7074
22059TIP3    H167059   2.161  10.486   8.634  0.5563  0.2693  0.7778
22059TIP3    H267060   2.156  10.632   8.676 -0.8603  0.9259 -1.4831
22060TIP3   OH267061   4.657  10.610   1.046 -0.5300 -0.6803 -0.5064
22060TIP3    H167062   4.643  10.651   1.132 -1.6647 -2.6218  0.3249
22060TIP3    H267063   4.568  10.587   1.017 -0.0116 -1.8157 -1.2519
22061TIP3   OH267064   1.099   4.969  10.260  0.2349 -0.0860 -0.4113
22061TIP3    H167065   1.074   4.902  10.323 -1.8642 -1.3448 -2.4641
22061TIP3    H267066   1.082   5.052  10.305  1.7163 -0.8403  1.7162
22062TIP3   OH267067   7.408   6.375   8.468 -0.2897 -0.0045 -0.3077
22062TIP3    H167068   7.443   6.449   8.517 -1.0840 -0.5083  1.0774
22062TIP3    H267069   7.474   6.306   8.480  0.2170  0.3018 -1.1989
22063TIP3   OH267070   8.255  10.773  10.253 -0.0173 -0.1823 -0.0122
22063TIP3    H167071   8.219  10.764  10.165 -1.4907  0.1403  0.5241
22063TIP3    H267072   8.349  10.778  10.240 -0.2575  0.8413 -1.6487
22064TIP3   OH267073   8.492   3.573   2.102  0.7276 -0.6911 -0.3343
22064TIP3    H167074   8.503   3.610   2.190  1.0640 -0.6225 -0.4033
22064TIP3    H267075   8.552   3.499   2.100  1.6656  0.0545 -0.9249
22065TIP3   OH267076   7.928  10.733   6.908 -0.3386 -0.4998  0.2024
22065TIP3    H167077   7.878  10.667   6.957 -1.0838 -1.6209 -1.9613
22065TIP3    H267078   8.020  10.711   6.926 -0.5802 -0.4789  1.5717
22066TIP3   OH267079   8.523   9.851   0.492 -0.3728 -0.0470  0.1125
22066TIP3    H167080   8.505   9.922   0.554 -0.1956  0.0538  0.0505
22066TIP3    H267081   8.450   9.854   0.430 -0.0256  0.5049 -0.2716
22067TIP3   OH267082   1.939   7.093   5.749  0.1005  0.0476 -0.6508
22067TIP3    H167083   1.939   7.180   5.708  1.7631 -1.1509 -3.4850
22067TIP3    H267084   1.956   7.033   5.677 -1.0649 -2.6873  1.2128
22068TIP3   OH267085  10.834  10.601   4.704  0.3958 -0.0322  0.1348
22068TIP3    H167086  10.919  10.559   4.698  0.0334 -0.8812  0.7344
22068TIP3    H267087  10.793  10.586   4.619  1.3654  1.5963 -0.6640
22069TIP3   OH267088   4.711   7.309  10.850 -0.6284 -0.4757 -0.0092
22069TIP3    H167089   4.700   7.321  10.944 -1.3377  0.7486 -0.2350
22069TIP3    H267090   4.793   7.354  10.829 -0.3568 -0.9362  0.0523
22070TIP3   OH267091   7.232   5.473   0.657 -0.6066 -0.7322 -0.4752
22070TIP3    H167092   7.310   5.418   0.661 -1.5942 -2.1495  0.3663
22070TIP3    H267093   7.265   5.562   0.646  1.1483 -1.2046  0.6382
22071TIP3   OH267094   7.285   4.971   0.933  0.5481 -0.5765 -0.5564
22071TIP3    H167095   7.202   4.968   0.886  0.6542 -0.6090 -0.7412
22071TIP3    H267096   7.334   4.895   0.902  1.1416  0.1090 -1.3634
22072TIP3   OH267097   8.837   1.005   4.394  0.0588  0.3698 -0.2396
22072TIP3    H167098   8.877   0.918   4.391  4.0410  2.0052 -0.1403
22072TIP3    H267099   8.821   1.021   4.487 -0.0900 -0.0004 -0.1996
22073TIP3   OH267100  10.034   6.729   0.190  0.3777 -0.1326 -0.1268
22073TIP3    H167101  10.000   6.654   0.142 -0.0460 -0.0466  0.0342
22073TIP3    H267102   9.956   6.776   0.219  0.6377  0.2267 -0.0021
22074TIP3   OH267103   1.766   1.898   8.252  0.7024 -0.1555  0.0808
22074TIP3    H167104   1.799   1.852   8.329 -1.7250 -2.1039  0.0613
22074TIP3    H267105   1.796   1.844   8.178 -0.2737 -0.5131 -0.0699
22075TIP3   OH267106   3.905   4.459   6.277 -0.6514 -0.0157 -0.1927
22075TIP3    H167107   3.967   4.470   6.349 -0.4790 -1.1311 -0.1479
22075TIP3    H267108   3.948   4.501   6.203 -0.5910  0.6730  0.2325
22076TIP3   OH267109  10.669   2.513   4.353 -0.3909  0.2790 -0.2713
22076TIP3    H167110  10.722   2.578   4.306 -0.0956 -0.0619 -0.4174
22076TIP3    H267111  10.646   2.448   4.286  1.6288 -1.2275  0.3931
22077TIP3   OH267112   9.486   7.615   5.446 -0.1835  0.1899 -0.0781
22077TIP3    H167113   9.547   7.681   5.413  0.8825 -0.9282 -0.4282
22077TIP3    H267114   9.411   7.620   5.387 -0.3000  1.3297  0.1322
22078TIP3   OH267115   4.446   8.090   9.293 -0.5284  0.0366  0.2195
22078TIP3    H167116   4.505   8.165   9.292 -3.2769  2.3762 -0.4806
22078TIP3    H267117   4.422   8.078   9.385  0.4259 -0.4372  0.4112
22079TIP3   OH267118  10.057   7.494   4.401 -0.5827 -0.2745 -0.4240
22079TIP3    H167119  10.105   7.418   4.367 -0.6745 -0.8129  0.6051
22079TIP3    H267120  10.122   7.544   4.449 -0.3417  0.7519 -1.7684
22080TIP3   OH267121   9.168   4.027   3.830  0.2504 -0.4153  0.1544
22080TIP3    H167122   9.080   4.008   3.864  0.5603 -1.0611  0.6107
22080TIP3    H267123   9.223   3.959   3.868  0.8656 -0.2938 -0.5147
22081TIP3   OH267124   9.144   5.867   7.314  0.3851 -0.0830  0.4361
22081TIP3    H167125   9.098   5.787   7.288  0.1584 -0.0837  0.8262
22081TIP3    H267126   9.082   5.913   7.371 -0.2463  1.3160 -1.3078
22082TIP3   OH267127   6.787   2.824   7.423 -0.1745  0.2468  0.2764
22082TIP3    H167128   6.713   2.830   7.483 -0.6185 -0.5845 -0.1742
22082TIP3    H267129   6.793   2.911   7.384 -0.4738  0.5216  0.8287
22083TIP3   OH267130   7.434   0.252  10.267 -0.2403  0.1124  0.1621
22083TIP3    H167131   7.451   0.192  10.340  2.7509 -0.3941 -0.8004
22083TIP3    H267132   7.487   0.329  10.286  0.0356  0.2657 -1.1330
22084TIP3   OH267133   3.511   7.238   0.358  0.2799 -0.4058 -0.5412
22084TIP3    H167134   3.543   7.166   0.304  0.0885  0.4398 -1.8136
22084TIP3    H267135   3.418   7.217   0.373  0.9860 -2.1690  2.0310
22085TIP3   OH267136   7.254   2.865   3.878  0.1932  0.1151  0.1078
22085TIP3    H167137   7.263   2.770   3.887  0.6894  0.0009 -1.3238
22085TIP3    H267138   7.310   2.887   3.803 -0.7498  1.3892 -0.2470
22086TIP3   OH267139  10.042   1.552   8.892 -0.2522 -0.1575  0.0676
22086TIP3    H167140  10.015   1.609   8.963  0.7600 -0.5032  0.7515
22086TIP3    H267141   9.966   1.548   8.834 -0.5539  1.3908  0.3105
22087TIP3   OH267142   5.199   1.487   1.820  0.3267 -0.5173 -0.5511
22087TIP3    H167143   5.106   1.507   1.833  0.4839 -0.6624  0.9983
22087TIP3    H267144   5.219   1.423   1.888  1.8847  0.5603  0.0763
22088TIP3   OH267145   4.750   9.650  10.555  0.0628 -0.0028  0.1735
22088TIP3    H167146   4.705   9.614  10.479  2.3809 -1.0852 -0.7907
22088TIP3    H267147   4.732   9.744  10.552 -3.2883 -0.4776  0.7541
22089TIP3   OH267148   5.108   7.435   9.079  0.0080  0.4447 -0.8437
22089TIP3    H167149   5.187   7.420   9.026 -0.9493 -0.3535 -2.1087
22089TIP3    H267150   5.096   7.352   9.126  0.4451  0.9011  0.0929
22090TIP3   OH267151   7.728   9.135   2.814 -0.5164 -0.0825  0.0803
22090TIP3    H167152   7.671   9.118   2.740 -0.1208 -3.4938  0.4093
22090TIP3    H267153   7.693   9.081   2.885  0.3108  1.4908  1.7835
22091TIP3   OH267154   3.194   8.242   4.012  0.0651 -0.0473 -0.4659
22091TIP3    H167155   3.113   8.292   4.006  1.0314  1.5077 -1.1513
22091TIP3    H267156   3.216   8.242   4.105 -1.4602 -1.7773 -0.0518
22092TIP3   OH267157   7.481   8.913   0.935 -0.6152 -0.1095 -1.0219
22092TIP3    H167158   7.567   8.946   0.959 -0.9180  0.5391 -0.8153
22092TIP3    H267159   7.454   8.858   1.008 -0.1797 -0.6902 -1.2945
22093TIP3   OH267160   4.314  10.085   3.688 -1.0170 -0.3239  0.0770
22093TIP3    H167161   4.324  10.175   3.719 -0.9553  0.2365 -1.4836
22093TIP3    H267162   4.266  10.093   3.605  0.3321 -1.5707 -0.8747
22094TIP3   OH267163   2.788   9.652   8.462  0.1670  0.5622  0.1249
22094TIP3    H167164   2.797   9.725   8.522  0.2810 -0.6646  1.6725
22094TIP3    H267165   2.866   9.658   8.406  1.1913  0.5696  1.4749
22095TIP3   OH267166   1.013   8.985   5.472  0.3112  0.8199 -0.1083
22095TIP3    H167167   1.000   9.016   5.562 -2.0381 -2.3002  0.7837
22095TIP3    H267168   1.079   8.916   5.480 -1.1084 -0.6317 -0.4035
22096TIP3   OH267169   8.301   5.404   6.274 -0.1139  0.1173  0.1156
22096TIP3    H167170   8.236   5.440   6.214  0.3025  0.6449 -0.0308
22096TIP3    H267171   8.321   5.317   6.240  0.1408  0.4251 -0.5326
22097TIP3   OH267172   6.784   0.330   6.370 -0.3281 -0.5008 -0.2889
22097TIP3    H167173   6.735   0.411   6.379  0.7939  0.0800  0.9056
22097TIP3    H267174   6.811   0.308   6.459 -1.0912 -2.5214 -0.5098
22098TIP3   OH267175   6.251   6.596   3.124 -0.0836  0.0752 -0.0821
22098TIP3    H167176   6.205   6.548   3.054  0.9397  0.6466 -1.1823
22098TIP3    H267177   6.267   6.530   3.191 -2.3569 -0.1842  0.2951
22099TIP3   OH267178   5.385   7.534   4.266  0.2699 -0.0329 -0.3726
22099TIP3    H167179   5.295   7.541   4.236  0.0315 -0.9333  0.0885
22099TIP3    H267180   5.428   7.612   4.231 -1.1041  1.3636  0.9231
22100TIP3   OH267181   6.707   7.628   4.351  0.1529  0.3996 -0.1687
22100TIP3    H167182   6.714   7.707   4.404  1.0849  1.5473 -1.9170
22100TIP3    H267183   6.613   7.619   4.334 -0.0531  0.5733  0.8373
22101TIP3   OH267184   9.547   3.998   6.936  0.4524  0.2965 -0.7345
22101TIP3    H167185   9.638   4.023   6.920  0.0042  1.6228 -1.3863
22101TIP3    H267186   9.502   4.081   6.954 -0.5875 -0.3639 -0.1984
22102TIP3   OH267187   0.618   7.594  10.603 -0.4719 -0.3203 -0.8458
22102TIP3    H167188   0.698   7.555  10.637 -0.6222  0.2529  0.2145
22102TIP3    H267189   0.647   7.652  10.533  0.0152 -0.3013 -0.6323
22103TIP3   OH267190   7.408   4.252   4.581 -0.0109  0.0450 -0.2143
22103TIP3    H167191   7.367   4.335   4.555  0.7541  0.0847 -1.3995
22103TIP3    H267192   7.498   4.259   4.548  0.3537 -0.8523  0.5587
22104TIP3   OH267193   4.410   2.921   4.547 -0.0704  0.4910  0.0667
22104TIP3    H167194   4.430   2.898   4.457 -0.8640 -0.5070  0.1362
22104TIP3    H267195   4.354   2.998   4.541 -1.1691 -0.3238 -0.3530
22105TIP3   OH267196  10.131   4.163   0.227 -0.0827 -0.2452  0.0943
22105TIP3    H167197  10.222   4.171   0.198  0.1997  2.9618  1.4643
22105TIP3    H267198  10.086   4.237   0.187 -2.1702 -1.7892 -0.5712
22106TIP3   OH267199   1.886   8.993   1.042 -0.2926  0.1655 -0.0457
22106TIP3    H167200   1.918   9.082   1.053 -0.2393  0.1720 -0.2389
22106TIP3    H267201   1.915   8.946   1.120 -0.7286  0.4333  0.2839
22107TIP3   OH267202  10.059   8.039   5.699  0.2095 -0.0485 -0.3487
22107TIP3    H167203  10.138   7.999   5.662  0.3879 -1.1961  1.1704
22107TIP3    H267204  10.090   8.081   5.780 -0.7216 -0.4254  0.2143
22108TIP3   OH267205   0.376   0.646   6.790  0.5188 -0.4379  0.4176
22108TIP3    H167206   0.420   0.727   6.812 -0.5639 -0.2195  1.9825
22108TIP3    H267207   0.284   0.671   6.780  0.1048 -1.4972  1.3259
22109TIP3   OH267208   6.524   3.411   2.358  0.3911 -0.2819  0.3242
22109TIP3    H167209   6.573   3.373   2.285  1.9354 -0.3890  1.3781
22109TIP3    H267210   6.486   3.491   2.322  0.4448 -0.7393 -0.8066
22110TIP3   OH267211   3.727   2.606  10.795  0.2229 -0.5927  0.1891
22110TIP3    H167212   3.644   2.570  10.763 -0.2356  1.5995 -1.3414
22110TIP3    H267213   3.792   2.576  10.732 -0.4110  2.3090 -2.0694
22111TIP3   OH267214   5.478   9.149   3.321 -0.3013  0.3975  0.0228
22111TIP3    H167215   5.474   9.182   3.411  0.1217 -0.1615  0.2562
22111TIP3    H267216   5.394   9.106   3.307 -0.2296  0.1687  0.2823
22112TIP3   OH267217   8.012   8.503   5.313 -0.3287  0.0184  0.8463
22112TIP3    H167218   7.925   8.488   5.277  0.4802 -0.0312 -1.2171
22112TIP3    H267219   8.072   8.486   5.241  1.5755 -1.9912  2.7295
22113TIP3   OH267220   0.812   1.089   3.103  0.0303  0.1415 -0.0309
22113TIP3    H167221   0.829   0.997   3.084  1.5408  0.5795 -1.0304
22113TIP3    H267222   0.829   1.098   3.197  3.2726 -0.0013 -0.4779
22114TIP3   OH267223   6.713   1.124   6.237  0.2023 -0.3427  0.0186
22114TIP3    H167224   6.638   1.109   6.295  0.8437 -0.4637  0.8383
22114TIP3    H267225   6.695   1.072   6.159 -0.9172  0.2123 -0.1111
22115TIP3   OH267226   1.175   3.871   5.424 -1.2561  0.3576  0.0361
22115TIP3    H167227   1.129   3.841   5.502  1.3501 -0.6734  1.3077
22115TIP3    H267228   1.223   3.949   5.453  1.1648 -1.0531  0.0961
22116TIP3   OH267229   2.605   5.935   2.951  0.2112  0.3997 -0.3349
22116TIP3    H167230   2.607   5.898   3.039  0.7008  1.2340  0.0103
22116TIP3    H267231   2.673   6.002   2.951 -0.0983  0.7299 -1.2072
22117TIP3   OH267232   7.666   9.758   8.205 -0.2285  0.7553 -0.1325
22117TIP3    H167233   7.720   9.681   8.185 -2.5548 -1.2555  0.7302
22117TIP3    H267234   7.633   9.741   8.294  0.8735  3.8727  0.9939
22118TIP3   OH267235   5.475   6.617   5.162  0.5775  0.2762  0.1829
22118TIP3    H167236   5.514   6.694   5.205  0.7327  0.5647 -0.4596
22118TIP3    H267237   5.381   6.637   5.159  0.5711  0.2769  0.3300
22119TIP3   OH267238   8.303   6.950   7.041  0.2855 -0.4641 -0.3093
22119TIP3    H167239   8.366   6.899   7.092  0.2226 -1.5538 -1.2873
22119TIP3    H267240   8.354   6.988   6.970 -0.1403 -1.3383 -1.0963
22120TIP3   OH267241   3.722   7.415  10.856  0.8233 -0.0386 -0.1812
22120TIP3    H167242   3.736   7.343  10.917  1.5124  0.1532 -0.0996
22120TIP3    H267243   3.665   7.378  10.788 -1.5573  0.2742  1.5126
22121TIP3   OH267244   2.440   8.806   5.034 -1.0503 -0.5263 -0.0255
22121TIP3    H167245   2.479   8.876   4.983 -1.4197  0.3652  0.8706
22121TIP3    H267246   2.363   8.846   5.075 -0.5165 -1.0609  1.5866
22122TIP3   OH267247   6.831   9.607   0.514 -0.6048 -0.0595  0.3078
22122TIP3    H167248   6.837   9.702   0.512 -1.1975 -0.0318 -0.8080
22122TIP3    H267249   6.749   9.589   0.561 -1.0091  0.0161 -0.3553
22123TIP3   OH267250   0.524   6.521   9.931  0.4422 -0.1025 -0.0622
22123TIP3    H167251   0.515   6.436   9.887  0.3344  0.5529 -1.3427
22123TIP3    H267252   0.613   6.521   9.966  0.3409 -0.8611  0.2131
22124TIP3   OH267253   3.379   1.220   6.750 -0.3623 -0.0254  0.0084
22124TIP3    H167254   3.352   1.203   6.660  0.5578 -0.7971 -0.1308
22124TIP3    H267255   3.328   1.158   6.802 -0.9354  0.4580  0.0396
22125TIP3   OH267256   5.295   9.033   2.840 -0.0745  0.0149 -0.5455
22125TIP3    H167257   5.329   9.110   2.887  0.1216 -0.1066 -0.4854
22125TIP3    H267258   5.229   9.068   2.781 -0.6816  0.1147  0.1766
22126TIP3   OH267259   1.757   1.642   2.605  0.1076  0.5267 -0.0821
22126TIP3    H167260   1.707   1.650   2.523  2.0110  0.9080 -1.2665
22126TIP3    H267261   1.691   1.653   2.674 -2.3270 -3.7691 -1.3506
22127TIP3   OH267262   9.038   8.690   2.347  0.5447  0.2421  0.2750
22127TIP3    H167263   9.046   8.761   2.411  1.3820 -0.3848  0.8861
22127TIP3    H267264   9.073   8.613   2.392  2.0777 -0.0171 -1.2341
22128TIP3   OH267265   7.089   4.402   2.636  0.1324 -0.2268 -0.4388
22128TIP3    H167266   7.035   4.388   2.558  0.4601 -0.2322 -0.6694
22128TIP3    H267267   7.124   4.491   2.625 -1.2376  0.4803  0.5820
22129TIP3   OH267268   0.838   6.153   8.475 -0.0551 -0.5236 -0.5617
22129TIP3    H167269   0.826   6.083   8.539 -1.7359  0.2591  0.0271
22129TIP3    H267270   0.761   6.147   8.418 -1.1668  1.9021  0.5665
22130TIP3   OH267271  10.165   9.411   8.645 -0.0417  0.4604 -0.1609
22130TIP3    H167272  10.215   9.329   8.637 -0.4018  0.0744  1.2328
22130TIP3    H267273  10.073   9.383   8.644 -0.1569  0.6380  1.8918
22131TIP3   OH267274   8.707   3.417   5.820 -0.5061 -0.3789  0.1526
22131TIP3    H167275   8.723   3.396   5.912 -0.6189 -1.0751  0.0213
22131TIP3    H267276   8.735   3.508   5.810 -2.0810  0.2622  1.2621
22132TIP3   OH267277   0.711   3.155   9.174  0.6162 -0.2791  0.6467
22132TIP3    H167278   0.681   3.172   9.264  0.6958  2.2200  0.2705
22132TIP3    H267279   0.764   3.231   9.152 -2.2044  0.9427 -2.7027
22133TIP3   OH267280   2.823   0.305   1.681  0.1613 -0.1693 -0.2351
22133TIP3    H167281   2.731   0.310   1.706  0.7102 -1.8036  2.6044
22133TIP3    H267282   2.825   0.333   1.590 -2.8091  2.0428  0.2305
22134TIP3   OH267283  10.297   2.332   1.464 -0.2379 -0.3868  0.1706
22134TIP3    H167284  10.240   2.278   1.518  2.0301 -1.3758  1.7071
22134TIP3    H267285  10.333   2.272   1.398  0.1360 -0.1183  0.1196
22135TIP3   OH267286   1.835   8.099   2.417 -0.4243 -0.0427  0.0004
22135TIP3    H167287   1.922   8.096   2.456 -0.5107 -1.0763  0.1458
22135TIP3    H267288   1.776   8.114   2.491 -0.4427 -0.3218  0.0460
22136TIP3   OH267289   1.253   4.096   6.652  0.1614 -0.2610 -0.1277
22136TIP3    H167290   1.195   4.031   6.691 -2.8989  2.1610 -0.3010
22136TIP3    H267291   1.286   4.053   6.573 -2.2657 -1.4592 -0.5843
22137TIP3   OH267292   3.047   8.862   0.568  0.7073 -0.8856  0.6434
22137TIP3    H167293   2.988   8.866   0.493  1.2566  0.8441  0.2455
22137TIP3    H267294   3.106   8.789   0.549  1.0710 -0.2507 -0.8133
22138TIP3   OH267295  10.549   9.558   4.676  0.0449 -0.2564  0.6187
22138TIP3    H167296  10.462   9.591   4.655 -0.0704 -0.2476  1.0900
22138TIP3    H267297  10.552   9.558   4.772  0.6114 -0.1319  0.6051
22139TIP3   OH267298   0.273   9.653   3.786 -0.3825 -0.2984  0.1733
22139TIP3    H167299   0.256   9.719   3.853 -0.0958 -0.0928  0.0453
22139TIP3    H267300   0.214   9.676   3.714 -0.2304 -0.1363  0.0994
22140TIP3   OH267301  10.059   7.876   0.436 -0.1302 -0.1440 -0.6354
22140TIP3    H167302  10.115   7.935   0.486  0.1886 -0.1225 -1.0121
22140TIP3    H267303  10.120   7.823   0.384 -0.4457 -0.3009 -0.8505
22141TIP3   OH267304   2.834   1.393   9.283 -0.1397 -0.1986 -0.2961
22141TIP3    H167305   2.754   1.396   9.334  0.2104  1.9279  0.2150
22141TIP3    H267306   2.903   1.415   9.345  0.6761 -0.6353 -1.0213
22142TIP3   OH267307   3.505   0.360   3.060 -0.4096  0.2193  0.1733
22142TIP3    H167308   3.446   0.289   3.038  0.9510 -0.9391  0.0902
22142TIP3    H267309   3.529   0.344   3.151  1.5096 -0.6977 -0.4321
22143TIP3   OH267310   2.244   9.530   1.145 -0.2818  0.1217 -0.2624
22143TIP3    H167311   2.151   9.543   1.130 -0.4684  0.9024  1.3693
22143TIP3    H267312   2.286   9.555   1.063 -1.4290  0.9232 -0.6137
22144TIP3   OH267313   4.385   1.971   6.529  0.4445 -0.4363  0.0877
22144TIP3    H167314   4.363   1.988   6.437 -2.6608  0.6128  0.9113
22144TIP3    H267315   4.356   1.881   6.544  1.8007 -0.9349 -0.1377
22145TIP3   OH267316   7.625   2.247   7.701  0.2911 -0.1620 -0.0974
22145TIP3    H167317   7.563   2.212   7.765  1.0715  2.3256  2.1857
22145TIP3    H267318   7.572   2.265   7.623 -0.7006 -3.1788 -0.2749
22146TIP3   OH267319   6.742   6.509   6.800 -0.5501 -0.9766 -0.0076
22146TIP3    H167320   6.683   6.437   6.821 -3.8281  1.3802 -0.3873
22146TIP3    H267321   6.702   6.586   6.841  0.5453  1.2956 -2.8607
22147TIP3   OH267322   7.832   0.008   4.194 -0.3743 -0.3536  0.2206
22147TIP3    H167323   7.820  -0.087   4.191 -0.9025 -0.2654 -0.6043
22147TIP3    H267324   7.760   0.039   4.250 -1.9958 -0.1808 -1.8421
22148TIP3   OH267325   6.125   5.823   8.684  0.0114  0.1849  0.0699
22148TIP3    H167326   6.049   5.870   8.648  0.1035  1.4074  1.3878
22148TIP3    H267327   6.134   5.856   8.773  0.8448 -1.4876  0.6489
22149TIP3   OH267328   1.261   8.151   5.246 -0.1195 -0.0854  0.1796
22149TIP3    H167329   1.253   8.131   5.153  0.2866  0.4975  0.0137
22149TIP3    H267330   1.330   8.092   5.278 -0.6089 -0.6397  0.2264
22150TIP3   OH267331   0.854   9.282   0.440 -0.1411  0.3536 -0.3095
22150TIP3    H167332   0.939   9.324   0.437  1.0894 -1.8688  1.0273
22150TIP3    H267333   0.864   9.203   0.387 -0.2558 -1.6173  2.3810
22151TIP3   OH267334  10.228   5.704   7.014 -0.6838 -0.4966 -0.2312
22151TIP3    H167335  10.232   5.787   7.061  1.9662 -0.9564  0.5147
22151TIP3    H267336  10.209   5.728   6.923  2.4837  1.2273 -0.5610
22152TIP3   OH267337   7.565   1.249   8.442  0.0379  0.3893  0.2735
22152TIP3    H167338   7.633   1.247   8.374 -0.3630  0.1167 -0.1316
22152TIP3    H267339   7.612   1.228   8.523  0.5043  0.5956  0.0620
22153TIP3   OH267340   4.779   2.406   3.617 -0.0149 -0.1678 -0.1408
22153TIP3    H167341   4.798   2.337   3.680 -1.0292 -0.3111  0.0159
22153TIP3    H267342   4.844   2.474   3.636  1.0855 -1.1095 -0.3878
22154TIP3   OH267343   6.794   0.406  10.528  1.3000 -0.0092 -0.0230
22154TIP3    H167344   6.717   0.441  10.574 -0.3675 -0.2973 -2.4364
22154TIP3    H267345   6.838   0.483  10.493 -0.1036 -0.0021 -1.8955
22155TIP3   OH267346   5.166   5.310   3.609  0.1571  0.4406 -0.2533
22155TIP3    H167347   5.220   5.236   3.637  1.2500  1.2849 -0.0620
22155TIP3    H267348   5.205   5.339   3.526 -1.0702 -0.0035 -1.0161
22156TIP3   OH267349   6.346  10.424   4.873  0.8127 -0.0992  0.2868
22156TIP3    H167350   6.405  10.364   4.918 -1.6982 -2.3031  0.8763
22156TIP3    H267351   6.347  10.396   4.782  0.1120 -0.6831  0.4479
22157TIP3   OH267352   8.007   8.116   7.654 -0.4201 -0.0177  0.4966
22157TIP3    H167353   8.081   8.067   7.689  0.3796  0.0900 -0.9792
22157TIP3    H267354   8.041   8.203   7.636 -0.7311 -0.1527 -0.7929
22158TIP3   OH267355  10.580   5.561   1.216  0.1259 -0.5719 -0.1678
22158TIP3    H167356  10.495   5.542   1.256 -0.0744  1.8302  0.7305
22158TIP3    H267357  10.644   5.540   1.284  0.0050  0.4591  0.2867
22159TIP3   OH267358   2.695   8.549   1.683 -0.1632 -0.1072 -0.3705
22159TIP3    H167359   2.628   8.481   1.674  1.1411 -1.7538  1.4386
22159TIP3    H267360   2.648   8.624   1.718 -1.2743 -0.8404 -0.2357
22160TIP3   OH267361   0.506   7.612   0.377 -0.4821  0.8993  0.0203
22160TIP3    H167362   0.526   7.656   0.294  1.1400 -1.6123 -1.0394
22160TIP3    H267363   0.516   7.519   0.358 -3.8587 -0.0770  2.0843
22161TIP3   OH267364   2.745   8.728   6.594 -0.5133 -0.0364  0.5973
22161TIP3    H167365   2.726   8.639   6.624  0.5096 -0.2012  0.7972
22161TIP3    H267366   2.703   8.785   6.658  0.8410 -0.3848  1.8520
22162TIP3   OH267367   5.922   8.366   2.532  0.1559 -0.4532  0.6102
22162TIP3    H167368   5.927   8.271   2.538  1.3468 -0.5997 -1.5804
22162TIP3    H267369   5.974   8.388   2.455  0.2092  2.0182  1.2633
22163TIP3   OH267370   7.089   2.170   9.894 -0.3741 -0.3895 -0.6718
22163TIP3    H167371   7.034   2.196   9.968 -2.2249  0.1600 -2.1602
22163TIP3    H267372   7.094   2.248   9.840  2.2706 -0.3083 -0.4162
22164TIP3   OH267373   1.082   6.347   8.481 -0.0026  0.3587 -0.2206
22164TIP3    H167374   1.120   6.425   8.439  1.1833 -0.5517 -0.9210
22164TIP3    H267375   1.148   6.279   8.468 -1.0716 -0.8056  0.2624
22165TIP3   OH267376   9.179   7.071   2.128  0.3069  0.5683  0.3614
22165TIP3    H167377   9.171   6.994   2.184  1.9528  0.4637  0.5089
22165TIP3    H267378   9.142   7.142   2.180  1.6997  0.4527  1.5853
22166TIP3   OH267379   8.809   9.794   6.933 -0.3492  0.1571  0.0275
22166TIP3    H167380   8.810   9.825   6.842 -0.7267 -0.3807 -0.1608
22166TIP3    H267381   8.780   9.870   6.984 -0.8900  0.2289 -0.3867
22167TIP3   OH267382   0.811   4.288   2.757 -0.2356 -0.2117 -0.0463
22167TIP3    H167383   0.723   4.281   2.794 -0.2807 -0.6272 -0.2190
22167TIP3    H267384   0.869   4.254   2.825 -0.4161 -1.9975 -0.7254
22168TIP3   OH267385   0.358   1.632   3.576  0.2420  0.4847 -0.0409
22168TIP3    H167386   0.348   1.720   3.540 -1.0443  0.7545  0.9127
22168TIP3    H267387   0.398   1.646   3.662  0.7439  0.0722 -0.2044
22169TIP3   OH267388  10.628   7.158   2.862 -0.6148  0.4449 -0.6758
22169TIP3    H167389  10.656   7.202   2.942 -0.9013 -1.7855  0.7385
22169TIP3    H267390  10.536   7.180   2.853 -1.5301 -1.9343  1.6116
22170TIP3   OH267391   5.444   8.617   7.965  0.5691  0.3883  0.0118
22170TIP3    H167392   5.504   8.553   8.004 -0.3111  0.3320  1.3174
22170TIP3    H267393   5.362   8.569   7.954  1.0789 -0.0235 -3.2063
22171TIP3   OH267394   0.479   6.892   8.787 -0.0412  0.0277 -0.0770
22171TIP3    H167395   0.463   6.909   8.880 -0.0148 -0.5509  0.0407
22171TIP3    H267396   0.442   6.805   8.772  0.0214  0.0873 -0.5929
22172TIP3   OH267397   7.623   4.422   0.976 -0.2134 -0.3908  0.0088
22172TIP3    H167398   7.653   4.507   0.943  2.2987 -0.6306  1.4267
22172TIP3    H267399   7.626   4.431   1.071 -0.4849 -1.8883  0.1795
22173TIP3   OH267400   5.179  10.316   2.175 -0.2857  0.0447  0.1894
22173TIP3    H167401   5.221  10.396   2.206  0.7592 -0.9596  1.4730
22173TIP3    H267402   5.086  10.338   2.172 -0.1472  0.9692  1.6386
22174TIP3   OH267403   1.422   3.499   7.478 -0.2627 -0.0425 -0.1909
22174TIP3    H167404   1.477   3.531   7.549 -0.1762  0.3104 -0.4157
22174TIP3    H267405   1.334   3.498   7.515 -0.1598 -0.2717  0.0569
22175TIP3   OH267406   4.944   9.638  10.057  0.0458  0.2429  0.0694
22175TIP3    H167407   4.876   9.684  10.106 -0.0981 -0.3029  0.3993
22175TIP3    H267408   5.026   9.674  10.091 -0.0679  0.4544  0.1209
22176TIP3   OH267409   6.812   9.015   0.273  1.0075 -0.0811 -0.3614
22176TIP3    H167410   6.877   9.012   0.202  0.6979  1.4260 -0.7349
22176TIP3    H267411   6.829   9.098   0.317  1.1984 -0.9866  1.3751
22177TIP3   OH267412   6.931   1.510   3.926 -0.2867 -0.2974  0.2548
22177TIP3    H167413   6.866   1.559   3.976 -0.8877  0.5574 -1.2768
22177TIP3    H267414   6.931   1.423   3.965  0.2953  0.6677  2.6131
22178TIP3   OH267415   6.636  10.215   9.799  0.2871 -0.1656  1.2336
22178TIP3    H167416   6.600  10.126   9.795  0.8554 -0.3629 -0.8694
22178TIP3    H267417   6.716  10.206   9.850  2.1137 -1.6376 -1.5997
22179TIP3   OH267418   1.369   5.460   8.310 -0.1927 -0.0011 -0.0484
22179TIP3    H167419   1.405   5.520   8.376  0.8887  0.0119 -0.6306
22179TIP3    H267420   1.344   5.516   8.237  1.8345 -0.3150 -1.0438
22180TIP3   OH267421   7.481   3.589   1.881  0.0244 -0.0627  0.3934
22180TIP3    H167422   7.421   3.600   1.955  0.4582 -1.0203  0.9077
22180TIP3    H267423   7.496   3.678   1.849 -0.5923  0.3181  1.1166
22181TIP3   OH267424   4.655   7.961   4.444  0.4581 -0.1820 -0.4941
22181TIP3    H167425   4.624   7.893   4.503 -0.5646  0.1528 -0.6125
22181TIP3    H267426   4.730   8.000   4.489 -0.2938  0.0619  0.6000
22182TIP3   OH267427  10.028   3.091   5.476  0.1767  0.9226  0.0588
22182TIP3    H167428  10.016   3.185   5.488 -0.5510  0.6330  1.8583
22182TIP3    H267429  10.022   3.054   5.564 -1.4958 -1.0145 -0.7890
22183TIP3   OH267430   8.769   0.010   4.891  0.0913  0.0950 -0.0094
22183TIP3    H167431   8.701  -0.033   4.943  1.1156 -0.5971  0.7852
22183TIP3    H267432   8.793   0.087   4.942  1.9142 -1.1954  1.1848
22184TIP3   OH267433   2.739   8.812   6.299 -0.2202  0.0069  0.1483
22184TIP3    H167434   2.670   8.876   6.318 -0.4441 -0.1024 -0.2940
22184TIP3    H267435   2.745   8.759   6.379  1.6185  2.0567  1.4836
22185TIP3   OH267436   1.789   6.264  10.046 -0.7568 -0.0784  0.3555
22185TIP3    H167437   1.858   6.327  10.024  0.0009 -0.7584  0.7148
22185TIP3    H267438   1.734   6.310  10.109  0.1021  0.0440  1.0274
22186TIP3   OH267439  10.706   7.528   4.703 -0.2116 -0.0064 -0.3226
22186TIP3    H167440  10.715   7.506   4.795 -3.2008  2.4146  0.7192
22186TIP3    H267441  10.631   7.476   4.672 -1.4530  1.6985 -0.3333
22187TIP3   OH267442   5.578   4.476   0.296  0.2512 -0.1271 -0.2575
22187TIP3    H167443   5.618   4.426   0.226  2.2273 -0.4108  1.0014
22187TIP3    H267444   5.647   4.534   0.327 -0.9156  0.8141  0.6950
22188TIP3   OH267445   0.872   2.947   2.933 -0.2218  0.2039 -0.5773
22188TIP3    H167446   0.939   2.881   2.918 -0.9882 -0.7757  0.1096
22188TIP3    H267447   0.920   3.026   2.957  0.6889 -0.3624 -0.5105
22189TIP3   OH267448   2.594   0.316   3.504 -0.1901  0.2652 -0.1137
22189TIP3    H167449   2.560   0.320   3.594  0.4052  1.3269  0.0865
22189TIP3    H267450   2.516   0.321   3.449 -0.4684  1.2068  0.3450
22190TIP3   OH267451   9.120   4.299   2.721 -0.0227  0.0521  0.1937
22190TIP3    H167452   9.206   4.327   2.751 -0.7958  1.5539  1.1418
22190TIP3    H267453   9.096   4.360   2.652 -0.9150  0.5612  0.9290
22191TIP3   OH267454   0.484   9.421   4.282  0.3307  0.3111 -0.0654
22191TIP3    H167455   0.469   9.515   4.295 -0.0320  0.0939  1.1503
22191TIP3    H267456   0.401   9.389   4.246 -0.2093  0.1388  1.2788
22192TIP3   OH267457   4.450   1.525   1.020 -0.4424 -0.1990 -0.0615
22192TIP3    H167458   4.375   1.555   1.072  1.0145 -0.2898  2.2471
22192TIP3    H267459   4.488   1.605   0.984 -0.3202  0.0956  0.7044
22193TIP3   OH267460   5.171   2.216   2.200  0.0420 -0.8749  0.2312
22193TIP3    H167461   5.247   2.274   2.196 -0.9806  0.4219 -1.9507
22193TIP3    H267462   5.096   2.275   2.199 -1.0490 -2.1729 -2.1437
22194TIP3   OH267463   6.062   8.412   7.380  0.0016 -0.0848  0.2825
22194TIP3    H167464   6.119   8.392   7.454  0.2771  0.1874  0.1415
22194TIP3    H267465   5.983   8.448   7.421  0.6574  1.2922  0.3934
22195TIP3   OH267466   5.687   0.887   6.669 -0.0045 -0.0741 -0.1357
22195TIP3    H167467   5.667   0.914   6.759 -1.2465 -1.3316  0.0025
22195TIP3    H267468   5.766   0.835   6.676  0.3928  0.5450  0.0872
22196TIP3   OH267469   3.880  10.763   2.266  0.1414 -0.5572 -0.0526
22196TIP3    H167470   3.856  10.683   2.220  0.5461 -0.3894 -0.5673
22196TIP3    H267471   3.934  10.734   2.339 -0.1476 -0.7910  0.0720
22197TIP3   OH267472   2.806   4.273   3.710  0.1676 -0.7594 -0.0999
22197TIP3    H167473   2.747   4.339   3.673 -0.8438 -1.6641 -0.1598
22197TIP3    H267474   2.864   4.322   3.768 -0.2591  0.2386 -0.4918
22198TIP3   OH267475   2.666   2.217  10.174  0.5565  0.4983 -0.3752
22198TIP3    H167476   2.736   2.201  10.238  0.3770 -1.3107 -0.5921
22198TIP3    H267477   2.659   2.313  10.170  1.2009  0.6736  1.6256
22199TIP3   OH267478   9.663   1.711   1.373  0.1321  0.0959  0.1426
22199TIP3    H167479   9.634   1.802   1.377 -0.6702  0.2345 -3.9021
22199TIP3    H267480   9.735   1.711   1.310 -1.3345 -2.2458 -1.7454
22200TIP3   OH267481   5.532   7.660   2.451 -0.4879 -0.0189 -0.6616
22200TIP3    H167482   5.489   7.720   2.389  1.4684  2.2636  0.0495
22200TIP3    H267483   5.606   7.624   2.402  0.9490  1.6418  0.2053
22201TIP3   OH267484   1.635   6.223   8.329  0.1610 -0.4375  0.3864
22201TIP3    H167485   1.566   6.256   8.387 -0.1105 -2.3552  1.2423
22201TIP3    H267486   1.707   6.286   8.339 -0.2683 -0.1511  2.0047
22202TIP3   OH267487   2.944   9.373   0.136  0.2001 -0.0919 -0.3379
22202TIP3    H167488   2.893   9.363   0.217 -0.4184  1.2944 -0.5336
22202TIP3    H267489   3.035   9.379   0.166 -0.0540  0.7960  0.3190
22203TIP3   OH267490   5.175   6.632   7.298 -0.1291  0.2214  0.3147
22203TIP3    H167491   5.111   6.670   7.238  0.2297  1.1113  0.4716
22203TIP3    H267492   5.123   6.586   7.363 -0.7611  2.3221  1.4130
22204TIP3   OH267493   1.671   4.903  10.139 -0.2949 -0.7634  0.1456
22204TIP3    H167494   1.701   4.906  10.230  0.8544  0.5119 -0.2324
22204TIP3    H267495   1.705   4.821  10.105  1.2863 -0.1907  0.2516
22205TIP3   OH267496   2.621   3.535   6.828  0.4725 -0.2305  0.0109
22205TIP3    H167497   2.539   3.579   6.849  0.6366 -0.4842  1.2768
22205TIP3    H267498   2.597   3.467   6.765 -0.0928  0.4226 -0.4866
22206TIP3   OH267499   9.205   0.430   3.627 -0.1123  0.1755  0.2405
22206TIP3    H167500   9.239   0.519   3.632 -0.7799  0.4332  0.3687
22206TIP3    H267501   9.111   0.440   3.641  0.0163 -0.7218  2.0722
22207TIP3   OH267502   5.255   4.523   6.775  0.2971 -0.5537 -0.1821
22207TIP3    H167503   5.303   4.459   6.722  0.8437  1.3418 -2.1621
22207TIP3    H267504   5.297   4.606   6.754 -3.1805  1.1219 -1.2436
22208TIP3   OH267505   1.468   8.220   3.857 -0.3969 -0.4823  0.3676
22208TIP3    H167506   1.392   8.278   3.861  0.8417  1.2793 -0.4856
22208TIP3    H267507   1.482   8.193   3.948 -0.2329  1.6562  1.0208
22209TIP3   OH267508   3.673   7.765   7.300  0.2334 -0.3382  0.3137
22209TIP3    H167509   3.688   7.672   7.279 -1.9721 -0.6443 -0.1136
22209TIP3    H267510   3.647   7.805   7.217  1.8648  0.8727  0.3411
22210TIP3   OH267511   0.147   9.114   4.809  0.5620  0.4352 -0.3041
22210TIP3    H167512   0.090   9.165   4.751 -2.0456 -2.3029 -0.4179
22210TIP3    H267513   0.101   9.112   4.893  1.2987 -0.5067  0.1066
22211TIP3   OH267514  10.363  10.663   6.038 -0.7955  0.2505  0.1989
22211TIP3    H167515  10.358  10.585   5.984 -0.5440  0.3603  0.0141
22211TIP3    H267516  10.317  10.640   6.119  0.9533 -0.7554  0.9470
22212TIP3   OH267517   0.314   1.661   7.233  0.4488 -0.0054  0.4356
22212TIP3    H167518   0.368   1.735   7.260 -0.8140  1.3888 -0.6908
22212TIP3    H267519   0.224   1.691   7.246 -0.0898 -1.4727  0.2431
22213TIP3   OH267520  10.128   7.033   2.001 -0.7435 -0.0676 -0.0314
22213TIP3    H167521  10.079   7.088   1.940  1.4457  1.6206 -0.4047
22213TIP3    H267522  10.192   6.987   1.947 -1.3755 -1.6690  0.5252
22214TIP3   OH267523   4.627   7.542   0.403  0.6160 -0.0586 -0.3612
22214TIP3    H167524   4.699   7.603   0.417  1.2917 -0.6088 -1.3099
22214TIP3    H267525   4.576   7.546   0.484  1.2261  0.9714 -0.0038
22215TIP3   OH267526   4.958  10.008   2.061  0.2417 -0.4309  0.1116
22215TIP3    H167527   4.983  10.007   2.154  3.3898 -1.2545 -0.6220
22215TIP3    H267528   4.959   9.916   2.035 -3.5305 -0.5227 -0.1696
22216TIP3   OH267529   4.286   3.147   6.756  0.8974 -0.1428 -0.0246
22216TIP3    H167530   4.280   3.241   6.734 -1.2890  0.0061  0.9010
22216TIP3    H267531   4.277   3.103   6.671 -0.1111  0.4887 -0.2689
22217TIP3   OH267532   1.594   7.323   9.313 -0.1900 -0.0193  0.0144
22217TIP3    H167533   1.668   7.335   9.372 -0.7949  1.5208  0.5193
22217TIP3    H267534   1.547   7.247   9.349 -0.9200  1.2693  2.0021
22218TIP3   OH267535   8.974   9.243   2.737 -0.4670  0.0312  0.1743
22218TIP3    H167536   9.068   9.229   2.723 -0.8325 -3.9589  0.3122
22218TIP3    H267537   8.935   9.234   2.650 -0.8015  1.1322  0.1978
22219TIP3   OH267538   3.523   1.200   6.015 -0.0369 -0.5207  0.3993
22219TIP3    H167539   3.569   1.123   5.980  1.8020  0.5853  0.2622
22219TIP3    H267540   3.583   1.236   6.079 -2.0369 -0.7082  2.4989
22220TIP3   OH267541   5.243   9.668   5.586 -0.0949  0.2634  0.1536
22220TIP3    H167542   5.326   9.623   5.574  0.2261  0.9082 -0.0882
22220TIP3    H267543   5.194   9.612   5.646 -0.7006 -1.6859 -2.0365
22221TIP3   OH267544   6.556   2.477  10.235 -0.6866 -0.0249  0.2551
22221TIP3    H167545   6.634   2.511  10.190 -1.8346  2.5180  0.0145
22221TIP3    H267546   6.484   2.500  10.177 -1.9411  0.7627  2.0639
22222TIP3   OH267547   1.105   7.320   6.421  0.2857  0.8068  0.5251
22222TIP3    H167548   1.199   7.311   6.402  0.2446 -0.7863  0.8897
22222TIP3    H267549   1.099   7.303   6.515 -0.4069  0.5268  0.4302
22223TIP3   OH267550   8.872   7.529   6.524 -0.3338 -0.7160 -0.9157
22223TIP3    H167551   8.825   7.585   6.462 -0.9514 -1.1399 -0.8373
22223TIP3    H267552   8.804   7.476   6.566  0.1001 -0.6067 -0.0459
22224TIP3   OH267553   3.933   7.359  10.592 -0.3052  0.2714  0.1976
22224TIP3    H167554   3.936   7.435  10.650 -0.8131  0.5670 -0.1547
22224TIP3    H267555   3.942   7.396  10.504 -1.2698 -0.0027 -0.0220
22225TIP3   OH267556   2.897   7.561  10.342  0.7024  0.3403  0.3730
22225TIP3    H167557   2.929   7.636  10.292 -0.5205  0.3347 -0.4488
22225TIP3    H267558   2.951   7.560  10.421 -0.8575  3.6286  1.6761
22226TIP3   OH267559  10.065   4.937  10.139  0.2270 -0.0991  0.1189
22226TIP3    H167560  10.045   4.943  10.046  1.6073  0.6974 -0.1616
22226TIP3    H267561  10.115   4.856  10.148  0.7701  0.2166  0.0133
22227TIP3   OH267562   9.482   1.707   0.255  0.3407 -0.2596 -0.0466
22227TIP3    H167563   9.472   1.778   0.318 -0.7791 -0.1917 -0.2898
22227TIP3    H267564   9.482   1.750   0.169 -1.7788 -0.6377 -0.2803
22228TIP3   OH267565   5.611   7.060   4.169 -0.4817 -0.6622 -0.6971
22228TIP3    H167566   5.673   7.098   4.107 -1.6375 -1.0861 -2.1766
22228TIP3    H267567   5.543   7.126   4.178 -0.8490 -1.0396 -0.7010
22229TIP3   OH267568   6.576   1.921   9.073 -0.7154  0.1001  0.0188
22229TIP3    H167569   6.552   1.831   9.097 -0.6453  0.3758  1.2180
22229TIP3    H267570   6.508   1.974   9.115  1.6059  0.8844  3.1338
22230TIP3   OH267571   6.031   1.527   0.924 -0.1914 -0.2518  0.2786
22230TIP3    H167572   5.990   1.448   0.889  1.0775 -0.7705 -0.0553
22230TIP3    H267573   6.105   1.495   0.976 -1.0769  0.5791  2.1760
22231TIP3   OH267574   0.226   7.251   6.029  0.5595  0.5306 -0.4804
22231TIP3    H167575   0.192   7.164   6.009  0.4703  0.0001  1.7144
22231TIP3    H267576   0.152   7.296   6.070  1.2801  0.7860  0.5873
22232TIP3   OH267577   0.198   8.837   6.373 -0.6970  0.0794 -0.0300
22232TIP3    H167578   0.114   8.857   6.330 -1.0276  1.2132  1.0742
22232TIP3    H267579   0.176   8.831   6.466  0.2337 -0.9764  0.1386
22233TIP3   OH267580   7.796   5.903   9.651  0.8399 -0.0167 -0.5706
22233TIP3    H167581   7.785   5.993   9.621 -4.3236 -0.3955 -0.6032
22233TIP3    H267582   7.811   5.911   9.745  0.6856  0.8755 -0.6122
22234TIP3   OH267583   7.693   6.375   6.804 -0.1986  0.3530 -0.0185
22234TIP3    H167584   7.783   6.404   6.791  0.5897 -1.2741  1.3257
22234TIP3    H267585   7.644   6.455   6.823  1.3576  1.1007  1.0931
22235TIP3   OH267586   7.274   7.467   3.466 -0.3090 -0.7135  0.2428
22235TIP3    H167587   7.341   7.400   3.454 -0.0924 -0.1385 -2.5426
22235TIP3    H267588   7.193   7.418   3.481  0.1127 -1.5709 -0.2181
22236TIP3   OH267589   0.591   5.133   8.272 -0.2593  0.5876  0.7213
22236TIP3    H167590   0.533   5.157   8.199 -1.7773 -0.3770  1.5446
22236TIP3    H267591   0.652   5.070   8.235 -0.8793  0.2706  0.2276
22237TIP3   OH267592   0.251   4.767   9.207  0.6120 -0.5489 -0.2152
22237TIP3    H167593   0.263   4.842   9.150  2.4786  1.5336  2.6386
22237TIP3    H267594   0.172   4.787   9.257  1.7625  0.2329  1.3905
22238TIP3   OH267595   7.235   6.551   8.080  0.3225 -0.4239  0.4679
22238TIP3    H167596   7.170   6.486   8.105  0.7554 -0.8178  0.5724
22238TIP3    H267597   7.283   6.570   8.161 -0.3131  0.6078  0.6158
22239TIP3   OH267598   5.149   9.852  10.668  0.2440 -0.4733 -0.0971
22239TIP3    H167599   5.237   9.821  10.690  0.5148 -1.4240 -2.2079
22239TIP3    H267600   5.093   9.811  10.734  1.0779 -2.2812 -0.4269
22240TIP3   OH267601   5.212   8.754   2.644 -0.3154 -0.3197 -0.2487
22240TIP3    H167602   5.185   8.839   2.678 -0.5217 -0.7257  0.6306
22240TIP3    H267603   5.305   8.765   2.624 -0.4747  0.2785 -0.6912
22241TIP3   OH267604   5.999   7.565   5.360 -0.1659  0.2244 -0.0666
22241TIP3    H167605   5.924   7.617   5.329 -1.6033 -1.8616 -0.2585
22241TIP3    H267606   5.964   7.515   5.434  0.5548 -1.9726 -1.1475
22242TIP3   OH267607   2.631   7.104   5.786 -0.3416  0.1098  1.0233
22242TIP3    H167608   2.712   7.103   5.837  1.0965  0.7908 -1.1009
22242TIP3    H267609   2.570   7.050   5.836  1.9607 -1.8519  1.8996
22243TIP3   OH267610   8.043   8.270   0.562 -0.0590  0.2095 -0.4573
22243TIP3    H167611   7.956   8.302   0.540 -0.2523 -2.0923 -3.8063
22243TIP3    H267612   8.102   8.323   0.507  0.4095  0.1038 -0.0593
22244TIP3   OH267613   5.069   1.148   1.844  0.4523 -0.8234  0.4152
22244TIP3    H167614   4.983   1.176   1.877  1.6591  1.7572  1.6026
22244TIP3    H267615   5.069   1.053   1.857 -1.5434 -0.6687  2.1135
22245TIP3   OH267616   0.438   3.685   8.552 -0.4638  0.0152 -0.1555
22245TIP3    H167617   0.497   3.719   8.484  0.6034 -0.2162  0.6259
22245TIP3    H267618   0.362   3.652   8.504  0.6202 -0.8824 -1.3198
22246TIP3   OH267619   3.496   9.194   1.541  0.2133  0.3756  0.0701
22246TIP3    H167620   3.493   9.287   1.517  1.2931 -0.1088 -2.2095
22246TIP3    H267621   3.406   9.164   1.530  0.0875  0.8916 -0.4016
22247TIP3   OH267622   2.827   2.517   2.160  0.0195 -0.5196 -0.4534
22247TIP3    H167623   2.758   2.453   2.180  0.7280 -1.6099 -1.3406
22247TIP3    H267624   2.904   2.463   2.140  0.9683  0.6543 -0.0732
22248TIP3   OH267625   4.020   5.771   8.653 -0.5612  0.7059 -0.0252
22248TIP3    H167626   3.963   5.709   8.608 -0.1652  0.3341 -0.0205
22248TIP3    H267627   3.978   5.856   8.640 -0.5226  0.5863 -0.9788
22249TIP3   OH267628   3.669   2.437   1.583  0.2427  0.2533 -0.0634
22249TIP3    H167629   3.610   2.477   1.519  2.2424  1.6401 -1.1683
22249TIP3    H267630   3.645   2.344   1.583 -1.5897  0.6824 -0.7755
22250TIP3   OH267631   7.284   2.935   1.860 -0.0678 -0.0160 -0.1976
22250TIP3    H167632   7.334   3.007   1.899  0.5649 -0.8409  0.5175
22250TIP3    H267633   7.341   2.902   1.790  0.5519 -1.1815  0.8422
22251TIP3   OH267634   4.108   1.250   7.552  0.1259  0.7614 -0.5572
22251TIP3    H167635   4.061   1.334   7.549 -0.1480  0.5848 -1.8867
22251TIP3    H267636   4.099   1.215   7.464 -0.3266 -0.9812  0.1401
22252TIP3   OH267637   6.654   1.181   0.931  0.2737  0.2066 -0.3245
22252TIP3    H167638   6.719   1.206   0.865 -0.2636 -0.2544 -1.0391
22252TIP3    H267639   6.580   1.148   0.881 -1.2012  2.2180  0.3738
22253TIP3   OH267640   0.736   7.296  10.856 -0.8984  0.5065 -0.0575
22253TIP3    H167641   0.643   7.286  10.834 -0.5652 -0.1039 -1.2517
22253TIP3    H267642   0.758   7.384  10.827 -0.7594  0.1294 -1.1483
22254TIP3   OH267643  10.337   2.476   2.088 -0.1142  0.4889  0.2341
22254TIP3    H167644  10.262   2.438   2.134 -0.0560  0.4852  0.3268
22254TIP3    H267645  10.390   2.515   2.158  0.5141 -0.4366  0.2914
22255TIP3   OH267646   5.034   3.481   2.645  0.0537  0.3994  0.3368
22255TIP3    H167647   4.964   3.544   2.664 -2.9467 -1.5767 -2.8770
22255TIP3    H267648   4.990   3.396   2.643  2.5440 -0.9773 -1.6402
22256TIP3   OH267649   7.789   3.126   4.232 -0.0647 -0.0643 -0.1555
22256TIP3    H167650   7.787   3.177   4.313 -1.0704 -0.0952 -0.1465
22256TIP3    H267651   7.785   3.035   4.261 -0.2358 -0.0822 -0.2355
22257TIP3   OH267652   4.535   9.135   5.589  0.2322 -0.6007 -0.1851
22257TIP3    H167653   4.489   9.189   5.525  1.7584 -0.7376 -1.4687
22257TIP3    H267654   4.627   9.146   5.567  0.8037 -0.7561  1.9501
22258TIP3   OH267655   2.609   8.192   4.277  0.4200 -0.6288 -0.2077
22258TIP3    H167656   2.660   8.139   4.338  1.3098  1.7811  1.2822
22258TIP3    H267657   2.669   8.260   4.247 -0.7494 -0.2294 -1.7950
22259TIP3   OH267658   5.640   8.087   4.178 -0.0833  0.0412  0.0341
22259TIP3    H167659   5.562   8.064   4.128  0.2387 -1.5209  0.1733
22259TIP3    H267660   5.609   8.094   4.269 -0.0071 -1.1268  0.1735
22260TIP3   OH267661   9.635   3.099   2.513 -0.5124  0.6686 -0.1686
22260TIP3    H167662   9.556   3.105   2.567 -0.2646  1.3998  0.1279
22260TIP3    H267663   9.706   3.084   2.576 -0.3774  0.2597 -0.4112
22261TIP3   OH267664   9.204   8.891   0.359 -0.1651 -0.3298  0.1408
22261TIP3    H167665   9.293   8.878   0.391 -0.2721  2.7887  2.1393
22261TIP3    H267666   9.148   8.876   0.436 -1.0997  0.4157 -0.3707
22262TIP3   OH267667   3.339   5.580   7.585 -0.3162  0.0810  0.5316
22262TIP3    H167668   3.323   5.540   7.670 -0.9225 -1.6175 -0.3392
22262TIP3    H267669   3.408   5.528   7.546 -1.6288 -0.6543 -0.9369
22263TIP3   OH267670   4.525   5.935   6.892 -0.7847  0.0378  0.0735
22263TIP3    H167671   4.533   5.985   6.974 -0.0806 -1.1267  0.7515
22263TIP3    H267672   4.439   5.894   6.898 -0.1286 -1.3128  1.0320
22264TIP3   OH267673   4.457   2.493   1.597  0.0353 -0.3282 -0.2336
22264TIP3    H167674   4.541   2.449   1.611 -0.3341 -1.1376 -0.5082
22264TIP3    H267675   4.398   2.453   1.661  0.4482  2.0287  1.7457
22265TIP3   OH267676   0.952   2.673   0.881  0.0043  0.0422 -0.0422
22265TIP3    H167677   0.926   2.765   0.876  0.2218  0.0867 -0.3982
22265TIP3    H267678   1.000   2.657   0.800  0.3175 -0.2784  0.2050
22266TIP3   OH267679   9.802   5.958   7.452  0.2827 -0.2371  0.0142
22266TIP3    H167680   9.886   5.931   7.417  0.9466  0.7223  0.8052
22266TIP3    H267681   9.751   5.878   7.458  2.4336 -1.5943  3.0571
22267TIP3   OH267682   3.951   6.657   2.079  0.5869  0.4081 -0.6675
22267TIP3    H167683   3.982   6.747   2.091  0.0531  0.3208  1.8517
22267TIP3    H267684   3.856   6.664   2.088  0.4835 -0.3118 -1.1779
22268TIP3   OH267685   1.603   3.753   4.463 -0.5588  0.6974 -0.3792
22268TIP3    H167686   1.664   3.726   4.532 -0.7855 -1.1278 -0.8220
22268TIP3    H267687   1.646   3.826   4.419  2.3664 -1.7863 -1.9981
22269TIP3   OH267688   2.793   6.424   4.926  0.9860 -0.2495 -0.2234
22269TIP3    H167689   2.765   6.435   5.016 -0.4367 -1.0775 -0.5309
22269TIP3    H267690   2.839   6.340   4.925  0.1318 -0.7261 -0.4423
22270TIP3   OH267691   2.239   3.097   2.439 -0.4193  0.0773 -0.0646
22270TIP3    H167692   2.158   3.147   2.440  0.4854  1.6190  0.5518
22270TIP3    H267693   2.256   3.076   2.531  0.0962  0.1582 -0.1343
22271TIP3   OH267694  10.039   4.121   7.413 -0.2365  0.1839 -0.6882
22271TIP3    H167695  10.003   4.033   7.404 -2.3605  1.0288 -1.0222
22271TIP3    H267696   9.978   4.166   7.472 -0.6305  2.1247 -2.4642
22272TIP3   OH267697   0.763   5.490   0.890  0.3236  0.2400  0.0583
22272TIP3    H167698   0.703   5.562   0.909  2.6826  2.1019  1.0473
22272TIP3    H267699   0.759   5.479   0.795 -0.2125  1.6136 -0.1061
22273TIP3   OH267700   6.627   0.020   3.006  0.1804  0.5802 -0.5415
22273TIP3    H167701   6.673  -0.051   2.961 -1.8467 -0.3497 -1.2455
22273TIP3    H267702   6.577  -0.023   3.075  2.5705  1.8956  2.2539
22274TIP3   OH267703   4.371   1.095   7.432 -0.7153  0.5869 -0.2766
22274TIP3    H167704   4.276   1.082   7.439 -0.4573 -0.9707  0.7977
22274TIP3    H267705   4.380   1.184   7.399 -2.5700  0.0987 -2.3438
22275TIP3   OH267706   7.577   8.608   1.865 -0.2459 -0.5352  0.2007
22275TIP3    H167707   7.659   8.567   1.838 -0.4068 -2.3764  2.1928
22275TIP3    H267708   7.605   8.687   1.913  0.3205 -0.7543  0.2419
22276TIP3   OH267709   1.923   3.065  10.664  0.6908 -0.0127  0.4730
22276TIP3    H167710   1.841   3.114  10.668  0.7806  0.0514  2.4915
22276TIP3    H267711   1.990   3.131  10.648  0.5271  0.1347  0.3862
22277TIP3   OH267712   6.559   5.064   0.030 -0.1451 -0.1638 -0.4975
22277TIP3    H167713   6.534   5.044  -0.060 -1.6108 -0.5509 -0.0386
22277TIP3    H267714   6.481   5.044   0.081  0.9204 -0.7234  0.9677
22278TIP3   OH267715   0.992   5.937   7.365 -0.1192 -0.0881 -0.4267
22278TIP3    H167716   1.007   6.031   7.363 -0.0175 -0.0920 -2.9715
22278TIP3    H267717   1.079   5.898   7.361 -0.1565 -0.3209  0.6749
22279TIP3   OH267718   0.987   1.221   0.554  0.1591 -0.2466 -0.4808
22279TIP3    H167719   0.923   1.227   0.483  0.5048 -0.1871 -0.7912
22279TIP3    H267720   0.936   1.193   0.630 -0.5668  1.5347 -0.2786
22280TIP3   OH267721   9.939   2.809   1.453  0.3164  0.4690 -0.3365
22280TIP3    H167722   9.941   2.756   1.533 -1.0785  3.8497  2.1626
22280TIP3    H267723  10.030   2.839   1.442  1.2424 -2.4948 -2.0672
22281TIP3   OH267724   5.924   8.101   2.559  0.3776  0.2969  0.6818
22281TIP3    H167725   5.902   8.069   2.646 -0.8713  2.1971  1.1209
22281TIP3    H267726   5.992   8.041   2.528  0.0683 -1.0756  2.4972
22282TIP3   OH267727   2.833   6.729   9.604  0.2000  0.0999  0.0813
22282TIP3    H167728   2.803   6.787   9.673 -1.4004 -0.7077  0.1055
22282TIP3    H267729   2.859   6.649   9.649 -0.7278 -0.3846 -0.2239
22283TIP3   OH267730   1.287   3.962   3.065  0.0340 -0.0477  1.0382
22283TIP3    H167731   1.288   4.057   3.056 -0.6174 -0.0975  0.4034
22283TIP3    H267732   1.261   3.929   2.979  0.7342 -0.8260  1.1009
22284TIP3   OH267733   7.395   0.789   4.983  0.5166  0.5276 -0.0096
22284TIP3    H167734   7.382   0.700   4.950 -0.1032  0.7575 -0.4099
22284TIP3    H267735   7.355   0.845   4.916  1.4636  1.1464 -0.0687
22285TIP3   OH267736   5.340   1.121   7.240 -0.0653  0.4785 -0.2441
22285TIP3    H167737   5.386   1.158   7.316  1.2314  0.4175 -0.9817
22285TIP3    H267738   5.287   1.050   7.276  1.7324 -0.5757  0.4001
22286TIP3   OH267739   2.584   2.540   1.644 -0.5058 -0.2580  0.4843
22286TIP3    H167740   2.555   2.474   1.706 -0.9374 -3.5428 -2.8646
22286TIP3    H267741   2.506   2.595   1.630 -1.8656 -2.2689 -0.3699
22287TIP3   OH267742  10.223   3.168   3.260  0.1847  0.4181 -0.1785
22287TIP3    H167743  10.301   3.165   3.315  0.4290  2.7744 -0.2966
22287TIP3    H267744  10.246   3.116   3.182  0.9623 -0.3445  0.5442
22288TIP3   OH267745   6.752   6.777   1.678 -0.1063 -0.3397  0.2677
22288TIP3    H167746   6.775   6.763   1.770 -1.6724  0.2259  0.7631
22288TIP3    H267747   6.819   6.727   1.629 -0.1487 -1.9225  1.7302
22289TIP3   OH267748   7.202   1.777   4.485  0.3759  0.7176 -0.1708
22289TIP3    H167749   7.115   1.804   4.457  1.0063  1.4625 -1.5633
22289TIP3    H267750   7.223   1.702   4.429  0.4269  0.2023  0.5288
22290TIP3   OH267751   6.969   6.911   1.305  0.0201  0.1117 -0.2170
22290TIP3    H167752   7.034   6.961   1.355 -0.4358 -0.1367  0.6362
22290TIP3    H267753   6.886   6.928   1.350 -0.3218 -0.4963 -0.6117
22291TIP3   OH267754   6.562   2.716   3.468  0.0878 -0.1956  0.0788
22291TIP3    H167755   6.642   2.717   3.520  0.5357 -0.5571 -0.5952
22291TIP3    H267756   6.533   2.808   3.467 -0.5746 -0.3381  1.9154
22292TIP3   OH267757   0.053   7.220  10.429  0.3478  0.0208  0.2486
22292TIP3    H167758  -0.036   7.187  10.434  0.5176 -0.2888  1.5110
22292TIP3    H267759   0.044   7.315  10.417 -0.1347 -0.1451 -0.8068
22293TIP3   OH267760   8.218   8.638   2.955  0.4540 -0.0728 -0.2001
22293TIP3    H167761   8.258   8.684   3.029  0.6269 -0.5863  0.0326
22293TIP3    H267762   8.135   8.604   2.990  1.3520 -1.8395  0.2947
22294TIP3   OH267763   2.036   8.567  10.800 -0.1211  0.5533 -0.0382
22294TIP3    H167764   2.104   8.580  10.734 -1.4463  1.4871 -1.2810
22294TIP3    H267765   2.045   8.475  10.826  1.9420  0.7950  0.2545
22295TIP3   OH267766   0.691  10.151   9.563  0.2976  0.2480  0.0864
22295TIP3    H167767   0.600  10.154   9.593  0.2025  2.6753 -0.2560
22295TIP3    H267768   0.737  10.099   9.629 -0.6578  2.1054  2.3263
22296TIP3   OH267769   3.710   3.833   6.785 -0.3597 -0.2836 -0.0154
22296TIP3    H167770   3.754   3.803   6.706 -2.4007  2.0760 -2.2202
22296TIP3    H267771   3.664   3.756   6.818 -1.1097 -0.8855 -2.3317
22297TIP3   OH267772   9.284   7.604   9.406  0.1025 -0.5315  0.1290
22297TIP3    H167773   9.241   7.524   9.374  1.0071 -1.1988  0.5247
22297TIP3    H267774   9.212   7.666   9.419 -0.7387 -1.5883  0.7217
22298TIP3   OH267775   6.484   5.458  10.394 -0.8839  0.0204 -0.0146
22298TIP3    H167776   6.467   5.426  10.483 -1.0128 -0.4438 -0.2012
22298TIP3    H267777   6.396   5.470  10.356 -0.9207 -3.1214 -1.2455
22299TIP3   OH267778  10.659   6.670   7.721 -0.0996 -0.1952  0.1753
22299TIP3    H167779  10.564   6.666   7.710 -0.4246  1.5712  1.7419
22299TIP3    H267780  10.690   6.720   7.646 -0.1958 -1.8753 -1.0359
22300TIP3   OH267781  10.547   0.375   2.478  1.2775 -0.2519 -0.1683
22300TIP3    H167782  10.563   0.318   2.553  0.6018  0.5918  0.6436
22300TIP3    H267783  10.524   0.316   2.406  0.9434 -1.0204  0.5600
22301TIP3   OH267784   0.484   6.136   7.099  0.0232  0.7039  0.8201
22301TIP3    H167785   0.400   6.181   7.101  0.0744  0.7896  1.3363
22301TIP3    H267786   0.549   6.205   7.092  0.0631  0.6530  0.6783
22302TIP3   OH267787   0.969   6.222   5.088 -0.0018 -0.2698  0.5885
22302TIP3    H167788   0.998   6.162   5.020 -0.5930  0.7171 -0.5791
22302TIP3    H267789   1.006   6.187   5.169  1.4156 -1.0113 -0.3456
22303TIP3   OH267790   6.579   2.785   7.585 -0.5599  0.3130 -0.6474
22303TIP3    H167791   6.544   2.786   7.674  0.0269  2.3861 -0.3842
22303TIP3    H267792   6.531   2.854   7.539 -0.6654 -0.5487 -1.8815
22304TIP3   OH267793   4.484   8.779   4.948  0.0021  0.0653  0.4179
22304TIP3    H167794   4.564   8.797   4.899 -0.2828  1.0432  0.2983
22304TIP3    H267795   4.515   8.745   5.032  0.4896 -2.4224 -0.6793
22305TIP3   OH267796   4.268   2.617   5.447  0.5402 -0.0013  0.1603
22305TIP3    H167797   4.200   2.668   5.491  0.5834  1.7312 -1.6240
22305TIP3    H267798   4.321   2.581   5.518 -1.4850 -0.3790  1.5555
22306TIP3   OH267799   8.081   9.791   2.057 -0.3676 -0.2845  0.1562
22306TIP3    H167800   7.991   9.760   2.063 -0.4509 -0.1488 -0.3390
22306TIP3    H267801   8.109   9.803   2.148 -0.6950 -0.7658  0.3195
22307TIP3   OH267802   4.045   2.036   0.893 -0.4250  0.7562 -0.3771
22307TIP3    H167803   3.984   1.981   0.843  1.3613 -1.1891 -0.5689
22307TIP3    H267804   3.991   2.108   0.926 -2.4708 -0.0124 -1.8238
22308TIP3   OH267805   0.820   2.945  10.219 -0.3392  0.0927 -0.3826
22308TIP3    H167806   0.806   2.870  10.162 -0.5998 -0.1004 -0.0685
22308TIP3    H267807   0.732   2.976  10.241 -0.2427  1.4935 -1.8003
22309TIP3   OH267808   7.918   9.068   4.282  0.1593  0.2774 -0.4893
22309TIP3    H167809   7.836   9.097   4.323  0.5490 -0.2937  0.7561
22309TIP3    H267810   7.969   9.148   4.273  0.0504  0.4296  0.1494
22310TIP3   OH267811   3.341   2.236   7.956 -0.6353 -0.6084 -0.3460
22310TIP3    H167812   3.414   2.223   7.895  0.1613  0.0050  0.4652
22310TIP3    H267813   3.348   2.328   7.983 -0.2243 -1.1791  1.6169
22311TIP3   OH267814   2.172   8.612   5.350 -0.2515  0.1528 -0.2819
22311TIP3    H167815   2.122   8.694   5.344  2.3603  1.8707 -0.4675
22311TIP3    H267816   2.204   8.598   5.261  2.2970  1.0610  0.3872
22312TIP3   OH267817   8.333   2.722   7.482  0.3042  0.0282 -0.3938
22312TIP3    H167818   8.429   2.719   7.482  0.3028 -1.3665  1.3951
22312TIP3    H267819   8.312   2.814   7.499  1.3320  0.2187 -0.0621
22313TIP3   OH267820   9.466   2.678   8.481 -0.3295  0.1757  0.2898
22313TIP3    H167821   9.454   2.583   8.490 -0.5609  0.1372 -0.4012
22313TIP3    H267822   9.558   2.689   8.459 -0.5431  0.0305 -0.7090
22314TIP3   OH267823   9.741   8.553   6.853 -0.2808  0.2940 -0.1067
22314TIP3    H167824   9.772   8.561   6.944  0.6218  0.6368 -0.4310
22314TIP3    H267825   9.666   8.612   6.848 -0.1915  0.4526  0.3635
22315TIP3   OH267826   0.231   7.634   1.712 -0.6700 -0.5369 -0.0164
22315TIP3    H167827   0.256   7.639   1.620 -1.6298 -0.4546 -0.2778
22315TIP3    H267828   0.215   7.724   1.738 -0.5982 -0.5803  0.1819
22316TIP3   OH267829   0.536   4.258   2.888 -0.7381 -0.1305 -0.8318
22316TIP3    H167830   0.471   4.328   2.880 -0.5559  0.0435 -0.7875
22316TIP3    H267831   0.499   4.186   2.837 -1.9911 -0.7970  0.9186
22317TIP3   OH267832  10.631   0.224   4.376 -0.6910  0.1289 -0.0265
22317TIP3    H167833  10.540   0.250   4.364 -1.1973 -1.3696  0.4085
22317TIP3    H267834  10.665   0.285   4.441 -2.3854 -1.3192  2.3783
22318TIP3   OH267835   2.559   9.697   5.433 -0.0899  0.0472 -0.5553
22318TIP3    H167836   2.505   9.774   5.414 -2.1568 -0.9815  0.7664
22318TIP3    H267837   2.646   9.733   5.454 -1.0847  2.0561  0.3386
22319TIP3   OH267838   7.253   0.796   7.241  0.1182  0.0925  0.0686
22319TIP3    H167839   7.349   0.800   7.238  0.3362  0.6419  3.4952
22319TIP3    H267840   7.226   0.885   7.219  0.4796  0.2940  0.4182
22320TIP3   OH267841   9.208   7.764   4.526 -0.3586 -0.0766  0.3360
22320TIP3    H167842   9.284   7.785   4.471 -0.1293  1.2708  1.1033
22320TIP3    H267843   9.157   7.701   4.475 -0.6982  1.8662 -1.9071
22321TIP3   OH267844   7.422   6.258   6.670 -0.4080  0.3463  0.2971
22321TIP3    H167845   7.387   6.268   6.581 -1.9938  0.5143  0.9137
22321TIP3    H267846   7.493   6.322   6.675  0.4091 -0.3916 -1.1744
22322TIP3   OH267847   4.237   4.610   9.857 -0.1348 -0.1947 -0.3869
22322TIP3    H167848   4.174   4.622   9.786 -0.3326 -1.6625 -0.4832
22322TIP3    H267849   4.321   4.634   9.820 -0.6559  2.4139 -0.0812
22323TIP3   OH267850   2.855   6.691   8.437  0.1553  0.4378  0.1700
22323TIP3    H167851   2.887   6.780   8.444  0.1883  0.4433 -0.0290
22323TIP3    H267852   2.896   6.657   8.357  0.5154  0.0900  0.4964
22324TIP3   OH267853   8.147   4.453   9.658 -0.5169 -0.2148  0.2260
22324TIP3    H167854   8.226   4.478   9.706 -0.4131  0.0712 -0.0813
22324TIP3    H267855   8.083   4.430   9.725 -1.7029  3.9134  0.7854
22325TIP3   OH267856   4.990   3.239   5.776  0.6421 -0.9404 -0.2445
22325TIP3    H167857   4.972   3.320   5.823 -0.2133 -1.3732  0.2057
22325TIP3    H267858   4.969   3.259   5.685  2.1712 -0.1392 -0.4423
22326TIP3   OH267859   3.036   1.094   8.985  0.2307  0.1124 -0.5453
22326TIP3    H167860   3.042   1.148   8.907  0.4324  3.4279  1.5811
22326TIP3    H267861   3.125   1.093   9.020 -0.1246 -0.1416  0.3608
22327TIP3   OH267862   8.382   1.807   1.878 -0.2687  0.4578 -0.2022
22327TIP3    H167863   8.400   1.872   1.946 -1.2292  0.5383 -0.0181
22327TIP3    H267864   8.287   1.796   1.879 -0.3070  0.5064 -1.5735
22328TIP3   OH267865   4.472   6.477   0.731 -0.3718  0.3031  0.2436
22328TIP3    H167866   4.530   6.422   0.678 -2.1631 -1.2411 -0.2272
22328TIP3    H267867   4.446   6.548   0.672  2.1432  1.8959  0.9281
22329TIP3   OH267868   3.970   7.546   3.298  0.2977 -0.0785 -0.1971
22329TIP3    H167869   3.934   7.588   3.375 -0.7388 -0.4738 -0.4481
22329TIP3    H267870   3.913   7.471   3.282  1.6989 -1.2157 -0.1462
22330TIP3   OH267871   3.386   0.780   4.280 -0.4989 -0.0611 -0.4948
22330TIP3    H167872   3.442   0.709   4.249  0.0786 -0.0174  0.4260
22330TIP3    H267873   3.352   0.749   4.364 -0.4785  0.6258 -0.2275
22331TIP3   OH267874   0.662   9.824   3.436 -0.9266  0.5268  1.1175
22331TIP3    H167875   0.578   9.841   3.394  0.4917 -0.6821 -2.6369
22331TIP3    H267876   0.661   9.729   3.452  0.9423 -0.2645 -2.4711
22332TIP3   OH267877   9.411   3.430   4.583  0.8278  0.8464  0.2568
22332TIP3    H167878   9.423   3.401   4.674  1.6955 -3.2630 -0.9307
22332TIP3    H267879   9.499   3.455   4.555  1.1578 -0.6229 -0.1409
22333TIP3   OH267880  10.107   9.467   7.017 -0.0128 -0.3954 -0.5069
22333TIP3    H167881  10.076   9.496   6.931  0.9862 -0.5198 -0.9236
22333TIP3    H267882  10.178   9.406   6.997  0.2456 -0.3986  0.4061
22334TIP3   OH267883  10.120   6.818   3.528  0.2156 -0.5207  0.4288
22334TIP3    H167884  10.080   6.732   3.540  0.6057 -0.6191  1.0530
22334TIP3    H267885  10.158   6.816   3.440  0.3160 -1.0215  0.4837
22335TIP3   OH267886   2.120   9.593   0.357 -0.2469 -0.2247  0.1449
22335TIP3    H167887   2.097   9.675   0.313 -3.3826 -0.6914  0.6990
22335TIP3    H267888   2.203   9.567   0.317 -0.6594  1.6822 -2.1972
22336TIP3   OH267889   1.791   2.362   9.540  0.0987 -0.1871 -0.5849
22336TIP3    H167890   1.849   2.321   9.476  0.7795  1.0943 -0.8133
22336TIP3    H267891   1.799   2.307   9.618 -0.6436 -1.6978 -1.5137
22337TIP3   OH267892   5.327   1.959   9.967 -0.2123  0.2549 -0.1274
22337TIP3    H167893   5.362   2.049   9.971  0.0720  0.1058  0.9782
22337TIP3    H267894   5.232   1.970   9.965 -0.2151  0.5724  1.0298
22338TIP3   OH267895   3.761   4.133   9.504 -0.4830  0.6343  0.1170
22338TIP3    H167896   3.788   4.204   9.446 -1.4064  0.1422 -0.9511
22338TIP3    H267897   3.842   4.105   9.547  0.3013  0.7739 -1.2141
22339TIP3   OH267898   5.809   6.887   2.755 -0.0017  0.4097 -0.8366
22339TIP3    H167899   5.858   6.874   2.674 -0.5709  3.4507 -1.7849
22339TIP3    H267900   5.870   6.859   2.824  2.0648  1.4450 -2.1259
22340TIP3   OH267901   8.172   3.919  10.826  0.1950  0.0674  0.6195
22340TIP3    H167902   8.131   3.832  10.819  0.7345 -0.1052 -0.8897
22340TIP3    H267903   8.183   3.933  10.920 -2.4569 -0.2588  1.0762
22341TIP3   OH267904   8.133   9.741   5.060  0.7326 -0.3088  0.7241
22341TIP3    H167905   8.118   9.649   5.081  1.8187 -1.0610 -1.4936
22341TIP3    H267906   8.224   9.757   5.086 -0.0742  0.8292  3.1239
22342TIP3   OH267907   4.814  10.889   9.907  0.5321  0.0076 -0.2963
22342TIP3    H167908   4.890  10.882   9.965  0.2763 -0.3424 -0.0046
22342TIP3    H267909   4.839  10.839   9.829  1.7830  2.2888 -1.4822
22343TIP3   OH267910   0.869   8.787  10.833 -0.2540 -0.3414  0.1242
22343TIP3    H167911   0.911   8.795  10.747  0.7360 -0.7840  0.5574
22343TIP3    H267912   0.928   8.833  10.893 -1.9716  1.8661  0.2892
22344TIP3   OH267913   5.142   5.223   1.445  0.5398  0.2684  0.1175
22344TIP3    H167914   5.109   5.201   1.532  0.1155  0.4515  0.0068
22344TIP3    H267915   5.170   5.314   1.452  2.6623 -0.3602  0.6837
22345TIP3   OH267916   7.406   8.587   6.833 -0.0435 -0.3492 -0.2140
22345TIP3    H167917   7.356   8.642   6.773  0.6171 -0.2148 -0.6523
22345TIP3    H267918   7.496   8.592   6.800  0.5626  0.6826  1.4771
22346TIP3   OH267919   8.747   5.870   6.943  0.2570 -0.3660 -0.9454
22346TIP3    H167920   8.762   5.803   6.877  0.6418 -1.5331  0.2749
22346TIP3    H267921   8.677   5.924   6.908  1.9897  0.5024 -3.3595
22347TIP3   OH267922   1.745   8.800   0.228 -0.0972  0.2777 -0.4286
22347TIP3    H167923   1.760   8.831   0.139  0.3128 -0.2369 -0.5392
22347TIP3    H267924   1.753   8.705   0.223  0.4401  0.2790  0.2481
22348TIP3   OH267925   4.605   5.651   9.125 -0.1215  0.2391 -0.0284
22348TIP3    H167926   4.692   5.665   9.163  0.1533 -1.4682  0.0284
22348TIP3    H267927   4.606   5.702   9.044  0.8896  0.3457  0.0375
22349TIP3   OH267928   5.533   8.756  10.879  0.3189 -0.2808 -0.8047
22349TIP3    H167929   5.596   8.828  10.872 -0.4940  0.3981 -1.3459
22349TIP3    H267930   5.454   8.796  10.916  0.0947 -1.0522 -0.4209
22350TIP3   OH267931   4.622   0.753   5.385 -0.9423  0.2222 -0.0810
22350TIP3    H167932   4.538   0.795   5.371 -1.6339 -1.0068  0.2670
22350TIP3    H267933   4.616   0.713   5.472 -0.2552 -0.4247 -0.3141
22351TIP3   OH267934   6.264  10.125   4.639 -0.6629 -1.1712 -0.3942
22351TIP3    H167935   6.344  10.138   4.690 -0.6012 -0.0961 -0.7322
22351TIP3    H267936   6.285  10.161   4.553 -2.6190  2.5555  0.4790
22352TIP3   OH267937   0.574  10.322   6.278  0.6170 -0.1321 -0.4240
22352TIP3    H167938   0.654  10.316   6.330  1.2591 -0.6417 -1.4502
22352TIP3    H267939   0.603  10.312   6.187 -0.4422  1.0626 -0.9209
22353TIP3   OH267940   0.092   4.622   3.854 -0.0269  0.1802 -0.0039
22353TIP3    H167941   0.181   4.655   3.865  0.0261 -0.2558  1.0071
22353TIP3    H267942   0.099   4.528   3.871 -0.6811  0.1434  0.1109
22354TIP3   OH267943   2.872   8.716   3.211 -0.1065  0.4834  0.6413
22354TIP3    H167944   2.791   8.765   3.225 -1.7255 -1.8288  0.0295
22354TIP3    H267945   2.845   8.641   3.157  2.2195 -1.0296  1.4464
22355TIP3   OH267946   5.549   6.988   4.599 -0.1605 -0.1796  0.3566
22355TIP3    H167947   5.623   7.036   4.562  1.0998 -2.9138 -1.0521
22355TIP3    H267948   5.473   7.018   4.549  0.4387  0.8189  0.0142
22356TIP3   OH267949   3.343   6.583   0.054  0.2264  0.1656  0.1870
22356TIP3    H167950   3.261   6.624   0.082  0.6392  0.7027  0.6323
22356TIP3    H267951   3.358   6.514   0.118 -0.6963 -1.0142 -0.8116
22357TIP3   OH267952   1.691   1.164   9.720  0.1359  0.6839 -0.1281
22357TIP3    H167953   1.641   1.105   9.776 -0.5475  0.7855 -0.6204
22357TIP3    H267954   1.671   1.136   9.631  1.4287  0.3481 -0.3382
22358TIP3   OH267955   5.660   6.775   2.973  0.4312 -0.2392  0.1575
22358TIP3    H167956   5.724   6.815   2.915  0.6144 -0.3665  0.2721
22358TIP3    H267957   5.672   6.681   2.963 -0.1908 -0.2770 -0.3252
22359TIP3   OH267958   4.477   6.253   7.471 -0.0283 -0.1392  0.3322
22359TIP3    H167959   4.516   6.254   7.384 -1.5377  0.2483 -0.3682
22359TIP3    H267960   4.542   6.296   7.527  0.0693  1.5622 -1.0239
22360TIP3   OH267961   9.871  10.468   4.104 -0.7059 -0.0308  0.4959
22360TIP3    H167962   9.881  10.419   4.023  0.3666  0.6039  0.2285
22360TIP3    H267963   9.931  10.542   4.096 -1.1412  0.4686  1.5487
22361TIP3   OH267964   7.998   0.982   7.870  0.0240 -0.5450 -0.2883
22361TIP3    H167965   7.986   0.887   7.862 -0.5490 -0.4844 -0.2328
22361TIP3    H267966   8.088   0.998   7.843  0.3719 -1.2024  0.4369
22362TIP3   OH267967   0.703   7.781   2.609  0.4286  0.0646 -0.1573
22362TIP3    H167968   0.796   7.789   2.629  0.4153  1.5305 -0.5579
22362TIP3    H267969   0.668   7.870   2.620 -0.3896  0.1318 -2.6209
22363TIP3   OH267970   3.423   5.974   4.100  0.1125  0.3026  0.2471
22363TIP3    H167971   3.468   6.043   4.148  0.1848 -0.0504  0.6927
22363TIP3    H267972   3.492   5.913   4.073  0.2568  1.1488 -1.4491
22364TIP3   OH267973   4.718   2.022   2.833  0.2272  1.1464 -0.2900
22364TIP3    H167974   4.772   1.947   2.861  1.0778  1.0724 -1.9778
22364TIP3    H267975   4.780   2.079   2.788 -1.1477  0.9164 -2.5652
22365TIP3   OH267976  10.457  10.004   2.239  0.0735  0.0553  0.3174
22365TIP3    H167977  10.536  10.013   2.293 -0.7225 -0.0897  1.5733
22365TIP3    H267978  10.422   9.919   2.265  0.3625 -0.6437 -1.4526
22366TIP3   OH267979   2.152   9.943   6.448  0.4750  0.0008 -0.0634
22366TIP3    H167980   2.081   9.917   6.507  0.4819 -1.7616 -0.7599
22366TIP3    H267981   2.109   9.994   6.380  0.8252  4.7235  2.7873
22367TIP3   OH267982   6.098   6.470   1.228  0.1920 -0.3349  0.0355
22367TIP3    H167983   6.092   6.392   1.172  0.4810 -2.1868  2.4310
22367TIP3    H267984   6.007   6.493   1.247  0.1149 -0.2986 -0.3528
22368TIP3   OH267985   5.232   6.037   2.162  0.4140 -0.4874  0.2231
22368TIP3    H167986   5.273   5.951   2.177 -2.4117 -1.8152  1.1158
22368TIP3    H267987   5.238   6.050   2.068  2.9499 -0.4653  0.3082
22369TIP3   OH267988   4.960   9.248   9.371 -0.1468 -0.0315  0.3757
22369TIP3    H167989   4.980   9.157   9.393 -1.2952 -0.1824  0.8442
22369TIP3    H267990   4.918   9.284   9.449 -0.4416  0.6667 -0.0867
22370TIP3   OH267991  10.494   1.427   2.659  0.3643  0.1795 -0.2750
22370TIP3    H167992  10.577   1.446   2.702  0.6635 -1.3704 -0.1310
22370TIP3    H267993  10.438   1.392   2.729  0.7585 -2.0786 -1.0267
22371TIP3   OH267994  10.336   4.445   1.660  0.1677  0.2161  0.4733
22371TIP3    H167995  10.257   4.488   1.693 -0.1490  0.5905 -0.7261
22371TIP3    H267996  10.407   4.484   1.710 -0.1388  1.9611 -0.3914
22372TIP3   OH267997   5.503  10.259   1.602  0.0420 -0.4750  0.1359
22372TIP3    H167998   5.464  10.329   1.550 -0.1607 -0.8610 -0.2361
22372TIP3    H267999   5.498  10.181   1.547  2.2711 -0.3528 -0.3626
22373TIP3   OH268000   7.565  10.353   4.120  0.4651  0.2509  0.5625
22373TIP3    H168001   7.516  10.306   4.052 -0.4760  0.3241  1.1769
22373TIP3    H268002   7.627  10.289   4.153 -0.4850 -0.4267  1.0593
22374TIP3   OH268003  10.618  10.659  10.628  0.2137  0.0673 -0.1824
22374TIP3    H168004  10.692  10.599  10.640 -0.7421 -1.2621 -0.6651
22374TIP3    H268005  10.595  10.651  10.535 -0.6634  0.2938  0.0022
22375TIP3   OH268006   1.947   3.728   5.198  0.4388 -0.5281 -0.5264
22375TIP3    H168007   1.909   3.644   5.224 -0.7120  0.6839  2.1651
22375TIP3    H268008   2.040   3.720   5.218  0.3751 -1.2331 -0.4960
22376TIP3   OH268009   9.883   4.126   1.910 -0.2360  0.1398  0.0596
22376TIP3    H168010   9.904   4.050   1.966  0.9921  0.9626  0.7629
22376TIP3    H268011   9.843   4.088   1.832  0.1974 -1.2221  0.4715
22377TIP3   OH268012   5.058   2.799   9.741 -0.1604  0.0294 -0.4163
22377TIP3    H168013   5.065   2.836   9.829 -1.1295 -0.8006  0.0312
22377TIP3    H268014   5.136   2.745   9.732 -1.5337 -2.4675  1.2491
22378TIP3   OH268015   5.507  10.335  10.104  0.3830  0.3942 -0.4314
22378TIP3    H168016   5.591  10.373  10.080  0.9225 -0.0844  0.5936
22378TIP3    H268017   5.491  10.367  10.193 -0.7336  0.8139 -0.7644
22379TIP3   OH268018   1.382   7.204   3.331 -0.1755  0.1812 -0.0288
22379TIP3    H168019   1.301   7.222   3.379 -1.4171  0.9777 -2.2240
22379TIP3    H268020   1.433   7.284   3.339 -1.2567  1.0871 -1.5372
22380TIP3   OH268021   7.678  10.267  10.835  0.1176  0.8661  0.0145
22380TIP3    H168022   7.733  10.262  10.913  0.0649  0.1772  0.0167
22380TIP3    H268023   7.699  10.187  10.787 -2.0438 -0.2701  0.8102
22381TIP3   OH268024   1.897   1.226   9.263 -0.1145 -0.0052 -0.0111
22381TIP3    H168025   1.940   1.187   9.339 -0.8632  0.0158  0.4339
22381TIP3    H268026   1.916   1.319   9.269 -0.6425  0.0775  0.4747
22382TIP3   OH268027   3.971   8.208   8.684 -0.1720  0.1191 -0.1677
22382TIP3    H168028   3.972   8.232   8.777  0.8144  0.1848 -0.1824
22382TIP3    H268029   4.037   8.266   8.645  1.4791 -1.8077 -0.4094
22383TIP3   OH268030   2.846  10.142   8.347 -0.6302  0.4413 -0.0823
22383TIP3    H168031   2.881  10.069   8.397  1.3632  1.5904  0.3022
22383TIP3    H268032   2.752  10.127   8.345 -0.5548 -0.7336  2.2518
22384TIP3   OH268033   1.607   6.185   3.546 -0.0759 -0.1810  0.3188
22384TIP3    H168034   1.682   6.217   3.494  0.2519 -1.0290  0.2506
22384TIP3    H268035   1.540   6.252   3.535  0.9520  0.9989  1.0368
22385TIP3   OH268036   4.230   4.249   2.452  0.0712 -0.0228 -0.1960
22385TIP3    H168037   4.155   4.299   2.419 -0.1006  0.5319  0.9703
22385TIP3    H268038   4.293   4.248   2.380 -0.8986 -0.1763 -1.0620
22386TIP3   OH268039   4.761   5.375   6.740  0.1232 -0.7027  0.0783
22386TIP3    H168040   4.824   5.394   6.810  1.5381 -1.3789 -0.9730
22386TIP3    H268041   4.814   5.364   6.662 -1.4159 -0.1036 -1.1119
22387TIP3   OH268042   8.947   6.516   6.796 -0.4620  0.1899  0.1413
22387TIP3    H168043   8.944   6.545   6.705 -1.4408  0.3786  0.2330
22387TIP3    H268044   8.887   6.573   6.843 -1.3929 -1.0954  0.5711
22388TIP3   OH268045   5.807   5.760   7.153 -0.5897 -0.5132 -0.1799
22388TIP3    H168046   5.864   5.816   7.101 -1.2205 -0.0690 -0.4055
22388TIP3    H268047   5.729   5.749   7.099 -0.9652 -0.6215  0.3747
22389TIP3   OH268048   2.744   7.803   9.940 -1.0266 -0.4085 -0.4619
22389TIP3    H168049   2.839   7.792   9.928 -1.2967 -3.5193 -0.6608
22389TIP3    H268050   2.710   7.817   9.852 -0.7682  0.8394 -0.3751
22390TIP3   OH268051   1.816   5.202   1.473  0.0900 -0.7181  0.1781
22390TIP3    H168052   1.843   5.288   1.440 -0.1989 -0.2645  1.0935
22390TIP3    H268053   1.723   5.196   1.451 -0.2296 -0.1971  1.3274
22391TIP3   OH268054   6.688   0.841   6.886  0.3370 -0.5697 -0.4973
22391TIP3    H168055   6.781   0.825   6.900  0.0483 -0.6370  1.8130
22391TIP3    H268056   6.645   0.802   6.962 -1.4612  0.6568 -0.7997
22392TIP3   OH268057   6.475   8.656   2.744 -0.0817 -0.0525 -0.6523
22392TIP3    H168058   6.460   8.564   2.770 -1.7818 -0.1970 -1.9849
22392TIP3    H268059   6.558   8.654   2.696 -0.8557 -1.2228 -2.0306
22393TIP3   OH268060   5.053   9.857   6.513 -0.1074 -0.2434  0.9334
22393TIP3    H168061   4.999   9.897   6.581  0.1724 -0.6330  1.3888
22393TIP3    H268062   4.991   9.830   6.445 -0.2041  2.6101 -0.3020
22394TIP3   OH268063   6.734   1.854   3.867 -0.0436 -0.0965  0.2732
22394TIP3    H168064   6.772   1.893   3.946 -0.9139  2.2452 -0.3915
22394TIP3    H268065   6.787   1.887   3.795 -2.1307  1.8345 -0.5103
22395TIP3   OH268066   6.751   0.971   0.636 -0.8907 -0.0037  0.2443
22395TIP3    H168067   6.827   1.023   0.663  0.4012 -1.6980 -0.0146
22395TIP3    H268068   6.753   0.894   0.692 -2.6736  0.0739  0.4877
22396TIP3   OH268069   7.511   5.851   1.843  0.1031  0.1571 -0.7543
22396TIP3    H168070   7.457   5.800   1.903  0.2370  0.8600 -0.0208
22396TIP3    H268071   7.601   5.830   1.868  0.1680 -0.3127 -1.3714
22397TIP3   OH268072  10.834   3.178   1.582 -0.1661  0.3616 -0.0367
22397TIP3    H168073  10.819   3.129   1.663 -0.5718  0.2418 -0.1806
22397TIP3    H268074  10.760   3.155   1.527 -0.8893  1.8768  0.2419
22398TIP3   OH268075   9.486   9.242  10.850  0.0731 -0.0048  0.1920
22398TIP3    H168076   9.504   9.194  10.931 -1.9810  1.0918  1.3975
22398TIP3    H268077   9.401   9.209  10.822  0.5617 -0.0520 -1.3097
22399TIP3   OH268078   4.100   9.885   6.853 -0.0235 -0.1478 -0.4388
22399TIP3    H168079   4.175   9.846   6.897 -0.5261  0.0502  0.6229
22399TIP3    H268080   4.027   9.826   6.873 -0.6149  0.8561  0.4692
22400TIP3   OH268081   4.702   4.123   9.808 -0.3909 -0.3426  0.0866
22400TIP3    H168082   4.762   4.084   9.872  0.6346  1.8359  0.5487
22400TIP3    H268083   4.628   4.154   9.861 -1.1419 -1.4793 -0.2618
22401TIP3   OH268084  10.168   5.511   8.744  0.5240 -0.6445 -0.0265
22401TIP3    H168085  10.213   5.561   8.812 -0.1548  0.6486 -0.4893
22401TIP3    H268086  10.208   5.538   8.662 -0.5867  0.0097 -0.3835
22402TIP3   OH268087   9.525   6.982   5.990  0.4414 -0.2625 -0.3816
22402TIP3    H168088   9.542   7.050   5.925  2.7807 -1.5891 -1.2682
22402TIP3    H268089   9.610   6.967   6.032 -1.0273  0.8158  3.3852
22403TIP3   OH268090  10.035   5.502   8.021 -0.2143 -0.4333  0.1210
22403TIP3    H168091  10.048   5.409   8.005  0.2658 -0.1952 -0.9706
22403TIP3    H268092  10.027   5.541   7.934  1.4497  0.8101  0.4676
22404TIP3   OH268093   1.969   8.409   3.158  0.4931 -0.4628  0.6709
22404TIP3    H168094   1.964   8.462   3.237  0.9488  0.7726 -0.0985
22404TIP3    H268095   1.939   8.322   3.185  1.1978 -0.2297  2.3319
22405TIP3   OH268096   9.724   5.554   6.016 -0.1702  0.0689  0.6872
22405TIP3    H168097   9.761   5.481   5.966 -0.0457  1.1490 -0.8755
22405TIP3    H268098   9.738   5.530   6.107 -0.0984 -1.8333  0.2196
22406TIP3   OH268099   5.968   0.651   2.511  0.1726  0.1525  0.4428
22406TIP3    H168100   5.976   0.558   2.531 -1.1711  0.2962  1.7831
22406TIP3    H268101   6.028   0.665   2.437  0.5676 -1.7096  0.3738
22407TIP3   OH268102   7.941   1.748   4.864  0.4095 -0.0323  0.8463
22407TIP3    H168103   7.856   1.732   4.905  0.6396  0.7152  1.6370
22407TIP3    H268104   7.949   1.843   4.860 -0.4832  0.0322 -2.7988
22408TIP3   OH268105   5.922   0.238   6.016 -0.0964  0.3935 -0.0735
22408TIP3    H168106   5.980   0.307   6.048 -1.4312  1.2663  0.5716
22408TIP3    H268107   5.866   0.217   6.091  0.1372 -1.2678 -0.3184
22409TIP3   OH268108   1.571   1.562   7.529 -0.2989  0.1504  0.0417
22409TIP3    H168109   1.587   1.480   7.481 -0.1216  0.1213  0.1542
22409TIP3    H268110   1.642   1.620   7.502  0.4706 -0.2447  1.1542
22410TIP3   OH268111   7.117   5.910   2.324  0.3450  0.4446  0.0453
22410TIP3    H168112   7.033   5.918   2.369 -0.5557 -0.5385 -1.3600
22410TIP3    H268113   7.148   5.822   2.345 -0.1520 -0.0762 -1.3104
22411TIP3   OH268114   8.602   5.201   3.009 -0.3406  0.3564  0.2484
22411TIP3    H168115   8.629   5.273   2.952 -0.0245 -0.9667 -1.3318
22411TIP3    H268116   8.510   5.219   3.028  0.5857  3.0915  2.9204
22412TIP3   OH268117   7.227   5.412   4.055 -0.0474 -0.4827  0.4814
22412TIP3    H168118   7.264   5.497   4.030  1.2918 -1.2585 -0.2606
22412TIP3    H268119   7.296   5.370   4.106 -1.2056 -0.6186  2.0264
22413TIP3   OH268120   8.227   2.361   2.873  0.5379  0.3775  0.4269
22413TIP3    H168121   8.276   2.280   2.860  2.9943  1.6085  1.3346
22413TIP3    H268122   8.259   2.419   2.804 -1.3829  0.5505 -0.3772
22414TIP3   OH268123   8.753   5.470   7.949 -0.1479 -0.7636 -0.0616
22414TIP3    H168124   8.769   5.432   8.035  3.6962  0.4304 -0.0904
22414TIP3    H268125   8.778   5.562   7.958  0.7817 -0.7059 -2.5172
22415TIP3   OH268126   3.315   7.902   5.565 -0.0615 -0.1181  0.2946
22415TIP3    H168127   3.296   7.966   5.496 -0.6436 -0.5936  0.0004
22415TIP3    H268128   3.229   7.866   5.588  0.4432 -2.3204 -1.0478
22416TIP3   OH268129   0.838   0.292   7.336 -0.4679 -0.5000  0.2568
22416TIP3    H168130   0.912   0.307   7.395  1.0109 -2.3883 -0.9709
22416TIP3    H268131   0.792   0.217   7.374 -0.8808 -0.2796  0.2039
22417TIP3   OH268132   4.018   7.397  10.023  0.1717 -0.5257 -0.0074
22417TIP3    H168133   3.976   7.445   9.952  0.7626 -2.5524 -1.8202
22417TIP3    H268134   4.016   7.458  10.097 -1.8621  1.0925 -1.2812
22418TIP3   OH268135   9.894   7.034  10.146 -0.3827 -0.1581  0.9342
22418TIP3    H168136   9.921   7.069  10.231  0.5846  1.0673  0.1622
22418TIP3    H268137   9.948   7.081  10.082 -1.7530 -0.3437 -0.4337
22419TIP3   OH268138   8.527   1.179   2.666 -0.5860 -0.0978 -0.8480
22419TIP3    H168139   8.489   1.146   2.748 -0.2390 -2.1636 -1.4857
22419TIP3    H268140   8.460   1.239   2.632 -1.0269  0.2806  0.5918
22420TIP3   OH268141   8.824   9.394   8.213  0.1139 -0.0281 -0.2627
22420TIP3    H168142   8.840   9.306   8.178  0.3302  0.0559 -0.3741
22420TIP3    H268143   8.899   9.445   8.184 -0.4380  0.4142 -0.9315
22421TIP3   OH268144   1.045   7.145   7.187  0.5942  0.0684 -0.2543
22421TIP3    H168145   0.979   7.134   7.256  0.2988  1.3334 -0.3119
22421TIP3    H268146   0.996   7.177   7.112  0.8133 -1.9015 -1.3040
22422TIP3   OH268147   1.984   1.880   9.835 -0.3820 -0.5218  0.1842
22422TIP3    H168148   1.934   1.828   9.897 -1.7694  2.2799  1.5885
22422TIP3    H268149   1.919   1.937   9.794  0.7954 -1.0026 -2.5556
22423TIP3   OH268150   9.117   8.638   6.833 -0.1507 -0.1581  0.1128
22423TIP3    H168151   9.040   8.616   6.884 -0.4737 -1.6702 -0.9459
22423TIP3    H268152   9.183   8.574   6.860  0.0119 -0.2875 -0.5479
22424TIP3   OH268153   3.164   0.485  10.141  0.0952  0.4539 -0.3478
22424TIP3    H168154   3.234   0.455  10.082 -1.0775  0.3385 -1.7156
22424TIP3    H268155   3.107   0.538  10.086 -0.0775  1.8420  1.1246
22425TIP3   OH268156   8.445   2.731   5.795 -0.0325  0.2399 -0.4728
22425TIP3    H168157   8.507   2.709   5.865  2.8261 -0.9115 -3.1060
22425TIP3    H268158   8.388   2.655   5.788 -0.4706  0.4442  0.6543
22426TIP3   OH268159   8.502   1.813   1.640  0.2045 -0.5260 -0.7744
22426TIP3    H168160   8.507   1.725   1.603 -1.9412 -0.3064 -1.7129
22426TIP3    H268161   8.461   1.801   1.726  3.0240 -0.7523  0.6730
22427TIP3   OH268162   6.666   3.838   1.328 -0.4498  0.2064  0.5037
22427TIP3    H168163   6.736   3.776   1.348  1.0041  2.2408  2.1166
22427TIP3    H268164   6.699   3.923   1.357 -2.4616  1.7454 -1.3487
22428TIP3   OH268165   4.434   3.529   9.367 -0.0318 -0.3809 -0.1173
22428TIP3    H168166   4.368   3.464   9.390  0.7381 -1.5774 -1.1715
22428TIP3    H268167   4.489   3.486   9.302  0.5362  1.3134 -0.8312
22429TIP3   OH268168   5.603   1.626   0.869 -0.0971 -0.0585  0.2059
22429TIP3    H168169   5.699   1.633   0.867 -0.0701 -0.5436 -0.5542
22429TIP3    H268170   5.581   1.623   0.963  0.6248  0.1143  0.3864
22430TIP3   OH268171   1.686   3.085   1.101  0.8000 -0.1219 -0.1894
22430TIP3    H168172   1.666   3.176   1.082  1.5562  0.1222  0.1620
22430TIP3    H268173   1.635   3.066   1.180 -0.2848 -0.3698 -0.9170
22431TIP3   OH268174   9.051   8.344   0.841 -0.0805 -0.1187  0.5047
22431TIP3    H168175   8.970   8.312   0.801  1.1790 -1.1817 -1.3145
22431TIP3    H268176   9.022   8.385   0.923 -2.5054 -0.0011 -0.3199
22432TIP3   OH268177  10.039  10.220   8.624 -0.0259 -0.8170  0.2313
22432TIP3    H168178   9.977  10.245   8.693  1.0673 -2.3504  1.8613
22432TIP3    H268179  10.123  10.209   8.670  1.0593 -0.5924 -1.5906
22433TIP3   OH268180   7.461   9.433   0.611 -0.0149  0.3825 -0.1530
22433TIP3    H168181   7.381   9.485   0.622 -0.1007  0.2750 -0.2617
22433TIP3    H268182   7.458   9.404   0.520 -0.1914 -0.1725  0.0191
22434TIP3   OH268183   7.084   1.893   7.025 -1.0088 -0.2362  0.1904
22434TIP3    H168184   7.062   1.969   6.971 -0.5168  0.1732  0.5560
22434TIP3    H268185   7.050   1.916   7.112 -2.3308 -1.1396 -0.0654
22435TIP3   OH268186   0.655   0.627   9.834 -0.4673 -0.1216 -0.1153
22435TIP3    H168187   0.628   0.706   9.788 -1.5495  0.7714  1.9455
22435TIP3    H268188   0.663   0.653   9.926  0.5420 -2.0759  0.4185
22436TIP3   OH268189   8.907   8.524   2.581 -0.4624 -0.2693  0.1341
22436TIP3    H168190   8.820   8.493   2.554 -0.0586 -0.4810 -1.0186
22436TIP3    H268191   8.964   8.447   2.571 -0.1892 -0.2157  1.1809
22437TIP3   OH268192   1.727   2.198   7.855  0.2450 -0.6333  0.4134
22437TIP3    H168193   1.640   2.203   7.817 -0.7542 -0.4317  2.5423
22437TIP3    H268194   1.780   2.259   7.803 -1.5624  1.2994  0.6689
22438TIP3   OH268195   1.398   3.679   9.797 -0.3124  0.1498  0.1331
22438TIP3    H168196   1.304   3.660   9.790 -0.5565  1.1795  0.4161
22438TIP3    H268197   1.439   3.594   9.811 -0.7152 -0.9491 -4.0491
22439TIP3   OH268198   1.990   5.620   7.263 -0.0197  0.3301 -0.2467
22439TIP3    H168199   1.983   5.538   7.214 -0.3461 -0.2917  0.8094
22439TIP3    H268200   2.082   5.644   7.257  0.2234 -0.4912  0.0015
22440TIP3   OH268201   3.295   0.823   7.821 -0.5523  0.1844  0.6287
22440TIP3    H168202   3.263   0.733   7.831 -0.7440 -0.0218 -1.3769
22440TIP3    H268203   3.271   0.866   7.903 -1.6565 -1.2240  1.0985
22441TIP3   OH268204   4.058   9.097   5.206 -0.4776 -0.2786  0.2166
22441TIP3    H168205   4.032   9.159   5.138  0.3057 -1.2122 -0.9727
22441TIP3    H268206   3.984   9.094   5.266 -0.9702  0.9683 -0.2958
22442TIP3   OH268207   1.946   9.592  10.703 -0.5561 -0.1856 -0.0156
22442TIP3    H168208   1.926   9.575  10.795  1.4646 -0.6880  0.3931
22442TIP3    H268209   2.024   9.648  10.706 -0.4280 -0.2604 -1.4347
22443TIP3   OH268210   3.255   3.005   0.925 -0.0477  0.2880 -0.0027
22443TIP3    H168211   3.342   3.035   0.950  0.2334 -0.2549 -0.3119
22443TIP3    H268212   3.226   3.069   0.859  0.3078  0.2148 -0.2336
22444TIP3   OH268213   7.146   5.887   3.867 -0.5417 -0.1754  0.2407
22444TIP3    H168214   7.088   5.932   3.806  0.3437 -0.6465 -0.9858
22444TIP3    H268215   7.166   5.804   3.824  1.9585  0.4435  0.0282
22445TIP3   OH268216   4.618   4.880   2.243  0.3571  0.4598  0.2958
22445TIP3    H168217   4.621   4.880   2.339 -0.0300  0.6423  0.3103
22445TIP3    H268218   4.591   4.791   2.220  0.4644  0.4116  0.3544
22446TIP3   OH268219   9.106   8.650  10.675 -0.0317  0.1355 -0.5631
22446TIP3    H168220   9.154   8.573  10.705  0.2136  0.1219 -0.9801
22446TIP3    H268221   9.015   8.631  10.696 -0.1431 -0.8453 -1.8177
22447TIP3   OH268222   4.994   9.306   3.495 -0.0098  0.0463 -0.6084
22447TIP3    H168223   5.024   9.251   3.567  1.4192 -0.9254 -1.8954
22447TIP3    H268224   5.068   9.311   3.435 -1.1747  0.7514 -2.0671
22448TIP3   OH268225   7.244   9.355  10.436  0.3565  1.1214 -0.3194
22448TIP3    H168226   7.303   9.335  10.508 -0.7300 -0.1998  0.2247
22448TIP3    H268227   7.217   9.270  10.402 -1.5136  1.6836 -0.3247
22449TIP3   OH268228   4.094   6.918   5.343  0.0065  0.2904 -0.3160
22449TIP3    H168229   4.167   6.873   5.386 -0.3054 -0.3314 -0.4195
22449TIP3    H268230   4.103   7.009   5.370  1.7196  0.5360 -1.5339
22450TIP3   OH268231   2.207   3.452   9.100 -0.4416 -0.2296  0.1958
22450TIP3    H168232   2.128   3.499   9.127 -1.3044 -1.0324 -0.8735
22450TIP3    H268233   2.175   3.381   9.043  1.0794 -0.3046 -0.6079
22451TIP3   OH268234   7.432   0.571   1.824 -0.0292  0.2284  0.2722
22451TIP3    H168235   7.524   0.544   1.830  0.0853  0.8013  1.3052
22451TIP3    H268236   7.421   0.633   1.895 -1.6512 -1.0532  1.2142
22452TIP3   OH268237   4.936   8.159   9.556 -0.3113 -0.2103 -0.3473
22452TIP3    H168238   5.017   8.196   9.521  0.8560 -1.8512  0.5209
22452TIP3    H268239   4.899   8.111   9.482  0.2085 -0.5641 -0.3850
22453TIP3   OH268240   5.943   8.952  10.344  0.4517 -0.3332 -0.0597
22453TIP3    H168241   5.944   8.897  10.266  0.1289  0.2207 -0.4707
22453TIP3    H268242   6.035   8.969  10.364  0.5340  0.1364 -0.7811
22454TIP3   OH268243   7.906   1.558   3.710  0.0637 -0.1289 -0.6971
22454TIP3    H168244   7.826   1.568   3.762  0.1349 -0.5261 -0.5119
22454TIP3    H268245   7.890   1.610   3.632  0.8838  2.5100  0.7412
22455TIP3   OH268246   7.747   0.179   3.774  0.5567 -0.4220  0.2715
22455TIP3    H168247   7.679   0.183   3.841 -0.4601  0.3947 -0.7607
22455TIP3    H268248   7.818   0.130   3.814 -0.4670 -0.9121  1.5476
22456TIP3   OH268249   0.480   5.816   8.734 -0.0670 -0.4390  0.2604
22456TIP3    H168250   0.440   5.857   8.811 -0.4776  0.3452 -0.3504
22456TIP3    H268251   0.489   5.724   8.757 -1.1291 -0.4015  0.8717
22457TIP3   OH268252   5.367   3.677   6.702  0.2170  0.2595  0.0812
22457TIP3    H168253   5.330   3.639   6.622  0.4846  1.2695 -0.5461
22457TIP3    H268254   5.328   3.765   6.706  1.3012  0.7427  0.2834
22458TIP3   OH268255   7.846   7.787  10.393  0.2365  0.3888  1.3399
22458TIP3    H168256   7.761   7.764  10.429  0.7372 -1.4346  1.5122
22458TIP3    H268257   7.898   7.707  10.403  0.8014  0.1257 -2.2730
22459TIP3   OH268258   0.215  10.070   9.389 -0.3707  0.2694 -0.0541
22459TIP3    H168259   0.202   9.992   9.444  3.7165  0.7946  2.0347
22459TIP3    H268260   0.163  10.137   9.432 -3.2386 -0.9682 -1.3636
22460TIP3   OH268261   8.756   1.252   3.885  0.2655 -0.5353 -0.2164
22460TIP3    H168262   8.759   1.299   3.968  0.9236 -0.2732 -0.3817
22460TIP3    H268263   8.663   1.241   3.867  0.0802  1.2829 -0.4923
22461TIP3   OH268264   6.732   5.203   0.187 -0.1175 -0.6594  0.3563
22461TIP3    H168265   6.678   5.182   0.262  0.3143 -3.5903 -0.0345
22461TIP3    H268266   6.699   5.147   0.116  1.1330  0.0961 -0.8892
22462TIP3   OH268267   4.505   3.676   7.056  0.0762 -0.0677 -0.1026
22462TIP3    H168268   4.513   3.749   6.995 -1.0580  0.3435  0.2247
22462TIP3    H268269   4.593   3.667   7.094  0.2409  1.1002 -0.1695
22463TIP3   OH268270   8.481   9.346   6.719  0.5161  0.5027  0.5972
22463TIP3    H168271   8.554   9.333   6.659  1.6037 -1.3223  2.1900
22463TIP3    H268272   8.419   9.400   6.671  2.1943  0.7494 -1.4068
22464TIP3   OH268273   2.525   7.055   7.852  0.2550  0.7941 -0.4194
22464TIP3    H168274   2.474   7.067   7.772 -0.6314  1.1579  0.1882
22464TIP3    H268275   2.463   7.019   7.915  0.5607  1.8475  0.5248
22465TIP3   OH268276  10.592   0.453   7.830  0.0488 -0.1582 -0.2930
22465TIP3    H168277  10.681   0.447   7.794  0.3282 -1.0733  0.5213
22465TIP3    H268278  10.554   0.366   7.815 -0.6714  0.1843 -0.5079
22466TIP3   OH268279   8.272   5.510   6.854 -0.6855 -0.3410 -0.6613
22466TIP3    H168280   8.266   5.450   6.928 -0.7392 -0.4611 -0.7624
22466TIP3    H268281   8.204   5.479   6.793 -0.7255 -0.1677 -0.7052
22467TIP3   OH268282   6.709   1.253   3.833  0.6949  0.1725 -0.2198
22467TIP3    H168283   6.616   1.229   3.843  1.3330 -1.7497  1.8166
22467TIP3    H268284   6.740   1.197   3.763  0.5751  0.0798 -0.1993
22468TIP3   OH268285   9.112   5.686   7.831  0.1261 -0.8008 -0.6808
22468TIP3    H168286   9.099   5.649   7.744  0.0414  0.6905 -1.3321
22468TIP3    H268287   9.024   5.695   7.867  0.1006 -0.6465 -0.7812
22469TIP3   OH268288  10.687   3.796   9.085 -0.0119 -0.1356 -0.3732
22469TIP3    H168289  10.593   3.787   9.069 -0.0780 -0.0280 -0.0601
22469TIP3    H268290  10.695   3.789   9.181  0.4660 -1.6863 -0.4996
22470TIP3   OH268291  10.636   8.852   4.047  0.5294 -0.4628 -0.2903
22470TIP3    H168292  10.664   8.928   4.099  1.6910  0.1651 -1.7821
22470TIP3    H268293  10.717   8.812   4.017 -0.0350  0.3721 -3.2615
22471TIP3   OH268294   3.448   1.257   1.331 -0.0718 -0.0773 -0.1159
22471TIP3    H168295   3.456   1.167   1.298 -0.2660  0.1295 -0.7344
22471TIP3    H268296   3.370   1.256   1.386 -0.0439 -0.2997 -0.0804
22472TIP3   OH268297   0.300   6.218   2.624 -0.2187  0.6246  0.2188
22472TIP3    H168298   0.276   6.238   2.533 -0.7625 -0.3684  0.1323
22472TIP3    H268299   0.381   6.268   2.639  0.4171  0.0519 -1.1269
22473TIP3   OH268300   8.818   4.502   9.817 -0.1529  0.2382  0.6452
22473TIP3    H168301   8.883   4.530   9.882 -0.2998  1.2523  0.3678
22473TIP3    H268302   8.862   4.434   9.766  0.7430  1.0098  0.3755
22474TIP3   OH268303   4.337   3.690   8.369 -0.5261  0.8538  0.4972
22474TIP3    H168304   4.329   3.771   8.418 -0.3099  0.8488  0.5424
22474TIP3    H268305   4.374   3.717   8.284 -2.8168  1.1473 -0.4617
22475TIP3   OH268306   1.645  10.182   9.604 -0.0555 -0.2080  0.3126
22475TIP3    H168307   1.695  10.153   9.681  0.7551  0.0492 -0.1034
22475TIP3    H268308   1.708  10.232   9.552 -0.8089  0.2989 -0.1326
22476TIP3   OH268309   3.794   3.926   0.803  0.1418  0.5172 -0.4669
22476TIP3    H168310   3.842   3.888   0.877 -0.2177 -1.1498 -1.0528
22476TIP3    H268311   3.843   4.005   0.781  2.2417 -0.7307 -0.5838
22477TIP3   OH268312   9.431   0.036   7.263  0.2891 -0.2373  0.1785
22477TIP3    H168313   9.371  -0.033   7.289  1.3196 -0.6275  1.6801
22477TIP3    H268314   9.484   0.052   7.341  0.5312  1.7892 -0.3236
22478TIP3   OH268315   7.851   2.888   0.481  0.1249 -0.1353  0.3507
22478TIP3    H168316   7.904   2.950   0.530 -0.2194  0.1581  0.3582
22478TIP3    H268317   7.885   2.802   0.505 -1.5293 -0.1697  2.9442
22479TIP3   OH268318   2.938   9.928  10.053  0.5192 -0.2903 -0.1265
22479TIP3    H168319   2.844   9.910  10.044  0.2786  1.1917 -0.8925
22479TIP3    H268320   2.968   9.864  10.117 -1.2679  0.0086  1.0897
22480TIP3   OH268321   0.851   6.346   9.134  0.5369  0.0543  0.2916
22480TIP3    H168322   0.767   6.387   9.155 -0.7549 -0.0836 -3.7818
22480TIP3    H268323   0.917   6.411   9.160 -0.9881  1.3158  1.1569
22481TIP3   OH268324   8.725   4.908   6.916 -0.0758  0.1235 -0.2595
22481TIP3    H168325   8.663   4.860   6.971 -0.5890  2.2499  1.1690
22481TIP3    H268326   8.734   4.993   6.960  2.0953  0.7136 -1.7010
22482TIP3   OH268327   1.950   0.996   9.536  0.5777 -0.0859  0.0457
22482TIP3    H168328   1.966   0.914   9.583  0.4215 -0.6089 -0.7882
22482TIP3    H268329   1.963   1.065   9.602  0.9604 -0.7638  0.6919
22483TIP3   OH268330   9.319   7.730   2.349  0.2087  0.2960  0.0795
22483TIP3    H168331   9.293   7.814   2.311 -2.0040  0.5800  1.9703
22483TIP3    H268332   9.363   7.754   2.430  0.2838 -0.3478  0.2331
22484TIP3   OH268333   5.575   7.397   0.051  0.5758 -0.2141 -0.6596
22484TIP3    H168334   5.511   7.386   0.121  1.1655 -0.3690 -0.1353
22484TIP3    H268335   5.526   7.438  -0.020  0.0780  0.4153  0.0264
22485TIP3   OH268336   2.344   1.897   6.993  0.2941 -0.1023 -0.0856
22485TIP3    H168337   2.405   1.951   6.942  1.7441 -0.9269  0.6900
22485TIP3    H268338   2.294   1.960   7.044 -1.0581  0.7303 -2.3105
22486TIP3   OH268339   9.940  10.607   6.657 -0.6925  0.5641  0.0197
22486TIP3    H168340   9.941  10.688   6.707 -1.2705  0.0003  0.9712
22486TIP3    H268341  10.002  10.622   6.585  0.3354  1.3193  1.0196
22487TIP3   OH268342   1.393   7.953   3.126 -0.1411  0.0724  0.0512
22487TIP3    H168343   1.418   7.866   3.095 -0.8443 -0.9617  2.1855
22487TIP3    H268344   1.448   7.968   3.203  0.4201  1.8280 -0.6383
22488TIP3   OH268345   8.675  10.768   5.426  0.3816  0.0144  0.1313
22488TIP3    H168346   8.709  10.685   5.462  1.0140  0.5353  0.7764
22488TIP3    H268347   8.626  10.807   5.499  1.7470  1.1214  0.4992
22489TIP3   OH268348   7.589   0.726   9.287  0.2169 -0.1591  0.5315
22489TIP3    H168349   7.534   0.790   9.332 -0.1882 -0.8284  1.0022
22489TIP3    H268350   7.661   0.778   9.250 -0.8193  0.7446 -0.2627
22490TIP3   OH268351   7.456  10.718  10.593  0.0287  0.3729  0.2118
22490TIP3    H168352   7.430  10.630  10.565  0.1656  0.1519  0.7652
22490TIP3    H268353   7.547  10.726  10.565  0.2461  0.0534  0.8141
22491TIP3   OH268354   0.690   3.549   6.025  0.5420  0.5378  0.0618
22491TIP3    H168355   0.638   3.534   5.947  1.9137  1.1565 -1.0223
22491TIP3    H268356   0.630   3.590   6.087 -0.7878 -0.7673 -0.3203
22492TIP3   OH268357   3.595   0.150   8.954  0.6248  0.3523 -0.1607
22492TIP3    H168358   3.583   0.236   8.994  0.2758  0.6630 -0.9048
22492TIP3    H268359   3.571   0.163   8.862 -0.8227 -0.8576  0.0019
22493TIP3   OH268360   9.028   8.301   0.398 -0.1379  0.5296 -0.6094
22493TIP3    H168361   8.939   8.269   0.410  0.2692 -0.5496 -0.3286
22493TIP3    H268362   9.081   8.222   0.387  0.8134  1.1403 -0.5729
22494TIP3   OH268363   9.883   9.356  10.602 -0.0686  0.5634 -0.0104
22494TIP3    H168364   9.873   9.434  10.655  1.4220 -0.3929  1.7604
22494TIP3    H268365   9.798   9.311  10.609 -0.4144  1.2465  0.2078
22495TIP3   OH268366   3.981   1.645   9.729  0.5237 -0.5538 -0.4256
22495TIP3    H168367   3.911   1.680   9.785  1.0761 -1.7929  1.0979
22495TIP3    H268368   4.058   1.641   9.786  1.6092 -0.1503 -1.8047
22496TIP3   OH268369   6.652  10.518   2.467  0.7838 -0.0541 -0.1655
22496TIP3    H168370   6.564  10.516   2.504  0.5965 -0.8812 -0.6361
22496TIP3    H268371   6.642  10.562   2.383  1.2065  1.8035  0.7001
22497TIP3   OH268372   7.754  10.137   4.087 -0.5471  0.1823 -0.7700
22497TIP3    H168373   7.702  10.056   4.081 -0.7171  0.2521 -0.2860
22497TIP3    H268374   7.836  10.110   4.128 -0.9097  0.3861  0.1167
22498TIP3   OH268375  10.186   1.560   5.294 -0.8170  0.3714  0.5048
22498TIP3    H168376  10.151   1.575   5.382 -1.5625 -1.2345  0.5275
22498TIP3    H268377  10.265   1.614   5.290 -0.9142  0.6802  2.0658
22499TIP3   OH268378  10.722  10.621   0.064 -0.0866 -0.0471  0.3031
22499TIP3    H168379  10.688  10.710   0.072 -1.4247 -0.5926  0.9452
22499TIP3    H268380  10.816  10.630   0.075 -0.0233  1.4588 -1.0374
22500TIP3   OH268381   0.587   7.171   3.522  0.2232  0.2414  0.2449
22500TIP3    H168382   0.506   7.121   3.514 -0.4008  0.9284  1.8867
22500TIP3    H268383   0.583   7.235   3.451 -0.9081  0.5794  0.6029
22501TIP3   OH268384   7.176   1.429   2.698  0.0932 -1.0722  0.2145
22501TIP3    H168385   7.155   1.427   2.791  3.7954 -0.1852  1.2263
22501TIP3    H268386   7.121   1.499   2.663  0.3848  0.2610  2.2734
22502TIP3   OH268387   6.840   1.562   8.221  0.9893  0.3897 -0.2895
22502TIP3    H168388   6.820   1.469   8.219 -1.2180  0.8287 -0.3409
22502TIP3    H268389   6.936   1.566   8.219  1.1116 -1.8437 -0.6812
22503TIP3   OH268390  10.360   6.011   1.937 -0.0421  0.0335  0.1166
22503TIP3    H168391  10.437   5.977   1.982 -0.1695 -0.8168 -0.2840
22503TIP3    H268392  10.337   5.943   1.874  0.0628  1.1426 -1.1652
22504TIP3   OH268393   7.523   3.586  10.868  0.1861  1.4706 -0.1402
22504TIP3    H168394   7.546   3.493  10.861  0.6691  1.6858 -1.9264
22504TIP3    H268395   7.608   3.632  10.867 -0.0375  1.9404  0.9770
22505TIP3   OH268396  10.531   5.168   2.456  0.4821  0.0740  0.5315
22505TIP3    H168397  10.491   5.085   2.481 -1.2099  0.6781 -0.0009
22505TIP3    H268398  10.520   5.172   2.361  0.4227  0.9549  0.5673
22506TIP3   OH268399   3.499   7.713   9.172  0.9949  0.1296 -0.2161
22506TIP3    H168400   3.436   7.781   9.194  0.8412  0.2879 -1.1246
22506TIP3    H268401   3.581   7.742   9.213  0.6830  0.3226  0.2849
22507TIP3   OH268402   2.820   7.797  10.595  0.0318 -0.0650  0.1539
22507TIP3    H168403   2.866   7.799  10.511 -1.6867  0.0468 -0.8367
22507TIP3    H268404   2.767   7.877  10.595 -1.8981 -1.2600  0.1603
22508TIP3   OH268405   0.664   0.719   7.814 -0.0325  0.0641 -0.3713
22508TIP3    H168406   0.722   0.650   7.847  0.5157  0.6675 -0.0673
22508TIP3    H268407   0.721   0.776   7.763 -0.7244 -0.4077 -1.7209
22509TIP3   OH268408   0.434   0.968   5.893  0.1851  0.4985  0.1945
22509TIP3    H168409   0.381   0.890   5.910 -2.1511  2.3407  2.1226
22509TIP3    H268410   0.382   1.018   5.829 -0.5462  2.3580  2.1376
22510TIP3   OH268411   6.597  10.886   9.810 -0.4928 -0.7391  0.1170
22510TIP3    H168412   6.600  10.860   9.903 -0.7752  1.4026  0.7776
22510TIP3    H268413   6.650  10.966   9.806 -2.1218  0.3503 -1.1478
22511TIP3   OH268414   8.554   2.913   8.465  0.2025 -0.0792 -0.2305
22511TIP3    H168415   8.507   2.977   8.517  1.2961  0.5884 -0.0355
22511TIP3    H268416   8.645   2.942   8.468  0.5179 -0.9177 -1.2065
22512TIP3   OH268417   2.820   8.675  10.191 -0.0435  0.4664  0.0989
22512TIP3    H168418   2.860   8.685  10.278  1.3025  0.2789 -0.4619
22512TIP3    H268419   2.728   8.695  10.204 -0.2963 -1.5459  1.9833
22513TIP3   OH268420   2.812   0.210   3.171 -0.1058 -0.2821  0.1823
22513TIP3    H168421   2.862   0.187   3.249  0.4618 -0.1954 -0.1497
22513TIP3    H268422   2.848   0.295   3.143 -1.2634  0.3761  0.6294
22514TIP3   OH268423   2.786   9.982   2.091  0.2363 -0.4797 -0.0516
22514TIP3    H168424   2.878   9.982   2.119 -0.0192  1.1377  0.9399
22514TIP3    H268425   2.746   9.910   2.140  0.7895 -0.5964  0.2420
22515TIP3   OH268426   6.221   9.869   1.399 -0.8212  0.9187  0.2004
22515TIP3    H168427   6.216   9.930   1.473  0.1365  1.5485 -0.2390
22515TIP3    H268428   6.130   9.855   1.374 -1.0747  1.9754  0.4697
22516TIP3   OH268429   4.494   1.358   9.478  0.2058  0.1341 -0.1278
22516TIP3    H168430   4.476   1.452   9.473  0.7055  0.2286 -0.2605
22516TIP3    H268431   4.590   1.352   9.477  0.3205 -0.2077  2.8032
22517TIP3   OH268432   0.338   6.802   7.167  0.1829 -0.2900  0.0227
22517TIP3    H168433   0.393   6.807   7.245  0.8577  1.6484 -0.5240
22517TIP3    H268434   0.363   6.878   7.115 -1.1251 -0.8585 -1.5192
22518TIP3   OH268435   2.126   6.928   4.136  0.0672 -0.2057 -0.0722
22518TIP3    H168436   2.206   6.979   4.143 -1.4637  2.7572 -1.9996
22518TIP3    H268437   2.110   6.896   4.225  2.6700  0.1793  0.6140
22519TIP3   OH268438   9.640   8.457   3.327  0.1245 -0.0603  0.0138
22519TIP3    H168439   9.714   8.516   3.313 -0.5097  0.9511  0.8489
22519TIP3    H268440   9.575   8.509   3.372 -1.0499 -0.9990 -0.5429
22520TIP3   OH268441   6.513   3.897   9.159 -0.6950  0.4235  0.0943
22520TIP3    H168442   6.599   3.876   9.197 -1.0343 -0.9550  0.1524
22520TIP3    H268443   6.450   3.869   9.225 -1.2146  0.5132 -0.3557
22521TIP3   OH268444   2.367   7.941   8.291 -0.2567  0.5015  0.3002
22521TIP3    H168445   2.280   7.905   8.304 -0.4009  0.8392  0.2939
22521TIP3    H268446   2.427   7.867   8.299 -0.7471 -0.3821 -2.8281
22522TIP3   OH268447   9.961   0.864   4.912  0.4917 -0.1543  0.1829
22522TIP3    H168448  10.016   0.812   4.854 -0.2466 -0.6279 -0.1035
22522TIP3    H268449   9.889   0.894   4.857 -0.0337 -0.3079  0.7699
22523TIP3   OH268450   7.401   2.974   5.449 -0.0970  0.0041  0.1032
22523TIP3    H168451   7.397   2.884   5.484 -0.9758  0.2745  0.7219
22523TIP3    H268452   7.454   3.021   5.514  0.4529 -0.0866 -0.2762
22524TIP3   OH268453  10.172   0.202   0.343 -0.4500 -0.3431 -0.1420
22524TIP3    H168454  10.128   0.195   0.428 -0.2776 -0.9008 -0.0896
22524TIP3    H268455  10.102   0.212   0.279 -0.5372  1.1442  0.1569
22525TIP3   OH268456   9.267   9.417   6.410 -0.0488  0.1147  0.2097
22525TIP3    H168457   9.264   9.343   6.349  2.3150 -0.7152  0.9960
22525TIP3    H268458   9.283   9.493   6.354  2.3023 -0.6632 -0.2859
22526TIP3   OH268459   8.806   7.635  10.235 -0.1036  0.2729 -0.3720
22526TIP3    H168460   8.777   7.575  10.304 -1.1790  0.1080 -0.9429
22526TIP3    H268461   8.774   7.721  10.264  1.2355  0.5677  0.3309
22527TIP3   OH268462   2.175   4.703   9.611 -0.3704  0.0276 -0.2012
22527TIP3    H168463   2.174   4.776   9.673 -2.0233 -0.5160  0.4835
22527TIP3    H268464   2.185   4.625   9.667 -0.9752 -0.4126 -0.6892
22528TIP3   OH268465   8.774   5.374   2.234  0.6273 -0.4475  0.0643
22528TIP3    H168466   8.793   5.353   2.326  0.1190 -1.7303 -0.1059
22528TIP3    H268467   8.827   5.312   2.184 -1.3868 -1.8584 -0.4510
22529TIP3   OH268468   9.481   2.428   8.601 -0.4230 -0.4133  0.4002
22529TIP3    H168469   9.407   2.368   8.615 -0.2815 -0.2757  1.8825
22529TIP3    H268470   9.556   2.383   8.640 -0.2018  0.4751  1.0124
22530TIP3   OH268471   7.477   7.838   2.097 -0.2735 -0.0146 -0.0316
22530TIP3    H168472   7.383   7.819   2.086 -0.2184  0.7119 -2.1398
22530TIP3    H268473   7.517   7.752   2.107 -1.2821 -0.2739  2.4283
22531TIP3   OH268474   8.695   6.174   2.495  0.6157  0.1648  0.4675
22531TIP3    H168475   8.708   6.175   2.590 -0.5079 -2.0996  0.7090
22531TIP3    H268476   8.640   6.097   2.479  2.3191 -0.6134 -2.2258
22532TIP3   OH268477   5.899   4.068   6.064  0.6223  0.5780  0.1919
22532TIP3    H168478   5.817   4.114   6.046  0.9676  0.9623 -0.4439
22532TIP3    H268479   5.874   3.976   6.069  0.0131  0.7646  0.8970
22533TIP3   OH268480   3.081   9.910   1.993  0.1788 -0.0497 -0.8869
22533TIP3    H168481   3.060   9.927   2.085  0.7914 -1.0641 -0.5473
22533TIP3    H268482   3.176   9.918   1.987  0.3061 -1.4431 -1.0927
22534TIP3   OH268483   0.473   0.521   7.784 -0.4243 -0.1163 -0.5287
22534TIP3    H168484   0.525   0.442   7.774 -0.8992 -0.5413  0.2495
22534TIP3    H268485   0.537   0.592   7.788  0.2264 -0.7461  1.6449
22535TIP3   OH268486   1.458   4.158   4.597  0.4484 -0.0152 -0.8305
22535TIP3    H168487   1.518   4.083   4.592  2.7321  1.7995 -2.1538
22535TIP3    H268488   1.372   4.118   4.613  1.8668 -2.7675  0.6356
22536TIP3   OH268489   0.270   5.405   0.299 -0.0938 -0.7203  0.0889
22536TIP3    H168490   0.286   5.313   0.321 -3.2012 -1.5259 -0.5380
22536TIP3    H268491   0.194   5.403   0.241 -0.7660  2.3071  0.6856
22537TIP3   OH268492   2.156   4.940   8.987  0.1843  0.3086  0.1341
22537TIP3    H168493   2.193   4.974   8.905 -0.3154 -2.2143 -1.2380
22537TIP3    H268494   2.063   4.928   8.969  0.1542 -0.7479  0.8729
22538TIP3   OH268495   6.113   3.990   5.737 -0.4188  0.4060 -0.4457
22538TIP3    H168496   6.145   3.913   5.690 -0.3851 -1.0456  1.7926
22538TIP3    H268497   6.030   3.962   5.775 -0.4880  1.5355  0.2823
22539TIP3   OH268498   0.247  10.509   9.140 -0.3268 -0.5545  0.2201
22539TIP3    H168499   0.245  10.516   9.045  2.2694 -0.7532  0.0789
22539TIP3    H268500   0.256  10.415   9.157  0.6964 -0.4054  0.5713
22540TIP3   OH268501   7.479   3.732   8.308 -0.0250 -0.2900 -0.0469
22540TIP3    H168502   7.512   3.688   8.386 -0.0306  0.3150  0.3064
22540TIP3    H268503   7.386   3.744   8.326  0.1489  0.7031  0.2871
22541TIP3   OH268504   0.849   7.301   9.003 -0.3845  0.3236  0.2933
22541TIP3    H168505   0.816   7.252   8.928 -2.3111  3.5138 -1.1905
22541TIP3    H268506   0.936   7.331   8.977  0.0439 -0.7198  0.4733
22542TIP3   OH268507  10.369   1.313   2.859  0.4863  0.5747 -0.4939
22542TIP3    H168508  10.409   1.340   2.941 -1.3192  1.0752  0.2657
22542TIP3    H268509  10.274   1.317   2.875  0.0860 -0.8978 -2.0793
22543TIP3   OH268510   3.300   3.002   7.448  0.0929 -0.2060  0.3246
22543TIP3    H168511   3.336   3.073   7.395 -0.5495 -0.2523 -0.1830
22543TIP3    H268512   3.341   2.922   7.414 -1.0547 -0.3511 -0.7928
22544TIP3   OH268513   2.006   8.861  10.604  0.1635 -0.0994  0.0707
22544TIP3    H168514   2.071   8.842  10.536 -0.2863  1.5020 -0.8722
22544TIP3    H268515   1.923   8.833  10.565 -0.1632  1.3014 -0.2985
22545TIP3   OH268516   3.812   9.024   9.183 -0.0237 -0.1841  0.4124
22545TIP3    H168517   3.849   8.938   9.161  0.3126  0.2563 -0.8136
22545TIP3    H268518   3.886   9.073   9.219 -0.4059 -0.6609  1.9102
22546TIP3   OH268519   3.865   5.395   4.359  0.4326  0.3258  0.7952
22546TIP3    H168520   3.861   5.353   4.273 -0.3958 -0.7986  1.3568
22546TIP3    H268521   3.945   5.447   4.357  0.3448  0.4509 -0.7127
22547TIP3   OH268522  10.409   6.989   6.434  0.2277  0.5201  0.1352
22547TIP3    H168523  10.439   7.029   6.352 -0.6549 -3.4328 -2.3896
22547TIP3    H268524  10.319   7.019   6.444  0.5020  1.4354 -0.0298
22548TIP3   OH268525   2.471   2.966   4.587 -0.0586 -0.6117 -0.3397
22548TIP3    H168526   2.451   3.025   4.515  3.4675 -0.3633 -1.2959
22548TIP3    H268527   2.441   2.880   4.557  1.5824 -0.5610 -2.3045
22549TIP3   OH268528   7.082   4.289  10.677  0.1500 -0.3624 -0.3209
22549TIP3    H168529   7.171   4.282  10.712 -0.1427  0.5513  0.6726
22549TIP3    H268530   7.062   4.201  10.644  1.2893 -0.6669 -0.2526
22550TIP3   OH268531   8.424   3.004   7.814 -0.4498  0.3580  0.1853
22550TIP3    H168532   8.478   2.992   7.892  0.0257 -0.7776 -0.2989
22550TIP3    H268533   8.483   2.987   7.741 -0.8478  1.5790 -0.4445
22551TIP3   OH268534   2.350   2.234   9.528  0.2960 -0.3633  0.8293
22551TIP3    H168535   2.432   2.280   9.509 -0.8092  0.9141 -1.1077
22551TIP3    H268536   2.327   2.263   9.617  0.2352  1.9894  0.1089
22552TIP3   OH268537   0.970   4.566   0.458  0.1989 -0.1704  0.6757
22552TIP3    H168538   0.897   4.627   0.447  0.1861  0.0816  2.0243
22552TIP3    H268539   1.037   4.598   0.398 -0.0930  0.7285  0.8124
22553TIP3   OH268540   5.883   6.269  10.313  0.2308 -0.3017  0.6465
22553TIP3    H168541   5.950   6.286  10.247  1.3477 -0.4930  1.7061
22553TIP3    H268542   5.800   6.277  10.266  1.0000 -2.7655 -1.3710
22554TIP3   OH268543   2.777   7.910   8.553 -0.2899 -0.2532 -0.0904
22554TIP3    H168544   2.833   7.832   8.556 -1.0872 -0.8646 -0.6547
22554TIP3    H268545   2.748   7.922   8.643 -0.1118 -0.5835  0.0159
22555TIP3   OH268546   1.289   7.464   9.022 -1.0619 -0.1319 -0.3965
22555TIP3    H168547   1.382   7.441   9.025 -0.6121  1.2595 -1.9616
22555TIP3    H268548   1.269   7.498   9.109 -0.1626 -0.6063  0.0046
22556TIP3   OH268549   7.412   9.301  10.630  0.4460 -0.1513  0.2612
22556TIP3    H168550   7.479   9.271  10.568  1.1534 -0.9224  1.3526
22556TIP3    H268551   7.443   9.270  10.715 -1.6968 -1.1937  0.7126
22557TIP3   OH268552   8.304   8.289   7.050 -0.8885 -0.3721  0.1488
22557TIP3    H168553   8.323   8.382   7.044 -1.9652 -0.0506  1.2959
22557TIP3    H268554   8.379   8.252   7.096 -1.7809  0.4717  2.4470
22558TIP3   OH268555   4.149   1.990   9.449 -0.0236  0.0943 -0.0108
22558TIP3    H168556   4.106   1.953   9.526 -2.2815  1.3146 -0.5833
22558TIP3    H268557   4.130   1.927   9.379 -2.0094  1.1617 -0.5133
22559TIP3   OH268558   1.756   6.733   7.590  0.0566 -0.1700  0.6958
22559TIP3    H168559   1.714   6.655   7.625  1.2782 -1.2152 -0.1037
22559TIP3    H268560   1.788   6.779   7.668 -0.9234 -0.2853  1.1906
22560TIP3   OH268561  10.299   0.521  10.153 -0.0164  0.2586 -0.7163
22560TIP3    H168562  10.337   0.572  10.224 -0.9597  1.8155 -1.2778
22560TIP3    H268563  10.218   0.486  10.188 -0.6128  1.2404 -1.0527
22561TIP3   OH268564   1.907   8.621   4.299  0.1105 -0.2637  0.4160
22561TIP3    H168565   1.849   8.618   4.223  0.6580  0.5999 -0.0639
22561TIP3    H268566   1.901   8.534   4.338 -1.3917 -0.2359  0.3125
22562TIP3   OH268567  10.289   0.921   7.457 -0.1745  0.1494  0.4226
22562TIP3    H168568  10.291   1.007   7.414  0.3313 -0.6351 -1.1810
22562TIP3    H268569  10.197   0.894   7.450 -0.4496  0.7647  1.4099
22563TIP3   OH268570   2.444   4.547  10.896  0.5430 -0.2605  0.5901
22563TIP3    H168571   2.467   4.517  10.984 -0.4283 -0.5248  0.7706
22563TIP3    H268572   2.350   4.564  10.900  0.3957 -0.6761 -0.5055
22564TIP3   OH268573   9.950   0.822   1.685  0.2794 -0.2649 -0.1006
22564TIP3    H168574   9.978   0.911   1.705  3.2188 -1.3258  1.0902
22564TIP3    H268575   9.904   0.829   1.601 -0.7937  2.5070  0.6273
22565TIP3   OH268576   2.456   1.077   9.294  0.1013  0.5978  0.4695
22565TIP3    H168577   2.505   0.997   9.273 -0.0024  0.1786  1.7332
22565TIP3    H268578   2.377   1.071   9.241  0.4750  0.2752 -0.0655
22566TIP3   OH268579  10.755   5.806   1.712  0.1077  0.1874  1.0339
22566TIP3    H168580  10.836   5.756   1.717 -0.2530 -0.4595  0.6013
22566TIP3    H268581  10.700   5.770   1.782 -0.8530 -1.3601 -0.4222
22567TIP3   OH268582   0.558   5.878   7.034  0.3891 -0.4875  0.5408
22567TIP3    H168583   0.588   5.864   6.944 -1.9835 -1.7078 -0.1496
22567TIP3    H268584   0.548   5.973   7.042  0.5719 -0.3700 -0.5160
22568TIP3   OH268585   6.399   0.382   0.615  0.1271  0.1623 -0.1096
22568TIP3    H168586   6.460   0.448   0.582  1.5551 -0.5466  0.9903
22568TIP3    H268587   6.392   0.318   0.544  3.5907 -1.6364  0.9819
22569TIP3   OH268588   3.178   1.050   3.533 -0.2115 -0.3447 -0.0428
22569TIP3    H168589   3.168   1.009   3.447  1.7718  1.2197 -1.1158
22569TIP3    H268590   3.221   0.984   3.587  0.3721 -0.6627 -0.8835
22570TIP3   OH268591   1.025   2.575   7.164  0.3331  0.0126  0.0506
22570TIP3    H168592   0.993   2.486   7.179  1.9665 -0.8094 -1.0837
22570TIP3    H268593   1.104   2.581   7.219 -0.0071  0.9220  0.4524
22571TIP3   OH268594   5.626   7.449   5.640  0.5201 -0.0811 -0.4039
22571TIP3    H168595   5.552   7.389   5.625 -0.5167  1.0541  0.0047
22571TIP3    H268596   5.633   7.455   5.735 -0.3799  1.5827 -0.4083
22572TIP3   OH268597   8.407  10.414   3.126  0.1239 -0.1198  0.5394
22572TIP3    H168598   8.363  10.349   3.070  0.8652 -2.1186  2.1583
22572TIP3    H268599   8.349  10.490   3.123  0.5368  0.2504 -3.5511
22573TIP3   OH268600   6.529   8.188   9.770  0.2494  0.1753 -0.0856
22573TIP3    H168601   6.452   8.193   9.714 -1.3704  0.6724  2.0420
22573TIP3    H268602   6.530   8.098   9.801  0.0646  0.3538  0.4561
22574TIP3   OH268603   6.126   3.672   8.279 -0.6945  0.2619  0.1564
22574TIP3    H168604   6.188   3.607   8.247 -1.3040 -0.4058  0.3185
22574TIP3    H268605   6.091   3.635   8.360 -0.2097  1.3008  0.8567
22575TIP3   OH268606   2.697   3.811   6.888  0.5489 -0.4857  0.3846
22575TIP3    H168607   2.614   3.859   6.883  1.1892  0.5598 -1.2240
22575TIP3    H268608   2.676   3.723   6.860 -0.2134 -0.5349  1.0750
22576TIP3   OH268609   2.229   9.671   9.038  0.7236 -0.3467  0.4351
22576TIP3    H168610   2.240   9.578   9.058  1.7218 -0.0478  1.3558
22576TIP3    H268611   2.134   9.683   9.036  0.5771 -1.3004  0.7381
22577TIP3   OH268612   9.745   3.906   1.793 -0.6490 -0.0281  0.1262
22577TIP3    H168613   9.670   3.901   1.852 -0.5032 -1.2787  0.2267
22577TIP3    H268614   9.712   3.953   1.716 -0.7113  2.0495  1.3575
22578TIP3   OH268615   7.810   9.698   9.734 -0.3995  0.0115 -0.0244
22578TIP3    H168616   7.731   9.646   9.720  0.2620 -0.3104 -3.2613
22578TIP3    H268617   7.877   9.634   9.759 -0.7096  0.0531  0.9684
22579TIP3   OH268618   9.357   4.447   9.186 -0.4149  0.0904  0.7579
22579TIP3    H168619   9.428   4.465   9.124 -2.5023  1.2909 -1.4590
22579TIP3    H268620   9.344   4.352   9.181  1.2344 -0.2060  1.5011
22580TIP3   OH268621   7.141   3.903   1.382  0.2268 -0.4851 -0.2384
22580TIP3    H168622   7.150   3.963   1.308 -0.8377 -0.3226 -0.2528
22580TIP3    H268623   7.204   3.935   1.447  0.2447  0.1513 -0.5649
22581TIP3   OH268624   6.177   1.731   9.688  0.0747 -0.9696  0.4630
22581TIP3    H168625   6.095   1.769   9.719 -0.0562 -2.0692  1.5263
22581TIP3    H268626   6.245   1.780   9.734  0.1402  0.9746 -1.5442
22582TIP3   OH268627   1.670   2.222   7.050  0.9473 -0.1109 -0.2642
22582TIP3    H168628   1.619   2.281   6.994  1.1612 -1.2571 -1.7275
22582TIP3    H268629   1.604   2.168   7.094  0.7834 -1.8213 -2.4102
22583TIP3   OH268630   6.714  10.524   0.352 -0.3075  0.0612 -0.6900
22583TIP3    H168631   6.686  10.603   0.399 -0.3077  0.8998 -2.0525
22583TIP3    H268632   6.805  10.541   0.329  0.1211 -0.9326  0.1652
22584TIP3   OH268633   5.687   6.569   6.009 -0.3698  1.0640 -0.1329
22584TIP3    H168634   5.752   6.561   6.079 -0.8352  1.5770  0.3560
22584TIP3    H268635   5.622   6.502   6.029 -1.4008  2.3390  0.9001
22585TIP3   OH268636   6.615   6.447   6.082  0.0809 -0.1640  0.0762
22585TIP3    H168637   6.695   6.469   6.035 -0.5479  0.7691 -0.5933
22585TIP3    H268638   6.552   6.426   6.013  0.1635 -2.4983  0.6329
22586TIP3   OH268639   9.001   4.692   4.138 -0.4263  0.8545  0.0739
22586TIP3    H168640   8.998   4.781   4.104  1.1949  1.0920  0.4854
22586TIP3    H268641   8.985   4.637   4.061  0.9657  1.4547 -0.6767
22587TIP3   OH268642  10.213   5.585   3.921  0.2412  0.4227  0.6399
22587TIP3    H168643  10.241   5.510   3.870  0.5843  0.1450  1.2291
22587TIP3    H268644  10.276   5.654   3.899 -0.4569  0.7531 -0.4025
22588TIP3   OH268645   1.156   5.974   1.226  0.1623  0.1556 -0.1233
22588TIP3    H168646   1.068   5.947   1.249  0.4421 -2.0949 -1.3933
22588TIP3    H268647   1.196   6.002   1.308 -1.1126 -0.6437  0.7890
22589TIP3   OH268648   0.975   6.450   9.375  0.0280  0.3903  0.0080
22589TIP3    H168649   0.915   6.521   9.351 -0.2108  0.1324 -0.1673
22589TIP3    H268650   0.919   6.372   9.381  0.1435  0.3637  1.0023
22590TIP3   OH268651   6.066   9.396   5.163  0.0428  0.1933  0.2447
22590TIP3    H168652   6.047   9.315   5.116  0.0294 -0.3540  1.1710
22590TIP3    H268653   6.161   9.402   5.163  0.0716 -0.1787  0.7455
22591TIP3   OH268654   3.609   2.375   8.322 -0.1813  0.3563  0.0027
22591TIP3    H168655   3.645   2.360   8.409 -0.1426  0.2528 -0.0322
22591TIP3    H268656   3.634   2.465   8.301  2.0098 -0.4102 -0.9478
22592TIP3   OH268657   1.316   0.083   1.616 -0.0875  0.4730  0.1388
22592TIP3    H168658   1.265   0.164   1.622 -1.2136 -0.2499  0.7038
22592TIP3    H268659   1.313   0.060   1.523  0.4318  1.1941 -0.0612
22593TIP3   OH268660  10.053  10.449   3.296  0.2309 -0.3247 -0.3649
22593TIP3    H168661  10.008  10.432   3.213 -4.7715 -0.4512  2.0160
22593TIP3    H268662  10.033  10.541   3.315  1.8422 -0.1169  0.5052
22594TIP3   OH268663   1.469   0.042   2.714 -0.0578 -0.3629 -0.6750
22594TIP3    H168664   1.377   0.056   2.693 -0.4144 -0.2114  0.8653
22594TIP3    H268665   1.479   0.074   2.803  1.4061 -0.7268 -0.6745
22595TIP3   OH268666   5.718   1.505   9.068 -0.2714  0.1719  0.2325
22595TIP3    H168667   5.795   1.562   9.076 -1.0742  1.2628  0.5174
22595TIP3    H268668   5.746   1.421   9.104  0.9527  0.3672 -0.2010
22596TIP3   OH268669   1.141   5.874   9.791  0.2885  0.3179 -0.3457
22596TIP3    H168670   1.129   5.969   9.788  0.4803  0.3443 -0.2553
22596TIP3    H268671   1.209   5.856   9.727  0.7923  0.3268  0.1772
22597TIP3   OH268672   6.716   0.857  10.147  0.0284  0.3096  0.1585
22597TIP3    H168673   6.708   0.914  10.224  0.5652 -0.3206  0.6939
22597TIP3    H268674   6.627   0.845  10.116 -0.1565  0.8653  0.4633
22598TIP3   OH268675   1.093   2.019   5.183 -0.1911 -0.4975 -0.2328
22598TIP3    H168676   1.128   1.935   5.212  1.7101  0.1483 -0.4525
22598TIP3    H268677   1.142   2.039   5.103 -0.9485  0.5924 -0.4587
22599TIP3   OH268678   7.365   6.851   6.617  0.3900 -0.0064 -0.8008
22599TIP3    H168679   7.419   6.851   6.697  2.3252 -0.8863 -2.0445
22599TIP3    H268680   7.413   6.907   6.556 -1.4797  1.3145 -1.1534
22600TIP3   OH268681   4.639   6.034   1.421 -0.0110  0.0397  0.0464
22600TIP3    H168682   4.729   6.042   1.454 -0.3133  1.8029  0.5400
22600TIP3    H268683   4.628   6.109   1.363 -0.1249 -1.9600 -2.7178
22601TIP3   OH268684   0.825   4.936   8.643 -0.0308 -0.1897 -0.7186
22601TIP3    H168685   0.787   5.014   8.602 -1.7891  0.0738  1.2180
22601TIP3    H268686   0.759   4.868   8.632  0.3770 -0.6895 -0.1545
22602TIP3   OH268687   4.938   5.062  10.143  0.2959 -0.5425  1.0692
22602TIP3    H168688   4.948   5.153  10.171  0.5245 -0.4203  0.5857
22602TIP3    H268689   4.856   5.060  10.094  1.6234 -0.0041 -1.3026
22603TIP3   OH268690   9.129   2.630   5.911  0.2575  0.2044 -0.5275
22603TIP3    H168691   9.165   2.693   5.848  3.3917 -0.4558  0.4097
22603TIP3    H268692   9.058   2.587   5.864 -1.0080  3.2930 -1.7285
22604TIP3   OH268693   6.511   3.396   3.459 -0.6364  0.0361  0.0051
22604TIP3    H168694   6.416   3.407   3.450 -0.7723 -0.5695  0.5939
22604TIP3    H268695   6.542   3.483   3.484 -1.0366  0.2318 -0.1510
22605TIP3   OH268696   9.755   2.951   2.095 -0.0113 -0.0365  0.2674
22605TIP3    H168697   9.764   2.888   2.167  2.5350 -0.2607 -0.1679
22605TIP3    H268698   9.739   3.035   2.139 -0.8950 -0.5413  0.9548
22606TIP3   OH268699  10.337   6.406   3.178 -0.0242 -0.6597 -0.0559
22606TIP3    H168700  10.353   6.467   3.250  2.9123  0.2690 -1.3483
22606TIP3    H268701  10.283   6.456   3.116 -0.0680 -0.4129  0.1797
22607TIP3   OH268702   7.447   1.071   5.191  0.2410 -0.1288 -0.5365
22607TIP3    H168703   7.510   1.133   5.226 -0.9086  0.8554 -0.1587
22607TIP3    H268704   7.447   0.998   5.254  0.0673  0.4555  0.1524
22608TIP3   OH268705   6.227   0.732   3.716  0.1147  0.1882 -0.3032
22608TIP3    H168706   6.209   0.799   3.649 -2.3330 -0.4325 -0.3466
22608TIP3    H268707   6.162   0.664   3.700  0.6954 -0.8688  1.5516
22609TIP3   OH268708   1.827   2.992   2.828 -0.4883  0.1069 -0.5429
22609TIP3    H168709   1.820   2.897   2.836 -0.4999  0.1269 -0.3244
22609TIP3    H268710   1.907   3.015   2.875  1.1965 -0.1224 -3.0903
22610TIP3   OH268711   5.978   9.609   3.916  0.3416  0.1579 -0.0826
22610TIP3    H168712   5.897   9.565   3.893 -0.8194  1.2975  1.6107
22610TIP3    H268713   5.978   9.611   4.012  2.7688 -0.4885  0.0232
22611TIP3   OH268714   8.711   1.088   7.443 -0.2141 -0.1471  0.1872
22611TIP3    H168715   8.800   1.069   7.475 -0.5429  0.5373  1.6184
22611TIP3    H268716   8.705   1.042   7.359  1.0723 -1.2275  0.6423
22612TIP3   OH268717   0.216   9.097   9.686 -0.7893  0.9106  0.1089
22612TIP3    H168718   0.185   9.175   9.733  1.0765  1.4922  0.4606
22612TIP3    H268719   0.311   9.101   9.694 -0.5638 -0.4262 -1.4605
22613TIP3   OH268720   4.074   7.105   4.626 -0.0200 -0.3521  0.1090
22613TIP3    H168721   4.040   7.021   4.593 -0.2075 -0.1594 -0.1892
22613TIP3    H268722   4.157   7.117   4.579 -0.4634  0.0996 -0.5717
22614TIP3   OH268723  10.907   2.526   3.478 -0.1256 -0.5139  0.5410
22614TIP3    H168724  10.907   2.610   3.432 -0.6854  1.0096  3.1190
22614TIP3    H268725  10.826   2.484   3.450 -0.5002  0.4172  0.1707
22615TIP3   OH268726  10.468   9.490   1.931 -0.3529 -0.7550  0.5819
22615TIP3    H168727  10.424   9.520   1.851  1.7936  1.4727  0.0818
22615TIP3    H268728  10.437   9.401   1.944 -1.5682 -0.8430 -2.1733
22616TIP3   OH268729   8.359   0.437   3.651  0.1510  0.3366 -0.0520
22616TIP3    H168730   8.333   0.345   3.648 -0.2158  0.4691 -1.8120
22616TIP3    H268731   8.291   0.482   3.602  0.0543  1.6378  1.2216
22617TIP3   OH268732  10.750   4.378   4.582 -0.2953  0.1110 -0.3465
22617TIP3    H168733  10.835   4.399   4.621 -1.4273  1.4418  1.6014
22617TIP3    H268734  10.749   4.282   4.577  1.3916  0.0756 -0.6855
22618TIP3   OH268735   9.653   4.181   1.411 -0.0222  0.0044  0.2209
22618TIP3    H168736   9.664   4.243   1.339 -1.0377  1.0133  0.8963
22618TIP3    H268737   9.666   4.095   1.371  1.3618  0.6214 -0.7558
22619TIP3   OH268738   6.621   0.106   9.277 -0.5178 -0.0205  0.4849
22619TIP3    H168739   6.658   0.158   9.349 -0.5867 -0.1097  0.5864
22619TIP3    H268740   6.629   0.162   9.200 -0.1734 -0.0395  0.5045
22620TIP3   OH268741   0.053   1.986   6.338 -0.1241  0.0286  0.2712
22620TIP3    H168742  -0.040   2.000   6.354 -0.0967 -1.1449  1.6551
22620TIP3    H268743   0.096   2.063   6.376 -0.5527  1.2001 -1.4776
22621TIP3   OH268744   1.055   1.038   7.080  0.2181 -1.0203 -0.1868
22621TIP3    H168745   1.036   1.073   7.167 -0.2662 -0.5613 -0.4696
22621TIP3    H268746   1.053   0.943   7.090 -2.4033 -1.0259 -0.2223
22622TIP3   OH268747   2.880   1.414   5.422  0.2218 -0.8379  0.7794
22622TIP3    H168748   2.825   1.468   5.479  2.9560  2.7955  0.2950
22622TIP3    H268749   2.964   1.410   5.467  1.7920  0.2643 -1.8397
22623TIP3   OH268750  10.309   9.213   7.768 -0.1148  0.3929  0.1409
22623TIP3    H168751  10.276   9.293   7.728 -0.6746  1.0827  1.8828
22623TIP3    H268752  10.295   9.225   7.862 -0.0359 -1.6687  0.4754
22624TIP3   OH268753   7.083  10.129   3.578 -0.3037  0.7701 -0.0216
22624TIP3    H168754   7.077  10.198   3.643  2.3679  1.5679 -0.5137
22624TIP3    H268755   7.127  10.170   3.504 -0.2078 -1.0297 -1.0101
22625TIP3   OH268756   9.773   9.901   7.149  0.3046 -0.4149  0.1516
22625TIP3    H168757   9.804   9.955   7.222 -0.1424  0.9775 -0.6408
22625TIP3    H268758   9.852   9.874   7.104  0.6594 -2.2607  1.7687
22626TIP3   OH268759   4.263   5.620   6.196  0.2165 -0.0628 -0.1083
22626TIP3    H168760   4.342   5.661   6.159 -0.2616 -1.5327 -2.9983
22626TIP3    H268761   4.278   5.526   6.186 -1.7839 -0.3781 -0.5289
22627TIP3   OH268762   2.891  10.593   3.855 -0.8646 -0.0450 -0.6225
22627TIP3    H168763   2.846  10.657   3.910  1.6084  1.2062  0.0767
22627TIP3    H268764   2.873  10.621   3.765 -1.4888  0.3852 -0.3693
22628TIP3   OH268765   5.063   8.503   9.070  0.0337  0.0423  0.0348
22628TIP3    H168766   5.002   8.570   9.038 -1.2712 -0.2527  1.7885
22628TIP3    H268767   5.143   8.552   9.090 -0.0355  0.6498 -1.0701
22629TIP3   OH268768   9.378   2.331   7.813  0.3276  0.1910 -0.1363
22629TIP3    H168769   9.433   2.366   7.743 -0.3685 -1.6402 -1.7000
22629TIP3    H268770   9.292   2.370   7.797  0.3716  0.4480  0.2439
22630TIP3   OH268771  10.506   1.632  10.596  0.1485 -0.3719 -0.1142
22630TIP3    H168772  10.507   1.581  10.677  0.8637  0.8855  0.7203
22630TIP3    H268773  10.598   1.655  10.581 -0.2087  1.2138 -0.0622
22631TIP3   OH268774   8.661   3.218  10.904 -0.1359 -0.1200 -0.2714
22631TIP3    H168775   8.602   3.265  10.845  0.6868 -0.0090 -1.0350
22631TIP3    H268776   8.672   3.132  10.863  1.2425  0.3004 -0.8695
22632TIP3   OH268777   5.675   3.502   5.482 -0.4210  0.2493  0.8476
22632TIP3    H168778   5.686   3.432   5.417  1.0414  0.1869  1.1231
22632TIP3    H268779   5.604   3.555   5.447 -0.2457 -0.2695 -0.3763
22633TIP3   OH268780   7.732   3.859  10.618  0.5167  0.1604 -0.1708
22633TIP3    H168781   7.676   3.932  10.643  0.2427 -0.7494  2.0718
22633TIP3    H268782   7.675   3.802  10.567 -0.1759  0.0026  0.7547
22634TIP3   OH268783   0.464   9.882   8.428  0.2468  0.0734 -0.2802
22634TIP3    H168784   0.513   9.844   8.355 -0.5054 -0.1681 -0.6631
22634TIP3    H268785   0.497   9.972   8.434  0.5960 -0.0247 -0.6566
22635TIP3   OH268786   5.494   6.650   2.012 -0.1531 -0.2170 -0.6611
22635TIP3    H168787   5.513   6.586   1.944 -1.6107  0.4263 -1.7304
22635TIP3    H268788   5.462   6.599   2.086 -0.5947 -0.7832 -1.2354
22636TIP3   OH268789   5.304   5.938   1.882  0.2901  0.0605  0.6263
22636TIP3    H168790   5.271   5.858   1.841 -0.3428 -0.0151  1.2769
22636TIP3    H268791   5.366   5.908   1.948  0.4621  0.1370  0.5028
22637TIP3   OH268792   7.355   8.349  10.501 -1.0989  0.3002  0.2358
22637TIP3    H168793   7.384   8.399  10.577  2.0808  2.3630 -2.0577
22637TIP3    H268794   7.386   8.260  10.518  0.3805  0.9231  1.0336
22638TIP3   OH268795   6.702   6.513   5.269  0.1099  0.0849 -0.4548
22638TIP3    H168796   6.707   6.431   5.319  1.9978 -0.5151 -1.5340
22638TIP3    H268797   6.713   6.582   5.335  0.2786 -0.5972  0.2440
22639TIP3   OH268798   7.899   6.680   7.118 -0.3389 -0.0481 -0.0071
22639TIP3    H168799   7.881   6.765   7.159 -1.7843  0.1104 -0.8927
22639TIP3    H268800   7.912   6.620   7.192 -0.2152  0.7515  0.6406
22640TIP3   OH268801   7.057   2.282   5.465  0.2108  0.2673  0.0179
22640TIP3    H168802   6.977   2.252   5.421  0.3542  0.8476 -0.6549
22640TIP3    H268803   7.115   2.309   5.394  0.0347  2.2663  0.5769
22641TIP3   OH268804   4.551   7.943   3.115  0.3514 -0.6898 -0.1025
22641TIP3    H168805   4.587   7.855   3.103 -0.1238 -0.9275  0.1983
22641TIP3    H268806   4.628   8.001   3.110  0.7796 -1.1919  0.5382
22642TIP3   OH268807   8.563   7.867   9.846 -0.4048 -0.1162 -0.2428
22642TIP3    H168808   8.532   7.777   9.859  0.8783 -0.3550  1.6593
22642TIP3    H268809   8.547   7.910   9.930  3.4209 -0.0507  0.6435
22643TIP3   OH268810   0.440  10.343   4.310  0.6221  0.3354  0.4796
22643TIP3    H168811   0.428  10.437   4.312  0.6105  0.4973 -2.5349
22643TIP3    H268812   0.352  10.307   4.299  0.7717  0.0829  0.0895
22644TIP3   OH268813   5.415   0.745   7.486  0.2312  0.6376  0.6961
22644TIP3    H168814   5.450   0.661   7.517 -0.2152 -0.4053 -1.4045
22644TIP3    H268815   5.488   0.787   7.442 -0.5378 -0.6849 -2.0381
22645TIP3   OH268816   6.688   5.689   2.249 -0.5902  0.0750 -0.5015
22645TIP3    H168817   6.661   5.605   2.285  0.0324 -0.3293 -0.9540
22645TIP3    H268818   6.702   5.745   2.326  0.4886 -0.7075 -0.1011
22646TIP3   OH268819   4.414   9.464   5.630 -0.0884 -0.3691  0.7247
22646TIP3    H168820   4.337   9.408   5.621 -1.1398  1.0013  0.9816
22646TIP3    H268821   4.407   9.500   5.719  1.2604 -0.7958  1.0302
22647TIP3   OH268822  10.537   3.723   4.381  0.3598 -0.4652 -0.2062
22647TIP3    H168823  10.503   3.813   4.381  0.5515 -0.3310 -2.4357
22647TIP3    H268824  10.459   3.668   4.384  0.2487 -0.2657  1.4564
22648TIP3   OH268825   4.907   3.122   6.383  0.1513 -0.0684 -0.1112
22648TIP3    H168826   4.874   3.154   6.467 -1.5968 -0.3161 -0.6592
22648TIP3    H268827   4.989   3.170   6.370  0.0980  0.4921  1.3933
22649TIP3   OH268828   4.272   4.525   7.496  0.5157 -0.0670 -0.4617
22649TIP3    H168829   4.279   4.465   7.422  1.1137 -0.2574 -0.2532
22649TIP3    H268830   4.236   4.472   7.567  2.8151 -0.7023  0.2920
22650TIP3   OH268831   0.135  10.227   1.826 -0.5540  0.3305 -0.3768
22650TIP3    H168832   0.136  10.140   1.864  2.9599  0.1832 -0.4614
22650TIP3    H268833   0.175  10.217   1.740  0.5526  2.0510 -0.1325
22651TIP3   OH268834   5.921   0.226  10.681 -0.5353 -0.3121 -0.2468
22651TIP3    H168835   5.964   0.261  10.759 -0.2669  0.8643 -0.9000
22651TIP3    H268836   5.971   0.147  10.660 -0.2528 -0.3221  0.4342
22652TIP3   OH268837   1.250   1.877   1.332  0.3954 -0.7471 -0.3664
22652TIP3    H168838   1.258   1.781   1.335 -1.0136 -0.8972 -0.5365
22652TIP3    H268839   1.161   1.892   1.302  0.0509  0.6368  1.1984
22653TIP3   OH268840   7.846   7.158   2.975 -0.3090 -0.1313  0.2539
22653TIP3    H168841   7.782   7.186   3.040 -1.4213  0.4192 -1.0349
22653TIP3    H268842   7.841   7.062   2.977 -0.8563 -0.1027  0.4915
22654TIP3   OH268843   9.652   0.011   4.153  0.2219  0.1170 -0.3074
22654TIP3    H168844   9.719  -0.015   4.090 -0.8208 -2.6195 -0.4123
22654TIP3    H268845   9.695   0.006   4.238  0.4970 -0.3850 -0.4749
22655TIP3   OH268846   4.884   5.002   5.723  0.3275  0.3747 -0.4302
22655TIP3    H168847   4.947   4.947   5.677  0.3984 -0.2800  0.4282
22655TIP3    H268848   4.799   4.976   5.687  0.4601  0.5962 -0.9173
22656TIP3   OH268849  10.005   5.997   4.744 -0.5383  0.2341 -0.6709
22656TIP3    H168850   9.928   5.980   4.799 -0.3880  0.8094 -0.2708
22656TIP3    H268851  10.053   6.065   4.791  0.9254 -1.0607 -0.2169
22657TIP3   OH268852   7.177   0.718   7.590  0.4529 -0.2609 -0.5347
22657TIP3    H168853   7.271   0.734   7.579  0.5618  0.0432  0.7739
22657TIP3    H268854   7.167   0.691   7.681 -0.5186 -2.0229 -1.1205
22658TIP3   OH268855   6.303   1.015   2.169  0.0528 -0.5466 -0.4650
22658TIP3    H168856   6.316   0.961   2.091 -0.3581 -0.3689 -0.6535
22658TIP3    H268857   6.367   0.981   2.232  1.1257 -0.0017 -1.2316
22659TIP3   OH268858   8.183   1.552   0.944 -0.3502 -0.5755  0.2394
22659TIP3    H168859   8.220   1.559   1.032  0.9713 -0.8539 -0.2617
22659TIP3    H268860   8.093   1.582   0.953 -0.0351  0.0464  1.5507
22660TIP3   OH268861   2.619   3.219   3.150  0.4850 -0.0003 -0.2879
22660TIP3    H168862   2.555   3.192   3.216 -1.8922 -0.1521 -2.4593
22660TIP3    H268863   2.683   3.147   3.148 -1.5693 -1.9537 -0.7680
22661TIP3   OH268864   7.317   5.414   4.952  0.2298  0.1173 -0.0801
22661TIP3    H168865   7.262   5.436   5.027 -0.6096 -1.0219 -0.3233
22661TIP3    H268866   7.326   5.319   4.957  0.8526  0.1211 -0.9559
22662TIP3   OH268867   2.509   1.253   3.089 -0.4126  0.4043  0.1022
22662TIP3    H168868   2.474   1.342   3.088 -1.9745 -0.1757  1.1406
22662TIP3    H268869   2.557   1.247   3.172  1.5760  0.9207 -0.9291
22663TIP3   OH268870   4.527   6.446  10.016 -0.5378  0.7768  0.3469
22663TIP3    H168871   4.538   6.368  10.071  1.0319  0.3817 -0.4630
22663TIP3    H268872   4.553   6.417   9.929  1.9643  2.6621  0.3675
22664TIP3   OH268873   6.989   3.968   1.971  0.0762 -0.3149  0.2347
22664TIP3    H168874   6.980   4.019   1.891  1.7989 -0.1951  0.0819
22664TIP3    H268875   6.906   3.920   1.979 -2.0514  3.1180  0.8720
22665TIP3   OH268876   1.549   8.841   5.626 -0.2203 -0.1057  0.4717
22665TIP3    H168877   1.611   8.851   5.698 -0.0963 -0.2958  0.3906
22665TIP3    H268878   1.540   8.747   5.614  0.7154 -0.0763 -0.5791
22666TIP3   OH268879   2.461   1.874   0.772 -0.0819  0.1915  0.3418
22666TIP3    H168880   2.529   1.925   0.814 -0.5190  0.8584  0.2571
22666TIP3    H268881   2.412   1.835   0.844 -1.1744  1.7820  0.5148
22667TIP3   OH268882   6.804   7.213   0.379 -0.2071  0.1804 -0.0695
22667TIP3    H168883   6.770   7.125   0.399  0.6150  0.2813  2.0346
22667TIP3    H268884   6.864   7.199   0.306 -1.4667 -0.6907 -0.9708
22668TIP3   OH268885   4.221   0.803   1.236 -0.1559 -0.4956 -0.3079
22668TIP3    H168886   4.304   0.849   1.247 -1.5480  2.4249 -1.0743
22668TIP3    H268887   4.191   0.787   1.325  1.0984 -1.4646 -0.0204
22669TIP3   OH268888   4.846   1.458   3.288  0.4500  0.0248  0.3240
22669TIP3    H168889   4.909   1.395   3.251 -0.1626 -0.6546  0.4130
22669TIP3    H268890   4.824   1.421   3.373 -1.6694 -0.9083 -0.5415
22670TIP3   OH268891   1.230   3.582   9.306  0.3366 -0.5245 -0.1492
22670TIP3    H168892   1.159   3.563   9.244  0.0095 -1.1160  0.3960
22670TIP3    H268893   1.257   3.496   9.338 -0.3963 -0.1587  1.5261
22671TIP3   OH268894   7.101   7.805   0.423 -0.0721 -0.0650 -0.6009
22671TIP3    H168895   7.185   7.817   0.467 -0.9010  0.0560  1.0181
22671TIP3    H268896   7.094   7.880   0.363  0.4138  0.6302  0.1900
22672TIP3   OH268897   9.577   9.207   3.951 -0.4602  0.5687 -0.1715
22672TIP3    H168898   9.560   9.211   3.857 -1.1097  1.2978 -0.0293
22672TIP3    H268899   9.587   9.113   3.969 -2.8501  0.1883 -0.5388
22673TIP3   OH268900   7.922   3.551   3.862  0.4426  0.2747  0.7325
22673TIP3    H168901   7.838   3.565   3.907  0.1136  2.3540 -0.4174
22673TIP3    H268902   7.982   3.612   3.904  0.5998  0.9101 -0.3939
22674TIP3   OH268903   8.570   7.981   5.141 -0.1803 -0.3198  0.4395
22674TIP3    H168904   8.574   7.992   5.046  1.4663  0.6765  0.5880
22674TIP3    H268905   8.516   8.054   5.172  0.3138  0.0744  0.3726
22675TIP3   OH268906   9.084   9.612   5.883  0.0573  0.1698 -0.5266
22675TIP3    H168907   9.051   9.689   5.836  2.3324 -0.1601 -2.9244
22675TIP3    H268908   9.011   9.550   5.882 -1.6868  2.0406  1.0994
22676TIP3   OH268909   3.542   4.778   2.884 -0.0249  0.1750 -0.1826
22676TIP3    H168910   3.461   4.783   2.935  1.6510  1.1128  2.6030
22676TIP3    H268911   3.607   4.825   2.936  2.0207  0.8151 -3.0272
22677TIP3   OH268912   4.518   8.472   4.939 -0.4825 -0.8322  0.4735
22677TIP3    H168913   4.528   8.408   4.869  2.8142 -1.8349  1.6429
22677TIP3    H268914   4.479   8.549   4.897  1.9344 -1.1465 -2.6786
22678TIP3   OH268915   4.505   9.287   4.254  0.1906 -0.2539 -0.2003
22678TIP3    H168916   4.581   9.327   4.212  0.5708 -0.8687 -0.0985
22678TIP3    H268917   4.539   9.249   4.335 -0.5843  1.1918  0.8538
22679TIP3   OH268918   5.945   3.937   2.385  0.7576  0.1394 -0.5760
22679TIP3    H168919   5.956   3.962   2.293 -1.1090  0.0134 -0.8652
22679TIP3    H268920   5.852   3.917   2.393  0.4711  2.0381  1.8014
22680TIP3   OH268921   7.049   0.204   1.311 -0.1550  0.1051  0.2022
22680TIP3    H168922   7.007   0.147   1.375 -1.2977  1.6287  0.8798
22680TIP3    H268923   7.133   0.227   1.351  0.6330 -1.6279 -0.4010
22681TIP3   OH268924   3.934   8.554   7.434  0.0333 -0.0570  0.4118
22681TIP3    H168925   4.008   8.533   7.376  0.2601  1.9469 -0.0834
22681TIP3    H268926   3.971   8.548   7.522 -0.1412 -2.4586  0.3927
22682TIP3   OH268927   7.625   2.586  10.433  0.3584  0.1620 -0.3189
22682TIP3    H168928   7.606   2.657  10.372  0.5025 -0.1955 -0.7834
22682TIP3    H268929   7.601   2.506  10.387 -0.6375 -0.0528  0.5350
22683TIP3   OH268930   4.036   2.334   6.038  0.2569  0.3028 -0.6698
22683TIP3    H168931   4.123   2.370   6.052 -0.0686  0.4710  1.2195
22683TIP3    H268932   3.976   2.406   6.056 -0.3130 -0.4027  0.4307
22684TIP3   OH268933   9.457   0.471   4.787  0.3084  0.1964  0.1170
22684TIP3    H168934   9.530   0.487   4.727  0.1401  1.8166  0.3002
22684TIP3    H268935   9.382   0.457   4.729  0.8101 -1.9616 -0.0809
22685TIP3   OH268936   0.238   6.687   9.593  0.1748 -0.4414 -0.1839
22685TIP3    H168937   0.267   6.703   9.683  0.3058 -0.6625 -0.1866
22685TIP3    H268938   0.314   6.648   9.550  0.9271  1.7711 -1.0341
22686TIP3   OH268939   9.630   5.062   7.314 -0.5604  0.0648  0.3958
22686TIP3    H168940   9.558   5.000   7.302  0.0488 -0.7872  1.0439
22686TIP3    H268941   9.704   5.022   7.269 -0.6021  1.2023 -0.7565
22687TIP3   OH268942   5.265   6.664   0.176 -0.0542 -0.2331  0.3174
22687TIP3    H168943   5.262   6.736   0.114  2.9482  1.2842  1.7193
22687TIP3    H268944   5.205   6.689   0.246  0.9542  0.9984  0.7873
22688TIP3   OH268945   1.982   7.949   1.887 -0.3551 -0.2667  0.0090
22688TIP3    H168946   1.955   7.863   1.919  0.0130 -0.0271  0.9824
22688TIP3    H268947   1.901   7.995   1.868 -0.5534 -0.8736 -0.6503
22689TIP3   OH268948   2.617   3.108   2.394 -0.1692  0.3997  0.2273
22689TIP3    H168949   2.569   3.155   2.462  0.5650 -0.1226  1.1279
22689TIP3    H268950   2.549   3.081   2.331 -0.8431  0.9666  0.6929
22690TIP3   OH268951   8.730   8.335   6.382  1.1230  0.1480 -0.0124
22690TIP3    H168952   8.690   8.355   6.298  1.2803  1.5830  0.2333
22690TIP3    H268953   8.657   8.304   6.436  1.0124 -0.7048 -0.6435
22691TIP3   OH268954   9.775   2.081   4.942  0.2275  0.1292  0.1397
22691TIP3    H168955   9.777   2.112   5.032  2.4336  1.8172 -0.4163
22691TIP3    H268956   9.838   2.009   4.939  0.9288  0.7431 -0.2421
22692TIP3   OH268957   8.233  10.747   5.850 -0.3540  0.6126  0.1634
22692TIP3    H168958   8.147  10.768   5.888  0.8142  0.3256  3.2100
22692TIP3    H268959   8.296  10.771   5.918  1.8298 -1.4473 -0.9857
22693TIP3   OH268960   6.516   4.923  10.021 -0.0085 -0.0971  0.0302
22693TIP3    H168961   6.468   4.875  10.089  0.2829 -0.9254 -0.3383
22693TIP3    H268962   6.581   4.973  10.069 -0.5289  0.1853  0.4488
22694TIP3   OH268963   4.384  10.525   3.325  0.4366 -0.2168  0.1082
22694TIP3    H168964   4.294  10.556   3.335  0.2379 -0.6305 -0.3421
22694TIP3    H268965   4.423  10.535   3.412 -0.4788 -1.4049  0.6841
22695TIP3   OH268966   6.848   0.608   7.477 -0.2849 -0.3275 -0.1014
22695TIP3    H168967   6.899   0.674   7.429  0.4654  0.9183  2.2539
22695TIP3    H268968   6.907   0.533   7.484  0.0000 -0.1206 -0.2487
22696TIP3   OH268969   0.251   3.421   0.579  0.3741 -0.0150  0.1814
22696TIP3    H168970   0.186   3.429   0.648 -0.2023  1.6467 -0.5063
22696TIP3    H268971   0.209   3.457   0.501  1.2797 -1.1346 -0.8694
22697TIP3   OH268972   9.729   2.226  10.498 -0.6636 -0.2625  0.6418
22697TIP3    H168973   9.654   2.197  10.550 -0.9705  0.8744  0.8568
22697TIP3    H268974   9.784   2.274  10.560 -0.1385 -0.4326  0.3146
22698TIP3   OH268975   7.694   0.035  10.798  0.0164  0.6704 -0.4359
22698TIP3    H168976   7.635   0.088  10.743  0.3768  1.0967 -0.4156
22698TIP3    H268977   7.655   0.040  10.886  0.2731  1.2379 -0.3537
22699TIP3   OH268978   2.698   5.322  10.395 -0.4973 -0.1621  0.7613
22699TIP3    H168979   2.675   5.292  10.483 -1.7875 -2.7235 -0.3288
22699TIP3    H268980   2.776   5.272  10.373 -1.1467 -0.8324 -0.1198
22700TIP3   OH268981   7.781   5.609   6.300 -0.0026  0.3018 -0.4573
22700TIP3    H168982   7.760   5.524   6.339 -0.6704  2.3325  4.4165
22700TIP3    H268983   7.701   5.636   6.256 -0.1515 -1.0775 -1.0671
22701TIP3   OH268984  10.395   7.283   0.870 -0.6679  0.6199 -0.0966
22701TIP3    H168985  10.480   7.263   0.830 -0.0740 -0.0585  1.4179
22701TIP3    H268986  10.333   7.224   0.827 -0.8480  2.5737 -2.7412
22702TIP3   OH268987   6.025   5.326   7.352 -0.9477  0.3423  0.0737
22702TIP3    H168988   5.935   5.314   7.384  0.7773 -2.0285  5.1037
22702TIP3    H268989   6.054   5.408   7.392 -0.4195  0.3045 -0.2233
22703TIP3   OH268990   4.601   7.923   2.147 -0.2239 -0.7371 -0.0891
22703TIP3    H168991   4.671   7.911   2.083 -0.6569  0.5293 -0.8204
22703TIP3    H268992   4.575   8.014   2.138  0.3615 -0.2140  2.5798
22704TIP3   OH268993   4.304   2.833   1.078 -0.1483 -0.6428  0.1016
22704TIP3    H168994   4.360   2.870   1.010 -1.6664 -0.0335 -0.8460
22704TIP3    H268995   4.348   2.858   1.160  0.9085 -0.1048 -0.5976
22705TIP3   OH268996  10.651   1.096   4.238 -0.1489  0.1717 -0.0386
22705TIP3    H168997  10.674   1.043   4.162 -0.2883  0.8112 -0.5304
22705TIP3    H268998  10.584   1.156   4.207 -0.9536 -0.2375  0.8498
22706TIP3   OH268999   5.111   4.876   1.382 -0.6037  0.2186  0.3009
22706TIP3    H169000   5.141   4.939   1.317  0.2091  0.4083  0.8401
22706TIP3    H269001   5.044   4.824   1.337  0.0450  0.2507 -0.7275
22707TIP3   OH269002   1.480   0.314   2.014 -0.4457  0.7570  0.1316
22707TIP3    H169003   1.427   0.250   1.967 -2.2048 -0.1299  3.0097
22707TIP3    H269004   1.547   0.341   1.952 -0.3169 -2.9895 -1.6178
22708TIP3   OH269005   1.481   8.048   9.355 -0.2897 -0.1950  0.2979
22708TIP3    H169006   1.526   8.101   9.290  0.4203 -1.9114 -0.6522
22708TIP3    H269007   1.401   8.097   9.374  1.2247  2.1676  0.9267
22709TIP3   OH269008   0.339   2.888   2.090  0.1912 -0.5124  0.2994
22709TIP3    H169009   0.338   2.798   2.058 -0.8199  0.1275 -1.5973
22709TIP3    H269010   0.247   2.914   2.091  0.6244  1.3135 -1.6548
22710TIP3   OH269011   1.055   9.457   6.778  0.0686  0.2579 -0.5975
22710TIP3    H169012   1.028   9.477   6.688  1.5564  2.1015 -0.7016
22710TIP3    H269013   1.050   9.541   6.824  1.4346 -0.1923  0.4529
22711TIP3   OH269014   0.581   8.857   6.898 -0.2211  0.3090 -0.4165
22711TIP3    H169015   0.611   8.922   6.834 -0.4805  0.4300 -0.4166
22711TIP3    H269016   0.655   8.798   6.908  0.0445  0.6420 -0.3701
22712TIP3   OH269017   4.212   8.768   9.232 -0.3151 -0.7570 -0.2163
22712TIP3    H169018   4.121   8.797   9.239  0.1351  0.8671 -0.6945
22712TIP3    H269019   4.241   8.761   9.323 -0.0979  1.6210 -0.0244
22713TIP3   OH269020   6.573   8.525   3.767  0.4420  0.2758  0.2886
22713TIP3    H169021   6.567   8.452   3.706  1.1004 -1.2778  1.9929
22713TIP3    H269022   6.488   8.526   3.812  0.4331  0.5466  0.2663
22714TIP3   OH269023   8.542   3.288  10.473 -0.4238 -0.1918  0.2431
22714TIP3    H169024   8.573   3.348  10.541 -1.8410  0.5166  0.3013
22714TIP3    H269025   8.506   3.213  10.521 -1.5331  0.3616  0.3103
22715TIP3   OH269026   8.066   6.492   3.432 -0.4171  0.1859 -0.6419
22715TIP3    H169027   8.044   6.484   3.525 -0.9060 -0.7221 -0.8324
22715TIP3    H269028   8.139   6.554   3.431  0.9833 -1.3268  0.5648
22716TIP3   OH269029   5.393   0.864   4.744 -0.0475  0.4277 -0.1730
22716TIP3    H169030   5.414   0.921   4.669 -0.3123 -0.1162 -0.6661
22716TIP3    H269031   5.331   0.915   4.796 -0.1163  0.6803 -0.4972
22717TIP3   OH269032   9.469   2.174   1.808  0.9084 -0.0885 -0.3690
22717TIP3    H169033   9.412   2.128   1.746  2.3950 -1.1098 -1.0320
22717TIP3    H269034   9.466   2.120   1.888 -0.3382  0.7750  0.2102
22718TIP3   OH269035   7.809   4.025   6.961 -0.6012  0.0043 -0.1424
22718TIP3    H169036   7.824   4.092   6.894 -1.1755 -0.6214 -0.9232
22718TIP3    H269037   7.715   4.028   6.978 -0.4199  0.3262  0.8289
22719TIP3   OH269038   6.893   4.768   6.499 -0.2421  0.1268 -0.3893
22719TIP3    H169039   6.976   4.764   6.451 -0.1513  1.4003 -0.3563
22719TIP3    H269040   6.895   4.853   6.543 -0.3387 -0.9605  1.8641
22720TIP3   OH269041   8.756   1.262   9.957 -0.6309  0.6691  0.5039
22720TIP3    H169042   8.748   1.181   9.907 -0.3780  0.3822  0.9194
22720TIP3    H269043   8.719   1.240  10.043 -0.8080  1.0742  0.5321
22721TIP3   OH269044   1.656   2.060   9.198  0.8044 -0.2493  0.0617
22721TIP3    H169045   1.641   1.967   9.214 -2.5146  0.1187 -0.3088
22721TIP3    H269046   1.606   2.105   9.266  2.2213  1.3086  0.1435
22722TIP3   OH269047   1.306   9.404   4.975 -0.3989  0.4311 -0.0825
22722TIP3    H169048   1.224   9.402   4.926 -1.5704 -0.0601  1.8032
22722TIP3    H269049   1.301   9.328   5.033  1.5423  0.2298 -0.1025
22723TIP3   OH269050   9.270   8.156   3.868 -0.2004  0.1465  0.1621
22723TIP3    H169051   9.307   8.244   3.868 -0.7483  0.3950 -0.6533
22723TIP3    H269052   9.337   8.102   3.828  0.5264  0.0004  1.5311
22724TIP3   OH269053   4.201  10.472   7.518 -0.5695  0.1872  0.0679
22724TIP3    H169054   4.141  10.542   7.492 -1.0063  0.3097  1.3532
22724TIP3    H269055   4.280  10.517   7.546 -0.1440  0.0611 -0.8967
22725TIP3   OH269056   9.476  10.869   0.481 -0.1537  0.5909  0.1189
22725TIP3    H169057   9.567  10.841   0.475 -0.1426  0.6035  0.2172
22725TIP3    H269058   9.470  10.945   0.423 -0.9576 -1.5103 -2.8013
22726TIP3   OH269059   4.744   0.439   9.235  0.0575 -0.4221 -0.4240
22726TIP3    H169060   4.660   0.396   9.251  1.1050 -1.7517  1.7913
22726TIP3    H269061   4.740   0.519   9.287  0.4794 -0.9003  0.3475
22727TIP3   OH269062   4.355   1.380   2.857 -0.5289 -0.4458 -1.1916
22727TIP3    H169063   4.316   1.303   2.814  2.3854 -1.9332 -1.4051
22727TIP3    H269064   4.437   1.348   2.893 -0.8753  1.7614  1.9352
22728TIP3   OH269065   5.925   6.037   7.710  0.2754 -0.0970 -0.7599
22728TIP3    H169066   5.944   6.126   7.680  3.0922 -0.6920 -1.0041
22728TIP3    H269067   5.942   6.039   7.804 -2.0484  0.1482 -0.2925
22729TIP3   OH269068   5.628   3.824   2.120 -0.0507  0.1819  0.2205
22729TIP3    H169069   5.568   3.749   2.120  2.0184 -1.5708  0.5208
22729TIP3    H269070   5.715   3.785   2.115  1.0856  2.6428 -1.2431
22730TIP3   OH269071   7.943   4.680   2.118 -0.0376 -0.2185  0.5827
22730TIP3    H169072   7.891   4.683   2.198  0.3751 -0.8701  0.8860
22730TIP3    H269073   7.959   4.587   2.103  2.2098 -0.0162  1.2853
22731TIP3   OH269074   9.178   1.210   1.116  0.3673  0.1462 -0.2922
22731TIP3    H169075   9.211   1.255   1.038 -1.5731  2.5278  0.1549
22731TIP3    H269076   9.112   1.150   1.083  2.2790 -1.8460 -0.7852
22732TIP3   OH269077   5.473   3.815   4.658 -0.1296  0.1553  0.2878
22732TIP3    H169078   5.564   3.841   4.671 -0.1376  0.5037 -0.3480
22732TIP3    H269079   5.457   3.827   4.564 -0.8238  0.0742  0.3900
22733TIP3   OH269080  10.857   2.552   5.832  0.7359  0.1496  0.1227
22733TIP3    H169081  10.819   2.489   5.894  0.0913 -0.0593 -0.4783
22733TIP3    H269082  10.819   2.529   5.748 -0.1011  1.8117  0.0103
22734TIP3   OH269083   7.941  10.290   8.784 -0.4145  0.6343 -0.2585
22734TIP3    H169084   7.851  10.321   8.794 -0.3811  0.7904 -0.4334
22734TIP3    H269085   7.987  10.363   8.742  0.0109  0.9194  0.6580
22735TIP3   OH269086   7.642   7.049   3.640  0.1964  0.2393 -0.0764
22735TIP3    H169087   7.735   7.036   3.662  0.9395  1.3389 -2.2483
22735TIP3    H269088   7.607   7.099   3.714  0.7582 -1.8739  1.7305
22736TIP3   OH269089   3.347   9.356   1.775  0.4881  0.0652  0.1721
22736TIP3    H169090   3.307   9.274   1.804  0.4264  0.3123  0.7853
22736TIP3    H269091   3.422   9.368   1.832 -0.1954  1.0564  0.8853
22737TIP3   OH269092   5.653   0.983   3.316 -0.0212  0.4309  0.3526
22737TIP3    H169093   5.707   1.019   3.387  0.8674 -1.8588  0.9252
22737TIP3    H269094   5.563   0.993   3.347  0.3530 -0.5640  1.8812
22738TIP3   OH269095   7.970   9.112   2.464  0.4210  0.1652  0.2369
22738TIP3    H169096   8.006   9.115   2.552 -2.1479 -0.1440  1.4036
22738TIP3    H269097   7.902   9.180   2.464 -0.5040 -0.7033 -1.0530
22739TIP3   OH269098   6.005   0.992   5.792 -0.2542 -0.6438 -0.2466
22739TIP3    H169099   5.968   1.079   5.803 -0.8409 -0.5506 -2.4589
22739TIP3    H269100   5.945   0.934   5.838 -1.2716 -0.1195 -0.8802
22740TIP3   OH269101   5.079   3.941   4.867 -0.1907 -0.3537  0.3981
22740TIP3    H169102   5.013   4.001   4.832  0.4007 -0.9647 -1.9428
22740TIP3    H269103   5.162   3.976   4.835  0.4916 -0.5973  1.8139
22741TIP3   OH269104   8.912   4.864   7.179  0.2737  0.4888 -0.9458
22741TIP3    H169105   9.001   4.878   7.148 -0.2703  1.9042 -1.9692
22741TIP3    H269106   8.858   4.919   7.123 -1.1277  0.5150  0.3586
22742TIP3   OH269107   7.129   1.534   8.219 -0.1938 -0.0282 -0.2538
22742TIP3    H169108   7.178   1.498   8.294  0.4461  0.3885 -0.4705
22742TIP3    H269109   7.185   1.603   8.184 -0.6478  0.0158 -0.9095
22743TIP3   OH269110   7.384   2.121   5.854 -0.4732  0.2356  0.4303
22743TIP3    H169111   7.330   2.149   5.780  0.5280 -0.7945 -0.7354
22743TIP3    H269112   7.374   2.191   5.919 -1.3946  1.1555 -0.6631
22744TIP3   OH269113   5.921   2.604   6.510  0.2923 -0.0572  0.1942
22744TIP3    H169114   5.943   2.673   6.573  0.3035  0.2181 -0.1091
22744TIP3    H269115   5.893   2.652   6.431 -1.8336 -0.3537  0.6958
22745TIP3   OH269116   3.911   2.442   6.355  0.2927  0.1595 -0.4602
22745TIP3    H169117   3.933   2.349   6.346 -1.7461 -0.4136 -0.0428
22745TIP3    H269118   3.984   2.488   6.314  1.5462 -1.6041 -0.3200
22746TIP3   OH269119   8.416   9.644   5.805  0.7153  0.2685 -0.3118
22746TIP3    H169120   8.433   9.734   5.775  0.8610  0.5299  0.5167
22746TIP3    H269121   8.367   9.655   5.887 -0.2637 -0.4314 -0.7849
22747TIP3   OH269122   6.043   0.446   2.746  0.4967 -0.1534  0.5178
22747TIP3    H169123   5.977   0.513   2.763 -1.0771 -1.8184  1.2013
22747TIP3    H269124   6.066   0.413   2.833  1.1165 -0.6391  0.1785
22748TIP3   OH269125   7.891   2.670   9.005  0.5108 -0.1884  0.3919
22748TIP3    H169126   7.819   2.656   8.943  0.4800 -0.8479  0.5625
22748TIP3    H269127   7.906   2.764   9.003 -0.8429  0.0695  0.8736
22749TIP3   OH269128   9.121  10.547   9.193 -0.3724 -0.1310  0.5731
22749TIP3    H169129   9.105  10.454   9.180  2.0941 -0.5300 -0.1267
22749TIP3    H269130   9.102  10.587   9.109 -2.7676  0.2841  1.2379
22750TIP3   OH269131   1.684   1.752   9.101 -0.4017 -0.1971 -0.2725
22750TIP3    H169132   1.593   1.728   9.119 -0.3169  0.1076  0.6054
22750TIP3    H269133   1.712   1.692   9.031 -1.2201 -0.4005 -0.4272
22751TIP3   OH269134   5.197   4.815   6.502 -0.0435 -0.4411 -0.2003
22751TIP3    H169135   5.232   4.894   6.462  1.7878  0.2164  2.4737
22751TIP3    H269136   5.265   4.786   6.563 -2.0067 -2.2160  1.3106
22752TIP3   OH269137   0.032   6.009   7.793 -0.6187 -0.8539 -0.2165
22752TIP3    H169138  -0.011   6.053   7.866  0.4662 -0.4063  0.1781
22752TIP3    H269139   0.030   5.916   7.817  1.0114 -0.5852  1.1243
22753TIP3   OH269140   3.793   4.714   0.529  0.9467 -0.3463 -0.0044
22753TIP3    H169141   3.853   4.723   0.456  2.0684 -0.4024  0.8850
22753TIP3    H269142   3.830   4.768   0.598 -1.1501  1.3352 -0.0837
22754TIP3   OH269143   5.314   4.960   0.181 -0.7938 -0.0425  0.0283
22754TIP3    H169144   5.390   4.964   0.123 -1.5614  0.5072 -0.9735
22754TIP3    H269145   5.313   4.869   0.213 -0.3782 -0.3728 -0.8543
22755TIP3   OH269146  10.606   9.418   8.803  0.1479  0.3859 -0.3707
22755TIP3    H169147  10.559   9.502   8.804  2.2862  1.6434  1.0712
22755TIP3    H269148  10.582   9.376   8.885 -0.0505  0.0561 -0.5916
22756TIP3   OH269149   3.825   6.581   9.270 -0.0849  0.2338 -0.1440
22756TIP3    H169150   3.787   6.568   9.183  1.7991 -1.6689 -0.7663
22756TIP3    H269151   3.819   6.495   9.312  2.4525  0.1129  0.1132
22757TIP3   OH269152   9.969   8.290   5.840 -0.5762 -0.4746 -0.2030
22757TIP3    H169153   9.938   8.368   5.888  0.1166  1.3029 -2.4458
22757TIP3    H269154   9.909   8.220   5.867 -1.0482  0.7084  2.1541
22758TIP3   OH269155   6.884   8.519   7.255 -0.1312  0.1836 -0.4750
22758TIP3    H169156   6.916   8.588   7.313  1.5781 -0.6154 -0.3996
22758TIP3    H269157   6.952   8.511   7.187 -0.4836 -1.1239 -0.7088
22759TIP3   OH269158   8.776   4.060   9.755  0.4186 -0.3798 -0.1779
22759TIP3    H169159   8.744   4.129   9.814 -0.8689 -0.6975 -0.4617
22759TIP3    H269160   8.790   3.984   9.812  2.9229  0.3807  0.3259
22760TIP3   OH269161   9.036   1.568   9.372  0.4644  0.3368 -0.8625
22760TIP3    H169162   9.017   1.661   9.366  0.3159  0.3161 -0.7292
22760TIP3    H269163   9.130   1.561   9.360  1.1508  0.8804  2.9357
22761TIP3   OH269164   2.807   0.847   4.091 -0.1787  0.1482  0.3767
22761TIP3    H169165   2.875   0.780   4.086  0.1677  0.5872 -1.7173
22761TIP3    H269166   2.839   0.917   4.035 -1.8509  0.8614  0.2711
22762TIP3   OH269167   4.759   2.525   6.962  0.2949  0.0029 -0.8382
22762TIP3    H169168   4.798   2.498   6.879  2.5175  0.9159 -0.1525
22762TIP3    H269169   4.761   2.447   7.017  1.8681  0.1860 -0.5944
22763TIP3   OH269170   3.327   0.487   6.646  0.1757  0.0863 -1.1931
22763TIP3    H169171   3.260   0.550   6.620 -1.6173 -1.6490 -1.0340
22763TIP3    H269172   3.392   0.539   6.693 -1.8976  1.6428  0.1262
22764TIP3   OH269173   4.992   2.944   3.498 -0.0327 -0.2087  0.5625
22764TIP3    H169174   4.929   2.972   3.565  2.3571  0.8350  2.5229
22764TIP3    H269175   5.076   2.942   3.543  1.3784 -1.6954 -1.8990
22765TIP3   OH269176   8.530   5.883  10.765 -0.0955  0.1498  0.6781
22765TIP3    H169177   8.567   5.959  10.720  0.7380 -0.6426 -0.0028
22765TIP3    H269178   8.554   5.897  10.857  2.8215 -0.7724  0.1709
22766TIP3   OH269179   2.502   8.207   8.019 -0.0506 -0.5020  0.4955
22766TIP3    H169180   2.501   8.225   7.925 -1.0497  0.9214  0.7520
22766TIP3    H269181   2.413   8.178   8.039 -0.3964  1.0235  1.3012
22767TIP3   OH269182   9.198  10.205   6.846 -0.6382 -0.0061 -0.4238
22767TIP3    H169183   9.119  10.256   6.864 -1.6989 -1.3260 -1.1210
22767TIP3    H269184   9.185  10.170   6.758 -0.0164 -1.5226  0.0459
22768TIP3   OH269185   3.918   4.193   2.387  0.2495 -0.2708  0.1634
22768TIP3    H169186   3.979   4.118   2.387 -0.6184 -0.9929  0.3712
22768TIP3    H269187   3.885   4.197   2.476 -0.1011  0.0407  0.0231
22769TIP3   OH269188   6.409   1.815   7.480 -0.1169  0.6935 -0.8756
22769TIP3    H169189   6.482   1.872   7.504 -0.0428  1.5280 -2.8965
22769TIP3    H269190   6.369   1.857   7.404 -2.3146 -0.0903 -0.2274
22770TIP3   OH269191   1.146   3.330   6.753  0.4295 -0.3059 -0.7375
22770TIP3    H169192   1.059   3.363   6.775  0.7894  0.2151 -0.0464
22770TIP3    H269193   1.206   3.401   6.776  1.1516 -1.1137 -0.0339
22771TIP3   OH269194   1.371   9.689   8.807 -0.1809  0.0912 -0.1713
22771TIP3    H169195   1.299   9.742   8.841 -0.6175  0.4540 -1.5612
22771TIP3    H269196   1.445   9.749   8.799 -0.3224  0.2178 -0.6019
22772TIP3   OH269197   2.631   9.002   8.046 -0.1617 -0.1421 -0.3336
22772TIP3    H169198   2.713   8.952   8.044  1.0323  1.6302  1.1216
22772TIP3    H269199   2.655   9.089   8.014 -1.8703 -0.0306 -1.4211
22773TIP3   OH269200   5.303   1.881   0.467  0.3037 -0.6399 -0.2875
22773TIP3    H169201   5.259   1.965   0.476  0.6284 -0.5710  0.7417
22773TIP3    H269202   5.396   1.901   0.477  0.3705 -1.1347  0.1125
22774TIP3   OH269203   8.434   1.655   5.116  0.0937  0.1019 -0.7807
22774TIP3    H169204   8.364   1.668   5.052 -1.4921  0.3537  0.9117
22774TIP3    H269205   8.409   1.709   5.191  0.3118 -2.3557  1.2008
22775TIP3   OH269206   9.652  10.064   9.004 -0.1176  0.5001 -0.3937
22775TIP3    H169207   9.626  10.126   9.072 -0.2801  1.1454 -1.0296
22775TIP3    H269208   9.600  10.089   8.927  0.6972  0.3350 -1.0132
22776TIP3   OH269209   3.508   1.080   8.285  0.9869 -0.1611  0.2628
22776TIP3    H169210   3.500   1.008   8.222 -1.0758  1.2472 -1.2298
22776TIP3    H269211   3.486   1.041   8.370  2.2217 -1.7491 -0.1099
22777TIP3   OH269212   7.610  10.156   1.979 -0.3493  0.0371  0.0111
22777TIP3    H169213   7.552  10.175   2.053  1.3993 -0.0536  1.4840
22777TIP3    H269214   7.581  10.071   1.947 -0.0276 -0.8023  1.8066
22778TIP3   OH269215   8.261   5.648   8.009  0.2673  0.8115  0.6335
22778TIP3    H169216   8.341   5.607   8.044 -0.2737  0.3910  1.4109
22778TIP3    H269217   8.217   5.683   8.087 -1.0463 -0.2725  0.4054
22779TIP3   OH269218   4.258   4.750   1.703 -0.4517 -0.7241 -0.1389
22779TIP3    H169219   4.295   4.833   1.672 -0.1012 -0.9488 -0.3340
22779TIP3    H269220   4.167   4.751   1.674 -0.3004 -0.6465 -0.6214
22780TIP3   OH269221   1.163   1.906   0.175  0.7367  0.1402 -0.4686
22780TIP3    H169222   1.257   1.898   0.194  0.8618  2.0659 -0.0855
22780TIP3    H269223   1.160   1.921   0.080  0.7282 -0.6843 -0.6136
22781TIP3   OH269224   7.104  10.890  10.014  0.4917 -0.5694  0.1915
22781TIP3    H169225   7.057  10.914  10.094 -0.1653  0.5959 -0.5142
22781TIP3    H269226   7.041  10.907   9.944  1.3770 -0.6829 -0.6414
22782TIP3   OH269227   6.047   0.624   4.346 -0.1516 -0.2799 -0.1528
22782TIP3    H169228   6.000   0.600   4.267 -2.3729  2.5257  0.1773
22782TIP3    H269229   6.058   0.719   4.340 -0.8209  0.1173  3.0724
22783TIP3   OH269230   7.966   2.008   4.249  0.1097 -0.2723 -0.7511
22783TIP3    H169231   7.912   1.947   4.198 -2.3592 -0.8581  2.2554
22783TIP3    H269232   7.903   2.059   4.300  2.3161  1.5313  0.3709
22784TIP3   OH269233   4.796   3.229   9.037  0.2821  0.5623  0.0714
22784TIP3    H169234   4.711   3.231   8.993  0.3072  2.3898  0.0357
22784TIP3    H269235   4.778   3.194   9.124 -0.5296  0.9705  0.0717
22785TIP3   OH269236   6.105   2.890   6.057  0.5879  0.2951 -0.6466
22785TIP3    H169237   6.144   2.802   6.051 -1.0447 -0.4442 -0.9894
22785TIP3    H269238   6.082   2.912   5.967 -0.3978  0.4063 -0.3720
22786TIP3   OH269239   6.356   0.019   0.813  0.4845 -0.6388  0.5147
22786TIP3    H169240   6.275   0.068   0.828  0.0138 -1.5217  0.9186
22786TIP3    H269241   6.350  -0.012   0.723  0.3933 -0.6719  0.5323
22787TIP3   OH269242   2.750   7.640   6.187 -0.0224 -0.0526  0.0558
22787TIP3    H169243   2.794   7.565   6.228  0.4551  0.0205 -0.3172
22787TIP3    H269244   2.818   7.707   6.181 -0.7397  0.8425  1.4721
22788TIP3   OH269245   5.548   3.582   4.040  0.1370  0.3512 -0.0151
22788TIP3    H169246   5.557   3.628   3.956  4.3897 -3.1487 -1.8442
22788TIP3    H269247   5.487   3.511   4.022  0.3189  0.1527  0.1491
22789TIP3   OH269248   8.298   3.826   3.535  0.1165  0.4714 -0.0397
22789TIP3    H169249   8.230   3.767   3.567 -0.6195  2.0573  1.4958
22789TIP3    H269250   8.279   3.836   3.441 -1.6226  0.6289  0.2876
22790TIP3   OH269251   7.443  10.416   9.888 -0.2135 -0.0550 -0.2694
22790TIP3    H169252   7.427  10.510   9.899  1.8886  0.6727 -2.6232
22790TIP3    H269253   7.362  10.382   9.850 -0.6762  0.9536 -0.2250
22791TIP3   OH269254   2.896   1.714   5.681 -0.3640 -0.2298  0.1237
22791TIP3    H169255   2.828   1.647   5.687 -0.8971  0.0981 -1.5266
22791TIP3    H269256   2.933   1.720   5.769 -1.8797 -1.0294  0.8481
22792TIP3   OH269257   2.869   0.212   5.611 -0.2670 -0.3508  0.5257
22792TIP3    H169258   2.830   0.292   5.578 -0.7124 -1.3954 -1.6475
22792TIP3    H269259   2.963   0.228   5.612 -0.4161  0.5218  1.0889
22793TIP3   OH269260   9.312   0.267   7.179  0.0180  0.8342  0.0562
22793TIP3    H169261   9.384   0.324   7.150 -0.6112  1.0901 -1.0949
22793TIP3    H269262   9.345   0.178   7.166 -0.6309  0.8871 -2.8116
22794TIP3   OH269263   2.479   3.551   2.716 -0.3174  0.2078 -0.3509
22794TIP3    H169264   2.526   3.468   2.711  1.0721  0.9566 -0.2189
22794TIP3    H269265   2.450   3.568   2.627  0.8385  0.3792 -0.7045
22795TIP3   OH269266   0.816   4.049   9.851 -0.5094 -0.5268  0.1034
22795TIP3    H169267   0.743   4.000   9.814 -0.7720  0.5205 -0.7891
22795TIP3    H269268   0.816   4.025   9.944 -3.1176  0.8226  0.5248
22796TIP3   OH269269   2.128   0.136   5.159 -0.0066  0.6877  0.0138
22796TIP3    H169270   2.217   0.121   5.127  0.5703  1.6956  1.0574
22796TIP3    H269271   2.123   0.231   5.172 -1.5594  0.7741 -0.9179
22797TIP3   OH269272   3.707  10.185   4.922 -0.5100  0.4475  0.2133
22797TIP3    H169273   3.750  10.177   5.007 -0.6365  1.4656  0.3968
22797TIP3    H269274   3.615  10.167   4.941 -0.8836  2.5680  0.7230
22798TIP3   OH269275   6.018   9.908   3.203 -1.2664 -0.0515 -0.0320
22798TIP3    H169276   6.041   9.841   3.138 -0.0405  0.3798 -0.0652
22798TIP3    H269277   6.095   9.964   3.208 -1.6241  0.3561  1.2617
22799TIP3   OH269278   3.154   7.920   5.272  0.0099  0.2666  0.2014
22799TIP3    H169279   3.105   7.997   5.243 -0.1442 -0.2404 -0.9739
22799TIP3    H269280   3.243   7.934   5.239 -0.1513 -0.2941 -0.4933
22800TIP3   OH269281   5.890   7.151   0.179  0.1351 -0.2164 -0.2863
22800TIP3    H169282   5.961   7.117   0.125  1.1269  0.5957  0.4776
22800TIP3    H269283   5.927   7.158   0.267 -0.4841  1.4009 -0.1185
22801TIP3   OH269284   8.397   1.620   0.399 -0.1111  0.2710 -0.1638
22801TIP3    H169285   8.480   1.662   0.378  1.2491 -1.9835  0.3592
22801TIP3    H269286   8.360   1.672   0.470  0.8983  1.2594 -0.3523
22802TIP3   OH269287  10.581   5.641   8.922  0.4577 -0.6494 -0.6700
22802TIP3    H169288  10.545   5.558   8.892  1.8901 -1.5486 -0.0360
22802TIP3    H269289  10.608   5.624   9.012 -3.0901  1.7547  1.0571
22803TIP3   OH269290   4.517   5.755   9.379 -0.3955  0.5031 -0.3002
22803TIP3    H169291   4.428   5.789   9.372 -1.0869 -1.2169 -0.2146
22803TIP3    H269292   4.534   5.716   9.293  0.1994  0.6204 -0.2373
22804TIP3   OH269293   9.787   7.047  10.576 -0.0796  0.1037  0.5524
22804TIP3    H169294   9.874   7.025  10.542 -0.7788  0.1636 -1.4031
22804TIP3    H269295   9.758   7.121  10.523 -0.6313  1.2628  2.3678
22805TIP3   OH269296   1.985   8.743   8.907 -0.4057 -0.4309 -0.3751
22805TIP3    H169297   1.939   8.812   8.859  0.9667  0.4283 -0.5207
22805TIP3    H269298   2.078   8.765   8.896 -0.0033 -1.3408  1.0163
22806TIP3   OH269299   1.578   5.535   5.044  0.6694  0.4011  0.2227
22806TIP3    H169300   1.643   5.604   5.052 -0.7222  1.6723  1.1405
22806TIP3    H269301   1.601   5.471   5.111  0.6230  1.1387  0.9445
22807TIP3   OH269302   2.476   2.460   2.091  0.0465  0.3684  0.1947
22807TIP3    H169303   2.402   2.518   2.110 -1.9975 -1.8012 -0.5892
22807TIP3    H269304   2.497   2.421   2.176 -0.9989 -0.3881  0.1256
22808TIP3   OH269305   1.361   7.060   5.099  0.1974  0.1503 -0.1690
22808TIP3    H169306   1.409   7.064   5.182 -0.1202 -0.4680  0.0542
22808TIP3    H269307   1.428   7.073   5.032  0.3591  1.3415  0.1924
22809TIP3   OH269308   3.007   5.278  10.543 -0.0696 -0.1150 -0.0261
22809TIP3    H169309   2.990   5.228  10.463 -1.4581  0.6113 -0.2151
22809TIP3    H269310   3.092   5.319  10.527  0.0642 -0.6650 -0.7723
22810TIP3   OH269311   7.016   9.778   3.363  0.2095 -0.0868  0.1157
22810TIP3    H169312   6.936   9.826   3.383  0.4940  0.4154  0.0640
22810TIP3    H269313   7.085   9.827   3.408  0.6781  0.2929 -0.9596
22811TIP3   OH269314   5.222   6.953   9.701 -0.2623 -0.0882 -0.4072
22811TIP3    H169315   5.227   6.989   9.612  0.3843  1.6886  0.3114
22811TIP3    H269316   5.296   6.893   9.707 -0.9757 -1.1161 -1.4160
22812TIP3   OH269317   0.836   2.700   3.789 -0.0363  0.2791 -0.9775
22812TIP3    H169318   0.826   2.782   3.741  0.2628  1.0741  0.2745
22812TIP3    H269319   0.749   2.660   3.786  0.1800 -0.1406 -2.9139
22813TIP3   OH269320  10.843  10.080   3.926 -1.3306 -0.4532 -0.3856
22813TIP3    H169321  10.837  10.043   3.838  2.5119  1.6521 -1.7986
22813TIP3    H269322  10.814  10.171   3.915 -0.7056 -0.1396  0.4851
22814TIP3   OH269323   0.814   7.679   9.749  0.4351 -0.9490  0.2174
22814TIP3    H169324   0.801   7.705   9.658 -0.3362 -0.3433  0.4856
22814TIP3    H269325   0.789   7.756   9.799  0.1125 -1.5276  0.9667
22815TIP3   OH269326   3.641   0.779   0.391 -0.4145  0.0209  0.0476
22815TIP3    H169327   3.698   0.828   0.331 -1.2532 -1.3122 -1.9702
22815TIP3    H269328   3.652   0.822   0.476  2.4365  0.7218 -0.5727
22816TIP3   OH269329   6.233   0.023   8.965 -0.3444  0.1328 -0.7030
22816TIP3    H169330   6.218   0.010   9.058  0.7071  0.1740 -0.5097
22816TIP3    H269331   6.204  -0.058   8.924 -1.0749  0.2246 -0.3772
22817TIP3   OH269332   4.045  10.828   9.807 -0.1979 -0.0729  0.2901
22817TIP3    H169333   4.005  10.747   9.838  1.9526 -0.8787  1.1336
22817TIP3    H269334   4.131  10.831   9.851  0.0505  2.3250 -0.2364
22818TIP3   OH269335   5.546   3.332   9.290 -0.2070  0.1746 -0.0496
22818TIP3    H169336   5.452   3.312   9.289 -0.0189 -1.0803  1.9346
22818TIP3    H269337   5.553   3.416   9.245 -2.3721  0.6151  0.3242
22819TIP3   OH269338   4.379   7.840   2.288 -0.2624 -0.4656 -0.7327
22819TIP3    H169339   4.459   7.842   2.236 -0.1306 -1.1273 -0.5586
22819TIP3    H269340   4.324   7.775   2.245 -0.0767 -1.1666  0.0546
22820TIP3   OH269341   1.424   1.284   8.096  0.2392 -0.2405 -0.5663
22820TIP3    H169342   1.370   1.262   8.020 -0.2681 -0.4020 -0.1695
22820TIP3    H269343   1.362   1.289   8.169  0.4798  1.5462 -0.4458
22821TIP3   OH269344   3.405   4.099   3.677  0.2344  0.0068 -0.4817
22821TIP3    H169345   3.366   4.132   3.758  0.8577  6.0844 -2.1859
22821TIP3    H269346   3.331   4.088   3.618  0.1936  1.8776 -0.8359
22822TIP3   OH269347   0.412   6.513   1.725  0.0512  0.0872 -0.0884
22822TIP3    H169348   0.384   6.597   1.763  1.0950  0.2792  0.2827
22822TIP3    H269349   0.332   6.460   1.725 -0.8887  1.4002 -1.2902
22823TIP3   OH269350   8.568   9.669   6.441 -0.0055 -0.8081  0.7296
22823TIP3    H169351   8.478   9.665   6.408 -0.5985  1.9025  1.6784
22823TIP3    H269352   8.607   9.744   6.395  1.1120 -0.7600  1.7116
22824TIP3   OH269353   0.559  10.601   7.767  0.2672 -0.0811 -0.5360
22824TIP3    H169354   0.562  10.695   7.746  0.5310  0.1303  0.3789
22824TIP3    H269355   0.510  10.597   7.849  1.4862 -0.5956  0.1828
22825TIP3   OH269356   9.013   2.724   1.408 -0.2114 -0.8913  0.1143
22825TIP3    H169357   9.076   2.671   1.359 -0.8886 -1.6189  0.0043
22825TIP3    H269358   9.021   2.693   1.499 -1.9924 -2.6575 -0.2481
22826TIP3   OH269359   7.934   5.265   6.165 -0.2289 -0.0955 -0.3020
22826TIP3    H169360   7.939   5.359   6.181  1.8474  0.0218 -1.3376
22826TIP3    H269361   7.911   5.258   6.072 -0.3994 -0.6299 -0.2255
22827TIP3   OH269362   8.940   9.250   3.757 -0.0322 -0.3624 -0.1784
22827TIP3    H169363   9.027   9.287   3.743  0.3839 -1.0945  0.4548
22827TIP3    H269364   8.898   9.310   3.819 -0.7760  1.1762 -2.0513
22828TIP3   OH269365   0.828   9.899   3.078  0.5218 -0.3274 -0.2114
22828TIP3    H169366   0.828   9.870   2.986  0.5964 -0.3128 -0.2155
22828TIP3    H269367   0.773   9.977   3.078  0.7249 -0.1840 -0.2880
22829TIP3   OH269368   9.091  10.424   5.074 -0.4559  0.3954 -0.1199
22829TIP3    H169369   9.033  10.411   5.149 -0.1328  0.9082  0.2267
22829TIP3    H269370   9.035  10.409   4.998 -0.5901 -0.9842  0.2127
22830TIP3   OH269371   5.572   7.654   4.944 -0.5565 -0.0036  0.2695
22830TIP3    H169372   5.605   7.712   5.013 -0.2225 -0.3014  0.3614
22830TIP3    H269373   5.556   7.571   4.988 -2.7519  0.4991  0.5271
22831TIP3   OH269374   8.347   5.436   1.937  0.9520  0.5612  0.0309
22831TIP3    H169375   8.402   5.366   1.971 -0.1873 -1.0218 -1.2230
22831TIP3    H269376   8.287   5.457   2.009 -0.5204 -1.7636 -0.4047
22832TIP3   OH269377   0.636   2.467   8.626  0.8063  0.5465  0.0977
22832TIP3    H169378   0.651   2.415   8.547 -0.5488 -2.0358  1.4433
22832TIP3    H269379   0.723   2.478   8.664  1.0921 -1.1649  0.0021
22833TIP3   OH269380   9.768   0.917   6.278  0.4643 -0.2726 -0.4521
22833TIP3    H169381   9.742   0.998   6.323  0.1806 -0.0671 -0.9717
22833TIP3    H269382   9.734   0.928   6.189 -0.8219 -1.5519 -0.1641
22834TIP3   OH269383  10.230   3.520   1.904 -0.4635  0.0606 -0.1657
22834TIP3    H169384  10.198   3.534   1.993 -1.3991  0.7341 -0.5966
22834TIP3    H269385  10.324   3.503   1.915 -0.3792  1.0651  0.8701
22835TIP3   OH269386   4.768   3.691   9.232 -0.0049  0.3999  0.6877
22835TIP3    H169387   4.702   3.678   9.165  2.6846  0.7568 -2.2682
22835TIP3    H269388   4.842   3.638   9.204  1.8622  1.8589  2.4731
22836TIP3   OH269389   0.311   8.623   3.024  0.1541  0.2401 -0.8457
22836TIP3    H169390   0.280   8.631   3.114 -2.6416 -0.0324 -1.6970
22836TIP3    H269391   0.349   8.708   3.004 -2.4393  1.5839 -0.4789
22837TIP3   OH269392   8.205   5.558   4.519  0.1440 -0.0385 -0.3394
22837TIP3    H169393   8.259   5.637   4.521  0.9628 -0.5846 -0.6114
22837TIP3    H269394   8.117   5.589   4.542  0.1285  1.2060 -1.8806
22838TIP3   OH269395   1.878   0.301   1.183 -0.5578  0.3012  0.1160
22838TIP3    H169396   1.957   0.246   1.186 -0.0267  0.9742 -0.9828
22838TIP3    H269397   1.842   0.294   1.271  0.9487  0.2751  0.7695
22839TIP3   OH269398   8.644   0.462   2.811 -1.1823 -0.5394  0.5021
22839TIP3    H169399   8.597   0.501   2.737 -1.7194 -1.3947  0.3865
22839TIP3    H269400   8.605   0.505   2.888 -0.3096  0.6807  0.2832
22840TIP3   OH269401   3.523   6.451   2.917  0.2237  0.1961 -0.3801
22840TIP3    H169402   3.610   6.490   2.916  0.9633 -1.3075  0.8924
22840TIP3    H269403   3.488   6.471   3.004 -0.1281 -0.3696 -0.3859
22841TIP3   OH269404   6.060   4.466   1.616 -0.2499 -0.2944  0.3727
22841TIP3    H169405   6.103   4.551   1.602 -0.5328  0.0173  1.2948
22841TIP3    H269406   6.053   4.459   1.711 -2.2176 -0.3355  0.2632
22842TIP3   OH269407   1.355   5.541   1.696 -0.3389 -0.0685  0.1577
22842TIP3    H169408   1.350   5.593   1.776  0.5804  1.0192 -0.4641
22842TIP3    H269409   1.407   5.464   1.721 -0.8199 -0.1829  0.8222
22843TIP3   OH269410   3.215  10.074   2.696 -0.2083  0.0991  0.2816
22843TIP3    H169411   3.139  10.034   2.738 -1.0550  0.7951 -0.5321
22843TIP3    H269412   3.232  10.019   2.619 -0.7465  0.7054 -0.2821
22844TIP3   OH269413   3.090   5.332   3.554  0.1758  0.0069  0.5824
22844TIP3    H169414   2.998   5.324   3.532  0.4388  0.8676 -1.0429
22844TIP3    H269415   3.117   5.245   3.582 -0.9568 -0.4190  0.3684
22845TIP3   OH269416   4.439   6.512   8.222  0.2458  0.0703 -0.3409
22845TIP3    H169417   4.389   6.525   8.303 -0.0518  0.8331 -0.6441
22845TIP3    H269418   4.519   6.467   8.250 -0.1549 -0.2713  0.2829
22846TIP3   OH269419   1.246   2.230   3.428 -0.3858 -0.2210  0.1345
22846TIP3    H169420   1.228   2.144   3.467 -1.6753 -0.0683 -0.0779
22846TIP3    H269421   1.310   2.212   3.359 -0.4144 -0.9674  0.2948
22847TIP3   OH269422   1.246   6.487   9.379  0.3269  0.1148  0.0762
22847TIP3    H169423   1.164   6.438   9.380  1.7259 -2.7350 -3.1440
22847TIP3    H269424   1.239   6.544   9.301  1.1737  0.2555  0.0856
22848TIP3   OH269425  10.876   2.727   2.210 -0.0586  0.6011 -0.7188
22848TIP3    H169426  10.842   2.716   2.299 -1.2156  2.5906 -0.8743
22848TIP3    H269427  10.963   2.686   2.213  0.8709  2.4544  1.9639
22849TIP3   OH269428   4.786  10.587   1.968 -0.1989 -0.3196  0.3313
22849TIP3    H169429   4.731  10.513   1.994 -1.7445  0.3399 -0.8651
22849TIP3    H269430   4.842  10.553   1.899 -2.2461  0.0141 -1.5969
22850TIP3   OH269431   4.871   6.763   8.100  0.6731  0.2649  0.2362
22850TIP3    H169432   4.924   6.840   8.079 -0.4641  0.7860 -0.8329
22850TIP3    H269433   4.892   6.700   8.032 -1.2465  1.0791 -1.1899
22851TIP3   OH269434   2.292   6.055   5.576  0.4183  0.0347 -1.0563
22851TIP3    H169435   2.376   6.029   5.616 -0.7439  0.7788  2.2021
22851TIP3    H269436   2.298   6.023   5.486  3.7203 -0.9670 -0.6463
22852TIP3   OH269437   1.089   6.501   1.545 -0.0413 -0.4691  0.2322
22852TIP3    H169438   1.183   6.508   1.529  0.2798 -2.6013  0.8422
22852TIP3    H269439   1.070   6.569   1.610  1.0790 -0.0276  0.1150
22853TIP3   OH269440   0.753   9.693   3.768 -0.5362 -0.8449  0.2298
22853TIP3    H169441   0.704   9.618   3.735 -0.4206 -0.4254 -0.9584
22853TIP3    H269442   0.844   9.664   3.770 -0.6858 -1.2860  1.4425
22854TIP3   OH269443   0.832   3.270  10.567  0.0450  0.2555 -0.3958
22854TIP3    H169444   0.904   3.258  10.629  0.3286  0.3775 -0.6991
22854TIP3    H269445   0.782   3.344  10.602 -0.8706 -0.8386  0.6911
22855TIP3   OH269446   6.437   7.011   2.823 -0.5520  0.0875 -0.0068
22855TIP3    H169447   6.511   6.966   2.780  1.2327  1.3716  1.5564
22855TIP3    H269448   6.369   6.944   2.831  0.6700 -1.3220 -0.9476
22856TIP3   OH269449   0.045   8.623  10.827 -0.4804 -0.2002  0.4489
22856TIP3    H169450   0.045   8.707  10.782 -0.1351 -0.4503 -0.0257
22856TIP3    H269451   0.130   8.618  10.870 -0.1848 -0.6427 -0.1718
22857TIP3   OH269452   4.198   8.324   1.038  0.0911  0.2772  0.4863
22857TIP3    H169453   4.119   8.351   0.992  0.7753 -1.5463 -1.9406
22857TIP3    H269454   4.255   8.402   1.034 -0.3129  0.5351 -0.7973
22858TIP3   OH269455   5.481   2.668   1.994 -0.3377  0.1836  0.3183
22858TIP3    H169456   5.415   2.600   2.004  0.4843 -0.3425  2.8062
22858TIP3    H269457   5.564   2.624   2.010  0.8835  0.5522 -3.9656
22859TIP3   OH269458   3.255   6.844   8.112  0.0338 -0.0354  0.4339
22859TIP3    H169459   3.307   6.900   8.054 -1.7016  0.1157 -1.0638
22859TIP3    H269460   3.238   6.899   8.189 -1.4452  1.5105 -0.9143
22860TIP3   OH269461   3.201   0.103   2.045  0.7194  0.3711 -0.1817
22860TIP3    H169462   3.291   0.120   2.071  0.2752  0.8716  1.1298
22860TIP3    H269463   3.189   0.009   2.060  0.9644  0.3473 -0.1391
22861TIP3   OH269464   5.867   3.884   0.137  0.0473 -0.2450 -0.3724
22861TIP3    H169465   5.821   3.871   0.054 -1.4600 -1.0227  0.5489
22861TIP3    H269466   5.832   3.965   0.173 -0.4150 -0.6950  0.2045
22862TIP3   OH269467   2.722   8.458  10.005 -0.1532 -0.0784 -0.6565
22862TIP3    H169468   2.687   8.421  10.085  0.8939  0.1406 -0.0779
22862TIP3    H269469   2.815   8.471  10.023 -0.5957  4.0550 -0.2768
22863TIP3   OH269470   4.907   3.861   3.344 -0.3670  0.0771 -0.4581
22863TIP3    H169471   4.935   3.846   3.434 -0.4740  0.1283 -0.4152
22863TIP3    H269472   4.811   3.870   3.350 -0.4184 -0.3441 -0.6329
22864TIP3   OH269473   8.530   3.429   9.564 -0.3884  0.0396 -0.0181
22864TIP3    H169474   8.493   3.454   9.479  1.6348  0.4558 -0.8444
22864TIP3    H269475   8.554   3.512   9.605  0.0066 -0.2311  0.3033
22865TIP3   OH269476   4.459   4.529   6.070 -0.1012  0.3137 -1.0327
22865TIP3    H169477   4.536   4.473   6.075 -1.5091 -1.6474 -0.0895
22865TIP3    H269478   4.394   4.477   6.022 -1.6503  0.8714  0.3501
22866TIP3   OH269479   2.652   3.659   3.423  0.3842 -0.0917 -0.2754
22866TIP3    H169480   2.577   3.686   3.371  0.5738 -0.3715 -0.6979
22866TIP3    H269481   2.641   3.565   3.435  1.6506 -0.5140 -1.9921
22867TIP3   OH269482   8.603   1.817   5.886 -0.1468 -1.1727  0.0781
22867TIP3    H169483   8.685   1.779   5.853 -0.8912 -1.3356 -1.6626
22867TIP3    H269484   8.564   1.748   5.939  1.3915 -0.6727  1.9912
22868TIP3   OH269485  10.548  10.460   3.680 -0.0061 -0.4106  0.1595
22868TIP3    H169486  10.490  10.510   3.622 -2.3050 -1.8017  1.1075
22868TIP3    H269487  10.622  10.519   3.696  0.0305  0.5724 -2.9484
22869TIP3   OH269488   8.158   0.778   2.975 -0.2618  0.1549  0.1039
22869TIP3    H169489   8.240   0.788   2.926 -0.6283 -0.3428 -0.6429
22869TIP3    H269490   8.090   0.809   2.914 -0.7944 -1.1271  0.0150
22870TIP3   OH269491   2.397  10.032   1.650  0.1411  0.5239 -0.2991
22870TIP3    H169492   2.465   9.983   1.695  0.4793  1.3697  0.1400
22870TIP3    H269493   2.431  10.122   1.647 -0.9525  0.9491 -0.0892
22871TIP3   OH269494   3.525   3.199   0.924 -0.1653 -0.0569  0.3176
22871TIP3    H169495   3.536   3.236   1.011  0.0587  2.3363 -0.6443
22871TIP3    H269496   3.472   3.264   0.877  2.6628  0.5349 -2.3589
22872TIP3   OH269497   2.472  10.365   6.624 -0.0387  0.1864  0.4068
22872TIP3    H169498   2.399  10.306   6.643  0.7358 -1.8651 -2.2240
22872TIP3    H269499   2.547  10.326   6.669  0.8122 -2.0062 -2.5496
22873TIP3   OH269500   8.191   9.676   5.326  0.2542 -0.5996 -0.2490
22873TIP3    H169501   8.212   9.613   5.395  2.2688  1.0061  0.7059
22873TIP3    H269502   8.254   9.657   5.256  1.3499  0.7129  0.3309
22874TIP3   OH269503   6.434  10.884   3.457 -0.2148 -0.7720 -0.7301
22874TIP3    H169504   6.516  10.889   3.507 -1.2799  1.5395  0.9665
22874TIP3    H269505   6.375  10.832   3.511 -0.0064 -2.2241 -1.8348
22875TIP3   OH269506   2.993   0.767   8.852  0.1053 -0.5698 -0.1097
22875TIP3    H169507   2.945   0.850   8.841 -0.2599 -0.8600 -0.7637
22875TIP3    H269508   2.925   0.703   8.873  0.5284 -0.4734  1.6958
22876TIP3   OH269509   1.647   3.081   8.744 -0.0861  0.1631 -0.1991
22876TIP3    H169510   1.708   3.046   8.809  0.0710  0.3910 -0.2227
22876TIP3    H269511   1.685   3.056   8.659 -0.1008  0.1781 -0.2102
22877TIP3   OH269512   1.635   9.419   4.298 -0.1405  0.2561  0.4225
22877TIP3    H169513   1.625   9.494   4.240  0.6539  1.3590  1.6313
22877TIP3    H269514   1.552   9.372   4.292  0.3050 -0.2907 -2.3748
22878TIP3   OH269515   2.502  10.150   3.133  0.1004 -0.3889  0.0034
22878TIP3    H169516   2.571  10.150   3.199  0.2490  0.5292 -0.1370
22878TIP3    H269517   2.430  10.199   3.173  0.3332  0.5034 -0.6368
22879TIP3   OH269518   2.455   3.817   0.666  0.3314  0.2457 -0.0354
22879TIP3    H169519   2.372   3.861   0.649 -0.0827 -0.2252  0.7194
22879TIP3    H269520   2.460   3.811   0.761  1.3436  0.4637 -0.0641
22880TIP3   OH269521   1.478   3.645   0.448  0.1119 -0.2599  0.5653
22880TIP3    H169522   1.516   3.611   0.529  2.3882 -0.8609 -0.6758
22880TIP3    H269523   1.552   3.685   0.402 -1.2752  0.7205 -0.9152
22881TIP3   OH269524   5.626   7.221   7.750  0.5097  0.3271  0.1353
22881TIP3    H169525   5.715   7.243   7.777  0.6702  0.5144 -0.5212
22881TIP3    H269526   5.577   7.303   7.760  0.2181  0.0354  1.2296
22882TIP3   OH269527   3.102   1.838   0.725 -0.6229  0.3222  0.2442
22882TIP3    H169528   3.020   1.874   0.758 -1.2307 -0.2189 -0.6327
22882TIP3    H269529   3.169   1.878   0.780 -1.3556  1.8148  0.1028
22883TIP3   OH269530   6.207   3.319   8.018 -0.6964 -0.6008 -0.1820
22883TIP3    H169531   6.291   3.282   7.991  0.9000  1.5543  1.5288
22883TIP3    H269532   6.192   3.391   7.956 -0.0666  0.4671  0.8514
22884TIP3   OH269533   3.868   4.914   1.510 -0.1386 -0.0746 -0.0299
22884TIP3    H169534   3.934   4.858   1.468  0.3935  0.7396 -0.3101
22884TIP3    H269535   3.895   4.918   1.601  0.5339  0.7053 -0.2538
22885TIP3   OH269536   5.007   2.615   3.661 -0.4677  0.0376 -0.0719
22885TIP3    H169537   5.076   2.679   3.673 -0.9935  0.5222  0.3818
22885TIP3    H269538   5.047   2.546   3.607  0.7438 -0.3065  1.2116
22886TIP3   OH269539   7.512   5.755   7.318 -0.5195 -0.1229 -0.2746
22886TIP3    H169540   7.444   5.807   7.275 -3.3988 -2.4441  1.0595
22886TIP3    H269541   7.499   5.772   7.411  1.4718  0.1093  0.0034
22887TIP3   OH269542   7.814   5.969   5.396  0.0092 -0.1808  0.0536
22887TIP3    H169543   7.725   5.958   5.431 -0.0918 -1.5612 -0.5881
22887TIP3    H269544   7.866   5.994   5.471 -0.4168 -2.0131  1.0151
22888TIP3   OH269545   5.649   6.811   0.612 -0.3649  0.2517 -0.5210
22888TIP3    H169546   5.554   6.817   0.595 -0.8101 -2.2742  0.6836
22888TIP3    H269547   5.688   6.797   0.526 -1.4159 -1.5606 -0.7380
22889TIP3   OH269548   9.769   5.368   8.863 -0.4506 -0.0479  0.5743
22889TIP3    H169549   9.817   5.365   8.780  1.3983  0.4108  1.5686
22889TIP3    H269550   9.773   5.460   8.889  1.9479 -0.6363  2.7233
22890TIP3   OH269551   0.227   5.115   8.299 -0.1566 -0.2076 -0.3040
22890TIP3    H169552   0.295   5.179   8.281 -0.8241  0.4129 -0.6763
22890TIP3    H269553   0.149   5.168   8.318 -0.7281 -0.9035 -0.6729
22891TIP3   OH269554   7.317   0.653   5.599 -0.2455 -0.3888  0.4831
22891TIP3    H169555   7.353   0.665   5.687  1.0612  0.4645 -0.1409
22891TIP3    H269556   7.382   0.600   5.553  0.4262  1.4309 -0.7519
22892TIP3   OH269557   1.901   9.198   6.867 -0.3299 -0.2489 -0.0775
22892TIP3    H169558   1.905   9.178   6.960 -1.1637 -2.3959 -0.4391
22892TIP3    H269559   1.814   9.235   6.853  0.5300  2.0680  0.2749
22893TIP3   OH269560   2.657   2.561   8.002  0.2460  0.0887 -0.3251
22893TIP3    H169561   2.641   2.581   7.909 -1.2371 -0.0249 -0.1304
22893TIP3    H269562   2.709   2.634   8.034 -0.4889  0.8930 -0.9089
22894TIP3   OH269563   2.242   2.866   9.435 -0.6631  0.2434 -0.1905
22894TIP3    H169564   2.170   2.809   9.408 -0.2901 -0.3637  0.0748
22894TIP3    H269565   2.296   2.810   9.491  0.1932  0.5914 -0.6623
22895TIP3   OH269566   3.457   4.141   2.157  0.0437 -0.0522 -0.4927
22895TIP3    H169567   3.388   4.189   2.202 -1.2641  0.2148 -2.6397
22895TIP3    H269568   3.530   4.203   2.152 -0.3477  0.4464 -0.1246
22896TIP3   OH269569   2.239   3.714   0.851 -0.3323  0.1742 -0.4646
22896TIP3    H169570   2.228   3.809   0.853 -0.4036  0.1685 -0.6160
22896TIP3    H269571   2.265   3.691   0.941 -0.1802  0.3529 -0.4633
22897TIP3   OH269572   2.716   3.521   8.056 -1.0080 -0.1397 -0.4716
22897TIP3    H169573   2.625   3.492   8.065 -0.5600 -1.0688  1.9370
22897TIP3    H269574   2.725   3.590   8.122 -0.0588  0.2021 -0.9499
22898TIP3   OH269575   2.611  10.530   5.573 -0.2666 -0.1272  0.6605
22898TIP3    H169576   2.672  10.573   5.514 -2.4349  1.5312 -0.5168
22898TIP3    H269577   2.652  10.538   5.660  1.9059 -0.5669 -0.2650
22899TIP3   OH269578   8.332  10.895   5.559 -0.2281 -0.1793 -0.1351
22899TIP3    H169579   8.316  10.827   5.494 -1.1963  1.5852 -1.8324
22899TIP3    H269580   8.275  10.871   5.633 -0.6594 -1.1301 -0.7546
22900TIP3   OH269581   3.933   9.369   1.962  0.0032 -0.7392  0.1159
22900TIP3    H169582   3.940   9.447   2.017 -1.9733  0.3238 -1.0220
22900TIP3    H269583   3.862   9.318   2.002  0.2206 -1.1810 -0.0580
22901TIP3   OH269584   5.297   6.891   3.884  0.2083 -0.5078 -0.4082
22901TIP3    H169585   5.285   6.800   3.855  0.5150 -0.8221  0.4219
22901TIP3    H269586   5.307   6.884   3.979 -2.3695  0.6365  0.0323
22902TIP3   OH269587   3.096   4.006  10.324 -0.6151 -0.4290 -0.1887
22902TIP3    H169588   3.073   3.926  10.373  0.3943 -1.2038 -0.9426
22902TIP3    H269589   3.191   4.002  10.316 -0.5240  1.0085 -0.0092
22903TIP3   OH269590   1.899   8.541   8.320  0.1010  0.0176 -0.1515
22903TIP3    H169591   1.880   8.453   8.289  0.8983 -0.7034  1.3147
22903TIP3    H269592   1.863   8.599   8.252 -1.6062 -1.3888 -0.4948
22904TIP3   OH269593  10.511   3.752  10.797 -0.1015  0.2983  0.2351
22904TIP3    H169594  10.586   3.745  10.856  0.5665 -1.4985 -0.7858
22904TIP3    H269595  10.520   3.839  10.758  1.2534  0.2503  0.3837
22905TIP3   OH269596   8.900   5.981   7.467  0.5292 -0.0308  0.0094
22905TIP3    H169597   8.839   5.986   7.541  1.7789  0.3930  1.0479
22905TIP3    H269598   8.848   5.943   7.396 -0.4117 -1.5415  1.4270
22906TIP3   OH269599   1.670   2.664   0.048  0.2013  0.3533 -0.1071
22906TIP3    H169600   1.761   2.669   0.021 -0.2276  0.8275 -1.5696
22906TIP3    H269601   1.672   2.673   0.143  1.7808 -1.2475  0.0443
22907TIP3   OH269602   2.720   4.904   9.537  0.2001 -0.2532 -0.2473
22907TIP3    H169603   2.808   4.941   9.540  0.5687 -1.0457 -0.8167
22907TIP3    H269604   2.662   4.976   9.562  0.9730  0.4031 -0.3256
22908TIP3   OH269605   3.477   4.548   3.148 -0.2700  0.5396  0.2170
22908TIP3    H169606   3.458   4.466   3.102 -2.6886  1.2347 -0.1505
22908TIP3    H269607   3.392   4.591   3.158  1.0528  3.8303 -1.0889
22909TIP3   OH269608   3.870   1.499   9.978  0.1841  0.2643  0.2920
22909TIP3    H169609   3.797   1.456  10.024  0.3924 -1.5117 -0.9302
22909TIP3    H269610   3.841   1.589   9.967 -1.9996 -0.4504 -0.4450
22910TIP3   OH269611   3.637   7.379   8.779  0.1317  0.3615  0.1441
22910TIP3    H169612   3.543   7.374   8.760  0.4770  0.6295 -1.9246
22910TIP3    H269613   3.657   7.473   8.773  0.5234  0.3092  0.6301
22911TIP3   OH269614   7.268   3.899   5.151 -0.6056  0.0054 -0.6258
22911TIP3    H169615   7.211   3.822   5.152  1.2833 -1.4914  1.5903
22911TIP3    H269616   7.280   3.921   5.243 -0.8614  2.8542 -1.1885
22912TIP3   OH269617   5.069   4.523   3.585 -0.3159  0.4600 -0.1823
22912TIP3    H169618   4.985   4.502   3.544 -0.8554  1.8781  0.1439
22912TIP3    H269619   5.046   4.581   3.658  0.9290  0.6820  0.0498
22913TIP3   OH269620   1.231   8.425   7.349 -0.0296 -0.5114  0.0805
22913TIP3    H169621   1.153   8.480   7.360  0.5550  0.1110  1.2031
22913TIP3    H269622   1.277   8.463   7.274  0.2904  0.4524  0.7514
22914TIP3   OH269623   2.422  10.727   2.456  0.5200  0.0829 -0.7388
22914TIP3    H169624   2.476  10.657   2.418  0.4138 -0.8595  0.7813
22914TIP3    H269625   2.408  10.700   2.546 -2.5182  0.2786 -1.0484
22915TIP3   OH269626   7.801   5.372   1.313  0.5081 -0.3369 -0.1894
22915TIP3    H169627   7.809   5.452   1.365  1.8333 -0.2802 -0.4608
22915TIP3    H269628   7.824   5.399   1.224 -0.6658 -0.6746 -0.6215
22916TIP3   OH269629  10.039   4.046   6.469  0.1624 -0.4700 -0.0464
22916TIP3    H169630  10.016   4.125   6.421  1.4172 -0.4868 -0.7274
22916TIP3    H269631  10.112   4.073   6.525  0.3612 -1.0525 -0.0188
22917TIP3   OH269632   4.675   8.364   8.502 -0.3102  0.1861  0.4404
22917TIP3    H169633   4.761   8.335   8.471 -1.1414 -1.3814 -0.5903
22917TIP3    H269634   4.619   8.357   8.424 -1.2888  1.5559  0.9915
22918TIP3   OH269635  10.038   1.585   9.579 -0.2856 -0.7491 -0.3812
22918TIP3    H169636   9.976   1.644   9.534  0.4693 -0.1471 -0.6506
22918TIP3    H269637  10.012   1.590   9.671 -1.2506 -1.2604 -0.6117
22919TIP3   OH269638   6.464   9.162   5.381 -0.6074 -0.2626  0.2339
22919TIP3    H169639   6.494   9.187   5.293  1.1317 -1.3269  0.4583
22919TIP3    H269640   6.481   9.238   5.435  1.3021 -0.6266  0.2234
22920TIP3   OH269641   1.358   1.726   0.183 -0.2584  0.0904 -0.1778
22920TIP3    H169642   1.361   1.688   0.095  1.4769 -2.8072  0.9881
22920TIP3    H269643   1.308   1.662   0.234 -1.0127  1.6004  1.0647
22921TIP3   OH269644   6.891   6.482   0.157 -0.4802  0.1067 -0.3963
22921TIP3    H169645   6.845   6.535   0.092 -0.6760 -0.2594 -0.5624
22921TIP3    H269646   6.868   6.392   0.134  1.1113 -0.1515 -1.0949
22922TIP3   OH269647  10.394   2.182   8.157  0.0215 -0.1834  0.3211
22922TIP3    H169648  10.303   2.167   8.184 -1.3182  2.0245 -2.5066
22922TIP3    H269649  10.391   2.181   8.061  2.9090  0.4508  0.1419
22923TIP3   OH269650   1.528  10.750   6.458  0.0831  0.1275 -0.1127
22923TIP3    H169651   1.496  10.699   6.384 -0.6392  1.5438 -0.8172
22923TIP3    H269652   1.614  10.782   6.430  0.7114 -0.9480  0.4792
22924TIP3   OH269653   7.723   1.266   6.041 -0.3313  0.0903  0.4040
22924TIP3    H169654   7.758   1.320   5.970  0.7089 -0.7326  0.2834
22924TIP3    H269655   7.776   1.289   6.117 -0.2406 -0.3670  0.4804
22925TIP3   OH269656   0.190   4.311   6.659  0.6146  0.1105  0.0028
22925TIP3    H169657   0.138   4.381   6.698  0.6708 -0.2996  0.8320
22925TIP3    H269658   0.137   4.280   6.586  0.8225  1.3585 -0.7163
22926TIP3   OH269659   6.979   3.855   8.863 -0.2203  0.1615 -0.4810
22926TIP3    H169660   6.917   3.792   8.826 -1.7991  0.8127  0.9214
22926TIP3    H269661   7.004   3.817   8.947 -0.1983  0.8040 -0.1969
22927TIP3   OH269662   2.719   7.655   0.047  0.1665 -0.3209  0.5882
22927TIP3    H169663   2.742   7.591   0.114  0.9800  0.6294  1.2533
22927TIP3    H269664   2.803   7.681   0.008 -0.0739  0.7600  0.7463
22928TIP3   OH269665   6.247   3.154   0.162  0.3088 -0.4330 -0.0468
22928TIP3    H169666   6.252   3.116   0.074  1.9852  0.9343 -0.5925
22928TIP3    H269667   6.326   3.121   0.206  0.8530  0.9348  0.0491
22929TIP3   OH269668   5.898   6.427  10.528  0.7450 -0.3702  0.4392
22929TIP3    H169669   5.896   6.363  10.457  1.2527  0.1955 -0.0979
22929TIP3    H269670   5.940   6.504  10.489  0.1465  0.2891  1.0734
22930TIP3   OH269671   9.021   8.824   4.727  0.6393  0.2466 -0.5850
22930TIP3    H169672   9.034   8.771   4.648  1.5551  1.9332 -1.6301
22930TIP3    H269673   9.104   8.869   4.740 -0.3666  2.1227 -0.3025
22931TIP3   OH269674   5.000   9.563   4.347  0.2475 -0.2466  0.0497
22931TIP3    H169675   5.012   9.485   4.401  1.0080 -0.6386 -0.6708
22931TIP3    H269676   5.042   9.633   4.396 -0.5398 -0.2518  0.7547
22932TIP3   OH269677   7.609   9.784   7.403 -0.2131 -0.1556  0.0209
22932TIP3    H169678   7.536   9.794   7.463 -1.1485 -0.9321 -0.9386
22932TIP3    H269679   7.675   9.733   7.452 -0.9758 -0.8236  0.3758
22933TIP3   OH269680   1.442   4.115   4.312 -0.2706  0.1930  1.1213
22933TIP3    H169681   1.393   4.180   4.362  0.5052  2.0325 -0.3744
22933TIP3    H269682   1.444   4.150   4.223 -2.5899 -3.4666 -0.6303
22934TIP3   OH269683   8.984   7.343   4.219  0.1710 -0.2447  0.0965
22934TIP3    H169684   8.950   7.258   4.247 -1.3748  0.4039  0.2970
22934TIP3    H269685   8.995   7.335   4.124  2.4978 -1.4528  0.3809
22935TIP3   OH269686   8.648   2.756   5.269 -0.3260  0.6664 -0.1840
22935TIP3    H169687   8.584   2.789   5.333 -0.9286 -1.4543  0.4084
22935TIP3    H269688   8.629   2.662   5.263  2.2154  0.1047 -0.6266
22936TIP3   OH269689   3.286   5.715   6.174  0.0812 -0.0809 -0.2536
22936TIP3    H169690   3.325   5.661   6.242  2.2852  0.5722 -0.9276
22936TIP3    H269691   3.279   5.802   6.214 -2.1458 -0.4557  0.3444
22937TIP3   OH269692   1.043   9.256   2.442 -0.3339 -0.0938 -0.6701
22937TIP3    H169693   1.107   9.193   2.411  0.2588  0.0234  0.2542
22937TIP3    H269694   0.978   9.204   2.490 -1.1011 -0.2446 -1.8434
22938TIP3   OH269695   3.657   3.767   7.904  0.1100  0.1960 -0.5719
22938TIP3    H169696   3.608   3.795   7.981 -1.2153 -0.6346 -1.0800
22938TIP3    H269697   3.671   3.847   7.853  1.0749  0.7643  0.5408
22939TIP3   OH269698   7.909   6.575   3.214 -0.2054  0.1194 -0.3961
22939TIP3    H169699   7.952   6.554   3.298  0.3176  1.4458 -0.3075
22939TIP3    H269700   7.816   6.579   3.235 -0.0929  0.2554  0.0895
22940TIP3   OH269701   0.693   7.134   6.113  0.2049  0.1355 -0.2774
22940TIP3    H169702   0.782   7.142   6.147 -0.1812 -0.0822  0.8219
22940TIP3    H269703   0.693   7.051   6.066  0.9093  0.7259 -1.3765
22941TIP3   OH269704   9.354   5.582   0.999  0.0343 -0.0014 -0.5039
22941TIP3    H169705   9.272   5.540   1.022 -0.0642  0.3086 -0.2701
22941TIP3    H269706   9.404   5.515   0.953 -0.6471  0.0403 -1.3250
22942TIP3   OH269707   9.380  10.759   9.704  0.4203 -0.6104  0.3182
22942TIP3    H169708   9.351  10.778   9.615  1.3337 -1.4796 -0.1805
22942TIP3    H269709   9.473  10.781   9.704 -0.1027  2.0366  1.8527
22943TIP3   OH269710   0.580   7.075   0.366 -0.3293  0.2780 -0.3176
22943TIP3    H169711   0.647   7.047   0.428 -0.5405 -0.0581 -0.2383
22943TIP3    H269712   0.618   7.057   0.280 -1.6863 -3.4181 -0.3298
22944TIP3   OH269713   3.561   6.199   0.533 -0.0354 -0.0088  0.3874
22944TIP3    H169714   3.591   6.117   0.494 -0.6237  0.1270 -0.3860
22944TIP3    H269715   3.616   6.210   0.611  2.2267  0.4704 -1.1796
22945TIP3   OH269716  10.688   5.287   8.408 -0.2265 -0.0194 -0.1307
22945TIP3    H169717  10.769   5.337   8.423  0.0709 -0.4972 -0.1166
22945TIP3    H269718  10.697   5.211   8.465 -1.2208  0.4964  0.7597
22946TIP3   OH269719   2.425   7.162   2.487 -0.0654  0.1475 -0.0456
22946TIP3    H169720   2.518   7.144   2.473  0.0280 -0.8165  1.6055
22946TIP3    H269721   2.380   7.089   2.443  0.0151  0.0461  0.0380
22947TIP3   OH269722   8.122   7.918   5.718  0.2062  0.6590  0.0976
22947TIP3    H169723   8.177   7.970   5.659  0.4033 -0.9496 -1.2172
22947TIP3    H269724   8.164   7.832   5.720 -1.6692 -0.3162 -0.1174
22948TIP3   OH269725  10.446  10.329   6.893  0.4600  0.1945 -0.0165
22948TIP3    H169726  10.433  10.322   6.799  0.6435  0.6666 -0.0834
22948TIP3    H269727  10.537  10.300   6.907 -0.0096 -1.2206  0.1989
22949TIP3   OH269728   0.376   3.463   1.363  0.3490 -0.0517  0.3557
22949TIP3    H169729   0.308   3.396   1.363  0.9944 -0.7329  1.2190
22949TIP3    H269730   0.329   3.546   1.372 -0.3198 -0.5624  1.8157
22950TIP3   OH269731   1.058   6.941   8.851  0.7404 -0.1942  0.1761
22950TIP3    H169732   1.056   7.015   8.791  0.8317  0.3015  0.7701
22950TIP3    H269733   1.071   6.865   8.795 -0.8750  0.0628 -0.6116
22951TIP3   OH269734   6.923   4.781   9.375 -0.5532  0.2120  0.2868
22951TIP3    H169735   6.900   4.721   9.446  0.0065 -0.5084 -0.1255
22951TIP3    H269736   6.863   4.854   9.385 -0.7212 -0.0529  1.2787
22952TIP3   OH269737   7.961   2.424   5.744  0.4342  0.5234 -0.0224
22952TIP3    H169738   8.049   2.389   5.733  0.3576  0.0090  0.8828
22952TIP3    H269739   7.908   2.378   5.679  0.6662  0.1743  0.0360
22953TIP3   OH269740   2.329   5.252  10.151 -0.3906 -0.0363 -0.1218
22953TIP3    H169741   2.384   5.273  10.075  2.5149 -0.0605  1.8036
22953TIP3    H269742   2.293   5.336  10.178  1.9279  0.7216  0.8319
22954TIP3   OH269743   7.308   4.286   1.443  0.2159 -0.5492  0.5614
22954TIP3    H169744   7.253   4.213   1.468 -2.5121  0.7192 -1.2628
22954TIP3    H269745   7.263   4.364   1.476  0.6267  0.5633 -1.3098
22955TIP3   OH269746   4.920   0.752  10.001 -0.1921  0.1345  0.2333
22955TIP3    H169747   4.868   0.746  10.082 -0.5882  0.0690 -0.0249
22955TIP3    H269748   4.859   0.787   9.936 -0.0791 -0.4881 -0.2153
22956TIP3   OH269749   9.473   9.775   7.089 -0.1477  0.3484 -0.6035
22956TIP3    H169750   9.414   9.761   7.163  1.6047 -1.2924  0.5758
22956TIP3    H269751   9.534   9.842   7.119  0.5261 -0.2719 -0.5385
22957TIP3   OH269752   9.441   4.338   4.226  0.1872  0.9646  0.7220
22957TIP3    H169753   9.393   4.395   4.166  3.0812  0.3437 -2.4692
22957TIP3    H269754   9.382   4.264   4.240 -0.4038  0.8239 -1.9880
22958TIP3   OH269755  10.385   9.482   2.905  0.1909  0.3918  0.3532
22958TIP3    H169756  10.307   9.516   2.861  1.6358  0.7354 -2.1076
22958TIP3    H269757  10.364   9.390   2.923 -0.4241  0.1746 -1.2690
22959TIP3   OH269758   7.762   9.850   9.489 -0.3139  0.2670  0.3899
22959TIP3    H169759   7.767   9.768   9.540  0.1193  0.0525  0.0020
22959TIP3    H269760   7.827   9.907   9.529  0.8799 -0.3159 -0.6526
22960TIP3   OH269761   2.860   5.271  10.776  0.6091  0.0957  0.0019
22960TIP3    H169762   2.777   5.233  10.748 -0.6126  3.7171 -1.9320
22960TIP3    H269763   2.919   5.259  10.702  1.1391 -0.4209  0.4866
22961TIP3   OH269764   1.953   9.915   1.627  0.4147  0.2272  0.1297
22961TIP3    H169765   2.017   9.916   1.698 -1.1397 -0.0678  1.6099
22961TIP3    H269766   1.946   9.823   1.602  0.6305  0.2703 -0.0854
22962TIP3   OH269767   2.859   0.353   1.413 -0.0119 -0.0464  0.4893
22962TIP3    H169768   2.933   0.364   1.354 -0.6390 -0.5648 -0.4029
22962TIP3    H269769   2.825   0.266   1.394 -0.6645  0.0608  1.1121
22963TIP3   OH269770   0.593  10.488  10.903 -0.1661  0.0722 -0.0981
22963TIP3    H169771   0.620  10.529  10.821  1.6950 -0.2249  0.3341
22963TIP3    H269772   0.539  10.555  10.946  0.3437  0.9192 -0.7492
22964TIP3   OH269773   6.466   4.082   3.074 -0.7403  0.1741 -0.0881
22964TIP3    H169774   6.525   4.062   3.002 -0.8602 -1.5027  0.2410
22964TIP3    H269775   6.486   4.016   3.141 -1.5397  0.8752  0.8737
22965TIP3   OH269776   0.709   0.438   2.061 -0.0875  0.1125 -0.1854
22965TIP3    H169777   0.779   0.380   2.092 -0.3170  0.6328  1.4087
22965TIP3    H269778   0.754   0.502   2.005  0.2132 -1.3693 -1.6906
22966TIP3   OH269779   6.428   1.861   9.888 -0.3879  0.2533 -0.0729
22966TIP3    H169780   6.415   1.784   9.945 -1.2709 -0.6690 -1.4500
22966TIP3    H269781   6.428   1.935   9.948  1.2822 -0.8593  1.3888
22967TIP3   OH269782   0.353   2.090   8.902 -0.2999 -0.5367 -0.4037
22967TIP3    H169783   0.354   2.185   8.894 -1.1542 -0.5866 -1.4445
22967TIP3    H269784   0.400   2.071   8.983 -0.5943  0.8035  0.0995
22968TIP3   OH269785   4.679   9.418   0.988 -0.2510  0.1491  0.4171
22968TIP3    H169786   4.636   9.388   1.067 -1.2779  3.3238  1.1803
22968TIP3    H269787   4.613   9.470   0.942  1.6777  2.3461 -0.0694
22969TIP3   OH269788   2.758  10.842   8.556 -0.4845  0.0339  0.2491
22969TIP3    H169789   2.830  10.825   8.495 -0.7721 -1.4987  0.3017
22969TIP3    H269790   2.682  10.853   8.500 -0.5475 -0.2287  0.2847
22970TIP3   OH269791   6.433   9.289   2.823  0.7915 -0.0630 -0.3984
22970TIP3    H169792   6.346   9.283   2.783  0.0904 -0.7873  1.1102
22970TIP3    H269793   6.427   9.364   2.882  0.7401 -0.8385  0.6281
22971TIP3   OH269794   2.444   2.064   1.400  0.1694  0.0200  0.3797
22971TIP3    H169795   2.436   2.040   1.307  0.8215 -2.0237  0.8049
22971TIP3    H269796   2.491   2.147   1.399  2.4130 -1.1503 -1.1065
22972TIP3   OH269797   7.354   1.722  10.564  0.4274  0.4394 -0.0175
22972TIP3    H169798   7.262   1.746  10.571  0.9121  2.2156  0.8507
22972TIP3    H269799   7.398   1.803  10.537  1.5047 -0.8683 -2.6164
22973TIP3   OH269800   3.707   4.769   7.517 -0.8031  0.2119  0.3080
22973TIP3    H169801   3.674   4.733   7.600 -1.6356 -1.6243 -0.7510
22973TIP3    H269802   3.798   4.792   7.535 -0.9591 -0.1595  1.7249
22974TIP3   OH269803   6.727   9.177   9.959  0.2046  0.8435  0.1558
22974TIP3    H169804   6.750   9.235  10.032  0.7248  1.7372 -0.6888
22974TIP3    H269805   6.652   9.220   9.918 -0.2606  0.2004  0.3229
22975TIP3   OH269806  10.198   9.993   6.216 -0.4476 -0.9523 -0.0152
22975TIP3    H169807  10.226   9.902   6.211 -0.5064 -0.9644 -0.1228
22975TIP3    H269808  10.243  10.028   6.293  1.2489 -0.4811 -1.1782
22976TIP3   OH269809   2.959   0.588   2.318  0.2169  0.1758 -0.1289
22976TIP3    H169810   3.047   0.615   2.345  0.3743 -0.6635  0.2495
22976TIP3    H269811   2.956   0.494   2.337 -0.2467 -0.1181 -1.5132
22977TIP3   OH269812   4.634   7.158   5.335  0.5164  0.7486  0.6482
22977TIP3    H169813   4.693   7.225   5.370  0.7435  2.2110 -2.2724
22977TIP3    H269814   4.553   7.169   5.385  0.6518  3.0510  0.4515
22978TIP3   OH269815   1.817   1.226   2.370  0.3738 -0.2707 -0.2761
22978TIP3    H169816   1.857   1.148   2.333  1.4827 -0.2434  0.8263
22978TIP3    H269817   1.862   1.299   2.327 -1.7456 -0.1447 -2.5066
22979TIP3   OH269818   0.317   3.097   5.701  0.2106 -0.5432 -0.8460
22979TIP3    H169819   0.396   3.061   5.741  1.3473 -0.4882 -2.8762
22979TIP3    H269820   0.330   3.084   5.607 -1.5281  0.8267 -1.3372
22980TIP3   OH269821   3.580  10.089   4.629 -0.2042  0.0370 -0.0539
22980TIP3    H169822   3.534  10.093   4.544  0.7397 -1.1436 -0.6498
22980TIP3    H269823   3.635  10.012   4.622 -1.0288 -0.8067  2.1444
22981TIP3   OH269824   9.856   5.579   2.901  0.2735  0.0676  0.1772
22981TIP3    H169825   9.779   5.615   2.944 -0.6367 -1.1352 -0.3852
22981TIP3    H269826   9.894   5.520   2.966  1.2315  1.2832  0.7596
22982TIP3   OH269827   4.453   0.909   4.958 -0.0764  0.3369 -0.5419
22982TIP3    H169828   4.401   0.990   4.966  1.1205  1.1013 -0.2429
22982TIP3    H269829   4.388   0.839   4.954 -1.1429  1.3121 -0.7554
22983TIP3   OH269830   4.370   1.669   6.528  0.5979 -0.0206 -0.2613
22983TIP3    H169831   4.284   1.671   6.571  1.0730  2.2952  0.7481
22983TIP3    H269832   4.350   1.646   6.437 -1.0491  0.0506  0.0454
22984TIP3   OH269833   7.353   8.399   8.038  0.0971  0.1902  0.3226
22984TIP3    H169834   7.323   8.439   7.957 -1.0169  1.5709  1.3648
22984TIP3    H269835   7.347   8.469   8.103  0.7545 -0.9345  1.6471
22985TIP3   OH269836   3.627   1.565  10.092  0.4873 -0.1748  0.4831
22985TIP3    H169837   3.557   1.568  10.027  0.5506 -0.0351  0.4205
22985TIP3    H269838   3.593   1.616  10.166  1.2835  1.5601 -0.3000
22986TIP3   OH269839   2.895   7.244   0.842  0.6475  0.1346 -0.4741
22986TIP3    H169840   2.907   7.306   0.914 -0.8315  0.3322 -0.3471
22986TIP3    H269841   2.890   7.159   0.884 -0.9922  0.3210 -0.2029
22987TIP3   OH269842   2.211   7.011   0.774  0.0532  0.4019  0.2882
22987TIP3    H169843   2.186   6.971   0.857  0.2990  2.4492  1.4435
22987TIP3    H269844   2.298   7.047   0.791 -0.3292  1.7761 -0.4792
22988TIP3   OH269845   3.437   9.282   9.262  0.5809 -0.4764  0.6500
22988TIP3    H169846   3.490   9.254   9.187  0.8733  2.0160 -0.1529
22988TIP3    H269847   3.431   9.377   9.253  0.1769 -0.1615  3.5327
22989TIP3   OH269848   4.310   8.170   8.858  0.9668 -0.1213  0.5497
22989TIP3    H169849   4.371   8.158   8.931  0.6615  0.0130  0.8294
22989TIP3    H269850   4.233   8.210   8.897  0.2773 -1.2535  0.3783
22990TIP3   OH269851   0.856   6.925   0.282 -0.0013  0.2271  0.3167
22990TIP3    H169852   0.868   7.015   0.252 -0.7033  0.4777  0.7685
22990TIP3    H269853   0.817   6.879   0.207 -0.7370  0.5883  0.4688
22991TIP3   OH269854   4.371   4.996   4.527 -0.3343 -0.2970  0.3265
22991TIP3    H169855   4.430   5.021   4.456 -1.7815  1.1628 -0.4398
22991TIP3    H269856   4.391   5.059   4.597  1.0681 -1.7130  1.2721
22992TIP3   OH269857   6.017   7.144   5.799 -0.2746  0.5170 -0.2284
22992TIP3    H169858   6.070   7.066   5.781  1.3729  1.8591 -1.4513
22992TIP3    H269859   5.947   7.141   5.733 -0.4702 -0.1356  0.0019
22993TIP3   OH269860   2.795   1.387   7.655  0.5432  0.3708 -0.2170
22993TIP3    H169861   2.737   1.428   7.590  0.7863 -0.6098 -1.0735
22993TIP3    H269862   2.756   1.409   7.739  0.3267  1.8359 -0.6724
22994TIP3   OH269863   0.503   4.308  10.672  0.2188 -0.0914 -0.0709
22994TIP3    H169864   0.486   4.401  10.655 -1.2053 -0.2503  0.3812
22994TIP3    H269865   0.427   4.263  10.637 -0.4822 -0.8374  2.2633
22995TIP3   OH269866   3.271   6.581   4.498  0.2388 -0.2347 -0.0855
22995TIP3    H169867   3.351   6.551   4.540  1.2078  2.0414 -0.1474
22995TIP3    H269868   3.202   6.528   4.538  1.6356 -1.4430  0.8375
22996TIP3   OH269869   8.791   3.135   4.577  0.0799  0.7574 -0.2512
22996TIP3    H169870   8.794   3.194   4.652 -0.6955  0.8661 -0.3016
22996TIP3    H269871   8.880   3.137   4.542  0.7598 -0.1729  1.3259
22997TIP3   OH269872   4.284  10.432   3.751 -1.1114 -0.0466 -0.4247
22997TIP3    H169873   4.269  10.525   3.768  0.0630  0.2094 -0.6966
22997TIP3    H269874   4.257  10.388   3.832  0.9854  0.8103  0.8039
22998TIP3   OH269875   6.333   4.379   2.447  0.0970  0.6640  0.1544
22998TIP3    H169876   6.300   4.295   2.415 -1.1795  1.8471 -1.8721
22998TIP3    H269877   6.278   4.401   2.522 -0.0495  0.0591  0.2245
22999TIP3   OH269878   9.107   5.239   8.988 -0.3902 -0.0461  0.1490
22999TIP3    H169879   9.044   5.239   9.061 -2.0513 -0.9021 -1.2275
22999TIP3    H269880   9.192   5.232   9.031 -1.2721  0.1313  2.0485
23000TIP3   OH269881   3.516   3.308   5.678  0.9591  0.4992 -0.0496
23000TIP3    H169882   3.497   3.395   5.713  3.7139  1.1129  0.1336
23000TIP3    H269883   3.534   3.324   5.585 -0.3660 -0.1955 -0.4436
23001TIP3   OH269884   3.434   2.621   3.168 -0.0123  0.0574  0.0998
23001TIP3    H169885   3.454   2.643   3.259 -2.0738 -0.8771  0.8489
23001TIP3    H269886   3.419   2.706   3.125  0.4375  0.4805  0.7672
23002TIP3   OH269887   5.290   1.340  10.365  0.1375  0.1310 -0.0429
23002TIP3    H169888   5.303   1.259  10.413  0.2966  0.0823 -0.1678
23002TIP3    H269889   5.310   1.317  10.274  1.2273  0.5748  0.0766
23003TIP3   OH269890   1.673   2.775   6.546  0.0915 -0.6314  0.4838
23003TIP3    H169891   1.745   2.826   6.584 -2.7332  3.6938  0.7591
23003TIP3    H269892   1.684   2.783   6.452  0.9781 -1.6820  0.4846
23004TIP3   OH269893   3.135   1.533  10.834  0.9215 -0.6071  0.1718
23004TIP3    H169894   3.159   1.539  10.741  0.2835 -2.0015 -0.1122
23004TIP3    H269895   3.217   1.544  10.881  0.9917  2.1562 -0.4470
23005TIP3   OH269896   9.668   1.245   3.987 -0.8588  0.6110  0.3136
23005TIP3    H169897   9.647   1.338   3.979  0.6210  0.8432 -1.6130
23005TIP3    H269898   9.691   1.233   4.079 -2.3163  1.8313  0.8853
23006TIP3   OH269899   2.671   3.529   3.990 -0.1009 -0.0803  0.5221
23006TIP3    H169900   2.672   3.519   3.895 -0.6323 -2.3157  0.6977
23006TIP3    H269901   2.668   3.440   4.023  0.1917  0.6565  2.6585
23007TIP3   OH269902   2.860   1.511   6.744 -0.2748 -0.2679  0.2519
23007TIP3    H169903   2.785   1.456   6.722 -0.4921 -0.7745  2.1220
23007TIP3    H269904   2.824   1.580   6.799  0.6606 -0.7283  1.4849
23008TIP3   OH269905   3.139   5.599   7.380 -0.3701 -0.5988  0.5980
23008TIP3    H169906   3.211   5.609   7.443 -0.7788  0.4174  0.9258
23008TIP3    H269907   3.168   5.646   7.303 -0.6530 -0.2528  0.7032
23009TIP3   OH269908   6.508  10.171   4.821  0.4646  0.4923  0.1658
23009TIP3    H169909   6.563  10.208   4.891  0.4214  2.2884 -0.7014
23009TIP3    H269910   6.570  10.149   4.752  0.2408  1.1687 -0.2503
23010TIP3   OH269911   9.595   3.856   0.554 -0.4010  0.0676 -0.0262
23010TIP3    H169912   9.645   3.820   0.627 -1.0113 -0.2432  0.2472
23010TIP3    H269913   9.548   3.930   0.593 -0.8611 -0.2059 -0.0583
23011TIP3   OH269914   9.883   6.218   8.077 -0.0091  0.1532  0.2127
23011TIP3    H169915   9.814   6.157   8.052  0.1141 -0.0410  0.3472
23011TIP3    H269916   9.838   6.301   8.090 -0.0119  0.3976 -1.1786
23012TIP3   OH269917   8.321   7.188   5.366 -0.3294 -0.6259 -0.0674
23012TIP3    H169918   8.269   7.213   5.443  1.8368  1.2044  0.9247
23012TIP3    H269919   8.370   7.267   5.345 -0.1779 -1.3748 -2.8348
23013TIP3   OH269920   3.397   2.808   1.846 -0.0604 -0.1010 -0.3860
23013TIP3    H169921   3.456   2.733   1.833 -1.0187 -1.3375  1.8166
23013TIP3    H269922   3.312   2.776   1.815 -0.0155  0.9973 -1.7447
23014TIP3   OH269923   3.836   5.351   8.664  0.0441  0.2704  0.1141
23014TIP3    H169924   3.845   5.257   8.681  0.0457  0.0638 -0.9533
23014TIP3    H269925   3.811   5.389   8.748 -5.4191 -1.3911 -0.3923
23015TIP3   OH269926   2.875   1.709  10.767  0.5678  0.0909 -0.0806
23015TIP3    H169927   2.918   1.626  10.788 -0.3031 -0.2554  0.3764
23015TIP3    H269928   2.782   1.691  10.773  0.3036  0.6323 -1.8220
23016TIP3   OH269929   4.858   6.539  10.760  0.4849  0.0969  0.4438
23016TIP3    H169930   4.848   6.598  10.835 -0.4561  0.4275  0.0864
23016TIP3    H269931   4.801   6.577  10.693  1.7984  0.1603 -0.6621
23017TIP3   OH269932   9.317   6.907   7.457  0.4091 -0.3717 -0.6525
23017TIP3    H169933   9.269   6.855   7.394 -0.3427  1.4484 -1.6580
23017TIP3    H269934   9.409   6.886   7.440  0.1253 -1.6757 -0.7016
23018TIP3   OH269935   5.293   7.620   6.254 -0.4757 -0.0761  0.0457
23018TIP3    H169936   5.268   7.654   6.168  0.4118 -1.8134 -0.9700
23018TIP3    H269937   5.353   7.685   6.289 -2.5349  1.7375  0.3808
23019TIP3   OH269938   3.562   6.096  10.648 -0.1868 -0.1227  0.1666
23019TIP3    H169939   3.542   6.131  10.561  0.0201 -1.2708 -0.3759
23019TIP3    H269940   3.657   6.086  10.649 -0.2897 -1.3227  0.0046
23020TIP3   OH269941   1.921   5.803   8.385 -0.6170 -0.0624 -0.3865
23020TIP3    H169942   1.908   5.892   8.352 -0.6633 -0.2052 -0.7625
23020TIP3    H269943   1.989   5.811   8.452 -1.3821  0.4206  0.3445
23021TIP3   OH269944  10.754   0.250   0.137 -0.3709  0.2582  0.2872
23021TIP3    H169945  10.677   0.279   0.087 -0.8197 -2.3598 -0.6995
23021TIP3    H269946  10.820   0.232   0.070  0.6198  1.0038  1.0287
23022TIP3   OH269947   4.873   4.304   8.275  0.3109 -0.3915  0.0414
23022TIP3    H169948   4.895   4.393   8.301 -0.2680  0.0498 -0.9009
23022TIP3    H269949   4.894   4.301   8.181  1.4877 -1.6315  0.3091
23023TIP3   OH269950   4.078   3.135  10.414 -0.7118 -0.4828 -0.1991
23023TIP3    H169951   4.090   3.207  10.352 -0.0540 -0.0278  0.4344
23023TIP3    H269952   4.106   3.057  10.366  1.4226  0.0764  0.0209
23024TIP3   OH269953   5.870   9.236   4.632 -0.2010 -0.0736 -0.0545
23024TIP3    H169954   5.785   9.280   4.629 -0.4728 -0.5709  0.3228
23024TIP3    H269955   5.932   9.307   4.650 -0.8789 -0.0573  2.8532
23025TIP3   OH269956   7.661   2.502   0.444  0.1625  0.3003  0.4177
23025TIP3    H169957   7.590   2.565   0.431 -0.9025 -0.9767 -0.2448
23025TIP3    H269958   7.679   2.504   0.538 -2.1033 -0.6902  0.9423
23026TIP3   OH269959   1.923   1.456   2.262  0.5093 -0.5468  0.5969
23026TIP3    H169960   1.962   1.460   2.175 -0.2613  0.9895  0.2777
23026TIP3    H269961   1.948   1.539   2.303  0.1394 -0.8737  1.5253
23027TIP3   OH269962  10.854   0.382   5.497  0.1901 -0.8144 -0.1602
23027TIP3    H169963  10.947   0.363   5.500  0.4113  0.3146  0.5921
23027TIP3    H269964  10.849   0.473   5.467 -0.3888  0.7766  4.0615
23028TIP3   OH269965   8.414   9.114   6.024  0.3746  0.4000  0.3530
23028TIP3    H169966   8.468   9.043   5.989  0.3699  0.6377 -0.1427
23028TIP3    H269967   8.388   9.084   6.111 -0.4249 -0.6313 -0.2188
23029TIP3   OH269968   9.544   6.042   4.075  0.0193  0.3544  0.7782
23029TIP3    H169969   9.631   6.005   4.091 -0.1267  0.7098  2.5499
23029TIP3    H269970   9.531   6.105   4.146 -0.8330  1.8735 -0.6688
23030TIP3   OH269971   5.170   8.508   8.072  0.1653 -0.1817  0.5273
23030TIP3    H169972   5.144   8.582   8.127  0.9267  0.8801 -0.5059
23030TIP3    H269973   5.182   8.436   8.133 -0.5688  0.5465  1.5606
23031TIP3   OH269974   0.793   4.233   6.117  0.5737  0.1234  0.1237
23031TIP3    H169975   0.744   4.223   6.036  0.1016  0.5047  0.3559
23031TIP3    H269976   0.798   4.328   6.131 -0.1354  0.0525  0.9981
23032TIP3   OH269977   1.031   8.866   2.058 -0.3148  0.3168  0.0446
23032TIP3    H169978   1.073   8.780   2.052 -0.4061  0.3175 -0.6369
23032TIP3    H269979   1.104   8.928   2.048 -0.1997  0.3245  0.8833
23033TIP3   OH269980   7.164   2.954   8.422  0.7835 -0.3838 -0.0051
23033TIP3    H169981   7.213   2.871   8.425  1.0809 -0.2247 -0.3215
23033TIP3    H269982   7.201   3.000   8.347  1.1137  0.3409  0.5850
23034TIP3   OH269983   9.596   1.064   6.831 -0.3103  0.6295 -0.3858
23034TIP3    H169984   9.670   1.121   6.810 -0.1730  0.2652 -0.9246
23034TIP3    H269985   9.636   0.977   6.842 -0.5161  0.6295  0.4136
23035TIP3   OH269986   8.707  10.247   0.626 -0.3667  0.0283  0.6715
23035TIP3    H169987   8.760  10.189   0.572 -0.4260  0.4460  0.1486
23035TIP3    H269988   8.684  10.319   0.567 -2.3406 -0.6145  0.5841
23036TIP3   OH269989   3.645   3.512   0.846  0.4668  0.5543 -0.0529
23036TIP3    H169990   3.643   3.543   0.936  2.4159  1.2054 -0.1841
23036TIP3    H269991   3.563   3.542   0.808  0.1651  1.3200  1.1708
23037TIP3   OH269992   6.017   6.021   6.749  0.1604 -0.4297  0.5319
23037TIP3    H169993   6.083   6.043   6.682 -0.6601 -0.7790 -0.4182
23037TIP3    H269994   6.027   5.926   6.761  1.2607 -0.1540  1.9674
23038TIP3   OH269995  10.426   2.077   5.330  0.1041 -0.1549 -0.0821
23038TIP3    H169996  10.482   2.123   5.268  0.9322  0.8416  1.3401
23038TIP3    H269997  10.423   2.134   5.407 -0.6253 -1.4784  0.9239
23039TIP3   OH269998   4.196   7.797   3.357  0.1290 -0.7900  0.2078
23039TIP3    H169999   4.192   7.855   3.281  1.1146  0.1817  0.8543
23039TIP3    H270000   4.117   7.744   3.352 -0.8041  0.6142 -0.4220
23040TIP3   OH270001  10.387   9.195   5.904  0.3260  0.0286 -0.0661
23040TIP3    H170002  10.354   9.274   5.860 -2.4743  0.4781  2.5536
23040TIP3    H270003  10.321   9.128   5.886  0.2047 -0.3520  1.6436
23041TIP3   OH270004   2.179   2.418   9.374 -0.1853 -0.0541 -0.2288
23041TIP3    H170005   2.253   2.367   9.405 -0.9891 -0.6516  0.8062
23041TIP3    H270006   2.164   2.388   9.284 -0.1141 -1.0537  0.0756
23042TIP3   OH270007  10.657   0.504   4.938 -0.3368 -0.2359 -0.3973
23042TIP3    H170008  10.614   0.521   5.021 -0.9713 -0.5013 -0.6718
23042TIP3    H270009  10.746   0.476   4.962 -0.1938  0.6598  0.1506
23043TIP3   OH270010   3.711   8.675   8.266  0.4650  0.4200 -0.4908
23043TIP3    H170011   3.806   8.665   8.263  0.7530  2.8677 -1.3385
23043TIP3    H270012   3.680   8.635   8.184  0.9948  1.5334 -1.2459
23044TIP3   OH270013   0.900   4.412   6.799 -0.6232  0.3015  0.4456
23044TIP3    H170014   0.954   4.483   6.764 -0.1397  0.0942  0.7602
23044TIP3    H270015   0.880   4.439   6.888 -1.1915  0.4572  0.2759
23045TIP3   OH270016   5.841   4.974   2.017  0.0099  0.4415  0.4651
23045TIP3    H170017   5.779   4.922   1.965 -2.5683  1.2868  2.4819
23045TIP3    H270018   5.868   4.916   2.088 -1.7586  1.2594  1.9003
23046TIP3   OH270019   2.369  10.042   3.356 -0.3418  0.0057  0.0439
23046TIP3    H170020   2.309  10.114   3.337  0.1582  0.4366  0.0747
23046TIP3    H270021   2.450  10.085   3.383  0.2747 -0.5424 -0.8643
23047TIP3   OH270022   1.238   4.522  10.381  0.1709 -0.2721  0.1314
23047TIP3    H170023   1.164   4.579  10.403  0.1973  0.0300 -0.5382
23047TIP3    H270024   1.211   4.435  10.411  0.0026  0.0361  0.8789
23048TIP3   OH270025   6.470  10.711   6.251  0.1709  0.3182  0.2314
23048TIP3    H170026   6.464  10.616   6.235 -0.2183  0.0107  2.0459
23048TIP3    H270027   6.564  10.727   6.258  0.2378  0.0683 -0.0283
23049TIP3   OH270028   2.570   5.709   4.496 -0.3767 -0.1524 -0.2237
23049TIP3    H170029   2.560   5.800   4.521  0.0521 -0.4553  1.1521
23049TIP3    H270030   2.630   5.711   4.421 -1.6335  0.7860 -1.2368
23050TIP3   OH270031   1.285   0.557   8.511  0.5023  0.1236 -0.0305
23050TIP3    H170032   1.318   0.647   8.522  1.2125 -0.0714 -0.4977
23050TIP3    H270033   1.326   0.508   8.581  1.9281 -0.2952 -1.0981
23051TIP3   OH270034  10.445   0.001   6.936  0.3196 -0.3010  0.5950
23051TIP3    H170035  10.497  -0.079   6.949  1.8705  0.3304 -1.2471
23051TIP3    H270036  10.360  -0.031   6.905 -0.1328 -1.3138  2.7065
23052TIP3   OH270037   8.757   5.363   1.493 -0.4688  0.3278  0.1148
23052TIP3    H170038   8.695   5.293   1.471 -1.1522  0.9764 -0.0745
23052TIP3    H270039   8.745   5.377   1.587  0.6519 -0.7248  0.4461
23053TIP3   OH270040   8.117   3.131   4.526 -0.0827 -0.5021  0.0774
23053TIP3    H170041   8.212   3.127   4.524 -0.0676 -0.0684 -0.2068
23053TIP3    H270042   8.093   3.108   4.615  0.3614  0.7903  0.5563
23054TIP3   OH270043   5.170   7.186   4.143  0.4537  0.1230  0.0941
23054TIP3    H170044   5.158   7.242   4.067 -0.3227 -0.5884 -0.3250
23054TIP3    H270045   5.147   7.098   4.112  2.1003 -0.5396  0.6005
23055TIP3   OH270046  10.500   1.922   8.274  0.8141  0.2172  0.0302
23055TIP3    H170047  10.542   1.989   8.328  2.0239  0.1272 -0.7510
23055TIP3    H270048  10.406   1.937   8.284  1.0564  1.5277  0.4787
23056TIP3   OH270049   5.852   0.498   5.745  0.6744 -0.2898  0.2251
23056TIP3    H170050   5.943   0.471   5.754  1.0086  0.5828 -0.3604
23056TIP3    H270051   5.851   0.588   5.779  0.1645 -0.0757 -0.3494
23057TIP3   OH270052   9.068   5.271   4.596  0.0539  0.0593 -0.6709
23057TIP3    H170053   9.096   5.185   4.564  1.6969  0.5086 -0.5333
23057TIP3    H270054   8.998   5.252   4.658  0.4073 -1.1955 -0.6337
23058TIP3   OH270055   5.408   8.538   1.145 -0.5237  0.0559  0.2887
23058TIP3    H170056   5.346   8.475   1.108 -0.0906 -0.1733 -0.0613
23058TIP3    H270057   5.395   8.618   1.093 -0.4937 -0.0062  0.1847
23059TIP3   OH270058   4.187   9.378   8.588 -0.4296  0.3245 -0.5155
23059TIP3    H170059   4.200   9.421   8.504 -0.4687  1.4842  0.0433
23059TIP3    H270060   4.092   9.370   8.597 -0.4277  0.2503 -0.5588
23060TIP3   OH270061   6.528   6.205   8.093 -0.0431 -0.2631  0.0247
23060TIP3    H170062   6.439   6.179   8.070 -1.0341  2.8477 -0.1565
23060TIP3    H270063   6.529   6.206   8.189 -0.2428 -0.2359  0.0264
23061TIP3   OH270064   7.759   6.161   2.977  0.3925 -0.1209  0.7319
23061TIP3    H170065   7.785   6.132   2.890 -0.2182 -0.9986  0.8294
23061TIP3    H270066   7.767   6.256   2.974  0.6692 -0.1658 -0.1847
23062TIP3   OH270067   4.753   8.141   4.974  0.4160 -0.1980  0.3265
23062TIP3    H170068   4.795   8.212   4.925  0.7029 -0.8305 -0.3699
23062TIP3    H270069   4.791   8.061   4.937 -0.6898 -0.7506  0.3620
23063TIP3   OH270070   5.030   4.249   0.350  0.0742  0.5405  0.2771
23063TIP3    H170071   5.027   4.162   0.309  3.0116  0.8573 -0.8254
23063TIP3    H270072   4.938   4.278   0.350 -0.6899 -1.5391 -1.5973
23064TIP3   OH270073   9.894  10.783   9.593 -0.3548  0.3722 -0.3806
23064TIP3    H170074   9.893  10.690   9.568  0.7172  0.9159 -2.7621
23064TIP3    H270075   9.979  10.795   9.636 -0.2119  0.3660 -0.6563
23065TIP3   OH270076   0.311  10.308   9.937  0.0309  0.1006 -0.2906
23065TIP3    H170077   0.384  10.267   9.891 -1.2306  0.0482 -2.3894
23065TIP3    H270078   0.242  10.315   9.871 -2.8145 -2.1282  2.1272
23066TIP3   OH270079   1.428   0.556  10.344 -0.0604  0.1575  0.2827
23066TIP3    H170080   1.480   0.612  10.287  0.2811 -0.0551  0.3836
23066TIP3    H270081   1.456   0.579  10.432 -0.1536  0.0576  0.3385
23067TIP3   OH270082   6.399   4.615   5.590 -0.5657  0.1151  0.0838
23067TIP3    H170083   6.395   4.592   5.497  1.3953 -0.5167  0.0996
23067TIP3    H270084   6.406   4.531   5.635  1.7592  0.4600  0.5179
23068TIP3   OH270085  10.498  10.658   4.218  0.3070  0.5307  0.0784
23068TIP3    H170086  10.565  10.629   4.157  2.5815  0.8558  2.2332
23068TIP3    H270087  10.508  10.754   4.221  0.8859  0.4544  1.5512
23069TIP3   OH270088   5.932   6.342   2.142 -0.9364 -0.0640 -0.6681
23069TIP3    H170089   5.972   6.396   2.073 -1.1147 -0.6614 -1.2532
23069TIP3    H270090   5.887   6.273   2.094 -1.2998 -0.3312  0.0504
23070TIP3   OH270091  10.533   8.123   3.371 -0.8162  0.2109  0.0265
23070TIP3    H170092  10.449   8.081   3.352 -0.2851 -0.3306 -1.2306
23070TIP3    H270093  10.517   8.216   3.356 -1.5044  0.2628  0.9937
23071TIP3   OH270094   3.522  10.425   6.103  0.7217 -0.0202  0.0941
23071TIP3    H170095   3.448  10.472   6.140  1.6910  1.5070  0.1523
23071TIP3    H270096   3.485  10.340   6.076 -0.7260  0.1658  1.3668
23072TIP3   OH270097   4.688   7.413   6.193 -0.2455 -0.6691 -0.1321
23072TIP3    H170098   4.633   7.455   6.259 -0.8058  0.3768 -1.2094
23072TIP3    H270099   4.632   7.408   6.115  1.4285  1.3880 -1.5933
23073TIP3   OH270100   6.003   1.019   1.131 -0.3192 -0.4119  0.4613
23073TIP3    H170101   6.044   0.977   1.207  0.5890 -1.3126 -0.5067
23073TIP3    H270102   6.046   0.980   1.055  0.1237  1.8297 -0.5231
23074TIP3   OH270103   3.442   5.397   9.868 -0.0091  0.2692  0.0120
23074TIP3    H170104   3.440   5.423   9.776 -1.2526  0.1109 -0.0207
23074TIP3    H270105   3.414   5.305   9.868 -0.8004  0.5026  0.6180
23075TIP3   OH270106   1.072   1.520   7.585 -0.1355 -0.4975 -0.0623
23075TIP3    H170107   1.058   1.590   7.648  2.2156  0.8322 -0.9033
23075TIP3    H270108   1.037   1.554   7.503 -2.0818 -1.7467  0.1668
23076TIP3   OH270109   4.309   3.707   8.981 -0.3842 -0.0869 -0.2859
23076TIP3    H170110   4.297   3.714   8.886 -1.5903 -1.0352 -0.2303
23076TIP3    H270111   4.222   3.727   9.017 -0.3654 -1.3333  0.5116
23077TIP3   OH270112   7.502  10.055   6.922  0.2157 -0.2062 -0.4111
23077TIP3    H170113   7.476   9.996   6.993  2.9016  1.3557  2.0652
23077TIP3    H270114   7.469  10.141   6.949  1.1574  0.3935 -1.1222
23078TIP3   OH270115   2.453   8.056   7.480  0.1309  0.0638 -0.4460
23078TIP3    H170116   2.537   8.102   7.472  0.2283 -0.1864 -0.9122
23078TIP3    H270117   2.429   8.066   7.572  0.2200  0.9259 -0.5060
23079TIP3   OH270118   1.104   4.165   4.320 -0.5731  0.3685 -0.6551
23079TIP3    H170119   1.064   4.100   4.378 -0.9926  0.4426 -0.8543
23079TIP3    H270120   1.147   4.227   4.379 -0.8488  0.3476 -0.4277
23080TIP3   OH270121   2.804   1.486   9.772  0.5982 -0.5067  0.0517
23080TIP3    H170122   2.730   1.437   9.807 -0.0371 -0.3389 -1.0283
23080TIP3    H270123   2.813   1.561   9.831 -1.0049  0.2362 -0.6100
23081TIP3   OH270124  10.864   8.253   5.176  0.9497  0.2853 -0.2032
23081TIP3    H170125  10.814   8.284   5.251 -0.0467 -0.3028 -0.6118
23081TIP3    H270126  10.798   8.227   5.112  1.7776 -0.1932 -0.8790
23082TIP3   OH270127   3.537   6.229  10.422 -0.4655 -0.0539 -0.8166
23082TIP3    H170128   3.561   6.224  10.330 -2.6229 -1.0971 -1.3728
23082TIP3    H270129   3.508   6.319  10.434 -0.5777 -0.0284 -1.2646
23083TIP3   OH270130   3.220   5.761   3.876  0.1453 -0.0847  0.0615
23083TIP3    H170131   3.219   5.701   3.802  1.0135  3.0556 -2.7944
23083TIP3    H270132   3.312   5.782   3.889 -0.2229  2.9212 -1.2837
23084TIP3   OH270133   0.108   0.015   2.610  0.4096 -0.3881  0.3812
23084TIP3    H170134   0.034   0.048   2.559  1.3485  0.2424 -0.6084
23084TIP3    H270135   0.069  -0.010   2.694 -1.1148 -1.0697 -0.4702
23085TIP3   OH270136   1.082   9.337  10.343 -0.0944  0.3342  0.4986
23085TIP3    H170137   1.138   9.403  10.303  0.4339 -1.0264 -1.1562
23085TIP3    H270138   1.065   9.370  10.431  1.5886  1.7992  0.3444
23086TIP3   OH270139   0.185   7.862  10.205 -0.4030  0.1659 -0.0546
23086TIP3    H170140   0.269   7.826  10.175 -1.5154 -0.2073 -3.0445
23086TIP3    H270141   0.200   7.881  10.297  2.5209 -1.2068 -0.1016
23087TIP3   OH270142   1.647   6.758   8.683  0.4734  0.2220  0.0947
23087TIP3    H170143   1.618   6.748   8.773  0.9793 -0.0058  0.2344
23087TIP3    H270144   1.688   6.674   8.661  1.0936  0.5605 -0.0650
23088TIP3   OH270145   4.656   3.409   7.503  0.4016 -1.0815 -0.8102
23088TIP3    H170146   4.700   3.468   7.443 -1.2121 -1.6397 -2.6591
23088TIP3    H270147   4.723   3.383   7.566  1.5352  1.4158 -0.9073
23089TIP3   OH270148   0.280   3.864   0.472 -0.0424  0.2371  0.2852
23089TIP3    H170149   0.315   3.948   0.442 -0.2218  0.5188  0.8433
23089TIP3    H270150   0.347   3.828   0.529 -0.2937  0.3739  0.6720
23090TIP3   OH270151   2.183   2.486   6.499  0.0727 -0.6315 -0.3671
23090TIP3    H170152   2.238   2.493   6.576 -0.6081 -1.1757  0.1868
23090TIP3    H270153   2.126   2.563   6.502  0.8494 -0.0193 -0.9911
23091TIP3   OH270154   6.681   9.695   8.722  0.2427  0.3767 -0.0314
23091TIP3    H170155   6.668   9.601   8.709 -0.8991  0.8177 -2.9274
23091TIP3    H270156   6.757   9.716   8.668  1.0084  1.0186  1.2600
23092TIP3   OH270157   4.318   3.421   4.788 -0.7471  0.1256 -0.1064
23092TIP3    H170158   4.279   3.335   4.775  1.3983 -0.7265 -1.2024
23092TIP3    H270159   4.396   3.405   4.841  0.9087  1.0403 -2.1513
23093TIP3   OH270160   7.275   0.086   0.177  0.1034 -0.2699  0.2635
23093TIP3    H170161   7.266   0.150   0.106  3.4482 -1.5911 -1.6000
23093TIP3    H270162   7.240   0.005   0.140  1.4495 -0.8613  0.2270
23094TIP3   OH270163   7.275   3.912   2.010  0.3808 -0.5441 -0.4444
23094TIP3    H170164   7.303   4.003   2.012  0.8469 -0.5607 -2.8389
23094TIP3    H270165   7.180   3.916   2.014  0.4348 -0.0617  0.7889
23095TIP3   OH270166   0.749   8.429   9.635  0.0443 -0.6504 -0.0683
23095TIP3    H170167   0.664   8.392   9.610 -1.2556  1.5849  0.7738
23095TIP3    H270168   0.792   8.449   9.552 -0.6517 -0.9346 -0.5044
23096TIP3   OH270169   6.786   4.999   9.398  0.6282 -0.3216  0.8686
23096TIP3    H170170   6.833   5.063   9.344 -0.1833 -0.7283 -0.3574
23096TIP3    H270171   6.697   5.033   9.403 -0.3047 -2.1576 -1.3049
23097TIP3   OH270172   0.459   4.892   8.430 -0.0404 -0.5302 -0.0618
23097TIP3    H170173   0.371   4.858   8.441 -0.4613  0.5524  0.0060
23097TIP3    H270174   0.458   4.939   8.347  0.7035 -1.1764 -0.4580
23098TIP3   OH270175   8.126   4.271   1.302  0.5942 -0.4175  0.1391
23098TIP3    H170176   8.115   4.319   1.220 -1.5159 -0.6287  0.2502
23098TIP3    H270177   8.184   4.198   1.280 -2.0125 -2.0393 -1.9219
23099TIP3   OH270178   2.962   2.708  10.828  0.9936  0.2302  0.1445
23099TIP3    H170179   2.922   2.622  10.814  1.3585  0.1126 -0.1701
23099TIP3    H270180   2.989   2.706  10.920  1.7627 -0.3135 -0.0829
23100TIP3   OH270181   9.671   8.486   6.299  0.0170 -0.3581 -0.1934
23100TIP3    H170182   9.614   8.424   6.344 -0.6771 -0.0895 -0.7015
23100TIP3    H270183   9.613   8.538   6.244  0.4903  1.2224  0.7436
23101TIP3   OH270184  10.145   1.627  10.599 -0.4619 -0.0742  0.1761
23101TIP3    H170185  10.169   1.587  10.515 -0.9063 -0.2904  0.1502
23101TIP3    H270186  10.223   1.676  10.625 -0.6764  0.9124 -0.9198
23102TIP3   OH270187   9.125   4.052   2.179 -0.5650 -0.0457  0.1003
23102TIP3    H170188   9.138   4.144   2.201  1.2342 -0.7228  2.2452
23102TIP3    H270189   9.043   4.028   2.222 -1.7921  0.8445 -1.6519
23103TIP3   OH270190   4.823   8.599   6.098  0.0351 -0.0515  0.2075
23103TIP3    H170191   4.763   8.540   6.053  0.4900 -0.4150  0.0735
23103TIP3    H270192   4.878   8.635   6.029  0.7125 -0.5873  0.4610
23104TIP3   OH270193   4.901   2.472   9.646  0.0364 -0.1906  0.6890
23104TIP3    H170194   4.959   2.452   9.720  2.0443  1.2839 -0.4011
23104TIP3    H270195   4.942   2.428   9.571 -0.3216  0.7424 -0.0774
23105TIP3   OH270196   1.903   5.845   4.284 -0.1745 -0.3583  0.3372
23105TIP3    H170197   1.974   5.784   4.262 -0.4002 -0.5394  0.0995
23105TIP3    H270198   1.938   5.898   4.356  0.0189 -0.7780  0.5567
23106TIP3   OH270199   3.691   0.781   2.276 -0.2999 -0.4654 -0.4860
23106TIP3    H170200   3.760   0.796   2.340  0.0266 -0.4322 -0.8443
23106TIP3    H270201   3.612   0.818   2.316 -0.6973 -2.7470  1.0765
23107TIP3   OH270202   2.503   9.798   3.453  0.4227 -0.1358  0.4047
23107TIP3    H170203   2.436   9.790   3.385 -1.0527 -1.5198  1.9544
23107TIP3    H270204   2.552   9.877   3.428 -1.4910  0.6912 -1.0262
23108TIP3   OH270205   8.321   2.733   4.241 -0.3331  0.6039  0.4149
23108TIP3    H170206   8.311   2.765   4.151  1.6893 -0.4809 -0.2607
23108TIP3    H270207   8.387   2.792   4.279 -2.0104  1.7948  1.6318
23109TIP3   OH270208   0.188   8.298   6.199  0.1950 -0.7431  0.6022
23109TIP3    H170209   0.244   8.239   6.249  0.7143 -1.2083 -0.4968
23109TIP3    H270210   0.220   8.386   6.222  0.8964 -0.9771  0.5371
23110TIP3   OH270211   3.253   2.949   0.551 -0.2887 -0.3492 -0.2534
23110TIP3    H170212   3.323   2.970   0.614 -1.4736  1.4342  0.5470
23110TIP3    H270213   3.180   2.920   0.605 -1.1502  0.6883 -0.8230
23111TIP3   OH270214   3.038   4.859   1.152 -0.3277 -0.0020  0.0171
23111TIP3    H170215   2.947   4.835   1.170 -0.0192 -0.5337  0.9218
23111TIP3    H270216   3.090   4.798   1.205  0.5456  0.6412 -0.0841
23112TIP3   OH270217   9.966   7.312   8.987 -0.7446 -0.0606  0.1695
23112TIP3    H170218   9.973   7.225   9.026 -0.4207 -0.6708 -1.2302
23112TIP3    H270219   9.929   7.366   9.057  0.2808 -1.0087  1.4965
23113TIP3   OH270220   8.288   0.331   0.622 -0.5781 -0.9078  0.2784
23113TIP3    H170221   8.378   0.365   0.617 -0.0141 -2.4492 -1.3838
23113TIP3    H270222   8.295   0.256   0.681 -0.7127 -1.2011 -0.0801
23114TIP3   OH270223   6.762   0.536   9.755 -0.6484 -0.5080  0.3267
23114TIP3    H170224   6.825   0.527   9.683 -0.4287 -1.3637  0.6207
23114TIP3    H270225   6.754   0.631   9.767 -1.3502 -0.3107 -1.3928
23115TIP3   OH270226   2.317  10.217   6.012 -0.4597 -0.0671  0.0710
23115TIP3    H170227   2.380  10.177   5.952 -0.3513 -2.0143  1.3914
23115TIP3    H270228   2.361  10.296   6.044  0.4246 -0.2589 -0.6297
23116TIP3   OH270229   4.034  10.845   3.438  0.2175  0.0044  0.2392
23116TIP3    H170230   4.021  10.889   3.522  0.3879  1.4071 -0.4403
23116TIP3    H270231   4.083  10.766   3.460 -2.8191 -1.5818  1.9163
23117TIP3   OH270232   6.182   8.648   5.531 -0.5255 -0.8314 -0.1353
23117TIP3    H170233   6.159   8.578   5.592  0.3731 -2.0872 -1.1869
23117TIP3    H270234   6.239   8.607   5.467 -0.4645  0.7320 -1.1507
23118TIP3   OH270235   8.535   8.409   0.712  0.2598 -0.4179 -0.3780
23118TIP3    H170236   8.537   8.504   0.708  0.8572 -0.4517 -1.6568
23118TIP3    H270237   8.464   8.384   0.653  0.5772 -0.7625 -0.6225
23119TIP3   OH270238   0.607   1.927   2.836  0.1535 -0.2627 -0.3643
23119TIP3    H170239   0.634   1.835   2.831 -0.8996 -0.5049 -2.6980
23119TIP3    H270240   0.527   1.931   2.784  0.2576  2.0144 -0.4225
23120TIP3   OH270241   7.927   1.009   9.990  0.3572  0.1464  0.0454
23120TIP3    H170242   7.976   1.086  10.018  0.5663  0.2249 -0.5340
23120TIP3    H270243   7.837   1.041   9.977  0.2501  0.1025  0.6430
23121TIP3   OH270244  10.434   8.634   2.467  0.3413  0.8848 -0.7690
23121TIP3    H170245  10.444   8.648   2.561 -0.1862  0.6393 -0.6705
23121TIP3    H270246  10.362   8.691   2.441  1.2486  1.8382 -1.2589
23122TIP3   OH270247   5.424   3.847   1.045 -0.5097  0.2115  0.2165
23122TIP3    H170248   5.373   3.768   1.028  2.5014 -1.4648 -2.0465
23122TIP3    H270249   5.396   3.909   0.979  0.0485 -0.5503 -0.7571
23123TIP3   OH270250   3.477   5.950   6.774  0.2762  1.1538 -0.1270
23123TIP3    H170251   3.562   5.984   6.747  1.7517  0.9361  3.6789
23123TIP3    H270252   3.494   5.905   6.857 -2.8986 -2.3516 -1.0628
23124TIP3   OH270253   2.328   9.130   7.590  0.2059 -0.0877  0.6204
23124TIP3    H170254   2.377   9.211   7.574  0.6886 -0.4178  0.4193
23124TIP3    H270255   2.383   9.080   7.650  0.9242 -1.1972 -0.9040
23125TIP3   OH270256   7.585   9.566   6.482 -0.2972  0.5939  0.2711
23125TIP3    H170257   7.544   9.569   6.396 -1.9209  1.3754  1.0238
23125TIP3    H270258   7.552   9.644   6.527 -0.4576 -0.4290  2.0118
23126TIP3   OH270259   1.635   2.660   9.953 -0.8146  0.1286 -0.6561
23126TIP3    H170260   1.633   2.738   9.897 -1.0948  1.1298  0.7125
23126TIP3    H270261   1.728   2.646   9.970 -0.6296 -0.8469 -2.2103
23127TIP3   OH270262   3.992   4.771   4.515 -0.4370 -0.1217  0.1063
23127TIP3    H170263   3.936   4.716   4.569 -0.4441 -1.7024 -1.4299
23127TIP3    H270264   4.073   4.720   4.505 -0.9220 -0.5327 -2.4121
23128TIP3   OH270265   0.251   5.885   0.476  0.2497  0.4499 -0.3130
23128TIP3    H170266   0.219   5.799   0.448  0.2804 -0.3200  1.8865
23128TIP3    H270267   0.202   5.947   0.421 -2.4314 -0.8227  0.4829
23129TIP3   OH270268   7.543   8.427   2.150  0.2713 -0.2877 -1.0568
23129TIP3    H170269   7.458   8.439   2.107  1.1286  1.9828 -2.2703
23129TIP3    H270270   7.555   8.505   2.204  1.0212 -1.2116  0.1784
23130TIP3   OH270271   4.473   0.550   8.949 -0.4638 -0.2534 -0.0706
23130TIP3    H170272   4.559   0.515   8.928 -0.0944 -0.9401  2.2773
23130TIP3    H270273   4.411   0.483   8.918 -0.0146 -0.7139  0.0107
23131TIP3   OH270274   5.079   5.600   9.609  0.3889 -0.0208 -0.2848
23131TIP3    H170275   5.135   5.645   9.672 -0.1450  0.3344 -0.0565
23131TIP3    H270276   4.993   5.595   9.652  0.5611 -1.7548 -0.0803
23132TIP3   OH270277   7.319   9.871   9.620 -0.0070  0.0710 -0.2683
23132TIP3    H170278   7.270   9.932   9.566  0.2751 -0.3027 -0.9598
23132TIP3    H270279   7.263   9.856   9.697  0.0244  1.3712  0.0364
23133TIP3   OH270280   1.284   5.115   4.214 -0.0773 -0.1420 -0.5630
23133TIP3    H170281   1.223   5.049   4.181 -1.6841  1.1472 -0.3457
23133TIP3    H270282   1.308   5.166   4.137 -1.0119  0.6706 -0.3399
23134TIP3   OH270283   8.636   7.251   3.266 -0.4737  0.3125 -0.1902
23134TIP3    H170284   8.667   7.215   3.349 -1.3904 -0.5563 -0.2004
23134TIP3    H270285   8.715   7.283   3.223 -0.1458  2.1664  1.6416
23135TIP3   OH270286   9.204   0.858   8.071 -0.2913  0.0243 -0.0860
23135TIP3    H170287   9.234   0.767   8.076  1.2454  0.5203  0.2456
23135TIP3    H270288   9.191   0.884   8.162  2.1376  0.9951  0.0573
23136TIP3   OH270289   7.692   7.793   3.276  0.0291 -0.3030 -0.0337
23136TIP3    H170290   7.678   7.887   3.263 -0.2005 -0.4644 -1.0060
23136TIP3    H270291   7.755   7.788   3.348  0.3298  0.6067 -0.2207
23137TIP3   OH270292   3.445   7.309   2.269 -0.4929  0.5785  0.3204
23137TIP3    H170293   3.535   7.339   2.256 -0.8738  1.2593 -0.9059
23137TIP3    H270294   3.436   7.304   2.365  1.5647 -1.8629  0.4937
23138TIP3   OH270295   7.413   5.143   4.955  0.3349 -0.2343 -0.3790
23138TIP3    H170296   7.325   5.139   4.917 -0.7300 -2.9876  1.9833
23138TIP3    H270297   7.418   5.066   5.012  2.9945  1.7023  2.3109
23139TIP3   OH270298   5.162   1.101   3.789  0.2683 -0.2561 -0.3983
23139TIP3    H170299   5.139   1.179   3.840  1.9419 -0.4569  0.7431
23139TIP3    H270300   5.163   1.131   3.698 -3.6766 -0.0975 -0.5338
23140TIP3   OH270301   5.579   6.452   1.097 -0.3145 -0.5358 -0.2000
23140TIP3    H170302   5.593   6.410   1.012 -0.9865 -1.2848  0.0370
23140TIP3    H270303   5.484   6.447   1.111 -0.4828  1.4525 -0.3288
23141TIP3   OH270304  10.647   6.990   8.907 -0.1129  0.5806 -0.4011
23141TIP3    H170305  10.571   7.041   8.881 -0.8944 -0.8681 -1.0590
23141TIP3    H270306  10.715   7.056   8.923 -0.8881  1.7911 -1.7886
23142TIP3   OH270307   5.225   0.795   5.501  0.8729 -0.2079 -0.0672
23142TIP3    H170308   5.170   0.748   5.564 -0.7287  0.5250 -0.8560
23142TIP3    H270309   5.298   0.736   5.484  0.3185 -1.2440  0.9820
23143TIP3   OH270310   4.861   2.495   7.525 -0.4975 -0.4912 -0.1609
23143TIP3    H170311   4.955   2.478   7.536 -0.2186 -0.3077 -1.9728
23143TIP3    H270312   4.826   2.492   7.614  1.5660  1.5208  0.8287
23144TIP3   OH270313   7.063   8.206   7.686 -0.3686  0.4105  0.4522
23144TIP3    H170314   7.023   8.147   7.622  1.7998  0.6423 -1.2199
23144TIP3    H270315   7.038   8.294   7.657 -0.2939  0.4763  0.5850
23145TIP3   OH270316   6.453  10.779   2.055 -0.7788  0.2871  0.0358
23145TIP3    H170317   6.498  10.846   2.004 -1.1067  1.4054  1.1972
23145TIP3    H270318   6.523  10.736   2.105 -0.5154 -0.5390 -0.9904
23146TIP3   OH270319  10.469   7.691   6.678  0.5658 -0.3578 -0.3068
23146TIP3    H170320  10.384   7.663   6.645  0.5387 -0.1603 -0.4099
23146TIP3    H270321  10.468   7.668   6.771 -0.7503  2.2369  0.4082
23147TIP3   OH270322   0.706   6.994   9.961 -0.2297 -0.3937  0.2857
23147TIP3    H170323   0.669   6.962  10.044 -1.8211  1.2288  0.2610
23147TIP3    H270324   0.638   7.051   9.926  0.3784 -1.0896 -2.1964
23148TIP3   OH270325   7.134   1.663   9.213  0.0048  0.6623 -0.8239
23148TIP3    H170326   7.210   1.703   9.172  0.6465 -0.2698 -0.5872
23148TIP3    H270327   7.164   1.641   9.302 -0.2745 -0.4462 -0.9931
23149TIP3   OH270328   7.820   4.572   1.173 -0.1504  0.6293  0.1400
23149TIP3    H170329   7.806   4.664   1.193 -1.9366  0.3560  0.2437
23149TIP3    H270330   7.805   4.526   1.255  0.8497  0.2337  0.1187
23150TIP3   OH270331   1.267   7.507   1.203  0.1117  0.5563 -0.2698
23150TIP3    H170332   1.280   7.415   1.229  1.7822 -0.1392 -3.1195
23150TIP3    H270333   1.215   7.544   1.274  1.5665 -1.8943  2.3150
23151TIP3   OH270334   5.572   4.588  10.064  0.0486  0.9544 -0.0285
23151TIP3    H170335   5.525   4.669  10.088  0.1443  1.6494 -1.9775
23151TIP3    H270336   5.502   4.523  10.055 -0.1690  1.1292  0.3305
23152TIP3   OH270337   9.421   7.384   6.179 -0.0927  0.5465  0.1505
23152TIP3    H170338   9.517   7.376   6.179 -0.1771 -0.7812 -1.4269
23152TIP3    H270339   9.389   7.295   6.190 -1.1374  0.7351 -1.1316
23153TIP3   OH270340   8.576   1.805   9.804  0.1829  0.0594 -0.1976
23153TIP3    H170341   8.620   1.803   9.719 -0.4376  0.1756 -0.5261
23153TIP3    H270342   8.486   1.777   9.786 -0.7767  2.7279 -0.1040
23154TIP3   OH270343   5.989   1.681   8.517 -0.1576 -0.0331  0.2202
23154TIP3    H170344   5.963   1.738   8.445 -0.8853 -1.0600 -0.3525
23154TIP3    H270345   6.048   1.617   8.476  0.7668  0.3675  0.8821
23155TIP3   OH270346   2.566   6.977   9.581  0.5978 -0.7117  0.3316
23155TIP3    H170347   2.617   7.048   9.621  1.1059 -0.9496  0.1142
23155TIP3    H270348   2.514   6.941   9.653 -2.7732  2.4391 -0.2331
23156TIP3   OH270349   3.355   6.534   8.826  0.1232  0.5021  0.4846
23156TIP3    H170350   3.385   6.624   8.832  1.7448  0.0920 -0.6661
23156TIP3    H270351   3.260   6.540   8.821  0.1778  2.1026  0.9089
23157TIP3   OH270352   9.712   0.422   7.422  0.5324  0.3736  0.5910
23157TIP3    H170353   9.728   0.490   7.357 -1.4778 -0.0634 -0.4583
23157TIP3    H270354   9.737   0.341   7.379  1.5642  0.2830  1.3208
23158TIP3   OH270355   1.698   0.674  10.240  0.1019  1.1735 -0.3057
23158TIP3    H170356   1.743   0.677  10.324  2.0855  1.1732 -1.3299
23158TIP3    H270357   1.737   0.743  10.188 -0.3353  0.4930 -1.5972
23159TIP3   OH270358   0.206   2.413   8.914 -0.2892  0.1319  0.1547
23159TIP3    H170359   0.213   2.506   8.894  0.7241 -0.3241 -1.8918
23159TIP3    H270360   0.295   2.386   8.936 -0.7189 -0.2142  1.5874
23160TIP3   OH270361   3.117   2.927   7.738  0.0549 -0.4088  0.4840
23160TIP3    H170362   3.095   2.952   7.648 -1.3840  0.9318  1.1381
23160TIP3    H270363   3.033   2.933   7.785  0.9365 -0.1791  2.0988
23161TIP3   OH270364   2.481   4.653   6.503 -0.1444 -0.4525 -0.5848
23161TIP3    H170365   2.417   4.692   6.564 -0.2957 -1.1330 -0.3002
23161TIP3    H270366   2.489   4.562   6.532  2.0378 -0.0435  0.3081
23162TIP3   OH270367   1.234   3.653   6.048 -0.1416 -0.7159  0.2821
23162TIP3    H170368   1.177   3.581   6.073 -0.3759 -0.9958 -0.9740
23162TIP3    H270369   1.173   3.723   6.022  0.0837 -0.4188  0.5538
23163TIP3   OH270370  10.275   4.836   5.514 -0.3629  0.1642  0.6073
23163TIP3    H170371  10.273   4.900   5.585 -2.6489  0.5058  0.3017
23163TIP3    H270372  10.287   4.888   5.435 -2.9631  0.3743  0.2828
23164TIP3   OH270373   6.440   2.334   4.921 -0.0808 -0.4610 -0.9411
23164TIP3    H170374   6.385   2.327   4.843 -1.0643  0.5282 -0.3628
23164TIP3    H270375   6.451   2.244   4.950 -0.7197 -0.7444 -1.5402
23165TIP3   OH270376   6.194   3.520   7.839 -0.8857  0.1202  0.2901
23165TIP3    H170377   6.237   3.508   7.754 -0.5359 -0.3320  0.5249
23165TIP3    H270378   6.191   3.615   7.851  1.3488  0.1783  0.8957
23166TIP3   OH270379   9.778   7.714   3.870  0.0034 -0.1044 -0.2563
23166TIP3    H170380   9.722   7.724   3.947  0.0518 -0.2754 -0.1981
23166TIP3    H270381   9.816   7.626   3.879  1.2146  0.4555  0.3323
23167TIP3   OH270382   9.303   2.903   5.923 -0.0062 -0.0888  0.5462
23167TIP3    H170383   9.380   2.862   5.964  0.8236 -2.6522 -3.0620
23167TIP3    H270384   9.339   2.969   5.864 -0.6952 -0.1112  0.0897
23168TIP3   OH270385   5.644  10.594   0.106  0.2429  0.1592 -0.0087
23168TIP3    H170386   5.610  10.534   0.171  1.7890  1.2978  1.9501
23168TIP3    H270387   5.734  10.566   0.091  0.2422  0.5698 -0.8470
23169TIP3   OH270388   6.830   5.842   6.334 -0.1567 -0.1924  0.2894
23169TIP3    H170389   6.825   5.747   6.323  1.5702 -0.4300  1.1661
23169TIP3    H270390   6.827   5.855   6.429 -1.6475  0.7500  0.1347
23170TIP3   OH270391   2.609   9.748   2.152 -0.1948 -0.0403  0.3668
23170TIP3    H170392   2.525   9.787   2.176 -0.1598 -0.3902  1.1106
23170TIP3    H270393   2.587   9.684   2.084 -0.4321  0.3724  0.0555
23171TIP3   OH270394   9.062  10.618   8.454  0.0516  0.6617 -0.2880
23171TIP3    H170395   9.107  10.676   8.394  0.5745  0.8741  0.2901
23171TIP3    H270396   9.129  10.553   8.479  0.2129  1.2671  0.9588
23172TIP3   OH270397   2.195   4.748   3.855  0.4695  0.3324  0.0727
23172TIP3    H170398   2.122   4.700   3.815 -0.0530  1.1179  0.0571
23172TIP3    H270399   2.155   4.793   3.930  0.8724  1.0153 -0.1153
23173TIP3   OH270400   5.886   9.649   1.954 -0.0642 -0.5791  0.0171
23173TIP3    H170401   5.800   9.692   1.949 -1.0037 -2.3338  0.0196
23173TIP3    H270402   5.924   9.660   1.867 -0.0592  0.6504  0.1663
23174TIP3   OH270403   5.460   3.713   0.604 -0.1875 -0.0519 -0.1137
23174TIP3    H170404   5.488   3.667   0.525 -0.1264  0.4634 -0.3972
23174TIP3    H270405   5.541   3.729   0.652  0.3681  3.0482 -1.7881
23175TIP3   OH270406   8.181   1.859   8.377 -0.3855 -0.1985 -0.1011
23175TIP3    H170407   8.238   1.790   8.411 -0.9007 -2.0963 -2.7394
23175TIP3    H270408   8.240   1.924   8.341  0.0956  0.3079  1.5072
23176TIP3   OH270409  10.610  10.021   7.447 -0.1605  0.1096 -0.2820
23176TIP3    H170410  10.546   9.967   7.400 -2.2457  0.8212  1.5827
23176TIP3    H270411  10.595  10.000   7.539  0.2669  2.4592  0.3718
23177TIP3   OH270412   6.340   3.771   2.950 -0.4461  0.5060  0.0569
23177TIP3    H170413   6.333   3.842   3.013 -0.9236 -0.6409  1.3422
23177TIP3    H270414   6.419   3.790   2.900 -0.7729  2.1198  0.1096
23178TIP3   OH270415   2.439   8.652   4.467 -0.1258  0.7066 -0.1249
23178TIP3    H170416   2.454   8.560   4.486 -1.6450  0.5826  0.6280
23178TIP3    H270417   2.462   8.662   4.374  0.2842 -0.3659 -0.1446
23179TIP3   OH270418   7.152   4.153   4.451  0.6058  0.9478 -0.1011
23179TIP3    H170419   7.244   4.156   4.475 -0.1768  0.2425  3.5722
23179TIP3    H270420   7.105   4.151   4.534 -2.7206  0.2272 -1.8059
23180TIP3   OH270421   5.538   1.066  10.777  0.0093 -0.1416 -0.5873
23180TIP3    H170422   5.579   1.065  10.690  0.4840 -1.7561 -0.3832
23180TIP3    H270423   5.449   1.033  10.762  0.0044 -0.1703 -0.4937
23181TIP3   OH270424   2.045   4.165   6.632  0.2340  0.0931  0.2945
23181TIP3    H170425   1.976   4.195   6.573  0.6772 -0.6718 -0.6422
23181TIP3    H270426   2.029   4.071   6.641 -0.3264  0.3195  2.0921
23182TIP3   OH270427   2.257   5.046  10.309  0.4229  0.4162 -0.1784
23182TIP3    H170428   2.183   5.072  10.364 -0.8963 -2.1193 -0.5962
23182TIP3    H270429   2.283   5.126  10.263 -3.6209  1.0098 -1.8155
23183TIP3   OH270430   5.681   4.305   9.699  0.4903  0.0856 -0.3280
23183TIP3    H170431   5.696   4.219   9.737 -1.5248  0.0952  0.6024
23183TIP3    H270432   5.599   4.335   9.738  1.0905  2.4028 -0.6945
23184TIP3   OH270433   4.863   3.243   0.737  1.0145 -0.1312  0.4093
23184TIP3    H170434   4.947   3.230   0.694  0.8367  1.7574 -0.5998
23184TIP3    H270435   4.847   3.337   0.731 -1.7614 -0.5777 -0.5711
23185TIP3   OH270436   9.077   4.212   5.418  0.5246 -0.4032 -0.1387
23185TIP3    H170437   9.129   4.171   5.488  0.8435 -1.8921 -1.2023
23185TIP3    H270438   9.109   4.171   5.338  0.7275  1.8389 -1.2788
23186TIP3   OH270439   3.828   3.388   0.587 -0.0711  0.1314 -0.0138
23186TIP3    H170440   3.744   3.387   0.541 -0.1617 -0.8846  0.1508
23186TIP3    H270441   3.818   3.323   0.657  1.4158 -1.2905 -1.0488
23187TIP3   OH270442   8.364   6.425   5.900 -0.6513 -0.4457 -0.3970
23187TIP3    H170443   8.452   6.388   5.900 -1.1187 -1.6107  0.2273
23187TIP3    H270444   8.307   6.351   5.877 -1.3861  0.5383 -1.8823
23188TIP3   OH270445   3.990   6.098   2.504 -0.2893  0.4519  0.4418
23188TIP3    H170446   4.064   6.062   2.455  0.4615  2.6095 -0.1255
23188TIP3    H270447   3.920   6.107   2.439 -0.3194  0.4372  0.4722
23189TIP3   OH270448   3.754   2.711   0.530  0.3260 -0.6254  0.6976
23189TIP3    H170449   3.817   2.687   0.462  0.8971 -0.2574  1.0891
23189TIP3    H270450   3.701   2.779   0.489  1.0364  0.0047  0.7963
23190TIP3   OH270451   8.619  10.458   7.978  0.5480  0.5185 -0.0544
23190TIP3    H170452   8.595  10.394   8.045  0.6833 -0.5937 -1.0247
23190TIP3    H270453   8.694  10.504   8.015  1.4366 -0.9503  0.0967
23191TIP3   OH270454   9.860   1.050   7.378  0.0501 -0.4463  0.0750
23191TIP3    H170455   9.924   1.116   7.350  0.0633 -0.2247  0.6105
23191TIP3    H270456   9.883   1.031   7.469  1.1747 -2.5387 -0.5814
23192TIP3   OH270457   8.591   4.921   5.327  0.1350  0.3823  0.6384
23192TIP3    H170458   8.652   4.933   5.400 -2.1354  1.0564  2.5510
23192TIP3    H270459   8.505   4.944   5.363 -0.9417  2.2488 -2.6516
23193TIP3   OH270460  10.575   0.363   0.965  0.4555  0.3692 -0.1476
23193TIP3    H170461  10.530   0.325   0.890 -1.0675  3.5173 -1.0132
23193TIP3    H270462  10.514   0.354   1.038 -1.2630  3.4974 -1.0303
23194TIP3   OH270463   3.348   6.800   9.305 -0.4216 -0.0901 -0.0620
23194TIP3    H170464   3.344   6.874   9.245  0.0555  0.2585  0.3339
23194TIP3    H270465   3.351   6.839   9.392  0.8433 -0.5362  0.1147
23195TIP3   OH270466   9.079   9.841   1.407  0.1466  0.4473  0.1111
23195TIP3    H170467   9.054   9.770   1.348  1.7778 -0.6174  0.6438
23195TIP3    H270468   9.064   9.921   1.357  0.9575 -0.4052 -1.5532
23196TIP3   OH270469   7.416   7.466   8.991  0.1865 -0.0706  0.1278
23196TIP3    H170470   7.374   7.411   9.057 -0.5640  1.0846  0.6583
23196TIP3    H270471   7.423   7.552   9.033  0.2839  0.5281 -1.0730
23197TIP3   OH270472   7.820   5.624   9.923 -0.2648 -0.5164 -0.0425
23197TIP3    H170473   7.909   5.588   9.925  0.6020  1.3056 -2.2750
23197TIP3    H270474   7.832   5.718   9.910 -2.5308 -0.0565  0.7601
23198TIP3   OH270475   1.979   4.025   6.222  0.5916  0.2660  0.1031
23198TIP3    H170476   1.962   4.003   6.130 -1.4107  1.0398  0.2275
23198TIP3    H270477   1.939   3.953   6.271 -0.4333  0.9907  0.3748
23199TIP3   OH270478   9.455   6.103  10.118  0.3898  0.2508 -0.3254
23199TIP3    H170479   9.403   6.099  10.198 -0.1222 -1.2538 -0.6867
23199TIP3    H270480   9.390   6.106  10.047  0.8236  0.6573 -0.7160
23200TIP3   OH270481   7.304   3.304   4.668  0.6061  0.3174  0.0857
23200TIP3    H170482   7.282   3.335   4.580 -0.0434 -0.3959 -0.0143
23200TIP3    H270483   7.229   3.250   4.694  1.5003 -0.8098  0.4214
23201TIP3   OH270484   3.184   8.620   0.570 -0.0335 -0.1765  0.2061
23201TIP3    H170485   3.278   8.635   0.584  0.0371 -1.3369  1.1251
23201TIP3    H270486   3.181   8.556   0.499 -0.1481  0.1042 -0.0440
23202TIP3   OH270487   9.977   7.866   8.677 -0.2844  0.4889  0.0160
23202TIP3    H170488  10.001   7.958   8.687  3.3057 -0.2206 -0.9464
23202TIP3    H270489   9.978   7.851   8.582 -0.0456 -0.7201  0.1890
23203TIP3   OH270490   3.884   0.537   7.322  0.1181  0.2831  0.2724
23203TIP3    H170491   3.870   0.502   7.233  0.3835 -1.3151  0.8214
23203TIP3    H270492   3.844   0.472   7.379  0.8154  0.7926  1.3661
23204TIP3   OH270493   8.975   9.297   9.630  0.5514  0.5524  0.4422
23204TIP3    H170494   8.895   9.249   9.613  0.3801  1.3401 -1.1214
23204TIP3    H270495   9.013   9.254   9.707 -1.6001  0.4924  1.5498
23205TIP3   OH270496   3.567   7.168   7.943  0.1698  0.3343 -0.2000
23205TIP3    H170497   3.625   7.223   7.996 -0.8104  1.1302  0.0556
23205TIP3    H270498   3.549   7.092   7.999  1.2910 -0.1404 -0.4458
23206TIP3   OH270499   5.248   9.687   6.581 -0.7563 -0.4800  0.1154
23206TIP3    H170500   5.188   9.628   6.628 -3.3958  1.3112 -0.7513
23206TIP3    H270501   5.190   9.746   6.533  1.6367  3.4452  1.6078
23207TIP3   OH270502   4.409   8.308   0.293  0.1816  0.0634 -0.4338
23207TIP3    H170503   4.429   8.217   0.314  0.5931  0.1252 -0.5445
23207TIP3    H270504   4.369   8.343   0.372 -0.0007 -0.2234 -0.4003
23208TIP3   OH270505   4.260   2.286   3.718  0.1541 -0.1023  0.9822
23208TIP3    H170506   4.249   2.194   3.742  1.6217 -0.4772  0.3131
23208TIP3    H270507   4.350   2.292   3.688 -0.0581  1.4737  0.5952
23209TIP3   OH270508   6.557   4.578   4.364 -0.0008  0.7778 -0.6014
23209TIP3    H170509   6.504   4.523   4.421 -1.0889  0.0100 -2.2847
23209TIP3    H270510   6.626   4.520   4.331 -0.3633  0.7531 -1.3405
23210TIP3   OH270511   0.115   5.733   0.769 -0.3772 -0.1015 -0.3117
23210TIP3    H170512   0.047   5.711   0.705 -1.1094 -0.0231  0.4145
23210TIP3    H270513   0.074   5.799   0.825  0.2930 -0.0756  0.1544
23211TIP3   OH270514   5.463   5.120   5.015 -0.4600  0.0366  0.4028
23211TIP3    H170515   5.456   5.031   4.981 -1.0920  0.1401  0.2513
23211TIP3    H270516   5.450   5.110   5.110  2.3149 -0.3823  0.8270
23212TIP3   OH270517  10.844   7.601   8.676 -0.3322 -0.4182 -0.6657
23212TIP3    H170518  10.756   7.592   8.712  0.2170 -1.7146  0.4484
23212TIP3    H270519  10.874   7.510   8.665  1.3386 -0.0141  0.2215
23213TIP3   OH270520   3.112   9.810   5.429 -0.7948 -0.3103 -0.0345
23213TIP3    H170521   3.126   9.727   5.475  0.4708  0.0628  0.2843
23213TIP3    H270522   3.151   9.876   5.486  0.1387  0.2484 -1.2700
23214TIP3   OH270523   2.150   9.883   1.309  0.0616  0.3009 -0.8954
23214TIP3    H170524   2.216   9.831   1.264  1.1172 -0.3706  1.2968
23214TIP3    H270525   2.190   9.970   1.317 -0.2518  0.5011 -1.5326
23215TIP3   OH270526  10.345   8.474   1.578 -0.1394  0.5425 -0.2461
23215TIP3    H170527  10.309   8.386   1.567  1.0072  0.0700 -0.3415
23215TIP3    H270528  10.423   8.475   1.524  1.4014  0.6879  1.8635
23216TIP3   OH270529   1.404   1.915   2.145 -0.7296  0.1334  0.5121
23216TIP3    H170530   1.472   1.863   2.102 -0.8127 -0.2399  0.8289
23216TIP3    H270531   1.444   2.000   2.160 -0.1215 -0.2694  1.2434
23217TIP3   OH270532   8.240   6.307   4.877 -0.4683  0.4727  0.6637
23217TIP3    H170533   8.287   6.354   4.808 -1.0051  0.8814  0.5681
23217TIP3    H270534   8.149   6.306   4.848 -0.5337 -0.2792  0.8621
23218TIP3   OH270535   9.028   1.765   6.904 -0.8174  0.3185  0.2066
23218TIP3    H170536   9.052   1.696   6.842  0.9893 -0.2888  1.4903
23218TIP3    H270537   8.938   1.744   6.930 -1.1197 -0.1811 -1.1829
23219TIP3   OH270538   4.515   7.209   5.078 -0.1073  0.4354  0.0826
23219TIP3    H170539   4.445   7.162   5.122  1.1029 -0.7890  0.7860
23219TIP3    H270540   4.583   7.220   5.144 -0.5009  3.7527  0.1306
23220TIP3   OH270541   9.970   6.860   2.160 -0.3244  0.1134  0.0910
23220TIP3    H170542   9.926   6.806   2.095 -1.1377  0.9410 -0.0703
23220TIP3    H270543  10.012   6.929   2.110  0.7319 -0.3716  0.2913
23221TIP3   OH270544   8.970   0.853   2.407 -0.0068 -0.4562 -0.3267
23221TIP3    H170545   9.021   0.907   2.346 -0.6484  1.7916  0.9837
23221TIP3    H270546   9.035   0.795   2.447  1.0314  0.4496 -0.6277
23222TIP3   OH270547   0.209   2.436   0.951  0.0520  0.5196  1.0349
23222TIP3    H170548   0.232   2.492   0.877  0.7510  0.9129  1.5404
23222TIP3    H270549   0.248   2.352   0.929 -0.0860  0.5190  0.7757
23223TIP3   OH270550   1.845   2.947   0.933  0.4086  0.2301  0.4057
23223TIP3    H170551   1.791   3.003   0.989 -1.0328  0.6638 -1.3154
23223TIP3    H270552   1.935   2.972   0.955 -0.1519  1.8547  1.0631
23224TIP3   OH270553   0.802   2.498   1.671 -0.2497  0.1181  0.7284
23224TIP3    H170554   0.709   2.480   1.654 -0.1821  1.6155 -1.6250
23224TIP3    H270555   0.801   2.550   1.751 -1.2834 -1.1503  1.5905
23225TIP3   OH270556   4.745   5.706   4.729  0.3236  0.3130  0.6653
23225TIP3    H170557   4.730   5.640   4.662 -0.5316 -0.6163  1.7357
23225TIP3    H270558   4.833   5.686   4.763  0.2135 -0.0504  0.7401
23226TIP3   OH270559   6.811   3.970   5.025 -0.0792  0.1140 -0.1117
23226TIP3    H170560   6.865   3.965   4.946  0.1393 -0.8303  0.0877
23226TIP3    H270561   6.806   3.880   5.057 -0.5566  0.4114  0.6907
23227TIP3   OH270562   6.308   4.956   6.326 -1.0799 -0.3448 -0.1252
23227TIP3    H170563   6.235   4.934   6.384 -1.6899 -0.6651 -0.9859
23227TIP3    H270564   6.270   4.953   6.238 -0.6271  1.9212 -0.4548
23228TIP3   OH270565   6.102   4.771   1.090 -0.1907  0.3965  0.1169
23228TIP3    H170566   6.111   4.760   1.185 -0.2371 -0.0470  0.0738
23228TIP3    H270567   6.009   4.784   1.075 -0.1073  1.1491  0.1926
23229TIP3   OH270568   6.132   7.242   4.224  0.1855 -0.6098  0.2657
23229TIP3    H170569   6.144   7.337   4.233 -1.7617 -0.1230 -1.5462
23229TIP3    H270570   6.199   7.204   4.281  2.8285  1.8092 -1.0042
23230TIP3   OH270571   7.834   7.909   1.864  0.0852  0.5761 -0.2912
23230TIP3    H170572   7.768   7.915   1.796 -1.0140 -0.4805  0.6221
23230TIP3    H270573   7.788   7.936   1.944  0.0423 -2.2280  0.7447
23231TIP3   OH270574   2.721   4.781   3.786 -0.1128  0.2027  0.9019
23231TIP3    H170575   2.776   4.703   3.787  1.5885  1.3284  0.0091
23231TIP3    H270576   2.632   4.748   3.803  0.7347 -1.7364  1.8803
23232TIP3   OH270577   0.713   5.818   0.344 -0.1447 -0.3754  0.2904
23232TIP3    H170578   0.697   5.817   0.438 -0.7252  0.0315  0.2009
23232TIP3    H270579   0.725   5.726   0.321 -1.7818 -0.6774  0.4748
23233TIP3   OH270580   9.182   2.302   2.285  0.0321 -0.6739  0.0716
23233TIP3    H170581   9.154   2.311   2.376  1.2221 -0.0356  0.3925
23233TIP3    H270582   9.272   2.335   2.284  0.4434 -1.7500 -1.1124
23234TIP3   OH270583   7.081   6.596   5.473 -0.6632 -0.3957  0.4340
23234TIP3    H170584   7.067   6.501   5.463 -1.2830 -0.3012  0.3836
23234TIP3    H270585   7.072   6.611   5.567  0.5008 -0.5483  0.5822
23235TIP3   OH270586   2.192   1.897   0.307 -0.2815  0.8537  0.6012
23235TIP3    H170587   2.229   1.872   0.392  0.6043 -0.3328 -0.1098
23235TIP3    H270588   2.117   1.840   0.296 -1.3971  2.1211  1.2830
23236TIP3   OH270589   7.427   9.593   8.195  0.3849  0.2130 -0.8480
23236TIP3    H170590   7.457   9.628   8.278  1.6446 -0.5982 -0.9276
23236TIP3    H270591   7.447   9.499   8.200 -0.4366 -0.0277 -1.6728
23237TIP3   OH270592   3.935   7.490   5.098 -0.0131 -0.4397 -0.1586
23237TIP3    H170593   4.002   7.558   5.106  0.0708 -0.5101 -0.2594
23237TIP3    H270594   3.890   7.491   5.183 -1.1875  0.9439 -0.7512
23238TIP3   OH270595   2.507   8.358   1.610  0.4623 -0.2017 -0.2307
23238TIP3    H170596   2.434   8.374   1.669  0.5374  1.7900 -0.5958
23238TIP3    H270597   2.517   8.263   1.609 -0.6900 -0.3862  1.5325
23239TIP3   OH270598   7.307   0.761   6.267 -0.2165 -0.1871  0.3536
23239TIP3    H170599   7.275   0.720   6.187 -0.1685 -1.2952  0.8826
23239TIP3    H270600   7.358   0.693   6.311  0.5724  0.7075  0.8615
23240TIP3   OH270601   8.174   2.079  10.605 -0.5829  0.3820  0.5673
23240TIP3    H170602   8.182   2.052  10.697  3.1254  0.1721  0.3316
23240TIP3    H270603   8.147   2.171  10.610 -2.4944 -0.1871  1.7290
23241TIP3   OH270604   2.578  10.799   6.303 -0.1951 -0.0283 -0.5466
23241TIP3    H170605   2.605  10.867   6.241 -0.3535  0.5897  0.0497
23241TIP3    H270606   2.487  10.820   6.324 -0.4076 -0.7255 -0.7483
23242TIP3   OH270607   1.598   6.808   5.626  0.2657 -0.0189 -0.3737
23242TIP3    H170608   1.661   6.783   5.558  1.0265 -0.1416  0.3604
23242TIP3    H270609   1.524   6.750   5.612  1.2343 -1.4323  0.1193
23243TIP3   OH270610   3.015   2.286   8.653 -0.0074  0.1539  0.1925
23243TIP3    H170611   2.948   2.225   8.622 -1.6762  1.0209  1.8628
23243TIP3    H270612   2.994   2.298   8.746  1.2010  2.0991  0.2559
23244TIP3   OH270613   7.937   1.367   5.862  0.1179  0.1029 -0.4127
23244TIP3    H170614   8.022   1.380   5.822  1.0469  0.6477  1.6371
23244TIP3    H270615   7.885   1.442   5.833  0.9563  0.8067 -0.1360
23245TIP3   OH270616   3.427   2.691   6.339 -0.5769  0.0937  0.4082
23245TIP3    H170617   3.479   2.689   6.258 -0.0720 -0.9217  0.7313
23245TIP3    H270618   3.341   2.659   6.313 -0.5077  0.0722  0.2048
23246TIP3   OH270619   9.093   7.173   3.204 -0.2548  0.1605 -0.7059
23246TIP3    H170620   9.184   7.167   3.177  1.5381 -0.0642  4.3474
23246TIP3    H270621   9.079   7.266   3.220  0.3095 -0.1099  1.6686
23247TIP3   OH270622   4.611   9.197   9.449  0.1643  0.2298  0.2392
23247TIP3    H170623   4.635   9.288   9.433 -1.3142  0.2819 -2.2378
23247TIP3    H270624   4.688   9.158   9.489  1.5084  2.1270 -0.3879
23248TIP3   OH270625   3.093   7.629  10.536 -0.3497 -0.2312  0.4118
23248TIP3    H170626   3.132   7.716  10.528 -0.5916 -0.0606  1.0472
23248TIP3    H270627   3.152   7.582  10.595 -0.3954 -0.3987  0.3248
23249TIP3   OH270628   1.263   2.207   6.674  0.3174 -0.2425  0.4369
23249TIP3    H170629   1.221   2.289   6.701  0.6197  0.4382 -1.0938
23249TIP3    H270630   1.222   2.140   6.730 -2.6895  0.3898 -0.7778
23250TIP3   OH270631   1.230   9.769   8.592 -0.2680  0.3976 -0.5314
23250TIP3    H170632   1.209   9.682   8.558 -0.6742  0.8898 -1.5867
23250TIP3    H270633   1.313   9.758   8.639 -0.2881 -0.5450 -0.7154
23251TIP3   OH270634   8.553   8.857   9.899  0.1343 -0.0754 -0.4051
23251TIP3    H170635   8.634   8.855   9.950 -0.8068 -0.6675  1.1423
23251TIP3    H270636   8.512   8.940   9.923 -0.8822 -0.8931  0.7673
23252TIP3   OH270637   8.586   7.651   6.367  0.2273  0.6296  0.0855
23252TIP3    H170638   8.561   7.573   6.317 -0.6563  1.8436 -1.4831
23252TIP3    H270639   8.681   7.656   6.358  0.2024  0.1873 -0.5281
23253TIP3   OH270640   6.681   5.687   3.080 -0.0104  0.6161  0.6151
23253TIP3    H170641   6.710   5.600   3.052 -0.3448  0.8149 -0.3844
23253TIP3    H270642   6.692   5.742   3.003 -1.2441  1.1197  0.7788
23254TIP3   OH270643   0.968   5.766   9.995 -0.0551 -0.3296 -0.1419
23254TIP3    H170644   0.896   5.748   9.935 -0.2193  0.4988 -0.2082
23254TIP3    H270645   1.023   5.829   9.949 -0.4877  0.7618  0.7797
23255TIP3   OH270646   4.814   5.198   8.636  0.0464  0.0254  0.2516
23255TIP3    H170647   4.754   5.176   8.564 -2.1480  1.7920  1.4058
23255TIP3    H270648   4.764   5.179   8.715  1.8280 -0.4015  1.3182
23256TIP3   OH270649   9.881   8.626   3.254  0.4732 -0.2346 -0.6176
23256TIP3    H170650   9.890   8.706   3.305  0.4338 -0.8177  0.3277
23256TIP3    H270651   9.963   8.578   3.270 -0.6086 -1.6452  1.1021
23257TIP3   OH270652   4.412   1.316   7.025 -0.0265  0.3799  0.3385
23257TIP3    H170653   4.447   1.227   7.017  1.0034  0.8734 -1.3050
23257TIP3    H270654   4.337   1.317   6.966  0.6641  0.8958 -0.5541
23258TIP3   OH270655   8.295   3.989   4.057 -0.4518 -0.5715 -0.0216
23258TIP3    H170656   8.277   4.069   4.006  0.3423  0.4331  1.2052
23258TIP3    H270657   8.279   3.918   3.996 -1.1627  0.5277 -1.1783
23259TIP3   OH270658   5.594   0.518  10.649 -0.4456  0.0447  0.2294
23259TIP3    H170659   5.601   0.433  10.606 -3.1003 -1.0705  1.7687
23259TIP3    H270660   5.672   0.566  10.621  0.1420 -2.1583 -2.2437
23260TIP3   OH270661   2.635  10.141   4.851  0.0125 -0.1560 -0.2764
23260TIP3    H170662   2.601  10.064   4.806 -2.0799  0.0480  0.8546
23260TIP3    H270663   2.718  10.112   4.889 -0.0177 -1.4022 -1.1100
23261TIP3   OH270664   0.913   4.310   7.170 -0.1054 -0.1720  0.1768
23261TIP3    H170665   0.896   4.371   7.241  0.4793 -0.8006  0.8780
23261TIP3    H270666   0.973   4.357   7.112 -2.3913  1.2304 -1.1811
23262TIP3   OH270667   8.365   6.760   8.461 -1.5260  0.3082 -0.1586
23262TIP3    H170668   8.350   6.688   8.523 -1.4269  0.1286 -0.3419
23262TIP3    H270669   8.444   6.734   8.413 -1.7013  0.3636 -0.4807
23263TIP3   OH270670   2.489   0.515   0.212 -0.0021  0.0830 -0.1356
23263TIP3    H170671   2.501   0.607   0.189 -1.9929  0.6786  0.9690
23263TIP3    H270672   2.576   0.484   0.234  1.0139  1.1621 -2.2957
23264TIP3   OH270673   5.535   9.427   8.061 -0.1222  0.0567  0.4736
23264TIP3    H170674   5.614   9.437   8.009  1.1501 -1.2783  2.0128
23264TIP3    H270675   5.501   9.340   8.037 -1.5784  0.8993 -0.6928
23265TIP3   OH270676   4.499   8.598   8.170 -0.5138 -0.0149 -0.0907
23265TIP3    H170677   4.504   8.598   8.266  1.8010  0.0915 -0.1605
23265TIP3    H270678   4.565   8.661   8.142 -0.6485 -0.5685 -1.7781
23266TIP3   OH270679   3.423   2.594   5.924  0.2698  0.0018 -0.6570
23266TIP3    H170680   3.453   2.551   6.004 -1.4140 -0.3054 -0.1464
23266TIP3    H270681   3.503   2.625   5.881  1.4197 -2.2181 -0.2393
23267TIP3   OH270682   6.520   5.544   3.657 -0.2536 -0.0530  0.2244
23267TIP3    H170683   6.509   5.468   3.599 -0.5809 -0.8342  1.2840
23267TIP3    H270684   6.447   5.602   3.634  0.3288  0.2417 -0.9999
23268TIP3   OH270685   1.082   4.907   1.931 -0.1062  0.0617  0.2626
23268TIP3    H170686   1.122   4.860   2.005  0.7942 -0.8336 -0.7558
23268TIP3    H270687   1.149   4.969   1.903 -0.0212 -0.3464 -0.4621
23269TIP3   OH270688  10.829   2.511   8.649 -0.1655 -0.1166 -0.2334
23269TIP3    H170689  10.835   2.562   8.729  1.5644 -0.3508 -0.1795
23269TIP3    H270690  10.831   2.576   8.579 -1.5625  0.0793 -0.1272
23270TIP3   OH270691   4.285   0.793  10.395 -0.0810 -0.4913  0.3244
23270TIP3    H170692   4.275   0.724  10.461  0.9545 -0.8471  0.1365
23270TIP3    H270693   4.374   0.827  10.409 -1.1455  2.0728  1.5918
23271TIP3   OH270694  10.400   4.958   2.556 -0.4915  0.4193 -0.1338
23271TIP3    H170695  10.367   4.916   2.636  0.2031  0.9759  0.4601
23271TIP3    H270696  10.389   4.892   2.488  1.2015 -1.0008  0.8921
23272TIP3   OH270697   0.185   6.966   3.014 -1.0799  0.3190 -0.2605
23272TIP3    H170698   0.184   6.990   2.921  2.3117 -1.0163 -0.7718
23272TIP3    H270699   0.172   6.871   3.014  1.3587 -0.0827  0.3184
23273TIP3   OH270700   6.436   5.154   7.844  0.0478 -0.3689  0.5197
23273TIP3    H170701   6.427   5.157   7.749  0.6148  0.4650  0.4893
23273TIP3    H270702   6.493   5.227   7.866 -1.4311  0.5160  1.6607
23274TIP3   OH270703   6.086   1.757  10.148  0.1904 -0.5042 -0.0177
23274TIP3    H170704   6.080   1.680  10.091 -0.2115 -1.6239  1.4591
23274TIP3    H270705   6.132   1.725  10.226 -0.8755  0.4618  1.0541
23275TIP3   OH270706   5.854   3.791   6.375 -0.1353  0.2194  0.3437
23275TIP3    H170707   5.764   3.810   6.402 -0.7278 -0.7011 -0.8488
23275TIP3    H270708   5.871   3.703   6.409 -0.9632 -1.0450 -2.1831
23276TIP3   OH270709  10.480   7.302   4.274 -0.0341 -0.4086  0.6933
23276TIP3    H170710  10.515   7.351   4.348  0.6853  1.1110 -0.5998
23276TIP3    H270711  10.550   7.302   4.209 -1.5216  0.6111 -1.0112
23277TIP3   OH270712   1.753   1.182   7.757 -0.1613 -0.4064 -0.0491
23277TIP3    H170713   1.724   1.254   7.813 -0.0269 -0.3605 -0.0390
23277TIP3    H270714   1.675   1.127   7.747 -0.4032  0.0116 -0.4792
23278TIP3   OH270715   9.297   8.116   7.863 -0.0703  0.6122 -0.3821
23278TIP3    H170716   9.288   8.083   7.774  1.7250 -1.4669  0.1197
23278TIP3    H270717   9.224   8.077   7.911 -0.9853  1.6619 -0.8908
23279TIP3   OH270718   3.923   8.201   4.011 -1.3631  0.2508  0.7106
23279TIP3    H170719   3.851   8.148   3.977 -2.0940  0.8291  1.3403
23279TIP3    H270720   3.881   8.270   4.062 -0.3961  1.0177  0.5037
23280TIP3   OH270721   8.969   4.268   1.974 -0.1093  0.0173 -0.4491
23280TIP3    H170722   9.057   4.303   1.992 -0.5076  1.1108 -0.5394
23280TIP3    H270723   8.922   4.279   2.057 -0.4724  0.4526 -0.7063
23281TIP3   OH270724   6.650   9.153   5.175  0.1120  0.1859 -0.9628
23281TIP3    H170725   6.730   9.112   5.142  0.3799  0.2215 -0.3726
23281TIP3    H270726   6.636   9.229   5.117  1.1488  0.8455 -0.3769
23282TIP3   OH270727   0.295   5.667   3.660  0.4795 -0.0959 -1.5417
23282TIP3    H170728   0.282   5.573   3.647 -3.2596  0.4846 -3.7424
23282TIP3    H270729   0.319   5.700   3.574  0.8132  1.0672 -1.0245
23283TIP3   OH270730   5.184   2.226   1.545  0.1063 -0.8286 -0.0532
23283TIP3    H170731   5.103   2.176   1.547 -0.9407  0.7902 -0.2313
23283TIP3    H270732   5.195   2.251   1.454 -0.2916  0.6188  0.2631
23284TIP3   OH270733   9.913   1.686   1.304  0.3603 -0.3802  0.1942
23284TIP3    H170734   9.963   1.690   1.222  0.1940 -0.1228  0.1037
23284TIP3    H270735   9.933   1.600   1.340  0.1810 -0.6224 -0.2764
23285TIP3   OH270736  10.890   8.661   3.903  0.4001  0.9331 -0.0564
23285TIP3    H170737  10.824   8.592   3.911 -0.7121  1.9149 -0.5495
23285TIP3    H270738  10.958   8.636   3.965  0.1083 -0.6900 -0.3310
23286TIP3   OH270739   1.915   6.305   5.303 -0.4907  0.1663  0.0358
23286TIP3    H170740   1.945   6.218   5.330  0.5691 -0.0820 -1.7774
23286TIP3    H270741   1.830   6.315   5.346 -0.1140 -1.2795  1.1998
23287TIP3   OH270742   1.635   6.616   2.028 -0.0906 -0.0010 -0.0355
23287TIP3    H170743   1.678   6.698   2.049  0.5724 -0.3955  0.1722
23287TIP3    H270744   1.620   6.573   2.112 -0.2997 -0.1602 -0.1506
23288TIP3   OH270745   0.457   8.471   3.813 -0.1601  0.0089 -0.0937
23288TIP3    H170746   0.536   8.419   3.824 -0.6549 -0.1759  4.1333
23288TIP3    H270747   0.385   8.408   3.824 -0.8645  0.6629 -0.7948
23289TIP3   OH270748   6.398   3.613   9.525  0.1994 -0.3514 -0.2914
23289TIP3    H170749   6.467   3.574   9.472  0.3918  0.2772 -0.5188
23289TIP3    H270750   6.321   3.613   9.468  0.3996  0.3009 -0.5692
23290TIP3   OH270751   6.179   2.735   5.166  0.2287 -0.2592  0.5112
23290TIP3    H170752   6.097   2.746   5.118 -0.3696  1.8937  1.8976
23290TIP3    H270753   6.188   2.640   5.176 -1.9200 -0.5656  0.0220
23291TIP3   OH270754   9.397  10.423   6.845 -0.6819 -0.5218 -0.0493
23291TIP3    H170755   9.344  10.363   6.897  0.7872 -1.9077 -0.0890
23291TIP3    H270756   9.485  10.415   6.880  0.3633 -1.4271 -2.6366
23292TIP3   OH270757   8.739   7.394   1.764 -0.2138  0.0305 -0.3328
23292TIP3    H170758   8.756   7.343   1.843 -1.7461  0.3612  0.2255
23292TIP3    H270759   8.773   7.481   1.783  2.0638 -0.5834 -1.1508
23293TIP3   OH270760   0.547   8.310   7.321 -0.0439  0.6914  0.2637
23293TIP3    H170761   0.545   8.241   7.388 -0.0590  1.1097  0.6955
23293TIP3    H270762   0.455   8.334   7.309 -0.1244  0.0785 -0.4807
23294TIP3   OH270763  10.542   4.943   1.353  0.5166 -0.4867  0.3907
23294TIP3    H170764  10.532   4.989   1.270  1.4645  4.7709  2.8175
23294TIP3    H270765  10.454   4.916   1.377 -0.0422 -0.3199 -1.3653
23295TIP3   OH270766   8.782   4.657   7.841  0.8792 -0.3169 -0.2214
23295TIP3    H170767   8.742   4.720   7.900  3.8939  0.0634  1.6442
23295TIP3    H270768   8.795   4.705   7.759 -0.1320  0.3054 -0.0268
23296TIP3   OH270769   5.380   9.398   8.881  0.2597  0.2354 -0.0684
23296TIP3    H170770   5.313   9.446   8.833 -0.9481  0.8227  2.0607
23296TIP3    H270771   5.386   9.443   8.965  0.2159 -2.3621  1.4294
23297TIP3   OH270772   4.881   3.433   1.158  0.1377  0.2368  0.2559
23297TIP3    H170773   4.913   3.510   1.112  1.1545  0.1244  0.7374
23297TIP3    H270774   4.882   3.457   1.250 -0.4712 -0.0286  0.3371
23298TIP3   OH270775   1.562   4.456   6.481 -0.1743 -0.5036 -0.4007
23298TIP3    H170776   1.550   4.528   6.543 -1.9208 -1.0770 -0.0146
23298TIP3    H270777   1.531   4.379   6.528 -0.1887 -1.1855 -1.5021
23299TIP3   OH270778  10.148   1.819   8.657  0.1785 -0.3052 -0.1202
23299TIP3    H170779  10.190   1.793   8.739  0.1180 -1.3183 -0.3940
23299TIP3    H270780  10.133   1.736   8.611  0.4340  0.2674 -1.2682
23300TIP3   OH270781   4.789   7.442   6.692 -0.2322 -0.5921 -0.1530
23300TIP3    H170782   4.867   7.416   6.643 -1.6380 -2.8649 -1.3353
23300TIP3    H270783   4.819   7.451   6.782  0.8866 -4.7708  0.1016
23301TIP3   OH270784   8.183   4.686   6.607 -0.0588 -0.1714 -0.0334
23301TIP3    H170785   8.189   4.770   6.561  1.8189 -0.0601  0.3387
23301TIP3    H270786   8.178   4.710   6.700 -1.0699 -0.4489 -0.0112
23302TIP3   OH270787   6.274   1.088   8.961 -0.0221 -0.4540 -0.8287
23302TIP3    H170788   6.220   1.040   9.025 -1.3468  1.1346 -0.6859
23302TIP3    H270789   6.286   1.026   8.889  1.2918 -2.2030  0.8032
23303TIP3   OH270790   5.872   6.101   9.699  0.5651 -0.4298  0.0229
23303TIP3    H170791   5.897   6.186   9.736 -0.0430 -0.7557  1.2134
23303TIP3    H270792   5.900   6.106   9.607  1.9360  0.4649  0.4641
23304TIP3   OH270793   8.726   6.210   3.335  0.5713 -0.6100  0.2302
23304TIP3    H170794   8.631   6.214   3.342  0.7006 -0.1215  2.0775
23304TIP3    H270795   8.745   6.123   3.301 -0.4546 -1.5785  2.0433
23305TIP3   OH270796   3.307   3.986   7.086 -0.1684 -0.7187 -0.2490
23305TIP3    H170797   3.248   4.059   7.107 -0.4356  0.0543 -3.1862
23305TIP3    H270798   3.373   4.024   7.029  0.3845 -2.5277 -0.8889
23306TIP3   OH270799   5.319   5.693  10.227 -0.0167  0.3669 -0.0910
23306TIP3    H170800   5.367   5.627  10.176 -0.5525  0.8853 -1.3109
23306TIP3    H270801   5.349   5.680  10.317  1.0744 -0.4834 -0.5505
23307TIP3   OH270802   9.836   7.319  10.781 -0.2005  0.1223 -0.1826
23307TIP3    H170803   9.875   7.387  10.726 -0.2476  0.3282  0.0395
23307TIP3    H270804   9.829   7.243  10.723  1.2763 -0.1759 -0.0090
23308TIP3   OH270805   3.960   8.598   8.225  0.0393 -0.2019  0.0369
23308TIP3    H170806   4.042   8.566   8.263 -0.9144 -1.7032  0.9579
23308TIP3    H270807   3.986   8.669   8.167  2.1767 -1.7744 -1.0466
23309TIP3   OH270808   1.479   0.553   8.879  0.3703  0.2831 -0.4071
23309TIP3    H170809   1.429   0.497   8.938  0.1754  1.7454  0.8935
23309TIP3    H270810   1.570   0.531   8.896  0.2560 -0.8569 -1.1946
23310TIP3   OH270811   9.667  10.890   5.158 -0.2207  0.9367 -0.1402
23310TIP3    H170812   9.624  10.966   5.196 -1.1140  0.2338  0.2882
23310TIP3    H270813   9.606  10.858   5.092 -0.3466 -0.0390  0.4364
23311TIP3   OH270814   5.556  10.872   2.105  0.0875 -0.0370  0.2717
23311TIP3    H170815   5.568  10.870   2.010 -1.7832 -1.1061  0.0077
23311TIP3    H270816   5.570  10.782   2.133 -0.2427  0.0919  0.8755
23312TIP3   OH270817   0.884   7.695   7.011  0.6322  0.3780 -0.3745
23312TIP3    H170818   0.796   7.714   7.042  0.9157  1.4068 -0.1579
23312TIP3    H270819   0.926   7.651   7.085  0.7404  1.1826  0.0505
23313TIP3   OH270820   5.427   9.799   4.135 -0.3074  0.0174 -0.2586
23313TIP3    H170821   5.437   9.704   4.124  0.8648 -0.0071  0.8448
23313TIP3    H270822   5.505   9.836   4.092 -1.0738  0.5466 -1.2456
23314TIP3   OH270823   0.416   9.420  10.028 -0.2475 -0.2191  0.4769
23314TIP3    H170824   0.501   9.399  10.067  0.1770  1.5769  0.5915
23314TIP3    H270825   0.431   9.414   9.933 -0.2004 -0.6076  0.5058
23315TIP3   OH270826   6.356   7.766   1.521  0.4150 -0.0110 -0.3076
23315TIP3    H170827   6.388   7.842   1.472 -0.0169  1.5438  1.7021
23315TIP3    H270828   6.321   7.803   1.602  1.8171 -2.5028  1.5710
23316TIP3   OH270829   0.695   2.102   1.983  0.6525 -0.1618  0.0168
23316TIP3    H170830   0.627   2.163   1.955 -0.0779 -1.2647 -0.6599
23316TIP3    H270831   0.661   2.016   1.960  0.8886 -0.9954  2.5214
23317TIP3   OH270832   8.907   8.345   8.851  0.0112 -0.2247 -0.4929
23317TIP3    H170833   8.874   8.382   8.932 -1.0047  0.5255 -1.2307
23317TIP3    H270834   8.962   8.414   8.813 -0.3417 -0.1834 -0.9350
23318TIP3   OH270835   6.027   7.882   5.530  0.5658 -0.1369  0.0445
23318TIP3    H170836   6.087   7.854   5.600 -1.5405 -1.1709  1.5236
23318TIP3    H270837   6.016   7.804   5.476  2.3583  0.7183 -1.6748
23319TIP3   OH270838   7.431   3.302   3.126 -0.1944  0.0632  0.1494
23319TIP3    H170839   7.444   3.279   3.034 -1.3283  0.5172 -0.1397
23319TIP3    H270840   7.366   3.239   3.157  1.9757 -1.7415  1.3813
23320TIP3   OH270841   8.880   3.367   4.369  0.0042 -0.1862 -0.2080
23320TIP3    H170842   8.950   3.312   4.405  0.1450 -0.1307 -0.3967
23320TIP3    H270843   8.918   3.405   4.290 -0.3952 -0.5328 -0.5744
23321TIP3   OH270844   8.061   9.251   7.845 -0.2560  0.1071  0.3197
23321TIP3    H170845   8.105   9.171   7.816 -1.3687 -0.7109  0.7720
23321TIP3    H270846   8.003   9.274   7.773 -1.4570 -0.7146  0.9729
23322TIP3   OH270847   1.349   5.376   7.158  0.0181  0.3088  0.7221
23322TIP3    H170848   1.387   5.301   7.112 -1.4436 -0.5247  0.8105
23322TIP3    H270849   1.329   5.439   7.089  1.3454  0.6852  0.6562
23323TIP3   OH270850   5.580   4.765   6.929 -0.0362  0.9509  0.0307
23323TIP3    H170851   5.572   4.741   6.837 -1.4622 -1.2052  0.6353
23323TIP3    H270852   5.674   4.766   6.946  0.2025 -0.0767 -1.1208
23324TIP3   OH270853   1.910   5.227   9.714 -0.1800 -0.8645 -0.3163
23324TIP3    H170854   1.921   5.135   9.689 -1.0078 -1.2674  0.7538
23324TIP3    H270855   1.818   5.235   9.737 -0.5275  0.6642 -2.0088
23325TIP3   OH270856   6.370   7.490   0.092 -0.1512 -0.2406 -0.1964
23325TIP3    H170857   6.349   7.570   0.044 -2.1617 -0.0675  0.8626
23325TIP3    H270858   6.423   7.519   0.166  2.2845 -0.4163 -1.7517
23326TIP3   OH270859   7.951   1.710   1.567  0.1165 -1.2451  0.6964
23326TIP3    H170860   7.873   1.713   1.512  0.6604 -1.2891 -0.0870
23326TIP3    H270861   8.024   1.711   1.505  0.7824  0.7015  1.4534
23327TIP3   OH270862   3.274   0.819   6.740 -0.8236  0.6575  0.4515
23327TIP3    H170863   3.239   0.879   6.675  1.5644  0.1750 -1.4085
23327TIP3    H270864   3.329   0.874   6.796  1.1804  0.3412 -1.1132
23328TIP3   OH270865   7.178   7.343   3.139 -0.4037  0.4191 -0.0539
23328TIP3    H170866   7.273   7.351   3.132 -0.4070 -0.1076 -0.8569
23328TIP3    H270867   7.159   7.363   3.231  0.5463 -0.0599  0.2599
23329TIP3   OH270868   6.948   6.217   9.523  0.0703  0.1224 -0.2528
23329TIP3    H170869   6.991   6.158   9.462 -2.6959  0.1515 -2.4407
23329TIP3    H270870   6.927   6.295   9.472 -0.4465  1.1021  1.3479
23330TIP3   OH270871   9.781   5.763   5.822  0.1033  0.0372 -0.1365
23330TIP3    H170872   9.867   5.805   5.830  1.9363 -3.1207 -1.3504
23330TIP3    H270873   9.768   5.720   5.906  1.4425 -2.2650 -1.0188
23331TIP3   OH270874   9.899   2.356   3.249 -0.0369 -0.2255  0.0988
23331TIP3    H170875   9.909   2.373   3.343  2.7011  0.1898 -0.1783
23331TIP3    H270876   9.903   2.261   3.242 -1.4057 -0.3324  0.4615
23332TIP3   OH270877   4.773   7.955   7.494  0.5430  0.2531  0.8949
23332TIP3    H170878   4.757   7.872   7.540  0.4532  0.3713  1.0755
23332TIP3    H270879   4.702   8.012   7.523 -0.4543 -0.1675 -0.6066
23333TIP3   OH270880   1.367   3.214   7.409  0.1389  0.2811  0.4352
23333TIP3    H170881   1.397   3.300   7.437 -1.5711  1.1289 -0.2066
23333TIP3    H270882   1.342   3.169   7.489  1.1023  0.3432  0.7787
23334TIP3   OH270883   9.559  10.142   6.347 -0.7496  0.2174  0.0642
23334TIP3    H170884   9.544  10.185   6.263  1.0584  0.7038 -0.0528
23334TIP3    H270885   9.564  10.049   6.326 -3.0716  0.0269  0.0843
23335TIP3   OH270886   6.819   6.418   2.597  0.1617 -0.2896 -0.0427
23335TIP3    H170887   6.873   6.383   2.668  1.0889 -0.3337 -0.7653
23335TIP3    H270888   6.729   6.397   2.624  0.4445  0.2699  1.4293
23336TIP3   OH270889   5.353   0.275   4.333  0.2638  0.1912 -0.5522
23336TIP3    H170890   5.283   0.260   4.396  1.1148  2.3504  1.0418
23336TIP3    H270891   5.402   0.192   4.332 -1.5985 -0.9615 -0.8648
23337TIP3   OH270892   5.847   7.302   1.090  0.2182 -0.6043 -0.2495
23337TIP3    H170893   5.774   7.272   1.036  0.7054  0.7750 -1.7565
23337TIP3    H270894   5.924   7.261   1.051  0.4748 -0.4165  0.0547
23338TIP3   OH270895   9.417   0.393   2.656 -0.1614 -0.3936 -0.4592
23338TIP3    H170896   9.353   0.451   2.697 -0.7392 -1.2824 -0.0523
23338TIP3    H270897   9.498   0.406   2.705 -0.3754 -0.1678 -0.1646
23339TIP3   OH270898   1.722  10.490   5.215  0.2456 -0.4331  0.1413
23339TIP3    H170899   1.630  10.464   5.207  0.6189 -1.5656 -0.8599
23339TIP3    H270900   1.742  10.483   5.308 -0.7448  0.0692  0.3964
23340TIP3   OH270901   2.114  10.598   8.211 -0.1791 -0.3383  0.2907
23340TIP3    H170902   2.038  10.583   8.267 -0.7085 -2.4457 -0.8696
23340TIP3    H270903   2.137  10.511   8.178  3.6123 -0.0342  1.6013
23341TIP3   OH270904   4.563   2.494   1.284  0.2633  0.3191  0.0224
23341TIP3    H170905   4.538   2.473   1.374 -1.4558  0.2150 -0.4512
23341TIP3    H270906   4.579   2.588   1.285  1.5410  0.1203  0.6998
23342TIP3   OH270907   2.168   5.746   2.356 -0.3335  0.0170  0.2896
23342TIP3    H170908   2.159   5.792   2.440 -0.3024  0.4107  0.0805
23342TIP3    H270909   2.258   5.714   2.357 -0.1914  0.4066  0.2159
23343TIP3   OH270910   4.537   8.863   3.928 -0.5021  0.6957  0.0187
23343TIP3    H170911   4.479   8.857   3.852 -0.4992  1.1247 -0.0188
23343TIP3    H270912   4.505   8.795   3.987 -2.6012  2.4382  1.0470
23344TIP3   OH270913   6.623   9.833  10.581  0.1358  0.0330 -0.0486
23344TIP3    H170914   6.710   9.857  10.551  0.1251  0.4825  0.2674
23344TIP3    H270915   6.622   9.856  10.674  0.5428 -2.3289  0.6133
23345TIP3   OH270916   6.550   4.882   1.231  0.0582  0.2532  0.2180
23345TIP3    H170917   6.529   4.973   1.210 -0.4946 -0.1259 -1.0046
23345TIP3    H270918   6.609   4.854   1.161 -0.6012 -0.6145 -0.0176
23346TIP3   OH270919   1.612   5.080   2.576  0.5953  0.1495  0.1222
23346TIP3    H170920   1.530   5.069   2.625  0.8057  0.5159  0.5594
23346TIP3    H270921   1.614   5.173   2.552  1.2844  0.3329  0.8430
23347TIP3   OH270922   3.287   2.210   9.128 -0.4645  0.2150 -0.6820
23347TIP3    H170923   3.300   2.293   9.084 -0.9374  0.5014 -0.2901
23347TIP3    H270924   3.257   2.234   9.216 -0.1638 -0.3566 -0.4163
23348TIP3   OH270925   8.039   3.417   1.435  0.5283 -0.1409 -0.0497
23348TIP3    H170926   7.988   3.344   1.398 -0.0333  0.2478 -0.0460
23348TIP3    H270927   8.112   3.374   1.481  0.0355 -0.7151  0.2088
23349TIP3   OH270928   2.359   1.023   3.149 -0.3994 -0.6004 -0.0110
23349TIP3    H170929   2.422   0.951   3.144 -0.2886 -0.4190 -1.5043
23349TIP3    H270930   2.404   1.097   3.110 -1.0872 -0.1397  0.0612
23350TIP3   OH270931   0.515   6.867   4.200 -0.1767  0.0733 -0.4780
23350TIP3    H170932   0.529   6.959   4.178 -0.2964 -0.1050 -1.3490
23350TIP3    H270933   0.558   6.819   4.129  1.1037 -0.5679  0.7051
23351TIP3   OH270934   4.235   5.192   9.240  0.1642  0.6610  0.2654
23351TIP3    H170935   4.197   5.237   9.316  0.2015 -0.6620  1.1039
23351TIP3    H270936   4.329   5.206   9.249  0.3788 -1.1816  1.6814
23352TIP3   OH270937   5.333   4.077   9.541  0.0034 -0.1334  0.2217
23352TIP3    H170938   5.323   4.064   9.635 -1.5030 -0.1903  0.0783
23352TIP3    H270939   5.335   3.989   9.504  3.1380 -0.2324  0.3608
23353TIP3   OH270940   1.929   1.487   7.766  0.1998  0.0043 -0.4706
23353TIP3    H170941   1.851   1.444   7.801  1.0154 -0.2040  1.2239
23353TIP3    H270942   1.913   1.580   7.781 -0.1182  0.0342 -0.9906
23354TIP3   OH270943   3.623   5.241  10.187 -0.2449 -0.1885  0.2342
23354TIP3    H170944   3.645   5.291  10.108 -0.9373 -0.5217 -0.1732
23354TIP3    H270945   3.622   5.150  10.158 -1.3445 -0.2479  0.4297
23355TIP3   OH270946   2.461   7.843   3.444  0.3649  0.3333  0.3029
23355TIP3    H170947   2.464   7.855   3.539  0.4798  2.3818  0.0906
23355TIP3    H270948   2.381   7.793   3.428 -0.3697  1.1190  1.3891
23356TIP3   OH270949   3.997   7.987   0.396  0.0711  0.1692  0.0676
23356TIP3    H170950   3.970   8.078   0.407 -0.0288  0.1083  0.3298
23356TIP3    H270951   3.965   7.943   0.474 -3.1120 -0.8398 -1.6121
23357TIP3   OH270952   5.127   6.873   4.224 -0.1744 -0.1104 -0.4334
23357TIP3    H170953   5.087   6.811   4.285  0.1448 -0.8664 -0.9775
23357TIP3    H270954   5.215   6.839   4.210 -0.0604  0.3655 -0.8988
23358TIP3   OH270955   2.390   5.018   1.273 -0.0405 -0.4362 -0.1539
23358TIP3    H170956   2.439   5.024   1.355 -0.1599  1.1657 -0.1745
23358TIP3    H270957   2.455   4.986   1.209  0.2333 -1.0047  0.3991
23359TIP3   OH270958   4.349   8.931  10.831  0.1604  0.1074 -0.3094
23359TIP3    H170959   4.427   8.953  10.882  0.9784 -1.9260 -0.5454
23359TIP3    H270960   4.376   8.855  10.779 -1.2964  0.7660 -2.1583
23360TIP3   OH270961   5.899   4.952  10.117 -0.4371 -0.1411 -0.3492
23360TIP3    H170962   5.937   5.027  10.163  0.2578 -0.4485 -0.4129
23360TIP3    H270963   5.817   4.935  10.164 -0.9043  1.0285 -0.7106
23361TIP3   OH270964   4.822   8.977  10.757  0.1753 -0.0081 -0.4555
23361TIP3    H170965   4.761   9.004  10.689 -0.4503  1.2366  0.5499
23361TIP3    H270966   4.891   8.931  10.710 -0.6501  0.0831 -1.8261
23362TIP3   OH270967  10.643   0.275   5.372 -0.4451 -0.2084  0.2782
23362TIP3    H170968  10.708   0.323   5.425 -1.0594  0.2113  0.6685
23362TIP3    H270969  10.574   0.252   5.434 -1.1895  0.3095 -0.3349
23363TIP3   OH270970   1.154   0.625  10.388 -0.1286  0.1992  0.1589
23363TIP3    H170971   1.223   0.579  10.342 -0.2057  0.0414  0.2006
23363TIP3    H270972   1.198   0.666  10.463  0.3061  1.7900 -0.9081
23364TIP3   OH270973   9.001   3.063   9.414  0.1011 -0.2762  0.0675
23364TIP3    H170974   9.094   3.045   9.429 -0.3100 -2.5713  0.3355
23364TIP3    H270975   8.963   2.976   9.401 -1.7858  0.7109 -1.4121
23365TIP3   OH270976   1.280   7.775  10.713 -0.2133 -0.1026 -0.2572
23365TIP3    H170977   1.291   7.707  10.647 -0.1534  1.0794 -1.5164
23365TIP3    H270978   1.361   7.825  10.710  1.1524 -1.8333  2.9768
23366TIP3   OH270979   3.570   0.022   1.939  0.1890  0.8132  0.4477
23366TIP3    H170980   3.528   0.070   2.010 -2.1940  1.6485 -1.4193
23366TIP3    H270981   3.544  -0.069   1.953  0.2881  0.8632  0.9837
23367TIP3   OH270982   2.014   7.303   4.917 -0.0738  0.3815  0.2410
23367TIP3    H170983   2.031   7.269   5.005 -0.5033  0.5016  0.3729
23367TIP3    H270984   2.013   7.398   4.928 -0.8191  0.3812  0.2393
23368TIP3   OH270985   2.716  10.597   0.130  0.1685  0.4682  0.1548
23368TIP3    H170986   2.674  10.516   0.101 -1.8596  0.9062  1.6129
23368TIP3    H270987   2.722  10.650   0.051 -1.7859  0.2311 -0.2030
23369TIP3   OH270988   4.547   4.557   8.770 -0.0975  0.2659  0.5941
23369TIP3    H170989   4.505   4.539   8.854  0.6740 -0.9952  0.7257
23369TIP3    H270990   4.515   4.644   8.746 -0.7156  0.4400  1.9486
23370TIP3   OH270991  10.527   8.343   5.457 -0.4996 -0.2982 -0.6074
23370TIP3    H170992  10.618   8.359   5.432 -0.0659  0.1456  1.0786
23370TIP3    H270993  10.478   8.415   5.418 -0.0153 -0.1766 -0.9958
23371TIP3   OH270994   2.900   3.856   7.663  0.6318 -0.4512 -0.0691
23371TIP3    H170995   2.845   3.905   7.601  2.4974  2.1937  0.1847
23371TIP3    H270996   2.837   3.814   7.722 -1.1924  1.3813 -0.5611
23372TIP3   OH270997   7.715   6.167   1.938 -1.0304  1.0192  0.2790
23372TIP3    H170998   7.781   6.127   1.882 -2.2700  2.0130 -2.0685
23372TIP3    H270999   7.765   6.208   2.009  0.4498 -2.0239  1.1271
23373TIP3   OH271000   6.930   5.970   4.547  0.0570  0.0432 -0.1655
23373TIP3    H171001   6.838   5.995   4.546 -0.2495 -0.9736  0.6002
23373TIP3    H271002   6.975   6.043   4.504 -1.0269  0.8364 -0.0126
23374TIP3   OH271003   0.528   5.844   7.847  0.1674  0.2613 -0.1069
23374TIP3    H171004   0.533   5.748   7.843  2.4824  0.2582  1.1376
23374TIP3    H271005   0.448   5.862   7.895 -0.5087 -1.0261 -0.7044
23375TIP3   OH271006   6.605   9.411   0.671  0.0709  0.1666 -0.3886
23375TIP3    H171007   6.565   9.468   0.736 -0.3385  0.1975 -0.6610
23375TIP3    H271008   6.530   9.371   0.626  0.3302 -1.4206  0.5271
23376TIP3   OH271009   9.635   3.736   3.864  0.5564 -0.7331  0.4350
23376TIP3    H171010   9.716   3.738   3.814 -0.0590 -1.9443 -0.6655
23376TIP3    H271011   9.596   3.651   3.844 -1.9825  0.5734 -0.7124
23377TIP3   OH271012   4.803   0.590   4.719 -0.5033  0.0294 -0.0881
23377TIP3    H171013   4.755   0.512   4.747  0.9757 -0.3956  1.4934
23377TIP3    H271014   4.750   0.663   4.750 -0.3693 -0.4232  1.2909
23378TIP3   OH271015   5.134   3.658   4.881 -0.0493 -0.2467  0.2469
23378TIP3    H171016   5.122   3.746   4.846 -1.7113 -0.6951 -0.4076
23378TIP3    H271017   5.216   3.628   4.843 -0.7271  0.0891 -1.5796
23379TIP3   OH271018   1.844   7.621   8.476 -0.5244  0.1375 -0.2990
23379TIP3    H171019   1.784   7.642   8.548  1.0455  2.7819  0.3825
23379TIP3    H271020   1.794   7.642   8.397 -0.9291  1.1757  0.2083
23380TIP3   OH271021   2.011   8.965   4.745  0.1406 -0.2910 -0.0352
23380TIP3    H171022   1.940   8.907   4.773  0.9024 -1.0363  0.3912
23380TIP3    H271023   2.078   8.955   4.812  1.4507 -1.0908 -1.3948
23381TIP3   OH271024   6.551   2.506   1.057  0.5434  0.0732  0.2489
23381TIP3    H171025   6.530   2.594   1.088 -1.6445 -0.3983  0.2684
23381TIP3    H271026   6.481   2.485   0.995  1.5259 -1.3236 -0.4541
23382TIP3   OH271027   8.062  10.543   7.354 -0.0982 -0.0149 -0.3372
23382TIP3    H171028   8.032  10.471   7.299  1.3110  0.4726 -1.8033
23382TIP3    H271029   8.157  10.539   7.349  0.0187  1.9053 -0.3946
23383TIP3   OH271030   8.262   4.151   8.115  0.4501 -0.8061  0.0050
23383TIP3    H171031   8.314   4.222   8.153 -2.4590  0.5766  1.8187
23383TIP3    H271032   8.250   4.176   8.024  0.2344  0.6057  0.3930
23384TIP3   OH271033   2.566   1.676   5.765 -0.1215 -0.7249  0.3265
23384TIP3    H171034   2.558   1.772   5.766  2.6809 -0.4137  0.0565
23384TIP3    H271035   2.502   1.647   5.830 -0.2343  1.4114  1.2708
23385TIP3   OH271036   4.898   0.531   3.626 -0.3473  0.6443 -0.1694
23385TIP3    H171037   4.988   0.562   3.633 -0.0690 -0.0580 -0.5361
23385TIP3    H271038   4.906   0.436   3.621 -1.1583  0.5251  0.6030
23386TIP3   OH271039   1.347   1.547   9.366 -0.1025 -0.2899  0.0045
23386TIP3    H171040   1.348   1.482   9.436  0.6428  0.3916  0.6511
23386TIP3    H271041   1.277   1.608   9.390 -0.2714 -0.4077 -0.1829
23387TIP3   OH271042   4.219   1.404   6.724 -0.0641 -0.3332  0.3362
23387TIP3    H171043   4.216   1.315   6.691 -0.6164  0.3743 -1.6889
23387TIP3    H271044   4.145   1.448   6.682  1.7262  1.7393 -0.9026
23388TIP3   OH271045   1.546   5.905   3.836  0.1725 -0.0779  0.8113
23388TIP3    H171046   1.555   6.000   3.830 -1.2555  0.1598  1.7543
23388TIP3    H271047   1.516   5.878   3.750  0.8918  0.2777  0.4450
23389TIP3   OH271048   2.268   0.352   6.086  0.4286  0.4695 -0.7622
23389TIP3    H171049   2.219   0.272   6.103  0.9510  0.4453  0.7595
23389TIP3    H271050   2.342   0.324   6.032 -0.0561  0.1556 -1.2814
23390TIP3   OH271051   5.731   7.466   7.833 -0.2355 -0.1084 -0.4354
23390TIP3    H171052   5.663   7.517   7.877 -1.8259 -1.8595 -0.7782
23390TIP3    H271053   5.768   7.528   7.770 -0.9077  1.1373  0.3372
23391TIP3   OH271054   6.643   6.073   9.931  0.4356  0.6543  0.4988
23391TIP3    H171055   6.675   6.095   9.844  1.2508 -1.8571  0.0994
23391TIP3    H271056   6.584   6.145   9.953 -0.0999  1.1719 -2.2611
23392TIP3   OH271057   8.030   4.147   3.484  0.1375 -0.2538  0.5419
23392TIP3    H171058   7.991   4.073   3.530 -1.6802 -0.2952 -0.9476
23392TIP3    H271059   8.093   4.184   3.547  1.4146 -3.2406  1.1706
23393TIP3   OH271060   2.824   5.084   6.091 -0.1026  0.4162  0.1573
23393TIP3    H171061   2.768   5.062   6.166  1.7493 -1.1486  1.1859
23393TIP3    H271062   2.885   5.148   6.126 -0.0514  0.6778 -0.4117
23394TIP3   OH271063   3.266   3.799   8.092 -0.0845  0.4186 -0.5718
23394TIP3    H171064   3.210   3.725   8.069  2.7866 -1.8217 -1.0013
23394TIP3    H271065   3.271   3.851   8.013  0.6513 -0.9590 -1.4786
23395TIP3   OH271066   7.710   6.266   0.213  0.5698  0.1156 -0.0477
23395TIP3    H171067   7.692   6.236   0.123  0.4648  0.4853 -0.1508
23395TIP3    H271068   7.787   6.322   0.205  0.0000  0.9114 -0.0571
23396TIP3   OH271069   0.284   4.002   7.170  0.2786 -0.6423  0.0099
23396TIP3    H171070   0.245   3.920   7.201  1.4690 -1.0962  0.3796
23396TIP3    H271071   0.304   3.985   7.078 -0.0873 -0.5257 -0.0922
23397TIP3   OH271072   1.380   4.211   5.764 -0.1335 -0.5564 -0.3169
23397TIP3    H171073   1.454   4.178   5.712 -1.6486 -0.3178 -2.7842
23397TIP3    H271074   1.328   4.133   5.783 -0.2550 -0.4693 -0.2947
23398TIP3   OH271075   9.947   0.113   1.487  0.0415  0.0081 -0.1544
23398TIP3    H171076   9.975   0.117   1.396  0.8094  0.1721  0.0775
23398TIP3    H271077   9.892   0.035   1.492 -0.4723  0.3121 -0.8758
23399TIP3   OH271078   1.667   9.505   5.103  0.1620  0.2947  0.7377
23399TIP3    H171079   1.735   9.438   5.099  0.0508  0.2225 -0.4265
23399TIP3    H271080   1.711   9.581   5.143  0.7521  0.0551  0.5617
23400TIP3   OH271081   1.777   6.711  10.550  0.3461  0.6798  0.2803
23400TIP3    H171082   1.690   6.671  10.538  0.4224  0.3022  0.9300
23400TIP3    H271083   1.760   6.805  10.547  0.1615  0.6188 -1.2548
23401TIP3   OH271084   7.988   8.351   8.265  0.0103 -0.4938  0.4020
23401TIP3    H171085   7.923   8.417   8.242 -0.0516  0.1162  2.1819
23401TIP3    H271086   8.041   8.342   8.186 -0.0971  1.5547  0.0275
23402TIP3   OH271087   3.574   2.235   3.292  0.9403 -0.2197 -0.0264
23402TIP3    H171088   3.498   2.225   3.348  1.4956 -1.6679  0.5247
23402TIP3    H271089   3.560   2.172   3.221  0.7953  0.7692 -0.9031
23403TIP3   OH271090   5.105   1.076   1.142  0.4297 -0.0885 -0.3052
23403TIP3    H171091   5.152   0.994   1.132  2.9478  1.4674 -2.5662
23403TIP3    H271092   5.088   1.083   1.236  1.2564 -2.5569  0.1008
23404TIP3   OH271093  10.557   9.683   8.482  0.8305  0.0722 -0.4300
23404TIP3    H171094  10.648   9.652   8.482  0.4993 -1.0573  1.2456
23404TIP3    H271095  10.511   9.623   8.541 -0.7827  1.2717 -0.3782
23405TIP3   OH271096   8.109   0.753   5.267  0.1019  0.5502 -0.3639
23405TIP3    H171097   8.083   0.827   5.321  1.5383  1.1060 -0.3724
23405TIP3    H271098   8.027   0.710   5.243 -0.6419  1.0825  1.1244
23406TIP3   OH271099   2.259   7.487   4.473  0.4570 -0.4046 -0.2575
23406TIP3    H171100   2.241   7.579   4.453  1.6457  0.2953  1.5464
23406TIP3    H271101   2.222   7.474   4.560  0.7322 -1.4919 -0.2928
23407TIP3   OH271102  10.138   9.852   1.913  0.2409  0.0445 -0.1625
23407TIP3    H171103  10.207   9.800   1.872  0.6792  1.2392 -0.9755
23407TIP3    H271104  10.185   9.908   1.976 -0.0361  0.5605 -0.4119
23408TIP3   OH271105   6.486   4.923   3.123  0.1724 -0.5204 -0.3427
23408TIP3    H171106   6.531   4.838   3.120  1.0345 -0.1435  1.0634
23408TIP3    H271107   6.424   4.914   3.195  0.0230 -0.0522 -0.4109
23409TIP3   OH271108  10.089   0.803   5.471  0.5637  0.0185 -0.8500
23409TIP3    H171109  10.028   0.731   5.483 -0.9395  1.2940 -0.5122
23409TIP3    H271110  10.114   0.829   5.560 -0.6755  1.3354 -0.8582
23410TIP3   OH271111   5.605   5.697  10.825  0.3008 -0.5190  0.2186
23410TIP3    H171112   5.678   5.636  10.836 -0.6173 -2.7000 -3.8953
23410TIP3    H271113   5.631   5.755  10.754 -1.6304 -0.9134 -0.8878
23411TIP3   OH271114   1.252   7.783   6.713 -0.0852 -0.3206  0.3466
23411TIP3    H171115   1.342   7.811   6.694 -0.7513  1.2528 -0.6778
23411TIP3    H271116   1.242   7.799   6.807  0.7346 -0.6272  0.4976
23412TIP3   OH271117   8.297   4.166   7.420 -0.3138  0.2598  0.0593
23412TIP3    H171118   8.211   4.204   7.403 -0.0477  0.7333 -0.2525
23412TIP3    H271119   8.282   4.106   7.493 -0.8529  0.5371  0.1861
23413TIP3   OH271120   1.607   7.775   6.915  0.6096 -0.2902 -0.1948
23413TIP3    H171121   1.533   7.717   6.936 -0.7011  1.5951  0.7907
23413TIP3    H271122   1.587   7.809   6.828  0.5401 -0.1523 -0.1272
23414TIP3   OH271123   1.519   0.614   2.649 -0.1737  0.0332  0.6141
23414TIP3    H171124   1.582   0.632   2.720 -0.1260  1.1261  0.3237
23414TIP3    H271125   1.573   0.580   2.578  0.2742  1.8421  0.0352
23415TIP3   OH271126   3.797   8.885   5.988  0.7718  0.0611 -0.3320
23415TIP3    H171127   3.850   8.851   6.061 -1.1097 -0.6327  0.7881
23415TIP3    H271128   3.820   8.829   5.914  2.0971  0.2325 -0.0820
23416TIP3   OH271129   4.596  10.740   2.143 -0.4322  0.1651 -0.5741
23416TIP3    H171130   4.660  10.792   2.094 -0.2320  0.9070  0.4439
23416TIP3    H271131   4.532  10.803   2.174 -1.5419 -0.5447 -1.3687
23417TIP3   OH271132   2.354   8.328  10.097  0.1668  0.1873  0.5323
23417TIP3    H171133   2.368   8.407  10.045  0.6604 -0.1738  0.1052
23417TIP3    H271134   2.442   8.304  10.128  0.3850 -1.4300 -1.1565
23418TIP3   OH271135   5.810  10.220   0.531 -0.1285 -0.1542 -0.4718
23418TIP3    H171136   5.828  10.313   0.518  0.7546 -0.4477 -1.4678
23418TIP3    H271137   5.714  10.215   0.536 -0.1513  0.9778  1.1251
23419TIP3   OH271138   7.302   9.026   0.755 -0.1433  0.0980 -0.4748
23419TIP3    H171139   7.362   8.976   0.811  0.0999  0.3122 -0.5430
23419TIP3    H271140   7.276   9.101   0.809 -0.9035 -0.3654 -0.1877
23420TIP3   OH271141   1.770   5.889   7.259  0.4736  0.1521 -0.4797
23420TIP3    H171142   1.856   5.852   7.239  1.2827  0.9683  1.2240
23420TIP3    H271143   1.769   5.974   7.214  1.3477  0.9580  0.9391
23421TIP3   OH271144   3.104   8.494  10.261  0.4103  0.0611  0.0596
23421TIP3    H171145   3.008   8.497  10.265  0.1938 -0.5486 -2.5163
23421TIP3    H271146   3.133   8.537  10.341 -2.0086  1.2811  0.3868
23422TIP3   OH271147   3.451  10.237   2.715 -0.0606  0.0161 -0.0737
23422TIP3    H171148   3.441  10.301   2.644 -0.1561 -0.2279 -0.2844
23422TIP3    H271149   3.378  10.176   2.702  0.0007 -0.1064  0.1566
23423TIP3   OH271150   0.586   8.687  10.863  0.3009 -0.7572 -0.4552
23423TIP3    H171151   0.534   8.697  10.784 -0.6250  0.4599  0.2875
23423TIP3    H271152   0.668   8.733  10.844 -0.8567  1.6480  0.1214
23424TIP3   OH271153   3.723   6.481   2.184 -0.8633 -0.2893 -0.4601
23424TIP3    H171154   3.693   6.568   2.157 -3.6062 -1.0557 -0.2555
23424TIP3    H271155   3.728   6.485   2.279 -0.5796 -0.2379 -0.4772
23425TIP3   OH271156  10.056   6.560   3.058  0.0283  0.0583 -0.3524
23425TIP3    H171157  10.011   6.639   3.085 -0.0249 -0.3057  0.6614
23425TIP3    H271158   9.994   6.516   3.000 -0.3351  0.2732 -0.1316
23426TIP3   OH271159   8.523   3.025   7.531 -0.7402  0.1619 -0.5019
23426TIP3    H171160   8.604   3.063   7.566 -2.1470  2.0006  0.9631
23426TIP3    H271161   8.538   2.931   7.535  0.7504  0.4035  1.2677
23427TIP3   OH271162   2.601   3.292   5.758 -0.2119  0.1899 -0.1446
23427TIP3    H171163   2.570   3.287   5.849  0.2681 -1.9133 -0.0526
23427TIP3    H271164   2.598   3.202   5.726  0.2985  0.7859 -2.0081
23428TIP3   OH271165   3.757   3.515   2.341 -0.5642 -0.7389  0.1866
23428TIP3    H171166   3.712   3.512   2.256 -1.0304 -0.1350  0.3996
23428TIP3    H271167   3.741   3.429   2.379  0.3290 -1.3005 -0.6720
23429TIP3   OH271168   9.194   8.657   7.794  0.2541  0.6309 -0.5841
23429TIP3    H171169   9.207   8.710   7.715 -0.5045 -0.4100 -1.4282
23429TIP3    H271170   9.154   8.576   7.762  0.5744 -0.0888  0.7940
23430TIP3   OH271171   7.044   4.316   9.865 -0.1100  0.7923 -0.0111
23430TIP3    H171172   7.072   4.393   9.915  1.9688  1.1434 -1.5717
23430TIP3    H271173   7.102   4.246   9.895  0.5656  0.7946 -1.2476
23431TIP3   OH271174   6.082   1.333   1.457  0.2224 -0.0293  0.0637
23431TIP3    H171175   5.994   1.332   1.419 -0.0349  0.3510  0.6397
23431TIP3    H271176   6.134   1.279   1.397 -0.5980 -1.0014  0.1881
23432TIP3   OH271177   1.031   9.573   0.957  0.2622 -0.4787 -0.1375
23432TIP3    H171178   0.979   9.644   0.920  1.4430  0.3600 -0.2418
23432TIP3    H271179   1.026   9.586   1.052  0.6800 -0.0977 -0.1650
23433TIP3   OH271180   1.877   2.102   9.039  0.0928  0.4193  0.1401
23433TIP3    H171181   1.805   2.109   9.101  0.6366  0.3603  0.7790
23433TIP3    H271182   1.951   2.069   9.090  1.6509  3.8027  0.3340
23434TIP3   OH271183   5.793   2.153   8.225 -0.1674  0.2115 -0.0531
23434TIP3    H171184   5.835   2.124   8.144  1.5973  2.3510 -0.0176
23434TIP3    H271185   5.850   2.119   8.294 -1.7041 -1.6650  0.3458
23435TIP3   OH271186   5.382   0.994   5.421 -0.2759 -0.2176 -0.3988
23435TIP3    H171187   5.329   0.926   5.463  1.6965 -0.8604  1.2510
23435TIP3    H271188   5.356   0.991   5.329 -3.1228 -0.3751  0.3199
23436TIP3   OH271189   9.965   7.463   3.861  0.3724  0.3084  0.0805
23436TIP3    H171190  10.059   7.468   3.876 -0.0169  0.3669  3.1187
23436TIP3    H271191   9.947   7.370   3.848  0.8778  0.3472 -0.9577
23437TIP3   OH271192   0.366   5.189   7.067 -0.5727  0.1638  0.5731
23437TIP3    H171193   0.390   5.113   7.013 -1.6320  0.8635 -0.9519
23437TIP3    H271194   0.450   5.228   7.092 -0.0460 -0.5064 -0.0905
23438TIP3   OH271195   9.853   4.243   5.664  0.0257 -0.0589 -0.1811
23438TIP3    H171196   9.908   4.321   5.677 -2.2438  1.4548  1.0133
23438TIP3    H271197   9.832   4.213   5.752 -0.6915 -0.8649 -0.6085
23439TIP3   OH271198  10.677   7.755   8.419  0.3188 -0.9580 -0.3848
23439TIP3    H171199  10.692   7.847   8.395 -0.8063 -0.1025  1.9032
23439TIP3    H271200  10.750   7.733   8.477 -0.4058 -0.8640  0.5892
23440TIP3   OH271201  10.605   6.581   1.763  0.8527 -0.3949  0.3422
23440TIP3    H171202  10.687   6.602   1.808 -0.1492  0.4844  1.8148
23440TIP3    H271203  10.583   6.661   1.715  1.6797 -1.1776 -1.4609
23441TIP3   OH271204   9.548   7.392   3.597  0.1381 -0.4151  0.4056
23441TIP3    H171205   9.570   7.300   3.584 -0.5612 -0.6265  0.7060
23441TIP3    H271206   9.454   7.398   3.579  0.1335  0.2002  0.5885
23442TIP3   OH271207  10.536   2.128   1.617  0.2327 -0.6327 -0.6983
23442TIP3    H171208  10.537   2.036   1.590 -3.6377 -0.5142 -1.8499
23442TIP3    H271209  10.462   2.134   1.677  1.6504  1.4356  0.9992
23443TIP3   OH271210   5.367  10.273   4.186  0.2083 -0.2204  0.2713
23443TIP3    H171211   5.395  10.218   4.258  1.7576  0.8500  0.5495
23443TIP3    H271212   5.271  10.276   4.192  0.3017 -0.3099  2.1581
23444TIP3   OH271213   1.680   7.571   2.531 -0.2626  0.3871  0.4794
23444TIP3    H171214   1.744   7.500   2.527  0.5064  1.1169 -0.4409
23444TIP3    H271215   1.680   7.598   2.623 -1.9203 -1.9709  1.2775
23445TIP3   OH271216   4.323   7.622   2.044 -0.0257  0.2004  0.1258
23445TIP3    H171217   4.315   7.717   2.033  0.2086  0.4317  1.6516
23445TIP3    H271218   4.396   7.597   1.987  0.9287  1.1982  0.8614
23446TIP3   OH271219   7.424   1.378   2.326  0.2094  0.3305 -0.2067
23446TIP3    H171220   7.477   1.342   2.397 -0.2752  3.1213  1.7355
23446TIP3    H271221   7.334   1.372   2.359 -0.0514  1.3764 -0.6906
23447TIP3   OH271222  10.392   5.472   6.361 -0.1930  0.3261  0.4379
23447TIP3    H171223  10.434   5.386   6.351  0.5224  0.2778  3.2160
23447TIP3    H271224  10.426   5.523   6.288  3.7393 -0.1344  1.7343
23448TIP3   OH271225   1.515   7.349   2.276  0.5837  0.3288 -0.0363
23448TIP3    H171226   1.544   7.311   2.359  0.5184 -0.3950 -0.3350
23448TIP3    H271227   1.516   7.443   2.291  1.6739  0.2662  0.4301
23449TIP3   OH271228   2.869   9.672  10.441  0.2119  0.3523 -0.4154
23449TIP3    H171229   2.786   9.721  10.439 -0.4193 -0.5581 -4.3778
23449TIP3    H271230   2.891   9.667  10.534 -4.3062  0.4048  0.9044
23450TIP3   OH271231   4.656   9.837   8.589 -0.1715  0.0267 -0.0124
23450TIP3    H171232   4.674   9.751   8.628  1.4984  0.2408 -0.2304
23450TIP3    H271233   4.595   9.818   8.518 -0.7540 -0.8046  0.6743
23451TIP3   OH271234  10.661   1.003   7.022  0.1130 -0.2781 -0.1150
23451TIP3    H171235  10.590   1.028   6.963  1.2077  1.7836 -0.6527
23451TIP3    H271236  10.710   0.936   6.974 -0.0196  0.1054 -0.7886
23452TIP3   OH271237   8.479   7.802   2.763 -0.7186 -0.0512  0.4230
23452TIP3    H171238   8.539   7.786   2.836 -0.6444  1.8982  0.8423
23452TIP3    H271239   8.457   7.715   2.731  1.3085 -0.8755  1.0946
23453TIP3   OH271240   6.219   5.795   1.564  0.4579  0.0611 -0.3098
23453TIP3    H171241   6.312   5.813   1.577  0.0024  3.1695 -0.5339
23453TIP3    H271242   6.175   5.867   1.608 -1.8507 -0.9817 -0.7748
23454TIP3   OH271243   9.314   9.875   0.745 -0.1419 -0.2969  0.0510
23454TIP3    H171244   9.377   9.884   0.673 -1.2224 -0.6652 -0.9728
23454TIP3    H271245   9.240   9.828   0.706 -1.6645  1.3632  0.8062
23455TIP3   OH271246   3.922  10.593   7.031  0.3036  0.2089  0.4444
23455TIP3    H171247   3.847  10.532   7.030  0.9004 -0.5431  0.6515
23455TIP3    H271248   3.949  10.599   6.940  0.5359 -0.2043  0.4853
23456TIP3   OH271249   3.726   7.859   6.842  0.6157  0.0010  0.2206
23456TIP3    H171250   3.704   7.935   6.788  0.9410 -0.0342  0.0349
23456TIP3    H271251   3.672   7.869   6.921 -1.3837 -1.0067 -0.9407
23457TIP3   OH271252   5.636   6.619   0.861 -0.3718 -0.2998 -0.5014
23457TIP3    H171253   5.618   6.682   0.792  1.7752  0.8710 -0.0702
23457TIP3    H271254   5.576   6.643   0.932 -1.6929 -0.7086 -1.4440
23458TIP3   OH271255   1.795   9.979   2.799  0.0865  0.2313  0.3909
23458TIP3    H171256   1.786   9.974   2.894 -1.5543 -0.3959  0.2313
23458TIP3    H271257   1.822   9.891   2.773 -1.1113 -0.0731  0.1391
23459TIP3   OH271258   0.187   3.115   9.599 -0.1107 -0.3941  0.7469
23459TIP3    H171259   0.108   3.120   9.652 -0.5690 -0.3450  0.0731
23459TIP3    H271260   0.161   3.066   9.521  0.0379  1.0784 -0.2871
23460TIP3   OH271261   4.995   7.925   0.544  0.2240 -0.0242  0.0135
23460TIP3    H171262   4.963   7.845   0.586  1.6148  0.2827  1.8263
23460TIP3    H271263   4.931   7.992   0.569  0.3113 -0.1211  0.5152
23461TIP3   OH271264   6.176   9.884  10.505 -0.6841 -0.1545 -0.4646
23461TIP3    H171265   6.159   9.868  10.598  0.2084 -0.6342 -0.3688
23461TIP3    H271266   6.090   9.880  10.463 -1.0043 -0.7233  0.2353
23462TIP3   OH271267   6.351   9.014   1.104 -0.6054  0.1171  0.7696
23462TIP3    H171268   6.358   8.953   1.030  2.2659  0.1605  0.8684
23462TIP3    H271269   6.283   8.976   1.160  0.0607 -2.2587  0.1193
23463TIP3   OH271270   6.620   3.352   7.022 -0.4095  0.1040 -0.2520
23463TIP3    H171271   6.536   3.356   6.975 -0.9034 -1.3674  0.4605
23463TIP3    H271272   6.606   3.288   7.092  0.6381  1.4794  1.2810
23464TIP3   OH271273  10.688  10.307  10.351  0.2237  0.2089 -0.5421
23464TIP3    H171274  10.755  10.347  10.405  1.0956 -1.2622 -0.4706
23464TIP3    H271275  10.735  10.271  10.276 -0.6975  0.4552 -1.2666
23465TIP3   OH271276   2.038   2.156   0.730 -0.7086 -0.1573  0.1996
23465TIP3    H171277   2.022   2.062   0.734  0.1743 -0.3689 -0.7597
23465TIP3    H271278   2.101   2.167   0.658  2.5949  0.6843  2.9504
23466TIP3   OH271279   7.086  10.514   3.472  0.3670 -0.2313 -0.1423
23466TIP3    H171280   7.127  10.598   3.493 -0.4282  0.0189  0.4457
23466TIP3    H271281   7.022  10.500   3.542 -0.8557 -0.4016 -1.2641
23467TIP3   OH271282   6.423   1.231   3.845  0.0556  0.2412 -0.2110
23467TIP3    H171283   6.432   1.325   3.826 -2.1868 -0.0545 -3.7379
23467TIP3    H271284   6.348   1.226   3.904  0.2068  0.6888  0.0195
23468TIP3   OH271285   7.178   6.742   7.481 -0.1710  0.0787  0.0806
23468TIP3    H171286   7.150   6.653   7.460  0.7062  0.1808 -1.7432
23468TIP3    H271287   7.271   6.734   7.503 -0.1678  0.4949  0.2262
23469TIP3   OH271288   7.438   6.075   1.691 -0.1807 -0.1399 -0.1720
23469TIP3    H171289   7.476   6.020   1.759  0.9121  1.9505  1.0133
23469TIP3    H271290   7.370   6.021   1.651 -0.0953 -1.8361  1.8309
23470TIP3   OH271291   8.286   5.263   4.216  0.3636 -0.2729 -0.2986
23470TIP3    H171292   8.250   5.350   4.204 -2.1236 -0.6864  2.7756
23470TIP3    H271293   8.252   5.212   4.142 -0.4340  0.7680 -0.6696
23471TIP3   OH271294   1.299   3.249   5.497  0.2215 -0.0871  0.7320
23471TIP3    H171295   1.295   3.310   5.423 -2.2543  0.1869  1.0018
23471TIP3    H271296   1.307   3.306   5.573 -4.4549  0.3596  1.2227
23472TIP3   OH271297   1.166   2.199  10.189 -0.7226 -0.3899 -0.6764
23472TIP3    H171298   1.160   2.141  10.265 -2.8505  0.5506 -0.0488
23472TIP3    H271299   1.078   2.201  10.153 -0.0092  0.0794 -2.5223
23473TIP3   OH271300  10.671   9.157   6.203  0.1586 -0.1181  0.1112
23473TIP3    H171301  10.681   9.185   6.293  0.8334  1.4906 -0.4307
23473TIP3    H271302  10.578   9.138   6.194 -0.1889  1.1386  0.7713
23474TIP3   OH271303  10.070   8.654   5.664  0.7860 -0.1207  0.4501
23474TIP3    H171304   9.977   8.637   5.678  0.2633  1.5404 -0.7139
23474TIP3    H271305  10.099   8.584   5.606 -0.1187  0.2062 -0.4106
23475TIP3   OH271306   9.104  10.625   3.178 -0.2037 -0.4280  0.0081
23475TIP3    H171307   9.150  10.665   3.105 -0.3843  1.2247  0.7596
23475TIP3    H271308   9.139  10.536   3.183  1.8405  0.3073 -0.3594
23476TIP3   OH271309   6.794   6.665   0.339  0.1405  0.6418  0.5886
23476TIP3    H171310   6.822   6.577   0.313  1.0264  1.1496 -0.2242
23476TIP3    H271311   6.769   6.655   0.431  1.0231 -0.2879  0.7494
23477TIP3   OH271312   2.328   2.719   5.681  0.2914 -0.0364  0.3123
23477TIP3    H171313   2.420   2.731   5.660  0.5995 -2.1265  0.2187
23477TIP3    H271314   2.286   2.800   5.654  1.9527  0.5784 -0.5635
23478TIP3   OH271315   9.299   4.608   8.279 -0.0724  0.0157 -0.0773
23478TIP3    H171316   9.299   4.695   8.317  2.0583 -0.4809  1.1880
23478TIP3    H271317   9.211   4.599   8.241 -0.9228  2.0375  1.2296
23479TIP3   OH271318   1.493  10.424   2.990  0.3962 -0.3513  0.1284
23479TIP3    H171319   1.431  10.469   3.048 -0.8667 -1.1234 -0.5853
23479TIP3    H271320   1.524  10.493   2.931  1.5660  0.4070  1.5592
23480TIP3   OH271321   1.498   6.694   3.798  0.4992 -0.3844 -0.5913
23480TIP3    H171322   1.573   6.710   3.855 -0.9845  1.6727  0.9633
23480TIP3    H271323   1.505   6.759   3.728  0.3793 -0.4379 -0.6548
23481TIP3   OH271324   6.465   3.219   9.439  0.1127  0.0516  0.6214
23481TIP3    H171325   6.514   3.297   9.413  1.4909 -0.8465  0.3546
23481TIP3    H271326   6.375   3.249   9.451  0.2851  1.3671 -0.9941
23482TIP3   OH271327   0.654   2.880   5.533  0.2070 -0.1466 -0.6678
23482TIP3    H171328   0.692   2.797   5.561  0.4974  0.0894 -0.3504
23482TIP3    H271329   0.723   2.923   5.483  1.1128  1.1409  1.5304
23483TIP3   OH271330   2.607   8.847   3.148  0.0780  0.4656  0.0120
23483TIP3    H171331   2.546   8.881   3.213 -2.2177 -3.7935  0.4296
23483TIP3    H271332   2.587   8.897   3.068 -0.8069  2.1478  1.2253
23484TIP3   OH271333   3.927   8.302   7.002 -0.0897  0.1210  0.1179
23484TIP3    H171334   3.841   8.284   6.965  0.4542 -0.6161 -0.8319
23484TIP3    H271335   3.989   8.262   6.941  0.9477  0.8823  0.6254
23485TIP3   OH271336   9.624   9.384   0.870  0.2372 -0.1564  0.2648
23485TIP3    H171337   9.659   9.314   0.814  1.8500 -0.1980  1.2734
23485TIP3    H271338   9.533   9.360   0.884  0.4279 -1.3739 -0.4488
23486TIP3   OH271339  10.510   7.378   0.476  0.7245 -0.0449 -0.1811
23486TIP3    H171340  10.568   7.372   0.400  0.5567  3.2511 -0.7309
23486TIP3    H271341  10.548   7.448   0.529 -0.8106 -0.2296  1.2310
23487TIP3   OH271342   5.213   0.889   7.376  0.1125  0.4698  0.3082
23487TIP3    H171343   5.168   0.952   7.432  1.8601  3.5026 -1.4256
23487TIP3    H271344   5.269   0.839   7.436 -0.3348  1.4867  1.6260
23488TIP3   OH271345   8.117   0.726   4.366  0.0127 -0.3711  0.4040
23488TIP3    H171346   8.184   0.690   4.425 -0.3181 -0.2395  0.8640
23488TIP3    H271347   8.052   0.657   4.358  0.1249 -0.4434  0.0690
23489TIP3   OH271348   8.834   4.467   1.815  0.2471 -0.1093  0.4980
23489TIP3    H171349   8.868   4.415   1.888  1.5299 -0.6934 -0.4838
23489TIP3    H271350   8.812   4.402   1.748 -2.1708  0.3095  0.7945
23490TIP3   OH271351   8.933   6.152   0.555  0.4704  0.1039 -0.3794
23490TIP3    H171352   8.974   6.211   0.619 -0.2746  0.9074 -0.6158
23490TIP3    H271353   8.991   6.076   0.551  2.7083  1.7395 -1.7021
23491TIP3   OH271354   6.697   9.622   8.034 -0.2075  0.1245 -0.1780
23491TIP3    H171355   6.625   9.559   8.040  0.9706 -1.3326 -0.5554
23491TIP3    H271356   6.713   9.648   8.125 -1.1969  0.4552 -0.0939
23492TIP3   OH271357   9.182   5.668   7.053  0.0576 -0.1453 -0.5759
23492TIP3    H171358   9.210   5.599   7.113 -0.2339  0.5467  0.3711
23492TIP3    H271359   9.231   5.746   7.081 -0.1109  0.2011 -1.2137
23493TIP3   OH271360   5.899   2.061   6.638  0.4338 -0.3142  0.1821
23493TIP3    H171361   5.838   2.081   6.567 -1.2599 -0.4906  1.5242
23493TIP3    H271362   5.984   2.056   6.595 -0.5384 -0.5578 -1.8490
23494TIP3   OH271363   4.037   4.675   9.171  0.1251 -0.3723  0.1518
23494TIP3    H171364   4.045   4.632   9.086 -0.0650  1.9995 -1.1703
23494TIP3    H271365   4.122   4.662   9.213  0.0258 -2.0692 -0.1025
23495TIP3   OH271366   0.075   9.068   4.430  0.2755 -0.3551  0.1603
23495TIP3    H171367  -0.012   9.068   4.469 -0.4604 -0.9613 -1.3750
23495TIP3    H271368   0.135   9.067   4.504 -1.0156  0.2458  1.2554
23496TIP3   OH271369   8.765   8.340  10.187 -0.3642 -0.0647  0.1268
23496TIP3    H171370   8.767   8.245  10.177 -2.7753 -0.0383 -1.3071
23496TIP3    H271371   8.673   8.364  10.176 -0.3936  2.1770  3.6117
23497TIP3   OH271372   7.741   0.231   9.360 -0.1411 -0.1843 -0.6394
23497TIP3    H171373   7.688   0.152   9.344  0.5504 -0.6790 -0.5112
23497TIP3    H271374   7.775   0.255   9.273  0.8232 -0.8780 -0.4681
23498TIP3   OH271375   1.269   5.785  10.091  0.1488  0.6398 -0.0596
23498TIP3    H171376   1.217   5.765  10.012  0.2659  1.1397 -0.2699
23498TIP3    H271377   1.274   5.881  10.092 -1.3762  0.7564  1.5422
23499TIP3   OH271378   8.512   0.907   2.526 -0.1790 -0.0631  0.4212
23499TIP3    H171379   8.576   0.837   2.517  0.7218  0.7516  0.2707
23499TIP3    H271380   8.565   0.985   2.545 -1.2528  0.2705  2.3449
23500TIP3   OH271381   2.160   3.570  10.700 -0.1781 -0.1719  0.0720
23500TIP3    H171382   2.241   3.613  10.673  0.0742  0.7152  2.0554
23500TIP3    H271383   2.091   3.613  10.649  0.1734  2.0773  1.3718
23501TIP3   OH271384   2.870   1.867   2.784  0.6706 -0.2009 -0.1289
23501TIP3    H171385   2.848   1.960   2.778 -0.6523 -0.4832 -0.0480
23501TIP3    H271386   2.785   1.823   2.796  1.2404 -1.4450 -0.4770
23502TIP3   OH271387   0.277   6.208   2.340  0.2399 -0.2881 -0.0899
23502TIP3    H171388   0.348   6.226   2.279 -0.2760  2.0603 -0.0993
23502TIP3    H271389   0.222   6.287   2.337 -1.4524 -1.3512  1.1451
23503TIP3   OH271390   6.532   7.567   0.279 -0.0727 -0.7031  0.2362
23503TIP3    H171391   6.607   7.514   0.252 -0.2594 -0.7528 -0.1940
23503TIP3    H271392   6.538   7.570   0.374  0.7923 -0.2512  0.1840
23504TIP3   OH271393   6.975   7.391   6.646 -0.1825  0.3343  0.3822
23504TIP3    H171394   6.897   7.403   6.700  0.3377  0.6578  1.0731
23504TIP3    H271395   7.047   7.387   6.708  0.0956 -3.0964  0.0374
23505TIP3   OH271396   2.785   6.072   5.621  0.4128 -0.1170 -0.0379
23505TIP3    H171397   2.712   6.075   5.559 -0.7163 -0.3958  1.2325
23505TIP3    H271398   2.853   6.022   5.576 -0.2807 -0.0838 -1.1424
23506TIP3   OH271399  10.802   7.199   5.041 -0.4140  0.2112  0.0536
23506TIP3    H171400  10.721   7.198   5.093  0.7824 -0.6341  2.0321
23506TIP3    H271401  10.839   7.111   5.052  1.1067  0.7760 -0.2457
23507TIP3   OH271402   8.881   7.238   2.509  0.1971  0.0827  0.0329
23507TIP3    H171403   8.809   7.193   2.553  0.6265 -0.0645  0.5964
23507TIP3    H271404   8.852   7.247   2.418 -0.2856 -0.4913  0.1251
23508TIP3   OH271405   2.995   0.025   3.861 -0.3832  0.6581 -0.1179
23508TIP3    H171406   2.905  -0.002   3.882 -0.3211  1.1255  0.8174
23508TIP3    H271407   2.984   0.097   3.799 -0.6898  1.2256  0.5809
23509TIP3   OH271408   2.120   6.173   3.235  0.2986 -0.3250 -0.2506
23509TIP3    H171409   2.151   6.084   3.222  2.0031  0.2430 -0.3736
23509TIP3    H271410   2.175   6.207   3.306  0.8266  1.1199 -1.3015
23510TIP3   OH271411   8.317   3.419   2.306  0.0910 -0.1908  0.2903
23510TIP3    H171412   8.266   3.435   2.226  1.3828  0.4789 -0.4336
23510TIP3    H271413   8.289   3.487   2.367 -0.5319 -0.3933  0.2405
23511TIP3   OH271414   3.991   1.503   7.518 -0.2578 -1.3021  0.7665
23511TIP3    H171415   4.043   1.568   7.566  0.6438 -1.3270 -0.1399
23511TIP3    H271416   4.017   1.515   7.427 -0.6525 -2.4154  0.4982
23512TIP3   OH271417   1.831   8.372   0.280 -1.4610  0.3967 -0.0393
23512TIP3    H171418   1.744   8.367   0.320 -2.1423 -0.3076 -1.5500
23512TIP3    H271419   1.818   8.425   0.201 -0.6306 -0.1312 -0.5439
23513TIP3   OH271420   7.979   4.315   3.775  0.3962 -0.6744  0.2349
23513TIP3    H171421   7.956   4.399   3.736  2.3453  0.1708  0.7584
23513TIP3    H271422   7.932   4.312   3.858 -1.3838 -1.1277 -0.7364
23514TIP3   OH271423   4.043   2.369   7.904 -0.1534  0.7450 -0.1268
23514TIP3    H171424   3.956   2.404   7.923  0.1642  1.3189  0.3024
23514TIP3    H271425   4.101   2.445   7.909  0.1381  0.7037 -2.1238
23515TIP3   OH271426  10.021   2.525   8.407  0.0981  0.5919  0.5411
23515TIP3    H171427   9.977   2.606   8.433  0.2160  1.0598 -0.6430
23515TIP3    H271428   9.951   2.469   8.375  0.0773  0.4152  0.8957
23516TIP3   OH271429   3.640   3.974   4.459  0.4717 -0.0384 -0.1570
23516TIP3    H171430   3.724   3.959   4.502  0.0491 -3.3511 -0.2209
23516TIP3    H271431   3.660   3.976   4.366  0.5646  0.0166 -0.1362
23517TIP3   OH271432   5.197   5.163   7.115  0.3899  0.9438 -0.0806
23517TIP3    H171433   5.208   5.189   7.023  0.7952 -2.0436 -0.9648
23517TIP3    H271434   5.283   5.178   7.154  0.4622  1.3716 -0.3907
23518TIP3   OH271435   9.139   0.394   0.328  0.2428 -0.1384  0.1011
23518TIP3    H171436   9.180   0.477   0.304 -2.0755  1.2036  0.4754
23518TIP3    H271437   9.202   0.353   0.386  0.2553  2.8329  2.4543
23519TIP3   OH271438   0.640   4.215   8.304 -0.1082 -0.5894 -0.5775
23519TIP3    H171439   0.581   4.211   8.379  0.5772 -0.0244  0.0063
23519TIP3    H271440   0.608   4.147   8.245 -0.6081 -1.0968  0.2581
23520TIP3   OH271441   0.864   5.758   3.430 -0.2890 -0.3928  0.1617
23520TIP3    H171442   0.778   5.801   3.437  0.3550  0.7705  1.2722
23520TIP3    H271443   0.843   5.666   3.413 -1.8103 -0.5139  2.3232
23521TIP3   OH271444   6.249   7.943   0.675 -0.2287 -0.1226  0.4071
23521TIP3    H171445   6.286   8.030   0.695  1.1279 -0.3182 -1.0517
23521TIP3    H271446   6.154   7.956   0.679 -0.0461  1.1381  1.3547
23522TIP3   OH271447   5.963   1.047   6.735 -0.1777  0.2068  0.1458
23522TIP3    H171448   5.935   0.969   6.783 -0.2423  1.5840  2.5081
23522TIP3    H271449   5.886   1.104   6.735 -0.0959  0.3512 -1.4394
23523TIP3   OH271450   4.645   3.731   0.478 -0.1162  0.6028 -0.2006
23523TIP3    H171451   4.628   3.809   0.425  0.5888  0.5116 -0.5716
23523TIP3    H271452   4.708   3.680   0.426 -0.4349 -0.1295  0.1150
23524TIP3   OH271453   7.356   9.090   4.343  1.2323 -0.5093 -0.1250
23524TIP3    H171454   7.350   9.034   4.265  0.1596 -1.5022  0.6265
23524TIP3    H271455   7.347   9.179   4.310  1.5196 -0.8701 -1.2107
23525TIP3   OH271456   6.563   2.405   4.048 -0.1935  0.4580 -0.4318
23525TIP3    H171457   6.515   2.456   3.983  0.0918 -0.4245 -1.3545
23525TIP3    H271458   6.647   2.449   4.057  0.0343  0.1853 -1.1873
23526TIP3   OH271459   1.700   8.632   8.756  0.4062 -0.9118 -0.0250
23526TIP3    H171460   1.729   8.645   8.846 -0.8916 -1.1294  0.4460
23526TIP3    H271461   1.607   8.607   8.764  0.4566 -1.6308 -1.3719
23527TIP3   OH271462   3.257   1.021   1.724  0.5693  0.3929 -0.6005
23527TIP3    H171463   3.192   1.016   1.794 -0.8337 -0.3856 -1.8929
23527TIP3    H271464   3.341   1.009   1.768 -0.3408 -1.1184  0.8350
23528TIP3   OH271465   4.481   4.779   8.337  0.2827 -0.5249  0.2338
23528TIP3    H171466   4.528   4.834   8.274 -0.0699  1.1450  1.3687
23528TIP3    H271467   4.547   4.756   8.402 -0.0638  0.4349  0.9423
23529TIP3   OH271468   3.941   2.304   1.508  0.0106 -0.3128  0.5512
23529TIP3    H171469   3.886   2.225   1.518  0.3371 -0.5318  0.6187
23529TIP3    H271470   3.878   2.374   1.493 -0.2215 -0.7762 -0.7350
23530TIP3   OH271471   0.016   5.099   6.588  0.2363 -0.0058  0.1916
23530TIP3    H171472   0.105   5.071   6.611 -0.0881 -1.5235 -0.2995
23530TIP3    H271473   0.025   5.192   6.565  1.4078  0.2759  1.6514
23531TIP3   OH271474   4.476   4.254   1.332 -0.2926  0.3438  0.3219
23531TIP3    H171475   4.560   4.296   1.353 -0.0466 -0.3039  0.6643
23531TIP3    H271476   4.410   4.312   1.368  0.0152  0.8180  0.1278
23532TIP3   OH271477   2.215  10.357   6.525 -0.4025 -0.1359  0.7364
23532TIP3    H171478   2.186  10.281   6.474  0.5172 -0.6409  0.9301
23532TIP3    H271479   2.195  10.432   6.469 -1.3036 -0.5196  0.5314
23533TIP3   OH271480   3.346   1.399   5.966  0.2788 -0.2062  0.0020
23533TIP3    H171481   3.396   1.318   5.976 -1.3122 -1.1418  0.6754
23533TIP3    H271482   3.369   1.451   6.042 -0.1252 -0.8387  0.5628
23534TIP3   OH271483   5.663   9.262   7.839  0.3970  0.0952  0.0341
23534TIP3    H171484   5.600   9.221   7.898 -0.9498  3.1322  0.9117
23534TIP3    H271485   5.657   9.211   7.758 -0.4093 -1.9385  1.3038
23535TIP3   OH271486   0.097   1.793   3.536 -0.4192 -0.0736  0.4874
23535TIP3    H171487   0.173   1.827   3.490 -1.2634  0.6346 -0.4238
23535TIP3    H271488   0.025   1.800   3.473 -1.0734 -1.5470  1.0091
23536TIP3   OH271489   7.168   1.957   2.812 -0.6642  0.6140  1.0224
23536TIP3    H171490   7.198   1.987   2.898 -2.2459  0.2826  1.7262
23536TIP3    H271491   7.239   1.981   2.752  0.2308  1.3485  2.3217
23537TIP3   OH271492   1.367   3.810   9.167 -0.8439 -1.0699 -0.8043
23537TIP3    H171493   1.437   3.853   9.214 -1.1544 -0.4733 -0.8779
23537TIP3    H271494   1.342   3.737   9.223 -1.5510 -0.0806  0.2200
23538TIP3   OH271495   1.950   0.477   7.877 -0.7415 -0.1117 -0.6084
23538TIP3    H171496   1.946   0.565   7.840 -0.6202 -0.2177 -0.8790
23538TIP3    H271497   1.925   0.488   7.969 -2.9851 -0.1434 -1.1751
23539TIP3   OH271498   0.555   0.689   7.384 -0.1128 -0.1913  0.3022
23539TIP3    H171499   0.516   0.602   7.390 -1.5739  0.5028  2.0893
23539TIP3    H271500   0.520   0.725   7.303 -0.4489 -0.8346  0.1540
23540TIP3   OH271501   6.168   2.456   1.569 -0.0273  0.3590 -0.2823
23540TIP3    H171502   6.128   2.498   1.493 -0.8268 -0.1360 -0.1432
23540TIP3    H271503   6.250   2.504   1.582 -1.0682  2.1052  0.0799
23541TIP3   OH271504   1.140   5.480   6.458  1.1013 -0.7169 -0.1365
23541TIP3    H171505   1.173   5.398   6.422  0.8948 -1.3031  0.9577
23541TIP3    H271506   1.172   5.480   6.548  1.0292  0.3735 -0.1047
23542TIP3   OH271507   4.417   4.051   3.287  0.2833  0.6859 -0.3122
23542TIP3    H171508   4.362   4.021   3.360 -1.5894  2.5722 -0.8475
23542TIP3    H271509   4.376   4.013   3.209 -0.1415  1.8840 -0.6924
23543TIP3   OH271510   9.113   7.900   0.657  0.6495 -0.0744 -0.3590
23543TIP3    H171511   9.085   7.854   0.578  2.0236 -0.0780 -0.8711
23543TIP3    H271512   9.096   7.839   0.729  0.7350 -0.6405 -0.8193
23544TIP3   OH271513  10.797   5.640   0.294 -0.0109 -0.0261  0.0515
23544TIP3    H171514  10.715   5.591   0.302  0.4916 -0.9357 -0.2155
23544TIP3    H271515  10.769   5.730   0.276 -0.9508 -0.4188 -0.5764
23545TIP3   OH271516  10.887   4.268   4.341  0.2797  0.0047  0.1431
23545TIP3    H171517  10.843   4.344   4.304 -1.4147  0.1202  2.2160
23545TIP3    H271518  10.825   4.232   4.404  2.2977 -1.1756  1.5991
23546TIP3   OH271519   2.228   7.019   7.426 -0.7273 -0.1965 -0.2628
23546TIP3    H171520   2.270   6.982   7.349 -2.3716  1.3040 -1.9949
23546TIP3    H271521   2.166   6.952   7.455  1.0624 -1.4344  0.8286
23547TIP3   OH271522   1.120   2.436   5.501  0.5759 -0.5054  0.1584
23547TIP3    H171523   1.134   2.478   5.416  1.8527 -2.9605 -0.9286
23547TIP3    H271524   1.147   2.502   5.565  1.3515  0.7548 -1.3978
23548TIP3   OH271525   5.714   3.570   9.718  0.0559  0.3943  0.1830
23548TIP3    H171526   5.678   3.658   9.718  0.2387  0.4851 -0.8998
23548TIP3    H271527   5.714   3.543   9.810  1.1694  2.0017  0.6884
23549TIP3   OH271528   7.353   8.693   4.011  0.1415 -0.0701 -0.0787
23549TIP3    H171529   7.374   8.635   3.938 -0.0165 -0.8288  0.4675
23549TIP3    H271530   7.276   8.653   4.052  0.4073  0.1820  0.6778
23550TIP3   OH271531   3.561   6.686   7.837 -0.3271 -0.8266  0.7168
23550TIP3    H171532   3.488   6.746   7.820  0.7495 -0.0812 -1.5297
23550TIP3    H271533   3.634   6.722   7.788  0.7457 -3.2197  0.4298
23551TIP3   OH271534   8.590  10.796   1.515 -0.1454  0.5554 -0.2131
23551TIP3    H171535   8.539  10.733   1.567  1.4703  0.1183  0.9071
23551TIP3    H271536   8.582  10.878   1.563 -2.3360  1.3188 -1.7271
23552TIP3   OH271537   7.959   0.802   9.674 -0.1058  0.0277 -0.0742
23552TIP3    H171538   8.038   0.842   9.709  0.4058  0.0700 -1.2324
23552TIP3    H271539   7.892   0.817   9.741  0.0587  2.7990 -0.4186
23553TIP3   OH271540   4.367   3.430   1.021  0.2918  0.3960  0.3032
23553TIP3    H171541   4.393   3.447   0.930 -1.4948  3.2884  0.2010
23553TIP3    H271542   4.450   3.411   1.066  1.6311  1.7730 -1.4068
23554TIP3   OH271543   5.458   9.211   6.285 -0.1684 -0.0592  0.3357
23554TIP3    H171544   5.445   9.270   6.211 -0.5471 -0.4431  0.0877
23554TIP3    H271545   5.425   9.258   6.361 -0.3736  0.0872  0.1552
23555TIP3   OH271546   0.623   1.607   6.738  0.8463  0.6533 -0.1785
23555TIP3    H171547   0.682   1.536   6.761 -1.5467 -1.6950 -0.8243
23555TIP3    H271548   0.648   1.631   6.648  0.7943 -0.3463 -0.4656
23556TIP3   OH271549   8.843  10.899   3.568 -0.0884  0.1762  0.1203
23556TIP3    H171550   8.754  10.919   3.538 -1.4279 -4.6262  0.1527
23556TIP3    H271551   8.893  10.889   3.487  0.3002  1.9769  0.0870
23557TIP3   OH271552   1.461   9.090   5.744  0.3820  0.1038 -0.1835
23557TIP3    H171553   1.444   9.006   5.700 -1.4586  0.7982 -0.9031
23557TIP3    H271554   1.396   9.094   5.813 -0.4410  1.4923 -0.9865
23558TIP3   OH271555   5.392   4.529  10.370 -0.2301 -0.6988  0.0306
23558TIP3    H171556   5.476   4.565  10.398 -0.4455 -0.5125  0.4412
23558TIP3    H271557   5.413   4.441  10.339 -0.0027 -0.9743  0.9256
23559TIP3   OH271558   9.568   6.468   8.866 -0.6120  0.1495  0.2172
23559TIP3    H171559   9.570   6.417   8.947  1.1739  0.8088  0.6295
23559TIP3    H271560   9.593   6.556   8.892 -0.9301  0.5984 -0.9230
23560TIP3   OH271561   4.596   3.023   6.552  0.4005  0.6398 -0.2459
23560TIP3    H171562   4.613   3.060   6.465 -0.4584  0.9673 -0.2894
23560TIP3    H271563   4.503   3.000   6.550 -0.0183  2.0701  1.0929
23561TIP3   OH271564   8.046   5.415   0.906 -0.5663 -0.3251 -0.5221
23561TIP3    H171565   8.095   5.362   0.968 -1.3152 -0.1488  0.2364
23561TIP3    H271566   8.092   5.499   0.903 -0.6976 -0.2352  0.0180
23562TIP3   OH271567   6.154   1.127   3.346  0.0064  0.0646  0.1437
23562TIP3    H171568   6.120   1.208   3.310 -1.4289 -0.1275  1.0003
23562TIP3    H271569   6.109   1.058   3.297  0.2639 -0.2061  0.2825
23563TIP3   OH271570   8.866   3.962   5.584 -0.3418 -0.5005 -0.2435
23563TIP3    H171571   8.799   3.904   5.622  0.2910 -0.2963  1.2718
23563TIP3    H271572   8.928   3.975   5.655 -1.0748  2.9920 -0.0721
23564TIP3   OH271573   1.074  10.899   2.950  0.2916  0.0850  0.2626
23564TIP3    H171574   1.142  10.933   3.008 -0.0438  0.5354  0.3964
23564TIP3    H271575   1.024  10.838   3.004 -0.5824  1.1824  0.7276
23565TIP3   OH271576   8.150   9.920   3.485 -0.6185 -0.1032  0.1614
23565TIP3    H171577   8.212   9.851   3.512 -0.6519  0.8777  3.1287
23565TIP3    H271578   8.189  10.001   3.518 -1.5604  1.0848 -1.5191
23566TIP3   OH271579   8.647   0.107   5.985 -0.6058 -0.4375  0.1334
23566TIP3    H171580   8.689   0.171   5.927  1.0535 -0.7788  0.9164
23566TIP3    H271581   8.553   0.120   5.970 -0.3419  2.2748  0.3429
23567TIP3   OH271582   1.325   1.225   0.900 -0.2899 -0.0586 -0.2492
23567TIP3    H171583   1.271   1.164   0.850  0.5614 -1.4757  0.4971
23567TIP3    H271584   1.383   1.265   0.835  0.2664 -1.2878 -0.5247
23568TIP3   OH271585   6.594   7.339   5.548  0.2071 -0.0450 -0.3965
23568TIP3    H171586   6.652   7.390   5.492  0.5501  0.0338  0.0331
23568TIP3    H271587   6.595   7.384   5.632 -2.2872  1.3427 -0.9868
23569TIP3   OH271588   5.340   9.576   6.188  0.3127 -0.1766  0.0675
23569TIP3    H171589   5.300   9.661   6.168 -0.1538 -0.6182 -0.9402
23569TIP3    H271590   5.417   9.598   6.240 -0.1158  0.8217  0.3155
23570TIP3   OH271591   8.604   7.768   0.951 -0.0028  0.2717  0.0623
23570TIP3    H171592   8.647   7.740   1.032 -0.0202  0.4860  0.1473
23570TIP3    H271593   8.581   7.687   0.907  0.3048  0.1542  0.1141
23571TIP3   OH271594   6.040   7.909   6.598 -0.5534 -0.3098  0.3389
23571TIP3    H171595   6.067   7.975   6.661 -2.1863  0.0141  0.7596
23571TIP3    H271596   5.944   7.906   6.606 -1.1198  1.1924 -3.4868
23572TIP3   OH271597   1.815   7.578   6.703 -0.4156  0.0192  0.1706
23572TIP3    H171598   1.904   7.548   6.687 -0.2129  1.0439 -0.7403
23572TIP3    H271599   1.778   7.514   6.764 -0.1110 -2.2113 -1.8648
23573TIP3   OH271600   5.672   0.160   6.568  0.3533  0.5601  0.2591
23573TIP3    H171601   5.617   0.238   6.569 -0.6289  0.0061 -2.2715
23573TIP3    H271602   5.745   0.183   6.510 -0.4962 -0.6313 -1.4005
23574TIP3   OH271603   4.853   5.088   0.322 -0.4881 -0.1816  0.6652
23574TIP3    H171604   4.925   5.128   0.273 -0.3969 -1.1944 -0.0621
23574TIP3    H271605   4.793   5.160   0.341  0.2102  0.4911  0.3812
23575TIP3   OH271606   0.117   5.051   8.000 -0.6798  0.2160 -0.6901
23575TIP3    H171607   0.179   5.114   8.038 -2.1817  0.5364  1.3558
23575TIP3    H271608   0.036   5.101   7.990 -1.1125 -0.6662 -1.7349
23576TIP3   OH271609   4.664   7.522   4.463 -0.4586 -0.0540 -0.4636
23576TIP3    H171610   4.742   7.533   4.517 -0.2073 -1.3382 -0.5551
23576TIP3    H271611   4.592   7.516   4.527 -0.4985  1.0605 -0.3785
23577TIP3   OH271612   6.073   0.234   5.618  0.3253  0.4395 -0.3650
23577TIP3    H171613   6.106   0.183   5.692 -1.2467 -0.7867 -0.4493
23577TIP3    H271614   6.092   0.325   5.641  1.7464 -0.0512  0.5505
23578TIP3   OH271615   0.115   7.378   2.418 -0.3239 -0.3857  0.5490
23578TIP3    H171616   0.083   7.444   2.357  0.6035 -0.5542 -0.1350
23578TIP3    H271617   0.164   7.428   2.484 -1.2549 -0.2132  1.1421
23579TIP3   OH271618  10.285  10.476   8.624 -0.1733 -0.1113  0.4742
23579TIP3    H171619  10.273  10.381   8.634  0.2696 -0.0285  1.9503
23579TIP3    H271620  10.223  10.501   8.555  0.5909 -1.6628 -0.8466
23580TIP3   OH271621  10.569   2.847   9.344 -0.0126 -0.2531  0.1343
23580TIP3    H171622  10.551   2.919   9.284  0.6831 -1.3679 -1.4812
23580TIP3    H271623  10.611   2.889   9.419  1.5639  0.9275 -1.3195
23581TIP3   OH271624   4.721   2.087   4.745  0.0442  0.2926 -0.2276
23581TIP3    H171625   4.703   2.173   4.783  2.4094  0.9484 -0.3756
23581TIP3    H271626   4.816   2.079   4.750  0.1247 -1.2004 -2.5681
23582TIP3   OH271627   1.466   2.581   7.759 -0.1053  0.7695 -0.1221
23582TIP3    H171628   1.382   2.578   7.805  0.6665  0.3007  1.2908
23582TIP3    H271629   1.523   2.523   7.809  0.6758 -0.0509 -1.8895
23583TIP3   OH271630  10.901   4.380   5.812 -0.2429  0.7788  0.1724
23583TIP3    H171631  10.964   4.314   5.782  1.8596  2.6037  0.3230
23583TIP3    H271632  10.867   4.420   5.731 -0.3295  0.5915  0.1151
23584TIP3   OH271633   8.152   9.009   1.879  0.5527  0.9670  0.4077
23584TIP3    H171634   8.082   9.023   1.942  0.8479 -0.0844  1.0001
23584TIP3    H271635   8.191   8.925   1.905  1.7234  1.3045 -0.1954
23585TIP3   OH271636   4.300  10.184   7.503 -0.4393 -0.1250 -0.6011
23585TIP3    H171637   4.298  10.273   7.538 -0.0925 -0.3319 -0.0370
23585TIP3    H271638   4.283  10.128   7.579  1.3271 -0.6396 -0.5391
23586TIP3   OH271639   4.981   9.007   3.068 -0.2125 -0.2886  0.6342
23586TIP3    H171640   4.921   8.945   3.027  1.2254  0.4699 -3.0685
23586TIP3    H271641   4.930   9.087   3.079 -0.4595 -0.2375 -0.6724
23587TIP3   OH271642   3.068   3.655   0.362  0.1355  0.4193 -0.0466
23587TIP3    H171643   2.990   3.624   0.409  0.1950 -0.8925 -0.7810
23587TIP3    H271644   3.103   3.578   0.319  1.8597  0.9908  0.2542
23588TIP3   OH271645   6.883   1.350   7.437 -0.3515  0.0241 -0.8252
23588TIP3    H171646   6.973   1.365   7.408 -0.2329 -0.5671 -0.7905
23588TIP3    H271647   6.882   1.379   7.529 -0.3652  0.6140 -1.0088
23589TIP3   OH271648   4.085   4.839   7.241  0.7855  0.5757 -0.5542
23589TIP3    H171649   4.043   4.820   7.157 -0.5352 -2.1098  0.5811
23589TIP3    H271650   4.178   4.839   7.221  0.5033 -0.0124 -2.0523
23590TIP3   OH271651   0.211   1.459   4.409 -0.2192 -0.1272  0.3577
23590TIP3    H171652   0.175   1.503   4.486  0.4760  1.8135 -0.3715
23590TIP3    H271653   0.268   1.391   4.444  1.8542  2.1436  1.6682
23591TIP3   OH271654   2.502   6.811   5.444 -0.0149  0.1951 -0.1019
23591TIP3    H171655   2.565   6.883   5.451 -1.5040  1.8368 -2.2266
23591TIP3    H271656   2.433   6.833   5.507  0.1480 -0.0646  0.1681
23592TIP3   OH271657   1.744   4.101   6.816  0.3940  0.1887 -0.2836
23592TIP3    H171658   1.735   4.157   6.739  1.2533 -0.4888 -0.8966
23592TIP3    H271659   1.657   4.064   6.829 -0.0238  1.1518 -0.2573
23593TIP3   OH271660   8.115   3.842   5.935  0.5093  0.4080 -0.4713
23593TIP3    H171661   8.107   3.931   5.968 -0.1937  0.6295 -1.2121
23593TIP3    H271662   8.142   3.790   6.011 -0.4387  1.0183  0.2977
23594TIP3   OH271663   8.907   3.669   6.498  0.1747 -0.1874  0.3109
23594TIP3    H171664   8.852   3.703   6.569  0.8694  1.9950 -0.1410
23594TIP3    H271665   8.959   3.600   6.540 -0.8721 -0.3454  1.4211
23595TIP3   OH271666   1.910   0.023  10.143 -0.3517  0.8106 -0.0324
23595TIP3    H171667   1.823  -0.013  10.126  0.0826 -0.0544 -0.4988
23595TIP3    H271668   1.938  -0.020  10.224 -0.2241  0.8386 -0.0621
23596TIP3   OH271669   8.521   5.539  10.382  0.0060  0.8832 -0.1182
23596TIP3    H171670   8.433   5.545  10.345 -0.3713 -2.4341 -0.0034
23596TIP3    H271671   8.511   5.489  10.463  2.1577 -1.5830 -1.2122
23597TIP3   OH271672   3.926   5.752   7.593  0.0837 -0.1424  0.0143
23597TIP3    H171673   3.849   5.732   7.540 -1.0050  0.2878  1.3667
23597TIP3    H271674   3.923   5.847   7.604 -0.1718 -0.2899  1.4477
23598TIP3   OH271675   4.757   9.743   4.684 -0.0458  0.0947  0.4060
23598TIP3    H171676   4.709   9.754   4.766 -0.0939  0.6187  0.3093
23598TIP3    H271677   4.827   9.809   4.687  0.5106 -0.4826  0.4254
23599TIP3   OH271678   9.579   4.650   4.809 -0.1178  0.1175  0.6618
23599TIP3    H171679   9.586   4.570   4.757  0.6436  1.2073 -1.0000
23599TIP3    H271680   9.649   4.644   4.873 -0.8180 -1.0667  1.3546
23600TIP3   OH271681   1.088   8.118   3.817  0.1546 -0.6618 -0.3434
23600TIP3    H171682   1.080   8.212   3.803  2.3931 -0.5133 -0.9523
23600TIP3    H271683   1.000   8.084   3.798 -0.4337  1.1612 -1.1387
23601TIP3   OH271684   8.865   2.356   6.961 -0.1702 -0.2487  0.2536
23601TIP3    H171685   8.778   2.366   6.922 -0.5602 -1.5667  0.7492
23601TIP3    H271686   8.922   2.335   6.888 -0.4648 -0.4064  0.0670
23602TIP3   OH271687   5.895   7.020   3.383  0.1962  0.0110 -0.5726
23602TIP3    H171688   5.864   6.930   3.371 -0.0533 -0.2635  1.6419
23602TIP3    H271689   5.934   7.043   3.299 -0.2891 -1.9361 -1.4007
23603TIP3   OH271690   2.417   3.105   2.199 -0.3649  0.2204 -0.1451
23603TIP3    H171691   2.345   3.117   2.261 -0.5896  0.6595 -0.4861
23603TIP3    H271692   2.374   3.087   2.116 -0.0594 -0.9797 -0.0591
23604TIP3   OH271693   0.868   0.188   9.986  0.3418 -0.3728  0.5446
23604TIP3    H171694   0.773   0.185   9.970  0.4812 -0.8046 -0.2283
23604TIP3    H271695   0.877   0.248  10.060 -0.7039 -1.9177  1.9819
23605TIP3   OH271696   9.011   6.141   8.912 -0.0771 -0.1432  0.5696
23605TIP3    H171697   8.943   6.114   8.849  0.1397 -0.8948  0.6451
23605TIP3    H271698   8.995   6.086   8.988 -0.1626  0.5697  1.0766
23606TIP3   OH271699   5.678   8.398   3.860  0.1804 -0.3839  0.1840
23606TIP3    H171700   5.639   8.381   3.775 -0.6884  0.1396  0.4641
23606TIP3    H271701   5.634   8.477   3.892  1.4328  0.2006  0.5450
23607TIP3   OH271702   7.055  10.220   4.936 -0.2415  0.3094  0.3282
23607TIP3    H171703   7.066  10.177   5.021 -0.3749  0.9445  0.6727
23607TIP3    H271704   7.074  10.152   4.872  2.2826  0.4205  0.8596
23608TIP3   OH271705   3.185   6.499   6.750  0.7408 -0.0974  0.1181
23608TIP3    H171706   3.108   6.526   6.800  0.1642  1.9860 -1.7101
23608TIP3    H271707   3.179   6.404   6.745 -2.2546  0.0356 -0.6841
23609TIP3   OH271708   2.813   4.636   4.866 -0.3227  0.7973  0.1562
23609TIP3    H171709   2.889   4.607   4.917 -0.9965  0.7737  1.1663
23609TIP3    H271710   2.744   4.649   4.931 -0.4843  3.2582 -0.4227
23610TIP3   OH271711   7.819   5.193   5.030 -1.0691 -0.2783 -0.0754
23610TIP3    H171712   7.858   5.158   4.950 -1.3301  2.7339 -1.6696
23610TIP3    H271713   7.894   5.213   5.087 -0.6136  0.5593 -0.9418
23611TIP3   OH271714   8.810   9.617   2.272  0.8185 -0.4220  0.4870
23611TIP3    H171715   8.728   9.663   2.292  0.9832 -0.2409  0.7461
23611TIP3    H271716   8.829   9.642   2.181  0.8666 -0.0398  0.6007
23612TIP3   OH271717   4.996   0.653   2.141  0.2206 -0.2259  0.1615
23612TIP3    H171718   5.077   0.704   2.148  1.1206 -1.2922 -1.5896
23612TIP3    H271719   5.026   0.562   2.132 -1.0083 -0.4626 -2.6043
23613TIP3   OH271720   5.938   8.405   6.921  0.2553 -0.1530 -0.1724
23613TIP3    H171721   6.010   8.389   6.981  0.8903 -0.2881 -0.9535
23613TIP3    H271722   5.908   8.493   6.942 -0.0476 -0.4921  0.8591
23614TIP3   OH271723   4.822   8.701   7.806 -0.4176  0.1863  0.4781
23614TIP3    H171724   4.797   8.760   7.735  1.8700 -1.4616 -1.8450
23614TIP3    H271725   4.915   8.717   7.819 -0.5475 -0.3255  2.4488
23615TIP3   OH271726   4.571   3.208   9.358 -0.2417  0.1841 -0.6172
23615TIP3    H171727   4.612   3.260   9.289 -0.4206  0.1617 -0.7392
23615TIP3    H271728   4.561   3.270   9.431  0.9904 -0.0689 -0.1970
23616TIP3   OH271729   0.506   8.767   7.630 -0.0392 -0.0825  0.5652
23616TIP3    H171730   0.493   8.684   7.584  1.8544 -0.4050  0.5440
23616TIP3    H271731   0.428   8.819   7.608 -0.6631 -1.3807 -0.4334
23617TIP3   OH271732   8.306   5.650   5.101 -0.8258  0.0985 -0.0882
23617TIP3    H171733   8.279   5.719   5.040 -1.9543  0.8076  1.1642
23617TIP3    H271734   8.235   5.586   5.098 -1.0605  0.3162  0.7428
23618TIP3   OH271735   3.581   5.432   5.397  0.2547 -0.0483  0.0392
23618TIP3    H171736   3.537   5.427   5.312 -1.9705  0.1127  1.0868
23618TIP3    H271737   3.609   5.523   5.404  2.8455 -0.6413 -1.5581
23619TIP3   OH271738   2.147   2.617   0.103  0.2461 -0.1433 -0.1469
23619TIP3    H171739   2.076   2.641   0.044 -0.1412 -1.1789 -0.1264
23619TIP3    H271740   2.166   2.697   0.152 -1.2769  0.0096  0.2370
23620TIP3   OH271741   5.320   8.058   6.991  0.5441  0.2535 -0.4368
23620TIP3    H171742   5.356   8.096   6.911  0.3272  0.1193 -0.6025
23620TIP3    H271743   5.337   8.123   7.059  0.3900  0.5384 -0.6688
23621TIP3   OH271744   1.773   9.986   5.690 -0.7706  0.0496 -0.0820
23621TIP3    H171745   1.727  10.031   5.619 -1.3050 -0.1296  0.1506
23621TIP3    H271746   1.796   9.901   5.652 -2.4614 -0.6848  0.4488
23622TIP3   OH271747   4.078   6.362   9.202  0.1499 -0.2569 -0.8042
23622TIP3    H171748   4.058   6.428   9.136 -2.2183 -1.4405 -1.3761
23622TIP3    H271749   3.997   6.312   9.212  1.6011 -2.6196  0.1383
23623TIP3   OH271750   0.834   8.280   5.415  0.3070  0.1338  0.4409
23623TIP3    H171751   0.821   8.244   5.503  2.0820  0.1333  0.7373
23623TIP3    H271752   0.803   8.371   5.422 -2.0364 -0.5758  0.3043
23624TIP3   OH271753   6.158   4.903   3.070  0.1030  0.5184 -0.0145
23624TIP3    H171754   6.204   4.876   3.149  0.0478  1.0311  0.1928
23624TIP3    H271755   6.107   4.826   3.045  0.1800  0.3303  0.4058
23625TIP3   OH271756   8.529   4.715   4.503  0.4402 -1.0305  0.3801
23625TIP3    H171757   8.504   4.783   4.440 -0.8957 -0.8208  1.0862
23625TIP3    H271758   8.541   4.762   4.585 -1.7233 -1.7230  1.1775
23626TIP3   OH271759  10.606   0.643   9.378  0.5155 -0.0830  0.2750
23626TIP3    H171760  10.661   0.565   9.381  2.4715  1.1395 -1.3592
23626TIP3    H271761  10.539   0.622   9.313  0.3127 -0.7913  0.6974
23627TIP3   OH271762   8.275   3.005   3.240  0.2799  0.2429  0.4859
23627TIP3    H171763   8.295   2.933   3.300 -0.6911 -0.2345  0.2518
23627TIP3    H271764   8.335   2.992   3.166  0.6766  0.1638  0.8117
23628TIP3   OH271765  10.756   6.728  10.556 -0.0696  0.1179  0.1490
23628TIP3    H171766  10.684   6.783  10.525 -0.1808  0.5691  1.1553
23628TIP3    H271767  10.786   6.772  10.636  0.0107 -1.1397  0.8271
23629TIP3   OH271768   1.856   5.100   7.847  0.3554 -0.0965  0.4183
23629TIP3    H171769   1.784   5.122   7.788  0.8939  0.5333 -0.0178
23629TIP3    H271770   1.816   5.094   7.934  0.1583  2.6519  0.5974
23630TIP3   OH271771   5.202   0.047   9.682  0.4958 -0.2804  0.8289
23630TIP3    H171772   5.115   0.031   9.646  1.0757  0.6651 -1.1363
23630TIP3    H271773   5.222   0.137   9.656  1.4223  0.0959  2.6635
23631TIP3   OH271774   4.762   1.329   9.451  0.1134 -0.2056  0.4583
23631TIP3    H171775   4.822   1.354   9.522 -1.2719 -0.6119  1.8288
23631TIP3    H271776   4.796   1.245   9.420  0.2175 -0.4781  1.2780
23632TIP3   OH271777   6.355   9.189   4.332 -0.1155  0.2063  0.6798
23632TIP3    H171778   6.290   9.259   4.331 -0.4969 -0.0296  3.0158
23632TIP3    H271779   6.432   9.227   4.289 -1.1623  1.1177 -0.4526
23633TIP3   OH271780   9.381   4.307   6.726 -0.2104 -0.4227  0.5060
23633TIP3    H171781   9.441   4.247   6.681  0.7405  0.5446  0.4411
23633TIP3    H271782   9.296   4.262   6.723  0.7255 -2.4011  1.7195
23634TIP3   OH271783   4.385   9.994   6.368  0.1032 -0.1946 -0.4641
23634TIP3    H171784   4.417   9.909   6.400  0.7978  0.3581  0.3537
23634TIP3    H271785   4.359   9.977   6.278 -2.1563 -1.8845  0.4006
23635TIP3   OH271786   6.631   5.849   0.096 -0.1202  0.1782 -0.6936
23635TIP3    H171787   6.565   5.918   0.085  2.2553  2.8207  0.4644
23635TIP3    H271788   6.702   5.874   0.036  1.2337 -0.6994  0.4743
23636TIP3   OH271789   1.276   6.623  10.642 -0.4410  0.2533 -0.1283
23636TIP3    H171790   1.273   6.705  10.691 -2.0264  1.2040 -1.6862
23636TIP3    H271791   1.185   6.594  10.638 -0.1177 -0.7318 -0.9509
23637TIP3   OH271792   2.111   9.360   2.187  0.2052 -0.1779 -0.3824
23637TIP3    H171793   2.032   9.375   2.134  0.8132  2.3670 -0.6814
23637TIP3    H271794   2.175   9.422   2.152  1.5895 -0.5491  1.3912
23638TIP3   OH271795   4.254   6.917   2.199 -0.0251  0.1552  0.3155
23638TIP3    H171796   4.197   6.932   2.274  0.2935  2.3134  0.2011
23638TIP3    H271797   4.326   6.980   2.210 -0.0910  0.7200 -1.8716
23639TIP3   OH271798   8.955   8.966   8.115  0.0508 -0.4922 -0.2448
23639TIP3    H171799   9.014   8.896   8.088 -1.1854 -1.4141 -0.6781
23639TIP3    H271800   8.990   9.045   8.072  1.0575 -0.9737 -0.3286
23640TIP3   OH271801   3.178   6.076   8.006 -0.4371 -0.3666  0.1530
23640TIP3    H171802   3.147   5.989   8.028 -0.8385 -0.0808  0.7197
23640TIP3    H271803   3.220   6.108   8.086 -0.1200 -0.1102 -0.1097
23641TIP3   OH271804   2.023   9.891   6.708  0.0112  0.2553 -0.2142
23641TIP3    H171805   2.040   9.973   6.753  0.4597  0.7967 -1.3426
23641TIP3    H271806   1.941   9.859   6.746 -0.3067  1.3535  0.0481
23642TIP3   OH271807   7.678   9.588  10.549 -0.1209  0.1643  0.8360
23642TIP3    H171808   7.634   9.509  10.520  0.3792 -0.4902  1.8048
23642TIP3    H271809   7.760   9.591  10.500 -0.8785  1.0074 -0.4449
23643TIP3   OH271810   5.474   4.915   6.317  0.0455 -0.7173  0.0689
23643TIP3    H171811   5.487   5.009   6.326 -2.0451 -0.4295  0.6482
23643TIP3    H271812   5.424   4.905   6.236  0.3555 -1.3622 -0.0556
23644TIP3   OH271813   4.051   3.294   0.895  0.1693  0.2952 -0.0934
23644TIP3    H171814   4.102   3.364   0.856  0.3150 -1.3324 -3.0943
23644TIP3    H271815   3.965   3.299   0.853 -0.6445  0.0989  1.4355
23645TIP3   OH271816   6.454   3.998   8.895 -0.4800 -0.2747 -0.0793
23645TIP3    H171817   6.496   4.083   8.907  1.7620 -1.2591 -0.3832
23645TIP3    H271818   6.469   3.951   8.977 -1.5052 -0.4558  0.0115
23646TIP3   OH271819   0.883   7.459   5.940  0.2317  0.4118  0.2259
23646TIP3    H171820   0.930   7.435   5.860 -2.3414  1.1184 -1.6324
23646TIP3    H271821   0.827   7.384   5.958 -0.7257  1.0797  0.1064
23647TIP3   OH271822  10.497   0.506   1.425  0.0972 -0.0925  0.6275
23647TIP3    H171823  10.418   0.529   1.473 -0.0245  0.8375  0.0095
23647TIP3    H271824  10.569   0.529   1.483 -0.0615  0.4619  0.6101
23648TIP3   OH271825   2.234   5.769   8.360  0.1331  0.3953  0.8384
23648TIP3    H171826   2.176   5.706   8.319  1.4152 -0.5303  0.3880
23648TIP3    H271827   2.322   5.742   8.334  0.8241  1.3547  2.0429
23649TIP3   OH271828   4.572   0.022   3.721  0.3338 -0.0102 -0.0671
23649TIP3    H171829   4.654   0.019   3.671  0.6387  0.1981  0.4087
23649TIP3    H271830   4.503   0.022   3.655  0.6518 -1.9684 -0.4828
23650TIP3   OH271831   4.185  10.135   4.446  0.3726 -0.5543 -0.7780
23650TIP3    H171832   4.093  10.149   4.424  0.6975  1.2215 -1.1358
23650TIP3    H271833   4.188  10.045   4.480 -1.5936 -0.4274 -0.1476
23651TIP3   OH271834   5.485   0.895   8.612 -0.2178  0.7445  0.0214
23651TIP3    H171835   5.463   0.811   8.573 -1.2500  1.5385 -1.1741
23651TIP3    H271836   5.561   0.926   8.562  0.7781  0.1063  1.1003
23652TIP3   OH271837   1.219   7.716   3.360 -0.2459  0.0764  0.0252
23652TIP3    H171838   1.246   7.764   3.438 -0.5843 -0.6885  0.6324
23652TIP3    H271839   1.301   7.701   3.312 -0.1028  0.9737 -0.0153
23653TIP3   OH271840  10.342   2.532   3.388  0.1508  0.0816  0.2523
23653TIP3    H171841  10.300   2.518   3.473 -0.2274  0.3124  0.1019
23653TIP3    H271842  10.392   2.613   3.399 -1.2222  1.0326 -0.2442
23654TIP3   OH271843   0.630   1.076  10.509  0.2854  0.0483 -0.3222
23654TIP3    H171844   0.544   1.094  10.547  0.2815 -1.1996  0.3085
23654TIP3    H271845   0.649   1.153  10.456 -0.7252  0.8411  0.4217
23655TIP3   OH271846   4.370   4.755   5.729  0.0408 -0.1725  0.1676
23655TIP3    H171847   4.326   4.839   5.742 -0.0292  0.2718 -2.3664
23655TIP3    H271848   4.321   4.693   5.783 -1.2749  1.0253  0.4029
23656TIP3   OH271849   8.906   0.809   7.632  0.1325 -0.1704  0.4714
23656TIP3    H171850   8.996   0.786   7.606  0.8830 -0.3920  2.9931
23656TIP3    H271851   8.905   0.904   7.632  0.0914 -0.1599 -0.3399
23657TIP3   OH271852   5.407   8.001   0.533  0.6764  0.1842  0.3266
23657TIP3    H171853   5.387   8.086   0.572  1.0201  1.0825 -1.3609
23657TIP3    H271854   5.465   7.958   0.596 -0.7842  0.4881  1.9497
23658TIP3   OH271855   6.425   1.005   9.926  0.1884 -0.5050  0.4713
23658TIP3    H171856   6.502   1.053   9.895  0.0426 -0.1110  0.7088
23658TIP3    H271857   6.419   0.929   9.868  0.2936 -0.1158 -0.0586
23659TIP3   OH271858   6.568   5.952   8.307  0.4783 -0.2230 -0.1813
23659TIP3    H171859   6.572   5.891   8.234  0.2266  1.3301 -1.5608
23659TIP3    H271860   6.505   5.913   8.368 -0.7585 -0.6700 -1.6816
23660TIP3   OH271861   2.372   5.291   8.709  0.3808 -0.1343  0.1618
23660TIP3    H171862   2.445   5.346   8.738  0.6158 -0.4082  0.0965
23660TIP3    H271863   2.322   5.347   8.649  0.9795 -0.1985 -0.4101
23661TIP3   OH271864  10.111   7.583   0.315 -0.3374 -0.1682 -0.0860
23661TIP3    H171865  10.078   7.512   0.371 -0.3205 -0.3706 -0.3320
23661TIP3    H271866  10.193   7.610   0.356 -0.2979 -0.3539 -0.0420
23662TIP3   OH271867   7.224  10.226   9.870  0.1725  0.1488 -0.5725
23662TIP3    H171868   7.161  10.227   9.798  0.7058  3.3884 -1.1832
23662TIP3    H271869   7.172  10.205   9.947 -1.6100  2.0940 -1.1485
23663TIP3   OH271870   6.235   3.077   0.500 -0.1737 -0.0819 -0.1764
23663TIP3    H171871   6.153   3.067   0.451 -0.7263 -0.9717  0.8628
23663TIP3    H271872   6.282   2.995   0.485  0.4444  0.3440 -0.6059
23664TIP3   OH271873   6.529   8.194   2.890 -0.3991  0.4697  0.9073
23664TIP3    H171874   6.624   8.198   2.899 -0.5502  3.4729  2.3814
23664TIP3    H271875   6.508   8.101   2.900  2.4629 -0.6428 -1.7171
23665TIP3   OH271876   5.371   0.536   4.842 -0.0282  0.3577  0.1712
23665TIP3    H171877   5.298   0.529   4.780 -0.2652 -0.3657  0.5147
23665TIP3    H271878   5.423   0.609   4.810  0.1093 -0.2870 -1.1379
23666TIP3   OH271879   7.995  10.088   2.887  0.4628  0.9537 -0.0956
23666TIP3    H171880   7.996   9.992   2.883  1.4541  0.9271  0.5832
23666TIP3    H271881   7.923  10.108   2.946  0.1399  0.6456 -0.3738
23667TIP3   OH271882   7.108   1.893   2.425  0.4417  0.0868  0.0027
23667TIP3    H171883   7.164   1.957   2.468 -1.4233  0.9893  1.2353
23667TIP3    H271884   7.064   1.942   2.355  0.6808 -0.4374 -0.5250
23668TIP3   OH271885   3.796   0.198   0.050 -0.2444 -0.8601 -1.1952
23668TIP3    H171886   3.798   0.158  -0.037 -1.1301  0.6473 -1.9442
23668TIP3    H271887   3.776   0.290   0.034 -0.4015 -0.5388  0.6144
23669TIP3   OH271888  10.455  10.244   7.433  0.2663  0.1372  0.1652
23669TIP3    H171889  10.509  10.181   7.480 -0.3860 -0.2609  0.4010
23669TIP3    H271890  10.406  10.191   7.370 -0.1261  0.4361  0.2124
23670TIP3   OH271891   4.422   7.246   9.352 -0.1064 -0.1768  0.3030
23670TIP3    H171892   4.450   7.171   9.404  2.0007  0.2436 -0.1318
23670TIP3    H271893   4.425   7.215   9.262 -1.4174 -0.2059  0.2573
23671TIP3   OH271894   8.570   1.465   2.460 -0.3827 -0.6556 -0.4700
23671TIP3    H171895   8.632   1.407   2.415  1.6135  0.5528  0.5873
23671TIP3    H271896   8.556   1.537   2.399  1.1499  0.2377  0.1887
23672TIP3   OH271897   6.030   1.652   9.008  0.1860 -0.1379  0.0910
23672TIP3    H171898   6.014   1.565   8.971 -0.0855 -0.4686  0.9665
23672TIP3    H271899   6.074   1.635   9.091  0.2449  0.5730  0.2103
23673TIP3   OH271900   5.539   2.107   8.893  0.2949  0.2990  0.1524
23673TIP3    H171901   5.634   2.105   8.898  0.2622 -0.8155  0.7479
23673TIP3    H271902   5.518   2.059   8.812  0.2616  1.8765 -0.8161
23674TIP3   OH271903   8.722   8.904   7.173 -0.0151 -0.1015 -0.0609
23674TIP3    H171904   8.679   8.925   7.255  0.6802 -0.0073  0.2897
23674TIP3    H271905   8.682   8.822   7.145 -1.4437  0.7269 -0.4971
23675TIP3   OH271906   8.688   7.053   9.123  0.0228  0.3042 -0.3467
23675TIP3    H171907   8.629   7.037   9.197  0.7445  1.1648  0.4432
23675TIP3    H271908   8.694   7.148   9.118  2.0848  0.2513  0.2292
23676TIP3   OH271909   2.103   4.201   9.203  0.2831  0.1819  0.4410
23676TIP3    H171910   2.161   4.209   9.127 -0.5671  0.3025 -0.2045
23676TIP3    H271911   2.073   4.290   9.220 -0.2898  0.0175  0.3081
23677TIP3   OH271912   8.714  10.255   3.093 -0.0933 -0.1269 -0.1339
23677TIP3    H171913   8.644  10.201   3.055  0.2881 -0.6841 -0.0582
23677TIP3    H271914   8.732  10.321   3.027  0.3358 -0.8925 -0.8009
23678TIP3   OH271915   9.270  10.547   4.522 -0.6384 -0.1093 -0.0151
23678TIP3    H171916   9.340  10.603   4.556  0.3060 -1.4430  0.3372
23678TIP3    H271917   9.253  10.485   4.593 -0.5010 -1.2840 -0.9771
23679TIP3   OH271918   1.560   4.781   0.139  0.2775 -0.1275  0.0794
23679TIP3    H171919   1.508   4.704   0.119  0.4521 -0.4615  0.9003
23679TIP3    H271920   1.501   4.838   0.188 -0.2876  0.8843 -1.6883
23680TIP3   OH271921   5.932   1.121   9.419 -0.1126 -0.4369 -0.5314
23680TIP3    H171922   5.838   1.121   9.440  0.1085  0.7148  0.6167
23680TIP3    H271923   5.975   1.101   9.503  0.6929  0.1083 -0.8048
23681TIP3   OH271924   6.975   6.850   2.143  0.2637  0.4835  0.0924
23681TIP3    H171925   6.989   6.931   2.094 -1.3247  0.1757 -0.9364
23681TIP3    H271926   6.890   6.862   2.186  0.2636 -0.4262  0.3659
23682TIP3   OH271927   6.217  10.857  10.078 -0.4004 -0.8045 -0.4951
23682TIP3    H171928   6.187  10.768  10.061  1.9478 -1.9415  0.7420
23682TIP3    H271929   6.303  10.862  10.035  0.0914  0.4185  0.5648
23683TIP3   OH271930  10.023   3.206   2.496 -0.0267 -0.4636  0.0647
23683TIP3    H171931   9.971   3.189   2.574  0.9385 -0.2709  0.7607
23683TIP3    H271932  10.003   3.296   2.473  2.1805  0.6379  2.0731
23684TIP3   OH271933   7.925   9.214  10.620  0.4000  0.6548 -0.1154
23684TIP3    H171934   7.916   9.121  10.600  0.6039  0.3445  1.1153
23684TIP3    H271935   7.918   9.258  10.536 -0.9009 -0.3812 -0.5769
23685TIP3   OH271936   8.889   4.030   3.711  0.0623 -0.4730  0.6967
23685TIP3    H171937   8.812   4.086   3.720 -0.6383  0.2225 -5.2778
23685TIP3    H271938   8.854   3.941   3.710 -0.4462 -0.2738 -0.1833
23686TIP3   OH271939   0.234   9.852   4.304  0.1049  0.4092  0.1444
23686TIP3    H171940   0.312   9.843   4.251  0.4659 -0.7688  0.8286
23686TIP3    H271941   0.182   9.775   4.283 -0.4772  0.7424  0.3371
23687TIP3   OH271942   4.737   3.737   6.207  0.0203  0.1873 -0.0780
23687TIP3    H171943   4.819   3.713   6.165  1.0673 -0.0024  1.9387
23687TIP3    H271944   4.762   3.761   6.296 -2.3190 -1.9215  1.2817
23688TIP3   OH271945   3.481   2.851   6.608  0.2254 -0.2577  0.2477
23688TIP3    H171946   3.394   2.841   6.570 -0.0002  0.4414  0.5535
23688TIP3    H271947   3.535   2.883   6.536 -0.3719  1.8152  0.6341
23689TIP3   OH271948   7.102   7.475   5.866 -0.0562 -0.2983 -0.2595
23689TIP3    H171949   7.015   7.462   5.828 -0.3418 -3.4554  1.1574
23689TIP3    H271950   7.163   7.447   5.798 -0.0979  1.2381 -0.9890
23690TIP3   OH271951   1.286   8.689  10.067  0.1093  0.3764  0.1116
23690TIP3    H171952   1.328   8.675   9.982 -0.2772 -0.7865  0.0960
23690TIP3    H271953   1.234   8.610  10.082  0.7504  0.2277  1.7671
23691TIP3   OH271954   9.902  10.856   2.145 -0.0732 -0.2307 -0.3247
23691TIP3    H171955   9.921  10.810   2.063  0.2384 -1.4111  0.3813
23691TIP3    H271956   9.821  10.815   2.177  0.0761 -0.1186  0.1995
23692TIP3   OH271957   0.584   0.703   9.410 -0.1170  0.1043 -0.7738
23692TIP3    H171958   0.587   0.792   9.446 -0.3704 -0.2214  0.0544
23692TIP3    H271959   0.564   0.717   9.317 -0.3442  0.9054 -0.6182
23693TIP3   OH271960  10.362   6.544   6.924  0.4771  0.0793 -0.2691
23693TIP3    H171961  10.400   6.473   6.977  1.1526 -0.7977 -1.8810
23693TIP3    H271962  10.400   6.624   6.960  1.5866 -0.5637  0.0363
23694TIP3   OH271963   0.222   4.168   4.434 -0.1382  0.2830 -0.1369
23694TIP3    H171964   0.134   4.200   4.414  0.2054  2.3217  1.2665
23694TIP3    H271965   0.208   4.080   4.469 -1.4158 -0.1708 -1.6738
23695TIP3   OH271966   8.081   6.116   7.624 -0.8313 -0.5589 -0.5533
23695TIP3    H171967   8.143   6.189   7.616 -2.8783  1.3939  0.4455
23695TIP3    H271968   8.090   6.068   7.541 -1.4266  2.5356 -2.5768
23696TIP3   OH271969   6.488   7.670   5.646 -0.2393 -1.2271  0.8845
23696TIP3    H171970   6.491   7.620   5.727 -0.9666 -0.5468  1.3386
23696TIP3    H271971   6.406   7.645   5.605  0.7112 -2.5567 -0.3117
23697TIP3   OH271972   4.374   5.016   9.978  0.5461  0.1167  0.4780
23697TIP3    H171973   4.304   4.953   9.960  0.8971  0.0577 -0.7034
23697TIP3    H271974   4.349   5.055  10.062 -0.0579 -1.0592  0.8699
23698TIP3   OH271975   4.720   0.249   8.970 -0.4504 -0.3975  0.1582
23698TIP3    H171976   4.812   0.226   8.964  0.0200  1.5429 -0.6030
23698TIP3    H271977   4.715   0.310   9.044 -1.4991 -2.0609  1.5258
23699TIP3   OH271978   8.379   8.439   5.319  0.0896 -0.1464 -0.3950
23699TIP3    H171979   8.370   8.531   5.342 -0.5753  0.1558 -1.7404
23699TIP3    H271980   8.458   8.411   5.364  0.3474  1.0982 -0.0241
23700TIP3   OH271981   8.282   3.243   4.092  0.1870  0.0721 -0.2350
23700TIP3    H171982   8.207   3.235   4.150 -0.5624 -0.2131 -1.2149
23700TIP3    H271983   8.358   3.234   4.149 -0.5218 -1.9373  0.4733
23701TIP3   OH271984   1.126   0.845   0.978  0.8261 -0.0004  0.2941
23701TIP3    H171985   1.199   0.825   1.037  1.1790  0.0514 -0.1239
23701TIP3    H271986   1.057   0.784   1.004  0.3137  1.2218  1.9817
23702TIP3   OH271987  10.003   9.806   2.857 -0.0440 -0.1200 -0.1664
23702TIP3    H171988  10.062   9.760   2.917 -1.1918 -1.7360 -0.2027
23702TIP3    H271989   9.933   9.838   2.913 -1.0522 -1.5198 -0.5554
23703TIP3   OH271990   6.984   0.097   7.833 -0.1596  0.0087 -0.2320
23703TIP3    H171991   7.011   0.006   7.820 -1.2305 -0.2495 -0.7101
23703TIP3    H271992   6.965   0.103   7.926  0.5606 -0.0690 -0.0725
23704TIP3   OH271993   8.838   6.929   3.990 -0.3582  0.8740  0.4003
23704TIP3    H171994   8.837   7.020   4.019 -2.2161  1.4869 -1.3707
23704TIP3    H271995   8.761   6.920   3.935 -1.4404 -2.3532  2.1524
23705TIP3   OH271996   9.510   9.196   7.873  0.2095 -0.1648  0.2557
23705TIP3    H171997   9.592   9.147   7.880  1.9642  2.5478  0.3787
23705TIP3    H271998   9.501   9.215   7.780 -0.1593 -0.2478  0.2723
23706TIP3   OH271999   9.778   5.188  10.736  0.2290 -0.2978 -0.1174
23706TIP3    H172000   9.723   5.110  10.747  0.6013 -0.4252  1.0095
23706TIP3    H272001   9.831   5.169  10.659  2.2110 -2.3793  1.5999
23707TIP3   OH272002   5.789  10.855   4.000 -0.0227 -0.0285 -0.2676
23707TIP3    H172003   5.878  10.881   4.025 -0.0120  0.1764 -0.5085
23707TIP3    H272004   5.749  10.936   3.967  0.2013 -0.4248 -1.5858
23708TIP3   OH272005  10.669   6.076   8.102  0.1178  0.3721 -0.4010
23708TIP3    H172006  10.655   5.996   8.052 -0.7690  1.9036 -2.7739
23708TIP3    H272007  10.714   6.047   8.181  0.1749 -2.3956 -1.3345
23709TIP3   OH272008   1.896   9.742   1.855  0.1125  0.0544  0.7264
23709TIP3    H172009   1.801   9.746   1.848 -0.0757  0.0211  2.7114
23709TIP3    H272010   1.924   9.833   1.866 -0.0749 -0.1184  3.4328
23710TIP3   OH272011  10.273   4.207   0.621 -0.1825  0.5866 -0.1411
23710TIP3    H172012  10.295   4.237   0.709  0.5583 -1.1025  0.2813
23710TIP3    H272013  10.346   4.150   0.596 -0.9634  0.0796 -1.3555
23711TIP3   OH272014   3.623   8.724   9.209 -0.1308 -0.2864  0.2618
23711TIP3    H172015   3.535   8.686   9.201 -0.2087 -0.2366  0.8374
23711TIP3    H272016   3.639   8.727   9.303  0.6755 -0.7121  0.1410
23712TIP3   OH272017   8.304   5.221   2.610  0.1700  0.3417  0.6733
23712TIP3    H172018   8.321   5.182   2.524  3.5125 -2.2895  2.2601
23712TIP3    H272019   8.214   5.194   2.631  0.7637 -2.8555 -0.2731
23713TIP3   OH272020   6.054   1.445   3.637  0.3274  0.2029 -0.5371
23713TIP3    H172021   6.026   1.537   3.635 -0.3401  0.0381  0.3452
23713TIP3    H272022   6.149   1.448   3.623  0.3255  1.0392 -0.4007
23714TIP3   OH272023   1.768   3.153  10.256  0.1549 -0.2672  0.3109
23714TIP3    H172024   1.763   3.059  10.275  0.9045 -0.3086  0.3254
23714TIP3    H272025   1.684   3.188  10.286  0.0213 -0.8745  0.6590
23715TIP3   OH272026   9.200   6.000   0.603 -0.0127  0.5502  0.2634
23715TIP3    H172027   9.214   6.020   0.695  1.2086 -1.5905  0.6058
23715TIP3    H272028   9.288   5.985   0.568 -0.4469  1.4138 -1.2927
23716TIP3   OH272029   5.327   0.225   8.115  0.4094 -0.3362  0.4903
23716TIP3    H172030   5.404   0.179   8.149  2.1165  0.5487 -1.8655
23716TIP3    H272031   5.339   0.315   8.143  1.5116  0.2722 -1.6999
23717TIP3   OH272032   4.169   4.743   3.857 -0.0570  0.7407 -0.7371
23717TIP3    H172033   4.178   4.702   3.944 -2.1146  0.3458 -0.6540
23717TIP3    H272034   4.097   4.805   3.868 -2.7778 -1.7697 -2.9255
23718TIP3   OH272035   5.470   0.991   3.563  0.8542  0.3590 -0.4430
23718TIP3    H172036   5.510   1.010   3.648  1.6602  0.7724 -0.9066
23718TIP3    H272037   5.497   0.901   3.543  1.8476  0.7553 -0.9109
23719TIP3   OH272038   6.749   5.949   5.295 -0.6114  0.7252  0.0228
23719TIP3    H172039   6.785   5.900   5.369  0.4461  0.0028 -0.9346
23719TIP3    H272040   6.793   5.912   5.219  0.4203  3.3020 -0.7526
23720TIP3   OH272041  10.857   2.210  10.549  0.0970  0.1740 -0.1076
23720TIP3    H172042  10.841   2.268  10.623 -0.4915  1.5010 -1.2400
23720TIP3    H272043  10.932   2.248  10.504  0.6508 -0.8010 -0.0444
23721TIP3   OH272044   0.275   4.648   7.854  0.2725 -0.4857  0.7994
23721TIP3    H172045   0.194   4.624   7.809 -0.2435  0.3589  1.2582
23721TIP3    H272046   0.338   4.666   7.784  0.3489 -2.0321  0.4357
23722TIP3   OH272047   9.942  10.228   4.553 -0.3178  0.2124  0.2265
23722TIP3    H172048  10.009  10.160   4.567 -0.5839  0.2740  2.1431
23722TIP3    H272049   9.986  10.310   4.577 -0.6096  0.4559 -0.0701
23723TIP3   OH272050   3.032   6.585   6.979 -0.7449 -0.7552 -0.3885
23723TIP3    H172051   3.004   6.502   7.017 -0.0701 -0.7145  0.2259
23723TIP3    H272052   3.001   6.651   7.041  0.8168 -0.7212  0.4041
23724TIP3   OH272053   2.800   9.610   8.133  0.0500 -0.2828  0.3816
23724TIP3    H172054   2.769   9.697   8.110  1.0180  0.2412  1.0008
23724TIP3    H272055   2.884   9.625   8.176  0.9365 -1.6101 -0.7880
23725TIP3   OH272056   2.819   4.503   2.304  0.2736  0.0294 -0.6278
23725TIP3    H172057   2.815   4.596   2.327 -1.1856 -0.3348  0.8274
23725TIP3    H272058   2.885   4.466   2.363  0.3890  0.0351 -0.7541
23726TIP3   OH272059   0.322   3.505   4.230  0.8815 -0.3315 -0.1192
23726TIP3    H172060   0.229   3.519   4.251  0.2379  0.3334 -3.0417
23726TIP3    H272061   0.368   3.538   4.308 -1.2683  1.2874  0.5977
23727TIP3   OH272062   6.297   7.226   0.239 -0.5282  0.1060 -0.6127
23727TIP3    H172063   6.231   7.189   0.180 -0.6693  0.0609 -0.4276
23727TIP3    H272064   6.279   7.320   0.239 -0.6216  0.0884 -0.5274
23728TIP3   OH272065   7.776  10.625   8.740 -0.1476 -0.1100 -0.2596
23728TIP3    H172066   7.783  10.714   8.706 -1.6846 -0.6442 -2.1953
23728TIP3    H272067   7.855  10.581   8.707 -0.9654 -0.2616 -2.1899
23729TIP3   OH272068   9.377  10.150   3.417  0.2335 -0.6898  0.0775
23729TIP3    H172069   9.292  10.145   3.374  0.6762  0.1391 -0.9643
23729TIP3    H272070   9.423  10.071   3.389  0.2714 -0.4900 -0.4365
23730TIP3   OH272071   6.622   2.661   9.454 -0.3368 -0.2079  0.5529
23730TIP3    H172072   6.691   2.612   9.498  0.1947  0.5922  0.6499
23730TIP3    H272073   6.616   2.743   9.504  0.3943  0.7921 -0.9243
23731TIP3   OH272074   4.534   2.112   3.765  0.0698 -0.1803  0.2458
23731TIP3    H172075   4.454   2.078   3.725 -1.1952  0.2833  2.2493
23731TIP3    H272076   4.586   2.143   3.691 -0.5578 -2.5484 -1.3066
23732TIP3   OH272077   7.566   2.966   7.169  0.1161  0.0728  0.1304
23732TIP3    H172078   7.639   2.924   7.216  0.8489 -0.3176 -1.3047
23732TIP3    H272079   7.533   2.898   7.110  0.0238  0.9036 -0.8104
23733TIP3   OH272080   2.926   2.783   6.000  0.1864  0.1886  0.2116
23733TIP3    H172081   2.941   2.840   6.075  1.2573 -0.1355  0.2528
23733TIP3    H272082   3.012   2.746   5.979  0.1588  1.1149 -1.8624
23734TIP3   OH272083   3.323   1.933   5.651 -0.2279 -0.5859 -0.4860
23734TIP3    H172084   3.259   1.874   5.610 -1.6319 -0.1307  0.9397
23734TIP3    H272085   3.393   1.942   5.586 -2.5712  0.5674 -3.0132
23735TIP3   OH272086   1.565   0.447   0.935  0.6039 -0.4228  0.1949
23735TIP3    H172087   1.605   0.373   0.890 -1.7475 -0.4878 -2.0363
23735TIP3    H272088   1.601   0.524   0.891  0.2001 -0.3913 -0.0838
23736TIP3   OH272089   8.569   9.699   6.736  0.9245 -0.5080 -0.0963
23736TIP3    H172090   8.539   9.668   6.651  2.0078  0.8784 -1.0556
23736TIP3    H272091   8.658   9.664   6.744  1.2090  0.2057 -0.0336
23737TIP3   OH272092   9.349   2.036   5.889 -0.0302 -0.2786  0.5534
23737TIP3    H172093   9.282   1.993   5.942  0.4716 -0.2478  1.2347
23737TIP3    H272094   9.307   2.054   5.805 -1.5925  1.7898  1.7019
23738TIP3   OH272095   1.813   3.611   8.619 -0.7827 -0.4363  0.4194
23738TIP3    H172096   1.897   3.568   8.601  1.0618  2.5482  1.1269
23738TIP3    H272097   1.801   3.599   8.713 -0.8302 -0.3765  0.4207
23739TIP3   OH272098   0.166   4.508   5.611  0.2359  0.3822  0.4064
23739TIP3    H172099   0.102   4.444   5.581  0.1844 -0.3060  1.8563
23739TIP3    H272100   0.166   4.577   5.544 -0.5742 -0.5567 -0.5861
23740TIP3   OH272101   7.165   5.183   4.717 -0.3148 -0.0075 -0.1485
23740TIP3    H172102   7.086   5.130   4.711  0.1382 -0.9197  1.3849
23740TIP3    H272103   7.153   5.235   4.797  1.1754 -1.1845  0.9083
23741TIP3   OH272104   3.878   8.357   9.636 -0.2239  0.3878 -0.1905
23741TIP3    H172105   3.934   8.337   9.711 -0.8844  0.2666  0.2795
23741TIP3    H272106   3.814   8.420   9.670 -0.4771  0.3919 -0.6690
23742TIP3   OH272107   8.564   2.682   8.993  0.1508 -0.1384 -0.6200
23742TIP3    H172108   8.607   2.755   8.948 -0.6306 -0.0113 -1.1740
23742TIP3    H272109   8.475   2.712   9.008  0.5655  0.1218  1.7024
23743TIP3   OH272110   1.209   7.138   8.530  0.9145  0.0225 -0.1791
23743TIP3    H172111   1.154   7.131   8.453  1.8450  1.5589 -1.0362
23743TIP3    H272112   1.198   7.229   8.560  1.7681 -0.0920  0.5370
23744TIP3   OH272113   8.554   3.248   0.944 -0.4590 -0.5384  0.0814
23744TIP3    H172114   8.489   3.316   0.962  0.5368  0.1081  1.4172
23744TIP3    H272115   8.550   3.235   0.849 -0.8521  1.1969 -0.1608
23745TIP3   OH272116   0.056   1.180   1.924 -0.3277  0.1566 -0.2588
23745TIP3    H172117   0.065   1.181   1.829 -3.0394 -1.0018 -0.6469
23745TIP3    H272118   0.144   1.163   1.957  0.4987 -0.5613 -2.6338
23746TIP3   OH272119   7.340   5.219   1.998  0.1261 -0.3409 -0.3038
23746TIP3    H172120   7.264   5.165   2.021 -0.9952  1.4100  0.2816
23746TIP3    H272121   7.366   5.260   2.080  0.8338  0.1696 -0.7718
23747TIP3   OH272122   5.655   6.751   2.384 -0.3811  0.0737 -0.7919
23747TIP3    H172123   5.696   6.790   2.307  0.8633  0.3041 -0.0437
23747TIP3    H272124   5.726   6.742   2.448 -1.6760  1.4612  0.9667
23748TIP3   OH272125  10.257   7.971   3.778 -0.5423 -0.1288  0.5368
23748TIP3    H172126  10.180   7.916   3.763 -2.1564  2.4182 -1.2456
23748TIP3    H272127  10.226   8.060   3.764  2.5376  1.0976  0.7910
23749TIP3   OH272128   2.948   4.076   9.239 -0.0613  0.1330  0.4190
23749TIP3    H172129   2.882   4.051   9.303  0.3289  0.5854  1.0056
23749TIP3    H272130   2.917   4.039   9.156 -1.1424  0.5163  0.6483
23750TIP3   OH272131   4.138   2.519   6.938 -0.4792 -0.2934  0.4036
23750TIP3    H172132   4.149   2.540   7.031  1.3506  0.7223  0.0204
23750TIP3    H272133   4.205   2.452   6.921  0.3423  0.7260 -0.5131
23751TIP3   OH272134   7.870   0.762   1.530 -0.4925  0.8613 -0.1082
23751TIP3    H172135   7.946   0.819   1.533 -0.9472  1.5947 -1.5162
23751TIP3    H272136   7.902   0.676   1.559  0.6423  1.3760  0.1951
23752TIP3   OH272137   8.279   1.391  10.033  0.3952 -0.4636  0.4364
23752TIP3    H172138   8.304   1.299  10.041 -0.0597 -0.6282  0.0449
23752TIP3    H272139   8.313   1.418   9.948 -1.3480 -0.9037 -0.4430
23753TIP3   OH272140   9.308   9.455   3.628  0.5027  0.1411  0.5913
23753TIP3    H172141   9.282   9.543   3.656 -2.8480 -0.3316 -0.5747
23753TIP3    H272142   9.332   9.466   3.536 -1.7899 -0.3421 -0.1358
23754TIP3   OH272143   0.380   9.528   5.001 -0.0821  0.7837 -0.3584
23754TIP3    H172144   0.471   9.525   4.973 -0.0160 -3.1179 -0.2679
23754TIP3    H272145   0.330   9.502   4.922 -0.8202  0.1915  0.2808
23755TIP3   OH272146   9.320   1.816   9.016  0.1237  0.3357  0.1035
23755TIP3    H172147   9.289   1.771   9.095  0.7903 -1.0171 -0.3749
23755TIP3    H272148   9.240   1.851   8.976 -0.1312  1.9566  1.8706
23756TIP3   OH272149   0.120   6.153   5.491  0.3927  0.2592  0.8429
23756TIP3    H172150   0.025   6.150   5.480  0.1847 -0.6192  2.5462
23756TIP3    H272151   0.134   6.208   5.568  1.0623 -1.7750  2.2582
23757TIP3   OH272152  10.845   6.930   0.959 -0.0313  0.0355 -0.2077
23757TIP3    H172153  10.851   6.912   1.053  0.9193  2.0302  0.1703
23757TIP3    H272154  10.752   6.922   0.939 -0.2463 -0.4462  0.8955
23758TIP3   OH272155   8.533   4.983   9.251  0.4500  0.5094 -0.1757
23758TIP3    H172156   8.437   4.979   9.258  0.5202 -2.5676  0.3949
23758TIP3    H272157   8.563   4.999   9.340  0.4777  0.2991 -0.1463
23759TIP3   OH272158   1.819   9.885   3.396  0.3301  0.0720  0.0494
23759TIP3    H172159   1.729   9.857   3.411  1.0688 -1.5605  1.9243
23759TIP3    H272160   1.870   9.841   3.464  2.9022 -1.0115 -2.3260
23760TIP3   OH272161   6.156  10.395   1.800  0.6451  0.4275  0.4141
23760TIP3    H172162   6.144  10.416   1.708 -0.3999  0.2662  0.4960
23760TIP3    H272163   6.236  10.441   1.825  2.1115 -1.1849 -1.0521
23761TIP3   OH272164   0.959   4.941   6.679  0.4034  0.2982  0.1636
23761TIP3    H172165   0.953   4.958   6.773 -0.1618  2.3266 -0.1975
23761TIP3    H272166   0.985   5.025   6.640 -0.8277 -0.0911 -1.6382
23762TIP3   OH272167   7.417   8.057   4.448 -0.3386  0.0525  0.3628
23762TIP3    H172168   7.495   8.112   4.459  1.2110 -2.0512  0.6500
23762TIP3    H272169   7.436   8.005   4.370 -2.2204  0.6078 -0.5140
23763TIP3   OH272170   1.699   2.676   0.932 -0.1146  0.0695  0.1382
23763TIP3    H172171   1.768   2.713   0.988 -2.1624  1.4430  1.9460
23763TIP3    H272172   1.703   2.728   0.852 -1.1116  2.5091  1.5460
23764TIP3   OH272173   6.243   8.454   0.153  0.8772  0.1964  0.4190
23764TIP3    H172174   6.198   8.408   0.082  2.7631 -0.8550 -0.1725
23764TIP3    H272175   6.310   8.392   0.183  0.7640  0.9872  2.4805
23765TIP3   OH272176   2.356   7.688   3.944  0.1044  0.5314 -0.2434
23765TIP3    H172177   2.374   7.595   3.926  2.3681  0.5636  1.3806
23765TIP3    H272178   2.275   7.706   3.898  0.2374 -1.9425 -1.6183
23766TIP3   OH272179   5.549   1.359   8.123  0.5389  0.3616 -0.0756
23766TIP3    H172180   5.586   1.360   8.211  0.1079  0.8004  0.1043
23766TIP3    H272181   5.486   1.431   8.122 -0.8715 -0.8136 -0.1169
23767TIP3   OH272182   4.197   7.415   4.496  0.2249  0.3788 -0.4991
23767TIP3    H172183   4.198   7.320   4.484 -0.9331  0.3854 -0.7511
23767TIP3    H272184   4.203   7.450   4.407 -0.2880  0.5281 -0.4758
23768TIP3   OH272185   4.504   7.341   6.014 -0.1136 -0.1074  0.1001
23768TIP3    H172186   4.521   7.304   5.927 -1.5526  2.2469 -1.2919
23768TIP3    H272187   4.464   7.269   6.063  0.0159 -1.2698 -1.4224
23769TIP3   OH272188   8.946   9.885  10.049  0.2758 -0.1056 -0.3797
23769TIP3    H172189   9.024   9.840  10.015 -0.1808 -1.8023  0.7059
23769TIP3    H272190   8.882   9.878   9.978  0.9551  0.9572 -1.1273
23770TIP3   OH272191  10.907   0.626   4.767 -0.3336 -0.2143  0.1927
23770TIP3    H172192  10.831   0.587   4.722 -0.3110  0.2745 -0.2781
23770TIP3    H272193  10.894   0.603   4.859 -1.7555  0.9700  0.3162
23771TIP3   OH272194   2.527   6.084   4.004 -0.3291 -0.2318 -0.2222
23771TIP3    H172195   2.582   6.057   3.930  0.5601  0.8087  0.0381
23771TIP3    H272196   2.566   6.166   4.035 -2.3100  0.8040 -0.3192
23772TIP3   OH272197   9.967   5.292   4.486  0.1589 -0.8873  0.0242
23772TIP3    H172198   9.978   5.222   4.421 -0.3920 -0.6134 -0.3651
23772TIP3    H272199  10.028   5.360   4.459  0.5760 -1.1377  0.3097
23773TIP3   OH272200   0.123   9.997   6.095  0.6297  0.4570  0.2287
23773TIP3    H172201   0.049  10.058   6.098  0.2923  0.5583 -4.0846
23773TIP3    H272202   0.083   9.910   6.103  0.2694  0.5883 -0.1251
23774TIP3   OH272203   0.034   9.729   0.648  0.2025 -0.0900 -0.4147
23774TIP3    H172204  -0.014   9.651   0.618  2.8547 -2.1061  0.2389
23774TIP3    H272205   0.062   9.772   0.568 -1.0852  0.1256 -0.7854
23775TIP3   OH272206   8.999   9.253   1.052 -0.3763  0.0595 -0.5544
23775TIP3    H172207   9.027   9.198   0.979  0.6298  0.7949 -0.7401
23775TIP3    H272208   8.907   9.271   1.034 -0.0449  0.5602 -1.8713
23776TIP3   OH272209   9.765   9.013  10.612 -0.0579 -0.4981  0.6360
23776TIP3    H172210   9.722   9.096  10.593  3.2306  1.0006 -1.2135
23776TIP3    H272211   9.694   8.950  10.621 -2.6451  2.2594  0.9854
23777TIP3   OH272212   4.644   5.322   1.093  0.1688 -0.9819  0.5823
23777TIP3    H172213   4.606   5.315   1.005  2.2213 -1.8964 -0.2785
23777TIP3    H272214   4.732   5.357   1.079  1.0174 -2.3468  2.1268
23778TIP3   OH272215  10.648   9.305  10.206 -0.6529  0.2368  0.3943
23778TIP3    H172216  10.686   9.270  10.126  1.1862 -0.3541  1.4525
23778TIP3    H272217  10.652   9.400  10.196  0.0247  0.1677 -0.0328
23779TIP3   OH272218   7.931  10.083   9.557 -0.0273  0.4083 -0.0036
23779TIP3    H172219   7.908  10.153   9.619  0.6806  0.1037  0.6129
23779TIP3    H272220   7.916  10.122   9.471 -0.6167  0.9807  0.3483
23780TIP3   OH272221   2.859  10.387   6.189  0.5190 -0.2996  0.2826
23780TIP3    H172222   2.876  10.371   6.282  1.0376  0.0315  0.2461
23780TIP3    H272223   2.764  10.382   6.182  0.2869  1.8149  1.2364
23781TIP3   OH272224   0.591  10.810   1.001 -0.1633  0.8853 -0.1481
23781TIP3    H172225   0.574  10.879   0.938 -0.4893  1.6673  0.7667
23781TIP3    H272226   0.657  10.755   0.959  0.5515  2.0928 -0.6619
23782TIP3   OH272227   7.442   3.004   3.374 -0.3923  0.1052  0.4732
23782TIP3    H172228   7.480   2.916   3.379 -1.2284 -0.2833  0.2810
23782TIP3    H272229   7.512   3.062   3.402  1.2965 -0.3000 -2.4421
23783TIP3   OH272230   4.257   6.549   8.996 -0.2360  0.8217  0.2970
23783TIP3    H172231   4.172   6.508   8.979  1.1423 -0.9832 -3.4110
23783TIP3    H272232   4.312   6.478   9.028  0.6414  1.1843 -0.3642
23784TIP3   OH272233   6.608   8.296   6.369 -0.4253  0.0960 -0.5092
23784TIP3    H172234   6.681   8.237   6.391 -1.1998 -0.8024 -0.2705
23784TIP3    H272235   6.650   8.375   6.335  0.7215  0.2025  1.0338
23785TIP3   OH272236   5.119   8.746   8.192  0.5913  0.1065 -0.4495
23785TIP3    H172237   5.123   8.817   8.128  1.3640  0.3867 -0.1114
23785TIP3    H272238   5.059   8.777   8.260 -0.9723 -0.5746 -1.4568
23786TIP3   OH272239   3.956   4.307   0.515  0.1632  0.3413  0.2918
23786TIP3    H172240   3.952   4.218   0.480 -2.9400  0.4721  0.0088
23786TIP3    H272241   4.048   4.333   0.505  0.8245 -2.2066 -1.1602
23787TIP3   OH272242   7.306   9.822   8.650  0.4061  0.4216 -0.6864
23787TIP3    H172243   7.312   9.916   8.633  0.8452  0.6667  0.7059
23787TIP3    H272244   7.308   9.782   8.563  1.4001  1.6370 -1.2526
23788TIP3   OH272245   0.041   9.517   3.455 -0.7228  0.7211  0.6481
23788TIP3    H172246   0.121   9.563   3.428  0.8412 -2.4415 -0.7497
23788TIP3    H272247   0.050   9.507   3.550  0.5632  0.4481  0.5208
23789TIP3   OH272248   0.907   4.643   7.797 -0.0030  0.0068  0.3192
23789TIP3    H172249   0.926   4.727   7.755 -0.6925 -0.4712 -0.9759
23789TIP3    H272250   0.902   4.665   7.891  1.7867  1.0401  0.2300
23790TIP3   OH272251   1.947   0.084   8.900  0.0492 -0.4747 -0.8813
23790TIP3    H172252   1.859   0.051   8.888  0.0750 -1.4769  1.2582
23790TIP3    H272253   1.943   0.134   8.982  0.9839  1.3766 -1.8943
23791TIP3   OH272254   7.751   5.008   9.439 -0.1003  0.4913 -0.1124
23791TIP3    H172255   7.672   5.058   9.420 -0.2541  0.2968  0.0096
23791TIP3    H272256   7.761   5.015   9.534 -0.8784 -0.8159  0.0990
23792TIP3   OH272257   3.296   1.659   2.421 -0.0648  0.0579 -0.1468
23792TIP3    H172258   3.322   1.710   2.344  1.5606 -0.3931  0.0570
23792TIP3    H272259   3.221   1.608   2.392  0.6891 -0.3139 -1.5428
23793TIP3   OH272260   8.601   7.851   4.328 -0.7840 -0.1457 -0.1355
23793TIP3    H172261   8.622   7.932   4.282 -0.7114 -0.7524 -1.2032
23793TIP3    H272262   8.680   7.829   4.376 -0.7416  0.3127  0.0059
23794TIP3   OH272263   1.950   0.806   9.105  0.4319 -0.1883  0.0932
23794TIP3    H172264   1.987   0.894   9.103 -0.6510  0.3819  1.9764
23794TIP3    H272265   1.940   0.787   9.199 -0.9941 -1.5940 -0.3057
23795TIP3   OH272266   8.418   5.783   2.937  0.0815  0.1560  0.1333
23795TIP3    H172267   8.331   5.765   2.902 -0.2361 -0.8318  1.3615
23795TIP3    H272268   8.449   5.858   2.886 -2.0440  1.4498  0.6166
23796TIP3   OH272269   4.577   8.534   8.678 -0.2556 -0.3242  0.2577
23796TIP3    H172270   4.642   8.560   8.743 -1.2629 -0.3004  1.2836
23796TIP3    H272271   4.626   8.483   8.613  0.8334 -0.0048  0.8207
23797TIP3   OH272272   8.403   3.407   0.327 -0.4667 -0.2394 -0.3115
23797TIP3    H172273   8.420   3.375   0.416 -1.4988 -1.6501 -0.5906
23797TIP3    H272274   8.469   3.363   0.273 -0.0103  0.4108 -0.2919
23798TIP3   OH272275   5.431   2.813  10.316 -0.0387 -0.2918 -0.3532
23798TIP3    H172276   5.340   2.844  10.319  0.0800  0.0355  1.4634
23798TIP3    H272277   5.454   2.800  10.408  1.6472 -0.7088 -0.8037
23799TIP3   OH272278   0.074   7.056   0.757  0.0440  0.1252  0.0402
23799TIP3    H172279  -0.000   7.042   0.699  0.1991 -0.4551 -0.0189
23799TIP3    H272280   0.044   7.026   0.843 -0.3654  1.4560  0.3979
23800TIP3   OH272281   4.890   8.843   2.292  0.5073 -0.3751 -0.0187
23800TIP3    H172282   4.813   8.845   2.236 -0.0481  2.8175  0.6597
23800TIP3    H272283   4.856   8.826   2.380  0.7920 -0.5433  0.0623
23801TIP3   OH272284   1.888   5.533   7.506 -0.5453  0.1487 -0.0198
23801TIP3    H172285   1.952   5.464   7.525 -1.8303 -0.7635  1.1550
23801TIP3    H272286   1.931   5.587   7.440  0.9640 -1.1144 -0.1407
23802TIP3   OH272287   6.775  10.233   0.760 -0.3705  0.3964 -0.0178
23802TIP3    H172288   6.842  10.264   0.822 -0.4687  0.6798 -0.0530
23802TIP3    H272289   6.817  10.238   0.675 -0.1415 -0.2516  0.0464
23803TIP3   OH272290   6.620   6.578   3.972 -0.2004 -0.2624 -0.4753
23803TIP3    H172291   6.671   6.569   4.052 -0.7016 -0.7642 -0.2043
23803TIP3    H272292   6.592   6.669   3.971 -0.1440 -0.2400 -0.1142
23804TIP3   OH272293   4.690   2.379   2.358 -0.1487 -0.1170  0.6514
23804TIP3    H172294   4.669   2.287   2.375 -0.7330  0.4865  3.9121
23804TIP3    H272295   4.641   2.401   2.279 -2.1215 -1.9343  1.2863
23805TIP3   OH272296  10.577  10.423   0.483  0.3181  0.3775 -0.0705
23805TIP3    H172297  10.515  10.483   0.525  0.8519  2.0152 -1.4643
23805TIP3    H272298  10.571  10.444   0.390  0.0750 -2.2542 -0.7121
23806TIP3   OH272299   6.674   7.305   8.178  0.6569  0.3068  0.1203
23806TIP3    H172300   6.604   7.345   8.229  1.7577  0.2159  1.7614
23806TIP3    H272301   6.668   7.347   8.092 -1.1011  0.6194  0.3622
23807TIP3   OH272302   1.793   8.628   5.533 -0.1036 -0.4735  0.1942
23807TIP3    H172303   1.752   8.644   5.617  1.8802 -1.0573  1.3427
23807TIP3    H272304   1.769   8.538   5.511  0.3042 -0.7123  0.7136
23808TIP3   OH272305   9.787   5.910   8.858 -0.3134 -0.0036  0.1230
23808TIP3    H172306   9.845   5.874   8.925 -0.1860  0.6332  0.3611
23808TIP3    H272307   9.815   5.867   8.777 -0.2853 -0.5696  0.4282
23809TIP3   OH272308  10.679   6.199   7.364 -0.2844  0.0711  0.6412
23809TIP3    H172309  10.619   6.164   7.430  1.5387 -2.2888  1.1937
23809TIP3    H272310  10.766   6.186   7.402  0.7180  0.8086 -1.2883
23810TIP3   OH272311   6.001   7.376   6.344 -0.3578  0.3287  0.1552
23810TIP3    H172312   5.968   7.286   6.349  0.5026 -0.0314 -0.5175
23810TIP3    H272313   6.036   7.384   6.256  1.8526  0.5194  0.9993
23811TIP3   OH272314   3.837   8.367   0.285  0.0798  0.3868 -0.6026
23811TIP3    H172315   3.853   8.442   0.342 -1.8555  1.0051 -0.8015
23811TIP3    H272316   3.924   8.331   0.268  0.9161  1.6686  0.7187
23812TIP3   OH272317   4.402   9.820   7.443 -0.3593 -0.0258  0.8916
23812TIP3    H172318   4.439   9.901   7.407  0.6736 -0.1983  1.5318
23812TIP3    H272319   4.459   9.799   7.517  0.3185 -2.1368 -0.1500
23813TIP3   OH272320   1.606   5.215   3.928 -0.4329  0.1920 -0.7148
23813TIP3    H172321   1.661   5.139   3.947 -0.4995 -0.0779 -1.5467
23813TIP3    H272322   1.645   5.287   3.978 -0.2285 -0.3323 -0.1081
23814TIP3   OH272323   2.707   1.972   2.346  0.0948 -0.0152 -0.1559
23814TIP3    H172324   2.698   2.035   2.418 -0.0385  0.8422 -0.8946
23814TIP3    H272325   2.796   1.938   2.355  0.3469  0.6549 -0.0324
23815TIP3   OH272326   2.666   3.274   4.089 -0.2196  0.3548  0.4408
23815TIP3    H172327   2.760   3.294   4.083 -0.1330 -0.1093  0.1774
23815TIP3    H272328   2.658   3.185   4.053 -0.8834  0.7227 -0.3475
23816TIP3   OH272329   7.448  10.652   6.887 -0.3868  0.1259  0.2974
23816TIP3    H172330   7.406  10.669   6.803 -0.7101 -1.1515  0.1808
23816TIP3    H272331   7.516  10.588   6.868 -0.6740 -0.4221  1.0598
23817TIP3   OH272332   4.667   1.657   4.403 -0.2499  0.3915 -0.0326
23817TIP3    H172333   4.632   1.746   4.402  1.0988  0.9389 -0.3501
23817TIP3    H272334   4.704   1.646   4.491 -0.7489  0.0007  0.1325
23818TIP3   OH272335   7.313   3.850   0.811 -0.1624  0.3576  0.1495
23818TIP3    H172336   7.355   3.817   0.732  0.7107 -0.1224  0.8000
23818TIP3    H272337   7.335   3.943   0.812 -1.7580  0.7981 -1.1396
23819TIP3   OH272338   5.774   9.072  10.140  0.6665 -0.6486 -0.4254
23819TIP3    H172339   5.806   8.996  10.189 -1.2248 -1.8207 -0.9063
23819TIP3    H272340   5.774   9.043  10.048  0.0485 -0.0181 -0.6308
23820TIP3   OH272341   7.069  10.011   0.290 -0.2067  0.1441 -0.1373
23820TIP3    H172342   6.999   9.948   0.268 -0.6552 -0.1122  1.8129
23820TIP3    H272343   7.121   9.966   0.356  2.4856 -0.0599 -2.2533
23821TIP3   OH272344   1.889   2.289   4.310  0.2929  0.1729  0.4997
23821TIP3    H172345   1.843   2.372   4.322  0.9364  1.1165 -2.6395
23821TIP3    H272346   1.827   2.234   4.262  1.7035  0.9288 -2.4231
23822TIP3   OH272347   4.829   9.871   0.363 -0.0025  0.0001  0.5398
23822TIP3    H172348   4.763   9.893   0.297  0.0962 -0.0929  0.4096
23822TIP3    H272349   4.880   9.801   0.324  0.9342  0.8761  0.1299
23823TIP3   OH272350   3.809   3.898   1.418 -0.3280  0.2708 -0.3454
23823TIP3    H172351   3.752   3.970   1.444 -1.2054 -0.5301  0.0377
23823TIP3    H272352   3.886   3.940   1.381 -0.4075  1.4089  0.7239
23824TIP3   OH272353   5.607   6.461   6.527 -0.5244  0.4028  0.3420
23824TIP3    H172354   5.663   6.435   6.600 -0.3855  2.6005  1.1004
23824TIP3    H272355   5.656   6.530   6.483 -1.0560 -0.1892 -1.2359
23825TIP3   OH272356   2.653   8.828   7.689 -0.7022 -0.2364 -0.4748
23825TIP3    H172357   2.592   8.758   7.667 -1.0754 -0.8977  2.2005
23825TIP3    H272358   2.651   8.888   7.614 -3.3471 -1.0990 -1.1933
23826TIP3   OH272359   0.367   2.010   2.223 -0.1558 -0.3001  0.6286
23826TIP3    H172360   0.453   2.020   2.263  0.3371 -0.0454 -0.4519
23826TIP3    H272361   0.311   2.072   2.270  0.5935  0.5613  0.4089
23827TIP3   OH272362  10.542   0.726   4.770 -0.1828  0.4100  0.1343
23827TIP3    H172363  10.578   0.796   4.824 -1.1484  0.7511  0.3485
23827TIP3    H272364  10.566   0.646   4.817  0.1342  0.6416  0.3728
23828TIP3   OH272365   5.295   4.925   6.096  0.5588 -0.3525 -0.4704
23828TIP3    H172366   5.247   5.006   6.078  1.0014 -0.0933 -0.4927
23828TIP3    H272367   5.229   4.856   6.087 -1.0048  0.2607  3.8083
23829TIP3   OH272368   3.954   4.665   2.208  0.3996  0.0881  0.5845
23829TIP3    H172369   3.930   4.721   2.282  0.9871  1.8723 -0.4934
23829TIP3    H272370   3.887   4.684   2.141 -0.2561 -1.6616  0.6993
23830TIP3   OH272371   5.279   6.702   8.726  0.4221 -0.0504  0.2890
23830TIP3    H172372   5.281   6.628   8.665 -2.0963 -0.4152  0.5474
23830TIP3    H272373   5.291   6.779   8.670 -0.3534 -0.4740 -0.4900
23831TIP3   OH272374   3.281   0.654   1.323  0.1496 -0.1659 -0.0769
23831TIP3    H172375   3.216   0.653   1.253 -1.1689 -0.4342  1.1095
23831TIP3    H272376   3.310   0.563   1.330 -0.9880 -0.4800  0.8356
23832TIP3   OH272377   6.889   4.612   5.276  0.1098  0.2229  0.2716
23832TIP3    H172378   6.935   4.652   5.350  0.4827 -2.2124  1.4641
23832TIP3    H272379   6.958   4.596   5.211  0.0880  0.7438  0.1098
23833TIP3   OH272380   2.791   8.054   5.866  0.1334  0.3563  0.0245
23833TIP3    H172381   2.711   8.035   5.816 -0.6070  0.8248  0.9862
23833TIP3    H272382   2.829   7.967   5.883 -0.2199  0.1204 -0.3696
23834TIP3   OH272383   9.647   6.861   2.474 -0.3123 -0.0166  0.0115
23834TIP3    H172384   9.708   6.912   2.419 -0.3938 -1.6743 -1.7076
23834TIP3    H272385   9.564   6.907   2.465 -0.0394  0.4359 -0.2748
23835TIP3   OH272386   5.312  10.824   1.689 -0.4289 -0.0985  0.3316
23835TIP3    H172387   5.320  10.747   1.633 -0.4580  0.4439 -0.4351
23835TIP3    H272388   5.220  10.851   1.679 -0.1697  0.6248 -0.2203
23836TIP3   OH272389   9.300   1.396   0.471 -0.6030  0.1665  0.0321
23836TIP3    H172390   9.290   1.465   0.537 -0.7341  0.7922 -0.6350
23836TIP3    H272391   9.228   1.335   0.490 -0.4675  0.1890  0.6434
23837TIP3   OH272392   9.612   4.942  10.828  0.1170  0.3149 -0.3514
23837TIP3    H172393   9.553   4.877  10.866 -0.8876  0.9785 -0.7452
23837TIP3    H272394   9.677   4.890  10.781 -0.0981 -0.4331  0.1474
23838TIP3   OH272395  10.207   5.945   3.165  0.2996  0.0938  0.4782
23838TIP3    H172396  10.194   6.040   3.175  1.5549  0.4013 -0.6680
23838TIP3    H272397  10.129   5.915   3.118 -0.5162  0.3807  1.5826
23839TIP3   OH272398   0.329   3.755   6.658 -0.3539  0.3069  0.0514
23839TIP3    H172399   0.396   3.707   6.610 -0.6784  0.4138 -0.5203
23839TIP3    H272400   0.311   3.833   6.604 -0.1619  0.8415  0.7365
23840TIP3   OH272401   3.643  10.628   4.321 -0.0230 -0.2258 -0.4057
23840TIP3    H172402   3.563  10.665   4.284  0.3652  1.1485  0.0612
23840TIP3    H272403   3.613  10.572   4.392 -0.5341  1.3664  0.6726
23841TIP3   OH272404  10.839   1.851   4.074 -0.1079 -0.0461  0.3375
23841TIP3    H172405  10.879   1.861   4.160  0.7645  1.5922 -0.2248
23841TIP3    H272406  10.826   1.756   4.064  0.8849 -0.3559  1.7529
23842TIP3   OH272407  10.020   4.913   5.602 -0.9149  0.4420  0.4980
23842TIP3    H172408   9.986   4.991   5.558  1.2279  1.3997  0.4089
23842TIP3    H272409  10.092   4.884   5.545  1.2706  1.1081  2.7531
23843TIP3   OH272410   5.471   1.570   1.874  0.2107  0.2647  0.2316
23843TIP3    H172411   5.465   1.566   1.778  0.3100 -0.8658  0.2558
23843TIP3    H272412   5.380   1.574   1.903  0.2041  1.8353  0.0735
23844TIP3   OH272413   3.766   0.688   4.470 -0.5060  0.7487  0.4907
23844TIP3    H172414   3.793   0.762   4.524 -1.6706  0.5846  1.3165
23844TIP3    H272415   3.726   0.728   4.393  0.6116  0.9725 -0.0045
23845TIP3   OH272416   4.191   0.997   2.100  0.2149 -0.0079 -0.2239
23845TIP3    H172417   4.203   1.056   2.175  2.3251 -1.0897  0.3715
23845TIP3    H272418   4.277   0.996   2.057 -0.1921 -1.5218 -1.0607
23846TIP3   OH272419   1.791   0.548   8.094 -0.1398 -0.5995  0.2102
23846TIP3    H172420   1.745   0.628   8.068  0.8272  0.4972  1.7527
23846TIP3    H272421   1.721   0.484   8.106 -1.0581  0.3839  0.2641
23847TIP3   OH272422   3.596   2.233   5.381 -0.5270  0.0540 -0.2062
23847TIP3    H172423   3.598   2.306   5.443 -0.4654  0.4785 -0.6950
23847TIP3    H272424   3.674   2.246   5.327 -0.7713 -0.1019 -0.5991
23848TIP3   OH272425   8.304   8.923   8.092 -0.1322 -0.3541  0.1958
23848TIP3    H172426   8.351   8.933   8.174 -0.5221 -2.1972  0.7067
23848TIP3    H272427   8.370   8.936   8.024  0.1963  1.1854  0.7802
23849TIP3   OH272428   6.330   8.970   3.081  0.4797  0.9333  0.3694
23849TIP3    H172429   6.411   9.017   3.059  1.3813 -0.6444  0.2365
23849TIP3    H272430   6.353   8.878   3.075 -1.8395  0.3831 -1.6571
23850TIP3   OH272431  10.498   1.259   4.898 -0.2270 -0.1041 -0.1588
23850TIP3    H172432  10.425   1.240   4.840 -1.1376  0.4271  0.7707
23850TIP3    H272433  10.457   1.296   4.976  1.0344  0.1334  0.4148
23851TIP3   OH272434   3.271   8.705   6.041  0.6828 -0.0716 -0.1795
23851TIP3    H172435   3.274   8.758   6.121 -0.7613  0.4965 -0.4802
23851TIP3    H272436   3.326   8.752   5.979  0.2412  0.5351 -0.1170
23852TIP3   OH272437   7.914   3.652   1.552  0.4808 -0.3486  0.0526
23852TIP3    H172438   7.966   3.599   1.492 -1.2087 -2.4842  0.3591
23852TIP3    H272439   7.966   3.655   1.632  1.5073  0.2192 -0.6056
23853TIP3   OH272440   9.653   0.902  10.657  0.2011 -0.1780  0.0512
23853TIP3    H172441   9.678   0.967  10.723  0.5119  0.1167 -0.3598
23853TIP3    H272442   9.557   0.903  10.659  0.1961  0.5234 -0.1764
23854TIP3   OH272443   6.236   6.068   0.664 -0.5809  0.3968 -0.1941
23854TIP3    H172444   6.224   6.159   0.692  1.6508  1.2990 -1.8596
23854TIP3    H272445   6.171   6.019   0.714 -0.5982  2.6230  2.2116
23855TIP3   OH272446   4.338   7.800   3.771 -0.1808 -0.1145 -0.0675
23855TIP3    H172447   4.371   7.816   3.683 -0.8611 -1.1214 -0.5234
23855TIP3    H272448   4.295   7.881   3.796 -2.0752 -0.5622 -1.6335
23856TIP3   OH272449   3.034   4.080   8.355 -0.3629 -0.1463  0.4840
23856TIP3    H172450   2.946   4.082   8.319 -0.4472 -0.8920  0.6443
23856TIP3    H272451   3.092   4.077   8.279 -0.5407 -1.7931  0.3866
23857TIP3   OH272452   6.708   2.956   0.440  0.4301 -0.6626  0.1198
23857TIP3    H172453   6.657   2.940   0.360  1.6242  0.0231 -0.8049
23857TIP3    H272454   6.733   3.048   0.434  0.7499 -0.6673  1.1740
23858TIP3   OH272455   2.833   2.794   8.495 -0.1998  0.6012 -0.1565
23858TIP3    H172456   2.749   2.824   8.461  0.2019  1.7353 -0.1867
23858TIP3    H272457   2.896   2.817   8.427  0.2956  0.8770  0.3842
23859TIP3   OH272458   7.169   3.494  10.126  0.3812  0.4548  0.0313
23859TIP3    H172459   7.250   3.522  10.083  1.3184  0.2325  1.5470
23859TIP3    H272460   7.105   3.560  10.102  0.9552  0.5380 -1.3629
23860TIP3   OH272461   0.478   7.238   0.054  0.8872 -0.1619 -0.0209
23860TIP3    H172462   0.396   7.277   0.026 -0.7245 -2.6549  0.9017
23860TIP3    H272463   0.498   7.172  -0.012  2.1040  0.2862 -0.1399
23861TIP3   OH272464   2.835   2.663   3.638 -0.3203  0.0061 -0.8286
23861TIP3    H172465   2.875   2.704   3.714 -0.4858  1.1685 -1.3520
23861TIP3    H272466   2.810   2.576   3.669  0.1230  0.2510  0.2785
23862TIP3   OH272467   9.042   2.593   6.894 -0.9088  0.2247  0.0824
23862TIP3    H172468   9.126   2.623   6.928  0.2200 -0.4842 -1.8854
23862TIP3    H272469   9.013   2.527   6.957 -0.1017  0.6490  0.9217
23863TIP3   OH272470   0.395   5.097   3.730 -0.4229  0.0381  0.0937
23863TIP3    H172471   0.470   5.141   3.691 -0.3380  0.9652  1.2258
23863TIP3    H272472   0.322   5.116   3.671 -0.1160  0.6322 -0.1013
23864TIP3   OH272473   8.253   6.725  10.342  0.1177  0.6329 -0.4088
23864TIP3    H172474   8.269   6.655  10.405 -0.5383  1.3627  0.6088
23864TIP3    H272475   8.340   6.762  10.325  0.4129 -0.1249 -0.6231
23865TIP3   OH272476   0.859   9.814   2.241  0.2201 -0.2753 -0.5252
23865TIP3    H172477   0.765   9.797   2.248  0.6486 -2.3832  1.3504
23865TIP3    H272478   0.885   9.837   2.330  1.3069  1.7476 -1.2946
23866TIP3   OH272479   8.525   5.759   7.824  0.1644  0.4095 -0.1382
23866TIP3    H172480   8.430   5.754   7.830  0.1882  0.8814  1.0459
23866TIP3    H272481   8.552   5.794   7.910  1.6309 -2.8211  0.8691
23867TIP3   OH272482   7.249   0.691   3.415 -0.4099 -0.2760 -0.6094
23867TIP3    H172483   7.170   0.682   3.469 -0.0877  0.3443 -0.0046
23867TIP3    H272484   7.216   0.715   3.329 -0.8605  1.2435 -0.0593
23868TIP3   OH272485  10.465   5.111   0.153  0.1803 -0.1140  0.3572
23868TIP3    H172486  10.384   5.159   0.135 -0.3712 -1.1615 -0.0859
23868TIP3    H272487  10.444   5.058   0.230  0.7704  0.3468  0.8349
23869TIP3   OH272488   0.746   5.299   2.345 -0.5266  0.4151 -0.8737
23869TIP3    H172489   0.810   5.362   2.313 -0.6660  0.5415 -0.9059
23869TIP3    H272490   0.662   5.343   2.333 -0.5806  0.4504 -0.3629
23870TIP3   OH272491   6.163   1.885   2.036  0.1837 -0.2518 -0.1842
23870TIP3    H172492   6.090   1.911   1.980  1.4995 -0.2223 -1.9779
23870TIP3    H272493   6.172   1.791   2.022 -0.1919 -0.4504  0.8753
23871TIP3   OH272494   4.458   4.361   2.328 -0.0737  0.5195 -0.5207
23871TIP3    H172495   4.412   4.442   2.354  0.6894  0.4539  1.1801
23871TIP3    H272496   4.419   4.338   2.244 -2.1440  1.2547  0.1567
23872TIP3   OH272497   4.085   9.430  10.714  0.0561  0.2598  1.1138
23872TIP3    H172498   3.999   9.405  10.679 -0.2031  0.9816  1.2122
23872TIP3    H272499   4.088   9.387  10.800 -0.0179 -0.1284  0.9257
23873TIP3   OH272500   6.836   1.145   4.617 -0.4470  0.1056 -0.7623
23873TIP3    H172501   6.913   1.161   4.671 -0.1090  0.8478 -1.4404
23873TIP3    H272502   6.770   1.111   4.677 -0.2827  1.4685  0.2336
23874TIP3   OH272503   4.898   5.150   7.726 -0.3704  0.7932 -0.2895
23874TIP3    H172504   4.814   5.110   7.748  0.9535 -1.1844  1.5854
23874TIP3    H272505   4.901   5.230   7.779  0.7327 -1.4612  3.4257
23875TIP3   OH272506   2.097   1.493   8.418  0.9032  0.2500 -0.0112
23875TIP3    H172507   2.170   1.485   8.355  1.4357 -0.7819  0.7115
23875TIP3    H272508   2.037   1.423   8.393  1.7472 -1.0431  1.4012
23876TIP3   OH272509   8.185   6.886   0.650 -0.6324  0.1650  0.0217
23876TIP3    H172510   8.145   6.801   0.670 -0.6870  0.4570  1.2025
23876TIP3    H272511   8.248   6.900   0.721  1.8917 -0.4350 -1.9591
23877TIP3   OH272512   4.042   0.603   4.621 -0.1511  0.2686 -0.2464
23877TIP3    H172513   4.054   0.548   4.698  1.5977 -1.3545 -1.5710
23877TIP3    H272514   3.948   0.598   4.602 -0.3565 -0.5477  0.8979
23878TIP3   OH272515   9.254   7.685   8.010  0.8236 -0.1799 -0.0174
23878TIP3    H172516   9.341   7.649   8.026  0.5669 -1.2629 -0.8907
23878TIP3    H272517   9.215   7.625   7.945 -0.2632  0.7421 -0.2502
23879TIP3   OH272518   3.754   7.584   6.949 -0.1775  0.5001  0.1263
23879TIP3    H172519   3.775   7.667   6.905 -0.2371  0.7897  0.6316
23879TIP3    H272520   3.699   7.538   6.886  0.7455  0.3613 -0.6128
23880TIP3   OH272521   2.363   7.600   2.574 -0.0226 -0.3389  0.3948
23880TIP3    H172522   2.405   7.534   2.630  0.8243 -0.0182  0.1506
23880TIP3    H272523   2.381   7.683   2.618 -0.9547 -0.2503  0.6178
23881TIP3   OH272524   5.871  10.632  10.537  0.1676  0.3562 -0.2911
23881TIP3    H172525   5.815  10.606  10.610  0.9125  3.0606  1.4248
23881TIP3    H272526   5.811  10.649  10.465 -0.9523  0.6026  0.6713
23882TIP3   OH272527   8.679   8.810   0.048  0.6043  0.2801 -0.3646
23882TIP3    H172528   8.643   8.748   0.112 -1.6671  2.9300  1.2004
23882TIP3    H272529   8.628   8.795  -0.031  0.9802 -0.6815 -0.4320
23883TIP3   OH272530   7.629  10.870   5.738 -0.1792 -0.3740  0.2147
23883TIP3    H172531   7.682  10.808   5.788  1.1163 -1.9609 -2.8127
23883TIP3    H272532   7.540  10.838   5.746 -0.1666 -0.0560  2.1206
23884TIP3   OH272533   6.017   2.873  10.458 -0.0216  0.5660 -0.1392
23884TIP3    H172534   6.075   2.803  10.430 -0.2859  0.5042 -0.5385
23884TIP3    H272535   5.946   2.873  10.394 -0.9916 -0.0194  0.9001
23885TIP3   OH272536   1.311   0.284   3.825  0.5848 -0.2619  0.4935
23885TIP3    H172537   1.334   0.199   3.864 -0.2538 -1.7354 -1.9567
23885TIP3    H272538   1.321   0.270   3.731 -1.0944  1.9115 -0.0867
23886TIP3   OH272539   6.378   6.381   9.342 -0.5596  0.4803 -0.6035
23886TIP3    H172540   6.287   6.409   9.355 -1.0811 -0.8624 -1.1792
23886TIP3    H272541   6.375   6.324   9.265  0.0202 -2.8752  1.6406
23887TIP3   OH272542   9.875   9.502   4.630 -0.4053  0.4492 -0.5300
23887TIP3    H172543   9.936   9.478   4.700  0.3340 -1.5479 -1.7729
23887TIP3    H272544   9.796   9.453   4.649 -1.2265  2.0441  0.3686
23888TIP3   OH272545   7.471   3.526   5.827 -0.7596  0.2183 -0.3835
23888TIP3    H172546   7.439   3.608   5.789 -0.2195  0.8937  0.5718
23888TIP3    H272547   7.529   3.490   5.760  0.0443  1.2978 -0.3027
23889TIP3   OH272548   8.854   2.060   6.152  0.7637 -0.4672  0.2940
23889TIP3    H172549   8.850   2.025   6.063  0.3121  0.6554 -0.1435
23889TIP3    H272550   8.832   1.985   6.208 -1.1535 -0.6841 -0.6668
23890TIP3   OH272551   2.265   9.619   8.463 -0.1338 -0.8942 -0.9509
23890TIP3    H172552   2.284   9.527   8.480 -0.3574 -0.9922 -1.2215
23890TIP3    H272553   2.249   9.656   8.550 -0.3233 -1.1719 -0.8661
23891TIP3   OH272554   6.228   7.985   8.652  0.1070 -0.2323  0.0722
23891TIP3    H172555   6.267   8.071   8.665  0.1408 -0.1881 -0.3282
23891TIP3    H272556   6.209   7.954   8.741 -1.8631  1.0892  0.1919
23892TIP3   OH272557   0.737   8.010   0.423  0.4472  0.2566 -0.0435
23892TIP3    H172558   0.720   8.027   0.516 -0.6045  0.3317 -0.2317
23892TIP3    H272559   0.747   8.097   0.384  0.4722  0.2403 -0.0721
23893TIP3   OH272560   7.887   1.670   3.458  0.9457  0.1648  0.2817
23893TIP3    H172561   7.951   1.654   3.389 -0.2867  1.7853 -1.3208
23893TIP3    H272562   7.804   1.683   3.412 -0.3586 -0.7141  2.2162
23894TIP3   OH272563   4.818   7.279   6.384 -0.0621  0.2161  0.1464
23894TIP3    H172564   4.837   7.325   6.466 -0.2448 -3.1140  2.2925
23894TIP3    H272565   4.774   7.343   6.329  1.8896  3.2100  1.7929
23895TIP3   OH272566  10.787   5.831   5.535  0.0083 -0.3156 -0.5261
23895TIP3    H172567  10.828   5.825   5.449  0.7754  1.3515 -0.3040
23895TIP3    H272568  10.840   5.773   5.590  0.1713 -0.5442 -0.9152
23896TIP3   OH272569  10.279  10.124   9.681 -0.2779 -0.4392 -0.1716
23896TIP3    H172570  10.331  10.198   9.714 -0.8039 -0.5195  0.8729
23896TIP3    H272571  10.240  10.156   9.600  0.4797  0.0062 -0.3736
23897TIP3   OH272572   7.534   2.543   1.052 -0.6041  0.0773  0.1675
23897TIP3    H172573   7.564   2.630   1.081  1.4385  0.0226 -1.5404
23897TIP3    H272574   7.454   2.560   1.003 -1.9526  0.5795  2.3656
23898TIP3   OH272575   6.654   2.038   6.458 -1.0388  0.5822  0.1089
23898TIP3    H172576   6.578   2.094   6.473 -0.0206  1.5572  2.1321
23898TIP3    H272577   6.658   1.983   6.536 -0.2647 -0.1721 -0.4490
23899TIP3   OH272578  10.214   7.792   9.396 -0.2362  0.3429 -0.2499
23899TIP3    H172579  10.162   7.729   9.447 -1.5124  0.6959 -1.0895
23899TIP3    H272580  10.158   7.817   9.323  1.0840  0.8207 -1.1407
23900TIP3   OH272581   5.992   3.296   8.413  0.2592  0.4547  0.1991
23900TIP3    H172582   5.982   3.201   8.415 -1.3352  0.5780  2.7027
23900TIP3    H272583   6.072   3.313   8.464  1.6071  0.4415 -1.8057
23901TIP3   OH272584   3.440   2.032   0.141  0.3663 -0.2788  0.3639
23901TIP3    H172585   3.374   2.095   0.169  1.3001  0.9062 -0.0361
23901TIP3    H272586   3.450   1.972   0.216 -1.1488 -0.4971  0.4189
23902TIP3   OH272587   4.506   1.379  10.839  0.2687 -0.1760  0.1848
23902TIP3    H172588   4.460   1.298  10.861 -0.6168 -0.3135 -1.9932
23902TIP3    H272589   4.521   1.375  10.745  2.8532  0.8962  0.4484
23903TIP3   OH272590   0.802   4.958   9.225  0.1942 -0.1768  0.2122
23903TIP3    H172591   0.872   4.967   9.160 -0.9535  1.2718 -0.8952
23903TIP3    H272592   0.758   4.876   9.202  0.5096 -0.2511 -0.1379
23904TIP3   OH272593  10.649   7.339   8.097 -0.3807 -0.1772 -0.6761
23904TIP3    H172594  10.600   7.267   8.058 -1.4254  0.8940 -1.4039
23904TIP3    H272595  10.740   7.324   8.070 -0.4915 -1.4899 -0.3753
23905TIP3   OH272596   8.259   2.315   1.577  0.3265  0.4620 -0.2398
23905TIP3    H172597   8.173   2.344   1.607 -0.4910 -1.1893 -0.8532
23905TIP3    H272598   8.268   2.226   1.612  2.5865  1.2033  1.3144
23906TIP3   OH272599   3.065   0.100   4.104 -0.4239  0.0087 -0.2274
23906TIP3    H172600   2.983   0.121   4.147  0.3649  1.9567  0.4354
23906TIP3    H272601   3.040   0.055   4.023 -2.1602  1.0825 -0.3184
23907TIP3   OH272602   3.143   8.249   0.892  0.0036 -0.2419  0.3269
23907TIP3    H172603   3.114   8.265   0.802  0.7703  0.6447  0.2287
23907TIP3    H272604   3.067   8.208   0.934 -0.0848 -1.4774 -0.9449
23908TIP3   OH272605   4.073   5.896   5.021 -0.0067  0.2286  0.0891
23908TIP3    H172606   3.998   5.893   4.961  0.3566 -0.0449 -0.3531
23908TIP3    H272607   4.146   5.862   4.970  0.7331  1.7813  0.0763
23909TIP3   OH272608   7.220   5.069   0.340 -0.5953 -0.1144  0.0461
23909TIP3    H172609   7.238   5.158   0.310 -1.5935  0.0690 -0.0487
23909TIP3    H272610   7.205   5.078   0.434 -2.6583  0.1661 -0.2614
23910TIP3   OH272611  10.026   3.122   6.068  0.3283  0.5429 -0.2754
23910TIP3    H172612  10.093   3.103   6.134  0.4069  1.6868  0.0011
23910TIP3    H272613  10.073   3.171   6.000  0.0941 -0.0223 -0.8583
23911TIP3   OH272614   7.810   1.026   3.896 -0.3166 -0.1017  0.3849
23911TIP3    H172615   7.748   1.100   3.896 -0.6501 -0.3765  0.4841
23911TIP3    H272616   7.829   1.011   3.988  2.1663  1.8340  0.2902
23912TIP3   OH272617   7.334   3.250   6.598 -0.0473  0.3037 -0.2042
23912TIP3    H172618   7.322   3.232   6.505  1.7645  0.8031 -0.5703
23912TIP3    H272619   7.400   3.187   6.626  0.1026  0.7741  0.5163
23913TIP3   OH272620   9.249   7.047   8.091 -0.0437 -0.0094  0.0054
23913TIP3    H172621   9.281   7.115   8.150  2.1246 -0.7377 -0.2302
23913TIP3    H272622   9.281   6.965   8.130  0.8468 -0.5606 -1.7837
23914TIP3   OH272623   3.481   0.287   6.600  0.3359 -0.3200 -0.2481
23914TIP3    H172624   3.421   0.361   6.608 -0.9471 -1.3951  0.6355
23914TIP3    H272625   3.432   0.222   6.550 -0.3504 -2.1901  2.5514
23915TIP3   OH272626  10.884   9.169   1.612  0.2144 -0.2926 -0.3750
23915TIP3    H172627  10.818   9.129   1.669  0.1449 -0.3300 -0.4820
23915TIP3    H272628  10.847   9.162   1.524 -1.0633  2.4553 -0.1741
23916TIP3   OH272629   8.961   0.046   0.014 -0.4429 -0.3554  0.0225
23916TIP3    H172630   9.024   0.109   0.050 -0.1773 -0.7931  0.3320
23916TIP3    H272631   8.954  -0.022   0.081 -2.1335  0.2675  0.5076
23917TIP3   OH272632   8.555   2.026   1.476  0.7019 -0.0314 -0.8335
23917TIP3    H172633   8.495   2.007   1.404  0.7924 -0.3832 -0.8151
23917TIP3    H272634   8.549   1.950   1.533  1.1161 -0.0401 -0.7988
23918TIP3   OH272635   3.225  10.241   3.639  0.6638  0.2241  0.1055
23918TIP3    H172636   3.276  10.215   3.562  0.9519  0.5975  0.1699
23918TIP3    H272637   3.205  10.333   3.624  1.3378  0.4947  0.8263
23919TIP3   OH272638   0.786  10.035   5.373 -0.4839 -0.2941 -0.4914
23919TIP3    H172639   0.784  10.070   5.462 -0.0186  1.1259 -0.9945
23919TIP3    H272640   0.701   9.993   5.362 -0.5131 -0.5668  0.6502
23920TIP3   OH272641   6.300   2.106   7.077 -0.2389  0.1180 -0.8663
23920TIP3    H172642   6.311   2.063   6.992  1.0026 -0.7175 -0.3165
23920TIP3    H272643   6.322   2.197   7.062  1.3043 -0.2900 -1.1775
23921TIP3   OH272644   5.652   7.911   3.954  0.1550  0.3647 -0.4110
23921TIP3    H172645   5.715   7.917   4.026  0.6576 -2.4647 -0.4774
23921TIP3    H272646   5.599   7.990   3.961  2.3142  1.7851  0.9977
23922TIP3   OH272647  10.023   6.003  10.802  0.0430 -0.1052  0.3470
23922TIP3    H172648   9.932   5.993  10.829  0.3672 -0.2863  1.4294
23922TIP3    H272649  10.064   5.920  10.826  0.0447 -0.9482 -2.1897
23923TIP3   OH272650   7.606   8.607   5.205 -0.0626  0.2475  0.2349
23923TIP3    H172651   7.684   8.553   5.195  1.1318  1.8018  0.5950
23923TIP3    H272652   7.539   8.565   5.152  1.2914 -0.6321 -0.8265
23924TIP3   OH272653   8.517   8.724  10.734 -0.7171 -0.0484  0.3156
23924TIP3    H172654   8.477   8.708  10.649 -0.8261 -1.4392  0.6044
23924TIP3    H272655   8.468   8.668  10.795 -1.0015  1.3207  1.3966
23925TIP3   OH272656   0.332   5.250   9.639 -0.5531  0.1552 -0.1459
23925TIP3    H172657   0.388   5.291   9.573  2.8125  1.0940  2.9140
23925TIP3    H272658   0.353   5.157   9.634 -0.3786  0.2108 -0.4607
23926TIP3   OH272659   8.557   8.764   1.669 -0.3988 -0.2523  0.0759
23926TIP3    H172660   8.514   8.796   1.590 -0.0681  0.2415  0.0945
23926TIP3    H272661   8.562   8.669   1.657 -1.7512 -0.3531  0.2072
23927TIP3   OH272662   3.238   0.785   0.208  0.2479 -0.4889  0.1530
23927TIP3    H172663   3.212   0.876   0.221 -0.8169 -0.6980 -0.3323
23927TIP3    H272664   3.198   0.738   0.282 -2.7043 -1.1278 -1.6719
23928TIP3   OH272665   0.440   5.956   4.927  0.1713  0.6706  0.2065
23928TIP3    H172666   0.356   5.956   4.881 -0.2111 -0.3569  0.8610
23928TIP3    H272667   0.425   6.008   5.005 -0.0136  0.0717  0.5756
23929TIP3   OH272668  10.295  10.792   2.997 -0.1769 -0.2111 -0.4619
23929TIP3    H172669  10.372  10.820   2.947 -0.1588 -2.5937 -1.9201
23929TIP3    H272670  10.330  10.763   3.080  0.0964  1.3997  0.0335
23930TIP3   OH272671   3.795   7.364   9.082  0.4176  0.4175  0.4470
23930TIP3    H172672   3.784   7.362   8.987 -0.6994 -0.4935  0.5738
23930TIP3    H272673   3.881   7.405   9.096 -0.0278  1.9044 -0.8951
23931TIP3   OH272674   9.624  10.659   8.536  0.0431 -0.1322 -0.2697
23931TIP3    H172675   9.680  10.634   8.610  0.9452  0.0255 -0.8792
23931TIP3    H272676   9.636  10.589   8.472  0.2337  0.3445 -0.7648
23932TIP3   OH272677   8.339   8.422   1.457  0.6167  0.3417 -0.1580
23932TIP3    H172678   8.353   8.480   1.382  0.0735  0.8131  0.0968
23932TIP3    H272679   8.297   8.478   1.522 -1.8672 -0.8039 -0.6526
23933TIP3   OH272680   2.417   5.627   5.882 -0.4234  0.3250 -0.0199
23933TIP3    H172681   2.375   5.667   5.807 -0.2385  1.8351  0.6563
23933TIP3    H272682   2.489   5.686   5.905  0.1850 -0.6451  0.7073
23934TIP3   OH272683   6.577   3.917   6.300 -0.3133 -0.2330 -0.1421
23934TIP3    H172684   6.552   4.005   6.329  1.5140 -0.1218  1.3223
23934TIP3    H272685   6.588   3.925   6.205 -1.7360  0.6800 -0.2606
23935TIP3   OH272686   9.696  10.048   6.007  0.1626 -0.6071 -0.5503
23935TIP3    H172687   9.765  10.054   6.074 -0.5027  0.4494  0.0692
23935TIP3    H272688   9.744  10.035   5.925  1.3381  2.6703 -0.5240
23936TIP3   OH272689   7.830   3.427  10.154  0.1293 -0.1176  0.1342
23936TIP3    H172690   7.900   3.372  10.119  0.3838 -0.3529  0.9846
23936TIP3    H272691   7.778   3.368  10.209  0.5782  0.5411  1.2973
23937TIP3   OH272692  10.712   3.107   6.717 -0.3021  0.0946 -0.5778
23937TIP3    H172693  10.670   3.089   6.633  0.6325  1.8334 -1.4720
23937TIP3    H272694  10.788   3.160   6.695 -0.0644  0.6524  1.3747
23938TIP3   OH272695  10.714   2.754   6.007  0.6459  0.5042 -0.1298
23938TIP3    H172696  10.756   2.775   6.090  1.6327  0.9709 -0.7345
23938TIP3    H272697  10.772   2.690   5.966 -0.3873 -0.5574 -0.0040
23939TIP3   OH272698   2.432   6.392   8.678 -0.0175  0.2129 -0.2756
23939TIP3    H172699   2.428   6.480   8.714 -0.1849  1.3183 -2.8345
23939TIP3    H272700   2.524   6.379   8.655 -0.1057 -0.0342 -0.4995
23940TIP3   OH272701   0.015   6.162   8.521 -0.1349  0.3559 -0.5481
23940TIP3    H172702  -0.017   6.235   8.575  2.0963  1.3609 -0.4943
23940TIP3    H272703  -0.019   6.084   8.565 -2.0007  1.2914 -0.2138
23941TIP3   OH272704   7.740   6.024   1.069 -0.1545 -0.0517  0.1175
23941TIP3    H172705   7.703   5.961   1.007 -2.6030 -0.7107  2.0853
23941TIP3    H272706   7.752   5.974   1.149  1.8310  1.0521  0.5818
23942TIP3   OH272707   2.281   1.559   9.179 -0.2855 -0.5917  0.2898
23942TIP3    H172708   2.261   1.610   9.257  1.0435 -1.0823  0.9793
23942TIP3    H272709   2.260   1.617   9.106 -1.4951 -0.1135  0.9988
23943TIP3   OH272710   4.874  10.563   5.715 -0.1074 -0.4593  0.2245
23943TIP3    H172711   4.879  10.567   5.620 -0.3167  1.2261  0.2451
23943TIP3    H272712   4.803  10.503   5.733 -0.6694 -0.0989 -0.7206
23944TIP3   OH272713   1.067   8.776   1.187 -0.5635  0.3878 -0.3434
23944TIP3    H172714   0.976   8.785   1.217 -1.2665 -0.3454 -2.1507
23944TIP3    H272715   1.081   8.849   1.127 -1.0756 -1.2334 -2.5727
23945TIP3   OH272716   5.687   6.722   9.686 -0.4813 -0.1750  0.3739
23945TIP3    H172717   5.595   6.723   9.658 -0.8584 -1.0254  1.5181
23945TIP3    H272718   5.687   6.672   9.767  1.3224 -2.3262 -0.8330
23946TIP3   OH272719   3.637   5.317   8.361  0.1617 -0.1351 -0.3937
23946TIP3    H172720   3.697   5.243   8.375 -0.4281 -0.3604  1.0583
23946TIP3    H272721   3.693   5.385   8.324  0.7401 -1.2434 -1.6810
23947TIP3   OH272722   1.525   0.059   9.947 -0.8021  0.3586  0.1518
23947TIP3    H172723   1.550   0.033  10.035 -0.1593 -0.4329 -0.2429
23947TIP3    H272724   1.458   0.126   9.959  1.5269  2.6171  1.2764
23948TIP3   OH272725  10.002   9.379   1.469 -0.0082  0.5606  0.4280
23948TIP3    H172726  10.013   9.396   1.563  0.9579  1.1799  0.2081
23948TIP3    H272727  10.039   9.455   1.426  0.0384  0.0371 -0.4783
23949TIP3   OH272728   9.154   6.189   9.473 -0.2258  0.7648  0.5312
23949TIP3    H172729   9.194   6.248   9.537 -0.9349 -0.8520  2.5842
23949TIP3    H272730   9.220   6.120   9.459  0.1445  1.3834 -0.9597
23950TIP3   OH272731   2.683   3.837   2.855  0.7589 -0.5892  0.1465
23950TIP3    H172732   2.757   3.895   2.875  0.9750 -0.2544 -1.4755
23950TIP3    H272733   2.630   3.838   2.935 -0.3562  3.5207 -0.4230
23951TIP3   OH272734  10.046   7.401   5.496 -0.0998  0.4977 -0.0017
23951TIP3    H172735  10.064   7.490   5.464 -0.2349 -0.1390 -1.9926
23951TIP3    H272736  10.106   7.390   5.570 -0.0333  2.2097  0.2623
23952TIP3   OH272737   1.623   0.969   1.516 -0.4531  0.1995 -0.4773
23952TIP3    H172738   1.583   0.931   1.438 -2.0990  1.8324 -0.4987
23952TIP3    H272739   1.560   1.035   1.546  0.3937  0.0233  1.9156
23953TIP3   OH272740   5.008   1.916   7.937 -0.0278  0.4893 -0.4246
23953TIP3    H172741   4.977   1.826   7.948 -0.0615  0.6223  0.5953
23953TIP3    H272742   5.083   1.908   7.877  0.7142 -0.3680  0.5941
23954TIP3   OH272743   6.703   5.495   1.182  0.1411 -0.2638  0.0357
23954TIP3    H172744   6.652   5.422   1.216 -0.0404  0.4292  1.2936
23954TIP3    H272745   6.712   5.476   1.089 -0.9183 -1.2795  0.1178
23955TIP3   OH272746   2.752   8.259   4.780 -0.0091 -0.1782  0.1681
23955TIP3    H172747   2.761   8.353   4.795 -1.0066 -0.1050  0.3459
23955TIP3    H272748   2.693   8.251   4.705 -1.0712 -0.6766  1.0319
23956TIP3   OH272749   2.183  10.328   2.957  0.4983 -0.3725  0.4462
23956TIP3    H172750   2.184  10.262   2.888 -1.1180 -0.9111  0.8761
23956TIP3    H272751   2.092  10.359   2.959  1.0465  1.3640  0.7423
23957TIP3   OH272752   4.940   2.838   8.261 -0.4086 -0.3411  0.2558
23957TIP3    H172753   5.033   2.817   8.267 -0.8648 -2.4297  0.8078
23957TIP3    H272754   4.909   2.791   8.184 -1.1858 -0.3908  0.5906
23958TIP3   OH272755   4.495   4.250  10.032  0.2488 -0.3009 -0.3879
23958TIP3    H172756   4.410   4.288  10.055  0.6084  0.8474 -0.8976
23958TIP3    H272757   4.495   4.165  10.075 -1.4610 -0.6362 -0.9618
23959TIP3   OH272758   3.139   1.362   7.705  0.6172 -0.2354 -0.6883
23959TIP3    H172759   3.053   1.325   7.686 -0.3993  0.4561  2.2033
23959TIP3    H272760   3.192   1.286   7.731  0.0169 -0.3172  0.3334
23960TIP3   OH272761   1.436   0.968  10.859 -0.1671  0.2232  0.3733
23960TIP3    H172762   1.344   0.957  10.883 -0.4354 -0.5799 -0.8894
23960TIP3    H272763   1.485   0.920  10.925 -0.7691 -0.6342  0.2077
23961TIP3   OH272764   5.327   2.342  10.656  0.0775  0.6193  0.1291
23961TIP3    H172765   5.344   2.248  10.658 -0.3702  0.5381  0.4979
23961TIP3    H272766   5.413   2.383  10.652  0.3087  0.2013  0.7368
23962TIP3   OH272767   1.043  10.572   9.938 -0.3715 -0.3752 -0.3519
23962TIP3    H172768   1.137  10.589   9.940 -0.2101 -1.0492 -1.5391
23962TIP3    H272769   1.025  10.524  10.019  0.2829 -0.1758 -0.0827
23963TIP3   OH272770   6.717   0.538   2.331 -0.3461 -0.3372 -0.0981
23963TIP3    H172771   6.707   0.471   2.399  0.6105  0.5979  0.9981
23963TIP3    H272772   6.629   0.546   2.293 -0.4172 -2.3894 -0.4517
23964TIP3   OH272773   2.180   6.752   5.223  0.3049  0.1278  0.2404
23964TIP3    H172774   2.101   6.697   5.217  1.3052 -1.3638  0.2112
23964TIP3    H272775   2.242   6.712   5.162  0.2355  2.8778 -1.8135
23965TIP3   OH272776   1.408   4.711   4.379  0.1872 -0.5207 -0.4696
23965TIP3    H172777   1.400   4.684   4.470 -0.8156 -2.4570 -1.0846
23965TIP3    H272778   1.478   4.656   4.343  0.2143 -0.1392 -1.0170
23966TIP3   OH272779   8.958   5.796  10.012  0.3597  0.3802  0.1006
23966TIP3    H172780   8.952   5.719  10.069 -2.6517  0.6731  0.3551
23966TIP3    H272781   9.031   5.777   9.953  1.6100 -1.2975  2.0511
23967TIP3   OH272782   0.396   8.654   0.900  0.2489  0.5523  0.4307
23967TIP3    H172783   0.315   8.700   0.922  0.9213  0.6389  3.0673
23967TIP3    H272784   0.452   8.667   0.976  1.7322 -1.8029 -0.1654
23968TIP3   OH272785   6.847  10.016   1.289  0.2921 -0.8583  0.2867
23968TIP3    H172786   6.941  10.021   1.276  0.2819 -0.3737  0.3651
23968TIP3    H272787   6.818  10.108   1.291 -0.2151 -1.0063 -0.0006
23969TIP3   OH272788   0.047   0.826   2.386  0.3849 -0.0772  0.3009
23969TIP3    H172789   0.043   0.916   2.419 -0.4420  0.3435 -0.8913
23969TIP3    H272790  -0.004   0.775   2.449  0.2495  0.4018  0.5831
23970TIP3   OH272791   4.138   9.558   6.423 -0.1089  0.1403  0.0478
23970TIP3    H172792   4.181   9.587   6.343  1.3312  0.4176  0.8780
23970TIP3    H272793   4.162   9.465   6.431 -3.1078 -0.9228 -1.5894
23971TIP3   OH272794   1.075   1.480   4.819  0.0888  0.0859 -0.1202
23971TIP3    H172795   1.014   1.540   4.775 -0.7864  0.4436  1.5109
23971TIP3    H272796   1.113   1.532   4.890 -0.2091 -1.0850  0.9282
23972TIP3   OH272797   5.099  10.688   2.164  0.3743 -0.3597  0.3269
23972TIP3    H172798   5.176  10.653   2.209  1.1140 -0.8787 -1.2771
23972TIP3    H272799   5.118  10.678   2.071 -0.5020  1.9817 -0.1719
23973TIP3   OH272800   8.562   7.430   0.529 -0.3131  0.7033  0.1745
23973TIP3    H172801   8.471   7.417   0.555 -0.8897  1.1358 -1.5101
23973TIP3    H272802   8.599   7.342   0.525 -0.3119  0.5823  1.9020
23974TIP3   OH272803   3.012   4.779   1.716 -0.1311 -0.0502  0.3410
23974TIP3    H172804   2.940   4.717   1.706 -0.5478 -0.1269  2.9983
23974TIP3    H272805   2.969   4.865   1.717  0.0262  0.0308  0.1332
23975TIP3   OH272806  10.763   8.851   7.340  0.1095 -0.5030  0.7584
23975TIP3    H172807  10.784   8.852   7.246  1.0042  1.0500  0.9445
23975TIP3    H272808  10.757   8.758   7.362 -3.8488 -1.0273 -1.5871
23976TIP3   OH272809   0.844   6.689   5.250 -0.4908 -0.3620 -0.5770
23976TIP3    H172810   0.774   6.661   5.191 -1.8125 -1.1962  1.2880
23976TIP3    H272811   0.925   6.676   5.200 -1.6219  1.1961 -3.0324
23977TIP3   OH272812   4.530   1.765   0.960  0.2097  0.2465  0.2071
23977TIP3    H172813   4.460   1.827   0.939 -0.4051 -0.7353 -0.7202
23977TIP3    H272814   4.600   1.819   0.997 -0.5638  1.4019  0.0167
23978TIP3   OH272815   9.191   8.280  10.549  0.0885  0.5541  0.1185
23978TIP3    H172816   9.216   8.350  10.610 -1.3440 -0.8294  2.4370
23978TIP3    H272817   9.104   8.305  10.518  0.5160  0.8934 -0.8335
23979TIP3   OH272818   5.795   3.597   5.206  0.2438  0.0754 -0.3721
23979TIP3    H172819   5.842   3.516   5.186 -0.7072 -0.6255  0.1740
23979TIP3    H272820   5.864   3.664   5.211  1.1473 -0.8701  0.1256
23980TIP3   OH272821   1.467   5.188   9.969 -0.0537 -0.3656 -0.7702
23980TIP3    H172822   1.559   5.164   9.958 -0.3847 -0.9925 -2.7094
23980TIP3    H272823   1.420   5.106   9.956 -0.9069  0.0671 -0.4388
23981TIP3   OH272824  10.168   4.066   7.167  0.3265 -0.7838 -0.3789
23981TIP3    H172825  10.147   3.980   7.203  0.7527 -1.1410 -0.9738
23981TIP3    H272826  10.237   4.100   7.224  0.7934 -1.2198 -0.6869
23982TIP3   OH272827   2.092   6.744   9.342 -0.1420  0.2531  0.7115
23982TIP3    H172828   2.039   6.691   9.401 -0.5388  0.1562  0.2775
23982TIP3    H272829   2.173   6.760   9.390  0.4325 -1.6183  0.4808
23983TIP3   OH272830   6.411   7.748   3.613 -0.0338 -0.4200 -0.2880
23983TIP3    H172831   6.483   7.747   3.675 -0.2417 -2.7180  0.0337
23983TIP3    H272832   6.382   7.839   3.609  2.8354  0.5806 -0.4247
23984TIP3   OH272833   5.220   4.612   2.067 -0.7033  0.1121  0.0717
23984TIP3    H172834   5.201   4.549   2.137 -1.3889  0.8253  0.5435
23984TIP3    H272835   5.249   4.691   2.113  2.8849 -0.6307 -0.5533
23985TIP3   OH272836   2.408   7.721   7.332 -0.0036  0.3400 -0.3174
23985TIP3    H172837   2.332   7.775   7.313  0.5739  0.5779 -2.1282
23985TIP3    H272838   2.411   7.717   7.428 -1.2981  1.7266 -0.1791
23986TIP3   OH272839   2.195   8.351   1.813  0.0511  0.1626  0.1123
23986TIP3    H172840   2.196   8.345   1.909  3.0478  1.9422  0.3295
23986TIP3    H272841   2.234   8.268   1.785 -0.1607 -0.0653  0.4763
23987TIP3   OH272842   0.879   3.012   9.451  0.3005 -0.2042 -0.2169
23987TIP3    H172843   0.916   3.083   9.398  1.1506 -0.6331 -0.2114
23987TIP3    H272844   0.923   3.021   9.536 -0.6769  0.1637  0.2655
23988TIP3   OH272845   5.160   9.482   1.238 -0.2408 -0.0690 -0.2480
23988TIP3    H172846   5.219   9.454   1.309 -0.7641  0.4274  0.3903
23988TIP3    H272847   5.126   9.566   1.268 -1.5660 -0.5230 -0.4422
23989TIP3   OH272848   3.548   5.145   4.034 -0.1395  0.4367 -0.3207
23989TIP3    H172849   3.522   5.125   3.944 -1.1006  0.4163 -0.0483
23989TIP3    H272850   3.472   5.122   4.087 -0.0876  1.7341  0.3628
23990TIP3   OH272851   6.485   1.978   2.554  0.2069 -0.0850 -0.0919
23990TIP3    H172852   6.500   1.939   2.467  2.4533 -2.4068  1.1982
23990TIP3    H272853   6.423   1.919   2.596  0.9804 -0.3474  0.6959
23991TIP3   OH272854   6.639  10.304   6.369 -0.2845  0.2699 -0.2623
23991TIP3    H172855   6.562  10.351   6.337 -0.0298  0.3181 -0.8062
23991TIP3    H272856   6.654  10.235   6.305 -0.8108 -0.7406  0.6648
23992TIP3   OH272857   3.164   4.424   7.484  0.6655  0.2655  0.4369
23992TIP3    H172858   3.145   4.385   7.398 -1.9030  0.8463  0.6890
23992TIP3    H272859   3.151   4.352   7.546  0.2067  0.4434  0.5443
23993TIP3   OH272860   0.663   5.328  10.601  0.1511 -0.1032  0.1440
23993TIP3    H172861   0.663   5.253  10.542 -2.8805  0.3124 -0.5494
23993TIP3    H272862   0.678   5.403  10.543  0.6354  0.0389  0.4493
23994TIP3   OH272863  10.417   0.149   3.884  0.0845  0.0573  0.2725
23994TIP3    H172864  10.463   0.072   3.918 -2.1796 -0.3859  2.6597
23994TIP3    H272865  10.456   0.223   3.931 -0.5117 -0.1358  1.0939
23995TIP3   OH272866   4.809  10.726  10.762  0.0437  0.4217 -0.3842
23995TIP3    H172867   4.727  10.715  10.714  0.1683  0.0855 -0.5276
23995TIP3    H272868   4.794  10.802  10.819 -1.8056 -1.9029  2.5449
23996TIP3   OH272869  10.076   5.766   9.253  0.1055 -0.2079 -0.0985
23996TIP3    H172870  10.147   5.702   9.250 -1.3688 -1.9230 -0.0565
23996TIP3    H272871  10.050   5.769   9.345  1.8772  2.5264  0.4267
23997TIP3   OH272872  10.623   3.111   1.430  0.5057  0.0847 -0.8464
23997TIP3    H172873  10.625   3.025   1.388 -3.4937 -0.9640  0.6330
23997TIP3    H272874  10.609   3.172   1.359 -1.4826 -1.1208 -1.5608
23998TIP3   OH272875   4.915   1.086   0.695  0.0999  0.1335  0.1964
23998TIP3    H172876   4.889   1.015   0.637  1.0893  0.2007 -0.3453
23998TIP3    H272877   4.883   1.166   0.653 -0.0991  0.1015  0.2833
23999TIP3   OH272878   5.689   8.350   6.603  0.0380  0.3535 -0.3555
23999TIP3    H172879   5.719   8.260   6.593 -0.5499 -0.0179  0.9858
23999TIP3    H272880   5.752   8.402   6.552  0.4221 -0.7877 -1.0949
24000TIP3   OH272881   0.511   9.847   9.552 -0.9074 -0.4568  0.4185
24000TIP3    H172882   0.559   9.887   9.479 -0.8363  0.1263  0.7732
24000TIP3    H272883   0.537   9.899   9.628 -1.1585 -0.9135  0.8202
24001TIP3   OH272884   2.904   8.521   9.735  0.0440  0.1457 -0.1663
24001TIP3    H172885   2.862   8.524   9.649 -0.6331 -0.5038  0.1327
24001TIP3    H272886   2.866   8.594   9.783  1.0079  0.9992 -0.6655
24002TIP3   OH272887   1.212   1.935   9.259  0.3216 -0.7610  0.0282
24002TIP3    H172888   1.154   2.009   9.274  0.9274 -0.2022 -0.2925
24002TIP3    H272889   1.184   1.868   9.322 -0.9439 -0.6817 -0.4215
24003TIP3   OH272890   2.843  10.897   5.399 -0.1290  0.5595 -0.1535
24003TIP3    H172891   2.894  10.897   5.480 -0.6688 -2.6883  0.3446
24003TIP3    H272892   2.828  10.989   5.380  1.7618  1.5001  2.3024
24004TIP3   OH272893   8.584   3.150   6.454  0.5122  0.2901  0.2736
24004TIP3    H172894   8.672   3.118   6.433  0.7040  2.0590 -1.9089
24004TIP3    H272895   8.551   3.186   6.372 -1.5618  1.2744  1.4628
24005TIP3   OH272896   1.867   8.646   1.656  0.0913 -0.5830 -0.4937
24005TIP3    H172897   1.901   8.720   1.707 -1.1203 -0.5656  0.3261
24005TIP3    H272898   1.897   8.568   1.704  1.7012 -0.6800 -1.5700
24006TIP3   OH272899   8.767   5.155  10.364  0.3375 -0.8412  0.7724
24006TIP3    H172900   8.675   5.165  10.339  0.3026  0.0804  1.2028
24006TIP3    H272901   8.792   5.242  10.395  1.2426 -1.1872  1.0356
24007TIP3   OH272902   0.046   6.753   6.315  0.5356 -0.1164 -0.4922
24007TIP3    H172903   0.121   6.730   6.261  1.4034  1.2236  0.0801
24007TIP3    H272904   0.049   6.692   6.389  1.2274  0.0863 -0.3454
24008TIP3   OH272905   2.626   8.496   4.136  0.6354  0.0119  0.3491
24008TIP3    H172906   2.544   8.485   4.184 -0.0782 -0.4431 -0.9278
24008TIP3    H272907   2.606   8.467   4.047  1.7847  1.2886 -0.3625
24009TIP3   OH272908   0.694   7.945   7.346  0.0733 -0.4910  0.2297
24009TIP3    H172909   0.760   7.972   7.409  0.4923 -1.4493  0.2108
24009TIP3    H272910   0.688   8.019   7.284  3.0701 -1.3914 -1.3333
24010TIP3   OH272911  10.605   0.757   3.946  0.4030  0.1767  0.1895
24010TIP3    H172912  10.558   0.738   4.027 -0.6944 -2.5785 -0.9605
24010TIP3    H272913  10.538   0.792   3.887  0.8490  0.6937 -0.0183
24011TIP3   OH272914   5.480   2.465   0.887 -0.8101 -0.2613 -0.1672
24011TIP3    H172915   5.405   2.514   0.855 -0.4545  0.7605  0.5197
24011TIP3    H272916   5.555   2.522   0.868 -0.2952 -0.9151 -0.1208
24012TIP3   OH272917   6.747  10.361   5.339 -1.0042 -0.4819 -0.0579
24012TIP3    H172918   6.834  10.374   5.302 -0.0912 -1.4527  1.6083
24012TIP3    H272919   6.692  10.423   5.292  0.6464  0.4141 -0.9262
24013TIP3   OH272920   7.409   5.821   2.196 -0.1521  0.2621  0.1388
24013TIP3    H172921   7.473   5.888   2.171  0.5722 -0.7986 -0.9800
24013TIP3    H272922   7.452   5.771   2.265  0.0704 -0.1833 -0.3144
24014TIP3   OH272923   9.225   5.859   2.444  0.1447 -0.0527  0.5173
24014TIP3    H172924   9.308   5.893   2.411  0.4278 -0.0293  1.2263
24014TIP3    H272925   9.249   5.796   2.512 -0.3777 -1.7198 -0.7732
24015TIP3   OH272926   0.556   9.784   6.765 -0.0260 -0.0441  0.1015
24015TIP3    H172927   0.585   9.798   6.855 -0.7740 -3.1840  0.9265
24015TIP3    H272928   0.611   9.713   6.732 -0.8212 -0.0119 -1.3963
24016TIP3   OH272929   8.947   6.040   5.158 -0.0115  0.2507  0.2945
24016TIP3    H172930   8.877   6.058   5.095 -1.1889 -0.4748  1.3383
24016TIP3    H272931   8.913   5.968   5.211  2.1342 -1.1257 -0.0782
24017TIP3   OH272932   3.693   1.954   6.601 -0.2169 -0.3089  0.3494
24017TIP3    H172933   3.731   2.029   6.646  1.8648  0.0994 -1.9212
24017TIP3    H272934   3.614   1.989   6.560  1.5619  1.1928 -2.0292
24018TIP3   OH272935   0.252   4.484   4.453  0.8281  0.4744  0.2948
24018TIP3    H172936   0.346   4.499   4.452  0.8530  0.2964 -0.9258
24018TIP3    H272937   0.240   4.399   4.411  0.0494  0.9543 -0.4810
24019TIP3   OH272938   4.707   8.587   3.666 -0.0802 -0.0529 -0.7465
24019TIP3    H172939   4.628   8.639   3.683  0.8136  1.2155 -0.3358
24019TIP3    H272940   4.675   8.510   3.620 -1.7027 -0.0984  0.3504
24020TIP3   OH272941   6.363   1.036   6.899  0.0301 -0.2899  0.3494
24020TIP3    H172942   6.389   1.126   6.918  0.8209 -0.7393  1.5426
24020TIP3    H272943   6.361   0.993   6.984 -1.6371 -1.0881 -0.0646
24021TIP3   OH272944   2.659   2.872   9.870  0.6761 -0.2919  0.0890
24021TIP3    H172945   2.717   2.947   9.853  0.9531 -0.9019 -1.8067
24021TIP3    H272946   2.717   2.797   9.877  0.1896 -0.8665 -1.5503
24022TIP3   OH272947  10.583   2.863   4.170 -0.3338 -0.3918  0.4682
24022TIP3    H172948  10.678   2.857   4.172 -0.2886  0.0453 -0.0404
24022TIP3    H272949  10.554   2.776   4.143  0.0076 -0.1050 -0.9213
24023TIP3   OH272950  10.866   3.324   7.488 -0.0283  0.6411  0.2667
24023TIP3    H172951  10.867   3.264   7.414 -1.9703  1.9803 -0.9268
24023TIP3    H272952  10.951   3.312   7.529  0.7847 -0.7580 -1.6695
24024TIP3   OH272953   6.389   0.648   4.754  0.2246 -0.5450 -0.3298
24024TIP3    H172954   6.324   0.685   4.815  0.9132 -0.1601  0.1813
24024TIP3    H272955   6.347   0.656   4.668  1.0512  3.2715 -0.5620
24025TIP3   OH272956   9.696   0.957   5.726 -0.0894  0.4298  0.1332
24025TIP3    H172957   9.766   0.891   5.728 -2.3173 -2.0921  1.2562
24025TIP3    H272958   9.720   1.019   5.794  1.3446 -0.0210  0.0775
24026TIP3   OH272959   4.930   4.103   0.849  0.1019 -0.3711 -0.3583
24026TIP3    H172960   5.012   4.055   0.833 -0.2476 -1.0363 -0.1874
24026TIP3    H272961   4.876   4.042   0.899  0.6833  1.1391  2.3763
24027TIP3   OH272962   2.448   7.195   1.594 -0.7683 -0.0126  0.3181
24027TIP3    H172963   2.499   7.209   1.514 -0.6423  0.3745  0.4616
24027TIP3    H272964   2.380   7.262   1.591  0.5728  1.5219  1.6129
24028TIP3   OH272965   6.592   2.535   1.565  0.0269 -0.6244  0.3014
24028TIP3    H172966   6.582   2.493   1.650 -3.9060  1.9161  1.3818
24028TIP3    H272967   6.556   2.472   1.502 -0.6067 -1.0797  1.1008
24029TIP3   OH272968   7.852   0.992   8.717 -0.7429  0.0288  0.6349
24029TIP3    H172969   7.940   1.010   8.749 -0.0656 -0.4667 -0.8645
24029TIP3    H272970   7.819   0.924   8.775 -0.0867  0.1115  1.1152
24030TIP3   OH272971   1.319   9.623   2.377 -0.3483  0.1997 -0.0801
24030TIP3    H172972   1.282   9.561   2.440  1.1126 -1.0098 -0.3583
24030TIP3    H272973   1.371   9.683   2.429  1.3422 -1.1549 -0.1208
24031TIP3   OH272974   0.464   4.687   3.496  0.3633  0.2446  0.1643
24031TIP3    H172975   0.464   4.591   3.502  0.0459  0.2715  0.6021
24031TIP3    H272976   0.463   4.705   3.402  1.0213 -0.1807  0.0638
24032TIP3   OH272977   6.332   5.363   8.161 -0.2634  0.0130 -0.3171
24032TIP3    H172978   6.252   5.414   8.147 -0.0536  0.1435 -1.0592
24032TIP3    H272979   6.305   5.272   8.150 -0.6881 -0.0716  1.2370
24033TIP3   OH272980  10.568   5.046   0.767  0.5314 -0.4726 -0.6063
24033TIP3    H172981  10.512   5.091   0.703  0.0741  0.9283  0.7302
24033TIP3    H272982  10.569   4.955   0.738 -1.2296 -0.2451 -1.5085
24034TIP3   OH272983   8.203   8.951   3.384  0.1578  0.1271 -0.4498
24034TIP3    H172984   8.295   8.971   3.366  0.2978  0.0170  0.1207
24034TIP3    H272985   8.190   8.863   3.348  0.7741 -0.6146  1.0086
24035TIP3   OH272986   4.521   9.999   4.542 -0.5376 -0.1485  0.1202
24035TIP3    H172987   4.499   9.920   4.592 -3.0080 -0.3428 -1.1345
24035TIP3    H272988   4.504   9.976   4.451 -3.0194  2.2828 -0.1571
24036TIP3   OH272989   3.022   2.435   2.667  0.7709  0.0503  0.1873
24036TIP3    H172990   2.989   2.514   2.624  1.2618 -0.6223 -1.5160
24036TIP3    H272991   3.092   2.466   2.724  0.8095  0.8753 -0.2915
24037TIP3   OH272992   0.414   1.996   7.824  0.3666  0.1193 -0.1600
24037TIP3    H172993   0.483   1.991   7.889  0.9402 -0.9163 -0.8329
24037TIP3    H272994   0.391   1.905   7.805  0.0276  0.4007 -1.2040
24038TIP3   OH272995   2.435   5.121   0.921 -0.0222  0.1555  0.2007
24038TIP3    H172996   2.425   5.177   0.997  0.1093  0.4231  0.0234
24038TIP3    H272997   2.501   5.165   0.867  0.3410 -0.3498  0.2254
24039TIP3   OH272998   8.325   6.690   2.159  0.2376  0.7152  0.6207
24039TIP3    H172999   8.271   6.747   2.104 -2.2548 -1.2507  0.8699
24039TIP3    H273000   8.320   6.729   2.247  1.9515  2.3046  0.0799
24040TIP3   OH273001  10.742   1.708   8.934 -0.1379 -0.0297 -0.5350
24040TIP3    H173002  10.726   1.714   8.840 -1.7032  0.3334 -0.2631
24040TIP3    H273003  10.826   1.663   8.941 -1.4320 -2.8780 -2.0448
24041TIP3   OH273004   8.637   0.153   3.783  0.2506  0.1312 -0.8696
24041TIP3    H173005   8.630   0.247   3.767 -2.1198  0.0536 -0.5803
24041TIP3    H273006   8.613   0.113   3.700  0.3456 -0.2310 -0.7226
24042TIP3   OH273007  10.207   6.297   6.951  0.2526 -0.7283 -0.4484
24042TIP3    H173008  10.228   6.318   6.860 -1.8263  0.3260 -0.7449
24042TIP3    H273009  10.119   6.332   6.964  0.0873 -1.7735  1.6785
24043TIP3   OH273010   3.585   4.519  10.152  0.0144  0.2618 -0.0001
24043TIP3    H173011   3.599   4.479  10.238 -0.1254  0.4987  0.1357
24043TIP3    H273012   3.607   4.450  10.090  0.1781  0.1078  0.2258
24044TIP3   OH273013   2.121   6.199   1.086  0.1674  0.2442 -0.1162
24044TIP3    H173014   2.206   6.242   1.097  0.2537  0.1453 -0.4058
24044TIP3    H273015   2.125   6.160   0.999 -0.5067  0.9809 -0.4863
24045TIP3   OH273016   7.934   3.037   2.445 -0.5219  0.4169  0.4180
24045TIP3    H173017   7.971   3.114   2.404  0.2241  0.2698  0.7940
24045TIP3    H273018   7.839   3.048   2.437 -0.4040  0.3180 -1.4473
24046TIP3   OH273019   9.284   1.614   8.163 -0.5481  0.7424  0.2990
24046TIP3    H173020   9.234   1.543   8.123 -1.6505  0.0893  2.6884
24046TIP3    H273021   9.369   1.612   8.118 -1.3987 -0.5071 -1.3276
24047TIP3   OH273022   8.269   9.583   1.261  0.1293 -0.1902 -0.4324
24047TIP3    H173023   8.247   9.497   1.225  0.7101  0.2333 -1.8741
24047TIP3    H273024   8.363   9.592   1.244  0.6743 -0.3539  2.0999
24048TIP3   OH273025   5.029   9.862   9.231  0.4357  0.1380 -0.3262
24048TIP3    H173026   4.967   9.849   9.303  1.2916  0.9133  0.5834
24048TIP3    H273027   5.082   9.783   9.230  1.4484  0.7523  0.9725
24049TIP3   OH273028   2.838   1.922   4.042 -0.1549 -0.5022  0.0638
24049TIP3    H173029   2.852   1.846   3.986  1.2330 -1.8510  2.0846
24049TIP3    H273030   2.897   1.989   4.007 -1.7913 -0.0916 -2.0608
24050TIP3   OH273031   6.076  10.782   3.984 -0.1151  0.3625  0.1266
24050TIP3    H173032   6.168  10.756   3.977 -0.1679  0.6849 -3.0631
24050TIP3    H273033   6.029  10.719   3.930 -1.4703  1.5061 -0.0869
24051TIP3   OH273034   6.382   0.469  10.290  0.3735 -0.3542 -0.6505
24051TIP3    H173035   6.450   0.413  10.251  1.2829  0.3998 -0.2000
24051TIP3    H273036   6.340   0.511  10.215 -0.0522 -1.3224 -0.9705
24052TIP3   OH273037   4.602   9.410   6.187  0.0574  0.6093 -0.4820
24052TIP3    H173038   4.596   9.485   6.128 -0.9695 -0.2161 -1.4978
24052TIP3    H273039   4.660   9.349   6.141 -0.6592  0.0075 -0.6194
24053TIP3   OH273040   8.223   1.049   7.768 -0.0183  0.0073  0.3559
24053TIP3    H173041   8.306   1.066   7.812  0.2952 -0.1322 -0.1739
24053TIP3    H273042   8.243   0.982   7.703 -0.2452  0.8774 -0.6528
24054TIP3   OH273043   5.398  10.727   3.732  0.1713  0.3274  0.2280
24054TIP3    H173044   5.429  10.718   3.822 -0.6276 -0.1134  0.4733
24054TIP3    H273045   5.382  10.821   3.721  0.2232  0.3798  0.5724
24055TIP3   OH273046   9.255   3.979   9.553  0.3557 -0.0118  0.3245
24055TIP3    H173047   9.170   4.020   9.537  0.3816 -0.2692 -0.5059
24055TIP3    H273048   9.266   3.983   9.649 -0.6007 -0.0164  0.4442
24056TIP3   OH273049  10.445   6.801   5.016  0.1683  0.0512 -0.1958
24056TIP3    H173050  10.436   6.746   4.938  2.2441  1.1114 -1.2613
24056TIP3    H273051  10.528   6.774   5.055 -0.2598  0.3845  1.0114
24057TIP3   OH273052   4.054   9.913   9.961 -0.1916 -0.3953 -1.3227
24057TIP3    H173053   4.131   9.860   9.985  0.0482  0.2324 -0.6586
24057TIP3    H273054   4.088   9.978   9.900  0.3288  1.2850  0.6219
24058TIP3   OH273055   8.268   6.140   2.841  0.6619 -0.5251  0.4504
24058TIP3    H173056   8.332   6.211   2.838  0.1604 -0.0632  0.5095
24058TIP3    H273057   8.255   6.116   2.749 -0.3966  0.5974  0.2744
24059TIP3   OH273058   1.917   0.510   9.139 -0.0258 -0.0308  0.0184
24059TIP3    H173059   1.864   0.584   9.109 -0.6261 -0.6434 -0.4494
24059TIP3    H273060   1.967   0.545   9.213 -0.2662  0.8542 -0.2260
24060TIP3   OH273061   8.579   1.614   1.953 -0.1817  0.4087  0.3005
24060TIP3    H173062   8.486   1.635   1.949 -0.3603 -0.5368 -1.3920
24060TIP3    H273063   8.620   1.677   1.894 -0.0071 -0.3855 -0.4368
24061TIP3   OH273064   5.203   7.990   9.478 -0.4409  0.1859  0.2268
24061TIP3    H173065   5.199   7.996   9.383  1.0549  0.7225  0.1787
24061TIP3    H273066   5.195   7.896   9.497 -0.3379  0.0434 -0.4365
24062TIP3   OH273067   9.867   4.804   9.636 -0.3140 -0.0970 -0.3348
24062TIP3    H173068   9.925   4.728   9.627 -0.2584 -0.3603  1.7581
24062TIP3    H273069   9.888   4.859   9.560  1.9587 -0.6699 -0.2096
24063TIP3   OH273070   9.877  10.070   2.182 -0.2269  0.0474 -0.0207
24063TIP3    H173071   9.849  10.098   2.095  0.5506  0.0948 -0.2557
24063TIP3    H273072   9.873  10.149   2.235 -2.9942 -0.4050  0.6151
24064TIP3   OH273073   4.243  10.466   6.174  0.3734 -0.2907  0.3515
24064TIP3    H173074   4.183  10.406   6.130 -0.9329 -1.6109  3.6001
24064TIP3    H273075   4.189  10.540   6.201  0.8469 -0.1036  0.8070
24065TIP3   OH273076  10.235   2.441   7.247 -0.5535 -0.3569 -0.1014
24065TIP3    H173077  10.140   2.445   7.240 -0.5388  1.5127  0.0700
24065TIP3    H273078  10.265   2.417   7.159 -1.1143  2.4001 -1.1488
24066TIP3   OH273079   8.686   2.237   9.434  0.1517 -0.3871 -0.9209
24066TIP3    H173080   8.702   2.189   9.515  1.9908 -0.6140 -1.3817
24066TIP3    H273081   8.673   2.327   9.462 -1.6002 -0.8259 -0.1983
24067TIP3   OH273082   3.488   9.459   1.453  0.0978 -0.0371  0.3246
24067TIP3    H173083   3.438   9.519   1.509  1.2500 -0.4663  1.8930
24067TIP3    H273084   3.528   9.516   1.388 -0.4521  0.6309  0.5509
24068TIP3   OH273085   5.630   6.760   7.594 -0.4108 -0.1695 -0.6908
24068TIP3    H173086   5.534   6.765   7.596 -0.3697  0.4086  0.4628
24068TIP3    H273087   5.651   6.757   7.501 -1.5075  0.8866 -1.0118
24069TIP3   OH273088   1.874   5.240   5.024 -0.0396 -0.1762 -0.0831
24069TIP3    H173089   1.929   5.263   4.949  0.3401 -1.4532 -0.2220
24069TIP3    H273090   1.930   5.183   5.078 -0.7057 -0.2184  0.5767
24070TIP3   OH273091   2.915   2.210   0.940 -0.1398 -0.0601 -0.1092
24070TIP3    H173092   2.976   2.136   0.947  0.5405  0.4617 -0.3891
24070TIP3    H273093   2.942   2.256   0.861 -0.4809  0.5610  0.1288
24071TIP3   OH273094   3.732   2.357   4.555  0.0498  0.3095  0.2050
24071TIP3    H173095   3.784   2.353   4.475 -1.9189  0.8923 -1.1849
24071TIP3    H273096   3.721   2.450   4.572  0.2127  0.1872  1.0180
24072TIP3   OH273097   2.317   1.204   6.750  0.4643 -0.3947 -0.0840
24072TIP3    H173098   2.255   1.208   6.677  1.5399 -0.2038 -1.0139
24072TIP3    H273099   2.271   1.247   6.823  1.2262  4.4739 -2.0690
24073TIP3   OH273100   7.732   9.473   4.666 -0.5481 -0.5801 -0.1819
24073TIP3    H173101   7.657   9.469   4.607 -1.5525  0.9137  0.9259
24073TIP3    H273102   7.771   9.559   4.650 -0.8880 -0.1126  1.3472
24074TIP3   OH273103   5.596   7.148   8.222 -0.0545 -0.0467 -0.3905
24074TIP3    H173104   5.612   7.238   8.192  0.4958 -0.3568 -1.0721
24074TIP3    H273105   5.587   7.098   8.141  1.0124 -0.8369 -0.0433
24075TIP3   OH273106   4.705   2.170   6.343 -0.0054  0.4072  0.2069
24075TIP3    H173107   4.694   2.110   6.270 -1.5608  0.6276  0.2227
24075TIP3    H273108   4.700   2.115   6.421 -5.0823  0.7070  0.4461
24076TIP3   OH273109   4.560   5.915   4.361  0.3028  0.3925  0.7420
24076TIP3    H173110   4.605   5.999   4.361  0.9699  0.0536  1.1597
24076TIP3    H273111   4.625   5.853   4.327  0.1513 -0.1004  1.3127
24077TIP3   OH273112   9.658   9.238   6.993 -0.2050 -0.3373  0.1966
24077TIP3    H173113   9.710   9.176   6.942 -0.4268 -1.8525  1.6835
24077TIP3    H273114   9.647   9.314   6.936  1.6917 -0.8913 -0.9988
24078TIP3   OH273115   7.895   0.066   9.548  0.2848  0.0563 -0.6004
24078TIP3    H173116   7.886  -0.029   9.556  0.3458  0.1976  2.4377
24078TIP3    H273117   7.823   0.091   9.491 -0.0542 -1.7665 -1.0578
24079TIP3   OH273118   8.346   9.789   7.222  0.2000 -0.0335  0.4902
24079TIP3    H173119   8.440   9.806   7.216  0.0978  0.3806 -0.0934
24079TIP3    H273120   8.340   9.696   7.244  0.7436 -0.2058 -0.0535
24080TIP3   OH273121   0.368   6.898   0.474  0.2757 -0.2189  0.4209
24080TIP3    H173122   0.419   6.918   0.396  0.5048  3.1130  1.2523
24080TIP3    H273123   0.432   6.866   0.537  1.0529  1.7638  0.7203
24081TIP3   OH273124   3.729   8.944   2.811  0.1080 -0.0273  0.2883
24081TIP3    H173125   3.698   9.030   2.837 -0.4701  0.1017 -0.7842
24081TIP3    H273126   3.716   8.941   2.716 -0.0864 -1.3707  0.3384
24082TIP3   OH273127   6.924   6.508   4.691 -0.7303 -0.0642  0.1022
24082TIP3    H173128   6.896   6.555   4.769 -0.5909 -1.3211  0.9356
24082TIP3    H273129   6.894   6.418   4.706  1.5229 -0.8978 -0.1279
24083TIP3   OH273130   5.679   9.467   6.366  0.9325 -0.1066  0.1652
24083TIP3    H173131   5.650   9.538   6.309 -1.7660 -1.0555  0.1851
24083TIP3    H273132   5.719   9.403   6.307  1.8419  0.6568 -0.0678
24084TIP3   OH273133   1.572   7.772   1.292 -0.1799  0.2194  0.1373
24084TIP3    H173134   1.611   7.806   1.372  0.0621  1.0683 -0.3291
24084TIP3    H273135   1.583   7.842   1.228 -0.4305 -0.4173 -0.6246
24085TIP3   OH273136  10.868   0.001   5.913 -0.1568 -0.4245  0.4502
24085TIP3    H173137  10.920   0.053   5.974 -0.6509 -0.1983  0.6796
24085TIP3    H273138  10.796  -0.034   5.966 -0.5394 -0.2998  0.0160
24086TIP3   OH273139   6.050   1.877   3.534 -0.1528 -0.6341  0.3816
24086TIP3    H173140   6.052   1.973   3.533  1.9778 -0.5651 -2.4423
24086TIP3    H273141   5.971   1.854   3.485  0.8477 -0.1841 -1.5291
24087TIP3   OH273142   7.054   8.831   4.329 -0.1146 -0.2095  0.1840
24087TIP3    H173143   6.972   8.820   4.281  0.3083 -0.9469 -0.4044
24087TIP3    H273144   7.102   8.896   4.278 -0.5452  0.6227  0.8285
24088TIP3   OH273145   7.963  10.233   2.638 -0.1651  0.5217 -0.3991
24088TIP3    H173146   7.992  10.207   2.551 -1.8974 -0.4303 -0.7547
24088TIP3    H273147   7.993  10.162   2.695 -1.8681 -0.6068 -0.8096
24089TIP3   OH273148   1.654   8.832   2.196 -0.1476 -0.7322 -0.1825
24089TIP3    H173149   1.565   8.836   2.160  0.7715  2.0137 -2.5220
24089TIP3    H273150   1.676   8.739   2.195 -3.1660 -1.5756  1.1389
24090TIP3   OH273151   0.274   1.359   5.094 -0.4054  0.6838 -0.6972
24090TIP3    H173152   0.269   1.263   5.094  0.8451  0.5681  1.1611
24090TIP3    H273153   0.367   1.378   5.106 -0.6798  2.1283 -0.6905
24091TIP3   OH273154   6.702   2.720   2.730  0.6208 -0.7182  0.5183
24091TIP3    H173155   6.668   2.654   2.790 -0.5686 -1.8805 -1.3057
24091TIP3    H273156   6.762   2.671   2.674 -1.0747 -0.6060 -1.5470
24092TIP3   OH273157   6.879   1.766   2.288  0.4482 -0.1613  0.1648
24092TIP3    H173158   6.887   1.746   2.195  2.3139  0.7541  0.0686
24092TIP3    H273159   6.958   1.728   2.327  0.1403  0.2538  1.2291
24093TIP3   OH273160   7.970   4.920   9.955  0.4738 -0.2757 -0.3240
24093TIP3    H173161   8.052   4.883   9.924  1.8357  3.4391 -1.8115
24093TIP3    H273162   7.911   4.915   9.879 -0.5127 -2.2975  0.5207
24094TIP3   OH273163   1.434   2.641   7.464 -0.1189 -0.0401  0.5088
24094TIP3    H173164   1.439   2.609   7.554 -0.1797  1.0654  0.9216
24094TIP3    H273165   1.369   2.711   7.467  0.3935  0.4858 -0.2487
24095TIP3   OH273166   4.224   1.607   7.934  0.6278  0.4927  0.2974
24095TIP3    H173167   4.303   1.658   7.950  2.6754 -2.2647 -0.2659
24095TIP3    H273168   4.196   1.634   7.846  1.9771  0.3207 -0.2195
24096TIP3   OH273169   6.278   4.337   6.476  0.2568 -1.1554 -0.0378
24096TIP3    H173170   6.245   4.275   6.411 -0.6601 -0.6111 -0.0999
24096TIP3    H273171   6.370   4.348   6.453  0.0829 -1.3958 -0.9099
24097TIP3   OH273172   8.463   2.476   7.775  0.4327 -0.0420  0.0800
24097TIP3    H173173   8.440   2.563   7.808  1.1347 -0.2825  1.2804
24097TIP3    H273174   8.418   2.416   7.834 -0.5239 -0.5197 -1.0936
24098TIP3   OH273175   8.736   4.317   1.616  1.1165 -0.0433  0.1548
24098TIP3    H173176   8.713   4.346   1.528  1.5711  0.6324  0.2548
24098TIP3    H273177   8.659   4.270   1.647 -0.0326  1.9121  0.3684
24099TIP3   OH273178   6.947   9.718   1.669  0.4771  0.3895 -0.7054
24099TIP3    H173179   6.978   9.673   1.591 -0.1776  1.4624 -1.6029
24099TIP3    H273180   6.854   9.732   1.654 -0.0098 -0.7329  0.9538
24100TIP3   OH273181  10.483   3.264   4.846 -0.4809 -0.0824 -0.0325
24100TIP3    H173182  10.452   3.347   4.883 -0.3169  0.2090 -0.5410
24100TIP3    H273183  10.571   3.284   4.814  0.1967 -0.8584  1.2600
24101TIP3   OH273184   8.869   3.629  10.885  0.0309 -0.6788  0.4834
24101TIP3    H173185   8.795   3.648  10.942  0.4713 -1.9427  1.5394
24101TIP3    H273186   8.944   3.669  10.929  0.2711 -1.0483  0.4111
24102TIP3   OH273187   0.403   9.628   0.933 -0.9326 -0.3127  0.0802
24102TIP3    H173188   0.456   9.690   0.983 -1.2963 -0.5116  0.7340
24102TIP3    H273189   0.424   9.646   0.842 -0.4644  0.2564  0.2934
24103TIP3   OH273190   7.232   3.345   5.544  0.2068 -0.1219 -0.2108
24103TIP3    H173191   7.225   3.354   5.639 -1.8733 -1.5180 -0.1668
24103TIP3    H273192   7.163   3.402   5.509 -0.1476 -0.8784 -0.7875
24104TIP3   OH273193   2.073   4.219   0.896  0.1137 -0.6140  0.0343
24104TIP3    H173194   1.994   4.212   0.842  1.3790 -1.9261 -1.7559
24104TIP3    H273195   2.051   4.172   0.977 -1.6948  1.0792  0.6063
24105TIP3   OH273196   4.930   0.898   9.135 -0.2169 -0.3153 -0.2749
24105TIP3    H173197   4.862   0.838   9.107 -1.1065 -0.1963  1.4940
24105TIP3    H273198   4.893   0.985   9.119 -0.1017 -0.2452 -0.1595
24106TIP3   OH273199   7.950   0.662   3.616  0.2806 -0.4176  0.3856
24106TIP3    H173200   7.943   0.728   3.546  3.2133 -0.5887 -0.2066
24106TIP3    H273201   7.975   0.712   3.694  1.3850 -0.6615  0.2071
24107TIP3   OH273202   8.091   6.498   8.836  0.1908  0.7758  0.6646
24107TIP3    H173203   8.083   6.409   8.803  0.2395  0.6009  1.1092
24107TIP3    H273204   8.053   6.553   8.768  1.4624  0.5446 -0.2783
24108TIP3   OH273205   9.843   8.172   5.590  0.2117  0.0468  0.1919
24108TIP3    H173206   9.907   8.140   5.654  1.1358  0.0331 -0.7172
24108TIP3    H273207   9.766   8.118   5.604 -0.4473  1.5067  2.8261
24109TIP3   OH273208   1.669   5.325   5.222  0.0749 -0.2216 -0.7210
24109TIP3    H173209   1.746   5.359   5.267 -0.3152 -1.1171  0.6731
24109TIP3    H273210   1.702   5.250   5.172  0.2475 -0.1186 -0.7618
24110TIP3   OH273211   1.650   0.102   1.800 -0.1819 -0.2763 -0.0498
24110TIP3    H173212   1.558   0.079   1.812 -0.4222  0.2488 -0.7902
24110TIP3    H273213   1.679   0.045   1.728 -0.1590  0.1280 -0.3648
24111TIP3   OH273214   2.905   2.350   3.997 -0.1811  0.4075  0.5823
24111TIP3    H173215   2.830   2.350   4.057 -0.4685 -1.8448  0.3132
24111TIP3    H273216   2.943   2.262   4.005  0.1132  0.1982 -2.0511
24112TIP3   OH273217   1.758  10.094  10.347  0.4209  0.3678 -0.1707
24112TIP3    H173218   1.850  10.120  10.356 -0.3040  2.5837  1.5139
24112TIP3    H273219   1.726  10.086  10.436 -0.8765 -1.2063 -0.7167
24113TIP3   OH273220   8.682   3.737   6.755  0.1580  0.7918  0.2004
24113TIP3    H173221   8.635   3.672   6.807  0.0763  0.3901 -0.3607
24113TIP3    H273222   8.716   3.800   6.819  0.2055  0.2194  0.7481
24114TIP3   OH273223   5.441   5.112   1.582 -0.7818 -0.3477 -0.2651
24114TIP3    H173224   5.400   5.043   1.633  0.5468 -0.9070  0.0886
24114TIP3    H273225   5.380   5.130   1.511 -1.5049 -1.3162  0.1032
24115TIP3   OH273226   6.659   9.167   1.597  0.3112 -0.4352  0.1206
24115TIP3    H173227   6.594   9.171   1.668 -0.4178 -0.4961 -0.5301
24115TIP3    H273228   6.743   9.156   1.642  0.0203  0.8941  1.0347
24116TIP3   OH273229   9.177   4.585   9.847  0.3760  0.7278  0.5319
24116TIP3    H173230   9.116   4.595   9.775 -2.0524  1.5314  2.5444
24116TIP3    H273231   9.235   4.661   9.841  0.4230  0.6098 -0.7134
24117TIP3   OH273232   1.372  10.664   2.759 -0.7130 -0.0195  0.6014
24117TIP3    H173233   1.349  10.704   2.843 -0.6750  0.8557  0.2042
24117TIP3    H273234   1.442  10.719   2.724  0.0443 -1.0113  0.4814
24118TIP3   OH273235   8.029   0.826   7.084  0.6334  0.4119 -0.3316
24118TIP3    H173236   8.114   0.790   7.109 -0.0434 -0.1043  1.4421
24118TIP3    H273237   7.976   0.749   7.063 -0.1130  0.4916  1.1098
24119TIP3   OH273238   0.912   0.217   2.463 -0.7037 -0.4582 -0.0377
24119TIP3    H173239   0.832   0.178   2.499 -0.7799  0.4576  0.8194
24119TIP3    H273240   0.983   0.161   2.495 -0.7673  0.3299  1.5942
24120TIP3   OH273241  10.741   3.867   5.708 -0.1939  0.3824 -0.3229
24120TIP3    H173242  10.690   3.896   5.632  0.1394  0.1929 -0.6220
24120TIP3    H273243  10.733   3.771   5.707  0.8519  0.2855 -0.8685
24121TIP3   OH273244   7.190   0.358  10.536 -0.3789 -0.3526  0.3378
24121TIP3    H173245   7.164   0.356  10.444  0.1274 -0.0707  0.1819
24121TIP3    H273246   7.221   0.269  10.554  0.7001 -0.0925 -0.1254
24122TIP3   OH273247   7.079   1.987   5.298 -0.0469 -0.2471 -0.3349
24122TIP3    H173248   7.081   2.043   5.220  1.2064  0.8766  0.4698
24122TIP3    H273249   7.163   2.001   5.340 -1.5715  1.1464  2.5715
24123TIP3   OH273250   8.419  10.333   9.684 -0.5475  0.0032  0.2438
24123TIP3    H173251   8.399  10.368   9.771  0.9716  2.0348 -0.1300
24123TIP3    H273252   8.377  10.394   9.623  1.3196  0.7004 -0.4331
24124TIP3   OH273253   2.163   4.706   5.974 -0.4199  0.7382 -0.4521
24124TIP3    H173254   2.178   4.768   6.046  1.1815  1.7620 -1.5920
24124TIP3    H273255   2.068   4.697   5.970 -0.6139  1.8195  0.8444
24125TIP3   OH273256   8.672   4.668   2.614  0.6626 -0.0496  0.7269
24125TIP3    H173257   8.733   4.720   2.666 -0.3955  1.2849  0.6990
24125TIP3    H273258   8.586   4.704   2.635 -0.1613 -1.9742  0.8780
24126TIP3   OH273259   2.613   1.354   0.033  0.3242  0.2910  0.3984
24126TIP3    H173260   2.692   1.341   0.086  0.4796  0.0109  0.0991
24126TIP3    H273261   2.556   1.280   0.056 -0.4405  1.2230  1.6522
24127TIP3   OH273262   5.608   8.882   5.585  0.1822  0.5012  0.1874
24127TIP3    H173263   5.693   8.900   5.545  1.6024 -1.1794  2.2991
24127TIP3    H273264   5.580   8.799   5.546 -0.6707  1.1637 -0.6805
24128TIP3   OH273265   2.776   9.730   7.266 -0.0683 -0.9090  0.7780
24128TIP3    H173266   2.721   9.802   7.296  0.1512  0.0372 -0.9692
24128TIP3    H273267   2.715   9.671   7.222  0.2025 -0.1077 -0.7200
24129TIP3   OH273268  10.348   4.752   1.449 -0.0053  0.3540  0.3507
24129TIP3    H173269  10.282   4.752   1.379 -2.6067  0.9906  2.6065
24129TIP3    H273270  10.361   4.660   1.471 -3.3699  0.1979  2.4832
24130TIP3   OH273271   9.863   2.881   3.305 -0.2354  0.2272 -0.2445
24130TIP3    H173272   9.837   2.899   3.396 -2.1192 -1.3011 -0.4010
24130TIP3    H273273   9.940   2.825   3.312 -0.9326 -0.6716  0.4628
24131TIP3   OH273274   8.402   0.718   1.232  0.4173  0.7021  0.0942
24131TIP3    H173275   8.327   0.776   1.248 -1.0682 -1.5063  1.6897
24131TIP3    H273276   8.453   0.722   1.313  0.3225 -0.1724  0.2025
24132TIP3   OH273277   4.287   1.529   4.413 -0.4100  0.0347  0.1552
24132TIP3    H173278   4.219   1.594   4.399 -0.0184  0.2439 -0.8340
24132TIP3    H273279   4.276   1.467   4.341  1.9511  1.3815 -1.4995
24133TIP3   OH273280   6.326   6.437   3.894  0.1864  0.1017  0.9359
24133TIP3    H173281   6.352   6.525   3.924 -1.4462  0.9675 -0.0444
24133TIP3    H273282   6.378   6.422   3.816 -1.1269  1.2309 -0.2178
24134TIP3   OH273283  10.387   2.660  10.905 -0.9766  0.3447 -0.0047
24134TIP3    H173284  10.334   2.733  10.873 -0.4497  0.5316 -0.4640
24134TIP3    H273285  10.325   2.588  10.915 -1.3211  0.5638 -0.5257
24135TIP3   OH273286   9.084   6.865  10.783 -0.2654  0.0753  0.1531
24135TIP3    H173287   9.044   6.785  10.818 -1.0235 -0.7329 -2.3298
24135TIP3    H273288   9.014   6.930  10.786 -1.1826 -0.7133 -2.0930
24136TIP3   OH273289   6.018   5.207  10.087 -0.2169 -0.5320 -0.4550
24136TIP3    H173290   6.092   5.159  10.051  0.9558  1.0666 -0.2779
24136TIP3    H273291   6.012   5.286  10.033 -0.5402  0.3045  0.7738
24137TIP3   OH273292   8.774   8.191   2.679 -0.4400 -0.1673 -0.5848
24137TIP3    H173293   8.683   8.180   2.705 -0.2436  0.1334  0.2590
24137TIP3    H273294   8.819   8.218   2.759  0.1379  1.0150 -1.2816
24138TIP3   OH273295  10.717   3.942   3.368  0.3547 -0.1979  0.4077
24138TIP3    H173296  10.663   3.995   3.427  0.4755  0.8433 -0.3854
24138TIP3    H273297  10.759   3.877   3.425  0.5696  0.8529  1.4772
24139TIP3   OH273298   3.167   6.225   2.316  0.4978 -0.1240 -0.2594
24139TIP3    H173299   3.221   6.179   2.381  0.0449 -0.3267 -0.0229
24139TIP3    H273300   3.207   6.311   2.309 -0.3993  0.4839  1.5120
24140TIP3   OH273301   6.575   9.788   5.553  0.0685  0.0356  0.6013
24140TIP3    H173302   6.524   9.719   5.596  0.5986 -1.0253 -0.4419
24140TIP3    H273303   6.662   9.782   5.592  0.3057 -0.3511  0.0257
24141TIP3   OH273304   0.532   7.573   9.438  0.3902 -0.1904 -0.1826
24141TIP3    H173305   0.508   7.649   9.385  0.4329 -0.2518 -0.2902
24141TIP3    H273306   0.462   7.566   9.503  2.0723  2.0724  2.1157
24142TIP3   OH273307   7.336   5.723   5.450  0.2970 -0.7573 -0.8562
24142TIP3    H173308   7.353   5.772   5.531 -3.9210 -1.8192  0.9751
24142TIP3    H273309   7.319   5.790   5.384 -0.5383  0.2596  0.3433
24143TIP3   OH273310   0.957   7.773   2.744 -0.2190 -0.6223  0.2162
24143TIP3    H173311   1.020   7.703   2.760 -1.0368 -1.0332  1.9094
24143TIP3    H273312   0.943   7.813   2.830 -0.0115  1.4420 -0.6529
24144TIP3   OH273313   6.342  10.273   7.245 -0.0231  0.6530  0.3585
24144TIP3    H173314   6.322  10.349   7.190  1.4415 -0.0284 -1.2191
24144TIP3    H273315   6.432  10.250   7.221 -0.5352 -1.7752  0.5540
24145TIP3   OH273316   2.583   9.582   3.690 -0.1744  0.0350  0.6512
24145TIP3    H173317   2.541   9.612   3.771 -2.8823  2.1039 -1.3322
24145TIP3    H273318   2.628   9.660   3.657  2.4642 -1.2576  0.9471
24146TIP3   OH273319   1.703   9.331   2.552 -0.2759 -0.6546  0.1955
24146TIP3    H173320   1.626   9.387   2.558  1.2589  1.4123  2.2718
24146TIP3    H273321   1.777   9.392   2.547  1.3647 -2.5439  0.1793
24147TIP3   OH273322   4.470   2.556   8.553 -0.0659  0.0814  0.0439
24147TIP3    H173323   4.506   2.599   8.476  1.0231  0.3819  0.6976
24147TIP3    H273324   4.502   2.466   8.548 -0.7629 -0.1579 -0.3203
24148TIP3   OH273325   9.862   2.983   1.227 -0.0967 -0.3887  0.5053
24148TIP3    H173326   9.853   2.919   1.298 -0.1427 -1.1825 -0.1921
24148TIP3    H273327   9.772   3.005   1.203 -0.0991 -1.0187 -0.0828
24149TIP3   OH273328   7.359   3.511   2.796 -0.1267  0.0817 -0.1601
24149TIP3    H173329   7.308   3.569   2.740 -0.2270 -0.3599 -0.5395
24149TIP3    H273330   7.315   3.426   2.788 -0.6165  0.1813  1.2115
24150TIP3   OH273331   4.251   6.041   0.616  0.0226  0.1953 -0.3171
24150TIP3    H173332   4.266   6.112   0.679 -0.5392  0.9592 -1.0223
24150TIP3    H273333   4.327   6.044   0.558  0.6682 -0.6779  0.4649
24151TIP3   OH273334   2.511   7.181   6.271 -0.6998 -0.0569  0.5517
24151TIP3    H173335   2.539   7.141   6.353  0.9483  0.3525  0.2248
24151TIP3    H273336   2.591   7.185   6.218 -1.4251  1.0423 -0.4980
24152TIP3   OH273337   0.515   6.105   4.022  0.2273 -0.4937 -0.3819
24152TIP3    H173338   0.549   6.119   3.933 -3.1315 -0.7772 -1.8587
24152TIP3    H273339   0.594   6.095   4.076  2.4310  0.2594 -3.1926
24153TIP3   OH273340   2.963   1.591   4.509  0.0743  0.5075  0.6769
24153TIP3    H173341   3.000   1.545   4.434  0.8291  1.4876  0.4260
24153TIP3    H273342   2.961   1.526   4.579  1.2520  0.1340  0.3800
24154TIP3   OH273343   6.694   2.039   5.868  0.2536 -0.1076  0.5451
24154TIP3    H173344   6.784   2.072   5.870  1.1069 -1.8796 -2.6720
24154TIP3    H273345   6.696   1.960   5.922 -0.1302  1.2147  2.6305
24155TIP3   OH273346   7.773   0.847   3.374 -0.1263 -0.1199 -0.1497
24155TIP3    H173347   7.753   0.861   3.467  1.8026 -2.1826  0.6610
24155TIP3    H273348   7.688   0.846   3.331 -1.0016  2.3767  1.3156
24156TIP3   OH273349   4.754   8.912   4.930  0.3006  0.0408  0.1556
24156TIP3    H173350   4.842   8.949   4.918 -1.0726  2.7387 -3.6477
24156TIP3    H273351   4.760   8.824   4.893  1.3868  0.2033 -0.0995
24157TIP3   OH273352   9.766   9.675   1.644  1.5084  0.5964  0.0024
24157TIP3    H173353   9.725   9.743   1.592  1.1477  0.1858 -0.2563
24157TIP3    H273354   9.809   9.722   1.716 -1.0046  0.9360  1.4029
24158TIP3   OH273355   4.121  10.593   3.589 -0.3233  0.1541 -0.0904
24158TIP3    H173356   4.096  10.558   3.504 -2.3786  2.3773 -0.4894
24158TIP3    H273357   4.111  10.520   3.649 -1.9742 -0.6395 -1.2656
24159TIP3   OH273358   4.581   3.303   2.542  0.1638  0.0431 -0.1175
24159TIP3    H173359   4.668   3.263   2.533 -0.1544 -1.2356  1.8032
24159TIP3    H273360   4.599   3.394   2.564  1.1553 -0.6509  2.2710
24160TIP3   OH273361   4.121   1.132   4.582 -0.0378 -0.0374 -0.2767
24160TIP3    H173362   4.216   1.124   4.578  0.1648 -1.4256  3.5727
24160TIP3    H273363   4.090   1.089   4.502  2.5317 -0.7249 -0.9829
24161TIP3   OH273364   4.225   7.461   5.303 -0.7125 -0.1722 -0.2793
24161TIP3    H173365   4.297   7.445   5.243  0.1918  0.8228  0.4915
24161TIP3    H273366   4.266   7.503   5.379 -2.1179  0.5307  0.1304
24162TIP3   OH273367   3.120   4.203   5.004 -0.1592  0.0320 -0.7720
24162TIP3    H173368   3.157   4.212   4.917 -0.2220  1.7880 -0.6413
24162TIP3    H273369   3.092   4.112   5.009  0.7238 -0.3452 -2.2189
24163TIP3   OH273370   5.508   7.283   4.806  0.6191  0.6019  0.3113
24163TIP3    H173371   5.461   7.244   4.733  2.3337  1.2836 -1.2203
24163TIP3    H273372   5.451   7.354   4.836 -0.1890  0.1952 -0.2330
24164TIP3   OH273373   4.206   3.263  10.661  0.3553  0.7059  0.4529
24164TIP3    H173374   4.177   3.252  10.571 -0.2417 -1.5005  0.8775
24164TIP3    H273375   4.129   3.295  10.708  0.4316  1.0307  0.3618
24165TIP3   OH273376   9.028  10.841   7.992  0.0514 -0.4542  0.1504
24165TIP3    H173377   9.092  10.823   7.923  0.6492  1.4408  0.1389
24165TIP3    H273378   9.005  10.933   7.979 -0.6830 -0.3799  1.7941
24166TIP3   OH273379   5.203   1.950   2.257 -0.2440 -0.5036 -0.0184
24166TIP3    H173380   5.179   2.041   2.238  0.1304 -0.6158 -1.0974
24166TIP3    H273381   5.193   1.942   2.352 -0.6137  0.5647  0.0489
24167TIP3   OH273382   0.938   7.394   2.504 -0.0119  0.2499 -0.1863
24167TIP3    H173383   1.027   7.430   2.506 -0.2532  0.8687 -0.1552
24167TIP3    H273384   0.885   7.465   2.468 -0.2133 -0.7503 -1.9845
24168TIP3   OH273385   0.374   9.043   9.062 -0.0259 -0.1606  0.2967
24168TIP3    H173386   0.299   9.101   9.073 -0.1188 -0.0493 -0.7915
24168TIP3    H273387   0.367   8.981   9.134 -0.5795  0.4773  0.8052
24169TIP3   OH273388   7.935   9.106   8.930  0.0175 -0.3612  0.0138
24169TIP3    H173389   7.898   9.192   8.912  0.3112 -0.1037  0.6046
24169TIP3    H273390   8.000   9.093   8.860  1.2065  0.6622  0.8786
24170TIP3   OH273391   4.836   2.962  10.405  0.2956 -0.4723  0.0016
24170TIP3    H173392   4.756   3.013  10.415  1.2378  0.8762  1.1261
24170TIP3    H273393   4.852   2.959  10.311 -0.4068  0.3290 -0.1533
24171TIP3   OH273394   2.384   6.373   1.322 -0.5530  0.6462 -0.3030
24171TIP3    H173395   2.441   6.448   1.339  2.9297 -1.2482 -2.4117
24171TIP3    H273396   2.374   6.372   1.226 -1.8480 -0.7478 -0.1946
24172TIP3   OH273397   9.516   1.825   4.140  0.1500  0.3003  0.3920
24172TIP3    H173398   9.604   1.855   4.165  0.0226  1.1028 -0.0925
24172TIP3    H273399   9.494   1.877   4.063 -0.9002  0.3499  0.7130
24173TIP3   OH273400   1.168   3.616   1.466  0.2344  0.0072 -0.6585
24173TIP3    H173401   1.240   3.673   1.440  0.1478  0.3700 -0.1251
24173TIP3    H273402   1.171   3.543   1.404  1.1472 -0.0577 -0.5412
24174TIP3   OH273403   6.591   9.272   4.236  0.2213 -0.3056  0.0002
24174TIP3    H173404   6.615   9.335   4.168  0.1007 -1.2308 -0.9253
24174TIP3    H273405   6.642   9.298   4.312  2.3071 -0.7594 -1.1839
24175TIP3   OH273406   8.881   4.373   0.852 -0.7331 -0.3202 -0.2977
24175TIP3    H173407   8.899   4.283   0.828  1.4596 -0.3139  1.0939
24175TIP3    H273408   8.910   4.424   0.776  1.3859 -0.6106  0.2506
24176TIP3   OH273409   7.992   4.558   4.472 -0.5015  0.3515 -0.1982
24176TIP3    H173410   7.932   4.544   4.546 -0.8195  1.0917 -0.3151
24176TIP3    H273411   7.951   4.627   4.420  0.5539  1.0082 -0.1749
24177TIP3   OH273412   5.794   3.473   1.209  0.6623  0.0590 -0.0867
24177TIP3    H173413   5.831   3.549   1.165  3.2180 -1.4408 -0.7237
24177TIP3    H273414   5.774   3.411   1.138  1.8505 -1.1567  0.5942
24178TIP3   OH273415   8.197   5.937   2.369 -0.2671  0.2288 -0.0303
24178TIP3    H173416   8.177   5.886   2.290 -1.1648  0.7177 -0.1225
24178TIP3    H273417   8.256   6.006   2.338  0.0419 -0.0689 -0.1144
24179TIP3   OH273418   9.523   9.227   7.247  0.3547 -0.8308  0.1916
24179TIP3    H173419   9.493   9.136   7.240  0.4079 -0.7350 -1.9235
24179TIP3    H273420   9.578   9.240   7.170  2.3781  0.2996  1.7337
24180TIP3   OH273421   1.420   9.090   7.817 -0.3790  0.0158 -0.7644
24180TIP3    H173422   1.468   9.124   7.893  0.7221 -0.2773 -1.3124
24180TIP3    H273423   1.411   9.165   7.758  0.8203 -0.2915 -1.3584
24181TIP3   OH273424   5.019  10.580   9.910 -0.2378 -0.8767  0.5814
24181TIP3    H173425   4.973  10.624   9.838 -0.2060 -2.0033 -0.1626
24181TIP3    H273426   5.087  10.529   9.866  0.2875 -0.9736  1.4909
24182TIP3   OH273427   1.398   3.443   8.174 -0.0756 -0.4215  0.0110
24182TIP3    H173428   1.484   3.465   8.140 -0.4520  0.8182 -0.1844
24182TIP3    H273429   1.393   3.348   8.168  0.9722 -0.4400 -0.7142
24183TIP3   OH273430   6.195   9.847   6.987 -0.0182  0.1644  0.2637
24183TIP3    H173431   6.222   9.796   7.064 -1.1990 -1.5684 -0.4009
24183TIP3    H273432   6.275   9.858   6.937  0.6672  0.8612  1.4729
24184TIP3   OH273433   8.581   6.695   9.885  0.2955 -0.1465  0.0755
24184TIP3    H173434   8.540   6.639   9.819  0.4501  0.1091 -0.2449
24184TIP3    H273435   8.675   6.684   9.870  0.3326 -0.2526  0.3935
24185TIP3   OH273436   2.958   6.642   7.489 -0.1948 -0.0463 -0.5812
24185TIP3    H173437   2.953   6.548   7.501 -1.8389  0.0452 -0.2073
24185TIP3    H273438   3.049   6.665   7.508 -0.1813 -1.3293  1.1127
24186TIP3   OH273439   3.958   9.103   0.870 -0.6154 -0.3591 -0.6499
24186TIP3    H173440   4.037   9.154   0.890 -0.6132 -0.2245 -0.9855
24186TIP3    H273441   3.946   9.114   0.776 -0.6832 -0.8911 -0.7061
24187TIP3   OH273442   3.930   4.326   9.356 -0.3543 -0.8478 -0.0344
24187TIP3    H173443   3.921   4.412   9.397  1.2203 -1.4751  1.7724
24187TIP3    H273444   4.010   4.290   9.392 -0.9800 -3.1127 -0.7098
24188TIP3   OH273445   9.695   8.106   8.437  0.1643  0.1263  0.3451
24188TIP3    H173446   9.782   8.070   8.454 -0.0447 -0.6979 -0.2675
24188TIP3    H273447   9.679   8.086   8.345 -1.2463 -0.9864  0.8034
24189TIP3   OH273448   7.995   7.105   7.808 -0.2360 -0.0882 -0.0408
24189TIP3    H173449   8.091   7.103   7.812 -0.0904  1.2760 -1.5060
24189TIP3    H273450   7.968   7.137   7.894  0.8487  2.3932 -0.5187
24190TIP3   OH273451   3.074   5.629   0.613  0.2928  0.3939 -0.4244
24190TIP3    H173452   2.989   5.672   0.616  0.8271  1.5276 -0.8302
24190TIP3    H273453   3.127   5.685   0.556  0.7703 -1.2607 -1.6965
24191TIP3   OH273454   1.437   2.919  10.175  0.3277  0.3897 -0.3306
24191TIP3    H173455   1.432   2.895  10.083 -0.6429  1.1943 -0.5076
24191TIP3    H273456   1.527   2.900  10.200  0.2629 -1.0635 -1.0899
24192TIP3   OH273457   2.636   5.983   3.508 -0.0211 -0.5638 -0.8206
24192TIP3    H173458   2.686   5.906   3.482  0.2345 -0.3729 -0.9006
24192TIP3    H273459   2.678   6.013   3.589  0.6204  0.1659 -1.4033
24193TIP3   OH273460  10.246   8.292   2.198 -0.3146 -0.4079 -0.3719
24193TIP3    H173461  10.215   8.227   2.135 -1.0787 -0.1403 -0.2893
24193TIP3    H273462  10.184   8.287   2.271  1.1438 -1.4366  0.8538
24194TIP3   OH273463   7.902   0.724   9.950 -0.3066  0.4800  0.3712
24194TIP3    H173464   7.913   0.819   9.945 -3.4680  0.9662  0.3771
24194TIP3    H273465   7.844   0.711  10.025 -1.3581 -1.2588 -0.6755
24195TIP3   OH273466   1.422   8.727   9.567  0.3244 -0.7259 -0.0541
24195TIP3    H173467   1.476   8.803   9.547  1.0109 -1.4342 -0.9097
24195TIP3    H273468   1.437   8.711   9.660 -0.5260  0.7172  0.3624
24196TIP3   OH273469   0.745   6.377   7.405 -0.0469 -0.0810  0.0847
24196TIP3    H173470   0.665   6.421   7.373 -0.4227  0.1386  1.2833
24196TIP3    H273471   0.714   6.322   7.477  1.0586  1.0616  1.4918
24197TIP3   OH273472   3.839   4.076   5.624 -0.1790 -0.1480  0.2123
24197TIP3    H173473   3.757   4.042   5.586 -0.2761 -0.0399  0.3240
24197TIP3    H273474   3.834   4.052   5.716 -0.1104 -0.0876  0.2314
24198TIP3   OH273475   4.850   8.767   4.322 -0.4942 -0.1869 -0.0227
24198TIP3    H173476   4.788   8.801   4.257 -0.5887 -2.3663 -1.1577
24198TIP3    H273477   4.924   8.735   4.271  1.5780  2.1796  1.2990
24199TIP3   OH273478   1.512   1.536   6.073  0.0725 -0.0402 -0.2397
24199TIP3    H173479   1.590   1.484   6.092  1.9783  1.7387 -2.5603
24199TIP3    H273480   1.466   1.487   6.005  0.7331  0.2672 -0.9172
24200TIP3   OH273481   6.393   7.465   9.234  0.9293  0.6982 -0.2202
24200TIP3    H173482   6.426   7.378   9.253  0.7691  0.8207  0.7089
24200TIP3    H273483   6.391   7.471   9.139 -1.6021 -1.3161 -0.3892
24201TIP3   OH273484   4.840   0.762   2.980  0.9512  0.0824  0.3589
24201TIP3    H173485   4.787   0.808   2.913 -1.1604 -0.9178  1.2429
24201TIP3    H273486   4.898   0.830   3.014  2.5297  0.5266 -2.8130
24202TIP3   OH273487   6.901  10.589   6.952 -0.7752 -0.3118 -0.0290
24202TIP3    H173488   6.949  10.545   6.881 -1.3062  0.0159 -0.6001
24202TIP3    H273489   6.936  10.678   6.954 -1.5632  0.0236 -0.6586
24203TIP3   OH273490   6.865   6.913   7.949 -0.0715 -0.1260 -0.1911
24203TIP3    H173491   6.789   6.859   7.924  0.2824 -1.2574  1.0894
24203TIP3    H273492   6.886   6.885   8.038  1.3369  0.7830 -0.2147
24204TIP3   OH273493   3.065   8.196   2.462 -0.7832 -0.2596 -0.2871
24204TIP3    H173494   3.155   8.167   2.479 -0.5610  0.6103  0.0919
24204TIP3    H273495   3.010   8.129   2.502 -0.2744  0.3670  1.5674
24205TIP3   OH273496   1.295   1.221   7.882  0.6875 -0.6921  0.1054
24205TIP3    H173497   1.363   1.219   7.814  0.2624  1.6674 -0.4847
24205TIP3    H273498   1.213   1.217   7.833  0.3343 -2.5753  0.7622
24206TIP3   OH273499   1.939   6.931   6.984  0.0026  0.5191 -0.2042
24206TIP3    H173500   1.860   6.982   6.967 -0.6391  0.1826  1.5281
24206TIP3    H273501   1.922   6.887   7.068  2.4164  1.2462  0.7697
24207TIP3   OH273502   7.732   4.170  10.384  0.0694  0.3347  0.2699
24207TIP3    H173503   7.793   4.111  10.341 -0.7618  0.3053 -0.9164
24207TIP3    H273504   7.722   4.244  10.324 -0.8764  0.4517  0.5435
24208TIP3   OH273505   2.775   9.225   2.727  1.2430  0.1561  0.0404
24208TIP3    H173506   2.827   9.287   2.778  1.0951 -0.5115  1.0391
24208TIP3    H273507   2.686   9.260   2.730  1.0985 -0.2484  0.8815
24209TIP3   OH273508   6.322   5.577   1.700  0.3690  0.3237  0.1708
24209TIP3    H173509   6.268   5.498   1.695  1.0703 -0.0955 -1.2332
24209TIP3    H273510   6.290   5.633   1.629  1.6380  0.1311 -0.5875
24210TIP3   OH273511   6.241   5.478   8.599  0.3993  0.0428 -0.2801
24210TIP3    H173512   6.263   5.390   8.572  0.3333 -0.2240  0.5019
24210TIP3    H273513   6.321   5.529   8.586  0.0692  0.1752 -1.9388
24211TIP3   OH273514   2.401   2.341   8.809 -0.3928 -0.4546  0.1847
24211TIP3    H173515   2.393   2.379   8.897 -1.4238 -1.4621  0.5407
24211TIP3    H273516   2.315   2.353   8.770 -0.5379 -1.8067  0.0638
24212TIP3   OH273517   7.853   3.210   1.623  0.0952 -0.0183  0.7199
24212TIP3    H173518   7.864   3.187   1.531 -2.6019 -0.9455  0.5422
24212TIP3    H273519   7.912   3.151   1.670 -1.1984 -2.1887 -0.2374
24213TIP3   OH273520   6.917   8.312   6.077  0.1135 -0.8420  0.1259
24213TIP3    H173521   6.905   8.219   6.056  2.6038 -1.3028  0.3614
24213TIP3    H273522   7.004   8.333   6.043  0.6188  0.7344  2.1900
24214TIP3   OH273523   5.024   2.182   3.104 -0.2789  0.1624  0.1881
24214TIP3    H173524   4.945   2.221   3.066 -1.0903  0.2694  1.8908
24214TIP3    H273525   5.055   2.248   3.167 -0.4363 -0.9988  1.5365
24215TIP3   OH273526   3.976   5.583  10.540 -0.0476 -0.3421  0.0760
24215TIP3    H173527   3.998   5.490  10.536 -1.6813 -0.7362 -0.5328
24215TIP3    H273528   4.007   5.619  10.456 -0.5552 -0.6211 -0.2369
24216TIP3   OH273529   1.746   4.660   9.068 -0.2357  0.0921  0.3265
24216TIP3    H173530   1.835   4.692   9.050  0.0862 -0.2645  1.2538
24216TIP3    H273531   1.736   4.584   9.011 -0.2251  0.5677 -0.3270
24217TIP3   OH273532   9.919   7.591   7.088 -0.3295 -0.0389  0.6483
24217TIP3    H173533   9.895   7.681   7.108 -0.5629 -0.0825  0.5668
24217TIP3    H273534   9.842   7.555   7.044 -0.0521 -0.1335  0.2452
24218TIP3   OH273535   7.425  10.734   8.300  0.1915  0.0371  0.1986
24218TIP3    H173536   7.413  10.818   8.257 -2.4511 -0.0398  0.6622
24218TIP3    H273537   7.465  10.678   8.233 -2.2203  0.4009 -1.6817
24219TIP3   OH273538   6.142   0.156   0.917  0.0251  0.9420 -0.1334
24219TIP3    H173539   6.068   0.127   0.971  0.3017 -0.7469 -0.5812
24219TIP3    H273540   6.192   0.215   0.973 -1.2761  1.5427  0.4170
24220TIP3   OH273541   4.843   6.169   5.795  0.2838  0.1794 -0.0495
24220TIP3    H173542   4.768   6.227   5.777 -0.5650 -0.5554  0.9616
24220TIP3    H273543   4.840   6.156   5.890  0.9535 -0.8675 -0.1608
24221TIP3   OH273544  10.027   5.915   5.828 -0.0905  0.1457  0.0077
24221TIP3    H173545  10.036   6.008   5.851 -0.1196 -0.2284  1.6342
24221TIP3    H273546  10.112   5.891   5.790 -0.6089  1.2071 -1.9667
24222TIP3   OH273547   3.111   3.850   8.958  0.2769 -0.2383 -0.2707
24222TIP3    H173548   3.197   3.807   8.957  1.2655  1.6461 -0.0702
24222TIP3    H273549   3.117   3.917   8.890 -1.6457 -1.1469 -1.4003
24223TIP3   OH273550  10.773   5.180   9.359  0.5156 -0.0636  0.3567
24223TIP3    H173551  10.793   5.249   9.423 -0.2955 -0.5021  1.0967
24223TIP3    H273552  10.701   5.131   9.398  0.0204 -0.3642 -0.8878
24224TIP3   OH273553   0.360   0.252   8.129  0.0032  0.2013  0.4563
24224TIP3    H173554   0.288   0.190   8.121  0.9246 -0.8219 -0.3021
24224TIP3    H273555   0.372   0.263   8.223 -0.5182 -0.3706  0.5951
24225TIP3   OH273556   2.564   4.934   7.920  0.1504  0.1146  0.1372
24225TIP3    H173557   2.473   4.909   7.906  0.5871 -1.0416 -0.7745
24225TIP3    H273558   2.584   4.902   8.007 -0.4694  0.8928  0.5834
24226TIP3   OH273559   8.008   8.088   5.387 -0.7278 -0.0146 -0.3097
24226TIP3    H173560   7.957   8.111   5.309 -0.8979  0.0404 -0.1814
24226TIP3    H273561   8.099   8.096   5.359 -0.7860 -0.3956 -0.6243
24227TIP3   OH273562   9.469   8.734   1.101 -0.2213  0.4431 -0.2420
24227TIP3    H173563   9.514   8.740   1.185 -0.8773  0.5404  0.1143
24227TIP3    H273564   9.525   8.782   1.041  1.7554 -2.0368 -0.5489
24228TIP3   OH273565   3.150   0.037   4.756 -0.1527  0.0688 -0.1325
24228TIP3    H173566   3.242   0.013   4.767  1.0737  2.4625 -3.4749
24228TIP3    H273567   3.143   0.124   4.794 -0.8795  0.1487 -0.4353
24229TIP3   OH273568   5.032   3.098   1.933 -0.3965 -0.3904 -0.1419
24229TIP3    H173569   5.073   3.156   1.997  1.1670 -0.5623 -0.9403
24229TIP3    H273570   5.087   3.106   1.855 -1.4181 -1.2951 -0.9765
24230TIP3   OH273571   2.853   0.934   3.073 -0.1894  0.4424  0.1482
24230TIP3    H173572   2.790   0.883   3.023 -0.3457  1.0774 -0.3113
24230TIP3    H273573   2.853   0.894   3.160 -0.4802 -0.1893 -0.1389
24231TIP3   OH273574   9.649   9.985   3.860 -0.5824  0.4047 -0.0650
24231TIP3    H173575   9.682  10.046   3.926 -0.7883  0.5873 -0.1289
24231TIP3    H273576   9.592   9.926   3.908 -0.6344  0.4598 -0.0592
24232TIP3   OH273577   2.761   0.705   6.909 -0.2811  0.6570 -0.4058
24232TIP3    H173578   2.691   0.677   6.968  1.2784 -0.2457  1.1406
24232TIP3    H273579   2.816   0.628   6.899  1.2241  1.6818 -0.4312
24233TIP3   OH273580   8.605   3.712   2.334  0.3278  0.3015 -0.5042
24233TIP3    H173581   8.623   3.799   2.299  1.5539  0.4225  0.3493
24233TIP3    H273582   8.526   3.723   2.387 -0.4851  0.5077 -1.7221
24234TIP3   OH273583   4.883   5.169   3.090  0.3339  0.0889 -0.2189
24234TIP3    H173584   4.970   5.205   3.071  0.6769 -0.6580 -0.0868
24234TIP3    H273585   4.823   5.226   3.041  0.9454  0.1960 -0.8664
24235TIP3   OH273586   9.479   4.596   0.691  0.1482  0.0094  0.1362
24235TIP3    H173587   9.395   4.565   0.655  0.7182 -0.4236 -0.8772
24235TIP3    H273588   9.479   4.566   0.782 -0.6238 -0.3559  0.0235
24236TIP3   OH273589   9.019   4.784   8.948  0.6072  0.4162 -0.1854
24236TIP3    H173590   9.079   4.792   8.874  0.5489  1.6716 -0.1125
24236TIP3    H273591   9.071   4.743   9.017  0.9956  0.3058 -0.5438
24237TIP3   OH273592   0.055   5.407   6.609 -0.1521 -0.1514 -0.2579
24237TIP3    H173593   0.083   5.397   6.699 -2.0934 -0.3766  0.3798
24237TIP3    H273594   0.126   5.454   6.565  0.9071 -0.2366  1.3180
24238TIP3   OH273595   9.357   2.255   0.993 -0.1807  0.0970  0.0229
24238TIP3    H173596   9.380   2.259   1.086  3.0342  0.1443 -0.6464
24238TIP3    H273597   9.348   2.347   0.967 -0.1135  0.1223  0.0887
24239TIP3   OH273598  10.336   1.135   0.275 -0.0763  0.1852  0.3045
24239TIP3    H173599  10.326   1.043   0.251  0.2953  0.2078  0.0480
24239TIP3    H273600  10.425   1.141   0.311 -0.9232 -0.0216  2.5290
24240TIP3   OH273601   5.668   4.568   9.195 -0.0952  0.6288 -0.4743
24240TIP3    H173602   5.578   4.561   9.226  0.3125  0.7067  0.8015
24240TIP3    H273603   5.719   4.587   9.274  0.9105  1.6118 -1.3200
24241TIP3   OH273604   4.764   6.148   3.871  0.0424 -0.2413  0.0308
24241TIP3    H173605   4.687   6.190   3.833  0.3537  1.3735  1.0467
24241TIP3    H273606   4.785   6.076   3.812 -0.6460  0.9401 -1.7513
24242TIP3   OH273607   0.213   1.927   6.918  0.4259  0.0258 -0.3569
24242TIP3    H173608   0.303   1.914   6.889  1.1499 -1.3523  2.1313
24242TIP3    H273609   0.221   1.966   7.006 -1.2833 -1.6268  0.6266
24243TIP3   OH273610  10.715   5.270   0.502  0.3480  0.0702 -0.5283
24243TIP3    H173611  10.619   5.268   0.494  0.1651 -1.5066  1.3329
24243TIP3    H273612  10.746   5.238   0.418 -0.7813  0.0137 -0.9495
24244TIP3   OH273613   8.444   8.776   0.538  0.4333 -0.0451  0.1981
24244TIP3    H173614   8.396   8.748   0.460 -0.4712  0.3597  0.5963
24244TIP3    H273615   8.484   8.860   0.513  2.5364 -1.2534 -0.7507
24245TIP3   OH273616   8.066   0.175   3.479  0.3861  0.5041 -0.0078
24245TIP3    H173617   8.046   0.261   3.441 -0.9740  0.6654  0.9796
24245TIP3    H273618   8.086   0.119   3.404 -0.4608  1.2535 -0.8161
24246TIP3   OH273619   8.129   1.364   2.314  0.4149 -0.0583 -0.7893
24246TIP3    H173620   8.047   1.359   2.363  1.1136 -1.0871  0.3030
24246TIP3    H273621   8.121   1.294   2.249  0.3898 -0.0890 -0.7532
24247TIP3   OH273622   7.611   8.272   8.621 -0.0810  0.0214  0.3267
24247TIP3    H173623   7.702   8.295   8.640  0.0087 -0.2759  0.2541
24247TIP3    H273624   7.603   8.284   8.526  0.3722 -1.6447  0.0466
24248TIP3   OH273625   7.270   0.996   4.062  0.3905 -0.0186 -0.3020
24248TIP3    H173626   7.322   0.983   4.141 -0.3406  0.4168  0.2678
24248TIP3    H273627   7.320   0.953   3.993  0.6366 -1.1521  0.5471
24249TIP3   OH273628   4.683   9.596   0.104  0.1695  0.0734 -0.2973
24249TIP3    H173629   4.623   9.648   0.051  0.8552  0.6736 -0.4911
24249TIP3    H273630   4.630   9.568   0.179 -0.5363  0.0224 -0.8081
24250TIP3   OH273631   3.661   9.031   0.875  0.3522  0.0747 -0.1501
24250TIP3    H173632   3.654   9.116   0.833 -1.9303  0.6250  1.1722
24250TIP3    H273633   3.755   9.013   0.877  0.7437  1.4524 -2.5218
24251TIP3   OH273634   3.627   6.845   2.437 -0.0044 -0.4840 -0.4845
24251TIP3    H173635   3.639   6.898   2.358 -1.2709 -0.7908 -0.9106
24251TIP3    H273636   3.568   6.775   2.410 -1.0560 -0.1952  0.8854
24252TIP3   OH273637  10.198   7.607   5.383 -0.1416  0.8420 -0.4359
24252TIP3    H173638  10.143   7.676   5.346  0.8974  1.6788 -0.4718
24252TIP3    H273639  10.284   7.648   5.394  0.8845 -0.8302 -1.7081
24253TIP3   OH273640   0.965  10.312  10.086  0.0336  0.2997 -0.2136
24253TIP3    H173641   1.005  10.248  10.146  1.7438  2.0862  0.6685
24253TIP3    H273642   0.871  10.306  10.105  0.2069 -1.4283  0.3380
24254TIP3   OH273643   1.190   9.323   1.127 -0.1055  0.6473  0.2331
24254TIP3    H173644   1.264   9.264   1.138 -0.3649  0.3463  0.3597
24254TIP3    H273645   1.230   9.410   1.121  0.6915  0.2099 -4.2526
24255TIP3   OH273646   5.001   6.843   8.602 -0.2836  0.6571  0.1200
24255TIP3    H173647   4.987   6.749   8.590 -1.4692  0.5677  1.8735
24255TIP3    H273648   4.933   6.869   8.664 -0.3322  2.8002 -0.7717
24256TIP3   OH273649  10.480   5.046   1.034  0.4052  0.5149 -0.3871
24256TIP3    H173650  10.508   5.048   0.942 -0.0344 -0.4444 -0.5485
24256TIP3    H273651  10.508   5.131   1.069  2.8448 -0.0539 -0.7336
24257TIP3   OH273652   3.074   0.334   8.915  0.0874 -0.4788 -0.1295
24257TIP3    H173653   3.111   0.282   8.986  0.0369 -0.8104 -0.3436
24257TIP3    H273654   3.133   0.320   8.842 -0.2201 -0.6671 -0.3463
24258TIP3   OH273655   1.277   1.394   4.632  0.3642  0.2751 -0.3172
24258TIP3    H173656   1.245   1.421   4.546  1.0069 -0.7784 -0.9136
24258TIP3    H273657   1.215   1.431   4.694  0.0664  1.3156 -1.2154
24259TIP3   OH273658   5.178   7.758   7.546  0.2259 -0.2397  0.2946
24259TIP3    H173659   5.258   7.727   7.503 -0.2570 -0.5750 -0.3798
24259TIP3    H273660   5.110   7.698   7.515 -0.9628  2.0765 -1.8890
24260TIP3   OH273661   7.331   4.338  10.789 -0.2104  0.5946 -0.1638
24260TIP3    H173662   7.401   4.362  10.729  1.0431 -0.3287  0.8789
24260TIP3    H273663   7.312   4.419  10.838  2.0746  0.2670  1.4271
24261TIP3   OH273664   2.635   0.973  10.366 -0.2088  0.2555 -0.4441
24261TIP3    H173665   2.569   0.907  10.345 -0.0900  0.1708 -0.5504
24261TIP3    H273666   2.655   1.015  10.282  1.4319 -1.1505 -0.8183
24262TIP3   OH273667   4.196   9.382   3.198  0.5013  0.0766  0.0378
24262TIP3    H173668   4.145   9.413   3.123 -1.1871  0.9502  1.4874
24262TIP3    H273669   4.137   9.324   3.245 -0.5649  3.5318  3.5175
24263TIP3   OH273670   1.812   4.362   0.892 -0.6206  0.3445  0.3868
24263TIP3    H173671   1.790   4.381   0.801 -0.0386  1.6777  0.4960
24263TIP3    H273672   1.768   4.280   0.911 -3.6236  1.7424 -0.0467
24264TIP3   OH273673   2.486   7.798   8.740 -0.2952  0.2459 -0.0780
24264TIP3    H173674   2.531   7.848   8.808 -2.0593  0.4660  1.0077
24264TIP3    H273675   2.544   7.724   8.722  0.4853  0.4852  1.2685
24265TIP3   OH273676   8.530   7.338   9.711 -0.0817 -0.7711  0.4453
24265TIP3    H173677   8.556   7.400   9.643  1.8359  0.4336  2.1662
24265TIP3    H273678   8.440   7.363   9.733  0.5490  1.3030  0.9156
24266TIP3   OH273679   7.145   2.709   7.929  0.3957  0.6173  0.1260
24266TIP3    H173680   7.128   2.772   7.999 -1.8154  0.4012 -0.1399
24266TIP3    H273681   7.196   2.758   7.864 -1.8902  2.4224 -0.4180
24267TIP3   OH273682   6.685   2.851   7.019  0.4307  0.7865 -0.1858
24267TIP3    H173683   6.709   2.782   6.956 -0.0986 -2.6283  2.9939
24267TIP3    H273684   6.768   2.875   7.060  0.4329  1.0114 -0.3207
24268TIP3   OH273685   7.323   2.342   9.009  0.2417 -0.7004 -0.3010
24268TIP3    H173686   7.243   2.292   8.997  0.7709 -1.7211  0.2880
24268TIP3    H273687   7.393   2.282   8.983  0.9959 -0.8075  1.8112
24269TIP3   OH273688   8.967   7.438   3.197 -0.0464  0.0413 -0.3099
24269TIP3    H173689   9.012   7.457   3.115 -0.3022  0.3014 -0.3905
24269TIP3    H273690   8.990   7.511   3.255  0.0952 -0.1174 -0.1647
24270TIP3   OH273691   1.595  10.080   1.217 -0.1334  0.4246  0.4220
24270TIP3    H173692   1.569  10.172   1.213  0.9212  0.7841  1.2759
24270TIP3    H273693   1.678  10.077   1.169 -0.6825 -0.2995 -0.5158
24271TIP3   OH273694   4.402   1.998   7.598 -0.4179  0.2881  0.3552
24271TIP3    H173695   4.473   2.003   7.662  0.4257 -0.1457 -0.5082
24271TIP3    H273696   4.354   2.080   7.608  1.3898  1.4865 -0.3635
24272TIP3   OH273697   2.408   4.948   7.214 -0.2149 -0.4046 -0.1088
24272TIP3    H173698   2.458   4.866   7.207 -0.1393 -0.3390 -0.3351
24272TIP3    H273699   2.379   4.950   7.305  0.3307 -0.3652  0.0655
24273TIP3   OH273700   8.542   0.462   7.535  0.0514 -0.2612 -0.3654
24273TIP3    H173701   8.537   0.504   7.449  0.5017 -0.7874 -0.6495
24273TIP3    H273702   8.635   0.446   7.549 -0.1177 -1.2417 -0.2952
24274TIP3   OH273703   8.800  10.648   0.007 -0.0127  0.1144  0.8920
24274TIP3    H173704   8.881  10.662  -0.043  0.9171  0.7466  2.5110
24274TIP3    H273705   8.730  10.659  -0.058  1.1366  0.7509 -0.3025
24275TIP3   OH273706   9.127   0.411   4.143  0.5432  0.0161  0.0010
24275TIP3    H173707   9.065   0.433   4.074  0.9630  3.9569  0.6383
24275TIP3    H273708   9.212   0.404   4.099  0.3097 -1.0421 -0.2997
24276TIP3   OH273709   2.401   4.158   3.067  0.3123  0.3170  0.5698
24276TIP3    H173710   2.487   4.196   3.086  0.7792  0.1575 -1.1064
24276TIP3    H273711   2.358   4.223   3.013 -0.7894  0.5376  1.6631
24277TIP3   OH273712   8.129   2.036   6.048 -0.3699 -0.4965  0.0072
24277TIP3    H173713   8.221   2.009   6.051 -0.1200  0.3753  1.3552
24277TIP3    H273714   8.083   1.960   6.013  0.8985 -0.8060 -1.0805
24278TIP3   OH273715   4.467   6.634  10.614  0.2404 -0.3003 -0.9178
24278TIP3    H173716   4.375   6.621  10.594 -0.4773  0.8555  1.2769
24278TIP3    H273717   4.504   6.672  10.534 -0.8636 -1.9040 -2.2580
24279TIP3   OH273718   0.107   1.477   3.544  0.0982  0.3832  0.1568
24279TIP3    H173719   0.164   1.548   3.574  1.4543 -0.2386 -0.8487
24279TIP3    H273720   0.024   1.519   3.525  0.2789  1.3621  1.4376
24280TIP3   OH273721   8.845   7.803   0.513  0.8348 -0.0174  0.1932
24280TIP3    H173722   8.919   7.822   0.455 -0.5999 -0.1409 -1.7550
24280TIP3    H273723   8.790   7.881   0.508 -0.1406 -0.7012  0.0583
24281TIP3   OH273724   6.446   0.922   1.497  0.0684  0.0788  0.0398
24281TIP3    H173725   6.432   0.844   1.443  2.4738 -0.0465 -0.5225
24281TIP3    H273726   6.536   0.912   1.530 -0.6789  1.0617  2.5872
24282TIP3   OH273727   0.093   7.055   9.512  0.4532 -0.3115 -0.3310
24282TIP3    H173728   0.003   7.088   9.506  0.8377  0.7851 -0.2770
24282TIP3    H273729   0.083   6.960   9.507 -0.6626 -0.1907 -0.9734
24283TIP3   OH273730   9.507   9.246   8.144 -0.1173  0.2934  0.1643
24283TIP3    H173731   9.598   9.249   8.172 -0.1120  0.3707  0.1405
24283TIP3    H273732   9.511   9.217   8.053 -0.1841 -0.7028  0.4750
24284TIP3   OH273733   1.904   9.431   0.750 -0.4186 -0.0510 -0.0488
24284TIP3    H173734   1.958   9.387   0.816  0.7550  0.6318 -0.5292
24284TIP3    H273735   1.826   9.376   0.744 -0.4245 -0.3124  1.6669
24285TIP3   OH273736   1.684  10.289   2.862 -0.2112  0.2006  0.1037
24285TIP3    H173737   1.656  10.201   2.885 -1.0509 -0.4053 -2.8484
24285TIP3    H273738   1.618  10.346   2.901 -0.6174 -0.6001  0.6089
24286TIP3   OH273739   0.909   4.955   5.683 -0.1430  0.1188  0.1604
24286TIP3    H173740   0.843   4.997   5.739 -1.0402  0.2417 -0.9331
24286TIP3    H273741   0.935   4.877   5.731  1.6943  1.9284  2.3287
24287TIP3   OH273742   3.466  10.465   5.057 -0.2220  0.3620  0.0110
24287TIP3    H173743   3.440  10.387   5.107 -0.7534  0.5587  0.0485
24287TIP3    H273744   3.555  10.483   5.086  0.5439 -1.2208 -1.2212
24288TIP3   OH273745   9.040   2.734   3.550  0.6357  0.4436 -0.4946
24288TIP3    H173746   8.975   2.770   3.611 -0.8744 -0.8806 -1.2366
24288TIP3    H273747   9.094   2.810   3.526 -0.1561  1.4474  0.7180
24289TIP3   OH273748   1.236   2.497   5.235 -0.0914 -0.0284  0.0173
24289TIP3    H173749   1.244   2.409   5.198  0.2940 -0.4064  0.9456
24289TIP3    H273750   1.326   2.528   5.242 -0.1077 -0.1897  1.1140
24290TIP3   OH273751   5.635   8.527   6.829 -0.0271 -0.2129 -0.3802
24290TIP3    H173752   5.696   8.470   6.781  1.9294  0.3304  1.3036
24290TIP3    H273753   5.688   8.564   6.899 -3.2580 -3.1615  4.0983
24291TIP3   OH273754   8.972   4.520   1.389  0.4012 -0.0041  0.2532
24291TIP3    H173755   9.037   4.555   1.328 -1.0583 -0.5928 -1.7331
24291TIP3    H273756   9.014   4.442   1.426  0.6161 -0.7765 -1.5256
24292TIP3   OH273757   1.620   7.586   3.781  0.0803  0.3065 -0.0108
24292TIP3    H173758   1.586   7.521   3.719  0.8585 -0.7363  0.6193
24292TIP3    H273759   1.633   7.536   3.862 -3.3055  2.1126  1.8720
24293TIP3   OH273760   9.584  10.184   8.031  0.1072 -1.0746 -0.0437
24293TIP3    H173761   9.494  10.172   7.999  0.5336 -1.1805 -1.2513
24293TIP3    H273762   9.627  10.236   7.963  1.5366 -2.7676 -0.5021
24294TIP3   OH273763   4.130   5.700   9.797 -0.0278 -0.7757  0.3330
24294TIP3    H173764   4.100   5.632   9.736 -1.4205  0.1030 -0.0148
24294TIP3    H273765   4.093   5.676   9.881  0.9039 -1.3512  0.5848
24295TIP3   OH273766   7.930   4.544   7.509  0.0422  0.2863 -0.2032
24295TIP3    H173767   7.842   4.555   7.472 -1.3594  1.7624  3.1619
24295TIP3    H273768   7.975   4.625   7.488  0.1613  0.0836 -0.7623
24296TIP3   OH273769   4.816   5.732   6.157  0.3839 -0.2988 -0.7250
24296TIP3    H173770   4.803   5.782   6.237  0.1155 -0.4309 -0.6812
24296TIP3    H273771   4.790   5.792   6.086  1.8017  0.2426 -0.8103
24297TIP3   OH273772   3.526   3.003  10.392 -0.3265  0.6707  0.0437
24297TIP3    H173773   3.610   3.042  10.366 -1.0361  1.1074 -1.6738
24297TIP3    H273774   3.471   3.077  10.413 -0.1566  0.3650  1.7175
24298TIP3   OH273775   0.790   0.908   0.172  0.3678  0.1011 -0.0970
24298TIP3    H173776   0.804   0.820   0.208  2.3203  0.3443 -0.1771
24298TIP3    H273777   0.761   0.960   0.247  0.6665 -0.2642  0.2787
24299TIP3   OH273778   5.482   9.712   1.322 -0.7269 -0.2550 -0.1063
24299TIP3    H173779   5.429   9.782   1.284 -0.7849 -0.6757 -0.8038
24299TIP3    H273780   5.483   9.643   1.256 -1.2289 -1.2040  0.8318
24300TIP3   OH273781   4.130   0.474  10.495  0.4637  0.2846  0.1320
24300TIP3    H173782   4.164   0.557  10.528 -0.3164  0.3542  0.7759
24300TIP3    H273783   4.151   0.411  10.564  0.9172 -0.0332 -0.2871
24301TIP3   OH273784   8.415   5.667   3.648 -0.1030  0.0142 -0.0652
24301TIP3    H173785   8.423   5.756   3.683  1.8611 -0.8103  1.7808
24301TIP3    H273786   8.323   5.658   3.626 -1.3344  1.0390  3.9321
24302TIP3   OH273787   2.235   4.664   5.545 -0.4311  0.7071 -0.0143
24302TIP3    H173788   2.215   4.755   5.567 -1.6860  0.4777 -0.1312
24302TIP3    H273789   2.152   4.629   5.514 -0.9429 -1.4459  3.2494
24303TIP3   OH273790   5.002   5.917   7.322  0.2203  0.2405  0.7677
24303TIP3    H173791   4.936   5.986   7.319  2.1184  2.1269 -1.2273
24303TIP3    H273792   5.079   5.959   7.359  1.1424 -1.0967  0.4396
24304TIP3   OH273793   4.410   7.372   7.278 -0.3265  0.5677  0.3218
24304TIP3    H173794   4.396   7.463   7.252 -0.9650  0.8067  1.4585
24304TIP3    H273795   4.408   7.373   7.373  1.5383 -0.3675  0.4035
24305TIP3   OH273796   8.608   3.045   8.218  0.2041 -0.4170  0.1176
24305TIP3    H173797   8.591   3.016   8.307  1.2765 -0.2524  0.3920
24305TIP3    H273798   8.614   3.140   8.224 -1.0034 -0.2979 -0.3672
24306TIP3   OH273799   6.165   9.780   5.653 -0.6555 -0.2873 -0.1910
24306TIP3    H173800   6.095   9.785   5.718 -1.2564 -1.6701 -0.6935
24306TIP3    H273801   6.173   9.869   5.619 -1.4790  0.0971  0.5859
24307TIP3   OH273802   4.528   4.234   9.621  0.2288 -0.1794  0.0609
24307TIP3    H173803   4.491   4.164   9.566  0.6093 -0.1903 -0.1832
24307TIP3    H273804   4.585   4.188   9.683  1.8901  0.0412 -1.2336
24308TIP3   OH273805   3.598   9.467   3.571  0.3098  0.1807 -0.5813
24308TIP3    H173806   3.536   9.470   3.498 -0.8669 -0.1245  0.3734
24308TIP3    H273807   3.548   9.428   3.643  1.4523  0.4473  0.3814
24309TIP3   OH273808   3.554   9.292   6.534  0.0308 -0.3076  0.6029
24309TIP3    H173809   3.494   9.218   6.523 -0.6784  0.3153  0.1832
24309TIP3    H273810   3.594   9.303   6.448 -2.3333  1.8583 -0.3283
24310TIP3   OH273811   4.765   0.910   1.431  0.0961  0.1593  0.0774
24310TIP3    H173812   4.841   0.882   1.483 -0.4141  0.4845  1.0212
24310TIP3    H273813   4.760   1.004   1.446 -1.2238 -0.0365  1.0548
24311TIP3   OH273814   9.854   2.573   0.417  0.0264 -0.2740 -0.0610
24311TIP3    H173815   9.822   2.595   0.504  1.1245 -1.0359  0.5584
24311TIP3    H273816   9.857   2.657   0.371 -0.7996  0.0993  0.5454
24312TIP3   OH273817   5.643   2.975   6.834  0.4526  0.9085  0.1868
24312TIP3    H173818   5.678   2.993   6.922 -0.2748 -0.4754  0.7864
24312TIP3    H273819   5.549   2.968   6.847  0.5834 -2.6801 -0.0318
24313TIP3   OH273820   1.582  10.761   1.971 -0.3081 -0.1283  0.0481
24313TIP3    H173821   1.559  10.760   2.063 -1.6361  0.3963 -0.2550
24313TIP3    H273822   1.657  10.702   1.964 -1.4445 -1.7957  1.1493
24314TIP3   OH273823   2.424   9.823   4.410  0.3244  0.0997  0.0939
24314TIP3    H173824   2.445   9.815   4.503 -1.0714  0.5774  0.4743
24314TIP3    H273825   2.368   9.900   4.405  0.3031  0.0178 -1.1386
24315TIP3   OH273826   2.155   6.377   6.641  0.2235  0.1722  0.0670
24315TIP3    H173827   2.164   6.461   6.687  2.7822 -0.5387  1.0373
24315TIP3    H273828   2.210   6.387   6.563 -0.1107 -0.3243 -0.2296
24316TIP3   OH273829   3.136   0.567   0.003  0.2617 -0.0183 -0.3870
24316TIP3    H173830   3.188   0.625   0.058 -1.6105  0.3553  1.0845
24316TIP3    H273831   3.063   0.621  -0.027 -0.9828 -1.2918  0.1934
24317TIP3   OH273832  10.287   8.878   4.316  0.0567  0.9993 -0.5038
24317TIP3    H173833  10.297   8.934   4.393 -0.5149  1.2131 -0.5730
24317TIP3    H273834  10.220   8.814   4.342  0.7210  0.3300 -0.4180
24318TIP3   OH273835  10.557   0.588   7.454 -0.2461 -0.5721  0.6712
24318TIP3    H173836  10.542   0.673   7.495  1.8936 -0.1353  0.6704
24318TIP3    H273837  10.644   0.596   7.413  0.2891 -2.9558  1.1981
24319TIP3   OH273838  10.356   8.655   1.056 -0.6153  0.0434  0.1074
24319TIP3    H173839  10.322   8.569   1.081 -0.5510  0.1271  0.5027
24319TIP3    H273840  10.396   8.689   1.136 -0.5550  0.4002 -0.0691
24320TIP3   OH273841   6.495   0.989   3.742 -0.0531  0.0374  0.4123
24320TIP3    H173842   6.455   1.061   3.791  0.7252  1.9942 -1.6580
24320TIP3    H273843   6.488   1.015   3.650 -0.8711 -3.1801 -0.5432
24321TIP3   OH273844   5.428   5.440   0.010  0.0649 -0.0267 -0.0624
24321TIP3    H173845   5.388   5.369  -0.041 -1.0240 -0.7096  1.6465
24321TIP3    H273846   5.520   5.440  -0.017  0.5433 -3.3024  1.0711
24322TIP3   OH273847   3.476   8.503   7.650 -0.4521  0.0820 -0.5955
24322TIP3    H173848   3.421   8.511   7.572 -0.0893  0.2651 -0.8355
24322TIP3    H273849   3.566   8.502   7.616 -0.2689  0.6673 -0.1509
24323TIP3   OH273850  10.804   7.003   2.079 -0.3785  1.2916 -0.3418
24323TIP3    H173851  10.825   7.051   2.159 -1.0995 -0.8605  1.2359
24323TIP3    H273852  10.750   6.929   2.108 -1.4438  0.9271 -2.9519
24324TIP3   OH273853   3.539   7.882   4.053 -0.2787  1.0918 -0.1795
24324TIP3    H173854   3.600   7.949   4.084 -0.2054  0.6584  0.6257
24324TIP3    H273855   3.458   7.930   4.037 -0.1335  1.4317  0.0835
24325TIP3   OH273856   9.748   1.264   5.607  0.3135  0.6180  0.0193
24325TIP3    H173857   9.683   1.271   5.677 -0.9783 -1.0817 -0.9358
24325TIP3    H273858   9.700   1.230   5.532  2.3543 -1.1060 -0.6291
24326TIP3   OH273859   7.572   9.080   7.656  0.4166  0.0261  0.7745
24326TIP3    H173860   7.666   9.067   7.649  0.9110  3.1610  0.1547
24326TIP3    H273861   7.536   9.047   7.574  1.3674  1.3444 -0.1962
24327TIP3   OH273862   7.537   0.127   6.828  0.0607  0.6077 -0.6528
24327TIP3    H173863   7.555   0.215   6.861 -0.7671 -0.0238  1.6969
24327TIP3    H273864   7.613   0.105   6.775  2.5310  1.0948  2.3726
24328TIP3   OH273865   3.369   9.022   7.520 -0.3677  0.4352  0.5536
24328TIP3    H173866   3.312   9.098   7.515 -1.6546 -0.5690 -1.4115
24328TIP3    H273867   3.325   8.962   7.581 -1.2561 -0.1708 -0.6484
24329TIP3   OH273868   3.722   7.445   1.773  0.1337  0.2847  0.0126
24329TIP3    H173869   3.688   7.378   1.833 -1.1514  0.6964 -0.2236
24329TIP3    H273870   3.814   7.455   1.798  0.3332 -1.5045  0.0991
24330TIP3   OH273871   3.286   5.783   2.280 -0.2543 -0.3305  0.5824
24330TIP3    H173872   3.244   5.860   2.317  2.4434 -0.4111  4.4924
24330TIP3    H273873   3.374   5.812   2.257  0.1656 -1.7875  0.2124
24331TIP3   OH273874   3.022   1.105   2.801 -0.3505  0.2038 -0.1802
24331TIP3    H173875   3.016   1.011   2.788  0.0282  0.5323 -3.8851
24331TIP3    H273876   2.934   1.133   2.824 -0.9542 -0.8546 -1.1430
24332TIP3   OH273877   0.586  10.333   5.691  0.3098  0.2321  0.5022
24332TIP3    H173878   0.531  10.281   5.633  0.6538  1.4183 -0.9509
24332TIP3    H273879   0.669  10.343   5.643  1.2546 -0.2259  1.9717
24333TIP3   OH273880   6.913   8.905   5.528 -0.4093  0.1227  0.0425
24333TIP3    H173881   6.989   8.887   5.584 -0.6854 -0.0227  0.3793
24333TIP3    H273882   6.889   8.995   5.548 -0.0079  0.3389 -0.4504
24334TIP3   OH273883   1.850   7.729   5.383  0.1865 -0.3516  0.2220
24334TIP3    H173884   1.818   7.645   5.351 -0.3459  0.5877 -1.8892
24334TIP3    H273885   1.944   7.717   5.394  0.4955 -0.6700 -2.1823
24335TIP3   OH273886   3.016   2.922   6.224 -0.1719 -0.4581 -0.1140
24335TIP3    H173887   3.090   2.937   6.165 -1.9056  1.8243 -1.9194
24335TIP3    H273888   3.016   2.997   6.283 -1.2792 -0.1911 -0.4326
24336TIP3   OH273889   1.796   2.594   7.915  0.1390 -0.3383  0.3183
24336TIP3    H173890   1.754   2.554   7.991  0.1489 -1.7712 -0.3884
24336TIP3    H273891   1.824   2.520   7.861  1.7326  0.6068 -0.2370
24337TIP3   OH273892   4.745  10.755   3.586 -0.3248  0.4498 -0.1758
24337TIP3    H173893   4.770  10.686   3.526  0.7262 -0.5850  1.3822
24337TIP3    H273894   4.653  10.737   3.606 -0.9650  1.3309 -2.0779
24338TIP3   OH273895   3.120  10.400   2.822 -0.1206 -0.5812 -0.6142
24338TIP3    H173896   3.051  10.336   2.803 -0.8058 -0.0219 -0.0944
24338TIP3    H273897   3.183  10.389   2.751 -1.7367  0.2711 -2.2699
24339TIP3   OH273898   9.746   9.579   3.525 -0.1752  0.2988  0.5275
24339TIP3    H173899   9.791   9.632   3.590  0.7016  0.9441 -0.5732
24339TIP3    H273900   9.816   9.545   3.469 -0.8490 -0.8269  0.3300
24340TIP3   OH273901  10.075   1.399   0.799  0.0892 -0.1953 -0.5284
24340TIP3    H173902  10.110   1.313   0.776  0.5740 -1.1021  3.0260
24340TIP3    H273903   9.982   1.395   0.776  0.2923 -1.3523 -1.1786
24341TIP3   OH273904   1.054   4.118   0.178  0.5727 -0.0597 -0.0259
24341TIP3    H173905   1.144   4.145   0.160  0.3223  0.6834 -0.1933
24341TIP3    H273906   1.020   4.088   0.093  1.2030 -2.0448  0.3617
24342TIP3   OH273907   5.142   3.007   0.569 -0.1935 -0.5960 -0.1141
24342TIP3    H173908   5.206   2.942   0.542 -0.5390 -1.0908  0.2513
24342TIP3    H273909   5.089   2.963   0.635 -1.1023 -0.2962 -0.6301
24343TIP3   OH273910   5.967   2.953   4.532  0.0570  0.3122 -0.0621
24343TIP3    H173911   6.022   2.921   4.460 -0.9535 -1.5674 -0.0753
24343TIP3    H273912   5.897   3.002   4.488 -0.7440 -1.1092 -0.4506
24344TIP3   OH273913   1.493   4.041   2.019  0.0269  0.1102  0.0775
24344TIP3    H173914   1.580   4.077   2.035 -0.3340  0.5200  1.2202
24344TIP3    H273915   1.507   3.972   1.954  1.6660 -1.7820  2.2344
24345TIP3   OH273916   0.513   4.637   5.084  0.3181 -0.4734  0.8115
24345TIP3    H173917   0.466   4.588   5.152 -0.0837 -1.7812 -0.3630
24345TIP3    H273918   0.550   4.569   5.027  0.4945  0.5895 -0.3819
24346TIP3   OH273919   7.164   7.731   6.827  0.3909  0.1756 -0.4670
24346TIP3    H173920   7.130   7.651   6.867  0.2696  0.2353 -0.4480
24346TIP3    H273921   7.259   7.719   6.825  0.4834  0.5753  0.7087
24347TIP3   OH273922   1.304   9.849  10.557 -0.4738  0.1409 -0.0207
24347TIP3    H173923   1.381   9.876  10.508 -0.0716 -0.6892  0.1297
24347TIP3    H273924   1.254   9.930  10.572  0.5233  0.7333  0.1633
24348TIP3   OH273925  10.798   4.006   8.949  0.5391 -0.6185  0.2512
24348TIP3    H173926  10.751   4.035   8.871  0.9130  2.0471  0.9198
24348TIP3    H273927  10.740   3.942   8.990 -0.6471 -0.4225 -1.0615
24349TIP3   OH273928   1.316   6.168   8.062  0.1173  0.4779  0.1376
24349TIP3    H173929   1.332   6.262   8.071  2.2888  0.2860 -1.0390
24349TIP3    H273930   1.319   6.151   7.968 -0.5405 -0.7388  0.3052
24350TIP3   OH273931   7.938   1.185   2.423  0.0399  1.0150  0.0277
24350TIP3    H173932   7.875   1.253   2.447 -0.8781  0.3479 -0.4382
24350TIP3    H273933   7.946   1.130   2.501 -2.5490 -0.8512 -0.8899
24351TIP3   OH273934   7.851   5.621   0.346 -0.2056 -0.0616 -0.3912
24351TIP3    H173935   7.758   5.631   0.370 -0.1388  0.8339 -0.4640
24351TIP3    H273936   7.865   5.527   0.344 -0.4289 -0.2448  2.2939
24352TIP3   OH273937   9.061   7.005   8.677 -0.1838 -0.2314  0.1271
24352TIP3    H173938   8.985   7.019   8.734  0.0717 -1.5845  0.8435
24352TIP3    H273939   9.135   6.996   8.737  0.2989 -0.4339 -0.4830
24353TIP3   OH273940   3.032   5.924   9.769  0.5478  0.4354  0.3211
24353TIP3    H173941   2.971   5.883   9.830  0.7343  0.6195  0.6298
24353TIP3    H273942   3.040   5.860   9.698 -1.2160  1.0572 -0.5028
24354TIP3   OH273943   7.448   5.290   2.720 -0.1689  0.4322 -0.1568
24354TIP3    H173944   7.490   5.211   2.687 -1.9651 -0.0468 -1.4105
24354TIP3    H273945   7.473   5.294   2.812 -0.6574 -2.0122  0.1376
24355TIP3   OH273946   1.581   5.211   4.660 -0.1200 -0.0063 -0.3550
24355TIP3    H173947   1.609   5.201   4.569  0.4961 -0.0330 -0.1701
24355TIP3    H273948   1.506   5.152   4.668  0.9010 -1.3790 -0.3901
24356TIP3   OH273949   0.366   7.942   1.078  0.0666 -0.1580 -0.1112
24356TIP3    H173950   0.326   7.883   1.014  0.3412 -0.3253 -0.1346
24356TIP3    H273951   0.454   7.959   1.042 -0.1913  0.6719 -0.3584
24357TIP3   OH273952   0.312   2.890   0.340 -0.3820  0.4326 -0.5708
24357TIP3    H173953   0.270   2.954   0.282 -0.7451  0.3776 -0.3720
24357TIP3    H273954   0.389   2.935   0.374  0.6124  0.0139 -2.1384
24358TIP3   OH273955   9.860   8.643   5.998 -0.4426 -0.2763  0.4382
24358TIP3    H173956   9.895   8.580   6.061  0.5058 -0.9837 -0.7511
24358TIP3    H273957   9.799   8.592   5.944 -0.2946  0.0091 -0.0069
24359TIP3   OH273958   9.615   9.980   2.156 -0.0700  0.0174  0.4183
24359TIP3    H173959   9.701  10.020   2.140 -0.7273  1.7857  1.0439
24359TIP3    H273960   9.568  10.045   2.208 -3.0451  0.7098 -2.8304
24360TIP3   OH273961   9.862   2.693   2.680 -0.6905 -0.2815  0.1593
24360TIP3    H173962   9.837   2.770   2.731  0.5766 -0.9777  1.9241
24360TIP3    H273963   9.937   2.656   2.727 -1.2371 -2.5790 -0.6401
24361TIP3   OH273964   0.450  10.838   2.043  0.4529  0.3948 -0.1537
24361TIP3    H173965   0.523  10.899   2.044 -0.2428  1.3031  2.1300
24361TIP3    H273966   0.390  10.873   1.977  2.1280 -0.5517 -2.2956
24362TIP3   OH273967   0.310   0.074   2.440  0.0858 -0.1852  0.1802
24362TIP3    H173968   0.227   0.068   2.487  0.2875  0.6706  0.6644
24362TIP3    H273969   0.296   0.142   2.374  0.5941  0.4406  0.6982
24363TIP3   OH273970   2.985   1.902   9.621  0.1185  0.2290  0.1253
24363TIP3    H173971   2.976   1.986   9.577 -0.1060  0.0965 -0.0826
24363TIP3    H273972   3.016   1.842   9.553 -0.2769  0.0140  0.1296
24364TIP3   OH273973   4.389   4.567   7.959 -0.3213  0.3062  0.5305
24364TIP3    H173974   4.429   4.654   7.961 -0.7742  0.5360 -0.0574
24364TIP3    H273975   4.332   4.566   8.036  0.9789 -0.1164  1.5112
24365TIP3   OH273976   7.302   2.466   7.579 -0.0955 -0.1845  0.0957
24365TIP3    H173977   7.228   2.479   7.519 -0.3240  0.0341  0.4219
24365TIP3    H273978   7.261   2.456   7.665  0.3485  2.7888  0.7599
24366TIP3   OH273979  10.452   8.008  10.497  0.0145 -0.1367 -0.0937
24366TIP3    H173980  10.396   8.041  10.568 -0.1977 -1.5086  0.4037
24366TIP3    H273981  10.490   8.087  10.459 -3.1817  1.0188 -1.2535
24367TIP3   OH273982   2.976   9.827   0.048 -0.5649 -0.4016  0.2014
24367TIP3    H173983   3.035   9.901   0.035 -0.2797 -0.5048  0.8670
24367TIP3    H273984   2.988   9.802   0.140 -0.8273 -1.1260  0.0489
24368TIP3   OH273985  10.281   6.514   4.995  0.1074 -0.2687 -0.1809
24368TIP3    H173986  10.190   6.544   4.996 -0.0911 -0.8652  0.8620
24368TIP3    H273987  10.282   6.438   5.053  1.4206  0.1428  0.3712
24369TIP3   OH273988   1.160   5.960   2.769  0.3780  0.3930  0.3519
24369TIP3    H173989   1.097   5.977   2.839  1.0710  2.5013  0.5367
24369TIP3    H273990   1.112   5.978   2.688 -0.1961 -1.3041  0.2679
24370TIP3   OH273991   4.637   1.767   5.264 -0.5306 -0.2836 -0.8039
24370TIP3    H173992   4.613   1.834   5.201 -0.0357  1.5872  0.9092
24370TIP3    H273993   4.557   1.748   5.313 -0.1587  0.8919  0.3179
24371TIP3   OH273994   8.730   3.123   1.130 -0.4834 -0.2820  0.3112
24371TIP3    H173995   8.790   3.097   1.060 -0.1883  0.4554  0.2832
24371TIP3    H273996   8.657   3.164   1.084 -0.1489  0.4747  0.4503
24372TIP3   OH273997   6.930   5.103   7.779 -0.6368 -0.4445  0.0505
24372TIP3    H173998   6.856   5.131   7.832  0.0584 -0.8642  1.2732
24372TIP3    H273999   7.007   5.143   7.821  0.0670 -1.8630  0.1605
24373TIP3   OH274000   7.039   0.737   0.491  0.9246 -0.1593 -0.0835
24373TIP3    H174001   7.068   0.827   0.476  2.0416 -0.5367 -0.2812
24373TIP3    H274002   7.119   0.685   0.486  0.1238 -1.3523 -1.4049
24374TIP3   OH274003  10.740   3.872   0.282 -0.6761 -0.5877  0.4853
24374TIP3    H174004  10.756   3.806   0.350 -0.6916 -1.7777 -0.6366
24374TIP3    H274005  10.680   3.830   0.220 -2.4556  1.2392  0.8253
24375TIP3   OH274006   9.515   3.042   7.245  0.5194 -0.3970  0.4005
24375TIP3    H174007   9.567   3.108   7.200  0.7619 -1.1870 -0.5013
24375TIP3    H274008   9.514   2.967   7.185 -0.0369 -1.0856  1.2505
24376TIP3   OH274009   1.726   0.691   5.981  0.6489  0.1902 -0.2039
24376TIP3    H174010   1.752   0.781   5.961 -1.7232  0.5094 -2.3865
24376TIP3    H274011   1.782   0.637   5.926  1.6670  0.3111  0.6683
24377TIP3   OH274012   7.369   3.864   3.072  0.0839 -0.1777  0.0679
24377TIP3    H174013   7.392   3.772   3.067 -0.3767 -0.2719 -0.4328
24377TIP3    H274014   7.281   3.865   3.108  0.3877  0.1116  0.8122
24378TIP3   OH274015   2.013   7.121   4.400 -0.0203  0.0392 -0.8532
24378TIP3    H174016   1.934   7.170   4.424  0.7955  0.2869  1.7037
24378TIP3    H274017   2.069   7.186   4.358  0.6524  1.1986  1.6200
24379TIP3   OH274018   7.252  10.699   4.912 -0.4030  0.6012 -0.1296
24379TIP3    H174019   7.230  10.613   4.876  0.9127 -0.0931  0.6470
24379TIP3    H274020   7.320  10.681   4.978 -0.9954  2.0936  0.9440
24380TIP3   OH274021   1.306  10.689  10.532  0.1643  0.2127  0.2854
24380TIP3    H174022   1.363  10.649  10.598 -0.6021  0.1979  0.9470
24380TIP3    H274023   1.218  10.658  10.553 -0.0118 -0.3635 -1.1801
24381TIP3   OH274024   8.223   4.300   0.283  0.3068  0.6180  0.7388
24381TIP3    H174025   8.271   4.378   0.256 -0.3845  1.0125  0.6183
24381TIP3    H274026   8.135   4.313   0.247  0.8692 -1.4625 -1.7049
24382TIP3   OH274027   8.302   4.375   1.064 -0.4587 -0.2958 -0.1456
24382TIP3    H174028   8.240   4.411   1.000  0.7518 -0.2753 -1.3340
24382TIP3    H274029   8.278   4.283   1.072 -0.6995 -0.2685 -0.5336
24383TIP3   OH274030   4.832   3.315   3.726 -0.4397 -0.1522 -0.0540
24383TIP3    H174031   4.878   3.396   3.747 -2.5183  1.0860 -0.0381
24383TIP3    H274032   4.835   3.265   3.808  0.9750 -0.2034 -0.1014
24384TIP3   OH274033   5.321   6.256  10.328 -0.2026  0.2505  0.4225
24384TIP3    H174034   5.272   6.210  10.260  1.2462 -2.4195  1.0378
24384TIP3    H274035   5.383   6.191  10.361  0.1119  1.8613  3.3431
24385TIP3   OH274036   4.561   3.803   5.447 -0.0955 -0.0369 -0.3490
24385TIP3    H174037   4.512   3.746   5.507 -1.8524  1.9883  0.3119
24385TIP3    H274038   4.547   3.765   5.361 -0.0324 -1.3716  0.2091
24386TIP3   OH274039   2.267   4.035   2.024  0.4809  0.2156 -0.9092
24386TIP3    H174040   2.200   4.097   2.054  1.3683  1.0331 -0.5155
24386TIP3    H274041   2.263   3.963   2.087 -0.3276  0.0387 -1.1590
24387TIP3   OH274042   2.986   6.855   3.439 -0.1740  0.1155  0.4627
24387TIP3    H174043   3.043   6.778   3.436 -1.6279 -0.9961 -0.2223
24387TIP3    H274044   3.022   6.916   3.375 -0.8511 -1.4145 -1.4692
24388TIP3   OH274045   0.956   1.508   9.623 -0.7679  0.0206 -0.1628
24388TIP3    H174046   0.885   1.572   9.612 -2.3211 -1.3195  1.3385
24388TIP3    H274047   0.994   1.531   9.708  1.8073  1.7509 -1.6605
24389TIP3   OH274048   4.187   2.141   7.962  0.3111 -0.1837 -0.4992
24389TIP3    H174049   4.125   2.212   7.942 -0.2530 -0.6463 -0.4264
24389TIP3    H274050   4.143   2.090   8.031  1.7207  0.7429  1.1786
24390TIP3   OH274051   0.625   3.965   6.911 -0.1845  0.0556  0.6221
24390TIP3    H174052   0.658   4.044   6.954  0.2721  0.6295 -0.7385
24390TIP3    H274053   0.635   3.982   6.817 -3.4163 -0.1810  0.1303
24391TIP3   OH274054   1.115   4.183   9.446  0.6726  0.6368 -0.2829
24391TIP3    H174055   1.033   4.153   9.485  0.9844  0.5448  0.3154
24391TIP3    H274056   1.143   4.111   9.390  0.1420  0.8285 -0.7954
24392TIP3   OH274057   3.807   6.787   7.464 -0.0257  0.0983 -0.1701
24392TIP3    H174058   3.731   6.729   7.464 -0.2750  0.4221 -0.5865
24392TIP3    H274059   3.813   6.819   7.374 -1.3580  2.6146  0.5335
24393TIP3   OH274060   7.102   1.399   9.415  0.8565  0.0041  0.3410
24393TIP3    H174061   7.055   1.477   9.387  0.1797 -0.3783  0.3791
24393TIP3    H274062   7.148   1.369   9.337 -0.9282 -0.9917 -0.3936
24394TIP3   OH274063   2.205   8.502   1.267 -0.4157  0.2505  0.5199
24394TIP3    H174064   2.269   8.536   1.330 -0.7694 -0.2147  1.1481
24394TIP3    H274065   2.120   8.514   1.311 -0.6628 -0.0968  0.1366
24395TIP3   OH274066   5.823   1.550   0.634  0.0713 -0.6719  0.0463
24395TIP3    H174067   5.767   1.624   0.610 -0.3002 -1.3803 -1.3718
24395TIP3    H274068   5.906   1.591   0.661 -0.7713  0.3350  1.2642
24396TIP3   OH274069   3.348   7.009   6.568  0.5084 -0.2536 -0.6932
24396TIP3    H174070   3.262   6.992   6.529  0.2795  0.6658 -0.6214
24396TIP3    H274071   3.370   6.928   6.614 -1.1325  0.0706  0.7988
24397TIP3   OH274072   3.906   0.591   1.867 -0.2890  0.5328  0.1832
24397TIP3    H174073   3.933   0.501   1.885 -1.0551  0.4886  1.1699
24397TIP3    H274074   3.950   0.643   1.934 -1.9896  0.5463  1.3519
24398TIP3   OH274075   5.162   6.060   8.623  0.7784  0.1760  0.4394
24398TIP3    H174076   5.190   6.145   8.657  0.3124 -0.1030  1.5807
24398TIP3    H274077   5.229   5.999   8.653  0.5977 -0.0052  0.4793
24399TIP3   OH274078   5.482   9.616   0.536 -0.2680  0.0522 -0.0945
24399TIP3    H174079   5.538   9.694   0.530 -0.9137  0.4575 -1.1969
24399TIP3    H274080   5.475   9.599   0.630  0.6183  0.7841  0.1214
24400TIP3   OH274081   2.729   4.155   1.776 -0.5935 -0.2757  0.1722
24400TIP3    H174082   2.657   4.122   1.830 -1.0579  0.7855  0.2228
24400TIP3    H274083   2.746   4.243   1.810 -0.4614  0.1657 -0.9857
24401TIP3   OH274084   0.921   5.065   3.614  0.1445  0.0670  0.4829
24401TIP3    H174085   0.919   5.145   3.666 -1.6854  1.1690 -1.1419
24401TIP3    H274086   0.910   4.994   3.677 -0.7749  1.2568  1.6995
24402TIP3   OH274087   3.103   0.323   6.778  0.8729  0.3155 -0.6852
24402TIP3    H174088   3.163   0.389   6.744 -1.6340  2.4067 -1.2912
24402TIP3    H274089   3.081   0.269   6.702  0.1168  1.0836 -1.0212
24403TIP3   OH274090  10.853   0.670   2.596  0.3672  0.0092  0.0247
24403TIP3    H174091  10.796   0.611   2.646  0.9028  0.7570  1.5972
24403TIP3    H274092  10.859   0.748   2.651  3.0629 -0.1240  0.0261
24404TIP3   OH274093   2.411   1.009   1.714 -0.2154 -0.1168 -0.8534
24404TIP3    H174094   2.477   1.022   1.781  1.8253 -0.3741 -2.6937
24404TIP3    H274095   2.343   1.074   1.733  0.0953 -0.4394  1.6024
24405TIP3   OH274096   3.550  10.512   0.944 -0.7682 -0.2075 -0.0626
24405TIP3    H174097   3.613  10.442   0.931 -0.4254 -0.1017  0.9590
24405TIP3    H274098   3.490  10.505   0.870 -1.9903 -2.9264  1.0343
24406TIP3   OH274099   7.534   3.024   8.343 -0.1859 -0.3381  0.2389
24406TIP3    H174100   7.553   3.009   8.436  1.0095 -1.2291 -0.1233
24406TIP3    H274101   7.597   3.092   8.317  0.7600 -1.4082 -0.3427
24407TIP3   OH274102   7.270   9.578   7.686  0.2574  0.4212 -0.3064
24407TIP3    H174103   7.355   9.582   7.643 -0.3476  0.7929 -1.5089
24407TIP3    H274104   7.207   9.566   7.614 -0.5209 -2.5587  0.7050
24408TIP3   OH274105   9.963   3.488   3.968  0.1162  0.1308  0.3188
24408TIP3    H174106   9.931   3.398   3.977  0.3441  0.0185 -0.0065
24408TIP3    H274107   9.964   3.505   3.874  0.3688  0.3684  0.3608
24409TIP3   OH274108   8.163  10.658   5.576 -0.1426  0.0372  0.1530
24409TIP3    H174109   8.170  10.687   5.667  0.8307  0.8689 -0.1590
24409TIP3    H274110   8.070  10.660   5.557 -0.3465 -0.0263  1.0990
24410TIP3   OH274111   0.725   3.164   6.755 -0.2399 -0.2261 -0.0204
24410TIP3    H174112   0.705   3.108   6.681  0.8416  0.3118 -0.7524
24410TIP3    H274113   0.796   3.221   6.724  0.1402  0.1122  1.3676
24411TIP3   OH274114   3.704  10.314   9.395  0.2844  0.2763  0.2067
24411TIP3    H174115   3.766  10.377   9.359 -0.3686 -0.3130 -2.1514
24411TIP3    H274116   3.640  10.367   9.442  1.5031  1.0539  1.0236
24412TIP3   OH274117   2.350   8.600   7.303  0.1828 -0.1806 -0.3260
24412TIP3    H174118   2.355   8.668   7.236 -0.2593  0.4022  0.2334
24412TIP3    H274119   2.257   8.590   7.321  0.2453 -0.8790 -0.3413
24413TIP3   OH274120   6.485   7.316  10.292 -0.4643 -0.2705 -0.0356
24413TIP3    H174121   6.555   7.368  10.252 -0.6017  0.7380  0.9841
24413TIP3    H274122   6.530   7.243  10.334 -0.1228 -0.1659 -0.2190
24414TIP3   OH274123  10.662   6.415   2.651 -0.0685 -0.2904 -0.1930
24414TIP3    H174124  10.586   6.360   2.672 -0.0703 -0.2737 -0.1580
24414TIP3    H274125  10.633   6.504   2.670 -0.2195 -0.2296 -0.6747
24415TIP3   OH274126   6.870   6.460   8.760  0.0426  0.3997 -0.5280
24415TIP3    H174127   6.958   6.453   8.723  0.9389 -1.0429  1.6465
24415TIP3    H274128   6.876   6.529   8.826 -0.1375 -0.3354  0.2948
24416TIP3   OH274129  10.343   6.774  10.886  0.1087 -0.1336 -0.4086
24416TIP3    H174130  10.348   6.799  10.978 -0.4546 -0.6294 -0.2447
24416TIP3    H274131  10.395   6.694  10.880  0.7298  0.2749 -0.6650
24417TIP3   OH274132   4.251   1.847   6.782  0.8172 -0.6727 -0.3659
24417TIP3    H174133   4.277   1.767   6.829  0.4804 -0.5008  0.1204
24417TIP3    H274134   4.295   1.918   6.830 -0.0287 -0.4375  0.0805
24418TIP3   OH274135  10.121   2.578   6.544  0.2125  0.0532 -0.1204
24418TIP3    H174136  10.124   2.486   6.570  2.5298  0.0349 -0.2491
24418TIP3    H274137  10.117   2.576   6.448 -1.0505  0.1152 -0.0838
24419TIP3   OH274138   6.525   8.117   4.261  0.1515 -0.5729 -0.4449
24419TIP3    H174139   6.477   8.170   4.198  0.7563  1.0096  0.3934
24419TIP3    H274140   6.617   8.134   4.242  0.3573 -0.9961  0.1161
24420TIP3   OH274141   3.155   2.291   6.890  0.1405 -0.4229  0.2761
24420TIP3    H174142   3.174   2.228   6.959  1.4951 -0.9958 -0.5868
24420TIP3    H274143   3.162   2.241   6.809 -0.3145  0.4953 -0.3531
24421TIP3   OH274144   5.849   3.258   7.273  0.2295 -1.1003  0.6992
24421TIP3    H174145   5.779   3.223   7.327 -0.2857 -0.1965  0.6459
24421TIP3    H274146   5.841   3.353   7.281  0.5928 -0.9556 -0.3898
24422TIP3   OH274147   2.874   2.368   1.151  0.1846 -0.0938  0.0751
24422TIP3    H174148   2.853   2.308   1.223  1.1674 -0.6369 -0.0735
24422TIP3    H274149   2.881   2.312   1.074  0.9345  0.2296 -0.1002
24423TIP3   OH274150   9.539   2.245   5.918 -0.0575 -0.5199  0.3805
24423TIP3    H174151   9.537   2.286   6.005 -1.1656 -1.2464  0.7165
24423TIP3    H274152   9.486   2.167   5.928  2.0493 -2.1191 -0.2219
24424TIP3   OH274153   5.410   9.666   4.628  1.0184  0.0871 -0.6214
24424TIP3    H174154   5.372   9.657   4.541 -0.4861 -0.2995  0.0555
24424TIP3    H274155   5.342   9.637   4.688  1.2707  2.2289  0.8231
24425TIP3   OH274156   9.323   9.163   4.314  0.1064  0.1349 -0.3113
24425TIP3    H174157   9.342   9.196   4.402 -0.4104 -0.6220  0.0890
24425TIP3    H274158   9.238   9.121   4.321  0.9013 -1.6260 -0.7185
24426TIP3   OH274159   7.787   1.260   9.853 -0.1479 -0.0436 -0.1489
24426TIP3    H174160   7.858   1.317   9.883 -0.2066 -0.0019 -0.0890
24426TIP3    H274161   7.782   1.276   9.759 -0.4088  0.3269 -0.0734
24427TIP3   OH274162   5.090   4.357   9.044  0.4055 -0.1265 -0.1806
24427TIP3    H174163   5.028   4.321   9.107 -1.1694 -1.6038 -2.4243
24427TIP3    H274164   5.173   4.314   9.065  0.1621  0.1760  1.4756
24428TIP3   OH274165  10.521   9.580   8.143 -0.1869  0.3130  0.1898
24428TIP3    H174166  10.598   9.625   8.176 -1.2761  1.9517  0.5751
24428TIP3    H274167  10.471   9.647   8.096 -1.1488 -0.8210 -0.4863
24429TIP3   OH274168   3.359   3.466   0.761 -0.7163 -0.1405  0.8743
24429TIP3    H174169   3.297   3.539   0.767 -0.6036 -0.0344  0.7628
24429TIP3    H274170   3.335   3.421   0.680 -2.6025 -1.9091  2.2880
24430TIP3   OH274171   7.981   5.896   0.991 -0.6216 -0.0097  0.4924
24430TIP3    H174172   8.056   5.955   0.984 -1.4476  1.1564  1.0561
24430TIP3    H274173   7.905   5.954   0.981 -1.4487 -1.2943 -1.0639
24431TIP3   OH274174   0.044   5.094   3.781 -0.0161  0.1736  0.3262
24431TIP3    H174175  -0.012   5.018   3.801  0.0601 -0.3885 -1.4375
24431TIP3    H274176   0.123   5.078   3.832 -0.6601 -0.0571  1.2884
24432TIP3   OH274177   5.737   2.533   7.446 -0.0453  0.1540 -0.2472
24432TIP3    H174178   5.822   2.554   7.406  0.9926 -0.9076  1.2626
24432TIP3    H274179   5.735   2.584   7.526 -0.8718  0.1983 -0.2867
24433TIP3   OH274180   0.214   7.651   9.153 -0.2249  0.6100 -0.1712
24433TIP3    H174181   0.187   7.707   9.081 -2.7837 -1.7251 -1.1869
24433TIP3    H274182   0.263   7.580   9.111 -0.1626  0.1674  0.6327
24434TIP3   OH274183   4.946  10.719   7.179 -0.4212  0.0961 -0.5607
24434TIP3    H174184   4.915  10.806   7.152 -0.8001 -0.1117 -0.8088
24434TIP3    H274185   4.875  10.685   7.233 -0.3412 -0.1226 -0.5952
24435TIP3   OH274186  10.593   7.261   7.346  0.1680  0.6607 -0.0965
24435TIP3    H174187  10.552   7.344   7.320  0.5539  0.0684 -2.9034
24435TIP3    H274188  10.612   7.217   7.264 -3.1160 -3.8778  1.1913
24436TIP3   OH274189   4.944   2.995   2.345  0.1449 -0.1935  0.3345
24436TIP3    H174190   4.893   2.952   2.414  1.8776 -1.0362  1.1388
24436TIP3    H274191   4.881   3.009   2.275 -1.2183 -1.1329  1.3131
24437TIP3   OH274192   1.601   7.745   7.549 -0.2912 -0.0029  0.3319
24437TIP3    H174193   1.663   7.818   7.554  1.7261 -1.6554  1.0461
24437TIP3    H274194   1.519   7.785   7.521  0.9737  2.3746 -0.2562
24438TIP3   OH274195   8.780   9.014   6.533  0.8119 -0.1880  0.0862
24438TIP3    H174196   8.808   8.926   6.560 -1.2037 -1.6286 -2.0808
24438TIP3    H274197   8.862   9.059   6.510  1.8419 -1.8743  0.2567
24439TIP3   OH274198   6.975   7.358   1.398 -0.0597  0.4543  0.5870
24439TIP3    H174199   7.055   7.306   1.393 -1.1487 -1.2817  0.4901
24439TIP3    H274200   6.917   7.320   1.333 -0.7523  2.1408  0.1433
24440TIP3   OH274201   3.057   3.761   2.188 -0.1350 -0.4946 -0.7433
24440TIP3    H174202   3.062   3.856   2.177 -0.5712 -0.5136 -1.1231
24440TIP3    H274203   2.963   3.741   2.187 -0.0173 -1.1245 -2.3914
24441TIP3   OH274204   5.419   0.140   0.224  0.1071  0.5408 -0.3490
24441TIP3    H174205   5.444   0.068   0.166 -1.8131  1.5080 -2.5389
24441TIP3    H274206   5.460   0.217   0.186 -1.9540  1.3447 -1.0647
24442TIP3   OH274207   4.684   1.290   6.758  0.2648  0.0120 -0.6341
24442TIP3    H174208   4.647   1.207   6.790 -1.5675  0.6407 -0.9729
24442TIP3    H274209   4.754   1.264   6.698  0.8540 -1.2432  0.5452
24443TIP3   OH274210   8.057   5.557   7.846  0.6933 -0.4497 -0.4149
24443TIP3    H174211   8.021   5.643   7.825 -0.9786 -0.5092  1.8119
24443TIP3    H274212   8.115   5.572   7.921 -0.0157 -1.2935  0.3328
24444TIP3   OH274213   3.179   6.230  10.767  0.5406  1.0915 -0.2216
24444TIP3    H174214   3.147   6.141  10.763  2.4386  0.3931 -2.2879
24444TIP3    H274215   3.103   6.283  10.789 -1.0006 -0.8674 -0.6145
24445TIP3   OH274216  10.161   5.132   3.120 -0.2918 -0.4070  0.4975
24445TIP3    H174217  10.247   5.157   3.087 -0.5168 -0.5833 -0.2404
24445TIP3    H274218  10.161   5.036   3.118 -1.8336 -0.4757 -3.1825
24446TIP3   OH274219   4.626   6.777   7.418  0.4749  0.0564 -0.3312
24446TIP3    H174220   4.577   6.698   7.397 -0.7344  0.9540 -1.0143
24446TIP3    H274221   4.595   6.803   7.505 -0.4476  0.7384 -0.8499
24447TIP3   OH274222   9.967  10.257   3.911 -0.0418 -0.2611  0.2813
24447TIP3    H174223  10.044  10.201   3.898 -1.2897 -2.4251  1.5984
24447TIP3    H274224   9.947  10.291   3.823  1.4204 -1.0049 -0.3781
24448TIP3   OH274225  10.297   2.974   6.894 -0.1727  0.0912 -0.0191
24448TIP3    H174226  10.372   2.915   6.881  0.3964  1.0216 -1.0705
24448TIP3    H274227  10.321   3.054   6.849 -1.3633  0.7999  0.5590
24449TIP3   OH274228   1.954   2.177  10.799  0.2277 -0.1844 -0.4377
24449TIP3    H174229   1.889   2.241  10.772  0.3560  0.4200  0.6370
24449TIP3    H274230   2.009   2.223  10.862  1.5081 -0.7782 -1.0766
24450TIP3   OH274231  10.905   0.017   2.875 -0.2263 -0.0358 -0.1296
24450TIP3    H174232  10.933  -0.054   2.934  0.5316  0.2422 -0.1353
24450TIP3    H274233  10.910   0.096   2.929  0.0673  0.1657 -0.4487
24451TIP3   OH274234   2.053   2.631   8.411  0.2859  0.3808  0.5725
24451TIP3    H174235   1.978   2.577   8.436  1.0330 -1.9910 -1.7329
24451TIP3    H274236   2.059   2.698   8.479 -2.7530 -0.4526  1.8294
24452TIP3   OH274237   0.940   1.339   4.584 -0.6871 -0.8467  0.3783
24452TIP3    H174238   0.975   1.297   4.663 -0.5143 -2.0428 -0.3029
24452TIP3    H274239   0.846   1.346   4.600 -0.4408  0.6564  1.4423
24453TIP3   OH274240   2.427   4.862   6.887  0.6938 -0.1080 -0.2532
24453TIP3    H174241   2.462   4.944   6.921 -0.2565  0.1607  0.1138
24453TIP3    H274242   2.503   4.805   6.879  1.6082  1.2838 -1.9536
24454TIP3   OH274243   0.685   8.207   1.267 -0.1964 -0.4256  0.3671
24454TIP3    H174244   0.749   8.203   1.338 -1.1757  0.8448  1.3458
24454TIP3    H274245   0.671   8.115   1.243  1.0767 -0.7991  0.9454
24455TIP3   OH274246   4.785   5.728   3.014 -0.3766 -0.3377  0.0211
24455TIP3    H174247   4.875   5.757   2.995  0.4873 -3.8914 -2.4290
24455TIP3    H274248   4.771   5.751   3.105  3.2033  0.0479  0.6122
24456TIP3   OH274249  10.864   8.306   9.037 -0.4041 -0.3592 -0.0586
24456TIP3    H174250  10.781   8.344   9.066 -0.1109 -0.2947  0.7444
24456TIP3    H274251  10.923   8.382   9.029  0.2082 -0.6063  1.6270
24457TIP3   OH274252   4.065   3.523   9.751 -0.0397  0.4753 -0.1065
24457TIP3    H174253   4.052   3.517   9.657 -1.3367  2.1243 -0.0894
24457TIP3    H274254   4.064   3.617   9.769 -2.2477  0.1790  1.8317
24458TIP3   OH274255   5.174   7.093  10.239 -0.2591  0.7676 -0.5645
24458TIP3    H174256   5.142   7.114  10.151 -1.2897  2.0685  0.0877
24458TIP3    H274257   5.268   7.081  10.227 -0.7405 -2.1277 -2.3604
24459TIP3   OH274258   9.755   4.774   8.273  0.5121  0.4615  0.4447
24459TIP3    H174259   9.719   4.728   8.349  1.3048  1.0869  1.2298
24459TIP3    H274260   9.850   4.762   8.282  0.5847 -0.5497 -1.1729
24460TIP3   OH274261   4.431   5.834   9.933 -0.3340  0.5776 -0.4061
24460TIP3    H174262   4.363   5.768   9.916 -2.0296  2.1904 -0.1553
24460TIP3    H274263   4.461   5.859   9.846 -0.5523  0.3504 -0.5502
24461TIP3   OH274264   0.153   5.172   5.013 -0.0939 -0.1123 -0.2415
24461TIP3    H174265   0.214   5.207   5.078 -0.5156 -0.2687  0.2467
24461TIP3    H274266   0.073   5.155   5.062 -0.0096 -1.4725 -0.5234
24462TIP3   OH274267   1.492   1.605   5.176 -0.1810 -0.5254  0.3928
24462TIP3    H174268   1.584   1.579   5.169 -0.2912 -0.8200  0.0387
24462TIP3    H274269   1.443   1.529   5.146 -0.5349 -0.2795  0.3408
24463TIP3   OH274270   6.565   3.070   4.938  0.0417  0.0504  0.3045
24463TIP3    H174271   6.582   3.005   5.006  0.6749  0.5254  0.6107
24463TIP3    H274272   6.537   3.019   4.862 -1.3447 -0.4333  1.1246
24464TIP3   OH274273   1.304   3.547   6.826  0.2756 -0.6847  0.3244
24464TIP3    H174274   1.359   3.622   6.804  1.2779 -1.4518  0.1241
24464TIP3    H274275   1.241   3.581   6.890 -0.3501  0.7071 -0.9513
24465TIP3   OH274276   0.634   3.166   4.947  0.2881 -0.4609 -0.6860
24465TIP3    H174277   0.570   3.140   5.013 -1.2298  1.0598 -1.4635
24465TIP3    H274278   0.582   3.205   4.877  1.9083 -1.2251 -2.4157
24466TIP3   OH274279   9.690   5.144   1.014  0.3031  0.0953  0.4701
24466TIP3    H174280   9.676   5.051   1.032  0.1455 -0.1771 -0.9326
24466TIP3    H274281   9.784   5.152   1.001  0.3293  0.1627  0.6931
24467TIP3   OH274282   3.330   3.245   1.970 -0.0531 -0.0937  0.0008
24467TIP3    H174283   3.310   3.174   2.032 -0.1590  0.1726  0.2741
24467TIP3    H274284   3.324   3.204   1.884  0.5122 -0.5766  0.1811
24468TIP3   OH274285   6.258   2.455   9.039 -0.3068 -0.1123 -0.0921
24468TIP3    H174286   6.192   2.487   8.978  0.1806 -2.6012 -2.1092
24468TIP3    H274287   6.210   2.392   9.094  0.0811 -0.8861 -0.6323
24469TIP3   OH274288   0.783   8.504   5.104 -0.5849  0.0436 -0.7080
24469TIP3    H174289   0.709   8.558   5.075 -1.3486 -0.3846  0.3726
24469TIP3    H274290   0.794   8.526   5.196  1.7317  1.3144 -1.1978
24470TIP3   OH274291   4.808   0.949   3.732  0.1427 -0.0367  0.5460
24470TIP3    H174292   4.797   0.885   3.802 -0.6031  1.1217  1.5039
24470TIP3    H274293   4.803   0.897   3.651 -0.8006 -1.1324  1.2880
24471TIP3   OH274294   3.299   7.548  10.718  0.3880  0.4039  0.2425
24471TIP3    H174295   3.271   7.464  10.683  0.2714  1.0499 -1.2740
24471TIP3    H274296   3.307   7.533  10.812 -0.5600 -1.0345  0.1228
24472TIP3   OH274297   7.429   7.377   3.202  0.2569 -0.0305 -0.1171
24472TIP3    H174298   7.471   7.460   3.180 -1.2607  0.6893 -0.4357
24472TIP3    H274299   7.455   7.359   3.292 -0.9371  1.8279  0.6465
24473TIP3   OH274300   7.773   1.998   8.370 -0.2628 -0.4678  0.4622
24473TIP3    H174301   7.707   2.060   8.340 -0.2944 -0.5609  0.3377
24473TIP3    H274302   7.786   2.019   8.462  1.0465  0.9110 -0.0003
24474TIP3   OH274303   4.228   7.936   0.248 -0.1390 -0.7449  0.0167
24474TIP3    H174304   4.147   7.965   0.291 -0.2067  0.2611 -0.7535
24474TIP3    H274305   4.219   7.841   0.239 -1.1850 -0.6504  0.0332
24475TIP3   OH274306   3.993   5.042   2.334  0.5404 -0.0951  0.0097
24475TIP3    H174307   4.009   5.002   2.419 -0.4055  0.1848  0.3326
24475TIP3    H274308   3.898   5.035   2.322  0.6232  0.1915 -0.8582
24476TIP3   OH274309   4.145   9.191   7.181 -0.1603  0.1644  0.2203
24476TIP3    H174310   4.077   9.189   7.249 -2.6878 -0.9882 -2.1269
24476TIP3    H274311   4.190   9.107   7.189  2.3039  1.5613  2.8252
24477TIP3   OH274312   5.530   8.826   6.198  0.0007  0.0853 -0.0245
24477TIP3    H174313   5.448   8.863   6.166 -0.2526  0.7260  1.3150
24477TIP3    H274314   5.556   8.883   6.270  1.7908  0.0688 -0.6139
24478TIP3   OH274315   6.729   1.246   8.911  0.0135  0.3107  0.1494
24478TIP3    H174316   6.712   1.325   8.859 -0.1844  1.2651  1.5817
24478TIP3    H274317   6.781   1.190   8.853 -0.7567  1.0229 -1.2849
24479TIP3   OH274318  10.321   2.407   3.616 -0.0351  0.0133  0.2044
24479TIP3    H174319  10.405   2.434   3.654  0.2192  0.3687 -0.6009
24479TIP3    H274320  10.341   2.326   3.569 -0.4086 -0.5793  1.0438
24480TIP3   OH274321   5.652   6.918   1.933 -0.5119 -0.1108  0.5872
24480TIP3    H174322   5.730   6.915   1.989  0.1919  0.2765 -0.3251
24480TIP3    H274323   5.604   6.838   1.953  0.0151 -0.2442  1.3319
24481TIP3   OH274324   2.283  10.433   1.497 -0.2972 -0.2620  1.0182
24481TIP3    H174325   2.206  10.446   1.553 -0.3988 -0.8073  1.0141
24481TIP3    H274326   2.357  10.441   1.557 -0.2955  1.2822  0.8433
24482TIP3   OH274327   0.782   2.361   6.739 -0.7704  0.8753 -0.9005
24482TIP3    H174328   0.743   2.314   6.665 -0.1519  0.0985 -0.7494
24482TIP3    H274329   0.853   2.412   6.701 -2.0334  2.4849 -1.2146
24483TIP3   OH274330   2.303   4.004  10.269  0.6267  0.0898  0.1146
24483TIP3    H174331   2.268   3.918  10.242  0.7804 -0.2505  0.9539
24483TIP3    H274332   2.303   4.056  10.189 -0.3209 -0.4076 -0.2326
24484TIP3   OH274333   7.005   7.953   3.471  0.4403 -0.4939 -0.3828
24484TIP3    H174334   6.934   7.977   3.530  0.7154  1.4924 -0.7952
24484TIP3    H274335   6.961   7.929   3.389  0.1527 -1.7278  0.0985
24485TIP3   OH274336   4.854   8.301   2.931 -0.5029 -0.4951  0.5187
24485TIP3    H174337   4.837   8.224   2.875  0.7369 -1.1346  0.9941
24485TIP3    H274338   4.799   8.370   2.893  0.7404 -0.7168 -1.8887
24486TIP3   OH274339   6.719   7.697   7.414  0.1646  0.2564  0.3183
24486TIP3    H174340   6.692   7.655   7.332  0.5354  1.3206 -0.3790
24486TIP3    H274341   6.696   7.634   7.482  2.3727 -1.9261 -0.7681
24487TIP3   OH274342   2.809   1.751   6.497  0.0575 -0.2054 -0.6875
24487TIP3    H174343   2.857   1.695   6.558 -0.9720 -0.6963 -0.3078
24487TIP3    H274344   2.733   1.781   6.546  0.5027  1.4309 -0.9339
24488TIP3   OH274345   4.502   3.207   3.705 -0.3468  0.3464  0.4450
24488TIP3    H174346   4.524   3.177   3.618  2.3602 -0.1470  1.2212
24488TIP3    H274347   4.537   3.141   3.764 -0.5716  1.5111  1.9736
24489TIP3   OH274348   8.278   0.431   7.060  0.0505 -0.6037  0.2414
24489TIP3    H174349   8.201   0.399   7.012 -0.5065 -1.7944  1.8349
24489TIP3    H274350   8.322   0.351   7.090  1.5812  0.0778 -0.0998
24490TIP3   OH274351  10.389   8.841   9.466  0.1029 -0.8001 -0.4874
24490TIP3    H174352  10.338   8.762   9.445 -1.3984 -0.2620  0.9178
24490TIP3    H274353  10.350   8.874   9.547  0.9769  1.1612 -0.8043
24491TIP3   OH274354   0.578   0.472   8.598  0.0116 -0.5311 -0.3114
24491TIP3    H174355   0.634   0.529   8.546 -0.1484 -0.0833 -0.0118
24491TIP3    H274356   0.636   0.433   8.663  0.2950 -1.4440 -1.1000
24492TIP3   OH274357   7.599   0.332   5.146 -0.1087 -0.0565 -0.0880
24492TIP3    H174358   7.614   0.255   5.091  0.8964  0.9339 -1.2477
24492TIP3    H274359   7.617   0.302   5.235  0.0311 -1.2208 -0.4981
24493TIP3   OH274360   3.657   9.558   7.709  0.6368 -0.0651  0.1045
24493TIP3    H174361   3.691   9.597   7.790 -1.2754  0.6864  0.5850
24493TIP3    H274362   3.655   9.630   7.647 -0.2846 -0.0428  0.1543
24494TIP3   OH274363  10.904   6.958   5.106  0.0664  0.2443  0.8074
24494TIP3    H174364  10.830   6.937   5.162  0.4921 -0.4580  1.1172
24494TIP3    H274365  10.939   6.874   5.078 -0.0342  0.5799 -0.3958
24495TIP3   OH274366   1.788   2.251   0.794  0.9292 -0.8068  0.3775
24495TIP3    H174367   1.874   2.224   0.761  1.2748  2.3261 -1.8229
24495TIP3    H274368   1.729   2.238   0.719 -0.0261 -0.8908  1.1333
24496TIP3   OH274369   8.987   1.870   5.834 -0.5334 -0.0042  0.1289
24496TIP3    H174370   8.922   1.940   5.825  0.5167  0.8141 -1.5864
24496TIP3    H274371   8.938   1.789   5.820 -1.5842  0.4328  1.1488
24497TIP3   OH274372   4.091   1.739   7.729 -0.1930  0.2809 -0.5034
24497TIP3    H174373   4.125   1.760   7.642 -0.7217  2.1815 -0.3029
24497TIP3    H274374   4.070   1.825   7.768 -0.6242 -0.5611  1.2253
24498TIP3   OH274375   3.174   0.107   1.772  0.3253  0.1735  0.0093
24498TIP3    H174376   3.269   0.094   1.765  0.1468 -1.0693 -0.3864
24498TIP3    H274377   3.158   0.117   1.865  0.9951  1.7650 -0.0200
24499TIP3   OH274378   1.099   2.337   6.144  0.2269 -0.4703  0.1727
24499TIP3    H174379   1.108   2.389   6.224  1.9398  1.2554 -1.0393
24499TIP3    H274380   1.176   2.280   6.145 -0.0739 -0.8803  0.0372
24500TIP3   OH274381   8.518  10.237   5.590 -0.5909  0.5931  0.1802
24500TIP3    H174382   8.537  10.330   5.577 -1.7011  0.9086  0.6624
24500TIP3    H274383   8.597  10.202   5.632  0.2249  1.0875 -0.8968
24501TIP3   OH274384   8.292   9.880   0.791  0.4867  0.4136  0.4900
24501TIP3    H174385   8.314   9.828   0.869 -0.1902 -0.4703  0.1122
24501TIP3    H274386   8.264   9.815   0.726  1.0960  1.1251 -0.5222
24502TIP3   OH274387   3.743   3.155  10.285  0.1599  0.5039  0.2565
24502TIP3    H174388   3.804   3.160  10.212 -0.2128  2.5504  0.0145
24502TIP3    H274389   3.789   3.199  10.357 -0.4453  0.7671  0.4905
24503TIP3   OH274390   4.516   8.272   2.164  0.3118 -0.3144  0.5171
24503TIP3    H174391   4.577   8.253   2.093 -0.3070 -1.2827  0.2352
24503TIP3    H274392   4.511   8.368   2.167  1.4738 -0.2335  0.2345
24504TIP3   OH274393   7.608   5.564   6.043  0.1443 -0.6230  0.1828
24504TIP3    H174394   7.592   5.479   6.002  0.6490 -0.1810 -0.9807
24504TIP3    H274395   7.551   5.565   6.120  0.3111 -2.1074  0.3559
24505TIP3   OH274396   0.766   5.679   5.643  0.5092 -0.1652 -0.0959
24505TIP3    H174397   0.730   5.767   5.653 -0.0967 -0.3289 -0.6850
24505TIP3    H274398   0.707   5.637   5.580  1.6299 -0.5255 -0.9275
24506TIP3   OH274399   2.749   6.973   4.316  0.0455  0.2697  0.4633
24506TIP3    H174400   2.678   6.909   4.323 -1.1851  1.6274  0.6976
24506TIP3    H274401   2.788   6.975   4.403 -0.5699  0.5777  0.7351
24507TIP3   OH274402   4.424   2.877   3.970  0.2799 -0.6822 -0.1837
24507TIP3    H174403   4.498   2.817   3.982 -0.4447 -1.5791 -0.0405
24507TIP3    H274404   4.350   2.819   3.951 -0.7308  0.0651  1.3101
24508TIP3   OH274405   9.250   1.528   5.673  0.9089 -0.2917 -0.2809
24508TIP3    H174406   9.223   1.439   5.651  0.3384 -0.9952  2.7668
24508TIP3    H274407   9.342   1.533   5.647  1.3726 -2.3263  0.7638
24509TIP3   OH274408   9.279   6.570   5.816 -0.3926  0.5412 -0.3806
24509TIP3    H174409   9.215   6.635   5.787 -2.0380 -0.4372  0.8741
24509TIP3    H274410   9.350   6.622   5.856 -1.4677  1.5874  0.2273
24510TIP3   OH274411   8.836   4.980   8.207  0.2208  0.1297  0.2434
24510TIP3    H174412   8.794   4.940   8.283 -2.6001  0.0471 -1.2124
24510TIP3    H274413   8.781   4.955   8.133  0.6495  3.2601 -1.3320
24511TIP3   OH274414   7.364  10.034   2.470  0.6327 -0.4242 -0.0288
24511TIP3    H174415   7.405   9.999   2.549 -0.4331 -0.4596  0.5211
24511TIP3    H274416   7.286   9.979   2.456 -1.2346  1.7987  0.9942
24512TIP3   OH274417   4.646   0.864   4.244  0.7953 -0.2988 -0.0620
24512TIP3    H174418   4.710   0.898   4.306 -2.6565  0.5786  3.4679
24512TIP3    H274419   4.637   0.771   4.267  0.3759 -0.2618 -0.0579
24513TIP3   OH274420   8.367   6.195   3.106  0.4221  0.5212 -0.0281
24513TIP3    H174421   8.333   6.217   3.020  0.4364  0.9664  0.0776
24513TIP3    H274422   8.299   6.141   3.146 -0.2895  1.6097  0.2805
24514TIP3   OH274423   6.137   9.386   3.921 -0.3304 -0.0396 -0.3214
24514TIP3    H174424   6.110   9.470   3.884 -1.5002 -0.0208  0.5232
24514TIP3    H274425   6.230   9.398   3.943 -0.3505  0.8418 -0.6853
24515TIP3   OH274426  10.647  10.681   7.267 -0.1407 -0.2550 -0.3902
24515TIP3    H174427  10.588  10.666   7.193  0.2798  0.0799 -0.7982
24515TIP3    H274428  10.601  10.744   7.322  0.0934  0.4826 -1.0201
24516TIP3   OH274429  10.584   9.826   4.934 -0.4331 -0.2859  0.9931
24516TIP3    H174430  10.561   9.771   5.009 -0.1384  0.4675  1.6556
24516TIP3    H274431  10.680   9.828   4.933 -0.4252 -0.6686  0.3061
24517TIP3   OH274432   8.069   0.578   3.150 -0.2160 -0.1087 -0.4812
24517TIP3    H174433   8.100   0.652   3.099  0.0344  0.2920  0.2440
24517TIP3    H274434   8.146   0.522   3.162 -0.4176 -0.5265 -1.0776
24518TIP3   OH274435   7.167   6.005   0.310 -0.0462  0.0530 -0.0844
24518TIP3    H174436   7.188   6.090   0.349  1.0510 -0.1847 -0.1102
24518TIP3    H274437   7.073   6.007   0.297 -0.1345  0.9886  0.5755
24519TIP3   OH274438   2.530   0.362   9.720  0.6683 -0.2871  0.2561
24519TIP3    H174439   2.487   0.285   9.681 -0.6900  0.7303 -0.3538
24519TIP3    H274440   2.595   0.389   9.656  0.9773 -0.7758  0.3614
24520TIP3   OH274441   2.518   5.815   3.177  0.1313  0.1027  0.2446
24520TIP3    H174442   2.447   5.791   3.117 -0.6821 -0.3708  1.3509
24520TIP3    H274443   2.548   5.731   3.211  1.8206  0.2314 -0.8217
24521TIP3   OH274444   7.981   4.416   5.717  0.3098  0.1041  0.2688
24521TIP3    H174445   8.026   4.476   5.659 -0.8446  1.6725  0.9158
24521TIP3    H274446   7.925   4.472   5.771  2.6272 -0.9355  4.2298
24522TIP3   OH274447   0.270   2.264   2.296 -0.1381 -0.2871  0.0198
24522TIP3    H174448   0.212   2.284   2.223  0.2232  2.0978  0.2912
24522TIP3    H274449   0.213   2.257   2.372 -0.2590  0.5287  0.0217
24523TIP3   OH274450   6.431   6.599   0.637 -0.3033 -0.6239  0.2057
24523TIP3    H174451   6.353   6.637   0.677  0.7266  1.4754  0.3290
24523TIP3    H274452   6.449   6.654   0.561  0.0040 -2.2289 -0.9447
24524TIP3   OH274453   0.393   6.204   1.699 -0.0844 -0.9425  0.1167
24524TIP3    H174454   0.369   6.133   1.758 -0.6875 -1.8212 -1.1551
24524TIP3    H274455   0.327   6.272   1.715  0.0587 -0.9608  0.8038
24525TIP3   OH274456   7.721   5.495   5.509  0.9654 -0.3716 -0.2013
24525TIP3    H174457   7.775   5.566   5.544 -0.6216  0.8612 -0.1217
24525TIP3    H274458   7.779   5.448   5.449  1.7642  1.7380 -1.1817
24526TIP3   OH274459   5.664   3.919   6.686 -0.0136 -0.9514 -0.1866
24526TIP3    H174460   5.595   3.900   6.623 -0.4513 -0.3161  0.0941
24526TIP3    H274461   5.620   3.915   6.771  0.1543  0.0869 -0.0428
24527TIP3   OH274462   9.499   0.100  10.103 -0.3612 -0.0328  0.1794
24527TIP3    H174463   9.570   0.098  10.167 -1.7577  2.1466  1.9147
24527TIP3    H274464   9.514   0.180  10.053  0.1169 -1.1757 -1.6324
24528TIP3   OH274465   9.525   6.234   3.428  0.3593  0.7136  0.1317
24528TIP3    H174466   9.442   6.200   3.460  0.4101  0.7582  0.3153
24528TIP3    H274467   9.508   6.327   3.410  0.5757  0.9155  0.9284
24529TIP3   OH274468   6.907   5.185  10.695  0.7025 -0.4103 -0.1507
24529TIP3    H174469   6.929   5.137  10.616 -1.2927 -1.4947 -0.1098
24529TIP3    H274470   6.945   5.133  10.766  1.3185 -0.1678 -0.2964
24530TIP3   OH274471   1.220   6.426   6.707 -0.0879 -0.3184  0.3587
24530TIP3    H174472   1.296   6.368   6.710  0.9519  0.9443 -0.5492
24530TIP3    H274473   1.255   6.510   6.679 -1.9040  0.1794 -0.5715
24531TIP3   OH274474   0.711   8.005   9.773  0.3035  0.3962 -0.1940
24531TIP3    H174475   0.784   7.964   9.821 -0.7924 -1.8061 -0.2778
24531TIP3    H274476   0.683   8.076   9.830  1.1268 -0.0992  0.8838
24532TIP3   OH274477   9.986   6.749   4.466 -0.4695  0.4799  0.8720
24532TIP3    H174478  10.046   6.797   4.409 -0.0353  0.8098  1.5959
24532TIP3    H274479   9.953   6.678   4.411  2.1780 -1.0095  0.9933
24533TIP3   OH274480   9.281   4.067   6.496  0.1205  0.1607  0.1068
24533TIP3    H174481   9.278   3.981   6.454  2.0405 -0.2944  0.7922
24533TIP3    H274482   9.235   4.055   6.579 -0.0141 -0.0696 -0.0007
24534TIP3   OH274483   4.791   5.626   7.171 -0.6227  0.2795  0.2251
24534TIP3    H174484   4.785   5.666   7.258  0.3073 -1.9757  1.4052
24534TIP3    H274485   4.876   5.654   7.138 -0.4695  0.1857  0.5401
24535TIP3   OH274486   0.768   4.211   3.474 -0.3779 -0.2246  0.3630
24535TIP3    H174487   0.723   4.144   3.421  0.1391  0.6414 -1.2487
24535TIP3    H274488   0.802   4.163   3.550  2.6489 -2.5593 -2.1644
24536TIP3   OH274489   2.723   0.487   0.351  0.5071 -0.5579 -0.2232
24536TIP3    H174490   2.808   0.460   0.384  0.2449 -1.2083 -0.0718
24536TIP3    H274491   2.721   0.582   0.364  0.5094 -0.7549  1.4186
24537TIP3   OH274492   2.378   4.825   8.601  0.1685  0.2972  0.4485
24537TIP3    H174493   2.459   4.783   8.573 -0.3284 -0.3941  0.0025
24537TIP3    H274494   2.343   4.766   8.668  0.3107  0.8828  1.0439
24538TIP3   OH274495   9.288   9.722   3.691  0.2173  0.1486  0.2726
24538TIP3    H174496   9.294   9.755   3.601  1.0546 -0.5819  0.0507
24538TIP3    H274497   9.237   9.789   3.737  0.8845  1.1891 -0.4369
24539TIP3   OH274498   1.352   9.515  10.299 -0.2921 -0.5676 -0.0972
24539TIP3    H174499   1.428   9.458  10.283  0.0438 -0.3394  0.6167
24539TIP3    H274500   1.371   9.595  10.251  0.0142 -0.4452  0.2186
24540TIP3   OH274501   7.403   4.127   2.255 -0.2724  0.1489  0.0090
24540TIP3    H174502   7.374   4.035   2.253 -2.3115  0.7120  1.1634
24540TIP3    H274503   7.354   4.169   2.184 -0.1434  0.5437  0.1522
24541TIP3   OH274504   2.404   0.421   6.774 -0.1437  0.2772  0.1860
24541TIP3    H174505   2.333   0.358   6.767  0.7630 -0.9763  1.6806
24541TIP3    H274506   2.464   0.398   6.703  0.9525 -1.6664  1.6231
24542TIP3   OH274507   4.557   8.907   9.125 -0.1190 -0.0046  0.1261
24542TIP3    H174508   4.472   8.950   9.139  0.3715  0.8067  0.7547
24542TIP3    H274509   4.563   8.895   9.031 -1.0811 -0.3935  0.0997
24543TIP3   OH274510   6.807   0.228   8.640 -0.0003  0.2365 -0.3427
24543TIP3    H174511   6.869   0.161   8.670  1.3408  1.7081  0.2820
24543TIP3    H274512   6.837   0.251   8.552 -1.2074 -0.8212 -1.0648
24544TIP3   OH274513   3.857   3.100   6.330  0.1417  0.5342  0.5646
24544TIP3    H174514   3.784   3.162   6.339  0.1582  0.7696 -0.6977
24544TIP3    H274515   3.815   3.014   6.332  0.0546  0.5932  1.7477
24545TIP3   OH274516   6.398   7.959   3.885 -0.0049 -0.5168 -0.9514
24545TIP3    H174517   6.345   7.883   3.912  1.1884 -1.5096 -1.2861
24545TIP3    H274518   6.370   8.030   3.943 -0.4727 -1.4733  0.0393
24546TIP3   OH274519   3.587   7.184   6.132  0.0333  0.7658 -0.2091
24546TIP3    H174520   3.504   7.158   6.172  0.4321 -0.3566 -0.0741
24546TIP3    H274521   3.562   7.217   6.045 -0.5761  0.7352 -0.0533
24547TIP3   OH274522   2.999   5.594   6.152  0.0252  0.6667 -0.3796
24547TIP3    H174523   2.952   5.513   6.169  0.6830  0.0053 -1.6091
24547TIP3    H274524   3.083   5.567   6.116  1.0600  1.8461  1.0075
24548TIP3   OH274525   6.340   1.322   3.494  0.7555 -0.0725 -0.4426
24548TIP3    H174526   6.402   1.395   3.499  0.3181  0.3239 -0.7600
24548TIP3    H274527   6.262   1.359   3.453  1.1422 -1.1258 -2.2333
24549TIP3   OH274528   1.006   0.215   6.524  0.4856 -0.5443 -0.1377
24549TIP3    H174529   1.022   0.308   6.506  0.5915 -0.6543 -0.6299
24549TIP3    H274530   1.085   0.185   6.570  0.0598 -0.1723  0.8697
24550TIP3   OH274531   1.124   8.624   2.084  0.1495  0.1766 -0.2843
24550TIP3    H174532   1.157   8.551   2.032  0.5915  0.3717 -0.2822
24550TIP3    H274533   1.137   8.598   2.175  0.1865  0.2066 -0.2812
24551TIP3   OH274534   9.325   7.875   5.419 -0.0178 -0.2829  0.2328
24551TIP3    H174535   9.352   7.862   5.328 -1.5561 -0.5533 -0.2209
24551TIP3    H274536   9.277   7.957   5.418 -1.3407 -1.0280  0.4729
24552TIP3   OH274537   8.591  10.031   4.905  0.5566  0.5059 -0.5694
24552TIP3    H174538   8.579  10.040   4.811  0.4469 -2.0615 -0.8576
24552TIP3    H274539   8.684  10.012   4.916  0.3427 -0.4631 -0.3145
24553TIP3   OH274540   4.104   9.891   1.585 -0.0802 -0.1280  0.3067
24553TIP3    H174541   4.174   9.932   1.534 -0.3983  0.6532  0.4924
24553TIP3    H274542   4.104   9.799   1.556  1.2116 -0.2124  0.5162
24554TIP3   OH274543  10.144   3.150   5.227  0.3249  0.2676  0.2254
24554TIP3    H174544  10.239   3.154   5.237  0.1378  0.6469  2.3942
24554TIP3    H274545  10.112   3.132   5.315 -1.5605 -1.3838 -0.7194
24555TIP3   OH274546   0.846   8.960   0.442 -0.3177  0.0646  0.3703
24555TIP3    H174547   0.779   8.980   0.507  0.0780  2.0386  0.2352
24555TIP3    H274548   0.926   8.947   0.494 -0.5777 -1.3508  0.4597
24556TIP3   OH274549   5.487  10.705   9.070  0.1111 -0.5745 -0.5752
24556TIP3    H174550   5.403  10.674   9.105 -0.8401  1.0790 -1.2575
24556TIP3    H274551   5.551  10.644   9.105 -1.3386 -1.7323  0.2058
24557TIP3   OH274552   2.598   8.251   9.006 -0.4759 -0.1187  1.0102
24557TIP3    H174553   2.607   8.338   9.044  2.0571 -0.5654  1.6225
24557TIP3    H274554   2.591   8.266   8.911  2.3485  0.7714  0.8372
24558TIP3   OH274555   1.511   4.232   0.492  0.1079  0.1907 -0.1566
24558TIP3    H174556   1.555   4.270   0.416  1.9002  1.2330  1.3064
24558TIP3    H274557   1.549   4.144   0.499  2.0142  1.0256  1.0022
24559TIP3   OH274558   7.265   8.900  10.020  0.2358 -0.0910  0.4784
24559TIP3    H174559   7.175   8.902   9.987  0.1690  0.2046  0.6710
24559TIP3    H274560   7.295   8.811  10.004  0.6787  0.3902 -1.6001
24560TIP3   OH274561   7.734   5.464   6.815  0.0090 -0.0811 -0.2847
24560TIP3    H174562   7.674   5.498   6.881  0.5523 -0.1078  0.2312
24560TIP3    H274563   7.689   5.480   6.731  0.3068  2.0961 -0.1062
24561TIP3   OH274564   4.502   1.574   3.066  0.4627  0.2107  0.0021
24561TIP3    H174565   4.414   1.610   3.077  1.2562  2.1744  0.4419
24561TIP3    H274566   4.532   1.609   2.981  1.2974  0.7238  0.4893
24562TIP3   OH274567   2.121   6.899   2.887  0.3969  0.2374  0.2237
24562TIP3    H174568   2.150   6.902   2.978  1.2838 -1.5653  0.0408
24562TIP3    H274569   2.104   6.806   2.870 -0.2572  0.6058 -1.3003
24563TIP3   OH274570   5.124  10.782   3.485 -0.2816  0.1930  0.2293
24563TIP3    H174571   5.136  10.877   3.494  3.9464 -0.0751 -0.5696
24563TIP3    H274572   5.134  10.749   3.574 -0.8634  0.4130  0.3811
24564TIP3   OH274573   8.872   7.302   8.441 -0.0809 -0.0153  0.4372
24564TIP3    H174574   8.889   7.369   8.507  3.7808 -1.2517  0.9045
24564TIP3    H274575   8.815   7.239   8.486 -0.0816  0.7206  1.5188
24565TIP3   OH274576   0.090   8.252   3.477 -0.5883  0.2932  0.2119
24565TIP3    H174577   0.020   8.187   3.468 -0.2511 -0.1639  0.8197
24565TIP3    H274578   0.162   8.204   3.517  0.2159  0.6597 -0.7412
24566TIP3   OH274579   6.583   2.933   5.360  0.3096  0.7433  0.2316
24566TIP3    H174580   6.552   3.017   5.395 -2.0193  0.6934 -1.5049
24566TIP3    H274581   6.625   2.955   5.277 -0.7954  0.1890 -0.5016
24567TIP3   OH274582   1.769   2.340   2.107 -0.4927 -0.5773  0.1279
24567TIP3    H174583   1.733   2.428   2.102  0.0631 -0.1576  2.5960
24567TIP3    H274584   1.851   2.350   2.155 -0.6652 -2.5170  0.9115
24568TIP3   OH274585   8.130  10.485   0.770  0.2955  0.2519  0.3261
24568TIP3    H174586   8.210  10.448   0.808  1.0556 -0.6387 -1.9887
24568TIP3    H274587   8.089  10.411   0.725 -1.8335  0.7171  1.3946
24569TIP3   OH274588   0.912   6.851   3.163  0.0904 -0.0156 -0.2739
24569TIP3    H174589   0.906   6.943   3.191 -1.2341  0.7590 -2.7865
24569TIP3    H274590   1.005   6.838   3.146  0.3913  0.6381  0.7424
24570TIP3   OH274591   1.419   4.638   4.637  0.1540  0.1539  0.4330
24570TIP3    H174592   1.485   4.572   4.656  0.1825  0.6122  2.1143
24570TIP3    H274593   1.433   4.706   4.703 -1.4568  0.6663  0.2952
24571TIP3   OH274594   1.319   5.188   0.907  0.3605  0.0819  0.0831
24571TIP3    H174595   1.267   5.108   0.905  0.9903 -0.3250 -0.3530
24571TIP3    H274596   1.395   5.166   0.962 -0.4486  1.0139  1.6740
24572TIP3   OH274597   4.203   0.468   2.800  0.6273 -0.1992 -0.1456
24572TIP3    H174598   4.283   0.425   2.831  0.2892  0.1889  1.3115
24572TIP3    H274599   4.151   0.483   2.879  0.4760  2.3896 -0.6565
24573TIP3   OH274600   8.871   1.615   4.832 -0.1483  0.0423  0.0556
24573TIP3    H174601   8.782   1.579   4.831 -0.3067  0.4306 -0.5501
24573TIP3    H274602   8.858   1.710   4.826  0.2514  0.2479  1.8890
24574TIP3   OH274603   0.026   8.137   9.419  0.4524  0.5866  0.2034
24574TIP3    H174604   0.012   8.062   9.477 -0.2713  0.0342 -0.6357
24574TIP3    H274605  -0.050   8.193   9.434 -0.0370  0.1595 -0.5958
24575TIP3   OH274606   0.104   1.556   8.608 -0.1820  0.5204  0.6691
24575TIP3    H174607   0.138   1.602   8.532 -2.3104  2.2107  0.6609
24575TIP3    H274608   0.068   1.474   8.574 -0.5206  0.9681 -0.0598
24576TIP3   OH274609   6.167   5.526   6.077 -0.2235 -0.1076  0.2990
24576TIP3    H174610   6.127   5.581   6.010 -0.6596 -0.2635  0.4258
24576TIP3    H274611   6.260   5.524   6.054 -0.0931  1.1802  0.6491
24577TIP3   OH274612   5.701   2.742   4.935  0.2749 -0.6486 -0.0656
24577TIP3    H174613   5.643   2.800   4.887  0.2642 -1.4685 -1.0806
24577TIP3    H274614   5.648   2.665   4.954  1.0820 -1.5364 -1.2767
24578TIP3   OH274615   3.972  10.019   9.314  0.1484  0.2173  0.7279
24578TIP3    H174616   3.997   9.945   9.370 -0.2291  0.5033  1.2853
24578TIP3    H274617   3.876  10.017   9.314  0.1269  1.0337  1.1910
24579TIP3   OH274618   9.736   7.906   1.093 -0.0421  0.1077  1.1170
24579TIP3    H174619   9.826   7.888   1.067  0.0085  0.1190  1.2770
24579TIP3    H274620   9.703   7.965   1.025  0.2822  0.6273  1.3953
24580TIP3   OH274621   9.805   1.026   3.452 -0.3363  0.1673 -0.2391
24580TIP3    H174622   9.806   1.092   3.522  1.7166  0.1948 -0.2356
24580TIP3    H274623   9.842   1.071   3.376  0.4947 -0.7772 -0.4133
24581TIP3   OH274624   5.121   4.443   7.341  0.2203 -0.1398 -0.4759
24581TIP3    H174625   5.152   4.373   7.399  1.0063 -0.9976 -1.8848
24581TIP3    H274626   5.057   4.490   7.394  0.1006 -1.5539  0.7235
24582TIP3   OH274627   1.390   8.800   6.654  0.2845 -0.3583  0.2939
24582TIP3    H174628   1.307   8.807   6.701 -0.1484 -0.6349 -0.4127
24582TIP3    H274629   1.365   8.789   6.562  0.9350 -3.7896  0.3618
24583TIP3   OH274630   8.529   0.468   6.776 -0.0352  0.2123 -0.1021
24583TIP3    H174631   8.591   0.525   6.732  0.2043  1.8211  2.1585
24583TIP3    H274632   8.523   0.391   6.720  2.3030  0.9538 -1.4835
24584TIP3   OH274633   5.695   8.312   5.055 -0.1532  0.3357 -0.1755
24584TIP3    H174634   5.631   8.272   5.114 -0.2145 -1.4724 -1.3825
24584TIP3    H274635   5.731   8.385   5.104  0.8734 -1.9410  2.6902
24585TIP3   OH274636   2.606   5.678   8.699 -0.0573 -0.1987 -0.0379
24585TIP3    H174637   2.579   5.751   8.755  0.6722 -0.0950  0.1936
24585TIP3    H274638   2.578   5.704   8.612 -0.6662 -0.0827  0.1860
24586TIP3   OH274639   1.249   8.827   0.724  0.2810 -0.4561  0.3778
24586TIP3    H174640   1.307   8.887   0.678 -1.0268  0.4072 -0.2117
24586TIP3    H274641   1.291   8.742   0.716  1.2201  0.0655 -0.4241
24587TIP3   OH274642   9.958   9.440   5.565 -0.3987 -0.1644  0.0026
24587TIP3    H174643   9.914   9.449   5.480  0.0774 -0.0565 -0.2359
24587TIP3    H274644  10.051   9.435   5.543 -0.2007  0.8360  0.5802
24588TIP3   OH274645   0.440   8.732   1.490 -0.5729 -0.1843 -0.2919
24588TIP3    H174646   0.526   8.690   1.496 -0.0844  0.3550 -2.4993
24588TIP3    H274647   0.458   8.816   1.448 -1.9218  0.9079  1.2279
24589TIP3   OH274648   8.928   8.982   1.582 -0.3243 -0.1332  0.1194
24589TIP3    H174649   8.887   8.950   1.501 -1.2809  1.4163 -0.0462
24589TIP3    H274650   8.857   9.028   1.627  0.5342  0.1096  1.2424
24590TIP3   OH274651  10.441   1.496   1.274  0.4067  0.6465  0.7676
24590TIP3    H174652  10.481   1.473   1.190 -1.1438  0.1984  0.1209
24590TIP3    H274653  10.506   1.552   1.316  1.3251  0.6916 -0.6247
24591TIP3   OH274654   3.675   1.925   7.841 -0.1544  0.4066 -0.2419
24591TIP3    H174655   3.628   1.916   7.924 -2.0164  1.5180 -1.1057
24591TIP3    H274656   3.606   1.937   7.775  1.3263  2.4643 -1.5530
24592TIP3   OH274657  10.123   7.081   3.129 -0.5456 -0.1529 -0.0462
24592TIP3    H174658  10.080   7.146   3.185 -0.0353 -1.0481  1.4289
24592TIP3    H274659  10.217   7.095   3.145 -0.3617  0.0705 -1.2634
24593TIP3   OH274660   6.059   8.027  10.599 -0.0817 -0.0912 -0.3478
24593TIP3    H174661   5.979   7.988  10.634 -1.3950  1.9010 -0.9440
24593TIP3    H274662   6.127   7.999  10.660 -1.5815 -0.1876  1.3878
24594TIP3   OH274663   3.252   2.179   8.842 -0.3835  0.6040 -0.4603
24594TIP3    H174664   3.199   2.240   8.790  1.2604  1.8269 -0.7910
24594TIP3    H274665   3.236   2.205   8.933 -0.5153  0.8173 -0.5435
24595TIP3   OH274666   9.996   1.060   5.673 -0.1860  0.0785 -0.7317
24595TIP3    H174667   9.990   1.153   5.696 -2.1774 -0.0824 -0.3783
24595TIP3    H274668   9.943   1.051   5.594 -1.0617 -0.9445 -0.0579
24596TIP3   OH274669   5.497  10.529   3.934 -0.4473 -0.7524 -0.1929
24596TIP3    H174670   5.495  10.433   3.936  0.0198 -0.7831 -0.9416
24596TIP3    H274671   5.543  10.554   4.015 -0.5996 -1.1540  0.0203
24597TIP3   OH274672   4.293   5.613   2.991 -0.1065  0.0457 -0.0438
24597TIP3    H174673   4.248   5.586   2.912  1.6736 -0.1800 -1.0218
24597TIP3    H274674   4.386   5.603   2.971  0.4182  0.8547  1.7569
24598TIP3   OH274675   9.465   8.212   5.265  0.3908  0.1697  0.0038
24598TIP3    H174676   9.397   8.228   5.330 -2.7609 -2.2347 -2.3608
24598TIP3    H274677   9.434   8.255   5.186  2.1266 -0.2366 -0.9655
24599TIP3   OH274678   9.046   9.126   0.208 -0.2104  0.5112  0.0364
24599TIP3    H174679   9.101   9.066   0.260 -1.4498 -0.1422  0.6536
24599TIP3    H274680   8.960   9.083   0.206 -0.8323  1.7410 -0.4699
24600TIP3   OH274681   6.085   3.105   1.588  0.1937 -0.7588 -0.2958
24600TIP3    H174682   6.092   3.017   1.551  2.2131 -0.6479 -0.2374
24600TIP3    H274683   6.112   3.163   1.518  2.0225 -0.4232  0.6210
24601TIP3   OH274684   9.037   9.224   8.880 -0.5474  0.5260  0.4125
24601TIP3    H174685   9.015   9.310   8.844 -1.7774  0.1004  0.0816
24601TIP3    H274686   9.121   9.237   8.924  0.0040  1.5431 -0.8770
24602TIP3   OH274687   4.982  10.304   4.764 -0.1066 -0.1150 -0.1698
24602TIP3    H174688   4.944  10.307   4.852  0.2920 -0.6770  0.0333
24602TIP3    H274689   5.050  10.236   4.770  0.3123  0.2433 -0.7601
24603TIP3   OH274690   7.655   4.632   5.043 -0.0880  0.1245  0.0950
24603TIP3    H174691   7.701   4.590   5.115 -1.0289 -1.8330 -0.3728
24603TIP3    H274692   7.716   4.698   5.011  0.6187  0.5928  2.2246
24604TIP3   OH274693   7.809   8.381   5.192  0.7430 -0.9077 -0.0825
24604TIP3    H174694   7.832   8.351   5.104 -0.5997 -0.9734 -0.4326
24604TIP3    H274695   7.771   8.305   5.235 -0.5380 -0.3514 -0.1815
24605TIP3   OH274696   3.498   7.584   4.411  0.0245 -0.1997  0.4981
24605TIP3    H174697   3.567   7.615   4.469 -1.6999 -0.6562  2.9552
24605TIP3    H274698   3.537   7.511   4.363  1.6702  0.5277  0.6710
24606TIP3   OH274699   1.878   7.981   5.016 -0.2127 -0.5278  0.4544
24606TIP3    H174700   1.903   8.066   5.053 -1.2946  0.5823 -1.1767
24606TIP3    H274701   1.879   7.921   5.090 -0.4641  1.1475  1.8944
24607TIP3   OH274702   3.920   1.957   5.450  0.3875 -0.1042 -0.2313
24607TIP3    H174703   3.903   1.864   5.467 -1.8501  0.2810 -0.1029
24607TIP3    H274704   3.886   1.972   5.362  0.1905  0.7177 -0.0200
24608TIP3   OH274705   3.594   1.506   8.584 -0.1204 -0.2835 -0.2720
24608TIP3    H174706   3.639   1.430   8.547  1.0389  0.7093 -0.9301
24608TIP3    H274707   3.558   1.552   8.508 -1.0322 -0.2740  0.1455
24609TIP3   OH274708   1.600   0.816   0.552  0.5259 -0.1883  0.4144
24609TIP3    H174709   1.551   0.763   0.489 -0.0022 -0.3161  0.9265
24609TIP3    H274710   1.575   0.906   0.533  1.7423 -0.0632 -0.7328
24610TIP3   OH274711   9.365  10.129   5.164  0.1012  0.0567 -0.0610
24610TIP3    H174712   9.423  10.175   5.103 -1.6683  0.2011 -1.7635
24610TIP3    H274713   9.366  10.183   5.243  1.2603  0.7556 -0.5221
24611TIP3   OH274714   1.820   7.363   4.180 -0.0217 -0.2013  0.5071
24611TIP3    H174715   1.779   7.277   4.176 -1.0367  0.2758  0.4337
24611TIP3    H274716   1.914   7.345   4.176 -0.2376 -1.2691 -0.0221
24612TIP3   OH274717   4.229   6.899   7.656  0.9458 -0.1530 -0.0972
24612TIP3    H174718   4.224   6.957   7.580  1.1224  0.2432  0.1844
24612TIP3    H274719   4.319   6.909   7.687  0.8931 -0.3592  0.1248
24613TIP3   OH274720   4.658   0.887   0.343  0.2942 -0.0069  0.1594
24613TIP3    H174721   4.648   0.942   0.265  3.4468 -0.9458 -1.0484
24613TIP3    H274722   4.611   0.934   0.412  0.5888  2.8244 -1.4327
24614TIP3   OH274723   2.685   2.502   2.800 -0.2685 -0.4352  0.1284
24614TIP3    H174724   2.771   2.464   2.781 -0.0125 -0.6529  1.6157
24614TIP3    H274725   2.699   2.552   2.881 -1.6167 -0.7202  0.5455
24615TIP3   OH274726   9.849  10.657   9.905 -0.0814 -0.2970  0.1084
24615TIP3    H174727   9.849  10.752   9.893 -1.7204 -0.2064  0.6337
24615TIP3    H274728   9.941  10.635   9.918  0.4927  1.0241 -1.3321
24616TIP3   OH274729   1.253   7.269   6.957 -0.5425  0.3949  0.3337
24616TIP3    H174730   1.262   7.272   6.862 -0.9444  0.2857  0.2926
24616TIP3    H274731   1.315   7.201   6.985 -1.1063 -0.2346  0.0631
24617TIP3   OH274732   6.094   3.882   0.292 -0.0305  0.1146 -0.2747
24617TIP3    H174733   6.119   3.930   0.213 -0.2980  0.9587  0.1483
24617TIP3    H274734   6.084   3.791   0.262 -0.2284  0.4373 -1.2332
24618TIP3   OH274735   2.683   0.431   9.514  0.5238  0.3338 -0.1866
24618TIP3    H174736   2.691   0.502   9.450 -2.1701  0.5107 -0.4566
24618TIP3    H274737   2.697   0.352   9.462 -1.1349  0.5023 -0.9790
24619TIP3   OH274738   2.372   2.373   4.535 -1.1486  0.2694 -0.1400
24619TIP3    H174739   2.425   2.446   4.505  0.8417 -0.2718  1.8461
24619TIP3    H274740   2.298   2.413   4.581 -0.9545  1.0272 -0.4877
24620TIP3   OH274741   6.003  10.556   7.642  0.3824  0.5375  0.3698
24620TIP3    H174742   5.962  10.624   7.589 -1.5315  0.2130  1.3109
24620TIP3    H274743   5.929  10.510   7.683  1.7101 -0.1107  2.2046
24621TIP3   OH274744   0.669   1.299   4.286  0.3454  0.3064  0.2213
24621TIP3    H174745   0.689   1.391   4.266  1.9776 -0.3570 -1.5353
24621TIP3    H274746   0.574   1.294   4.283  0.1990  2.0438  0.8938
24622TIP3   OH274747   4.515   9.869   9.617 -0.4069  0.1962  0.1906
24622TIP3    H174748   4.478   9.834   9.536  1.3200  0.9285 -0.9849
24622TIP3    H274749   4.499   9.963   9.612  1.1757  0.4778 -0.1568
24623TIP3   OH274750   4.977   8.873  10.184  0.5768 -0.6479 -0.1984
24623TIP3    H174751   4.916   8.863  10.111  1.3678 -2.5651 -0.6663
24623TIP3    H274752   4.966   8.793  10.236 -0.7956  1.1372  2.5200
24624TIP3   OH274753   8.240   3.726   4.271 -0.1169  0.3311  0.1194
24624TIP3    H174754   8.286   3.787   4.329  0.0914 -0.3863  0.7197
24624TIP3    H274755   8.229   3.775   4.189 -0.4359  1.3736  0.7591
24625TIP3   OH274756   1.630   7.799   5.220 -0.9176 -0.5933  0.2545
24625TIP3    H174757   1.680   7.799   5.139  0.2342  0.0734  0.9353
24625TIP3    H274758   1.668   7.728   5.272 -1.0720 -0.4663  0.5433
24626TIP3   OH274759   7.562  10.531   8.084  1.1663  0.7985 -0.0820
24626TIP3    H174760   7.511  10.501   8.009  0.6608  1.5400 -0.0396
24626TIP3    H274761   7.644  10.563   8.047  1.7202 -0.6021 -0.1293
24627TIP3   OH274762   3.565   9.795  10.156 -0.4776  0.1575  0.1759
24627TIP3    H174763   3.653   9.824  10.132  0.9893 -1.5635  2.9237
24627TIP3    H274764   3.543   9.845  10.234 -1.5730 -0.0516  0.0174
24628TIP3   OH274765   9.962   9.185   8.644 -0.7161 -0.4573  0.2121
24628TIP3    H174766   9.897   9.231   8.591  0.4410 -1.9232 -2.7225
24628TIP3    H274767   9.992   9.114   8.588  3.6517  0.2987  1.2264
24629TIP3   OH274768   2.446   8.440   6.065  0.1164 -0.2310 -0.2444
24629TIP3    H174769   2.523   8.495   6.052  0.0825 -0.0943  0.1403
24629TIP3    H274770   2.433   8.397   5.980  0.0731  0.4332 -0.5817
24630TIP3   OH274771   4.412   2.908   9.385 -0.3078  0.2864  0.6878
24630TIP3    H174772   4.393   2.909   9.291 -0.5996  2.4032  0.7243
24630TIP3    H274773   4.501   2.944   9.392 -0.6292  0.9845  1.2699
24631TIP3   OH274774   0.153   1.507   2.768  0.3577  0.1481  0.1845
24631TIP3    H174775   0.233   1.469   2.731  0.2098  0.0173 -0.0055
24631TIP3    H274776   0.144   1.592   2.724 -0.0307 -0.1756 -0.3831
24632TIP3   OH274777   7.155   4.438   6.416 -0.0604 -0.4572  0.6033
24632TIP3    H174778   7.167   4.527   6.448 -0.8802  1.1986 -3.1350
24632TIP3    H274779   7.068   4.412   6.446  0.5458 -0.4598  2.4902
24633TIP3   OH274780   9.685   7.486   3.011 -0.0720 -0.1072 -0.4833
24633TIP3    H174781   9.678   7.579   2.991  1.5541 -0.1550 -1.4990
24633TIP3    H274782   9.717   7.483   3.102 -3.2493  0.2002  0.7577
24634TIP3   OH274783  10.551   4.086   9.862  0.4950 -0.4257 -0.6844
24634TIP3    H174784  10.549   4.171   9.817  0.4298  1.0567  1.8765
24634TIP3    H274785  10.617   4.098   9.930 -1.0194 -1.6832  1.0921
24635TIP3   OH274786   3.807   3.951   4.242  0.4031 -0.6530  0.5185
24635TIP3    H174787   3.883   3.908   4.282  0.3703 -0.7932  0.4339
24635TIP3    H274788   3.844   4.008   4.175  0.5361  0.4366  1.4888
24636TIP3   OH274789   8.654   2.907   4.574  0.6230 -0.3129  0.6659
24636TIP3    H174790   8.709   2.835   4.602  0.2757 -0.7292  0.2934
24636TIP3    H274791   8.708   2.985   4.586  1.3880 -0.7412  0.0512
24637TIP3   OH274792   1.101   4.907   4.149 -0.2982  0.3036  0.4042
24637TIP3    H174793   1.119   4.819   4.179 -0.8640 -0.9156 -2.4443
24637TIP3    H274794   1.006   4.918   4.158 -0.2308  0.6127  0.7485
24638TIP3   OH274795   3.359   6.376   7.103 -0.8025  0.3937  0.3090
24638TIP3    H174796   3.268   6.346   7.102 -0.8109  0.3246  1.7131
24638TIP3    H274797   3.399   6.330   7.029 -1.3634 -1.3811  1.0411
24639TIP3   OH274798   9.429   2.041   2.059  0.3425 -0.2332  0.0861
24639TIP3    H174799   9.356   2.024   2.117  0.6275 -0.2449  0.4431
24639TIP3    H274800   9.481   1.960   2.060 -0.0119 -0.4859 -0.7186
24640TIP3   OH274801   7.427   6.231   3.925 -0.0214  0.3037  0.6500
24640TIP3    H174802   7.382   6.211   4.007 -2.3778 -0.4330 -0.7300
24640TIP3    H274803   7.450   6.145   3.890 -0.5519  0.5090 -0.2268
24641TIP3   OH274804   5.052   3.187   9.222  0.5950  0.1875  0.0765
24641TIP3    H174805   4.966   3.154   9.247  0.4868  0.5641  0.2038
24641TIP3    H274806   5.085   3.123   9.159 -0.0714  0.4132 -0.5083
24642TIP3   OH274807   0.171   1.651   9.342 -0.0807  0.1514  0.3483
24642TIP3    H174808   0.082   1.654   9.306 -0.3435 -0.7190  0.8928
24642TIP3    H274809   0.218   1.591   9.285  0.8922  2.4553 -1.4362
24643TIP3   OH274810   1.755   5.004   4.035 -0.5833 -0.0012  0.3568
24643TIP3    H174811   1.740   4.910   4.023 -0.7838 -0.0363  0.8235
24643TIP3    H274812   1.722   5.021   4.124  1.7466  0.0306  1.2662
24644TIP3   OH274813   5.560   7.564   8.832 -0.1426 -0.2739  0.5814
24644TIP3    H174814   5.521   7.629   8.773  0.6588  0.8762  1.2543
24644TIP3    H274815   5.587   7.492   8.774 -1.2083 -0.0916 -0.1648
24645TIP3   OH274816   8.968   7.828  10.501 -0.3727  0.4332 -0.5039
24645TIP3    H174817   9.037   7.889  10.526  0.7476 -1.1184  0.4462
24645TIP3    H274818   8.983   7.810  10.409 -0.1750  0.9110 -0.5657
24646TIP3   OH274819   3.846   8.052   7.644 -0.5895  0.0784 -0.2789
24646TIP3    H174820   3.903   8.111   7.594 -0.5346  0.0899 -0.2031
24646TIP3    H274821   3.777   8.028   7.582 -0.1934 -0.3782 -0.5436
24647TIP3   OH274822   4.026  10.397  10.462 -0.2625  0.2902 -1.0802
24647TIP3    H174823   4.093  10.463  10.443 -0.3939  1.1085  1.0096
24647TIP3    H274824   3.946  10.448  10.474 -0.2729 -0.1636  1.0220
24648TIP3   OH274825   7.590   7.080   7.538  0.2143  0.0955  0.0099
24648TIP3    H174826   7.613   7.172   7.550 -0.2580  0.2259 -0.0625
24648TIP3    H274827   7.497   7.076   7.560  0.9516 -1.0201  3.5611
24649TIP3   OH274828   2.619   1.673   4.575  0.2625 -0.1685  0.0344
24649TIP3    H174829   2.590   1.649   4.663 -2.6076  0.5131 -0.6207
24649TIP3    H274830   2.674   1.750   4.588 -2.2474  1.5811  1.1493
24650TIP3   OH274831   4.017   5.777   0.433  0.5389  0.2076 -0.1888
24650TIP3    H174832   4.108   5.776   0.403  0.4166  0.4737 -0.5685
24650TIP3    H274833   3.975   5.706   0.385  0.2812  0.7990 -0.8528
24651TIP3   OH274834   1.669   1.084   0.804  0.3743  0.0800 -0.7150
24651TIP3    H174835   1.710   1.049   0.883  2.0062  0.6823 -1.2564
24651TIP3    H274836   1.604   1.147   0.836  0.0255 -0.7021  0.1529
24652TIP3   OH274837   0.086  10.874   9.032  0.3320 -0.2733  0.3907
24652TIP3    H174838   0.004  10.891   8.986  0.4922  2.1612  0.8753
24652TIP3    H274839   0.124  10.961   9.047  2.8584 -1.2942  0.4779
24653TIP3   OH274840   5.470   8.998   1.700  0.4139  0.1448 -0.8009
24653TIP3    H174841   5.494   9.091   1.693  0.5725  0.2299  0.6737
24653TIP3    H274842   5.541   8.959   1.750 -1.0785 -0.1709  1.1721
24654TIP3   OH274843   3.094   5.884   9.468 -0.1349 -0.3217 -0.2486
24654TIP3    H174844   3.013   5.849   9.430 -0.2227  0.7430 -1.0994
24654TIP3    H274845   3.087   5.978   9.456  1.7531 -0.2676 -1.4691
24655TIP3   OH274846   2.946   0.558   9.375 -0.0016  0.1160 -0.3350
24655TIP3    H174847   3.032   0.599   9.364  0.9008 -0.7713  2.4656
24655TIP3    H274848   2.958   0.468   9.344  0.8349 -0.6568  1.9571
24656TIP3   OH274849   8.248   4.905   5.237 -0.3756 -0.2292  0.2575
24656TIP3    H174850   8.286   4.871   5.156 -2.2907 -0.5254 -0.5639
24656TIP3    H274851   8.268   4.837   5.302  0.1605 -0.5494 -0.2268
24657TIP3   OH274852   6.301   9.666   4.516 -0.2754  0.1750  0.6835
24657TIP3    H174853   6.248   9.686   4.593 -0.6144  0.8976  0.2764
24657TIP3    H274854   6.305   9.749   4.468 -1.1065 -0.5670 -0.7071
24658TIP3   OH274855   0.410   5.505   4.507 -0.1097 -0.4205  0.0588
24658TIP3    H174856   0.338   5.558   4.472  0.3496 -0.2709 -0.6642
24658TIP3    H274857   0.372   5.418   4.520 -0.5601 -0.2091  0.1845
24659TIP3   OH274858   4.258   8.552   0.003 -0.6639  0.2817 -0.5010
24659TIP3    H174859   4.337   8.598  -0.026 -0.5673  0.5942  0.2119
24659TIP3    H274860   4.269   8.545   0.098  0.0541 -2.6011 -0.6912
24660TIP3   OH274861   1.265   6.386   0.392  0.1327 -0.4301 -0.2890
24660TIP3    H174862   1.330   6.403   0.460  1.9401  1.6555 -2.4037
24660TIP3    H274863   1.201   6.329   0.435  2.3313 -1.0548  2.4515
24661TIP3   OH274864   4.884   3.723   3.583  0.2363 -0.1591  0.1099
24661TIP3    H174865   4.856   3.647   3.531 -0.2304  0.4560 -0.5566
24661TIP3    H274866   4.935   3.685   3.654  1.9316 -0.9763 -1.4500
24662TIP3   OH274867   3.619   8.395   3.864  0.8355 -0.3652 -0.2532
24662TIP3    H174868   3.597   8.378   3.956  2.8520 -2.6424 -0.0970
24662TIP3    H274869   3.539   8.432   3.827 -0.1217  0.3922  2.3443
24663TIP3   OH274870   7.261   8.708  10.310 -0.1035 -0.0199 -0.2536
24663TIP3    H174871   7.266   8.667  10.223  1.6451  0.1372 -0.2782
24663TIP3    H274872   7.199   8.780  10.299  0.7017  0.5251 -1.6467
24664TIP3   OH274873   8.413   5.302   8.875  0.0865 -0.0558  0.0357
24664TIP3    H174874   8.362   5.222   8.866 -0.0640  0.0650 -0.1902
24664TIP3    H274875   8.348   5.370   8.892  0.2913 -0.1467  1.3016
24665TIP3   OH274876   2.268   4.608   8.740 -0.5117 -0.0971  0.1382
24665TIP3    H174877   2.276   4.526   8.692 -1.6416 -0.7136  0.9381
24665TIP3    H274878   2.232   4.582   8.825 -0.4760  1.1813  0.5595
24666TIP3   OH274879   8.956   2.683   4.044  0.7948  0.7242 -0.6588
24666TIP3    H174880   8.877   2.704   4.094  0.3585 -0.0478 -0.9934
24666TIP3    H274881   8.992   2.606   4.087 -0.9468 -1.5268 -2.8618
24667TIP3   OH274882   0.530   6.916   6.780  0.0958 -0.1582  0.3251
24667TIP3    H174883   0.551   6.826   6.757 -1.9312 -0.6725  0.3215
24667TIP3    H274884   0.502   6.956   6.697  1.1050  0.5477  0.2972
24668TIP3   OH274885   5.664  10.142   4.758  0.0633 -0.0669  0.0738
24668TIP3    H174886   5.653  10.078   4.688 -1.1459  0.9575 -0.7214
24668TIP3    H274887   5.614  10.218   4.729 -0.2921  0.4745  1.9734
24669TIP3   OH274888  10.122   9.575   1.302  0.8565 -0.1355 -0.0541
24669TIP3    H174889  10.058   9.646   1.307 -1.5678 -2.2290  0.6355
24669TIP3    H274890  10.100   9.528   1.221  0.6390 -1.6276  0.8349
24670TIP3   OH274891   3.787   1.853   4.251 -0.0264 -0.5264  0.6026
24670TIP3    H174892   3.720   1.786   4.266  0.9570 -1.6951 -0.0108
24670TIP3    H274893   3.764   1.890   4.165  0.1436 -0.9718  0.3616
24671TIP3   OH274894   8.406   3.898   2.443 -0.0231  0.2102  0.0425
24671TIP3    H174895   8.377   3.965   2.505 -0.2583 -0.3178  0.5113
24671TIP3    H274896   8.342   3.902   2.371 -0.3967  0.0635  0.3654
24672TIP3   OH274897   2.399   8.832   3.808 -0.3437 -0.3818 -0.0635
24672TIP3    H174898   2.338   8.882   3.862 -1.0186 -0.9656 -0.2726
24672TIP3    H274899   2.384   8.741   3.833  2.2216 -0.4145  1.7306
24673TIP3   OH274900   9.149   3.680   7.159  0.3998 -0.7417 -0.6954
24673TIP3    H174901   9.069   3.645   7.198  0.3318 -0.9311 -1.0044
24673TIP3    H274902   9.122   3.715   7.074 -0.1538  2.8394  0.7701
24674TIP3   OH274903  10.509   1.727   2.489  0.1541  0.2530  0.2394
24674TIP3    H174904  10.589   1.690   2.528  0.8735  0.7155 -0.7436
24674TIP3    H274905  10.453   1.652   2.472  0.8251 -0.1941 -0.0219
24675TIP3   OH274906   4.473   6.657   2.123  0.4884  0.7564  0.6556
24675TIP3    H174907   4.519   6.722   2.176  1.2736  0.2471  0.6126
24675TIP3    H274908   4.489   6.684   2.032  2.5952 -0.6015  0.5352
24676TIP3   OH274909   3.920   5.357   1.074  0.2154 -0.3363  0.0270
24676TIP3    H174910   3.892   5.274   1.035 -0.8620 -0.7181  1.4983
24676TIP3    H274911   3.975   5.398   1.007 -0.6236 -1.4409 -1.3962
24677TIP3   OH274912   1.672  10.314   6.018  0.4605  0.2648  0.4273
24677TIP3    H174913   1.627  10.363   5.950 -1.3140 -0.6383  0.8950
24677TIP3    H274914   1.716  10.243   5.971 -0.2687 -0.0124  0.1505
24678TIP3   OH274915   0.111   6.778   0.565  0.0237  0.1540  0.2215
24678TIP3    H174916   0.148   6.755   0.650  0.2854  0.9257  0.3314
24678TIP3    H274917   0.185   6.813   0.515  0.1299 -1.3923 -0.7619
24679TIP3   OH274918   4.483   9.565   3.818 -0.1933 -0.4243  1.0614
24679TIP3    H174919   4.576   9.549   3.807 -0.4318 -1.1638  0.0372
24679TIP3    H274920   4.462   9.633   3.753 -0.2623  0.1929  1.7091
24680TIP3   OH274921   3.212   7.047  10.849  0.2242 -0.1386  0.0053
24680TIP3    H174922   3.144   7.028  10.785  0.7840 -0.4516 -0.5026
24680TIP3    H274923   3.168   7.040  10.934 -0.4585  0.0150 -0.3279
24681TIP3   OH274924   1.345  10.709   6.010 -0.2506  0.0671  0.4334
24681TIP3    H174925   1.251  10.690   6.014  0.1276 -2.0699  0.7189
24681TIP3    H274926   1.360  10.738   5.921 -1.3486  1.6051  0.7113
24682TIP3   OH274927   3.796   4.989   3.264  0.0077 -0.0523  0.0743
24682TIP3    H174928   3.773   5.078   3.292  2.1077  0.7783 -0.6411
24682TIP3    H274929   3.878   4.971   3.310 -0.2618 -1.5398  0.0012
24683TIP3   OH274930   4.250   3.133   5.536  0.1076  0.1559  0.1396
24683TIP3    H174931   4.290   3.176   5.612 -0.5140  1.7620 -0.3979
24683TIP3    H274932   4.322   3.120   5.475  0.3837  0.0321  0.4888
24684TIP3   OH274933   5.592  10.266   3.497  0.0716  0.3184  0.1383
24684TIP3    H174934   5.513  10.311   3.528  1.0847 -0.2693  4.2128
24684TIP3    H274935   5.664  10.307   3.545  1.6197 -2.2023  0.1649
24685TIP3   OH274936   1.789   6.534   0.736  0.6559 -0.3577  0.3360
24685TIP3    H174937   1.720   6.470   0.720  0.5590 -0.4863  1.1900
24685TIP3    H274938   1.820   6.514   0.824  0.8779  0.5265  0.4722
24686TIP3   OH274939   2.623   2.509  10.185 -0.5190 -0.3626  0.6016
24686TIP3    H174940   2.711   2.505  10.147  0.2076  1.5779  1.9280
24686TIP3    H274941   2.583   2.585  10.144 -0.9339 -0.1972  1.3140
24687TIP3   OH274942   9.326   4.895   1.714  0.0226  0.1616  0.0840
24687TIP3    H174943   9.360   4.980   1.684 -0.7057 -0.1975 -1.8620
24687TIP3    H274944   9.250   4.879   1.659  0.3988 -1.9655  0.1258
24688TIP3   OH274945   8.835   3.081   7.435 -0.0313 -0.0646 -0.5813
24688TIP3    H174946   8.759   3.137   7.418  0.3619  0.9943  0.9222
24688TIP3    H274947   8.895   3.102   7.363 -1.6927 -2.1054 -2.7332
24689TIP3   OH274948  10.137   0.776   8.732 -0.1921 -0.6786 -0.0314
24689TIP3    H174949  10.095   0.692   8.714 -4.5010  0.7576  1.9163
24689TIP3    H274950  10.098   0.836   8.668 -0.1103  0.5181  0.9945
24690TIP3   OH274951   6.191   4.273   8.190 -0.3524  0.3862  0.2918
24690TIP3    H174952   6.101   4.240   8.196 -0.1452 -0.1402  0.5899
24690TIP3    H274953   6.231   4.248   8.273  0.1471  0.3885  0.0542
24691TIP3   OH274954   9.034   1.531   1.570 -0.8815 -0.0918 -0.1175
24691TIP3    H174955   8.945   1.545   1.536 -0.7975 -2.5467 -1.5666
24691TIP3    H274956   9.082   1.493   1.497  1.4575  1.2998  0.6151
24692TIP3   OH274957  10.640   4.703   3.766 -0.0035  0.3681  0.3143
24692TIP3    H174958  10.628   4.768   3.697  0.0159 -0.1824 -0.2208
24692TIP3    H274959  10.719   4.655   3.741 -0.6063 -0.5516  0.1250
24693TIP3   OH274960   7.834   2.060   3.872 -0.0945  0.0113 -0.0327
24693TIP3    H174961   7.928   2.058   3.886 -0.1490  0.3364  0.3743
24693TIP3    H274962   7.800   1.989   3.927 -0.0244 -0.5313 -0.6789
24694TIP3   OH274963   4.453   0.823   2.516  0.2968  0.0358  0.2255
24694TIP3    H174964   4.522   0.758   2.527 -0.2874 -0.9069 -1.3079
24694TIP3    H274965   4.373   0.772   2.511 -0.3879  1.0309  0.7666
24695TIP3   OH274966   0.931   2.562   6.050 -0.4715 -0.0209 -0.0518
24695TIP3    H174967   1.013   2.521   6.078 -0.7300 -0.1970  0.4633
24695TIP3    H274968   0.897   2.603   6.129 -1.0658 -0.2573 -0.1862
24696TIP3   OH274969   0.379   7.509   1.314  0.4281  0.3210 -0.2330
24696TIP3    H174970   0.450   7.449   1.333 -0.4193 -1.0451 -1.1820
24696TIP3    H274971   0.365   7.502   1.220 -0.1136  1.5543 -0.2774
24697TIP3   OH274972  10.135   2.706   7.483  0.1890  0.2634  0.0672
24697TIP3    H174973  10.146   2.766   7.557 -0.3278 -0.4648  0.7627
24697TIP3    H274974  10.108   2.623   7.524 -1.8014  0.2889 -1.0277
24698TIP3   OH274975   8.651   2.568   3.624 -0.1228  0.1895 -0.2046
24698TIP3    H174976   8.734   2.613   3.640 -1.1591  1.8094  1.0593
24698TIP3    H274977   8.662   2.526   3.539  2.4969 -0.9692  0.5983
24699TIP3   OH274978   4.852   5.717   7.456 -0.2197  0.5389 -0.5360
24699TIP3    H174979   4.895   5.631   7.452  1.1519  1.1344  0.5354
24699TIP3    H274980   4.921   5.779   7.433 -1.5342  1.3185 -2.6638
24700TIP3   OH274981  10.564   2.884  10.841 -0.4051  0.2516 -0.6283
24700TIP3    H174982  10.547   2.792  10.822  1.1163 -0.2530  0.2911
24700TIP3    H274983  10.542   2.894  10.934 -0.3257  0.7551 -0.6588
24701TIP3   OH274984   3.701   9.435   3.281  0.5076 -0.0300  0.0016
24701TIP3    H174985   3.723   9.528   3.281  0.1044  0.0784  1.3095
24701TIP3    H274986   3.606   9.432   3.273  0.3843 -0.2735  1.3949
24702TIP3   OH274987   7.212   9.853   2.114  0.5225 -0.1406 -0.3153
24702TIP3    H174988   7.131   9.903   2.129  0.8300  0.6820 -1.2575
24702TIP3    H274989   7.281   9.910   2.148  0.8026 -0.3383 -0.5507
24703TIP3   OH274990   4.204   7.020   4.070 -0.5248 -0.4543  0.0401
24703TIP3    H174991   4.271   7.009   4.138 -0.2331  0.4674 -0.0825
24703TIP3    H274992   4.227   7.102   4.027 -0.4439 -1.2368 -1.4796
24704TIP3   OH274993   6.124   7.746   6.396 -0.3173 -0.7046  0.3452
24704TIP3    H174994   6.127   7.824   6.452  1.2571 -1.0335  0.7774
24704TIP3    H274995   6.106   7.674   6.457  0.4067 -0.9395  0.2915
24705TIP3   OH274996   2.320  10.748   8.062  0.1504  0.5322  0.5616
24705TIP3    H174997   2.414  10.738   8.051  0.1809  1.3913 -0.1001
24705TIP3    H274998   2.293  10.671   8.112  1.5541  1.4959  2.9326
24706TIP3   OH274999   4.765   0.100   4.476  0.4381 -1.0360  0.3781
24706TIP3    H175000   4.707   0.090   4.401  0.5119 -0.5656  0.2561
24706TIP3    H275001   4.719   0.057   4.548  0.2875 -1.3329  0.1079
24707TIP3   OH275002   7.696   8.014   5.879  0.1395 -0.0937 -0.5770
24707TIP3    H175003   7.711   8.108   5.868 -0.4277 -0.0117 -0.6621
24707TIP3    H275004   7.758   7.973   5.819  2.2744  0.1261  1.3183
24708TIP3   OH275005   7.282   6.206   0.867 -0.6452  0.7800  0.3132
24708TIP3    H175006   7.242   6.225   0.951 -0.7891 -0.8987  0.6666
24708TIP3    H275007   7.298   6.112   0.869  1.0245  0.9959 -0.8228
24709TIP3   OH275008   5.160   6.718   3.623  0.8500 -0.4381 -0.3243
24709TIP3    H175009   5.112   6.638   3.645  0.5871 -0.1688  0.0877
24709TIP3    H275010   5.122   6.785   3.679  1.3765 -0.1168 -0.3488
24710TIP3   OH275011   7.830   1.295   4.306  0.0330  0.0098  0.3197
24710TIP3    H175012   7.738   1.297   4.280 -0.2293  0.5871  1.2575
24710TIP3    H275013   7.851   1.387   4.325  0.7188 -0.1594  0.3935
24711TIP3   OH275014   7.890   0.473   1.661 -0.5059  0.0171 -0.8435
24711TIP3    H175015   7.850   0.420   1.592  2.4085 -0.8577 -1.9911
24711TIP3    H275016   7.959   0.417   1.697 -1.4927  0.6798  2.4227
24712TIP3   OH275017   8.195   0.918   8.340 -0.0917 -0.0403 -0.1135
24712TIP3    H175018   8.276   0.889   8.296  0.8078 -1.2262  2.1784
24712TIP3    H275019   8.137   0.943   8.268  2.7445  2.2470 -1.8665
24713TIP3   OH275020   1.746   8.697   7.283 -0.6117 -0.3657 -0.1650
24713TIP3    H175021   1.678   8.706   7.216 -0.6150 -0.6478 -0.1973
24713TIP3    H275022   1.744   8.605   7.308 -0.3541 -0.3394 -0.0455
24714TIP3   OH275023   4.769   4.134   0.105 -0.0666 -0.6814 -0.0035
24714TIP3    H175024   4.683   4.162   0.075 -0.5740 -2.5671 -0.4347
24714TIP3    H275025   4.810   4.214   0.138 -1.8964  0.2950  0.0344
24715TIP3   OH275026   0.329   8.580  10.902  0.3760 -0.2184  0.9090
24715TIP3    H175027   0.417   8.617  10.894  0.1587  1.3099  4.0972
24715TIP3    H275028   0.340   8.505  10.961 -0.5357  0.5749  2.1315
24716TIP3   OH275029   4.922  10.362   7.688  0.3573  0.3346  0.2262
24716TIP3    H175030   4.942  10.374   7.595 -1.0307  2.7407  0.1430
24716TIP3    H275031   4.883  10.275   7.693  2.8796 -0.9758 -0.9323
24717TIP3   OH275032   6.468   6.661   9.793  0.1508  0.0028  0.0186
24717TIP3    H175033   6.454   6.569   9.769  0.5527  0.5983 -2.8998
24717TIP3    H275034   6.563   6.670   9.802  0.2245  0.3497 -0.9439
24718TIP3   OH275035  10.385   1.033   4.023  0.9804 -0.2832 -0.7032
24718TIP3    H175036  10.416   1.099   4.086 -1.3486  0.0227  0.2208
24718TIP3    H275037  10.462   1.014   3.969  2.7498  0.4084  1.3905
24719TIP3   OH275038   1.505   1.602   1.360 -0.0007 -0.6617  0.6922
24719TIP3    H175039   1.591   1.567   1.338 -0.1763 -0.4218 -0.4073
24719TIP3    H275040   1.462   1.616   1.276 -1.3114 -1.2482  1.2497
24720TIP3   OH275041   9.700   7.589   4.922 -0.4694  0.1367  0.1128
24720TIP3    H175042   9.649   7.554   4.995  1.4889  1.2373  2.1282
24720TIP3    H275043   9.662   7.674   4.904 -2.2627 -0.9464 -1.6484
24721TIP3   OH275044  10.545   1.901  10.277 -0.1968 -0.1909 -0.3134
24721TIP3    H175045  10.560   1.987  10.239  0.2913  0.1975  0.7240
24721TIP3    H275046  10.632   1.870  10.301 -0.2334 -1.5032 -1.7406
24722TIP3   OH275047   6.354   2.187  10.626 -0.6060  0.0205 -0.0650
24722TIP3    H175048   6.343   2.252  10.557  0.0325  0.9043  0.6463
24722TIP3    H275049   6.272   2.189  10.674 -0.9309 -0.3661 -0.5871
24723TIP3   OH275050   2.832   1.344   2.317  0.0152 -0.0150  0.0739
24723TIP3    H175051   2.796   1.351   2.405 -0.7194 -0.0047 -0.2219
24723TIP3    H275052   2.756   1.327   2.261  0.5706 -0.8589 -0.4496
24724TIP3   OH275053   3.062   0.424   4.697  0.4513  0.1244  0.1971
24724TIP3    H175054   3.039   0.374   4.619  1.7549 -0.7879  0.3771
24724TIP3    H275055   3.070   0.359   4.767  2.1037  0.5583  0.4506
24725TIP3   OH275056   6.027   0.029   5.439  0.1574 -0.3412  0.0577
24725TIP3    H175057   6.067   0.083   5.508 -0.6353 -0.9654  1.0299
24725TIP3    H275058   5.970   0.090   5.392 -0.3740 -0.2177  0.8508
24726TIP3   OH275059   1.851   0.499   3.609 -0.4681 -0.0480 -0.5351
24726TIP3    H175060   1.833   0.471   3.699 -1.3657 -1.2495 -1.0585
24726TIP3    H275061   1.946   0.505   3.604 -0.3642 -0.7961  0.2675
24727TIP3   OH275062  10.561   8.327   6.097  0.3426 -0.5032 -0.1686
24727TIP3    H175063  10.538   8.247   6.144  0.7953 -0.2529  0.4921
24727TIP3    H275064  10.612   8.378   6.160  1.1518 -0.2552 -1.0033
24728TIP3   OH275065   3.541   1.174   9.102 -0.0587 -0.0789 -0.3775
24728TIP3    H175066   3.621   1.214   9.069  1.1517 -1.2882  0.9563
24728TIP3    H275067   3.556   1.162   9.196 -0.8008 -2.5100 -0.4916
24729TIP3   OH275068   8.435   0.176   9.404  0.1385 -0.4853 -0.2231
24729TIP3    H175069   8.469   0.205   9.489  0.5001 -2.4591  0.3704
24729TIP3    H275070   8.340   0.179   9.414  0.1239  1.2917 -0.5208
24730TIP3   OH275071   2.852   9.438   6.586  0.0437  0.0864 -0.1323
24730TIP3    H175072   2.819   9.508   6.642 -3.2380 -1.1810 -0.2203
24730TIP3    H275073   2.884   9.372   6.648 -0.8807 -0.1047  0.1556
24731TIP3   OH275074   7.132   1.952   0.252  0.2387  0.2986  0.4512
24731TIP3    H175075   7.177   1.868   0.255  0.5116  0.3743 -0.8989
24731TIP3    H275076   7.162   1.998   0.331  0.0636 -0.8533  1.2183
24732TIP3   OH275077   7.175   0.050   3.301 -0.1713 -0.0331  0.4782
24732TIP3    H175078   7.098   0.004   3.268 -0.5395  0.2959  0.8671
24732TIP3    H275079   7.153   0.074   3.391 -0.9557  2.9245 -0.3736
24733TIP3   OH275080   6.910   0.334   0.031 -0.1324 -0.4024  0.4413
24733TIP3    H175081   6.983   0.373   0.078  1.0053 -1.4212 -0.4310
24733TIP3    H275082   6.950   0.290  -0.043 -1.3606 -2.9733  1.2077
24734TIP3   OH275083   8.684   7.554   2.674  0.3826 -0.5818  0.0078
24734TIP3    H175084   8.763   7.531   2.723 -0.7663 -1.9260  1.3008
24734TIP3    H275085   8.687   7.650   2.669  0.6527 -0.3606  2.6189
24735TIP3   OH275086   6.801   4.213   2.747 -0.3250 -0.0735  0.4896
24735TIP3    H175087   6.810   4.248   2.835 -0.0431 -0.3432  0.5715
24735TIP3    H275088   6.824   4.286   2.690 -0.4307  0.0784  0.6406
24736TIP3   OH275089   2.343   8.083   4.285  0.5487 -0.6151  0.0816
24736TIP3    H175090   2.369   8.006   4.234  1.3697  1.4704 -2.9915
24736TIP3    H275091   2.425   8.132   4.297 -0.2982  1.0501 -0.5252
24737TIP3   OH275092   3.778   4.097   8.250  0.0874  0.1730 -0.1987
24737TIP3    H175093   3.775   4.193   8.251 -0.2304  0.1624 -0.0322
24737TIP3    H275094   3.872   4.076   8.250  0.1609  0.4729  0.6864
24738TIP3   OH275095   7.263   6.928  10.301  0.0520  0.0610  0.2368
24738TIP3    H175096   7.282   6.874  10.224 -0.0573  0.2310  0.0919
24738TIP3    H275097   7.341   6.982  10.312  0.3297 -0.4084  0.6201
24739TIP3   OH275098   9.966   8.350   7.269 -0.0578 -0.1509 -0.0138
24739TIP3    H175099  10.041   8.291   7.259  0.8474  0.7452  1.1580
24739TIP3    H275100   9.927   8.324   7.352  0.7814  1.3249  0.8755
24740TIP3   OH275101   9.960   0.902   0.760  0.1077  0.1860 -0.4774
24740TIP3    H175102   9.907   0.933   0.834 -0.9041 -0.0827 -1.0779
24740TIP3    H275103  10.006   0.826   0.795  0.2383  0.5198  0.1039
24741TIP3   OH275104   3.821   2.513   5.995  0.1720  0.4110  0.3594
24741TIP3    H175105   3.753   2.454   6.026 -0.9289  0.5291 -1.6516
24741TIP3    H275106   3.781   2.560   5.922  1.8277  1.8421  0.3011
24742TIP3   OH275107   8.743   9.762   9.434 -0.3396  0.7983 -0.1517
24742TIP3    H175108   8.758   9.742   9.342 -0.9384  1.1997 -0.3401
24742TIP3    H275109   8.773   9.684   9.480  1.1241  1.0634 -0.5802
24743TIP3   OH275110   8.760   5.073   1.020  0.0127 -0.4413 -0.4599
24743TIP3    H175111   8.674   5.088   1.060 -0.0247 -0.7486 -0.4240
24743TIP3    H275112   8.806   5.016   1.083  1.4493  2.2529  1.1388
24744TIP3   OH275113   0.932   6.423   5.415  0.5437  0.7815  0.2177
24744TIP3    H175114   0.842   6.424   5.382  0.5133 -0.4725  0.2150
24744TIP3    H275115   0.986   6.450   5.340  0.2871  0.0993 -0.2202
24745TIP3   OH275116   0.607   1.209   8.342  0.5619  0.6317  0.0660
24745TIP3    H175117   0.570   1.278   8.287 -1.6793  0.3460  1.0934
24745TIP3    H275118   0.550   1.207   8.419  1.9337 -0.8465  1.1003
24746TIP3   OH275119   0.536  10.812  10.325 -0.0288  0.1037 -0.1496
24746TIP3    H175120   0.574  10.726  10.346  0.8470  0.2513 -1.0213
24746TIP3    H275121   0.610  10.862  10.291 -0.1852  1.7320  1.7570
24747TIP3   OH275122   5.212  10.571   7.466  0.2234 -0.9452  0.3276
24747TIP3    H175123   5.227  10.560   7.373  0.0810  1.8391 -0.1230
24747TIP3    H275124   5.121  10.598   7.474  0.3433 -0.7337  1.1980
24748TIP3   OH275125   9.368   8.147   6.975  0.1313 -0.1732  0.5082
24748TIP3    H175126   9.404   8.059   6.982  0.9360  0.1510  0.5859
24748TIP3    H275127   9.352   8.160   6.882  0.5042 -0.2110  0.4385
24749TIP3   OH275128   9.628  10.314   7.772 -0.0109  0.3316 -0.1489
24749TIP3    H175129   9.661  10.379   7.710 -1.4991 -0.1257 -1.4859
24749TIP3    H275130   9.533  10.320   7.764 -0.2165 -0.2913  1.5538
24750TIP3   OH275131   8.498   1.189   1.865 -0.2754  0.1987  0.3743
24750TIP3    H175132   8.538   1.102   1.858 -0.0233  0.3223  0.2348
24750TIP3    H275133   8.567   1.244   1.904  0.2369  0.7611 -1.2451
24751TIP3   OH275134  10.451   8.555   5.340  0.2887  0.1996 -0.2223
24751TIP3    H175135  10.534   8.598   5.320  0.0011  0.9185  0.1018
24751TIP3    H275136  10.384   8.613   5.304 -0.0472 -0.8105 -1.2498
24752TIP3   OH275137   6.098   1.229   7.162  0.1844  0.1906 -0.2948
24752TIP3    H175138   6.181   1.274   7.146 -0.1543  1.1049  0.4081
24752TIP3    H275139   6.043   1.255   7.088 -0.0229  1.0003  0.1256
24753TIP3   OH275140   2.463   2.006   3.581 -0.0458 -0.4190 -0.1812
24753TIP3    H175141   2.397   1.967   3.524 -1.8521  0.8199  0.9545
24753TIP3    H275142   2.519   2.056   3.521 -0.1427 -1.4583 -1.1748
24754TIP3   OH275143   0.846   8.907   2.904 -0.1478 -0.1798  0.3735
24754TIP3    H175144   0.820   8.911   2.996 -0.1951  0.1907  0.3457
24754TIP3    H275145   0.882   8.994   2.885  1.7824 -0.8800  0.6055
24755TIP3   OH275146   7.948   5.834   6.355 -0.1298  0.1275 -0.5438
24755TIP3    H175147   7.943   5.859   6.263 -0.5183  1.9991 -0.0626
24755TIP3    H275148   7.911   5.746   6.358 -1.1322  0.4620 -2.0272
24756TIP3   OH275149   5.380   5.202   2.312  0.0868 -0.1631  0.0909
24756TIP3    H175150   5.290   5.199   2.280 -0.3118  1.2172  0.9991
24756TIP3    H275151   5.401   5.111   2.332 -0.3732 -0.7999 -2.0013
24757TIP3   OH275152   9.962   1.356   9.902  0.0476  0.1045 -0.2036
24757TIP3    H175153  10.053   1.326   9.903  0.1493  0.2774 -1.7890
24757TIP3    H275154   9.919   1.306   9.972  1.7846  1.5080  1.9884
24758TIP3   OH275155   9.732   1.718   1.998 -0.0783 -0.7317  0.7519
24758TIP3    H175156   9.720   1.627   2.023 -0.0663 -0.5377  1.4850
24758TIP3    H275157   9.815   1.743   2.038  2.0711 -1.5520 -2.7895
24759TIP3   OH275158   0.852   2.611   6.411  0.1233 -0.4190  0.0651
24759TIP3    H175159   0.833   2.667   6.486 -2.2320 -1.1078  0.0468
24759TIP3    H275160   0.771   2.607   6.361  1.8253  0.6748 -3.0713
24760TIP3   OH275161   2.261   5.447   1.889 -0.2440 -0.3787 -0.0577
24760TIP3    H175162   2.194   5.493   1.838 -1.1020 -0.6647  0.7709
24760TIP3    H275163   2.334   5.508   1.895 -0.5527  0.0608 -0.7204
24761TIP3   OH275164   8.778   8.423   6.931  0.8740 -0.8194  0.0751
24761TIP3    H175165   8.788   8.502   6.983 -0.6542 -0.5847  0.0586
24761TIP3    H275166   8.865   8.384   6.930  1.0361 -0.6782  2.5251
24762TIP3   OH275167   6.765   5.554   6.280  0.0437 -0.2386 -0.3282
24762TIP3    H175168   6.717   5.482   6.321 -1.2046  0.9175  0.3310
24762TIP3    H275169   6.855   5.522   6.274 -0.0245 -1.0777  1.9154
24763TIP3   OH275170   5.825   0.904   7.061  0.3476 -0.1225 -0.3381
24763TIP3    H175171   5.907   0.902   7.111  0.2025  1.7878  0.0592
24763TIP3    H275172   5.768   0.962   7.112 -0.8527 -0.5284 -1.1944
24764TIP3   OH275173  10.102   8.479   2.619 -0.5675  0.3584 -0.6223
24764TIP3    H175174  10.085   8.384   2.619 -1.1648  0.2426  4.0439
24764TIP3    H275175  10.183   8.488   2.569  0.4370 -2.8781  0.1427
24765TIP3   OH275176   4.978  10.354   9.192  0.1876 -0.2592 -0.0258
24765TIP3    H175177   4.939  10.438   9.167 -0.1837 -0.7393 -1.0931
24765TIP3    H275178   4.954  10.343   9.284 -2.9381 -0.9093 -0.8051
24766TIP3   OH275179   7.935  10.799  10.787 -0.0422  0.3758 -0.0423
24766TIP3    H175180   7.893  10.713  10.787 -0.4120  0.5344  1.0655
24766TIP3    H275181   7.862  10.861  10.791  0.1961  0.7788 -1.6044
24767TIP3   OH275182   5.511   7.800   7.452  0.8056  0.2402 -0.1951
24767TIP3    H175183   5.507   7.881   7.401  0.4244  0.5369  0.2933
24767TIP3    H275184   5.523   7.731   7.387  0.5543  0.6326 -0.6646
24768TIP3   OH275185  10.327   9.994  10.408 -0.2251 -0.4988 -0.0510
24768TIP3    H175186  10.386   9.920  10.424 -2.0350 -1.8044  0.9105
24768TIP3    H275187  10.384  10.071  10.413  1.6410 -1.7684 -0.6097
24769TIP3   OH275188   1.375   0.117   2.228  0.0345 -0.4159 -0.5429
24769TIP3    H175189   1.419   0.173   2.293  1.3733 -0.6104 -1.2366
24769TIP3    H275190   1.409   0.148   2.144  0.7355 -2.1877 -0.9471
24770TIP3   OH275191   0.516   5.890   1.418 -0.2244 -0.5637 -0.0135
24770TIP3    H175192   0.517   5.804   1.460  0.5467 -0.5596  0.0067
24770TIP3    H275193   0.425   5.904   1.393 -0.6291 -0.7083  1.3428
24771TIP3   OH275194   6.679   2.279   7.581  0.3015  0.0019  0.1414
24771TIP3    H175195   6.742   2.234   7.638  0.8276 -1.7860 -1.7130
24771TIP3    H275196   6.623   2.209   7.548 -0.7005  1.1427 -0.6672
24772TIP3   OH275197   2.005   9.492   7.424  0.3525 -0.3231  0.6565
24772TIP3    H175198   1.951   9.438   7.481 -0.4566  0.3525  0.5440
24772TIP3    H275199   2.039   9.431   7.359 -0.0436 -0.8089  0.8951
24773TIP3   OH275200   4.481   2.217   7.949  0.6635 -0.1412  0.4569
24773TIP3    H175201   4.405   2.159   7.952 -0.7982  1.5937 -0.7114
24773TIP3    H275202   4.519   2.203   7.862  0.5362  0.3708  0.3186
24774TIP3   OH275203   6.568   7.926   8.631 -0.3296  0.2009 -0.9692
24774TIP3    H175204   6.599   7.870   8.560 -0.9808  0.8297 -1.7575
24774TIP3    H275205   6.492   7.880   8.667  1.1795 -1.1388  0.7019
24775TIP3   OH275206   7.676   2.927   4.683  0.2316  0.0464  0.2482
24775TIP3    H175207   7.668   2.988   4.609 -0.6356  0.5366  0.7351
24775TIP3    H275208   7.665   2.841   4.643 -1.0248  0.3519 -0.0972
24776TIP3   OH275209   6.636   0.228   4.569  0.0666  0.2533  0.1607
24776TIP3    H175210   6.587   0.265   4.495 -0.8511 -2.4005 -0.6710
24776TIP3    H275211   6.649   0.302   4.628 -0.9790  2.0375 -1.6874
24777TIP3   OH275212   6.407   0.422   5.225 -0.3706 -0.0942  0.5079
24777TIP3    H175213   6.489   0.449   5.182 -0.3232 -1.7291 -0.4972
24777TIP3    H275214   6.376   0.502   5.268  0.7742  1.0485 -0.6726
24778TIP3   OH275215   5.595   1.544   1.610 -0.3781  0.0485  0.2908
24778TIP3    H175216   5.650   1.479   1.653  0.3559  0.8220  0.5425
24778TIP3    H275217   5.595   1.518   1.518  2.7841  1.5756 -0.2770
24779TIP3   OH275218  10.706   0.176   4.025 -0.3082 -0.4115 -0.1844
24779TIP3    H175219  10.779   0.159   4.084  0.2002 -2.0398 -1.2161
24779TIP3    H275220  10.646   0.230   4.076 -1.1233 -3.7440  2.7761
24780TIP3   OH275221   8.941   4.784   5.002  0.0162  0.1376 -0.3546
24780TIP3    H175222   8.947   4.768   4.908 -0.6007  1.6518 -0.6731
24780TIP3    H275223   8.850   4.766   5.025 -0.0066  0.4381 -0.1948
24781TIP3   OH275224   8.973   2.235   1.384 -0.4190 -1.2058  0.3765
24781TIP3    H175225   8.880   2.219   1.372 -0.8256  1.0117  0.2245
24781TIP3    H275226   8.978   2.303   1.451  1.0745 -1.1382  0.2429
24782TIP3   OH275227   6.913   3.731   3.534  0.2382  0.7202  0.0732
24782TIP3    H175228   6.968   3.798   3.574  0.3482  0.6329  0.0692
24782TIP3    H275229   6.962   3.650   3.546  1.5933  1.0387 -2.6314
24783TIP3   OH275230   8.590   0.541   5.665 -0.1292  0.2051  0.0908
24783TIP3    H175231   8.555   0.603   5.730  0.2630 -1.1895  1.6834
24783TIP3    H275232   8.526   0.471   5.662  1.0913 -0.9859  0.9052
24784TIP3   OH275233   5.220  10.844   8.173 -0.8885 -0.5558 -0.0369
24784TIP3    H175234   5.192  10.754   8.191 -1.0395 -0.5400 -0.1883
24784TIP3    H275235   5.295  10.857   8.231 -1.4362 -0.4717  0.6662
24785TIP3   OH275236   0.061   3.605   5.021 -0.0175 -0.1562 -0.2042
24785TIP3    H175237   0.097   3.616   5.109 -0.8163 -0.9611  0.2418
24785TIP3    H275238   0.086   3.516   4.996 -2.1811 -0.9986  0.3934
24786TIP3   OH275239   7.992   2.870   6.097  0.0477 -0.1151 -0.3376
24786TIP3    H175240   7.899   2.863   6.118  0.6036 -1.4772  2.1001
24786TIP3    H275241   8.008   2.802   6.032 -0.5746 -0.2420 -0.3593
24787TIP3   OH275242   5.153   0.892   8.841  0.0186 -0.0193  0.2725
24787TIP3    H175243   5.083   0.946   8.877 -1.0557 -1.2660  0.1009
24787TIP3    H275244   5.233   0.943   8.857 -0.8527  1.1801  0.9418
24788TIP3   OH275245  10.026   0.376   2.773 -0.1315  0.0137  0.5186
24788TIP3    H175246   9.939   0.391   2.811  0.7171  0.4497  2.4619
24788TIP3    H275247  10.015   0.392   2.680 -1.9592  0.8983  0.8341
24789TIP3   OH275248   6.296   9.426   6.541 -0.8693 -0.2039  0.7497
24789TIP3    H175249   6.231   9.416   6.611 -1.7353 -0.1465 -0.0148
24789TIP3    H275250   6.340   9.509   6.561 -1.5431  0.1296  0.8926
24790TIP3   OH275251   2.736   2.895   1.383  0.1470  0.0227 -0.2370
24790TIP3    H175252   2.820   2.851   1.395  1.4287  1.9873 -1.5836
24790TIP3    H275253   2.690   2.841   1.319  1.8232  0.7027 -2.1200
24791TIP3   OH275254   0.008   4.641   3.603  0.1953  0.0790  0.1108
24791TIP3    H175255   0.032   4.636   3.696  0.6028  1.5175  0.1043
24791TIP3    H275256   0.020   4.551   3.571  1.0992 -0.2185  1.2028
24792TIP3   OH275257   5.166   4.884  10.862 -0.9600  0.7673 -0.2564
24792TIP3    H175258   5.150   4.789  10.865 -0.7669  0.7302 -0.3411
24792TIP3    H275259   5.209   4.903  10.945  0.8995  0.4123 -1.0897
24793TIP3   OH275260   0.061   7.572   4.062 -0.7276 -0.4251 -0.4991
24793TIP3    H175261   0.103   7.494   4.025  0.6536  0.2361 -0.3711
24793TIP3    H275262   0.010   7.608   3.990 -3.5897 -2.8528  0.0980
24794TIP3   OH275263   9.429   4.011   3.686  0.4971 -0.5283  0.4020
24794TIP3    H175264   9.384   4.093   3.667 -3.3830 -2.2217  1.4358
24794TIP3    H275265   9.440   4.011   3.781  1.3182 -0.8468  0.3184
24795TIP3   OH275266   1.590   3.299  10.867  0.2196 -0.3049  0.4362
24795TIP3    H175267   1.510   3.349  10.849 -0.2900 -1.5074 -0.8125
24795TIP3    H275268   1.661   3.361  10.851 -0.4429  0.6887  1.2343
24796TIP3   OH275269   8.573   5.724   4.658 -0.2036 -0.2914 -0.2258
24796TIP3    H175270   8.501   5.744   4.597 -0.6807  0.0625  0.4423
24796TIP3    H275271   8.614   5.809   4.674  0.3206 -0.4815 -0.5382
24797TIP3   OH275272   3.701   9.269   3.973  0.6790 -0.2263 -0.3584
24797TIP3    H175273   3.747   9.265   3.889 -0.0232  0.2434 -0.7700
24797TIP3    H275274   3.746   9.204   4.027  1.9967  0.3913 -0.6667
24798TIP3   OH275275   7.157   9.946   6.017 -0.0319  0.2742 -0.0524
24798TIP3    H175276   7.073   9.981   6.048  0.4048  0.8582  0.4988
24798TIP3    H275277   7.209   9.935   6.097  0.0572 -1.1039 -0.2685
24799TIP3   OH275278   4.831   4.408   2.945 -0.6353 -0.1819 -0.1974
24799TIP3    H175279   4.865   4.340   2.887  0.1489  1.2744 -1.5193
24799TIP3    H275280   4.835   4.369   3.033  1.3269 -1.2574 -0.7077
24800TIP3   OH275281   6.989   1.845   7.717 -0.0652  0.7993 -0.4452
24800TIP3    H175282   6.969   1.785   7.789 -2.4466 -0.1396 -1.7768
24800TIP3    H275283   7.062   1.897   7.749  0.8774 -1.5212  1.5101
24801TIP3   OH275284   0.273   2.352   6.921  0.1797  0.0526  0.1949
24801TIP3    H175285   0.202   2.361   6.857 -0.0626  1.4776  0.6322
24801TIP3    H275286   0.263   2.428   6.979 -0.3735 -1.7747  2.6815
24802TIP3   OH275287   6.031   5.606   9.125  0.4510 -0.6528 -0.3876
24802TIP3    H175288   6.061   5.561   9.047  0.1591 -1.7571  0.1116
24802TIP3    H275289   5.990   5.687   9.093 -0.6481 -1.6062 -1.4827
24803TIP3   OH275290   1.794   0.276   8.721  0.3500  0.0558  0.6265
24803TIP3    H175291   1.789   0.181   8.735 -0.5831 -0.0568 -0.3578
24803TIP3    H275292   1.832   0.286   8.634 -0.0693  0.5741  0.4990
24804TIP3   OH275293   9.545   4.667   7.114  0.0342  0.6032  0.1223
24804TIP3    H175294   9.512   4.625   7.193  0.3531  0.3938  0.1435
24804TIP3    H275295   9.527   4.604   7.044  0.5248  0.4216  0.1564
24805TIP3   OH275296   3.555   2.637   1.741  0.3240  0.3173  0.3042
24805TIP3    H175297   3.582   2.693   1.668  1.3453 -0.9259 -0.3069
24805TIP3    H275298   3.612   2.560   1.734 -0.8685 -0.6799  1.2770
24806TIP3   OH275299   0.786   9.747   1.530 -0.9289  0.1349 -0.2042
24806TIP3    H175300   0.748   9.668   1.567  1.0606 -1.0096 -0.4649
24806TIP3    H275301   0.824   9.718   1.447 -1.9889  1.8405 -1.3538
24807TIP3   OH275302   9.122   2.788   5.363  0.1027 -0.4871 -0.1118
24807TIP3    H175303   9.147   2.880   5.363 -1.1934  0.1226  4.2923
24807TIP3    H275304   9.043   2.784   5.310  1.8814  0.1579 -3.0151
24808TIP3   OH275305   3.034   1.665   1.435 -0.4257 -0.1050  0.2481
24808TIP3    H175306   2.973   1.650   1.507 -1.7925 -0.9875 -1.0209
24808TIP3    H275307   3.057   1.577   1.404  0.7253  0.2412  0.0650
24809TIP3   OH275308   9.462   2.443   3.056  0.2633 -0.2311 -0.6863
24809TIP3    H175309   9.499   2.456   2.968 -0.8308  0.1795 -1.1143
24809TIP3    H275310   9.372   2.476   3.048 -0.5934 -2.2721 -0.0375
24810TIP3   OH275311   1.902   3.274   8.689  1.1580 -0.2769  0.7269
24810TIP3    H175312   1.947   3.355   8.664  0.4564  0.3463  1.4433
24810TIP3    H275313   1.823   3.273   8.634  1.3957 -0.7215  0.3846
24811TIP3   OH275314  10.800   5.143   4.075  0.1057 -0.1576 -0.0649
24811TIP3    H175315  10.880   5.193   4.060  0.4079  0.3757  2.7189
24811TIP3    H275316  10.810   5.064   4.022  3.4683 -1.0525  1.6474
24812TIP3   OH275317   8.453   6.953   5.037 -0.2520 -0.3613 -0.3056
24812TIP3    H175318   8.432   7.040   5.070 -1.4030 -0.2150 -1.3552
24812TIP3    H275319   8.475   6.966   4.945  0.0107 -1.1288 -0.3628
24813TIP3   OH275320   3.833   2.375   4.239 -0.0160  0.6515 -0.1334
24813TIP3    H175321   3.910   2.319   4.242  1.0892  2.1634  2.1287
24813TIP3    H275322   3.851   2.436   4.168  0.6984  0.7245  0.1012
24814TIP3   OH275323   8.320   4.783   0.185  0.4056  0.1718  0.2009
24814TIP3    H175324   8.304   4.864   0.234 -0.6812 -1.3075  2.4827
24814TIP3    H275325   8.241   4.771   0.132 -0.1666 -0.1895  1.1116
24815TIP3   OH275326   5.889   5.147   6.131 -0.5159  0.0148 -0.7678
24815TIP3    H175327   5.913   5.208   6.061  1.0779  0.7296  0.3400
24815TIP3    H275328   5.971   5.101   6.151 -1.4448 -1.7733 -0.8508
24816TIP3   OH275329   9.355   6.142  10.416 -0.2583 -0.0446  0.0826
24816TIP3    H175330   9.357   6.181  10.503 -0.1494  0.0199  0.0510
24816TIP3    H275331   9.293   6.196  10.367  0.3311  0.4397 -0.1300
24817TIP3   OH275332  10.420   1.224   1.667 -0.2405 -1.0126 -0.4838
24817TIP3    H175333  10.418   1.230   1.762 -0.7772 -0.3439 -0.5316
24817TIP3    H275334  10.378   1.140   1.648 -1.8786 -0.3069 -0.1894
24818TIP3   OH275335   4.369  10.736   0.943 -0.1985 -0.4084  0.2876
24818TIP3    H175336   4.434  10.801   0.968  0.5116 -1.3719  1.0128
24818TIP3    H275337   4.285  10.780   0.956  0.2659  0.4391  0.5091
24819TIP3   OH275338   2.067   0.767  10.375 -0.1329  1.1550 -0.0636
24819TIP3    H175339   2.122   0.805  10.444  0.6318  1.4279 -0.8089
24819TIP3    H275340   2.087   0.819  10.297 -0.0647  0.0703 -0.7895
24820TIP3   OH275341   0.624   4.234   9.573  0.0436  0.4234 -0.0882
24820TIP3    H175342   0.625   4.288   9.494  2.5827  0.5708 -0.0555
24820TIP3    H275343   0.641   4.295   9.645  0.7620 -0.0803  0.1936
24821TIP3   OH275344   9.446   3.841   9.396  0.3982 -0.3620 -0.1785
24821TIP3    H175345   9.524   3.894   9.414 -0.9967  1.2296  1.6398
24821TIP3    H275346   9.380   3.874   9.458 -1.5102 -2.1294 -1.1520
24822TIP3   OH275347   9.598  10.455   9.857 -0.4170  0.3292  0.3095
24822TIP3    H175348   9.537  10.519   9.894 -0.3109 -0.4576  1.9312
24822TIP3    H275349   9.685  10.490   9.879 -0.2365  1.1591 -1.5044
24823TIP3   OH275350   8.574   8.083   8.485 -0.3190 -0.5248 -0.5218
24823TIP3    H175351   8.578   8.178   8.482 -0.0608 -0.4567  1.2992
24823TIP3    H275352   8.621   8.055   8.406 -1.3279  0.8295 -1.6724
24824TIP3   OH275353   2.454   1.868   1.614  0.2157  0.2659 -0.4341
24824TIP3    H175354   2.418   1.937   1.669  0.4621  0.1888 -0.1702
24824TIP3    H275355   2.456   1.905   1.526  1.1827  0.9279 -0.1554
24825TIP3   OH275356   3.569   2.378   0.158  0.7619 -0.3253  0.2429
24825TIP3    H175357   3.491   2.335   0.194 -0.2573  0.8662 -0.4498
24825TIP3    H275358   3.553   2.471   0.172  2.0565 -0.0612  0.0393
24826TIP3   OH275359   8.368   5.616   4.024 -0.0709  0.0671  0.0241
24826TIP3    H175360   8.307   5.584   4.090 -0.2175  1.0151  0.3616
24826TIP3    H275361   8.377   5.543   3.962 -0.9185 -0.3697  0.3995
24827TIP3   OH275362   4.118   9.696   4.929  0.1899 -0.5380 -0.5943
24827TIP3    H175363   4.154   9.739   4.851  0.6261 -0.0737 -0.1416
24827TIP3    H275364   4.194   9.661   4.975  0.0599  0.3278  0.3007
24828TIP3   OH275365   5.054   1.846   9.156  0.5038 -0.1045  0.6020
24828TIP3    H175366   5.037   1.865   9.063 -0.1171 -0.5618  0.6146
24828TIP3    H275367   5.129   1.788   9.156  1.8016  1.5054  0.5045
24829TIP3   OH275368   6.311   2.706   7.310 -0.0833  0.5677  0.2008
24829TIP3    H175369   6.399   2.699   7.272 -0.1800 -2.0915  0.2823
24829TIP3    H275370   6.254   2.715   7.234  0.0504 -0.7086 -0.0730
24830TIP3   OH275371   3.089   1.899   6.679  0.0667  0.2885  0.2525
24830TIP3    H175372   3.021   1.931   6.739 -1.3770  1.6089 -1.9219
24830TIP3    H275373   3.154   1.969   6.676 -0.6854  0.9660 -0.8965
24831TIP3   OH275374   7.782   7.777   5.214  0.8955 -0.0486  0.4902
24831TIP3    H175375   7.738   7.833   5.150 -0.2853 -3.2790 -1.7881
24831TIP3    H275376   7.717   7.763   5.283 -0.5818 -2.1316 -1.2135
24832TIP3   OH275377   8.981   9.056  10.804  0.1081 -0.0722  0.4087
24832TIP3    H175378   8.971   9.151  10.795 -1.3960 -0.3992 -2.3201
24832TIP3    H275379   8.982   9.041  10.898  0.2037  2.6210  0.9207
24833TIP3   OH275380   7.991   5.851   7.456  0.2756 -0.3273  0.1611
24833TIP3    H175381   7.941   5.849   7.374 -0.0633  3.3961  0.1217
24833TIP3    H275382   8.083   5.852   7.429  0.1658  2.5825 -0.4152
24834TIP3   OH275383   9.292   1.168   0.723  0.3853  0.5648 -0.0007
24834TIP3    H175384   9.215   1.214   0.755  0.1914  0.8523 -0.8602
24834TIP3    H275385   9.266   1.132   0.638  0.5650 -1.0807  0.5996
24835TIP3   OH275386   5.255   4.701   2.354  0.0970  0.5345 -0.3393
24835TIP3    H175387   5.189   4.649   2.399 -0.3729 -0.0160 -1.6164
24835TIP3    H275388   5.318   4.637   2.321  0.8028  0.9835  0.1020
24836TIP3   OH275389   1.574   2.513   6.479  0.0001 -0.2843 -0.4148
24836TIP3    H175390   1.634   2.471   6.417  0.0522 -0.0709 -0.5099
24836TIP3    H275391   1.627   2.582   6.521  0.0844 -0.6936  0.1645
24837TIP3   OH275392   9.786   8.268   8.991  0.0432  0.8209 -0.4725
24837TIP3    H175393   9.771   8.192   8.934 -0.8980  0.8148 -0.2355
24837TIP3    H275394   9.799   8.231   9.078 -0.9825  0.9349 -0.2506
24838TIP3   OH275395   5.366   0.340   0.823  0.1044 -0.6048 -0.5365
24838TIP3    H175396   5.319   0.259   0.845 -0.2357 -0.8962 -2.2084
24838TIP3    H275397   5.453   0.328   0.860 -0.0770 -1.5470 -0.3795
24839TIP3   OH275398   3.852   6.567   3.810 -0.3155 -0.2335 -0.8385
24839TIP3    H175399   3.888   6.651   3.835 -3.3423  1.6031 -1.9883
24839TIP3    H275400   3.881   6.506   3.877 -0.0712  2.2870  1.5038
24840TIP3   OH275401   5.526   1.948   1.602  0.3441 -0.7215  0.6194
24840TIP3    H175402   5.459   1.987   1.659 -1.1573  0.8964 -2.0392
24840TIP3    H275403   5.582   2.022   1.578  0.9326 -1.3632 -0.0243
24841TIP3   OH275404   4.901   4.323   3.740  0.5499 -0.2918 -0.0686
24841TIP3    H175405   4.893   4.227   3.747  0.5025 -0.3773 -1.1889
24841TIP3    H275406   4.988   4.342   3.775  1.2536 -0.9438 -1.3847
24842TIP3   OH275407   8.389   3.284   5.174 -0.2073  0.4446  0.3484
24842TIP3    H175408   8.378   3.371   5.134 -0.8758  0.3392  0.2819
24842TIP3    H275409   8.377   3.223   5.101 -0.9324  0.2665  0.6123
24843TIP3   OH275410  10.879  10.478   9.350 -0.1643 -0.4925  0.0821
24843TIP3    H175411  10.855  10.506   9.262 -1.6540  0.0765  0.6401
24843TIP3    H275412  10.836  10.393   9.361 -0.5059 -0.2707  0.4793
24844TIP3   OH275413   6.841   4.614   4.756 -0.3825  0.0916 -0.1263
24844TIP3    H175414   6.860   4.534   4.806 -0.7999  0.3181  0.4044
24844TIP3    H275415   6.901   4.679   4.793 -1.7689  0.6720  1.1876
24845TIP3   OH275416   7.996   4.363   1.070 -0.4544  0.3508 -0.1129
24845TIP3    H175417   8.051   4.429   1.029  0.2205 -0.2759 -0.2502
24845TIP3    H275418   7.915   4.409   1.093 -1.5824  0.4361 -3.6081
24846TIP3   OH275419   4.233   9.840   0.971  0.3100  0.0194  0.1300
24846TIP3    H175420   4.166   9.904   0.950 -1.2903 -0.6711  2.6008
24846TIP3    H275421   4.250   9.853   1.065 -0.6179 -3.4875  0.9629
24847TIP3   OH275422   8.018   2.521   6.853 -0.3244 -0.4614  0.0900
24847TIP3    H175423   8.041   2.477   6.935  0.0811 -0.7706 -0.1872
24847TIP3    H275424   8.095   2.574   6.832 -0.1504 -0.9186 -0.4480
24848TIP3   OH275425   1.940   3.508   9.105 -0.1124  0.0201  0.2022
24848TIP3    H175426   1.967   3.589   9.149 -0.4372  0.4521 -0.3793
24848TIP3    H275427   1.861   3.480   9.152  1.2872 -1.2699  1.9326
24849TIP3   OH275428   0.423   5.584   5.067 -0.1798 -0.1206  0.5158
24849TIP3    H175429   0.512   5.614   5.086 -0.5488  2.1671 -0.9073
24849TIP3    H275430   0.434   5.516   5.001  0.5217  1.4180 -1.0425
24850TIP3   OH275431   6.438   9.626   1.392  0.5960  0.6969 -0.2004
24850TIP3    H175432   6.483   9.574   1.459 -0.6413  0.0684  0.1732
24850TIP3    H275433   6.496   9.701   1.377  1.5140  0.1760  0.6265
24851TIP3   OH275434   1.836   5.263  10.644  0.2004 -0.1907 -0.1143
24851TIP3    H175435   1.898   5.332  10.622 -0.2614  0.5514  0.8615
24851TIP3    H275436   1.872   5.222  10.722 -0.6121  0.3852  0.5886
24852TIP3   OH275437   7.273   3.582   2.449  0.0124  0.8163 -0.2661
24852TIP3    H175438   7.223   3.523   2.393  3.7100 -1.4097 -1.5629
24852TIP3    H275439   7.234   3.572   2.536  0.9168 -4.4348 -0.1673
24853TIP3   OH275440   9.399   6.982   2.393 -0.4222  0.7272 -0.7948
24853TIP3    H175441   9.322   6.926   2.403  0.5679 -0.6809 -0.7829
24853TIP3    H275442   9.416   6.982   2.298  0.3811 -0.1244 -0.6570
24854TIP3   OH275443  10.234   0.308   7.716 -0.7672 -0.2775  0.5398
24854TIP3    H175444  10.225   0.395   7.754 -1.1919 -0.8194  1.7315
24854TIP3    H275445  10.306   0.268   7.764 -0.8888 -0.7519  0.3320
24855TIP3   OH275446   3.169   4.673   5.074 -0.2606 -0.0724 -0.2205
24855TIP3    H175447   3.082   4.647   5.103 -0.7668  1.6369 -0.0680
24855TIP3    H275448   3.226   4.600   5.099 -1.4488 -0.6989  0.7699
24856TIP3   OH275449   5.405   3.029   6.468 -0.0744  0.1043 -0.4407
24856TIP3    H175450   5.440   3.052   6.382 -0.1656  1.0922 -0.2269
24856TIP3    H275451   5.373   3.112   6.504 -2.0677 -0.6478 -0.3754
24857TIP3   OH275452   4.295   0.094   4.250  0.1205 -0.7731 -0.4060
24857TIP3    H175453   4.298   0.114   4.343  1.3905  1.5254 -0.8716
24857TIP3    H275454   4.209   0.127   4.221 -0.2369 -1.4101 -0.1042
24858TIP3   OH275455   5.229   1.252   3.524  0.6283 -0.3132  0.4175
24858TIP3    H175456   5.263   1.201   3.450 -0.2771 -1.7579  0.9543
24858TIP3    H275457   5.305   1.272   3.578  1.0494 -0.7504 -0.0122
24859TIP3   OH275458  10.175  10.674   1.407 -0.0578 -0.1787  0.4856
24859TIP3    H175459  10.233  10.598   1.402  0.5770  0.2014  1.6733
24859TIP3    H275460  10.218  10.733   1.469 -1.6178  0.1915  1.2744
24860TIP3   OH275461   8.004   6.466   1.451 -0.2262  0.2156 -0.0123
24860TIP3    H175462   7.959   6.454   1.535 -0.5049  1.2800  0.0125
24860TIP3    H275463   7.934   6.465   1.386 -0.1351  0.4821 -0.1165
24861TIP3   OH275464   6.346   3.760   6.348  0.0169 -0.1636 -0.1626
24861TIP3    H175465   6.372   3.673   6.317 -0.3210 -0.5201  0.5206
24861TIP3    H275466   6.419   3.817   6.324  0.7398 -0.8538  0.3288
24862TIP3   OH275467   8.287   1.356   4.543  0.1544 -0.5903 -0.1540
24862TIP3    H175468   8.322   1.345   4.455  1.5431  1.3307  0.0925
24862TIP3    H275469   8.193   1.373   4.530  0.3136 -0.4890 -1.2568
24863TIP3   OH275470   9.215   3.585   5.021  0.1306 -0.6129  0.6737
24863TIP3    H175471   9.175   3.507   5.058 -0.0004 -1.1260 -0.4928
24863TIP3    H275472   9.287   3.605   5.081 -0.3408 -1.1370  1.4366
24864TIP3   OH275473   1.292   2.354   4.946 -0.0428  0.1088 -0.3873
24864TIP3    H175474   1.279   2.446   4.969  1.3868  0.0906  0.5796
24864TIP3    H275475   1.330   2.357   4.858 -1.4246  0.3481 -1.0127
24865TIP3   OH275476   8.686   8.147   0.154 -0.1536  0.6266  0.2202
24865TIP3    H175477   8.670   8.220   0.093 -1.6794  1.3103  1.3518
24865TIP3    H275478   8.613   8.087   0.139  0.8166 -0.4448 -0.3361
24866TIP3   OH275479   6.709  10.178   8.256  0.3697 -0.0830  1.0143
24866TIP3    H175480   6.689  10.139   8.171  3.0365  2.7576 -1.1627
24866TIP3    H275481   6.763  10.113   8.300  4.7454  0.6518 -2.4951
24867TIP3   OH275482   4.760   5.912   0.567 -0.2250 -0.0928  0.0381
24867TIP3    H175483   4.675   5.914   0.611  0.0877  0.6655  0.6340
24867TIP3    H275484   4.750   5.848   0.497 -0.8069 -1.1443  1.0643
24868TIP3   OH275485   6.758   8.846   0.879  0.3670 -0.2126  0.0050
24868TIP3    H175486   6.720   8.933   0.888  0.9336  0.1632 -1.0998
24868TIP3    H275487   6.813   8.835   0.957 -2.3251 -1.0043  1.9736
24869TIP3   OH275488   7.678   8.189   5.329  0.1937 -0.4708 -0.5034
24869TIP3    H175489   7.625   8.214   5.405  0.9386  0.8638 -0.3970
24869TIP3    H275490   7.621   8.203   5.254 -0.3228 -1.1518 -0.2494
24870TIP3   OH275491   9.979   5.574   7.754  0.0816  0.2439 -0.1716
24870TIP3    H175492   9.931   5.657   7.751 -0.8201 -0.3015 -1.5347
24870TIP3    H275493  10.011   5.561   7.665  2.1032  0.1617  0.5048
24871TIP3   OH275494   8.138   9.060   0.330 -0.0636  0.0313 -0.1688
24871TIP3    H175495   8.171   9.128   0.389 -1.3097  0.5477 -0.0259
24871TIP3    H275496   8.081   9.007   0.385 -3.0923  1.8801 -1.2886
24872TIP3   OH275497   3.724   7.333   2.275  0.1527 -0.3363  0.2750
24872TIP3    H175498   3.760   7.244   2.273 -1.6217 -1.0918  0.4831
24872TIP3    H275499   3.791   7.384   2.320  0.9434 -1.6876  0.6958
24873TIP3   OH275500   9.247   6.646   2.868 -0.4455 -0.5864  0.1003
24873TIP3    H175501   9.166   6.634   2.916 -0.2946 -1.1141  0.2223
24873TIP3    H275502   9.256   6.568   2.814  0.6011 -1.1063  0.9965
24874TIP3   OH275503   9.706   3.641   6.810  0.2071 -0.4887 -0.1058
24874TIP3    H175504   9.677   3.730   6.789 -2.2912 -1.1488  0.2582
24874TIP3    H275505   9.756   3.613   6.733 -2.0400 -0.0352 -1.8148
24875TIP3   OH275506   0.180   8.173   9.209  0.0881  0.2833  0.0917
24875TIP3    H175507   0.132   8.165   9.292  0.8519 -1.9777  0.3712
24875TIP3    H275508   0.114   8.204   9.147 -0.6127  1.5801  1.4105
24876TIP3   OH275509   5.694   5.473   2.936  0.3304 -0.2557  0.0692
24876TIP3    H175510   5.782   5.441   2.917  0.4981 -0.0520  0.4897
24876TIP3    H275511   5.657   5.408   2.996  0.7597  0.4433  1.1163
24877TIP3   OH275512   9.218   2.392   4.524  0.0772  0.1730 -0.0940
24877TIP3    H175513   9.265   2.340   4.589  0.1856 -0.5747 -0.7561
24877TIP3    H275514   9.129   2.396   4.556 -0.4470 -2.2343 -1.0498
24878TIP3   OH275515   4.075   6.474   4.669  0.5520 -0.1852  0.2599
24878TIP3    H175516   4.066   6.467   4.764  2.5695  1.3335  0.6256
24878TIP3    H275517   3.986   6.463   4.635 -0.7824  2.3888  2.5394
24879TIP3   OH275518   7.561   0.993   3.166 -0.4628 -0.2899 -0.3201
24879TIP3    H175519   7.638   1.000   3.109 -0.9446  0.2904 -0.9148
24879TIP3    H275520   7.515   0.916   3.134  0.8828 -1.8680  1.3283
24880TIP3   OH275521   3.254  10.195   5.390 -0.3219 -0.4993  0.7109
24880TIP3    H175522   3.268  10.289   5.374 -0.4265 -0.7022 -0.7623
24880TIP3    H275523   3.161  10.182   5.371 -1.1150 -0.3664  3.9865
24881TIP3   OH275524   6.621   1.984   5.520  0.5541 -0.0469 -0.0869
24881TIP3    H175525   6.607   1.924   5.594  0.8831 -1.1649 -0.8961
24881TIP3    H275526   6.556   1.957   5.455 -0.1750  1.3623  0.0251
24882TIP3   OH275527   6.859  10.432   6.120  0.3355 -0.1295  0.0215
24882TIP3    H175528   6.878  10.487   6.045  0.2893  0.8841  0.7419
24882TIP3    H275529   6.786  10.377   6.091  0.9594 -0.4505 -0.9989
24883TIP3   OH275530   5.956   3.462   9.829  0.1128  0.3440  0.0606
24883TIP3    H175531   5.995   3.377   9.850  0.1756  0.3922  0.1389
24883TIP3    H275532   5.872   3.440   9.788  1.6178  0.0960 -3.2337
24884TIP3   OH275533   2.446  10.582   4.142  0.3009  0.2841 -0.5065
24884TIP3    H175534   2.395  10.614   4.068 -1.0633 -0.4609  0.0882
24884TIP3    H275535   2.450  10.655   4.203 -2.3572 -0.3973  0.6173
24885TIP3   OH275536   0.845   7.032   3.479  0.1527  0.4060 -0.2217
24885TIP3    H175537   0.780   7.098   3.503 -0.6201  0.2717 -1.8122
24885TIP3    H275538   0.797   6.949   3.480  1.0748 -0.1792  1.5963
24886TIP3   OH275539   9.984   9.990   3.524 -0.3946 -0.1453  0.1031
24886TIP3    H175540  10.064   9.945   3.497 -1.1750 -1.5009 -0.0180
24886TIP3    H275541   9.968  10.054   3.455 -0.2586 -0.9282 -0.6689
24887TIP3   OH275542   7.171   5.735   9.648  0.2489  0.3952  0.1920
24887TIP3    H175543   7.088   5.718   9.603  0.4042 -1.3164  0.5083
24887TIP3    H275544   7.216   5.651   9.649  1.4087  0.9982  1.2305
24888TIP3   OH275545   4.014   0.027   0.693  0.4806  0.0897 -0.8621
24888TIP3    H175546   3.976   0.062   0.613 -0.8096  0.4256 -0.1192
24888TIP3    H275547   3.949   0.043   0.761  0.5610 -2.1736 -0.1454
24889TIP3   OH275548   2.738   6.534   3.616  0.1222  0.6720 -0.2856
24889TIP3    H175549   2.794   6.478   3.562 -1.3382 -0.8269 -0.3156
24889TIP3    H275550   2.698   6.595   3.554  0.3703  0.6053 -0.5157
24890TIP3   OH275551   0.379   2.358   3.862  0.0792 -0.6107  0.2034
24890TIP3    H175552   0.404   2.346   3.954 -0.9551 -0.8429  0.4703
24890TIP3    H275553   0.432   2.294   3.814  0.6503 -0.4648  0.6333
24891TIP3   OH275554   9.918   2.637   2.971  0.4500  0.0458  0.3661
24891TIP3    H175555   9.950   2.550   2.993  0.7291  0.2633  0.8217
24891TIP3    H275556   9.824   2.625   2.956  0.7003 -0.5839 -0.9141
24892TIP3   OH275557   8.633  10.063   8.788  0.2492  0.1972  0.3553
24892TIP3    H175558   8.651  10.115   8.867 -1.0817  1.1158  0.0838
24892TIP3    H275559   8.538  10.070   8.775  0.4621  0.2266 -1.4484
24893TIP3   OH275560   1.832   4.954   9.287 -0.1411 -0.2418 -0.0378
24893TIP3    H175561   1.891   4.986   9.355 -1.5499  0.6375  0.8341
24893TIP3    H275562   1.886   4.897   9.232  0.4863 -3.3618  3.4236
24894TIP3   OH275563   1.194   2.067   4.583  0.9020 -0.3356  0.3028
24894TIP3    H175564   1.111   2.100   4.547  2.1805  1.8315 -0.8432
24894TIP3    H275565   1.168   1.993   4.637 -1.4981 -1.9366 -2.6865
24895TIP3   OH275566   1.930   9.190   4.606 -0.0374  0.5672 -0.1286
24895TIP3    H175567   1.948   9.183   4.512 -1.4854 -0.5104 -0.3507
24895TIP3    H275568   1.978   9.117   4.645  0.9489  1.2897  0.0608
24896TIP3   OH275569   9.800   6.468   8.108  0.2572 -0.2362  0.5723
24896TIP3    H175570   9.743   6.477   8.184  0.5676  1.0507  0.6928
24896TIP3    H275571   9.756   6.519   8.040  0.3881 -0.7002  0.1429
24897TIP3   OH275572   8.128   8.015   9.991  0.4636 -0.1467 -0.8381
24897TIP3    H175573   8.113   8.001  10.085  0.3296  1.5337 -0.5813
24897TIP3    H275574   8.050   8.063   9.962  0.7612 -0.1644 -1.6823
24898TIP3   OH275575   7.976   9.613   4.026 -0.4311  0.1139  0.4139
24898TIP3    H175576   8.008   9.613   4.116 -1.5736 -0.8764  0.8479
24898TIP3    H275577   7.975   9.705   4.001  0.8081  0.3212  1.0685
24899TIP3   OH275578   4.681   9.093   0.747 -0.2002  0.1247  0.1919
24899TIP3    H175579   4.734   9.123   0.673  0.3553 -0.5104  0.3279
24899TIP3    H275580   4.710   9.148   0.820  1.6586 -1.4581  0.7212
24900TIP3   OH275581   8.440   9.968   9.984 -0.0594 -0.6437 -0.2866
24900TIP3    H175582   8.533   9.983   9.967  0.2727  0.3837  2.1093
24900TIP3    H275583   8.399   9.978   9.898  1.9826 -0.9640 -1.3859
24901TIP3   OH275584  10.531  10.420   2.867  0.2130  0.0704  0.1496
24901TIP3    H175585  10.557  10.414   2.774  1.6924 -0.5623  0.5607
24901TIP3    H275586  10.445  10.461   2.866  0.4233  0.5329 -1.4806
24902TIP3   OH275587   1.510   2.410  10.300 -0.3411  0.6048 -0.7364
24902TIP3    H175588   1.467   2.331  10.269  1.8731  0.0462 -2.6213
24902TIP3    H275589   1.573   2.380  10.365 -0.6971  1.0565 -0.1684
24903TIP3   OH275590   9.718   5.928   4.899 -0.1396  0.1749 -0.0507
24903TIP3    H175591   9.710   5.879   4.817 -2.1727 -1.8909  1.2387
24903TIP3    H275592   9.628   5.934   4.932  0.4372  2.1796  1.3795
24904TIP3   OH275593   7.417   0.293   7.271  0.6964 -0.0334 -0.1623
24904TIP3    H175594   7.410   0.227   7.341  0.1930  0.7993  0.5916
24904TIP3    H275595   7.327   0.316   7.251  0.7967 -0.8494 -1.6917
24905TIP3   OH275596   1.609   2.428   0.945 -0.1006  0.1278 -0.4772
24905TIP3    H175597   1.656   2.510   0.958  1.1230 -0.6673  0.3415
24905TIP3    H275598   1.649   2.389   0.867 -0.2920  0.0484 -0.5361
24906TIP3   OH275599   9.947   8.669   4.869  0.0953 -0.1089 -0.7035
24906TIP3    H175600   9.909   8.751   4.903  2.1973 -0.7875  4.0357
24906TIP3    H275601  10.032   8.695   4.835  0.4268 -0.2172  0.0433
24907TIP3   OH275602   8.207   2.747   9.957  0.4965 -0.0334 -0.3037
24907TIP3    H175603   8.178   2.823   9.907 -0.4623 -1.5749 -2.1814
24907TIP3    H275604   8.302   2.758   9.964  0.3590  1.3790 -0.4158
24908TIP3   OH275605   4.432   2.696   2.360 -0.3783 -0.2316 -0.2026
24908TIP3    H175606   4.347   2.712   2.401  0.0493  0.8911  0.2989
24908TIP3    H275607   4.445   2.770   2.302  0.5845 -0.0077  0.2855
24909TIP3   OH275608   9.710   3.530   5.351 -0.0090 -0.0902 -0.1653
24909TIP3    H175609   9.796   3.554   5.386 -0.3612  1.1371 -0.1215
24909TIP3    H275610   9.725   3.518   5.257  0.1870  0.2210 -0.1733
24910TIP3   OH275611   8.892   5.852   5.368 -0.0644  0.2023  0.3351
24910TIP3    H175612   8.837   5.814   5.437  0.9219 -0.1978  0.9283
24910TIP3    H275613   8.892   5.786   5.299 -1.0606  0.6049 -0.0712
24911TIP3   OH275614   3.949   1.188   3.498  0.4692  0.0816  0.5832
24911TIP3    H175615   3.913   1.147   3.577 -0.9060  1.4060  0.6954
24911TIP3    H275616   3.935   1.125   3.428  0.8566 -0.7202  1.2134
24912TIP3   OH275617   2.610   1.797   6.661  0.2001 -0.3165  0.1720
24912TIP3    H175618   2.520   1.765   6.657  0.2821 -0.4408 -0.7539
24912TIP3    H275619   2.606   1.870   6.724 -0.5512 -0.3063  0.1210
24913TIP3   OH275620  10.726   5.347   6.397  0.1416  0.7720  0.2357
24913TIP3    H175621  10.756   5.395   6.474 -0.5269  0.2972  0.8034
24913TIP3    H275622  10.792   5.279   6.383  1.0300  1.7697 -0.5019
24914TIP3   OH275623   6.518   9.874   7.197  0.3085  0.1356  0.2446
24914TIP3    H175624   6.424   9.859   7.197  0.4951 -1.1005  0.0099
24914TIP3    H275625   6.557   9.788   7.209  1.4792  0.0595 -3.0309
24915TIP3   OH275626   3.281   0.809   4.981 -0.0716  0.0588 -0.3914
24915TIP3    H175627   3.371   0.841   4.984 -0.1486  0.2488 -0.1434
24915TIP3    H275628   3.228   0.880   5.015 -0.1858 -0.5410  0.7198
24916TIP3   OH275629   2.690   2.235   4.916 -0.3743  0.3475 -0.0899
24916TIP3    H175630   2.706   2.268   4.828 -1.8016  2.5326  0.4080
24916TIP3    H275631   2.696   2.311   4.972 -2.2198 -0.4691  1.3348
24917TIP3   OH275632   1.782   1.627   8.886  0.2411  0.6753  0.1997
24917TIP3    H175633   1.843   1.579   8.830  2.0337  0.0425  2.5466
24917TIP3    H275634   1.783   1.717   8.851 -0.0977 -0.0392 -1.8109
24918TIP3   OH275635   1.257   2.965   2.302  0.3479 -0.5679 -0.0726
24918TIP3    H175636   1.210   3.048   2.295 -1.6396 -1.5934  0.2037
24918TIP3    H275637   1.333   2.985   2.355  0.3452  1.2307 -0.6657
24919TIP3   OH275638  10.324   5.777   5.497 -0.2738  0.5963 -0.3225
24919TIP3    H175639  10.409   5.734   5.505 -0.6311  0.1095  1.1223
24919TIP3    H275640  10.270   5.715   5.448 -0.0492  0.5509 -0.5174
24920TIP3   OH275641   4.088   7.502   2.112  0.3651  0.4106  0.4450
24920TIP3    H175642   4.055   7.477   2.026  2.0758 -0.1788 -0.0845
24920TIP3    H275643   4.168   7.553   2.094  0.5740  0.5680  1.6731
24921TIP3   OH275644   8.007   7.993   9.291 -0.4253 -0.5794 -0.7183
24921TIP3    H175645   8.081   8.017   9.347 -1.2405 -0.9720  0.5733
24921TIP3    H275646   8.045   7.984   9.203  0.8348  0.3282 -0.2910
24922TIP3   OH275647   7.487   5.410   0.754  0.2606  0.4910  0.0959
24922TIP3    H175648   7.512   5.323   0.783  0.5729  0.4349 -0.3319
24922TIP3    H275649   7.564   5.464   0.769  0.2406  0.5799 -0.1136
24923TIP3   OH275650   1.160   8.125  10.562 -0.2534 -0.6685 -0.7405
24923TIP3    H175651   1.178   8.217  10.581 -3.8447  0.2153 -0.9398
24923TIP3    H275652   1.133   8.088  10.646  1.1856 -1.6326 -0.6565
24924TIP3   OH275653   5.289  10.320   8.809 -0.4064 -0.0203 -0.4626
24924TIP3    H175654   5.308  10.344   8.718  1.0603 -2.3881 -0.8624
24924TIP3    H275655   5.371  10.338   8.856  0.0157 -1.9785 -0.3531
24925TIP3   OH275656   7.278   5.213   2.335 -0.5949  0.2890  0.2503
24925TIP3    H175657   7.217   5.158   2.285 -2.3502 -0.2924  2.8282
24925TIP3    H275658   7.234   5.226   2.420  1.9530  1.6612  1.4583
24926TIP3   OH275659   7.638   4.683   7.681  0.4370  0.7610 -0.6009
24926TIP3    H175660   7.710   4.696   7.743  2.2144 -1.5374 -2.0051
24926TIP3    H275661   7.644   4.757   7.620  1.8877  0.4142 -0.9072
24927TIP3   OH275662   0.036   6.975   6.827  0.8895 -0.2487  0.9514
24927TIP3    H175663   0.085   6.899   6.795  0.7961 -0.3167  0.9707
24927TIP3    H275664   0.090   7.010   6.898  1.5176  0.4066  0.1682
24928TIP3   OH275665   8.636   6.177   7.290  0.5362 -0.3718  0.1371
24928TIP3    H175666   8.728   6.203   7.294  0.6772 -0.8103 -0.1706
24928TIP3    H275667   8.587   6.259   7.298  0.9795  0.0944 -1.5893
24929TIP3   OH275668   9.740   6.991   0.672 -1.0072  1.0685 -0.1139
24929TIP3    H175669   9.829   6.987   0.707 -1.2456  2.9393  0.8138
24929TIP3    H275670   9.716   6.899   0.660  1.2943  0.5183 -1.1230
24930TIP3   OH275671  10.427   0.524   2.940 -0.4639  0.7821  0.3932
24930TIP3    H175672  10.366   0.563   2.878 -0.9742  1.8978  1.5574
24930TIP3    H275673  10.448   0.595   3.001  0.6825 -0.0519  0.9999
24931TIP3   OH275674   4.873   5.844   1.943  0.1404 -0.0033 -0.4863
24931TIP3    H175675   4.788   5.878   1.914  0.3193 -0.7039 -1.8749
24931TIP3    H275676   4.927   5.846   1.865  0.9405 -1.0394  0.0282
24932TIP3   OH275677   2.485  10.037  10.129 -0.0841 -0.7034  0.3261
24932TIP3    H175678   2.563  10.090  10.145 -0.7224  0.0217  1.1001
24932TIP3    H275679   2.439  10.034  10.213 -2.8536  2.1421 -0.8774
24933TIP3   OH275680   5.760   5.548   2.219 -0.6775 -0.2230 -0.4037
24933TIP3    H175681   5.750   5.615   2.152 -1.4126 -0.1252 -0.2057
24933TIP3    H275682   5.691   5.568   2.283 -0.4783 -0.7742 -0.0121
24934TIP3   OH275683   0.020   0.775   3.847 -0.6491  0.4703 -0.1669
24934TIP3    H175684  -0.051   0.828   3.812 -3.4593 -3.3690 -0.7897
24934TIP3    H275685   0.035   0.707   3.782  0.4628 -1.4380  1.9299
24935TIP3   OH275686   0.059   4.155   4.760  0.2158 -0.0726 -0.3876
24935TIP3    H175687   0.040   4.171   4.852 -0.9332  0.0082 -0.6179
24935TIP3    H275688   0.098   4.237   4.729  0.3297  0.0020 -0.0463
24936TIP3   OH275689  10.605   9.352   0.636  0.5612 -0.2967  0.1685
24936TIP3    H175690  10.562   9.343   0.721  1.5894  1.1910  0.8994
24936TIP3    H275691  10.698   9.363   0.658  0.6998  1.3780 -1.0351
24937TIP3   OH275692   9.716   0.163   0.080 -0.2431  0.1847 -0.5713
24937TIP3    H175693   9.739   0.070   0.085  1.0437  0.3998 -1.9588
24937TIP3    H275694   9.702   0.179  -0.014  0.6046  1.6234 -0.4828
24938TIP3   OH275695   0.048   7.033   3.241  0.7968 -0.2449  0.0026
24938TIP3    H175696   0.073   7.020   3.150  0.4461  0.4290 -0.1919
24938TIP3    H275697   0.116   7.090   3.277  0.0683  0.8211 -0.2773
24939TIP3   OH275698   0.755   0.012  10.212 -0.3914  0.2816  0.7140
24939TIP3    H175699   0.824  -0.047  10.243  1.4373  1.2649 -1.2369
24939TIP3    H275700   0.789   0.100  10.229  0.1752  0.8527 -2.6998
24940TIP3   OH275701   8.442   8.988   7.842  0.1026 -0.0878  0.6182
24940TIP3    H175702   8.485   9.059   7.795 -2.3106  1.5949  0.7959
24940TIP3    H275703   8.510   8.952   7.899  1.9619  0.6026 -1.0753
24941TIP3   OH275704   1.288   8.725  10.864 -0.2442  0.1117  0.0097
24941TIP3    H175705   1.333   8.782  10.927 -0.8477 -0.0586  0.5972
24941TIP3    H275706   1.251   8.655  10.917  1.5179 -1.5448 -0.8170
24942TIP3   OH275707   1.017   9.692   4.003  0.8452 -0.6755  0.3062
24942TIP3    H175708   0.964   9.629   4.052 -1.0112  2.2833  2.4579
24942TIP3    H275709   1.092   9.709   4.060 -0.4022  1.4394  1.4483
24943TIP3   OH275710   9.519   8.855  10.255 -0.3622 -0.2052 -0.1770
24943TIP3    H175711   9.601   8.898  10.279 -1.8719  2.2235  1.0907
24943TIP3    H275712   9.532   8.763  10.279  1.8178  0.1908  0.3673
24944TIP3   OH275713   3.820   6.570   1.578  0.1853 -0.6197  0.0414
24944TIP3    H175714   3.732   6.590   1.549  0.0322 -1.0186  0.2159
24944TIP3    H275715   3.812   6.484   1.621  0.4588 -0.1867  0.9833
24945TIP3   OH275716   7.774   7.842   0.876  0.1178  0.1482 -0.7249
24945TIP3    H175717   7.747   7.859   0.786 -0.0818 -0.8141 -0.8530
24945TIP3    H275718   7.761   7.748   0.888 -0.5698  0.3746  0.5410
24946TIP3   OH275719  10.000   6.039   8.644  0.6347 -0.4760 -0.2647
24946TIP3    H175720  10.023   6.053   8.552 -0.7068  0.0570 -0.5396
24946TIP3    H275721   9.959   5.953   8.646  0.7214 -0.5154 -0.1501
24947TIP3   OH275722   7.226   9.533   7.424 -0.5020  0.0372  0.1337
24947TIP3    H175723   7.301   9.475   7.440  1.4369  2.6576  1.1054
24947TIP3    H275724   7.229   9.550   7.330  0.1884  0.2171  0.1855
24948TIP3   OH275725   4.036   4.844   8.110  0.2681 -0.2881 -0.0715
24948TIP3    H175726   3.971   4.876   8.048  1.3145  1.5093 -0.3122
24948TIP3    H275727   4.119   4.881   8.080  1.4638 -2.5090  0.2068
24949TIP3   OH275728   3.205   6.650  10.631  0.2283  0.5023 -0.0737
24949TIP3    H175729   3.289   6.679  10.595 -0.1705  1.1799 -0.4726
24949TIP3    H275730   3.223   6.634  10.724  1.1184 -0.6690 -0.4195
24950TIP3   OH275731   2.139   2.894   3.902 -0.4751  0.4044  0.1330
24950TIP3    H175732   2.078   2.880   3.829  0.4836 -0.6758 -0.5010
24950TIP3    H275733   2.129   2.986   3.925  0.6433  1.3438 -2.7190
24951TIP3   OH275734   1.573   7.251   3.842 -0.2851 -0.2887  0.4159
24951TIP3    H175735   1.590   7.315   3.912 -2.5010  0.0566  0.7146
24951TIP3    H275736   1.505   7.194   3.878  0.0551 -1.4282 -0.6916
24952TIP3   OH275737   3.621   1.981   0.365  0.2366  0.4872 -0.2849
24952TIP3    H175738   3.645   2.049   0.302 -1.3676  0.8702 -0.5057
24952TIP3    H275739   3.637   2.021   0.450  1.5153  0.2963 -0.4093
24953TIP3   OH275740   6.397   8.332   7.492 -0.1717  0.0732  0.1779
24953TIP3    H175741   6.357   8.260   7.541 -1.4790  0.4571 -0.2580
24953TIP3    H275742   6.453   8.377   7.555  0.8326 -1.4257  0.4016
24954TIP3   OH275743  10.407   4.959   3.719  0.4554 -0.4894  0.0681
24954TIP3    H175744  10.422   4.898   3.647  2.3097 -0.2883  0.2274
24954TIP3    H275745  10.464   5.033   3.700 -0.3497  0.3598  0.8575
24955TIP3   OH275746   4.538   4.060   7.232  0.0066  0.3937  0.1127
24955TIP3    H175747   4.524   4.033   7.323  1.1430 -3.6816 -0.7138
24955TIP3    H275748   4.631   4.082   7.228 -0.0429  0.5714 -0.0334
24956TIP3   OH275749  10.309   9.220   4.629  0.7712  0.3740 -0.9277
24956TIP3    H175750  10.289   9.130   4.602  0.3897  0.1124  0.1544
24956TIP3    H275751  10.374   9.210   4.699  0.7925  0.9521 -0.8589
24957TIP3   OH275752   1.917   4.990   0.377  0.1955 -0.1787  0.4145
24957TIP3    H175753   1.875   4.906   0.359  2.0745 -1.1485  0.3237
24957TIP3    H275754   1.919   4.995   0.473  0.7966 -0.6212  0.4272
24958TIP3   OH275755   8.678   5.422   6.268  0.4810  0.8553  0.0352
24958TIP3    H175756   8.598   5.418   6.320  1.3221 -0.6646  1.3048
24958TIP3    H275757   8.737   5.476   6.321  0.6572  1.0613 -0.3698
24959TIP3   OH275758   5.585   3.847   9.750 -0.6760  0.5141 -0.3309
24959TIP3    H175759   5.597   3.887   9.664 -0.4765  1.2995  0.0528
24959TIP3    H275760   5.668   3.863   9.795  0.2659 -2.2821 -0.9172
24960TIP3   OH275761   9.483   3.473   8.394  0.1321  0.5367 -0.2137
24960TIP3    H175762   9.438   3.554   8.369 -1.4979 -0.6314 -1.2585
24960TIP3    H275763   9.526   3.444   8.313  1.2694  0.6799  0.3250
24961TIP3   OH275764   4.168   2.422   8.425  0.2103  0.2568  0.3032
24961TIP3    H175765   4.093   2.399   8.370 -1.1384  1.3583  1.6347
24961TIP3    H275766   4.197   2.507   8.391  1.1441 -0.3349 -0.4516
24962TIP3   OH275767   7.071   9.333   2.755  0.1735  0.1355  0.0144
24962TIP3    H175768   7.038   9.423   2.753 -1.9400 -0.5973 -0.3971
24962TIP3    H275769   7.023   9.291   2.826  0.4288 -0.9187 -0.4136
24963TIP3   OH275770  10.313   8.895   8.780 -0.0430 -0.0339  0.6570
24963TIP3    H175771  10.396   8.897   8.827  0.2291  1.5613  0.1771
24963TIP3    H275772  10.246   8.887   8.848  0.4227  0.4667  1.1740
24964TIP3   OH275773   6.639   9.541   2.459 -0.0392 -0.5777  0.1496
24964TIP3    H175774   6.583   9.619   2.455  0.6636  0.5243  4.9577
24964TIP3    H275775   6.586   9.476   2.505  0.8189 -1.4037 -0.0026
24965TIP3   OH275776   4.664   8.105   5.891  0.0067 -0.3716 -0.3181
24965TIP3    H175777   4.589   8.164   5.883 -1.1364 -1.3934  1.9295
24965TIP3    H275778   4.686   8.081   5.801 -2.3466 -0.0067 -1.0609
24966TIP3   OH275779   7.589   7.346  10.394 -0.1334 -0.1667 -0.2177
24966TIP3    H175780   7.657   7.399  10.352  0.9895 -0.4297  1.1764
24966TIP3    H275781   7.508   7.395  10.381  0.5763  0.9430 -0.5898
24967TIP3   OH275782   9.282   7.794   9.976  0.2334 -0.1223 -0.1297
24967TIP3    H175783   9.361   7.772  10.025  0.9938  0.7298 -0.9394
24967TIP3    H275784   9.247   7.709   9.949  1.8881 -0.4867 -1.3020
24968TIP3   OH275785   3.488   6.411   4.023  0.2584 -0.0058 -0.1733
24968TIP3    H175786   3.462   6.319   4.035  2.0748 -0.5745 -0.4131
24968TIP3    H275787   3.416   6.461   4.064 -1.4828 -1.4521 -1.3023
24969TIP3   OH275788   3.514   9.415   8.545  0.0552  0.0543  0.0202
24969TIP3    H175789   3.576   9.474   8.589 -0.3747  0.2363  0.3876
24969TIP3    H275790   3.490   9.462   8.465  1.0863 -0.4195 -0.5890
24970TIP3   OH275791   1.672   6.474   4.119 -0.5045 -0.3810  0.1055
24970TIP3    H175792   1.619   6.394   4.113  0.4460 -0.9774 -0.6332
24970TIP3    H275793   1.677   6.492   4.213 -0.4482 -1.3995  0.3165
24971TIP3   OH275794   6.542   4.390   1.447 -0.3605 -0.1311  0.5563
24971TIP3    H175795   6.605   4.440   1.396  0.1556 -1.5106 -0.2292
24971TIP3    H275796   6.475   4.453   1.472  0.2869  0.9414 -0.3315
24972TIP3   OH275797   0.946   2.350   2.273  0.4414 -0.1388  0.2437
24972TIP3    H175798   0.889   2.306   2.210  0.2634 -0.1348  0.3999
24972TIP3    H275799   0.927   2.443   2.262  1.2013 -0.0644 -0.4540
24973TIP3   OH275800   5.483   4.663   4.094 -0.0255 -0.2014 -0.1265
24973TIP3    H175801   5.567   4.685   4.135  0.4412  0.3796 -1.3407
24973TIP3    H275802   5.426   4.737   4.115  0.0982 -0.0807 -0.2137
24974TIP3   OH275803   9.969   8.870   7.940  0.4005 -0.5319 -0.1629
24974TIP3    H175804  10.043   8.809   7.936  0.1028 -0.8908 -0.3065
24974TIP3    H275805  10.009   8.956   7.932  0.6203 -0.7950 -2.6481
24975TIP3   OH275806   2.082   0.228  10.208  0.2821 -0.5056  0.1727
24975TIP3    H175807   2.019   0.160  10.187 -1.4085  0.3960  1.9592
24975TIP3    H275808   2.115   0.204  10.295 -0.4235  0.9552  0.8778
24976TIP3   OH275809   9.990   6.436   0.197  0.0240 -0.0471  0.2896
24976TIP3    H175810  10.011   6.353   0.240  1.5219 -0.0298 -0.3209
24976TIP3    H275811   9.895   6.437   0.191 -0.2240 -0.4447  2.7754
24977TIP3   OH275812   6.026   8.301   2.258  0.4073 -0.4046 -0.0692
24977TIP3    H175813   5.941   8.258   2.268 -0.5348  1.6685  1.6603
24977TIP3    H275814   6.024   8.338   2.170 -0.2648 -0.7996 -0.2296
24978TIP3   OH275815   5.838  10.454   3.418  0.4023 -0.3118  0.5652
24978TIP3    H175816   5.871  10.378   3.466 -0.0875 -1.1508 -0.3739
24978TIP3    H275817   5.784  10.501   3.481  1.4621 -0.2183  1.4319
24979TIP3   OH275818   4.892  10.051   0.071 -0.0141 -0.3878 -0.4088
24979TIP3    H175819   4.880  10.054  -0.024  0.1450  0.1568 -0.4156
24979TIP3    H275820   4.984  10.073   0.085  0.5342 -2.5361 -0.2373
24980TIP3   OH275821   1.561   4.125   3.369 -0.1500 -0.2373  0.4352
24980TIP3    H175822   1.471   4.157   3.374  0.2395  0.7374  2.0193
24980TIP3    H275823   1.593   4.156   3.284 -1.2908 -0.5805 -0.1277
24981TIP3   OH275824   8.915   3.459   3.219  0.0588  0.6480 -0.2796
24981TIP3    H175825   8.829   3.472   3.178  0.0417  2.6543  0.2851
24981TIP3    H275826   8.903   3.384   3.278 -0.8103 -0.1615 -1.4346
24982TIP3   OH275827   4.562   8.719   5.196 -0.4115 -0.4430 -0.3940
24982TIP3    H175828   4.508   8.749   5.269  0.0376 -1.2602  0.2883
24982TIP3    H275829   4.620   8.653   5.234  1.7329  1.0493 -0.8783
24983TIP3   OH275830   8.506   7.465   7.529  0.7945  0.1477  1.1454
24983TIP3    H175831   8.522   7.425   7.443 -1.5206 -0.7484  1.0564
24983TIP3    H275832   8.447   7.538   7.511 -2.1603 -1.7868  2.1193
24984TIP3   OH275833   4.637   4.405   8.109 -0.3836  0.6216  0.5779
24984TIP3    H175834   4.701   4.466   8.147  2.1616  0.2798 -2.6049
24984TIP3    H275835   4.612   4.447   8.026 -1.8813 -0.7454  0.3069
24985TIP3   OH275836   2.268   9.153   9.475  0.0380  0.4625 -0.7831
24985TIP3    H175837   2.274   9.224   9.410 -2.6732 -0.7338 -2.5360
24985TIP3    H275838   2.283   9.073   9.424 -0.2306 -0.4142  0.4844
24986TIP3   OH275839   7.269   0.046   6.743  0.0811  0.5618  0.4989
24986TIP3    H175840   7.340  -0.002   6.701  0.4315  1.6119 -0.1560
24986TIP3    H275841   7.313   0.103   6.807 -0.3853 -0.4742  1.7968
24987TIP3   OH275842   9.468  10.097   1.492  1.1600 -0.4141 -0.3169
24987TIP3    H175843   9.428  10.182   1.511  0.8413 -0.8753  1.1833
24987TIP3    H275844   9.532  10.116   1.423 -1.7325  0.3172 -3.0462
24988TIP3   OH275845   0.498   4.667   1.323  0.1964  0.1657  0.4755
24988TIP3    H175846   0.542   4.611   1.387  0.6261  0.6596  0.6147
24988TIP3    H275847   0.543   4.751   1.329  1.1625 -0.1381 -1.4157
24989TIP3   OH275848  10.413   3.828   6.191 -0.3642 -0.2507  0.7330
24989TIP3    H175849  10.320   3.848   6.201 -0.2201  1.1767 -0.4994
24989TIP3    H275850  10.414   3.737   6.161 -1.3922 -0.1603  0.3725
24990TIP3   OH275851   9.993   4.954   8.019 -0.5600 -0.7335  0.1072
24990TIP3    H175852  10.024   4.889   7.956 -1.8210 -0.6844 -0.5963
24990TIP3    H275853  10.039   4.933   8.101  0.4936 -1.2944 -0.6133
24991TIP3   OH275854   1.155   4.294   4.618 -0.0481  0.0355 -0.2638
24991TIP3    H175855   1.168   4.317   4.710  0.5980  2.2209 -0.8442
24991TIP3    H275856   1.186   4.204   4.611 -0.6587 -0.3766  1.7571
24992TIP3   OH275857   2.303   6.089   2.315  0.6344  0.1900 -0.1264
24992TIP3    H175858   2.309   6.069   2.221  1.5453  0.3131 -0.1049
24992TIP3    H275859   2.364   6.028   2.356  0.5890  0.4587  0.3385
24993TIP3   OH275860   3.477   1.005   6.513 -0.3298  0.8010  0.7514
24993TIP3    H175861   3.398   1.046   6.478 -0.2592 -1.2604 -2.2026
24993TIP3    H275862   3.543   1.016   6.444  1.0637 -0.0800  1.8890
24994TIP3   OH275863   4.835   3.679   4.067 -0.3498  0.0423  0.2131
24994TIP3    H175864   4.817   3.701   4.158 -0.5961  0.6164  0.0325
24994TIP3    H275865   4.758   3.629   4.039 -0.2368 -0.2072  0.3354
24995TIP3   OH275866   9.596   9.154   0.613 -0.7368 -0.0063  0.1510
24995TIP3    H175867   9.631   9.069   0.641 -1.9698 -0.8489 -0.7987
24995TIP3    H275868   9.634   9.168   0.526  0.8831  1.3028  1.0081
24996TIP3   OH275869   4.308   5.580   4.668  0.3694  0.2815  0.3618
24996TIP3    H175870   4.298   5.615   4.580 -1.6188  0.2221  0.5040
24996TIP3    H275871   4.369   5.507   4.658  0.4024  0.4615 -0.9110
24997TIP3   OH275872   9.490   2.044   2.804 -0.3768  0.0675 -0.1630
24997TIP3    H175873   9.469   1.951   2.800 -1.2752  0.3156 -1.8978
24997TIP3    H275874   9.573   2.052   2.757  0.8548 -0.1159  1.8592
24998TIP3   OH275875   1.946   0.710   1.396 -0.2028 -0.6537  0.5155
24998TIP3    H175876   1.959   0.645   1.465  0.7864 -0.5539  0.4372
24998TIP3    H275877   2.013   0.777   1.413  0.4917 -0.9468 -0.8933
24999TIP3   OH275878   4.254   0.440   1.546 -0.2081 -0.2658 -0.3378
24999TIP3    H175879   4.166   0.404   1.553 -0.3920  0.4132  1.3624
24999TIP3    H275880   4.284   0.446   1.636  0.5118  2.0635 -0.6775
25000TIP3   OH275881   6.030   0.769   9.729  0.3096 -0.3253  0.0438
25000TIP3    H175882   5.992   0.697   9.779  1.1625 -0.9783 -0.2111
25000TIP3    H275883   5.956   0.826   9.709 -0.3464 -1.0002  0.4771
25001TIP3   OH275884   6.093   8.690   7.053  0.3418  0.2217 -0.8060
25001TIP3    H175885   6.023   8.684   7.118  0.6104  1.1847 -0.4065
25001TIP3    H275886   6.135   8.604   7.055  1.2918  0.6533  1.4386
25002TIP3   OH275887   3.581   7.142   9.907  0.7015 -0.5448  0.0252
25002TIP3    H175888   3.527   7.170   9.981 -0.3219  0.6459 -1.1242
25002TIP3    H275889   3.644   7.213   9.895 -0.3691  0.2268 -1.4034
25003TIP3   OH275890   7.524   3.786   2.587 -0.6586 -0.9697  0.1563
25003TIP3    H175891   7.483   3.758   2.505 -0.4638 -2.4736  0.5537
25003TIP3    H275892   7.454   3.832   2.634  0.0864  3.1685 -2.2749
25004TIP3   OH275893   8.650   0.514   3.882  0.1563 -0.5512 -0.3452
25004TIP3    H175894   8.585   0.584   3.888  2.1367  1.2966  2.3562
25004TIP3    H275895   8.669   0.507   3.789 -0.6535  2.0447 -0.8154
25005TIP3   OH275896  10.397   2.576   9.361  0.3075 -0.2250  0.7462
25005TIP3    H175897  10.417   2.535   9.445 -0.8619  1.5715  1.9513
25005TIP3    H275898  10.463   2.645   9.352  0.2341 -0.2078  0.3259
25006TIP3   OH275899   5.998   9.582   2.793  0.2477 -0.1621 -0.1765
25006TIP3    H175900   5.932   9.590   2.724  0.5161 -1.8642 -0.6738
25006TIP3    H275901   5.947   9.575   2.874 -0.1566 -0.3666 -0.4461
25007TIP3   OH275902  10.266   2.305   3.269  0.6222  0.1585 -0.2407
25007TIP3    H175903  10.191   2.270   3.318  0.1330  1.7173  0.1786
25007TIP3    H275904  10.283   2.390   3.309  2.4258 -0.0220 -0.5491
25008TIP3   OH275905   6.008   4.377   0.350  0.1729  0.1622 -0.6287
25008TIP3    H175906   5.931   4.330   0.319  0.7641 -0.8800 -0.5793
25008TIP3    H275907   6.037   4.327   0.427  0.1542  1.2890  0.1382
25009TIP3   OH275908   4.308   9.286   6.968  0.0086  0.0086 -0.0334
25009TIP3    H175909   4.285   9.358   6.909  0.8088 -0.7373 -1.3092
25009TIP3    H275910   4.301   9.324   7.055  1.1668  1.9055 -0.6846
25010TIP3   OH275911   8.218  10.388   5.166  0.6358  0.3541  0.6670
25010TIP3    H175912   8.269  10.378   5.247 -0.0225 -2.0617  0.8494
25010TIP3    H275913   8.168  10.307   5.159 -2.1985  2.0671 -0.2229
25011TIP3   OH275914   9.641  10.365   4.790  0.7393  0.1071 -0.3195
25011TIP3    H175915   9.725  10.320   4.783  0.2443 -1.0891  0.9460
25011TIP3    H275916   9.650  10.421   4.868  0.8504  1.1187 -1.0405
25012TIP3   OH275917   6.272   6.128   8.013 -0.2891  0.3194 -1.1000
25012TIP3    H175918   6.232   6.209   7.983 -1.6501  0.0395 -0.1318
25012TIP3    H275919   6.319   6.094   7.937  0.9386  2.3688 -1.3230
25013TIP3   OH275920   2.666   6.264   2.673  0.3960  0.0067 -0.0129
25013TIP3    H175921   2.636   6.330   2.610 -1.2593 -0.0977  0.6305
25013TIP3    H275922   2.753   6.240   2.641 -0.3296  0.0265 -2.2252
25014TIP3   OH275923   8.447   4.190   6.375  0.7101 -0.1772 -0.1206
25014TIP3    H175924   8.495   4.135   6.436  0.6882 -0.1776 -0.1041
25014TIP3    H275925   8.428   4.270   6.424 -0.8637 -0.8635  0.4675
25015TIP3   OH275926   8.234   6.113  10.832  0.2328  0.1424 -0.3372
25015TIP3    H175927   8.298   6.065  10.884 -0.3391 -1.2323 -0.8525
25015TIP3    H275928   8.254   6.206  10.848  1.9028 -0.2482  0.0335
25016TIP3   OH275929   8.306   7.052   4.773 -0.1515  0.1051  0.7245
25016TIP3    H175930   8.259   7.125   4.734  2.0446  1.9874  1.4050
25016TIP3    H275931   8.310   7.072   4.867 -0.9336 -1.7586  1.2130
25017TIP3   OH275932   3.165   0.586   5.649 -0.2346 -0.0613  0.5389
25017TIP3    H175933   3.171   0.506   5.701 -1.1240  0.7301  1.9082
25017TIP3    H275934   3.082   0.626   5.675  0.1965  1.3195 -0.0963
25018TIP3   OH275935   1.909   1.852  10.409 -0.1803 -0.2264 -0.1903
25018TIP3    H175936   1.967   1.925  10.429  0.6100 -1.0244  0.4910
25018TIP3    H275937   1.843   1.889  10.350 -0.1759  1.1869  0.6570
25019TIP3   OH275938   9.686   8.248   0.689 -0.1164  0.2452  0.8245
25019TIP3    H175939   9.720   8.338   0.696  0.0264  0.2373  0.2446
25019TIP3    H275940   9.608   8.256   0.634  0.2996 -0.0862  0.1760
25020TIP3   OH275941   9.410   2.288  10.656  0.3706  0.6517  0.0079
25020TIP3    H175942   9.425   2.247  10.742 -1.3529  1.5208  0.7688
25020TIP3    H275943   9.418   2.381  10.673 -0.4384  0.8533 -0.6636
25021TIP3   OH275944   2.200   9.100   8.182  0.3236  0.2522 -0.6457
25021TIP3    H175945   2.169   9.071   8.096 -2.0849  0.3967  0.0987
25021TIP3    H275946   2.203   9.195   8.175  1.7506  0.2025 -1.0378
25022TIP3   OH275947   9.725   8.344  10.700  0.6345 -0.1501  0.2087
25022TIP3    H175948   9.714   8.386  10.786 -1.7000 -0.4822  0.1323
25022TIP3    H275949   9.663   8.272  10.701 -0.4431  0.6506 -2.2437
25023TIP3   OH275950   2.748   3.211   4.581 -0.3616  0.1347  0.1348
25023TIP3    H175951   2.792   3.203   4.496 -0.5454 -2.2992  0.1928
25023TIP3    H275952   2.656   3.222   4.558 -0.1835  1.6628  0.0449
25024TIP3   OH275953   1.472   8.929   3.202 -0.0894  0.5455 -0.0522
25024TIP3    H175954   1.535   8.857   3.194  0.0168  0.6379 -0.0422
25024TIP3    H275955   1.387   8.887   3.190 -0.1815  0.0598  1.9390
25025TIP3   OH275956   5.708   1.973   3.163  0.0084  0.5854  0.3058
25025TIP3    H175957   5.799   1.962   3.191  0.1031  1.3586  0.3308
25025TIP3    H275958   5.686   1.891   3.119 -0.0600 -0.5865  2.3788
25026TIP3   OH275959   9.526   6.806   7.322 -0.6069  0.2098  0.5297
25026TIP3    H175960   9.579   6.882   7.346 -1.3313  0.5612  1.0670
25026TIP3    H275961   9.581   6.730   7.342 -0.2342  0.5703  0.8837
25027TIP3   OH275962   8.778   6.717   8.774 -0.4511 -0.0731  0.2358
25027TIP3    H175963   8.763   6.758   8.859 -1.6943 -1.3491  0.6749
25027TIP3    H275964   8.767   6.623   8.790 -0.1479 -0.3811 -1.2168
25028TIP3   OH275965   1.156   0.379   7.342 -0.2607 -0.4109 -0.1305
25028TIP3    H175966   1.105   0.342   7.415  1.4628 -1.4589  0.6073
25028TIP3    H275967   1.210   0.447   7.383  0.8607 -1.1354 -0.3663
25029TIP3   OH275968   6.462   6.762   0.420  0.7566 -0.2407  0.0102
25029TIP3    H175969   6.537   6.707   0.396 -0.7737 -2.2222 -0.5111
25029TIP3    H275970   6.415   6.777   0.338  0.6781  1.1907  0.2820
25030TIP3   OH275971   0.559   0.100   7.990 -0.0667 -0.0320 -0.1095
25030TIP3    H175972   0.612   0.158   8.045 -3.1525  1.2222  1.8432
25030TIP3    H275973   0.469   0.128   8.006 -1.4840 -2.9368 -2.0738
25031TIP3   OH275974   1.375  10.039   6.627  0.0247 -0.5130 -0.2751
25031TIP3    H175975   1.384  10.127   6.591 -1.3479 -1.4749 -3.3914
25031TIP3    H275976   1.324   9.992   6.561  0.5366 -3.6081  1.3459
25032TIP3   OH275977  10.813   0.649   3.339 -0.5069 -0.4479  0.1568
25032TIP3    H175978  10.722   0.676   3.348 -0.1050  0.4963  1.7929
25032TIP3    H275979  10.814   0.595   3.260 -1.9552  1.7077 -1.4579
25033TIP3   OH275980   3.928   7.007   1.376 -1.4524 -0.0726 -0.0600
25033TIP3    H175981   3.884   7.088   1.402 -1.5496 -0.6801  1.8190
25033TIP3    H275982   4.012   7.035   1.342 -2.2243  0.9327 -1.2217
25034TIP3   OH275983   8.262   7.528   4.356  0.4201 -0.4278  0.4813
25034TIP3    H175984   8.353   7.556   4.348  0.4024  0.6554  3.0317
25034TIP3    H275985   8.257   7.488   4.443 -1.9992  1.7400  1.4909
25035TIP3   OH275986   8.318   4.795   8.753 -0.9369 -0.7836 -0.3507
25035TIP3    H175987   8.293   4.804   8.845 -1.0946 -0.6962 -0.4014
25035TIP3    H275988   8.383   4.726   8.752  0.7762  0.7487  0.1335
25036TIP3   OH275989   6.694   6.957   8.975 -0.0882  0.2413 -0.3675
25036TIP3    H175990   6.716   7.049   8.959  1.1912  0.1162  0.5347
25036TIP3    H275991   6.734   6.910   8.901  0.3688  0.2934 -0.1598
25037TIP3   OH275992   6.063   0.911   8.988 -0.6428 -0.4700 -0.0495
25037TIP3    H175993   6.065   0.849   8.915  0.1266  0.6639 -1.0241
25037TIP3    H275994   6.107   0.865   9.059 -1.1253 -1.4807 -0.3865
25038TIP3   OH275995   1.639   1.441   7.776  0.4253 -0.1740  0.0973
25038TIP3    H175996   1.639   1.469   7.685  0.0323  0.6056  0.3325
25038TIP3    H275997   1.567   1.490   7.817  0.2640 -0.8890  0.7112
25039TIP3   OH275998   2.763   3.747   5.885  0.5920  0.6394 -1.0957
25039TIP3    H175999   2.800   3.783   5.966 -0.4261 -0.7581  0.0571
25039TIP3    H276000   2.696   3.810   5.859 -1.6112 -0.5159  1.2382
25040TIP3   OH276001   7.515   4.545   7.034  0.8037 -0.3644  0.4140
25040TIP3    H176002   7.460   4.561   6.957  1.8235 -0.1239 -0.2836
25040TIP3    H276003   7.453   4.521   7.103 -0.2370  0.6049 -0.1524
25041TIP3   OH276004   6.302   3.404   0.719 -0.0032  0.2135  0.3034
25041TIP3    H176005   6.352   3.393   0.638 -0.8430 -0.5882 -0.1266
25041TIP3    H276006   6.217   3.365   0.700 -0.4369  0.6135  1.3633
25042TIP3   OH276007   9.646   4.346   5.020  0.4985  0.3695 -0.2879
25042TIP3    H176008   9.577   4.412   5.025  0.7234  0.6112 -0.3295
25042TIP3    H276009   9.643   4.315   4.930 -0.6820 -0.8564  0.1387
25043TIP3   OH276010   8.026   3.928   8.515 -0.7063  0.0235  0.0563
25043TIP3    H176011   8.061   4.008   8.554 -0.7197  0.2098 -0.3170
25043TIP3    H276012   8.085   3.907   8.443  0.4161 -1.3647  1.3057
25044TIP3   OH276013   3.770   3.451   4.143 -0.0371 -0.0574 -0.2689
25044TIP3    H176014   3.815   3.415   4.066 -0.0767  0.3869 -0.5053
25044TIP3    H276015   3.766   3.378   4.205  3.0300  0.4239  0.6845
25045TIP3   OH276016   8.908  10.872   7.294 -0.5275 -0.2188  0.4321
25045TIP3    H176017   8.863  10.928   7.357  1.0253  0.4285  1.0345
25045TIP3    H276018   8.936  10.932   7.224 -2.5187 -0.9828 -1.1109
25046TIP3   OH276019   4.807   9.181   3.320  0.6170  0.2696 -0.4975
25046TIP3    H176020   4.884   9.218   3.363  0.0200  0.4000  0.4920
25046TIP3    H276021   4.801   9.092   3.353  0.0155  0.4474 -0.1155
25047TIP3   OH276022   6.074   0.962   7.216 -0.6910 -0.5936  0.3374
25047TIP3    H176023   6.164   0.949   7.188 -0.6753 -0.3371  0.2638
25047TIP3    H276024   6.064   1.057   7.220 -0.8220 -0.6230  0.7791
25048TIP3   OH276025   2.826   3.013   4.016 -0.2110  0.7173 -0.3089
25048TIP3    H176026   2.888   3.016   3.942  0.0657  1.6262 -0.0545
25048TIP3    H276027   2.872   3.057   4.087 -1.3179  1.8190 -0.2450
25049TIP3   OH276028   1.806   6.002   3.219 -0.3722 -0.0451 -0.3588
25049TIP3    H176029   1.818   5.909   3.199 -5.4426 -1.0361 -0.0644
25049TIP3    H276030   1.803   6.045   3.133  0.7195 -0.3265 -0.5512
25050TIP3   OH276031   6.022   1.190   4.737 -0.4896  0.3183 -0.0271
25050TIP3    H176032   6.096   1.242   4.769 -1.3887  1.4867  0.2309
25050TIP3    H276033   5.951   1.253   4.728 -1.4088 -0.7475 -0.4526
25051TIP3   OH276034   2.587   7.747   8.356  0.2069  0.1811  0.4176
25051TIP3    H176035   2.631   7.799   8.423  1.8016 -2.9413  2.0308
25051TIP3    H276036   2.659   7.704   8.308 -0.9740  0.7782 -2.0473
25052TIP3   OH276037   4.868   7.813   7.279 -0.1876  0.1106  0.2979
25052TIP3    H176038   4.845   7.872   7.351 -0.0282  0.1478  0.3197
25052TIP3    H276039   4.786   7.799   7.232  0.0862  1.6761 -0.7094
25053TIP3   OH276040   5.168   4.335   2.325  0.0908 -0.2743  0.3894
25053TIP3    H176041   5.123   4.375   2.400  1.8083  0.0243  1.3035
25053TIP3    H276042   5.261   4.351   2.341  0.5845 -1.3076 -1.1891
25054TIP3   OH276043   1.219   6.576   7.580 -0.7213 -0.1088 -0.5395
25054TIP3    H176044   1.266   6.524   7.646 -1.6753  0.1104  0.3472
25054TIP3    H276045   1.149   6.519   7.550 -0.2713 -0.2155 -1.4020
25055TIP3   OH276046   2.701   4.199   3.345 -0.2952 -0.1886  0.5638
25055TIP3    H176047   2.775   4.237   3.393 -0.1515  0.0153  0.1798
25055TIP3    H276048   2.723   4.106   3.339 -2.0116 -1.0034  4.0948
25056TIP3   OH276049   9.146   1.092   2.861 -0.5495 -0.3636 -0.5943
25056TIP3    H176050   9.210   1.082   2.932 -1.1412  0.0369 -0.0015
25056TIP3    H276051   9.091   1.165   2.888  0.9317  1.6886 -2.7669
25057TIP3   OH276052   2.053   1.019   3.647  0.1692  0.3526  0.3346
25057TIP3    H176053   1.998   1.094   3.627  1.1021  0.2843 -3.0727
25057TIP3    H276054   2.007   0.943   3.611  0.6861 -0.2659  0.9300
25058TIP3   OH276055   3.063   3.438   1.556 -0.0185 -0.8822 -0.0006
25058TIP3    H176056   3.010   3.505   1.599  0.2535 -0.5867 -0.1240
25058TIP3    H276057   3.135   3.486   1.516  0.8232 -1.3632  0.8872
25059TIP3   OH276058   5.469   9.995   8.904 -0.6655  0.0784  0.7563
25059TIP3    H176059   5.381   9.961   8.892 -1.0110  0.8699  0.9991
25059TIP3    H276060   5.494  10.028   8.818  0.8297 -3.3344 -0.3007
25060TIP3   OH276061   6.496   0.678  10.440 -0.3070  0.0445 -0.5175
25060TIP3    H176062   6.442   0.599  10.436 -0.8604  0.4551 -1.8751
25060TIP3    H276063   6.436   0.747  10.468 -0.2264  0.2850 -0.9255
25061TIP3   OH276064   8.823   3.579   5.496 -0.0172  1.2012  0.1332
25061TIP3    H176065   8.777   3.651   5.540 -0.8110 -0.1942  1.6777
25061TIP3    H276066   8.774   3.501   5.519  1.2636  0.0485 -0.8750
25062TIP3   OH276067   6.908   5.509   4.818  0.1099  0.5756 -0.0715
25062TIP3    H176068   6.820   5.490   4.787  0.1906  0.1674 -0.0610
25062TIP3    H276069   6.933   5.590   4.773 -0.7206  1.3562  0.8405
25063TIP3   OH276070   3.656   5.751   1.755 -0.1406  0.3178 -0.0624
25063TIP3    H176071   3.698   5.835   1.774  2.6135 -0.9590 -0.0851
25063TIP3    H276072   3.648   5.749   1.660 -1.6404  1.1356  0.0122
25064TIP3   OH276073   3.615   0.940   2.619 -0.1289 -0.6831 -0.1491
25064TIP3    H176074   3.607   0.861   2.673  1.0200  0.0794  1.1908
25064TIP3    H276075   3.573   1.009   2.670  2.0764  0.3135  0.4240
25065TIP3   OH276076   4.410   1.054   8.035  0.0006 -0.0515  0.3102
25065TIP3    H176077   4.492   1.067   7.988  1.2374 -0.4849  2.2020
25065TIP3    H276078   4.401   0.959   8.043 -0.8501 -0.0168 -0.1337
25066TIP3   OH276079   8.656   6.733   5.715  0.4023  0.3117 -0.4576
25066TIP3    H176080   8.598   6.708   5.642  0.4393 -0.7413 -0.1451
25066TIP3    H276081   8.638   6.668   5.783 -0.3467  1.8441  0.8791
25067TIP3   OH276082  10.310   4.665   8.602 -0.1034 -0.2039 -0.1055
25067TIP3    H176083  10.355   4.712   8.532  0.4511 -0.6425 -0.0510
25067TIP3    H276084  10.380   4.641   8.664 -0.3883 -0.9815 -0.0732
25068TIP3   OH276085  10.620   1.006   7.342 -0.2039  0.3770  0.1020
25068TIP3    H176086  10.574   0.990   7.260  1.2884  0.2749 -0.7397
25068TIP3    H276087  10.600   0.929   7.396  0.1043 -0.3371 -0.7766
25069TIP3   OH276088   2.918   1.094   3.591 -0.2052 -0.5601  0.5779
25069TIP3    H176089   3.011   1.071   3.593 -0.7032 -2.9687 -0.7963
25069TIP3    H276090   2.909   1.151   3.515  0.7199  3.2363  3.0052
25070TIP3   OH276091   1.774   1.458   9.241  0.1502 -0.6077 -0.0412
25070TIP3    H176092   1.719   1.467   9.164  0.4204  1.4969 -0.0435
25070TIP3    H276093   1.716   1.425   9.309 -0.6210 -0.3780 -0.5784
25071TIP3   OH276094   3.416   7.711   0.784  0.0623 -0.1671  0.1474
25071TIP3    H176095   3.424   7.732   0.877  0.8158  0.0958  0.0347
25071TIP3    H276096   3.373   7.788   0.746  1.6513  0.6717 -0.0504
25072TIP3   OH276097   7.780   0.211   4.906 -0.3760 -0.2212  0.2397
25072TIP3    H176098   7.873   0.222   4.926 -0.6611 -1.1368  2.2851
25072TIP3    H276099   7.777   0.131   4.854  0.1104  0.8058 -1.4833
25073TIP3   OH276100   9.155   5.198   8.102  0.0416 -0.3444  0.2283
25073TIP3    H176101   9.143   5.136   8.174 -1.8298  0.7498  0.9142
25073TIP3    H276102   9.246   5.186   8.075  0.4819 -1.5113  2.0805
25074TIP3   OH276103   4.665   2.045   8.580  0.1212 -0.4016  0.3912
25074TIP3    H176104   4.605   1.983   8.623 -1.3019 -0.7521 -1.9515
25074TIP3    H276105   4.735   1.991   8.546 -0.4651 -0.5907 -0.5491
25075TIP3   OH276106   0.575   2.583   3.785  0.1596 -0.2323 -0.0925
25075TIP3    H176107   0.528   2.503   3.761 -1.9362  0.5800  1.0553
25075TIP3    H276108   0.541   2.650   3.726 -0.4388  0.4553  1.0096
25076TIP3   OH276109   6.818   6.413   4.425  0.5288 -0.6914 -0.6563
25076TIP3    H176110   6.752   6.347   4.447 -0.2732  0.8672  2.1872
25076TIP3    H276111   6.841   6.452   4.509  0.2043  3.3417 -2.2418
25077TIP3   OH276112  10.591  10.877  10.230 -0.3727  0.4035 -0.2638
25077TIP3    H176113  10.621  10.850  10.143 -0.4576 -0.6986  0.0369
25077TIP3    H276114  10.670  10.875  10.285 -0.8453 -2.2008  0.4553
25078TIP3   OH276115   5.704  10.854   5.190  0.4869  0.7013 -0.2528
25078TIP3    H176116   5.647  10.897   5.255  0.0701 -1.8190  1.2062
25078TIP3    H276117   5.690  10.903   5.110 -1.0069  2.3711  0.9467
25079TIP3   OH276118   6.853   0.010   3.404  0.1934 -0.6352  0.0386
25079TIP3    H176119   6.771  -0.011   3.449  0.0631 -0.4739 -0.1203
25079TIP3    H276120   6.915   0.029   3.474 -0.7375  2.4255  0.1785
25080TIP3   OH276121   7.651   7.129   7.840 -0.1061  0.4127  0.1199
25080TIP3    H176122   7.666   7.114   7.746 -1.1116 -0.4854  0.0780
25080TIP3    H276123   7.738   7.126   7.879  0.1487 -1.6912 -0.4686
25081TIP3   OH276124   3.345   8.235   6.849  0.1883 -0.5323  0.2267
25081TIP3    H176125   3.378   8.168   6.790  1.3916 -0.9888  1.3844
25081TIP3    H276126   3.301   8.187   6.918 -1.4515  0.0115 -0.3896
25082TIP3   OH276127   7.849   4.541   2.786 -0.8410  0.5693  0.0122
25082TIP3    H176128   7.937   4.558   2.821 -0.2264 -1.4113 -0.4125
25082TIP3    H276129   7.792   4.601   2.834  0.8812  2.8536 -0.6052
25083TIP3   OH276130   0.462   5.530   9.880  0.1928  0.5726  0.8761
25083TIP3    H176131   0.519   5.576   9.817  0.4073  0.0552  0.6863
25083TIP3    H276132   0.461   5.587   9.957  0.0799  1.1220  0.4761
25084TIP3   OH276133  10.646   2.354   3.432  0.4325 -0.2176  0.6861
25084TIP3    H176134  10.685   2.365   3.519  0.9367 -2.9788  0.8879
25084TIP3    H276135  10.576   2.290   3.445  1.8419 -2.2599 -1.2416
25085TIP3   OH276136   8.203   1.194   5.950 -0.3845 -0.4277 -0.2323
25085TIP3    H176137   8.137   1.241   5.900 -1.1017 -0.2874  0.8110
25085TIP3    H276138   8.227   1.120   5.895 -0.4712  0.2323 -1.1737
25086TIP3   OH276139   6.644   4.096   2.506  0.1112 -0.4003  0.1521
25086TIP3    H176140   6.622   4.188   2.494 -1.1531 -0.7700 -0.6484
25086TIP3    H276141   6.720   4.096   2.564  2.1792  1.2896 -2.3416
25087TIP3   OH276142   6.567   4.057   5.099  0.7389 -0.3077 -0.1793
25087TIP3    H176143   6.508   4.016   5.036  1.2882 -0.4282 -0.6343
25087TIP3    H276144   6.653   4.021   5.078  0.6981 -1.6973  1.7799
25088TIP3   OH276145   8.303   5.888   7.513 -0.2595  0.2479  0.2339
25088TIP3    H176146   8.298   5.865   7.606  1.0297  2.3134  0.8743
25088TIP3    H276147   8.396   5.907   7.498 -0.4514  0.0078 -1.4761
25089TIP3   OH276148   5.619   9.689   1.011  0.0424 -0.1175  0.4354
25089TIP3    H176149   5.595   9.782   1.006  1.1832  0.1696 -0.0398
25089TIP3    H276150   5.661   9.671   0.927  1.3184 -0.6270  1.1696
25090TIP3   OH276151   6.572   0.559  10.094 -0.0332 -0.2577  0.3148
25090TIP3    H176152   6.527   0.583  10.175  0.0954 -2.9251  1.2811
25090TIP3    H276153   6.507   0.574  10.025 -1.1896 -0.7090  1.2714
25091TIP3   OH276154   0.776   2.836   8.757 -0.3270  0.3713  0.6214
25091TIP3    H176155   0.735   2.865   8.675 -2.2589 -1.3563  0.9222
25091TIP3    H276156   0.869   2.829   8.735 -0.5296  1.6770 -0.8876
25092TIP3   OH276157   7.030   0.656   6.012 -0.3745  0.7163  0.0169
25092TIP3    H176158   7.015   0.727   6.075 -1.4079 -0.1569  0.8206
25092TIP3    H276159   7.007   0.577   6.061  3.1067 -0.4913 -0.0046
25093TIP3   OH276160   0.250   5.518   8.010 -0.1733 -0.2207 -0.0994
25093TIP3    H176161   0.234   5.555   8.097 -0.6873  2.2470 -1.1434
25093TIP3    H276162   0.168   5.534   7.962  1.2054  1.6565 -2.0149
25094TIP3   OH276163   4.028   1.591   1.956 -0.0046  0.0746 -0.1104
25094TIP3    H176164   3.982   1.566   1.875  0.4617 -1.0872 -0.0301
25094TIP3    H276165   3.960   1.589   2.023 -0.1218 -0.2867 -0.2364
25095TIP3   OH276166  10.790   6.707   2.547 -0.2083 -0.0923  0.1386
25095TIP3    H176167  10.723   6.700   2.615  1.2901  1.1987  1.8628
25095TIP3    H276168  10.867   6.739   2.593  0.9718  0.5926 -2.1593
25096TIP3   OH276169   7.908   4.190   2.565  0.4848  0.3046  0.1053
25096TIP3    H176170   7.893   4.107   2.609 -0.6152  0.9499  1.0213
25096TIP3    H276171   7.967   4.238   2.624 -0.2663  0.8201  0.4616
25097TIP3   OH276172   9.572   2.055   0.454  0.4935  0.0453  0.2573
25097TIP3    H176173   9.643   1.990   0.447 -0.0932 -0.4541 -1.9776
25097TIP3    H276174   9.603   2.129   0.401  0.3039  0.7916  1.1667
25098TIP3   OH276175   8.760   8.030   9.096  0.5767 -0.5464  0.0107
25098TIP3    H176176   8.765   7.944   9.054 -0.0937 -0.6085  0.0474
25098TIP3    H276177   8.839   8.035   9.150  0.1826 -1.5061  0.6990
25099TIP3   OH276178  10.036   5.234   7.939 -0.1617  0.0572 -0.1729
25099TIP3    H176179  10.027   5.215   7.846  0.4945 -0.7915 -0.0797
25099TIP3    H276180  10.016   5.151   7.982 -2.6131  0.9441  0.5937
25100TIP3   OH276181   6.900   1.310   5.553  0.1038 -0.2226 -0.2678
25100TIP3    H176182   6.929   1.398   5.577 -1.2072  1.4779 -4.1360
25100TIP3    H276183   6.820   1.297   5.604  0.0674  1.0446  0.0422
25101TIP3   OH276184   7.065   9.953   4.239 -0.6847  0.3368 -0.2593
25101TIP3    H176185   7.045   9.907   4.321 -0.8850  0.3871 -0.2803
25101TIP3    H276186   7.063  10.046   4.263  1.3918  0.3143  0.1808
25102TIP3   OH276187   6.885   7.707   6.598  0.0809 -0.7329 -0.0253
25102TIP3    H176188   6.956   7.771   6.596  0.4141 -1.0723  0.4311
25102TIP3    H276189   6.924   7.631   6.641 -1.5795  0.3435  3.7870
25103TIP3   OH276190   2.265   6.075   0.886  0.0320  0.1961  0.4741
25103TIP3    H176191   2.353   6.080   0.923 -0.0291  1.0287  0.5298
25103TIP3    H276192   2.249   5.982   0.874  1.7749  0.0685 -1.5625
25104TIP3   OH276193   6.813   8.101   1.124  0.2001  0.3043 -0.2160
25104TIP3    H176194   6.736   8.054   1.156  1.5039 -0.1369  2.5945
25104TIP3    H276195   6.791   8.125   1.034 -2.8308 -0.5747  0.1768
25105TIP3   OH276196   4.045   3.586   1.365  0.5576 -0.5101 -0.3846
25105TIP3    H176197   4.122   3.568   1.420  0.5457 -0.8873 -0.4938
25105TIP3    H276198   4.058   3.533   1.287 -0.5083 -1.6937  0.2103
25106TIP3   OH276199   4.166   2.017   2.332 -0.0561 -0.0566  0.3086
25106TIP3    H176200   4.200   2.101   2.365  0.1741 -0.3833  0.9134
25106TIP3    H276201   4.150   1.965   2.410 -4.6777  1.0259  0.3713
25107TIP3   OH276202   2.346   9.181   2.627  0.3037 -0.3177  0.6134
25107TIP3    H176203   2.288   9.148   2.695  2.3690 -0.8185  2.2301
25107TIP3    H276204   2.354   9.109   2.564  0.3567 -0.8139  1.1811
25108TIP3   OH276205   1.748   2.249   5.132 -0.2940 -0.0791  0.4270
25108TIP3    H176206   1.802   2.194   5.075  0.1432  0.4103  0.3601
25108TIP3    H276207   1.809   2.280   5.199 -0.1499  1.6106 -0.4350
25109TIP3   OH276208   6.689   9.270   0.092 -0.2525  0.8258 -0.1385
25109TIP3    H176209   6.768   9.301   0.048 -0.4190  0.8101 -0.4502
25109TIP3    H276210   6.690   9.175   0.081  0.9816  0.5333  2.0092
25110TIP3   OH276211   1.358   6.539   2.413 -0.1024 -0.2290 -0.1661
25110TIP3    H176212   1.448   6.525   2.384  0.0347 -0.9882  0.5740
25110TIP3    H276213   1.329   6.617   2.366  0.0638 -1.4322 -2.3892
25111TIP3   OH276214   0.375   1.142   7.046 -0.5533  0.4690 -0.5025
25111TIP3    H176215   0.464   1.167   7.021 -0.7285  0.6061 -1.0041
25111TIP3    H276216   0.386   1.092   7.127 -0.1411  1.6955  0.2430
25112TIP3   OH276217   8.537   2.903   0.619 -0.5711 -0.5648  0.1597
25112TIP3    H176218   8.525   2.854   0.537 -0.7464  2.2145 -1.6331
25112TIP3    H276219   8.619   2.951   0.605  0.4051 -1.4324  2.4687
25113TIP3   OH276220   3.342   1.364   7.507  0.3406 -0.6338 -0.0221
25113TIP3    H176221   3.254   1.389   7.535 -0.1425 -0.2457 -1.7575
25113TIP3    H276222   3.401   1.406   7.570 -0.6779 -0.3008  0.7290
25114TIP3   OH276223   5.492   5.729   8.652  0.1863 -0.5261  0.0009
25114TIP3    H176224   5.424   5.738   8.586 -0.5195  2.1205  0.9600
25114TIP3    H276225   5.552   5.802   8.636  0.5077 -0.3640  1.6836
25115TIP3   OH276226  10.402   2.281   9.242  0.0281  0.5042  0.5870
25115TIP3    H176227  10.445   2.270   9.327  0.3040  1.2782  0.5557
25115TIP3    H276228  10.353   2.363   9.250 -0.6344  0.1485  0.2788
25116TIP3   OH276229   5.124   7.673   5.589 -0.2538  0.0799 -0.2115
25116TIP3    H176230   5.137   7.652   5.497 -0.3185  1.8773 -0.6589
25116TIP3    H276231   5.104   7.589   5.630  0.9802 -0.9461 -1.6068
25117TIP3   OH276232   9.583   7.001   5.020 -0.1998  0.0399  0.3171
25117TIP3    H176233   9.554   6.976   5.108  1.5097 -0.7850  0.6944
25117TIP3    H276234   9.617   7.090   5.029  0.8770 -0.3981  0.7409
25118TIP3   OH276235   6.556   4.360   4.909 -0.0889 -0.0261  0.0354
25118TIP3    H176236   6.567   4.453   4.930  0.0618 -0.4728  2.1925
25118TIP3    H276237   6.632   4.317   4.948 -0.7671 -1.1993  0.1294
25119TIP3   OH276238   9.518   8.809   8.070  0.0652  0.4217  0.6099
25119TIP3    H176239   9.581   8.742   8.096 -0.1007 -0.0487 -0.1631
25119TIP3    H276240   9.566   8.864   8.008 -0.3832 -0.1717 -0.2864
25120TIP3   OH276241   1.971   0.920   2.498 -0.3810 -0.2209 -0.3957
25120TIP3    H176242   1.998   0.828   2.494 -3.2417 -1.2156  0.3990
25120TIP3    H276243   1.928   0.936   2.414 -1.0481 -0.0475 -0.0299
25121TIP3   OH276244   7.902   4.789   5.172 -0.2114  0.1734 -0.2559
25121TIP3    H176245   7.922   4.834   5.254  0.3513 -0.2900 -0.1307
25121TIP3    H276246   7.860   4.708   5.199 -0.3364  0.1750 -0.4416
25122TIP3   OH276247  10.748   3.325   5.890 -0.2516 -0.4526 -0.2379
25122TIP3    H176248  10.823   3.318   5.832  0.5074 -0.6813  0.7379
25122TIP3    H276249  10.715   3.235   5.897  0.4123 -0.6411  0.6320
25123TIP3   OH276250   8.974   8.431   4.896  0.6853 -0.0065 -0.0373
25123TIP3    H176251   9.018   8.452   4.813  0.8356 -1.1031 -0.2555
25123TIP3    H276252   9.009   8.346   4.920 -0.5640 -0.4398  0.3253
25124TIP3   OH276253   9.452   0.549   2.133 -0.8365 -0.2345 -0.2000
25124TIP3    H176254   9.418   0.585   2.051 -0.3649 -0.8070 -0.6471
25124TIP3    H276255   9.384   0.488   2.162 -0.5169 -0.8411 -0.7231
25125TIP3   OH276256   7.127   9.561   9.136  0.1846 -0.3466 -0.2574
25125TIP3    H176257   7.195   9.628   9.144  0.3939 -0.6844  0.9770
25125TIP3    H276258   7.092   9.573   9.047  1.9692 -0.2887 -0.9921
25126TIP3   OH276259   9.267   2.677   4.077  0.0299 -0.3203  0.1513
25126TIP3    H176260   9.241   2.640   3.993 -2.0399 -0.6901  0.9061
25126TIP3    H276261   9.242   2.611   4.141  0.3268  0.5394  1.1870
25127TIP3   OH276262   9.372   3.133   8.431 -0.1672  0.0496  0.3160
25127TIP3    H176263   9.393   3.226   8.425 -1.6749  0.4682  0.9356
25127TIP3    H276264   9.342   3.121   8.521 -2.4626 -0.4246 -0.4279
25128TIP3   OH276265   8.038   2.185   6.818  0.0898 -0.4334  0.2836
25128TIP3    H176266   8.015   2.217   6.906  0.8516 -2.8368  1.4512
25128TIP3    H276267   8.111   2.240   6.791 -0.4428  0.6339  0.9312
25129TIP3   OH276268   9.292  10.538   1.069 -0.4964  0.3119  0.0789
25129TIP3    H176269   9.350  10.557   1.143  0.9014 -1.1744 -0.5612
25129TIP3    H276270   9.240  10.463   1.097 -2.2605  1.6941  0.6814
25130TIP3   OH276271   3.138   2.884   6.671  0.4539 -0.6165  0.1765
25130TIP3    H176272   3.098   2.822   6.610 -0.4857 -0.3576  0.5048
25130TIP3    H276273   3.197   2.936   6.617  0.4445 -1.0997 -0.3065
25131TIP3   OH276274   3.050   9.345   8.050  0.0194  0.5131  0.3154
25131TIP3    H176275   3.106   9.281   8.094  0.8259  0.7067 -0.4026
25131TIP3    H276276   3.095   9.428   8.062  0.1512  0.5951 -0.7032
25132TIP3   OH276277  10.648   3.989   6.125 -0.1828 -0.1167  0.1667
25132TIP3    H176278  10.562   3.951   6.145 -0.5918  0.9890  0.5908
25132TIP3    H276279  10.638   4.082   6.144  2.0996 -0.3828  3.6258
25133TIP3   OH276280  10.844   0.506   8.348  0.3350 -0.4498  0.1366
25133TIP3    H176281  10.797   0.497   8.265 -0.1124 -0.8065  0.4210
25133TIP3    H276282  10.774   0.516   8.413  0.6724 -0.4709  0.5041
25134TIP3   OH276283   9.966   2.625   6.921  0.3848 -0.6267 -0.5602
25134TIP3    H176284   9.893   2.681   6.950 -0.2018 -1.9224  0.5729
25134TIP3    H276285  10.014   2.605   7.001  0.4375 -1.9453 -0.9019
25135TIP3   OH276286   6.696   6.169   4.276 -0.2577  0.7799  0.0203
25135TIP3    H176287   6.619   6.128   4.236 -1.3894 -1.0341  3.6442
25135TIP3    H276288   6.666   6.200   4.361  2.9956 -0.0347  1.6238
25136TIP3   OH276289   4.631   1.029   0.122  0.1711 -0.0598 -0.1880
25136TIP3    H176290   4.554   1.024   0.065  0.2134 -0.4721 -0.2101
25136TIP3    H276291   4.616   1.108   0.175  0.8341  1.1784 -1.7727
25137TIP3   OH276292   7.122   6.630   4.491 -0.5734  0.2203 -0.8921
25137TIP3    H176293   7.208   6.588   4.483 -1.0353 -0.7204 -1.1136
25137TIP3    H276294   7.086   6.597   4.573 -1.4780 -0.8996 -1.6855
25138TIP3   OH276295   3.548   7.890   5.686  0.3358 -0.2869  0.2236
25138TIP3    H176296   3.575   7.978   5.712 -0.3682 -0.1405  0.4793
25138TIP3    H276297   3.474   7.904   5.627  2.1084 -0.5800 -2.2598
25139TIP3   OH276298   6.983   7.738  10.048 -0.7236 -0.3421 -0.4213
25139TIP3    H176299   6.900   7.763  10.089 -0.8638  0.3376 -1.0978
25139TIP3    H276300   7.019   7.820  10.015  1.0268 -0.3600  1.2561
25140TIP3   OH276301   8.830  10.121   2.652 -0.0299  0.5389  0.1512
25140TIP3    H176302   8.813  10.054   2.586 -1.1641 -0.1010  1.0589
25140TIP3    H276303   8.767  10.191   2.631  1.1892  1.3894 -0.8319
25141TIP3   OH276304   2.859   8.749   5.845  0.1755 -0.2202 -0.4822
25141TIP3    H176305   2.793   8.748   5.914  0.2562 -0.9281 -0.4064
25141TIP3    H276306   2.915   8.824   5.865 -0.5987  0.3856 -0.5446
25142TIP3   OH276307   8.527   4.165   6.115 -0.0622  0.4966 -0.0993
25142TIP3    H176308   8.489   4.190   6.199  0.0693  0.0712  0.0900
25142TIP3    H276309   8.608   4.119   6.138 -0.4793 -0.4307 -0.4189
25143TIP3   OH276310   6.076   5.546   1.008  0.6250  0.0545 -0.2861
25143TIP3    H176311   6.108   5.534   0.919  0.0726  1.5514 -0.7147
25143TIP3    H276312   6.145   5.597   1.051  0.4458  0.1891 -0.1577
25144TIP3   OH276313   0.674   1.128   6.918 -0.0816 -0.3415 -0.3513
25144TIP3    H176314   0.712   1.116   7.005  0.2702 -0.5949 -0.5345
25144TIP3    H276315   0.750   1.134   6.859 -0.3200 -0.9729 -0.7391
25145TIP3   OH276316   3.916   8.494   8.927 -0.0812 -0.5156 -0.5307
25145TIP3    H176317   3.957   8.540   8.854 -0.4251  0.3879 -0.1751
25145TIP3    H276318   3.966   8.413   8.936  1.7770  0.6308  0.0236
25146TIP3   OH276319   1.872   0.460   0.732 -0.1567 -0.0698  0.2592
25146TIP3    H176320   1.891   0.533   0.674  1.3477  1.3816  2.4421
25146TIP3    H276321   1.950   0.405   0.729 -0.0254  0.0709  0.9638
25147TIP3   OH276322   5.743   4.832   3.019  0.2515  0.2135 -0.1080
25147TIP3    H176323   5.741   4.913   3.071  3.7123  0.9329 -0.8036
25147TIP3    H276324   5.772   4.765   3.081  0.0720  0.1190 -0.1281
25148TIP3   OH276325  10.109   5.028   5.107 -0.7778  0.1578 -0.0481
25148TIP3    H176326  10.128   5.085   5.182 -0.0922 -0.6488  0.4032
25148TIP3    H276327  10.064   4.953   5.144  1.4485 -1.2809 -0.0798
25149TIP3   OH276328   5.810   9.938   6.064  0.1236 -0.2570  0.1508
25149TIP3    H176329   5.902   9.965   6.073  1.0060 -2.4126 -1.2859
25149TIP3    H276330   5.784   9.912   6.152  0.7680  0.7017  0.6394
25150TIP3   OH276331  10.868   4.571   1.390  0.0625 -0.2508 -0.3100
25150TIP3    H176332  10.949   4.560   1.340  2.1920 -0.1909  2.8594
25150TIP3    H276333  10.851   4.666   1.387  0.6400 -0.1422 -0.2094
25151TIP3   OH276334   4.213   2.976   3.585  0.1833 -0.3265 -0.1183
25151TIP3    H176335   4.294   2.928   3.605  0.9688 -0.1479 -2.5775
25151TIP3    H276336   4.216   2.990   3.490 -3.8055 -2.2417 -0.7104
25152TIP3   OH276337   4.575   2.411   6.138  0.6323 -0.2167 -0.3805
25152TIP3    H176338   4.544   2.463   6.213 -0.5643  0.9061 -1.5855
25152TIP3    H276339   4.591   2.324   6.173 -3.3848 -0.7663  0.5696
25153TIP3   OH276340  10.823   6.483   6.360  0.3752  0.2169 -0.1924
25153TIP3    H176341  10.852   6.442   6.442  0.5910 -0.6664 -0.6955
25153TIP3    H276342  10.727   6.475   6.362  0.3232  0.8909  0.3214
25154TIP3   OH276343   4.913   9.291   1.476 -0.4399  0.2439 -0.1101
25154TIP3    H176344   5.007   9.298   1.492 -0.7925 -0.9622  3.3261
25154TIP3    H276345   4.906   9.276   1.382  2.7218  0.9188 -0.5808
25155TIP3   OH276346   7.613   0.270   3.992 -0.3081  0.2632  0.1596
25155TIP3    H176347   7.645   0.336   4.054 -2.3437  0.0541  1.5288
25155TIP3    H276348   7.560   0.320   3.929  1.5596  0.4417 -1.3835
25156TIP3   OH276349   2.046   4.843   4.989  0.0780 -0.7881 -0.4874
25156TIP3    H176350   2.107   4.770   4.999 -0.5389 -1.1751  0.6364
25156TIP3    H276351   1.995   4.822   4.912 -0.3339 -1.7348  0.0267
25157TIP3   OH276352   9.948   3.334   2.971 -0.0613  0.3570  0.5243
25157TIP3    H176353   9.901   3.315   2.890  1.9954  0.5919 -0.8104
25157TIP3    H276354   9.937   3.255   3.024  0.9280 -1.0272 -1.2219
25158TIP3   OH276355   6.304   2.252   2.600 -0.4226  0.0590  0.4875
25158TIP3    H176356   6.364   2.194   2.554 -0.5341 -0.0272  0.4505
25158TIP3    H276357   6.221   2.243   2.554 -0.2135  0.9567 -0.1066
25159TIP3   OH276358   0.897   8.434   8.828  0.1214  0.0948 -0.3591
25159TIP3    H176359   0.882   8.392   8.913 -0.8262 -0.1465 -0.6320
25159TIP3    H276360   0.886   8.363   8.765  1.9232  0.0235 -0.6378
25160TIP3   OH276361   1.251   4.709   5.130  0.0634 -0.0065 -0.2148
25160TIP3    H176362   1.211   4.637   5.082 -1.0079 -0.2776  1.0384
25160TIP3    H276363   1.178   4.762   5.161  0.7993  1.1526 -0.3539
25161TIP3   OH276364   3.927   2.037   9.651 -0.2004 -0.2936  0.4117
25161TIP3    H176365   3.903   1.993   9.569  0.6259  0.7662 -0.4249
25161TIP3    H276366   3.936   2.129   9.627  1.7949 -0.2054  1.2914
25162TIP3   OH276367   3.220   7.188   0.410  0.3250  0.0160 -0.2173
25162TIP3    H176368   3.145   7.248   0.411  0.6157  0.4055 -0.7507
25162TIP3    H276369   3.216   7.142   0.494 -1.6861 -1.4731 -1.0606
25163TIP3   OH276370   1.055   2.385   0.246  0.2685 -0.0532 -0.0106
25163TIP3    H176371   1.110   2.311   0.222 -2.4274 -1.8295 -1.2657
25163TIP3    H276372   1.083   2.456   0.188  3.4336  0.3184  1.7467
25164TIP3   OH276373   6.231   4.553   0.256  0.6082 -0.4071  0.9530
25164TIP3    H176374   6.142   4.530   0.230  0.9320  1.0166 -1.9440
25164TIP3    H276375   6.221   4.634   0.306  0.2649  0.7671 -0.8829
25165TIP3   OH276376   5.786   4.120   1.009  0.1951  0.9325 -0.5725
25165TIP3    H176377   5.693   4.118   1.029  0.2274 -1.4301 -0.2776
25165TIP3    H276378   5.818   4.035   1.040  2.2980  1.3842 -1.3506
25166TIP3   OH276379   1.360   6.811   5.859 -0.4779  0.1712  0.0343
25166TIP3    H176380   1.383   6.774   5.774 -0.1334 -0.9783  0.5956
25166TIP3    H276381   1.376   6.905   5.851 -0.0170  0.0126 -1.0206
25167TIP3   OH276382   0.084  10.678  10.627 -0.4491 -0.2049 -0.2568
25167TIP3    H176383   0.128  10.650  10.707  0.5418  1.3119 -0.2254
25167TIP3    H276384   0.097  10.773  10.625 -0.5569 -0.1985 -2.1640
25168TIP3   OH276385   8.556   0.581   2.514 -0.2865 -0.4463  0.0569
25168TIP3    H176386   8.637   0.633   2.522 -0.9817  0.7909 -0.5862
25168TIP3    H276387   8.586   0.491   2.505  0.9851 -0.1489  0.9757
25169TIP3   OH276388   6.016   7.915   4.473  0.6124 -0.3103 -0.0265
25169TIP3    H176389   6.018   7.864   4.554 -1.5661  0.7980  0.7894
25169TIP3    H276390   6.040   8.004   4.500  0.0560  0.0263 -0.6193
25170TIP3   OH276391   9.877   7.378   0.153  0.8433 -0.6703 -0.1629
25170TIP3    H176392   9.845   7.459   0.193 -0.4129 -2.1153  1.9961
25170TIP3    H276393   9.839   7.378   0.065  2.1998  1.7850 -0.8274
25171TIP3   OH276394   7.873   2.707   2.968 -0.0686 -0.3043 -0.3560
25171TIP3    H176395   7.922   2.627   2.985  2.0031  0.5021 -2.0061
25171TIP3    H276396   7.803   2.681   2.908 -1.2762 -1.3334  1.4116
25172TIP3   OH276397   6.778   7.803   2.084 -0.0397 -0.4810 -0.3702
25172TIP3    H176398   6.844   7.856   2.128  0.5087 -0.8239 -0.7657
25172TIP3    H276399   6.765   7.728   2.142  0.2038 -0.6072 -0.4783
25173TIP3   OH276400   9.986   1.496   5.129 -0.1886  0.0957  0.0185
25173TIP3    H176401  10.053   1.520   5.192 -2.8073  1.1443  2.6336
25173TIP3    H276402   9.965   1.405   5.149 -1.8316  0.7618  1.6137
25174TIP3   OH276403   7.953   7.103  10.837  0.2627  0.1309 -0.0511
25174TIP3    H176404   7.900   7.036  10.878  1.4377 -1.7440 -1.4315
25174TIP3    H276405   7.929   7.184  10.882  0.5418 -1.5337  3.3596
25175TIP3   OH276406   7.126   6.140   2.169 -0.3339  0.2304  0.5542
25175TIP3    H176407   7.213   6.156   2.134 -0.8514  0.9096 -0.4805
25175TIP3    H276408   7.130   6.050   2.204  1.0224  0.5873  1.3808
25176TIP3   OH276409   5.141   4.274   3.881  0.2176  1.1402 -0.1947
25176TIP3    H176410   5.200   4.199   3.881 -0.3316  0.6953 -0.1814
25176TIP3    H276411   5.129   4.295   3.974 -0.9678  0.1414 -0.0920
25177TIP3   OH276412   1.782   7.266   6.624 -0.5095  0.8709 -0.1418
25177TIP3    H176413   1.794   7.293   6.715 -2.0036  0.2276  0.2754
25177TIP3    H276414   1.865   7.288   6.581  1.9956 -2.8412  2.2985
25178TIP3   OH276415   5.952   3.084   2.106 -0.1845 -0.2844  0.6644
25178TIP3    H176416   5.933   3.148   2.174  5.3817  1.6319  0.9572
25178TIP3    H276417   5.959   3.135   2.026 -1.0823 -1.5407 -0.2415
25179TIP3   OH276418   2.593   2.034   6.434 -0.2530  0.5047  0.1608
25179TIP3    H176419   2.522   1.978   6.466  1.4365 -0.9430  1.5725
25179TIP3    H276420   2.610   2.002   6.346  0.1998 -0.7762  0.6833
25180TIP3   OH276421   7.573   2.847   0.613 -0.1670  0.1307 -0.3995
25180TIP3    H176422   7.501   2.905   0.588  0.5554  1.0030 -0.5220
25180TIP3    H276423   7.645   2.872   0.556  0.6713  0.2758  0.6866
25181TIP3   OH276424   5.978   5.914   1.307 -0.0565 -0.1698 -0.0962
25181TIP3    H176425   5.996   5.899   1.215 -0.3535  0.7660 -0.3088
25181TIP3    H276426   5.972   5.826   1.345 -1.9896 -0.6496 -1.3648
25182TIP3   OH276427   6.733   1.346   7.208 -0.1454 -0.2118  0.1803
25182TIP3    H176428   6.654   1.390   7.240 -0.0878  0.2451 -0.2978
25182TIP3    H276429   6.783   1.327   7.288  0.0235  0.9729  0.3896
25183TIP3   OH276430   9.789   4.309  10.027 -0.3104 -0.2034  0.3603
25183TIP3    H176431   9.704   4.314  10.069 -0.0862  0.6591  0.7323
25183TIP3    H276432   9.810   4.399  10.002  0.9437 -0.2194  1.2249
25184TIP3   OH276433   0.433   9.406   9.765  0.1596 -0.3677  0.1619
25184TIP3    H176434   0.492   9.456   9.709 -2.6957  0.6363 -2.2214
25184TIP3    H276435   0.435   9.317   9.728 -0.2450 -0.1922 -0.2859
25185TIP3   OH276436   7.035  10.783   6.186  0.1970 -0.2920 -0.6718
25185TIP3    H176437   7.029  10.718   6.256  0.1867 -0.0883 -0.4832
25185TIP3    H276438   7.120  10.766   6.146  1.3452  1.1940  0.9959
25186TIP3   OH276439   3.850  10.331   9.687 -0.5607 -0.2592 -0.4293
25186TIP3    H176440   3.848  10.249   9.638 -1.3793 -0.4630 -0.0682
25186TIP3    H276441   3.811  10.309   9.771  1.5134 -0.0985  0.6351
25187TIP3   OH276442   3.046  10.888   6.219 -0.3301  0.6481  0.0621
25187TIP3    H176443   3.017  10.796   6.216  0.8908  0.2596 -0.5425
25187TIP3    H276444   3.052  10.908   6.312 -2.5793  0.7972  0.2415
25188TIP3   OH276445   5.943   0.897   7.749  0.4871 -0.5499  0.3257
25188TIP3    H176446   5.951   0.974   7.805 -2.0135 -0.5143  0.7540
25188TIP3    H276447   5.894   0.834   7.802 -0.5582 -1.1208 -1.2395
25189TIP3   OH276448   1.785   4.751   6.417 -0.2176  0.2926 -0.1881
25189TIP3    H176449   1.878   4.730   6.414 -0.1701  0.5338 -0.4095
25189TIP3    H276450   1.751   4.725   6.331  0.0021  1.8493 -0.7689
25190TIP3   OH276451   4.280   0.621   1.787 -0.4516 -0.2127  0.3644
25190TIP3    H176452   4.221   0.662   1.851 -0.4825 -0.9029  0.7781
25190TIP3    H276453   4.326   0.695   1.747 -1.7425  0.3625 -0.1236
25191TIP3   OH276454   9.754   8.556   2.178  0.1426 -0.1425 -0.5264
25191TIP3    H176455   9.824   8.524   2.234 -1.0021 -0.3694  0.8312
25191TIP3    H276456   9.677   8.559   2.235 -1.8730 -3.3770 -2.7473
25192TIP3   OH276457   2.730   9.208   9.472  0.9139 -0.1398 -0.5302
25192TIP3    H176458   2.720   9.294   9.512 -4.4562 -0.1757 -1.0275
25192TIP3    H276459   2.735   9.225   9.378  0.6521 -0.3239 -0.5803
25193TIP3   OH276460   6.283   2.664   6.872 -0.2159  0.4742 -0.1880
25193TIP3    H176461   6.347   2.718   6.827 -0.4733  0.3160 -0.7523
25193TIP3    H276462   6.328   2.581   6.888  0.2552  0.9216  0.8837
25194TIP3   OH276463   2.206   2.219   3.686 -0.8201  0.1515  0.3407
25194TIP3    H176464   2.222   2.240   3.594 -1.9772  1.0631  0.3326
25194TIP3    H276465   2.279   2.259   3.733 -0.3533 -0.1129 -0.1503
25195TIP3   OH276466   1.335   1.972   3.499  0.5783 -0.3988  0.1673
25195TIP3    H176467   1.373   1.943   3.582 -0.9165 -0.7750  0.7390
25195TIP3    H276468   1.247   1.935   3.498  0.4675 -0.1686 -1.4718
25196TIP3   OH276469   7.012   2.218   7.536 -0.3742 -0.3401  0.0175
25196TIP3    H176470   6.936   2.166   7.513 -0.6071 -0.1305  0.3173
25196TIP3    H276471   7.016   2.286   7.468 -0.5703 -0.2285  0.1187
25197TIP3   OH276472   6.124   4.264   9.662 -0.2408 -0.1254  0.6338
25197TIP3    H176473   6.211   4.283   9.697 -1.3985 -1.0112  4.4227
25197TIP3    H276474   6.075   4.346   9.674 -0.2165  0.1145 -0.7151
25198TIP3   OH276475   8.658   6.142   3.663 -0.1264  0.5199  0.5527
25198TIP3    H176476   8.738   6.118   3.617 -0.6881 -2.0972  0.7545
25198TIP3    H276477   8.591   6.148   3.595  0.0060  1.6488  0.5051
25199TIP3   OH276478   3.467   6.684  10.556  0.2833 -0.5584  1.3314
25199TIP3    H176479   3.525   6.624  10.509  0.1547 -0.9281  1.6374
25199TIP3    H276480   3.486   6.669  10.648  1.7365  1.3587  1.4006
25200TIP3   OH276481   4.348  10.056   9.232 -0.4974 -0.3581  0.1062
25200TIP3    H176482   4.418  10.091   9.177 -0.7541 -0.0723 -0.0431
25200TIP3    H276483   4.274  10.114   9.216 -0.8881 -0.8871 -0.0295
25201TIP3   OH276484   4.372   8.315  10.341 -0.7270 -0.7304 -0.8118
25201TIP3    H176485   4.424   8.255  10.393  1.0878  0.7081 -0.8592
25201TIP3    H276486   4.425   8.332  10.263 -0.2504  2.2636  0.0198
25202TIP3   OH276487   6.331   5.255  10.146  0.0335  0.1042 -0.3320
25202TIP3    H176488   6.319   5.226  10.056  2.2286 -1.2567 -0.2577
25202TIP3    H276489   6.381   5.336  10.140  0.0675  0.0820 -0.3452
25203TIP3   OH276490   9.644   1.957   9.620 -0.7196  0.5938 -0.6431
25203TIP3    H176491   9.571   1.899   9.642 -0.5559  0.4244 -0.5498
25203TIP3    H276492   9.721   1.913   9.655 -0.5270  0.6054 -1.0576
25204TIP3   OH276493   8.831   7.121   3.037 -0.3314  0.5232 -0.0896
25204TIP3    H176494   8.831   7.212   3.007 -0.1039  0.4180 -0.4189
25204TIP3    H276495   8.896   7.119   3.107  2.5028 -0.1417 -2.5170
25205TIP3   OH276496   4.858   3.948   9.280 -1.1441 -0.5304 -0.0478
25205TIP3    H176497   4.778   3.989   9.313 -2.1121 -1.6938 -0.8367
25205TIP3    H276498   4.830   3.861   9.251  1.1368 -2.7129  3.4695
25206TIP3   OH276499   0.561   4.743   6.826  0.1815  0.3131  0.0229
25206TIP3    H176500   0.506   4.665   6.828  1.7265 -0.9826 -2.3477
25206TIP3    H276501   0.643   4.715   6.866 -0.0361  1.4900  1.3482
25207TIP3   OH276502   1.659   8.672   3.196 -0.2051 -0.1882  0.3303
25207TIP3    H176503   1.673   8.619   3.118 -0.9199 -0.3497  0.3065
25207TIP3    H276504   1.739   8.660   3.248  0.5280  0.3663 -0.6205
25208TIP3   OH276505  10.531   9.702   7.750  0.3452 -0.6883 -0.0922
25208TIP3    H176506  10.474   9.654   7.689 -0.1131 -0.9327  0.5093
25208TIP3    H276507  10.492   9.686   7.836  0.7758 -0.0573  0.2284
25209TIP3   OH276508   4.438   6.393   3.962  0.0219 -0.0104  0.0243
25209TIP3    H176509   4.483   6.348   3.891 -1.2677 -0.0031 -0.8287
25209TIP3    H276510   4.459   6.342   4.040  2.2343  0.5058 -0.1454
25210TIP3   OH276511   4.159   3.963   8.820 -0.2399  0.2565 -0.1247
25210TIP3    H176512   4.152   3.910   8.900 -0.6271  2.5529  1.4843
25210TIP3    H276513   4.072   4.001   8.809 -0.5656 -1.0102 -2.4590
25211TIP3   OH276514   3.423   5.199   7.550 -0.0172  0.3497  0.2859
25211TIP3    H176515   3.514   5.191   7.519  0.4353  0.6745  1.4904
25211TIP3    H276516   3.373   5.140   7.493  1.1081 -0.6427  0.2938
25212TIP3   OH276517   8.350  10.839   6.377  0.4075  0.3169 -0.3114
25212TIP3    H176518   8.348  10.745   6.360  0.4937  0.3156 -0.3187
25212TIP3    H276519   8.439  10.856   6.408  0.3490  0.3724 -0.1727
25213TIP3   OH276520   2.321   9.789   3.238  0.4891  0.1290 -0.3369
25213TIP3    H176521   2.231   9.783   3.269  0.1534 -1.0306 -1.4745
25213TIP3    H276522   2.345   9.880   3.253 -0.6299  0.3011  0.5962
25214TIP3   OH276523   7.181   5.566   8.717 -0.3545 -0.2736  0.1809
25214TIP3    H176524   7.243   5.596   8.650 -1.1234  0.3941 -0.2575
25214TIP3    H276525   7.138   5.490   8.678 -1.4553  0.6631 -0.4859
25215TIP3   OH276526   0.152   7.347   3.910  0.2784 -0.3556  0.8742
25215TIP3    H176527   0.083   7.280   3.913 -1.2937  1.2158  1.4134
25215TIP3    H276528   0.130   7.400   3.833  0.3132  0.7214  1.5826
25216TIP3   OH276529   9.620   6.426  10.537  0.4178  0.2291  0.1549
25216TIP3    H176530   9.525   6.420  10.523  0.1743 -0.4420  1.8491
25216TIP3    H276531   9.634   6.513  10.574  0.0781 -0.5440  2.2433
25217TIP3   OH276532   5.180   0.613   3.629  0.4669  0.1043 -0.3977
25217TIP3    H176533   5.212   0.658   3.708 -0.7851  0.5526 -0.1236
25217TIP3    H276534   5.192   0.677   3.559  1.8222 -0.3879 -0.6407
25218TIP3   OH276535   7.962   9.924  10.401  0.2143  0.5676 -0.9818
25218TIP3    H176536   8.003   9.951  10.319  2.2336 -2.5990 -1.1586
25218TIP3    H276537   8.034   9.914  10.463 -0.7741 -0.9369  0.0107
25219TIP3   OH276538   6.196   0.936   7.664 -0.4756  0.1044 -0.1136
25219TIP3    H176539   6.107   0.916   7.694 -0.6833  0.4320 -0.4939
25219TIP3    H276540   6.222   0.859   7.614  0.3103 -0.9318  1.8177
25220TIP3   OH276541   5.257   3.573   9.993  0.0582  0.0423  1.0262
25220TIP3    H176542   5.293   3.533   9.914 -2.7629 -0.5983 -0.0749
25220TIP3    H276543   5.249   3.500  10.055 -0.3656 -0.0693  0.8476
25221TIP3   OH276544   1.378   4.178   9.194  0.8985  0.3553  0.4166
25221TIP3    H176545   1.467   4.178   9.158  0.9755 -1.6630  0.4463
25221TIP3    H276546   1.379   4.108   9.260 -0.8253 -0.0224  0.0993
25222TIP3   OH276547   8.738   0.745   8.493 -0.8130  0.1694 -0.3945
25222TIP3    H176548   8.677   0.672   8.482  1.0207 -1.1639 -2.9152
25222TIP3    H276549   8.785   0.750   8.410  0.9532  2.5898  0.6055
25223TIP3   OH276550   8.069   2.069   0.159 -0.0597  0.2258 -0.5377
25223TIP3    H176551   8.107   1.982   0.169 -0.3079  0.2674  1.1518
25223TIP3    H276552   8.122   2.112   0.092  0.0140 -1.2335 -1.4603
25224TIP3   OH276553   4.086   4.448   1.130 -0.1843  0.2453  0.1143
25224TIP3    H176554   4.157   4.477   1.187 -1.9610  1.2850  1.9412
25224TIP3    H276555   4.130   4.406   1.056  2.2855  0.3212  1.4310
25225TIP3   OH276556   2.551   3.324   3.466  0.0940  0.0165  0.5250
25225TIP3    H176557   2.463   3.345   3.434  0.2869 -0.3446 -0.2660
25225TIP3    H276558   2.563   3.232   3.442  0.4487 -0.1145  1.1958
25226TIP3   OH276559   5.993   3.421   9.365 -0.1415  0.3753  0.2533
25226TIP3    H176560   5.922   3.468   9.409 -0.4809  0.2031 -0.1080
25226TIP3    H276561   5.950   3.370   9.297  0.6064  2.5081 -1.9574
25227TIP3   OH276562   2.146   2.959   5.283 -0.5832 -0.1161  0.1643
25227TIP3    H176563   2.110   2.911   5.208 -0.8842 -0.7591  0.7055
25227TIP3    H276564   2.216   3.013   5.246 -1.0647 -0.0372 -0.6550
25228TIP3   OH276565   7.395   4.895   2.224  0.5012 -0.1181 -0.3590
25228TIP3    H176566   7.482   4.928   2.243  0.1382  0.7406 -0.1359
25228TIP3    H276567   7.378   4.830   2.291 -0.0293  1.5487  1.2132
25229TIP3   OH276568   9.925   1.688   7.238 -0.1285 -0.3994 -0.5010
25229TIP3    H176569   9.856   1.622   7.240  0.1462 -0.6781  0.1811
25229TIP3    H276570   9.895   1.756   7.299 -0.1152 -0.2032 -0.7131
25230TIP3   OH276571   4.652   8.184   5.347  0.3525 -0.2037 -0.2396
25230TIP3    H176572   4.709   8.223   5.413 -1.0247 -0.0496  0.9051
25230TIP3    H276573   4.599   8.256   5.315  0.5094 -0.4175 -1.0045
25231TIP3   OH276574   7.066   6.159   4.367 -0.2954  0.2018 -0.5189
25231TIP3    H176575   7.007   6.234   4.358  0.0025  0.2821 -1.9889
25231TIP3    H276576   7.086   6.134   4.277  0.6918 -0.7914 -0.0329
25232TIP3   OH276577   3.345   8.241   1.604 -0.4465 -0.0059 -0.3260
25232TIP3    H176578   3.347   8.330   1.640  0.4621  1.5496 -3.8224
25232TIP3    H276579   3.269   8.240   1.546 -0.5792 -1.6449 -0.1847
25233TIP3   OH276580  10.216   8.922   0.652  0.2924 -0.9472 -0.2080
25233TIP3    H176581  10.301   8.882   0.671  0.3805 -0.2640  0.9513
25233TIP3    H276582  10.169   8.856   0.601  0.6914 -2.2665  1.0436
25234TIP3   OH276583   9.650   7.843   7.780 -0.5744 -0.2753 -0.2685
25234TIP3    H176584   9.578   7.784   7.800 -1.2366  0.2603 -0.9803
25234TIP3    H276585   9.728   7.797   7.810 -1.1264 -1.2446 -0.2725
25235TIP3   OH276586   6.088   2.031   5.407 -0.0182  0.0195 -0.1969
25235TIP3    H176587   6.086   2.016   5.313  1.4146 -0.7047 -0.1459
25235TIP3    H276588   5.997   2.022   5.435 -0.5396  0.7020 -1.5552
25236TIP3   OH276589   4.565   7.816  10.336 -0.2258 -0.1113 -0.2839
25236TIP3    H176590   4.619   7.810  10.415 -1.3847  0.5459  0.5895
25236TIP3    H276591   4.628   7.830  10.265  0.8326 -0.6272  0.5215
25237TIP3   OH276592   8.045   6.888   3.839  0.7236  0.0821  0.1731
25237TIP3    H176593   8.069   6.973   3.877  1.8364  0.3678 -1.1152
25237TIP3    H276594   8.005   6.910   3.755 -0.4894 -0.6197  0.5332
25238TIP3   OH276595   0.986  10.708  10.852  0.2669  0.2003  0.5592
25238TIP3    H176596   0.909  10.721  10.907 -0.7146  1.5240 -1.0423
25238TIP3    H276597   1.025  10.795  10.844  1.4099 -0.2922  0.5982
25239TIP3   OH276598   4.991   4.843   6.315 -0.1702  0.0683 -0.2553
25239TIP3    H176599   5.050   4.854   6.390 -1.6139  0.2276  0.9067
25239TIP3    H276600   4.903   4.841   6.354 -0.9844  0.4645 -1.9847
25240TIP3   OH276601   5.468  10.810   2.713 -0.5181 -0.9257 -0.0509
25240TIP3    H176602   5.450  10.819   2.807 -0.6592 -0.8104 -0.0889
25240TIP3    H276603   5.531  10.880   2.694 -0.3645 -1.0502 -0.0096
25241TIP3   OH276604   5.030   4.581   6.395  0.4063  0.2611  0.7889
25241TIP3    H176605   5.082   4.653   6.430  1.5124 -0.0101 -0.2383
25241TIP3    H276606   4.990   4.616   6.316  2.3161 -0.6945 -0.6778
25242TIP3   OH276607   7.944  10.242   7.462  0.1540  0.1633  0.2796
25242TIP3    H176608   8.027  10.283   7.487  0.7022  0.7161 -2.2496
25242TIP3    H276609   7.963  10.148   7.460  0.0820  0.0893  1.8099
25243TIP3   OH276610   9.879   9.211   2.503  0.4018 -0.1019  0.7910
25243TIP3    H176611   9.875   9.152   2.428  0.3307  0.8862  0.0087
25243TIP3    H276612   9.938   9.167   2.565  2.6133  0.2920 -0.9252
25244TIP3   OH276613   9.736   9.978   5.520  0.4406  0.4120  0.0331
25244TIP3    H176614   9.741   9.895   5.473 -0.2516  0.0430  0.5975
25244TIP3    H276615   9.712  10.042   5.454  1.3617  0.2406 -0.4833
25245TIP3   OH276616   5.382   1.390   0.135 -0.5821  0.3072  0.2048
25245TIP3    H176617   5.353   1.402   0.044  0.5525 -0.0811 -0.2315
25245TIP3    H276618   5.353   1.302   0.159 -0.1007  0.0577 -0.1056
25246TIP3   OH276619   0.190   0.967   6.609  0.3156  0.3808 -0.7417
25246TIP3    H176620   0.203   1.020   6.531 -0.2761  0.4450 -0.8042
25246TIP3    H276621   0.269   0.981   6.662  0.3235  1.0375 -0.9206
25247TIP3   OH276622   0.682  10.738   6.718 -0.3910 -0.1359  0.3917
25247TIP3    H176623   0.711  10.752   6.628  0.9093  0.2539  0.8406
25247TIP3    H276624   0.665  10.826   6.752 -1.7221 -0.3358  0.2736
25248TIP3   OH276625   5.977  10.075  10.344 -0.1551 -0.5956 -0.0164
25248TIP3    H176626   5.946   9.986  10.327 -0.6915 -0.4536  0.2291
25248TIP3    H276627   5.964  10.088  10.438 -0.2109 -0.2083 -0.0753
25249TIP3   OH276628   6.355   5.659   0.625  0.7652 -0.2985 -0.0472
25249TIP3    H176629   6.406   5.736   0.602  0.6683 -0.1451  0.2598
25249TIP3    H276630   6.268   5.693   0.648  1.5495 -0.1583  3.1002
25250TIP3   OH276631   6.340   6.632   4.159  0.1549  0.5464 -0.3392
25250TIP3    H176632   6.335   6.709   4.103  0.2064  0.8000  0.0022
25250TIP3    H276633   6.287   6.654   4.236 -0.7157 -0.1718 -0.7156
25251TIP3   OH276634   9.918   6.612   5.937 -0.1765  0.4389 -0.3809
25251TIP3    H176635   9.852   6.572   5.994  0.5754 -1.2897 -0.6677
25251TIP3    H276636   9.880   6.607   5.849 -1.5854  3.6195 -0.0995
25252TIP3   OH276637   4.044   2.840   5.487 -0.2666 -0.1971 -0.1062
25252TIP3    H176638   4.094   2.892   5.425 -1.0741 -0.2539 -0.8251
25252TIP3    H276639   3.957   2.879   5.486 -0.2756 -0.1409  1.0710
25253TIP3   OH276640   4.861   4.860   8.047 -0.6086 -0.3587  0.3859
25253TIP3    H176641   4.879   4.889   7.957 -0.8373 -1.2640  0.0380
25253TIP3    H276642   4.940   4.883   8.096 -0.1371 -0.6213 -0.2369
25254TIP3   OH276643   2.225   0.483   8.326  0.2766 -0.6512 -0.0569
25254TIP3    H176644   2.288   0.424   8.367  1.5251 -1.7190 -3.2538
25254TIP3    H276645   2.164   0.426   8.280  0.2646  0.4728 -1.5048
25255TIP3   OH276646   0.123   5.543   3.004 -0.2031  0.1277  0.0602
25255TIP3    H176647   0.172   5.462   3.020  1.4149  1.1605  0.6654
25255TIP3    H276648   0.107   5.543   2.909 -0.9510 -1.2704  0.1709
25256TIP3   OH276649   1.362   4.537   8.935 -0.6513  0.2786  0.3290
25256TIP3    H176650   1.426   4.469   8.959 -0.7787  1.1957  3.8015
25256TIP3    H276651   1.394   4.570   8.851 -0.0431 -3.3276 -1.0613
25257TIP3   OH276652   7.708   4.602  10.040 -0.7547  0.3178  0.0133
25257TIP3    H176653   7.739   4.520  10.002 -0.9232 -0.0747  0.7047
25257TIP3    H276654   7.787   4.641  10.079 -1.1015 -0.8218  2.0313
25258TIP3   OH276655   0.714   2.540   4.921 -0.3484 -0.5658 -0.5352
25258TIP3    H176656   0.686   2.506   4.836  0.1337 -0.0832 -0.8960
25258TIP3    H276657   0.809   2.537   4.917 -0.3247 -0.7859  0.0981
25259TIP3   OH276658   7.649   3.982   5.787  0.4872  0.9203  0.3158
25259TIP3    H176659   7.736   4.000   5.752  0.0407 -0.7512 -1.8110
25259TIP3    H276660   7.590   4.030   5.729 -0.1587 -0.4881 -0.2436
25260TIP3   OH276661   4.853   2.161   7.491  0.1145  0.2856  0.3428
25260TIP3    H176662   4.923   2.096   7.499 -0.2066 -0.3591 -1.4787
25260TIP3    H276663   4.872   2.206   7.408 -1.4307  0.3301 -0.0119
25261TIP3   OH276664   2.006   1.075   8.623 -0.2352 -0.0765 -0.2154
25261TIP3    H176665   1.944   1.002   8.624 -0.9975  0.5523 -0.6650
25261TIP3    H276666   1.990   1.121   8.706 -0.9348  0.5318 -0.6711
25262TIP3   OH276667   1.038   8.187   3.334  0.4999  0.1849  0.1703
25262TIP3    H176668   0.969   8.166   3.271  1.3300 -0.3204 -0.5889
25262TIP3    H276669   1.038   8.112   3.394  0.0051  0.4608  0.5233
25263TIP3   OH276670   4.323   2.412   6.006  0.4600  0.0619 -0.4970
25263TIP3    H176671   4.314   2.388   5.914 -2.3376  0.1059 -0.3329
25263TIP3    H276672   4.409   2.380   6.031  1.3491  0.1390 -3.1359
25264TIP3   OH276673   9.648   1.977   1.388  0.2629  0.5100 -0.4018
25264TIP3    H176674   9.662   2.063   1.427 -0.1457  0.6903 -0.6421
25264TIP3    H276675   9.593   1.994   1.312 -0.7120 -0.0796  0.1460
25265TIP3   OH276676   3.370   3.659   4.815  0.0365  0.0493 -0.0970
25265TIP3    H176677   3.407   3.571   4.812  0.6681  0.2492  1.0970
25265TIP3    H276678   3.392   3.697   4.730  1.4824 -0.2964  0.0895
25266TIP3   OH276679   6.834  10.153   2.799  0.3974  0.4662  0.3418
25266TIP3    H176680   6.764  10.177   2.860  0.5299  2.1568 -0.1261
25266TIP3    H276681   6.822  10.212   2.725 -0.3068 -2.1091 -1.7218
25267TIP3   OH276682   3.949   9.224   4.980 -0.0115  0.0258 -0.4497
25267TIP3    H176683   3.859   9.248   5.003  0.7408  0.3314  2.6952
25267TIP3    H276684   3.982   9.299   4.930 -1.6281 -0.3438 -2.1488
25268TIP3   OH276685   4.297  10.729   4.860 -0.3022  0.5824 -0.0096
25268TIP3    H176686   4.287  10.701   4.769  1.4501 -0.3240  0.0496
25268TIP3    H276687   4.209  10.719   4.897 -0.3601 -2.2689 -0.7077
25269TIP3   OH276688   3.142   9.062   7.062  0.1440 -0.3297 -0.0147
25269TIP3    H176689   3.083   8.987   7.059  0.1643 -0.3414 -0.1181
25269TIP3    H276690   3.083   9.138   7.070  0.0095 -0.1978 -1.8743
25270TIP3   OH276691   5.825   7.302   7.262  0.3124  0.6966  0.2687
25270TIP3    H176692   5.894   7.364   7.238  1.4289 -0.4334  0.4963
25270TIP3    H276693   5.861   7.254   7.336 -0.6548 -0.0386  0.2712
25271TIP3   OH276694   3.603   6.240   0.073  0.1121  0.2912  0.0018
25271TIP3    H176695   3.561   6.290   0.003 -0.0058 -1.0794 -0.9531
25271TIP3    H276696   3.697   6.253   0.059  0.0698  0.6543  0.0610
25272TIP3   OH276697   1.045   0.011   1.955 -0.5987 -0.4014 -0.1219
25272TIP3    H176698   1.050   0.072   2.030  0.3887 -1.5862  0.8156
25272TIP3    H276699   0.989   0.056   1.892  0.0425  1.4671  0.5528
25273TIP3   OH276700   1.225   5.540   0.606 -0.5397  0.6345  0.2984
25273TIP3    H176701   1.135   5.513   0.589 -0.3625  0.1991  0.0382
25273TIP3    H276702   1.275   5.502   0.534 -0.3029  1.7879 -0.1726
25274TIP3   OH276703   0.642   9.417   6.439  0.0883  0.0216 -0.0555
25274TIP3    H176704   0.646   9.339   6.384 -1.1332  0.2064 -0.4462
25274TIP3    H276705   0.678   9.487   6.384 -0.4981  0.0714 -0.3908
25275TIP3   OH276706   2.279   4.095   7.153 -0.7812  0.0688  0.3171
25275TIP3    H176707   2.214   4.158   7.122 -0.3364  0.8636  0.9520
25275TIP3    H276708   2.268   4.019   7.097 -3.1120 -0.3224  1.1929
25276TIP3   OH276709   5.047   7.250  10.439  0.9217 -0.2061  0.4296
25276TIP3    H176710   5.051   7.191  10.514  1.3682  0.7212  1.1488
25276TIP3    H276711   5.092   7.202  10.369 -0.4191 -1.5167  0.4184
25277TIP3   OH276712   3.703   6.862   5.096  0.4290  0.6781  0.1139
25277TIP3    H176713   3.732   6.895   5.182  1.4374  1.3052 -0.4380
25277TIP3    H276714   3.734   6.929   5.034 -1.3786  0.8764 -0.6373
25278TIP3   OH276715   8.110   5.161   8.629 -0.1018 -0.4563 -0.1176
25278TIP3    H176716   8.179   5.156   8.694 -0.3181 -0.6220  0.0988
25278TIP3    H276717   8.052   5.088   8.649 -0.3362 -0.3220 -0.2994
25279TIP3   OH276718   6.969   1.347   1.200  0.1041  0.1502 -0.1584
25279TIP3    H176719   7.050   1.346   1.150  0.8129  0.3947  0.9330
25279TIP3    H276720   6.904   1.383   1.141  0.6732 -0.5207 -1.2218
25280TIP3   OH276721   7.938   7.717   8.196 -0.2011 -0.4821  0.1306
25280TIP3    H176722   7.884   7.638   8.196  0.8888 -1.2664 -0.5646
25280TIP3    H276723   8.022   7.687   8.230  0.7256 -0.0233 -1.6046
25281TIP3   OH276724   8.759   7.347   1.018 -0.2265  0.2660 -0.1116
25281TIP3    H176725   8.692   7.413   1.000  0.4122  1.1233  0.5669
25281TIP3    H276726   8.757   7.336   1.113 -1.2573 -1.7302 -0.3009
25282TIP3   OH276727   3.971   5.401   2.244 -0.2493 -0.6248  0.7254
25282TIP3    H176728   3.892   5.347   2.252 -0.9282  0.3617  0.9598
25282TIP3    H276729   3.967   5.435   2.154  0.9554 -2.1044  0.0820
25283TIP3   OH276730   8.716   6.978   4.518 -0.6183  0.2852 -0.2846
25283TIP3    H176731   8.755   6.918   4.582  1.4221  3.0177  1.2583
25283TIP3    H276732   8.701   6.924   4.440 -0.9783 -2.6456  1.6723
25284TIP3   OH276733   7.515   9.206   4.955 -0.2084 -0.3518  0.2873
25284TIP3    H176734   7.533   9.200   4.862 -2.4220 -0.1727 -0.1948
25284TIP3    H276735   7.589   9.161   4.997  1.4366  0.6418 -1.4517
25285TIP3   OH276736   8.022   5.041   1.185  0.3439  0.7570  0.4602
25285TIP3    H176737   8.075   5.121   1.194  0.2174  1.0086 -0.8066
25285TIP3    H276738   7.971   5.056   1.105 -0.8629  0.0730  1.0882
25286TIP3   OH276739   3.392   0.098   7.199 -0.0216 -0.7423  0.7027
25286TIP3    H176740   3.319   0.157   7.178  1.8768  1.8366  0.9335
25286TIP3    H276741   3.374   0.019   7.148 -1.4076  0.9796 -1.6521
25287TIP3   OH276742   7.814   9.198   3.335 -0.5808  0.0238 -0.3620
25287TIP3    H176743   7.867   9.237   3.404 -1.1561  1.3365 -0.6324
25287TIP3    H276744   7.877   9.170   3.268  0.0239 -1.6800  0.8375
25288TIP3   OH276745   0.288   6.834   1.323 -0.2284  0.3760  1.3004
25288TIP3    H176746   0.202   6.805   1.354 -0.4929 -0.8475 -0.4124
25288TIP3    H276747   0.349   6.767   1.353 -0.2783 -0.0829  0.4123
25289TIP3   OH276748   5.407   5.666   7.271 -0.0900  0.2708  0.1889
25289TIP3    H176749   5.412   5.693   7.179  0.4540  0.0000  0.1351
25289TIP3    H276750   5.496   5.677   7.304  0.3957 -2.2640 -0.0672
25290TIP3   OH276751   1.863   0.741   0.607 -0.1235  0.0039  0.2795
25290TIP3    H176752   1.771   0.760   0.586 -0.7535 -1.7592  1.2783
25290TIP3    H276753   1.908   0.747   0.522 -1.2080  0.5178 -0.2868
25291TIP3   OH276754   2.491   5.688   8.288 -0.1910 -0.6056  0.9434
25291TIP3    H176755   2.576   5.704   8.328  0.2768  1.8964 -0.7807
25291TIP3    H276756   2.510   5.631   8.214 -0.0247 -0.1907  0.6628
25292TIP3   OH276757   1.110   2.105   1.658 -0.2951  0.2939  0.2224
25292TIP3    H176758   1.055   2.169   1.703 -0.3053  0.8842 -0.6023
25292TIP3    H276759   1.066   2.090   1.574  0.5944  0.4903 -0.2949
25293TIP3   OH276760   9.992   8.333   9.819 -0.0389 -0.0836 -0.2501
25293TIP3    H176761   9.918   8.278   9.843  0.6716 -0.3570  1.4599
25293TIP3    H276762  10.010   8.385   9.898  0.9945  0.6418 -0.9412
25294TIP3   OH276763   3.964   5.903  10.582 -0.2205 -0.6673 -0.1255
25294TIP3    H176764   4.036   5.840  10.589 -0.1999 -0.5953  0.3436
25294TIP3    H276765   3.930   5.891  10.493 -0.2992 -1.4318  0.0007
25295TIP3   OH276766   8.100   5.932   0.139 -0.0785  0.0567  0.5594
25295TIP3    H176767   8.075   5.940   0.047 -0.3679  1.4121  0.7401
25295TIP3    H276768   8.085   5.840   0.160  0.1980 -0.3193 -0.8024
25296TIP3   OH276769   2.149   7.752   8.323 -0.0756 -0.0241 -0.1320
25296TIP3    H176770   2.136   7.771   8.416 -0.4129  2.2019 -0.5806
25296TIP3    H276771   2.122   7.660   8.313 -4.4492  0.8767  1.1943
25297TIP3   OH276772   7.757  10.070   5.670 -0.7419 -0.3077  0.2342
25297TIP3    H176773   7.672  10.066   5.714 -0.2036 -3.0746  1.1855
25297TIP3    H276774   7.778   9.979   5.649  2.6445  0.0802  1.3455
25298TIP3   OH276775   6.947   2.990   4.966 -0.6713 -0.0231 -0.3308
25298TIP3    H176776   6.914   3.078   4.949 -1.1334 -0.0308  0.4929
25298TIP3    H276777   6.969   2.956   4.880 -3.3439 -0.2425 -1.0160
25299TIP3   OH276778   2.082   9.525   8.707 -0.4546  0.3085 -0.1110
25299TIP3    H176779   2.024   9.540   8.632 -0.6032  0.2561 -0.0058
25299TIP3    H276780   2.116   9.437   8.695 -2.9627 -0.9931  1.5583
25300TIP3   OH276781   6.338   5.445   2.772 -0.3624 -0.1211  0.5174
25300TIP3    H176782   6.259   5.499   2.762 -1.5575 -1.7007  0.9975
25300TIP3    H276783   6.349   5.436   2.866  1.8614  2.0516  0.5515
25301TIP3   OH276784   2.353   4.211   7.717  0.0496 -0.6366  0.0921
25301TIP3    H176785   2.432   4.214   7.662  0.0972 -3.9864 -0.2472
25301TIP3    H276786   2.294   4.274   7.677  0.7251 -1.6847 -2.8708
25302TIP3   OH276787   3.194   5.871   3.400  0.0808 -0.5128  0.0752
25302TIP3    H176788   3.221   5.892   3.489  1.0843 -2.5940  0.3028
25302TIP3    H276789   3.120   5.811   3.410  1.1319 -1.9315 -0.4544
25303TIP3   OH276790   6.126   9.840   3.775 -0.0251 -0.6656  0.6459
25303TIP3    H176791   6.064   9.771   3.801 -0.3385 -1.1214 -1.1608
25303TIP3    H276792   6.180   9.799   3.707 -1.1870  1.2414 -1.5900
25304TIP3   OH276793   5.724   7.826   6.940 -0.2196 -0.1512  0.7953
25304TIP3    H176794   5.741   7.905   6.889 -0.4772 -1.4586 -1.4570
25304TIP3    H276795   5.799   7.769   6.923 -1.7937 -1.9054 -0.9335
25305TIP3   OH276796   4.473   9.679   4.205 -0.8521 -0.0619 -0.2641
25305TIP3    H176797   4.560   9.641   4.190 -0.5453 -0.2856  1.7447
25305TIP3    H276798   4.414   9.625   4.153  0.1610 -0.1708 -1.3347
25306TIP3   OH276799   4.023   2.493   9.949 -0.3693  0.5938 -0.2422
25306TIP3    H176800   3.984   2.419   9.902  1.2834 -0.7422  0.3647
25306TIP3    H276801   3.997   2.479  10.040 -0.1425  0.8406 -0.1401
25307TIP3   OH276802   7.570   7.603   1.664 -0.4505  0.4910  0.2488
25307TIP3    H176803   7.507   7.551   1.715  0.4700 -2.5587 -1.4987
25307TIP3    H276804   7.631   7.637   1.729 -0.9813 -0.8186  1.4877
25308TIP3   OH276805   6.724   4.361  10.702  0.1734 -0.3789  0.6467
25308TIP3    H176806   6.785   4.398  10.766  0.2116 -1.3930  1.2168
25308TIP3    H276807   6.657   4.317  10.754 -1.7553  1.7036  0.0778
25309TIP3   OH276808   6.677   7.561   7.181  0.3892 -0.1845 -0.4370
25309TIP3    H176809   6.766   7.529   7.196  0.8564  0.7975 -1.0147
25309TIP3    H276810   6.686   7.626   7.111 -0.4564  1.3917  0.8394
25310TIP3   OH276811   4.641   0.992   8.888  0.0910 -0.0620 -0.5053
25310TIP3    H176812   4.650   0.909   8.935  2.1517  0.3667 -0.0838
25310TIP3    H276813   4.729   1.011   8.856 -0.1461  2.4147  0.1745
25311TIP3   OH276814   1.480   5.946   4.095  0.6091 -0.2349 -0.7843
25311TIP3    H176815   1.486   6.041   4.100  1.4568 -0.2887 -0.6653
25311TIP3    H276816   1.523   5.923   4.012  0.2165 -0.5006 -0.9196
25312TIP3   OH276817   6.417   5.903   2.061 -0.2206  0.2466 -0.1763
25312TIP3    H176818   6.489   5.938   2.008  0.1920  0.7680  0.7034
25312TIP3    H276819   6.344   5.898   2.000 -0.0549  1.8501 -0.5709
25313TIP3   OH276820   0.006   7.788   4.252 -0.3143  0.8120 -0.3212
25313TIP3    H176821   0.060   7.787   4.331  0.0441 -0.0178 -0.5611
25313TIP3    H276822   0.046   7.722   4.195  0.8754  3.0217 -2.1868
25314TIP3   OH276823   1.424   3.293  10.062 -0.4038 -0.1113 -0.3267
25314TIP3    H176824   1.339   3.254  10.080 -0.0425 -0.8460 -0.2117
25314TIP3    H276825   1.477   3.222  10.027  0.3562  0.1956  0.1830
25315TIP3   OH276826   8.334   7.309   2.662 -0.3816  0.2397 -0.0104
25315TIP3    H176827   8.273   7.260   2.717 -0.1027 -0.6512 -0.4836
25315TIP3    H276828   8.417   7.306   2.710 -0.0401 -0.8700 -0.6467
25316TIP3   OH276829   9.110   1.411  10.681 -0.3273 -0.6145 -0.6263
25316TIP3    H176830   9.095   1.410  10.775  2.3967 -0.2278 -0.1086
25316TIP3    H276831   9.113   1.319  10.656 -1.6347 -0.7140 -0.4793
25317TIP3   OH276832   8.440   3.527   6.350  0.5451 -0.1307 -0.0257
25317TIP3    H176833   8.380   3.602   6.352  1.6467  0.7742  0.5980
25317TIP3    H276834   8.430   3.486   6.435 -1.5336 -1.9783 -1.0452
25318TIP3   OH276835   9.722  10.375   2.647 -0.1311 -0.8890  0.1495
25318TIP3    H176836   9.710  10.282   2.632 -1.6033 -0.6711 -0.1289
25318TIP3    H276837   9.668  10.418   2.580  0.3613  0.1693  0.4024
25319TIP3   OH276838   6.334   2.244   0.155 -0.5865 -0.6453  0.0998
25319TIP3    H176839   6.267   2.299   0.113 -0.1619 -0.4875 -0.3809
25319TIP3    H276840   6.304   2.236   0.245 -0.2974  0.9833  0.3802
25320TIP3   OH276841   1.844   8.268   5.840 -0.2982  0.2682 -0.1818
25320TIP3    H176842   1.813   8.354   5.870  1.1240  1.9310 -2.9870
25320TIP3    H276843   1.939   8.271   5.854 -0.1268 -0.4622 -1.0976
25321TIP3   OH276844   6.006   0.696   5.182 -0.5317 -0.9830 -0.0603
25321TIP3    H176845   6.075   0.759   5.160 -0.3392 -1.0429  0.3597
25321TIP3    H276846   6.053   0.616   5.205 -0.8108 -1.6477 -1.7065
25322TIP3   OH276847   7.964   1.618   2.536  0.2631  0.0163 -0.0697
25322TIP3    H176848   8.030   1.605   2.604  1.0321  0.0851 -0.7684
25322TIP3    H276849   8.010   1.669   2.469  0.4415 -2.3619 -1.9007
25323TIP3   OH276850  10.206   7.449   8.936  0.4460 -0.0591 -0.4596
25323TIP3    H176851  10.134   7.390   8.958 -0.0048  0.5256 -0.3197
25323TIP3    H276852  10.163   7.534   8.923  0.9773  0.0837 -1.4103
25324TIP3   OH276853  10.730   2.495   7.160 -0.0193  0.7814 -0.0451
25324TIP3    H176854  10.697   2.574   7.203  0.6845  1.0467  0.0201
25324TIP3    H276855  10.825   2.498   7.173 -0.2105 -2.0628  3.3732
25325TIP3   OH276856   8.977   6.825   1.104  0.5809  0.6799 -0.0979
25325TIP3    H176857   8.960   6.819   1.198 -0.6165 -2.9113 -0.3712
25325TIP3    H276858   9.069   6.800   1.095  0.7385  1.1779  0.1263
25326TIP3   OH276859   9.600   2.453   6.647 -0.1387 -0.5368  0.3669
25326TIP3    H176860   9.671   2.512   6.621 -1.0052  0.3313 -0.1009
25326TIP3    H276861   9.635   2.405   6.722  0.7436  0.2821  0.5003
25327TIP3   OH276862   6.533   8.736   5.687 -0.3573  0.2410 -0.5901
25327TIP3    H176863   6.596   8.750   5.617 -0.6989  1.6309 -0.6416
25327TIP3    H276864   6.476   8.812   5.684 -2.1156 -1.0217 -0.6042
25328TIP3   OH276865   2.637   1.413   5.973  0.0278 -0.4944  0.1366
25328TIP3    H176866   2.726   1.444   5.986  1.3280 -3.0599 -1.7271
25328TIP3    H276867   2.582   1.490   5.987  2.6369  1.5466 -0.1844
25329TIP3   OH276868   3.605   8.129   3.221  0.2891 -0.8165 -0.2879
25329TIP3    H176869   3.666   8.089   3.283 -1.3161 -0.5533  1.5557
25329TIP3    H276870   3.650   8.208   3.190  0.2490  0.3785  2.4312
25330TIP3   OH276871  10.875  10.083   2.507 -0.4466 -0.5058 -0.1094
25330TIP3    H176872  10.962  10.068   2.542 -0.3863 -0.1381 -0.1004
25330TIP3    H276873  10.889  10.102   2.414 -0.4378  0.3760  0.0623
25331TIP3   OH276874   3.209   4.936   5.990  0.0844 -0.0027 -0.8524
25331TIP3    H176875   3.266   4.874   5.945  1.7093  0.9801 -0.2446
25331TIP3    H276876   3.266   4.979   6.055 -1.3517  1.0212 -0.2023
25332TIP3   OH276877   3.253  10.523   4.900 -0.8993  0.0892  0.0125
25332TIP3    H176878   3.326  10.501   4.958 -0.2251  0.6469 -0.6167
25332TIP3    H276879   3.291  10.579   4.833 -1.6642 -0.5742 -1.0062
25333TIP3   OH276880   2.384   6.054   8.348  0.3571 -0.6933  0.2286
25333TIP3    H176881   2.351   5.982   8.294 -0.4852 -0.7863  0.8408
25333TIP3    H276882   2.458   6.089   8.299 -2.1415  1.1949 -2.5099
25334TIP3   OH276883   9.124   4.544  10.713 -0.4330 -0.6535  0.0904
25334TIP3    H176884   9.078   4.541  10.628 -1.5704  0.0966  0.6547
25334TIP3    H276885   9.216   4.558  10.690 -1.0513  2.2793 -0.9747
25335TIP3   OH276886   7.359   2.389   4.397  0.3899  0.1839  0.0212
25335TIP3    H176887   7.324   2.427   4.478  0.3627 -3.7494  2.0737
25335TIP3    H276888   7.452   2.409   4.399  0.5323 -0.5110  1.4971
25336TIP3   OH276889   9.468   8.898   4.271 -0.1063 -0.0442 -0.4384
25336TIP3    H176890   9.391   8.842   4.273 -0.2649  0.0087 -2.6209
25336TIP3    H276891   9.449   8.962   4.202  0.9163  1.4366  0.5986
25337TIP3   OH276892  10.378   6.131   0.562 -0.0792  0.8317 -0.0235
25337TIP3    H176893  10.337   6.116   0.647 -1.0318  0.4409 -0.5332
25337TIP3    H276894  10.344   6.061   0.506  1.7777  0.1261 -0.3310
25338TIP3   OH276895   9.385   2.180   8.896  0.4965 -0.4470  0.5885
25338TIP3    H176896   9.459   2.182   8.957  1.4405  2.0616 -0.4804
25338TIP3    H276897   9.309   2.202   8.949  0.8308 -1.0302  1.3366
25339TIP3   OH276898   7.784   0.877   2.998  0.4088 -0.4216  0.0566
25339TIP3    H176899   7.867   0.924   3.008  0.7430 -1.1587  0.8478
25339TIP3    H276900   7.809   0.791   2.962 -0.3246  0.4527 -2.8629
25340TIP3   OH276901   3.239   5.262   8.957 -0.0161 -0.2871  0.2358
25340TIP3    H176902   3.153   5.244   8.917 -0.3462 -1.3296  1.3449
25340TIP3    H276903   3.245   5.199   9.029  2.2322 -1.0951 -0.5929
25341TIP3   OH276904   5.458   0.354   6.633  0.0705 -0.0356  0.0927
25341TIP3    H176905   5.507   0.431   6.661  0.4862 -0.1612 -0.2880
25341TIP3    H276906   5.383   0.350   6.694  0.2359  0.4615  0.3331
25342TIP3   OH276907   4.411   0.612   3.256 -0.6874 -0.4258  0.1679
25342TIP3    H176908   4.505   0.624   3.273 -0.6681 -0.7093  0.2666
25342TIP3    H276909   4.380   0.700   3.233  0.3339 -0.8566 -3.4666
25343TIP3   OH276910   6.852   6.372   9.313 -0.1935  0.7320  0.2122
25343TIP3    H176911   6.790   6.315   9.268  1.9862 -0.2190 -1.8127
25343TIP3    H276912   6.797   6.436   9.359 -2.6405 -0.2565 -1.1613
25344TIP3   OH276913   4.432   3.055  10.575  0.0204  0.1158 -0.0470
25344TIP3    H176914   4.346   3.091  10.600 -0.6343 -0.8655 -0.8230
25344TIP3    H276915   4.439   2.974  10.624  1.3196  1.0291  1.3850
25345TIP3   OH276916   4.381   9.558   9.394 -0.1265 -0.2533 -0.1029
25345TIP3    H176917   4.381   9.653   9.397  2.7199 -0.1758 -0.2694
25345TIP3    H276918   4.371   9.531   9.486  2.3679  0.3543  0.4272
25346TIP3   OH276919   0.400   6.238   4.517 -0.0057  0.2949  0.0888
25346TIP3    H176920   0.488   6.224   4.483  0.4250  0.2713  1.1790
25346TIP3    H276921   0.352   6.278   4.444  0.9673  0.5493 -0.4295
25347TIP3   OH276922   3.368   3.835   8.628  0.3939  0.2083 -0.0000
25347TIP3    H176923   3.425   3.910   8.641  0.7686  0.1530 -1.2344
25347TIP3    H276924   3.280   3.873   8.621 -0.1042  0.1547  3.8518
25348TIP3   OH276925   8.165   0.269   4.127  0.4933  0.5284  0.6127
25348TIP3    H176926   8.089   0.253   4.183 -0.1127  1.3944  0.0703
25348TIP3    H276927   8.131   0.323   4.056  0.8666 -1.8491 -1.5191
25349TIP3   OH276928   8.430   3.571  10.681 -0.1500  0.3829  0.2606
25349TIP3    H176929   8.438   3.633  10.753 -0.7062 -0.0998  0.7468
25349TIP3    H276930   8.383   3.619  10.613  0.4176  0.8557  0.2032
25350TIP3   OH276931   7.854   4.648   7.141  0.0230  0.2973  0.0902
25350TIP3    H176932   7.860   4.553   7.147 -0.9628  0.1659 -0.7538
25350TIP3    H276933   7.782   4.671   7.200  1.1833  0.6857  1.4055
25351TIP3   OH276934   7.679  10.743   7.154 -0.1524  0.2181 -0.2091
25351TIP3    H176935   7.648  10.689   7.227  0.1814  0.1652 -0.1033
25351TIP3    H276936   7.733  10.684   7.101  2.1016  0.9603  1.1242
25352TIP3   OH276937   7.314   0.264   1.414  0.2745 -0.3004  0.4541
25352TIP3    H176938   7.397   0.217   1.409  0.7849  0.6956 -1.2206
25352TIP3    H276939   7.335   0.352   1.384 -0.9529  0.6233  2.1617
25353TIP3   OH276940   4.256   3.303   6.366  0.0337  0.0930  0.0120
25353TIP3    H176941   4.203   3.370   6.321 -0.0227  0.3069  0.3932
25353TIP3    H276942   4.193   3.238   6.395  0.2280 -0.8442 -1.5671
25354TIP3   OH276943   7.115   3.396   1.974  0.1820 -0.2260 -0.1837
25354TIP3    H176944   7.187   3.455   1.994  0.6868 -0.3846 -1.4421
25354TIP3    H276945   7.050   3.451   1.932  0.1994 -0.3583 -0.3866
25355TIP3   OH276946   8.696   7.883  10.344  0.1928  0.1227  0.3661
25355TIP3    H176947   8.642   7.949  10.300  1.1276  0.2481 -0.6157
25355TIP3    H276948   8.773   7.932  10.374  0.3134 -0.2887  0.7360
25356TIP3   OH276949  10.273   5.936   9.112  0.1841  0.2568 -0.3557
25356TIP3    H176950  10.186   5.916   9.146 -0.5264  1.4616 -1.3921
25356TIP3    H276951  10.305   6.007   9.168  1.4590 -1.6047  1.4134
25357TIP3   OH276952   2.994  10.358   8.428  0.2531 -0.1635 -0.6669
25357TIP3    H176953   2.937  10.291   8.392 -1.0620 -0.1184  1.2139
25357TIP3    H276954   3.056  10.310   8.482 -1.0215  0.0995  1.1155
25358TIP3   OH276955   4.715   5.480   3.660 -0.3535 -0.6006  0.7748
25358TIP3    H176956   4.744   5.514   3.745  2.7256  0.8758 -0.6853
25358TIP3    H276957   4.783   5.417   3.635 -1.3130 -1.1779 -0.5198
25359TIP3   OH276958   0.485   1.636   5.077  0.1326  0.6470 -0.4912
25359TIP3    H176959   0.424   1.710   5.078 -0.7546 -0.0577  0.0665
25359TIP3    H276960   0.533   1.644   5.159 -1.0213 -0.1987  0.3114
25360TIP3   OH276961   9.892   6.406   1.892  0.2315  0.2523 -1.1568
25360TIP3    H176962   9.949   6.410   1.815  0.7301  2.0850 -0.7429
25360TIP3    H276963   9.953   6.403   1.966 -0.2459 -1.1227 -0.7792
25361TIP3   OH276964   4.055   0.319   5.897  0.1600 -0.1537 -0.2075
25361TIP3    H176965   4.057   0.223   5.900 -0.8822 -0.1866 -0.2080
25361TIP3    H276966   4.132   0.346   5.948 -0.0719 -0.9903  0.6248
25362TIP3   OH276967   9.842   7.745   1.487  0.4718 -0.7687  0.1958
25362TIP3    H176968   9.933   7.716   1.485  0.8761  0.4570 -1.3743
25362TIP3    H276969   9.814   7.745   1.396 -1.4833 -2.1265  0.7303
25363TIP3   OH276970   5.087   4.555   2.563 -0.3162  0.1956 -0.0864
25363TIP3    H176971   5.054   4.625   2.618 -2.6951 -1.3673  0.6656
25363TIP3    H276972   5.165   4.522   2.608 -1.6900 -0.4583  1.9283
25364TIP3   OH276973   7.053   1.513   3.367 -0.5647 -0.2604  0.2191
25364TIP3    H176974   7.111   1.555   3.304  1.9940 -0.7244  2.1002
25364TIP3    H276975   7.005   1.448   3.316  0.4763  0.2474 -1.4769
25365TIP3   OH276976   6.088   5.719   6.867  0.3316  0.3946 -0.0815
25365TIP3    H176977   6.137   5.768   6.933 -1.8488  0.3542  1.7130
25365TIP3    H276978   6.082   5.631   6.902 -0.7390  0.3294 -0.3936
25366TIP3   OH276979   4.789  10.256   1.311 -0.6396 -0.1370 -0.6129
25366TIP3    H176980   4.708  10.208   1.329 -0.0899 -0.5424  0.9842
25366TIP3    H276981   4.857  10.208   1.359  0.6637 -0.0932 -2.3008
25367TIP3   OH276982   1.783   9.733   1.101  0.0919  0.3493 -0.1850
25367TIP3    H176983   1.781   9.795   1.028 -0.0637  0.4134 -0.1280
25367TIP3    H276984   1.793   9.789   1.179  2.3232  0.1830 -0.2836
25368TIP3   OH276985  10.522   7.711   0.210  0.2693  0.6129  0.1023
25368TIP3    H176986  10.548   7.793   0.168  0.2464  0.7718  0.3939
25368TIP3    H276987  10.604   7.670   0.236  0.2513  1.0962  0.9885
25369TIP3   OH276988   5.249   4.448   0.387 -0.5676 -0.4621  0.4402
25369TIP3    H176989   5.322   4.388   0.403  0.5738  0.7394 -0.0203
25369TIP3    H276990   5.170   4.395   0.399  0.3264 -1.4332  2.4946
25370TIP3   OH276991   0.749   6.074   9.717  0.4376 -0.5798  0.7032
25370TIP3    H176992   0.674   6.087   9.659  0.4175 -1.6935  0.4508
25370TIP3    H276993   0.777   6.162   9.741 -2.6506 -0.0879  3.0589
25371TIP3   OH276994  10.883   1.292   2.701  0.1867  0.3666  0.2590
25371TIP3    H176995  10.804   1.344   2.718  0.3918  0.6525  0.3517
25371TIP3    H276996  10.955   1.352   2.721  0.4392 -0.4146  1.8331
25372TIP3   OH276997  10.683   4.495   9.095  0.0808  0.2245 -0.2127
25372TIP3    H176998  10.621   4.446   9.148 -0.3190 -0.2312 -1.0845
25372TIP3    H276999  10.766   4.448   9.105 -0.5509 -1.3955 -1.9810
25373TIP3   OH277000   5.836  10.174   3.400  1.0666 -0.0744 -0.5251
25373TIP3    H177001   5.819  10.080   3.401 -0.9081  0.2544  0.3537
25373TIP3    H277002   5.750  10.215   3.407  1.6415  1.8692 -3.1958
25374TIP3   OH277003   6.447   1.985  10.348 -0.3048 -0.1561  0.4438
25374TIP3    H177004   6.462   1.954  10.437 -0.9144  0.5315  0.7977
25374TIP3    H277005   6.474   2.077  10.350  1.8157 -0.6923 -0.6773
25375TIP3   OH277006  10.296   2.393   6.966 -0.1323 -0.4053  0.1104
25375TIP3    H177007  10.376   2.368   7.013  0.1061  0.3547  0.1119
25375TIP3    H277008  10.321   2.390   6.874 -0.5901 -1.8589  0.0086
25376TIP3   OH277009   1.266   5.070   7.214  0.5791 -0.1111 -0.4943
25376TIP3    H177010   1.195   5.115   7.169  0.7641  0.4936 -0.2090
25376TIP3    H277011   1.273   5.116   7.298  1.5597  0.1013 -0.6756
25377TIP3   OH277012   0.795   9.163   1.080 -0.1449 -0.3120  0.5046
25377TIP3    H177013   0.870   9.114   1.114  0.8639  0.7894 -0.0529
25377TIP3    H277014   0.754   9.104   1.018  1.5404 -0.2060 -0.7946
25378TIP3   OH277015   2.265   3.287   3.424 -0.3848  0.0710 -0.0510
25378TIP3    H177016   2.216   3.334   3.356  0.5394  0.8293 -0.2226
25378TIP3    H277017   2.198   3.238   3.472 -1.3915  1.4818  0.0658
25379TIP3   OH277018   1.114   4.291   1.669 -0.5201  0.1963  0.5825
25379TIP3    H177019   1.078   4.228   1.607  0.9971  0.2591 -0.4102
25379TIP3    H277020   1.209   4.284   1.659 -0.2673  1.1777  1.9388
25380TIP3   OH277021   1.991   7.852   7.916 -0.1095 -0.0871 -0.6165
25380TIP3    H177022   1.932   7.831   7.988  1.7901 -1.2205  0.7128
25380TIP3    H277023   1.994   7.772   7.864  0.7665 -0.3027 -0.2573
25381TIP3   OH277024   4.598   3.097  10.373  0.0202  0.4990 -0.0298
25381TIP3    H177025   4.567   3.181  10.338  0.3267  0.3995 -0.5417
25381TIP3    H277026   4.538   3.078  10.446 -1.3740  0.1103 -1.2293
25382TIP3   OH277027   4.860   3.939   2.636 -0.1818 -0.5134 -0.1394
25382TIP3    H177028   4.873   4.034   2.634 -0.0863 -0.4771  1.3012
25382TIP3    H277029   4.913   3.906   2.563 -0.8927  0.5988 -1.1945
25383TIP3   OH277030   6.772   0.487   4.346 -0.1416  0.0025  0.0148
25383TIP3    H177031   6.733   0.574   4.332  1.0612  1.5619  4.4878
25383TIP3    H277032   6.700   0.433   4.378 -0.4001  0.1739 -0.2777
25384TIP3   OH277033  10.082   7.255   4.982  0.0129  0.0842  0.0249
25384TIP3    H177034  10.063   7.292   5.068  0.6757 -0.8505  0.5962
25384TIP3    H277035  10.049   7.165   4.986  1.1858 -0.3793 -0.2406
25385TIP3   OH277036   8.656   8.464   8.959  0.2473  0.4665 -0.4348
25385TIP3    H177037   8.668   8.369   8.953 -0.2211  0.3409  0.3837
25385TIP3    H277038   8.586   8.484   8.898 -1.4144 -0.1088  1.1746
25386TIP3   OH277039   9.636   8.125   0.943  0.0806 -0.1279 -0.1513
25386TIP3    H177040   9.656   8.142   0.851  1.8378 -2.6260 -0.3430
25386TIP3    H277041   9.676   8.197   0.990 -0.3315  0.8750 -1.2723
25387TIP3   OH277042   2.885   7.165   8.624  0.2797 -0.0521 -0.1481
25387TIP3    H177043   2.873   7.257   8.645 -0.2143  0.3522 -2.0323
25387TIP3    H277044   2.959   7.137   8.679  0.2540  1.3638  0.6471
25388TIP3   OH277045   3.643   0.378   1.733 -0.1682  0.0870 -0.0415
25388TIP3    H177046   3.678   0.444   1.673 -0.5069 -0.3229 -0.6951
25388TIP3    H277047   3.708   0.307   1.731 -1.4603 -1.1239 -2.0354
25389TIP3   OH277048   4.777  10.645   7.839  0.4254  0.1371  0.4519
25389TIP3    H177049   4.853  10.626   7.785  0.5600  0.2678  0.5932
25389TIP3    H277050   4.742  10.560   7.862  1.3184  0.0288  1.5032
25390TIP3   OH277051   1.942   2.114   7.036  0.1232  0.4074 -0.2860
25390TIP3    H177052   1.982   2.200   7.046 -0.3733  0.3882  3.5659
25390TIP3    H277053   1.856   2.123   7.078 -0.6165 -1.5688 -1.2634
25391TIP3   OH277054  10.728   8.368   0.431  0.1250  0.3424  0.2248
25391TIP3    H177055  10.683   8.443   0.471 -2.7859 -0.7348 -0.8084
25391TIP3    H277056  10.772   8.404   0.354 -0.5286  1.1402  0.2175
25392TIP3   OH277057   7.583   3.779   6.909 -0.0772  0.3158  0.7915
25392TIP3    H177058   7.641   3.783   6.833 -0.1273 -1.9238  0.5680
25392TIP3    H277059   7.546   3.867   6.916  1.4676  1.1208 -0.5323
25393TIP3   OH277060   0.264   1.922   0.776 -0.5199 -0.0067  0.1832
25393TIP3    H177061   0.294   1.871   0.851  0.6178  0.7767  0.2988
25393TIP3    H277062   0.171   1.936   0.791 -0.7850 -1.7667  0.2957
25394TIP3   OH277063   0.962  10.430   0.875 -0.1341 -0.9012 -0.0600
25394TIP3    H177064   0.975  10.404   0.966  2.6228  2.0025  0.5413
25394TIP3    H277065   1.019  10.506   0.863 -0.7834 -0.8296 -4.0934
25395TIP3   OH277066   7.499   8.920   0.038 -0.3786 -0.2967  0.1786
25395TIP3    H177067   7.582   8.943  -0.004 -1.0719  0.5773 -0.7567
25395TIP3    H277068   7.457   8.860  -0.024 -1.6351  1.3908 -0.6698
25396TIP3   OH277069   6.918   1.343   0.705  0.4457  0.6477 -0.7710
25396TIP3    H177070   6.886   1.416   0.757  0.2260  0.2722 -0.3756
25396TIP3    H277071   6.951   1.280   0.768 -1.5373 -0.6557 -0.9077
25397TIP3   OH277072   3.516   3.374   6.080 -0.4953 -0.5955  0.0768
25397TIP3    H177073   3.552   3.287   6.061 -0.7712 -1.0216  1.3603
25397TIP3    H277074   3.577   3.435   6.040 -0.8252 -1.3810 -1.7330
25398TIP3   OH277075   5.634   2.225  10.811 -0.0666  0.1632  0.3999
25398TIP3    H177076   5.562   2.183  10.762 -0.9133  1.1302  0.7887
25398TIP3    H277077   5.663   2.297  10.754  0.7224 -0.3108  0.1772
25399TIP3   OH277078   8.143   5.877   1.434  0.5256  0.0790 -0.2702
25399TIP3    H177079   8.118   5.846   1.521  1.4234 -1.2865 -0.4735
25399TIP3    H277080   8.129   5.972   1.438  0.2665  0.0050  1.2597
25400TIP3   OH277081   0.077   6.354   2.980 -0.7915 -0.7683 -0.0696
25400TIP3    H177082   0.041   6.301   2.909  0.0848  0.9324 -1.8778
25400TIP3    H277083   0.172   6.340   2.975 -0.7483 -1.0387  1.1485
25401TIP3   OH277084   5.110   0.286   3.009 -0.0047 -0.0235  0.7886
25401TIP3    H177085   5.035   0.344   3.022 -0.6505 -0.2981 -1.2876
25401TIP3    H277086   5.081   0.201   3.044 -0.5329 -0.0328  0.3456
25402TIP3   OH277087   1.932   0.725   3.840  0.3715 -0.3869  0.3557
25402TIP3    H177088   1.922   0.732   3.935 -0.5219  0.5058  0.2166
25402TIP3    H277089   1.844   0.705   3.808  0.6037 -0.3815 -0.2991
25403TIP3   OH277090   7.946   7.872   4.446 -0.1361  0.6113 -0.0400
25403TIP3    H177091   7.859   7.833   4.443 -0.1576  0.6442  0.0995
25403TIP3    H277092   8.002   7.811   4.398  0.1984 -0.5538  1.7374
25404TIP3   OH277093   4.194   7.666   0.174  0.3599 -0.2600  0.7440
25404TIP3    H177094   4.125   7.603   0.154 -0.3094  1.1064 -1.6691
25404TIP3    H277095   4.275   7.623   0.147  0.2157 -0.9951  1.4402
25405TIP3   OH277096  10.508   2.056   3.802 -0.1288 -0.2508 -0.5194
25405TIP3    H177097  10.508   1.982   3.863  0.5812  0.1636 -0.0009
25405TIP3    H277098  10.418   2.089   3.804 -0.2219 -0.5226 -0.0395
25406TIP3   OH277099   5.227   9.559   8.742  0.3708  0.1564 -0.1411
25406TIP3    H177100   5.164   9.623   8.776  0.6282 -0.6779  2.1153
25406TIP3    H277101   5.299   9.611   8.708  0.1014  1.1088  0.7026
25407TIP3   OH277102   7.970   7.697   3.203  0.5566 -0.5045 -0.1700
25407TIP3    H177103   7.904   7.704   3.272 -0.1475  0.3754 -0.8953
25407TIP3    H277104   8.024   7.622   3.228  0.7711  0.2142  1.7051
25408TIP3   OH277105   5.111   1.719  10.200 -0.2505  0.4906  0.2138
25408TIP3    H177106   5.181   1.698  10.138  0.9449  1.2371  1.2747
25408TIP3    H277107   5.082   1.807  10.175 -0.7435  0.2388 -0.1344
25409TIP3   OH277108   9.353   1.867   5.240  0.0447 -0.4720  0.4049
25409TIP3    H177109   9.323   1.821   5.318  0.8503  0.4232  1.2654
25409TIP3    H277110   9.369   1.798   5.176 -1.3258 -1.1701  0.7605
25410TIP3   OH277111   8.938   7.647   2.956  0.0016 -0.6735  0.1325
25410TIP3    H177112   8.873   7.714   2.934 -0.5940 -1.7978 -1.8024
25410TIP3    H277113   8.968   7.615   2.871  4.5190  1.0432  0.8103
25411TIP3   OH277114   3.159   3.541   7.774 -0.1866 -0.3380  0.1694
25411TIP3    H177115   3.067   3.519   7.782  0.4067 -2.7515  0.9746
25411TIP3    H277116   3.160   3.620   7.719 -2.6498 -0.8968 -0.7915
25412TIP3   OH277117   7.858   2.862   3.968 -0.0158 -0.7609  0.4186
25412TIP3    H177118   7.930   2.910   4.009 -0.2708 -0.9402  1.0844
25412TIP3    H277119   7.900   2.811   3.898  0.3574 -0.1226  0.1681
25413TIP3   OH277120   7.638   1.613   3.783  0.1896  0.3289  0.2798
25413TIP3    H177121   7.585   1.534   3.772  0.2629 -0.0421  2.1636
25413TIP3    H277122   7.584   1.671   3.836  0.3632  1.3475 -0.6147
25414TIP3   OH277123   9.340  10.325   7.712 -0.1344 -0.4632  0.6802
25414TIP3    H177124   9.328  10.401   7.656  0.6942  0.4654  1.7106
25414TIP3    H277125   9.323  10.358   7.801 -3.1323 -2.2645  0.9264
25415TIP3   OH277126   1.175   8.213   4.449 -0.2967  0.2874  0.2205
25415TIP3    H177127   1.244   8.266   4.409  0.7517 -0.5510  0.8620
25415TIP3    H277128   1.154   8.147   4.383 -1.0852  1.0344 -0.2935
25416TIP3   OH277129   0.211   2.890   7.664 -0.2741  0.2495 -0.4751
25416TIP3    H177130   0.226   2.966   7.720  2.0564 -1.1459  0.9518
25416TIP3    H277131   0.205   2.926   7.575  0.7926  2.0831  0.1591
25417TIP3   OH277132   1.088  10.017  10.575 -0.2424 -0.4441 -0.3440
25417TIP3    H177133   1.086  10.049  10.665  0.2909  1.6492 -1.0158
25417TIP3    H277134   1.011   9.961  10.568  0.5189 -1.9152  1.7981
25418TIP3   OH277135   9.911   0.696   1.922  0.0246 -0.2121 -0.2205
25418TIP3    H177136   9.935   0.764   1.984  0.3290 -0.9274  0.4592
25418TIP3    H277137   9.913   0.739   1.836 -1.2873  1.0270  0.3295
25419TIP3   OH277138   9.875   8.447   2.978  0.0786  0.2331  0.1509
25419TIP3    H177139   9.832   8.362   2.983 -0.0034  0.3145  1.0622
25419TIP3    H277140   9.944   8.443   3.045  1.9492 -0.1357 -1.6894
25420TIP3   OH277141   0.640   9.487   0.404 -0.1668  0.3979  0.1938
25420TIP3    H177142   0.682   9.547   0.466 -2.4829  0.1137  2.2257
25420TIP3    H277143   0.687   9.404   0.416  2.0841  1.3190 -1.5537
25421TIP3   OH277144   1.841   8.491   0.794 -0.3024 -0.2790 -1.0560
25421TIP3    H177145   1.850   8.556   0.724  2.5415  1.4631  0.6952
25421TIP3    H277146   1.776   8.529   0.853  1.3273  1.1261 -0.0535
25422TIP3   OH277147   1.707   2.320   9.045  0.1070  0.0680  0.5917
25422TIP3    H177148   1.777   2.378   9.076  1.3957  0.0002 -1.9189
25422TIP3    H277149   1.753   2.246   9.005 -1.3443  0.1777 -1.4344
25423TIP3   OH277150   4.136   3.958   6.495  0.2841  1.1336  0.6117
25423TIP3    H177151   4.064   3.925   6.441  1.0169  2.5715 -1.3387
25423TIP3    H277152   4.191   3.881   6.511 -0.3132  0.5460 -0.0912
25424TIP3   OH277153  10.673   5.988   0.564  0.1765  0.0961 -0.1654
25424TIP3    H177154  10.621   6.067   0.550  0.1646  0.0028 -0.7047
25424TIP3    H277155  10.757   6.019   0.597 -0.0703  0.2804  0.3010
25425TIP3   OH277156   2.386   5.986   8.602  0.5951  0.3129 -0.8920
25425TIP3    H177157   2.397   6.001   8.508 -0.6436  2.4487 -0.7677
25425TIP3    H277158   2.463   6.025   8.642  3.5274 -4.4944 -1.0857
25426TIP3   OH277159   3.401   4.481  10.671 -0.0800  0.1137 -0.2247
25426TIP3    H177160   3.363   4.523  10.593 -1.3445 -0.6450 -0.0423
25426TIP3    H277161   3.330   4.479  10.734  0.6564 -0.1749  0.6066
25427TIP3   OH277162  10.448   8.655   9.016 -0.3222 -0.4627 -0.8013
25427TIP3    H177163  10.355   8.660   8.996 -0.0955  1.0826 -1.6226
25427TIP3    H277164  10.455   8.686   9.107 -0.6607 -1.1568 -0.5323
25428TIP3   OH277165   8.533   9.253   9.122  0.2158 -0.4455 -0.0141
25428TIP3    H177166   8.586   9.206   9.058  1.1912 -1.0956  1.2461
25428TIP3    H277167   8.446   9.214   9.115  0.2749 -0.4129 -1.0204
25429TIP3   OH277168   0.356   0.149   5.945  0.1748 -0.0976  0.0770
25429TIP3    H177169   0.361   0.203   5.865 -0.7306  0.6199  0.4840
25429TIP3    H277170   0.441   0.162   5.987 -1.0475  3.6998  1.8103
25430TIP3   OH277171   5.324   4.495   9.504 -0.0014  0.0139 -0.3626
25430TIP3    H177172   5.275   4.413   9.511 -1.6484  1.0504  0.7291
25430TIP3    H277173   5.367   4.505   9.589 -0.2146  0.5224 -0.3103
25431TIP3   OH277174   9.879   5.280   5.244 -0.3738  0.1298  0.0290
25431TIP3    H177175   9.841   5.354   5.291 -0.4331 -1.0964  2.0294
25431TIP3    H277176   9.821   5.267   5.169 -1.2785  1.0811  0.5381
25432TIP3   OH277177   5.731   0.659   3.067  0.7386 -0.3002 -0.2964
25432TIP3    H177178   5.795   0.677   3.136 -0.0448 -1.2600  0.7368
25432TIP3    H277179   5.702   0.746   3.038  3.0731  0.1774 -1.4077
25433TIP3   OH277180   5.756   0.110   2.214  0.2681  1.1402 -0.2372
25433TIP3    H177181   5.701   0.149   2.282 -0.1892  0.3348 -0.1385
25433TIP3    H277182   5.695   0.057   2.162  0.5860  1.8220 -1.3445
25434TIP3   OH277183   0.745   4.434   5.278 -0.3110 -0.1504  0.0741
25434TIP3    H177184   0.689   4.502   5.241  0.4867  0.7583  0.4993
25434TIP3    H277185   0.761   4.462   5.368 -2.0226 -2.1961  1.1264
25435TIP3   OH277186   9.594   5.271   1.491 -0.7218 -0.7487  0.0931
25435TIP3    H177187   9.682   5.305   1.508 -1.3312  0.5857  0.7042
25435TIP3    H277188   9.564   5.319   1.414 -1.8915  0.7357  1.4184
25436TIP3   OH277189   6.690   0.804   6.092  0.2519  0.2199 -0.9806
25436TIP3    H177190   6.608   0.771   6.129  1.2418  0.2871  1.4268
25436TIP3    H277191   6.702   0.753   6.012 -0.4493 -2.2560  0.3632
25437TIP3   OH277192   8.798   3.118  10.569  0.3884 -0.0090 -0.2038
25437TIP3    H177193   8.845   3.082  10.494  1.3146  0.4679  0.1351
25437TIP3    H277194   8.731   3.175  10.531  0.5916 -0.0830 -0.6713
25438TIP3   OH277195   4.118   0.772  10.841  0.5856  0.4144  0.2858
25438TIP3    H177196   4.076   0.857  10.827  2.0200  1.1688  0.4162
25438TIP3    H277197   4.193   0.791  10.897  1.3521 -0.8249 -0.2882
25439TIP3   OH277198   0.466   2.336   8.850  0.3846  0.2899 -0.1864
25439TIP3    H177199   0.489   2.283   8.774 -0.8347  1.0767 -1.1604
25439TIP3    H277200   0.541   2.394   8.863  0.7364 -0.0692 -0.5942
25440TIP3   OH277201   0.261   8.699   7.985 -0.6332 -0.6439 -0.7081
25440TIP3    H177202   0.170   8.681   7.962 -0.8520 -0.4576 -0.0073
25440TIP3    H277203   0.257   8.730   8.075  0.1571 -0.9086 -0.5757
25441TIP3   OH277204   2.412   6.096   9.760 -0.3472 -0.0379 -0.7000
25441TIP3    H177205   2.382   6.178   9.720  1.2308  0.6225 -0.5767
25441TIP3    H277206   2.471   6.058   9.695 -1.0788 -1.1164 -0.7666
25442TIP3   OH277207   8.914   9.855   3.760 -0.4159  0.3011  0.3001
25442TIP3    H177208   8.839   9.885   3.812 -0.0733 -1.1976  1.7173
25442TIP3    H277209   8.906   9.760   3.759  1.4135  0.1188  0.3988
25443TIP3   OH277210   2.231   5.369   2.605 -0.1728  0.0492  0.0423
25443TIP3    H177211   2.320   5.337   2.619 -0.3052 -1.0214 -1.3376
25443TIP3    H277212   2.225   5.448   2.660  1.8431  0.5230 -0.3283
25444TIP3   OH277213  10.198   3.829   1.427 -0.3535  0.4861  0.1681
25444TIP3    H177214  10.248   3.911   1.415 -0.2535  0.7465  2.0810
25444TIP3    H277215  10.170   3.831   1.519 -1.5392 -0.9871 -0.1263
25445TIP3   OH277216   9.749   4.373  10.789 -0.2265  0.7612 -0.1254
25445TIP3    H177217   9.816   4.396  10.725 -1.3669  2.4326 -0.7916
25445TIP3    H277218   9.702   4.300  10.750  0.4506  0.3508 -0.1874
25446TIP3   OH277219   3.703   4.019   7.770 -0.3105  0.0615  0.3869
25446TIP3    H177220   3.722   4.051   7.681 -0.4361  0.3942  0.4791
25446TIP3    H277221   3.740   4.086   7.828  2.1745 -1.4266  0.6567
25447TIP3   OH277222   3.502   9.572   8.335 -0.4380  0.8699 -0.3171
25447TIP3    H177223   3.422   9.619   8.313 -1.3186 -0.7581 -0.7384
25447TIP3    H277224   3.507   9.501   8.271 -0.5541 -1.1710  1.7918
25448TIP3   OH277225   9.199   8.886   5.845 -0.2046  0.2889  0.3244
25448TIP3    H177226   9.251   8.961   5.875  0.2230  0.1712 -0.1022
25448TIP3    H277227   9.167   8.845   5.925 -1.1169  1.3835  0.5555
25449TIP3   OH277228   5.262   8.830   4.591 -0.8742 -0.0941  0.1272
25449TIP3    H177229   5.301   8.763   4.535 -0.4250 -0.2165  0.5747
25449TIP3    H277230   5.248   8.905   4.533 -1.7164 -0.6886 -0.4591
25450TIP3   OH277231   1.020   6.170   5.539 -0.2516 -0.6380 -0.0756
25450TIP3    H177232   0.981   6.254   5.515 -0.5960 -0.9218 -0.5266
25450TIP3    H277233   1.041   6.179   5.632  1.4825  0.6136 -0.5582
25451TIP3   OH277234   7.568   1.749   3.561 -0.3819  0.7007  0.3440
25451TIP3    H177235   7.620   1.737   3.482 -1.9158  0.0240 -0.6131
25451TIP3    H277236   7.605   1.687   3.624 -1.7728 -1.9571 -1.2684
25452TIP3   OH277237   3.185   0.884   7.241  0.0900  0.1257  0.2430
25452TIP3    H177238   3.213   0.974   7.229 -0.3283  0.0479 -1.7261
25452TIP3    H277239   3.142   0.882   7.327 -0.8556  2.0390 -0.1463
25453TIP3   OH277240   4.408   8.801   3.362 -0.3788  0.0969 -0.2055
25453TIP3    H177241   4.351   8.827   3.434  1.2245 -0.9291  1.5160
25453TIP3    H277242   4.476   8.869   3.359 -0.1862 -0.1028 -0.4725
25454TIP3   OH277243   6.377   4.793   8.111 -0.6014  0.2568 -0.2158
25454TIP3    H177244   6.456   4.783   8.059 -1.3398  0.2991 -1.3834
25454TIP3    H277245   6.350   4.704   8.133  0.9623  0.2704  2.1270
25455TIP3   OH277246   5.886   4.781   5.420 -0.7685 -0.4283  0.1520
25455TIP3    H177247   5.837   4.842   5.364 -1.5089 -0.4333  0.7723
25455TIP3    H277248   5.902   4.705   5.364 -2.5656 -0.9465  0.2485
25456TIP3   OH277249   1.424   8.055   0.085  0.3698 -0.0803  0.0386
25456TIP3    H177250   1.393   8.011   0.164 -0.9862  2.5223  1.0876
25456TIP3    H277251   1.352   8.113   0.061  0.3149 -1.4658 -3.7785
25457TIP3   OH277252   3.246   9.068   0.444  0.2065  0.9355 -0.0422
25457TIP3    H177253   3.155   9.078   0.471  0.0680  0.4453 -0.3100
25457TIP3    H277254   3.284   9.007   0.507  0.0543  0.2930 -0.5615
25458TIP3   OH277255   6.549  10.354   2.881  0.0842  0.5519 -0.5708
25458TIP3    H177256   6.481  10.315   2.935 -0.2510  0.9796 -0.6709
25458TIP3    H277257   6.629  10.344   2.931  0.5559 -2.6823 -1.7336
25459TIP3   OH277258   3.655   3.329   4.381  0.0196 -0.1613  0.4256
25459TIP3    H177259   3.582   3.268   4.372  0.2091 -0.3069 -0.2266
25459TIP3    H277260   3.708   3.293   4.452  1.0244 -1.7284 -1.0105
25460TIP3   OH277261   8.174   6.423   6.903  0.1699 -0.5116  0.4073
25460TIP3    H177262   8.262   6.395   6.876  0.8801 -0.6218  2.6196
25460TIP3    H277263   8.164   6.510   6.864  1.0206 -0.7190 -0.3214
25461TIP3   OH277264   6.734   4.887   1.452  0.6666 -0.3413  0.0554
25461TIP3    H177265   6.670   4.925   1.392 -0.6875  0.6274  1.9944
25461TIP3    H277266   6.682   4.855   1.525  2.2284 -1.7271  0.6122
25462TIP3   OH277267   6.006   3.791   8.059  1.1322  0.4179 -0.2265
25462TIP3    H177268   6.026   3.761   8.148  1.0623 -0.3609 -0.4635
25462TIP3    H277269   5.973   3.713   8.015 -0.0094  1.0917 -0.5794
25463TIP3   OH277270   8.149   8.431   2.554  0.0689  0.6173  0.0108
25463TIP3    H177271   8.148   8.525   2.575  1.9825  0.9166 -1.0029
25463TIP3    H277272   8.239   8.404   2.573 -0.4517 -1.0133  0.2244
25464TIP3   OH277273   5.353   9.747   7.600  0.1529 -0.1986  0.4048
25464TIP3    H177274   5.422   9.742   7.533 -0.1650  1.7209 -0.1129
25464TIP3    H277275   5.273   9.767   7.550 -0.2431  0.4357  1.2710
25465TIP3   OH277276   9.329   2.245  10.398  0.0221 -0.1621  0.6552
25465TIP3    H177277   9.389   2.313  10.367 -0.8553  0.2986 -0.0810
25465TIP3    H277278   9.348   2.237  10.491  1.7929 -0.6211  0.2839
25466TIP3   OH277279  10.805   3.355  10.896 -0.6114 -0.0697  0.7175
25466TIP3    H177280  10.888   3.340  10.942 -0.7967 -1.8672  0.5340
25466TIP3    H277281  10.783   3.270  10.859 -2.1238  0.5884  0.0458
25467TIP3   OH277282   0.397   4.105   9.715  0.2609 -0.2393  0.2529
25467TIP3    H177283   0.454   4.174   9.683 -0.8030  0.8543  0.6038
25467TIP3    H277284   0.320   4.152   9.749 -0.2339 -1.5597  1.0449
25468TIP3   OH277285   6.247   3.937   8.656  0.4930  0.0947  0.0633
25468TIP3    H177286   6.341   3.923   8.643  0.7350  0.0781  1.6062
25468TIP3    H277287   6.241   3.974   8.744 -0.9654 -0.0442  0.0399
25469TIP3   OH277288   3.737   7.843   5.488  0.7629 -0.4885 -0.0449
25469TIP3    H177289   3.700   7.885   5.566  0.1425 -0.1962 -0.4874
25469TIP3    H277290   3.668   7.785   5.457  0.5158  0.3584 -1.1123
25470TIP3   OH277291   3.577   5.096   3.100 -0.4962  0.3682  1.0687
25470TIP3    H177292   3.621   5.030   3.048 -0.2761 -0.2454  2.0163
25470TIP3    H277293   3.495   5.114   3.053  1.2496  2.4794 -1.4338
25471TIP3   OH277294   0.762   6.898   6.936 -0.0977 -0.0129 -0.6899
25471TIP3    H177295   0.702   6.831   6.970  0.2794 -0.7756 -1.4812
25471TIP3    H277296   0.711   6.979   6.938 -0.3529 -0.1771  0.8867
25472TIP3   OH277297   6.513   5.505  10.070 -0.7525  0.2577 -0.1377
25472TIP3    H177298   6.509   5.595  10.038  0.3813  0.3875  0.0294
25472TIP3    H277299   6.521   5.514  10.165 -1.3943 -0.0483 -0.0485
25473TIP3   OH277300   9.769  10.205   0.689  0.0909  0.4298 -0.2178
25473TIP3    H177301   9.795  10.146   0.760 -1.8321 -0.7907 -0.4676
25473TIP3    H277302   9.834  10.191   0.620  0.1400 -0.7752  0.0665
25474TIP3   OH277303   9.697   7.984   7.515  0.0040  0.3370  0.2650
25474TIP3    H177304   9.640   7.983   7.592 -1.0923 -1.5393 -0.5098
25474TIP3    H277305   9.656   7.923   7.454  0.5895  2.1262 -2.0365
25475TIP3   OH277306  10.335   1.626   0.182  0.2290  0.4206 -0.0673
25475TIP3    H177307  10.258   1.644   0.129 -0.3540  1.9105  1.2226
25475TIP3    H277308  10.379   1.553   0.137 -2.0880 -0.6983 -0.6452
25476TIP3   OH277309   0.488  10.458   3.284 -0.0743 -0.1278 -0.3648
25476TIP3    H177310   0.413  10.401   3.303 -0.2635  0.0374 -0.6100
25476TIP3    H277311   0.453  10.524   3.224  0.2224  0.0611 -0.3300
25477TIP3   OH277312   6.857   7.168   8.002  0.0674 -0.0650  0.1942
25477TIP3    H177313   6.855   7.078   7.970 -0.3918 -0.1057  0.3266
25477TIP3    H277314   6.780   7.175   8.059  0.7895  0.0331  1.1880
25478TIP3   OH277315   6.339   5.822   2.995  0.2554  0.1225 -0.0634
25478TIP3    H177316   6.325   5.915   2.978 -0.1400  0.1115  0.1923
25478TIP3    H277317   6.370   5.787   2.911  2.4040  0.8645  0.3622
25479TIP3   OH277318  10.739   1.519   7.188 -0.4137 -0.0152 -0.6055
25479TIP3    H177319  10.824   1.485   7.216  0.0330  0.7486 -1.0138
25479TIP3    H277320  10.682   1.503   7.263  0.4844  0.9372  0.3027
25480TIP3   OH277321   9.791   2.967   6.772 -0.4218 -0.2099 -0.2667
25480TIP3    H177322   9.872   2.917   6.763  1.0847  2.1122 -0.3125
25480TIP3    H277323   9.732   2.908   6.820  1.5349 -1.6760  0.4635
25481TIP3   OH277324   9.540   0.526   9.309 -0.5015  0.1187 -0.0660
25481TIP3    H177325   9.609   0.481   9.357 -0.3168 -0.0034 -0.4444
25481TIP3    H277326   9.459   0.481   9.334 -0.5608  0.8063  1.0446
25482TIP3   OH277327  10.537   0.502   0.311  0.1410 -0.0197 -0.2131
25482TIP3    H177328  10.454   0.483   0.354 -1.0038  3.6762 -0.3904
25482TIP3    H277329  10.595   0.530   0.382  0.2271  0.2910 -0.4020
25483TIP3   OH277330   7.340   1.274   4.321 -0.5891 -0.0204 -0.2401
25483TIP3    H177331   7.266   1.231   4.365  0.8919 -1.9927  0.4665
25483TIP3    H277332   7.405   1.205   4.311  1.3901  1.7654 -0.3267
25484TIP3   OH277333   8.281   4.277   3.615 -1.0321 -0.0478 -0.0437
25484TIP3    H177334   8.306   4.248   3.527 -2.1032 -0.9838 -0.0504
25484TIP3    H277335   8.333   4.222   3.674  1.1321  1.8329 -0.0194
25485TIP3   OH277336   4.838   1.063   1.650 -0.1552 -0.7048 -0.1424
25485TIP3    H177337   4.906   1.001   1.623 -0.1494 -0.4491 -0.7195
25485TIP3    H277338   4.875   1.107   1.727  0.4834 -0.3076 -0.6710
25486TIP3   OH277339   7.510   6.801   5.050  0.3562  0.1571  0.1460
25486TIP3    H177340   7.539   6.880   5.005  3.0338 -0.8901 -0.1884
25486TIP3    H277341   7.469   6.748   4.981 -2.7016  1.6859  0.6334
25487TIP3   OH277342   3.865   7.069   5.548  0.0725  0.1290 -0.2638
25487TIP3    H177343   3.800   7.007   5.516  0.6689 -0.9719  0.5900
25487TIP3    H277344   3.934   7.015   5.585  0.3888  1.3172  0.9597
25488TIP3   OH277345   8.038   5.941  10.779 -0.1004 -0.3342 -0.7619
25488TIP3    H177346   8.114   5.999  10.772 -0.6894  0.5106 -0.2957
25488TIP3    H277347   8.067   5.859  10.739  0.6370  0.3904 -1.7870
25489TIP3   OH277348   7.138   0.566   7.384  0.0773  0.5768 -0.3141
25489TIP3    H177349   7.136   0.610   7.468  1.2557 -0.6836  0.4093
25489TIP3    H277350   7.181   0.628   7.325  0.6063  0.8718  0.3791
25490TIP3   OH277351   7.456   5.265   4.195 -0.6002  0.1994  0.4232
25490TIP3    H177352   7.512   5.194   4.165 -0.3155  0.2552  0.8120
25490TIP3    H277353   7.382   5.222   4.237 -0.4055  0.1311  0.6992
25491TIP3   OH277354   6.748   2.911   5.625  0.1114 -0.5981  0.3687
25491TIP3    H177355   6.758   2.998   5.585  0.3789 -1.2148 -0.9683
25491TIP3    H277356   6.731   2.853   5.551  1.0353 -1.8727  1.1221
25492TIP3   OH277357   7.546   0.497   7.672 -0.3623  0.0616  0.2080
25492TIP3    H177358   7.498   0.419   7.644 -0.5561  0.1993  0.1463
25492TIP3    H277359   7.636   0.468   7.685  0.2188  0.3675 -2.4426
25493TIP3   OH277360   5.961   3.979   2.644 -0.3571 -0.0591 -0.1689
25493TIP3    H177361   5.870   3.971   2.670 -0.6327 -0.1052 -1.1129
25493TIP3    H277362   5.959   3.981   2.548  0.4689  1.8636 -0.1956
25494TIP3   OH277363   1.840   7.429   1.968 -0.4131 -0.3475  0.0194
25494TIP3    H177364   1.930   7.396   1.977 -0.9342 -1.7024  0.4061
25494TIP3    H277365   1.788   7.375   2.027 -1.3054  1.2483  0.7304
25495TIP3   OH277366   9.540   5.472   4.184 -0.3403 -0.2209  0.0963
25495TIP3    H177367   9.634   5.454   4.182  0.0020  1.2556  1.0723
25495TIP3    H277368   9.503   5.412   4.119  1.3427 -0.4251 -0.7474
25496TIP3   OH277369   2.864   9.979   4.833  0.0907  0.0912  0.4800
25496TIP3    H177370   2.894   9.912   4.772 -0.0531  0.0620  0.4400
25496TIP3    H277371   2.846   9.932   4.915 -1.7130 -0.2363 -0.0570
25497TIP3   OH277372   9.321  10.682   0.334  0.1981 -0.2267  0.1097
25497TIP3    H177373   9.278  10.651   0.414  0.1623 -0.0558  0.1566
25497TIP3    H277374   9.371  10.759   0.363 -0.8500  0.6178 -0.2949
25498TIP3   OH277375   9.163   8.031   3.403 -0.5011 -0.3007 -0.1080
25498TIP3    H177376   9.141   8.081   3.481 -3.8134 -0.0432 -1.0781
25498TIP3    H277377   9.153   8.093   3.331  1.8428 -0.7091 -0.8967
25499TIP3   OH277378   0.924   5.387   1.915  0.5688  0.3956  0.1101
25499TIP3    H177379   0.963   5.451   1.974 -0.3925  0.0886  1.1149
25499TIP3    H277380   0.998   5.336   1.882  1.0980  0.2145  1.4985
25500TIP3   OH277381   8.441   6.748   7.823 -0.5279  0.5442  0.1783
25500TIP3    H177382   8.415   6.835   7.853  1.2604  1.0250  0.4867
25500TIP3    H277383   8.517   6.726   7.877  0.4352 -0.2269 -1.3957
25501TIP3   OH277384   5.142   6.514   1.395 -1.1762 -0.4602  0.3529
25501TIP3    H177385   5.205   6.451   1.429  0.1308 -0.3115 -1.6120
25501TIP3    H277386   5.057   6.471   1.404 -0.4365 -1.9970  0.1450
25502TIP3   OH277387   9.281   2.933   3.135  0.3249 -0.3273  0.4193
25502TIP3    H177388   9.331   2.865   3.091 -0.1579 -0.1711 -0.3945
25502TIP3    H277389   9.346   2.997   3.164  0.7031 -0.7338  0.4673
25503TIP3   OH277390   7.003   6.084  10.877 -0.4924 -0.2813  0.2090
25503TIP3    H177391   6.980   6.021  10.945 -2.3116 -1.6710 -1.5597
25503TIP3    H277392   6.920   6.119  10.847  0.2834  0.6198 -1.0113
25504TIP3   OH277393   9.281   1.444   4.400 -0.6192 -0.2733  0.1598
25504TIP3    H177394   9.310   1.361   4.436 -0.4854 -0.7257 -0.9419
25504TIP3    H277395   9.197   1.424   4.358 -0.9551  0.3166  0.5360
25505TIP3   OH277396   8.128   3.198   3.639 -0.5896 -0.0892 -0.1186
25505TIP3    H177397   8.109   3.261   3.570 -3.1172 -0.0357  0.4967
25505TIP3    H277398   8.134   3.250   3.719  1.0156 -0.2872 -0.0775
25506TIP3   OH277399   0.561   1.421   9.866 -0.1040  0.2177 -0.4142
25506TIP3    H177400   0.557   1.461   9.779 -0.9732  0.9788 -0.0492
25506TIP3    H277401   0.652   1.431   9.893 -0.3146  2.1153 -0.2865
25507TIP3   OH277402   0.482  10.136   1.965 -0.0869  0.4085  0.0629
25507TIP3    H177403   0.531  10.064   1.926 -0.7919 -0.2619  0.3923
25507TIP3    H277404   0.538  10.168   2.036 -0.6002 -1.1608  1.2503
25508TIP3   OH277405   7.654   0.896   1.351  0.9608 -0.1304  0.7775
25508TIP3    H177406   7.580   0.880   1.409  0.3296 -1.1548 -0.2673
25508TIP3    H277407   7.727   0.851   1.394  0.9827  0.7708  1.7412
25509TIP3   OH277408   8.018   7.011   2.158  0.3483  0.5116 -0.0572
25509TIP3    H177409   7.958   6.966   2.216 -0.5598  0.3032 -1.1353
25509TIP3    H277410   8.000   7.104   2.172 -0.0617  0.4555 -0.2032
25510TIP3   OH277411   6.047   2.076   8.738 -0.0570  0.7281  0.0151
25510TIP3    H177412   6.037   1.987   8.772  0.4111  0.4382 -0.5834
25510TIP3    H277413   6.037   2.132   8.815  1.3662  0.0699  0.7179
25511TIP3   OH277414   9.461   3.841   5.010 -0.8998 -0.1139 -0.2454
25511TIP3    H177415   9.511   3.887   4.943 -1.6632  0.7425 -0.2355
25511TIP3    H277416   9.511   3.761   5.026 -0.7954 -0.4234 -1.9548
25512TIP3   OH277417   2.926   7.304   3.587 -0.2012  0.4403 -0.0875
25512TIP3    H177418   2.977   7.385   3.592  0.3848 -0.0080  1.5035
25512TIP3    H277419   2.978   7.239   3.634 -1.4111 -0.4721  0.0424
25513TIP3   OH277420   9.047   6.566   3.624  0.2698 -0.5915 -0.0725
25513TIP3    H177421   9.057   6.629   3.696  0.8381 -0.5067 -0.2221
25513TIP3    H277422   9.105   6.598   3.555  0.1098 -0.9521 -0.3790
25514TIP3   OH277423   6.419   5.243   2.588  0.0811 -0.2908 -0.6415
25514TIP3    H177424   6.387   5.305   2.653  0.2440 -1.9475  1.1171
25514TIP3    H277425   6.341   5.197   2.557  0.1709 -0.6764 -0.3126
25515TIP3   OH277426   8.308   8.833   7.229 -0.2956  0.4944 -0.3592
25515TIP3    H177427   8.334   8.824   7.138  3.3953 -0.2849  0.6284
25515TIP3    H277428   8.291   8.927   7.241 -0.1416  0.6980 -1.6386
25516TIP3   OH277429  10.576   1.706   7.059  0.1161 -0.4021 -0.2618
25516TIP3    H177430  10.530   1.735   7.137  0.9098 -0.6339  0.3060
25516TIP3    H277431  10.666   1.691   7.088  1.0379  1.7516 -1.7240
25517TIP3   OH277432   6.253   2.745   2.770 -0.0850  0.4595 -0.0875
25517TIP3    H177433   6.306   2.808   2.722  0.1173  0.9891  0.7996
25517TIP3    H277434   6.294   2.660   2.750  0.5752  0.7709 -0.0962
25518TIP3   OH277435   3.188   8.436   8.420 -0.2598 -0.6353 -0.1084
25518TIP3    H177436   3.103   8.448   8.463  0.5545  0.0542  1.4093
25518TIP3    H277437   3.167   8.424   8.328 -2.0683 -1.6270  0.3909
25519TIP3   OH277438   6.758  10.298   1.250 -0.3394  0.1088  0.6966
25519TIP3    H177439   6.791  10.376   1.208  0.4041 -0.4659  0.1901
25519TIP3    H277440   6.697  10.260   1.187  2.3248 -1.8879 -0.8973
25520TIP3   OH277441   1.402   5.672   7.235  0.1685 -0.4373 -0.0222
25520TIP3    H177442   1.445   5.685   7.150  0.9009  2.4194  0.6608
25520TIP3    H277443   1.406   5.578   7.249 -0.3776 -1.0890 -3.3223
25521TIP3   OH277444   2.113  10.352   4.040 -0.1253  1.1502  0.0153
25521TIP3    H177445   2.088  10.297   4.114  0.1260  2.5815  1.2104
25521TIP3    H277446   2.116  10.292   3.966  2.0530 -0.8826  1.5979
25522TIP3   OH277447   8.883   6.126   8.166 -0.4120  0.4222  0.3929
25522TIP3    H177448   8.934   6.207   8.161  0.7679 -0.2971  0.3953
25522TIP3    H277449   8.866   6.103   8.074 -1.1282  0.8903  0.3999
25523TIP3   OH277450   9.022   4.889   7.571 -0.0562 -0.0935 -0.6157
25523TIP3    H177451   9.045   4.927   7.655  0.9504 -4.6011  1.4540
25523TIP3    H277452   9.103   4.891   7.520  0.2151 -0.2465 -0.1921
25524TIP3   OH277453   1.259   5.095   8.540  0.0777  0.4521 -0.1234
25524TIP3    H177454   1.269   5.121   8.449  0.9573  2.4546  0.4905
25524TIP3    H277455   1.236   5.175   8.586 -2.7927 -0.9328  1.1243
25525TIP3   OH277456   0.899   1.821  10.707 -0.2557  0.1491 -0.2718
25525TIP3    H177457   0.969   1.855  10.762  1.2707 -0.4047 -1.7761
25525TIP3    H277458   0.866   1.744  10.754  2.5600 -1.6866 -1.0730
25526TIP3   OH277459  10.494   8.887   5.187  0.4901 -0.6484 -0.5004
25526TIP3    H177460  10.471   8.907   5.278 -1.8336 -1.1901 -0.8994
25526TIP3    H277461  10.587   8.908   5.180  0.6222 -0.2040  1.8819
25527TIP3   OH277462   1.541   2.557   2.098  0.1592  0.7787  0.7800
25527TIP3    H177463   1.572   2.540   2.186 -0.3713  0.9322  1.0023
25527TIP3    H277464   1.555   2.650   2.084  2.5369  0.3462 -0.2280
25528TIP3   OH277465   0.413   9.256   6.077 -0.7067 -0.0769  0.6849
25528TIP3    H177466   0.339   9.197   6.091 -1.4375  0.6343 -0.0536
25528TIP3    H277467   0.440   9.239   5.987  0.7265 -1.0747  1.2717
25529TIP3   OH277468   0.854   8.513   1.959  0.6612  0.1981 -0.7482
25529TIP3    H177469   0.855   8.535   2.052  0.6231 -2.3413 -0.0674
25529TIP3    H277470   0.940   8.472   1.944 -0.5350 -2.4270 -0.9484
25530TIP3   OH277471   6.751   2.513   3.196 -0.4927 -0.2335 -0.5613
25530TIP3    H177472   6.797   2.597   3.192 -1.7243  0.7375  2.6491
25530TIP3    H277473   6.821   2.448   3.203  0.4919  0.3916 -3.1846
25531TIP3   OH277474   2.331   3.029   1.913  0.0909  0.2352  0.6254
25531TIP3    H177475   2.282   2.947   1.911  0.6785 -0.1122 -0.4423
25531TIP3    H277476   2.419   3.003   1.938 -0.0337  0.7376  1.6310
25532TIP3   OH277477   1.098   3.872   0.278 -0.2282 -0.1782 -0.4866
25532TIP3    H177478   1.184   3.887   0.317 -1.4554 -0.3498  2.5906
25532TIP3    H277479   1.081   3.951   0.227  1.0080  0.7030  0.4006
25533TIP3   OH277480   9.320   8.382   5.519 -0.0904  0.1285 -0.2080
25533TIP3    H177481   9.269   8.319   5.570 -0.1589  1.5111  1.5081
25533TIP3    H277482   9.388   8.412   5.579  2.2551 -0.9735 -2.1424
25534TIP3   OH277483   9.731   1.503  10.141  0.5457  0.0214 -0.9053
25534TIP3    H177484   9.772   1.583  10.174  0.6297  0.3363 -1.7493
25534TIP3    H277485   9.657   1.534  10.089 -1.8076 -0.5488  1.8100
25535TIP3   OH277486   7.234   0.072   6.366 -0.5217  0.0389  0.3063
25535TIP3    H177487   7.194   0.055   6.452 -2.4790 -0.9335 -0.7462
25535TIP3    H277488   7.183   0.019   6.305  3.2583 -2.4313 -1.0274
25536TIP3   OH277489   2.669  10.524   9.651  0.0481  0.5763 -0.0803
25536TIP3    H177490   2.600  10.460   9.669 -0.0812  0.7764  0.1303
25536TIP3    H277491   2.750  10.475   9.663 -0.0531  0.1965 -0.8393
25537TIP3   OH277492   6.672   3.505   7.388 -0.5240  0.0468  0.4300
25537TIP3    H177493   6.615   3.529   7.315 -0.0828  0.8831  0.3569
25537TIP3    H277494   6.698   3.414   7.369  0.0807  0.4512 -0.7807
25538TIP3   OH277495   4.112   2.893   1.641 -0.1639  0.0523  0.4621
25538TIP3    H177496   4.039   2.883   1.701 -0.5866  0.5682  0.0484
25538TIP3    H277497   4.189   2.864   1.690 -0.2567  1.9132  1.8204
25539TIP3   OH277498   1.518   8.324  10.491  0.3221  0.4946  0.0865
25539TIP3    H177499   1.558   8.240  10.466  1.5774  0.5684  1.6935
25539TIP3    H277500   1.462   8.346  10.417  2.5716 -0.0793 -1.9338
25540TIP3   OH277501   5.405   1.277   0.717  0.0765 -0.0910  0.3696
25540TIP3    H177502   5.394   1.260   0.810 -0.3503  0.0430  0.3463
25540TIP3    H277503   5.499   1.291   0.706  0.5414 -2.7853  0.3119
25541TIP3   OH277504   8.015   9.350   6.655 -0.5493  0.1486 -0.2125
25541TIP3    H177505   7.972   9.311   6.579  2.3537 -1.3183 -1.2149
25541TIP3    H277506   8.028   9.277   6.715  1.6540  0.2275 -0.5221
25542TIP3   OH277507   5.468   4.059   3.066  0.3184  0.3787 -0.4611
25542TIP3    H177508   5.478   4.013   2.983  1.4469  0.2407 -0.2606
25542TIP3    H277509   5.462   4.152   3.041  0.7169  0.3443 -0.6991
25543TIP3   OH277510   6.199   7.080   8.607 -0.2623 -0.1075  0.2708
25543TIP3    H177511   6.198   6.984   8.600 -1.1702 -0.2485  1.9863
25543TIP3    H277512   6.288   7.101   8.634  0.1024 -0.3969 -0.6461
25544TIP3   OH277513   2.736   4.911   1.470 -0.3993 -0.4713 -0.0929
25544TIP3    H177514   2.813   4.968   1.480 -1.6333  1.0320  1.5194
25544TIP3    H277515   2.765   4.842   1.410  2.3499 -0.2388  0.8066
25545TIP3   OH277516   2.470   2.289   0.956  0.1722  0.0391 -0.5695
25545TIP3    H177517   2.462   2.375   0.914 -0.0958 -0.4638 -1.5850
25545TIP3    H277518   2.381   2.254   0.957  0.1991 -0.0294  0.2999
25546TIP3   OH277519   7.643  10.882   7.676  0.7732 -0.3485 -0.3799
25546TIP3    H177520   7.706  10.816   7.705  0.4355 -1.3021 -1.7161
25546TIP3    H277521   7.688  10.927   7.605  1.3631  1.5453  1.1183
25547TIP3   OH277522   8.288  10.517   2.546 -0.2516  0.3909  0.1434
25547TIP3    H177523   8.210  10.559   2.583 -0.2711  0.4179  0.0732
25547TIP3    H277524   8.358  10.581   2.559 -0.4125  0.7081 -0.5233
25548TIP3   OH277525   0.179   6.041   3.100 -0.1015  0.0678  0.2042
25548TIP3    H177526   0.095   5.998   3.113  0.5537 -1.5350 -0.5732
25548TIP3    H277527   0.178   6.068   3.008 -0.4694  1.6977  0.6587
25549TIP3   OH277528  10.140   0.157   3.417  0.1953 -0.0600 -0.6854
25549TIP3    H177529  10.164   0.182   3.328  0.0924 -0.7473 -0.9135
25549TIP3    H277530  10.223   0.153   3.464  0.2485  0.3345 -0.7429
25550TIP3   OH277531   1.418   0.680   1.602 -0.3076 -0.1814  0.0806
25550TIP3    H177532   1.502   0.648   1.568 -0.2337 -0.1564  0.2355
25550TIP3    H277533   1.400   0.623   1.677  0.7530  1.2886  1.5260
25551TIP3   OH277534   3.504   5.678   1.166  0.3084  0.3114 -0.2368
25551TIP3    H177535   3.491   5.705   1.076 -1.1347 -0.0876 -0.1611
25551TIP3    H277536   3.598   5.657   1.171  0.6214  1.3335 -1.3463
25552TIP3   OH277537   2.686   0.014   9.322 -0.4473  0.0542 -0.1253
25552TIP3    H177538   2.735  -0.051   9.273 -0.7265  0.1565 -0.5438
25552TIP3    H277539   2.596   0.003   9.294 -0.2755  1.7318 -1.4912
25553TIP3   OH277540   0.366   1.594   2.590  0.0701 -0.3770  0.1432
25553TIP3    H177541   0.342   1.518   2.536  0.4545  1.1417 -2.2936
25553TIP3    H277542   0.441   1.633   2.546 -0.4071  1.7021  1.0567
25554TIP3   OH277543   1.377   4.420   1.673  0.0821 -0.6132 -0.3703
25554TIP3    H177544   1.339   4.469   1.600 -0.6861 -0.9067 -0.1782
25554TIP3    H277545   1.324   4.444   1.748 -0.1599 -1.5428 -0.2252
25555TIP3   OH277546   1.324   7.379   8.239 -0.1205  0.3145  0.3654
25555TIP3    H177547   1.314   7.396   8.146 -1.7478  1.6270  0.7316
25555TIP3    H277548   1.353   7.288   8.244 -2.2858 -0.5679 -1.3654
25556TIP3   OH277549   3.694   1.236   9.874 -0.3295 -0.0860 -0.2726
25556TIP3    H177550   3.704   1.209   9.965  2.0856 -2.0293 -0.9855
25556TIP3    H277551   3.768   1.195   9.829  0.2615  3.1870 -2.6266
25557TIP3   OH277552   2.300   5.807   1.622  0.0992  0.3173 -0.0491
25557TIP3    H177553   2.359   5.859   1.567  1.7309 -1.1652  0.2203
25557TIP3    H277554   2.227   5.785   1.565  1.3393 -0.4704 -1.4002
25558TIP3   OH277555   2.442   7.151   0.773  0.4309  0.2624  0.1157
25558TIP3    H177556   2.501   7.142   0.699 -1.1037  0.8427 -1.2407
25558TIP3    H277557   2.469   7.232   0.816  0.6330  0.5242 -0.4889
25559TIP3   OH277558   3.660   2.201   4.996 -0.1008  0.1463  0.1077
25559TIP3    H177559   3.721   2.269   4.969 -0.4279  0.7512  0.8641
25559TIP3    H277560   3.664   2.136   4.925  1.4577  0.1288  0.1723
25560TIP3   OH277561   9.068   6.023   6.844  0.5673  0.3420 -0.9062
25560TIP3    H177562   9.137   6.012   6.778  1.2514 -0.0080 -0.1435
25560TIP3    H277563   9.080   5.949   6.904 -0.0963  0.6174 -0.4215
25561TIP3   OH277564   4.672   3.761   4.615  0.5824 -0.7446 -0.0124
25561TIP3    H177565   4.750   3.753   4.670 -0.5246  1.1651  1.9611
25561TIP3    H277566   4.619   3.828   4.657 -2.4869 -2.4059 -0.8998
25562TIP3   OH277567   3.786  10.107   5.936 -0.4049  0.5281 -0.2730
25562TIP3    H177568   3.843  10.040   5.898  0.5189 -1.9492  4.6724
25562TIP3    H277569   3.828  10.190   5.913  2.1449 -0.9204 -1.2829
25563TIP3   OH277570   7.351   9.374   4.282  0.3989 -0.4913 -0.0233
25563TIP3    H177571   7.381   9.382   4.191  0.6352 -0.5395  0.0504
25563TIP3    H277572   7.284   9.442   4.291  1.6587  0.7637  0.3041
25564TIP3   OH277573   5.532   6.256   8.610 -0.3144  0.4874 -0.2156
25564TIP3    H177574   5.508   6.239   8.519  0.8104 -0.6947 -0.3166
25564TIP3    H277575   5.600   6.323   8.605 -1.9008  2.2136 -0.0568
25565TIP3   OH277576   2.458   1.813  10.503 -0.3291 -0.3722 -0.4467
25565TIP3    H177577   2.461   1.907  10.482 -2.4069 -0.4472 -1.3180
25565TIP3    H277578   2.542   1.779  10.474  1.3551  1.5340  1.7808
25566TIP3   OH277579   9.683   9.716   2.172  0.1010 -0.0961 -0.0019
25566TIP3    H177580   9.636   9.673   2.244 -1.0874  2.4786  0.8958
25566TIP3    H277581   9.655   9.808   2.177  2.1453  0.7313 -2.0460
25567TIP3   OH277582   3.553   6.670   4.628  0.2230  0.4726 -0.0907
25567TIP3    H177583   3.497   6.737   4.667  0.8058  0.0317  1.6352
25567TIP3    H277584   3.595   6.713   4.554 -1.7811  1.0319 -0.9486
25568TIP3   OH277585   5.280   8.718   4.118 -0.5878  0.2435  0.6821
25568TIP3    H177586   5.301   8.635   4.076 -2.6520  0.0850 -0.1276
25568TIP3    H277587   5.324   8.714   4.203 -1.5035 -2.1307  1.1007
25569TIP3   OH277588   4.439   5.944   2.150 -0.0523  0.4434 -0.0206
25569TIP3    H177589   4.429   5.962   2.243 -0.4131 -0.9307  0.2352
25569TIP3    H277590   4.449   5.849   2.145 -2.2809  0.2119 -1.5520
25570TIP3   OH277591   3.697   9.326   5.725 -0.2221 -0.3016 -0.0717
25570TIP3    H177592   3.668   9.371   5.646  1.7050 -1.2831 -1.4401
25570TIP3    H277593   3.676   9.234   5.709  2.0069 -0.8107 -0.4260
25571TIP3   OH277594   4.356   6.517   7.956 -0.0194  0.1566  0.0742
25571TIP3    H177595   4.371   6.427   7.925 -0.6720  0.2914 -0.6820
25571TIP3    H277596   4.380   6.515   8.048  1.6056 -0.3788 -0.3191
25572TIP3   OH277597   9.908   8.374   4.282  0.0138 -0.8362  0.0344
25572TIP3    H177598   9.892   8.318   4.206  0.7468 -0.3012 -0.5395
25572TIP3    H277599   9.937   8.314   4.351 -2.0645 -1.5174  0.3794
25573TIP3   OH277600   5.245   2.790   7.530 -0.5551 -0.4214 -0.3124
25573TIP3    H177601   5.280   2.805   7.443 -1.0781 -1.4348 -0.7219
25573TIP3    H277602   5.298   2.844   7.588 -0.5678  0.7086 -1.3223
25574TIP3   OH277603   8.964   6.257   6.700  0.1297 -0.4974  0.1265
25574TIP3    H177604   8.937   6.332   6.754 -1.0521 -1.2406  0.6149
25574TIP3    H277605   8.987   6.189   6.763 -0.5325 -1.1231 -0.2856
25575TIP3   OH277606  10.677   7.380   3.831  0.4285  0.4548  0.4116
25575TIP3    H177607  10.724   7.413   3.755 -0.5818  1.5279  0.2387
25575TIP3    H277608  10.620   7.452   3.858  0.7896  0.1165  2.2147
25576TIP3   OH277609   0.200   9.933   5.183  0.0522  0.0747  0.1318
25576TIP3    H177610   0.213   9.924   5.089  0.3924  1.6463  0.0058
25576TIP3    H277611   0.217   9.845   5.218 -0.8168 -0.7170 -1.3271
25577TIP3   OH277612   5.483   9.341  10.342 -0.1694  0.2705 -0.2442
25577TIP3    H177613   5.494   9.295  10.259 -1.1516  2.3870 -1.6161
25577TIP3    H277614   5.557   9.312  10.395  0.8932 -0.5804 -2.0911
25578TIP3   OH277615   1.463   7.513   6.916  0.3205 -0.3203  0.4416
25578TIP3    H177616   1.423   7.463   6.987 -0.6956 -1.4836 -0.8974
25578TIP3    H277617   1.429   7.473   6.836  1.8855  0.5658 -0.7316
25579TIP3   OH277618   5.358   3.972   6.020  0.0706 -0.3679  0.0657
25579TIP3    H177619   5.333   4.040   6.083 -0.8009 -0.5038 -0.1270
25579TIP3    H277620   5.407   4.019   5.952 -1.6937  0.3197 -0.7781
25580TIP3   OH277621   4.003   7.539   9.654  0.4040  0.1086 -0.3091
25580TIP3    H177622   3.981   7.446   9.643  1.6988 -0.0549 -1.9620
25580TIP3    H277623   4.094   7.538   9.684  0.3876  0.8355 -0.2313
25581TIP3   OH277624   1.585   1.267   3.516 -0.4398 -0.1875  0.3275
25581TIP3    H177625   1.510   1.273   3.575 -0.0811 -3.4381  1.3116
25581TIP3    H277626   1.559   1.204   3.449  1.2912 -1.2633  0.5842
25582TIP3   OH277627   5.075   1.736   4.818  0.3045 -0.0994  0.3494
25582TIP3    H177628   5.015   1.674   4.777  0.0325 -0.3972  1.1620
25582TIP3    H277629   5.023   1.814   4.835  0.0623 -0.4499  1.2839
25583TIP3   OH277630   8.901   4.660   3.727  0.1251 -0.4222  0.5008
25583TIP3    H177631   8.969   4.633   3.789  0.1203 -0.4653  0.4875
25583TIP3    H277632   8.851   4.580   3.711  0.9649 -0.7462 -0.6183
25584TIP3   OH277633  10.450   6.700   5.370 -0.6581  0.0124  0.4065
25584TIP3    H177634  10.369   6.707   5.319  0.1371 -0.4458 -0.9550
25584TIP3    H277635  10.428   6.741   5.455 -1.8466  1.3156 -0.4757
25585TIP3   OH277636   9.962   2.059   0.574 -0.0090  0.3986 -0.6263
25585TIP3    H177637   9.892   2.019   0.627  0.7558  1.4027  1.2469
25585TIP3    H277638   9.956   2.152   0.593  0.3080  0.8096 -2.3762
25586TIP3   OH277639   3.362   4.444   5.124  0.0230 -0.3334 -0.9560
25586TIP3    H177640   3.393   4.365   5.080  1.2854 -0.2057 -0.3277
25586TIP3    H277641   3.342   4.415   5.214 -0.0937 -0.0594 -0.8914
25587TIP3   OH277642   3.948   1.086   1.977  0.0678 -0.0093  0.8924
25587TIP3    H177643   4.025   1.034   1.999  1.0470 -0.4602 -2.8471
25587TIP3    H277644   3.874   1.026   1.989  0.8516 -1.2460 -0.1634
25588TIP3   OH277645   4.218   4.785   0.770  0.3130  0.0980  0.5673
25588TIP3    H177646   4.156   4.776   0.697 -0.8699 -0.5054  1.6067
25588TIP3    H277647   4.285   4.846   0.737  0.2740 -0.7809 -1.3118
25589TIP3   OH277648   0.117   2.077   1.338 -0.3693  0.3148  0.0444
25589TIP3    H177649   0.041   2.065   1.396 -0.6358  1.7198  0.0127
25589TIP3    H277650   0.189   2.098   1.397  0.3349 -2.1722  0.1883
25590TIP3   OH277651   7.545   3.006   8.913 -0.3800 -0.4320  0.2876
25590TIP3    H177652   7.461   2.989   8.955 -0.9674 -1.6846 -1.2977
25590TIP3    H277653   7.588   2.921   8.910  0.8560  0.1447  0.8362
25591TIP3   OH277654   1.630  10.346   1.151  0.1879 -0.0828 -0.1088
25591TIP3    H177655   1.655  10.323   1.061 -1.1304  0.9964 -0.7822
25591TIP3    H277656   1.619  10.441   1.150 -3.2870 -0.3609  0.2109
25592TIP3   OH277657   3.042   2.746   6.463 -0.6171  0.4644 -0.0905
25592TIP3    H177658   3.119   2.790   6.427 -1.0897  1.2426 -0.1696
25592TIP3    H277659   2.968   2.798   6.432 -1.0348  1.3530  2.2405
25593TIP3   OH277660   0.056   2.172   8.008  0.3130 -0.1707 -0.1345
25593TIP3    H177661   0.127   2.151   8.069 -0.2588 -1.0900  0.2414
25593TIP3    H277662   0.014   2.249   8.046  2.1524  1.4857 -1.2768
25594TIP3   OH277663   2.159   4.666   1.897  0.5381 -0.0766 -0.2111
25594TIP3    H177664   2.066   4.672   1.919  0.8303 -0.5906  1.2552
25594TIP3    H277665   2.164   4.697   1.806 -0.9417  0.7619 -0.0372
25595TIP3   OH277666   4.137   2.459   3.487 -0.1019  0.0314  0.3357
25595TIP3    H177667   4.218   2.409   3.498 -1.0823 -1.6911  0.1629
25595TIP3    H277668   4.068   2.392   3.483 -1.6965  1.4867  1.8107
25596TIP3   OH277669   6.805   0.145  10.622  0.2325 -0.6132 -0.4575
25596TIP3    H177670   6.774   0.233  10.600 -3.0521 -1.6354 -0.4443
25596TIP3    H277671   6.774   0.089  10.551  3.9174 -1.6394 -1.4976
25597TIP3   OH277672   1.878   1.767   7.770  0.9016  0.8898 -0.2464
25597TIP3    H177673   1.856   1.794   7.680  2.2907  0.5370 -0.7239
25597TIP3    H277674   1.965   1.805   7.785  1.9084 -1.3472 -0.0933
25598TIP3   OH277675   0.338   2.472   6.263  0.7611  0.3441 -0.8367
25598TIP3    H177676   0.375   2.460   6.351  1.9072  0.3016 -1.2952
25598TIP3    H277677   0.409   2.445   6.204 -0.5164 -1.1399 -1.7673
25599TIP3   OH277678   4.735  10.225   0.280  0.4800 -0.1846 -0.3517
25599TIP3    H177679   4.801  10.175   0.232  0.5630  1.1655 -1.7326
25599TIP3    H277680   4.771  10.314   0.283  0.1392 -0.0890  1.6385
25600TIP3   OH277681  10.225   9.459   6.090  0.2086  0.1453 -0.8343
25600TIP3    H177682  10.132   9.482   6.095  0.1204 -0.4289  0.6228
25600TIP3    H277683  10.227   9.365   6.109  1.2093  0.4389  0.7152
25601TIP3   OH277684   6.713   1.632   5.898 -0.2257 -0.2342  0.1957
25601TIP3    H177685   6.697   1.604   5.988  0.6380 -1.5961 -0.0469
25601TIP3    H277686   6.790   1.689   5.905  0.9136 -1.7116  0.1427
25602TIP3   OH277687   9.076   5.171   1.282  0.1587  0.0842 -0.0216
25602TIP3    H177688   9.036   5.256   1.303  0.0605  0.2622 -0.8959
25602TIP3    H277689   9.170   5.186   1.294  0.1345  0.2939 -0.0818
25603TIP3   OH277690   0.742   7.293   7.392  0.6430  0.1327  0.0974
25603TIP3    H177691   0.773   7.243   7.467 -0.1811  1.3340  1.2811
25603TIP3    H277692   0.740   7.384   7.422 -0.0341  0.6081 -1.2640
25604TIP3   OH277693   8.491   6.018   2.373  0.0257 -0.1293 -0.3510
25604TIP3    H177694   8.476   6.027   2.279 -0.7382 -0.8466 -0.3071
25604TIP3    H277695   8.525   5.930   2.383 -1.2529 -0.5917  0.1827
25605TIP3   OH277696   2.005   6.120   4.701  0.1762  0.1252  0.1146
25605TIP3    H177697   2.028   6.131   4.793  1.3734  0.8430 -0.2463
25605TIP3    H277698   1.941   6.189   4.684  2.5209  2.3240 -0.4008
25606TIP3   OH277699   3.666   2.442   7.045  0.2807 -0.0295  0.1388
25606TIP3    H177700   3.721   2.373   7.081 -0.2178  0.6681  2.4183
25606TIP3    H277701   3.588   2.397   7.012 -0.1240 -0.5986  1.7750
25607TIP3   OH277702   2.220   7.115   5.451 -0.7155 -0.0619  0.7539
25607TIP3    H177703   2.275   7.191   5.468  0.0619 -0.5222  0.3702
25607TIP3    H277704   2.255   7.047   5.509  0.0084 -0.7498 -0.4278
25608TIP3   OH277705   9.857   8.184   4.003 -0.3545  0.0654 -0.2243
25608TIP3    H177706   9.950   8.176   3.981 -0.2240  2.6015 -0.9534
25608TIP3    H277707   9.822   8.245   3.937 -2.4509 -0.5217  0.2713
25609TIP3   OH277708   4.016   6.238   8.295  0.1069  0.2661 -0.2296
25609TIP3    H177709   4.031   6.332   8.305 -0.0330  0.3262 -0.5594
25609TIP3    H277710   4.035   6.221   8.203 -0.3563  0.0657 -0.2906
25610TIP3   OH277711   5.015  10.675  10.518 -0.4094 -0.1115 -0.8001
25610TIP3    H177712   5.093  10.688  10.571 -0.6667 -1.4760 -0.0213
25610TIP3    H277713   4.942  10.700  10.575 -0.6693 -1.2652 -0.5996
25611TIP3   OH277714   8.094   4.444   2.036 -0.0821 -0.5259  0.1847
25611TIP3    H177715   8.107   4.519   1.978 -1.2187  0.3420  1.0155
25611TIP3    H277716   8.041   4.383   1.984 -2.4595  0.9140  0.7711
25612TIP3   OH277717   1.066   7.509   3.476 -0.1083 -0.0246 -0.0580
25612TIP3    H177718   1.106   7.589   3.444 -0.9835  0.4417 -0.0229
25612TIP3    H277719   1.013   7.537   3.551  0.4368 -0.8088  0.6391
25613TIP3   OH277720   4.083   7.499   7.148 -0.1528  0.0857 -0.0378
25613TIP3    H177721   4.058   7.443   7.222  1.6506 -0.1226  0.4629
25613TIP3    H277722   4.127   7.574   7.188  0.5647  0.1282 -0.8626
25614TIP3   OH277723   6.591   1.091   0.402 -0.2694  0.3025 -0.1700
25614TIP3    H177724   6.610   1.151   0.474  1.1620  1.6061 -1.5549
25614TIP3    H277725   6.516   1.040   0.432  0.3373  0.7305  2.2573
25615TIP3   OH277726   7.246  10.645   5.343 -0.1508  0.0392  0.5442
25615TIP3    H177727   7.243  10.563   5.392 -1.1656  0.7738  1.7667
25615TIP3    H277728   7.164  10.647   5.294 -0.1746  0.3705  0.5963
25616TIP3   OH277729   5.700   4.973   4.183 -0.3035 -0.5837  0.4899
25616TIP3    H177730   5.785   4.947   4.221 -0.1940 -0.5580  0.2617
25616TIP3    H277731   5.674   5.050   4.233  1.0528  1.0012 -1.1159
25617TIP3   OH277732  10.456   1.955   2.344 -0.2505 -0.1161 -0.3943
25617TIP3    H177733  10.484   1.883   2.401  1.6960 -0.1848 -1.3607
25617TIP3    H277734  10.440   1.914   2.259 -1.1054  0.3021 -0.4434
25618TIP3   OH277735   2.297   1.093   8.173  0.6205  0.3335  0.0235
25618TIP3    H177736   2.213   1.067   8.211  1.0233  0.2208  0.8568
25618TIP3    H277737   2.336   1.011   8.143  0.2736  0.4296 -0.7172
25619TIP3   OH277738   5.841   3.665  10.591 -0.7717 -0.3825 -0.0030
25619TIP3    H177739   5.874   3.618  10.514 -0.6392  0.2179 -0.3158
25619TIP3    H277740   5.920   3.691  10.638 -0.7694  1.2607 -0.8727
25620TIP3   OH277741   5.015   8.959   4.913  0.6121 -0.5614  0.2616
25620TIP3    H177742   5.024   9.001   4.999  0.7989 -1.0503  0.4866
25620TIP3    H277743   5.103   8.932   4.890  0.8191  0.9047 -0.7977
25621TIP3   OH277744   5.681   1.193   9.092  0.2717 -0.0050 -0.0065
25621TIP3    H177745   5.715   1.104   9.090 -0.1074 -0.1388 -1.8040
25621TIP3    H277746   5.615   1.192   9.162  3.0142  0.0012  2.8118
25622TIP3   OH277747   8.115   9.840   2.321  0.3041  0.4658 -0.3821
25622TIP3    H177748   8.191   9.893   2.344  1.7605 -1.4357 -0.5907
25622TIP3    H277749   8.069   9.825   2.403  0.3523  1.3130 -0.1951
25623TIP3   OH277750   6.132   7.083   0.076  0.1424  0.6225 -0.2215
25623TIP3    H177751   6.143   6.997   0.036 -0.5363 -0.9405  2.6595
25623TIP3    H277752   6.166   7.144   0.011  1.1662 -1.8297 -2.1683
25624TIP3   OH277753   6.979   3.077   3.006 -0.2017 -0.3040 -0.4563
25624TIP3    H177754   7.041   3.068   2.934  1.8137  1.9870  0.8301
25624TIP3    H277755   6.970   3.171   3.019 -2.0804 -0.6228  1.0159
25625TIP3   OH277756   7.708   2.514   8.231 -0.1690  0.0940  0.1438
25625TIP3    H177757   7.653   2.449   8.187 -1.9573  0.1736  2.1112
25625TIP3    H277758   7.779   2.530   8.169 -0.7212 -2.2595 -1.2519
25626TIP3   OH277759   5.756   4.184   9.453 -0.4734  0.2158  0.3105
25626TIP3    H177760   5.756   4.231   9.537 -0.1161  0.7790  0.0101
25626TIP3    H277761   5.676   4.213   9.409  0.1772  1.2362 -0.2355
25627TIP3   OH277762   3.913   9.484   1.700 -0.0283  0.1604 -0.0218
25627TIP3    H177763   3.925   9.421   1.771  0.7582  0.8640  0.5002
25627TIP3    H277764   3.886   9.432   1.625 -0.1697 -0.6884  0.6044
25628TIP3   OH277765   9.898   6.188   1.550 -0.5212  0.6293 -0.3368
25628TIP3    H177766   9.836   6.245   1.504 -1.6820  0.1374  0.5727
25628TIP3    H277767   9.965   6.248   1.583 -2.4100  1.7327  1.7494
25629TIP3   OH277768   5.682   3.829   7.138 -0.2038 -0.2222  0.0519
25629TIP3    H177769   5.618   3.787   7.196 -0.5984 -0.0766 -0.2763
25629TIP3    H277770   5.755   3.853   7.197  0.1769 -1.6384  0.1908
25630TIP3   OH277771  10.783   9.842   7.723  0.1759  0.4656 -0.3938
25630TIP3    H177772  10.733   9.763   7.699  1.6003 -0.7331  0.3783
25630TIP3    H277773  10.729   9.886   7.788 -0.9700  0.5441 -1.3479
25631TIP3   OH277774   0.702   9.411   6.892 -0.7967 -0.0273  0.3250
25631TIP3    H177775   0.729   9.460   6.969  0.2160  1.2842 -0.8022
25631TIP3    H277776   0.661   9.332   6.926 -0.4863  0.5748  2.1855
25632TIP3   OH277777   7.464   2.283   4.143 -0.5437  0.7934 -0.5750
25632TIP3    H177778   7.422   2.327   4.217  0.2365 -1.2596  1.2137
25632TIP3    H277779   7.427   2.194   4.145  1.1955  0.0201 -1.2064
25633TIP3   OH277780   6.972   1.919   3.731  0.0605  0.0011 -0.0077
25633TIP3    H177781   7.032   1.952   3.665 -3.5514  0.9971 -3.1186
25633TIP3    H277782   6.970   1.824   3.718  0.5076  0.0329 -0.2872
25634TIP3   OH277783   2.454   9.813   6.220  0.0372  0.2114  0.1483
25634TIP3    H177784   2.508   9.777   6.290  0.4838 -0.5131 -0.5527
25634TIP3    H277785   2.479   9.763   6.142 -0.1052  1.3202 -0.6348
25635TIP3   OH277786   5.504   8.691   3.847 -0.4554 -0.2896 -0.1959
25635TIP3    H177787   5.433   8.635   3.878 -0.9900  1.1746  1.4609
25635TIP3    H277788   5.459   8.769   3.813  0.2970 -0.0474 -0.6460
25636TIP3   OH277789   4.311   0.558   9.218 -0.5152  0.0903 -0.0503
25636TIP3    H177790   4.395   0.594   9.190  0.8485 -2.0882  0.9843
25636TIP3    H277791   4.315   0.561   9.314 -0.5659 -2.1645  0.0736
25637TIP3   OH277792   9.940  10.663   3.803 -0.5541  0.3726  0.2848
25637TIP3    H177793   9.992  10.599   3.753  1.4111  2.8396 -1.0440
25637TIP3    H277794   9.966  10.648   3.894  0.0952 -0.5171 -0.0263
25638TIP3   OH277795   9.404   9.367   2.861  0.0526 -0.2301 -0.0577
25638TIP3    H177796   9.421   9.286   2.813 -0.2285 -1.0257  1.1590
25638TIP3    H277797   9.483   9.420   2.847 -0.4587  0.0458 -2.3007
25639TIP3   OH277798   1.514   1.169   4.571 -0.0721  0.5735 -0.4905
25639TIP3    H177799   1.519   1.120   4.489 -1.0800 -0.1169 -0.1509
25639TIP3    H277800   1.450   1.238   4.554 -0.5017  0.2500 -0.1973
25640TIP3   OH277801   3.371   5.187  10.690 -0.2581  0.5770  0.1371
25640TIP3    H177802   3.398   5.276  10.667 -0.6697  0.6820  0.0482
25640TIP3    H277803   3.447   5.149  10.733 -0.3329  1.2369  0.8772
25641TIP3   OH277804   9.294   8.062   4.695  0.2053 -0.2899  0.5531
25641TIP3    H177805   9.238   8.037   4.622 -0.1653  2.0084 -0.0468
25641TIP3    H277806   9.381   8.073   4.656 -0.3255  2.6627 -0.0594
25642TIP3   OH277807   0.439   4.105   3.353 -0.1663 -0.6011 -0.2494
25642TIP3    H177808   0.431   4.011   3.337 -0.4962 -0.3898 -1.3756
25642TIP3    H277809   0.480   4.140   3.274 -0.9836  0.3424 -0.2708
25643TIP3   OH277810   6.337  10.732   3.964  0.2572 -0.1083 -0.2127
25643TIP3    H177811   6.389  10.789   4.020  0.9535  0.2723 -1.2000
25643TIP3    H277812   6.367  10.643   3.985  0.9797  0.0748 -0.4239
25644TIP3   OH277813   0.121   5.667   1.750 -0.0458  0.3003  0.1061
25644TIP3    H177814   0.106   5.615   1.671  1.1819 -1.7161  1.1050
25644TIP3    H277815   0.199   5.628   1.790 -0.8007  1.0293  2.4604
25645TIP3   OH277816   1.481   2.256   3.743  0.5224 -0.3282  0.4168
25645TIP3    H177817   1.425   2.333   3.737  0.4434 -0.3329  1.0048
25645TIP3    H277818   1.453   2.212   3.824 -0.9959 -2.2036 -1.0215
25646TIP3   OH277819   6.343   2.500  10.585  0.0221  0.8051  0.3109
25646TIP3    H177820   6.398   2.576  10.564 -0.5451  1.0056 -0.5087
25646TIP3    H277821   6.256   2.525  10.555  0.0223 -0.5460 -0.9167
25647TIP3   OH277822   5.898   8.822   0.745  0.0829 -0.3222  0.8531
25647TIP3    H177823   5.853   8.740   0.763 -0.2375 -0.3852 -0.1883
25647TIP3    H277824   5.891   8.872   0.827  0.3313 -1.3426  1.5084
25648TIP3   OH277825   0.416   4.930   0.283 -0.2058 -0.1337 -0.0508
25648TIP3    H177826   0.404   5.013   0.329 -4.3142 -0.3027 -0.4963
25648TIP3    H277827   0.444   4.869   0.352 -2.3354  0.5066  1.4923
25649TIP3   OH277828   3.783   2.733   0.958  0.1840 -0.6552  0.2921
25649TIP3    H177829   3.792   2.674   1.033  0.5619  0.6980  1.3471
25649TIP3    H277830   3.737   2.809   0.992  2.1288  0.8811 -0.2870
25650TIP3   OH277831   1.090   6.460   3.185 -0.0934 -0.0023 -0.1045
25650TIP3    H177832   1.017   6.404   3.156  0.0032  0.1211 -0.5970
25650TIP3    H277833   1.107   6.517   3.111 -0.7994  1.3302  0.7286
25651TIP3   OH277834   6.217   3.996   6.625 -0.3872  0.7686  0.8636
25651TIP3    H177835   6.309   3.999   6.598  0.2339  1.9963  2.9233
25651TIP3    H277836   6.170   3.968   6.546  1.7328  0.0973 -0.2392
25652TIP3   OH277837   9.104   2.512   0.541 -0.0769  0.1023 -0.9578
25652TIP3    H177838   9.020   2.469   0.522  0.6558 -2.9750  1.8866
25652TIP3    H277839   9.169   2.443   0.529  1.2284  0.2058  3.6484
25653TIP3   OH277840   2.863   8.489   8.050  0.5223  0.0822  0.4275
25653TIP3    H177841   2.870   8.413   7.992 -0.6311  1.8776 -2.2665
25653TIP3    H277842   2.771   8.490   8.076 -0.2215  1.9884 -1.8841
25654TIP3   OH277843   4.168   8.547   6.837 -0.1014  0.1464 -0.1672
25654TIP3    H177844   4.200   8.637   6.832  2.4693 -0.6148  0.9183
25654TIP3    H277845   4.140   8.536   6.928 -1.4263  0.1176 -0.5545
25655TIP3   OH277846   2.644   6.319   3.287  0.5910  0.8304 -0.2909
25655TIP3    H177847   2.565   6.283   3.327  1.0289 -0.9655 -0.9307
25655TIP3    H277848   2.614   6.357   3.205  0.2852  0.7748 -0.2080
25656TIP3   OH277849  10.635   3.105   9.939  0.7674 -0.2624 -0.6829
25656TIP3    H177850  10.599   3.143  10.019  3.8435  1.8070 -0.0977
25656TIP3    H277851  10.621   3.011   9.949 -1.2548  0.1317  0.9995
25657TIP3   OH277852   8.361   4.822   6.234 -0.5267 -0.0197  0.1916
25657TIP3    H177853   8.270   4.805   6.209 -0.1984 -0.4172 -0.7924
25657TIP3    H277854   8.410   4.749   6.197  0.6422  1.8367 -2.2389
25658TIP3   OH277855   0.145   8.086   1.382 -0.5244 -0.2268  0.0706
25658TIP3    H177856   0.226   8.051   1.419 -0.5683 -0.3597  0.0427
25658TIP3    H277857   0.123   8.160   1.438 -0.2655 -0.0548 -0.0542
25659TIP3   OH277858   7.075   9.028   8.110 -0.3985 -0.4241  0.4305
25659TIP3    H177859   7.061   9.026   8.205 -1.1761  1.4401  0.3912
25659TIP3    H277860   7.029   9.106   8.080 -0.0776 -0.9145 -1.4864
25660TIP3   OH277861   6.544   5.865   7.821 -0.3322 -0.0260  0.0724
25660TIP3    H177862   6.622   5.894   7.773  0.0216 -0.7084  0.2211
25660TIP3    H277863   6.482   5.938   7.813  0.2712  0.4695 -0.1600
25661TIP3   OH277864   4.021   0.883   0.875  0.1129 -0.3567  0.1555
25661TIP3    H177865   4.080   0.810   0.890  1.9158  0.9771 -0.0849
25661TIP3    H277866   3.984   0.902   0.962  1.4304 -0.0993  0.6865
25662TIP3   OH277867   3.913   0.457   3.343  0.2840  0.5679 -0.2632
25662TIP3    H177868   3.997   0.470   3.388  1.0631 -0.3957 -1.3915
25662TIP3    H277869   3.901   0.362   3.340 -0.2956  0.6546 -1.1005
25663TIP3   OH277870   3.931   8.804   4.813  0.1172 -0.4428 -0.0107
25663TIP3    H177871   3.915   8.895   4.840  0.0512 -0.4022 -0.1830
25663TIP3    H277872   3.844   8.770   4.792 -0.0398 -0.9971  1.4265
25664TIP3   OH277873   2.741   4.890   0.933 -0.1459  0.7241 -0.0289
25664TIP3    H177874   2.747   4.921   1.023  1.8508 -2.3911  1.0754
25664TIP3    H277875   2.654   4.852   0.926  0.0313  0.1122  0.9498
25665TIP3   OH277876   1.856   9.512   3.696 -0.2677 -0.6141  0.8071
25665TIP3    H177877   1.844   9.460   3.776 -0.8987  0.3152  1.3403
25665TIP3    H277878   1.791   9.477   3.635  0.4183 -1.5249  0.5877
25666TIP3   OH277879   0.367   9.364   3.197  0.1450 -0.2021  0.0210
25666TIP3    H177880   0.331   9.280   3.170  1.9644 -1.5412  1.4649
25666TIP3    H277881   0.383   9.354   3.291  1.3735  1.3892  0.0298
25667TIP3   OH277882   6.779   3.066   5.213  0.7720  0.4041  0.0074
25667TIP3    H177883   6.794   3.159   5.229 -2.1032  1.1588 -0.9888
25667TIP3    H277884   6.813   3.051   5.124  1.5026  0.4070  0.2811
25668TIP3   OH277885   9.086   8.725   4.463 -0.3208 -0.0514  0.0716
25668TIP3    H177886   9.150   8.724   4.393 -0.6266 -1.5264 -0.2300
25668TIP3    H277887   9.012   8.775   4.429 -0.3357 -0.4925 -0.5530
25669TIP3   OH277888   5.896   0.216   6.426  0.3008  0.0286 -0.1067
25669TIP3    H177889   5.918   0.141   6.372  0.8817  2.1360 -3.0328
25669TIP3    H277890   5.973   0.231   6.480  1.9755  0.9493 -2.5757
25670TIP3   OH277891   9.493   1.497   8.044 -0.4471  0.3280  0.1753
25670TIP3    H177892   9.472   1.491   7.951 -0.3248  4.2420 -0.2756
25670TIP3    H277893   9.586   1.475   8.049 -0.3478  0.5076 -0.7088
25671TIP3   OH277894   9.698   2.942   9.708 -0.4022  0.5729  0.4341
25671TIP3    H177895   9.762   3.007   9.679 -1.4774  1.5508  0.1400
25671TIP3    H277896   9.742   2.858   9.697  0.1723  1.0773 -1.6018
25672TIP3   OH277897   4.645   3.877   8.906  0.4182  0.1316  0.3182
25672TIP3    H177898   4.571   3.932   8.881  0.5951  0.6031  0.8037
25672TIP3    H277899   4.714   3.939   8.929  0.7133 -0.2957  0.5996
25673TIP3   OH277900   6.216   5.087   6.787  0.0568  0.3593 -0.7627
25673TIP3    H177901   6.246   5.114   6.700 -0.8716 -0.7822 -1.4583
25673TIP3    H277902   6.255   5.001   6.800 -0.3295  0.2503 -0.3072
25674TIP3   OH277903   5.108   4.194   6.542 -0.1271  0.4468  0.1879
25674TIP3    H177904   5.124   4.113   6.493 -0.9292  0.6335 -0.3963
25674TIP3    H277905   5.015   4.192   6.563 -0.7239  2.3275 -1.8929
25675TIP3   OH277906   3.562   9.939   9.072  0.3308  0.1637 -0.1786
25675TIP3    H177907   3.521   9.900   8.995 -0.9200 -0.5626  0.8142
25675TIP3    H277908   3.620   9.871   9.105 -0.6559 -0.3129  0.6421
25676TIP3   OH277909   6.299   5.318   9.893  0.4951 -0.3376 -0.3573
25676TIP3    H177910   6.242   5.385   9.856  0.0808 -0.6310 -0.2595
25676TIP3    H277911   6.353   5.289   9.820  2.3859  1.7830  0.0623
25677TIP3   OH277912   7.507   1.541  10.413  0.3017  0.7815 -0.5953
25677TIP3    H177913   7.566   1.479  10.456  0.8333  0.8119 -1.2774
25677TIP3    H277914   7.467   1.589  10.486  2.3853  1.9378 -0.1536
25678TIP3   OH277915  10.361   0.183   5.974  0.2305  0.3985  0.1494
25678TIP3    H177916  10.400   0.268   5.953 -0.0688  0.3848 -0.4917
25678TIP3    H277917  10.410   0.120   5.920 -1.8844  0.6064 -2.1521
25679TIP3   OH277918   1.353   3.092   9.050 -0.0076 -0.5280  0.3909
25679TIP3    H177919   1.264   3.058   9.059  0.0737 -0.9470 -0.2449
25679TIP3    H277920   1.363   3.108   8.956  0.5759 -0.4622  0.4556
25680TIP3   OH277921   3.391   3.646   7.354 -0.8849 -0.0028  0.1947
25680TIP3    H177922   3.345   3.724   7.382 -0.2532 -0.1254  1.7223
25680TIP3    H277923   3.402   3.595   7.434 -1.3657 -1.7110 -0.7753
25681TIP3   OH277924  10.241   0.770   3.149 -0.5835 -0.0704 -0.9048
25681TIP3    H177925  10.216   0.793   3.060  0.8655 -2.8782 -2.1658
25681TIP3    H277926  10.186   0.694   3.170 -2.7602  2.0015  1.7139
25682TIP3   OH277927   7.487   7.641   6.440 -0.4610  0.3868  0.7235
25682TIP3    H177928   7.438   7.686   6.371  0.7214  0.2465 -0.2433
25682TIP3    H277929   7.577   7.639   6.408 -0.0706 -0.6043  1.8125
25683TIP3   OH277930   3.563   8.205   7.007  0.5925  0.2542 -0.4975
25683TIP3    H177931   3.496   8.255   6.963  0.6449 -0.1295 -1.0233
25683TIP3    H277932   3.641   8.215   6.953  0.6999 -0.0895 -0.4145
25684TIP3   OH277933   2.622   4.062   1.531 -0.6118 -0.3547  0.1283
25684TIP3    H177934   2.615   3.983   1.585 -0.6563 -0.4044  0.0503
25684TIP3    H277935   2.687   4.116   1.576 -0.2870 -0.6053 -0.0260
25685TIP3   OH277936   6.511   4.500   1.893 -0.4426  0.4559  0.2739
25685TIP3    H177937   6.458   4.449   1.831  0.5016 -0.3027  0.0786
25685TIP3    H277938   6.528   4.441   1.966  1.7146  0.0163 -0.5190
25686TIP3   OH277939   9.222   0.257   5.107  0.7624 -0.2566 -0.1398
25686TIP3    H177940   9.243   0.266   5.014  1.7772 -0.3144  0.0823
25686TIP3    H277941   9.181   0.171   5.114 -1.4253  0.6488 -0.8930
25687TIP3   OH277942   5.921   1.321   5.528  0.1192 -0.2332  0.0275
25687TIP3    H177943   5.956   1.407   5.503  0.0197 -0.2344 -0.1144
25687TIP3    H277944   5.933   1.317   5.623 -0.0277  0.0054  0.0568
25688TIP3   OH277945   8.592   1.074   6.569  0.8949  0.3367 -0.0235
25688TIP3    H177946   8.516   1.132   6.569  0.0114 -0.7888  0.3766
25688TIP3    H277947   8.614   1.063   6.477 -1.4191 -1.7978 -0.4295
25689TIP3   OH277948   3.501   9.230   1.149  0.3211 -0.3009 -0.3198
25689TIP3    H177949   3.453   9.147   1.153  0.5335 -0.4016  0.1597
25689TIP3    H277950   3.439   9.295   1.184  0.3874 -0.3656 -0.0814
25690TIP3   OH277951   5.947   8.570  10.173  0.0914 -0.2073 -0.4219
25690TIP3    H177952   6.008   8.581  10.100  3.1083 -0.3974  1.8658
25690TIP3    H277953   5.911   8.482  10.160  2.4226 -1.2467 -0.5521
25691TIP3   OH277954   6.943   4.625   1.501  0.3175 -0.1809  0.2758
25691TIP3    H177955   6.873   4.689   1.519  0.3914  0.1653 -0.6122
25691TIP3    H277956   6.898   4.553   1.457  0.4522 -0.1392  0.0699
25692TIP3   OH277957   9.727   5.411   4.531  0.1015 -0.0292 -0.0059
25692TIP3    H177958   9.814   5.378   4.509 -0.0840 -1.6939  1.4911
25692TIP3    H277959   9.700   5.358   4.607 -3.0673 -1.0630 -1.6486
25693TIP3   OH277960   5.189   1.753   8.373 -0.2619 -0.1839 -0.3925
25693TIP3    H177961   5.194   1.826   8.311  0.5133  1.2022  1.2230
25693TIP3    H277962   5.279   1.719   8.377 -0.8589 -2.1577 -2.1203
25694TIP3   OH277963   4.842   6.043   6.685 -0.1307  0.1988  0.5920
25694TIP3    H177964   4.818   5.957   6.651  0.4826 -0.2655  1.3087
25694TIP3    H277965   4.869   6.093   6.608  1.7017 -0.9932  0.4007
25695TIP3   OH277966   8.921   4.893   5.464  0.2247  0.3952 -0.0300
25695TIP3    H177967   8.893   4.855   5.547 -0.9162  0.3607 -0.4176
25695TIP3    H277968   9.017   4.884   5.465  0.2337  0.4350  1.2876
25696TIP3   OH277969   5.881   0.594   4.132  0.8119 -0.1186  0.5994
25696TIP3    H177970   5.905   0.556   4.047  0.0162 -1.5324  0.9755
25696TIP3    H277971   5.818   0.663   4.110  1.1040 -0.0368 -0.0012
25697TIP3   OH277972  10.406   8.901   2.149  0.0358  0.0317  0.4651
25697TIP3    H177973  10.336   8.866   2.093 -0.7635  1.0394  0.8252
25697TIP3    H277974  10.363   8.966   2.204  1.2241  0.5344  0.8239
25698TIP3   OH277975   5.669   4.709   6.627  0.3907  0.1607 -0.1535
25698TIP3    H177976   5.733   4.665   6.571 -0.4115  1.0241 -1.7893
25698TIP3    H277977   5.586   4.703   6.579 -0.6107 -0.1731  1.5255
25699TIP3   OH277978   1.046   2.637   9.838  0.3286  0.4486 -0.2709
25699TIP3    H177979   1.133   2.624   9.798  1.0327  4.2859 -0.3472
25699TIP3    H277980   1.064   2.680   9.921 -1.4604 -1.7511  1.3772
25700TIP3   OH277981   1.470   4.296   0.023 -0.0707 -0.4146 -0.2312
25700TIP3    H177982   1.438   4.352  -0.048 -0.5171  2.4970  2.0637
25700TIP3    H277983   1.405   4.226   0.030  0.1757 -1.0023 -2.8160
25701TIP3   OH277984   7.848  10.281   4.361 -0.3120  0.1198  0.0130
25701TIP3    H177985   7.795  10.219   4.410 -0.1490  1.6893  2.3764
25701TIP3    H277986   7.923  10.230   4.330 -0.0193 -0.8411  2.1258
25702TIP3   OH277987   9.744   3.996   7.170  0.1312  0.0113  0.2713
25702TIP3    H177988   9.736   4.000   7.265 -0.3816 -0.8619  0.2817
25702TIP3    H277989   9.798   4.072   7.147  0.1170  0.3312  1.2348
25703TIP3   OH277990   9.033   1.795   7.629 -0.0387 -0.3622 -0.4180
25703TIP3    H177991   8.999   1.744   7.702 -0.6922  0.0966 -0.3870
25703TIP3    H277992   8.982   1.765   7.553  1.4221 -1.6539 -0.9227
25704TIP3   OH277993   5.027   4.939   2.432  0.1559 -0.5445  0.2063
25704TIP3    H177994   5.085   4.865   2.447 -0.0376 -0.4036  1.8856
25704TIP3    H277995   5.022   4.984   2.517  0.3074  1.4349 -0.7752
25705TIP3   OH277996   1.653   4.633   4.242 -0.3283 -0.5001 -0.7898
25705TIP3    H177997   1.657   4.668   4.153  1.6389 -1.8041 -1.3023
25705TIP3    H277998   1.631   4.540   4.230  0.0432 -0.7074  0.0616
25706TIP3   OH277999   5.934   5.837   0.363  0.1582 -0.1649  0.4899
25706TIP3    H178000   5.915   5.749   0.332 -0.2092 -0.4714  1.5173
25706TIP3    H278001   6.022   5.831   0.401 -0.0465 -0.2201  0.9727
25707TIP3   OH278002   2.447   1.020  10.826 -0.1707 -0.4855 -0.1077
25707TIP3    H178003   2.458   1.074  10.747 -0.2068  2.1244  1.5460
25707TIP3    H278004   2.532   0.980  10.840  0.6923  1.3280  0.0579
25708TIP3   OH278005   7.603   8.815   3.628  0.3711  0.3448  0.2644
25708TIP3    H178006   7.530   8.829   3.567 -0.4095 -0.7831  0.9054
25708TIP3    H278007   7.680   8.804   3.572  0.0463  1.4084 -0.4251
25709TIP3   OH278008   1.082   6.195   5.814 -0.0583 -0.8498  0.1925
25709TIP3    H178009   1.148   6.192   5.883 -0.1030 -0.4012  0.2568
25709TIP3    H278010   1.010   6.245   5.852  0.3436  0.3277 -0.5338
25710TIP3   OH278011  10.658   2.268   1.432 -0.3434 -0.0677 -0.3741
25710TIP3    H178012  10.656   2.217   1.351  1.1957  1.2556 -1.3034
25710TIP3    H278013  10.596   2.223   1.490 -0.3150 -1.9756 -1.7177
25711TIP3   OH278014   7.875   1.178   0.760 -0.5126  0.3218 -0.2337
25711TIP3    H178015   7.925   1.183   0.679 -1.7987  0.5257 -1.0362
25711TIP3    H278016   7.786   1.200   0.735 -1.2011 -0.9097  0.9910
25712TIP3   OH278017  10.844   0.939   4.617 -0.3103 -0.4485  0.2621
25712TIP3    H178018  10.911   0.954   4.684  1.3132 -0.0680 -1.3978
25712TIP3    H278019  10.807   1.026   4.600 -0.0592 -0.3965 -0.0163
25713TIP3   OH278020   6.075   5.653   9.551 -0.0887  0.6395  0.2559
25713TIP3    H178021   6.112   5.701   9.477 -0.8465  1.1382  0.1872
25713TIP3    H278022   6.005   5.709   9.583 -0.0517  0.2237  1.0806
25714TIP3   OH278023   6.850   4.461   7.257 -0.3098  0.0931  0.2688
25714TIP3    H178024   6.837   4.366   7.252  1.5226 -0.2688  1.5499
25714TIP3    H278025   6.826   4.493   7.170  1.1850 -1.8413 -0.9220
25715TIP3   OH278026   0.839   3.585   4.599  0.3850  0.2390  0.1743
25715TIP3    H178027   0.838   3.498   4.558 -0.3582 -1.0437  2.7106
25715TIP3    H278028   0.754   3.591   4.642  0.1497  2.5623 -0.4941
25716TIP3   OH278029   2.555  10.903  10.775 -0.3723 -0.0824  0.4113
25716TIP3    H178030   2.546  10.914  10.680  0.2134  1.1841  0.4846
25716TIP3    H278031   2.466  10.906  10.809 -0.4470  1.7949  0.1205
25717TIP3   OH278032   7.086   2.865   0.835  0.1648  0.0880 -0.6386
25717TIP3    H178033   7.151   2.853   0.905 -0.5250  0.3145  0.0499
25717TIP3    H278034   7.083   2.780   0.791 -1.8270 -1.2012  1.7287
25718TIP3   OH278035   3.297   7.216   2.991 -0.7867 -0.2545  0.0388
25718TIP3    H178036   3.323   7.307   3.006 -1.2523 -0.0504 -0.3714
25718TIP3    H278037   3.325   7.170   3.070  0.3469  0.0502 -0.1711
25719TIP3   OH278038   5.963   2.346   7.238 -0.2093 -0.0915 -0.2415
25719TIP3    H178039   5.934   2.298   7.316  1.4075  0.6146  0.8512
25719TIP3    H278040   6.047   2.385   7.264 -0.7078  2.0391 -1.5903
25720TIP3   OH278041   9.417   9.298   0.363 -0.1659 -0.2597  0.3309
25720TIP3    H178042   9.446   9.219   0.318  0.2364  0.1242 -0.1048
25720TIP3    H278043   9.465   9.369   0.320 -0.6131  0.2341  0.6274
25721TIP3   OH278044   2.590   7.714   9.203  0.5460  0.0972  0.7651
25721TIP3    H178045   2.501   7.744   9.215  0.9706  1.4298  0.7554
25721TIP3    H278046   2.582   7.634   9.150 -0.7078 -0.7207  2.1208
25722TIP3   OH278047   4.224  10.046   5.993 -0.0415 -0.0976 -0.1248
25722TIP3    H178048   4.144  10.095   6.014  1.0587  1.9541 -0.4754
25722TIP3    H278049   4.206  10.007   5.908 -0.6517  0.4073 -0.2390
25723TIP3   OH278050   3.849   8.401   3.699 -0.9100  0.3860  0.5238
25723TIP3    H178051   3.871   8.482   3.652  0.8720 -0.5790 -0.3938
25723TIP3    H278052   3.765   8.420   3.739 -1.3870  2.1022 -1.1044
25724TIP3   OH278053   4.216   5.706   7.810  0.0483  0.3546  0.1916
25724TIP3    H178054   4.287   5.717   7.747  0.2025  0.2497  0.3470
25724TIP3    H278055   4.252   5.739   7.892  0.3657 -0.8835  0.5674
25725TIP3   OH278056   9.006   9.464   4.933  0.4507  0.1337  0.3133
25725TIP3    H178057   9.036   9.527   4.998  2.3052 -1.1236  0.7654
25725TIP3    H278058   9.058   9.484   4.855  0.0333  0.0449  0.0101
25726TIP3   OH278059   8.525  10.817   0.594  0.3526 -0.2593 -0.1173
25726TIP3    H178060   8.494  10.830   0.684 -1.3386  0.1918 -0.7376
25726TIP3    H278061   8.609  10.864   0.591  0.9993 -1.1958  1.5018
25727TIP3   OH278062   3.815   2.053  10.233  0.2468 -0.3144 -0.0388
25727TIP3    H178063   3.858   1.968  10.235 -0.2948 -0.6136 -0.6339
25727TIP3    H278064   3.752   2.046  10.161  0.4776  0.7207 -0.3626
25728TIP3   OH278065   6.903   5.101   7.503  0.0350  0.0746  0.8612
25728TIP3    H178066   6.944   5.182   7.471  0.5970 -1.0470 -1.4445
25728TIP3    H278067   6.891   5.116   7.597 -1.5979  3.5548  0.2593
25729TIP3   OH278068  10.041   1.346   5.517  0.9796  0.0553  0.1360
25729TIP3    H178069  10.036   1.271   5.459  2.5486 -0.3284  0.4525
25729TIP3    H278070   9.987   1.413   5.475  2.1490 -0.1690 -1.8391
25730TIP3   OH278071   8.973   5.078   1.537  0.2235 -0.2656 -0.3740
25730TIP3    H178072   9.034   5.151   1.552  0.1622 -0.5845  1.7562
25730TIP3    H278073   9.008   5.034   1.460  2.2345  0.0454  0.2831
25731TIP3   OH278074   1.117   2.603  10.839  0.2888  0.3220  0.7724
25731TIP3    H178075   1.157   2.677  10.884  0.1567  1.0921 -0.3378
25731TIP3    H278076   1.024   2.624  10.836  0.2368  0.0655  0.5520
25732TIP3   OH278077   5.839   2.825   0.506 -0.0231 -0.2917  0.2885
25732TIP3    H178078   5.907   2.847   0.570  1.0189  1.5462 -1.3651
25732TIP3    H278079   5.868   2.741   0.470 -0.2455 -0.9942  1.6647
25733TIP3   OH278080   8.381   3.284   7.594  0.2411  0.0340 -0.2524
25733TIP3    H178081   8.286   3.289   7.605  0.3019  0.6440  0.0354
25733TIP3    H278082   8.399   3.192   7.576 -0.4930  0.0360 -1.0947
25734TIP3   OH278083   3.025   2.084   5.498  0.7197  0.4363  0.2052
25734TIP3    H178084   3.110   2.126   5.513  1.8270 -2.1008  1.5923
25734TIP3    H278085   2.984   2.082   5.584 -0.5475  1.1729 -0.3649
25735TIP3   OH278086   0.672   6.552   0.054 -0.4185  0.1748  0.3673
25735TIP3    H178087   0.601   6.603   0.016 -1.5097 -0.2407  1.7518
25735TIP3    H278088   0.710   6.610   0.120 -0.5906 -0.2022  0.8041
25736TIP3   OH278089   1.907   6.928   4.581 -0.1425 -0.5305  0.5604
25736TIP3    H178090   1.963   6.965   4.513  0.8949 -0.0314  1.6620
25736TIP3    H278091   1.898   6.998   4.646 -3.8310  0.2482 -0.5044
25737TIP3   OH278092   8.722   4.583   5.936  0.1568  0.2873 -0.1280
25737TIP3    H178093   8.772   4.665   5.941 -0.3556  0.5795  0.3520
25737TIP3    H278094   8.707   4.569   5.842 -2.3092  2.3396 -0.1413
25738TIP3   OH278095   4.740   6.063   7.959  0.0405  0.0632 -0.4245
25738TIP3    H178096   4.648   6.057   7.986  0.6001  1.0190  1.9624
25738TIP3    H278097   4.761   5.976   7.928 -1.6801 -0.1670 -1.0488
25739TIP3   OH278098  10.064   0.221   7.950 -0.5183 -0.1415 -0.4858
25739TIP3    H178099   9.981   0.200   7.907 -0.4453  0.2635 -0.8338
25739TIP3    H278100  10.130   0.183   7.893 -0.5182 -2.4948  0.9527
25740TIP3   OH278101   1.114   5.614   2.028  0.1323 -0.1659 -0.5277
25740TIP3    H178102   1.031   5.651   1.997 -0.3358 -0.7125  0.0502
25740TIP3    H278103   1.181   5.664   1.982 -0.5228  0.0331 -1.2961
25741TIP3   OH278104   3.541   5.550   3.630  0.2760 -0.0726  0.3852
25741TIP3    H178105   3.610   5.609   3.660  0.3363  0.2593 -0.3557
25741TIP3    H278106   3.478   5.609   3.587 -1.1779 -0.1777  2.2264
25742TIP3   OH278107  10.383   0.334   4.975  0.1629  0.1552  0.3970
25742TIP3    H178108  10.412   0.406   5.031  0.4077 -1.4419  2.4278
25742TIP3    H278109  10.349   0.269   5.035 -0.9613 -1.0586 -1.4485
25743TIP3   OH278110  10.516   1.864   3.988  0.3867  0.0791 -0.4364
25743TIP3    H178111  10.550   1.786   3.944 -1.0719  0.3606 -2.1687
25743TIP3    H278112  10.562   1.866   4.072  0.6850 -2.4484 -0.4713
25744TIP3   OH278113   7.274   4.928   9.689  0.3179  0.3166 -0.2103
25744TIP3    H178114   7.305   4.902   9.602  1.0077 -0.2408  0.1855
25744TIP3    H278115   7.179   4.919   9.684  0.4991 -3.4397  0.1956
25745TIP3   OH278116   6.681   5.743   9.774 -0.5155 -0.0353 -0.2931
25745TIP3    H178117   6.635   5.811   9.824 -0.0323 -1.6662  2.5885
25745TIP3    H278118   6.620   5.669   9.774 -0.2054 -0.3005 -1.5951
25746TIP3   OH278119   1.484   1.962   1.176  1.0594 -0.0395 -0.2780
25746TIP3    H178120   1.517   2.041   1.217 -0.4132  0.6865 -0.3964
25746TIP3    H278121   1.413   1.933   1.234 -1.3499  1.2451 -2.4011
25747TIP3   OH278122   8.806   5.146   8.464  0.5211  0.3894 -0.2594
25747TIP3    H178123   8.756   5.068   8.441  0.2496  1.1057 -2.2741
25747TIP3    H278124   8.753   5.190   8.531  0.7704 -1.1971  1.0378
25748TIP3   OH278125   0.854   9.119   8.602  0.2483  0.1522 -0.5489
25748TIP3    H178126   0.810   9.074   8.674  0.7173 -0.2759 -0.5211
25748TIP3    H278127   0.782   9.150   8.546 -0.0983 -0.6378 -0.5664
25749TIP3   OH278128   6.117   0.034   7.932 -0.0085  0.1637  0.2697
25749TIP3    H178129   6.078   0.104   7.984 -2.3160 -1.6280  1.1437
25749TIP3    H278130   6.063   0.030   7.853  0.5620 -0.1534 -0.1093
25750TIP3   OH278131   1.575   2.666   6.141  0.4845 -0.3494  0.0727
25750TIP3    H178132   1.592   2.579   6.105  0.5343 -0.6392  0.7970
25750TIP3    H278133   1.480   2.669   6.152  0.5002 -0.3731  0.2101
25751TIP3   OH278134   8.540   8.571   4.435  0.3982 -0.5376  0.1029
25751TIP3    H178135   8.484   8.646   4.457 -1.5727 -1.7462 -0.5657
25751TIP3    H278136   8.565   8.534   4.520 -0.9691 -0.7625  0.4336
25752TIP3   OH278137   3.986   9.091  10.506  0.4798 -0.6483 -0.1788
25752TIP3    H178138   4.076   9.123  10.506  0.4558 -0.5711  0.6116
25752TIP3    H278139   3.952   9.114  10.593  0.0639 -1.6904 -0.0551
25753TIP3   OH278140   1.609   1.786   6.011  0.0102  0.1236 -0.5246
25753TIP3    H178141   1.704   1.772   6.007 -0.0400 -1.3828  1.6230
25753TIP3    H278142   1.600   1.879   6.034  1.2526 -0.4957  3.2219
25754TIP3   OH278143   1.428   9.713   8.150 -0.0558  0.0447 -0.3031
25754TIP3    H178144   1.365   9.721   8.222  0.5528 -2.4312  0.6099
25754TIP3    H278145   1.374   9.709   8.072 -0.8168  1.1398  0.1286
25755TIP3   OH278146   5.148   1.721   5.428 -0.6745  0.4535 -0.0085
25755TIP3    H178147   5.151   1.638   5.477  0.6747  0.8072  0.5454
25755TIP3    H278148   5.174   1.787   5.492 -1.3977  1.2719 -0.5479
25756TIP3   OH278149   0.818   8.701   2.565  0.4228 -0.8354 -0.0410
25756TIP3    H178150   0.758   8.642   2.518  1.5027 -1.2161 -0.9648
25756TIP3    H278151   0.760   8.755   2.618 -0.6941 -1.7978 -0.2240
25757TIP3   OH278152   1.718   3.040   1.808 -0.0416 -0.1161  0.1624
25757TIP3    H178153   1.753   3.002   1.888 -1.4153  1.6830  1.6956
25757TIP3    H278154   1.667   2.969   1.768 -0.8133 -0.5496  1.8384
25758TIP3   OH278155   0.281   9.103   7.800 -0.9921 -0.2614  0.0579
25758TIP3    H178156   0.278   9.197   7.820 -2.3372 -0.0468 -1.0252
25758TIP3    H278157   0.211   9.090   7.736 -0.0240 -1.7965 -0.7386
25759TIP3   OH278158   7.664   1.608   9.342 -0.0344 -0.2020 -0.1890
25759TIP3    H178159   7.648   1.607   9.437 -0.5779 -0.4052 -0.2743
25759TIP3    H278160   7.666   1.700   9.319 -0.4064 -0.1561 -0.0511
25760TIP3   OH278161   7.054   9.719   8.180  0.2119 -0.1198  0.0208
25760TIP3    H178162   7.052   9.624   8.167 -1.0301 -0.0359 -0.4759
25760TIP3    H278163   7.109   9.751   8.109 -1.3740 -0.2635 -1.3274
25761TIP3   OH278164   7.140   2.787   2.985  0.4399 -0.5379 -0.1278
25761TIP3    H178165   7.132   2.857   2.921  0.5728 -0.5961 -0.2084
25761TIP3    H278166   7.189   2.827   3.058  0.4585 -0.5287 -0.1456
25762TIP3   OH278167  10.477   5.984   9.558  0.3611  0.0070  0.7388
25762TIP3    H178168  10.412   6.054   9.561  0.8049  0.5860 -1.4255
25762TIP3    H278169  10.539   6.007   9.628  1.1958  2.5742 -0.6890
25763TIP3   OH278170   9.932   8.089   8.193 -0.3534 -0.2648  0.1345
25763TIP3    H178171   9.953   8.058   8.105 -0.3231 -1.2065  0.4719
25763TIP3    H278172   9.957   8.182   8.192  0.4273 -0.4714 -0.5926
25764TIP3   OH278173   9.242  10.089   5.819  0.0126  0.3153  0.0764
25764TIP3    H178174   9.268  10.054   5.905  1.1397 -1.1364 -0.8205
25764TIP3    H278175   9.293  10.038   5.756 -0.6487  1.4996 -1.4599
25765TIP3   OH278176   3.722   5.283   2.219 -0.2484  0.2578  0.6893
25765TIP3    H178177   3.739   5.200   2.265 -0.8711 -1.7867 -2.4541
25765TIP3    H278178   3.667   5.332   2.280 -0.3569 -1.8918  2.4766
25766TIP3   OH278179   1.480  10.067   5.217  0.2945 -0.4907  0.2015
25766TIP3    H178180   1.575  10.080   5.217  0.4758 -1.7292  0.2666
25766TIP3    H278181   1.454  10.080   5.126  0.4143  0.4797  0.2877
25767TIP3   OH278182  10.244   8.005   0.611 -0.1196  0.0035 -0.4812
25767TIP3    H178183  10.292   7.978   0.689 -0.2250 -0.6060 -0.6182
25767TIP3    H278184  10.276   8.093   0.592 -0.1079  0.1623  0.2559
25768TIP3   OH278185  10.812   2.756   6.630  0.3399  0.1339 -0.0842
25768TIP3    H178186  10.885   2.717   6.582 -0.0785  0.4004 -0.9608
25768TIP3    H278187  10.840   2.756   6.721  2.2437  1.8906 -0.5857
25769TIP3   OH278188   3.529   9.828   7.645 -0.0449  0.0812  0.0703
25769TIP3    H178189   3.455   9.770   7.630 -0.3880  0.4818  0.2040
25769TIP3    H278190   3.532   9.883   7.567 -1.2059  1.4884  0.9831
25770TIP3   OH278191   1.755   3.537   0.754  0.3059  0.0585  0.3343
25770TIP3    H178192   1.839   3.549   0.800 -0.5799  0.4706  1.9060
25770TIP3    H278193   1.732   3.625   0.725  0.1341  0.0440  0.4279
25771TIP3   OH278194   9.064  10.169   0.200 -0.0147 -1.0731 -0.0555
25771TIP3    H178195   9.134  10.233   0.188 -0.3226 -0.6608  0.3222
25771TIP3    H278196   9.105  10.096   0.246  0.2508 -0.9901 -0.1593
25772TIP3   OH278197   7.387   1.659   3.927 -0.0841 -0.0193 -0.2361
25772TIP3    H178198   7.296   1.656   3.896 -0.6679 -2.2483  1.4223
25772TIP3    H278199   7.379   1.688   4.018  1.0346  1.0626 -0.4559
25773TIP3   OH278200   4.050   7.719   1.075 -0.2179  0.7578  0.2258
25773TIP3    H178201   4.031   7.727   0.981 -0.7478  2.3491  0.4373
25773TIP3    H278202   3.984   7.774   1.117  1.4662  2.0002  1.3655
25774TIP3   OH278203   1.733  10.112   2.537  0.5092 -0.0590 -0.1084
25774TIP3    H178204   1.756  10.042   2.475  0.2187 -0.7544  0.5476
25774TIP3    H278205   1.709  10.065   2.617 -0.7565  0.7531  0.0050
25775TIP3   OH278206  10.681   0.942   8.584 -0.8195  0.0602 -0.0501
25775TIP3    H178207  10.694   0.847   8.589 -0.2916  0.1876  1.7492
25775TIP3    H278208  10.670   0.960   8.491  0.9821 -1.5283 -0.6390
25776TIP3   OH278209  10.473   5.056   3.307  1.1732 -0.5210  0.2660
25776TIP3    H178210  10.435   5.068   3.220 -1.6779  0.3768  1.4936
25776TIP3    H278211  10.497   5.145   3.335 -0.4696 -0.3878  1.3839
25777TIP3   OH278212   0.455   9.521   8.373  0.2236  0.2177  0.1410
25777TIP3    H178213   0.381   9.565   8.415 -0.9128 -1.1489 -0.3344
25777TIP3    H278214   0.440   9.531   8.280  1.4131  1.1069  0.0189
25778TIP3   OH278215   1.075  10.036   7.698  0.1235  0.3448 -0.4601
25778TIP3    H178216   1.005  10.030   7.763 -0.5391  1.0913 -1.0745
25778TIP3    H278217   1.109  10.125   7.707 -0.1644  0.5536 -1.2942
25779TIP3   OH278218   8.477   0.028   7.574  0.1520  0.4484 -0.5977
25779TIP3    H178219   8.520   0.064   7.651 -1.3763 -0.6088  0.8122
25779TIP3    H278220   8.540  -0.033   7.537  0.6311  0.4267  0.2485
25780TIP3   OH278221   8.332   8.669   0.964 -0.3429  0.6711 -0.2293
25780TIP3    H178222   8.262   8.619   0.923  1.3781 -2.2469  0.0707
25780TIP3    H278223   8.402   8.672   0.898  1.1286 -1.0237  1.1519
25781TIP3   OH278224   7.960   0.051   3.879  0.6823  0.2428 -0.0503
25781TIP3    H178225   7.919  -0.033   3.897 -0.1223  0.2391 -1.7291
25781TIP3    H278226   8.040   0.051   3.932 -0.2292 -0.7836  1.3917
25782TIP3   OH278227   8.079   4.401   2.325  0.1051 -0.3958  0.5416
25782TIP3    H178228   7.997   4.361   2.356 -1.7074  3.7811  1.9466
25782TIP3    H278229   8.067   4.409   2.231 -1.0784 -0.0184  0.7017
25783TIP3   OH278230   3.480   5.998   5.978  0.2404  0.0493 -0.1228
25783TIP3    H178231   3.406   5.939   5.964 -0.5108  0.6773  1.0097
25783TIP3    H278232   3.545   5.944   6.025  0.7611 -0.6569 -1.5902
25784TIP3   OH278233   5.998   7.289   7.499 -0.2573  0.2009  0.0301
25784TIP3    H178234   6.000   7.320   7.590 -0.5475  0.3737 -0.0224
25784TIP3    H278235   6.079   7.323   7.461  1.5583 -2.5693  1.0939
25785TIP3   OH278236   0.834   7.289  10.389  0.7603 -0.4782 -0.2604
25785TIP3    H178237   0.776   7.320  10.319  0.2305 -0.3435  0.2248
25785TIP3    H278238   0.816   7.195  10.395  0.8284 -0.4955 -0.3262
25786TIP3   OH278239   1.128   7.637   5.816 -0.4063  0.4543  0.0955
25786TIP3    H178240   1.189   7.564   5.814 -1.0862 -0.1199  0.0238
25786TIP3    H278241   1.139   7.675   5.903 -0.2707  0.0741  0.2465
25787TIP3   OH278242  10.827  10.305   2.854  0.1325  0.5511 -0.4421
25787TIP3    H178243  10.736  10.301   2.825 -0.3598  1.8968  0.7778
25787TIP3    H278244  10.852  10.396   2.839  0.4943  0.7909  1.3579
25788TIP3   OH278245   9.704   5.752   3.502 -0.1637 -0.0722  0.0022
25788TIP3    H178246   9.616   5.791   3.501 -1.4447 -2.3979 -4.6189
25788TIP3    H278247   9.698   5.683   3.568 -1.4951  0.3908  0.4070
25789TIP3   OH278248  10.031   4.668  10.745  0.5290 -0.0000 -0.4108
25789TIP3    H178249  10.034   4.624  10.660  0.2554 -0.8724  0.0218
25789TIP3    H278250  10.025   4.597  10.809 -0.4082  0.6748  0.2802
25790TIP3   OH278251   2.697   0.330   8.127  0.0400  0.3167 -0.8587
25790TIP3    H178252   2.606   0.337   8.100 -0.1177  0.4493 -0.3108
25790TIP3    H278253   2.697   0.266   8.198  0.2895  0.6931 -0.5096
25791TIP3   OH278254   6.590   4.994   2.813  0.3633  0.0661 -0.6407
25791TIP3    H178255   6.638   4.968   2.891  1.5859  1.7940 -0.7491
25791TIP3    H278256   6.498   4.981   2.835  0.7656 -1.0157  0.4711
25792TIP3   OH278257   2.655  10.049   6.506 -0.4588  0.5852  0.0099
25792TIP3    H178258   2.731  10.046   6.563  0.5223 -1.1709 -1.2823
25792TIP3    H278259   2.580  10.038   6.564  0.3318  1.2015  1.1762
25793TIP3   OH278260   1.209   9.448   3.734  0.2439 -0.4119  0.0722
25793TIP3    H178261   1.172   9.364   3.763  0.1123  0.7416  3.6002
25793TIP3    H278262   1.292   9.456   3.780  1.3242  0.4901 -1.9032
25794TIP3   OH278263   1.844   4.578   5.123  0.1801 -0.0234 -0.0306
25794TIP3    H178264   1.802   4.511   5.069 -0.0302  1.7777 -2.2587
25794TIP3    H278265   1.933   4.585   5.087  0.1176  1.0522  0.0031
25795TIP3   OH278266   5.026   5.711   5.574 -0.1682  0.2622 -0.3871
25795TIP3    H178267   5.103   5.751   5.533  0.0911  0.3464  0.1743
25795TIP3    H278268   5.061   5.642   5.630 -0.5339  0.0029 -0.4719
25796TIP3   OH278269   7.178   9.748   7.916  0.2165 -0.6833  0.5713
25796TIP3    H178270   7.220   9.691   7.851 -0.7371  1.0161 -1.6964
25796TIP3    H278271   7.084   9.734   7.901 -0.0181  0.6937  0.6593
25797TIP3   OH278272   0.689   2.700  10.523  0.1719 -0.0009  0.4919
25797TIP3    H178273   0.749   2.641  10.478  0.3892  0.8777 -0.4203
25797TIP3    H278274   0.738   2.782  10.532 -1.1921  1.0830 -1.2301
25798TIP3   OH278275   3.580   3.558   3.947  0.0996  0.0997  0.0790
25798TIP3    H178276   3.654   3.544   4.006  0.5709 -0.2150 -0.5774
25798TIP3    H278277   3.505   3.571   4.005  0.7491  0.9041  0.7605
25799TIP3   OH278278   3.279   8.008   9.025  0.3935  0.3551  0.4018
25799TIP3    H178279   3.371   8.033   9.020  0.9084 -1.6141 -1.3697
25799TIP3    H278280   3.253   7.992   8.934 -1.4236 -0.0598  0.9517
25800TIP3   OH278281   5.661   0.065   6.101 -0.3154  0.2147 -0.2044
25800TIP3    H178282   5.592   0.128   6.080  0.4661  0.6368 -1.5988
25800TIP3    H278283   5.664   0.007   6.025  1.2976  0.6016 -0.4528
25801TIP3   OH278284   0.299   2.097   4.355 -0.0352 -0.3185  0.2336
25801TIP3    H178285   0.315   2.035   4.284 -0.1695 -0.2679  0.1579
25801TIP3    H278286   0.262   2.174   4.311 -0.4304 -0.4100  0.3962
25802TIP3   OH278287   4.822   8.940   0.467 -0.2327  0.0051 -0.3686
25802TIP3    H178288   4.745   8.884   0.469  0.1549 -0.6794  3.9866
25802TIP3    H278289   4.788   9.028   0.483 -0.2223 -0.0283 -0.1704
25803TIP3   OH278290   3.000   9.481   4.894  0.0885  0.1674  0.0992
25803TIP3    H178291   3.037   9.430   4.822  0.8903  2.3585 -1.1026
25803TIP3    H278292   2.906   9.467   4.887  0.2980 -1.4397  0.0674
25804TIP3   OH278293   1.730   8.016   7.542 -0.1682  0.0970  0.1215
25804TIP3    H178294   1.791   7.942   7.541 -0.6041 -0.2729 -0.1998
25804TIP3    H278295   1.779   8.088   7.580  0.1355 -0.4765  0.8519
25805TIP3   OH278296  10.000   3.433   9.058  0.1066  0.4569  0.0468
25805TIP3    H178297   9.991   3.364   9.124 -0.8827  0.0039 -0.5429
25805TIP3    H278298   9.939   3.408   8.988 -0.3353  1.9613 -0.1481
25806TIP3   OH278299   8.048   4.948   6.879 -0.0707  0.0064 -0.0180
25806TIP3    H178300   8.104   5.026   6.873 -0.4196  0.2950  0.3824
25806TIP3    H278301   8.079   4.903   6.958  0.3491 -0.4378 -0.4328
25807TIP3   OH278302   5.855   5.797   6.550  0.0122 -0.0862  1.0428
25807TIP3    H178303   5.814   5.880   6.525 -0.0173 -0.0485  1.2137
25807TIP3    H278304   5.809   5.770   6.629 -1.8924 -1.6871 -0.5101
25808TIP3   OH278305   3.512   3.276   7.988  0.5169 -0.7337  0.2625
25808TIP3    H178306   3.457   3.331   7.932 -0.2543 -1.1950  0.5529
25808TIP3    H278307   3.522   3.327   8.068  1.6747 -0.0444 -0.3039
25809TIP3   OH278308   2.154   3.496   0.043  0.5404  0.0038 -0.2092
25809TIP3    H178309   2.152   3.401   0.057  0.2865  0.0875  0.3389
25809TIP3    H278310   2.164   3.506  -0.052  2.5867 -0.5842 -0.0982
25810TIP3   OH278311   6.001  10.569   4.176 -0.3958 -0.2809 -0.3866
25810TIP3    H178312   5.927  10.593   4.232  0.9637  0.9503  0.9721
25810TIP3    H278313   6.028  10.652   4.135  0.3413 -0.6728 -0.7212
25811TIP3   OH278314   7.676   7.962   7.285  0.0541  0.3393 -0.0730
25811TIP3    H178315   7.717   7.887   7.327 -0.6512 -0.4414 -0.7348
25811TIP3    H278316   7.748   8.024   7.272  0.9118 -0.7278 -0.6378
25812TIP3   OH278317  10.024   7.740   2.518  0.1186 -0.1380  0.5416
25812TIP3    H178318   9.956   7.710   2.457 -0.5882  3.9455 -1.0392
25812TIP3    H278319   9.991   7.716   2.604 -0.8844 -2.5207 -0.4128
25813TIP3   OH278320   5.537   8.238   7.520  0.7409 -0.0303 -0.8690
25813TIP3    H178321   5.544   8.189   7.438 -2.2564  1.0439 -1.8784
25813TIP3    H278322   5.493   8.177   7.580  0.3348  0.1642 -0.9683
25814TIP3   OH278323   4.521   7.253   0.868  0.5337  0.4148 -0.0930
25814TIP3    H178324   4.582   7.327   0.873  0.2737  0.5748  0.8808
25814TIP3    H278325   4.436   7.293   0.853  0.6750  0.1767 -1.6889
25815TIP3   OH278326   1.996   4.472   1.042  0.1222 -0.3773 -0.5549
25815TIP3    H178327   2.066   4.418   1.004 -0.0852  0.0689 -1.6073
25815TIP3    H278328   1.915   4.429   1.014 -0.0416 -0.6147  0.2527
25816TIP3   OH278329   8.472   1.206   3.656 -0.0289  0.1368 -0.5680
25816TIP3    H178330   8.422   1.155   3.592 -0.2996  0.5563 -0.6949
25816TIP3    H278331   8.488   1.144   3.728  1.7927 -0.8567 -1.7667
25817TIP3   OH278332   7.075   6.043   5.163  0.3588 -0.0688 -0.0468
25817TIP3    H178333   7.080   6.009   5.252  2.2639  0.0588 -0.0627
25817TIP3    H278334   7.165   6.042   5.132 -0.1736  0.5501 -1.7374
25818TIP3   OH278335  10.469   8.359   6.378 -0.2253 -0.2705 -0.2470
25818TIP3    H178336  10.401   8.294   6.360  0.3398 -0.4105 -2.0626
25818TIP3    H278337  10.442   8.436   6.329  0.0868  0.2409  0.3637
25819TIP3   OH278338   8.327   7.382   8.981 -0.4454  0.3427  0.4462
25819TIP3    H178339   8.361   7.321   8.915  0.4657  0.0530  1.1570
25819TIP3    H278340   8.252   7.424   8.939  0.2789  0.3579 -0.8658
25820TIP3   OH278341   0.844   3.781   5.494 -0.0872  0.6933 -0.5023
25820TIP3    H178342   0.907   3.844   5.530 -1.3000  0.8835  1.4748
25820TIP3    H278343   0.775   3.836   5.456 -0.4786  0.5525 -0.0072
25821TIP3   OH278344   2.751   8.076  10.349  0.2817 -0.3558  0.3706
25821TIP3    H178345   2.754   7.996  10.297  1.7242  0.0189 -0.1777
25821TIP3    H278346   2.775   8.145  10.287  1.3086  0.1910  1.3629
25822TIP3   OH278347   5.583   6.355   2.173  0.1488 -0.3475 -0.6305
25822TIP3    H178348   5.608   6.370   2.081  1.5285  0.6232 -0.1302
25822TIP3    H278349   5.548   6.266   2.174  1.6355 -0.9919 -1.8162
25823TIP3   OH278350   6.668   9.045   8.905  0.0176  0.7877 -0.2561
25823TIP3    H178351   6.614   9.124   8.904 -0.1208  0.6897 -0.8127
25823TIP3    H278352   6.680   9.025   8.998  0.0326  1.4460 -0.1116
25824TIP3   OH278353   8.359   9.054   9.919  0.8199  0.6062 -0.1517
25824TIP3    H178354   8.330   9.093  10.001  0.0629 -0.9108  0.3231
25824TIP3    H278355   8.412   9.123   9.878 -1.1298  2.4580  0.2355
25825TIP3   OH278356   9.526   0.963   0.179  0.4918  0.1155 -0.1199
25825TIP3    H178357   9.533   1.054   0.152 -0.0855 -0.4760 -2.5532
25825TIP3    H278358   9.457   0.927   0.123  1.2130 -1.9803  0.2429
25826TIP3   OH278359   0.933   7.816   0.657 -0.5768 -0.3745 -0.0267
25826TIP3    H178360   0.947   7.735   0.706  1.6225 -0.6727 -1.0409
25826TIP3    H278361   0.927   7.789   0.566  4.8231  0.6887 -1.0667
25827TIP3   OH278362   4.664  10.460   9.391 -0.0707 -0.4089 -0.5965
25827TIP3    H178363   4.597  10.454   9.459  1.3576 -0.6563  0.8565
25827TIP3    H278364   4.674  10.370   9.359 -0.1853 -0.4298 -0.5745
25828TIP3   OH278365   4.884   0.441   6.518  0.3540 -0.4925 -0.1431
25828TIP3    H178366   4.892   0.532   6.544  0.6375  0.1507 -2.2340
25828TIP3    H278367   4.842   0.398   6.592  0.4746  1.2612  1.0092
25829TIP3   OH278368   7.368   6.548   6.847  0.1937 -0.0519 -0.7841
25829TIP3    H178369   7.329   6.527   6.762  1.2985  1.2115 -1.6241
25829TIP3    H278370   7.379   6.463   6.890  0.4682 -0.7954 -2.2813
25830TIP3   OH278371   5.049   2.027   3.901  0.0770  0.2953  0.1866
25830TIP3    H178372   5.057   1.941   3.861 -1.8787 -0.1564  0.6634
25830TIP3    H278373   5.139   2.056   3.916  0.7895 -0.8563 -1.6443
25831TIP3   OH278374   0.491   2.914   4.851  0.3690 -0.1305  0.3408
25831TIP3    H178375   0.528   2.831   4.881 -1.4378 -0.5249  1.6267
25831TIP3    H278376   0.474   2.963   4.932  1.2001  1.4407 -0.3845
25832TIP3   OH278377  10.205   5.314   5.723  0.0644  0.3045  0.4102
25832TIP3    H178378  10.148   5.390   5.710  0.8960  1.3030  2.2389
25832TIP3    H278379  10.274   5.325   5.657 -1.5122 -0.6656 -1.5000
25833TIP3   OH278380   7.421   0.126   1.686  0.6411 -0.2901  0.3330
25833TIP3    H178381   7.479   0.157   1.616 -1.6799 -0.5196 -1.8508
25833TIP3    H278382   7.365   0.201   1.706  1.0052 -0.3575  1.7072
25834TIP3   OH278383  10.135   6.451   2.120  0.1813 -0.2281 -0.0111
25834TIP3    H178384  10.115   6.505   2.197 -0.9537  0.4358 -0.7325
25834TIP3    H278385  10.159   6.514   2.052  0.6512 -0.7660 -0.3526
25835TIP3   OH278386   3.263   5.730   0.442  0.6710 -0.2145 -0.4115
25835TIP3    H178387   3.286   5.765   0.356  1.9824 -1.0321 -0.4256
25835TIP3    H278388   3.339   5.677   0.467  0.3770  0.1160  1.3116
25836TIP3   OH278389  10.826  10.429   4.106 -0.0865 -0.1177 -0.1668
25836TIP3    H178390  10.911  10.448   4.147 -0.7613  0.1903  1.1540
25836TIP3    H278391  10.848  10.405   4.016  1.5506 -1.5209  0.5369
25837TIP3   OH278392  10.055  10.648   1.751 -0.2902 -0.9054 -0.2535
25837TIP3    H178393  10.093  10.731   1.724 -0.5819 -1.0550 -1.1825
25837TIP3    H278394  10.125  10.602   1.796 -0.0498 -0.2630  0.0169
25838TIP3   OH278395   2.678   6.009   5.981 -0.0328  0.8472  0.3904
25838TIP3    H178396   2.731   5.947   6.030 -0.4737  1.4027  1.6088
25838TIP3    H278397   2.634   5.956   5.915 -0.2401 -0.1167  1.2802
25839TIP3   OH278398   9.838   1.992   8.802 -0.4777  0.8170 -0.3158
25839TIP3    H178399   9.779   2.006   8.728 -0.7707  0.0415 -0.2464
25839TIP3    H278400   9.921   1.965   8.762 -0.8988 -0.5119 -0.3673
25840TIP3   OH278401   5.075   7.890   5.776  0.4172 -0.4637  0.1614
25840TIP3    H178402   5.095   7.814   5.722  2.1332  0.1124 -0.0975
25840TIP3    H278403   5.073   7.964   5.715  1.3280  0.0434  0.7170
25841TIP3   OH278404   4.571   9.977   3.638  0.2378  0.3838  0.2297
25841TIP3    H178405   4.549   9.903   3.582  1.5760 -0.4851  0.8178
25841TIP3    H278406   4.488  10.002   3.679 -0.8434  1.1661 -2.2132
25842TIP3   OH278407   1.564   1.852   6.568  0.1208  0.4522  0.1812
25842TIP3    H178408   1.539   1.942   6.547 -2.3727  0.2469  1.8030
25842TIP3    H278409   1.555   1.805   6.485 -0.3932  1.3431 -0.2887
25843TIP3   OH278410   4.899  10.712   8.101 -0.1253  0.2674  0.4306
25843TIP3    H178411   4.850  10.711   8.019  0.4023  0.5438  0.1041
25843TIP3    H278412   4.873  10.793   8.144  0.0439  0.4122  0.2591
25844TIP3   OH278413   7.064   8.277   6.349 -0.1196  0.1199  0.0313
25844TIP3    H178414   7.081   8.267   6.255 -1.9678  1.0818 -0.4522
25844TIP3    H278415   6.998   8.211   6.369  1.2541 -1.0125  0.9997
25845TIP3   OH278416   0.553  10.318   5.102 -0.0552 -0.3471  0.7866
25845TIP3    H178417   0.500  10.241   5.078 -0.6185 -0.0291  0.9803
25845TIP3    H278418   0.518  10.388   5.047  1.4995 -0.5513 -0.5505
25846TIP3   OH278419   2.646   0.091   6.997 -0.4835 -0.5256 -0.3574
25846TIP3    H178420   2.732   0.089   6.954  0.3012 -0.5105  1.1264
25846TIP3    H278421   2.648   0.172   7.049 -2.3729  0.7567 -2.1175
25847TIP3   OH278422   4.441   1.266   3.650  0.3343 -0.4057 -0.2297
25847TIP3    H178423   4.507   1.226   3.594  0.2661 -0.4619 -0.2702
25847TIP3    H278424   4.361   1.218   3.631  0.0245  0.3903 -1.0088
25848TIP3   OH278425   9.347   2.715   3.360 -0.3133  0.8376  0.2462
25848TIP3    H178426   9.379   2.788   3.414 -2.2275  1.0455  1.2157
25848TIP3    H278427   9.386   2.730   3.274  1.9214  1.1526  1.2554
25849TIP3   OH278428   7.850   3.263   6.955  0.7933 -0.0124 -0.1692
25849TIP3    H178429   7.905   3.203   7.007  0.3840 -1.1769 -1.0360
25849TIP3    H278430   7.912   3.328   6.920  0.9240  1.6241  2.7673
25850TIP3   OH278431   1.075   0.951   9.608  0.3181  0.2423  0.4278
25850TIP3    H178432   1.102   0.886   9.544  0.9921  0.7310  0.2051
25850TIP3    H278433   0.980   0.958   9.596  0.0693 -1.4468  1.1827
25851TIP3   OH278434  10.116   5.337   1.083  0.2840 -0.0404 -0.0189
25851TIP3    H178435  10.037   5.310   1.035  0.6048  1.0626 -1.2274
25851TIP3    H278436  10.179   5.360   1.015  0.9154  1.1746  0.9387
25852TIP3   OH278437   3.036   3.206   2.878  0.0716  0.3942 -0.0720
25852TIP3    H178438   3.116   3.156   2.866  0.3151  0.9439 -0.8168
25852TIP3    H278439   3.059   3.295   2.851 -0.5778  0.7356  0.4468
25853TIP3   OH278440   7.509   0.313   8.621 -0.2484 -0.6914 -0.1607
25853TIP3    H178441   7.563   0.297   8.544 -0.5077 -1.6264 -0.1700
25853TIP3    H278442   7.511   0.408   8.633 -0.7499 -0.4502 -1.7181
25854TIP3   OH278443   1.856   6.438   1.438 -0.2523 -0.1089 -0.5871
25854TIP3    H178444   1.828   6.417   1.349 -1.4964 -0.1329 -0.2066
25854TIP3    H278445   1.934   6.492   1.426  0.5543 -1.4752 -1.6441
25855TIP3   OH278446   4.468   0.496   3.888 -0.4159 -0.1067 -0.0506
25855TIP3    H178447   4.547   0.457   3.926 -0.7317  0.7953  1.6598
25855TIP3    H278448   4.397   0.465   3.945 -0.7872  2.1333  0.8083
25856TIP3   OH278449   9.122   7.609   3.342  0.3540 -0.0298 -0.8839
25856TIP3    H178450   9.214   7.595   3.323  0.6119  0.5060 -0.0912
25856TIP3    H278451   9.117   7.700   3.371 -0.2700 -0.3132 -0.0496
25857TIP3   OH278452   9.460   4.564   7.745 -0.0106  0.0781 -0.3042
25857TIP3    H178453   9.470   4.597   7.834 -0.4101 -0.9239  0.1236
25857TIP3    H278454   9.367   4.577   7.726 -0.2516 -1.1142  0.0058
25858TIP3   OH278455   5.307   6.970   5.090  0.0748 -0.4817  0.0689
25858TIP3    H178456   5.230   6.955   5.145 -0.2527  1.0188  0.0529
25858TIP3    H278457   5.274   7.023   5.017  1.6539  3.1359  1.7583
25859TIP3   OH278458   7.021   5.398  10.891  0.0404  0.0097 -0.1021
25859TIP3    H178459   6.936   5.438  10.911 -0.1687  0.1378 -1.1620
25859TIP3    H278460   7.023   5.394  10.795  1.4445  0.4436 -0.1049
25860TIP3   OH278461   7.957   5.396   6.962  0.7279 -0.0344 -0.2418
25860TIP3    H178462   7.872   5.389   6.919 -0.0056  0.7760  1.0336
25860TIP3    H278463   7.956   5.482   7.004  2.1148 -0.0851 -0.0584
25861TIP3   OH278464  10.005  10.028   1.321  0.0945  0.2173 -0.5735
25861TIP3    H178465  10.051   9.967   1.379 -1.7434 -0.3947  0.3314
25861TIP3    H278466   9.932  10.060   1.374 -0.4078  1.3085 -1.8732
25862TIP3   OH278467   1.085   0.390   8.860 -0.0759 -0.1638  0.2314
25862TIP3    H178468   1.041   0.413   8.942  1.0556  2.8452  0.1133
25862TIP3    H278469   1.179   0.397   8.880  0.2717 -1.2629 -0.8643
25863TIP3   OH278470   9.365   3.678   0.867  0.0394  0.5667  0.2265
25863TIP3    H178471   9.369   3.590   0.829 -1.1536 -0.2438  1.8415
25863TIP3    H278472   9.347   3.735   0.792 -3.3001 -1.0601 -0.4072
25864TIP3   OH278473   8.490   7.679   2.167  0.8927 -0.1383 -0.3015
25864TIP3    H178474   8.517   7.769   2.186  0.5021 -0.2760  1.0369
25864TIP3    H278475   8.562   7.625   2.200  0.6323 -0.3503 -0.0704
25865TIP3   OH278476   6.553   9.419   5.443 -0.2932 -0.5265 -0.4934
25865TIP3    H178477   6.628   9.472   5.413 -0.1245 -0.3476  0.2290
25865TIP3    H278478   6.529   9.457   5.527 -1.8648  0.0847 -1.1742
25866TIP3   OH278479   6.944   7.360   7.817 -0.6766  0.6373 -0.0247
25866TIP3    H178480   6.909   7.300   7.882  0.8713 -0.4184 -0.1100
25866TIP3    H278481   7.017   7.313   7.777 -0.9216  1.6538 -1.8032
25867TIP3   OH278482   3.071   1.192   0.008  0.0406 -0.0788  0.3843
25867TIP3    H178483   3.074   1.102  -0.024 -0.6414 -0.7488  2.1085
25867TIP3    H278484   3.106   1.244  -0.065  2.8940 -1.9583  0.2726
25868TIP3   OH278485   4.734   2.673   5.440 -0.0532  0.4005 -0.5062
25868TIP3    H178486   4.800   2.714   5.385 -1.2936  0.8490 -1.7226
25868TIP3    H278487   4.782   2.645   5.519  1.2900  2.0182 -0.6922
25869TIP3   OH278488   9.330   9.597   8.881 -0.2125  0.6478  0.2313
25869TIP3    H178489   9.325   9.545   8.801 -0.1316 -0.3420  0.8459
25869TIP3    H278490   9.321   9.532   8.952  4.5321  0.7124  1.1897
25870TIP3   OH278491   4.484  10.854   2.908  0.3586  0.0709 -0.2736
25870TIP3    H178492   4.507  10.761   2.897  0.3645  0.2260 -1.8721
25870TIP3    H278493   4.409  10.867   2.850  0.1456  0.9996  0.1976
25871TIP3   OH278494   3.628   3.249   9.289  0.0860 -0.5055  0.2508
25871TIP3    H178495   3.583   3.187   9.231 -1.2140  0.0907  0.5948
25871TIP3    H278496   3.565   3.320   9.303  0.2819 -0.7059  2.5497
25872TIP3   OH278497   8.795   6.252   4.779  0.4310 -0.1962 -0.1274
25872TIP3    H178498   8.705   6.223   4.793  0.5497 -0.3986  0.2602
25872TIP3    H278499   8.803   6.333   4.830  0.1026  0.5280 -1.2047
25873TIP3   OH278500  10.375   1.174   6.930  0.1323  0.2152  0.6630
25873TIP3    H178501  10.443   1.170   6.863 -0.5416  1.9656 -0.1962
25873TIP3    H278502  10.419   1.210   7.007  0.6522 -0.7478  0.8340
25874TIP3   OH278503   7.250   8.898   3.265  0.2149  0.1129  0.4321
25874TIP3    H178504   7.164   8.886   3.226 -0.1550  0.6040  1.0804
25874TIP3    H278505   7.308   8.916   3.191  0.3907 -3.2364 -0.3838
25875TIP3   OH278506   1.089   7.454   7.095  0.1430 -0.4181 -0.0771
25875TIP3    H178507   1.135   7.382   7.052  1.0043 -0.9907  1.7067
25875TIP3    H278508   0.998   7.425   7.099 -0.1397  0.0314 -2.2222
25876TIP3   OH278509   2.114   8.306  10.883  0.0392  0.0733 -0.3006
25876TIP3    H178510   2.120   8.227  10.829 -0.2035 -1.4045  1.7281
25876TIP3    H278511   2.203   8.320  10.916  0.6388  2.1210 -2.5128
25877TIP3   OH278512  10.404   9.935   7.274 -0.5769  0.1548 -0.5988
25877TIP3    H178513  10.376  10.024   7.249 -1.9614 -0.9301 -3.3690
25877TIP3    H278514  10.323   9.892   7.300 -0.1674 -0.7367 -0.7780
25878TIP3   OH278515   9.417  10.583   3.106  0.1733 -0.1931  0.3921
25878TIP3    H178516   9.376  10.588   3.020 -0.7075  0.0139  0.8090
25878TIP3    H278517   9.471  10.662   3.112 -2.5143  1.7101  1.3755
25879TIP3   OH278518   6.420   5.531   6.004  0.0913 -0.0221 -0.3300
25879TIP3    H178519   6.488   5.551   6.069  0.2991 -2.0649  0.1483
25879TIP3    H278520   6.461   5.550   5.920  0.1823  1.6462  0.0574
25880TIP3   OH278521   7.926   8.948   5.941  0.1537  0.7913 -0.9930
25880TIP3    H178522   7.936   9.012   6.012  2.3089  0.2232 -0.6978
25880TIP3    H278523   8.016   8.932   5.911 -0.6000  0.1197 -3.0659
25881TIP3   OH278524   4.990   7.633   2.424  0.3818 -0.2719  0.3388
25881TIP3    H178525   5.001   7.694   2.497 -2.8184 -2.1526  2.6411
25881TIP3    H278526   4.925   7.674   2.368  1.5773  0.3776 -0.6378
25882TIP3   OH278527   2.118   2.323   0.085 -0.2668 -0.0003  0.3065
25882TIP3    H178528   2.155   2.408   0.109 -0.2588 -0.5231  2.3303
25882TIP3    H278529   2.161   2.261   0.144 -2.3999 -0.9944  0.9044
25883TIP3   OH278530   2.093   9.623   7.650 -0.3876 -0.0085  0.1585
25883TIP3    H178531   2.164   9.560   7.665 -0.8312 -0.0343  2.5492
25883TIP3    H278532   2.066   9.608   7.559  0.8520 -1.8610  0.0382
25884TIP3   OH278533   1.633   3.116   7.636  0.5055 -0.1652  0.5746
25884TIP3    H178534   1.590   3.117   7.722  0.5943  0.0618  0.6194
25884TIP3    H278535   1.645   3.024   7.616  0.1056 -0.2286  0.6157
25885TIP3   OH278536   2.321   1.956   3.322  0.1700  0.1872 -0.5405
25885TIP3    H178537   2.236   1.987   3.291  0.1812  0.2864 -0.4747
25885TIP3    H278538   2.385   1.998   3.264  0.2892  1.6074  0.5362
25886TIP3   OH278539   5.492   8.035   1.019  0.2714  0.0738  0.0137
25886TIP3    H178540   5.575   7.990   1.032 -0.1302 -1.7054 -2.7962
25886TIP3    H278541   5.514   8.109   0.962  0.2126  0.9206  1.0490
25887TIP3   OH278542   1.756   1.705   5.080  0.3552  0.3488 -0.1375
25887TIP3    H178543   1.824   1.734   5.019  1.4014 -0.6553  0.5030
25887TIP3    H278544   1.792   1.626   5.120 -1.7625 -0.9906 -0.7271
25888TIP3   OH278545   5.242   6.538   8.476 -0.3159  0.2112  0.2682
25888TIP3    H178546   5.242   6.443   8.460 -0.6092  0.1813  0.4480
25888TIP3    H278547   5.187   6.574   8.407  0.6619  0.3681 -0.4622
25889TIP3   OH278548   3.134   0.573   5.044 -0.5718  0.5125  0.2588
25889TIP3    H178549   3.210   0.629   5.030 -0.8558  0.5285 -1.5117
25889TIP3    H278550   3.066   0.610   4.988 -1.2294 -0.7137  0.2049
25890TIP3   OH278551  10.167   9.533   5.167  0.5159 -0.2818  0.0770
25890TIP3    H178552  10.181   9.570   5.080  1.5752 -1.2879 -0.2078
25890TIP3    H278553  10.239   9.471   5.179  1.0041  0.5981  2.1125
25891TIP3   OH278554   6.399   7.989   6.392 -0.0809  0.2521 -0.3123
25891TIP3    H178555   6.467   8.016   6.329  0.4908 -0.5694 -0.0690
25891TIP3    H278556   6.321   8.035   6.364  0.2281  0.1072 -1.4851
25892TIP3   OH278557   4.826   9.696   7.407  0.1369  0.1022 -0.0386
25892TIP3    H178558   4.787   9.765   7.354 -1.4140 -0.7605 -0.0930
25892TIP3    H278559   4.761   9.680   7.476  0.4069 -1.3688 -0.0955
25893TIP3   OH278560   5.954   0.567   1.289  0.1404  0.0901 -0.0375
25893TIP3    H178561   5.959   0.621   1.211  0.0454 -1.6574 -1.3112
25893TIP3    H278562   5.863   0.535   1.290  0.2422 -0.1967  0.5803
25894TIP3   OH278563   8.202   4.000   5.397 -0.8599 -0.6790 -0.0683
25894TIP3    H178564   8.153   3.959   5.325 -1.0904  1.5986 -1.3312
25894TIP3    H278565   8.294   3.980   5.378 -1.0813 -2.3463  0.5401
25895TIP3   OH278566   9.282   9.792   7.293 -0.0331  0.2327  0.2646
25895TIP3    H178567   9.208   9.749   7.251 -0.0432 -1.2615  1.7009
25895TIP3    H278568   9.255   9.805   7.383  1.7039 -1.1063  1.0426
25896TIP3   OH278569   5.456   0.956   0.906  0.8822  0.3043 -0.3982
25896TIP3    H178570   5.464   1.037   0.956 -1.0237  0.3259 -0.0622
25896TIP3    H278571   5.408   0.981   0.828  0.0504 -0.5447 -0.1673
25897TIP3   OH278572   1.335   5.200   3.944  0.5156  0.2531  0.3466
25897TIP3    H178573   1.272   5.235   3.881 -0.0968  0.0892  0.8549
25897TIP3    H278574   1.419   5.237   3.918  0.4268 -0.4865 -1.0792
25898TIP3   OH278575   6.326   2.303   7.407 -0.0273  0.1466  0.2231
25898TIP3    H178576   6.305   2.354   7.328 -1.5103  0.0781  0.5442
25898TIP3    H278577   6.302   2.360   7.479  2.8330  0.8585  0.7380
25899TIP3   OH278578  10.752   2.361   9.039 -0.7113  0.2962  0.2719
25899TIP3    H178579  10.754   2.456   9.027 -1.6090  0.3422  0.4171
25899TIP3    H278580  10.785   2.326   8.956 -1.4989  0.7220 -0.2408
25900TIP3   OH278581   4.752   6.984   2.534 -0.3662 -0.1806 -0.2086
25900TIP3    H178582   4.811   7.059   2.537 -1.3789  0.6496 -0.1479
25900TIP3    H278583   4.776   6.931   2.610 -0.0179  0.3977  0.0906
25901TIP3   OH278584   9.068   5.737   9.471  0.6101  0.3807  0.4936
25901TIP3    H178585   9.008   5.793   9.422 -0.1122 -0.2616  0.6230
25901TIP3    H278586   9.118   5.690   9.404  0.0230 -0.0743  0.3670
25902TIP3   OH278587   9.883   6.356   9.281 -0.1565 -0.2969 -0.0938
25902TIP3    H178588   9.884   6.262   9.262 -1.0587 -0.1863 -0.7626
25902TIP3    H278589   9.923   6.363   9.367 -2.2429 -1.5675  1.0609
25903TIP3   OH278590   1.770   9.824   4.920  0.1771  0.8081 -1.1524
25903TIP3    H178591   1.679   9.802   4.940  1.2283 -1.6935  1.5855
25903TIP3    H278592   1.797   9.757   4.857  0.1998  1.4883 -1.8847
25904TIP3   OH278593   6.072   8.541   4.473 -0.1497 -0.1510  0.3988
25904TIP3    H178594   5.980   8.516   4.484 -0.2703 -0.4091 -0.9932
25904TIP3    H278595   6.084   8.614   4.532 -1.3584  0.1221  0.3391
25905TIP3   OH278596   6.236   4.031   4.560  0.3171  0.1356 -0.8526
25905TIP3    H178597   6.266   3.940   4.554 -0.1313 -0.0673 -0.1049
25905TIP3    H278598   6.317   4.082   4.575  0.6960 -0.0082 -2.2338
25906TIP3   OH278599   3.435   2.209  10.616 -0.2344  0.0860  0.3313
25906TIP3    H178600   3.466   2.143  10.679 -0.6511 -1.9934 -1.5385
25906TIP3    H278601   3.421   2.160  10.535 -0.7431  2.4786 -1.1096
25907TIP3   OH278602   9.855  10.491   0.670  0.2876  0.2538  0.4829
25907TIP3    H178603   9.933  10.517   0.620  1.5292 -0.8367  1.7728
25907TIP3    H278604   9.852  10.396   0.663 -1.1402  0.2913  0.2001
25908TIP3   OH278605   4.580   9.079   8.371 -0.3047 -0.7325  0.4413
25908TIP3    H178606   4.676   9.071   8.373 -0.1432 -0.3353 -2.0010
25908TIP3    H278607   4.560   9.149   8.433  1.1997  0.4751 -0.3705
25909TIP3   OH278608   6.772   4.534   6.775  0.0121 -0.0158 -0.4403
25909TIP3    H178609   6.808   4.513   6.862 -0.3041 -1.1206 -0.5550
25909TIP3    H278610   6.832   4.598   6.738  0.3354  0.2162  0.4635
25910TIP3   OH278611   1.875  10.704   2.908  0.2962  0.1725 -0.1793
25910TIP3    H178612   1.911  10.616   2.918 -0.4042  0.1544  3.0497
25910TIP3    H278613   1.794  10.692   2.858  0.4080 -0.9681 -0.1046
25911TIP3   OH278614   3.841   5.198   6.023  0.0419  0.0381  0.4963
25911TIP3    H178615   3.820   5.134   6.092  0.0711  1.6760  2.1068
25911TIP3    H278616   3.767   5.258   6.022  0.2776  0.3338 -0.5726
25912TIP3   OH278617   7.682   8.357   1.653  0.3405 -0.9358 -0.1819
25912TIP3    H178618   7.619   8.284   1.651  2.4920 -2.9123  0.0020
25912TIP3    H278619   7.712   8.365   1.563  1.8921 -1.9922  0.1986
25913TIP3   OH278620   9.770   8.328   0.270  0.4235 -0.1328 -0.5410
25913TIP3    H178621   9.773   8.303   0.177  0.9160 -1.6447 -0.1330
25913TIP3    H278622   9.757   8.246   0.317  4.0122 -0.0035  0.9953
25914TIP3   OH278623   0.375   7.393   7.128  0.6177 -0.6285  0.0635
25914TIP3    H178624   0.283   7.382   7.103  0.5519  0.1025 -0.0318
25914TIP3    H278625   0.380   7.356   7.216 -0.0239  0.3165  0.5203
25915TIP3   OH278626   1.553   8.855   2.614  0.5803 -0.6499  0.7628
25915TIP3    H178627   1.602   8.935   2.632  0.0173 -0.1341  0.0668
25915TIP3    H278628   1.530   8.822   2.701  3.3695 -1.7273  1.2062
25916TIP3   OH278629   4.825   2.979   8.791  0.3138  0.1798 -0.7317
25916TIP3    H178630   4.868   2.903   8.752  1.2276 -0.7176  1.8020
25916TIP3    H278631   4.765   2.942   8.855  1.1642  1.5332  0.9393
25917TIP3   OH278632   9.556   4.115   6.575  0.0966 -0.1476 -0.3412
25917TIP3    H178633   9.480   4.107   6.517  0.9471  0.6036 -1.6027
25917TIP3    H278634   9.617   4.171   6.527  0.1952  1.8540  1.9851
25918TIP3   OH278635   9.884   6.729   3.209 -0.0267  0.0716  0.3904
25918TIP3    H178636   9.804   6.702   3.254 -0.4961 -0.5736 -0.7771
25918TIP3    H278637   9.856   6.801   3.152  0.3210  0.1238  0.2846
25919TIP3   OH278638   7.998  10.399  10.899  0.1861 -0.0209  0.0193
25919TIP3    H178639   8.037  10.479  10.933  0.2235  0.4836 -1.1652
25919TIP3    H278640   7.956  10.358  10.975  0.3921  0.9825  0.6863
25920TIP3   OH278641   1.254   4.267   3.096  0.0105 -0.4649 -0.0501
25920TIP3    H178642   1.229   4.282   3.187  0.3047  1.2044 -0.2258
25920TIP3    H278643   1.218   4.341   3.048  2.4513  0.3031 -0.8079
25921TIP3   OH278644   3.123   1.626   7.616  0.3175 -0.3161  0.8976
25921TIP3    H178645   3.207   1.651   7.579  0.3905 -0.9133  0.6477
25921TIP3    H278646   3.140   1.540   7.656 -0.8257 -1.8048 -1.5948
25922TIP3   OH278647   9.238   6.251   0.414 -0.0126  0.1116  0.2625
25922TIP3    H178648   9.283   6.220   0.492  1.6859  0.1364 -0.6581
25922TIP3    H278649   9.247   6.180   0.351  1.7165  1.3781 -1.0292
25923TIP3   OH278650   3.781  10.848   3.281  0.1798  1.1614 -1.0736
25923TIP3    H178651   3.727  10.780   3.321  1.0698  0.6202 -0.7649
25923TIP3    H278652   3.868  10.835   3.319  0.3590  2.5058 -0.9654
25924TIP3   OH278653  10.467   9.759  10.351  0.4303  0.1860 -0.1162
25924TIP3    H178654  10.531   9.780  10.283  0.0485  0.5032 -0.3806
25924TIP3    H278655  10.520   9.745  10.430  1.0698 -2.1141 -0.8635
25925TIP3   OH278656   9.565   6.339   4.235  0.1518  0.0115 -0.1759
25925TIP3    H178657   9.549   6.355   4.142 -1.9452 -2.8163 -0.4305
25925TIP3    H278658   9.660   6.338   4.243  0.3714  1.4580 -2.0162
25926TIP3   OH278659   1.544   7.391   1.715  0.1108 -0.3053  0.3261
25926TIP3    H178660   1.456   7.427   1.723  0.6686  0.7578  2.6924
25926TIP3    H278661   1.567   7.363   1.803  1.1308 -3.2142 -0.7469
25927TIP3   OH278662   1.783   2.837   5.913 -0.5099  0.0588 -0.3608
25927TIP3    H178663   1.744   2.895   5.979 -1.8399 -0.4689 -0.6385
25927TIP3    H278664   1.708   2.795   5.871  0.2739  0.7507 -2.5820
25928TIP3   OH278665   6.955   3.176   3.453  0.3118 -0.0490  0.1323
25928TIP3    H178666   7.023   3.132   3.504 -0.4665  0.6517  1.8322
25928TIP3    H278667   6.995   3.188   3.367  1.7010 -1.1929  0.5707
25929TIP3   OH278668   3.997   2.367   0.091  0.2198 -0.1105  0.1864
25929TIP3    H178669   3.947   2.285   0.088 -1.4360  0.8026 -3.3591
25929TIP3    H278670   3.930   2.436   0.092  1.4837  1.1757 -0.1753
25930TIP3   OH278671   7.757   4.890   0.324 -0.8244  0.6261 -0.0697
25930TIP3    H178672   7.791   4.927   0.405 -0.6070  1.6982 -0.6375
25930TIP3    H278673   7.666   4.921   0.319 -0.5867  1.2383 -0.6371
25931TIP3   OH278674   4.843   4.789   9.493  0.0353 -0.2295 -0.4844
25931TIP3    H178675   4.775   4.727   9.517  1.0691 -0.8552  1.0046
25931TIP3    H278676   4.925   4.744   9.514  0.9029  0.6405 -1.8634
25932TIP3   OH278677   4.593   2.924   4.764 -0.3901 -0.0974 -0.0502
25932TIP3    H178678   4.522   2.936   4.700  0.2157  0.5560 -0.6226
25932TIP3    H278679   4.604   3.010   4.804 -0.1668 -0.2866  0.3003
25933TIP3   OH278680   4.144   6.844   8.730 -0.0965 -0.2471  0.3921
25933TIP3    H178681   4.156   6.928   8.775  1.0873 -1.1281  1.8362
25933TIP3    H278682   4.211   6.787   8.768 -0.8129 -1.8325 -0.6140
25934TIP3   OH278683   0.902   2.888  10.592 -0.1281 -0.4784  0.5509
25934TIP3    H178684   0.903   2.935  10.675  2.1272 -2.7589  1.9717
25934TIP3    H278685   0.948   2.946  10.531 -1.2296  0.9428  1.0225
25935TIP3   OH278686   8.175   3.905   7.230  0.3019 -0.2861  0.0468
25935TIP3    H178687   8.100   3.852   7.256  0.1662  0.3530  1.0425
25935TIP3    H278688   8.139   3.992   7.212  0.7008 -0.1665 -0.2051
25936TIP3   OH278689   5.118   1.317   9.009 -0.3460 -0.7753 -0.1638
25936TIP3    H178690   5.054   1.384   8.987  0.9171  0.4150 -0.2965
25936TIP3    H278691   5.105   1.301   9.103 -0.9538 -0.6875 -0.2278
25937TIP3   OH278692   2.376   6.008  10.819  0.3049 -0.1613  0.5060
25937TIP3    H178693   2.334   6.008  10.905 -0.8421 -0.9766 -0.0186
25937TIP3    H278694   2.442   6.077  10.823  0.8432 -0.7459  2.3009
25938TIP3   OH278695  10.546   9.986   0.212 -0.0375 -0.4070  0.2079
25938TIP3    H178696  10.607   9.915   0.232 -0.4226 -0.7899  0.0200
25938TIP3    H278697  10.567  10.054   0.277 -0.7832 -1.3452  1.4762
25939TIP3   OH278698   2.391   4.137   1.076 -0.2400  0.0586  0.1825
25939TIP3    H178699   2.352   4.062   1.121 -3.8078  2.6105  1.8435
25939TIP3    H278700   2.465   4.162   1.131 -0.2776 -1.0447  0.7522
25940TIP3   OH278701   9.219   1.142   6.883  0.0756 -0.1887  0.3674
25940TIP3    H178702   9.217   1.046   6.878 -1.4506 -0.1377 -0.3513
25940TIP3    H278703   9.131   1.170   6.858  0.2616  1.3838  1.3128
25941TIP3   OH278704   6.028  10.886   8.367  0.0696 -0.4864  0.2131
25941TIP3    H178705   6.107  10.930   8.399 -0.3396  0.5541 -0.1779
25941TIP3    H278706   6.058  10.836   8.291  0.1345  0.9121 -0.7116
25942TIP3   OH278707   6.221   8.078   5.688  0.3463  0.2980  0.1121
25942TIP3    H178708   6.262   8.146   5.741  1.0116 -0.1301  0.1508
25942TIP3    H278709   6.138   8.061   5.732  0.5098  0.5555  0.5267
25943TIP3   OH278710   7.348   6.485   4.530 -0.0299 -0.3950  0.9748
25943TIP3    H178711   7.337   6.391   4.540  0.5452 -0.1955  4.9101
25943TIP3    H278712   7.399   6.495   4.450  0.0941 -3.4010  0.5853
25944TIP3   OH278713   9.922   7.959   2.348  0.0886  0.2732  0.3558
25944TIP3    H178714   9.917   7.897   2.421  1.1526  2.0149  2.0280
25944TIP3    H278715  10.015   7.960   2.324  0.0395  1.0059  0.1720
25945TIP3   OH278716   6.385   6.838  10.686 -0.2495  0.5992 -0.1907
25945TIP3    H178717   6.297   6.865  10.711 -0.1242  0.3223  0.5856
25945TIP3    H278718   6.436   6.919  10.686 -0.3452  0.6616  0.0707
25946TIP3   OH278719   8.023   9.558   0.727  0.1425  0.3206 -0.4249
25946TIP3    H178720   7.952   9.555   0.663 -0.0269 -0.7647 -0.2138
25946TIP3    H278721   8.048   9.650   0.732 -1.6752  0.8373 -0.0313
25947TIP3   OH278722   0.537   1.720   1.455 -0.3771  0.2953 -0.5176
25947TIP3    H178723   0.468   1.696   1.393 -0.8926  0.4564 -0.0155
25947TIP3    H278724   0.517   1.669   1.534 -1.2119  1.9472  0.3971
25948TIP3   OH278725   0.527   9.864   8.056  0.2484 -0.1031  0.2131
25948TIP3    H178726   0.573   9.911   8.126 -1.1948  2.1748 -0.2454
25948TIP3    H278727   0.574   9.887   7.976  1.8314 -2.6228  0.2967
25949TIP3   OH278728  10.808   1.576   9.274 -0.4083 -0.5471  0.2428
25949TIP3    H178729  10.834   1.488   9.301 -1.4829 -0.9795 -0.0695
25949TIP3    H278730  10.732   1.562   9.217 -1.0051  0.6223  0.7137
25950TIP3   OH278731   3.496   1.756   6.948  0.1671  0.3776  0.5353
25950TIP3    H178732   3.431   1.737   7.016  0.2347  0.0616  0.5127
25950TIP3    H278733   3.453   1.731   6.866  0.8001 -1.1419  0.6277
25951TIP3   OH278734   3.390   4.942   8.477  0.4775 -0.0037 -0.1626
25951TIP3    H178735   3.354   5.020   8.435  1.0185  0.2902 -0.0956
25951TIP3    H278736   3.459   4.912   8.418  0.6513 -0.1010  0.0861
25952TIP3   OH278737   2.659   7.322   3.602  0.6600  0.4015  0.3752
25952TIP3    H178738   2.639   7.414   3.585 -0.4264 -0.2161 -2.0455
25952TIP3    H278739   2.754   7.320   3.613  1.0514  1.5271 -2.0799
25953TIP3   OH278740   6.382   1.370   0.711 -0.0737  0.6364 -0.3207
25953TIP3    H178741   6.460   1.400   0.663 -0.4486  1.4202 -0.4489
25953TIP3    H278742   6.312   1.371   0.646 -0.0651 -0.7591 -0.3937
25954TIP3   OH278743   2.366  10.489   3.080 -0.2093 -0.1116  0.0009
25954TIP3    H178744   2.296  10.458   3.022 -0.1512  0.3367 -0.3175
25954TIP3    H278745   2.356  10.584   3.080 -0.8457 -0.1506  1.5574
25955TIP3   OH278746   6.341   5.623   6.445  0.2879 -0.1266 -0.0462
25955TIP3    H178747   6.326   5.532   6.422  3.3100 -0.7530  0.0300
25955TIP3    H278748   6.259   5.652   6.485 -0.8263 -2.7057 -0.2735
25956TIP3   OH278749   9.552   2.958   7.518  0.2980 -0.1272  0.2894
25956TIP3    H178750   9.639   2.968   7.555 -0.9483 -0.1953  3.5718
25956TIP3    H278751   9.551   3.016   7.442  3.0404  0.1298  0.3509
25957TIP3   OH278752   5.648   6.957   1.074 -0.0817  0.4963  0.0394
25957TIP3    H178753   5.670   6.988   0.987 -2.6437  0.1259 -0.8466
25957TIP3    H278754   5.553   6.971   1.081  0.1221  1.0982  3.0246
25958TIP3   OH278755   6.261   7.468   3.162 -0.1161  0.2491 -0.2412
25958TIP3    H178756   6.287   7.509   3.244  0.6465 -1.3328  0.3348
25958TIP3    H278757   6.169   7.445   3.174  0.3671 -1.2590  0.7335
25959TIP3   OH278758   8.765   0.065  10.214  0.2833 -0.0871  0.2755
25959TIP3    H178759   8.783   0.138  10.155 -0.3467 -0.1534 -0.0121
25959TIP3    H278760   8.792  -0.012  10.165 -1.0544 -0.2151 -0.2952
25960TIP3   OH278761   2.447   0.222   5.906  0.1283  0.0262  0.1786
25960TIP3    H178762   2.402   0.233   5.822 -0.2815 -1.0391  0.2436
25960TIP3    H278763   2.521   0.164   5.886  1.2142  1.3571  0.1721
25961TIP3   OH278764   6.332  10.430   8.996 -0.4211 -0.0630 -0.1594
25961TIP3    H178765   6.292  10.368   9.057 -0.1193 -0.0180  0.0866
25961TIP3    H278766   6.368  10.375   8.927  0.0145 -0.1773  0.1574
25962TIP3   OH278767   8.002   2.038   9.400 -0.1979  0.4428 -0.5664
25962TIP3    H178768   7.980   1.961   9.452 -1.2894  2.5681  2.3823
25962TIP3    H278769   8.041   2.099   9.462  0.1634  2.4921 -2.6566
25963TIP3   OH278770   4.692   8.642  10.484  0.3586 -0.4454  0.0118
25963TIP3    H178771   4.643   8.687  10.415  1.6085 -2.0322 -2.0352
25963TIP3    H278772   4.644   8.561  10.499  0.0621 -0.0854  1.1045
25964TIP3   OH278773   8.720   0.411   9.867  0.6155 -0.6266 -0.0120
25964TIP3    H178774   8.775   0.372   9.934  1.5500 -1.3049 -1.1249
25964TIP3    H278775   8.741   0.505   9.870  1.6114 -0.8306 -0.1917
25965TIP3   OH278776   6.000   7.426   4.583 -0.3089  0.2436  0.3257
25965TIP3    H178777   5.905   7.427   4.596 -0.1677  1.5850  1.4679
25965TIP3    H278778   6.013   7.368   4.508 -2.0336  0.0711  0.1152
25966TIP3   OH278779   5.504   3.549   1.224  0.2228 -0.1176  0.0346
25966TIP3    H178780   5.597   3.539   1.203  0.0847 -0.8835 -0.2631
25966TIP3    H278781   5.463   3.573   1.141  0.1149 -0.0475  0.1081
25967TIP3   OH278782   7.694  10.099   4.498 -0.1480 -0.0710 -0.4778
25967TIP3    H178783   7.603  10.113   4.473 -0.1475 -1.3676 -1.2551
25967TIP3    H278784   7.698  10.128   4.590 -2.3992 -3.8060  1.0288
25968TIP3   OH278785   5.324   8.324   7.739 -0.8553  0.5061  0.6388
25968TIP3    H178786   5.364   8.406   7.709 -0.5350  0.4075  0.7930
25968TIP3    H278787   5.361   8.257   7.682 -0.4139  0.3467  1.1063
25969TIP3   OH278788   2.262   1.773   7.399  0.0127 -0.0655  0.3104
25969TIP3    H178789   2.212   1.761   7.318  0.9236  1.2772 -0.4990
25969TIP3    H278790   2.200   1.753   7.469 -1.1318 -0.1447 -0.6961
25970TIP3   OH278791   3.381   7.365   7.779 -0.5710  0.1942  0.6312
25970TIP3    H178792   3.308   7.303   7.785 -0.5756  0.1134 -0.0932
25970TIP3    H278793   3.433   7.350   7.858  0.2612 -1.7957 -0.2261
25971TIP3   OH278794   3.971   8.667   6.465  0.1172  0.1786  0.2084
25971TIP3    H178795   3.973   8.631   6.553  0.1542  1.3730  0.7248
25971TIP3    H278796   3.897   8.729   6.466  0.0878  0.1735 -0.6144
25972TIP3   OH278797   7.551   3.753   7.177 -0.5437  0.6577  0.5344
25972TIP3    H178798   7.583   3.784   7.092  1.6379 -0.5146  0.8451
25972TIP3    H278799   7.555   3.658   7.171 -0.8470  0.5455  1.7608
25973TIP3   OH278800   2.527   8.995   4.850 -0.6731 -0.0323  0.0342
25973TIP3    H178801   2.446   9.045   4.849  0.8575  2.6338 -0.3720
25973TIP3    H278802   2.573   9.022   4.770  0.4910 -1.7144  0.0782
25974TIP3   OH278803   3.638   9.082   5.618  0.0150 -0.2320  0.5860
25974TIP3    H178804   3.636   9.031   5.698 -2.9606  0.0933  0.8229
25974TIP3    H278805   3.565   9.049   5.566 -0.7797  2.3662 -0.1219
25975TIP3   OH278806   3.949  10.643   6.357 -0.0794 -0.0125  0.2168
25975TIP3    H178807   3.987  10.566   6.399 -0.3136  0.3762  1.1696
25975TIP3    H278808   3.952  10.711   6.424 -1.7394  0.2364  0.0799
25976TIP3   OH278809   8.327   4.323   2.006 -0.4737  0.2886  1.0245
25976TIP3    H178810   8.286   4.291   1.925  0.0904 -2.6878  1.8125
25976TIP3    H278811   8.260   4.380   2.044 -1.3473  0.5686 -0.7863
25977TIP3   OH278812   3.396   2.838   3.732 -0.6755  0.1914 -0.5921
25977TIP3    H178813   3.330   2.863   3.668 -0.8979 -0.8507 -0.7841
25977TIP3    H278814   3.395   2.909   3.797 -3.8814 -1.0665  0.8818
25978TIP3   OH278815   0.625   0.247   3.607  0.3382 -0.1499 -0.3238
25978TIP3    H178816   0.608   0.289   3.522  0.0088  1.0716  0.3277
25978TIP3    H278817   0.675   0.312   3.656  1.6090 -1.3388 -0.0074
25979TIP3   OH278818   5.282   1.593   4.017  0.6594  0.3171 -0.2287
25979TIP3    H178819   5.275   1.665   3.955  0.5134 -0.5588 -1.2617
25979TIP3    H278820   5.258   1.631   4.101 -1.5099  1.0078 -1.0987
25980TIP3   OH278821   0.541   3.478   5.513 -0.0001  0.3519  0.1725
25980TIP3    H178822   0.584   3.393   5.520 -1.2753 -0.3101  0.4076
25980TIP3    H278823   0.497   3.489   5.598  0.6780  1.5529  0.3816
25981TIP3   OH278824   5.615   2.844   8.443 -0.3656 -0.0751  0.6202
25981TIP3    H178825   5.523   2.817   8.446 -0.7075  1.0072  0.2697
25981TIP3    H278826   5.622   2.916   8.506 -0.1814  1.0356 -0.6261
25982TIP3   OH278827   3.144   4.643   0.119  0.0701 -0.5872  0.3535
25982TIP3    H178828   3.208   4.606   0.180  0.2630 -0.3677  0.2885
25982TIP3    H278829   3.075   4.677   0.175 -0.4515 -1.6580  0.3871
25983TIP3   OH278830  10.073   7.315   0.386  0.4181  0.0149 -0.3876
25983TIP3    H178831  10.013   7.264   0.332  0.3740 -0.6568  0.2780
25983TIP3    H278832  10.154   7.264   0.387  1.3888  1.4365 -2.1595
25984TIP3   OH278833   5.354   9.493   1.727 -0.0007  0.1639 -0.5042
25984TIP3    H178834   5.391   9.529   1.808 -1.6922 -1.3056  1.0063
25984TIP3    H278835   5.361   9.398   1.738  0.1660 -0.0637 -2.3326
25985TIP3   OH278836  10.631   4.518   3.490 -1.2729 -0.1419 -0.1196
25985TIP3    H178837  10.616   4.432   3.529 -0.0595  0.1859  1.1789
25985TIP3    H278838  10.695   4.559   3.548  0.1199  0.6599 -2.1173
25986TIP3   OH278839   6.190   1.504   4.015  0.1688 -0.0902  0.4685
25986TIP3    H178840   6.230   1.430   4.059 -1.0174 -1.0892 -0.0921
25986TIP3    H278841   6.243   1.517   3.936 -0.1607 -0.9240  0.1077
25987TIP3   OH278842   9.142   4.152   6.766  0.2456 -0.4239 -0.1887
25987TIP3    H178843   9.085   4.190   6.699  0.1356  0.4317  0.3746
25987TIP3    H278844   9.083   4.100   6.821  0.3152 -1.0233 -0.6806
25988TIP3   OH278845   5.750   8.300   2.785 -0.1196 -0.4697  0.0568
25988TIP3    H178846   5.805   8.223   2.796  1.0991  0.5347  1.3488
25988TIP3    H278847   5.804   8.362   2.736  0.7182  1.2032  2.8522
25989TIP3   OH278848   9.422   8.602   4.057 -0.3966  0.2400  0.0293
25989TIP3    H178849   9.414   8.643   3.971  1.5675 -0.1996 -0.4381
25989TIP3    H278850   9.516   8.608   4.077 -0.4319 -1.7675  1.0477
25990TIP3   OH278851   9.190   7.545  10.062 -0.8161 -0.3768 -0.8352
25990TIP3    H178852   9.170   7.466  10.012 -0.1471 -0.9327 -0.2404
25990TIP3    H278853   9.230   7.513  10.143  0.9558  0.6096 -1.2647
25991TIP3   OH278854   5.608   9.427   4.843  0.4708  0.1681  0.3204
25991TIP3    H178855   5.573   9.396   4.926  1.3399  0.1721  0.6987
25991TIP3    H278856   5.692   9.467   4.865 -0.0153  1.6538 -0.3265
25992TIP3   OH278857   6.526   7.905   2.013 -0.0396  0.7133 -0.1751
25992TIP3    H178858   6.612   7.882   2.048 -0.6313 -1.0918  0.1690
25992TIP3    H278859   6.543   7.934   1.923  0.8272 -0.6841 -0.4867
25993TIP3   OH278860   2.971   2.785   0.647  0.4737 -0.5513  0.6608
25993TIP3    H178861   2.926   2.794   0.731  1.6497 -0.9308  1.3613
25993TIP3    H278862   2.928   2.848   0.590  0.3358  0.4736  1.8524
25994TIP3   OH278863   6.360   0.452   6.792 -0.1674  0.0625  0.0662
25994TIP3    H178864   6.285   0.481   6.741 -0.7947  1.2037  1.5571
25994TIP3    H278865   6.402   0.533   6.822  1.9181 -0.5275 -1.0208
25995TIP3   OH278866   4.504   0.768   4.675 -0.0935 -0.4082 -0.1582
25995TIP3    H178867   4.522   0.861   4.663 -0.3368 -0.4895 -1.2075
25995TIP3    H278868   4.515   0.753   4.769  0.1256  0.6376 -0.0141
25996TIP3   OH278869   7.087   7.791   1.759  0.3803 -0.3372  0.2471
25996TIP3    H178870   7.112   7.728   1.691  0.3375 -0.6395  0.5100
25996TIP3    H278871   6.996   7.769   1.779  1.1083 -1.8648  2.1546
25997TIP3   OH278872  10.235   7.954   5.125 -0.3706 -0.1646 -0.6163
25997TIP3    H178873  10.205   7.981   5.212  1.0120  0.8777 -0.4368
25997TIP3    H278874  10.167   7.893   5.095 -0.6980 -0.8501  1.3293
25998TIP3   OH278875   1.495   6.314   8.760 -0.8717  0.0245  0.0958
25998TIP3    H178876   1.435   6.355   8.821  1.0060 -1.4712  3.1896
25998TIP3    H278877   1.580   6.316   8.804  0.9234 -0.0718 -3.0321
25999TIP3   OH278878   2.742   5.061   2.677  0.5532 -0.4482  0.4152
25999TIP3    H178879   2.772   5.147   2.706  1.1404 -0.0980 -1.1297
25999TIP3    H278880   2.797   4.999   2.725  1.9339  0.1232 -0.3911
26000TIP3   OH278881   7.974   0.034   0.677  0.0649 -0.1649 -0.1627
26000TIP3    H178882   7.979   0.128   0.692  0.0585 -0.2946  0.7418
26000TIP3    H278883   8.056  -0.001   0.713 -0.5231 -0.6390  0.7590
26001TIP3   OH278884   6.851  10.824  10.159 -0.4372 -0.8408 -0.3103
26001TIP3    H178885   6.890  10.770  10.227  2.3648  0.2849 -0.8809
26001TIP3    H278886   6.863  10.775  10.078 -1.8895 -1.2586 -0.3023
26002TIP3   OH278887  10.721   4.375   0.760 -0.3049 -0.7204 -0.6157
26002TIP3    H178888  10.721   4.349   0.667  1.9305  1.4677 -1.3432
26002TIP3    H278889  10.707   4.470   0.758  2.5135 -0.1619  1.0137
26003TIP3   OH278890   4.515   4.611   3.439 -0.9693 -0.3178 -0.0550
26003TIP3    H178891   4.435   4.627   3.488 -1.4122 -3.4726  0.4556
26003TIP3    H278892   4.585   4.609   3.505 -0.7237  0.6459 -0.2714
26004TIP3   OH278893   6.102   6.718   1.031  0.3432  0.3486 -0.2760
26004TIP3    H178894   6.057   6.792   1.072  0.5033  0.5505 -0.4652
26004TIP3    H278895   6.067   6.641   1.076  0.8939  0.5954  0.6063
26005TIP3   OH278896   0.026   2.380   0.173  0.0157 -0.2574  0.1991
26005TIP3    H178897  -0.061   2.396   0.212  0.3030 -0.7574  1.0714
26005TIP3    H278898   0.087   2.423   0.233  0.3894 -0.0707 -0.3123
26006TIP3   OH278899   8.470   9.829   6.976 -0.5610  0.1624 -0.2179
26006TIP3    H178900   8.516   9.759   6.930  0.3056  0.2907  0.4301
26006TIP3    H278901   8.380   9.797   6.984 -1.2842  0.9739 -3.7327
26007TIP3   OH278902   8.474   3.204   2.427 -0.1676  0.4616 -0.0830
26007TIP3    H178903   8.525   3.217   2.347 -1.8188 -1.4080 -1.5780
26007TIP3    H278904   8.390   3.247   2.409 -0.0955  1.1842  1.2154
26008TIP3   OH278905  10.639   4.323   9.771  0.6902  0.3603 -0.2443
26008TIP3    H178906  10.721   4.331   9.819 -0.0792 -1.0536  1.4461
26008TIP3    H278907  10.664   4.327   9.678  2.2951  2.6506  0.2131
26009TIP3   OH278908  10.165   9.125   1.692 -0.5754 -0.0578 -0.3097
26009TIP3    H178909  10.095   9.061   1.691 -2.5413  1.9654 -0.9048
26009TIP3    H278910  10.126   9.203   1.730  1.8243  0.7249  0.7928
26010TIP3   OH278911   1.048   4.916  10.536 -0.2666  0.5689 -0.5246
26010TIP3    H178912   1.029   4.974  10.609  0.9004 -0.6363  0.7907
26010TIP3    H278913   1.133   4.945  10.503 -1.3955  2.0063 -2.3846
26011TIP3   OH278914   0.158   7.692   8.516 -0.2925 -0.6259  0.1699
26011TIP3    H178915   0.235   7.641   8.492  0.0636  1.3423 -3.6953
26011TIP3    H278916   0.110   7.636   8.577  2.2280 -3.5872 -0.3083
26012TIP3   OH278917   9.876   3.534   6.629  0.9148 -0.1471  0.0342
26012TIP3    H178918   9.914   3.447   6.640 -1.3029 -1.0409  1.1242
26012TIP3    H278919   9.950   3.593   6.639  1.9279 -1.7300  3.1249
26013TIP3   OH278920   3.360   4.617   2.734 -0.2193 -0.3525  0.0592
26013TIP3    H178921   3.436   4.670   2.756 -0.6498  2.3384 -3.9401
26013TIP3    H278922   3.393   4.552   2.672 -1.1529  2.0882 -3.3304
26014TIP3   OH278923   2.413   6.782  10.265  0.2029  0.2586  0.4175
26014TIP3    H178924   2.376   6.811  10.182 -0.5012 -0.8835  0.3115
26014TIP3    H278925   2.366   6.831  10.331 -0.1186  0.2491  0.1952
26015TIP3   OH278926   1.976   2.339   3.327 -0.2845  0.4903 -0.7797
26015TIP3    H178927   1.881   2.323   3.327 -0.2350  0.1562 -1.2852
26015TIP3    H278928   1.990   2.398   3.254 -0.2313  1.4228 -0.0279
26016TIP3   OH278929   3.410   8.941   8.099  0.3495 -0.0698 -0.1913
26016TIP3    H178930   3.430   8.928   8.006 -1.2895 -0.1830 -0.5736
26016TIP3    H278931   3.495   8.943   8.143  1.1631  0.1874 -1.7181
26017TIP3   OH278932   2.978   0.430   3.196  0.1801  0.3835 -0.7574
26017TIP3    H178933   2.956   0.432   3.289  4.0629 -0.4163  0.3450
26017TIP3    H278934   2.994   0.522   3.173  0.4133  0.4597 -0.2953
26018TIP3   OH278935  10.571   3.039   7.886  0.2256  0.2028 -0.2681
26018TIP3    H178936  10.510   2.974   7.851  0.6950  0.0410 -0.7932
26018TIP3    H278937  10.657   3.006   7.864  0.4948  0.6831  0.0370
26019TIP3   OH278938   2.969   5.101   1.455  0.1403  0.4359  0.3415
26019TIP3    H178939   3.037   5.035   1.467  0.2242  0.2473 -1.0493
26019TIP3    H278940   3.012   5.172   1.408 -1.0881 -0.6557 -2.6721
26020TIP3   OH278941   6.614   1.727   2.704 -0.2357  0.7708 -0.2732
26020TIP3    H178942   6.600   1.818   2.679 -0.5406  0.3284 -1.8030
26020TIP3    H278943   6.573   1.676   2.634  1.0745 -0.5463 -0.1343
26021TIP3   OH278944   1.238  10.085   9.103  0.2000 -0.4660 -0.2733
26021TIP3    H178945   1.281  10.015   9.151 -0.0290 -1.2981 -1.2480
26021TIP3    H278946   1.225  10.154   9.168 -1.0887 -1.9598  1.1444
26022TIP3   OH278947   4.593   2.671   3.701  0.0005  0.1234 -0.1066
26022TIP3    H178948   4.569   2.731   3.630 -0.3116  0.5198  0.3261
26022TIP3    H278949   4.511   2.630   3.727  0.5608 -2.6056 -2.2403
26023TIP3   OH278950   8.366   8.479   8.498  0.0408 -0.3052 -0.0417
26023TIP3    H178951   8.391   8.418   8.428  0.2509 -0.4317  0.1416
26023TIP3    H278952   8.275   8.457   8.516 -0.0521 -0.1907 -0.3568
26024TIP3   OH278953   6.679   7.174   0.675  0.1051 -0.5696 -0.0799
26024TIP3    H178954   6.597   7.125   0.670  0.4465 -1.1218 -0.4218
26024TIP3    H278955   6.743   7.117   0.633  0.4928  0.2408 -0.5992
26025TIP3   OH278956   4.777   3.715   7.138 -0.3487  0.3083  0.3014
26025TIP3    H178957   4.799   3.807   7.153 -0.6450  0.4832 -0.3226
26025TIP3    H278958   4.861   3.669   7.147 -0.1355  0.6820  0.2477
26026TIP3   OH278959   8.012   6.226   0.630 -0.2140 -0.1109 -0.4974
26026TIP3    H178960   8.101   6.226   0.667 -0.1952 -1.5462 -0.4832
26026TIP3    H278961   7.992   6.318   0.615  1.6371  0.2009 -1.3460
26027TIP3   OH278962   9.266   3.318   9.790 -0.1331  0.4885 -0.3380
26027TIP3    H178963   9.190   3.278   9.748 -0.4640 -0.3650  1.0316
26027TIP3    H278964   9.253   3.303   9.883  0.2787  2.8485  0.1672
26028TIP3   OH278965   3.954   4.229   4.917  0.2730 -0.6406 -0.3505
26028TIP3    H178966   4.049   4.241   4.922  0.2196 -0.1420 -0.5366
26028TIP3    H278967   3.935   4.237   4.823  0.1410 -1.4775 -0.4092
26029TIP3   OH278968  10.011   7.487   9.916  0.3727  0.5725 -0.2771
26029TIP3    H178969  10.085   7.426   9.907 -0.4933 -0.5355 -0.1154
26029TIP3    H278970  10.026   7.531   9.999  1.1729  0.8099 -0.5366
26030TIP3   OH278971   8.985   9.210   6.887 -0.2986  0.4151 -0.5588
26030TIP3    H178972   8.897   9.229   6.854 -0.4856 -0.6498 -0.7217
26030TIP3    H278973   8.971   9.141   6.952  0.4810 -0.2218 -1.0488
26031TIP3   OH278974   0.812   0.695   4.640  0.4233 -0.5102 -0.4778
26031TIP3    H178975   0.878   0.756   4.670 -1.0767 -0.2304  2.5994
26031TIP3    H278976   0.830   0.614   4.687 -0.1552 -1.1097 -1.2491
26032TIP3   OH278977   0.803   6.549   8.263 -0.3278  0.0284  0.4564
26032TIP3    H178978   0.816   6.554   8.358 -0.8770 -1.6595  0.6593
26032TIP3    H278979   0.830   6.459   8.240 -2.0712 -0.2526 -0.6634
26033TIP3   OH278980  10.434   8.188   1.172  0.5034 -0.3568  0.5939
26033TIP3    H178981  10.523   8.181   1.136  1.1820  0.1460  2.0678
26033TIP3    H278982  10.406   8.097   1.182 -0.9487 -0.6438 -3.8360
26034TIP3   OH278983   1.249   3.716   7.215 -0.0106  0.1142 -0.5127
26034TIP3    H178984   1.239   3.736   7.308 -2.4476  0.5045 -0.7971
26034TIP3    H278985   1.321   3.652   7.212  1.7069  1.8184  1.3406
26035TIP3   OH278986   5.305   7.128   7.822 -0.1180 -0.2830 -0.1945
26035TIP3    H178987   5.305   7.124   7.726 -1.3589  2.3321 -0.3747
26035TIP3    H278988   5.224   7.082   7.847  0.1275 -0.8342 -0.3864
26036TIP3   OH278989   3.391   7.492   7.325 -0.0689 -0.0761 -0.0346
26036TIP3    H178990   3.375   7.572   7.375 -2.3932 -0.7807  0.5058
26036TIP3    H278991   3.432   7.521   7.244 -0.9652  1.6702  0.1036
26037TIP3   OH278992   8.800   3.658   7.791  0.1711  0.3143  0.4124
26037TIP3    H178993   8.740   3.606   7.843 -1.3122 -0.2693 -1.7407
26037TIP3    H278994   8.789   3.747   7.824 -0.7161 -0.0383  1.1109
26038TIP3   OH278995   9.682   0.608   5.236 -0.5692  0.0647  0.6516
26038TIP3    H178996   9.673   0.593   5.142 -1.3578  0.4470  0.6557
26038TIP3    H278997   9.613   0.554   5.276 -2.1543  2.0524  0.7941
26039TIP3   OH278998  10.235   1.829   4.036 -0.3879  0.0894 -0.1656
26039TIP3    H178999  10.285   1.837   3.954 -0.6606 -0.0038 -0.3403
26039TIP3    H279000  10.302   1.831   4.105 -0.2015  0.9134 -0.3496
26040TIP3   OH279001   8.858   3.794   3.062 -0.3017  0.3383 -0.6137
26040TIP3    H179002   8.926   3.826   3.003 -0.2112 -0.1288 -0.7656
26040TIP3    H279003   8.904   3.774   3.144 -0.3232  0.3994 -0.5870
26041TIP3   OH279004   5.931   4.062   0.416 -0.5918 -0.5784 -0.0062
26041TIP3    H179005   5.970   3.991   0.364 -1.0402 -1.5229  0.9006
26041TIP3    H279006   6.004   4.101   0.463  0.0347  1.1435 -2.2493
26042TIP3   OH279007   4.236   2.704   4.259 -0.1864  0.3423 -0.3288
26042TIP3    H179008   4.276   2.781   4.299 -0.9749  1.3243 -1.3439
26042TIP3    H279009   4.287   2.688   4.180  0.1196 -0.3353 -0.0006
26043TIP3   OH279010   7.729   5.296   7.545  0.9958 -0.2823 -0.9845
26043TIP3    H179011   7.762   5.257   7.464  0.7099  0.6452 -1.5644
26043TIP3    H279012   7.753   5.389   7.537 -1.8392  0.4875 -1.4977
26044TIP3   OH279013   7.051   9.812   9.718 -0.1332 -0.7647 -0.2644
26044TIP3    H179014   6.988   9.833   9.649 -1.8412 -0.4949  1.2943
26044TIP3    H279015   7.053   9.716   9.719 -0.0015 -0.7734 -0.7405
26045TIP3   OH279016   3.575   4.810   6.046 -0.0981  0.3146 -0.1397
26045TIP3    H179017   3.576   4.756   6.125  0.6343 -0.9092 -0.9704
26045TIP3    H279018   3.645   4.874   6.059  0.7297 -0.5547 -0.2387
26046TIP3   OH279019   9.945  10.696   5.620  0.6256 -0.0643 -0.2115
26046TIP3    H179020   9.885  10.770   5.625  0.4820 -0.2155  0.3606
26046TIP3    H279021   9.986  10.704   5.533  0.6619  0.7165 -0.1277
26047TIP3   OH279022   2.221   7.713   3.516 -0.3751  0.0245 -0.1169
26047TIP3    H179023   2.197   7.684   3.604 -0.1967  2.1601  0.7009
26047TIP3    H279024   2.144   7.761   3.486  0.0494  0.4224 -0.5778
26048TIP3   OH279025   8.101   2.762   5.871  0.0192 -0.5410 -0.2539
26048TIP3    H179026   8.092   2.679   5.824 -0.4005 -0.6379 -0.0129
26048TIP3    H279027   8.140   2.822   5.808  1.4194 -1.2352 -0.0826
26049TIP3   OH279028   8.457   6.940  10.617  0.2129  0.2147  0.0799
26049TIP3    H179029   8.415   6.949  10.531  2.2549  0.4197 -0.9649
26049TIP3    H279030   8.408   6.871  10.661 -1.5160  0.8058 -0.8214
26050TIP3   OH279031   9.529   3.637   1.631  0.4590  0.8002  0.0379
26050TIP3    H179032   9.587   3.607   1.700 -0.5254  1.2397  1.0882
26050TIP3    H279033   9.581   3.630   1.551  2.0319  1.4057  0.9675
26051TIP3   OH279034   3.911   1.371   8.281 -0.1698  0.6904 -0.3437
26051TIP3    H179035   3.890   1.460   8.252 -0.6889  0.0671 -2.0230
26051TIP3    H279036   3.847   1.353   8.350 -0.6932  1.2719 -0.6625
26052TIP3   OH279037   4.511   9.135   2.093 -0.2197 -0.0275 -0.9590
26052TIP3    H179038   4.594   9.089   2.101 -1.1706 -1.5228  0.9654
26052TIP3    H279039   4.529   9.223   2.127  0.0713 -1.0469  1.7183
26053TIP3   OH279040   0.459   9.853   4.115 -0.3765 -0.0710 -0.0121
26053TIP3    H179041   0.554   9.851   4.109 -0.3582 -0.4904  0.3682
26053TIP3    H279042   0.431   9.763   4.098 -0.7509  0.1742 -0.7531
26054TIP3   OH279043   5.737   9.211   0.820 -0.0974  0.5916 -0.1686
26054TIP3    H179044   5.826   9.214   0.784  0.2739 -1.1499  0.4971
26054TIP3    H279045   5.693   9.144   0.768 -0.9875  1.3084 -0.3624
26055TIP3   OH279046   2.867   5.526  10.419 -0.6367 -0.2908 -0.1246
26055TIP3    H179047   2.902   5.477  10.493 -1.5811 -0.4740  0.2109
26055TIP3    H279048   2.785   5.481  10.397 -0.1280 -0.5651 -1.6127
26056TIP3   OH279049   1.549   8.172   3.593 -0.7078  0.2156 -0.2067
26056TIP3    H179050   1.461   8.154   3.560 -1.4290 -0.3455  1.8628
26056TIP3    H279051   1.535   8.211   3.679  1.0701  1.8236 -0.5770
26057TIP3   OH279052   8.487  10.133   1.271 -0.2682  0.2847  0.0864
26057TIP3    H179053   8.520  10.065   1.213  1.2940  0.0591  1.1895
26057TIP3    H279054   8.392  10.132   1.257 -0.1490 -1.2437 -0.8416
26058TIP3   OH279055   7.538   1.439   5.640 -0.3875 -0.0218 -0.2689
26058TIP3    H179056   7.473   1.508   5.651  1.2258  1.3745  1.0923
26058TIP3    H279057   7.500   1.362   5.682 -0.7762  1.0408  1.3752
26059TIP3   OH279058   6.245   6.884   3.218  0.0835  0.1782 -0.3116
26059TIP3    H179059   6.254   6.899   3.312 -2.0238  0.2755 -0.0767
26059TIP3    H279060   6.250   6.790   3.207 -1.1229  0.0492  0.1155
26060TIP3   OH279061   4.476   6.894   6.621 -0.1969 -0.7212 -0.3837
26060TIP3    H179062   4.478   6.937   6.707  0.6005  0.9189 -1.1752
26060TIP3    H279063   4.389   6.854   6.617 -0.1713 -1.0502  1.2625
26061TIP3   OH279064   7.956   2.216   8.472 -0.3510  0.0292 -0.0230
26061TIP3    H179065   7.964   2.124   8.495  1.6419  0.6284  2.1490
26061TIP3    H279066   8.001   2.224   8.389 -0.6745 -0.9685 -0.3070
26062TIP3   OH279067   3.401   3.984   4.755 -0.2446 -0.5634 -0.2082
26062TIP3    H179068   3.477   4.040   4.769 -0.9000 -0.1764  2.3768
26062TIP3    H279069   3.406   3.957   4.663  1.4976  1.6267 -0.8139
26063TIP3   OH279070   7.473   0.369   3.701  0.4153  0.1583 -0.6305
26063TIP3    H179071   7.400   0.431   3.707 -0.4907 -0.9585  0.7089
26063TIP3    H279072   7.507   0.379   3.612  0.3473  2.5794 -0.4377
26064TIP3   OH279073   0.795   9.719   9.293  0.5008 -0.1573 -0.4645
26064TIP3    H179074   0.705   9.688   9.290  0.5552 -0.3916  0.1373
26064TIP3    H279075   0.790   9.812   9.270  0.0104  0.0187  0.2975
26065TIP3   OH279076  10.696   6.015   3.256  0.3923 -0.3374 -0.0565
26065TIP3    H179077  10.656   5.944   3.306 -0.8453  0.8335  0.6990
26065TIP3    H279078  10.720   5.976   3.173 -0.4236 -1.5888  0.2763
26066TIP3   OH279079   1.956   2.757   8.741 -0.3073  0.0809 -0.0213
26066TIP3    H179080   1.916   2.829   8.789  0.5516  0.4571  0.1538
26066TIP3    H279081   1.959   2.685   8.804  3.5538  1.4315  1.6548
26067TIP3   OH279082   7.441   5.067   0.672  0.3785  0.0279  0.2555
26067TIP3    H179083   7.482   5.130   0.731 -2.6081  1.4273  1.0158
26067TIP3    H279084   7.444   4.984   0.720  1.5808  0.2390  0.5791
26068TIP3   OH279085   9.766   2.285   7.982  0.1663  0.3790  0.2342
26068TIP3    H179086   9.704   2.244   7.923  0.6107  0.3638 -0.2330
26068TIP3    H279087   9.739   2.258   8.069 -0.9607  1.0246  0.1005
26069TIP3   OH279088   8.876   1.227   9.251  0.2620  0.4454  0.3434
26069TIP3    H179089   8.789   1.200   9.280  0.6842  1.0522  2.3166
26069TIP3    H279090   8.919   1.146   9.226 -1.0880  0.2068 -1.4825
26070TIP3   OH279091   8.084   9.167   9.897  0.2509 -0.0478  0.7834
26070TIP3    H179092   8.132   9.210   9.826  1.8150  0.5398  2.1306
26070TIP3    H279093   8.130   9.084   9.909 -1.9412 -1.6274 -0.9239
26071TIP3   OH279094   9.331   7.012   3.045 -0.0664 -0.1601  0.4245
26071TIP3    H179095   9.412   6.997   3.093 -0.6471 -2.1548  0.8406
26071TIP3    H279096   9.360   7.038   2.957  0.9892  2.4920  1.4337
26072TIP3   OH279097   2.528   4.734   4.184 -0.2331 -0.0713 -0.5221
26072TIP3    H179098   2.488   4.804   4.237 -1.2693 -0.6794 -0.4696
26072TIP3    H279099   2.455   4.698   4.134  0.2856 -1.1408 -0.5168
26073TIP3   OH279100   3.060   3.918   6.774 -0.0735  0.1759 -0.0598
26073TIP3    H179101   3.060   3.852   6.843  3.3498  1.4297  1.3353
26073TIP3    H279102   3.098   3.874   6.698  1.4855  0.2559  0.6394
26074TIP3   OH279103   7.917  10.506   6.701  0.2898 -0.8854 -0.2459
26074TIP3    H179104   7.966  10.479   6.779 -0.3302  0.2011  0.5479
26074TIP3    H279105   7.886  10.594   6.722 -0.3361 -0.7881 -1.5236
26075TIP3   OH279106   6.154   8.432   7.118  0.5609 -0.0273 -0.2493
26075TIP3    H179107   6.139   8.425   7.212 -1.4366  2.6300 -0.2484
26075TIP3    H279108   6.230   8.376   7.101  0.9438 -0.6229  2.9026
26076TIP3   OH279109   6.759   0.197   9.869  0.2087 -0.3680  0.2720
26076TIP3    H179110   6.795   0.283   9.844 -0.5398  0.0177  0.4927
26076TIP3    H279111   6.685   0.218   9.926 -0.5508 -1.1471 -0.4145
26077TIP3   OH279112   8.697   6.547   8.513 -0.1368 -0.8712  0.1727
26077TIP3    H179113   8.638   6.585   8.448 -0.5687 -1.3226  0.2979
26077TIP3    H279114   8.749   6.622   8.545 -1.2458 -0.2986  0.7027
26078TIP3   OH279115   4.565  10.348  10.695  0.2297  0.3762  0.2363
26078TIP3    H179116   4.509  10.414  10.654  0.9842  1.3820  0.7945
26078TIP3    H279117   4.638  10.397  10.731  0.2230 -0.6151  1.7027
26079TIP3   OH279118   2.382   6.984   8.905 -0.1226  0.2199  0.0281
26079TIP3    H179119   2.391   7.079   8.894  0.9900  0.1322  0.0533
26079TIP3    H279120   2.326   6.957   8.832  1.3404  0.6158 -1.3029
26080TIP3   OH279121   3.454   7.745   6.640  0.6391 -0.4397 -0.0569
26080TIP3    H179122   3.533   7.711   6.597  1.8288  0.1236  1.5834
26080TIP3    H279123   3.436   7.683   6.710  0.4495  0.1501  0.4314
26081TIP3   OH279124   9.382   7.624   3.605 -0.5625  0.1947 -0.2108
26081TIP3    H179125   9.373   7.589   3.694  0.5442 -0.0537 -0.1834
26081TIP3    H279126   9.475   7.645   3.597 -0.9817  2.0350 -0.6476
26082TIP3   OH279127  10.110   0.701   4.454  0.0252  0.0395 -0.4868
26082TIP3    H179128  10.046   0.767   4.480  0.7694  1.2622 -1.6370
26082TIP3    H279129  10.194   0.736   4.484  0.3528 -0.7251 -0.4972
26083TIP3   OH279130   2.197   0.750   9.988 -0.2170  0.7621 -0.4109
26083TIP3    H179131   2.226   0.660   9.974  0.0347  0.2330  2.6421
26083TIP3    H279132   2.271   0.804   9.961  0.0958 -0.0136 -1.1339
26084TIP3   OH279133   1.770  10.553   5.794  0.1251 -0.3382  0.1098
26084TIP3    H179134   1.799  10.541   5.885  0.4600  1.1906  0.2283
26084TIP3    H279135   1.674  10.558   5.800  0.1548 -0.1229  0.3829
26085TIP3   OH279136   4.973   5.498   1.716  0.4992  0.3383  0.2895
26085TIP3    H179137   5.052   5.526   1.670  0.1153  1.9151  0.5289
26085TIP3    H279138   4.979   5.402   1.718  0.8453  0.2298 -2.4529
26086TIP3   OH279139   0.469   5.287   2.806 -0.1671  0.3533  0.1423
26086TIP3    H179140   0.518   5.361   2.769  2.1702 -1.2733 -0.1887
26086TIP3    H279141   0.402   5.268   2.741  0.0616  1.3035 -0.3962
26087TIP3   OH279142   1.342  10.234   8.152  0.3938 -0.2572 -0.3332
26087TIP3    H179143   1.413  10.227   8.088  2.1391  1.7657  1.2383
26087TIP3    H279144   1.353  10.320   8.191 -3.1760  0.2877 -0.1990
26088TIP3   OH279145   0.982  10.907   5.698 -0.2565  0.6791  0.1289
26088TIP3    H179146   1.066  10.867   5.676 -1.0167 -0.7592 -0.2902
26088TIP3    H279147   0.956  10.953   5.618  0.5950  2.0382  0.5958
26089TIP3   OH279148   0.750  10.408   0.711 -0.2770  0.4132  0.3843
26089TIP3    H179149   0.709  10.493   0.696  1.3882  0.9620 -1.3986
26089TIP3    H279150   0.834  10.428   0.751  0.7948 -0.2325 -1.4275
26090TIP3   OH279151   2.837   7.411   4.042 -0.0433 -0.1719  0.0229
26090TIP3    H179152   2.857   7.404   4.135 -1.5125  0.5073  0.4220
26090TIP3    H279153   2.744   7.434   4.039 -0.1442 -0.6440 -1.6264
26091TIP3   OH279154   4.252   0.733   5.092 -0.4882  0.5519  0.3785
26091TIP3    H179155   4.234   0.674   5.165  1.6185  0.6427  1.0393
26091TIP3    H279156   4.178   0.793   5.089 -1.2854 -0.3503  1.5175
26092TIP3   OH279157   9.914   0.049   9.405  0.0099  0.0773  0.1130
26092TIP3    H179158  10.007   0.051   9.381  0.2429  0.7556  0.9913
26092TIP3    H279159   9.908  -0.021   9.470 -0.2049 -0.3462 -0.3612
26093TIP3   OH279160   9.363   0.267   5.500 -0.7359 -0.2161  0.2407
26093TIP3    H179161   9.278   0.306   5.517 -1.6987 -2.7829  2.0408
26093TIP3    H279162   9.344   0.183   5.458  0.9022 -0.7388  0.4383
26094TIP3   OH279163   6.420   1.585   1.453 -0.0378  0.7250  0.3849
26094TIP3    H179164   6.349   1.551   1.507 -0.3173  0.0719 -0.3685
26094TIP3    H279165   6.408   1.680   1.454 -0.5504  0.6595  0.7619
26095TIP3   OH279166   6.148   4.652   7.620 -0.0715  0.0629 -0.0513
26095TIP3    H179167   6.196   4.734   7.632 -0.0134 -0.2359  2.2762
26095TIP3    H279168   6.105   4.661   7.535  0.2709  2.3264 -0.0308
26096TIP3   OH279169   5.859   7.083   6.746 -0.1386  0.0289 -0.0832
26096TIP3    H179170   5.780   7.137   6.752  1.0081  1.8594 -0.4797
26096TIP3    H279171   5.903   7.114   6.667 -0.0133 -2.4202 -1.0570
26097TIP3   OH279172   0.202   2.084   9.285  0.7402  0.3888 -0.7209
26097TIP3    H179173   0.185   2.172   9.251  0.4321  0.1913 -1.0732
26097TIP3    H279174   0.196   2.094   9.380  0.9270  0.7956 -0.7488
26098TIP3   OH279175   1.747   3.969   7.098  0.2302  0.0810  0.5349
26098TIP3    H179176   1.669   3.999   7.144 -0.4726 -2.2850  1.0154
26098TIP3    H279177   1.749   4.021   7.017 -2.0019 -0.0110  0.3713
26099TIP3   OH279178   1.134  10.153   6.820  0.2445 -0.2372 -0.2763
26099TIP3    H179179   1.194  10.134   6.748 -0.0147 -0.7043 -0.3735
26099TIP3    H279180   1.048  10.161   6.778  0.5193  3.0306 -0.5469
26100TIP3   OH279181   6.496   6.849   0.156  0.1982 -0.1963  0.1849
26100TIP3    H179182   6.533   6.912   0.216  0.3451 -0.2975  0.2022
26100TIP3    H279183   6.493   6.894   0.072 -1.3046  0.4276  0.5452
26101TIP3   OH279184   8.098   9.560   9.436 -0.4269  0.2665  0.2753
26101TIP3    H179185   8.159   9.625   9.472  0.3502  0.1711 -0.8302
26101TIP3    H279186   8.120   9.479   9.482  1.0989 -0.0386 -0.9018
26102TIP3   OH279187   9.109   1.073  10.750 -0.1654  0.0764  0.8752
26102TIP3    H179188   9.053   1.004  10.715 -0.0702  0.2021  0.4616
26102TIP3    H279189   9.051   1.127  10.803 -0.1979 -0.4369  1.3611
26103TIP3   OH279190   3.452   7.505   1.789  0.0360  0.5456 -0.2557
26103TIP3    H179191   3.406   7.430   1.750 -1.8844  1.0941  0.7922
26103TIP3    H279192   3.543   7.493   1.763 -0.0385 -2.5858  0.5026
26104TIP3   OH279193   7.992   0.418   8.854 -0.0187 -0.0749  0.1013
26104TIP3    H179194   8.034   0.360   8.917  1.9500 -1.6263 -2.4396
26104TIP3    H279195   8.054   0.490   8.843  0.1770 -0.3577 -0.7694
26105TIP3   OH279196   6.007   9.412   9.820  0.4787  0.4184 -0.0331
26105TIP3    H179197   5.962   9.478   9.767  0.1997  1.5114  1.5059
26105TIP3    H279198   6.044   9.460   9.893  0.8927 -1.0359  0.7667
26106TIP3   OH279199   0.175  10.029   8.949 -0.0507 -0.2850  0.1295
26106TIP3    H179200   0.175   9.944   8.993  1.9601  0.2066  1.2247
26106TIP3    H279201   0.240  10.020   8.880 -1.5111 -0.3138 -1.2938
26107TIP3   OH279202   6.416   9.831   3.178 -0.5291 -0.0851  0.6596
26107TIP3    H179203   6.495   9.784   3.151 -1.2678  0.2272 -2.3905
26107TIP3    H279204   6.405   9.900   3.112 -1.7307  1.8251  2.7105
26108TIP3   OH279205   1.460   5.606   0.058 -0.2770  0.6512  1.0790
26108TIP3    H179206   1.402   5.532   0.076  0.4826 -0.1355  0.3697
26108TIP3    H279207   1.526   5.603   0.126  0.9866 -0.6431 -0.1470
26109TIP3   OH279208   4.708   8.706   4.539 -0.4585  0.2718 -0.0937
26109TIP3    H179209   4.763   8.702   4.461  0.0754 -0.8982  0.3260
26109TIP3    H279210   4.645   8.775   4.520  1.0269  1.5300 -0.6556
26110TIP3   OH279211   7.421   6.529   2.131 -1.0665 -0.8839  0.2771
26110TIP3    H179212   7.407   6.543   2.038 -0.6747 -0.2646  0.3078
26110TIP3    H279213   7.334   6.537   2.170 -0.8899  1.5800  0.3080
26111TIP3   OH279214   1.415   6.697   3.321  0.2926 -0.2849 -0.2349
26111TIP3    H179215   1.460   6.781   3.328 -0.3160  0.3228 -2.8138
26111TIP3    H279216   1.473   6.635   3.366  0.6156  1.4936  1.9872
26112TIP3   OH279217   9.473   9.257   7.611  0.8021  0.4274  0.6721
26112TIP3    H179218   9.452   9.302   7.529  1.6151 -1.3130 -0.5537
26112TIP3    H279219   9.542   9.195   7.587  1.1560 -0.0389  2.7210
26113TIP3   OH279220   4.512   9.486   3.453 -0.1289  0.0768 -0.1457
26113TIP3    H179221   4.604   9.458   3.450 -0.5029 -1.1311 -1.6832
26113TIP3    H279222   4.464   9.407   3.479 -0.9004  0.1990 -1.1377
26114TIP3   OH279223   6.351   6.761   5.824  0.6501 -0.2495 -0.3941
26114TIP3    H179224   6.355   6.732   5.915  2.2806  1.4647  0.1493
26114TIP3    H279225   6.310   6.689   5.777 -0.6433 -0.9961  1.7577
26115TIP3   OH279226   2.093   2.896   7.474 -0.3642 -0.1685 -0.2251
26115TIP3    H179227   2.171   2.911   7.420 -0.7968 -1.0803 -1.1453
26115TIP3    H279228   2.123   2.837   7.543 -0.2108 -0.4260 -0.5089
26116TIP3   OH279229   4.173   1.661   2.828  0.2140  0.0009 -0.3370
26116TIP3    H179230   4.251   1.717   2.834  1.0019 -1.1328  0.6436
26116TIP3    H279231   4.207   1.572   2.840 -1.2868 -0.4837  0.5414
26117TIP3   OH279232  10.328   4.604   3.893 -0.6192 -0.0812  0.3825
26117TIP3    H179233  10.257   4.627   3.834 -0.9373 -2.2328 -0.1480
26117TIP3    H279234  10.393   4.673   3.880 -1.0573 -0.0263 -1.8311
26118TIP3   OH279235   7.604   4.489   7.917  0.0172 -0.3226  0.0288
26118TIP3    H179236   7.509   4.493   7.908 -0.0989 -1.2946  0.6426
26118TIP3    H279237   7.629   4.576   7.949 -0.5220  0.2970 -1.1845
26119TIP3   OH279238  10.587   8.406   9.798 -0.1704  0.4378 -0.4892
26119TIP3    H179239  10.607   8.426   9.889 -0.0503 -1.7520  0.0276
26119TIP3    H279240  10.496   8.433   9.787 -1.0137 -1.5097  1.0645
26120TIP3   OH279241  10.530   9.599   1.668  0.8184 -0.3704  0.0995
26120TIP3    H179242  10.610   9.644   1.696  0.5720  0.1377 -0.0064
26120TIP3    H279243  10.509   9.637   1.583 -0.9152  1.3441  1.1956
26121TIP3   OH279244   7.714   6.667   2.309 -0.0301  0.2920 -0.4274
26121TIP3    H179245   7.643   6.660   2.245  0.3849 -2.1424 -0.7208
26121TIP3    H279246   7.674   6.640   2.392  0.3077 -0.2022 -0.4184
26122TIP3   OH279247   8.090   7.036   2.931 -0.1872 -0.0726  0.1643
26122TIP3    H179248   8.078   6.992   3.015 -0.7235  1.3002  0.8397
26122TIP3    H279249   8.039   7.117   2.938  1.3659  1.0498 -0.7174
26123TIP3   OH279250   4.960   0.524   3.069  0.3283  0.3586 -0.3949
26123TIP3    H179251   4.944   0.610   3.030  3.1602  1.7133  1.1361
26123TIP3    H279252   5.035   0.537   3.127  0.2376 -2.9476  0.6875
26124TIP3   OH279253   6.279   4.675   2.823 -0.2318  0.4007 -0.0917
26124TIP3    H179254   6.305   4.767   2.825 -0.3324  0.4323  1.8081
26124TIP3    H279255   6.211   4.668   2.890  1.0002 -1.3963  1.0660
26125TIP3   OH279256   5.997   0.334   0.284  0.7269  0.2010 -0.0431
26125TIP3    H179257   5.928   0.394   0.255  1.1236  0.0522 -1.3451
26125TIP3    H279258   5.956   0.283   0.354 -0.4190  0.2819 -0.6262
26126TIP3   OH279259   3.708   3.033   9.476 -0.2417  0.1442  0.1849
26126TIP3    H179260   3.723   3.127   9.469 -1.4340  0.3144 -0.3092
26126TIP3    H279261   3.619   3.020   9.442 -0.2590 -1.1000  0.6478
26127TIP3   OH279262   7.153   4.584   2.299  0.0866  0.3339  0.5442
26127TIP3    H179263   7.181   4.585   2.207 -1.0741 -0.3484  0.1541
26127TIP3    H279264   7.151   4.492   2.323 -0.2489  0.4661  1.0482
26128TIP3   OH279265   0.132   9.450   5.643 -0.0642 -0.4335 -0.4694
26128TIP3    H179266   0.123   9.520   5.578 -1.9070  0.6342  0.8347
26128TIP3    H279267   0.215   9.407   5.620  0.4159  1.2438 -2.1983
26129TIP3   OH279268   4.009   7.592  10.722  0.4598 -0.3621 -0.0649
26129TIP3    H179269   3.944   7.640  10.772  1.4292  0.2238  0.6652
26129TIP3    H279270   4.020   7.643  10.642  0.8684  0.1862  0.3315
26130TIP3   OH279271   5.718   8.707   8.467 -0.0077  0.4406 -0.7243
26130TIP3    H179272   5.700   8.622   8.426  1.2524 -0.3994  0.4127
26130TIP3    H279273   5.807   8.728   8.441 -0.3819  1.5406 -1.1705
26131TIP3   OH279274   4.353   8.729   9.445 -0.2742  0.5153 -0.8350
26131TIP3    H179275   4.355   8.657   9.508 -0.7671  1.2826  0.0773
26131TIP3    H279276   4.407   8.797   9.485 -1.2805  1.3342 -0.8293
26132TIP3   OH279277   4.269   4.963   8.311  0.0772  0.4250  0.5498
26132TIP3    H179278   4.238   4.983   8.399  1.8656  1.2465  1.0489
26132TIP3    H279279   4.319   4.882   8.320  0.0628  0.3778  0.2301
26133TIP3   OH279280   2.889   4.919   4.159  0.3997  0.5597  0.5210
26133TIP3    H179281   2.897   4.995   4.216  1.2411  0.6504  0.2970
26133TIP3    H279282   2.843   4.951   4.082  0.5690  0.7954  0.5161
26134TIP3   OH279283   1.077   6.936   4.099 -0.7196 -0.3036 -0.1886
26134TIP3    H179284   1.128   6.859   4.128 -1.3484 -0.7657 -0.2907
26134TIP3    H279285   1.065   6.922   4.005 -0.2319  0.2825 -0.3414
26135TIP3   OH279286   6.365   7.900   6.882  0.3099 -0.1561  0.7748
26135TIP3    H179287   6.354   7.814   6.842 -0.3817  0.3829 -0.2293
26135TIP3    H279288   6.384   7.958   6.809  0.0341  0.6740  1.3511
26136TIP3   OH279289   4.039   9.701  10.807  0.0182  0.6857 -0.0196
26136TIP3    H179290   4.044   9.633  10.740  0.8229  1.7178 -1.0577
26136TIP3    H279291   4.012   9.655  10.886 -2.1143 -0.3887 -1.2859
26137TIP3   OH279292   7.706   6.594   1.489 -0.2874 -0.0971 -1.0538
26137TIP3    H179293   7.680   6.537   1.417 -0.7942 -1.4840  0.1959
26137TIP3    H279294   7.739   6.535   1.557 -0.6161  1.0916  0.1896
26138TIP3   OH279295   9.599   6.816  10.240  0.6986 -0.2137  0.0681
26138TIP3    H179296   9.529   6.772  10.288  0.0364  0.2652 -0.4463
26138TIP3    H279297   9.679   6.780  10.277  0.1818 -1.5851 -0.1002
26139TIP3   OH279298   6.651   0.425   1.264 -0.4506 -0.6522 -0.3440
26139TIP3    H179299   6.697   0.448   1.345 -1.6501 -1.3342  0.5568
26139TIP3    H279300   6.714   0.370   1.216  0.1930 -0.4135  0.2088
26140TIP3   OH279301  10.783   0.242   2.198  0.0482  0.2497  0.4413
26140TIP3    H179302  10.829   0.236   2.114 -2.3502 -2.1497 -0.8502
26140TIP3    H279303  10.733   0.323   2.193  1.9057  1.4835  0.7530
26141TIP3   OH279304   9.932   3.539   0.952 -0.0850 -0.3895 -0.4463
26141TIP3    H179305   9.853   3.567   0.997 -0.0883 -1.4934  0.2520
26141TIP3    H279306   9.997   3.527   1.021  0.4660 -0.2680 -0.9306
26142TIP3   OH279307   7.620   1.413   3.019  0.1956  0.4260 -0.4404
26142TIP3    H179308   7.604   1.477   3.088 -2.1952 -2.2321  1.7145
26142TIP3    H279309   7.536   1.406   2.973  0.6055 -0.6955 -1.0512
26143TIP3   OH279310  10.689   9.058   2.348 -0.2112 -0.3343  0.3146
26143TIP3    H179311  10.676   9.125   2.415  1.7284 -1.1597  1.5776
26143TIP3    H279312  10.634   8.985   2.376 -0.3989 -0.1981  0.3027
26144TIP3   OH279313   8.339   2.672   8.506  0.3041 -0.5783 -0.1654
26144TIP3    H179314   8.370   2.757   8.475 -1.7370 -0.0094 -0.7758
26144TIP3    H279315   8.244   2.681   8.511  0.0008 -2.9003 -0.4956
26145TIP3   OH279316   2.326   7.778  10.764 -0.2381  0.1074  0.3382
26145TIP3    H179317   2.306   7.751  10.854  1.2044  0.2311  0.7171
26145TIP3    H279318   2.421   7.765  10.756 -0.4038 -0.2232 -1.2809
26146TIP3   OH279319   2.328   7.485   6.582 -0.5398  0.3590  0.3382
26146TIP3    H179320   2.361   7.541   6.653  0.0062 -0.8661  1.1047
26146TIP3    H279321   2.372   7.401   6.597 -1.1200 -0.1890 -0.9335
26147TIP3   OH279322   2.041   3.805   8.543  0.3769  0.8694  0.2501
26147TIP3    H179323   2.041   3.757   8.626 -0.4100 -0.6337 -0.5872
26147TIP3    H279324   1.949   3.829   8.529  0.6019  1.6881  0.1183
26148TIP3   OH279325   4.195   3.943   0.612  0.4412  0.6495 -0.2688
26148TIP3    H179326   4.209   3.867   0.669 -2.9273  1.0916  1.4181
26148TIP3    H279327   4.133   3.912   0.546  1.1285  1.2640 -1.2322
26149TIP3   OH279328   5.295   1.106   1.664  0.1980  0.6070  0.2250
26149TIP3    H179329   5.296   1.188   1.614  1.6334  0.1759 -0.5160
26149TIP3    H279330   5.204   1.096   1.692 -0.5441  1.2090 -1.7727
26150TIP3   OH279331   3.887   2.887  10.554  0.0595  0.1006  0.2212
26150TIP3    H179332   3.802   2.850  10.530 -0.2103  0.3579  0.7666
26150TIP3    H279333   3.944   2.865  10.480 -1.1406  2.2857 -1.4929
26151TIP3   OH279334   2.561   1.060   1.488  0.2605 -0.4141 -0.6406
26151TIP3    H179335   2.484   1.066   1.544  0.0419 -0.9292 -0.8803
26151TIP3    H279336   2.604   1.146   1.497  1.5817 -1.2421  2.2070
26152TIP3   OH279337   8.326   4.428   5.499 -0.0784 -0.5354  0.0637
26152TIP3    H179338   8.395   4.432   5.433  0.2492  0.1011  0.4456
26152TIP3    H279339   8.347   4.350   5.551 -1.4741 -2.2744 -1.8130
26153TIP3   OH279340   3.827   5.269   6.307  0.6098  0.6393 -0.0706
26153TIP3    H179341   3.869   5.347   6.272 -0.0730  0.1915 -2.0703
26153TIP3    H279342   3.738   5.296   6.327  0.8074  0.7308  0.6912
26154TIP3   OH279343   7.935   2.298   5.015 -0.0138 -0.3887 -0.4596
26154TIP3    H179344   7.947   2.378   4.964  0.8122 -1.5511 -2.2271
26154TIP3    H279345   7.886   2.325   5.092 -0.3988  1.6782 -1.3593
26155TIP3   OH279346   8.082   8.379   1.577  0.1979 -0.7387 -0.1587
26155TIP3    H179347   8.006   8.434   1.556 -0.0233 -2.2094 -3.9912
26155TIP3    H279348   8.044   8.304   1.624 -0.6062 -0.9435 -1.0895
26156TIP3   OH279349   9.153   4.843   7.090 -0.0007  0.1868 -0.1687
26156TIP3    H179350   9.201   4.764   7.065  1.8693  0.1839  2.9063
26156TIP3    H279351   9.207   4.915   7.057  0.1019  0.1677 -0.0450
26157TIP3   OH279352   3.701   1.277   6.217 -0.3044 -0.3103 -0.3476
26157TIP3    H179353   3.730   1.314   6.300  0.1376 -1.4231  0.0239
26157TIP3    H279354   3.714   1.182   6.228 -1.8085 -0.6260 -1.0705
26158TIP3   OH279355   9.112   1.693   7.237  0.1207 -0.3562 -0.0268
26158TIP3    H179356   9.179   1.748   7.277 -0.8311  1.9031 -1.3458
26158TIP3    H279357   9.030   1.719   7.280 -0.2453 -1.4174 -0.0487
26159TIP3   OH279358   9.251  10.016   1.249  0.2066 -0.2364 -0.0235
26159TIP3    H179359   9.323   9.958   1.275  0.6755  0.6102  0.6013
26159TIP3    H279360   9.219   9.979   1.166 -0.6042 -2.3680  1.1433
26160TIP3   OH279361   6.562   4.921  10.722 -0.2672 -0.5465 -0.4494
26160TIP3    H179362   6.592   4.985  10.656  0.2873  0.2095  0.5073
26160TIP3    H279363   6.577   4.836  10.680  0.6223 -0.1028 -1.0950
26161TIP3   OH279364  10.897   0.333   3.942  0.3523 -0.1975  0.0911
26161TIP3    H179365  10.820   0.276   3.942 -0.2779  0.6250  1.0238
26161TIP3    H279366  10.969   0.276   3.916 -0.6775 -0.8313 -1.5475
26162TIP3   OH279367   1.857   0.268   8.451  0.3188 -0.5553  0.2746
26162TIP3    H179368   1.854   0.363   8.452  0.9032 -0.4422 -2.3641
26162TIP3    H279369   1.950   0.247   8.446  0.1214 -1.1755 -1.1420
26163TIP3   OH279370   8.486   5.307   4.698  0.4452 -0.5814 -0.3529
26163TIP3    H179371   8.437   5.309   4.616  0.2730  3.2875 -0.3294
26163TIP3    H279372   8.533   5.224   4.695 -3.4109 -3.0003 -1.9190
26164TIP3   OH279373   3.936   5.578   0.263 -0.2183 -0.0501 -0.0855
26164TIP3    H179374   3.942   5.510   0.196 -0.0776 -0.5391  0.4103
26164TIP3    H279375   3.854   5.624   0.243  0.0741  0.1433 -0.8897
26165TIP3   OH279376   2.240   8.933   5.247 -0.0143 -0.4723 -0.3020
26165TIP3    H179377   2.277   8.923   5.335  0.5092  1.8849 -0.1676
26165TIP3    H279378   2.197   9.019   5.249  1.8051  0.6374 -2.8793
26166TIP3   OH279379   4.647   0.119  10.523 -0.1397  0.6997  0.2868
26166TIP3    H179380   4.584   0.065  10.476 -0.3855  0.4875  0.8520
26166TIP3    H279381   4.690   0.059  10.584  1.1493  0.6832 -0.6088
26167TIP3   OH279382   4.018   4.134   6.824 -1.1228 -0.4182  0.4562
26167TIP3    H179383   4.089   4.166   6.880 -0.8665  2.4128 -1.2687
26167TIP3    H279384   4.049   4.049   6.791 -0.3582 -1.1137  2.7847
26168TIP3   OH279385   1.821   1.412   1.568  0.2386 -0.0570 -0.2104
26168TIP3    H179386   1.748   1.361   1.603  1.3546 -1.6322 -0.0751
26168TIP3    H279387   1.813   1.497   1.611 -0.1399 -0.9753  1.6684
26169TIP3   OH279388   1.266   7.845   8.220 -0.1212  0.4599  0.2897
26169TIP3    H179389   1.200   7.865   8.286  0.3979 -2.5933  1.9397
26169TIP3    H279390   1.339   7.904   8.240  0.5906 -1.2737  3.5376
26170TIP3   OH279391  10.653   0.097   7.680  0.0560  0.1009  0.1648
26170TIP3    H179392  10.592   0.134   7.616  0.5899 -0.2422 -0.5649
26170TIP3    H279393  10.740   0.125   7.648  0.3168  0.0497  0.8245
26171TIP3   OH279394   1.014   1.483  10.605 -0.4059  0.0903  0.3234
26171TIP3    H179395   0.925   1.512  10.584 -1.7628 -1.3144  3.5385
26171TIP3    H279396   1.011   1.388  10.591  0.1224 -0.1593  1.8219
26172TIP3   OH279397   9.364   0.484   3.068  0.0894 -0.0608 -0.0251
26172TIP3    H179398   9.453   0.501   3.101  0.5613 -1.0280 -0.7414
26172TIP3    H279399   9.319   0.445   3.142 -0.1953  1.6871  0.7883
26173TIP3   OH279400   8.799  10.121   0.322  0.0045 -1.0040  0.0660
26173TIP3    H179401   8.833  10.054   0.381  0.3677 -0.1419  0.8553
26173TIP3    H279402   8.875  10.148   0.271  0.7323  1.3194  2.2110
26174TIP3   OH279403   5.215   6.155   8.135 -0.1537 -0.2723  0.0150
26174TIP3    H179404   5.178   6.209   8.065  1.5674 -0.5393 -1.1395
26174TIP3    H279405   5.309   6.156   8.120  0.2174 -0.8401  1.9872
26175TIP3   OH279406   4.074   3.809  10.246 -0.3678 -0.5199 -0.0569
26175TIP3    H179407   4.031   3.778  10.326 -2.9718  1.2847 -0.6117
26175TIP3    H279408   4.021   3.885  10.219  3.3599  2.0692 -0.7878
26176TIP3   OH279409   7.478   0.399   6.580  0.1890  0.1825 -0.3870
26176TIP3    H179410   7.526   0.317   6.566 -1.7019 -0.8514 -1.1201
26176TIP3    H279411   7.491   0.448   6.499  1.3697  0.6658  0.0741
26177TIP3   OH279412   8.294   5.149   6.166 -0.2590 -0.0869  0.0282
26177TIP3    H179413   8.251   5.158   6.081  1.8312  1.1728 -0.9508
26177TIP3    H279414   8.332   5.061   6.164 -0.3704 -0.1302 -0.2625
26178TIP3   OH279415   3.711   2.608   4.771 -0.0680  0.0277  0.6016
26178TIP3    H179416   3.691   2.700   4.756  0.4541  0.1085  0.3874
26178TIP3    H279417   3.663   2.585   4.851 -0.8161  0.2770  0.2387
26179TIP3   OH279418  10.212   4.930  10.787  0.1049 -0.9510 -0.2780
26179TIP3    H179419  10.182   4.965  10.871  0.5493  2.1134 -1.2454
26179TIP3    H279420  10.164   4.848  10.776 -0.2193 -1.2687  2.7569
26180TIP3   OH279421   7.944   9.560   9.216  0.0110  0.3710 -0.3738
26180TIP3    H179422   7.973   9.562   9.307  1.7178 -0.9832 -0.8240
26180TIP3    H279423   8.019   9.595   9.167  1.4859 -3.9634 -1.6686
26181TIP3   OH279424   0.616   2.730   2.096  0.1853 -0.0244 -0.3918
26181TIP3    H179425   0.606   2.815   2.140 -1.6311 -0.1674 -0.4881
26181TIP3    H279426   0.591   2.747   2.005  0.6089 -0.4920 -0.5992
26182TIP3   OH279427   1.192   3.734  10.835  0.4059  0.1567 -0.3592
26182TIP3    H179428   1.198   3.756  10.742  0.4626  1.9551  0.0421
26182TIP3    H279429   1.171   3.817  10.878 -2.1731 -1.0724  0.9904
26183TIP3   OH279430  10.304   4.293   7.650  0.1172  0.8651 -0.0146
26183TIP3    H179431  10.277   4.337   7.730 -1.0077 -1.7211  1.1301
26183TIP3    H279432  10.399   4.282   7.658 -0.0127  0.4785  1.0580
26184TIP3   OH279433   5.209   9.370   8.065 -0.5055  0.1772 -0.3820
26184TIP3    H179434   5.277   9.372   8.132 -0.3034  0.1392 -0.5869
26184TIP3    H279435   5.128   9.388   8.113 -0.2950  0.6852 -0.2150
26185TIP3   OH279436   6.810   7.337   3.181 -0.3077  0.4144 -0.5810
26185TIP3    H179437   6.801   7.272   3.112 -0.4544  1.8938 -2.0108
26185TIP3    H279438   6.723   7.342   3.222 -0.9778  1.3842 -2.0526
26186TIP3   OH279439   2.634   6.034   6.330  0.7204  0.4828  0.4551
26186TIP3    H179440   2.720   5.993   6.329  1.2600  1.5161  1.4762
26186TIP3    H279441   2.586   5.989   6.400  0.7547  0.5166  0.5006
26187TIP3   OH279442   4.847   1.841   3.006 -0.1278 -0.0537 -0.1080
26187TIP3    H179443   4.788   1.781   3.052 -0.3792  1.7764  2.1334
26187TIP3    H279444   4.896   1.885   3.076  0.3553  2.0247 -1.6495
26188TIP3   OH279445   4.644   8.797   2.119 -0.1197  0.7384  0.3415
26188TIP3    H179446   4.560   8.837   2.098  0.4775  2.2231  0.6590
26188TIP3    H279447   4.708   8.847   2.070  0.5413 -0.8662 -0.5103
26189TIP3   OH279448   1.872   6.258   9.235 -0.1431  0.0360  0.0531
26189TIP3    H179449   1.788   6.247   9.190 -0.7721  1.4991  0.7803
26189TIP3    H279450   1.886   6.175   9.281 -1.4392 -0.0750  0.2852
26190TIP3   OH279451  10.269   2.707   3.168  0.2620  0.0789 -0.0416
26190TIP3    H179452  10.332   2.635   3.174  1.1857  0.8489 -0.3908
26190TIP3    H279453  10.211   2.694   3.243  0.3903 -1.0507 -0.1206
26191TIP3   OH279454   1.778   0.497   8.891  1.1325  0.3997 -0.6975
26191TIP3    H179455   1.872   0.496   8.911  0.9633 -0.7242  0.1534
26191TIP3    H279456   1.763   0.415   8.844  0.1188 -0.8480  1.6346
26192TIP3   OH279457   5.699   5.225   3.082 -0.3071 -0.3144  0.8136
26192TIP3    H179458   5.679   5.169   3.157  0.6277  0.7987  1.9417
26192TIP3    H279459   5.780   5.270   3.107  0.4897 -0.5149 -1.2069
26193TIP3   OH279460   3.119   4.908   6.944 -0.2434  0.1559 -0.0524
26193TIP3    H179461   3.140   4.840   7.008 -1.6197 -1.2022 -0.9918
26193TIP3    H279462   3.115   4.862   6.861 -1.7878  1.2704 -0.6300
26194TIP3   OH279463   9.858  10.399   8.012 -0.8171  0.2517  0.2278
26194TIP3    H179464   9.764  10.418   8.010 -0.8441  0.5752  2.1409
26194TIP3    H279465   9.900  10.485   8.004 -0.6749  0.1113 -0.5924
26195TIP3   OH279466   4.869   8.063   0.131 -0.0424  0.0999  0.5170
26195TIP3    H179467   4.962   8.072   0.112  0.1928 -1.8065  0.5429
26195TIP3    H279468   4.828   8.047   0.046 -0.5669  2.0922  0.3400
26196TIP3   OH279469   0.201   3.926   6.492  0.0987 -0.0310  0.6773
26196TIP3    H179470   0.128   3.987   6.480 -1.6220 -2.2252 -0.7851
26196TIP3    H279471   0.279   3.981   6.487 -1.3946  2.3675  1.9548
26197TIP3   OH279472   4.932   3.213  10.127  0.0121 -0.1661  0.2176
26197TIP3    H179473   4.922   3.227  10.033  0.5660  1.7852  0.4035
26197TIP3    H279474   4.921   3.118  10.139 -2.4999 -0.1859 -1.4807
26198TIP3   OH279475   1.917   8.408   5.213  0.3139  0.1516  0.9631
26198TIP3    H179476   1.990   8.369   5.165  0.5691 -0.1527  1.5746
26198TIP3    H279477   1.908   8.496   5.176 -1.7544 -1.1663 -2.0403
26199TIP3   OH279478   6.658  10.418   4.966 -0.2419  0.5459 -0.2658
26199TIP3    H179479   6.693  10.391   4.881 -0.8568 -2.1405  0.2585
26199TIP3    H279480   6.626  10.507   4.951  2.1902  1.2358 -2.0787
26200TIP3   OH279481   1.662   2.283   3.223  0.2428 -0.5209 -0.2741
26200TIP3    H179482   1.635   2.200   3.261 -0.4339 -0.6237 -0.9488
26200TIP3    H279483   1.668   2.266   3.129  1.0638 -0.0556 -0.3214
26201TIP3   OH279484   0.204   6.602   3.793  0.1575  0.6673 -0.3208
26201TIP3    H179485   0.207   6.696   3.774  1.2253  0.8655  0.7179
26201TIP3    H279486   0.136   6.592   3.860  0.4093  0.7750 -0.0486
26202TIP3   OH279487   3.176   4.583   6.519  0.1127  0.2995 -0.9812
26202TIP3    H179488   3.268   4.569   6.498  0.3637  1.2644 -0.5697
26202TIP3    H279489   3.132   4.504   6.488  1.0069  0.0402 -1.6182
26203TIP3   OH279490   3.762   1.957   8.150  0.1250  0.5032 -0.3593
26203TIP3    H179491   3.787   2.047   8.172 -0.6043  0.8049 -0.7642
26203TIP3    H279492   3.702   1.931   8.219  1.2776 -0.1239  0.4487
26204TIP3   OH279493   7.063   0.364   4.278 -0.4832  0.2139 -0.3146
26204TIP3    H179494   6.968   0.351   4.280 -0.3807 -0.4901  0.6539
26204TIP3    H279495   7.078   0.433   4.342 -0.3896  0.7279 -0.8829
26205TIP3   OH279496   4.427   2.296   6.397 -0.5722  0.3689  0.2147
26205TIP3    H179497   4.460   2.384   6.381 -0.9144  0.4673  0.0231
26205TIP3    H279498   4.505   2.243   6.414 -0.4924  1.3935  3.9963
26206TIP3   OH279499   5.326   8.026   8.987 -0.3680  0.0674 -0.1893
26206TIP3    H179500   5.316   7.997   8.897  0.3951  2.2675 -1.0653
26206TIP3    H279501   5.359   8.116   8.979  2.5112 -0.6264  2.2979
26207TIP3   OH279502   2.022  10.159  10.336 -0.2167  0.2942  0.1501
26207TIP3    H179503   2.086  10.120  10.396 -0.0173  1.5617  0.7904
26207TIP3    H279504   2.073  10.184  10.259 -0.1465  0.3319  0.2092
26208TIP3   OH279505  10.284   3.234   6.235  0.0073  0.2800  1.0458
26208TIP3    H179506  10.311   3.206   6.147 -2.8819 -2.0712  0.7395
26208TIP3    H279507  10.330   3.174   6.294  0.5342  0.6483  1.0115
26209TIP3   OH279508   5.124   8.377   6.890 -0.0066 -0.0836 -0.1204
26209TIP3    H179509   5.203   8.431   6.890 -0.0726  0.0130 -0.6721
26209TIP3    H279510   5.065   8.420   6.829 -0.1386 -0.6614 -0.4099
26210TIP3   OH279511   0.269   5.876   7.936 -0.2086 -0.0958  0.4504
26210TIP3    H179512   0.247   5.920   7.854 -2.2575 -1.6374  0.0928
26210TIP3    H279513   0.184   5.847   7.971  0.6646 -0.0888  2.7919
26211TIP3   OH279514   3.682   0.355   9.983 -0.3306 -0.3154  0.4249
26211TIP3    H179515   3.724   0.435   9.950 -2.9857  1.0565  0.0907
26211TIP3    H279516   3.707   0.287   9.920 -0.8932  1.0646 -1.3695
26212TIP3   OH279517   5.034   5.271   4.426  0.4002  0.0154 -0.1927
26212TIP3    H179518   5.118   5.238   4.395  0.6185  1.0670 -0.7731
26212TIP3    H279519   5.043   5.274   4.521 -0.0315 -2.5878 -0.0091
26213TIP3   OH279520   2.492   4.130   9.201  0.0083 -0.2050 -0.1419
26213TIP3    H179521   2.467   4.199   9.263 -1.5221 -0.9473  0.1188
26213TIP3    H279522   2.562   4.169   9.150  1.0853  0.5608  1.8076
26214TIP3   OH279523   5.782   8.508   4.524  0.1437  0.3976 -0.0672
26214TIP3    H179524   5.737   8.591   4.511 -1.5749 -0.1045  1.9172
26214TIP3    H279525   5.772   8.490   4.618  1.3745 -1.5355 -0.2382
26215TIP3   OH279526   2.857   6.121  10.535  0.0919  0.7184 -0.4264
26215TIP3    H179527   2.934   6.115  10.591  1.1068  2.6289 -1.4893
26215TIP3    H279528   2.842   6.032  10.504 -0.6377 -0.4723  2.9271
26216TIP3   OH279529   2.837   3.580   5.227 -0.7504  0.4072  0.1532
26216TIP3    H179530   2.924   3.608   5.255 -0.8471  0.0780  0.8019
26216TIP3    H279531   2.834   3.600   5.134  0.7855 -1.4434 -0.3630
26217TIP3   OH279532   3.505   1.148   3.992 -0.1989 -0.3702 -0.2118
26217TIP3    H179533   3.473   1.085   3.927 -2.5042  0.6566 -0.1653
26217TIP3    H279534   3.448   1.134   4.068  0.2698  0.7238  0.3554
26218TIP3   OH279535   8.777   6.307   9.184  0.3941 -0.5925 -0.2292
26218TIP3    H179536   8.789   6.213   9.196  2.3228 -0.3489  0.1791
26218TIP3    H279537   8.855   6.346   9.224 -0.7853  1.2431  0.4089
26219TIP3   OH279538   9.214   2.641   7.130 -1.0019  0.0685  0.6283
26219TIP3    H179539   9.162   2.677   7.202 -2.6218  1.6892 -1.2221
26219TIP3    H279540   9.218   2.547   7.147 -1.7276  0.3381  2.5514
26220TIP3   OH279541   2.450   5.000   1.546 -0.1749  0.1274 -0.2199
26220TIP3    H179542   2.409   4.915   1.563  0.1199 -0.5687 -2.6856
26220TIP3    H279543   2.544   4.984   1.558 -0.2666  0.8066  1.8087
26221TIP3   OH279544   5.943   5.336   2.792  0.1548  0.4197  0.0240
26221TIP3    H179545   5.977   5.260   2.838 -1.5335  0.1952  0.9996
26221TIP3    H279546   5.860   5.306   2.753 -1.4786  2.1317  1.9297
26222TIP3   OH279547   7.001   0.968   3.995 -0.0090 -0.2310  0.0893
26222TIP3    H179548   7.082   0.964   4.046  0.4792  1.6924 -0.4439
26222TIP3    H279549   7.017   1.036   3.930 -1.9790  0.0644 -0.1589
26223TIP3   OH279550   9.722   9.531   9.178  0.0189 -0.4413  0.0256
26223TIP3    H179551   9.707   9.530   9.273 -4.4089  0.1142 -0.4957
26223TIP3    H279552   9.783   9.604   9.165 -2.0890  1.9114  2.2229
26224TIP3   OH279553   0.205   6.721  10.107  0.5204  0.0728  0.1205
26224TIP3    H179554   0.173   6.719  10.197  0.9203 -2.0479  0.2646
26224TIP3    H279555   0.160   6.796  10.067 -0.7760  0.1725  1.6586
26225TIP3   OH279556   0.240   3.623   3.349 -0.6449  0.4464  0.0005
26225TIP3    H179557   0.316   3.574   3.381  0.2104 -0.9169 -3.6501
26225TIP3    H279558   0.165   3.568   3.372 -0.4641  0.9332  2.0166
26226TIP3   OH279559   3.234   1.135   6.514 -0.2974 -0.1731  0.5515
26226TIP3    H179560   3.166   1.072   6.489 -1.5586  1.2745  0.1921
26226TIP3    H279561   3.265   1.171   6.432  2.1763 -1.9874  0.5750
26227TIP3   OH279562   9.522   8.556  10.202  0.0965 -0.1818  0.7861
26227TIP3    H179563   9.471   8.539  10.281 -1.1528  1.4323  0.3955
26227TIP3    H279564   9.456   8.582  10.137  1.3874  1.8257  0.2048
26228TIP3   OH279565   8.115   9.431   5.672 -0.2754 -0.1060 -0.5143
26228TIP3    H179566   8.110   9.421   5.577  0.7996  0.0548 -0.5962
26228TIP3    H279567   8.173   9.361   5.701  0.1161  0.3794 -0.0901
26229TIP3   OH279568   2.495   0.356   2.661 -0.3175 -0.2995 -0.5719
26229TIP3    H179569   2.447   0.274   2.648 -1.6428  0.6038 -1.7563
26229TIP3    H279570   2.459   0.391   2.743 -2.3157  0.6981 -1.7840
26230TIP3   OH279571   2.739   2.568   0.295 -0.3988  0.1824  0.0875
26230TIP3    H179572   2.736   2.662   0.275 -1.1730 -0.0084 -0.7451
26230TIP3    H279573   2.822   2.556   0.341  0.6981  0.9179 -1.6017
26231TIP3   OH279574   5.019   4.191   5.344  0.2523 -0.1476 -0.1765
26231TIP3    H179575   5.053   4.136   5.415  0.4632 -0.2420 -0.3466
26231TIP3    H279576   5.064   4.274   5.355 -1.7180  0.7843  1.4452
26232TIP3   OH279577   1.102   7.907   1.704 -0.2980  0.1017  0.3030
26232TIP3    H179578   1.195   7.885   1.714  0.0642  0.5446 -1.7315
26232TIP3    H279579   1.060   7.868   1.781  1.4808 -0.5960  0.9732
26233TIP3   OH279580   4.645   6.657   9.470 -0.1614 -0.5982  0.1576
26233TIP3    H179581   4.697   6.736   9.482  0.8251 -1.1868 -0.1239
26233TIP3    H279582   4.677   6.597   9.538 -1.9955 -0.2487  1.4193
26234TIP3   OH279583   7.563   6.023   6.121 -0.3875  0.4268  0.0879
26234TIP3    H179584   7.578   6.102   6.171 -1.2374  0.3189  0.5417
26234TIP3    H279585   7.650   5.990   6.099  0.2354 -1.3407  4.3484
26235TIP3   OH279586   3.226   5.250   4.623 -0.2218 -0.1584  0.3826
26235TIP3    H179587   3.131   5.253   4.634 -0.4546 -1.4810 -0.9920
26235TIP3    H279588   3.251   5.163   4.652  0.1971 -0.7545 -1.5963
26236TIP3   OH279589   5.217  10.585   1.905  0.6935 -0.2357 -0.1376
26236TIP3    H179590   5.172  10.501   1.899 -0.8807  0.4465  1.0902
26236TIP3    H279591   5.226  10.614   1.814 -1.3111 -0.4665 -0.4510
26237TIP3   OH279592   0.306   9.655   9.830  0.2121  0.1245 -0.6058
26237TIP3    H179593   0.370   9.584   9.821  0.4714  0.5179 -2.3502
26237TIP3    H279594   0.221   9.612   9.827  0.3838 -0.2035 -0.7761
26238TIP3   OH279595   7.828   2.178   5.811  0.2859 -0.3854  0.2682
26238TIP3    H179596   7.748   2.133   5.839 -1.0479  2.1564  0.7902
26238TIP3    H279597   7.802   2.227   5.733  1.7493 -0.6602 -0.4253
26239TIP3   OH279598   6.497   3.554   1.819  0.2969 -0.1605  0.0921
26239TIP3    H179599   6.548   3.509   1.887 -0.4403 -0.0264  0.7494
26239TIP3    H279600   6.425   3.595   1.867  0.4706  0.9972 -0.6093
26240TIP3   OH279601   8.068   0.905   9.184  0.1291  0.4792 -0.3376
26240TIP3    H179602   8.097   0.971   9.246  0.4847 -0.2978  0.3397
26240TIP3    H279603   8.148   0.867   9.149 -0.0711  0.0284 -0.3136
26241TIP3   OH279604   4.405   1.129   0.020  0.0630  0.1593 -0.7564
26241TIP3    H179605   4.361   1.164   0.097 -0.0484 -0.3959 -0.5619
26241TIP3    H279606   4.340   1.071  -0.020 -0.8299  2.3746 -2.7113
26242TIP3   OH279607   2.747   5.986   2.496  0.0881 -0.0946  0.2261
26242TIP3    H179608   2.771   6.072   2.462 -0.4428 -0.3982 -0.9665
26242TIP3    H279609   2.827   5.934   2.490  0.4029  0.3029  0.9283
26243TIP3   OH279610   4.136   6.538   7.561 -0.5675  0.2315  0.1430
26243TIP3    H179611   4.068   6.580   7.613 -0.4138  0.4297  0.1875
26243TIP3    H279612   4.217   6.555   7.609 -0.3328  1.0134 -0.5102
26244TIP3   OH279613   5.296   4.905   9.471  0.2419 -0.4850  0.4718
26244TIP3    H179614   5.249   4.825   9.448  1.4141 -0.9127 -0.5203
26244TIP3    H279615   5.378   4.875   9.510  1.0139  0.1941 -0.5582
26245TIP3   OH279616   4.273   6.070   1.308 -0.5430 -0.1314  0.5082
26245TIP3    H179617   4.186   6.044   1.280 -0.1514 -0.3413 -0.5460
26245TIP3    H279618   4.269   6.166   1.314 -0.0925  0.1432 -2.3234
26246TIP3   OH279619   3.778   9.722   4.174  0.5590 -0.3430  0.7038
26246TIP3    H179620   3.806   9.645   4.125  1.9216  1.5903 -1.7624
26246TIP3    H279621   3.684   9.708   4.189  0.1792 -1.2712 -2.0878
26247TIP3   OH279622   9.798   4.350   0.147 -0.2542  0.2665  0.3305
26247TIP3    H179623   9.774   4.258   0.163 -1.5407  0.6708  0.8916
26247TIP3    H279624   9.761   4.370   0.061 -1.1790  0.6390  0.8061
26248TIP3   OH279625   0.762   5.387   8.918 -0.1215  0.7557  0.1051
26248TIP3    H179626   0.716   5.465   8.949 -0.8824  0.1748  0.4615
26248TIP3    H279627   0.700   5.344   8.859  0.2654  0.3721 -0.0306
26249TIP3   OH279628   5.498   6.367   1.852  0.2306 -0.4502 -0.3733
26249TIP3    H179629   5.418   6.330   1.891 -0.2669  2.1943  1.4134
26249TIP3    H279630   5.550   6.291   1.827 -3.3705 -2.3495 -2.9286
26250TIP3   OH279631   6.967  10.073   5.791  0.0216 -0.1170 -0.6690
26250TIP3    H179632   6.982   9.986   5.754 -0.4001 -0.1855 -0.6806
26250TIP3    H279633   6.982  10.062   5.885  1.2332  0.0866 -0.8203
26251TIP3   OH279634   2.093   7.157   6.653  0.0378  0.0949  0.5923
26251TIP3    H179635   2.081   7.065   6.679  1.3042  0.2760  1.9732
26251TIP3    H279636   2.155   7.153   6.580  1.2816 -0.1078  1.6124
26252TIP3   OH279637   0.446   0.415   7.349 -0.1119  0.2000  0.1583
26252TIP3    H179638   0.506   0.439   7.278 -0.8279 -0.3320 -0.6546
26252TIP3    H279639   0.430   0.322   7.336 -0.1785  0.0762  1.0925
26253TIP3   OH279640   6.274   5.547   3.471  0.0287  0.0664  0.5229
26253TIP3    H179641   6.186   5.573   3.499  0.5178  1.8959  0.4959
26253TIP3    H279642   6.290   5.598   3.391  0.7476 -0.9840 -0.0313
26254TIP3   OH279643   7.057   1.754   2.679  0.0019 -0.3235 -0.4077
26254TIP3    H179644   7.080   1.838   2.718  1.7292 -0.5717 -0.7798
26254TIP3    H279645   7.030   1.776   2.589 -2.5075  0.0913  0.3741
26255TIP3   OH279646   3.992  10.406   2.957 -0.3125 -0.5404 -0.4386
26255TIP3    H179647   4.057  10.378   3.021 -0.5306  0.6692  0.3491
26255TIP3    H279648   3.951  10.483   2.996 -1.2407 -0.4391 -1.5439
26256TIP3   OH279649   7.814   1.967   6.135 -0.0718  0.0331  0.5198
26256TIP3    H179650   7.868   2.045   6.133 -1.4299  0.9932 -0.0371
26256TIP3    H279651   7.726   1.997   6.110 -0.9024 -1.4483  1.4707
26257TIP3   OH279652   5.146   4.021   2.778  0.4696  0.0241 -0.0947
26257TIP3    H179653   5.163   3.932   2.810  1.6656  0.2797  0.0261
26257TIP3    H279654   5.067   4.048   2.823 -0.2830 -1.2114 -0.6117
26258TIP3   OH279655  10.134  10.835  10.549  0.5511  0.1867  0.3257
26258TIP3    H179656  10.102  10.912  10.503  2.6548  0.1039 -1.4408
26258TIP3    H279657  10.185  10.870  10.622 -0.6012  0.3750  1.0613
26259TIP3   OH279658   3.941   9.097  10.056 -0.3124 -0.3125  0.1052
26259TIP3    H179659   3.952   9.005  10.034  1.1907  0.4412 -2.8133
26259TIP3    H279660   3.850   9.116  10.035 -0.3024 -0.8753 -0.4851
26260TIP3   OH279661   2.369   8.850   1.234  0.1076 -0.2112 -0.3189
26260TIP3    H179662   2.417   8.769   1.253 -0.5824 -0.4437  0.4673
26260TIP3    H279663   2.356   8.891   1.320 -1.4924 -0.3794 -0.4580
26261TIP3   OH279664   9.078   8.050   1.195 -0.1124  0.1515  0.0017
26261TIP3    H179665   9.101   8.035   1.103 -0.6481 -0.6506 -0.0149
26261TIP3    H279666   8.984   8.031   1.199 -0.0273 -0.1091  0.7759
26262TIP3   OH279667   2.122   5.989   2.026 -0.0593 -0.2347  0.3032
26262TIP3    H179668   2.217   5.988   2.039 -0.0511 -0.5640  0.2245
26262TIP3    H279669   2.104   5.915   1.968 -0.4190 -0.4756  0.7122
26263TIP3   OH279670   0.229   6.869   5.374  0.0399 -0.0639  0.0045
26263TIP3    H179671   0.148   6.909   5.404 -0.4048 -1.1715  0.3361
26263TIP3    H279672   0.297   6.934   5.394 -0.6157  0.4007  0.7856
26264TIP3   OH279673   4.711  10.328   4.345 -0.4544  0.1532  0.2727
26264TIP3    H179674   4.728  10.378   4.265 -0.7273 -0.6157 -0.2732
26264TIP3    H279675   4.720  10.237   4.319  0.1945 -0.0945  1.2997
26265TIP3   OH279676   1.668   2.727   7.342  0.9361 -0.3107 -0.5246
26265TIP3    H179677   1.607   2.700   7.410  0.7392  1.3978  0.0131
26265TIP3    H279678   1.705   2.645   7.309 -1.7912 -1.4286 -1.0301
26266TIP3   OH279679   6.991   5.501   5.856 -0.2312  0.2211  0.1325
26266TIP3    H179680   7.040   5.550   5.922 -0.3977  1.6103 -0.7473
26266TIP3    H279681   7.042   5.422   5.842  0.1547  0.2205  1.4263
26267TIP3   OH279682   5.806   6.184   6.777 -0.4067  0.4121  0.2984
26267TIP3    H179683   5.879   6.123   6.763 -0.5225  0.0282  1.2971
26267TIP3    H279684   5.835   6.266   6.738  0.5250  0.2359  0.6017
26268TIP3   OH279685   5.910   5.611   1.214 -0.6115 -0.5723  0.1604
26268TIP3    H179686   5.967   5.613   1.138  0.8917 -0.8536  1.2340
26268TIP3    H279687   5.961   5.565   1.281 -1.8346 -0.2245  1.3780
26269TIP3   OH279688   3.056   8.195   3.237 -0.1278 -0.1483 -0.2046
26269TIP3    H179689   3.057   8.114   3.288  2.0583 -0.2353 -0.2760
26269TIP3    H279690   3.037   8.263   3.302 -1.7849 -0.6668 -0.1099
26270TIP3   OH279691   7.411   9.870   9.006 -0.2616 -0.0149  0.3436
26270TIP3    H179692   7.343   9.816   8.964 -0.3857  0.4951 -0.1260
26270TIP3    H279693   7.421   9.833   9.093 -2.5644  1.1256  1.1582
26271TIP3   OH279694   5.770   0.042   0.895 -0.3981  0.4283 -0.3018
26271TIP3    H179695   5.820   0.098   0.955  0.4642  1.1668 -1.6390
26271TIP3    H279696   5.785  -0.047   0.927  0.5877  0.7552  0.1878
26272TIP3   OH279697   0.956   4.628   7.317  0.8973  0.7169  0.4030
26272TIP3    H179698   0.886   4.592   7.372  0.7800  0.5297  0.1312
26272TIP3    H279699   1.036   4.594   7.356  0.7378 -0.9100 -0.5997
26273TIP3   OH279700   7.470   8.617   3.752 -0.4504 -0.5620  0.7701
26273TIP3    H179701   7.379   8.629   3.724  0.2365 -1.3387 -2.1011
26273TIP3    H279702   7.521   8.672   3.693  1.0440 -0.9908  1.6135
26274TIP3   OH279703   7.242   5.349   8.534  0.5831  0.8349 -0.0239
26274TIP3    H179704   7.156   5.323   8.565  0.6680  1.8222  1.1214
26274TIP3    H279705   7.303   5.291   8.579  0.7232  2.4133  1.9802
26275TIP3   OH279706   5.562   2.319   7.486  0.6765 -0.5582 -0.4935
26275TIP3    H179707   5.478   2.334   7.442 -0.7131 -3.8982  0.6444
26275TIP3    H279708   5.600   2.406   7.497 -3.4822  1.3733  0.4801
26276TIP3   OH279709   2.563   3.501   6.322 -0.5085 -0.0840  0.0879
26276TIP3    H179710   2.548   3.407   6.333  3.9034 -0.9733  0.3666
26276TIP3    H279711   2.592   3.510   6.231  1.1304  0.5804  0.6352
26277TIP3   OH279712   5.609   2.925   5.414  0.1897  0.5187  0.0525
26277TIP3    H179713   5.591   2.979   5.337  2.7742  2.6696  0.7911
26277TIP3    H279714   5.611   2.988   5.487 -2.1367 -1.4250  1.9753
26278TIP3   OH279715  10.749   9.832   9.023  0.1036  0.4431 -0.1892
26278TIP3    H179716  10.788   9.760   8.973 -0.0461  2.1366 -3.0112
26278TIP3    H279717  10.771   9.813   9.114  1.2370 -2.4114 -0.9419
26279TIP3   OH279718   5.427   5.619   1.136 -0.4209  0.1142  0.1686
26279TIP3    H179719   5.494   5.601   1.070 -0.3185 -1.6732  0.7027
26279TIP3    H279720   5.455   5.701   1.177  0.6010  0.1923 -0.6436
26280TIP3   OH279721   9.336   7.821   3.338  0.3805  0.2222 -0.2986
26280TIP3    H179722   9.366   7.827   3.247  1.6851  0.5529  0.1239
26280TIP3    H279723   9.272   7.892   3.347 -1.0372 -0.8626 -1.3840
26281TIP3   OH279724   4.640   0.961   5.789 -0.4463  0.1088  0.5824
26281TIP3    H179725   4.625   0.880   5.838 -0.4938 -1.0701 -1.2588
26281TIP3    H279726   4.554   1.001   5.783 -0.7748 -0.6488 -0.0055
26282TIP3   OH279727   7.519   7.775   7.112  0.6350 -0.2267  0.2754
26282TIP3    H179728   7.575   7.791   7.187  1.4750 -1.3645 -0.0936
26282TIP3    H279729   7.452   7.715   7.143  1.3920 -1.2553 -0.0508
26283TIP3   OH279730   3.399   8.986   4.553  0.8338 -0.1198  0.3417
26283TIP3    H179731   3.377   8.973   4.645 -0.4281 -2.5044 -0.1839
26283TIP3    H279732   3.472   8.927   4.537  2.1076  1.4550  0.1256
26284TIP3   OH279733   8.595   0.954   5.052 -0.1752  0.0599  0.2062
26284TIP3    H179734   8.642   0.871   5.039 -1.9856 -0.8098 -1.1773
26284TIP3    H279735   8.511   0.941   5.010 -0.0157  3.1249 -1.3130
26285TIP3   OH279736   8.940   0.857  10.893  0.0347  0.0738 -0.1241
26285TIP3    H179737   8.880   0.924  10.861  0.4836  0.0973 -0.9366
26285TIP3    H279738   8.896   0.774  10.873 -0.3450  0.1101  0.5326
26286TIP3   OH279739   9.611   8.625   0.732  0.2494  0.3270 -0.1157
26286TIP3    H179740   9.625   8.560   0.663 -0.4050  0.6647 -0.5802
26286TIP3    H279741   9.574   8.575   0.805  0.0261  0.1240 -0.3636
26287TIP3   OH279742   6.363  10.006   2.972 -0.0707  0.0884  0.0037
26287TIP3    H179743   6.386  10.015   2.879 -0.4996 -2.0232 -0.3416
26287TIP3    H279744   6.368  10.096   3.006  2.5050  0.6173 -1.4651
26288TIP3   OH279745   3.424   1.291   4.927  0.1282  0.4850 -0.1319
26288TIP3    H179746   3.366   1.219   4.953  2.1754 -0.7739  1.2248
26288TIP3    H279747   3.412   1.299   4.833 -1.3952 -0.4834 -0.0498
26289TIP3   OH279748   7.565   3.209   7.000 -0.5516  0.1134 -0.0898
26289TIP3    H179749   7.543   3.131   7.051  0.4700 -0.9606 -1.2111
26289TIP3    H279750   7.659   3.222   7.014  0.1909 -1.2829 -2.9561
26290TIP3   OH279751   3.118   3.586   3.735  0.3739  0.1224 -0.3068
26290TIP3    H179752   3.199   3.620   3.775  0.1444 -0.8749  1.0894
26290TIP3    H279753   3.048   3.617   3.792 -0.2054  0.5729 -1.2380
26291TIP3   OH279754  10.267   3.822   7.971  0.4430 -0.2853 -0.0301
26291TIP3    H179755  10.173   3.837   7.958  0.7637  2.1540  0.0374
26291TIP3    H279756  10.283   3.849   8.062  1.0490 -1.7323  0.3217
26292TIP3   OH279757   6.917   8.158   0.154  0.1688 -0.0282  0.8746
26292TIP3    H179758   6.937   8.120   0.240  0.3152  2.7163  2.1806
26292TIP3    H279759   6.993   8.213   0.134  1.1938 -2.3123 -2.2006
26293TIP3   OH279760   7.253   6.249   0.413  0.3915  0.8915  0.3003
26293TIP3    H179761   7.239   6.321   0.351  1.6128  2.9003  2.2022
26293TIP3    H279762   7.225   6.285   0.498 -2.2280 -2.0801  0.9102
26294TIP3   OH279763   5.735   0.765   7.880  0.5784 -0.5971 -0.8324
26294TIP3    H179764   5.643   0.778   7.901  1.1737  2.0605  0.5427
26294TIP3    H279765   5.734   0.725   7.793 -1.8447 -1.2366 -0.5895
26295TIP3   OH279766   5.963   3.443   0.446  0.4414 -0.1652  0.5005
26295TIP3    H179767   5.934   3.530   0.419  1.5187  0.0955  0.1078
26295TIP3    H279768   6.048   3.432   0.404 -0.6130 -2.3045 -1.2837
26296TIP3   OH279769   5.832   0.467   3.859 -0.0091  0.3151  0.2789
26296TIP3    H179770   5.776   0.412   3.914  0.9172 -0.5653  0.3818
26296TIP3    H279771   5.819   0.433   3.770  0.5051 -0.0394  0.3325
26297TIP3   OH279772  10.565   5.802   3.356 -0.0611 -0.0572 -0.0778
26297TIP3    H179773  10.473   5.820   3.375 -0.4944 -0.0176 -1.9785
26297TIP3    H279774  10.574   5.708   3.371 -0.0728  0.1439  1.3013
26298TIP3   OH279775   2.590   1.625   9.206  0.3258 -0.8734  0.3781
26298TIP3    H179776   2.558   1.548   9.253 -1.4535  0.4567  1.5169
26298TIP3    H279777   2.528   1.637   9.134  0.7282 -0.6624  0.0661
26299TIP3   OH279778   3.189   1.684   8.222 -0.2797 -0.0629 -0.7356
26299TIP3    H179779   3.145   1.769   8.220 -3.1959 -1.4056  0.3391
26299TIP3    H279780   3.158   1.644   8.303  1.6816 -1.8741 -0.7991
26300TIP3   OH279781   0.911   0.123   1.453  0.3744  0.0788 -0.4277
26300TIP3    H179782   0.928   0.080   1.369 -0.7608 -1.1942 -0.0542
26300TIP3    H279783   0.928   0.055   1.518  0.5812  0.8501  0.3470
26301TIP3   OH279784   7.223   6.866   3.214  0.6973  0.3873 -0.0536
26301TIP3    H179785   7.179   6.913   3.143  0.3096  1.3386  0.7890
26301TIP3    H279786   7.183   6.900   3.294  0.9894 -0.8019  0.6256
26302TIP3   OH279787   8.783   8.277   0.811  0.4131 -0.6139  0.5298
26302TIP3    H179788   8.698   8.287   0.767  0.2071 -2.5693  0.3839
26302TIP3    H279789   8.764   8.220   0.886  1.4554 -0.4060  0.9628
26303TIP3   OH279790   5.894   4.236   9.198 -0.1931  0.7861 -0.2154
26303TIP3    H179791   5.863   4.206   9.112 -0.1816 -2.7944  0.8630
26303TIP3    H279792   5.818   4.228   9.255  0.7474 -0.8644  0.8864
26304TIP3   OH279793   8.588   8.057   3.979  0.0528  0.2757 -0.0118
26304TIP3    H179794   8.675   8.091   3.996  0.1358 -0.2091  0.5678
26304TIP3    H279795   8.595   7.963   3.995 -0.7199  0.3174  0.6891
26305TIP3   OH279796   8.966   9.066   1.271 -0.3895 -0.1685  0.0725
26305TIP3    H179797   8.966   9.119   1.191  1.1660  0.0405  0.1738
26305TIP3    H279798   8.877   9.030   1.276 -0.7416  0.4198 -1.3372
26306TIP3   OH279799   2.859   6.151   8.888 -0.3059  0.5026  0.2118
26306TIP3    H179800   2.769   6.159   8.918 -0.6868 -0.2761 -0.6719
26306TIP3    H279801   2.905   6.106   8.959 -1.1935 -1.3204 -0.3144
26307TIP3   OH279802   5.072   7.732   0.859 -0.0384  0.0105 -0.0076
26307TIP3    H179803   5.083   7.640   0.882 -1.2637 -0.0935  0.2076
26307TIP3    H279804   5.161   7.767   0.860  0.4065 -1.0796  0.2778
26308TIP3   OH279805   5.982   0.032   2.922 -0.4697 -0.1070  0.6602
26308TIP3    H179806   6.062   0.017   2.973 -0.8401 -1.3188  0.9134
26308TIP3    H279807   5.987  -0.031   2.851 -0.4422  0.9019 -0.2519
26309TIP3   OH279808   0.126   7.313  10.019 -0.5737 -0.3359  0.5957
26309TIP3    H179809   0.042   7.274  10.042 -1.1780 -0.9572 -2.2812
26309TIP3    H279810   0.148   7.275   9.934  2.4988  0.0585  1.0848
26310TIP3   OH279811   3.976   8.831  10.016 -0.0562  0.5030 -0.4238
26310TIP3    H179812   3.984   8.795  10.105  2.0228  1.7196 -0.0369
26310TIP3    H279813   4.034   8.776   9.963 -0.6230  0.3130 -0.8471
26311TIP3   OH279814   3.529   8.534   9.614  0.2574 -0.1246 -0.4884
26311TIP3    H179815   3.579   8.511   9.692 -1.4769  0.6451  0.9043
26311TIP3    H279816   3.559   8.622   9.592  0.3727 -0.1364 -0.3807
26312TIP3   OH279817   0.197  10.184   4.874 -0.1475  0.8960  0.0771
26312TIP3    H179818   0.179  10.231   4.955 -0.4722 -1.2054  1.2990
26312TIP3    H279819   0.269  10.232   4.833 -1.6651  3.5059  0.2627
26313TIP3   OH279820   0.978   3.630  10.429 -0.1179 -0.1673  0.6495
26313TIP3    H179821   0.996   3.718  10.460  0.3216 -0.3905  1.0543
26313TIP3    H279822   1.064   3.587  10.430 -0.3683 -0.6756  0.7128
26314TIP3   OH279823   1.906   1.517   4.733 -0.3029  0.2150 -0.4932
26314TIP3    H179824   1.907   1.540   4.826  0.2332 -0.8318 -0.2260
26314TIP3    H279825   1.824   1.554   4.700 -1.1705 -0.5613  0.7074
26315TIP3   OH279826  10.116   7.574   6.265  0.1149 -0.2200  0.4769
26315TIP3    H179827  10.210   7.590   6.255 -0.3449  1.9448 -1.3857
26315TIP3    H279828  10.086   7.558   6.176 -1.7609  2.6973  0.4537
26316TIP3   OH279829   7.650   4.928   3.577 -0.2404  0.5187 -0.2225
26316TIP3    H179830   7.733   4.972   3.595 -0.0844  0.3542 -0.5276
26316TIP3    H279831   7.673   4.836   3.567 -0.3044  0.6042 -1.3059
26317TIP3   OH279832   7.607   6.603  10.652  0.8061 -0.0500 -0.2908
26317TIP3    H179833   7.580   6.527  10.601 -1.1168  0.9844 -0.8998
26317TIP3    H279834   7.698   6.585  10.675  0.8786 -1.8095 -1.7436
26318TIP3   OH279835   0.866   7.832   8.716  0.1163  0.2525  0.1923
26318TIP3    H179836   0.856   7.747   8.758 -1.0488 -0.4224 -1.3618
26318TIP3    H279837   0.949   7.865   8.749  0.6101 -1.4935  0.8116
26319TIP3   OH279838   5.259   9.991   4.031  0.1760 -0.3902  0.0301
26319TIP3    H179839   5.334  10.014   3.975 -1.6994 -0.3928 -2.6583
26319TIP3    H279840   5.287   9.911   4.076  2.2459  0.3297  0.1687
26320TIP3   OH279841  10.344   9.674   1.034 -0.0139  0.2250  0.7588
26320TIP3    H179842  10.386   9.651   0.951 -0.3542 -0.0085  0.6454
26320TIP3    H279843  10.250   9.676   1.013 -0.0130  1.4512  0.8414
26321TIP3   OH279844   9.803   2.727   7.173  0.4375 -0.1720  0.0050
26321TIP3    H179845   9.896   2.745   7.187  0.9586 -1.3616 -1.6898
26321TIP3    H279846   9.777   2.679   7.252  1.2386  0.1799  0.5054
26322TIP3   OH279847   6.478   8.100   2.334  0.0479  0.2589  0.3618
26322TIP3    H179848   6.556   8.132   2.287  0.5696 -0.7521  0.5115
26322TIP3    H279849   6.511   8.032   2.393 -0.9792 -0.3536  0.2640
26323TIP3   OH279850   4.053   5.627   4.798 -0.0180  0.5949  0.3475
26323TIP3    H179851   4.121   5.633   4.731  0.6043  1.4922  1.0347
26323TIP3    H279852   3.977   5.671   4.759 -0.5039 -1.1153 -0.7360
26324TIP3   OH279853   6.828   0.397   1.736 -0.0843  0.4589  0.1147
26324TIP3    H179854   6.849   0.339   1.809 -1.7712  0.5341  0.6931
26324TIP3    H279855   6.900   0.460   1.734  1.4726 -1.2428 -0.1419
26325TIP3   OH279856   8.652   9.559   3.990 -0.6555 -0.4294  0.6347
26325TIP3    H179857   8.625   9.581   3.901  1.0566  0.3740  0.2797
26325TIP3    H279858   8.597   9.613   4.046 -0.2301  0.7336 -0.0373
26326TIP3   OH279859   9.444   1.233   0.931 -0.1303  0.7131  0.7585
26326TIP3    H179860   9.411   1.215   0.843  1.2448  1.9892 -0.0563
26326TIP3    H279861   9.447   1.147   0.973 -1.5555  0.1772 -0.1374
26327TIP3   OH279862   3.120   9.712   4.941 -0.7629 -0.0460 -0.2132
26327TIP3    H179863   3.082   9.633   4.903 -2.6193  1.3418 -1.3739
26327TIP3    H279864   3.162   9.757   4.868  1.4399 -0.4910  0.6630
26328TIP3   OH279865   1.010   5.409   7.523  0.1122 -0.5451 -0.5320
26328TIP3    H179866   0.917   5.424   7.511  0.2576 -0.0142 -0.9899
26328TIP3    H279867   1.015   5.349   7.598 -0.6459 -1.4899 -1.2069
26329TIP3   OH279868   0.712   9.011   4.305 -0.3267  0.1811  0.2583
26329TIP3    H179869   0.693   9.007   4.399  0.4925 -0.3562  0.4126
26329TIP3    H279870   0.670   8.933   4.269 -2.0955  1.2485 -0.1234
26330TIP3   OH279871   8.408   0.927   6.136  0.1586 -0.1972  0.3879
26330TIP3    H179872   8.457   0.928   6.218  1.3793 -0.5830 -0.3122
26330TIP3    H279873   8.349   0.852   6.144  1.1047 -0.9552  0.4515
26331TIP3   OH279874   0.340   2.906   2.366  0.4974 -0.0483 -0.1179
26331TIP3    H179875   0.396   2.976   2.397 -0.5862  0.5237  0.6098
26331TIP3    H279876   0.357   2.901   2.272  3.6535 -1.6316  0.3719
26332TIP3   OH279877   9.933   7.890   6.356  0.2172  0.1099  0.6783
26332TIP3    H179878   9.996   7.870   6.425 -1.5092 -0.9960  1.9760
26332TIP3    H279879   9.910   7.805   6.319  0.9993  0.6622 -1.2370
26333TIP3   OH279880   7.941   3.676   8.226  0.0838  0.2767 -0.2802
26333TIP3    H179881   7.993   3.727   8.164 -0.6177  2.1323  0.5665
26333TIP3    H279882   7.858   3.660   8.181 -0.3159  1.3685  0.0445
26334TIP3   OH279883   0.169  10.051   3.235 -0.0438  0.5304  0.9019
26334TIP3    H179884   0.118  10.069   3.156  0.3046 -0.2250  0.4878
26334TIP3    H279885   0.145   9.962   3.259 -0.7689  1.0342  2.1517
26335TIP3   OH279886   9.110   8.104   6.287  0.1238 -0.7128  0.0820
26335TIP3    H179887   9.066   8.034   6.239  0.0303 -0.9190  0.4612
26335TIP3    H279888   9.189   8.063   6.322  0.7082 -0.2986 -0.7423
26336TIP3   OH279889   6.975   1.402   9.788 -0.2862 -0.0040 -0.1498
26336TIP3    H179890   6.904   1.465   9.785 -0.5674 -0.1856  1.4930
26336TIP3    H279891   6.932   1.318   9.806  0.2491 -0.2681 -0.0734
26337TIP3   OH279892   9.101   1.027  10.331  0.2489  0.9274  0.3333
26337TIP3    H179893   9.010   1.045  10.304  0.0411  0.2645  0.5705
26337TIP3    H279894   9.143   1.113  10.330  0.2009  0.9862 -1.9113
26338TIP3   OH279895   4.815   2.580   3.849  0.3767 -0.7235 -0.0208
26338TIP3    H179896   4.866   2.620   3.778 -0.6625 -0.0852 -0.4319
26338TIP3    H279897   4.724   2.591   3.822  0.0182 -2.3135  0.4500
26339TIP3   OH279898   0.822   4.566   9.699 -0.3860  0.4059  0.3525
26339TIP3    H179899   0.917   4.572   9.709 -0.5711  1.2065  2.2085
26339TIP3    H279900   0.808   4.543   9.608  1.5907  0.2105  0.0581
26340TIP3   OH279901   3.549   9.361   4.819 -0.0146 -0.2881  0.1245
26340TIP3    H179902   3.573   9.282   4.771  1.5348  0.2766 -0.0906
26340TIP3    H279903   3.462   9.384   4.785 -0.2945 -1.6300 -0.1233
26341TIP3   OH279904   6.686   3.505   8.131  0.0031 -0.4242  0.0568
26341TIP3    H179905   6.688   3.464   8.217 -0.1614  2.5714  1.6016
26341TIP3    H279906   6.594   3.522   8.114 -0.0037 -1.3195 -0.9282
26342TIP3   OH279907   7.228   3.484   3.655 -0.1076  0.2946  0.1347
26342TIP3    H179908   7.315   3.451   3.631  0.0152  0.3493  0.4996
26342TIP3    H279909   7.172   3.459   3.582  0.1979  0.1779 -0.0604
26343TIP3   OH279910   7.005   0.716   3.817 -0.7196  0.1716 -0.4737
26343TIP3    H179911   7.011   0.803   3.858 -0.2082  0.9435 -2.1167
26343TIP3    H279912   6.979   0.658   3.889 -0.5076  1.5742  0.7915
26344TIP3   OH279913   7.325   6.435   8.781  0.3368  0.4303 -0.7573
26344TIP3    H179914   7.349   6.446   8.873  1.9214  0.3031 -1.1235
26344TIP3    H279915   7.252   6.373   8.782  0.3910  0.3648  0.4043
26345TIP3   OH279916   8.280   5.683   8.283  0.4474  0.0499 -0.3935
26345TIP3    H179917   8.348   5.682   8.351 -0.8848  1.6858  1.0818
26345TIP3    H279918   8.210   5.629   8.319 -1.0252  2.3786  0.5001
26346TIP3   OH279919   3.955   4.164   2.092 -0.1485  0.3307 -0.1915
26346TIP3    H179920   3.884   4.159   2.156  0.3193  0.8405  0.3901
26346TIP3    H279921   3.921   4.217   2.021  0.0461  1.6487  0.6555
26347TIP3   OH279922   1.386   8.629   7.511  0.4594 -0.0380 -0.2339
26347TIP3    H179923   1.355   8.652   7.423 -2.9203  0.3236  0.9000
26347TIP3    H279924   1.387   8.533   7.511 -1.7053 -0.1088 -0.0957
26348TIP3   OH279925  10.870   0.500  10.336  0.0199 -0.0735  0.0011
26348TIP3    H179926  10.804   0.557  10.296  1.0372  1.3500  0.2687
26348TIP3    H279927  10.920   0.466  10.262 -0.7050 -0.7753 -0.1729
26349TIP3   OH279928   2.209   1.542  10.468  0.8357  0.2110 -0.0137
26349TIP3    H179929   2.248   1.609  10.523  2.8914 -0.1338 -0.9534
26349TIP3    H279930   2.272   1.470  10.470  0.6058 -0.1080 -2.1895
26350TIP3   OH279931  10.150   1.912   1.327 -0.1386 -0.1192  0.0238
26350TIP3    H179932  10.144   1.820   1.354 -2.3586 -0.2146 -0.5728
26350TIP3    H279933  10.217   1.912   1.258  0.7466 -1.0377  0.8428
26351TIP3   OH279934   7.784   4.017   0.044 -0.1806  0.1776 -0.0092
26351TIP3    H179935   7.804   4.056   0.129  0.6452 -0.6367  0.1919
26351TIP3    H279936   7.839   4.064  -0.018  0.0919 -0.0123  0.0873
26352TIP3   OH279937   1.571  10.902   0.877 -0.4506  0.1711 -0.3092
26352TIP3    H179938   1.651  10.951   0.859 -0.4973  0.7795  1.0192
26352TIP3    H279939   1.601  10.815   0.901 -0.0971  0.6735  1.1546
26353TIP3   OH279940   8.476   2.987   6.172  0.4540 -0.2185 -0.1115
26353TIP3    H179941   8.386   2.965   6.146  0.8750 -0.1166 -1.7610
26353TIP3    H279942   8.477   3.083   6.174 -0.0257 -0.2062  2.0888
26354TIP3   OH279943   9.649   1.562   5.796  0.3944  0.5234  0.4949
26354TIP3    H179944   9.692   1.633   5.844  1.6965 -0.2978  0.6066
26354TIP3    H279945   9.634   1.495   5.862  0.7781  0.0076  0.0669
26355TIP3   OH279946   4.751   0.539   5.136  0.4672  0.2642 -0.0607
26355TIP3    H179947   4.769   0.628   5.105 -1.8479  1.1062  0.7664
26355TIP3    H279948   4.656   0.537   5.147  0.7313 -1.3770  2.7348
26356TIP3   OH279949   2.175  10.238   1.986 -0.3208  0.3375 -0.0626
26356TIP3    H179950   2.219  10.321   2.005  0.2655  0.0978 -0.3572
26356TIP3    H279951   2.100  10.262   1.932  0.7983  0.5161 -1.6020
26357TIP3   OH279952   9.098   3.593   5.631 -0.0427  0.5039  0.0879
26357TIP3    H179953   9.124   3.665   5.573 -1.1345  1.0019  0.1931
26357TIP3    H279954   9.008   3.573   5.605 -0.8052  1.2000  2.0489
26358TIP3   OH279955   6.891   1.127   9.785 -0.6720  0.4840 -0.1791
26358TIP3    H179956   6.923   1.062   9.722  0.1887 -0.0053  0.7376
26358TIP3    H279957   6.948   1.117   9.861 -0.5966  2.2449  0.0322
26359TIP3   OH279958   1.915  10.152   4.966  0.2731  0.5110  0.6530
26359TIP3    H179959   1.890  10.139   4.874 -0.0143  1.7094  0.5367
26359TIP3    H279960   1.964  10.074   4.989 -1.7563 -0.9580  0.2380
26360TIP3   OH279961   2.672   9.852  10.049  0.1373  0.2489  0.1203
26360TIP3    H179962   2.644   9.771  10.092  0.7410 -0.1118 -0.1503
26360TIP3    H279963   2.605   9.916  10.073 -0.7698 -0.5198 -0.2942
26361TIP3   OH279964   6.337  10.615   1.379 -0.4865 -0.4232 -0.0191
26361TIP3    H179965   6.364  10.689   1.324  1.4643 -0.9142  0.2209
26361TIP3    H279966   6.398  10.545   1.358 -0.3435 -0.9730  2.0143
26362TIP3   OH279967   9.917   4.052   8.378 -0.0376  0.2999 -0.3815
26362TIP3    H179968   9.838   3.998   8.374 -0.2941  0.2672  2.4794
26362TIP3    H279969   9.888   4.139   8.350 -0.9328  0.1085 -0.0938
26363TIP3   OH279970   9.361   3.212   4.417  0.1449  0.2375 -0.1835
26363TIP3    H179971   9.379   3.293   4.465  1.9106 -0.0795 -0.2210
26363TIP3    H279972   9.420   3.215   4.342 -0.7918 -0.4366 -0.9768
26364TIP3   OH279973   7.484   8.916   9.670  0.8245  0.0574  0.4557
26364TIP3    H179974   7.557   8.894   9.728  1.5617  1.5654  0.1509
26364TIP3    H279975   7.474   9.011   9.678 -0.5557 -0.0091 -0.1629
26365TIP3   OH279976   7.665   6.379  10.146  0.2745 -0.4890  0.0054
26365TIP3    H179977   7.664   6.441  10.073  0.3038 -1.4844 -0.8626
26365TIP3    H279978   7.576   6.343  10.149 -0.0618  0.3768  1.2137
26366TIP3   OH279979   6.097   0.559  10.830 -0.0187 -0.0368 -0.1623
26366TIP3    H179980   6.058   0.590  10.748 -0.8060 -1.1856 -0.2427
26366TIP3    H279981   6.082   0.465  10.830  2.1214 -0.4295  0.1875
26367TIP3   OH279982   4.187   2.120   9.833 -0.2904 -0.7906 -0.0269
26367TIP3    H179983   4.257   2.114   9.768 -1.1085 -2.4408 -0.8094
26367TIP3    H279984   4.123   2.181   9.794 -0.0854 -0.6009 -0.0703
26368TIP3   OH279985   0.196   5.926   6.789  0.1386 -0.4405  0.0345
26368TIP3    H179986   0.197   5.857   6.856  3.1246 -0.4275  0.1259
26368TIP3    H279987   0.238   5.886   6.714 -3.1163 -0.4420 -1.9895
26369TIP3   OH279988   0.631   2.117   1.043  0.2426  0.4965  0.2174
26369TIP3    H179989   0.604   2.051   1.107  0.5884 -0.0956 -0.2264
26369TIP3    H279990   0.623   2.072   0.958  0.4193  1.0489 -0.0974
26370TIP3   OH279991   7.430   4.977   8.502 -0.1180 -0.1671 -0.9216
26370TIP3    H179992   7.379   5.007   8.428 -2.1908 -1.1049  0.0351
26370TIP3    H279993   7.372   4.917   8.549  1.6046 -0.7018  0.6920
26371TIP3   OH279994   2.226   0.174   9.963  0.0879  0.6851 -0.0526
26371TIP3    H179995   2.161   0.178  10.033 -0.4611  1.3339 -0.5740
26371TIP3    H279996   2.183   0.219   9.889  1.1115  1.0836 -0.4203
26372TIP3   OH279997   7.573   4.915   1.093 -0.0576 -1.0872  0.5854
26372TIP3    H179998   7.567   4.964   1.174 -1.9168  1.4653 -0.9552
26372TIP3    H279999   7.507   4.846   1.100 -2.1359  0.7788  0.2882
26373TIP3   OH280000   0.914   4.218  10.808 -0.4470 -0.4228  0.0741
26373TIP3    H180001   0.884   4.252  10.724  1.3920 -0.2775 -0.5792
26373TIP3    H280002   0.867   4.270  10.873 -2.1458 -0.7558 -0.8255
26374TIP3   OH280003   0.415   8.611   7.147 -0.0452  0.2249  0.7368
26374TIP3    H180004   0.455   8.629   7.232  3.5625  1.1606 -0.9706
26374TIP3    H280005   0.368   8.691   7.125 -0.0700  0.3853  1.3610
26375TIP3   OH280006   5.009   3.547   7.199  0.2899 -0.1509 -0.3287
26375TIP3    H180007   5.102   3.566   7.187  0.4275 -0.5861  0.0451
26375TIP3    H280008   5.007   3.466   7.250 -0.2901 -0.9542 -1.5768
26376TIP3   OH280009   1.992   5.008   4.454 -0.4155  0.4582  0.1540
26376TIP3    H180010   1.912   5.052   4.426 -1.4254 -1.0981  0.5414
26376TIP3    H280011   1.986   4.920   4.419  2.1893  0.9089 -1.7078
26377TIP3   OH280012  10.118   1.009   9.808 -0.6626 -0.2897 -0.4445
26377TIP3    H180013  10.168   1.091   9.810 -0.5250 -0.3332 -1.3915
26377TIP3    H280014  10.166   0.955   9.745  0.4228 -1.8797  1.6467
26378TIP3   OH280015   5.023   6.378   1.762 -0.4602  0.3345  0.7718
26378TIP3    H180016   5.006   6.452   1.819  0.9113  0.9444  0.4240
26378TIP3    H280017   5.019   6.302   1.819  0.8505  0.9294  1.6953
26379TIP3   OH280018   4.557   7.660  10.021  0.1107 -0.8103  0.2397
26379TIP3    H180019   4.484   7.714   9.993 -0.5920 -1.1297  1.4021
26379TIP3    H280020   4.543   7.646  10.115  1.7771 -0.7054  0.5375
26380TIP3   OH280021   7.083   3.960   8.175  0.0692  0.5787  0.1428
26380TIP3    H180022   7.104   3.871   8.148 -0.8249 -0.1609  1.7103
26380TIP3    H280023   6.987   3.960   8.183  0.0538  1.6999  0.1224
26381TIP3   OH280024  10.568   4.939   9.394 -0.4237  0.4636  0.2076
26381TIP3    H180025  10.613   4.901   9.318  2.8069  0.3933  1.9646
26381TIP3    H280026  10.531   4.863   9.439 -1.6039  0.4150 -0.8031
26382TIP3   OH280027   2.663   6.642  10.009  0.5971 -0.1648  0.0450
26382TIP3    H180028   2.657   6.737  10.002  0.2803 -0.0707  1.3416
26382TIP3    H280029   2.718   6.627  10.086 -0.2695 -1.0197  0.5172
26383TIP3   OH280030   8.731   3.105   7.691  0.3409  0.0130  0.2498
26383TIP3    H180031   8.804   3.094   7.630 -0.7986 -0.6851 -1.0542
26383TIP3    H280032   8.771   3.139   7.771  1.8773  1.0771 -0.9124
26384TIP3   OH280033   8.909   5.050   5.153 -0.5137  0.6275  0.2759
26384TIP3    H180034   8.913   4.980   5.088 -1.1435  0.9552 -0.1204
26384TIP3    H280035   8.912   5.004   5.238  0.7028  0.2207  0.0369
26385TIP3   OH280036   7.282   6.283   6.078 -0.2421 -0.3598 -0.1233
26385TIP3    H180037   7.330   6.358   6.114  1.0611 -1.1669 -0.0943
26385TIP3    H280038   7.275   6.222   6.151  0.9712 -1.3194 -0.7741
26386TIP3   OH280039   0.233   8.855   0.687 -0.6599 -0.3830 -1.2329
26386TIP3    H180040   0.205   8.786   0.626 -0.1997 -0.5646 -1.2471
26386TIP3    H280041   0.209   8.822   0.773 -1.1720 -0.1957 -1.3019
26387TIP3   OH280042   2.221   4.455   9.768 -0.7157 -0.1857  0.0233
26387TIP3    H180043   2.195   4.407   9.846 -1.5448 -2.6913 -1.7009
26387TIP3    H280044   2.315   4.437   9.758 -1.0232 -1.5548 -0.6178
26388TIP3   OH280045   3.545   8.560   4.389  0.0501 -0.7296 -0.4170
26388TIP3    H180046   3.585   8.637   4.430 -1.6025 -0.0157 -0.0580
26388TIP3    H280047   3.602   8.487   4.413  0.8624  0.1731  0.4636
26389TIP3   OH280048   5.600   2.557   1.193 -0.4444  0.2244 -0.2508
26389TIP3    H180049   5.597   2.512   1.109 -1.4262 -0.4727  0.1455
26389TIP3    H280050   5.582   2.649   1.172 -1.1194 -0.0183 -0.7575
26390TIP3   OH280051   3.683   1.498   2.432 -0.5367 -0.0196  0.5816
26390TIP3    H180052   3.748   1.561   2.402  1.2273 -1.9936 -0.0457
26390TIP3    H280053   3.699   1.489   2.526  0.9834 -1.3277  0.2504
26391TIP3   OH280054  10.149   7.808   7.584 -0.1619  0.2037 -0.2925
26391TIP3    H180055  10.138   7.828   7.491 -0.6498  2.7693  0.2262
26391TIP3    H280056  10.117   7.886   7.629 -0.6666 -1.2585  2.0856
26392TIP3   OH280057   2.931   7.811   5.907 -0.5611  0.7494  0.1488
26392TIP3    H180058   2.941   7.716   5.908  3.2683  0.8833 -2.2348
26392TIP3    H280059   2.939   7.837   5.998  0.9190 -1.1214  0.6239
26393TIP3   OH280060   1.545   0.126   5.880 -0.3626 -0.5730 -0.1836
26393TIP3    H180061   1.610   0.181   5.835 -0.3077 -0.3371  0.1799
26393TIP3    H280062   1.503   0.186   5.942 -2.8667  0.0322 -2.2925
26394TIP3   OH280063   3.352   1.884   1.738  1.0459 -0.5654 -0.9360
26394TIP3    H180064   3.261   1.856   1.723 -0.0162  1.7895  0.5557
26394TIP3    H280065   3.394   1.807   1.775 -0.2337 -1.8199 -1.9507
26395TIP3   OH280066   5.058   9.799   4.475  0.8398 -0.1116 -0.7081
26395TIP3    H180067   5.031   9.877   4.426  1.6674  0.8272  0.2812
26395TIP3    H280068   5.107   9.833   4.550 -0.1205 -1.5246  0.6148
26396TIP3   OH280069   0.990   7.651   8.285 -0.0050 -0.4923  0.1966
26396TIP3    H180070   1.008   7.561   8.311  0.3531 -1.0825 -1.9177
26396TIP3    H280071   1.035   7.662   8.201 -1.4661  1.0986 -0.4515
26397TIP3   OH280072   6.109   1.760   7.062  0.0375 -0.1416  0.1083
26397TIP3    H180073   6.037   1.701   7.082  0.0243 -0.6947 -1.4568
26397TIP3    H280074   6.077   1.815   6.991  1.0131 -0.1298 -0.3443
26398TIP3   OH280075   2.381   3.183   9.728 -0.2194 -0.3406  0.1748
26398TIP3    H180076   2.321   3.174   9.654  1.1433  0.0175 -1.0160
26398TIP3    H280077   2.401   3.276   9.732 -2.2918  0.1435  2.7210
26399TIP3   OH280078   5.122   3.313   6.357 -0.3706 -0.4991 -0.5610
26399TIP3    H180079   5.072   3.392   6.379  0.0641 -0.0957 -1.0236
26399TIP3    H280080   5.142   3.321   6.264  2.8161  0.6481  0.1040
26400TIP3   OH280081  10.617   2.503   7.976  0.2849 -0.2367  0.5580
26400TIP3    H180082  10.600   2.586   7.932  0.4276  0.1087  1.1443
26400TIP3    H280083  10.602   2.437   7.908 -0.1776  0.2414  0.1791
26401TIP3   OH280084   8.860   2.599  10.815 -0.0090 -0.3063 -0.6770
26401TIP3    H180085   8.804   2.633  10.746  0.3850 -0.9973 -1.3569
26401TIP3    H280086   8.899   2.520  10.777 -0.1829 -0.9881  0.5201
26402TIP3   OH280087   1.840   4.443   3.799 -0.5433  0.1713 -0.2482
26402TIP3    H180088   1.896   4.403   3.732  0.5102  0.2297  0.5671
26402TIP3    H280089   1.816   4.528   3.762 -0.1575  0.1096 -0.6502
26403TIP3   OH280090   0.028   4.973   9.194  0.7830 -0.1428 -0.1899
26403TIP3    H180091   0.009   5.033   9.121 -0.4050 -0.8367 -0.4807
26403TIP3    H280092  -0.006   5.018   9.271  0.3304 -0.2137 -0.3414
26404TIP3   OH280093   6.364   7.015   8.125 -0.2443 -0.1895 -0.1137
26404TIP3    H180094   6.284   6.976   8.160 -0.1106 -1.1044 -0.7690
26404TIP3    H280095   6.423   6.941   8.114  0.1806  0.2668 -0.9849
26405TIP3   OH280096   8.863  10.016   2.898  0.6340  0.1633 -0.0378
26405TIP3    H180097   8.771   9.993   2.904  0.3823  1.2030  0.1604
26405TIP3    H280098   8.869  10.068   2.818  1.0644  0.0587 -0.0774
26406TIP3   OH280099  10.489   0.368   4.054  0.0609  0.1989  0.0764
26406TIP3    H180100  10.453   0.322   4.130 -0.4578  0.3040 -0.0960
26406TIP3    H280101  10.453   0.456   4.060  0.1856  0.2699 -0.1756
26407TIP3   OH280102   1.130   5.072   5.255 -0.2354  0.2698  0.3588
26407TIP3    H180103   1.150   5.165   5.239 -2.5921  0.9584  1.1175
26407TIP3    H280104   1.130   5.064   5.350 -0.2141 -0.4989  0.2960
26408TIP3   OH280105   7.003   3.980   3.378 -0.2043 -0.3613 -0.3493
26408TIP3    H180106   7.024   3.926   3.455  3.1506  2.0530  0.6314
26408TIP3    H280107   6.956   4.055   3.413  0.8069  0.4537 -0.6887
26409TIP3   OH280108  10.676   1.021   6.514  0.1981 -0.1142 -0.1123
26409TIP3    H180109  10.752   1.055   6.468  0.0046 -2.7714 -2.7242
26409TIP3    H280110  10.602   1.069   6.477  0.3832  0.7781  0.6542
26410TIP3   OH280111   4.721   1.677   0.423 -0.2500  0.5508  0.5636
26410TIP3    H180112   4.791   1.620   0.391 -0.0302  0.7269  0.7307
26410TIP3    H280113   4.710   1.741   0.353 -1.4201 -0.4760 -0.2330
26411TIP3   OH280114   1.597   7.084   8.762 -0.0468  0.6036  0.1189
26411TIP3    H180115   1.650   7.011   8.794  2.1957  2.1560  0.1738
26411TIP3    H280116   1.561   7.052   8.679  0.4196 -0.7475  0.3999
26412TIP3   OH280117   3.517   3.538   8.475  0.1950 -0.4890 -0.0031
26412TIP3    H180118   3.508   3.443   8.471 -1.1798 -0.3992  0.5754
26412TIP3    H280119   3.453   3.572   8.413  0.4501  0.0758  0.0332
26413TIP3   OH280120   3.399   6.332   5.905 -0.2805  0.0096  0.1919
26413TIP3    H180121   3.405   6.247   5.948  0.9592 -0.3948 -0.7200
26413TIP3    H280122   3.321   6.373   5.943 -0.5111 -1.2485  1.1315
26414TIP3   OH280123   3.666   8.653   4.790  0.1141 -0.2384  0.3933
26414TIP3    H180124   3.584   8.673   4.836 -0.4276 -1.8312  0.1855
26414TIP3    H280125   3.683   8.561   4.812  0.7962 -0.5065 -1.1438
26415TIP3   OH280126   7.191   2.180   4.336  0.4920  0.0480  0.5769
26415TIP3    H180127   7.252   2.248   4.365 -1.0366  1.0171  1.6805
26415TIP3    H280128   7.141   2.158   4.414 -0.3836 -0.9267 -0.2265
26416TIP3   OH280129   5.631   3.312   7.978  0.4548  0.2216 -0.2159
26416TIP3    H180130   5.719   3.294   8.011 -0.8735 -1.0722  3.0465
26416TIP3    H280131   5.610   3.235   7.924  1.2206  0.4606 -0.8737
26417TIP3   OH280132   7.249   9.687   8.891 -0.0747  0.5305 -0.8891
26417TIP3    H180133   7.157   9.659   8.885 -0.4313  1.5064 -0.2447
26417TIP3    H280134   7.264   9.735   8.810 -0.5323  1.4366 -0.4570
26418TIP3   OH280135   5.442   1.663   0.373  0.2699 -0.3934  0.0190
26418TIP3    H180136   5.389   1.738   0.397  2.4959  0.7709  1.7179
26418TIP3    H280137   5.431   1.601   0.445  0.1390 -0.7457 -0.3004
26419TIP3   OH280138   9.216   6.389   6.360 -0.4376 -0.2128 -0.5834
26419TIP3    H180139   9.240   6.316   6.303 -2.1155 -0.3281 -1.1925
26419TIP3    H280140   9.202   6.349   6.446 -0.6757 -0.5008 -0.7547
26420TIP3   OH280141  10.838   2.859  10.767  0.5785  0.2073  0.1401
26420TIP3    H180142  10.881   2.797  10.826  0.4353 -1.1939 -1.1505
26420TIP3    H280143  10.747   2.862  10.797  0.8565  0.7278  0.9429
26421TIP3   OH280144  10.571   6.713   4.378  0.1429  0.2285  0.3018
26421TIP3    H180145  10.499   6.698   4.439  0.2098 -0.0953  0.3009
26421TIP3    H280146  10.590   6.806   4.386  0.9744 -0.0353  1.6847
26422TIP3   OH280147   2.511   9.070   9.591 -0.2205 -0.0170 -0.2017
26422TIP3    H180148   2.587   9.070   9.533  0.2454 -0.3828  0.3936
26422TIP3    H280149   2.447   9.126   9.547  0.5712  0.6927 -0.4892
26423TIP3   OH280150   1.363   4.672   1.156 -0.3780 -0.0193  0.4575
26423TIP3    H180151   1.402   4.752   1.191 -0.5713  0.7953 -1.1249
26423TIP3    H280152   1.278   4.699   1.122  0.3259 -0.4418 -1.8234
26424TIP3   OH280153   0.205   9.051   1.670 -0.3344  0.7178 -0.3711
26424TIP3    H180154   0.258   9.112   1.721 -1.0938  1.0785  0.0024
26424TIP3    H280155   0.131   9.103   1.639 -1.3035 -0.1204  0.4333
26425TIP3   OH280156  10.132   0.731   0.902 -0.7407 -0.6175 -0.0744
26425TIP3    H180157  10.123   0.778   0.985 -2.5662 -1.3024  0.1442
26425TIP3    H280158  10.189   0.657   0.922  0.0846  0.0721  0.1824
26426TIP3   OH280159   6.703   6.026   5.869 -0.2189 -0.0930  0.0526
26426TIP3    H180160   6.637   5.959   5.886 -1.7200  1.6385  1.5339
26426TIP3    H280161   6.664   6.082   5.801  0.2580  0.2341  0.0408
26427TIP3   OH280162   8.096   3.037   1.748 -0.2302 -0.0747 -0.3929
26427TIP3    H180163   8.101   2.944   1.725 -0.8123 -0.5608  1.2558
26427TIP3    H280164   8.142   3.043   1.832 -0.1468  1.1481 -0.5061
26428TIP3   OH280165   7.216   8.955   4.133  0.0195  0.3108 -0.4814
26428TIP3    H180166   7.280   8.905   4.083  0.2319  0.6614 -0.5655
26428TIP3    H280167   7.205   9.036   4.083  0.5433  0.8527  0.2415
26429TIP3   OH280168   9.128   3.837   6.592 -0.3750  0.5131  0.6136
26429TIP3    H180169   9.193   3.780   6.631  1.5324  0.8752 -1.7687
26429TIP3    H280170   9.072   3.778   6.541 -0.8876  0.3869  1.3072
26430TIP3   OH280171   2.037   4.077   6.942  0.5219 -0.6991  0.6617
26430TIP3    H180172   1.961   4.031   6.907 -0.1662  1.0470 -0.2686
26430TIP3    H280173   2.103   4.070   6.874  0.2865 -0.0268  0.3555
26431TIP3   OH280174   3.473   2.066   3.097  0.3612  0.4883  0.3851
26431TIP3    H180175   3.391   2.113   3.082  0.4595  0.6445  0.3285
26431TIP3    H280176   3.525   2.084   3.019  1.2645  2.1200  1.3186
26432TIP3   OH280177   2.823   3.051   3.180  0.0155  0.4756  0.2323
26432TIP3    H180178   2.846   2.995   3.106 -0.4293  1.2200 -0.4962
26432TIP3    H280179   2.804   2.991   3.252  2.0551 -0.2297  0.2398
26433TIP3   OH280180  10.560   3.650   1.242 -0.1548 -0.9332 -0.4128
26433TIP3    H180181  10.541   3.701   1.163  0.2136  0.3090  0.2877
26433TIP3    H280182  10.637   3.597   1.219 -0.9332 -1.6960 -1.3569
26434TIP3   OH280183   0.469   0.493   5.717 -0.3307  0.3699  0.0885
26434TIP3    H180184   0.505   0.458   5.799 -0.4647  1.0954  0.4622
26434TIP3    H280185   0.506   0.581   5.710 -0.7534  0.5139 -0.3548
26435TIP3   OH280186   6.689   8.169   0.846 -0.1632 -0.1274 -0.2292
26435TIP3    H180187   6.762   8.162   0.784  0.7876 -2.0918  1.0384
26435TIP3    H280188   6.641   8.087   0.836 -3.4223  1.7734 -2.3267
26436TIP3   OH280189  10.768   6.268   3.337 -0.4726 -0.4094  0.4956
26436TIP3    H180190  10.803   6.234   3.419 -0.6552 -1.0101  0.3266
26436TIP3    H280191  10.747   6.191   3.286  2.7228 -0.1701 -1.5047
26437TIP3   OH280192   9.901   3.915   5.739 -0.1674 -0.1888 -0.6435
26437TIP3    H180193   9.820   3.929   5.788 -0.1713  2.6782 -1.2978
26437TIP3    H280194   9.878   3.852   5.671 -1.0370 -1.6134  0.9037
26438TIP3   OH280195   6.789   5.311   8.362 -0.2105 -0.2827 -0.3422
26438TIP3    H180196   6.772   5.328   8.454  3.0832  1.4487  0.1047
26438TIP3    H280197   6.880   5.283   8.358 -0.9590 -2.8711 -2.8909
26439TIP3   OH280198   2.772   7.968   4.813  0.6629  0.0485 -0.3155
26439TIP3    H180199   2.749   8.002   4.899  3.4004 -0.1872  0.6042
26439TIP3    H280200   2.777   8.045   4.756 -0.3148  0.2971 -0.0790
26440TIP3   OH280201  10.755  10.341   5.562  0.1044 -0.0870 -0.0567
26440TIP3    H180202  10.739  10.401   5.489  1.1836  1.6421  1.0402
26440TIP3    H280203  10.825  10.383   5.612  2.0133 -3.0514 -0.0077
26441TIP3   OH280204   7.374   6.973   8.677  0.0255  0.1954  0.4922
26441TIP3    H180205   7.384   6.904   8.612 -1.5572  0.7963 -0.4372
26441TIP3    H280206   7.326   7.042   8.632  0.2443  1.2897  1.8498
26442TIP3   OH280207   1.641   1.059   2.128 -0.2833 -0.1054  0.0372
26442TIP3    H180208   1.736   1.071   2.130 -0.2221 -0.5292 -0.2508
26442TIP3    H280209   1.606   1.147   2.115  0.0962 -0.0322 -0.5085
26443TIP3   OH280210   9.627  10.439   3.728  0.4165 -0.0494 -0.2922
26443TIP3    H180211   9.575  10.367   3.693 -0.6538  0.5425  0.0542
26443TIP3    H280212   9.587  10.459   3.813  1.8220 -0.2250  0.4505
26444TIP3   OH280213   6.135   0.072   3.348 -0.5474 -0.6145  0.9322
26444TIP3    H180214   6.176  -0.005   3.309 -1.4339  0.3303 -2.1636
26444TIP3    H280215   6.043   0.049   3.359 -0.6677 -0.2643  0.6999
26445TIP3   OH280216   3.376  10.772   4.548 -0.3145  0.1187 -0.5781
26445TIP3    H180217   3.442  10.738   4.608 -1.1173  0.1804  0.3662
26445TIP3    H280218   3.363  10.702   4.484  0.2259 -0.1286 -0.4245
26446TIP3   OH280219   2.467   2.256   9.921  0.7636 -0.2849  0.0289
26446TIP3    H180220   2.456   2.182   9.860  0.0614  0.3644 -0.6522
26446TIP3    H280221   2.529   2.224   9.986  0.0285 -1.6820  0.0750
26447TIP3   OH280222   7.349   6.469   2.518  0.3635 -0.1228  1.2146
26447TIP3    H180223   7.286   6.540   2.524  0.5775  0.1943 -0.0269
26447TIP3    H280224   7.299   6.395   2.483  0.8625  0.4366 -0.8145
26448TIP3   OH280225   6.802   5.487   3.495 -0.3983 -0.0211 -0.4248
26448TIP3    H180226   6.720   5.520   3.458  0.5699  1.9420 -1.0092
26448TIP3    H280227   6.800   5.515   3.587 -0.1899  0.4937 -0.5694
26449TIP3   OH280228  10.776   5.502   5.654 -0.7096 -0.6644 -0.3436
26449TIP3    H180229  10.866   5.488   5.682 -0.5862 -0.6010 -0.6994
26449TIP3    H280230  10.738   5.414   5.652 -1.8607 -0.4442  3.6348
26450TIP3   OH280231   7.223  10.720   1.430  0.8190  0.1865  0.1045
26450TIP3    H180232   7.187  10.755   1.512 -0.4820  2.3592 -1.2689
26450TIP3    H280233   7.262  10.636   1.455 -0.7157  0.1003  2.6882
26451TIP3   OH280234   3.344   8.716   9.925  0.0849 -0.1068  0.2826
26451TIP3    H180235   3.370   8.729  10.017  0.8106 -1.3604  0.2855
26451TIP3    H280236   3.324   8.623   9.919 -0.7040  0.1088 -0.6657
26452TIP3   OH280237  10.884   5.612   3.702 -0.2241  0.8101 -0.2051
26452TIP3    H180238  10.870   5.638   3.793  0.5612  0.3961  0.0429
26452TIP3    H280239  10.922   5.690   3.661  2.9344 -0.0759  0.7437
26453TIP3   OH280240   9.888   0.664   2.843 -0.2699  0.1782 -0.2592
26453TIP3    H180241   9.889   0.578   2.885 -0.1125  0.2750 -0.0622
26453TIP3    H280242   9.978   0.680   2.816  0.6283  1.9030  3.0971
26454TIP3   OH280243   1.639  10.722   9.255 -0.0751 -0.5694  0.7182
26454TIP3    H180244   1.682  10.734   9.340 -0.4445 -1.0170  0.9734
26454TIP3    H280245   1.702  10.672   9.203  0.0644 -0.4774  0.7984
26455TIP3   OH280246   2.769   4.429   7.342 -0.2119  0.2915  0.2676
26455TIP3    H180247   2.814   4.465   7.419  0.9830  0.0817 -0.2966
26455TIP3    H280248   2.837   4.426   7.274 -1.0804 -0.1071 -0.6123
26456TIP3   OH280249   2.209   2.221   1.009  0.0113  0.5081 -0.5098
26456TIP3    H180250   2.145   2.290   1.023 -1.0084 -0.4473 -0.3331
26456TIP3    H280251   2.183   2.181   0.926  0.5969  0.3394 -0.6174
26457TIP3   OH280252  10.241   1.287   9.222  0.5516 -0.3203  0.4333
26457TIP3    H180253  10.316   1.342   9.244  1.0247 -0.6800 -0.2432
26457TIP3    H280254  10.171   1.318   9.279  0.7616  1.0880 -0.0419
26458TIP3   OH280255   2.585   2.609   4.685 -0.1877 -0.5022  0.9982
26458TIP3    H180256   2.544   2.659   4.615 -0.9476  1.9433  3.0506
26458TIP3    H280257   2.677   2.637   4.685  0.1506 -1.5239  0.1924
26459TIP3   OH280258   2.281   0.690   0.769 -0.0602 -0.6692 -0.3326
26459TIP3    H180259   2.287   0.784   0.787  0.4832 -0.5294 -1.1904
26459TIP3    H280260   2.281   0.650   0.856 -1.9410  0.1863  0.1037
26460TIP3   OH280261   3.659   0.409   9.287 -0.1051  0.0707  0.3656
26460TIP3    H180262   3.745   0.435   9.322 -0.1697  0.1365  0.4787
26460TIP3    H280263   3.665   0.427   9.194  0.0008  0.0855  0.3744
26461TIP3   OH280264   2.627   4.610   2.661 -0.1348  0.2385  0.1346
26461TIP3    H180265   2.580   4.692   2.647 -1.3893 -0.2810  1.0557
26461TIP3    H280266   2.695   4.631   2.725 -2.1633  0.0725  2.5067
26462TIP3   OH280267   9.029   8.956  10.097  0.3092  0.1130  0.5861
26462TIP3    H180268   9.108   9.009  10.112  1.3979 -0.8109 -1.5388
26462TIP3    H280269   8.965   9.019  10.063  0.7192  0.5439  0.5906
26463TIP3   OH280270  10.305   4.451   3.118 -0.1263 -0.0818  0.1084
26463TIP3    H180271  10.258   4.371   3.096 -0.5889 -0.2378  1.5097
26463TIP3    H280272  10.397   4.430   3.104 -0.3157 -0.4865 -0.5870
26464TIP3   OH280273   3.716   0.738   5.633  0.1124  0.6196 -0.3179
26464TIP3    H180274   3.756   0.795   5.698  0.5537  0.4417 -0.4339
26464TIP3    H280275   3.628   0.721   5.667  0.3018  0.6235  0.1727
26465TIP3   OH280276   4.230   2.551   0.042 -0.6345 -0.0569 -0.0883
26465TIP3    H180277   4.161   2.507   0.091 -0.2251 -2.6437 -1.6744
26465TIP3    H280278   4.187   2.628   0.004 -1.9457 -0.2160  0.9922
26466TIP3   OH280279   1.392   1.804  10.642  0.2617  0.4765  0.3541
26466TIP3    H180280   1.298   1.796  10.626 -0.4895  1.9138  3.3379
26466TIP3    H280281   1.415   1.725  10.691  0.4677  0.4382  0.1964
26467TIP3   OH280282   8.673   4.523   7.446 -0.1284  0.5655 -0.2828
26467TIP3    H180283   8.711   4.565   7.523  0.5353 -0.5026 -0.0015
26467TIP3    H280284   8.663   4.594   7.383  0.5131  1.2361  0.3396
26468TIP3   OH280285   3.336   6.940   2.020  0.8586  0.2673  0.5279
26468TIP3    H180286   3.257   6.887   2.027  1.2637 -0.3633  0.3457
26468TIP3    H280287   3.357   6.941   1.926  1.4217 -0.1042  0.6407
26469TIP3   OH280288   9.062   6.891   9.969  1.0061  0.8800  0.1276
26469TIP3    H180289   9.016   6.818  10.009 -0.1088  0.7915 -1.2597
26469TIP3    H280290   9.135   6.909  10.029 -0.5648  0.7666  2.1925
26470TIP3   OH280291   2.404   2.541   2.346 -0.2013  0.3037 -0.3200
26470TIP3    H180292   2.324   2.593   2.334 -0.0842  1.7897  3.7098
26470TIP3    H280293   2.472   2.606   2.365  0.6927 -1.1088  1.6776
26471TIP3   OH280294   7.211   7.116   5.232  0.2951  0.8712  0.3370
26471TIP3    H180295   7.232   7.134   5.323 -0.5032  2.1820  0.2973
26471TIP3    H280296   7.115   7.106   5.231  0.4181 -0.5574 -0.1509
26472TIP3   OH280297   9.793   4.916   5.846  0.3484 -0.0119  0.1422
26472TIP3    H180298   9.704   4.912   5.882 -1.4480  0.7275 -3.6573
26472TIP3    H280299   9.816   5.008   5.850 -0.2018  0.2040 -1.1605
26473TIP3   OH280300   3.077   6.182   9.421  0.4675  0.6378 -0.2004
26473TIP3    H180301   3.000   6.224   9.461 -0.3927  0.2709 -1.4180
26473TIP3    H280302   3.095   6.234   9.343 -0.6797 -1.2158 -1.7922
26474TIP3   OH280303   4.872   9.890   0.646 -0.3429  0.6240 -0.0198
26474TIP3    H180304   4.808   9.947   0.689  0.4229  2.1219 -0.7924
26474TIP3    H280305   4.837   9.878   0.557  0.7508  2.0400 -0.6768
26475TIP3   OH280306   1.936   0.537   1.610  0.3241  0.4527  0.3150
26475TIP3    H180307   1.894   0.546   1.695 -3.2310 -1.7701 -0.9561
26475TIP3    H280308   1.993   0.460   1.618  1.7949  1.5820  1.1917
26476TIP3   OH280309   8.970   4.412   2.975  0.2151  0.4650  0.4339
26476TIP3    H180310   9.007   4.364   2.900  1.7314  0.8207  0.9243
26476TIP3    H280311   8.971   4.349   3.046  0.3819  0.6360  0.5834
26477TIP3   OH280312   9.699   5.320   9.394 -0.0378  0.0606 -0.4282
26477TIP3    H180313   9.725   5.411   9.385  0.1493  0.2007  1.1499
26477TIP3    H280314   9.748   5.274   9.326  1.9629  0.7780  0.4636
26478TIP3   OH280315   1.218   3.991   0.583 -0.5424  0.1117  0.2019
26478TIP3    H180316   1.162   3.924   0.622  0.4599  0.8236  3.1395
26478TIP3    H280317   1.179   4.074   0.610  0.0268  0.6702 -0.6351
26479TIP3   OH280318   7.393   8.392   2.923  0.4976  0.3409 -0.6745
26479TIP3    H180319   7.362   8.420   2.837  0.7272  1.3328 -0.4539
26479TIP3    H280320   7.482   8.360   2.907  1.1977  2.1212 -0.5774
26480TIP3   OH280321   7.177   3.873  10.205 -0.1674 -0.0149  0.0345
26480TIP3    H180322   7.257   3.924  10.192  0.2092 -0.9120 -1.4142
26480TIP3    H280323   7.169   3.820  10.125 -0.6762 -2.0205  1.3494
26481TIP3   OH280324   5.197   3.144   7.187 -0.2729 -0.1667  0.2528
26481TIP3    H180325   5.106   3.130   7.214 -0.1171  0.8813  1.3826
26481TIP3    H280326   5.207   3.090   7.108 -1.6345 -0.9217  0.5644
26482TIP3   OH280327   1.013   0.497   7.731 -0.3384  0.1019  0.3039
26482TIP3    H180328   1.062   0.501   7.813 -0.0814  3.3230  0.1200
26482TIP3    H280329   0.921   0.497   7.758 -0.2528  0.3536  0.6034
26483TIP3   OH280330   1.722   2.492   8.728 -0.1088  0.4563 -0.3765
26483TIP3    H180331   1.788   2.502   8.660 -0.2160  3.6647 -0.1726
26483TIP3    H280332   1.653   2.554   8.704 -1.5375 -0.4785  1.0988
26484TIP3   OH280333   8.911   4.121   2.773  0.3146  0.0423  0.1232
26484TIP3    H180334   8.831   4.174   2.770 -0.6375 -1.3657 -0.8482
26484TIP3    H280335   8.980   4.179   2.743 -1.0776  0.1476 -3.3200
26485TIP3   OH280336   6.457   4.653   1.376 -0.7030  0.4285  0.2260
26485TIP3    H180337   6.494   4.730   1.334 -2.4758 -0.0749 -2.5575
26485TIP3    H280338   6.391   4.687   1.436 -0.5165  1.1290  0.0375
26486TIP3   OH280339   0.100  10.648   0.133 -0.1124  0.0046 -0.7706
26486TIP3    H180340   0.173  10.697   0.171  0.6346 -0.9512 -0.9126
26486TIP3    H280341   0.142  10.573   0.090 -1.1317 -0.2156 -1.4252
26487TIP3   OH280342   8.656   6.857  10.097 -0.4949  0.0724  0.0021
26487TIP3    H180343   8.616   6.914  10.031  0.7030 -1.4245 -2.1008
26487TIP3    H280344   8.626   6.769  10.074  2.1261 -0.8192 -0.2776
26488TIP3   OH280345   3.240   2.935   6.418  0.0837 -0.1295  0.2954
26488TIP3    H180346   3.328   2.962   6.394 -0.0011  0.5748  0.7694
26488TIP3    H280347   3.183   2.999   6.375 -0.1911 -0.4611  0.1606
26489TIP3   OH280348   9.366  10.433   4.947 -0.2612  0.5989  0.0730
26489TIP3    H180349   9.330  10.436   4.859 -0.8789 -0.2681  0.2815
26489TIP3    H280350   9.296  10.397   5.001 -0.1656  1.8475  1.0722
26490TIP3   OH280351   0.523   0.353   6.807  0.3311  0.0673  0.0949
26490TIP3    H180352   0.558   0.268   6.780 -0.1762 -0.2703  0.4778
26490TIP3    H280353   0.600   0.405   6.830  0.8154  0.3883 -1.9950
26491TIP3   OH280354   4.464   1.824   8.702 -0.8204  0.3159 -0.6615
26491TIP3    H180355   4.515   1.746   8.679  2.1044  2.2558 -1.3327
26491TIP3    H280356   4.388   1.790   8.750  0.8692 -2.8353  0.0507
26492TIP3   OH280357   3.591   4.011   8.570 -0.2223  0.8282  0.5335
26492TIP3    H180358   3.622   4.100   8.590 -0.1516  0.8887  0.1606
26492TIP3    H280359   3.671   3.959   8.564 -0.1636  1.0351 -0.6769
26493TIP3   OH280360   1.465   7.601   5.591  0.3269 -0.3454  0.3794
26493TIP3    H180361   1.443   7.688   5.622 -0.7786 -0.3990 -0.2023
26493TIP3    H280362   1.387   7.572   5.543  1.3856 -0.8777 -1.0938
26494TIP3   OH280363   6.386   6.479   6.237 -0.0994 -0.7668  0.4359
26494TIP3    H180364   6.425   6.450   6.154 -0.7606 -3.2660  0.8965
26494TIP3    H280365   6.459   6.517   6.286  0.2591  0.9629 -1.3144
26495TIP3   OH280366   4.600   8.405   3.479  0.4714 -0.2216 -0.1497
26495TIP3    H180367   4.572   8.314   3.483  0.1418 -0.0667  1.8492
26495TIP3    H280368   4.548   8.443   3.408 -1.1672 -1.0269  0.5726
26496TIP3   OH280369   9.250   5.067   6.131  0.0986  0.1300  0.0345
26496TIP3    H180370   9.312   5.138   6.147  0.0557 -0.0169  0.9045
26496TIP3    H280371   9.180   5.082   6.194 -0.8580  0.4004 -1.0558
26497TIP3   OH280372   8.494  10.103   3.388  0.1791  0.9633 -0.0228
26497TIP3    H180373   8.448  10.021   3.371  0.1589  1.0274 -0.2742
26497TIP3    H280374   8.535  10.090   3.474  1.5310  0.0783 -0.7724
26498TIP3   OH280375   9.087   8.256   6.688  0.1453 -0.1231  0.0538
26498TIP3    H180376   9.071   8.350   6.678  1.2343  0.0190 -0.5334
26498TIP3    H280377   9.010   8.214   6.649 -1.4809  0.4906  2.3763
26499TIP3   OH280378   4.288   5.334   7.066  0.1349  0.3195  0.4140
26499TIP3    H180379   4.310   5.372   6.981 -0.5141 -0.1819  0.0167
26499TIP3    H280380   4.201   5.369   7.087  0.3302  0.5132  0.9183
26500TIP3   OH280381  10.419   8.728   6.657  0.1437  0.0216 -0.3477
26500TIP3    H180382  10.488   8.680   6.704 -0.9316 -0.1964  1.0887
26500TIP3    H280383  10.404   8.677   6.578 -0.7302 -1.9176  0.9763
26501TIP3   OH280384   1.768   9.885   0.856  0.1254 -0.5544  0.3130
26501TIP3    H180385   1.790   9.965   0.808 -0.6207  0.3580  1.4213
26501TIP3    H280386   1.837   9.823   0.833  0.9481  0.5419 -0.2707
26502TIP3   OH280387   4.206   1.295   1.122  0.0225  0.3341  0.3742
26502TIP3    H180388   4.119   1.271   1.154 -0.9423  2.2269 -0.6157
26502TIP3    H280389   4.239   1.357   1.187  1.5418 -1.8122  1.7687
26503TIP3   OH280390   3.638   9.554   6.520 -0.5647  0.3658  0.7320
26503TIP3    H180391   3.633   9.459   6.535  1.7072  0.1885  0.6670
26503TIP3    H280392   3.726   9.578   6.548 -0.7820  2.3242 -0.1119
26504TIP3   OH280393  10.471   9.526   5.628  0.1817 -0.3833  0.0390
26504TIP3    H180394  10.427   9.565   5.703 -1.4253 -2.3518  0.2315
26504TIP3    H280395  10.564   9.525   5.651  0.0644  1.5654  0.7488
26505TIP3   OH280396   7.776   4.138   0.311 -0.9887  0.4465  0.1131
26505TIP3    H180397   7.702   4.079   0.318 -0.5654 -0.0776  0.2442
26505TIP3    H280398   7.850   4.089   0.347 -0.8993  1.5399  1.5317
26506TIP3   OH280399   9.566   1.386  10.340 -0.3198  0.1248 -0.0191
26506TIP3    H180400   9.527   1.468  10.371  1.6407  1.1895 -0.2105
26506TIP3    H280401   9.636   1.414  10.280  1.4293 -1.6114  1.0949
26507TIP3   OH280402   7.190   1.993  10.742 -0.1860 -0.1031 -0.3873
26507TIP3    H180403   7.140   2.066  10.778  0.3946  0.8549 -1.4514
26507TIP3    H280404   7.136   1.916  10.758 -1.1226  0.6532  0.1673
26508TIP3   OH280405   3.247   4.239   8.472  0.1301  0.1166 -0.1711
26508TIP3    H180406   3.217   4.217   8.384  0.4868  0.0691 -0.2836
26508TIP3    H280407   3.269   4.155   8.511  0.7250  0.1997 -0.3170
26509TIP3   OH280408   2.681   8.553   8.923  0.3860  0.4237 -0.0389
26509TIP3    H180409   2.631   8.555   8.841 -0.1732  0.6285  0.3057
26509TIP3    H280410   2.768   8.586   8.899  0.2202  0.4997 -0.5399
26510TIP3   OH280411  10.762   2.393   5.404 -0.2604 -0.3284 -0.0714
26510TIP3    H180412  10.712   2.405   5.486  0.5381 -0.1985  0.4049
26510TIP3    H280413  10.808   2.476   5.391 -0.1745 -0.4435 -0.5109
26511TIP3   OH280414   7.857   9.191   7.619  0.2330  0.2585 -0.3133
26511TIP3    H180415   7.931   9.167   7.564 -0.1542 -1.2445 -0.2124
26511TIP3    H280416   7.800   9.242   7.561  0.5370 -0.0376 -0.8835
26512TIP3   OH280417   0.270   3.194   4.264  0.3880  0.1223  0.3771
26512TIP3    H180418   0.250   3.101   4.271 -0.0992  0.1516 -0.5063
26512TIP3    H280419   0.227   3.233   4.341 -1.2583 -0.1063 -0.3954
26513TIP3   OH280420   0.145   0.703   8.390  0.0440  0.3875  0.5874
26513TIP3    H180421   0.148   0.773   8.456  1.1934 -0.3826  1.3918
26513TIP3    H280422   0.067   0.652   8.414 -0.6148  1.1783  0.1916
26514TIP3   OH280423   0.484   3.474   2.550 -0.7074 -0.2730  0.0283
26514TIP3    H180424   0.520   3.559   2.575 -0.4260 -0.4103  0.0868
26514TIP3    H280425   0.389   3.487   2.554 -0.6680 -0.1478  0.6643
26515TIP3   OH280426   4.026   2.128   8.458  0.3050 -0.5842 -0.5942
26515TIP3    H180427   3.987   2.052   8.501  2.9561 -1.1503  1.0246
26515TIP3    H280428   4.109   2.142   8.503  1.8266  0.7841 -3.5120
26516TIP3   OH280429  10.255   2.890  10.852  0.5217  0.5022  0.3679
26516TIP3    H180430  10.232   2.964  10.908 -1.5999  1.0609 -1.1354
26516TIP3    H280431  10.316   2.928  10.788  1.0245  0.4442  0.8049
26517TIP3   OH280432   9.922   1.472   3.440 -0.2645 -0.4138  0.5764
26517TIP3    H180433   9.991   1.411   3.467 -0.0004 -0.4155 -0.0858
26517TIP3    H280434   9.969   1.545   3.400 -0.5774  0.3044  1.5095
26518TIP3   OH280435   4.598   9.793   6.991  0.3730 -0.0531  0.0175
26518TIP3    H180436   4.509   9.759   6.980  0.0998  0.6331  0.0846
26518TIP3    H280437   4.649   9.747   6.925  0.0490 -0.7222  0.2172
26519TIP3   OH280438   5.387   4.457   1.281 -0.2802 -0.6292 -0.1956
26519TIP3    H180439   5.373   4.363   1.291  0.8639 -1.0145 -1.7588
26519TIP3    H280440   5.433   4.465   1.197  2.6954  0.9963  1.4428
26520TIP3   OH280441   1.541   8.215   7.089  0.7167 -0.3344  0.8028
26520TIP3    H180442   1.587   8.186   7.010  0.7256 -0.8714  1.0048
26520TIP3    H280443   1.536   8.137   7.144 -0.1584 -0.2009  0.9220
26521TIP3   OH280444   6.469   1.641   8.785 -0.3073  0.2086  0.4892
26521TIP3    H180445   6.446   1.716   8.732  1.8202  0.1478 -0.6061
26521TIP3    H280446   6.394   1.582   8.777 -1.8377  1.9720  1.0470
26522TIP3   OH280447   3.740   9.971   7.062  0.3028 -0.3023  0.5327
26522TIP3    H180448   3.650   9.992   7.089  0.7242  2.3605  0.0552
26522TIP3    H280449   3.729   9.902   6.996 -1.5570  1.1474 -0.7723
26523TIP3   OH280450   4.207   8.851   7.878  0.1869  0.0406  0.0654
26523TIP3    H180451   4.156   8.818   7.804  1.2531 -2.9714  0.5289
26523TIP3    H280452   4.288   8.883   7.839  0.2202 -0.3542 -0.1954
26524TIP3   OH280453   6.400   8.537   1.068 -0.3403  0.0599 -0.0927
26524TIP3    H180454   6.445   8.609   1.112 -0.2295 -0.2892  0.3693
26524TIP3    H280455   6.468   8.493   1.017  0.0460 -0.9952  1.2851
26525TIP3   OH280456   1.456   7.864   7.899 -0.5436 -0.2506 -0.4674
26525TIP3    H180457   1.523   7.931   7.915  0.4006 -1.5090  1.1954
26525TIP3    H280458   1.377   7.914   7.879  0.1181  1.3768  0.7039
26526TIP3   OH280459   5.304   8.436   9.816 -0.2078  0.2090  0.4591
26526TIP3    H180460   5.279   8.519   9.777  0.8218  0.2273 -0.1938
26526TIP3    H280461   5.236   8.375   9.789  0.9342 -0.0009 -2.2203
26527TIP3   OH280462   1.537   2.963  10.480 -0.8391 -0.2215 -0.4982
26527TIP3    H180463   1.451   2.955  10.440 -1.0200  1.0256 -0.3917
26527TIP3    H280464   1.591   2.898  10.435 -1.9507 -1.3740 -0.2117
26528TIP3   OH280465   5.735   7.835   1.585  0.2934  0.2261 -0.2645
26528TIP3    H180466   5.674   7.873   1.521  0.6724 -1.2019 -1.5324
26528TIP3    H280467   5.822   7.865   1.555  0.4682 -0.4041 -0.3946
26529TIP3   OH280468   1.320   9.107   4.773  0.8917  0.4141 -0.8710
26529TIP3    H180469   1.288   9.017   4.775  1.3711  0.2456 -0.3811
26529TIP3    H280470   1.399   9.105   4.827  1.0837  1.0605 -1.1191
26530TIP3   OH280471   7.557   1.035  10.746  0.1858  0.3417 -0.0688
26530TIP3    H180472   7.467   1.016  10.774 -0.1678 -0.8803 -1.8602
26530TIP3    H280473   7.579   1.118  10.790 -0.7024 -0.7895  2.7427
26531TIP3   OH280474   7.652   9.873   1.145 -0.1329 -0.3291 -0.0026
26531TIP3    H180475   7.566   9.914   1.144  0.6482  1.4226  0.8760
26531TIP3    H280476   7.658   9.827   1.061 -1.0938  1.3032 -1.0079
26532TIP3   OH280477   9.624   5.787  10.369 -0.2320  0.1974 -0.0674
26532TIP3    H180478   9.662   5.780  10.457 -0.1027 -1.9454 -0.2314
26532TIP3    H280479   9.699   5.789  10.310 -0.3155 -0.8367 -0.2294
26533TIP3   OH280480  10.689   4.395   7.373 -0.7235 -0.1008 -0.1021
26533TIP3    H180481  10.733   4.436   7.298  0.2698 -0.9845 -0.0330
26533TIP3    H280482  10.597   4.390   7.347 -0.5197  0.3095 -0.9404
26534TIP3   OH280483   8.413   1.796   8.815  0.2219  0.5371  0.4720
26534TIP3    H180484   8.351   1.724   8.829  1.1567 -0.3117  0.3971
26534TIP3    H280485   8.437   1.790   8.722  0.4496  0.8134  0.5110
26535TIP3   OH280486  10.165   3.182   5.816 -0.3348 -0.5958 -0.4445
26535TIP3    H180487  10.206   3.202   5.732 -0.0297 -0.9953 -0.3994
26535TIP3    H280488  10.232   3.202   5.881  0.2028 -2.2464 -0.4342
26536TIP3   OH280489   0.993   4.679   6.745  0.6145  0.5496  0.3032
26536TIP3    H180490   0.966   4.754   6.692 -0.9697 -0.2891 -0.1140
26536TIP3    H280491   1.036   4.719   6.821 -0.5533  1.9074  0.2934
26537TIP3   OH280492   0.785   8.590   5.353 -0.0538  0.2522  0.1300
26537TIP3    H180493   0.864   8.639   5.376 -0.9747  1.3207  1.1703
26537TIP3    H280494   0.744   8.570   5.437 -1.1216  0.1324 -0.3994
26538TIP3   OH280495   3.716   4.447   0.519  0.6963 -0.7659  0.2028
26538TIP3    H180496   3.795   4.393   0.520  0.3610 -1.2647  1.8516
26538TIP3    H280497   3.748   4.536   0.505  1.5136 -1.0117  0.4643
26539TIP3   OH280498  10.143   3.432   5.985  0.3024 -0.4823  0.5000
26539TIP3    H180499  10.096   3.511   5.958 -1.2973 -1.8147 -0.8691
26539TIP3    H280500  10.234   3.461   5.996 -0.5889  1.9790  2.2680
26540TIP3   OH280501   5.297   8.474   1.392  0.0098  0.1253 -0.4009
26540TIP3    H180502   5.343   8.485   1.309  2.4415  0.3811  0.8845
26540TIP3    H280503   5.294   8.562   1.430 -0.0859 -0.1607  0.2731
26541TIP3   OH280504   1.543   5.996   9.957 -0.1362 -0.2609  0.1303
26541TIP3    H180505   1.462   6.034   9.993  0.2744 -0.3284  1.1441
26541TIP3    H280506   1.513   5.922   9.904 -0.7028 -0.6883  1.0249
26542TIP3   OH280507   6.254   4.253   6.751  0.0956 -0.0834 -0.2755
26542TIP3    H180508   6.237   4.291   6.665  1.1545 -0.0142 -0.4694
26542TIP3    H280509   6.258   4.159   6.735 -2.7246 -0.3890  0.2369
26543TIP3   OH280510   3.729   2.391   3.761  0.0525  0.2188  1.1221
26543TIP3    H180511   3.815   2.383   3.802  0.1812  2.6461  1.5191
26543TIP3    H280512   3.736   2.341   3.680  1.2651 -1.0119  1.9380
26544TIP3   OH280513   3.929   9.102   8.149 -0.2169  0.1107  0.9032
26544TIP3    H180514   3.886   9.147   8.221 -1.2501 -0.5629  0.7248
26544TIP3    H280515   3.900   9.149   8.071  0.6394  0.6344  0.8815
26545TIP3   OH280516  10.547   2.730  10.559 -0.1748 -0.3249  0.4810
26545TIP3    H180517  10.494   2.803  10.527  0.2172 -1.1193 -2.2282
26545TIP3    H280518  10.484   2.661  10.579 -0.3452 -0.2776  0.1088
26546TIP3   OH280519   5.199   3.585   8.086 -0.0214 -0.4314 -0.0006
26546TIP3    H180520   5.239   3.592   8.173  1.0442 -1.2055 -0.4152
26546TIP3    H280521   5.263   3.623   8.027 -0.9844  0.6247 -0.4189
26547TIP3   OH280522   3.207   7.495   4.155  0.1228 -0.3632  0.3627
26547TIP3    H180523   3.302   7.487   4.148  0.1568  1.0998 -2.2240
26547TIP3    H280524   3.177   7.404   4.164  1.6785 -1.1068 -1.0948
26548TIP3   OH280525   0.543  10.130   1.453 -0.0415  0.2812  0.4086
26548TIP3    H180526   0.561  10.209   1.402 -2.0472  1.6097  1.6227
26548TIP3    H280527   0.593  10.142   1.534  1.3846 -0.7975 -0.2501
26549TIP3   OH280528  10.671   6.754   9.648 -0.3861 -0.1088  0.1587
26549TIP3    H180529  10.635   6.671   9.679 -1.0474  0.4846  1.0433
26549TIP3    H280530  10.614   6.778   9.574  0.6571 -1.0979 -1.0016
26550TIP3   OH280531  10.845   2.978   4.224 -0.4621  0.2176 -0.3891
26550TIP3    H180532  10.770   3.010   4.274 -0.7272  1.9163 -1.7971
26550TIP3    H280533  10.828   3.006   4.134 -0.5030 -3.5502 -1.7493
26551TIP3   OH280534  10.423   3.277   7.070 -0.0835 -0.1172 -0.3178
26551TIP3    H180535  10.425   3.182   7.077 -0.8395 -0.0822  0.6808
26551TIP3    H280536  10.493   3.307   7.129  1.2990 -0.0675 -1.9074
26552TIP3   OH280537   3.266   1.563   4.309 -0.0373 -0.1121  0.3141
26552TIP3    H180538   3.258   1.517   4.393 -3.6255  0.6577  0.5315
26552TIP3    H280539   3.327   1.509   4.259 -0.1664 -2.3043  2.3173
26553TIP3   OH280540   9.315   3.851   2.191  0.0243 -0.4481  0.0588
26553TIP3    H180541   9.274   3.937   2.204  1.3839  0.0379  1.3876
26553TIP3    H280542   9.290   3.800   2.268  0.9199 -0.5298  0.3068
26554TIP3   OH280543   3.702   1.669   7.336  0.2628 -0.6507 -0.1906
26554TIP3    H180544   3.763   1.743   7.334  2.1321 -2.1027 -0.9011
26554TIP3    H280545   3.660   1.675   7.422  0.2850  1.2584 -0.2815
26555TIP3   OH280546   8.661   7.802   6.030 -0.0029 -0.1209 -0.0125
26555TIP3    H180547   8.609   7.728   6.000  1.0185 -1.0813  0.5181
26555TIP3    H280548   8.601   7.852   6.085 -0.5463 -0.8971  0.1198
26556TIP3   OH280549   5.305   9.247   5.429 -0.9009  0.6891  0.0600
26556TIP3    H180550   5.317   9.163   5.472 -1.5783  0.8849  0.6476
26556TIP3    H280551   5.389   9.292   5.439 -1.3377  1.1448  2.1073
26557TIP3   OH280552   6.111   2.190  10.773  0.3694 -0.3764  0.3662
26557TIP3    H180553   6.127   2.229  10.860 -1.0579  3.2789 -0.8129
26557TIP3    H280554   6.020   2.161  10.777  0.8163 -1.8063  0.5749
26558TIP3   OH280555   4.278   4.021   0.039 -0.1558  0.2636 -0.7458
26558TIP3    H180556   4.244   3.952  -0.018  0.1336 -0.0289 -0.5710
26558TIP3    H280557   4.200   4.066   0.071 -0.4182 -0.6672 -0.0164
26559TIP3   OH280558   4.620   0.699   5.653  0.0878  0.2661 -0.2241
26559TIP3    H180559   4.584   0.723   5.738  0.4089  0.7035 -0.2061
26559TIP3    H280560   4.653   0.610   5.664  1.6815  0.9206  0.6097
26560TIP3   OH280561  10.145   3.291   0.476  0.2150  0.1503  0.5130
26560TIP3    H180562  10.159   3.379   0.510  0.7734  0.4634 -0.4880
26560TIP3    H280563  10.233   3.258   0.458 -0.0526 -0.0848 -0.4119
26561TIP3   OH280564   6.165   7.994   2.858  0.0403  0.0913 -0.4278
26561TIP3    H180565   6.225   8.018   2.930 -0.5077  1.5813 -0.4310
26561TIP3    H280566   6.200   7.911   2.826  2.1674  0.9164 -0.4658
26562TIP3   OH280567   0.940   6.721   7.018  0.2064  0.3965  0.6866
26562TIP3    H180568   0.870   6.663   7.048  0.0143  0.4190  0.2892
26562TIP3    H280569   0.896   6.784   6.962  0.5011  0.5939  0.6762
26563TIP3   OH280570   7.376   5.968   1.198  0.1085  0.1279  0.0261
26563TIP3    H180571   7.345   5.977   1.108 -0.8206 -0.4852  0.2599
26563TIP3    H280572   7.431   5.890   1.197 -0.4507 -0.2738  0.1154
26564TIP3   OH280573   8.566   2.331   0.221  0.1030  0.0392  0.4351
26564TIP3    H180574   8.579   2.237   0.204  1.2795  0.3434 -0.4377
26564TIP3    H280575   8.650   2.371   0.200 -0.8013  1.4805 -0.5704
26565TIP3   OH280576   6.718   2.562  10.497  0.0224 -0.1151  0.3187
26565TIP3    H180577   6.693   2.528  10.412 -0.6588  0.0563  0.4455
26565TIP3    H280578   6.813   2.553  10.500  0.3506  1.9150 -1.3659
26566TIP3   OH280579   0.232   0.696   5.265  0.8367 -0.7010  1.0002
26566TIP3    H180580   0.285   0.767   5.301 -0.2671 -0.1379  1.5595
26566TIP3    H280581   0.239   0.705   5.170  1.8306 -0.7208  1.0590
26567TIP3   OH280582   6.111   7.399   5.813 -0.3306  0.0138  0.2839
26567TIP3    H180583   6.076   7.311   5.795 -0.5214  0.2556 -0.5714
26567TIP3    H280584   6.188   7.406   5.757 -0.8825  0.7532 -0.4093
26568TIP3   OH280585   4.700   1.351   4.488  0.2399 -0.7332  0.4728
26568TIP3    H180586   4.709   1.328   4.396  1.4515 -0.2327  0.4397
26568TIP3    H280587   4.606   1.353   4.504 -0.0744  1.1516 -1.2725
26569TIP3   OH280588   8.463   6.343   4.464 -0.1825  0.5760 -0.0270
26569TIP3    H180589   8.450   6.368   4.556 -0.5064 -0.0019  0.0938
26569TIP3    H280590   8.522   6.409   4.429  0.7753  0.2170  0.8748
26570TIP3   OH280591   6.438   7.099   4.036  0.0859  0.2748  0.1998
26570TIP3    H180592   6.460   7.076   4.126 -2.3119 -1.9802  0.3379
26570TIP3    H280593   6.520   7.088   3.987  0.8868 -0.8237  1.7145
26571TIP3   OH280594   7.304   4.035   1.622 -0.3869 -0.1156 -0.4017
26571TIP3    H180595   7.276   3.964   1.679  1.2943 -0.9492 -0.5674
26571TIP3    H280596   7.350   4.096   1.680 -1.0876  0.4378 -0.4085
26572TIP3   OH280597   6.200   0.813   9.534  0.7119 -0.2663 -0.9002
26572TIP3    H180598   6.220   0.727   9.571  0.2759  0.2688  0.6514
26572TIP3    H280599   6.136   0.851   9.594  1.0134  1.2136 -1.4715
26573TIP3   OH280600  10.411   5.181   4.857 -0.0558 -0.0310  0.4676
26573TIP3    H180601  10.445   5.242   4.793  0.5550 -1.3327 -0.4868
26573TIP3    H280602  10.322   5.160   4.826 -0.2806  0.3943  0.8174
26574TIP3   OH280603   4.258   2.906   0.613  0.2214 -0.1810  0.0423
26574TIP3    H180604   4.248   2.948   0.698 -0.1331 -1.9098  0.9017
26574TIP3    H280605   4.336   2.851   0.623 -0.6451 -1.5018 -0.2487
26575TIP3   OH280606   7.351   8.859   2.567 -0.1701 -0.4699 -0.8025
26575TIP3    H180607   7.282   8.917   2.599  0.4106 -1.3165  2.2562
26575TIP3    H280608   7.313   8.772   2.572  0.4749 -0.7684 -1.0220
26576TIP3   OH280609   9.180   2.083   2.624 -0.7046 -0.0804  0.5864
26576TIP3    H180610   9.088   2.108   2.615 -0.8112  0.6561  2.9272
26576TIP3    H280611   9.228   2.153   2.580 -1.2273 -0.0053  0.1193
26577TIP3   OH280612   3.368   1.676   8.931 -0.1008  0.3575  0.1915
26577TIP3    H180613   3.357   1.762   8.972  0.4194 -0.3392  1.9021
26577TIP3    H280614   3.283   1.633   8.941 -0.3389  0.6346 -0.5951
26578TIP3   OH280615   5.015   5.858   1.702  0.3604 -0.2614  0.3999
26578TIP3    H180616   5.060   5.923   1.648 -0.7741 -0.1372 -0.4384
26578TIP3    H280617   5.084   5.799   1.732  1.4244  1.2849  1.1664
26579TIP3   OH280618   7.668   2.410   3.681  0.2644 -0.6248 -0.9605
26579TIP3    H180619   7.692   2.383   3.592 -2.1448  0.8510 -2.1410
26579TIP3    H280620   7.607   2.482   3.669 -0.3154 -0.5164  1.9306
26580TIP3   OH280621   4.988   3.456   6.001  0.1480 -0.3777  0.0648
26580TIP3    H180622   4.909   3.458   6.055  0.5911 -0.4271  0.7229
26580TIP3    H280623   5.043   3.389   6.041  0.4275 -0.5116 -0.5309
26581TIP3   OH280624   7.678   9.721   1.797 -0.3268  0.4242  0.4977
26581TIP3    H180625   7.736   9.724   1.721  1.7803 -0.1001  1.9896
26581TIP3    H280626   7.656   9.628   1.807  1.8020  0.0235  2.1488
26582TIP3   OH280627   9.200   5.757   3.008  0.0164 -0.2803 -0.9055
26582TIP3    H180628   9.261   5.689   2.978 -0.8953 -0.7213 -1.7875
26582TIP3    H280629   9.227   5.774   3.099  1.9991  0.1485 -1.5214
26583TIP3   OH280630   6.581   8.035  10.707  0.3828 -0.3605 -0.1500
26583TIP3    H180631   6.590   7.975  10.781  0.5807 -0.6208 -0.3849
26583TIP3    H280632   6.648   8.102  10.721  0.3892 -0.3836 -0.0710
26584TIP3   OH280633   2.358   7.841   9.122  0.2196  0.4320 -0.0713
26584TIP3    H180634   2.288   7.801   9.174 -0.9693  3.5896  0.9953
26584TIP3    H280635   2.321   7.849   9.034 -0.8233  1.9545  0.4542
26585TIP3   OH280636   0.170   3.692   5.879 -0.1570  0.1832  0.8148
26585TIP3    H180637   0.190   3.781   5.907 -0.5860  0.9716 -1.1763
26585TIP3    H280638   0.088   3.670   5.923  0.2802  0.5053  1.8178
26586TIP3   OH280639   6.817   0.414   4.672  0.0585  0.0007  0.1237
26586TIP3    H180640   6.894   0.468   4.654 -0.5557  0.1017 -2.5475
26586TIP3    H280641   6.842   0.363   4.749  2.4107  0.7773 -0.0354
26587TIP3   OH280642  10.673   2.243   6.805  0.7071 -0.1567 -0.7290
26587TIP3    H180643  10.689   2.256   6.712  1.4802  1.1835 -0.4270
26587TIP3    H280644  10.650   2.329   6.839  0.4467 -0.6196  0.3284
26588TIP3   OH280645   4.213   1.920   2.082  0.4905 -0.7135  0.1188
26588TIP3    H180646   4.218   1.993   2.021 -2.9284 -0.5534 -0.1533
26588TIP3    H280647   4.200   1.961   2.168 -1.1198 -0.9339  0.0102
26589TIP3   OH280648  10.894   7.337   8.573 -0.4499 -0.2947 -0.0512
26589TIP3    H180649  10.932   7.249   8.571 -0.2743 -0.2748  1.1679
26589TIP3    H280650  10.838   7.341   8.496 -0.5746 -1.5310 -0.0433
26590TIP3   OH280651   8.769  10.378   4.113 -0.3694  0.5189 -0.2976
26590TIP3    H180652   8.681  10.413   4.130 -0.7735 -1.0636  1.1047
26590TIP3    H280653   8.766  10.288   4.145  1.2103 -0.2030 -1.9967
26591TIP3   OH280654   2.538   6.993   9.305  0.2316  0.2742  0.1115
26591TIP3    H180655   2.446   6.977   9.283  0.5780 -1.1494 -0.4157
26591TIP3    H280656   2.544   6.973   9.398  0.1150 -0.1686  0.0276
26592TIP3   OH280657   3.985   7.735   1.441 -0.1317 -0.5922  0.3362
26592TIP3    H180658   3.975   7.730   1.537 -1.6576 -2.2067  0.1479
26592TIP3    H280659   3.982   7.829   1.422 -4.1514 -0.2831  1.5559
26593TIP3   OH280660   3.383   2.748  10.787 -0.4478 -0.3869 -0.1287
26593TIP3    H180661   3.435   2.668  10.797  0.6225  0.1710 -1.0262
26593TIP3    H280662   3.304   2.731  10.837  0.4933 -1.3623  1.1027
26594TIP3   OH280663   6.259   7.889   9.844  0.1884 -0.5593  0.2025
26594TIP3    H180664   6.225   7.801   9.860 -0.9881 -0.0969  0.3466
26594TIP3    H280665   6.300   7.884   9.757  0.4531 -1.3239  0.3607
26595TIP3   OH280666   7.538   4.538   2.277  0.0404 -0.3364 -0.0364
26595TIP3    H180667   7.486   4.605   2.322  0.6035  0.5683 -0.6900
26595TIP3    H280668   7.541   4.465   2.338 -0.8041  0.1417  0.5949
26596TIP3   OH280669   9.794   8.863   4.983  0.1868 -0.4927  0.0771
26596TIP3    H180670   9.710   8.819   4.967  0.0549 -0.1372 -0.2113
26596TIP3    H280671   9.793   8.883   5.077 -1.5865  2.6045 -0.4556
26597TIP3   OH280672   8.427   8.223   5.160  0.1929  0.2709 -0.4313
26597TIP3    H180673   8.411   8.303   5.210 -2.3170  0.2563 -1.1237
26597TIP3    H280674   8.447   8.253   5.071 -0.5900  0.1652 -0.6527
26598TIP3   OH280675   5.803   9.265   7.583  0.2561  0.3614 -0.0394
26598TIP3    H180676   5.798   9.170   7.596  0.2912  0.4343  0.5390
26598TIP3    H280677   5.858   9.276   7.505 -1.0245 -0.1392 -1.0485
26599TIP3   OH280678   3.679   9.827   4.510 -0.5363  0.1914  1.2339
26599TIP3    H180679   3.738   9.855   4.439 -1.6936  0.8790  0.5143
26599TIP3    H280680   3.684   9.732   4.509  0.5853  0.2351  1.2117
26600TIP3   OH280681  10.060   5.816   0.299 -0.2591 -0.1961  0.0642
26600TIP3    H180682   9.987   5.854   0.347  0.9375  1.5256  0.6416
26600TIP3    H280683  10.078   5.878   0.228  1.6999  0.3516  0.9651
26601TIP3   OH280684   1.912   7.331   5.621  0.2287  0.1361  0.1552
26601TIP3    H180685   1.921   7.358   5.712  1.8775 -0.3641  0.1780
26601TIP3    H280686   1.855   7.398   5.582  0.3267  0.9287  1.3141
26602TIP3   OH280687  10.671   4.509   2.182  0.4036 -0.7298  0.0916
26602TIP3    H180688  10.622   4.469   2.254  0.4751  0.0836  0.6164
26602TIP3    H280689  10.605   4.530   2.116  0.4695 -2.4374 -0.5699
26603TIP3   OH280690   9.535   1.230  10.121  0.0831  0.1849 -0.4880
26603TIP3    H180691   9.529   1.252  10.214  0.2343 -0.4665 -0.3187
26603TIP3    H280692   9.468   1.163  10.108 -1.7195  2.0370 -1.4164
26604TIP3   OH280693   4.322   1.931   8.455  0.0392 -0.0306 -0.4030
26604TIP3    H180694   4.345   1.917   8.546 -0.0990  0.3188 -0.3141
26604TIP3    H280695   4.352   2.020   8.436  0.2612 -0.1774 -0.7579
26605TIP3   OH280696   9.489   8.221   3.278  0.2625  0.1198 -0.0165
26605TIP3    H180697   9.543   8.295   3.307 -0.1588 -0.2711  1.9280
26605TIP3    H280698   9.422   8.212   3.346 -3.1180  1.3286 -2.8756
26606TIP3   OH280699   4.930   6.839   7.495 -0.3934  0.6584  0.3525
26606TIP3    H180700   4.864   6.791   7.444 -0.1103  0.2385  0.3740
26606TIP3    H280701   4.886   6.862   7.576 -0.3125 -0.2337  0.6652
26607TIP3   OH280702   2.899   4.667  10.730  0.2277  0.5860  0.4747
26607TIP3    H180703   2.985   4.636  10.701  0.1747  0.1527  0.7836
26607TIP3    H280704   2.919   4.738  10.792  0.3452  1.1570 -0.1979
26608TIP3   OH280705   5.722   3.129   9.333  0.8930  0.1594 -0.3393
26608TIP3    H180706   5.747   3.118   9.241 -3.3298 -1.0697 -1.5664
26608TIP3    H280707   5.666   3.206   9.333 -0.6755 -0.9375  0.7984
26609TIP3   OH280708   5.162  10.646   8.909  0.8853  0.5724  0.0261
26609TIP3    H180709   5.228  10.608   8.850 -0.2260 -1.7424  0.1589
26609TIP3    H280710   5.186  10.614   8.996  0.5535  1.1448  0.3351
26610TIP3   OH280711   7.297   7.549   0.942 -0.1768  0.6728 -0.4828
26610TIP3    H180712   7.344   7.485   0.996 -0.4685  0.0583 -0.9509
26610TIP3    H280713   7.349   7.557   0.863 -0.9625 -0.1983 -1.1128
26611TIP3   OH280714   4.176   0.237   0.990 -0.3771 -0.0242  0.1376
26611TIP3    H180715   4.091   0.235   0.945 -0.9040  1.0983  1.0280
26611TIP3    H280716   4.214   0.322   0.966  0.0466 -0.0971  0.5335
26612TIP3   OH280717   5.240   7.605   1.102 -0.0154  0.4116 -0.4706
26612TIP3    H180718   5.205   7.653   1.177  1.2514 -1.0836  1.1432
26612TIP3    H280719   5.311   7.661   1.069 -0.3073  0.8842 -0.3079
26613TIP3   OH280720   8.227   6.470   0.240 -0.0025 -0.0500 -0.1253
26613TIP3    H180721   8.170   6.395   0.222  0.1013  0.1633 -1.3983
26613TIP3    H280722   8.256   6.456   0.331 -1.7713 -0.3492  0.4329
26614TIP3   OH280723   6.753   3.456   5.095  0.4655 -0.5144 -0.4484
26614TIP3    H180724   6.753   3.444   5.190 -1.4520 -0.0566 -0.3386
26614TIP3    H280725   6.774   3.548   5.082  3.2527 -1.1021 -0.6541
26615TIP3   OH280726   8.616   8.058   9.654  0.2292  0.3383 -0.4335
26615TIP3    H180727   8.525   8.087   9.645  0.0403 -0.5809 -2.0228
26615TIP3    H280728   8.613   7.991   9.722 -0.3543  0.0746 -0.7083
26616TIP3   OH280729   0.183   6.466   6.756  0.1435 -0.4780  0.0980
26616TIP3    H180730   0.141   6.505   6.833  0.0362 -0.0200 -0.1930
26616TIP3    H280731   0.176   6.371   6.770  1.4161 -0.4222  1.3679
26617TIP3   OH280732   3.385   2.401   7.215 -0.7513  0.5137 -0.0519
26617TIP3    H180733   3.375   2.453   7.135  0.0269  0.0747 -0.4472
26617TIP3    H280734   3.455   2.445   7.263 -0.4182  0.1057 -0.1630
26618TIP3   OH280735   1.078   8.600   0.826  0.1668  0.1909 -0.6977
26618TIP3    H180736   1.133   8.591   0.903  1.1085  1.0099 -1.2564
26618TIP3    H280737   1.119   8.669   0.774  0.2130 -1.1196 -2.5048
26619TIP3   OH280738   8.173   0.989   7.386 -0.2360  0.1811  0.1275
26619TIP3    H180739   8.225   1.023   7.313 -0.0087  0.1251  0.2621
26619TIP3    H280740   8.218   1.021   7.464 -0.2487 -0.0980  0.2487
26620TIP3   OH280741   7.040   2.810   2.162  0.3166  0.5916  0.0591
26620TIP3    H180742   7.104   2.742   2.183 -0.0147 -0.0453 -0.9029
26620TIP3    H280743   7.061   2.836   2.072  0.1440  1.4375  0.2561
26621TIP3   OH280744   7.787  10.554  10.778 -0.0874 -0.2887 -0.4115
26621TIP3    H180745   7.698  10.518  10.785  0.8189 -2.7748 -0.7828
26621TIP3    H280746   7.843  10.487  10.816  1.7091  0.9921 -0.6831
26622TIP3   OH280747   7.270   8.022   9.124 -0.0627 -0.3319  0.2396
26622TIP3    H180748   7.244   8.080   9.052 -0.0067  0.9719  1.2374
26622TIP3    H280749   7.334   7.963   9.085  0.1687  0.5217 -0.7284
26623TIP3   OH280750   2.017   5.092   8.486 -0.0574 -0.4131  0.1240
26623TIP3    H180751   1.941   5.114   8.540  0.2122 -0.0404  0.3586
26623TIP3    H280752   2.059   5.177   8.470 -1.0412 -0.2834 -2.0683
26624TIP3   OH280753   5.052   6.250   9.971 -0.2347  0.2331 -0.1789
26624TIP3    H180754   4.971   6.295   9.947 -1.4657 -1.7640 -0.0587
26624TIP3    H280755   5.072   6.194   9.895 -0.3029 -1.0018  0.6751
26625TIP3   OH280756   4.602   5.859   5.093 -0.1393  0.1719  0.3760
26625TIP3    H180757   4.514   5.882   5.066  0.6592  0.9641 -1.7395
26625TIP3    H280758   4.590   5.784   5.152 -2.0786 -1.7957 -2.2660
26626TIP3   OH280759  10.434   0.735   0.229 -0.2910 -0.2684 -0.3992
26626TIP3    H180760  10.441   0.776   0.315  0.8648  0.1819 -0.6875
26626TIP3    H280761  10.470   0.647   0.241 -0.8355 -0.4701 -0.2497
26627TIP3   OH280762   7.712   2.174   1.810  0.3334  0.4913  0.0895
26627TIP3    H180763   7.618   2.175   1.790 -0.1269  2.9288  1.9435
26627TIP3    H280764   7.743   2.260   1.783  2.2969 -0.5685 -1.2929
26628TIP3   OH280765   0.099  10.040   7.723  0.5793 -0.0498 -0.9361
26628TIP3    H180766   0.121  10.109   7.659 -1.5405  2.2880  0.6799
26628TIP3    H280767   0.048   9.977   7.673  0.6245  0.7030 -1.9789
26629TIP3   OH280768  10.889   9.091   7.065 -0.1856 -0.3313 -0.7010
26629TIP3    H180769  10.908   9.121   7.154 -2.5713 -0.2736 -0.1322
26629TIP3    H280770  10.812   9.143   7.039 -0.2831 -1.2224 -2.3142
26630TIP3   OH280771   4.871   7.835   6.535  0.5916  0.4985 -0.3132
26630TIP3    H180772   4.949   7.889   6.537  1.3265 -0.5512  0.6220
26630TIP3    H280773   4.898   7.756   6.488  0.1793  0.0295  0.2164
26631TIP3   OH280774   5.060   9.485   6.599  0.1264  0.1640 -0.3702
26631TIP3    H180775   5.086   9.447   6.514  0.5106  0.8560 -0.5711
26631TIP3    H280776   4.978   9.531   6.581  0.5388  0.8488 -0.5157
26632TIP3   OH280777   0.464   4.461   1.903 -0.5914 -0.1612  0.4295
26632TIP3    H180778   0.422   4.445   1.987  0.1246 -1.5705  0.5486
26632TIP3    H280779   0.552   4.426   1.913  0.9318  3.2251  0.3828
26633TIP3   OH280780   2.939   2.342   0.678  0.4582 -0.3180 -0.1743
26633TIP3    H180781   2.988   2.349   0.596  1.4364 -2.3192  0.1687
26633TIP3    H280782   2.848   2.358   0.654  0.9444  0.8794 -1.3157
26634TIP3   OH280783   3.275   6.704   7.503 -0.3252 -0.4784  0.5799
26634TIP3    H180784   3.268   6.678   7.411 -1.1131 -1.1588  0.8165
26634TIP3    H280785   3.245   6.627   7.552 -0.5219  0.0916  1.3806
26635TIP3   OH280786   1.465   4.853   4.803 -0.0816  0.7870  0.2911
26635TIP3    H180787   1.464   4.908   4.724 -0.8791  0.9915  0.4358
26635TIP3    H280788   1.449   4.914   4.875 -0.9441  0.3863  0.4552
26636TIP3   OH280789   4.555   4.988   1.908  0.4121 -0.1175 -0.3949
26636TIP3    H180790   4.486   4.939   1.953  1.9686 -2.2370 -0.2057
26636TIP3    H280791   4.592   5.044   1.977 -2.1054  2.3567 -0.8633
26637TIP3   OH280792   8.280  10.714   5.332  0.1184 -0.2583  0.5801
26637TIP3    H180793   8.320  10.627   5.328 -1.4981 -0.9861 -0.5282
26637TIP3    H280794   8.205  10.704   5.390 -0.1380  0.3817  0.3685
26638TIP3   OH280795   1.782   8.076   1.390  0.5205 -0.0533 -0.1397
26638TIP3    H180796   1.734   8.005   1.434  0.6298 -0.2421 -0.3256
26638TIP3    H280797   1.715   8.124   1.343  0.4200  0.0715  0.1285
26639TIP3   OH280798   9.252  10.730   4.121 -0.1616 -0.0392  0.0106
26639TIP3    H180799   9.235  10.656   4.180  0.1940 -0.4212 -0.3524
26639TIP3    H280800   9.230  10.696   4.034  2.1889 -0.4952 -0.4649
26640TIP3   OH280801   3.903   1.866   0.428 -0.2970 -0.6165 -0.3834
26640TIP3    H180802   3.937   1.778   0.411 -1.1701 -1.2392  0.9512
26640TIP3    H280803   3.808   1.855   0.430 -0.4214  0.3843 -0.2639
26641TIP3   OH280804   3.178   4.397   2.937 -0.1997 -0.5282 -0.2184
26641TIP3    H180805   3.083   4.388   2.935 -0.5139  2.1152 -1.1286
26641TIP3    H280806   3.205   4.384   2.846  0.1548 -0.0241 -0.1879
26642TIP3   OH280807  10.727   8.389   6.951  0.0903 -0.3836  0.2912
26642TIP3    H180808  10.796   8.355   7.007 -0.0118 -0.5008  0.3475
26642TIP3    H280809  10.675   8.312   6.928 -1.4135  0.0145  2.1397
26643TIP3   OH280810  10.906  10.781   3.922 -0.8330  0.5052 -0.1370
26643TIP3    H180811  10.987  10.732   3.915  0.1163  1.5570  2.3356
26643TIP3    H280812  10.909  10.842   3.848 -1.2585 -1.8979 -2.2727
26644TIP3   OH280813   4.830   4.919   0.707 -0.7727 -0.6398 -0.2309
26644TIP3    H180814   4.923   4.932   0.685 -1.2235  1.7869 -1.0238
26644TIP3    H280815   4.800   4.851   0.646  0.0309 -0.0240 -1.3633
26645TIP3   OH280816  10.901   8.775   3.334  0.0981  1.0914 -0.4070
26645TIP3    H180817  10.877   8.862   3.302  1.2396  1.1347 -1.1806
26645TIP3    H280818  10.884   8.779   3.428  1.1970  2.5215 -0.2403
26646TIP3   OH280819   0.916   5.153   4.289 -0.3180 -0.2029  0.3635
26646TIP3    H180820   1.010   5.163   4.305  0.0301 -1.8616 -0.4349
26646TIP3    H280821   0.878   5.238   4.314  1.4865  0.7766 -0.0677
26647TIP3   OH280822   3.456   8.507   2.085 -0.1850  0.3772  0.1750
26647TIP3    H180823   3.376   8.487   2.132 -0.4098 -0.5448 -0.5728
26647TIP3    H280824   3.440   8.593   2.044 -1.6014 -0.6792 -1.6284
26648TIP3   OH280825   0.818   3.046  10.802 -0.1361  0.3635 -0.3857
26648TIP3    H180826   0.828   3.133  10.839  0.4973  0.0445  0.2138
26648TIP3    H280827   0.776   2.995  10.871  0.3380 -0.0372 -0.3842
26649TIP3   OH280828   7.834   4.445   4.056 -0.2592 -0.1899 -0.0686
26649TIP3    H180829   7.894   4.502   4.009 -0.5728  0.5111  0.3570
26649TIP3    H280830   7.877   4.428   4.140 -1.2464  1.4992  0.8375
26650TIP3   OH280831   8.740   7.818   2.914  0.0829  0.0760 -0.4821
26650TIP3    H180832   8.739   7.906   2.953  0.1797  0.2230 -0.8075
26650TIP3    H280833   8.690   7.765   2.975  1.8400 -0.1403  0.8505
26651TIP3   OH280834   2.871   3.073   9.864  0.3078 -0.5294 -0.3005
26651TIP3    H180835   2.836   3.140   9.805  0.5309 -1.5762 -1.6894
26651TIP3    H280836   2.925   3.018   9.807  0.6544 -1.5060  0.9343
26652TIP3   OH280837   9.737   9.160  10.331 -0.3477  0.0143 -0.0060
26652TIP3    H180838   9.685   9.204  10.399  0.6889 -1.5136  1.9016
26652TIP3    H280839   9.814   9.216  10.320  0.1438 -0.4013  1.1459
26653TIP3   OH280840   2.382   7.399  10.189 -0.4550 -0.6913  0.0249
26653TIP3    H180841   2.288   7.401  10.169 -0.5250 -0.7772  0.3398
26653TIP3    H280842   2.389   7.441  10.275 -0.2821 -1.2521  0.2885
26654TIP3   OH280843   1.900   5.965   2.850 -0.4462  0.0141 -0.4959
26654TIP3    H180844   1.967   5.929   2.909 -0.0172  0.4320 -0.7253
26654TIP3    H280845   1.929   5.941   2.762  0.5030  1.9213 -0.7567
26655TIP3   OH280846   9.925   7.174   6.548 -0.0589  0.4489  0.1281
26655TIP3    H180847   9.997   7.130   6.502 -0.1959  2.0330 -1.7062
26655TIP3    H280848   9.933   7.266   6.524 -1.1324  1.1127  2.0522
26656TIP3   OH280849   1.159   1.084   9.852  0.6440  0.4979 -0.6394
26656TIP3    H180850   1.172   1.036   9.771  1.2061 -0.0057 -0.2653
26656TIP3    H280851   1.096   1.032   9.901  0.0851  0.9511 -0.8659
26657TIP3   OH280852   7.578   8.220   0.046  0.1381  0.0107  0.4522
26657TIP3    H180853   7.534   8.293   0.004 -1.7417 -0.8183  0.8887
26657TIP3    H280854   7.508   8.161   0.073  1.5561 -1.7617  0.4956
26658TIP3   OH280855   2.243   2.463   0.307  0.2921 -0.5719  0.0571
26658TIP3    H180856   2.209   2.537   0.256 -1.0474 -2.0803 -1.3418
26658TIP3    H280857   2.327   2.494   0.341 -1.1244  2.3245  1.2786
26659TIP3   OH280858   7.910   5.331   5.356 -0.2536 -0.0253 -0.1875
26659TIP3    H180859   7.838   5.275   5.326  0.7463 -1.0286 -0.7851
26659TIP3    H280860   7.977   5.270   5.385 -0.3037  0.9020  2.0730
26660TIP3   OH280861   8.799   0.724   1.291 -0.2508 -0.1512  0.2176
26660TIP3    H180862   8.762   0.637   1.302  0.3170 -0.3257  0.7788
26660TIP3    H280863   8.747   0.763   1.220 -1.5548 -0.3528  1.0269
26661TIP3   OH280864   5.356   9.824   9.573 -0.0186  0.2045  0.7914
26661TIP3    H180865   5.438   9.843   9.528  0.2647  1.0638  1.6352
26661TIP3    H280866   5.377   9.835   9.666 -1.0159  0.1368  1.0315
26662TIP3   OH280867   9.559   4.570   9.036 -0.2455  0.1276  0.3341
26662TIP3    H180868   9.650   4.544   9.051 -0.0535  0.6811  0.1549
26662TIP3    H280869   9.562   4.665   9.032 -0.6409  0.1085 -0.9011
26663TIP3   OH280870   1.714   3.652   7.771  0.8200 -0.6955  0.3876
26663TIP3    H180871   1.783   3.684   7.829  0.4880 -0.9629  0.9427
26663TIP3    H280872   1.739   3.684   7.684  1.3854 -0.3841  0.6556
26664TIP3   OH280873   1.352  10.830   0.723  0.2726  0.1545  0.1035
26664TIP3    H180874   1.366  10.738   0.745  0.3308  0.2649  0.5514
26664TIP3    H280875   1.406  10.878   0.787  0.1320  0.4998 -0.0345
26665TIP3   OH280876   6.843   6.979   0.579  0.5195 -0.2802 -0.4669
26665TIP3    H180877   6.908   6.916   0.546 -0.4512 -1.4847 -0.1522
26665TIP3    H280878   6.785   6.926   0.634  1.1586  1.3525  1.9534
26666TIP3   OH280879   0.967   9.799   3.490 -0.0397  0.2548  0.6311
26666TIP3    H180880   0.965   9.760   3.577 -1.2495  0.4650  0.7112
26666TIP3    H280881   0.884   9.845   3.482  0.3015  0.7263 -0.4186
26667TIP3   OH280882   8.800   8.220   4.756 -0.1092 -0.4884  0.3117
26667TIP3    H180883   8.794   8.226   4.851 -3.6132 -2.2288  0.3727
26667TIP3    H280884   8.833   8.132   4.740 -0.3992 -0.5323 -0.0625
26668TIP3   OH280885   9.694   3.419   4.483 -0.3940 -0.1521 -0.1296
26668TIP3    H180886   9.763   3.358   4.456 -1.2434 -1.5677  0.7387
26668TIP3    H280887   9.656   3.451   4.401  1.2257  0.6146 -0.6201
26669TIP3   OH280888   3.668   8.249   7.713  0.0386 -0.3769 -0.0194
26669TIP3    H180889   3.714   8.166   7.704 -0.6709 -1.1112  2.3904
26669TIP3    H280890   3.737   8.313   7.734  0.2870 -1.0177  1.2492
26670TIP3   OH280891   1.367   1.099   1.596 -0.9277  0.4054  0.0997
26670TIP3    H180892   1.320   1.182   1.590 -0.2384  1.0030  1.9820
26670TIP3    H280893   1.375   1.084   1.690 -0.9565 -1.7747 -0.2047
26671TIP3   OH280894   5.929   9.642   9.657 -0.1757  0.9497 -0.2437
26671TIP3    H180895   5.871   9.711   9.689 -0.2901  0.4528  0.6466
26671TIP3    H280896   6.017   9.678   9.668 -0.1807  0.5578  1.2345
26672TIP3   OH280897   4.861   1.616   6.742  0.4856  0.2650  0.0587
26672TIP3    H180898   4.772   1.649   6.731  0.8070  0.8481 -0.9584
26672TIP3    H280899   4.902   1.628   6.656  1.4126 -0.4043  0.3857
26673TIP3   OH280900   1.429   7.126   8.356 -0.1430  0.0830  0.1815
26673TIP3    H180901   1.361   7.127   8.424 -0.7024 -0.6554 -0.3548
26673TIP3    H280902   1.497   7.070   8.392  0.3168  1.0313  0.8317
26674TIP3   OH280903   5.882   0.150   9.124  0.2512 -0.0169  0.1035
26674TIP3    H180904   5.925   0.230   9.155 -0.7931 -0.1430  2.0332
26674TIP3    H280905   5.833   0.179   9.047  1.3572  0.7726 -0.3312
26675TIP3   OH280906   9.505   6.707   5.891  0.1809  0.2380 -0.1041
26675TIP3    H180907   9.569   6.741   5.829  1.1482 -0.2731  0.5865
26675TIP3    H280908   9.469   6.785   5.934 -0.7987  0.6219 -1.5559
26676TIP3   OH280909   9.905   6.160   2.001  0.7875  0.2425  0.0174
26676TIP3    H180910   9.909   6.095   1.931 -0.1879 -0.1558  0.3108
26676TIP3    H280911   9.871   6.239   1.959 -0.4553 -0.1980  0.1638
26677TIP3   OH280912   5.967   7.596   0.582 -0.0760 -0.4937  0.6028
26677TIP3    H180913   5.946   7.686   0.555  1.4266 -0.4167 -0.4327
26677TIP3    H280914   5.887   7.564   0.623 -1.1581  0.7990 -0.4069
26678TIP3   OH280915  10.413   2.176   3.492  0.7077  0.1296 -0.9278
26678TIP3    H180916  10.386   2.150   3.404  0.8965  0.8250 -1.1996
26678TIP3    H280917  10.452   2.097   3.530  0.0481 -0.3489 -1.2278
26679TIP3   OH280918   0.217   2.305   3.517 -0.4778 -0.5856  0.2277
26679TIP3    H180919   0.298   2.311   3.467 -0.6199  0.9959  0.1569
26679TIP3    H280920   0.178   2.392   3.511 -1.6406 -1.0129  1.1807
26680TIP3   OH280921  10.232   3.584   7.042  0.4025  0.1000  0.6633
26680TIP3    H180922  10.149   3.576   6.994  0.8465 -0.3923 -0.0339
26680TIP3    H280923  10.287   3.637   6.985  1.1869 -1.0909  0.2784
26681TIP3   OH280924   5.143   8.121   2.044 -0.9640  0.3497 -0.3649
26681TIP3    H180925   5.217   8.155   1.993 -0.9976  2.4954  0.9283
26681TIP3    H280926   5.171   8.034   2.071  1.1368  1.1123  0.1099
26682TIP3   OH280927   8.676  10.026   7.013  0.5745 -0.6459  0.3042
26682TIP3    H180928   8.683  10.058   7.103 -1.0484  0.8545 -0.0450
26682TIP3    H280929   8.587   9.992   7.007  0.4187 -0.0536 -0.9259
26683TIP3   OH280930   7.326   2.417   0.511 -0.0697  0.5617 -0.0842
26683TIP3    H180931   7.358   2.505   0.490  0.7481  0.0023 -1.3063
26683TIP3    H280932   7.300   2.422   0.603 -0.2994  2.1521 -0.2020
26684TIP3   OH280933   3.693   4.328  10.586  0.0555  0.0624  0.6540
26684TIP3    H180934   3.626   4.384  10.623 -0.3789 -0.8104  1.2341
26684TIP3    H280935   3.662   4.308  10.498 -0.0006  0.3651  0.6046
26685TIP3   OH280936   2.444   1.765   2.537 -0.2462 -0.5037 -0.0220
26685TIP3    H180937   2.511   1.728   2.594  1.1412 -0.7366 -1.7072
26685TIP3    H280938   2.435   1.855   2.567  0.9070 -0.4341  0.1865
26686TIP3   OH280939   3.920   3.405   6.728  0.3348  0.8829 -0.1980
26686TIP3    H180940   4.014   3.386   6.729 -0.1924 -2.2205 -0.1677
26686TIP3    H280941   3.887   3.371   6.811 -1.1738 -0.5355 -1.3169
26687TIP3   OH280942   7.731   7.481   6.999 -0.4291 -0.6650  0.3514
26687TIP3    H180943   7.696   7.392   6.991  1.8830 -2.1037  3.6107
26687TIP3    H280944   7.681   7.521   7.070 -1.0461  0.4534 -0.6840
26688TIP3   OH280945   6.509   8.748   1.226 -0.2146  0.1877 -0.8091
26688TIP3    H180946   6.432   8.772   1.278  0.8964 -0.2442  1.1471
26688TIP3    H280947   6.521   8.821   1.165  0.9050  3.0041  2.4377
26689TIP3   OH280948   8.346   4.638   4.799 -0.7111  0.7662  0.0593
26689TIP3    H180949   8.282   4.703   4.770  0.8500  1.9245 -0.9604
26689TIP3    H280950   8.403   4.685   4.859 -0.4941 -0.1083  0.5611
26690TIP3   OH280951   1.629   2.276   2.477  0.1294  0.4992 -0.1637
26690TIP3    H180952   1.545   2.261   2.519  0.2856 -1.0042 -0.3326
26690TIP3    H280953   1.689   2.215   2.520  1.2960  1.9390  0.3591
26691TIP3   OH280954   3.167   6.691   0.875  0.1906 -0.0344 -0.0198
26691TIP3    H180955   3.152   6.627   0.805 -1.3151  0.6938 -0.4174
26691TIP3    H280956   3.234   6.651   0.930 -0.6941 -1.9545 -0.2527
26692TIP3   OH280957  10.122   6.162   5.359 -0.1266  0.0213  0.0723
26692TIP3    H180958  10.056   6.218   5.399 -0.5532  0.1549 -0.7773
26692TIP3    H280959  10.129   6.087   5.418  0.7870  1.1560  1.4593
26693TIP3   OH280960   4.733   8.197   1.607  0.4107  0.6911  0.2358
26693TIP3    H180961   4.678   8.265   1.646 -0.6809  0.5910 -1.0421
26693TIP3    H280962   4.804   8.184   1.670  0.3483  2.6176  0.7608
26694TIP3   OH280963   7.745  10.379   9.485 -0.6210 -0.0143 -0.5241
26694TIP3    H180964   7.778  10.319   9.419  0.6273  1.7069 -1.5363
26694TIP3    H280965   7.796  10.459   9.473 -0.1533  0.3136  2.7019
26695TIP3   OH280966   9.449   5.196   0.277 -0.0250  0.5026 -0.2938
26695TIP3    H180967   9.392   5.124   0.252  0.7177 -0.7151  1.3033
26695TIP3    H280968   9.491   5.223   0.196 -1.0444 -0.2179 -1.0813
26696TIP3   OH280969   1.756   7.225   3.440 -0.0258  0.0008 -0.0391
26696TIP3    H180970   1.769   7.142   3.484 -3.1433 -0.4853  0.2121
26696TIP3    H280971   1.702   7.276   3.500 -2.3073  0.2556 -2.1612
26697TIP3   OH280972   2.945   5.739   4.548 -0.1202 -0.5584 -0.1701
26697TIP3    H180973   2.972   5.670   4.609  1.7117  0.9257  0.7921
26697TIP3    H280974   2.901   5.804   4.603 -0.5802 -0.3079 -0.8197
26698TIP3   OH280975   1.073   7.114   2.515  0.2496 -0.1776 -0.1594
26698TIP3    H180976   1.038   7.194   2.555 -0.3116  0.0919 -1.1619
26698TIP3    H280977   1.168   7.125   2.518  0.1933  0.1890  0.3762
26699TIP3   OH280978   3.717   3.523   4.655 -0.0600  0.1769 -0.3079
26699TIP3    H180979   3.809   3.495   4.657 -0.7461 -2.3644  2.1059
26699TIP3    H280980   3.679   3.473   4.583 -0.0543 -0.8483  0.3728
26700TIP3   OH280981   9.604   6.639   0.982  0.0522 -0.3117  0.0013
26700TIP3    H180982   9.642   6.717   1.021 -0.0392 -0.8508  1.2012
26700TIP3    H280983   9.516   6.666   0.955 -0.0682 -0.0603  0.6273
26701TIP3   OH280984  10.207  10.813   6.819  0.4216  0.5474 -0.1740
26701TIP3    H180985  10.211  10.748   6.889  0.4064  1.4980  0.7369
26701TIP3    H280986  10.221  10.763   6.739  0.1480 -0.6092  0.4797
26702TIP3   OH280987   1.621  10.089   0.541  0.4772 -0.1659  0.2170
26702TIP3    H180988   1.588  10.018   0.487 -2.3770  1.3152 -0.1816
26702TIP3    H280989   1.623  10.165   0.482 -1.8142  1.2818  1.8415
26703TIP3   OH280990   6.656   8.901   5.906  0.1473 -0.3334  0.3498
26703TIP3    H180991   6.597   8.839   5.862 -0.3998 -0.3690  1.1185
26703TIP3    H280992   6.708   8.938   5.835 -1.5883  0.5415 -0.5101
26704TIP3   OH280993   2.258  10.046   4.471  0.2239 -0.5057 -0.1122
26704TIP3    H180994   2.231  10.093   4.392  1.2446  0.5752  0.1472
26704TIP3    H280995   2.216  10.094   4.543  1.7273  0.4079  0.1971
26705TIP3   OH280996   6.504   3.940  10.753 -0.5195 -0.8249 -0.2966
26705TIP3    H180997   6.472   4.014  10.803  0.6221 -0.3424 -0.2489
26705TIP3    H280998   6.504   3.867  10.815  0.6497 -0.2913  0.3553
26706TIP3   OH280999   0.479   1.765   8.421 -0.2972 -0.3562  0.2751
26706TIP3    H181000   0.460   1.680   8.382  0.2673 -0.3992  0.0916
26706TIP3    H281001   0.417   1.772   8.494 -0.9271 -0.5433 -0.2342
26707TIP3   OH281002   4.267   3.997   8.116  0.0888 -0.5367  0.5805
26707TIP3    H181003   4.349   4.046   8.119  0.3887 -0.7292 -2.2414
26707TIP3    H281004   4.283   3.925   8.056 -1.9021 -1.1103  0.6420
26708TIP3   OH281005  10.004   1.142  10.571 -0.4338  0.2384  0.3372
26708TIP3    H181006   9.918   1.182  10.585 -0.2877  0.9823 -0.7391
26708TIP3    H281007  10.004   1.119  10.478  0.7631  0.8457  0.1703
26709TIP3   OH281008   3.513   0.967   1.855  0.0380 -0.0583 -0.2079
26709TIP3    H181009   3.590   1.020   1.834  0.3612 -0.0959  0.8175
26709TIP3    H281010   3.549   0.886   1.890 -0.4639 -0.1368  0.1406
26710TIP3   OH281011   7.817   9.587   2.839  0.2889 -0.0536  0.8792
26710TIP3    H181012   7.754   9.587   2.766  0.9581  0.7290  0.2856
26710TIP3    H281013   7.871   9.509   2.824 -0.3425 -0.5711  1.2326
26711TIP3   OH281014   0.727   4.788   3.625 -0.3047  0.2894  0.1067
26711TIP3    H181015   0.699   4.867   3.671 -1.2153 -0.7776  1.4573
26711TIP3    H281016   0.645   4.747   3.596 -0.0412 -1.3248  1.4771
26712TIP3   OH281017   8.637   8.527   0.376  0.2534 -0.1719  0.0309
26712TIP3    H181018   8.661   8.442   0.411 -0.8765  0.0031  1.2993
26712TIP3    H281019   8.688   8.535   0.295 -0.9568 -2.8400 -1.1322
26713TIP3   OH281020   5.653   0.015   3.626  0.0903 -0.3567 -0.2441
26713TIP3    H181021   5.557   0.023   3.629  0.1361 -0.2884  2.0084
26713TIP3    H281022   5.677   0.059   3.545 -1.8754 -1.5531 -1.5939
26714TIP3   OH281023   9.516   5.170   2.342 -0.6344 -0.8091 -0.1740
26714TIP3    H181024   9.603   5.164   2.304 -1.0982 -2.2315 -1.1212
26714TIP3    H281025   9.530   5.165   2.436  0.4170  0.8874 -0.2109
26715TIP3   OH281026   0.840   3.935   1.734 -0.1686  0.5111  0.3272
26715TIP3    H181027   0.780   3.952   1.662 -0.5584  2.5141  1.0735
26715TIP3    H281028   0.927   3.935   1.693 -0.3356  2.1770 -0.1025
26716TIP3   OH281029   1.593   2.123   2.218  0.2457 -0.1687 -0.1439
26716TIP3    H181030   1.608   2.151   2.309 -0.8594 -1.6047  0.5048
26716TIP3    H281031   1.634   2.193   2.166 -0.2385  1.3754  1.4220
26717TIP3   OH281032   2.925  10.197   2.827 -0.0562  0.1938 -0.3704
26717TIP3    H181033   2.954  10.107   2.841 -1.2220 -0.0918  0.2943
26717TIP3    H281034   2.903  10.201   2.734 -0.5937 -0.3892 -0.2751
26718TIP3   OH281035   4.733   9.659   4.132 -0.5449 -0.0243 -0.2916
26718TIP3    H181036   4.755   9.712   4.209 -3.2359  2.2415 -0.8878
26718TIP3    H281037   4.817   9.639   4.092  0.7279  3.0961  0.5271
26719TIP3   OH281038   4.078   8.505   7.134 -0.0828 -0.7392  0.0391
26719TIP3    H181039   4.030   8.431   7.100  0.2112 -0.0232 -2.0543
26719TIP3    H281040   4.014   8.577   7.137 -0.0486 -0.7252  0.8414
26720TIP3   OH281041   1.715   8.399   6.775 -0.6278  0.8924 -0.2440
26720TIP3    H181042   1.659   8.467   6.738  0.0861  1.0440 -1.0775
26720TIP3    H281043   1.765   8.366   6.701  1.3719  1.6888  0.6988
26721TIP3   OH281044   1.626   2.210   7.411  0.0741  0.3497  0.3289
26721TIP3    H181045   1.706   2.157   7.405  0.9657  1.7131 -0.4362
26721TIP3    H281046   1.566   2.171   7.347  1.3511  1.2237 -1.5164
26722TIP3   OH281047   8.699   0.271   9.167  0.3605 -0.4138  0.0390
26722TIP3    H181048   8.716   0.177   9.174 -1.2808 -0.7300  0.1082
26722TIP3    H281049   8.751   0.298   9.091  2.1676 -1.0110  0.9900
26723TIP3   OH281050   0.377   0.739   1.996  0.5107 -0.1808  0.0345
26723TIP3    H181051   0.340   0.795   2.064  3.3885  0.2047  1.4169
26723TIP3    H281052   0.352   0.781   1.914 -0.8353  0.8167  0.9151
26724TIP3   OH281053   0.873   0.309  10.233  0.4914 -0.0307 -0.0577
26724TIP3    H181054   0.950   0.270  10.276  1.0004  0.2625 -0.6795
26724TIP3    H281055   0.874   0.400  10.262 -0.3836 -0.3239  0.9625
26725TIP3   OH281056   7.759   6.434   9.489 -0.5275  0.3435 -0.5342
26725TIP3    H181057   7.715   6.508   9.446 -1.2679  1.5475  2.1232
26725TIP3    H281058   7.712   6.423   9.571  0.1924 -2.5228 -0.4240
26726TIP3   OH281059   2.792   8.278   9.622 -0.4818 -0.3076 -0.2914
26726TIP3    H181060   2.796   8.356   9.567  0.5831 -0.0938  0.0729
26726TIP3    H281061   2.713   8.290   9.675  0.1754  0.9941  0.4333
26727TIP3   OH281062   3.205   0.482   1.932  0.1723  0.0999  0.6195
26727TIP3    H181063   3.166   0.563   1.965 -0.6216  0.0342 -0.1274
26727TIP3    H281064   3.150   0.457   1.857  0.5316 -1.0108  0.7036
26728TIP3   OH281065   9.194  10.339   5.661  0.4412 -0.3478 -0.2357
26728TIP3    H181066   9.240  10.259   5.684  0.3501 -0.4009 -0.2377
26728TIP3    H281067   9.209  10.398   5.735  1.6652  0.1293 -0.8186
26729TIP3   OH281068   1.609   6.325   7.314 -0.5272 -0.0898 -0.3513
26729TIP3    H181069   1.547   6.274   7.366 -1.2716 -1.2221 -2.2615
26729TIP3    H281070   1.556   6.392   7.271  0.0757  0.8231  0.2780
26730TIP3   OH281071   7.579   4.841   9.741  0.1051 -1.1328  0.6350
26730TIP3    H181072   7.572   4.855   9.836  1.1048 -0.1590  0.5908
26730TIP3    H281073   7.498   4.876   9.705  1.5484  2.8560  0.7545
26731TIP3   OH281074   0.675   5.893   6.143 -0.8619 -0.1897  0.4725
26731TIP3    H181075   0.705   5.948   6.216  0.2600 -0.7345  0.4471
26731TIP3    H281076   0.651   5.955   6.075  0.9751  0.3084  0.2151
26732TIP3   OH281077   0.229   2.650   4.369  0.8127  0.3053  0.5329
26732TIP3    H181078   0.234   2.740   4.337  1.8915 -0.0267 -0.2823
26732TIP3    H281079   0.241   2.596   4.290  0.0459 -0.5589  0.9892
26733TIP3   OH281080   8.154   2.676   9.541  0.4309  0.2011  0.3760
26733TIP3    H181081   8.200   2.624   9.475 -2.7420 -2.7490  0.1775
26733TIP3    H281082   8.170   2.630   9.623 -0.4712  0.2940  0.6164
26734TIP3   OH281083   2.829   9.911   9.546  0.4307 -0.0803  0.8436
26734TIP3    H181084   2.774   9.945   9.617 -1.7818 -2.3865  0.3557
26734TIP3    H281085   2.822   9.978   9.478  0.0701  0.7167  1.6336
26735TIP3   OH281086   4.162   5.697   7.423 -0.0697  0.4598  0.2775
26735TIP3    H181087   4.084   5.739   7.461  0.8036  2.2626  0.2162
26735TIP3    H281088   4.174   5.742   7.339 -0.3147 -1.4861 -0.8442
26736TIP3   OH281089   9.688   3.265   0.129  0.2506  0.0866 -0.4462
26736TIP3    H181090   9.661   3.280   0.219  1.5298  0.1476 -0.0542
26736TIP3    H281091   9.704   3.353   0.094  4.0291  0.0412  0.6793
26737TIP3   OH281092   7.061   9.572   3.643  0.2859 -0.2800 -0.4645
26737TIP3    H181093   7.111   9.576   3.561  0.2800  1.3054 -0.4261
26737TIP3    H281094   7.098   9.642   3.697  2.8142 -3.5005  2.4223
26738TIP3   OH281095   3.100   4.595   3.348 -0.1496 -0.0349  0.1223
26738TIP3    H181096   3.120   4.617   3.258 -0.7309  0.6529  0.1528
26738TIP3    H281097   3.185   4.590   3.392  0.0673  0.9029 -0.1738
26739TIP3   OH281098   4.906   6.570   8.611 -0.2997 -0.3116 -0.5728
26739TIP3    H181099   4.926   6.477   8.626 -0.3009 -0.3262 -0.6625
26739TIP3    H281100   4.848   6.570   8.535  1.5441 -0.0762 -2.0547
26740TIP3   OH281101   3.738   5.124   2.710  0.5386 -0.3344 -0.0888
26740TIP3    H181102   3.770   5.207   2.746 -1.1303  0.5130 -0.4426
26740TIP3    H281103   3.662   5.102   2.764  0.7995 -1.4920 -0.1832
26741TIP3   OH281104   2.276   9.299   6.640 -0.0968 -0.5421  0.0509
26741TIP3    H181105   2.256   9.329   6.729 -0.2320  1.6917 -0.6960
26741TIP3    H281106   2.305   9.377   6.594  2.1586 -2.0519 -1.3019
26742TIP3   OH281107  10.386   7.489   9.192  0.3350  0.2615  0.0895
26742TIP3    H181108  10.337   7.484   9.110  0.6519 -0.1780 -0.0790
26742TIP3    H281109  10.326   7.455   9.259  0.8190 -1.4967 -0.3074
26743TIP3   OH281110   5.696   8.403  10.049 -0.3031  0.0919  0.6638
26743TIP3    H181111   5.678   8.309  10.040 -0.8474  0.3654 -1.6716
26743TIP3    H281112   5.633   8.434  10.114 -0.6099 -1.0064  0.9052
26744TIP3   OH281113   2.219   7.472  10.523  0.3504  0.5925 -0.6587
26744TIP3    H181114   2.201   7.565  10.535 -1.4616  0.3077 -0.7965
26744TIP3    H281115   2.188   7.431  10.604  0.8489  0.0740 -0.7215
26745TIP3   OH281116   7.597   3.601   7.421 -0.3016  0.3551  0.1429
26745TIP3    H181117   7.587   3.671   7.357  0.9685  0.0635 -0.3853
26745TIP3    H281118   7.691   3.594   7.436 -0.5474  0.4112  2.0513
26746TIP3   OH281119   2.282   2.958   6.433  0.2562  0.2195 -0.8058
26746TIP3    H181120   2.338   2.893   6.390 -1.7210 -0.5882 -2.3296
26746TIP3    H281121   2.273   2.927   6.523  2.6054  0.6705 -0.3409
26747TIP3   OH281122   6.128   9.929   1.664  0.0520  0.1314 -0.1383
26747TIP3    H181123   6.077   9.859   1.704 -1.9443  2.2643  1.3073
26747TIP3    H281124   6.158   9.982   1.738  0.5109  1.4506 -1.2289
26748TIP3   OH281125   3.559   7.286   2.672 -0.0042 -0.8444 -0.4076
26748TIP3    H181126   3.629   7.221   2.677 -0.2403 -1.0240  1.1453
26748TIP3    H281127   3.602   7.369   2.690 -0.3230 -1.0903  1.7377
26749TIP3   OH281128   1.878   5.689   2.867  0.4997  0.4133 -0.1037
26749TIP3    H181129   1.967   5.679   2.832  0.6101  0.3879  0.1841
26749TIP3    H281130   1.834   5.747   2.805  0.4054 -0.3898 -0.8095
26750TIP3   OH281131   6.597   2.129   4.051 -0.0174  0.3830 -0.0298
26750TIP3    H181132   6.678   2.097   4.012  0.9433  1.0724  1.3424
26750TIP3    H281133   6.590   2.220   4.021 -0.8692  0.0236 -1.0020
26751TIP3   OH281134   7.361   8.133   8.344  0.4481 -0.0465 -0.3924
26751TIP3    H181135   7.355   8.128   8.249 -1.8471  1.3591 -0.3943
26751TIP3    H281136   7.418   8.208   8.361  0.4420  0.0226 -0.6737
26752TIP3   OH281137   9.058   9.609   9.295  0.0505  0.2462 -0.1799
26752TIP3    H181138   8.980   9.553   9.297 -0.8878  1.5061  1.6434
26752TIP3    H281139   9.055   9.653   9.210 -0.8932 -0.1681 -0.3716
26753TIP3   OH281140   2.455   3.937   8.122 -0.6031  0.5439  0.7115
26753TIP3    H181141   2.426   4.024   8.095 -0.0028 -0.0069 -2.0040
26753TIP3    H281142   2.550   3.939   8.114 -0.5916 -0.3901  0.4831
26754TIP3   OH281143   1.216   9.459   0.755  0.3124  0.0825 -0.0106
26754TIP3    H181144   1.158   9.509   0.811  1.5948 -0.3403  1.7628
26754TIP3    H281145   1.287   9.431   0.812  1.1191 -1.3034 -1.6048
26755TIP3   OH281146   7.296   8.120   4.691 -0.7831  0.1010  1.1570
26755TIP3    H181147   7.203   8.110   4.667 -0.8488  1.3987  0.8149
26755TIP3    H281148   7.343   8.104   4.609 -0.7776  0.5482  1.0694
26756TIP3   OH281149  10.088   8.172   1.079  0.3216 -0.1573 -0.8215
26756TIP3    H181150  10.048   8.096   1.036  1.5015 -1.2573 -0.0518
26756TIP3    H281151  10.023   8.198   1.145 -0.8072  0.5634 -2.1567
26757TIP3   OH281152   4.523   7.841   1.688 -0.2871 -0.0252 -1.1509
26757TIP3    H181153   4.447   7.865   1.636 -2.7523 -3.0333  0.6882
26757TIP3    H281154   4.528   7.907   1.757 -1.1668  0.2526 -1.3475
26758TIP3   OH281155   7.841  10.592   4.318 -0.1198 -0.3380 -0.3123
26758TIP3    H181156   7.896  10.589   4.240  0.5265  1.8462 -0.0210
26758TIP3    H281157   7.825  10.501   4.341  2.5835 -1.0629 -0.9918
26759TIP3   OH281158  10.869   2.150   1.595  0.0857  0.0412 -0.4575
26759TIP3    H181159  10.774   2.150   1.581  0.2507  1.1899 -1.7756
26759TIP3    H281160  10.889   2.239   1.624  0.9253  0.2353 -1.5749
26760TIP3   OH281161   0.311   1.098   1.975  0.0995  0.1926  0.0790
26760TIP3    H181162   0.376   1.052   2.027  0.5336  0.5862 -0.1084
26760TIP3    H281163   0.326   1.067   1.885  1.9602  2.3633 -0.4716
26761TIP3   OH281164   5.610   8.993   5.226 -0.5837  0.5625  0.1170
26761TIP3    H181165   5.559   8.974   5.147  1.2948  3.1356 -1.9136
26761TIP3    H281166   5.657   8.911   5.244 -1.9858 -0.4585 -0.6692
26762TIP3   OH281167   4.452   6.614   8.597 -0.1474  0.3463  0.8022
26762TIP3    H181168   4.517   6.630   8.665  0.4853 -0.9262  0.5256
26762TIP3    H281169   4.401   6.539   8.630 -0.1228  0.0067  0.0826
26763TIP3   OH281170   0.910  10.350   3.048 -0.0791 -0.1877 -0.3575
26763TIP3    H181171   0.837  10.388   2.999 -0.1914  3.2707  2.1717
26763TIP3    H281172   0.988  10.393   3.013  0.0992  0.3794  0.6973
26764TIP3   OH281173   9.533   7.458   0.897 -0.4466 -0.8525  0.2794
26764TIP3    H181174   9.439   7.474   0.897 -0.6007 -1.6999 -0.2648
26764TIP3    H281175   9.569   7.528   0.842 -0.8959 -1.2406 -0.5245
26765TIP3   OH281176   4.972   9.341   1.899 -0.0022 -0.3513 -0.0634
26765TIP3    H181177   4.962   9.420   1.846  1.0361 -0.1204  0.0611
26765TIP3    H281178   4.926   9.361   1.981 -0.7314 -0.3215 -0.4751
26766TIP3   OH281179   2.667   0.112   9.609  0.5422  0.0909  0.3227
26766TIP3    H181180   2.591   0.074   9.653 -0.5819  1.5315 -0.2744
26766TIP3    H281181   2.658   0.085   9.518  1.0887 -0.2353  0.3623
26767TIP3   OH281182   4.201   4.023   7.655  0.1339 -0.6617 -0.0676
26767TIP3    H181183   4.186   3.950   7.595  0.4661 -1.2750  0.5876
26767TIP3    H281184   4.278   3.998   7.705 -0.6015 -0.5266  1.1771
26768TIP3   OH281185  10.267   7.918   9.944  0.1151  0.8814  0.4267
26768TIP3    H181186  10.261   7.905   9.849  0.3613  0.6767  0.4376
26768TIP3    H281187  10.314   7.841   9.976 -0.8796  0.4286  0.8554
26769TIP3   OH281188   3.094   8.250   9.036 -0.2040 -0.3258 -0.1221
26769TIP3    H181189   3.159   8.294   8.981  0.1882  2.1401  2.0873
26769TIP3    H281190   3.137   8.171   9.068  0.8459  0.0629 -0.5592
26770TIP3   OH281191   9.625   7.209   4.686 -0.0790 -0.0937 -0.1000
26770TIP3    H181192   9.685   7.232   4.756 -0.7474  1.7595 -0.0630
26770TIP3    H281193   9.676   7.222   4.606  0.3707 -1.1973 -0.0031
26771TIP3   OH281194   7.937   2.934   6.624  0.1553 -0.2392 -0.4771
26771TIP3    H181195   7.983   2.892   6.696  1.6949 -0.4672 -1.5501
26771TIP3    H281196   7.997   2.928   6.550 -0.5605  1.7242 -1.2942
26772TIP3   OH281197  10.466   8.532  10.042 -0.2503 -0.2357 -0.1433
26772TIP3    H181198  10.462   8.449  10.089  0.5952 -0.1346  0.1384
26772TIP3    H281199  10.512   8.591  10.102  1.9984 -0.4412 -1.5466
26773TIP3   OH281200   5.968   1.766   7.792  0.5725 -0.3998  0.0676
26773TIP3    H181201   6.019   1.689   7.765  0.4494 -0.3604 -0.2868
26773TIP3    H281202   6.033   1.835   7.801  0.5109 -0.1702 -1.0706
26774TIP3   OH281203   4.956   0.330   7.300 -0.0802 -0.1499  0.1115
26774TIP3    H181204   5.037   0.380   7.288 -0.1449 -0.1744 -0.4560
26774TIP3    H281205   4.967   0.288   7.385  0.2713  0.2791  0.2820
26775TIP3   OH281206  10.893   9.984   5.712  0.2412 -0.3314 -0.2888
26775TIP3    H181207  10.835   9.911   5.737  1.1798 -0.6745  0.9778
26775TIP3    H281208  10.854  10.018   5.632 -3.0226  0.8449  1.5701
26776TIP3   OH281209   2.543  10.335   0.411 -0.3618  0.1080  0.2562
26776TIP3    H181210   2.527  10.308   0.501 -0.2189  1.3495  0.6815
26776TIP3    H281211   2.542  10.254   0.361 -2.0838 -0.4644  1.1207
26777TIP3   OH281212   6.277  10.464   3.689 -0.3151  1.1244 -0.8258
26777TIP3    H181213   6.185  10.435   3.691 -0.1152  0.5189  1.4268
26777TIP3    H281214   6.315  10.415   3.616 -1.2429 -0.3628 -0.3554
26778TIP3   OH281215   4.942   6.897   4.638 -0.1798 -0.0676  0.5933
26778TIP3    H181216   4.925   6.974   4.583  0.7424  0.0431  0.4362
26778TIP3    H281217   4.863   6.844   4.631  0.1744 -0.4187 -1.4713
26779TIP3   OH281218   4.346  10.703   0.647  0.3982  0.4511  0.3117
26779TIP3    H181219   4.441  10.710   0.651  0.3128  1.1748  2.3423
26779TIP3    H281220   4.318  10.708   0.738 -1.5432 -0.7483 -0.1552
26780TIP3   OH281221  10.398   6.395   4.682 -0.0306 -0.3981 -0.1834
26780TIP3    H181222  10.394   6.313   4.732 -0.5727 -0.5609 -0.4862
26780TIP3    H281223  10.415   6.367   4.592  1.8146 -0.0566  0.0374
26781TIP3   OH281224   4.001   4.590   3.483 -0.4637 -0.3296  0.0637
26781TIP3    H181225   3.952   4.517   3.522  0.8504 -2.6824 -2.3536
26781TIP3    H281226   3.966   4.597   3.394 -1.3646  2.9004  0.5663
26782TIP3   OH281227   1.532   6.065  10.622 -0.0123  0.6687  0.2334
26782TIP3    H181228   1.485   5.994  10.577  0.4364  0.8810 -0.5855
26782TIP3    H281229   1.622   6.055  10.594  0.2716  0.8598  1.0402
26783TIP3   OH281230   7.673   6.257   5.130 -0.5504  0.0926  0.8686
26783TIP3    H181231   7.734   6.280   5.201 -1.4872 -3.7065  3.2324
26783TIP3    H281232   7.724   6.268   5.050  1.1043  3.0621  2.1778
26784TIP3   OH281233   2.295   5.292   7.363  0.7239  0.5028 -0.0951
26784TIP3    H181234   2.383   5.325   7.345  2.4764 -2.4186  2.1520
26784TIP3    H281235   2.258   5.275   7.276  3.1651  0.0596 -1.1410
26785TIP3   OH281236   7.696   7.960   9.351 -0.0679  0.2073  0.3173
26785TIP3    H181237   7.783   7.987   9.321  0.2847 -0.5064  0.6690
26785TIP3    H281238   7.640   8.035   9.332  0.2424  0.0016 -1.6316
26786TIP3   OH281239   3.433   8.644   0.959  0.3852 -0.1660  0.0688
26786TIP3    H181240   3.391   8.564   0.928  0.5001 -0.0917 -0.2868
26786TIP3    H281241   3.514   8.614   1.000 -0.4690 -0.4093  1.6754
26787TIP3   OH281242   6.213   5.574   0.326  0.1429  0.1579 -0.0113
26787TIP3    H181243   6.295   5.555   0.371  0.5801 -1.0374 -1.2464
26787TIP3    H281244   6.160   5.496   0.339  1.0040 -1.1003 -3.0678
26788TIP3   OH281245   7.699  10.261   0.938  0.0247 -0.4382  0.0338
26788TIP3    H181246   7.633  10.215   0.886  0.3102  1.1238 -1.8269
26788TIP3    H281247   7.650  10.300   1.011 -0.7620 -0.9064 -0.2311
26789TIP3   OH281248   0.400  10.477   6.773  0.5248  0.5089  0.6275
26789TIP3    H181249   0.440  10.486   6.686  0.2774 -1.3077  0.2910
26789TIP3    H281250   0.313  10.514   6.763  0.4640  0.2245  0.0615
26790TIP3   OH281251   3.913   3.105   1.044  0.0404  0.2405 -0.2799
26790TIP3    H181252   3.968   3.026   1.040 -0.8611 -0.3772 -0.7181
26790TIP3    H281253   3.939   3.157   0.968  0.4892  0.2733 -0.1072
26791TIP3   OH281254   4.534   3.683  10.242  0.2030 -0.2913 -0.0356
26791TIP3    H181255   4.556   3.599  10.202  1.8988 -0.5774  1.3933
26791TIP3    H281256   4.526   3.664  10.336 -0.1166  1.0066  0.2258
26792TIP3   OH281257   4.625  10.587   2.919 -0.5920 -0.5728  0.2660
26792TIP3    H181258   4.629  10.605   2.825 -2.9280 -0.0186  0.2320
26792TIP3    H281259   4.700  10.636   2.955  1.9918 -2.8846 -1.5121
26793TIP3   OH281260   5.690   4.997   8.017  0.8556 -0.2192 -0.7254
26793TIP3    H181261   5.624   4.999   8.086  2.2780 -0.1930  0.6804
26793TIP3    H281262   5.688   4.907   7.984 -1.1626  0.2372 -2.0599
26794TIP3   OH281263   5.578   8.969   5.900 -0.6237 -0.6688  0.7066
26794TIP3    H181264   5.599   9.058   5.928 -1.4687 -0.7455  1.6046
26794TIP3    H281265   5.568   8.976   5.805  0.3363 -0.0233  0.6360
26795TIP3   OH281266   9.642   4.849   9.807  0.7162 -0.1709  0.0073
26795TIP3    H181267   9.710   4.817   9.747 -0.8210 -0.5050 -1.6491
26795TIP3    H281268   9.671   4.937   9.830  0.6608  0.5764 -2.4546
26796TIP3   OH281269   1.549   3.085   0.551 -0.0304 -0.3113  0.2073
26796TIP3    H181270   1.461   3.082   0.588  0.5945 -3.4430  1.7974
26796TIP3    H281271   1.542   3.038   0.468 -0.2582  1.6069 -0.9247
26797TIP3   OH281272   1.052   5.662   0.976 -0.1715  0.1391  0.5637
26797TIP3    H181273   1.023   5.710   0.898  2.6944  1.4390  0.1520
26797TIP3    H281274   1.076   5.576   0.943  1.6390  0.8813 -0.2395
26798TIP3   OH281275   8.296   3.345  10.715 -0.5378  0.0713 -0.8767
26798TIP3    H181276   8.334   3.432  10.703  0.4346 -0.4906 -2.0989
26798TIP3    H281277   8.369   3.285  10.700 -1.6240 -1.0122 -2.1016
26799TIP3   OH281278   3.190   3.807   2.686  0.4257 -0.3138 -1.0322
26799TIP3    H181279   3.268   3.770   2.645 -0.3979 -3.8633  0.2526
26799TIP3    H281280   3.202   3.793   2.779 -1.4682 -0.3384 -0.7396
26800TIP3   OH281281   7.690   1.526   5.423  0.0157  0.5106  0.7229
26800TIP3    H181282   7.609   1.576   5.406 -0.8393  0.1200  3.1929
26800TIP3    H281283   7.667   1.468   5.496  1.9519 -1.1356  0.0942
26801TIP3   OH281284   2.921   0.446   5.426  0.2061  0.8324  0.2670
26801TIP3    H181285   3.015   0.427   5.436  0.4732 -0.0133 -2.7389
26801TIP3    H281286   2.919   0.533   5.387 -0.2102  0.6063 -0.2285
26802TIP3   OH281287   2.328   2.852  10.161  0.2501  0.0653  0.1300
26802TIP3    H181288   2.327   2.846  10.257  0.7385  0.9085  0.1948
26802TIP3    H281289   2.250   2.804  10.133  0.2016 -0.3430  0.9414
26803TIP3   OH281290   3.646   6.916   6.652  0.7943 -0.4049 -0.5237
26803TIP3    H181291   3.705   6.878   6.587 -0.0958 -1.1011 -0.9648
26803TIP3    H281292   3.586   6.844   6.674 -0.0390  0.3392 -0.2876
26804TIP3   OH281293   2.355   4.413   6.015 -0.3900 -0.3103 -0.1582
26804TIP3    H181294   2.450   4.415   6.023 -0.2203 -2.1641 -1.0682
26804TIP3    H281295   2.334   4.487   5.957  0.4906  0.0966  0.0296
26805TIP3   OH281296   6.856   2.644   2.499  0.0829  0.4061  0.4392
26805TIP3    H181297   6.873   2.693   2.419  0.0326 -0.3817 -0.0681
26805TIP3    H281298   6.769   2.605   2.485 -0.3093  0.9609  1.2406
26806TIP3   OH281299   3.500   3.882   7.246  0.1806 -0.1520  0.1082
26806TIP3    H181300   3.452   3.824   7.305  0.2987 -2.1212 -1.5840
26806TIP3    H281301   3.434   3.917   7.187  0.5669 -2.0405 -1.5625
26807TIP3   OH281302   8.893   1.852   7.381  0.1030  0.1146  0.5465
26807TIP3    H181303   8.846   1.883   7.304 -0.0813  0.4593  0.7974
26807TIP3    H281304   8.981   1.890   7.373  1.0367 -2.1406 -0.9760
26808TIP3   OH281305   3.612   6.970   9.044 -0.5647  0.4277 -0.1565
26808TIP3    H181306   3.645   6.932   9.125 -2.9814 -1.6827 -0.0484
26808TIP3    H281307   3.554   7.041   9.071  0.7759  1.5996 -0.2176
26809TIP3   OH281308   5.030   0.862   8.091 -0.1713 -0.2401  0.0179
26809TIP3    H181309   5.056   0.779   8.131 -2.0378 -0.3135  1.2298
26809TIP3    H281310   4.945   0.844   8.051  0.6487  0.4161 -2.1709
26810TIP3   OH281311   9.441   9.781   9.369  0.0325  0.4436 -0.1726
26810TIP3    H181312   9.488   9.805   9.289 -0.6321  0.5629 -0.5300
26810TIP3    H281313   9.376   9.850   9.381  0.1441  0.4396  0.4895
26811TIP3   OH281314   9.081   8.486  10.030 -0.5235 -0.1848 -0.1700
26811TIP3    H181315   9.006   8.513   9.977 -0.2323  1.7240  0.2938
26811TIP3    H281316   9.107   8.401   9.994 -2.9179 -0.9374 -0.2949
26812TIP3   OH281317   8.782   8.942   2.619  0.1569  0.2484 -0.2317
26812TIP3    H181318   8.723   8.939   2.544  0.3355  1.3022 -0.4281
26812TIP3    H281319   8.857   8.993   2.588  0.5443  0.0995  0.4451
26813TIP3   OH281320   6.221   2.780   1.791  0.2856  0.9944 -0.6282
26813TIP3    H181321   6.213   2.738   1.705 -1.8948 -1.4187  0.6280
26813TIP3    H281322   6.135   2.818   1.807  0.3267  0.5204  0.8844
26814TIP3   OH281323   2.939   2.435   4.397  0.0788 -0.8122 -0.2006
26814TIP3    H181324   2.942   2.520   4.440  1.0057 -1.3854  0.9328
26814TIP3    H281325   3.006   2.440   4.329  1.2656 -1.1474  0.9100
26815TIP3   OH281326   0.601   1.223   7.521 -0.4777 -0.2281 -0.1991
26815TIP3    H181327   0.529   1.282   7.545 -0.9130 -1.6322  2.2667
26815TIP3    H281328   0.678   1.279   7.516 -1.3330  0.9435 -0.5340
26816TIP3   OH281329  10.777   8.096   7.332 -0.1527 -0.1187 -0.5721
26816TIP3    H181330  10.838   8.124   7.264  0.1910 -1.1120 -0.6913
26816TIP3    H281331  10.778   8.168   7.396  2.7279 -0.9328  0.4494
26817TIP3   OH281332   7.046   8.842   9.810  0.3767 -0.0504  0.3770
26817TIP3    H181333   7.065   8.910   9.746 -0.4900 -1.4974 -1.5099
26817TIP3    H281334   7.081   8.762   9.771  0.3195 -0.8962  1.9841
26818TIP3   OH281335   6.937   6.138   0.648  0.7893  0.4381  0.3848
26818TIP3    H181336   6.956   6.229   0.670 -0.6045  0.7619  0.3353
26818TIP3    H281337   6.842   6.130   0.657  0.8364 -0.8982 -0.0435
26819TIP3   OH281338   8.335   5.206   3.427 -0.2050 -0.6474  0.2906
26819TIP3    H181339   8.403   5.250   3.477 -0.9304  0.6699  0.1843
26819TIP3    H281340   8.340   5.115   3.454  2.0520 -0.7357 -0.2432
26820TIP3   OH281341   3.851   9.695  10.139  0.6921 -0.0336  0.0559
26820TIP3    H181342   3.840   9.779  10.096 -2.5577  0.4942  1.5848
26820TIP3    H281343   3.784   9.639  10.100 -2.0504  0.3253  3.6619
26821TIP3   OH281344   5.042   8.732  10.902  0.3516 -0.0876  0.1091
26821TIP3    H181345   5.037   8.825  10.924  2.1046  0.5249 -1.7689
26821TIP3    H281346   4.951   8.706  10.885  0.0771  2.0319 -2.0871
26822TIP3   OH281347  10.015   9.017   4.586 -0.4062 -0.3453 -0.0724
26822TIP3    H181348  10.051   9.068   4.514  0.3315 -0.2402  0.3637
26822TIP3    H281349   9.937   9.066   4.614 -1.3953 -1.0151 -1.5629
26823TIP3   OH281350   6.560   6.077   4.754 -0.2060  0.4334  0.1220
26823TIP3    H181351   6.508   6.038   4.683  0.0532 -0.7711  0.5640
26823TIP3    H281352   6.496   6.119   4.811 -0.7223 -0.9856  0.6284
26824TIP3   OH281353   9.114   9.224   0.779  0.2514  0.1776 -0.3187
26824TIP3    H181354   9.202   9.213   0.745  0.4418 -0.8329  0.4349
26824TIP3    H281355   9.077   9.135   0.778 -0.3529  0.4081  0.4003
26825TIP3   OH281356   5.149  10.006   0.970  0.3763  0.0319  0.5425
26825TIP3    H181357   5.131  10.039   0.882  1.1243  1.5524  0.9239
26825TIP3    H281358   5.106   9.921   0.973 -0.2778  0.2726 -1.0458
26826TIP3   OH281359   5.201   6.423   2.495 -0.1083  0.0651  0.1541
26826TIP3    H181360   5.232   6.368   2.568  0.2773 -0.1467 -0.1634
26826TIP3    H281361   5.275   6.426   2.435  0.0137  1.2650  0.3477
26827TIP3   OH281362   1.160   3.053   8.150 -0.4104 -0.0553 -0.3101
26827TIP3    H181363   1.176   3.112   8.076  0.9073  1.8279  1.3530
26827TIP3    H281364   1.225   3.078   8.215 -0.6330 -2.5618  1.0051
26828TIP3   OH281365   2.043   3.789   9.733 -0.1867 -0.0882  0.3647
26828TIP3    H181366   1.997   3.715   9.695  0.0704  0.2051 -0.5259
26828TIP3    H281367   2.107   3.750   9.792  0.1906 -0.5933 -0.3668
26829TIP3   OH281368   9.967  10.137   1.711 -0.0099 -0.6356 -0.2308
26829TIP3    H181369   9.997  10.058   1.665 -0.1243 -1.3986  0.9563
26829TIP3    H281370   9.928  10.191   1.642  2.3223 -0.4639 -1.4933
26830TIP3   OH281371   7.782   1.004   6.010 -0.6181  0.4526 -0.3846
26830TIP3    H181372   7.733   0.971   6.085  1.3041  1.4916  1.4424
26830TIP3    H281373   7.778   1.099   6.018 -1.0039  0.6166 -2.0796
26831TIP3   OH281374   8.516   9.684   2.192 -0.2148  0.1674 -0.0497
26831TIP3    H181375   8.562   9.722   2.117 -1.0265  1.9481  0.3065
26831TIP3    H281376   8.437   9.644   2.154 -0.6360  1.0840 -0.1686
26832TIP3   OH281377   4.080  10.876   9.504  0.8674 -0.0937  0.3097
26832TIP3    H181378   4.015  10.929   9.458  1.2606 -0.3956 -0.6138
26832TIP3    H281379   4.072  10.902   9.596 -0.1245  0.3183  0.1135
26833TIP3   OH281380   3.422   8.438   6.126 -0.5602 -0.3317  0.0638
26833TIP3    H181381   3.356   8.440   6.057 -0.4625  0.2902 -0.0181
26833TIP3    H281382   3.429   8.529   6.155 -0.5624 -0.5794  0.8570
26834TIP3   OH281383   2.111   8.824   0.592 -0.1078  0.5996 -0.0837
26834TIP3    H181384   2.088   8.865   0.509 -0.2340 -1.9766 -1.4354
26834TIP3    H281385   2.028   8.790   0.626 -0.0441  1.5683  1.0923
26835TIP3   OH281386   4.740   3.180  10.685  0.6006 -0.3101  0.3140
26835TIP3    H181387   4.648   3.204  10.691  0.6929  0.4042 -0.9118
26835TIP3    H281388   4.750   3.109  10.748 -0.7924 -0.4253  0.4370
26836TIP3   OH281389   9.173   9.947   0.339  0.0133 -0.2626  0.0540
26836TIP3    H181390   9.117   9.943   0.416  0.5571  1.1154  0.5498
26836TIP3    H281391   9.245   9.887   0.358  2.2035  2.7846  2.4120
26837TIP3   OH281392   3.749   9.785  10.478 -0.0450 -0.1713 -0.1595
26837TIP3    H181393   3.770   9.811  10.389 -0.2212  0.1248 -0.1177
26837TIP3    H281394   3.699   9.704  10.468  0.6037 -0.5596 -0.2857
26838TIP3   OH281395   6.620   7.640   9.871 -0.0229  0.0457 -0.8588
26838TIP3    H181396   6.600   7.598   9.788 -0.7266 -0.2454 -0.5510
26838TIP3    H281397   6.577   7.586   9.937  2.0798 -0.8022 -0.1032
26839TIP3   OH281398   5.198   2.887   9.344  0.2065  0.2378 -0.3216
26839TIP3    H181399   5.259   2.822   9.381  1.3169  1.1629 -0.4817
26839TIP3    H281400   5.174   2.942   9.418 -2.4738 -1.5838  0.3178
26840TIP3   OH281401   1.292   2.629   1.420 -0.3544 -0.2913 -0.3209
26840TIP3    H181402   1.238   2.560   1.459 -0.4650  0.3045  0.6017
26840TIP3    H281403   1.382   2.595   1.426 -0.3639 -0.2013  0.4976
26841TIP3   OH281404   5.506   1.856   9.685 -0.0727  0.5152  0.4782
26841TIP3    H181405   5.522   1.882   9.595  1.8926 -0.5229  0.4803
26841TIP3    H281406   5.410   1.860   9.695 -0.3777  0.0474 -1.8326
26842TIP3   OH281407   2.569   6.030   1.182  0.6060  0.0854 -0.1249
26842TIP3    H181408   2.608   6.116   1.201  1.9017 -0.7487  1.2188
26842TIP3    H281409   2.643   5.976   1.152 -0.2247 -0.5356 -1.1343
26843TIP3   OH281410   9.132   2.147   9.817 -0.2204 -0.1616  0.2753
26843TIP3    H181411   9.151   2.144   9.910 -0.3639  0.0016  0.3100
26843TIP3    H281412   9.057   2.089   9.806  1.2674 -2.1477 -0.1087
26844TIP3   OH281413   4.020   8.455   0.888 -0.2845  0.5813  0.0424
26844TIP3    H181414   4.074   8.482   0.813  1.2674 -1.5213  0.3101
26844TIP3    H281415   3.931   8.482   0.864  0.3590  1.0844 -2.0102
26845TIP3   OH281416   6.930   6.906   9.490  0.1918 -0.1965 -0.6160
26845TIP3    H181417   7.025   6.893   9.492  0.3885  1.0891 -0.3021
26845TIP3    H281418   6.912   6.932   9.400  0.6400  2.5623 -0.0037
26846TIP3   OH281419   8.990   7.041   1.568  0.1186  0.2706  0.1739
26846TIP3    H181420   8.898   7.014   1.563  0.2019  0.2138 -1.7366
26846TIP3    H281421   8.997   7.114   1.506  1.6428 -0.6681 -0.8268
26847TIP3   OH281422   0.588   6.843   5.729 -0.2655 -0.0955  0.3700
26847TIP3    H181423   0.535   6.764   5.739  0.3640 -0.8573 -1.6572
26847TIP3    H281424   0.649   6.821   5.658  2.1059  1.0782  1.8976
26848TIP3   OH281425   9.717  10.390   2.099 -0.2332 -0.1973  0.0696
26848TIP3    H181426   9.763  10.388   2.015 -2.1889 -1.3157 -1.0628
26848TIP3    H281427   9.785  10.374   2.164  1.1843 -0.3303 -1.3851
26849TIP3   OH281428   0.871   3.995   4.456  0.3240  0.2182 -0.0827
26849TIP3    H181429   0.819   3.981   4.535  0.1106 -1.0917 -0.4298
26849TIP3    H281430   0.880   3.908   4.418 -1.1352  1.0283 -2.5039
26850TIP3   OH281431   1.940   2.151  10.465  0.6446 -0.1890  0.0474
26850TIP3    H181432   1.947   2.205  10.545 -1.0767 -1.0885  0.8742
26850TIP3    H281433   2.021   2.167  10.418  0.5162  2.5739  0.6002
26851TIP3   OH281434  10.498   5.845   0.732 -0.1193  0.1678 -0.2298
26851TIP3    H181435  10.532   5.838   0.822  0.0513  0.0296 -0.3045
26851TIP3    H281436  10.562   5.900   0.687 -0.2285  0.2732 -0.2543
26852TIP3   OH281437  10.687   8.740   6.065 -0.4931 -0.3742 -0.3884
26852TIP3    H181438  10.612   8.697   6.024 -0.4422  0.1050 -0.9842
26852TIP3    H281439  10.762   8.684   6.042 -0.4253  0.0322 -1.1755
26853TIP3   OH281440  10.561   2.767   2.601  0.5739 -0.1710 -0.3653
26853TIP3    H181441  10.473   2.796   2.625 -1.4944 -3.9666 -2.3979
26853TIP3    H281442  10.602   2.743   2.684 -0.4819  1.1530  0.5795
26854TIP3   OH281443   4.604   7.798   8.724 -0.4037  0.3717 -0.6312
26854TIP3    H181444   4.612   7.832   8.813 -0.7370 -0.1529 -0.3954
26854TIP3    H281445   4.536   7.851   8.683  0.7981  1.6270 -1.0785
26855TIP3   OH281446   0.539   8.629   5.710  0.5138  0.0579  0.4451
26855TIP3    H181447   0.494   8.587   5.637 -1.6707  0.0810  1.7055
26855TIP3    H281448   0.601   8.690   5.669  0.2327 -0.8217 -1.3609
26856TIP3   OH281449   3.891   5.484   1.995 -0.3856  0.1998  1.0116
26856TIP3    H181450   3.827   5.415   1.978 -1.1001  0.7164  1.4983
26856TIP3    H281451   3.952   5.479   1.922 -0.5451 -0.7991  0.9311
26857TIP3   OH281452   4.765   8.631   9.095  0.1717  0.0249 -0.6293
26857TIP3    H181453   4.677   8.639   9.132 -0.1561 -0.3701 -1.3294
26857TIP3    H281454   4.816   8.592   9.166  0.0545  1.2658  0.1776
26858TIP3   OH281455   1.962  10.274   1.842 -0.3578 -0.2551  0.4726
26858TIP3    H181456   1.924  10.221   1.771  0.2797 -0.1587  0.0479
26858TIP3    H281457   1.948  10.365   1.814 -0.8964 -0.2054  0.9014
26859TIP3   OH281458   5.697   6.527  10.300  0.1736  0.4639 -0.4121
26859TIP3    H181459   5.612   6.530  10.343  0.2791 -1.1988 -0.0184
26859TIP3    H281460   5.760   6.550  10.368  0.2405 -0.9695  0.0308
26860TIP3   OH281461   5.730   1.145   0.069  0.0275 -0.3638 -0.8392
26860TIP3    H181462   5.659   1.097   0.027 -0.0991 -1.2193  0.3135
26860TIP3    H281463   5.762   1.204   0.001 -2.3159  0.6654 -1.1325
26861TIP3   OH281464   0.072   0.554   4.086 -0.2181  0.2809 -0.6157
26861TIP3    H181465   0.083   0.597   4.001  0.6020 -1.4133 -1.4123
26861TIP3    H281466   0.035   0.468   4.065  0.3608 -0.3234  0.7160
26862TIP3   OH281467   0.929   2.764   5.163  0.1175  0.3817 -0.0321
26862TIP3    H181468   0.924   2.678   5.204  2.8936  0.8424  1.5128
26862TIP3    H281469   0.910   2.747   5.070 -0.9950 -1.5799  0.4853
26863TIP3   OH281470   2.268   8.353   8.196 -0.4651 -0.4254  0.6781
26863TIP3    H181471   2.308   8.312   8.273 -2.4496 -1.9266  0.9951
26863TIP3    H281472   2.259   8.282   8.133  2.1405  1.0021 -1.4984
26864TIP3   OH281473   7.797   2.677   1.764  0.1324  0.4678  0.3109
26864TIP3    H181474   7.757   2.601   1.722  0.3641  0.6104 -0.1695
26864TIP3    H281475   7.737   2.749   1.746 -0.1540  0.3779  0.8779
26865TIP3   OH281476   1.566   3.996   8.361 -0.6649 -0.3763  0.1120
26865TIP3    H181477   1.499   3.988   8.292 -0.0527 -0.8234 -0.4439
26865TIP3    H281478   1.585   4.090   8.365 -1.4730 -0.2160  0.4224
26866TIP3   OH281479   6.196   2.653   0.551 -0.2337 -0.4355  0.1435
26866TIP3    H181480   6.151   2.599   0.486 -0.5106  1.7730 -1.6132
26866TIP3    H281481   6.281   2.610   0.563 -0.2714 -1.0436 -1.5157
26867TIP3   OH281482   3.611   1.363  10.365  0.4655 -0.3134  0.4490
26867TIP3    H181483   3.609   1.458  10.349  0.3638 -0.5545 -1.1375
26867TIP3    H281484   3.701   1.345  10.391  0.3854  0.2671  1.1625
26868TIP3   OH281485   3.643   6.284   6.176 -0.4949 -0.3630  0.1448
26868TIP3    H181486   3.648   6.273   6.271 -1.5863  1.1840  0.4420
26868TIP3    H281487   3.638   6.379   6.164  2.3270 -0.3439 -1.6625
26869TIP3   OH281488   6.371  10.564   6.573 -0.6483 -0.0547 -0.0191
26869TIP3    H181489   6.429  10.636   6.551  0.9848 -1.3673 -0.2191
26869TIP3    H281490   6.291  10.582   6.524  0.2941  0.8144 -1.3220
26870TIP3   OH281491   0.513   2.691   5.034 -0.1786 -0.3604  0.1825
26870TIP3    H181492   0.456   2.632   4.985 -0.7570  0.0741  0.3278
26870TIP3    H281493   0.601   2.658   5.017 -0.3633 -0.2338 -1.1455
26871TIP3   OH281494   9.366   9.380   1.267 -0.8761  0.3588 -0.1164
26871TIP3    H181495   9.274   9.403   1.277 -1.2408 -1.4180  1.0080
26871TIP3    H281496   9.400   9.376   1.356 -0.2604 -1.0670 -0.3900
26872TIP3   OH281497   9.045   2.743   4.908 -0.1576 -0.4111 -0.3813
26872TIP3    H181498   9.117   2.732   4.845  1.7768 -0.5006  1.7203
26872TIP3    H281499   9.078   2.805   4.972 -2.6166  0.7781 -0.1574
26873TIP3   OH281500   5.548   3.312   2.801  0.2464  0.5190 -0.2530
26873TIP3    H181501   5.511   3.238   2.752  0.7715 -0.3244  0.5818
26873TIP3    H281502   5.625   3.275   2.844  0.5383  1.5759  0.1446
26874TIP3   OH281503   2.511   4.044   5.446  0.5366  0.0952 -0.1838
26874TIP3    H181504   2.450   4.031   5.518 -1.3185 -0.4318 -1.7664
26874TIP3    H281505   2.479   4.122   5.401  0.9839 -0.2418 -1.1107
26875TIP3   OH281506   4.411   8.133   6.697  0.1115  0.5867 -0.3694
26875TIP3    H181507   4.503   8.121   6.721 -0.4045 -0.6437  1.2755
26875TIP3    H281508   4.393   8.225   6.714  1.0004  0.8003 -0.5588
26876TIP3   OH281509   1.406   9.703   9.105  0.0627 -0.5537 -0.1719
26876TIP3    H181510   1.354   9.770   9.061 -0.3296 -0.1198  0.9213
26876TIP3    H281511   1.478   9.685   9.044  0.2079  0.8977 -0.4632
26877TIP3   OH281512   1.426   0.997   4.852 -0.1221  0.2975  0.0579
26877TIP3    H181513   1.493   1.005   4.920 -0.9923 -2.1778  1.3489
26877TIP3    H281514   1.471   1.020   4.771  1.1844  2.5103  1.3244
26878TIP3   OH281515   3.418   9.462   6.757 -0.5023 -0.5882 -0.3456
26878TIP3    H181516   3.500   9.476   6.804 -0.3520 -0.0285 -0.7672
26878TIP3    H281517   3.442   9.414   6.678 -0.9233 -2.7245  0.7365
26879TIP3   OH281518   5.120   9.209   0.254 -0.6638  0.0485 -0.2104
26879TIP3    H181519   5.094   9.161   0.175  1.3698 -0.4575 -0.6336
26879TIP3    H281520   5.162   9.143   0.309  1.1976  1.0860 -0.3167
26880TIP3   OH281521   1.312   1.725   7.218  0.1332 -0.0737  0.4138
26880TIP3    H181522   1.400   1.738   7.253  0.4276  0.1072 -0.3762
26880TIP3    H281523   1.274   1.657   7.273 -0.2431  1.7320  2.5627
26881TIP3   OH281524   9.905   4.292   3.689  0.7414 -0.0989 -0.5129
26881TIP3    H181525   9.979   4.288   3.749 -0.7863  0.7488  1.5467
26881TIP3    H281526   9.850   4.218   3.713 -1.5306  2.0975  1.5562
26882TIP3   OH281527  10.187   6.164   4.036 -0.5532 -0.5754 -0.0712
26882TIP3    H181528  10.271   6.130   4.005 -1.0691 -1.1468 -0.8904
26882TIP3    H281529  10.198   6.259   4.037 -0.6568 -0.4699 -2.5576
26883TIP3   OH281530   5.017   8.289   7.726  0.2047  0.3707  0.5320
26883TIP3    H181531   5.001   8.216   7.667 -1.4844  1.4765 -0.4439
26883TIP3    H281532   5.112   8.292   7.735  0.3337 -2.1275  0.8905
26884TIP3   OH281533   4.546   5.937   6.504  0.2425 -0.5371 -0.0263
26884TIP3    H181534   4.489   5.871   6.465 -2.4902  2.0732 -0.7594
26884TIP3    H281535   4.558   5.909   6.594 -1.9418 -1.3795  0.0477
26885TIP3   OH281536   2.222   6.339   3.914  0.0656  0.2389  0.1251
26885TIP3    H181537   2.170   6.401   3.861 -0.5070  0.9415  1.4487
26885TIP3    H281538   2.299   6.389   3.941 -0.6060  0.5565  1.5557
26886TIP3   OH281539   0.736   7.523   9.245 -0.2557  0.0601 -0.1516
26886TIP3    H181540   0.679   7.492   9.175  0.1365  0.4057 -0.6343
26886TIP3    H281541   0.679   7.532   9.321 -0.8574  0.4598 -0.6451
26887TIP3   OH281542   1.951   4.577   0.218 -0.0513 -0.1703 -0.4860
26887TIP3    H181543   1.975   4.507   0.157  0.8425  1.2788 -1.8825
26887TIP3    H281544   2.011   4.566   0.292  0.2476 -0.7329 -0.8008
26888TIP3   OH281545   0.985   3.653   5.703  0.0963 -0.0310 -0.0829
26888TIP3    H181546   0.921   3.667   5.633  0.5980 -1.2646 -0.8222
26888TIP3    H281547   1.037   3.578   5.673  1.3376  0.4107  0.8922
26889TIP3   OH281548   8.393   4.058   7.125 -0.4028 -0.7201  0.3184
26889TIP3    H181549   8.342   3.986   7.163  1.1871 -0.3831  3.3809
26889TIP3    H281550   8.480   4.021   7.112  0.4204  0.5849  1.8701
26890TIP3   OH281551   6.015   2.668   2.477 -0.0411  0.2264  0.0473
26890TIP3    H181552   6.100   2.691   2.514 -0.0431  1.5504 -0.7173
26890TIP3    H281553   5.990   2.743   2.423 -2.6154  0.7469  1.7899
26891TIP3   OH281554   5.666   4.133   5.683  0.3043 -0.4002 -0.3363
26891TIP3    H181555   5.647   4.222   5.652  0.0605  0.4198  1.9906
26891TIP3    H281556   5.594   4.080   5.649  1.2754 -0.1114 -3.1011
26892TIP3   OH281557   0.273   2.066  10.744  0.3960  0.7457 -0.3355
26892TIP3    H181558   0.256   2.071  10.838 -0.3471  1.0573 -0.4792
26892TIP3    H281559   0.285   2.156  10.717  1.2285  0.6090 -0.4371
26893TIP3   OH281560   9.316   2.323   2.547 -0.1642  0.3619 -0.1956
26893TIP3    H181561   9.397   2.334   2.496 -0.7024 -1.6691 -1.5941
26893TIP3    H281562   9.260   2.394   2.517  1.1077  1.9268  0.9371
26894TIP3   OH281563   7.339   1.308   8.872  0.1337 -0.3673  0.2671
26894TIP3    H181564   7.338   1.267   8.786 -1.6972  0.4622 -0.1618
26894TIP3    H281565   7.249   1.339   8.885  0.6293  0.4848  2.0099
26895TIP3   OH281566   5.465   0.014  10.718 -0.4017 -0.3532  0.0829
26895TIP3    H181567   5.447   0.107  10.731  0.0843 -0.2181 -0.1844
26895TIP3    H281568   5.486   0.006  10.625  1.0412 -0.4673  0.3890
26896TIP3   OH281569   6.503   1.590   5.396 -0.4452 -0.8341 -0.1749
26896TIP3    H181570   6.456   1.670   5.419 -1.4482 -1.3905 -0.2281
26896TIP3    H281571   6.516   1.545   5.480 -3.6324 -2.6066 -0.4572
26897TIP3   OH281572   7.097   5.228   3.625  0.2480  0.2443  0.4886
26897TIP3    H181573   7.075   5.152   3.679 -0.4822  0.4592  0.5036
26897TIP3    H281574   7.161   5.277   3.676  4.3565 -2.6413 -1.3481
26898TIP3   OH281575   7.520   7.466   2.362  0.4276  0.2848  0.1627
26898TIP3    H181576   7.575   7.519   2.419  0.5742 -0.6384  0.8905
26898TIP3    H281577   7.555   7.377   2.369 -1.0904 -0.3194  0.5816
26899TIP3   OH281578   0.442   3.689   3.018  0.2938 -0.2027 -0.6712
26899TIP3    H181579   0.359   3.679   2.971 -1.2353  0.6746  1.6633
26899TIP3    H281580   0.463   3.600   3.048 -2.3109  0.0579  2.5168
26900TIP3   OH281581   2.024   4.113   9.949  0.3006  0.7833  0.1250
26900TIP3    H181582   2.063   4.200   9.958 -0.7210  1.3892 -1.0513
26900TIP3    H281583   1.930   4.127   9.958  0.2325 -0.4997  1.8218
26901TIP3   OH281584  10.047   0.212   6.722  0.0745  0.3125 -0.1531
26901TIP3    H181585  10.017   0.134   6.767  0.7276 -0.0868 -0.3974
26901TIP3    H281586   9.987   0.281   6.750 -0.2192 -0.1743  0.4254
26902TIP3   OH281587   1.387   2.364   0.534  0.7126  0.6744  0.0846
26902TIP3    H181588   1.405   2.440   0.589 -0.4845 -0.1878  1.7406
26902TIP3    H281589   1.356   2.297   0.594 -1.5793 -0.0277 -1.7310
26903TIP3   OH281590   5.884   8.003   6.210 -0.3603 -0.1516 -0.5292
26903TIP3    H181591   5.974   7.994   6.181 -0.8723  0.7959 -2.5929
26903TIP3    H281592   5.866   7.923   6.259  1.3845 -0.6454 -0.6315
26904TIP3   OH281593   8.892   4.235   6.380 -0.6017  0.0131  0.0655
26904TIP3    H181594   8.898   4.140   6.365  0.1966 -0.1179  1.0887
26904TIP3    H281595   8.839   4.267   6.307  0.6183 -0.9530 -1.3035
26905TIP3   OH281596   7.828  10.263   5.457  0.2532  0.3591 -0.0336
26905TIP3    H181597   7.795  10.202   5.522  3.1792 -0.9626  0.4070
26905TIP3    H281598   7.790  10.348   5.481 -1.5043 -0.7228  1.2131
26906TIP3   OH281599   6.662   9.542   3.821  0.0548 -0.6057  0.3086
26906TIP3    H181600   6.701   9.585   3.745 -1.0021 -1.2845 -0.6457
26906TIP3    H281601   6.578   9.508   3.789 -1.2166  0.5547  2.2094
26907TIP3   OH281602   4.702   3.514  10.052  0.2946 -0.1581  0.2076
26907TIP3    H181603   4.656   3.431  10.067  0.8848 -0.4684  0.3005
26907TIP3    H281604   4.778   3.490  10.000 -1.4846  0.8219 -3.1280
26908TIP3   OH281605   4.481   6.845   8.956  0.5016  0.0106  0.1582
26908TIP3    H181606   4.522   6.929   8.936  0.4681 -0.1961 -0.7862
26908TIP3    H281607   4.389   6.866   8.971  0.2276 -0.0144 -1.3542
26909TIP3   OH281608   2.211   0.967   6.185  0.0334 -0.2533 -0.0749
26909TIP3    H181609   2.147   0.914   6.232  0.4951  1.5559  2.9528
26909TIP3    H281610   2.295   0.926   6.204  0.1045 -0.3743 -0.6427
26910TIP3   OH281611   7.051   6.247   3.665  0.0054  0.1927 -0.0702
26910TIP3    H181612   7.052   6.277   3.756 -1.0036 -0.4425  0.1598
26910TIP3    H281613   6.998   6.168   3.665  2.0325 -1.2465 -0.7968
26911TIP3   OH281614   6.649   9.687   9.663  0.7447 -0.4787  0.3578
26911TIP3    H181615   6.581   9.643   9.714 -0.9055  0.0976 -1.2201
26911TIP3    H281616   6.703   9.616   9.629 -0.5960 -1.1988 -0.3853
26912TIP3   OH281617   1.114   7.568   0.975  0.2106 -0.2694  0.1949
26912TIP3    H181618   1.060   7.638   1.012  0.8430 -0.2564  1.1263
26912TIP3    H281619   1.163   7.534   1.049  1.4397 -0.3284 -0.6256
26913TIP3   OH281620   8.702   1.827   4.709 -0.4298  0.2800 -0.4367
26913TIP3    H181621   8.675   1.870   4.790 -1.6337  0.2790 -0.8065
26913TIP3    H281622   8.668   1.884   4.640  0.1503  0.0233 -0.9401
26914TIP3   OH281623   9.869   5.672   3.922  0.4486  0.0777 -0.4458
26914TIP3    H181624   9.814   5.743   3.957 -1.3068 -1.4043 -0.0640
26914TIP3    H281625   9.946   5.717   3.887  0.1305  2.0392  1.1824
26915TIP3   OH281626  10.900   4.385   9.876 -0.2560 -0.6413 -0.1905
26915TIP3    H181627  10.965   4.373   9.945 -0.0875  2.6056  0.3507
26915TIP3    H281628  10.943   4.439   9.810 -1.4365 -1.0064 -1.3175
26916TIP3   OH281629   9.996   7.690   4.170  0.1304 -0.2059 -0.3281
26916TIP3    H181630  10.044   7.611   4.195  0.1051 -0.5089 -1.2058
26916TIP3    H281631   9.918   7.658   4.126 -1.4354  0.2547  1.9508
26917TIP3   OH281632   8.193   8.870   8.495  0.2882 -0.4956 -0.6857
26917TIP3    H181633   8.138   8.801   8.533  1.5452 -1.1137  0.0677
26917TIP3    H281634   8.267   8.823   8.457  1.6660  0.4804  0.6948
26918TIP3   OH281635  10.780   8.524   9.986 -0.1649  0.0692  0.1706
26918TIP3    H181636  10.838   8.452  10.013  0.3467  0.8391  1.1642
26918TIP3    H281637  10.745   8.559  10.067 -1.0004  0.4712 -0.3531
26919TIP3   OH281638   2.578   1.548   4.819  0.0208  0.7254  0.4385
26919TIP3    H181639   2.624   1.505   4.892 -0.8122  1.1638  1.2453
26919TIP3    H281640   2.486   1.526   4.833 -0.0021 -0.6799 -1.5141
26920TIP3   OH281641   2.361   2.437   8.459  0.2777  0.2622  0.2522
26920TIP3    H181642   2.311   2.496   8.402 -0.8084 -1.2962 -0.4981
26920TIP3    H281643   2.352   2.351   8.417  1.9376 -0.4220  1.2133
26921TIP3   OH281644  10.120  10.665   9.934 -0.4322 -0.2527  0.2570
26921TIP3    H181645  10.157  10.748   9.905  0.3922 -0.3470  0.9922
26921TIP3    H281646  10.177  10.599   9.893 -0.9135 -0.4550 -0.0958
26922TIP3   OH281647   1.788   0.858   7.398  0.5557  0.0358  0.0084
26922TIP3    H181648   1.863   0.911   7.370  0.2612 -0.5153 -1.9802
26922TIP3    H281649   1.812   0.768   7.375 -0.9687 -0.0721 -1.3671
26923TIP3   OH281650   2.570  10.192   5.867  0.1527  0.2324 -0.0077
26923TIP3    H181651   2.601  10.223   5.952  0.7736 -0.3860  0.0048
26923TIP3    H281652   2.634  10.125   5.841 -0.1122  0.3030 -0.8890
26924TIP3   OH281653   4.670  10.691   8.886 -0.0827  0.4553 -0.0383
26924TIP3    H181654   4.764  10.712   8.888 -0.1389  0.6831  0.1360
26924TIP3    H281655   4.627  10.767   8.926 -0.3099  0.1560  0.2902
26925TIP3   OH281656  10.744   1.680  10.337  0.1399 -0.0183  0.0644
26925TIP3    H181657  10.688   1.603  10.343  0.5297 -0.2368  1.4026
26925TIP3    H281658  10.821   1.657  10.389  0.2738  1.2612  0.4711
26926TIP3   OH281659   1.962  10.069   7.144  0.4693  0.2949  0.5872
26926TIP3    H181660   1.893  10.003   7.151  1.7016 -1.3251 -1.3620
26926TIP3    H281661   1.915  10.152   7.137 -1.2295 -0.6042  0.6378
26927TIP3   OH281662   7.733   6.219   4.115 -0.1278  0.0902 -0.2030
26927TIP3    H181663   7.812   6.267   4.141  0.0295 -0.3764  0.1945
26927TIP3    H281664   7.751   6.128   4.138 -1.7419  0.3021  2.2503
26928TIP3   OH281665   8.924   4.041   2.356 -0.2764  0.6131 -0.9222
26928TIP3    H181666   8.849   4.065   2.410 -0.3688  0.5141 -1.0054
26928TIP3    H281667   8.909   3.949   2.332 -0.2433  0.6588 -1.1239
26929TIP3   OH281668  10.766   9.530   0.440 -0.0648  0.6094  0.1816
26929TIP3    H181669  10.698   9.494   0.497  0.3791  0.9006  0.9096
26929TIP3    H281670  10.774   9.466   0.368 -1.0267  0.5281  0.1436
26930TIP3   OH281671   3.522   2.588   9.768  0.4204  0.3606  0.5267
26930TIP3    H181672   3.560   2.513   9.813 -1.7713 -1.3037 -0.1910
26930TIP3    H281673   3.513   2.559   9.677 -2.2615  0.6364  0.6133
26931TIP3   OH281674   0.978   4.007   9.111  0.0779  0.0437  0.4941
26931TIP3    H181675   0.923   3.943   9.066  0.9004 -0.9440  0.8749
26931TIP3    H281676   1.017   3.959   9.183  2.1364  0.4875 -0.2659
26932TIP3   OH281677   4.965   6.786   4.913 -0.0551 -0.2382  0.5216
26932TIP3    H181678   4.941   6.878   4.921  0.9492  0.0564  0.2448
26932TIP3    H281679   4.975   6.771   4.819 -1.4873 -0.9905  0.4473
26933TIP3   OH281680   8.096   7.463   4.607  0.4342  0.6233 -0.1814
26933TIP3    H181681   8.132   7.551   4.615 -0.9779  1.1070  2.0217
26933TIP3    H281682   8.009   7.469   4.648 -0.4784 -1.3700 -1.6463
26934TIP3   OH281683   4.053   2.278   9.289  0.3934  0.2160 -0.4813
26934TIP3    H181684   4.079   2.208   9.350 -0.0116 -1.0457 -1.6914
26934TIP3    H281685   4.129   2.288   9.232 -0.0138 -0.1452 -1.0980
26935TIP3   OH281686  10.800   9.029   9.408 -0.2871 -0.0524  0.2358
26935TIP3    H181687  10.725   8.982   9.372  1.2478 -1.0682 -1.8768
26935TIP3    H281688  10.842   8.967   9.468  0.6650 -0.7735 -1.1105
26936TIP3   OH281689   4.775   2.395   7.293  0.2960 -0.5099  0.3852
26936TIP3    H181690   4.810   2.450   7.363  2.1612  0.3397 -1.1479
26936TIP3    H281691   4.852   2.362   7.248 -0.8563 -1.9358 -0.6140
26937TIP3   OH281692   7.007   9.542   8.891  0.1493 -1.1682  0.2773
26937TIP3    H181693   6.996   9.447   8.880  0.1807 -1.3317  1.4820
26937TIP3    H281694   6.975   9.579   8.809 -3.0409 -2.0437  0.9849
26938TIP3   OH281695   4.016   8.112   4.259 -0.0277 -0.4631 -0.4614
26938TIP3    H181696   4.002   8.138   4.168  1.5218 -1.9036 -1.1652
26938TIP3    H281697   4.108   8.085   4.263 -0.1316 -0.7113  1.4754
26939TIP3   OH281698   9.173   5.126   5.567  0.0790 -0.0110 -0.5734
26939TIP3    H181699   9.216   5.138   5.652  1.0295  0.8643 -1.1426
26939TIP3    H281700   9.200   5.039   5.537 -1.5676 -1.0190  0.7063
26940TIP3   OH281701   6.674   9.301   6.607  0.2402  0.3011 -0.0292
26940TIP3    H181702   6.755   9.302   6.658  0.5105  1.1105 -0.4625
26940TIP3    H281703   6.661   9.392   6.582  0.8800 -0.2469 -2.6132
26941TIP3   OH281704   2.955   6.390   6.412 -0.0314  0.0572 -0.0760
26941TIP3    H181705   2.894   6.379   6.339 -1.9210 -0.2764  1.4780
26941TIP3    H281706   3.019   6.320   6.401 -0.0539  0.2573 -1.6066
26942TIP3   OH281707   8.277   3.088   8.881  0.5706  0.3668  0.1279
26942TIP3    H181708   8.197   3.065   8.834  1.4575 -0.5276 -0.9947
26942TIP3    H281709   8.251   3.160   8.939 -0.1741  2.9128 -3.0792
26943TIP3   OH281710   2.405   2.365   1.851 -0.4156  0.8097  1.0344
26943TIP3    H181711   2.317   2.403   1.850  0.1758  2.2818 -1.3588
26943TIP3    H281712   2.441   2.391   1.935 -1.7530  1.3864  1.4619
26944TIP3   OH281713   5.282   2.391   9.343 -0.0336  0.1355  0.1634
26944TIP3    H181714   5.370   2.393   9.305 -0.3126  0.6337 -0.4761
26944TIP3    H281715   5.262   2.298   9.353 -0.1447 -0.0320 -1.4022
26945TIP3   OH281716   4.849   3.008   6.927 -0.1545 -0.6338 -0.4221
26945TIP3    H181717   4.897   2.928   6.906 -2.3838 -2.3484  0.6496
26945TIP3    H281718   4.761   2.979   6.950 -0.8141  2.0575  0.9160
26946TIP3   OH281719   6.876   2.567   0.217  0.1991  0.0517  0.2682
26946TIP3    H181720   6.963   2.605   0.226  0.5621 -0.6258 -0.2627
26946TIP3    H281721   6.877   2.490   0.274 -0.5343  0.8097  1.3462
26947TIP3   OH281722   9.311   8.906   8.213  0.1358 -0.1610  0.2824
26947TIP3    H181723   9.345   8.887   8.300  0.6567 -1.6457 -0.2186
26947TIP3    H281724   9.376   8.869   8.153  0.8776  2.6223 -0.8323
26948TIP3   OH281725   7.376   2.030   1.989  0.3898  0.2430 -0.0808
26948TIP3    H181726   7.282   2.026   2.007 -0.0745 -4.0970 -2.1131
26948TIP3    H281727   7.383   2.091   1.915 -0.6851  1.0807  0.4691
26949TIP3   OH281728   5.709   5.481   7.809 -0.1448  0.4195 -0.3055
26949TIP3    H181729   5.639   5.512   7.867  1.5605 -2.9187  4.0075
26949TIP3    H281730   5.672   5.404   7.766 -0.2147  0.7587 -0.8682
26950TIP3   OH281731   6.215   5.882   7.754 -0.0454  0.1077  0.7473
26950TIP3    H181732   6.157   5.957   7.765  0.7287  0.6903  1.0156
26950TIP3    H281733   6.213   5.837   7.839  0.4251  0.5319  0.9910
26951TIP3   OH281734   6.883  10.718   2.494 -0.7932 -0.1121  0.6051
26951TIP3    H181735   6.936  10.742   2.418  0.3843 -0.8320  1.1611
26951TIP3    H281736   6.843  10.634   2.470 -2.0930  0.6465  0.0109
26952TIP3   OH281737   4.174   6.635  10.559 -0.0472  0.3003  0.1469
26952TIP3    H181738   4.165   6.540  10.568  1.1797  0.1133 -0.3617
26952TIP3    H281739   4.089   6.665  10.526 -0.1231 -0.7704 -0.6781
26953TIP3   OH281740   9.384   2.155   4.326  0.4516 -0.2366 -0.1410
26953TIP3    H181741   9.474   2.172   4.355  1.7961 -1.2054 -3.2538
26953TIP3    H281742   9.346   2.241   4.313  1.5064  0.2316 -0.2323
26954TIP3   OH281743   4.202   9.771   5.744  0.6032  0.7551  0.2565
26954TIP3    H181744   4.183   9.731   5.659 -0.7391 -0.8428  1.2388
26954TIP3    H281745   4.163   9.858   5.739 -0.6594  0.1805 -0.3236
26955TIP3   OH281746   3.793   4.879   7.976 -0.0339  0.2929 -0.2457
26955TIP3    H181747   3.768   4.804   8.030  0.6124 -0.1923 -0.6091
26955TIP3    H281748   3.758   4.860   7.890 -0.8249  0.9384 -0.0791
26956TIP3   OH281749   9.306   8.298   5.046 -0.5944 -0.1344  0.2682
26956TIP3    H181750   9.341   8.350   4.973  1.4019 -1.5268  0.1372
26956TIP3    H281751   9.240   8.242   5.005  1.1849 -1.6072 -0.7857
26957TIP3   OH281752   2.254   0.931   4.069  0.3572 -0.2456  0.4621
26957TIP3    H181753   2.190   0.985   4.021 -0.3969 -0.8729  0.7466
26957TIP3    H281754   2.335   0.981   4.064  0.5056 -0.6103 -2.1098
26958TIP3   OH281755   8.088   6.114   4.707  0.2884  0.2942 -0.4499
26958TIP3    H181756   8.033   6.153   4.639 -0.9075 -0.5349  0.0025
26958TIP3    H281757   8.166   6.084   4.660  0.0634  0.8826 -1.2300
26959TIP3   OH281758   5.352  10.547   2.244 -0.1369  0.0318 -0.1054
26959TIP3    H181759   5.424  10.568   2.304 -0.6402 -0.3721  0.6484
26959TIP3    H281760   5.391  10.556   2.157  0.7083  0.2540  0.2803
26960TIP3   OH281761   1.273   5.994   2.542  0.3347  0.0586  0.0230
26960TIP3    H181762   1.283   5.974   2.635  0.4090  0.8288  0.1854
26960TIP3    H281763   1.289   6.088   2.535  0.6358 -0.0426 -0.8170
26961TIP3   OH281764   3.228   0.812   3.677 -0.0829 -0.0598 -0.1424
26961TIP3    H181765   3.158   0.750   3.695 -1.9875  1.7325 -0.9089
26961TIP3    H281766   3.272   0.776   3.600 -1.2950 -0.3798 -0.7226
26962TIP3   OH281767  10.115   7.438  10.239 -0.1225  0.1050 -0.1014
26962TIP3    H181768  10.113   7.526  10.201 -1.5965 -0.2931 -1.0496
26962TIP3    H281769  10.036   7.434  10.293 -0.4062 -0.8341 -0.5675
26963TIP3   OH281770   6.727   9.970   8.045  0.3518  0.0576 -0.4985
26963TIP3    H181771   6.676   9.980   7.964 -0.6801  1.0037  0.2298
26963TIP3    H281772   6.818   9.973   8.017  0.0069  0.5311 -1.6112
26964TIP3   OH281773   8.029   6.225   7.045 -0.6341 -0.1511  0.2048
26964TIP3    H181774   7.969   6.200   6.974  0.5373  2.0867 -1.7127
26964TIP3    H281775   8.071   6.305   7.014  0.8221  0.2879  2.9820
26965TIP3   OH281776   0.372   9.336   5.549 -0.5031  0.1867  0.4052
26965TIP3    H181777   0.452   9.388   5.553 -0.4545  0.6940 -3.3293
26965TIP3    H281778   0.400   9.252   5.513 -1.3939 -0.3741  0.9653
26966TIP3   OH281779   9.640   3.047   5.330  0.7920  0.0889 -0.3333
26966TIP3    H181780   9.630   3.139   5.355  3.1195  0.5783 -1.0098
26966TIP3    H281781   9.605   3.042   5.241 -0.2315  0.0623  0.0503
26967TIP3   OH281782   3.218   0.381   0.601  0.5273 -0.3574  0.2700
26967TIP3    H181783   3.168   0.306   0.570 -0.3379  0.9314 -1.6679
26967TIP3    H281784   3.272   0.407   0.527  3.0628 -0.8062  1.8541
26968TIP3   OH281785   4.553   4.825   0.827  0.1366 -0.2337  0.0119
26968TIP3    H181786   4.549   4.788   0.915  1.3046  2.1136  1.1219
26968TIP3    H281787   4.644   4.816   0.800 -0.2718 -1.2324 -1.1414
26969TIP3   OH281788   5.747   8.435   0.604  0.0930 -1.0998 -0.1774
26969TIP3    H181789   5.803   8.375   0.654  1.0124 -0.8505 -0.8796
26969TIP3    H281790   5.803   8.510   0.586 -1.1308  0.1522  0.9647
26970TIP3   OH281791   0.611   8.921   9.488 -0.8230  0.0920  0.3066
26970TIP3    H181792   0.657   8.880   9.562 -0.2810 -0.4279 -0.3020
26970TIP3    H281793   0.643   9.011   9.486 -1.3790  0.3152  1.1369
26971TIP3   OH281794   9.202   2.738   7.747 -0.3716 -0.3137 -0.1361
26971TIP3    H181795   9.179   2.770   7.659 -0.5029  1.6705  0.5764
26971TIP3    H281796   9.268   2.800   7.779  0.8759 -1.9345  0.5742
26972TIP3   OH281797   8.016   5.904   4.381 -0.5700 -0.0070  0.2289
26972TIP3    H181798   8.049   5.877   4.295 -1.7461  1.3309 -0.6831
26972TIP3    H281799   8.095   5.926   4.431  0.0592  0.9727 -1.1437
26973TIP3   OH281800   5.657   8.091   6.410 -0.4226 -0.0459  0.5251
26973TIP3    H181801   5.634   8.157   6.344 -1.5262 -0.0124  0.9257
26973TIP3    H281802   5.748   8.111   6.433 -0.8179  1.5077  0.8410
26974TIP3   OH281803   6.696   1.759   9.403 -0.2652 -1.0134  0.2904
26974TIP3    H181804   6.666   1.747   9.494  0.9694 -1.6388  0.6353
26974TIP3    H281805   6.784   1.795   9.412 -1.0129  1.1825 -0.7017
26975TIP3   OH281806  10.732   3.332   4.474 -0.1168 -0.1723  0.5600
26975TIP3    H181807  10.644   3.368   4.487 -0.3625  0.7506 -2.8841
26975TIP3    H281808  10.723   3.239   4.497 -1.6484  0.1496  1.4261
26976TIP3   OH281809   8.205   7.451   5.082  0.3104 -0.1787 -0.0306
26976TIP3    H181810   8.265   7.497   5.023 -1.0573  1.7721 -0.0194
26976TIP3    H281811   8.147   7.520   5.115  1.8544 -0.8255  4.7312
26977TIP3   OH281812   4.739   2.754   7.494 -0.0251  0.0028  0.4909
26977TIP3    H181813   4.762   2.664   7.516  0.2821 -0.1641 -0.4672
26977TIP3    H281814   4.655   2.746   7.449 -0.8708  0.3821  1.9226
26978TIP3   OH281815   7.224   3.418   1.250  0.0112  0.6050 -0.3135
26978TIP3    H181816   7.308   3.444   1.288 -0.1347 -0.6865  0.9559
26978TIP3    H281817   7.232   3.441   1.158  1.5520  1.0152 -0.1079
26979TIP3   OH281818   3.479   9.539  10.844 -0.2991  0.5544  0.0890
26979TIP3    H181819   3.568   9.551  10.809 -0.3255 -0.6663 -0.4535
26979TIP3    H281820   3.442   9.627  10.845  0.1766  0.8310 -1.7358
26980TIP3   OH281821   5.830   1.752  10.331  0.6359 -0.0109 -0.2395
26980TIP3    H181822   5.910   1.772  10.381  0.9312  0.0634 -0.7353
26980TIP3    H281823   5.858   1.684  10.269  0.0659 -0.7278  0.2732
26981TIP3   OH281824   4.520   8.131   3.494 -0.2512 -0.1398 -0.1877
26981TIP3    H181825   4.453   8.117   3.426  0.4448  2.9278 -1.6689
26981TIP3    H281826   4.508   8.057   3.554 -3.0849 -1.2372 -1.8711
26982TIP3   OH281827   3.175   4.746  10.571  0.4056  0.0811  0.5479
26982TIP3    H181828   3.111   4.814  10.549  0.6090  0.6789  1.7532
26982TIP3    H281829   3.205   4.768  10.659  1.7967 -0.5711  0.2590
26983TIP3   OH281830   1.751   3.527   3.300  0.2929 -0.4034  0.3466
26983TIP3    H181831   1.660   3.505   3.322  0.1662  0.8350  1.2093
26983TIP3    H281832   1.792   3.443   3.281 -0.7448 -1.1095  1.0902
26984TIP3   OH281833   5.002   2.888   0.793 -0.9950  0.3138  0.4166
26984TIP3    H181834   5.019   2.875   0.886  1.4708 -1.0307 -0.1122
26984TIP3    H281835   4.979   2.801   0.761 -0.2338  0.4149 -0.4605
26985TIP3   OH281836  10.586   8.386   0.725  0.5135 -0.0891  0.0644
26985TIP3    H181837  10.523   8.429   0.667  3.0944  1.0031 -2.1039
26985TIP3    H281838  10.597   8.447   0.798 -2.1332 -1.1040  1.4769
26986TIP3   OH281839   4.028   8.824   1.262 -0.2330 -0.0345  0.1951
26986TIP3    H181840   4.112   8.868   1.275  2.0936 -4.3003  1.3284
26986TIP3    H281841   4.010   8.836   1.169  1.3439  1.3900  0.0157
26987TIP3   OH281842   3.428   1.456   2.787  0.4056  0.1585 -0.0838
26987TIP3    H181843   3.384   1.479   2.869 -1.8433 -2.8385 -0.2788
26987TIP3    H281844   3.435   1.539   2.739 -2.8899  1.2323  1.0473
26988TIP3   OH281845   8.823   4.388   6.127 -0.0271  0.1828  0.2920
26988TIP3    H181846   8.835   4.326   6.055 -1.2953  0.6258 -0.3358
26988TIP3    H281847   8.757   4.450   6.095 -0.8084  0.2502  1.9244
26989TIP3   OH281848   9.881   9.810   7.607  0.5416 -1.1142 -0.2584
26989TIP3    H181849   9.829   9.881   7.646  1.4431 -1.3452  1.4660
26989TIP3    H281850   9.817   9.758   7.559 -0.3620  0.1106 -0.4388
26990TIP3   OH281851  10.378   1.800   5.303  0.6818  0.0214 -0.0373
26990TIP3    H181852  10.392   1.895   5.308  1.0969 -0.0213 -0.3695
26990TIP3    H281853  10.453   1.762   5.349  0.7581 -0.1615 -0.3149
26991TIP3   OH281854   7.719   7.408   5.086  0.2772  0.7877  0.4735
26991TIP3    H181855   7.678   7.467   5.149 -0.2745  2.1541 -1.0569
26991TIP3    H281856   7.645   7.373   5.035  0.7515  0.4535  0.0081
26992TIP3   OH281857   7.859   6.077   0.797 -0.3477  0.1943 -0.6013
26992TIP3    H181858   7.936   6.093   0.741  0.6763  0.0418  0.7281
26992TIP3    H281859   7.828   6.165   0.819 -0.5948  0.2568 -1.1818
26993TIP3   OH281860   3.227   8.923   4.095  0.2019 -0.0299 -0.1731
26993TIP3    H181861   3.174   8.905   4.173 -0.7553  1.1447 -0.5284
26993TIP3    H281862   3.169   8.902   4.022  0.4196  0.7488 -0.5723
26994TIP3   OH281863   7.755   5.434   3.990  0.1049 -0.1500  0.1474
26994TIP3    H181864   7.754   5.348   3.947  2.8875 -0.5653  0.7658
26994TIP3    H281865   7.721   5.416   4.078  0.2363 -0.5324  0.1238
26995TIP3   OH281866   3.108   5.699   7.114 -0.2151  0.0833 -0.3190
26995TIP3    H181867   3.031   5.753   7.132 -0.0047  0.1783  0.3254
26995TIP3    H281868   3.075   5.624   7.066 -0.6151  0.4465 -0.6160
26996TIP3   OH281869   9.355   6.549   0.486  0.7148  0.1443 -0.6667
26996TIP3    H181870   9.421   6.567   0.419  1.4902 -0.0010  0.0428
26996TIP3    H281871   9.393   6.480   0.540  1.6438  2.5019  1.9801
26997TIP3   OH281872   8.056   7.029   6.125 -0.7058  0.0242 -0.2347
26997TIP3    H181873   8.054   7.052   6.218  1.6565 -1.4254  0.2636
26997TIP3    H281874   8.058   7.113   6.080  2.5035  0.9487  1.2787
26998TIP3   OH281875   3.169   4.445   8.656 -0.0506  0.5539 -0.2986
26998TIP3    H181876   3.207   4.371   8.609  1.8991  0.0713  1.8644
26998TIP3    H281877   3.093   4.409   8.700  1.2759 -0.4104  1.2960
26999TIP3   OH281878   1.000   4.579   1.326 -0.4164 -0.0568  0.1579
26999TIP3    H181879   0.989   4.486   1.305  0.7954  0.1677 -1.7218
26999TIP3    H281880   1.080   4.583   1.378  1.1921  0.1317 -2.1616
27000TIP3   OH281881   5.695   2.780  10.465  0.6527  0.1020 -0.2429
27000TIP3    H181882   5.720   2.688  10.466  0.5494  0.0774  0.1103
27000TIP3    H281883   5.756   2.821  10.402  0.8641 -0.1577 -0.2086
27001TIP3   OH281884   6.616  10.018  10.179  0.3469 -0.4028 -0.5512
27001TIP3    H181885   6.556   9.957  10.221  3.3192 -2.6684  0.7979
27001TIP3    H281886   6.609  10.098  10.230 -0.8743 -0.9057  0.1005
27002TIP3   OH281887   8.161   8.310   0.834 -0.0701  0.2050  0.3929
27002TIP3    H181888   8.165   8.405   0.850 -1.8857  0.2983  0.4015
27002TIP3    H281889   8.101   8.300   0.761  1.9087 -0.8228 -1.2002
27003TIP3   OH281890   5.505   4.130   3.309 -0.4784  0.0324  0.2728
27003TIP3    H181891   5.593   4.167   3.311 -0.5925  0.2964  0.5344
27003TIP3    H281892   5.495   4.097   3.220  0.1573 -0.6733  0.4520
27004TIP3   OH281893   8.208   4.109   8.664  0.1396  0.1920 -0.6722
27004TIP3    H181894   8.278   4.170   8.638 -0.0227  0.2542 -0.9629
27004TIP3    H281895   8.215   4.106   8.760  1.2256 -0.6189 -0.7527
27005TIP3   OH281896   5.490   8.151   5.817 -0.5219 -0.0990  0.4908
27005TIP3    H181897   5.408   8.133   5.863 -1.2951 -1.2901 -1.2195
27005TIP3    H281898   5.487   8.246   5.799 -1.9700 -0.2500 -0.2692
27006TIP3   OH281899   9.794  10.448  10.177  0.1255 -0.0633  0.0764
27006TIP3    H181900   9.709  10.492  10.179  0.0050 -0.3063  0.6169
27006TIP3    H281901   9.781  10.368  10.228  0.3534 -0.7058 -0.8543
27007TIP3   OH281902   7.008  10.579   0.481  0.0594 -0.0497  0.5679
27007TIP3    H181903   7.056  10.503   0.450 -0.7298 -0.5562  0.5574
27007TIP3    H281904   7.044  10.653   0.431 -0.9434 -0.7927 -1.3633
27008TIP3   OH281905   9.426   4.290   3.697 -0.0280 -0.0993  0.1219
27008TIP3    H181906   9.459   4.299   3.608 -0.3340  0.0932  0.0256
27008TIP3    H281907   9.460   4.367   3.743 -1.8210  1.1010 -0.4459
27009TIP3   OH281908   8.816  10.577   3.617 -0.0930  0.1854 -0.0330
27009TIP3    H181909   8.901  10.558   3.579  0.2205  0.8937  0.2977
27009TIP3    H281910   8.829  10.658   3.667 -0.6313 -0.4143  1.1112
27010TIP3   OH281911   1.189   6.753   3.478  0.3095  0.3609  0.2186
27010TIP3    H181912   1.248   6.713   3.413  0.4237 -0.4010  0.7852
27010TIP3    H281913   1.180   6.844   3.448  1.5741  0.4252 -0.0234
27011TIP3   OH281914   5.424   4.874   7.765  0.7065 -0.2037 -0.4992
27011TIP3    H181915   5.448   4.887   7.673  1.8851  1.6885  0.0290
27011TIP3    H281916   5.384   4.957   7.791  1.3992 -0.3220  1.0096
27012TIP3   OH281917   5.598   1.478   6.476  0.2646 -0.1570 -0.5023
27012TIP3    H181918   5.691   1.491   6.460  0.6518  0.1405  1.7104
27012TIP3    H281919   5.557   1.558   6.442  1.1424  0.9186  0.8580
27013TIP3   OH281920   4.837   3.313   7.693  0.2453  0.3053  0.1587
27013TIP3    H181921   4.932   3.309   7.682  0.4781  0.8967  1.6624
27013TIP3    H281922   4.817   3.244   7.756 -0.0855  1.2516  1.1103
27014TIP3   OH281923   5.505   2.293   1.351  0.0686  0.4549  0.2040
27014TIP3    H181924   5.411   2.276   1.341  0.0953  0.3653  0.1030
27014TIP3    H281925   5.539   2.290   1.262  0.3013 -0.3086  0.3099
27015TIP3   OH281926   6.949   2.819   4.717 -0.5348  0.6089 -0.4711
27015TIP3    H181927   7.017   2.804   4.652 -0.5418  1.6198 -0.7296
27015TIP3    H281928   6.867   2.814   4.668 -0.6679 -0.7128 -0.1412
27016TIP3   OH281929   0.095   9.371   2.910 -0.9383 -0.0545  0.1194
27016TIP3    H181930   0.183   9.391   2.880 -0.4037 -2.0336  0.1747
27016TIP3    H281931   0.052   9.332   2.833 -0.5573 -2.3516  0.9892
27017TIP3   OH281932   3.071   6.847   2.827 -0.2489  0.0818 -0.3045
27017TIP3    H181933   3.040   6.782   2.764 -3.1665 -0.3525  1.4263
27017TIP3    H281934   3.156   6.814   2.855 -0.1029 -1.1232 -1.9874
27018TIP3   OH281935  10.223   5.054   1.814  0.9086 -0.5198 -0.4268
27018TIP3    H181936  10.217   4.993   1.740  0.9668  1.2690 -1.9771
27018TIP3    H281937  10.300   5.107   1.794  0.5942  0.3560  0.6484
27019TIP3   OH281938   6.573   1.807   3.115 -0.3046  0.4264 -0.3952
27019TIP3    H181939   6.542   1.895   3.138  2.6757  1.3105  0.8101
27019TIP3    H281940   6.574   1.759   3.198  0.2987  0.0461 -0.6111
27020TIP3   OH281941  10.203   9.211   8.324  0.4939 -0.1411 -0.1619
27020TIP3    H181942  10.222   9.185   8.414  1.4096 -1.1881 -0.6372
27020TIP3    H281943  10.261   9.285   8.307  0.7406 -0.3163 -0.0786
27021TIP3   OH281944   5.480   1.757   6.024  0.0817 -0.3363  0.4666
27021TIP3    H181945   5.547   1.787   5.963  1.2255 -1.0814  1.3151
27021TIP3    H281946   5.415   1.713   5.969 -0.0177  0.8909 -0.4284
27022TIP3   OH281947  10.904   3.892   4.379  0.1784 -0.0997 -0.3212
27022TIP3    H181948  10.891   3.809   4.426  1.2760 -0.3903 -0.5123
27022TIP3    H281949  10.825   3.942   4.398  0.2238 -0.5416  1.1654
27023TIP3   OH281950   5.977   9.432   1.114 -0.2261  0.5564  0.6924
27023TIP3    H181951   6.022   9.405   1.194  0.9153 -0.1897 -0.1668
27023TIP3    H281952   5.982   9.527   1.115  1.9216  0.4878  0.3516
27024TIP3   OH281953   9.231   0.198   9.076 -0.2670  0.2931  0.4489
27024TIP3    H181954   9.219   0.160   8.989 -2.7763  1.5081  0.1719
27024TIP3    H281955   9.323   0.223   9.079 -0.1720  0.4481 -1.9597
27025TIP3   OH281956   9.297   7.373   6.449  0.4036 -0.5823  0.5522
27025TIP3    H181957   9.327   7.371   6.358  2.3020 -0.8473  1.1538
27025TIP3    H281958   9.257   7.459   6.458  1.7066  0.1290 -0.1023
27026TIP3   OH281959  10.798   2.624   8.941  0.1438  0.0666  0.5249
27026TIP3    H181960  10.753   2.706   8.919 -1.6380 -1.4678 -2.1326
27026TIP3    H281961  10.891   2.645   8.930 -0.2787  1.6483 -0.4709
27027TIP3   OH281962   7.505   3.257   2.847 -0.2857  0.7598  0.1871
27027TIP3    H181963   7.526   3.345   2.817  2.7004  0.6876  1.6456
27027TIP3    H281964   7.556   3.199   2.790 -0.1733  0.1789  0.8610
27028TIP3   OH281965   2.350   5.242   5.851  0.6222  0.3013 -0.2959
27028TIP3    H181966   2.436   5.239   5.894  0.3432  0.0690  0.2584
27028TIP3    H281967   2.338   5.334   5.828 -0.0814  0.8473  1.9366
27029TIP3   OH281968   1.281   6.718   0.739  0.1240  0.3997  0.1993
27029TIP3    H181969   1.237   6.721   0.824  0.0855  1.0908  0.1673
27029TIP3    H281970   1.338   6.795   0.739  2.4592 -1.2552  0.8167
27030TIP3   OH281971  10.118   7.694   1.463 -0.5826 -0.2858 -0.1842
27030TIP3    H181972  10.176   7.744   1.405  0.8634  0.7977  2.0619
27030TIP3    H281973  10.131   7.603   1.437  0.9054  0.0766 -0.8228
27031TIP3   OH281974   3.948   5.327   5.707 -0.1448 -0.3477 -0.4010
27031TIP3    H181975   4.017   5.352   5.769  0.5976 -0.6885 -1.0643
27031TIP3    H281976   3.953   5.392   5.638  1.2701 -1.7912 -1.7402
27032TIP3   OH281977   9.759   2.630   8.240  0.4045  0.2358  0.0482
27032TIP3    H181978   9.781   2.672   8.323  2.5170 -1.7572  0.6055
27032TIP3    H281979   9.694   2.564   8.263 -0.4401  0.9508 -0.2453
27033TIP3   OH281980   6.437   4.732   1.784 -0.3839  0.8964 -0.4324
27033TIP3    H181981   6.461   4.648   1.823 -1.3269  1.0961  0.6133
27033TIP3    H281982   6.479   4.797   1.840 -0.6312  1.1566 -0.5500
27034TIP3   OH281983   8.199   7.664   7.338 -0.3758  0.1660 -0.0568
27034TIP3    H181984   8.251   7.612   7.276 -2.0037 -0.7750 -0.6934
27034TIP3    H281985   8.109   7.654   7.308 -1.3802 -1.1908  3.0627
27035TIP3   OH281986   3.738   4.158   7.528 -0.0604  0.9090  0.2591
27035TIP3    H181987   3.730   4.225   7.460 -0.0455  0.2791 -0.3646
27035TIP3    H281988   3.815   4.107   7.503 -0.9779 -0.3131 -0.1287
27036TIP3   OH281989  10.732   6.255   5.977 -0.8314 -0.0197  0.3757
27036TIP3    H181990  10.745   6.236   6.070  1.5499 -0.1531  0.0726
27036TIP3    H281991  10.779   6.186   5.931 -0.5057  1.0047 -0.9047
27037TIP3   OH281992   0.844   4.920   2.763 -0.5000 -0.1792 -0.3649
27037TIP3    H181993   0.798   4.967   2.833  0.5956 -1.0305  0.9676
27037TIP3    H281994   0.784   4.924   2.689 -1.8316  0.5008  0.7006
27038TIP3   OH281995   1.365  10.140   9.457 -0.1100 -0.0283 -0.0717
27038TIP3    H181996   1.284  10.192   9.457  0.0909  0.3516  1.6716
27038TIP3    H281997   1.398  10.147   9.547  1.1326 -1.3302 -0.3902
27039TIP3   OH281998   6.007   8.118   6.998 -0.6420  0.1777  0.0316
27039TIP3    H181999   6.025   8.029   7.029 -0.4020  0.3511  0.4047
27039TIP3    H282000   6.002   8.170   7.078 -1.1933  0.4276 -0.1632
27040TIP3   OH282001   8.708   1.570   7.767  0.2214  0.4827  0.6671
27040TIP3    H182002   8.689   1.518   7.689  0.3556 -0.2470  1.1107
27040TIP3    H282003   8.728   1.657   7.733 -0.0630  0.2624 -0.0872
27041TIP3   OH282004   7.133   7.444   8.908 -0.4571  0.0986 -0.0002
27041TIP3    H182005   7.222   7.467   8.882  0.1517 -0.0985  1.7155
27041TIP3    H282006   7.126   7.476   8.998 -1.7793 -0.7550  0.2263
27042TIP3   OH282007   1.337   7.044  10.006 -0.2597  0.1159 -0.4081
27042TIP3    H182008   1.302   6.959   9.979 -1.3215 -0.2261  1.7994
27042TIP3    H282009   1.415   7.022  10.057 -0.1837  0.4918 -0.3602
27043TIP3   OH282010   2.134   9.454   5.425  0.3447 -0.0217  0.4128
27043TIP3    H182011   2.161   9.546   5.431 -0.0743  0.0703  0.9845
27043TIP3    H282012   2.074   9.442   5.499 -0.4093 -0.4857 -0.2653
27044TIP3   OH282013   7.032   4.681   9.635 -0.0258 -0.1069 -0.3047
27044TIP3    H182014   6.939   4.659   9.629 -0.6913  2.4746 -0.5088
27044TIP3    H282015   7.036   4.753   9.698  1.8848 -0.2959 -0.1342
27045TIP3   OH282016   6.271   9.618   2.685 -0.7910 -0.1208 -0.1896
27045TIP3    H182017   6.326   9.660   2.752 -0.3392 -0.6747 -0.2079
27045TIP3    H282018   6.182   9.634   2.714 -0.6101  0.1956  0.2089
27046TIP3   OH282019   9.167   1.631   6.580 -0.4701  0.1035  1.1722
27046TIP3    H182020   9.232   1.637   6.510  0.1783  0.2475  1.7752
27046TIP3    H282021   9.184   1.546   6.621  0.5898  0.9235  2.5151
27047TIP3   OH282022   0.607   6.216   6.213 -0.3991  0.1351 -0.4343
27047TIP3    H182023   0.517   6.183   6.217 -0.8704  1.3539  3.5383
27047TIP3    H282024   0.601   6.306   6.245  2.2153  0.4136 -0.4723
27048TIP3   OH282025   2.604   6.803   8.661  0.2154 -0.3406  0.2560
27048TIP3    H182026   2.675   6.739   8.662  0.3015 -0.2429  0.6957
27048TIP3    H282027   2.539   6.766   8.602 -0.0960 -1.2344  1.1364
27049TIP3   OH282028   2.785  10.632   5.398  0.1557  0.3664  0.4977
27049TIP3    H182029   2.867  10.612   5.353 -1.3461  0.1088 -2.3727
27049TIP3    H282030   2.784  10.728   5.404 -0.3823  0.5637 -1.8117
27050TIP3   OH282031   7.291   0.094  10.592  0.5639  0.5739 -0.2449
27050TIP3    H182032   7.212   0.042  10.606  0.6353  0.8259  1.2162
27050TIP3    H282033   7.344   0.041  10.532  0.4542 -0.8542  0.8924
27051TIP3   OH282034   0.855   6.980   2.040  0.1155  0.1520 -0.8225
27051TIP3    H182035   0.823   7.001   2.128 -0.7868 -1.1222 -0.8166
27051TIP3    H282036   0.775   6.967   1.988  0.6337  1.4220 -1.9857
27052TIP3   OH282037  10.330   0.521   0.060 -0.4462  0.2159  0.6396
27052TIP3    H182038  10.337   0.617   0.067  2.6034  0.1671 -0.0667
27052TIP3    H282039  10.291   0.494   0.143 -2.1953  2.0924  0.5135
27053TIP3   OH282040   8.743   5.552   0.297  0.1355  0.2627 -0.2665
27053TIP3    H182041   8.752   5.511   0.383 -1.3927  1.4037  0.4912
27053TIP3    H282042   8.831   5.553   0.261  0.9509  0.5085  1.6332
27054TIP3   OH282043   2.753   2.226   1.355 -0.1444  0.3283 -0.4276
27054TIP3    H182044   2.830   2.225   1.412  1.7539  1.0009 -2.8071
27054TIP3    H282045   2.700   2.299   1.386 -0.9868 -1.4064  2.5699
27055TIP3   OH282046   9.233   5.819   0.908  0.0803  0.9547 -0.0526
27055TIP3    H182047   9.180   5.822   0.988 -3.7667 -1.1539 -2.2430
27055TIP3    H282048   9.289   5.742   0.920 -2.2980 -0.9306 -0.2284
27056TIP3   OH282049   4.471   9.604   0.976  0.3474 -0.0311  0.2941
27056TIP3    H182050   4.534   9.649   0.921  1.4059 -1.9427 -0.1512
27056TIP3    H282051   4.412   9.673   1.007  1.1391  1.4363 -1.3055
27057TIP3   OH282052   2.121   3.398   2.675  0.2956 -0.2702 -0.7450
27057TIP3    H182053   2.164   3.433   2.597  0.7662  1.7679  0.3393
27057TIP3    H282054   2.056   3.466   2.698 -0.1233 -1.0214  0.3839
27058TIP3   OH282055   0.100   7.452   9.328 -0.4974  0.3259  0.6622
27058TIP3    H182056   0.154   7.524   9.297 -2.2098  2.1596  1.7196
27058TIP3    H282057   0.094   7.392   9.254 -0.5564  2.1788 -0.8945
27059TIP3   OH282058   0.157   0.937   8.546  0.1884 -0.2815 -0.4341
27059TIP3    H182059   0.234   0.939   8.489 -0.4990  1.7381 -1.3962
27059TIP3    H282060   0.162   1.018   8.596 -0.4447 -0.9400  0.7386
27060TIP3   OH282061   5.571   3.424   6.738 -0.0416  0.6450  0.3376
27060TIP3    H182062   5.601   3.373   6.814 -0.4263  0.3209  0.2765
27060TIP3    H282063   5.477   3.431   6.750 -0.1832  0.1014 -0.4047
27061TIP3   OH282064   2.357   7.652   3.113 -0.0513 -0.8444 -0.7109
27061TIP3    H182065   2.295   7.719   3.142  2.9313  1.4265  1.0718
27061TIP3    H282066   2.365   7.592   3.187 -0.3680 -1.3238 -1.0629
27062TIP3   OH282067   3.689   9.228   2.027 -0.1480  0.3192 -0.1855
27062TIP3    H182068   3.711   9.144   2.068 -0.6289  1.0683  1.7414
27062TIP3    H282069   3.652   9.205   1.942  1.2127 -1.3197 -0.3804
27063TIP3   OH282070   9.030   9.949   9.374 -0.7020 -0.2001  0.8819
27063TIP3    H182071   8.954   9.950   9.316  0.3081 -0.6815 -0.5266
27063TIP3    H282072   9.009   9.885   9.441 -2.0420  0.6074  1.2542
27064TIP3   OH282073   4.860   1.922   5.981  0.2208 -0.5628  0.3399
27064TIP3    H182074   4.843   1.869   5.904  0.3933 -0.4253  0.2058
27064TIP3    H282075   4.776   1.964   6.001  0.1628 -0.6425  0.2597
27065TIP3   OH282076   2.467   2.319   2.547  0.0485  0.3794 -0.1567
27065TIP3    H182077   2.449   2.391   2.486 -0.9857  1.5013  1.4051
27065TIP3    H282078   2.451   2.356   2.633  2.8561 -0.7305  0.9646
27066TIP3   OH282079   2.430   1.557   6.629 -0.2994  0.3962 -0.1892
27066TIP3    H182080   2.468   1.550   6.541  1.6420 -0.8296  0.6492
27066TIP3    H282081   2.337   1.538   6.617 -0.3749  1.7534 -2.1551
27067TIP3   OH282082   1.326   1.595  10.331 -0.3501  0.1495  0.6357
27067TIP3    H182083   1.406   1.587  10.279  0.3338  0.2140  1.6440
27067TIP3    H282084   1.265   1.642  10.275  1.0664  2.1248  0.6180
27068TIP3   OH282085   7.007   1.900  10.068 -0.5772  0.5308 -0.2884
27068TIP3    H182086   7.054   1.926  10.147 -0.9675  1.1656 -0.2575
27068TIP3    H282087   6.961   1.819  10.093  0.0109  0.2335 -0.1453
27069TIP3   OH282088   1.326   6.431   8.053  0.4416 -0.3631  0.4876
27069TIP3    H182089   1.392   6.501   8.050  0.0751  0.0404  1.3266
27069TIP3    H282090   1.317   6.402   7.962  3.0854 -1.6823  0.5435
27070TIP3   OH282091   0.778   8.341   4.459  0.5248 -0.3714 -0.4182
27070TIP3    H182092   0.753   8.303   4.543 -0.4310  0.0050 -0.5159
27070TIP3    H282093   0.803   8.266   4.405  0.3345 -0.6958 -0.0636
27071TIP3   OH282094  10.316   0.238   2.037  0.2023 -0.7900  0.7408
27071TIP3    H182095  10.342   0.235   1.945  0.8803 -1.8733  0.9471
27071TIP3    H282096  10.221   0.236   2.035  0.2129 -1.2865  0.0636
27072TIP3   OH282097  10.760   2.729   0.867 -0.0617 -0.2013 -0.1567
27072TIP3    H182098  10.837   2.770   0.907 -0.7818  0.6998  0.3375
27072TIP3    H282099  10.771   2.636   0.884  0.8964 -0.0798 -0.0511
27073TIP3   OH282100   2.905   4.368   3.008 -0.0691 -0.4310 -0.0114
27073TIP3    H182101   2.867   4.456   3.010  0.7097 -0.1038  1.1455
27073TIP3    H282102   2.898   4.337   3.098  0.2953 -1.2833 -0.2703
27074TIP3   OH282103   9.846   7.251   9.831 -0.3578  0.4894 -0.3836
27074TIP3    H182104   9.903   7.175   9.841  0.0440  0.2793 -3.2815
27074TIP3    H282105   9.901   7.326   9.853 -0.1031  0.0826  0.4039
27075TIP3   OH282106   3.962   3.124   8.261 -0.1382  0.4072  0.6032
27075TIP3    H182107   3.913   3.106   8.340 -0.6180  0.3718  0.2999
27075TIP3    H282108   3.898   3.120   8.190  0.0341  1.6933  0.3410
27076TIP3   OH282109   2.908   4.833   2.853 -0.0552 -0.0378 -0.0098
27076TIP3    H182110   2.944   4.918   2.878 -2.2070  0.7580  0.5849
27076TIP3    H282111   2.969   4.799   2.787 -0.4990  3.1975 -2.3304
27077TIP3   OH282112   8.439   6.413   3.262  0.4000  0.3035  0.7580
27077TIP3    H182113   8.420   6.346   3.196 -4.2783 -1.7718  3.7137
27077TIP3    H282114   8.394   6.491   3.229 -1.1828 -0.4658  1.0259
27078TIP3   OH282115   3.866   3.974   8.516  0.5383 -0.1924 -0.2441
27078TIP3    H182116   3.818   3.913   8.460 -0.2208  0.6516 -0.5371
27078TIP3    H282117   3.900   4.040   8.456  0.1913  0.4146  0.2183
27079TIP3   OH282118   8.248   1.741   1.421  0.1624 -0.3528  0.2668
27079TIP3    H182119   8.282   1.693   1.496  1.0170  0.5747  0.5044
27079TIP3    H282120   8.286   1.697   1.345  0.1893 -0.6206  0.4353
27080TIP3   OH282121   2.410   4.973   2.115 -0.4592  0.4676  0.0424
27080TIP3    H182122   2.447   4.969   2.026 -0.0411 -1.0191  0.2529
27080TIP3    H282123   2.474   5.025   2.165 -0.2409  0.5485 -0.3143
27081TIP3   OH282124   5.592   2.042   5.291 -0.5030  0.3313 -0.0946
27081TIP3    H182125   5.538   1.971   5.325  1.0687 -1.1237 -0.5113
27081TIP3    H282126   5.624   2.088   5.368  0.4311 -0.9554  0.3147
27082TIP3   OH282127   8.711   6.809   5.247 -0.3833 -0.4065  0.1569
27082TIP3    H182128   8.659   6.729   5.255 -1.1559 -0.2227 -2.1470
27082TIP3    H282129   8.649   6.880   5.265 -0.4245 -0.2601 -0.5194
27083TIP3   OH282130   0.442   5.858   5.813 -0.0902 -0.0840  0.1812
27083TIP3    H182131   0.464   5.773   5.850  0.0713  0.3934  1.2042
27083TIP3    H282132   0.504   5.870   5.741 -0.0858 -0.8026  0.0567
27084TIP3   OH282133   4.593   2.127   0.180 -0.2423 -0.0646  0.5985
27084TIP3    H182134   4.509   2.174   0.182  0.5194  1.7842 -2.5445
27084TIP3    H282135   4.575   2.050   0.126  0.1687  0.8198 -0.8859
27085TIP3   OH282136   5.291   6.000   9.589 -0.0382 -0.2299 -0.1387
27085TIP3    H182137   5.383   6.028   9.592  0.3377 -1.3931 -0.4268
27085TIP3    H282138   5.290   5.926   9.529 -1.1034 -0.4903  0.1738
27086TIP3   OH282139   9.058  10.346   2.191  0.2533 -0.0864  0.3499
27086TIP3    H182140   9.092  10.299   2.114 -2.2540 -0.2878 -0.7115
27086TIP3    H282141   9.028  10.430   2.156 -0.6236 -0.0523  1.1708
27087TIP3   OH282142   2.058   9.549   3.168  0.0742  0.4528 -0.2071
27087TIP3    H182143   2.064   9.645   3.173  0.5712  0.4348 -0.4320
27087TIP3    H282144   1.973   9.529   3.208 -0.3014  1.0331 -0.6907
27088TIP3   OH282145   8.643   3.209   4.943  0.3611 -0.1238  0.4211
27088TIP3    H182146   8.676   3.131   4.899 -1.3298 -1.6682  1.7447
27088TIP3    H282147   8.548   3.199   4.942 -0.0301  2.7524 -0.7698
27089TIP3   OH282148   3.391   9.914   0.784 -0.8510  0.3271  0.3453
27089TIP3    H182149   3.331   9.892   0.712  0.0892  0.4379 -0.5067
27089TIP3    H282150   3.336   9.957   0.849 -1.9270 -0.6992  0.1573
27090TIP3   OH282151  10.445   7.273   2.510 -0.0745  0.6365 -0.0573
27090TIP3    H182152  10.400   7.189   2.520 -1.4824  1.4074  0.2959
27090TIP3    H282153  10.375   7.336   2.494  0.9012  1.8523  0.3157
27091TIP3   OH282154   4.223   2.991   8.964  0.0723  0.0276  0.4816
27091TIP3    H182155   4.272   3.063   9.001  0.7650 -0.4050  0.4168
27091TIP3    H282156   4.139   2.993   9.010  0.0875  0.8585  0.4861
27092TIP3   OH282157   2.723   7.619   8.750 -0.4624  0.2516 -0.1717
27092TIP3    H182158   2.708   7.526   8.763  0.5152  0.4442  3.2388
27092TIP3    H282159   2.783   7.623   8.675  0.9337 -2.0113  0.7350
27093TIP3   OH282160   6.982   3.251   7.144  0.3410  0.5309 -0.0173
27093TIP3    H182161   6.957   3.281   7.057  1.8117  1.7153 -0.0554
27093TIP3    H282162   7.029   3.324   7.184  2.2291 -0.9430  0.6747
27094TIP3   OH282163   6.677   5.389   0.460  0.6936 -0.2250  0.1143
27094TIP3    H182164   6.595   5.360   0.421  1.1821 -2.5013  0.6301
27094TIP3    H282165   6.700   5.468   0.412 -0.6493 -0.8000 -1.5649
27095TIP3   OH282166   9.093   8.385   1.928 -0.2195 -0.0863  0.4373
27095TIP3    H182167   9.078   8.291   1.915 -1.1260 -0.0305  0.9863
27095TIP3    H282168   9.006   8.424   1.924 -0.0763  0.4839  2.1335
27096TIP3   OH282169   3.984   7.951   8.231  0.9136  0.1755 -0.7310
27096TIP3    H182170   4.025   7.969   8.316 -0.8068  1.5913 -0.1252
27096TIP3    H282171   3.939   7.867   8.244 -1.0650  1.3286  0.5409
27097TIP3   OH282172   3.634   1.927   2.764  0.0533  0.5045  0.2037
27097TIP3    H182173   3.560   1.865   2.760 -0.6040  1.2849  0.0140
27097TIP3    H282174   3.708   1.878   2.727  0.0732 -0.8829  1.9141
27098TIP3   OH282175   9.283   2.330   7.436  0.5329 -0.2024 -0.2209
27098TIP3    H182176   9.323   2.387   7.501  0.1750 -0.1936 -0.0102
27098TIP3    H282177   9.271   2.385   7.359 -0.3107  0.1536  0.1585
27099TIP3   OH282178   3.140   4.602   6.140 -0.6717 -0.1351  0.2567
27099TIP3    H182179   3.150   4.647   6.056 -0.5330 -2.0355 -0.7983
27099TIP3    H282180   3.063   4.547   6.128 -1.5184  0.6224  1.9165
27100TIP3   OH282181   3.151  10.194   5.102 -0.5253  0.5831  0.1527
27100TIP3    H182182   3.233  10.163   5.139 -0.4423  1.0245  0.3441
27100TIP3    H282183   3.111  10.116   5.063 -0.2174  0.2846  0.4288
27101TIP3   OH282184   8.086   4.841   8.254 -0.0397  0.6946  0.0132
27101TIP3    H182185   8.149   4.846   8.326 -0.0303  0.6362  0.0094
27101TIP3    H282186   8.132   4.795   8.184 -0.6274 -0.8109  0.5885
27102TIP3   OH282187   1.700   1.948   4.661  0.5280 -0.7993 -0.2585
27102TIP3    H182188   1.616   1.912   4.632 -0.6953  0.2596  1.7372
27102TIP3    H282189   1.682   2.041   4.675  1.9691 -0.6060  0.4509
27103TIP3   OH282190   1.350   7.791   4.358 -0.4392  0.1678 -0.3069
27103TIP3    H182191   1.350   7.806   4.452  0.1041 -1.5976  0.0204
27103TIP3    H282192   1.267   7.827   4.327 -1.9113 -1.6502  1.3033
27104TIP3   OH282193  10.859   0.601   8.670  0.6012  0.1432  0.6546
27104TIP3    H182194  10.929   0.619   8.733 -0.4682  0.8766  1.6809
27104TIP3    H282195  10.779   0.600   8.723 -0.2207 -0.2580 -0.5538
27105TIP3   OH282196   3.340   3.643   5.185  0.2956 -0.4285  0.5523
27105TIP3    H182197   3.301   3.716   5.232  0.2508  0.2086 -0.4351
27105TIP3    H282198   3.403   3.683   5.125 -0.9657 -0.9901 -1.2524
27106TIP3   OH282199   9.210   5.617   1.827 -0.3888  0.1503 -0.3542
27106TIP3    H182200   9.139   5.553   1.833 -0.2237  0.0703  0.9478
27106TIP3    H282201   9.284   5.566   1.794 -0.6031 -0.0404 -0.5468
27107TIP3   OH282202   0.518   7.335   0.312 -0.0010 -0.2752 -0.1232
27107TIP3    H182203   0.521   7.246   0.348  0.0903  0.2231  1.1490
27107TIP3    H282204   0.525   7.323   0.217  1.2355 -1.5463  0.1008
27108TIP3   OH282205   0.433   2.696   5.921 -0.2383  0.0156 -0.4795
27108TIP3    H182206   0.395   2.703   6.008 -0.9223  2.8993 -0.8946
27108TIP3    H282207   0.361   2.669   5.865 -0.1248 -0.5514 -0.3544
27109TIP3   OH282208   3.982   7.548   8.150  0.3401 -0.1864 -0.4555
27109TIP3    H182209   4.031   7.475   8.112 -0.0558 -0.8786  0.3244
27109TIP3    H282210   3.964   7.606   8.077  0.2783 -1.0964 -1.1804
27110TIP3   OH282211   0.487   3.155   3.653  0.3753  0.2445 -0.0505
27110TIP3    H182212   0.418   3.213   3.686  0.2196  0.4216 -0.6804
27110TIP3    H282213   0.563   3.212   3.640  0.3643  0.2217 -0.2208
27111TIP3   OH282214  10.200   7.153   9.302  0.4246 -0.1083 -0.4756
27111TIP3    H182215  10.239   7.148   9.214 -0.5042 -0.2565 -0.8847
27111TIP3    H282216  10.168   7.243   9.308  1.0747  0.0999 -0.0269
27112TIP3   OH282217  10.906   2.692   9.876  0.5932  0.2354  0.2934
27112TIP3    H182218  10.906   2.606   9.920 -0.2141 -0.9732 -1.8944
27112TIP3    H282219  10.819   2.727   9.893  0.6702  0.2962  0.5702
27113TIP3   OH282220   3.642   4.376   4.136 -0.0529  0.3013 -0.2347
27113TIP3    H182221   3.735   4.390   4.155 -0.0837 -2.1794  2.3719
27113TIP3    H282222   3.596   4.413   4.211 -1.0709 -0.2487 -0.5645
27114TIP3   OH282223   4.166   6.228   4.131 -0.3921 -0.0988  0.8402
27114TIP3    H182224   4.252   6.240   4.171 -0.4183 -0.0405  0.8792
27114TIP3    H282225   4.147   6.135   4.141 -0.2674 -0.1387  0.6988
27115TIP3   OH282226   3.883   2.420   1.771 -0.9368 -0.1823 -0.4193
27115TIP3    H182227   3.935   2.356   1.722 -2.4296 -1.7358 -0.0655
27115TIP3    H282228   3.809   2.439   1.714 -1.1378  0.3128  0.0022
27116TIP3   OH282229   2.313   9.767   4.928 -0.0562  0.1889 -0.1867
27116TIP3    H182230   2.403   9.797   4.942  0.4458 -0.9350 -0.7677
27116TIP3    H282231   2.268   9.842   4.889  1.1761  0.1999 -1.7185
27117TIP3   OH282232   8.535   6.864   7.222  0.3225  0.7873  0.3505
27117TIP3    H182233   8.578   6.830   7.300  1.3399 -0.4455 -0.7046
27117TIP3    H282234   8.523   6.788   7.166  0.7921  1.8414 -1.2444
27118TIP3   OH282235   4.246  10.356   2.120 -0.0399  0.0968 -0.7357
27118TIP3    H182236   4.245  10.270   2.077  0.6895  0.1063 -0.7890
27118TIP3    H282237   4.180  10.349   2.188  1.3148 -1.1821  0.5237
27119TIP3   OH282238   4.572   4.607   2.221 -0.4452  0.4646 -0.7835
27119TIP3    H182239   4.574   4.558   2.303  0.2424  0.7004 -0.6519
27119TIP3    H282240   4.558   4.541   2.153  0.5181  0.0620 -0.6138
27120TIP3   OH282241   8.448   9.404  10.832  0.2875 -0.1345  0.2401
27120TIP3    H182242   8.532   9.429  10.793  1.4524 -0.3237  2.4218
27120TIP3    H282243   8.388   9.398  10.759  1.9229  1.0595 -1.2944
27121TIP3   OH282244   0.764   5.558  10.206  0.6242 -0.1704  0.2716
27121TIP3    H182245   0.746   5.607  10.286 -1.0177  1.2301 -0.8694
27121TIP3    H282246   0.855   5.529  10.214  0.5008 -0.0487  2.5916
27122TIP3   OH282247   4.705  10.666   7.561  0.0043  0.0238  0.4510
27122TIP3    H182248   4.618  10.630   7.550 -1.0356  2.2095  0.9884
27122TIP3    H282249   4.717  10.674   7.656  1.2859 -1.3102  0.4426
27123TIP3   OH282250  10.875   1.119   1.054 -0.0490  0.4887  0.4185
27123TIP3    H182251  10.892   1.212   1.068  2.3082  0.5291 -1.8855
27123TIP3    H282252  10.950   1.088   1.003 -0.8461 -2.6577  0.9198
27124TIP3   OH282253   6.776   0.638   5.838  0.1244 -0.3156  0.0523
27124TIP3    H182254   6.694   0.589   5.831  0.3980 -0.6301 -1.2816
27124TIP3    H282255   6.843   0.571   5.851  0.3104 -0.1772 -0.1752
27125TIP3   OH282256   9.492   5.065   8.708 -0.9467 -0.3880  0.2700
27125TIP3    H182257   9.481   5.160   8.718  0.4523 -0.0755 -0.7519
27125TIP3    H282258   9.446   5.044   8.627  0.1953 -0.2303 -0.4560
27126TIP3   OH282259   0.526   2.870   6.314  0.1367  0.2049  0.4324
27126TIP3    H182260   0.554   2.958   6.286 -1.3873  0.2124 -1.2969
27126TIP3    H282261   0.431   2.877   6.323 -0.1822 -1.5077 -0.9084
27127TIP3   OH282262   9.421   9.022   2.481 -0.1075 -0.5171  0.0927
27127TIP3    H182263   9.370   8.945   2.455 -0.7814 -0.7059  1.8011
27127TIP3    H282264   9.425   9.076   2.403  0.1249 -2.1447 -1.0708
27128TIP3   OH282265   2.548   6.156   7.351  0.2603  0.6726  0.3278
27128TIP3    H182266   2.555   6.064   7.326 -0.8996  0.5997  0.2530
27128TIP3    H282267   2.519   6.154   7.442  1.0371  0.9658  0.5897
27129TIP3   OH282268   4.919   7.863   9.696  0.0117 -0.4311 -0.4384
27129TIP3    H182269   4.865   7.822   9.764 -0.4238  0.7213 -0.0725
27129TIP3    H282270   4.972   7.927   9.742  1.0752 -0.9255 -0.9298
27130TIP3   OH282271   9.589   5.501   0.255 -0.1970  0.1155 -0.5576
27130TIP3    H182272   9.524   5.566   0.280  0.2439  0.0139  0.9181
27130TIP3    H282273   9.543   5.417   0.262 -0.0389  0.0760  0.0979
27131TIP3   OH282274  10.805   9.546   4.488  0.0320  0.8306 -0.7805
27131TIP3    H182275  10.791   9.596   4.407 -1.4921 -0.7221 -1.5399
27131TIP3    H282276  10.733   9.572   4.546  0.4461  1.0696 -0.3708
27132TIP3   OH282277   7.294   2.819   1.063  0.2167  0.5861  0.4746
27132TIP3    H182278   7.266   2.782   1.147  1.3394  1.8361  1.4238
27132TIP3    H282279   7.336   2.901   1.086 -0.8382  1.7267 -1.4610
27133TIP3   OH282280   1.998   7.594   5.000  0.1328  0.5594 -0.0183
27133TIP3    H182281   1.911   7.612   5.035  0.4425  1.2279  0.4380
27133TIP3    H282282   2.018   7.670   4.945  1.3346  1.5430  1.6820
27134TIP3   OH282283  10.840   2.675  10.561  0.1210  0.4007  0.0665
27134TIP3    H182284  10.745   2.671  10.552 -0.0574  0.9055  1.4844
27134TIP3    H282285  10.855   2.741  10.629  1.3657 -1.4531  1.6963
27135TIP3   OH282286   9.826   6.739   1.646  0.3874 -0.6664 -1.0446
27135TIP3    H182287   9.732   6.743   1.630  0.1752 -0.1740  0.2149
27135TIP3    H282288   9.859   6.824   1.619 -0.2219  0.8169  2.3098
27136TIP3   OH282289   5.551   0.631   6.686  0.0481 -0.1175  0.2873
27136TIP3    H182290   5.550   0.658   6.778  0.4272 -0.3186  0.3530
27136TIP3    H282291   5.603   0.697   6.641 -0.7863  0.4081  0.0742
27137TIP3   OH282292   1.255   3.226   7.981 -0.2743 -0.3342 -0.4608
27137TIP3    H182293   1.217   3.284   7.915 -0.2531  0.4031  0.1603
27137TIP3    H282294   1.349   3.235   7.970 -0.2293  1.3171  0.9334
27138TIP3   OH282295   9.987   2.875   4.112  0.1761 -0.1266  0.2236
27138TIP3    H182296  10.031   2.794   4.085 -0.6120 -0.2521 -0.7371
27138TIP3    H282297  10.048   2.945   4.086  0.5171 -0.3686  0.3635
27139TIP3   OH282298   8.738  10.880   2.776  0.4651 -0.0678  0.2260
27139TIP3    H182299   8.714  10.968   2.804  1.3295  0.3869 -0.3929
27139TIP3    H282300   8.655  10.839   2.753 -0.0361  0.2830  1.3304
27140TIP3   OH282301   8.405   3.637   2.853  0.4242 -0.0733 -0.7058
27140TIP3    H182302   8.386   3.729   2.874  2.2590 -0.0681  1.3620
27140TIP3    H282303   8.463   3.642   2.777 -0.2689  0.4136 -1.2145
27141TIP3   OH282304   2.902   5.750   1.640  0.0679 -0.0220  0.0355
27141TIP3    H182305   2.979   5.728   1.586  0.7977 -1.3148  1.5162
27141TIP3    H282306   2.849   5.807   1.584  1.4903 -0.1171 -1.4958
27142TIP3   OH282307   5.972   0.099   1.144  0.5509 -0.1877 -0.0304
27142TIP3    H182308   5.911   0.129   1.211 -0.9253  1.3486 -1.9399
27142TIP3    H282309   6.057   0.128   1.175 -0.0305  0.1526  1.3478
27143TIP3   OH282310   0.761   5.651   9.221 -0.2693 -0.1979 -0.1258
27143TIP3    H182311   0.849   5.636   9.188 -0.7845  0.2217 -1.7709
27143TIP3    H282312   0.730   5.729   9.175 -0.5390  1.3404  2.4158
27144TIP3   OH282313   7.770   2.432   6.740 -0.3582 -0.5624  0.1642
27144TIP3    H182314   7.858   2.456   6.768  0.0419 -1.5904 -0.1809
27144TIP3    H282315   7.759   2.478   6.656 -0.0369 -0.6826  0.0560
27145TIP3   OH282316   6.287   7.685  10.798  0.3493  0.6167 -0.0094
27145TIP3    H182317   6.307   7.622  10.729  1.8704 -0.8196  1.6311
27145TIP3    H282318   6.198   7.663  10.825 -0.3945  1.4260 -1.6985
27146TIP3   OH282319   7.851   7.349   2.684  0.0533 -0.3570  0.3991
27146TIP3    H182320   7.844   7.415   2.752  0.4795 -2.4131  2.5894
27146TIP3    H282321   7.767   7.304   2.685 -0.0601 -0.2094 -0.7152
27147TIP3   OH282322   7.982   8.282   1.020 -0.7506 -0.3364 -0.1596
27147TIP3    H182323   7.968   8.189   1.034 -1.0177 -0.4928 -1.3081
27147TIP3    H282324   8.048   8.286   0.950  2.5046  0.3720  2.7102
27148TIP3   OH282325   9.529   0.885   9.600 -0.2996  0.2822 -0.2304
27148TIP3    H182326   9.457   0.836   9.559  1.5301 -1.3491 -1.6673
27148TIP3    H282327   9.553   0.833   9.677 -0.5132  0.7262  0.1432
27149TIP3   OH282328   9.200   6.982   9.558 -0.0973  0.4013  0.6236
27149TIP3    H182329   9.262   6.975   9.631  2.8016  0.9605 -1.6057
27149TIP3    H282330   9.154   7.064   9.574  0.2056  0.3319  1.9870
27150TIP3   OH282331   8.051   0.366   7.344 -0.0387  0.4627 -0.0414
27150TIP3    H182332   8.025   0.451   7.378  1.7081  1.0147  0.0116
27150TIP3    H282333   8.105   0.328   7.413  2.3881  1.0014 -1.5318
27151TIP3   OH282334   1.133   5.139  10.067  0.4438 -0.4536 -0.6364
27151TIP3    H182335   1.128   5.069  10.132 -1.2476 -0.1969 -0.4486
27151TIP3    H282336   1.167   5.096   9.988  1.7988 -0.9259  0.1626
27152TIP3   OH282337   9.930   4.049   1.614 -0.4074 -0.3405  0.0283
27152TIP3    H182338   9.906   3.984   1.548  0.1335 -0.9766  0.4488
27152TIP3    H282339  10.004   4.011   1.660  1.3285  1.4578 -1.0977
27153TIP3   OH282340   4.917   6.030   3.067  0.2491 -0.2729  0.3415
27153TIP3    H182341   4.912   6.001   3.158  1.2943  0.4283  0.6413
27153TIP3    H282342   5.008   6.059   3.056 -0.4558  1.9023 -0.2271
27154TIP3   OH282343   1.578   9.960   1.494 -0.6092  0.3011 -0.6984
27154TIP3    H182344   1.518   9.887   1.478  2.3470 -2.1503 -1.6775
27154TIP3    H282345   1.600   9.993   1.407  0.6765  0.0033 -0.5147
27155TIP3   OH282346   6.228   7.049   0.417 -0.1792  0.2894 -0.2520
27155TIP3    H182347   6.183   6.973   0.380 -1.4630  1.4328 -1.1304
27155TIP3    H282348   6.276   7.087   0.343  0.4142  0.3875  0.1730
27156TIP3   OH282349   1.887   2.943   6.647  0.3254  0.2232 -0.2054
27156TIP3    H182350   1.839   3.022   6.621  0.1514 -0.0897 -0.8599
27156TIP3    H282351   1.923   2.964   6.733  1.1071  1.3876 -0.7795
27157TIP3   OH282352   5.985   2.150   8.468 -0.0388 -0.4750  0.0045
27157TIP3    H182353   6.074   2.131   8.438  0.0578 -0.1510  0.0767
27157TIP3    H282354   5.982   2.117   8.558 -0.1928 -1.0576 -0.2132
27158TIP3   OH282355   6.554   5.954   6.179 -0.0522 -0.0479 -0.3613
27158TIP3    H182356   6.611   6.030   6.190  1.2684 -0.5067 -3.1489
27158TIP3    H282357   6.561   5.907   6.262  1.5961  1.2739  0.3135
27159TIP3   OH282358   4.512   2.475   2.160 -0.2053  0.0717 -0.3894
27159TIP3    H182359   4.478   2.539   2.222 -1.9812 -0.5850 -0.6318
27159TIP3    H282360   4.453   2.480   2.085  1.1614 -0.0406 -1.5236
27160TIP3   OH282361   8.521   6.285   1.140  0.3707  0.4405 -0.4611
27160TIP3    H182362   8.433   6.294   1.178  0.5507  1.7063 -0.3013
27160TIP3    H282363   8.562   6.369   1.155  1.8421 -0.3369 -0.0160
27161TIP3   OH282364   0.638   8.814   2.752 -0.3578  0.5857  0.1979
27161TIP3    H182365   0.710   8.830   2.813  1.3511  0.1030 -1.5842
27161TIP3    H282366   0.559   8.820   2.806  0.8555  2.9247  1.9144
27162TIP3   OH282367   3.291   9.563   2.579 -0.1560 -0.3422  0.4794
27162TIP3    H182368   3.386   9.571   2.589 -0.3601  0.2032  2.3948
27162TIP3    H282369   3.273   9.602   2.493  1.5050 -2.0093 -0.7074
27163TIP3   OH282370   5.387   4.161   6.590 -0.1707 -0.3341  0.3989
27163TIP3    H182371   5.310   4.216   6.604 -0.1952 -0.4317  0.6495
27163TIP3    H282372   5.454   4.198   6.647  0.5579  0.9106 -1.1882
27164TIP3   OH282373   6.628   6.237   9.192 -0.0408  0.1522 -0.1944
27164TIP3    H182374   6.550   6.249   9.247 -0.7393 -2.9836 -0.2651
27164TIP3    H282375   6.595   6.242   9.102 -0.1666 -0.9376 -0.2251
27165TIP3   OH282376   5.125   7.364   8.177 -0.3326 -0.1147  1.0135
27165TIP3    H182377   5.050   7.390   8.124  0.0712 -2.0106 -0.6185
27165TIP3    H282378   5.089   7.354   8.265 -2.2870 -1.8243  0.1231
27166TIP3   OH282379   0.467   6.409  10.708  0.4474 -0.1995  0.1327
27166TIP3    H182380   0.515   6.428  10.627 -0.9555 -1.9444 -1.1968
27166TIP3    H282381   0.518   6.339  10.750  0.4962 -0.1777  0.1104
27167TIP3   OH282382   2.050   3.082   6.850  0.4552 -0.1996 -0.4402
27167TIP3    H182383   2.081   3.038   6.929  0.9139 -1.1493 -1.1348
27167TIP3    H282384   2.114   3.152   6.834 -0.1922  0.6624  0.5760
27168TIP3   OH282385   8.905   0.111   0.356  0.0416 -0.2122  0.1614
27168TIP3    H182386   8.877   0.032   0.309 -0.8290  1.7167 -2.8436
27168TIP3    H282387   9.001   0.109   0.350  0.0872 -1.4730  0.9607
27169TIP3   OH282388   0.530   7.073   8.574 -0.2322  0.0395 -0.5840
27169TIP3    H182389   0.611   7.036   8.538 -0.3227  0.0379 -0.7864
27169TIP3    H282390   0.514   7.022   8.653 -0.9359 -1.1004 -1.4287
27170TIP3   OH282391   5.603   7.542   3.258  0.3292 -0.1852  0.0586
27170TIP3    H182392   5.534   7.604   3.282 -2.1129 -2.5537 -0.3764
27170TIP3    H282393   5.633   7.506   3.341  0.1185 -0.0555  0.1913
27171TIP3   OH282394  10.167   3.975   2.381 -0.0604  0.2131 -0.0677
27171TIP3    H182395  10.258   3.962   2.356  0.1372 -0.8935  1.1675
27171TIP3    H282396  10.145   3.899   2.434 -1.8086  0.3037 -0.5898
27172TIP3   OH282397   0.143   9.049   8.557  0.3313  0.0834 -0.1544
27172TIP3    H182398   0.227   9.056   8.603  0.2099  0.9077 -0.0441
27172TIP3    H282399   0.167   9.032   8.466  0.6162  0.0962 -0.0845
27173TIP3   OH282400   7.465   9.820   0.921 -0.3112  0.4721 -0.2884
27173TIP3    H182401   7.371   9.810   0.906 -0.3730  1.2126 -0.3965
27173TIP3    H282402   7.477   9.912   0.945  0.0484 -0.1827  2.3647
27174TIP3   OH282403   7.230   8.695   8.821 -0.3445  0.4826 -0.3607
27174TIP3    H182404   7.202   8.756   8.889 -2.8446 -0.8279 -0.1321
27174TIP3    H282405   7.225   8.746   8.740 -0.5214  1.1044  0.0316
27175TIP3   OH282406   8.857   7.057   8.845 -0.1325  0.1866 -0.5327
27175TIP3    H182407   8.801   7.035   8.771  0.5305  0.0796 -1.0065
27175TIP3    H282408   8.807   7.030   8.922 -1.1521  0.9890 -0.8918
27176TIP3   OH282409   7.352   7.237   0.480  0.5393  0.0464 -0.6818
27176TIP3    H182410   7.314   7.314   0.522 -0.0920  0.0749 -1.2900
27176TIP3    H282411   7.417   7.206   0.543 -0.1649  0.2655  0.1811
27177TIP3   OH282412   3.812   7.949   2.763  0.2485  0.8176  0.1001
27177TIP3    H182413   3.829   8.041   2.782 -0.0938  1.6557 -3.0454
27177TIP3    H282414   3.716   7.942   2.761  0.2319  1.0161 -1.8694
27178TIP3   OH282415   6.965   2.634   1.078 -0.2934 -0.0027  0.2428
27178TIP3    H182416   6.923   2.590   1.152  1.2042 -2.8275 -0.4253
27178TIP3    H282417   6.977   2.724   1.107  0.5853 -1.0531  3.6648
27179TIP3   OH282418   6.932   9.773   8.613 -0.5146  0.6904  0.3339
27179TIP3    H182419   7.003   9.816   8.565 -0.8436 -0.0507 -0.8656
27179TIP3    H282420   6.948   9.680   8.600 -1.2059  0.5036  0.7997
27180TIP3   OH282421   5.573  10.021   8.113  0.1102 -0.0785 -0.2310
27180TIP3    H182422   5.531  10.062   8.037  0.2929  1.3356  0.4038
27180TIP3    H282423   5.643   9.969   8.075 -1.9649 -2.3026 -1.3034
27181TIP3   OH282424   8.719   0.026   9.012  0.2050  0.0531 -0.3056
27181TIP3    H182425   8.815   0.029   9.015  0.4590 -2.5414 -1.7382
27181TIP3    H282426   8.695  -0.033   9.083 -0.2385  0.1308 -0.3911
27182TIP3   OH282427   5.116   7.666   3.982 -0.2338 -0.7131  0.1038
27182TIP3    H182428   5.153   7.751   3.958 -1.3407 -0.6467 -1.5371
27182TIP3    H282429   5.045   7.652   3.919 -0.3020 -2.7032  0.5545
27183TIP3   OH282430   8.631   4.100   3.818  0.2482 -0.3772  0.0140
27183TIP3    H182431   8.605   4.189   3.840  1.6434  0.3733 -1.2432
27183TIP3    H282432   8.561   4.067   3.761  0.3110  0.3592 -0.4970
27184TIP3   OH282433   4.450   6.211   9.012  0.0267  0.4292  0.0813
27184TIP3    H182434   4.381   6.158   8.973  0.4068  0.6506 -0.9265
27184TIP3    H282435   4.481   6.266   8.940  0.3224  1.3004  0.8525
27185TIP3   OH282436   0.851  10.897   5.009 -0.0174 -0.5841 -0.2115
27185TIP3    H182437   0.831  10.895   4.916  0.8180  1.0090 -0.4579
27185TIP3    H282438   0.923  10.960   5.017 -0.3775 -0.3416  1.5577
27186TIP3   OH282439  10.075   0.685   4.764 -0.2670  0.3342  0.0670
27186TIP3    H182440  10.142   0.632   4.807  1.9023  3.8039  1.4009
27186TIP3    H282441  10.081   0.662   4.672  0.9110 -1.3312  0.5267
27187TIP3   OH282442   7.986   9.297   9.145  0.4587  0.0193  0.2047
27187TIP3    H182443   8.000   9.388   9.171  1.5222  0.0475 -0.4194
27187TIP3    H282444   7.891   9.288   9.144  0.2547  1.6748 -1.5130
27188TIP3   OH282445   9.936   4.213   1.261  0.0856  0.0330  0.0263
27188TIP3    H182446   9.896   4.130   1.286  2.2075 -1.0435  0.0647
27188TIP3    H282447   9.880   4.246   1.190 -1.9454 -0.3701  1.3496
27189TIP3   OH282448   7.111  10.307   6.207  0.2550 -0.5851 -0.3890
27189TIP3    H182449   7.032  10.295   6.260 -0.2597 -0.6383 -1.1516
27189TIP3    H282450   7.083  10.363   6.134  0.9749 -0.4201 -0.5476
27190TIP3   OH282451   0.570   2.214   8.409 -0.4083 -0.0553 -0.1018
27190TIP3    H182452   0.526   2.200   8.493  1.1686  0.9531  0.9432
27190TIP3    H282453   0.520   2.283   8.367 -0.9647 -0.2714  0.1919
27191TIP3   OH282454  10.242   4.719   3.668 -0.2967 -0.3349  0.2149
27191TIP3    H182455  10.245   4.801   3.619  1.0031 -0.4748  0.0332
27191TIP3    H282456  10.274   4.653   3.608  2.5757 -0.3093  1.5573
27192TIP3   OH282457   0.512   7.053  10.776 -0.1096  0.3704  0.5788
27192TIP3    H182458   0.458   7.077  10.700 -0.1326  2.2330  1.1489
27192TIP3    H282459   0.580   6.996  10.739 -0.4977  0.7072 -0.7285
27193TIP3   OH282460   5.257   5.657   9.823  0.8838 -0.0373  0.7926
27193TIP3    H182461   5.352   5.647   9.816  0.9269 -0.6871  2.0110
27193TIP3    H282462   5.226   5.572   9.853  0.0486  0.4983  1.5071
27194TIP3   OH282463   1.539   9.207   6.939  0.3751 -0.1078  0.4250
27194TIP3    H182464   1.453   9.199   6.898 -0.3560  0.5389  1.7763
27194TIP3    H282465   1.584   9.274   6.887 -0.7888  1.1915  1.0364
27195TIP3   OH282466   9.134   8.585   6.198 -0.6016 -0.1944  0.5673
27195TIP3    H182467   9.118   8.503   6.244  0.5775 -0.3496  0.7255
27195TIP3    H282468   9.171   8.559   6.114 -0.2610  0.1751  0.5994
27196TIP3   OH282469   2.188   2.632   6.900  0.0786 -0.0152 -0.8109
27196TIP3    H182470   2.114   2.680   6.936  0.0124 -1.5837  1.3557
27196TIP3    H282471   2.265   2.683   6.927 -0.0059 -0.8855  1.2091
27197TIP3   OH282472   5.609  10.842   1.245 -0.4007 -0.2536  0.6734
27197TIP3    H182473   5.517  10.827   1.220  0.2313 -0.6619 -1.6352
27197TIP3    H282474   5.617  10.937   1.249 -0.9023 -0.2105  0.8000
27198TIP3   OH282475   5.832   0.126   1.696 -0.1427  0.2277  0.1295
27198TIP3    H182476   5.800   0.130   1.786  1.1937  1.0272  0.6028
27198TIP3    H282477   5.753   0.118   1.642 -1.0964  1.5442  1.2664
27199TIP3   OH282478   3.726   5.926   1.068  0.3659  0.0841  0.0278
27199TIP3    H182479   3.760   6.014   1.051  0.3478  0.5301  2.0230
27199TIP3    H282480   3.796   5.867   1.042  1.1670  0.8077  0.4878
27200TIP3   OH282481   2.967  10.110   4.577 -0.1569  0.3021  0.0145
27200TIP3    H182482   2.993  10.200   4.599  1.7404 -0.2897  0.4408
27200TIP3    H282483   2.924  10.078   4.656  0.4681  0.3904  0.4040
27201TIP3   OH282484   1.455   6.409   0.598  0.1265  0.4138  0.4796
27201TIP3    H182485   1.519   6.344   0.570 -1.6635 -0.2659 -2.5369
27201TIP3    H282486   1.441   6.391   0.691  1.1593 -2.2167  0.2107
27202TIP3   OH282487   7.025   7.411   9.319 -0.6589  0.3792 -0.3072
27202TIP3    H182488   6.996   7.387   9.407  1.1452 -0.8249 -0.0104
27202TIP3    H282489   6.962   7.369   9.260  0.0435 -1.6739  0.3405
27203TIP3   OH282490   9.422  10.532   8.313  0.6625 -0.0341 -0.9096
27203TIP3    H182491   9.514  10.509   8.325  1.0991  1.8069 -0.2865
27203TIP3    H282492   9.377  10.487   8.384  1.1957 -0.4066 -0.7992
27204TIP3   OH282493   3.017   6.979   7.848 -0.1938 -0.2457  0.1374
27204TIP3    H182494   2.930   7.016   7.835  0.5350  1.2352 -0.8558
27204TIP3    H282495   3.002   6.886   7.864 -1.9779  0.0787  0.5105
27205TIP3   OH282496   2.474   0.587   6.962 -0.8726  0.3579 -0.3324
27205TIP3    H182497   2.460   0.679   6.939  0.1856  0.3200 -1.2601
27205TIP3    H282498   2.435   0.538   6.889  0.3496  0.1533 -0.8796
27206TIP3   OH282499   9.097   9.290   9.936  0.5256 -0.4321 -0.3353
27206TIP3    H182500   9.160   9.362   9.931  2.7033 -2.2804 -1.3071
27206TIP3    H282501   9.110   9.253  10.023 -0.8971  0.5397  0.3282
27207TIP3   OH282502   7.049   5.054   8.757 -0.3502 -0.0524 -0.0320
27207TIP3    H182503   7.140   5.078   8.778 -0.1971  0.0100 -0.7406
27207TIP3    H282504   7.017   5.012   8.837  0.8156 -1.5171 -0.2871
27208TIP3   OH282505   0.375   3.061   7.337  0.2442 -0.5120  0.6439
27208TIP3    H182506   0.445   2.996   7.335  1.0952  0.2748  2.4011
27208TIP3    H282507   0.418   3.140   7.371 -0.9184  0.7636 -0.7665
27209TIP3   OH282508  10.847  10.379   1.719 -0.3261  0.1452  0.1113
27209TIP3    H182509  10.863  10.331   1.638 -2.9885 -3.4314  1.4311
27209TIP3    H282510  10.903  10.335   1.784 -0.6078  0.8122  0.8177
27210TIP3   OH282511  10.329   3.010   2.506  0.2012 -0.0277  0.2392
27210TIP3    H182512  10.410   3.059   2.490 -0.3404  0.6415 -0.4983
27210TIP3    H282513  10.259   3.074   2.496 -0.5111 -0.8936 -0.5610
27211TIP3   OH282514   0.148   3.558   6.280 -0.3258  0.4502 -0.1332
27211TIP3    H182515   0.111   3.576   6.367 -0.5967 -0.2745 -0.0896
27211TIP3    H282516   0.092   3.490   6.244  0.0135  0.4792 -0.7322
27212TIP3   OH282517   1.107   9.478   1.423  0.6090 -0.6911 -0.5605
27212TIP3    H182518   1.057   9.509   1.347 -0.2926 -1.5867 -0.3663
27212TIP3    H282519   1.146   9.556   1.461 -2.0642  0.3434  0.2826
27213TIP3   OH282520  10.707   1.132   2.858 -0.5049  0.4361  0.4366
27213TIP3    H182521  10.754   1.165   2.781 -0.5376  1.4691  0.8535
27213TIP3    H282522  10.617   1.163   2.846 -0.4936  0.6707  0.9274
27214TIP3   OH282523   2.190   1.709  10.678 -0.0307 -0.0205 -0.3006
27214TIP3    H182524   2.144   1.660  10.746  1.4423  1.1933  1.6908
27214TIP3    H282525   2.183   1.800  10.705 -0.1754  0.5913 -2.3056
27215TIP3   OH282526   9.000   1.407   4.359 -0.5797  0.2571  0.4947
27215TIP3    H182527   8.926   1.416   4.419 -0.1838 -0.0158  1.0265
27215TIP3    H282528   8.973   1.338   4.298 -0.4546 -0.3855  1.1547
27216TIP3   OH282529   5.753   3.931   4.663  0.0489 -0.4831 -0.7114
27216TIP3    H182530   5.843   3.960   4.651  0.0556 -0.5858 -0.9163
27216TIP3    H282531   5.736   3.874   4.588 -0.4322  0.1466 -1.0862
27217TIP3   OH282532   2.783   7.188   2.085 -0.0841  0.0195  0.0518
27217TIP3    H182533   2.781   7.283   2.100 -0.3921  0.0213  0.0119
27217TIP3    H282534   2.691   7.162   2.088  0.0675 -0.4855  1.3782
27218TIP3   OH282535   2.634   3.322   3.735  0.1071 -0.1649 -0.0849
27218TIP3    H182536   2.548   3.293   3.767 -0.2075  0.7700 -0.0377
27218TIP3    H282537   2.619   3.342   3.643 -0.2236  1.7695  0.3405
27219TIP3   OH282538  10.561   6.906   8.635  0.1575 -0.3278  0.0066
27219TIP3    H182539  10.612   6.976   8.594 -1.6854 -0.1209 -2.1510
27219TIP3    H282540  10.550   6.933   8.726  1.4444  0.9892 -0.1959
27220TIP3   OH282541   9.128   0.401   7.056  0.1588  0.3655  0.2485
27220TIP3    H182542   9.188   0.341   7.101 -1.6349 -1.8520 -0.1179
27220TIP3    H282543   9.170   0.417   6.971  0.1600 -1.3630 -0.1144
27221TIP3   OH282544   3.261   1.658  10.622  0.2793 -0.1800  0.4068
27221TIP3    H182545   3.283   1.587  10.561  1.6230 -0.3887  1.0877
27221TIP3    H282546   3.282   1.738  10.574  0.3295 -0.3072  0.2148
27222TIP3   OH282547   5.208   3.275   9.835  0.5233  0.1717 -0.4246
27222TIP3    H182548   5.175   3.299   9.749 -1.5871  1.2458  0.6266
27222TIP3    H282549   5.284   3.332   9.848 -0.3491  1.4599 -0.7766
27223TIP3   OH282550   6.352   5.286   5.862  0.2529 -0.2381  0.1818
27223TIP3    H182551   6.417   5.336   5.912  0.7446 -0.4500 -0.2405
27223TIP3    H282552   6.379   5.296   5.771 -0.5910  0.0737 -0.0482
27224TIP3   OH282553   3.529   8.113   2.036  0.0699  0.2670  0.4054
27224TIP3    H182554   3.548   8.157   1.953  0.7314  1.2131  1.0338
27224TIP3    H282555   3.588   8.038   2.037 -0.1612  0.0666 -0.1028
27225TIP3   OH282556  10.068   2.485   6.104  0.2454 -0.4683  0.7056
27225TIP3    H182557   9.997   2.454   6.049  0.0817  0.3983  0.4110
27225TIP3    H282558  10.056   2.580   6.107  2.2437 -0.1195 -0.5559
27226TIP3   OH282559   3.636   0.035   8.501 -0.0017  0.0654 -0.5957
27226TIP3    H182560   3.649  -0.055   8.472  2.1320  0.1620 -0.0708
27226TIP3    H282561   3.719   0.079   8.484 -1.0639  2.0309 -1.0718
27227TIP3   OH282562   7.038   3.243   1.390  0.8047  0.3348 -0.3869
27227TIP3    H182563   6.957   3.286   1.362  0.9095 -0.3245 -1.7975
27227TIP3    H282564   7.107   3.290   1.344  1.0877 -0.0393 -0.3457
27228TIP3   OH282565   6.255   1.583   4.725  0.6501 -0.3983 -0.5731
27228TIP3    H182566   6.280   1.592   4.633  1.7887  1.6280 -0.1288
27228TIP3    H282567   6.164   1.615   4.727  0.2875 -1.3330 -1.1028
27229TIP3   OH282568   6.130   5.112   1.390  0.2075  0.8545  0.3303
27229TIP3    H182569   6.062   5.084   1.450 -1.2368 -0.1646 -1.6856
27229TIP3    H282570   6.111   5.205   1.374 -0.7113  0.5966 -0.1633
27230TIP3   OH282571   0.014  10.803   2.098  1.1663 -0.4491 -0.3573
27230TIP3    H182572   0.031  10.880   2.044  2.8056 -2.1662 -2.4381
27230TIP3    H282573   0.097  10.785   2.142  0.6326 -0.7254  0.5839
27231TIP3   OH282574  10.491   4.385   3.904 -0.1236  0.4139  0.0389
27231TIP3    H182575  10.433   4.460   3.892  0.5295  1.1139  1.0982
27231TIP3    H282576  10.466   4.348   3.989  0.3054  0.1140  0.0396
27232TIP3   OH282577   1.628   6.493   3.335 -0.1897  0.1358 -0.0303
27232TIP3    H182578   1.721   6.490   3.358 -0.1450  0.1860 -0.2061
27232TIP3    H282579   1.615   6.417   3.279  0.2408  1.3428 -1.8517
27233TIP3   OH282580   3.978   6.597   7.287  0.3302  0.1938 -0.1538
27233TIP3    H182581   3.906   6.567   7.343  0.4981 -1.0052 -0.5550
27233TIP3    H282582   4.018   6.668   7.336 -0.8316  0.5666  0.2918
27234TIP3   OH282583   3.407   0.991   0.000  0.2099 -0.6910  0.3563
27234TIP3    H182584   3.435   1.066  -0.052  2.0087 -1.2418  0.4733
27234TIP3    H282585   3.483   0.934   0.004 -0.4414 -1.5347  2.0604
27235TIP3   OH282586   1.880   2.901   9.146 -0.1481  0.0895  0.3162
27235TIP3    H182587   1.806   2.949   9.184 -1.6118 -0.6835 -1.4125
27235TIP3    H282588   1.848   2.811   9.138  0.5878 -0.0493 -1.4032
27236TIP3   OH282589   9.057  10.655   6.786 -0.3551  0.5298 -0.3065
27236TIP3    H182590   9.074  10.598   6.862  1.2258  1.2644 -0.0781
27236TIP3    H282591   8.972  10.695   6.805  0.0774  0.8073  1.1563
27237TIP3   OH282592   4.585   6.903   5.453 -0.0225 -0.2965  0.2335
27237TIP3    H182593   4.622   6.930   5.537  2.0171 -2.2758  0.0444
27237TIP3    H282594   4.599   6.979   5.396  0.0874  0.4484  1.2043
27238TIP3   OH282595   5.432   1.120   9.901  0.8343  0.1783 -0.4191
27238TIP3    H182596   5.483   1.160   9.831 -0.5160  1.4414 -0.7298
27238TIP3    H282597   5.381   1.052   9.858 -0.0394  0.9934 -0.7073
27239TIP3   OH282598   2.029   7.880   1.150  0.0771 -0.2815  0.2251
27239TIP3    H182599   2.057   7.943   1.085 -1.5697  0.8982  0.6220
27239TIP3    H282600   2.048   7.795   1.111  1.0446  0.4189 -0.8857
27240TIP3   OH282601   1.976   0.418   1.929  0.1773 -0.0110  0.3146
27240TIP3    H182602   2.048   0.470   1.964  0.6224 -0.3839 -0.0255
27240TIP3    H282603   2.019   0.342   1.889 -0.4266 -0.3947  0.3851
27241TIP3   OH282604   6.039   5.148   9.461 -0.2371  0.1691 -0.5663
27241TIP3    H182605   5.978   5.134   9.389 -1.9865 -1.0210  1.0466
27241TIP3    H282606   6.065   5.240   9.454 -1.0930  0.3095 -2.1308
27242TIP3   OH282607   4.477   2.213   9.811 -0.1869 -0.8433  0.8513
27242TIP3    H182608   4.552   2.269   9.793 -0.2234 -0.7036  1.1241
27242TIP3    H282609   4.409   2.273   9.842 -1.0717 -0.6965 -1.2518
27243TIP3   OH282610   3.126   0.396   3.500  0.2223  0.6751  0.3245
27243TIP3    H182611   3.187   0.423   3.431 -1.6735 -0.6440 -2.0360
27243TIP3    H282612   3.117   0.302   3.488 -1.2299  0.6365  1.5033
27244TIP3   OH282613   6.255   0.894   6.398  0.3467 -0.3602 -0.0734
27244TIP3    H182614   6.236   0.955   6.469 -2.7563 -0.8881 -0.3132
27244TIP3    H282615   6.212   0.931   6.321  1.2370 -1.2093 -1.0182
27245TIP3   OH282616   4.005   4.576   1.434 -0.4588 -0.3388  0.2036
27245TIP3    H182617   4.065   4.534   1.496  0.1243  0.5873  0.2786
27245TIP3    H282618   3.918   4.542   1.459 -0.4417  1.0321  2.4495
27246TIP3   OH282619   0.758   1.634   3.978 -0.2275  0.1451 -0.0666
27246TIP3    H182620   0.667   1.629   4.006 -0.2244 -2.5864 -0.3299
27246TIP3    H282621   0.808   1.625   4.059 -0.1614  0.9666 -0.0044
27247TIP3   OH282622   3.901   4.662  10.130  0.6751 -0.1686  0.0826
27247TIP3    H182623   3.866   4.577  10.154 -0.9458  0.6185  0.6285
27247TIP3    H282624   3.886   4.670  10.036  3.3722 -1.5813 -0.5734
27248TIP3   OH282625   7.173   2.517   4.878  0.0036 -0.3658 -0.0832
27248TIP3    H182626   7.211   2.603   4.864 -0.1266 -0.2946  0.0000
27248TIP3    H282627   7.226   2.458   4.825  0.9669 -0.4367  0.9272
27249TIP3   OH282628   1.643   8.587   5.789  0.7012 -0.2347 -0.1076
27249TIP3    H182629   1.681   8.673   5.806  0.3639  0.2851 -1.7797
27249TIP3    H282630   1.662   8.536   5.868 -1.0164  1.9935  1.9046
27250TIP3   OH282631   4.947   5.656   6.746  0.5821 -0.5158  0.6928
27250TIP3    H182632   4.974   5.564   6.739 -1.1416 -0.9503 -3.2381
27250TIP3    H282633   4.875   5.656   6.809  0.1810 -2.0186  0.2755
27251TIP3   OH282634   8.306   0.019   1.561 -0.1655  0.6326 -0.0712
27251TIP3    H182635   8.296  -0.002   1.468 -1.9879  0.3291  0.1677
27251TIP3    H282636   8.315  -0.066   1.604 -1.5272  0.6418  0.2528
27252TIP3   OH282637   7.182   9.181  10.248 -0.4681  0.0872  0.7227
27252TIP3    H182638   7.136   9.098  10.234  0.2297 -0.5868  2.1189
27252TIP3    H282639   7.170   9.229  10.167 -1.4486 -1.1147  0.1108
27253TIP3   OH282640   1.606   4.928  10.802  0.2274  0.0535 -0.0667
27253TIP3    H182641   1.680   4.897  10.750  1.3354  1.6228  0.5121
27253TIP3    H282642   1.616   4.882  10.886  0.7867  0.5514  0.1460
27254TIP3   OH282643   2.524   5.905   8.867  0.1094 -0.3902  0.7224
27254TIP3    H182644   2.440   5.910   8.823  0.4298  2.9861  0.2468
27254TIP3    H282645   2.506   5.932   8.957  0.7778  1.3292  0.3735
27255TIP3   OH282646   0.424   0.472   1.999 -0.3288  0.4404 -0.0796
27255TIP3    H182647   0.517   0.449   2.003 -0.6108 -1.0871 -1.2895
27255TIP3    H282648   0.423   0.567   2.008  1.1295  0.3090  2.4144
27256TIP3   OH282649   6.468   5.825   6.588  0.0276 -0.0596  0.2915
27256TIP3    H182650   6.448   5.747   6.536  2.0638 -0.4622  0.0019
27256TIP3    H282651   6.491   5.791   6.674  0.4517  0.2564  0.3074
27257TIP3   OH282652   5.723   8.948   2.230 -0.1814 -0.2592 -0.1505
27257TIP3    H182653   5.649   8.897   2.263 -1.2151 -0.6792 -2.8433
27257TIP3    H282654   5.697   9.039   2.243 -1.4591 -0.3907 -1.4753
27258TIP3   OH282655   3.452   0.282   2.368 -0.2995 -0.0992 -0.7267
27258TIP3    H182656   3.381   0.342   2.347  0.8667  1.9711  0.8204
27258TIP3    H282657   3.496   0.322   2.443  2.9855 -0.8246 -2.0702
27259TIP3   OH282658   4.167   9.837   9.234 -0.0559  0.3155 -0.1415
27259TIP3    H182659   4.115   9.916   9.222  0.5583  0.8890  0.8090
27259TIP3    H282660   4.258   9.868   9.234  0.1537 -0.2367  1.1671
27260TIP3   OH282661   7.290   0.779   2.301  0.1213  0.2294 -0.4144
27260TIP3    H182662   7.320   0.809   2.386  0.2907  1.5520 -0.9121
27260TIP3    H282663   7.213   0.834   2.283  0.6931  0.6918 -1.5440
27261TIP3   OH282664   0.527   2.894   6.970  0.1588  0.1924 -0.3168
27261TIP3    H182665   0.505   2.925   7.058 -0.5483  0.6109 -0.6305
27261TIP3    H282666   0.598   2.832   6.983 -0.5881 -0.4816  0.6414
27262TIP3   OH282667   7.755   3.721   5.553  0.0436 -0.5430  0.0096
27262TIP3    H182668   7.787   3.778   5.623 -0.9532  0.6312 -0.4568
27262TIP3    H282669   7.835   3.689   5.511  0.6452 -0.8434  1.3239
27263TIP3   OH282670   2.635   2.684   6.396  0.3681  0.0705 -0.1513
27263TIP3    H182671   2.646   2.626   6.471 -0.1619 -0.8631 -0.7681
27263TIP3    H282672   2.685   2.763   6.418  0.3515 -0.2566  1.0959
27264TIP3   OH282673   0.581  10.807   6.436  0.0114 -0.0885 -0.0926
27264TIP3    H182674   0.534  10.738   6.390  0.5372  0.3197 -1.3209
27264TIP3    H282675   0.514  10.859   6.479 -0.5198 -0.4280 -0.5070
27265TIP3   OH282676   7.119   5.014   5.976 -0.5160 -0.3865  0.3281
27265TIP3    H182677   7.063   4.948   6.016 -0.1018 -0.4092  0.8847
27265TIP3    H282678   7.208   4.980   5.986 -0.4936 -1.2186 -2.1877
27266TIP3   OH282679   9.693   0.394   9.507  0.2224 -0.0754  0.4437
27266TIP3    H182680   9.784   0.391   9.478 -0.7342  1.0113 -3.1966
27266TIP3    H282681   9.686   0.473   9.559  1.2302  0.2014  0.1647
27267TIP3   OH282682   0.843  10.073   2.119 -0.2855  0.3112  0.0240
27267TIP3    H182683   0.766  10.066   2.176  1.2006 -0.7049  2.0019
27267TIP3    H282684   0.870   9.982   2.104  1.5842  0.6668  0.9280
27268TIP3   OH282685   8.470   9.678   3.153 -0.6527  0.2186  0.0504
27268TIP3    H182686   8.493   9.753   3.208  2.0762 -0.8453  0.5176
27268TIP3    H282687   8.467   9.714   3.064 -1.4692  1.2528  0.4799
27269TIP3   OH282688   4.173   6.927   6.999 -0.4189 -0.1687  0.1430
27269TIP3    H182689   4.106   6.922   7.067 -0.7207 -0.3229 -0.1607
27269TIP3    H282690   4.241   6.984   7.036 -0.1143 -1.0423  0.9524
27270TIP3   OH282691   3.423   6.156   3.265 -0.1550 -0.0245  0.4210
27270TIP3    H182692   3.349   6.119   3.216 -0.8790  1.2524  0.4902
27270TIP3    H282693   3.492   6.166   3.200 -0.0569 -1.1704  0.3375
27271TIP3   OH282694   6.512   4.328   0.683  0.3034 -0.0558  0.2802
27271TIP3    H182695   6.515   4.232   0.680 -1.3110 -0.1368  0.4170
27271TIP3    H282696   6.482   4.354   0.596 -0.6201  0.2300  0.6701
27272TIP3   OH282697   2.474   0.043  10.529  0.0163  0.3108 -0.7521
27272TIP3    H182698   2.542   0.034  10.461  2.7801  4.7886  1.0054
27272TIP3    H282699   2.427   0.122  10.505 -0.8728  0.3634  1.0319
27273TIP3   OH282700   9.058   3.215   2.122  0.4490 -0.1739 -0.0498
27273TIP3    H182701   9.103   3.298   2.102 -0.3640 -0.0071 -1.2848
27273TIP3    H282702   9.057   3.168   2.038 -0.7875 -0.6080  0.1969
27274TIP3   OH282703   0.785   3.536   8.259 -0.3424 -0.3736 -0.0602
27274TIP3    H182704   0.817   3.480   8.329 -0.7014 -0.8788 -0.2957
27274TIP3    H282705   0.847   3.522   8.187 -0.3573 -0.3676 -0.0739
27275TIP3   OH282706   7.124  10.455   1.819  0.2533 -0.2704 -0.0742
27275TIP3    H182707   7.163  10.538   1.843 -0.1022 -0.1301  0.0210
27275TIP3    H282708   7.186  10.389   1.851  1.0238 -0.0314 -1.0149
27276TIP3   OH282709   9.606   2.794   5.721  0.2389 -0.1152  0.8716
27276TIP3    H182710   9.697   2.810   5.695  0.9326 -2.3499  1.7402
27276TIP3    H282711   9.597   2.838   5.806 -0.2144  1.9546 -0.1663
27277TIP3   OH282712   9.350   7.464   8.500 -0.2041  0.1569  0.2620
27277TIP3    H182713   9.431   7.423   8.469 -0.9536 -1.0461 -0.2074
27277TIP3    H282714   9.358   7.463   8.596 -0.9476 -2.9085  0.4164
27278TIP3   OH282715   2.166   2.417   6.102  0.6533 -0.3412  0.0700
27278TIP3    H182716   2.254   2.395   6.134  0.9739  0.7736 -0.0056
27278TIP3    H282717   2.182   2.477   6.029 -0.1911  1.3640  1.2132
27279TIP3   OH282718  10.115  10.396   0.357  0.7571 -0.2274  0.5079
27279TIP3    H182719  10.169  10.320   0.376  0.8878 -0.5142 -0.9195
27279TIP3    H282720  10.062  10.371   0.281 -2.8065 -0.6307  2.8952
27280TIP3   OH282721   5.523   4.679   8.224 -0.2969 -0.3322 -0.0312
27280TIP3    H182722   5.589   4.685   8.293  1.7029 -1.1750 -1.7700
27280TIP3    H282723   5.473   4.600   8.245 -1.6082  0.9482  1.9498
27281TIP3   OH282724   4.624   9.139   3.675 -0.2773 -0.0262  0.2355
27281TIP3    H182725   4.551   9.171   3.622  1.0073  2.0675 -0.3772
27281TIP3    H282726   4.592   9.144   3.765 -0.0818  3.6493  0.2586
27282TIP3   OH282727   6.982   8.458   8.150  0.0112  0.5024 -0.0532
27282TIP3    H182728   6.893   8.438   8.121  0.3455 -0.2100 -0.6431
27282TIP3    H282729   7.038   8.405   8.092  0.7461 -0.2566  1.3017
27283TIP3   OH282730   9.699   9.866   8.033 -0.5182 -0.1555 -0.0792
27283TIP3    H182731   9.641   9.941   8.018  0.8450  0.9111 -0.1967
27283TIP3    H282732   9.785   9.894   8.001 -0.3747 -2.5320 -2.0625
27284TIP3   OH282733   8.924   1.408   0.908 -0.9964  0.2394  0.4750
27284TIP3    H182734   8.951   1.464   0.982  0.5647 -0.3856  0.4084
27284TIP3    H282735   8.857   1.351   0.945 -0.9474  0.6001  1.1446
27285TIP3   OH282736   5.604   9.325   4.586 -0.7930  0.0681  0.2547
27285TIP3    H182737   5.589   9.388   4.657  0.0368 -0.5037  0.9653
27285TIP3    H282738   5.569   9.368   4.508  1.3273  2.2374  0.3469
27286TIP3   OH282739   3.243   0.143   2.688  0.4174 -0.2773 -0.6222
27286TIP3    H182740   3.254   0.085   2.613 -2.6479 -1.6399 -0.1804
27286TIP3    H282741   3.153   0.174   2.681  0.5688  0.8673  1.6021
27287TIP3   OH282742   9.910   0.565   3.249  0.1712  0.2676  0.7640
27287TIP3    H182743   9.896   0.639   3.308 -1.7824 -0.8522  1.7801
27287TIP3    H282744   9.892   0.487   3.302  1.4381 -0.9375 -0.4840
27288TIP3   OH282745   0.937   8.258   9.323  0.2956 -0.0384  0.0515
27288TIP3    H182746   0.975   8.312   9.393 -1.6939  0.8236  0.5275
27288TIP3    H282747   0.915   8.175   9.366 -1.2092  0.6000  0.5775
27289TIP3   OH282748   5.201   3.746   4.310  0.3392 -0.0417 -0.2236
27289TIP3    H182749   5.134   3.813   4.319  0.5648  0.1411  0.0949
27289TIP3    H282750   5.283   3.791   4.329  0.4725 -0.4554  0.1913
27290TIP3   OH282751   7.905   0.083   7.048  0.2911 -0.0524 -0.2133
27290TIP3    H182752   7.900  -0.001   7.002 -1.2247 -0.5582  0.7711
27290TIP3    H282753   7.817   0.096   7.083  0.5628  1.8557 -0.1468
27291TIP3   OH282754   9.679   0.689   7.570  0.0872  0.6483  0.2549
27291TIP3    H182755   9.768   0.716   7.594 -0.6364  2.8099  0.6696
27291TIP3    H282756   9.688   0.596   7.548  1.8285 -0.1024  3.5357
27292TIP3   OH282757   1.125   8.749   0.332  0.6990  0.1594 -0.4335
27292TIP3    H182758   1.142   8.829   0.381  0.1535  0.0825 -0.1096
27292TIP3    H282759   1.142   8.678   0.394 -0.3471  0.0710 -0.2219
27293TIP3   OH282760   3.845   5.976   5.564  0.2128  0.1052  0.1368
27293TIP3    H182761   3.839   6.036   5.639  0.2449  1.3720 -0.8400
27293TIP3    H282762   3.925   6.003   5.518  1.3452 -1.9905  0.7303
27294TIP3   OH282763   6.621   5.665   3.343  0.5689 -0.3682 -0.2739
27294TIP3    H182764   6.528   5.678   3.326  0.0144  0.2250  2.6435
27294TIP3    H282765   6.662   5.662   3.256 -1.7719  2.1272 -1.6009
27295TIP3   OH282766   8.980   0.197   0.761  0.3828  0.0298  0.2758
27295TIP3    H182767   8.976   0.283   0.719  0.5220 -0.8389 -1.6241
27295TIP3    H282768   9.074   0.176   0.765  0.3682  0.0814  1.0086
27296TIP3   OH282769   2.966   8.564   6.377  0.2488 -0.2299  0.5700
27296TIP3    H182770   3.051   8.548   6.418  0.4991  0.4235  0.3300
27296TIP3    H282771   2.903   8.514   6.429  0.6421  0.0948  1.3614
27297TIP3   OH282772   4.690   4.540   3.219 -0.1463  0.2075  0.3608
27297TIP3    H182773   4.615   4.577   3.266 -0.8335 -0.7216  0.0221
27297TIP3    H282774   4.764   4.593   3.247 -1.2408  2.6017 -0.9767
27298TIP3   OH282775   7.121  10.081   4.679  0.1803 -0.0829  0.2143
27298TIP3    H182776   7.059  10.040   4.620  1.4820  1.0967 -2.1098
27298TIP3    H282777   7.194  10.019   4.684  0.5272  0.2733 -0.3008
27299TIP3   OH282778   8.491  10.716   8.312  0.5604 -0.0306  0.5047
27299TIP3    H182779   8.475  10.749   8.400  0.8832  1.8655 -0.1076
27299TIP3    H282780   8.413  10.665   8.291 -0.5186  1.3122  1.0786
27300TIP3   OH282781   0.676   2.842   9.877  0.2905 -0.0800  0.1949
27300TIP3    H182782   0.670   2.919   9.935  1.9922 -0.2048  0.5907
27300TIP3    H282783   0.615   2.779   9.915 -0.7985  0.8950  0.1271
27301TIP3   OH282784   5.235  10.220   4.421  0.5211 -0.3672 -0.3639
27301TIP3    H182785   5.227  10.127   4.442 -0.0252  0.1813  2.0857
27301TIP3    H282786   5.165  10.262   4.469  2.3069  1.6031  0.6662
27302TIP3   OH282787   9.725   0.209   8.142  0.0018  0.4766  0.0509
27302TIP3    H182788   9.704   0.249   8.058 -1.9025  1.8533  1.0696
27302TIP3    H282789   9.684   0.268   8.206 -2.2384 -2.6067  1.7375
27303TIP3   OH282790   2.431  10.588   9.294 -0.0867 -0.2389 -0.0079
27303TIP3    H182791   2.424  10.652   9.365  0.5847 -1.0073  0.7735
27303TIP3    H282792   2.373  10.517   9.320  0.2723 -0.5882 -0.1613
27304TIP3   OH282793   5.959   2.173   7.711 -0.3255 -0.3928 -0.4711
27304TIP3    H182794   6.043   2.214   7.694 -0.1993 -1.1838 -1.9957
27304TIP3    H282795   5.909   2.189   7.631 -0.9626 -1.4971 -0.3073
27305TIP3   OH282796   6.808   0.409   2.822 -0.5723 -0.3087 -0.8062
27305TIP3    H182797   6.829   0.353   2.897 -0.0480 -2.0925 -2.2128
27305TIP3    H282798   6.870   0.481   2.828 -1.0182 -0.0125  0.8603
27306TIP3   OH282799   0.036   5.347   6.082 -0.1387  0.0434  0.3266
27306TIP3    H182800  -0.005   5.306   6.007 -0.3285  0.5822  0.1272
27306TIP3    H282801  -0.006   5.307   6.158 -0.2612 -0.1824  0.1390
27307TIP3   OH282802   9.238   2.889   0.523  0.0214 -0.7316  0.3832
27307TIP3    H182803   9.270   2.970   0.561  1.6352 -1.3009  0.3439
27307TIP3    H282804   9.143   2.898   0.522  0.1713  1.2085  0.2287
27308TIP3   OH282805   1.653   9.642   2.291  0.1721 -0.2215  0.0163
27308TIP3    H182806   1.604   9.618   2.370 -1.5427  0.5105 -0.7701
27308TIP3    H282807   1.598   9.613   2.218  1.8224 -1.0840 -0.9497
27309TIP3   OH282808   5.842   1.497   9.642 -0.5580 -0.1667  0.2534
27309TIP3    H182809   5.802   1.525   9.724 -1.3092 -2.0447  0.5709
27309TIP3    H282810   5.936   1.490   9.661 -0.5119  0.9451  0.4785
27310TIP3   OH282811   9.724   5.496   0.949 -0.5826  0.1120 -0.5418
27310TIP3    H182812   9.742   5.534   1.035 -1.1872  0.7238 -0.6727
27310TIP3    H282813   9.733   5.569   0.889 -2.1567  0.1684 -0.7576
27311TIP3   OH282814   0.624   3.341   5.823  1.1017  0.4226  0.4577
27311TIP3    H182815   0.719   3.340   5.816  0.9962 -1.3958 -1.7941
27311TIP3    H282816   0.593   3.321   5.735 -1.4607  3.2707  0.5460
27312TIP3   OH282817   2.636   0.687   1.655 -0.1938 -0.0048 -0.1203
27312TIP3    H182818   2.554   0.695   1.705  0.7930  1.1374  1.3903
27312TIP3    H282819   2.700   0.657   1.719  0.6201 -0.7487 -1.2616
27313TIP3   OH282820   1.530   4.292   9.951  0.2707 -0.1091  0.4924
27313TIP3    H182821   1.534   4.371   9.896 -2.2088  0.2802  0.7961
27313TIP3    H282822   1.500   4.323  10.036 -2.8631 -1.5635  0.0359
27314TIP3   OH282823   8.162  10.544  10.592  0.3021 -0.8947 -0.9454
27314TIP3    H182824   8.109  10.480  10.544  0.4871 -0.1468 -2.1880
27314TIP3    H282825   8.235  10.492  10.627  0.1241 -1.4778 -1.4116
27315TIP3   OH282826   0.093   2.288   7.513 -0.5304  0.0222  0.1174
27315TIP3    H182827   0.018   2.326   7.558 -0.0362  0.2270  0.7751
27315TIP3    H282828   0.145   2.247   7.582 -0.0566 -0.1587 -0.3344
27316TIP3   OH282829   3.870   8.137   0.862  0.0950 -0.3236 -0.1374
27316TIP3    H182830   3.820   8.182   0.930  0.7634  0.4211 -0.1215
27316TIP3    H282831   3.809   8.074   0.823 -0.5183 -0.1950  0.6143
27317TIP3   OH282832   4.857   6.424   6.429  0.0722 -0.0737 -0.2082
27317TIP3    H182833   4.865   6.454   6.339  0.6923 -0.0801 -0.1554
27317TIP3    H282834   4.826   6.501   6.478  0.1096  0.0347 -0.3556
27318TIP3   OH282835   1.227   3.113  10.178 -0.5294  0.2565 -0.4948
27318TIP3    H182836   1.174   3.052  10.127 -0.7571 -1.2619  1.4664
27318TIP3    H282837   1.304   3.063  10.203 -0.9021  0.5859  1.4886
27319TIP3   OH282838   6.841   9.812   6.403 -0.1360  0.5262 -0.8563
27319TIP3    H182839   6.849   9.885   6.465  1.3101 -0.8989  0.7135
27319TIP3    H282840   6.910   9.829   6.338  0.4958  0.3454 -0.2460
27320TIP3   OH282841   6.678   0.770   1.817 -0.0180 -0.2297  0.2968
27320TIP3    H182842   6.593   0.728   1.831 -0.3643  0.0900 -0.7586
27320TIP3    H282843   6.742   0.708   1.852 -0.6329 -0.8826  0.2745
27321TIP3   OH282844  10.847   4.846   8.671 -0.1855  0.2735 -0.1481
27321TIP3    H182845  10.766   4.895   8.685 -0.8585 -1.3190  2.2304
27321TIP3    H282846  10.819   4.764   8.632  0.4804  0.2852 -0.6787
27322TIP3   OH282847   8.201   6.803   7.293  0.4745 -0.0835  0.0835
27322TIP3    H182848   8.187   6.739   7.363 -2.0258 -0.8652 -1.0193
27322TIP3    H282849   8.270   6.764   7.239 -0.3063 -1.3924 -0.0112
27323TIP3   OH282850   7.439   7.418   8.695 -0.2027 -0.2541  0.3930
27323TIP3    H182851   7.469   7.435   8.784 -2.0247 -1.5089  1.3075
27323TIP3    H282852   7.469   7.329   8.676 -2.5041 -1.2339  1.0325
27324TIP3   OH282853   8.251   7.538   0.007  0.2213 -0.2591 -0.2285
27324TIP3    H182854   8.257   7.569   0.097 -1.1747 -1.1229  0.1873
27324TIP3    H282855   8.337   7.557  -0.030  1.7553 -2.1738  2.0345
27325TIP3   OH282856   5.973   5.431   9.916  0.4301  0.0205  0.7129
27325TIP3    H182857   5.911   5.500   9.941 -0.1640 -0.7636  1.4691
27325TIP3    H282858   5.939   5.398   9.833  0.7120  0.6193  0.3508
27326TIP3   OH282859   6.434   9.438   4.553  0.3236 -0.2099 -0.3709
27326TIP3    H182860   6.434   9.456   4.647  1.4316 -0.4503 -0.3156
27326TIP3    H282861   6.372   9.501   4.516 -0.8052 -0.6888  0.6165
27327TIP3   OH282862   1.734   7.674   6.456  0.0828  0.6305 -0.2634
27327TIP3    H182863   1.748   7.645   6.546 -2.9229  0.7633  0.3646
27327TIP3    H282864   1.768   7.604   6.402 -2.2034 -1.7439  1.1218
27328TIP3   OH282865   0.508   0.896  10.251 -0.5276 -0.4135 -0.4394
27328TIP3    H182866   0.416   0.874  10.240 -1.1659  1.9660 -0.3094
27328TIP3    H282867   0.529   0.867  10.340 -1.0929 -1.0597 -0.5014
27329TIP3   OH282868   2.397   9.092  10.686 -0.2009  0.1860 -0.5911
27329TIP3    H182869   2.460   9.132  10.747  0.1350 -0.3624 -0.5705
27329TIP3    H282870   2.356   9.023  10.736  0.8476 -0.9831 -1.2801
27330TIP3   OH282871   3.295   3.854   9.425 -0.1762  0.2771  0.2564
27330TIP3    H182872   3.286   3.939   9.467 -0.6027  1.2039 -1.5998
27330TIP3    H282873   3.284   3.872   9.331  1.0232 -1.6285 -0.3078
27331TIP3   OH282874   3.423   0.177   8.414  0.2522 -0.5143 -0.6248
27331TIP3    H182875   3.447   0.269   8.403 -1.0540  0.4006  2.7084
27331TIP3    H282876   3.501   0.136   8.452 -0.2820  0.1912  1.3589
27332TIP3   OH282877   2.718   9.647   6.737  0.1934  0.0831  0.1335
27332TIP3    H182878   2.635   9.603   6.716  0.3351  0.9468 -2.5719
27332TIP3    H282879   2.698   9.697   6.816 -1.6331 -0.3449  0.0068
27333TIP3   OH282880  10.453   9.312   6.362 -0.1029 -0.5953  0.0587
27333TIP3    H182881  10.431   9.253   6.290 -0.6684 -0.8952  0.4680
27333TIP3    H282882  10.434   9.261   6.441 -0.5743  0.1223  0.4209
27334TIP3   OH282883   5.337   1.127   3.282 -0.4280  0.8844 -0.0679
27334TIP3    H182884   5.302   1.073   3.211  0.0060  1.6999 -0.9250
27334TIP3    H282885   5.407   1.178   3.241  1.1058  0.0411  1.3592
27335TIP3   OH282886   1.673   0.984   4.321  0.0077 -0.1933 -0.0113
27335TIP3    H182887   1.722   1.057   4.283 -0.9203  0.4748  0.0574
27335TIP3    H282888   1.740   0.919   4.340  0.6420 -0.1362 -1.8006
27336TIP3   OH282889   2.533   4.015   1.940 -0.1511 -0.0767  0.1149
27336TIP3    H182890   2.457   4.074   1.937 -0.7616 -0.8732 -0.6792
27336TIP3    H282891   2.504   3.944   1.997  0.0256 -0.3466 -0.1345
27337TIP3   OH282892   8.646   1.626   0.975 -0.2462  0.1321  0.0333
27337TIP3    H182893   8.690   1.707   0.947  0.4279  0.7120  2.5242
27337TIP3    H282894   8.570   1.619   0.918  0.0762  2.1543 -0.7190
27338TIP3   OH282895   1.781   4.067   0.957  0.9028  0.7674 -0.3547
27338TIP3    H182896   1.715   4.026   1.012  0.9084  2.1234  0.7076
27338TIP3    H282897   1.865   4.037   0.993  0.9014 -0.3283 -1.2144
27339TIP3   OH282898   0.339   8.604   4.408  0.2031 -0.0518  0.3212
27339TIP3    H182899   0.249   8.618   4.437  0.4211 -1.4549  1.8080
27339TIP3    H282900   0.332   8.534   4.343  0.1954 -0.0790  0.3509
27340TIP3   OH282901   8.120   6.066   8.014  0.1051 -0.2078 -0.6624
27340TIP3    H182902   8.132   6.032   8.103 -1.1493  1.4022  0.1988
27340TIP3    H282903   8.184   6.019   7.961 -0.7617 -3.0485  0.5876
27341TIP3   OH282904   6.642   2.909   4.402 -0.3038  0.1749 -0.5458
27341TIP3    H182905   6.636   2.817   4.374  0.3029 -0.7413  2.0673
27341TIP3    H282906   6.728   2.937   4.373  0.4701 -0.8662  0.6280
27342TIP3   OH282907  10.576   9.984   4.032 -0.2492 -0.1357 -0.3722
27342TIP3    H182908  10.654   9.995   3.978  0.3112 -0.1365  0.4135
27342TIP3    H282909  10.548   9.894   4.016 -0.5563  0.1085 -1.2537
27343TIP3   OH282910   8.552   2.782   1.719 -0.2731  0.0436 -0.6881
27343TIP3    H182911   8.626   2.783   1.659  1.6667 -0.6283  1.5489
27343TIP3    H282912   8.523   2.690   1.720  0.7905 -0.3132  0.5704
27344TIP3   OH282913   7.744   9.240   3.673 -0.2392  0.4847 -0.7994
27344TIP3    H182914   7.794   9.317   3.702 -1.4371  0.6478  1.0148
27344TIP3    H282915   7.662   9.276   3.642 -0.4143  0.0119 -0.8886
27345TIP3   OH282916   3.780   2.195   0.066 -0.1306  0.0433 -0.1201
27345TIP3    H182917   3.788   2.216  -0.027  1.1194  1.1348  0.1914
27345TIP3    H282918   3.706   2.248   0.096  1.9261  2.9572  0.2876
27346TIP3   OH282919   4.468   4.426   7.740  0.4988 -0.2201  0.8120
27346TIP3    H182920   4.438   4.447   7.829  0.9177  1.0085  0.6800
27346TIP3    H282921   4.504   4.508   7.707 -0.3960 -0.4307 -0.8033
27347TIP3   OH282922   1.632   0.036   1.380  0.5226  0.0570 -0.1017
27347TIP3    H182923   1.648   0.121   1.339  0.5324 -0.2205 -0.6728
27347TIP3    H282924   1.584  -0.014   1.314  0.2693 -0.2863  0.3369
27348TIP3   OH282925   3.151   9.317   9.679  0.4294  0.3898  0.6832
27348TIP3    H182926   3.070   9.346   9.720  0.6768  1.0450  0.7175
27348TIP3    H282927   3.123   9.253   9.612  0.0823 -1.4174  2.4584
27349TIP3   OH282928  10.064   9.301  10.325 -0.0424 -0.1660 -0.3085
27349TIP3    H182929  10.050   9.216  10.368 -0.4342  0.7252  1.3757
27349TIP3    H282930  10.156   9.321  10.341 -0.3306  0.4356  0.6482
27350TIP3   OH282931   0.906   6.703   4.523 -0.0622  0.5397 -0.2241
27350TIP3    H182932   0.815   6.718   4.549  0.0635  0.6047  0.1919
27350TIP3    H282933   0.931   6.782   4.476 -0.0588  0.7493  0.1259
27351TIP3   OH282934   7.217   6.825   9.481  0.0027 -0.2080 -0.5218
27351TIP3    H182935   7.202   6.779   9.399 -1.9554  1.4643 -1.1812
27351TIP3    H282936   7.294   6.879   9.465 -1.5566  1.7094 -2.0911
27352TIP3   OH282937   8.399  10.144   9.043 -0.1380  0.1513  0.2550
27352TIP3    H182938   8.350  10.071   9.006  1.3306  0.0376 -1.6373
27352TIP3    H282939   8.484  10.106   9.065  0.7775  1.3278 -1.1123
27353TIP3   OH282940   9.316   3.576   5.840  0.2703  0.4933  0.0926
27353TIP3    H182941   9.303   3.483   5.822  0.4993  0.6890 -1.1596
27353TIP3    H282942   9.261   3.621   5.776 -0.7305  1.2385  1.4018
27354TIP3   OH282943   6.000  10.840   7.092  0.0845  0.5856 -0.5570
27354TIP3    H182944   6.027  10.748   7.098  0.8524  0.8046 -0.4899
27354TIP3    H282945   5.905  10.838   7.101 -0.0621 -0.3302 -1.9075
27355TIP3   OH282946   5.005   5.227   5.603  0.1339  0.1190 -0.6282
27355TIP3    H182947   5.096   5.229   5.633 -0.2059  1.3600  0.4211
27355TIP3    H282948   4.961   5.167   5.664 -0.0379  0.6437 -0.2320
27356TIP3   OH282949   6.757  10.839   0.761 -0.3564 -0.0071 -0.0732
27356TIP3    H182950   6.726  10.860   0.673  1.0485  0.0649 -0.5815
27356TIP3    H282951   6.788  10.749   0.755 -0.3514 -0.0370  0.3750
27357TIP3   OH282952   1.643   6.302   6.438 -0.1987  0.4887 -0.2451
27357TIP3    H182953   1.611   6.386   6.407 -1.1962 -0.2450 -1.2647
27357TIP3    H282954   1.738   6.306   6.426 -0.0632  1.9705  1.0389
27358TIP3   OH282955   0.583   7.630   6.563 -0.6489 -0.1279 -0.5688
27358TIP3    H182956   0.588   7.534   6.563  0.4132 -0.0998 -1.6825
27358TIP3    H282957   0.632   7.657   6.641 -0.8935 -0.4742 -0.2889
27359TIP3   OH282958   2.373   6.096   0.518  0.2346  0.2301  0.0312
27359TIP3    H182959   2.375   6.176   0.570  0.5147  1.6890 -2.0872
27359TIP3    H282960   2.301   6.110   0.456  0.1822 -1.2376 -0.2745
27360TIP3   OH282961   6.050   7.682   8.872 -0.5675  0.2421  0.3309
27360TIP3    H182962   6.048   7.612   8.937  0.7437 -1.5025 -1.3738
27360TIP3    H282963   5.959   7.693   8.846 -0.9727  0.2221  1.6818
27361TIP3   OH282964   5.768   8.266   7.801  0.2523  0.0295  0.5759
27361TIP3    H182965   5.859   8.266   7.770 -0.4160  0.8485 -1.5980
27361TIP3    H282966   5.743   8.174   7.802  0.6108 -0.0995 -0.5566
27362TIP3   OH282967   8.873   5.954   3.518 -0.4428 -0.0624  0.1632
27362TIP3    H182968   8.829   5.882   3.562  0.9851 -1.5985 -0.8214
27362TIP3    H282969   8.911   5.915   3.439  2.7034  1.1163  0.9598
27363TIP3   OH282970   9.123   7.847   3.895 -0.3545 -0.3934 -0.8345
27363TIP3    H182971   9.038   7.810   3.870 -0.3219 -0.7767 -0.3854
27363TIP3    H282972   9.175   7.844   3.814 -0.6418 -0.5079 -1.0161
27364TIP3   OH282973   1.252   2.455   1.733  0.1350  0.0222  0.3233
27364TIP3    H182974   1.242   2.441   1.827 -0.2835  1.9079  0.6037
27364TIP3    H282975   1.224   2.546   1.720  1.5417  0.2514 -1.4121
27365TIP3   OH282976   4.490   5.515  10.482 -0.1485 -0.2719 -0.1017
27365TIP3    H182977   4.445   5.600  10.481 -0.2857 -0.3457 -0.9184
27365TIP3    H282978   4.580   5.536  10.455  0.1744 -0.2096  0.9604
27366TIP3   OH282979   4.516   0.288   9.250  0.1665 -0.1136  0.3220
27366TIP3    H182980   4.448   0.301   9.185  0.0048 -0.7953  0.3540
27366TIP3    H282981   4.470   0.288   9.334  0.5944  2.8556  0.6598
27367TIP3   OH282982   5.380   4.884   2.044 -0.3932 -0.1447 -0.1898
27367TIP3    H182983   5.292   4.904   2.075 -0.6736 -1.2657 -0.2077
27367TIP3    H282984   5.437   4.906   2.118 -0.7033  0.4273 -0.1172
27368TIP3   OH282985   3.293   7.043   9.186 -0.3584  0.2954 -0.3667
27368TIP3    H182986   3.371   7.083   9.224 -0.1251 -1.2116  0.8607
27368TIP3    H282987   3.244   7.116   9.148  1.7738  1.2406 -1.4662
27369TIP3   OH282988   2.712  10.260   6.762  0.7784  0.0177 -0.5074
27369TIP3    H182989   2.694  10.221   6.848  1.6970 -1.3593 -0.8988
27369TIP3    H282990   2.777  10.329   6.780 -0.6767  1.2675  0.1615
27370TIP3   OH282991   4.145  10.804  10.721  0.0949 -0.5166  0.0851
27370TIP3    H182992   4.088  10.760  10.784 -0.1465 -0.5367 -0.1470
27370TIP3    H282993   4.206  10.854  10.776 -1.5999  1.4196  0.3607
27371TIP3   OH282994   8.387   2.436   7.201  0.8675  0.1725  0.2033
27371TIP3    H182995   8.360   2.528   7.197  0.6045  0.1451  1.1192
27371TIP3    H282996   8.472   2.438   7.246  0.5270 -0.0897  0.8690
27372TIP3   OH282997   1.817   6.009   7.705 -0.4176 -0.3354  0.2063
27372TIP3    H182998   1.820   5.925   7.659 -3.1272 -0.1058 -0.5789
27372TIP3    H282999   1.847   6.072   7.640 -2.2119 -0.2768 -0.6372
27373TIP3   OH283000   1.054   4.425   8.486 -0.1217 -0.4641  0.4087
27373TIP3    H183001   1.019   4.492   8.546  1.2117  0.0719  0.6159
27373TIP3    H283002   0.979   4.401   8.431 -0.9798  0.1722  1.2567
27374TIP3   OH283003   7.164   5.602   3.079  0.0244  0.3180  0.3006
27374TIP3    H183004   7.102   5.669   3.049 -0.0632  1.0845  2.0957
27374TIP3    H283005   7.152   5.529   3.017 -1.5156  1.0669 -0.3350
27375TIP3   OH283006   7.921  10.693   5.465  0.5904  0.0477 -0.4024
27375TIP3    H183007   7.926  10.788   5.475  1.7979 -0.0932  0.5920
27375TIP3    H283008   7.861  10.680   5.392  0.1865  1.5623 -0.3778
27376TIP3   OH283009   8.798   7.237   0.586  0.1298 -0.1224  0.2399
27376TIP3    H183010   8.790   7.201   0.674  0.7106 -0.9446 -0.0303
27376TIP3    H283011   8.837   7.166   0.534 -1.7047 -0.2492 -1.0704
27377TIP3   OH283012   3.284   1.104   9.079  0.0912 -0.5880  0.1436
27377TIP3    H183013   3.299   1.057   9.161 -0.3709 -1.8221 -0.4512
27377TIP3    H283014   3.371   1.136   9.054  0.3447 -0.7581  0.7858
27378TIP3   OH283015   7.716   8.920   7.927  0.5144 -0.3873 -0.0468
27378TIP3    H183016   7.654   8.882   7.865 -0.4786 -1.0825  1.3160
27378TIP3    H283017   7.675   8.909   8.013  2.5115 -0.8875  0.9276
27379TIP3   OH283018   9.379   5.861   0.169 -0.4955 -0.2043  0.0367
27379TIP3    H183019   9.316   5.791   0.188 -2.0721  1.0744 -0.2934
27379TIP3    H283020   9.328   5.926   0.121  1.0810  0.9210 -0.1664
27380TIP3   OH283021   9.216   5.641   0.212  0.5706 -0.1446  0.0157
27380TIP3    H183022   9.144   5.584   0.240  0.0670  0.5079  0.0808
27380TIP3    H283023   9.202   5.652   0.118  2.0142 -1.9863 -0.4775
27381TIP3   OH283024   2.114   7.413  10.130 -0.1225 -0.2181 -0.7155
27381TIP3    H183025   2.085   7.380  10.215  0.9128 -1.1767 -0.7129
27381TIP3    H283026   2.032   7.430  10.082 -0.7048 -0.7340  0.0663
27382TIP3   OH283027   3.124   0.728   2.038  0.0919 -0.1439  0.7470
27382TIP3    H183028   3.169   0.792   2.094 -0.0702 -1.2105  2.1122
27382TIP3    H283029   3.031   0.749   2.047  0.1565  1.1808 -1.0137
27383TIP3   OH283030   1.264   8.829   6.968 -0.2108 -0.4459  0.0838
27383TIP3    H183031   1.253   8.901   6.906  0.8179 -0.2249  0.1402
27383TIP3    H283032   1.327   8.862   7.032 -1.3770 -0.6190  1.3535
27384TIP3   OH283033   8.669   7.180   9.886 -0.2194  0.1620 -0.0605
27384TIP3    H183034   8.619   7.248   9.840 -1.6218 -0.9517 -0.2795
27384TIP3    H283035   8.603   7.114   9.908  1.3011 -1.8391 -1.1685
27385TIP3   OH283036   7.738   5.484  10.645  0.1080 -0.1383 -0.2028
27385TIP3    H183037   7.702   5.425  10.711 -1.6094 -0.0158 -0.9768
27385TIP3    H283038   7.721   5.572  10.680 -0.1169 -0.0811 -0.4539
27386TIP3   OH283039   8.442  10.368   8.886  0.2995  0.3281 -0.5471
27386TIP3    H183040   8.502  10.431   8.925  0.9980 -1.1265  0.8246
27386TIP3    H283041   8.449  10.290   8.940 -2.4949 -0.0982 -0.6153
27387TIP3   OH283042   0.593   9.969   9.794 -0.6944  0.0263 -0.4560
27387TIP3    H183043   0.543   9.973   9.876 -0.1585  0.5115 -0.1423
27387TIP3    H283044   0.664   9.908   9.813  0.5132  1.5411  0.0702
27388TIP3   OH283045   0.859   7.986   6.355  0.3475  0.1632 -0.1302
27388TIP3    H183046   0.900   7.972   6.270 -1.8223 -0.3862 -1.1368
27388TIP3    H283047   0.888   7.912   6.409 -1.0720 -1.4529 -1.5137
27389TIP3   OH283048   6.275   6.339   5.143 -0.0879 -0.0807  0.1786
27389TIP3    H183049   6.314   6.280   5.208  0.8351  0.3559  0.0333
27389TIP3    H283050   6.214   6.394   5.193  1.5355  1.0993  0.9222
27390TIP3   OH283051   9.075   2.676   8.367 -0.1015  0.0974  0.1577
27390TIP3    H183052   9.136   2.687   8.294 -1.6014 -1.1058 -1.3498
27390TIP3    H283053   9.120   2.616   8.427  1.2855  1.3753  0.4639
27391TIP3   OH283054   1.045   5.801   8.200 -0.3021  0.4498  0.6621
27391TIP3    H183055   1.125   5.819   8.150 -0.5025  1.1366  0.5674
27391TIP3    H283056   1.026   5.709   8.185 -0.8190  0.8180 -1.2279
27392TIP3   OH283057   6.886   1.543   2.566 -0.8329 -0.2703 -0.1410
27392TIP3    H183058   6.913   1.620   2.616  0.9608 -0.4900 -0.7122
27392TIP3    H283059   6.828   1.495   2.625  1.3144 -0.6060  1.8670
27393TIP3   OH283060   5.260   0.405   9.749  0.4758 -0.3836  0.1057
27393TIP3    H183061   5.292   0.376   9.663  0.6108 -1.2705  0.4438
27393TIP3    H283062   5.165   0.403   9.741  0.4896 -0.2373 -0.1002
27394TIP3   OH283063   6.699   3.291   3.979  0.0205  0.0247  0.3054
27394TIP3    H183064   6.774   3.268   3.924 -0.6159 -0.7480 -0.2807
27394TIP3    H283065   6.733   3.291   4.068  1.1598  1.6530 -0.0933
27395TIP3   OH283066   0.254   0.096   3.059  0.0257 -0.0763  0.0225
27395TIP3    H183067   0.222   0.051   3.137  0.9256 -1.0329 -0.1381
27395TIP3    H283068   0.179   0.146   3.028  0.3824  2.6401  3.0672
27396TIP3   OH283069   3.188   0.092   6.011 -0.1182 -0.2248  0.0175
27396TIP3    H183070   3.131   0.060   6.081 -0.0557  0.7582  0.5261
27396TIP3    H283071   3.242   0.159   6.053  1.5856 -1.2907 -0.3827
27397TIP3   OH283072   5.554   8.329   9.713 -0.6203 -0.8226  0.2397
27397TIP3    H183073   5.521   8.259   9.657 -3.5289  1.0557 -0.6459
27397TIP3    H283074   5.475   8.370   9.749  0.9635  1.4358  1.4315
27398TIP3   OH283075   2.647   7.364   8.703  0.3841  0.3941 -0.3070
27398TIP3    H183076   2.565   7.380   8.656 -2.2968  1.5368  4.0688
27398TIP3    H283077   2.638   7.275   8.737  2.0758 -0.2910 -1.5486
27399TIP3   OH283078   1.592  10.862   8.186 -0.2141 -0.1092 -0.3908
27399TIP3    H183079   1.630  10.912   8.257  1.0250  0.3678 -1.3382
27399TIP3    H283080   1.624  10.905   8.106 -2.9468  0.4350 -1.2884
27400TIP3   OH283081   6.459  10.792   8.596  0.3837 -0.4819  0.4562
27400TIP3    H183082   6.486  10.862   8.536  1.2655 -1.1220  0.0798
27400TIP3    H283083   6.382  10.827   8.641  1.8140  1.4414  1.5622
27401TIP3   OH283084   2.226   5.243   9.116 -0.2843 -0.1002 -0.2409
27401TIP3    H183085   2.299   5.208   9.064  0.6200  0.6784  0.4652
27401TIP3    H283086   2.181   5.302   9.056 -1.1153 -1.5282 -1.0723
27402TIP3   OH283087   9.115   5.320   1.541  0.4332 -0.3069 -0.2644
27402TIP3    H183088   9.187   5.383   1.551  0.6813 -0.6765  0.3097
27402TIP3    H283089   9.042   5.359   1.588  0.2126  0.1318 -0.9593
27403TIP3   OH283090   4.979   7.466   1.172  0.5192  0.2675 -0.0692
27403TIP3    H183091   5.048   7.532   1.171 -0.4680  1.3439  0.1857
27403TIP3    H283092   4.953   7.457   1.080  0.8802 -0.0126 -0.1439
27404TIP3   OH283093   5.372   7.173   8.864  0.0344 -0.4422 -0.2809
27404TIP3    H183094   5.293   7.149   8.816  0.3688  0.6648 -1.4191
27404TIP3    H283095   5.426   7.094   8.863 -1.2822 -1.4323  1.0783
27405TIP3   OH283096   1.954   5.415   0.139  0.5425 -0.0043 -0.4472
27405TIP3    H183097   2.048   5.418   0.156  0.4078  0.8916  0.1963
27405TIP3    H283098   1.935   5.499   0.096 -0.0332 -0.0078 -0.2055
27406TIP3   OH283099   2.282   4.341   2.876 -0.0945  0.4486  0.2645
27406TIP3    H183100   2.215   4.398   2.838 -1.2417 -0.5799  0.6861
27406TIP3    H283101   2.244   4.253   2.872  0.7562 -0.0065  1.5724
27407TIP3   OH283102   1.046  10.877   3.973 -0.3311 -1.2039 -0.0812
27407TIP3    H183103   1.068  10.924   4.054  0.9507 -0.0701 -1.0277
27407TIP3    H283104   1.003  10.797   4.002 -0.1458 -0.6974  1.7045
27408TIP3   OH283105   7.151   3.051   6.759  0.1366 -0.3076 -0.3208
27408TIP3    H183106   7.131   3.033   6.667  2.0323 -2.6976 -0.3770
27408TIP3    H283107   7.210   3.127   6.756  1.1327 -1.0917 -1.2129
27409TIP3   OH283108   7.183   3.757   8.681 -0.2705  0.1331  0.1200
27409TIP3    H183109   7.115   3.748   8.748  0.2477  1.2834  0.8206
27409TIP3    H283110   7.137   3.746   8.598 -0.7769 -2.3206  0.6380
27410TIP3   OH283111   0.088   6.030   4.317 -0.0543  0.2631 -0.6442
27410TIP3    H183112   0.039   6.084   4.379 -0.0007 -0.1800 -0.2160
27410TIP3    H283113   0.137   5.968   4.371  0.8223  0.5634 -1.0818
27411TIP3   OH283114   3.942   5.424   3.556  0.2601  0.1720 -0.1423
27411TIP3    H183115   4.009   5.422   3.624 -0.0166  3.2147  0.3563
27411TIP3    H283116   3.927   5.517   3.540 -2.4467 -0.4122 -1.6319
27412TIP3   OH283117   1.826   3.438  10.826 -0.0912  0.1228  0.4166
27412TIP3    H183118   1.856   3.442  10.917  3.1292  1.5457 -0.5724
27412TIP3    H283119   1.876   3.367  10.787  0.7280  1.3382 -0.8581
27413TIP3   OH283120   1.077   8.796   7.169 -0.1208  0.2922  0.4203
27413TIP3    H183121   1.026   8.876   7.156 -0.9308 -0.1680  0.6984
27413TIP3    H283122   1.132   8.790   7.091 -1.7460 -0.1117 -0.7269
27414TIP3   OH283123   4.176   4.951   0.251  0.1572 -0.3006 -0.2052
27414TIP3    H183124   4.147   4.986   0.335 -0.4778  0.5591 -0.7640
27414TIP3    H283125   4.205   4.862   0.271 -0.7041 -0.3823  0.7918
27415TIP3   OH283126   8.196   3.907   9.847  0.2454 -0.2617 -0.5045
27415TIP3    H183127   8.197   3.850   9.770  0.9903  0.7878 -1.3038
27415TIP3    H283128   8.105   3.935   9.855  0.0353 -0.8985 -0.6006
27416TIP3   OH283129   5.892   6.145   1.933  0.4346 -0.4116 -0.0217
27416TIP3    H183130   5.849   6.073   1.980 -0.3918 -1.0996 -1.7289
27416TIP3    H283131   5.969   6.106   1.893  0.0980 -0.3150 -0.7851
27417TIP3   OH283132   3.892   3.556   7.471  0.5705  0.1691  0.5799
27417TIP3    H183133   3.882   3.488   7.538  0.1639 -0.3569 -0.0024
27417TIP3    H283134   3.974   3.534   7.427  0.3823 -0.0141  0.3181
27418TIP3   OH283135  10.524   9.708   0.550  0.1226 -0.1975  0.1933
27418TIP3    H183136  10.583   9.738   0.480 -0.3302 -3.6846 -1.9414
27418TIP3    H283137  10.453   9.772   0.551  0.7231  0.5713 -1.7705
27419TIP3   OH283138   7.238   7.148   0.742  0.0359  0.4807 -0.0352
27419TIP3    H183139   7.190   7.187   0.670 -3.0619 -0.1914  1.5161
27419TIP3    H283140   7.199   7.061   0.752  2.8569 -0.8726  0.2344
27420TIP3   OH283141   8.060   1.438   7.025  0.5961  0.6802 -0.2430
27420TIP3    H183142   8.008   1.514   7.001 -0.8825 -0.4745 -0.8833
27420TIP3    H283143   8.075   1.392   6.942 -0.5342 -0.9050  0.3765
27421TIP3   OH283144   7.406   9.431   5.096  0.1783  0.9502 -0.6657
27421TIP3    H183145   7.426   9.353   5.044 -2.2030 -0.9349  1.0081
27421TIP3    H283146   7.451   9.417   5.179  0.0773  1.6039 -0.4940
27422TIP3   OH283147   1.667   8.365   6.272  0.1965 -0.6299 -0.2996
27422TIP3    H183148   1.594   8.399   6.325 -0.4954 -1.1125 -0.9172
27422TIP3    H283149   1.722   8.318   6.334 -0.1541 -0.4784  0.1355
27423TIP3   OH283150   1.767   0.902   8.878 -0.1735 -0.4728  0.2793
27423TIP3    H183151   1.807   0.824   8.917 -0.3580 -0.9103 -0.3977
27423TIP3    H283152   1.785   0.971   8.942  1.3649 -0.7179  0.1663
27424TIP3   OH283153   3.707   5.709   0.166  0.2548  0.0171  0.1616
27424TIP3    H183154   3.630   5.747   0.207 -0.4608 -1.1482 -0.0356
27424TIP3    H283155   3.746   5.780   0.115 -1.7506  0.1894 -1.2419
27425TIP3   OH283156   8.891   1.497   8.451 -0.3928 -0.0224  0.0353
27425TIP3    H183157   8.856   1.535   8.370 -0.3722  1.7298  0.8164
27425TIP3    H283158   8.816   1.495   8.511 -0.3676 -1.1522  0.0424
27426TIP3   OH283159   8.677   1.384   7.955  0.0789 -0.4651  0.2341
27426TIP3    H183160   8.704   1.301   7.916  0.3604  0.0646 -0.7313
27426TIP3    H283161   8.680   1.446   7.883 -0.0137  0.4136  0.9737
27427TIP3   OH283162   3.930   1.317   4.528  0.2782 -0.3924 -0.0819
27427TIP3    H183163   3.974   1.369   4.461 -1.1413  1.3647  0.2768
27427TIP3    H283164   3.995   1.252   4.555  0.8791 -1.2076 -3.1521
27428TIP3   OH283165   7.708   3.245   8.308  0.4515 -0.0743 -0.0362
27428TIP3    H183166   7.675   3.312   8.247 -0.1734 -0.9249 -0.6549
27428TIP3    H283167   7.801   3.267   8.319  0.7249 -0.2127 -1.7414
27429TIP3   OH283168   5.882  10.326   5.560  0.3269 -0.4000  0.1171
27429TIP3    H183169   5.908  10.408   5.602  0.3557 -0.3721  0.0461
27429TIP3    H283170   5.859  10.268   5.633 -1.7288  0.3301  0.1212
27430TIP3   OH283171   7.471   9.677   5.420 -0.0642 -0.2499  0.6253
27430TIP3    H183172   7.496   9.703   5.331 -0.6321  0.4651  0.6686
27430TIP3    H283173   7.554   9.660   5.464  0.2016 -2.0777 -0.4620
27431TIP3   OH283174   5.009   6.545   4.193 -0.5932  0.3280 -0.0742
27431TIP3    H183175   4.943   6.573   4.130 -0.0366  0.4395 -0.6173
27431TIP3    H283176   5.007   6.611   4.262  0.4483  1.5351 -1.1501
27432TIP3   OH283177   9.886   1.772   5.180  0.5347  0.0320  0.0546
27432TIP3    H183178   9.960   1.774   5.119  0.1019 -0.4242 -0.4993
27432TIP3    H283179   9.867   1.679   5.191 -1.1443  0.1681 -1.2971
27433TIP3   OH283180   3.494   6.328  10.769  0.2009 -0.2759  0.4985
27433TIP3    H183181   3.402   6.353  10.754  1.1976  2.3023 -2.3527
27433TIP3    H283182   3.504   6.246  10.720 -0.0081  0.9113 -1.6837
27434TIP3   OH283183   5.353   9.200   0.560 -0.4542 -0.5327  0.4077
27434TIP3    H183184   5.388   9.112   0.548 -1.4453 -0.9354  0.3976
27434TIP3    H283185   5.387   9.249   0.485  1.3215 -0.4848  1.1790
27435TIP3   OH283186   4.307   0.208   3.584  0.1203 -0.3769 -0.5568
27435TIP3    H183187   4.327   0.168   3.500 -1.4567 -0.5388 -0.8828
27435TIP3    H283188   4.368   0.282   3.591 -1.2302  1.0832 -2.9252
27436TIP3   OH283189  10.494   2.169   0.647 -0.1155  0.4064 -0.3915
27436TIP3    H183190  10.520   2.171   0.739  0.1371  2.0258 -0.4637
27436TIP3    H283191  10.399   2.181   0.649  0.0434  1.9006 -0.3529
27437TIP3   OH283192   3.207   0.068   1.491  0.2734  0.1021 -0.8357
27437TIP3    H183193   3.125   0.019   1.500  0.3422  0.0814 -0.2882
27437TIP3    H283194   3.209   0.126   1.567  1.1357 -0.4464 -0.4142
27438TIP3   OH283195   3.052   9.464   1.312  0.4899 -0.0410  0.1373
27438TIP3    H183196   3.068   9.372   1.294  2.3280 -0.0004  1.3208
27438TIP3    H283197   2.971   9.466   1.362 -1.7139 -0.6064 -3.0892
27439TIP3   OH283198   4.438   4.351   6.551  0.1530 -0.5668  0.3707
27439TIP3    H183199   4.374   4.281   6.540 -0.1184 -0.1678 -0.7695
27439TIP3    H283200   4.395   4.428   6.513  0.5838  0.1478  1.2863
27440TIP3   OH283201   4.281   9.616   0.403 -0.5439  0.0689  0.5229
27440TIP3    H183202   4.331   9.682   0.355 -1.3730 -0.0418 -0.5132
27440TIP3    H283203   4.277   9.650   0.492  2.0245 -0.2789  0.8608
27441TIP3   OH283204   3.900   0.418   7.066  0.0627  0.3991  0.1020
27441TIP3    H183205   3.898   0.501   7.019 -0.2738  0.9740  1.1036
27441TIP3    H283206   3.869   0.354   7.003 -1.6074  1.3473 -0.1075
27442TIP3   OH283207   7.189   8.183   6.115  0.2065  0.3370 -0.2206
27442TIP3    H183208   7.257   8.200   6.050  0.8736  0.7807  0.5715
27442TIP3    H283209   7.237   8.171   6.197 -0.6783  0.8047  0.3847
27443TIP3   OH283210  10.566   7.804   9.016 -0.2659  0.5373  0.7305
27443TIP3    H183211  10.584   7.886   8.970 -2.0181  0.4277 -0.2285
27443TIP3    H283212  10.569   7.737   8.948 -1.3697  0.1637  1.0276
27444TIP3   OH283213   1.638   2.513   2.859  0.1948 -0.1290  0.3807
27444TIP3    H183214   1.718   2.460   2.857  0.5756  0.3828  1.4113
27444TIP3    H283215   1.638   2.559   2.776  0.9395 -0.1947  0.3341
27445TIP3   OH283216   9.648   6.526   9.237 -0.1046  0.1767 -0.2288
27445TIP3    H183217   9.658   6.619   9.216  0.4579 -0.0836 -1.1589
27445TIP3    H283218   9.733   6.487   9.217  0.0210 -0.3665  1.1946
27446TIP3   OH283219  10.801   2.364   9.336 -0.4045 -0.0798 -0.6034
27446TIP3    H183220  10.852   2.344   9.258  2.7651  0.0582  1.2637
27446TIP3    H283221  10.775   2.455   9.325  0.9523  0.2750 -1.0461
27447TIP3   OH283222   0.446   5.306   5.445 -0.3422  0.6514 -0.7008
27447TIP3    H183223   0.367   5.360   5.436 -1.6088 -1.1961 -1.1894
27447TIP3    H283224   0.461   5.270   5.357  0.4732  0.2067 -0.3935
27448TIP3   OH283225   6.474   2.465   7.662 -0.4200 -0.4066 -0.6057
27448TIP3    H183226   6.535   2.420   7.603 -1.7409 -1.1675 -1.4197
27448TIP3    H283227   6.521   2.469   7.746  0.9930 -0.4047 -1.3649
27449TIP3   OH283228   0.566   6.620   5.133 -0.5144  0.7888  0.6998
27449TIP3    H183229   0.532   6.664   5.211  0.6128  2.1868  0.4551
27449TIP3    H283230   0.489   6.600   5.081 -1.1963  0.8268  1.6613
27450TIP3   OH283231   6.856   3.464   9.952 -0.1974 -0.6297 -0.4431
27450TIP3    H183232   6.878   3.536   9.894 -1.3818  1.2763  1.3424
27450TIP3    H283233   6.886   3.386   9.906 -0.8996  0.7576 -3.4821
27451TIP3   OH283234   1.435   2.042   4.070 -0.2627  0.5059 -0.4713
27451TIP3    H183235   1.449   1.954   4.035  0.4816  1.0796 -1.6693
27451TIP3    H283236   1.341   2.058   4.059 -0.3375  0.0142 -0.5776
27452TIP3   OH283237   4.016   8.978   3.789 -0.2205  0.1049 -0.1786
27452TIP3    H183238   4.039   9.047   3.851 -1.1273  1.1960 -1.0344
27452TIP3    H283239   3.924   8.960   3.806 -0.1110 -0.5781 -0.2747
27453TIP3   OH283240   0.426   4.094   0.524 -0.5265  0.1439 -0.0283
27453TIP3    H183241   0.506   4.117   0.477  0.1859  0.3040  1.2335
27453TIP3    H283242   0.362   4.159   0.497  0.9254  2.6020  2.0508
27454TIP3   OH283243   7.990   8.003   0.654  0.9179  0.2098 -0.7423
27454TIP3    H183244   7.985   8.098   0.640  0.7349  0.1206 -1.3059
27454TIP3    H283245   7.901   7.972   0.642  0.4933  0.2509  1.7565
27455TIP3   OH283246   9.919   9.558   6.272  0.0348 -0.6009  0.0201
27455TIP3    H183247   9.946   9.475   6.311  0.3357 -0.4975  0.0276
27455TIP3    H283248   9.890   9.611   6.346 -1.5684 -1.2223 -0.1191
27456TIP3   OH283249   6.561   2.975   0.704 -0.0985  0.4914  0.2346
27456TIP3    H183250   6.637   2.998   0.758  1.7864 -1.0246 -1.6247
27456TIP3    H283251   6.595   2.968   0.615 -2.2879 -0.9319 -0.5751
27457TIP3   OH283252  10.410   4.604   7.856 -0.3590 -0.4571  0.3544
27457TIP3    H183253  10.408   4.592   7.761 -0.7672 -2.5856  0.5825
27457TIP3    H283254  10.351   4.537   7.890 -1.0468  0.9349  2.0866
27458TIP3   OH283255   1.388   1.138  10.013  0.0463 -0.1841 -0.0158
27458TIP3    H183256   1.307   1.123   9.964  1.2531 -0.1987 -2.1405
27458TIP3    H283257   1.369   1.105  10.101 -1.8505 -1.3085 -0.7757
27459TIP3   OH283258   4.820   7.559   8.140 -0.0905 -0.3335  0.4879
27459TIP3    H183259   4.798   7.595   8.054 -1.2252 -2.5749 -0.2579
27459TIP3    H283260   4.891   7.614   8.172  0.7714  0.2244 -2.1387
27460TIP3   OH283261   0.944   9.096   9.001 -0.1254  0.3575  0.1769
27460TIP3    H183262   0.938   9.002   8.981 -0.6580  0.0704  1.5872
27460TIP3    H283263   0.853   9.124   9.008  0.0384  0.8737  0.2672
27461TIP3   OH283264   5.907   2.734   9.126 -0.6325  0.0686  0.0779
27461TIP3    H183265   5.844   2.732   9.198  0.9302 -1.9469  1.5023
27461TIP3    H283266   5.958   2.814   9.142 -1.6367  0.7671 -0.0742
27462TIP3   OH283267   7.008   0.135  10.396 -0.1143  0.4335 -0.5475
27462TIP3    H183268   6.934   0.169  10.446  1.6263  1.3106  1.6498
27462TIP3    H283269   7.012   0.042  10.417 -0.3391  0.4765 -0.3162
27463TIP3   OH283270   4.880   8.065   4.527 -0.2751 -0.1675  0.4478
27463TIP3    H183271   4.922   8.046   4.611  0.3446 -1.5445 -0.1490
27463TIP3    H283272   4.944   8.117   4.479  0.3474 -1.3216 -0.0276
27464TIP3   OH283273   4.455   2.296   7.603 -0.3968 -0.0706  0.3593
27464TIP3    H183274   4.362   2.310   7.617 -1.3638 -1.1624 -3.6033
27464TIP3    H283275   4.461   2.265   7.512  3.8312 -0.1272  0.4585
27465TIP3   OH283276   1.072   7.147   0.380  0.2040 -0.3865 -0.1962
27465TIP3    H183277   1.142   7.150   0.314  0.9654  2.1180  0.6015
27465TIP3    H283278   0.991   7.150   0.328  0.7754  2.6714 -1.1620
27466TIP3   OH283279   0.855   2.324   3.596  0.2549  0.2614  0.1406
27466TIP3    H183280   0.865   2.310   3.690  1.4232 -0.3390 -0.0605
27466TIP3    H283281   0.926   2.383   3.573  0.2838  0.0035 -0.4498
27467TIP3   OH283282   9.356   5.116   8.429  0.6387  0.3004  0.2623
27467TIP3    H183283   9.378   5.205   8.400  0.5974  1.3576  3.1185
27467TIP3    H283284   9.260   5.118   8.438  0.6106 -0.1419  0.0705
27468TIP3   OH283285   0.609   7.366   6.632  0.4379  0.7319 -0.0230
27468TIP3    H183286   0.599   7.342   6.540 -0.1701  0.5495  0.0917
27468TIP3    H283287   0.562   7.299   6.680 -0.0930  1.3751  0.3699
27469TIP3   OH283288   1.835   3.829   7.933  0.4506  0.0164 -0.4254
27469TIP3    H183289   1.850   3.827   8.028  2.0417 -0.5298 -0.6597
27469TIP3    H283290   1.902   3.888   7.900 -0.1218  0.2342 -1.2217
27470TIP3   OH283291   9.567   8.661   2.613  0.0617 -0.3542 -0.4919
27470TIP3    H183292   9.623   8.734   2.585 -1.7220  1.0300 -0.6766
27470TIP3    H283293   9.573   8.661   2.708  1.3064 -1.0286 -0.5521
27471TIP3   OH283294   4.138  10.551   8.492  0.3327  0.6219 -0.1697
27471TIP3    H183295   4.142  10.512   8.579  0.4095  0.1346 -0.3860
27471TIP3    H283296   4.050  10.529   8.461  0.5641  0.1608 -0.5034
27472TIP3   OH283297   5.820   7.303  10.735  0.3470 -0.5171  0.1719
27472TIP3    H183298   5.769   7.322  10.814  0.4871 -0.4002  0.2341
27472TIP3    H283299   5.789   7.217  10.706 -0.3185 -0.1842 -0.1314
27473TIP3   OH283300   0.089   7.534   6.532 -0.2381  0.0845 -0.1146
27473TIP3    H183301   0.185   7.531   6.532 -0.2589 -0.5825 -0.4564
27473TIP3    H283302   0.068   7.616   6.488  0.1705  0.1903 -0.1160
27474TIP3   OH283303   0.581   0.333   4.810  0.0869  0.1009  0.1617
27474TIP3    H183304   0.554   0.308   4.721  1.6178 -0.1873 -0.2501
27474TIP3    H283305   0.565   0.255   4.863  1.5304 -0.5908 -0.3914
27475TIP3   OH283306   6.904   6.891   7.343  0.1765  0.0977  0.3120
27475TIP3    H183307   6.932   6.950   7.274  0.9164  0.5476  0.9733
27475TIP3    H283308   6.927   6.937   7.424  0.0147 -0.7387  0.8464
27476TIP3   OH283309   0.422   1.541  10.375  0.3894 -0.3064 -0.4550
27476TIP3    H183310   0.394   1.515  10.287  2.0947 -0.0388 -1.1148
27476TIP3    H283311   0.365   1.614  10.397  0.2569 -0.0496 -1.5574
27477TIP3   OH283312   7.543  10.048   9.719  0.1431 -0.2765  0.5919
27477TIP3    H183313   7.494   9.971   9.690 -0.2809 -0.0463  0.6863
27477TIP3    H283314   7.555  10.100   9.639  1.4429 -0.9809  0.3009
27478TIP3   OH283315   8.951   2.191   2.543  0.2264  0.8408  0.1461
27478TIP3    H183316   8.958   2.182   2.448 -0.3340  1.0948  0.0727
27478TIP3    H283317   8.857   2.206   2.558 -0.0494 -1.3700  0.9200
27479TIP3   OH283318   8.570   2.491   0.966  0.6622  1.1997 -0.7767
27479TIP3    H183319   8.528   2.534   0.892 -0.2809  0.3559 -0.7653
27479TIP3    H283320   8.663   2.489   0.944  0.1642 -1.4561 -3.2927
27480TIP3   OH283321   2.224   2.444  10.346  0.2624  0.0141 -0.4577
27480TIP3    H183322   2.222   2.352  10.374 -0.7823 -0.0747 -0.7732
27480TIP3    H283323   2.276   2.443  10.265 -1.0325 -0.5755 -1.3225
27481TIP3   OH283324  10.203   7.476   6.894  0.1178  0.1574  0.2061
27481TIP3    H183325  10.125   7.515   6.854  1.0464  0.1259 -1.7578
27481TIP3    H283326  10.228   7.538   6.963 -0.9231  0.7917  0.0402
27482TIP3   OH283327   1.918   4.482   4.310  0.4639  0.1518 -0.4525
27482TIP3    H183328   1.899   4.402   4.263  0.2957 -0.4224  0.5610
27482TIP3    H283329   1.834   4.509   4.348  0.4275  1.0445 -1.1224
27483TIP3   OH283330   9.466   5.248   7.443  0.1254 -0.5590  0.1649
27483TIP3    H183331   9.531   5.212   7.383 -0.3823 -0.1337 -0.6628
27483TIP3    H283332   9.495   5.338   7.459 -0.6688 -0.0931 -0.8634
27484TIP3   OH283333   9.249   0.526   2.831 -0.0765  0.8391 -0.2157
27484TIP3    H183334   9.158   0.554   2.843 -0.6672 -0.2514 -1.7663
27484TIP3    H283335   9.289   0.535   2.918 -1.7256  1.1046  0.5485
27485TIP3   OH283336   5.699  10.101   9.008 -0.3543  0.4193 -0.0748
27485TIP3    H183337   5.621  10.065   8.965 -0.3140  0.5452 -0.2552
27485TIP3    H283338   5.753  10.025   9.027 -1.2730  0.1454  1.5813
27486TIP3   OH283339   6.019   8.472   2.013  0.3821 -0.2261 -0.5770
27486TIP3    H183340   6.001   8.566   2.020 -0.9943 -0.4598 -0.8103
27486TIP3    H283341   6.042   8.459   1.921  0.3915 -0.1612 -0.5842
27487TIP3   OH283342   3.198   3.786   4.206 -0.2442  0.1594 -0.0381
27487TIP3    H183343   3.140   3.793   4.131  0.0522 -1.1347 -0.4107
27487TIP3    H283344   3.212   3.877   4.235 -1.0178  0.6032 -1.0230
27488TIP3   OH283345   2.112   5.645   3.947  0.1620  0.3361 -0.4143
27488TIP3    H183346   2.093   5.738   3.962 -0.0924  0.5194 -1.7050
27488TIP3    H283347   2.063   5.599   4.015  0.9861  1.1734  0.7889
27489TIP3   OH283348  10.322   1.536   8.945 -0.5557 -0.7180  0.5406
27489TIP3    H183349  10.372   1.496   8.873 -0.5181 -0.0651  0.2008
27489TIP3    H283350  10.230   1.531   8.916 -0.3535  1.9648 -0.8003
27490TIP3   OH283351   5.482   6.162   8.072 -0.1032  0.1619  0.3592
27490TIP3    H183352   5.548   6.228   8.050 -0.3110  1.5238  3.3292
27490TIP3    H283353   5.471   6.112   7.991  3.4260  0.8142 -0.7335
27491TIP3   OH283354   1.973   4.792   4.230  0.5551 -0.1011  0.4535
27491TIP3    H183355   1.944   4.714   4.183 -0.8760  0.3548  0.5295
27491TIP3    H283356   2.065   4.802   4.206  0.2579 -0.7313 -1.0489
27492TIP3   OH283357   2.823  10.282   9.657  0.6711  0.1916 -0.7301
27492TIP3    H183358   2.910  10.255   9.686 -0.2249 -0.1465  1.9393
27492TIP3    H283359   2.779  10.201   9.632  1.0343  0.3435 -1.9177
27493TIP3   OH283360   4.931   3.342   0.339 -0.3635  0.8813  0.0055
27493TIP3    H183361   4.994   3.382   0.398 -2.4350  0.7175  2.5033
27493TIP3    H283362   4.905   3.413   0.279 -0.5037  1.9817  1.3269
27494TIP3   OH283363   4.327   7.538   5.562 -0.4927 -0.1319 -0.5725
27494TIP3    H183364   4.411   7.561   5.601 -0.4659 -0.4918 -0.4054
27494TIP3    H283365   4.262   7.564   5.627 -0.6109  1.3483 -1.2489
27495TIP3   OH283366   4.845   0.973   3.327  0.1899  0.3048 -0.2778
27495TIP3    H183367   4.890   0.989   3.410 -0.1163  2.5150 -0.4946
27495TIP3    H283368   4.915   0.964   3.262  0.3894 -0.3078  0.0058
27496TIP3   OH283369   2.625   6.649   2.993  0.1987  0.4823  0.7187
27496TIP3    H183370   2.598   6.655   2.901  1.3370 -0.1995  0.3104
27496TIP3    H283371   2.558   6.594   3.034  1.8146 -2.9027 -0.7221
27497TIP3   OH283372  10.379   3.330   1.276 -0.1770  1.0068 -0.0099
27497TIP3    H183373  10.298   3.362   1.237 -0.4649  0.0834 -0.1834
27497TIP3    H283374  10.370   3.349   1.369  0.6683  3.5594 -0.3821
27498TIP3   OH283375   0.492   3.069   1.217 -0.1114  0.0527 -0.1504
27498TIP3    H183376   0.548   3.139   1.181  1.0372 -0.9372 -0.3669
27498TIP3    H283377   0.530   3.050   1.303  1.1307 -1.9132 -1.0571
27499TIP3   OH283378   8.514  10.209   0.385 -0.1516 -0.0936 -0.2135
27499TIP3    H183379   8.599  10.167   0.372 -0.7004 -1.0981 -0.6326
27499TIP3    H283380   8.491  10.189   0.475 -0.9214 -1.7017 -0.7280
27500TIP3   OH283381   1.219   8.813   5.514 -0.4459 -0.4516 -0.7894
27500TIP3    H183382   1.282   8.752   5.475  0.0053  0.1725 -1.0537
27500TIP3    H283383   1.272   8.889   5.540 -1.0943  0.1266 -1.1109
27501TIP3   OH283384   4.083   3.309   9.924 -0.3356  0.3415 -0.0103
27501TIP3    H183385   4.094   3.390   9.874 -0.0355  1.1152  1.2309
27501TIP3    H283386   4.126   3.242   9.872 -2.3211  0.5523 -2.0496
27502TIP3   OH283387   5.905   5.152   5.614  0.1705 -0.1431  1.0018
27502TIP3    H183388   5.939   5.186   5.697 -1.9312  0.7115  1.5789
27502TIP3    H283389   5.885   5.061   5.631 -0.1206 -0.0063  1.3989
27503TIP3   OH283390  10.324  10.262   8.342  0.0459 -0.2710 -0.3042
27503TIP3    H183391  10.399  10.286   8.395 -0.9774 -0.5494  1.3410
27503TIP3    H283392  10.356  10.192   8.285  0.2955 -2.9192  2.7876
27504TIP3   OH283393   0.877   6.289   3.973 -0.0626 -0.0840 -0.1557
27504TIP3    H183394   0.898   6.378   4.001 -0.9918  0.0885  0.0221
27504TIP3    H283395   0.791   6.296   3.931  0.1415 -0.7878 -0.7354
27505TIP3   OH283396   6.375   9.352   5.029 -0.3210 -0.3952  0.4279
27505TIP3    H183397   6.379   9.256   5.025  2.0564 -0.3517 -0.2070
27505TIP3    H283398   6.305   9.376   4.969 -0.9030 -1.7317  0.5258
27506TIP3   OH283399   2.210   2.124   6.839 -0.2429 -0.3969  0.3900
27506TIP3    H183400   2.207   2.125   6.935  0.3736 -0.8437  0.4243
27506TIP3    H283401   2.144   2.187   6.812 -0.2243 -0.0531  1.1187
27507TIP3   OH283402   6.244   4.225   8.439 -0.3402  0.2189  0.5198
27507TIP3    H183403   6.165   4.267   8.473 -0.6335 -0.9722  1.3504
27507TIP3    H283404   6.232   4.132   8.457  0.9838 -0.0553  0.1047
27508TIP3   OH283405   7.148   3.869   7.730  0.4621 -0.6037  0.3206
27508TIP3    H183406   7.100   3.934   7.781 -1.3692 -1.3426 -0.3638
27508TIP3    H283407   7.207   3.826   7.793 -1.7244 -1.5075  1.8723
27509TIP3   OH283408   5.211   8.350   4.200 -0.3691  0.2658 -0.2448
27509TIP3    H183409   5.206   8.258   4.172  1.1029  0.5534 -1.6303
27509TIP3    H283410   5.127   8.367   4.242 -1.5801 -1.1058 -1.9298
27510TIP3   OH283411   3.204   8.196   5.375 -0.4244 -0.4560 -0.5961
27510TIP3    H183412   3.260   8.235   5.442 -0.1678 -0.7903 -0.6146
27510TIP3    H283413   3.136   8.150   5.423 -0.5531 -0.2453 -0.5723
27511TIP3   OH283414   7.518   0.682  10.320  0.2007  0.0934 -0.3080
27511TIP3    H183415   7.513   0.734  10.400  2.0576  1.2360 -0.8843
27511TIP3    H283416   7.431   0.689  10.282  0.1268  1.9754  0.1403
27512TIP3   OH283417   9.316  10.521   4.254 -0.0181  0.4742  0.2915
27512TIP3    H183418   9.348  10.434   4.230  1.4955  1.1066 -0.1325
27512TIP3    H283419   9.311  10.519   4.349 -1.2625 -0.4788  0.2247
27513TIP3   OH283420   5.865   2.902   9.596  0.3045  0.2513 -0.5592
27513TIP3    H183421   5.819   2.881   9.514  1.9260 -0.5620 -1.3159
27513TIP3    H283422   5.955   2.871   9.582  0.9265  1.1318  1.1145
27514TIP3   OH283423   8.083   5.146   6.421 -0.1434  0.2176  0.0759
27514TIP3    H183424   8.020   5.212   6.452 -1.0642 -0.0752 -1.1028
27514TIP3    H283425   8.081   5.155   6.326  0.2115 -1.0658 -0.0637
27515TIP3   OH283426   4.909   1.104   9.372 -0.5883  0.3285 -0.2206
27515TIP3    H183427   4.957   1.052   9.436  0.8048 -0.3503 -1.7339
27515TIP3    H283428   4.862   1.039   9.319  1.5472  0.3994 -2.4382
27516TIP3   OH283429   6.791   2.149   9.613  0.1769 -0.2484 -0.0116
27516TIP3    H183430   6.714   2.121   9.564 -0.3268  0.4043  0.4048
27516TIP3    H283431   6.784   2.105   9.697  0.5908 -0.6814 -0.1979
27517TIP3   OH283432   9.899   2.645   5.466  0.5812  0.0329  0.2846
27517TIP3    H183433   9.829   2.679   5.410 -1.2363  1.7913  3.3266
27517TIP3    H283434   9.971   2.707   5.456 -0.3056  1.2212  0.9235
27518TIP3   OH283435   2.197   9.833   7.874  0.2903 -0.4685 -0.1164
27518TIP3    H183436   2.122   9.781   7.844 -1.3106  0.7522  1.5556
27518TIP3    H283437   2.172   9.924   7.856  1.2900 -0.0257  0.6138
27519TIP3   OH283438   8.791   2.173   3.205  0.3134 -0.4129  0.4495
27519TIP3    H183439   8.762   2.083   3.217 -0.6501 -0.0140  1.2505
27519TIP3    H283440   8.847   2.191   3.281  0.3344 -0.2734  0.4025
27520TIP3   OH283441   0.532   1.687   4.112 -0.1062 -0.4988 -0.1798
27520TIP3    H183442   0.463   1.638   4.156 -1.1765  1.2825  0.2270
27520TIP3    H283443   0.550   1.761   4.170  2.5618 -1.1807 -0.0121
27521TIP3   OH283444   8.793   5.374   0.531  0.6035  0.1524  0.0243
27521TIP3    H183445   8.831   5.311   0.470 -0.4453 -0.8566  0.3848
27521TIP3    H283446   8.769   5.322   0.607 -3.2351  0.3042 -0.8989
27522TIP3   OH283447   8.150   4.501   7.188 -0.5927  0.0557  0.3315
27522TIP3    H183448   8.079   4.437   7.188 -0.8587  0.1845  3.5357
27522TIP3    H283449   8.214   4.465   7.249  0.0416  1.9981  0.8835
27523TIP3   OH283450   7.827   8.475   1.414 -0.0004 -0.0870 -0.5009
27523TIP3    H183451   7.832   8.488   1.319  0.9474 -0.6549 -0.5313
27523TIP3    H283452   7.814   8.563   1.449  2.2368  0.4932 -0.9911
27524TIP3   OH283453   9.318   5.020   2.231 -0.5168 -0.6663 -0.4730
27524TIP3    H183454   9.358   5.103   2.258 -1.5161 -0.1662 -0.5056
27524TIP3    H283455   9.374   4.988   2.161  1.2754 -1.2322  1.1248
27525TIP3   OH283456   7.188   5.732   4.324 -0.2689 -0.2083 -0.1811
27525TIP3    H183457   7.141   5.687   4.394 -1.8982  0.5676 -0.7377
27525TIP3    H283458   7.250   5.666   4.291  0.0469 -0.8095  1.4829
27526TIP3   OH283459  10.497   4.255   8.028 -0.0969  0.0623  0.3419
27526TIP3    H183460  10.434   4.203   7.978 -0.4600 -0.9058  1.7279
27526TIP3    H283461  10.444   4.315   8.079  0.2424  0.7296 -0.0724
27527TIP3   OH283462   1.091   3.133   7.409  0.2868  0.1818  0.1092
27527TIP3    H183463   1.182   3.162   7.416 -0.0408  1.2862 -0.0460
27527TIP3    H283464   1.060   3.171   7.327 -0.3688 -0.0559  0.2391
27528TIP3   OH283465   2.848   5.081   0.198 -0.1100 -0.4600 -0.1006
27528TIP3    H183466   2.896   5.161   0.221 -0.3084 -0.6401  0.9753
27528TIP3    H283467   2.756   5.104   0.214 -0.3368 -0.3463 -1.4670
27529TIP3   OH283468   3.421   6.102   7.704  0.0332  0.4333 -0.0122
27529TIP3    H183469   3.512   6.078   7.718 -0.6606 -1.2604  2.3557
27529TIP3    H283470   3.379   6.022   7.673 -0.6152  1.2877 -1.4392
27530TIP3   OH283471   9.185   6.195   3.733  0.4783 -0.1665  0.4036
27530TIP3    H183472   9.205   6.259   3.665  0.6076 -0.2499  0.3610
27530TIP3    H283473   9.270   6.155   3.753 -0.0614 -3.0932 -2.3341
27531TIP3   OH283474   0.522   4.522  10.890  0.3104 -0.5319 -0.5392
27531TIP3    H183475   0.534   4.616  10.905 -0.8698 -0.5457  0.6801
27531TIP3    H283476   0.587   4.500  10.823  0.8121  1.0857 -0.6284
27532TIP3   OH283477   4.007   6.523   8.069  0.2465  0.2479  0.0962
27532TIP3    H183478   3.978   6.516   8.160  0.5057  0.1901  0.1743
27532TIP3    H283479   4.057   6.604   8.066  0.4957  0.0932  0.0755
27533TIP3   OH283480   4.363  10.069   2.234  0.5698  0.0120  0.4438
27533TIP3    H183481   4.305  10.066   2.158  1.7424 -1.7016 -0.4594
27533TIP3    H283482   4.448  10.096   2.198  0.7679  0.8127  1.4510
27534TIP3   OH283483   9.246   9.217   6.962  0.0347  0.2527  0.1291
27534TIP3    H183484   9.152   9.201   6.951  0.2577 -1.0479 -0.0395
27534TIP3    H283485   9.266   9.184   7.050  0.5205 -0.4725 -0.2381
27535TIP3   OH283486   9.091   7.353   5.076 -0.0749 -0.3248 -0.2117
27535TIP3    H183487   9.041   7.426   5.038 -1.4259 -1.0273  0.1243
27535TIP3    H283488   9.118   7.301   5.001 -2.0985 -1.3066 -0.3377
27536TIP3   OH283489   2.832   0.211   4.951 -0.1440 -0.8961  0.3747
27536TIP3    H183490   2.881   0.196   5.031  1.2657  0.4412 -0.1985
27536TIP3    H283491   2.784   0.292   4.967 -0.8471 -1.2833  0.2944
27537TIP3   OH283492   3.906  10.756   1.170  0.1937 -0.1373 -0.4713
27537TIP3    H183493   3.893  10.675   1.220  0.2343  0.4928  0.5948
27537TIP3    H283494   3.973  10.734   1.106  1.4641 -0.5176  0.9133
27538TIP3   OH283495   4.475   9.828   9.327 -0.6734 -0.2425  0.0181
27538TIP3    H183496   4.513   9.792   9.248  1.0913  0.3221  0.5546
27538TIP3    H283497   4.429   9.907   9.298 -0.1319 -0.1020 -0.4822
27539TIP3   OH283498   7.853   8.765   1.421  0.0670  0.2439 -0.4385
27539TIP3    H183499   7.873   8.823   1.495 -0.0969 -0.8582  0.5002
27539TIP3    H283500   7.854   8.822   1.345  0.4089  1.3873  0.3952
27540TIP3   OH283501   9.703   9.464   8.140  0.0945  0.1164  0.3603
27540TIP3    H183502   9.700   9.492   8.049 -1.4166 -0.5849  0.1720
27540TIP3    H283503   9.796   9.447   8.156  0.2899 -0.6713 -1.3546
27541TIP3   OH283504   7.736   2.604   3.346  0.1010  0.3529  0.2029
27541TIP3    H183505   7.825   2.639   3.335  0.2385 -0.2122 -0.5449
27541TIP3    H283506   7.731   2.580   3.438  0.1928  1.8033  0.6116
27542TIP3   OH283507   6.866   0.352   5.916  0.0116  0.2168 -0.3030
27542TIP3    H183508   6.781   0.311   5.931 -0.5229  1.4421  0.1584
27542TIP3    H283509   6.894   0.381   6.003  1.4349 -1.1297 -0.2754
27543TIP3   OH283510  10.400   6.270   1.925  0.0188  0.1683  0.4513
27543TIP3    H183511  10.352   6.291   2.005  0.7660 -0.5181  1.0867
27543TIP3    H283512  10.386   6.176   1.912 -1.9419  0.6168 -1.4787
27544TIP3   OH283513  10.253   2.747   8.142  0.7714 -0.1015 -0.6713
27544TIP3    H183514  10.214   2.665   8.172 -0.9190  0.8890 -0.0254
27544TIP3    H283515  10.284   2.789   8.222 -0.0518  0.7083 -0.7631
27545TIP3   OH283516  10.864   1.360   0.107  0.1767  0.2371  0.9879
27545TIP3    H183517  10.860   1.390   0.198 -0.8921  1.2092  0.6567
27545TIP3    H283518  10.790   1.301   0.098 -0.0760  0.6030  0.6096
27546TIP3   OH283519  10.799   7.962   5.750  1.3739  0.3947 -0.0464
27546TIP3    H183520  10.795   7.902   5.825  1.8845 -0.4014 -0.6398
27546TIP3    H283521  10.870   8.023   5.772 -1.3930  3.1668  2.2198
27547TIP3   OH283522   4.049   1.427   1.471 -0.0779  0.1581  0.4352
27547TIP3    H183523   4.061   1.349   1.416  0.6053 -0.2681  1.1567
27547TIP3    H283524   4.039   1.499   1.410  1.4712 -0.1780 -0.2737
27548TIP3   OH283525   5.189   1.673   4.286  0.2324  0.0897 -0.0434
27548TIP3    H183526   5.258   1.644   4.346  0.2831 -0.5728 -0.4078
27548TIP3    H283527   5.148   1.748   4.330  1.1039  0.4164  0.2270
27549TIP3   OH283528   0.732   0.312   3.977  0.0916 -0.2461  0.0156
27549TIP3    H183529   0.752   0.406   3.983  1.3320 -0.5539  1.1824
27549TIP3    H283530   0.704   0.300   3.886  0.6504  1.1238 -0.3692
27550TIP3   OH283531   6.480   9.198   6.068  0.1540  0.1049  0.3372
27550TIP3    H183532   6.495   9.112   6.107  1.5702 -1.6900 -3.6304
27550TIP3    H283533   6.531   9.258   6.123  0.9032 -1.9137  1.9983
27551TIP3   OH283534   7.169   2.633   6.929 -0.2041 -0.1374  0.2514
27551TIP3    H183535   7.122   2.686   6.994 -1.4362 -1.8288  0.8261
27551TIP3    H283536   7.201   2.558   6.978 -0.4375 -1.0366 -0.9245
27552TIP3   OH283537   3.367   1.766   6.016 -0.4480  0.3885 -0.1033
27552TIP3    H183538   3.440   1.826   5.998  0.8067 -1.0073  0.1587
27552TIP3    H283539   3.367   1.706   5.942 -1.5385  0.5352 -0.2417
27553TIP3   OH283540   0.971   1.423   5.565  0.3151  0.1935 -0.5484
27553TIP3    H183541   1.059   1.418   5.528  0.7944  0.6412  0.4984
27553TIP3    H283542   0.946   1.515   5.555 -1.0895 -0.3743 -3.1367
27554TIP3   OH283543   5.295   3.545   9.685 -0.1095  0.5683  0.0739
27554TIP3    H183544   5.304   3.536   9.590 -0.0834  0.0498  0.1242
27554TIP3    H283545   5.381   3.524   9.720 -0.5193 -0.7988  0.3072
27555TIP3   OH283546   1.478   4.742  10.303  0.2096  0.3021  0.2110
27555TIP3    H183547   1.452   4.832  10.320  0.3119 -0.1457  3.4623
27555TIP3    H283548   1.404   4.689  10.333  1.0766 -0.7316  0.6288
27556TIP3   OH283549   1.833   8.268  10.082  0.4088 -0.3347 -0.0201
27556TIP3    H183550   1.919   8.250  10.044  1.3034 -0.2079  1.8401
27556TIP3    H283551   1.799   8.342  10.031  1.3874 -0.3975 -0.7872
27557TIP3   OH283552   9.900   4.979   3.569 -0.5073 -0.7096 -0.5520
27557TIP3    H183553   9.862   5.063   3.544  0.3763 -0.2683 -0.4630
27557TIP3    H283554   9.971   4.965   3.507  0.5058 -0.5063  0.5267
27558TIP3   OH283555  10.136   9.728   8.538 -0.3259 -0.1094  0.8330
27558TIP3    H183556  10.089   9.704   8.618 -0.2351  1.4797  1.3862
27558TIP3    H283557  10.079   9.790   8.494  0.9291  1.3540  1.1948
27559TIP3   OH283558   3.804   9.367  10.625  0.2587 -0.6558 -0.5892
27559TIP3    H183559   3.757   9.449  10.609  0.1858 -0.7373 -0.7966
27559TIP3    H283560   3.735   9.300  10.625  0.1239 -0.5573  0.9910
27560TIP3   OH283561   5.325   4.387   0.122 -0.4981 -0.5210 -0.6076
27560TIP3    H183562   5.333   4.390   0.217  0.4710 -4.1623 -0.4076
27560TIP3    H283563   5.411   4.416   0.090 -0.5259 -0.1396 -0.3433
27561TIP3   OH283564   5.030   5.902  10.343 -0.0807 -0.1019  0.6114
27561TIP3    H183565   5.074   5.966  10.286  1.6580 -1.7449  0.0324
27561TIP3    H283566   4.959   5.867  10.289 -0.0384  0.1826  0.3690
27562TIP3   OH283567   1.572   9.869   8.691 -0.1167  0.1230  0.0473
27562TIP3    H183568   1.586   9.957   8.727 -0.1674  0.3519 -0.4943
27562TIP3    H283569   1.556   9.883   8.598  2.0361 -0.6155 -0.4936
27563TIP3   OH283570   8.827   4.714   1.526  0.0281 -0.0256 -0.2371
27563TIP3    H183571   8.738   4.686   1.546 -0.1164  0.1906 -0.5712
27563TIP3    H283572   8.873   4.632   1.505 -0.6511  0.0262 -2.2175
27564TIP3   OH283573   8.553   5.155   0.532  0.3391 -0.3308 -0.2869
27564TIP3    H183574   8.543   5.228   0.592 -0.8363 -1.5132  1.0345
27564TIP3    H283575   8.504   5.083   0.573  1.7991 -1.9874 -1.2957
27565TIP3   OH283576   8.516   9.599   3.746  0.4572 -0.5998 -0.1474
27565TIP3    H183577   8.448   9.537   3.718  0.2976  0.1565 -1.5669
27565TIP3    H283578   8.597   9.565   3.707  0.2474  0.4275 -1.5546
27566TIP3   OH283579   1.188  10.300   6.300  0.2363  0.1679  0.3500
27566TIP3    H183580   1.118  10.364   6.313  0.0644  0.0142  0.1759
27566TIP3    H283581   1.260  10.350   6.261  0.4752  0.4730  1.1494
27567TIP3   OH283582   3.115   5.255  10.113  0.0244 -0.1850 -0.2319
27567TIP3    H183583   3.123   5.225  10.023  1.4593 -3.8230  0.9076
27567TIP3    H283584   3.204   5.282  10.137 -0.5419  1.7230 -0.1344
27568TIP3   OH283585   2.183   1.301   7.935 -0.5211  0.0333 -0.2231
27568TIP3    H183586   2.237   1.292   7.857  1.5521  0.9961  1.0078
27568TIP3    H283587   2.168   1.211   7.964  0.3151 -0.2543 -0.6675
27569TIP3   OH283588   7.449   2.843   4.164 -0.3816 -0.6115 -0.2919
27569TIP3    H183589   7.507   2.805   4.098  0.1198 -0.9666  0.3378
27569TIP3    H283590   7.473   2.798   4.245  0.8383  1.6344  0.6740
27570TIP3   OH283591   4.261   5.801   6.437  0.0726 -0.3086  0.3700
27570TIP3    H183592   4.259   5.891   6.405  4.3872  0.2271  1.0004
27570TIP3    H283593   4.299   5.751   6.365  0.4450 -1.0662  1.0852
27571TIP3   OH283594  10.531   1.868   2.885  0.2438  0.1650 -0.1911
27571TIP3    H183595  10.454   1.827   2.924  0.4596 -1.3814 -1.2927
27571TIP3    H283596  10.501   1.955   2.858 -1.4597 -0.7949 -1.5929
27572TIP3   OH283597   7.031   6.494   3.544  0.2735  0.8353 -0.4522
27572TIP3    H183598   7.072   6.549   3.610  3.2926 -0.7380 -0.8275
27572TIP3    H283599   7.065   6.406   3.561 -2.3095 -0.4545 -1.4542
27573TIP3   OH283600   3.055   3.328   8.102 -0.2951 -0.1259  0.4427
27573TIP3    H183601   2.987   3.315   8.036  1.0825 -0.5023 -0.9379
27573TIP3    H283602   3.123   3.264   8.080  0.8986  0.8091  1.2820
27574TIP3   OH283603   6.517   9.990  10.814  0.1512  0.0432  0.1891
27574TIP3    H183604   6.563   9.997  10.899 -1.5011  0.6858  1.0694
27574TIP3    H283605   6.430  10.024  10.832 -1.0084 -2.0382 -1.2024
27575TIP3   OH283606  10.524   2.495   1.526 -0.6616  0.2054  0.8401
27575TIP3    H183607  10.582   2.419   1.530  0.5866  1.1654  2.2821
27575TIP3    H283608  10.446   2.463   1.481  0.8402 -1.2119 -0.9462
27576TIP3   OH283609   3.766   4.863   3.019 -0.7187  0.2259  0.1258
27576TIP3    H183610   3.813   4.780   3.011 -2.1922 -0.7871  1.5155
27576TIP3    H283611   3.791   4.897   3.105 -0.0165  1.3220 -0.4901
27577TIP3   OH283612   7.890   6.516   7.914 -0.8642  0.2519  1.0624
27577TIP3    H183613   7.974   6.486   7.951  0.4395  1.6566 -0.6158
27577TIP3    H283614   7.826   6.452   7.946  1.4898 -3.6173 -1.1782
27578TIP3   OH283615  10.552   4.657   6.951  0.0765 -0.6256 -0.2385
27578TIP3    H183616  10.510   4.571   6.945 -1.3389  0.0895 -1.2189
27578TIP3    H283617  10.565   4.684   6.860  1.1200 -0.0809  0.0604
27579TIP3   OH283618   5.409   3.708   7.485  0.1830 -0.4921 -0.1151
27579TIP3    H183619   5.473   3.748   7.426  0.6385  0.1296  0.7726
27579TIP3    H283620   5.443   3.726   7.573  0.1977 -2.5126  0.3367
27580TIP3   OH283621   3.133   7.502   5.758 -0.1377  0.4438  0.3124
27580TIP3    H183622   3.150   7.481   5.666 -1.4555  1.4610 -0.1910
27580TIP3    H283623   3.217   7.532   5.791 -0.0251  1.7841 -1.0676
27581TIP3   OH283624  10.665  10.733   1.231 -0.4807 -0.1291 -0.5383
27581TIP3    H183625  10.697  10.783   1.156 -0.2739  1.3433  0.4778
27581TIP3    H283626  10.574  10.712   1.209 -0.3152 -0.0239 -1.3458
27582TIP3   OH283627   6.523  10.221   5.114 -0.0144 -0.2044  0.2959
27582TIP3    H183628   6.580  10.163   5.165  0.1019 -0.0492  0.3420
27582TIP3    H283629   6.580  10.293   5.087 -0.3128  0.2283  0.7916
27583TIP3   OH283630   8.322   0.874   3.778 -0.1293  0.3708 -0.6852
27583TIP3    H183631   8.238   0.870   3.732 -0.3318  1.8829 -0.4946
27583TIP3    H283632   8.321   0.958   3.823  1.0749 -0.0271  0.1495
27584TIP3   OH283633   8.365   1.908   6.143 -0.2000 -0.2352 -0.0081
27584TIP3    H183634   8.435   1.846   6.162  0.4528  0.3681 -0.4065
27584TIP3    H283635   8.409   1.983   6.103 -1.0203  0.3367  0.1362
27585TIP3   OH283636  10.482   2.591   5.724  0.1766 -0.0547 -0.1737
27585TIP3    H183637  10.395   2.587   5.763  0.9549 -1.2585  1.5660
27585TIP3    H283638  10.528   2.659   5.774  0.3863  0.2617 -0.7842
27586TIP3   OH283639   6.848   3.997   0.261  0.0588 -0.4721  0.1471
27586TIP3    H183640   6.941   4.013   0.247  0.6381 -1.5226  2.3242
27586TIP3    H283641   6.824   3.933   0.195  1.5748 -2.1407  1.1097
27587TIP3   OH283642   6.177   3.570   4.783 -0.0431 -0.0682  0.1925
27587TIP3    H183643   6.200   3.486   4.824  0.3329  0.2902  0.7266
27587TIP3    H283644   6.156   3.547   4.692 -0.6377 -0.8370  0.5145
27588TIP3   OH283645   3.840   2.546   2.178  0.0341  0.2982 -0.3047
27588TIP3    H183646   3.874   2.575   2.093 -0.5876 -0.2053 -0.7317
27588TIP3    H283647   3.840   2.625   2.232 -0.6334  0.8732 -1.1199
27589TIP3   OH283648   7.046   1.339   4.928 -0.4110  0.2001  0.1588
27589TIP3    H183649   7.037   1.254   4.885 -0.0077  0.9101 -1.4154
27589TIP3    H283650   6.957   1.372   4.935 -0.4857  0.0758 -0.1725
27590TIP3   OH283651   2.178   8.754   8.133 -0.6271  0.1089  0.0042
27590TIP3    H183652   2.244   8.821   8.116  0.4269 -0.8640  0.2193
27590TIP3    H283653   2.220   8.672   8.109 -1.2790 -0.6743  1.4454
27591TIP3   OH283654   9.610  10.578   6.688  0.2579  0.2583 -0.4117
27591TIP3    H183655   9.665  10.499   6.684 -0.4718 -0.5430  2.6623
27591TIP3    H283656   9.527  10.551   6.648 -0.1910 -0.8161  1.1290
27592TIP3   OH283657   6.287   6.313   6.497 -0.8267  0.0928  0.0800
27592TIP3    H183658   6.364   6.306   6.440 -0.3344  0.1742  0.7285
27592TIP3    H283659   6.277   6.226   6.535 -1.9073 -0.3254 -1.0617
27593TIP3   OH283660   3.089  10.390   1.782 -0.1538 -0.1908  0.5268
27593TIP3    H183661   3.124  10.334   1.850 -1.3084 -0.7026  0.7277
27593TIP3    H283662   3.064  10.330   1.712 -1.0364  0.0863  0.5836
27594TIP3   OH283663   1.503   8.173   8.778  0.1761 -0.0681  0.3234
27594TIP3    H183664   1.461   8.119   8.711 -0.2548 -1.7746  1.8827
27594TIP3    H283665   1.504   8.118   8.856  2.4564  1.1095  1.2196
27595TIP3   OH283666   8.036   3.560   4.219  0.3330  0.0536  0.1876
27595TIP3    H183667   8.092   3.483   4.221 -0.7060 -0.7753 -0.9124
27595TIP3    H283668   8.090   3.631   4.254  1.2780 -1.1802  1.3032
27596TIP3   OH283669   8.356   8.413  10.341  0.4724  0.7694 -0.0237
27596TIP3    H183670   8.325   8.462  10.265 -2.4829  0.2691  0.7063
27596TIP3    H283671   8.375   8.481  10.406 -2.0016  1.1352  0.4286
27597TIP3   OH283672   9.956   5.215   8.968 -0.5468  0.0597 -0.6952
27597TIP3    H183673   9.944   5.192   9.060  0.5831 -1.3279 -0.8533
27597TIP3    H283674   9.882   5.271   8.946  0.7794  3.1679  1.9321
27598TIP3   OH283675   7.428  10.865  10.350  0.1461 -0.0781 -0.4421
27598TIP3    H183676   7.408  10.821  10.267  0.0955 -0.6044 -0.1569
27598TIP3    H283677   7.411  10.799  10.417  0.8564  0.1265 -0.0525
27599TIP3   OH283678   7.331   5.624   5.816 -0.5180 -0.0326 -0.3702
27599TIP3    H183679   7.277   5.657   5.888  0.9541  1.7895  0.0071
27599TIP3    H283680   7.359   5.703   5.770  2.4696 -0.7542 -0.0080
27600TIP3   OH283681   4.241   6.145   3.279 -0.9078  1.1963  0.0440
27600TIP3    H183682   4.225   6.228   3.324  0.5307  0.4595  2.0759
27600TIP3    H283683   4.205   6.078   3.339 -2.0156  0.3095 -1.5320
27601TIP3   OH283684   6.955   7.957   1.433 -0.1397 -0.2013 -0.7234
27601TIP3    H183685   6.995   7.870   1.429  0.3552  0.0566 -1.4781
27601TIP3    H283686   6.873   7.948   1.384 -0.2613 -0.3286 -0.5002
27602TIP3   OH283687   8.123   1.623  10.091  0.6918 -0.0891  0.3983
27602TIP3    H183688   8.168   1.539  10.101  1.4636  0.1924 -0.5596
27602TIP3    H283689   8.187   1.688  10.121 -0.0102  0.1524  1.4199
27603TIP3   OH283690   0.747   8.349   0.765  0.0741  0.0751  0.7496
27603TIP3    H183691   0.769   8.439   0.739 -0.3058  0.0030  0.1644
27603TIP3    H283692   0.799   8.294   0.706 -0.8617 -0.0926  0.0671
27604TIP3   OH283693   8.476   5.905   3.251 -0.2421 -0.5117  0.3701
27604TIP3    H183694   8.474   5.814   3.280 -0.9192 -0.4506  0.5332
27604TIP3    H283695   8.487   5.956   3.331 -0.4803 -0.4215  0.3458
27605TIP3   OH283696   6.936   8.870   4.563  0.4183  0.0446 -0.3735
27605TIP3    H183697   6.967   8.849   4.475 -1.5979  0.8426 -1.3452
27605TIP3    H283698   6.856   8.921   4.548 -2.2127 -3.0178  1.8932
27606TIP3   OH283699   0.114   4.536   7.430 -0.5906 -0.1051 -0.0095
27606TIP3    H183700   0.053   4.607   7.412 -1.0161  0.1603  2.2187
27606TIP3    H283701   0.059   4.466   7.466  0.0753 -0.9179 -0.5299
27607TIP3   OH283702   7.022   5.279   4.926 -0.0653 -0.3876 -0.1740
27607TIP3    H183703   6.985   5.364   4.903 -0.9293 -1.0100 -1.2213
27607TIP3    H283704   6.994   5.264   5.017 -0.7577  0.0237 -0.3094
27608TIP3   OH283705   5.731   6.051   6.554 -0.3587 -0.4461 -0.1050
27608TIP3    H183706   5.717   6.117   6.487  1.6133  1.3939  1.1607
27608TIP3    H283707   5.735   6.100   6.636 -0.6816 -2.3811  1.1545
27609TIP3   OH283708   2.153   4.848   8.448  0.5919  0.0305  0.3749
27609TIP3    H183709   2.112   4.934   8.452  0.7906  0.1315  0.2207
27609TIP3    H283710   2.222   4.852   8.515  1.2073  0.3103 -0.2595
27610TIP3   OH283711   2.666  10.723   0.677  0.1857 -0.6154 -0.1395
27610TIP3    H183712   2.686  10.706   0.585  0.3866 -1.5575  0.0666
27610TIP3    H283713   2.637  10.638   0.711 -1.9655  0.1560  0.1439
27611TIP3   OH283714   6.003   2.616   7.467 -0.1118 -0.0085  0.0136
27611TIP3    H183715   6.073   2.583   7.524 -0.4069 -1.5729 -0.4877
27611TIP3    H283716   6.048   2.670   7.403  0.3265  1.0766  1.1987
27612TIP3   OH283717   7.585   0.601   7.017  1.0261  0.2747  0.5334
27612TIP3    H183718   7.531   0.577   7.093  1.0809  0.7108  0.7133
27612TIP3    H283719   7.525   0.643   6.957  0.8369 -0.6987  0.0178
27613TIP3   OH283720   2.623   8.754   7.393 -0.4008 -0.6188 -0.2842
27613TIP3    H183721   2.590   8.686   7.452 -2.3781 -2.6895 -3.4780
27613TIP3    H283722   2.552   8.818   7.389 -0.4611 -0.7094 -0.7076
27614TIP3   OH283723   2.799   1.550   8.441 -0.0183  0.1501  0.6301
27614TIP3    H183724   2.737   1.526   8.509 -0.4306  0.6678  0.4343
27614TIP3    H283725   2.817   1.467   8.395 -1.1367  0.1175  0.2129
27615TIP3   OH283726   3.613   1.700   6.441 -0.9622  0.2156  0.3330
27615TIP3    H183727   3.656   1.726   6.522  1.2718 -0.3704 -0.5974
27615TIP3    H283728   3.634   1.770   6.379 -0.4715 -0.5557 -0.4006
27616TIP3   OH283729   4.497   4.154   0.144 -0.4571 -0.2507  0.2371
27616TIP3    H183730   4.422   4.145   0.085  0.3731  0.2118 -0.9357
27616TIP3    H283731   4.464   4.205   0.218 -1.8544 -1.9419  0.8197
27617TIP3   OH283732   7.257   4.051   3.781 -0.0473 -0.0024  0.1351
27617TIP3    H183733   7.261   3.959   3.808 -2.5770 -0.1663  0.1711
27617TIP3    H283734   7.337   4.064   3.729 -0.4885 -2.7740 -1.4461
27618TIP3   OH283735   3.063   7.068   6.097 -1.1172 -0.2673  0.3719
27618TIP3    H183736   3.030   6.978   6.089 -0.4877 -0.5523  0.8419
27618TIP3    H283737   3.152   7.063   6.061  0.2717 -0.6732  3.5026
27619TIP3   OH283738   1.941  10.899   2.367 -0.4424  0.3373 -0.8087
27619TIP3    H183739   2.012  10.842   2.337 -0.7495 -0.9589  0.7538
27619TIP3    H283740   1.909  10.942   2.288  0.5922 -0.7790 -1.8735
27620TIP3   OH283741   2.134   3.324   3.151 -0.1956 -0.3049  0.0857
27620TIP3    H183742   2.124   3.418   3.164  0.9487 -0.2517  0.7921
27620TIP3    H283743   2.157   3.314   3.059 -0.7538  0.0711 -0.0925
27621TIP3   OH283744  10.703   7.350   2.567  0.0365  0.3076 -0.3520
27621TIP3    H183745  10.693   7.441   2.596  0.2157  0.2358 -0.0692
27621TIP3    H283746  10.614   7.314   2.573  0.3763 -0.3013  2.0731
27622TIP3   OH283747   0.321   7.792   7.129 -0.0082 -0.0167 -0.3470
27622TIP3    H183748   0.416   7.803   7.134  0.1429 -0.7073 -1.3880
27622TIP3    H283749   0.296   7.837   7.049 -0.2849 -1.3965 -1.0706
27623TIP3   OH283750   7.240   0.502   1.618 -0.5779 -0.1693  0.1536
27623TIP3    H183751   7.281   0.548   1.692 -0.3818 -0.7487  0.4144
27623TIP3    H283752   7.314   0.471   1.566 -0.7202  1.0029 -0.7831
27624TIP3   OH283753   6.159   8.785   6.368  0.3381  0.2827  0.2077
27624TIP3    H183754   6.165   8.878   6.392  0.5088  1.0860 -2.5923
27624TIP3    H283755   6.249   8.760   6.345  0.6144 -1.1295  2.5288
27625TIP3   OH283756   1.649   4.361   4.161  0.2225  0.1004  0.2453
27625TIP3    H183757   1.597   4.334   4.087  0.2928  0.2844  0.1266
27625TIP3    H283758   1.718   4.295   4.169 -0.3832 -0.4815  0.7833
27626TIP3   OH283759   3.887  10.493   4.187 -0.5184  0.0479  0.6013
27626TIP3    H183760   3.874  10.577   4.230  0.6575 -0.0520  1.1691
27626TIP3    H283761   3.974  10.465   4.213 -1.0494 -1.5577  0.7871
27627TIP3   OH283762   5.966   3.658   4.941 -0.2690 -0.2920  0.6557
27627TIP3    H183763   6.023   3.677   4.866 -2.5861  1.0650 -0.9025
27627TIP3    H283764   5.894   3.606   4.904 -1.5903  0.6042  1.8387
27628TIP3   OH283765   5.348   0.369   3.649 -0.3636 -0.4371 -0.6159
27628TIP3    H183766   5.278   0.427   3.679  0.7081  1.3068 -1.3355
27628TIP3    H283767   5.423   0.393   3.704  0.4966 -0.0885 -1.9040
27629TIP3   OH283768   9.263   0.175   0.033 -0.7248  0.0256  0.2168
27629TIP3    H183769   9.257   0.248  -0.028  1.8328 -0.3323 -0.5579
27629TIP3    H283770   9.320   0.112  -0.009 -0.2866 -1.0230  2.2387
27630TIP3   OH283771   7.903   4.383   7.129 -0.0363 -0.3919  0.2601
27630TIP3    H183772   7.940   4.304   7.168 -0.0006 -0.3058  0.4028
27630TIP3    H283773   7.817   4.356   7.097 -0.6041 -0.1777  1.5134
27631TIP3   OH283774   0.343   9.875   9.222  0.4195 -0.5643  0.2370
27631TIP3    H183775   0.300   9.956   9.248  1.1718 -0.2458  0.5198
27631TIP3    H283776   0.285   9.835   9.158  0.2432  0.4010 -0.2059
27632TIP3   OH283777   8.975   9.940  10.554  0.6360  0.5874  0.4413
27632TIP3    H183778   9.017   9.935  10.469  1.9872 -0.2772  1.1267
27632TIP3    H283779   8.974  10.033  10.576 -1.1813  1.0135 -1.1817
27633TIP3   OH283780   0.943   2.547   2.981  0.7095  0.3627  0.2301
27633TIP3    H183781   0.883   2.552   2.907  0.3599  0.0916  0.4827
27633TIP3    H283782   0.887   2.563   3.058  1.2054  1.3938  0.3841
27634TIP3   OH283783   9.351   5.044  10.318 -0.1160 -0.1173  0.2840
27634TIP3    H183784   9.298   5.120  10.343  0.3336  1.2112 -2.3926
27634TIP3    H283785   9.425   5.082  10.270  0.1447 -2.2338 -1.1013
27635TIP3   OH283786   8.017   1.022   3.079  0.0048 -0.1349  0.7759
27635TIP3    H183787   8.089   1.015   3.017 -1.2345  1.4243 -0.9558
27635TIP3    H283788   8.054   1.068   3.154  1.4551 -1.7759  1.1237
27636TIP3   OH283789   6.842  10.317   4.750 -0.5027  0.3117 -0.2821
27636TIP3    H183790   6.910  10.287   4.810 -2.7063 -0.8000  1.8357
27636TIP3    H283791   6.855  10.265   4.671  1.4932  0.6365 -0.2153
27637TIP3   OH283792   9.192   5.284   7.538 -0.3628 -0.3872  0.2514
27637TIP3    H183793   9.196   5.372   7.573 -1.4113 -0.2085 -0.0578
27637TIP3    H283794   9.284   5.260   7.523 -0.0730  0.6672  0.2785
27638TIP3   OH283795   2.609   5.117   5.194  0.1590  0.2035 -0.1429
27638TIP3    H183796   2.551   5.042   5.182  2.0637 -1.3970  0.1517
27638TIP3    H283797   2.561   5.175   5.254 -1.3110 -0.8012 -0.2852
27639TIP3   OH283798  10.492   6.290   3.403  0.1018  0.1253 -0.1454
27639TIP3    H183799  10.583   6.308   3.378 -0.2303  1.8226 -0.2488
27639TIP3    H283800  10.441   6.321   3.328 -0.6835  1.5756  0.9383
27640TIP3   OH283801   2.864   8.051   1.598 -0.4879 -0.4957  0.7478
27640TIP3    H183802   2.889   8.143   1.600 -0.2654 -0.4344 -1.8242
27640TIP3    H283803   2.912   8.012   1.671 -1.5326  1.5832  2.6766
27641TIP3   OH283804   6.201   5.187   6.102 -0.2455 -0.0822 -0.4883
27641TIP3    H183805   6.157   5.225   6.026  0.2570  0.5757 -0.4582
27641TIP3    H283806   6.279   5.241   6.115  2.4293 -3.0952 -2.5181
27642TIP3   OH283807   2.627   3.659   1.169 -0.4902 -0.7983  0.1898
27642TIP3    H183808   2.649   3.752   1.178 -2.5715 -0.4334  2.8134
27642TIP3    H283809   2.671   3.617   1.243 -0.7680 -1.6699 -0.1295
27643TIP3   OH283810   7.433   3.225   1.470 -0.1026 -0.6471  0.4885
27643TIP3    H183811   7.474   3.299   1.424 -1.6143 -0.1416 -0.0994
27643TIP3    H283812   7.381   3.265   1.540 -1.5289 -1.0544 -0.2939
27644TIP3   OH283813   3.094   6.481   0.690 -0.2116 -0.0218 -0.1011
27644TIP3    H183814   3.117   6.388   0.699 -3.3123 -0.8644  0.1783
27644TIP3    H283815   3.107   6.500   0.597  1.3275 -0.4255 -0.0007
27645TIP3   OH283816   9.482   7.855   0.703  0.1990  0.3601 -0.6983
27645TIP3    H183817   9.436   7.939   0.709 -0.9479 -0.3469  1.3979
27645TIP3    H283818   9.414   7.789   0.716  1.1139 -0.9329 -2.1016
27646TIP3   OH283819   9.002   8.577   0.433 -0.1671 -0.2492 -0.0707
27646TIP3    H183820   9.024   8.484   0.428  0.4279 -0.1593  0.6324
27646TIP3    H283821   9.038   8.615   0.352  2.4478 -0.0980  1.0551
27647TIP3   OH283822   0.667   8.208  10.447  0.7916 -0.1881 -0.1173
27647TIP3    H183823   0.635   8.204  10.357 -1.9614 -0.6068  0.8057
27647TIP3    H283824   0.593   8.243  10.497  2.7432  1.4614  1.8070
27648TIP3   OH283825   6.149   2.901   9.322  0.3344  0.8336  0.2295
27648TIP3    H183826   6.161   2.847   9.400  2.3417  0.6130 -0.1763
27648TIP3    H283827   6.182   2.847   9.250 -2.4968  0.5860 -0.9940
27649TIP3   OH283828   1.787   0.080   3.851  0.3621  0.1303  0.3928
27649TIP3    H183829   1.730   0.008   3.824 -0.3907  0.5275  0.9061
27649TIP3    H283830   1.768   0.092   3.944  1.1967  0.3547  0.5425
27650TIP3   OH283831   7.103  10.312   7.796 -0.2148  0.0068  0.0562
27650TIP3    H183832   7.032  10.264   7.754  0.2607 -0.7016  0.0504
27650TIP3    H283833   7.160  10.245   7.832 -1.1312  0.5822  2.7713
27651TIP3   OH283834  10.725   4.952   7.809  0.4694  0.2729 -0.5735
27651TIP3    H183835  10.713   5.004   7.730 -0.5507  1.5384  0.3622
27651TIP3    H283836  10.686   5.005   7.879  0.9383 -0.9967  0.7123
27652TIP3   OH283837   4.357   1.289   5.431 -0.3543 -0.4059 -0.1019
27652TIP3    H183838   4.435   1.239   5.458  0.9391  2.0970  1.1471
27652TIP3    H283839   4.389   1.349   5.364 -0.8334  1.5456  1.3227
27653TIP3   OH283840  10.731   9.797   1.638 -0.2892  1.2458 -0.3321
27653TIP3    H183841  10.789   9.802   1.562  0.8681  0.5460  0.4803
27653TIP3    H283842  10.721   9.887   1.667  0.4225  1.3678 -0.4572
27654TIP3   OH283843   2.520   9.161   0.790  0.4013 -0.5055  0.1779
27654TIP3    H183844   2.488   9.102   0.721  1.0248 -1.4765  0.6849
27654TIP3    H283845   2.576   9.223   0.744 -0.7077  0.0611 -0.4499
27655TIP3   OH283846   7.190   0.018   2.172  0.8332 -0.0092 -0.0659
27655TIP3    H183847   7.258   0.050   2.112  1.3268 -1.0515 -0.0799
27655TIP3    H283848   7.111   0.062   2.142  1.7862  2.7375  1.1467
27656TIP3   OH283849   6.706   2.633   1.878  0.1851 -0.2925 -0.8707
27656TIP3    H183850   6.635   2.569   1.876 -0.2770  0.2058 -0.4584
27656TIP3    H283851   6.678   2.702   1.818 -0.7693  1.0256  0.9750
27657TIP3   OH283852   6.547   0.367   9.703 -0.2068 -0.4394 -0.0269
27657TIP3    H183853   6.542   0.335   9.612  1.6351 -3.4810  0.7940
27657TIP3    H283854   6.608   0.440   9.700 -0.9288  0.1346 -1.3695
27658TIP3   OH283855   3.889   6.348   7.191 -0.2911 -0.0023  0.0842
27658TIP3    H183856   3.913   6.435   7.223 -0.0917  0.8356 -2.1632
27658TIP3    H283857   3.795   6.341   7.208 -0.2645  0.5366  0.4874
27659TIP3   OH283858   1.062   9.833   0.278 -0.2413 -0.3288 -0.0152
27659TIP3    H183859   1.062   9.748   0.321 -0.8891  0.0167  0.6859
27659TIP3    H283860   1.131   9.882   0.322 -1.6890  0.4329  1.5027
27660TIP3   OH283861   9.479   3.465  10.323  0.1268 -0.0352  0.2573
27660TIP3    H183862   9.402   3.414  10.298  0.6124  0.0222 -1.5141
27660TIP3    H283863   9.528   3.408  10.381  0.0610 -1.1483 -0.7317
27661TIP3   OH283864   7.764   8.273   5.838 -0.0324  0.0846  0.1143
27661TIP3    H183865   7.730   8.344   5.783 -0.2701  0.4383  0.7105
27661TIP3    H283866   7.830   8.231   5.783 -0.5548  0.1693 -0.5989
27662TIP3   OH283867   2.548   9.703  10.411  0.0159 -0.4790 -0.8478
27662TIP3    H183868   2.465   9.750  10.427  0.7118  0.2451  0.9091
27662TIP3    H283869   2.549   9.633  10.476  1.1458  0.0302 -0.2960
27663TIP3   OH283870   6.553   3.461   0.122  0.7141  0.2937 -0.4744
27663TIP3    H183871   6.586   3.409   0.195  1.0620  1.7311  0.4413
27663TIP3    H283872   6.535   3.397   0.053 -0.2902 -1.1969  1.0828
27664TIP3   OH283873  10.140   4.743   1.259  0.0562  0.3583 -0.3256
27664TIP3    H183874  10.165   4.652   1.272  0.3637 -0.1941 -3.9638
27664TIP3    H283875  10.073   4.741   1.192 -0.9461  2.7700  0.4925
27665TIP3   OH283876   1.129   5.482   5.864 -0.2716  0.4422 -0.3599
27665TIP3    H183877   1.213   5.509   5.900  0.7536 -0.8681 -1.6645
27665TIP3    H283878   1.095   5.418   5.927 -0.8196  1.7084  0.6838
27666TIP3   OH283879   5.230   3.292   0.328  0.4070 -0.6929 -0.7082
27666TIP3    H183880   5.304   3.349   0.348 -0.0523 -0.4343  0.2873
27666TIP3    H283881   5.227   3.290   0.232  0.2407  1.1998 -0.7754
27667TIP3   OH283882   6.698   0.949   8.759 -0.3897 -0.2507 -0.6447
27667TIP3    H183883   6.751   0.987   8.689 -0.1075  1.6234  0.5246
27667TIP3    H283884   6.625   1.010   8.768  0.8864  1.0007  2.3491
27668TIP3   OH283885   8.911  10.204   1.093  0.4633  0.5238 -0.0242
27668TIP3    H183886   8.907  10.222   0.999 -0.5954  1.1245  0.1221
27668TIP3    H283887   8.925  10.109   1.099 -0.5449  0.3138 -0.7965
27669TIP3   OH283888   9.222   8.733   4.223  0.1303  0.0203 -0.2794
27669TIP3    H183889   9.193   8.791   4.152 -0.7343 -0.1489 -0.0698
27669TIP3    H283890   9.259   8.657   4.178  1.3875  0.7605 -0.5620
27670TIP3   OH283891   8.079   1.229   8.794 -0.5544  0.1877  0.0743
27670TIP3    H183892   8.090   1.188   8.880  0.9094  0.9939  0.3002
27670TIP3    H283893   8.013   1.297   8.808  0.2931  0.8898  0.7875
27671TIP3   OH283894   0.613   2.006   8.013 -0.0788  0.6309 -0.1477
27671TIP3    H183895   0.696   2.013   8.060 -0.3394  0.2425  0.3810
27671TIP3    H283896   0.565   1.936   8.059 -0.3357  0.2424 -0.9918
27672TIP3   OH283897   7.755   3.296   0.765 -0.4248  0.1094 -0.1859
27672TIP3    H183898   7.743   3.303   0.860 -1.9978  0.1529 -0.3566
27672TIP3    H283899   7.835   3.346   0.747  1.0728 -1.5874  1.3432
27673TIP3   OH283900   7.678   7.566   9.434  0.1223 -0.3296  0.6130
27673TIP3    H183901   7.659   7.532   9.346 -0.6224 -0.7833  0.9363
27673TIP3    H283902   7.768   7.597   9.429  0.3199 -0.9902 -0.1177
27674TIP3   OH283903   8.686   3.320   7.414 -0.3896  0.1214 -0.7909
27674TIP3    H183904   8.744   3.367   7.474 -1.8377  1.3082 -0.2591
27674TIP3    H283905   8.598   3.337   7.448 -1.1343 -0.5683 -2.3073
27675TIP3   OH283906   4.489   8.135   0.015  0.1000  0.0213  0.0490
27675TIP3    H183907   4.489   8.044   0.045  0.2053 -0.2152 -0.6345
27675TIP3    H283908   4.422   8.178   0.067  1.8825  0.2282  2.3310
27676TIP3   OH283909   6.070   1.137   0.487 -0.4692 -0.4273 -0.1499
27676TIP3    H183910   6.000   1.083   0.449  0.8273 -1.5550 -1.0173
27676TIP3    H283911   6.041   1.153   0.577 -1.3213 -1.8198 -0.1428
27677TIP3   OH283912  10.670   9.821   0.920  0.0580  0.4258 -0.0295
27677TIP3    H183913  10.676   9.877   0.842 -1.0860 -0.1241 -0.5294
27677TIP3    H283914  10.611   9.750   0.894 -2.0263  1.3263  1.9865
27678TIP3   OH283915   9.307   2.776   6.559  0.3139 -0.6558 -0.7981
27678TIP3    H183916   9.378   2.724   6.594  0.5338 -1.0946 -1.8613
27678TIP3    H283917   9.350   2.850   6.515  0.1465 -1.1230 -1.7686
27679TIP3   OH283918   8.439   6.096   6.084 -0.6217  0.4685 -0.0577
27679TIP3    H183919   8.484   6.012   6.082 -2.1612 -0.4252  0.5700
27679TIP3    H283920   8.508   6.162   6.082  0.6338 -0.8234  0.0335
27680TIP3   OH283921   7.605   3.912   9.166 -0.0655  0.2892 -0.2874
27680TIP3    H183922   7.664   3.911   9.242 -0.3115  0.6237 -0.0852
27680TIP3    H283923   7.662   3.895   9.091  0.1807 -0.0498 -0.0259
27681TIP3   OH283924   0.726   9.003   3.183 -0.1315  0.1434 -0.0845
27681TIP3    H183925   0.720   8.909   3.200  1.4834  0.0410  0.1292
27681TIP3    H283926   0.659   9.042   3.239 -0.2269 -0.8221  0.4927
27682TIP3   OH283927   9.106   2.524   4.280  0.1263  0.4291 -0.2800
27682TIP3    H183928   9.145   2.489   4.360 -0.5054 -0.9332 -0.5434
27682TIP3    H283929   9.089   2.447   4.226 -1.0228  1.1728 -1.0141
27683TIP3   OH283930   7.439   8.433  10.781 -1.0462 -0.5857  0.4293
27683TIP3    H183931   7.503   8.501  10.760 -0.4591 -0.9511  0.9665
27683TIP3    H283932   7.362   8.480  10.810  0.4739 -0.0027  4.2525
27684TIP3   OH283933   6.300   7.812   4.650 -0.7695  0.0885 -0.3779
27684TIP3    H183934   6.273   7.838   4.562  0.2811 -1.8454 -1.3275
27684TIP3    H283935   6.218   7.788   4.694 -1.4406  2.1946 -0.3744
27685TIP3   OH283936   6.823   8.503   9.621 -0.3909 -0.5952 -0.1622
27685TIP3    H183937   6.816   8.422   9.571 -2.5914 -0.4385 -0.1758
27685TIP3    H283938   6.782   8.483   9.705 -0.0583  0.2303  0.2032
27686TIP3   OH283939   7.648   2.041  10.430  0.1001  0.0125  0.2577
27686TIP3    H183940   7.587   2.008  10.496 -0.5644  0.7764  0.0588
27686TIP3    H283941   7.593   2.053  10.352 -0.3233  3.7380  0.9405
27687TIP3   OH283942   7.389   1.592   1.899  0.6055  0.1259  0.3221
27687TIP3    H183943   7.461   1.594   1.962  0.9923  1.3996 -0.1231
27687TIP3    H283944   7.403   1.670   1.846  1.6925 -2.1041 -2.9396
27688TIP3   OH283945   6.769   2.656   6.841 -0.0456  0.5075  0.2345
27688TIP3    H183946   6.864   2.660   6.827  0.1878  0.0045  1.4881
27688TIP3    H283947   6.752   2.564   6.863 -0.7645  0.6719  0.3795
27689TIP3   OH283948   1.521   2.873   1.716  0.0624 -0.3273  0.1902
27689TIP3    H183949   1.492   2.794   1.670 -1.7324  0.7991 -0.7448
27689TIP3    H283950   1.440   2.918   1.740  0.9829  0.1478  2.7302
27690TIP3   OH283951  10.419   0.590   6.589  0.6739  0.3469 -0.5177
27690TIP3    H183952  10.352   0.640   6.544  1.5689  2.1736  0.1067
27690TIP3    H283953  10.398   0.498   6.569 -0.5131  0.9779 -2.3805
27691TIP3   OH283954   2.332   7.387   1.257 -0.2667 -0.3054  0.6423
27691TIP3    H183955   2.361   7.422   1.341 -1.0831  1.4842  0.2130
27691TIP3    H283956   2.350   7.457   1.194  0.3918 -1.6327 -0.7141
27692TIP3   OH283957   5.347   2.405   7.332  0.3912  0.0725  0.1458
27692TIP3    H183958   5.322   2.493   7.304  2.1477  0.9387  1.1052
27692TIP3    H283959   5.276   2.376   7.389  0.7189  1.7356  1.4714
27693TIP3   OH283960   8.177   3.930   6.583 -0.0826  0.5400  0.6275
27693TIP3    H183961   8.124   3.858   6.550  1.2269  0.0006 -0.4216
27693TIP3    H283962   8.240   3.890   6.643  1.7663  0.4436 -1.2388
27694TIP3   OH283963   0.372   3.202   8.332 -0.1212 -0.4639 -0.0457
27694TIP3    H183964   0.291   3.185   8.283 -0.3050  0.6746 -0.1758
27694TIP3    H283965   0.426   3.254   8.272 -0.0760  0.3944  0.7142
27695TIP3   OH283966  10.892   6.581   0.303  0.2470 -0.3158 -0.1913
27695TIP3    H183967  10.959   6.619   0.246  1.3406 -0.3827  0.9908
27695TIP3    H283968  10.923   6.599   0.392 -2.1606  1.0937  0.4357
27696TIP3   OH283969   3.864   7.796   4.683 -0.2365  0.4893  0.3583
27696TIP3    H183970   3.911   7.878   4.698 -0.7443  0.6598  1.0619
27696TIP3    H283971   3.933   7.729   4.678  0.4020  1.2268 -2.6219
27697TIP3   OH283972   6.714   1.799  10.531  0.2187 -0.3263 -0.2227
27697TIP3    H183973   6.746   1.723  10.580  1.0629 -0.4859 -0.9855
27697TIP3    H283974   6.622   1.807  10.556  0.3931 -0.9541  0.6708
27698TIP3   OH283975   6.993   5.237   4.061 -0.3379  0.7194 -0.1892
27698TIP3    H183976   6.929   5.242   3.989  0.5191 -0.1578 -1.0504
27698TIP3    H283977   7.059   5.302   4.039 -0.6534  1.2615  0.4309
27699TIP3   OH283978  10.181   5.370   6.655  0.3544 -0.2954 -0.1634
27699TIP3    H183979  10.187   5.404   6.565  0.6483 -0.2504 -0.1280
27699TIP3    H283980  10.251   5.416   6.702 -0.5284  0.5434  0.3669
27700TIP3   OH283981   8.997   8.794   1.191 -0.0930 -0.0788 -0.0030
27700TIP3    H183982   9.080   8.786   1.236 -0.5410 -2.2484  0.5461
27700TIP3    H283983   9.000   8.880   1.149  1.2288  1.1002  2.3269
27701TIP3   OH283984   0.581   9.850   7.037  0.2763 -0.3477 -0.1144
27701TIP3    H183985   0.596   9.940   7.065 -0.4058 -0.2632 -0.0099
27701TIP3    H283986   0.497   9.826   7.076  0.7639 -1.2668  0.4327
27702TIP3   OH283987   9.998   1.905   3.658 -0.3507  0.0420 -0.1162
27702TIP3    H183988  10.026   1.822   3.619 -1.8648  0.0377 -1.2981
27702TIP3    H283989   9.920   1.883   3.710 -0.6946  0.6888 -0.3394
27703TIP3   OH283990   0.587   6.941   1.022  0.4986 -0.3139  0.5981
27703TIP3    H183991   0.505   6.983   1.047 -0.0839 -1.0875  0.0331
27703TIP3    H283992   0.562   6.879   0.954  1.7057  0.1530 -0.3019
27704TIP3   OH283993   4.912   5.320   6.499 -0.0855  0.0369  0.1290
27704TIP3    H183994   4.860   5.259   6.447 -0.6460  0.1245  0.5654
27704TIP3    H283995   4.973   5.360   6.437  0.3787 -1.0573 -0.1337
27705TIP3   OH283996   6.606   0.307   6.845 -0.3104 -1.1440  0.1665
27705TIP3    H183997   6.524   0.344   6.812  0.2795 -0.9784 -1.2126
27705TIP3    H283998   6.592   0.212   6.843 -0.1553 -1.1655 -1.0489
27706TIP3   OH283999   5.636  10.416   9.808  0.4572  0.1262 -0.1868
27706TIP3    H184000   5.557  10.441   9.855 -0.0108 -0.3765 -0.6932
27706TIP3    H284001   5.674  10.345   9.861 -0.2358 -0.6536 -0.7141
27707TIP3   OH284002   9.187   5.638   4.526 -0.1734  0.4131  0.3860
27707TIP3    H184003   9.258   5.582   4.558 -0.5227 -0.5414 -0.4517
27707TIP3    H284004   9.109   5.606   4.572 -0.2461  0.7468  0.4968
27708TIP3   OH284005  10.493   0.420   5.979 -0.0137  0.4848 -0.1389
27708TIP3    H184006  10.572   0.393   5.932  0.1353 -0.0168  0.3863
27708TIP3    H284007  10.524   0.438   6.068 -0.3444  1.1232 -0.1502
27709TIP3   OH284008   2.563   7.354   5.690  0.0831  0.1520 -0.0810
27709TIP3    H184009   2.576   7.261   5.708  3.1893  0.0768 -1.8823
27709TIP3    H284010   2.647   7.395   5.713 -0.2787  2.0435 -1.7546
27710TIP3   OH284011   0.295   9.359   4.798 -0.3929 -0.3512 -0.2171
27710TIP3    H184012   0.343   9.325   4.722  1.2770  0.3826  0.4688
27710TIP3    H284013   0.204   9.360   4.769  0.2223  0.3153 -2.3816
27711TIP3   OH284014   7.217   6.242   6.435  0.3805 -0.1652 -0.2737
27711TIP3    H184015   7.246   6.152   6.448 -1.4414 -1.3763 -3.5423
27711TIP3    H284016   7.122   6.236   6.426 -0.1194  2.5075  1.7971
27712TIP3   OH284017   4.136  10.888  10.463 -0.1253  0.2884  0.0405
27712TIP3    H184018   4.150  10.874  10.556 -0.0145  0.2307  0.0141
27712TIP3    H284019   4.075  10.962  10.459 -0.2136  0.2225  0.1609
27713TIP3   OH284020   8.047   4.034   0.283  0.2545 -0.2423  0.3694
27713TIP3    H184021   8.027   3.947   0.250  3.2246 -0.4930 -1.1437
27713TIP3    H284022   8.122   4.022   0.341  0.5241  1.2523  0.3850
27714TIP3   OH284023   7.427   7.122   6.487 -1.0721 -0.3382  0.2319
27714TIP3    H184024   7.333   7.141   6.480 -0.9669 -0.0699 -0.5950
27714TIP3    H284025   7.451   7.150   6.575 -1.8288 -0.6795  0.5500
27715TIP3   OH284026   2.154   1.952   4.784  0.6623  0.0566  0.3209
27715TIP3    H184027   2.135   1.934   4.876 -0.6222 -0.3227  0.0061
27715TIP3    H284028   2.124   2.042   4.770  1.0683  0.1930  0.3313
27716TIP3   OH284029   1.151   1.691   8.823  0.1194  0.3186 -0.3155
27716TIP3    H184030   1.099   1.766   8.853  1.2940  0.3706  1.8334
27716TIP3    H284031   1.120   1.618   8.876  0.1522 -0.3508 -1.1934
27717TIP3   OH284032   2.353   3.840   2.807 -0.1224 -0.3010 -0.1028
27717TIP3    H184033   2.413   3.772   2.775  1.8325  0.6478  1.3601
27717TIP3    H284034   2.388   3.865   2.892 -2.7547  0.1878  0.9563
27718TIP3   OH284035   0.535   7.293   1.134  0.2675 -0.3253  0.0199
27718TIP3    H184036   0.485   7.235   1.077 -0.9867  0.8183 -0.1156
27718TIP3    H284037   0.544   7.245   1.216  0.3509 -1.2001 -0.4993
27719TIP3   OH284038   9.534   6.008   2.746  0.2497  0.0084 -0.1998
27719TIP3    H184039   9.460   5.997   2.806  1.4901 -0.3020  1.3514
27719TIP3    H284040   9.540   5.924   2.700  1.8184 -1.4164  2.3439
27720TIP3   OH284041   9.683   9.069   2.283 -0.2921  0.5024  0.1865
27720TIP3    H184042   9.666   8.977   2.301  0.3690 -0.0138 -1.6690
27720TIP3    H284043   9.778   9.077   2.285 -0.3483  1.2187  0.5648
27721TIP3   OH284044   7.811   4.653   1.620  0.3645  0.3895  0.3072
27721TIP3    H184045   7.789   4.687   1.707 -0.2000  0.9789 -0.0600
27721TIP3    H284046   7.767   4.712   1.559 -2.2568 -2.0355 -0.3504
27722TIP3   OH284047   7.324   7.495   5.208  0.0828  0.8213 -0.1069
27722TIP3    H184048   7.229   7.494   5.201  0.0644 -0.4944  0.1347
27722TIP3    H284049   7.354   7.527   5.122 -0.5553  0.4773 -0.4620
27723TIP3   OH284050   7.525   0.083   5.030 -0.1121  0.0511 -0.7188
27723TIP3    H184051   7.615   0.053   5.045  0.3196  2.0964  1.4448
27723TIP3    H284052   7.471   0.005   5.043  1.3096 -1.3695 -2.6919
27724TIP3   OH284053   4.382   9.755   8.693  0.2223  0.6256 -0.1229
27724TIP3    H184054   4.411   9.745   8.602  0.6227 -0.1709  0.0813
27724TIP3    H284055   4.410   9.674   8.736 -2.2441 -0.1705  0.1207
27725TIP3   OH284056   4.210   5.814   8.855  0.2906  0.2073 -0.2065
27725TIP3    H184057   4.147   5.788   8.788  0.8516  0.6753 -0.9142
27725TIP3    H284058   4.159   5.814   8.936 -0.4888  0.0451 -0.6880
27726TIP3   OH284059   4.940   4.066   7.557 -0.3944 -0.2924 -0.0438
27726TIP3    H184060   4.900   3.986   7.591 -1.8983  0.3462 -0.2275
27726TIP3    H284061   4.868   4.113   7.516  1.0082 -0.2538 -2.7011
27727TIP3   OH284062   7.785   7.668   1.216  0.1563 -0.0921  0.1513
27727TIP3    H184063   7.757   7.759   1.204  0.5116 -0.0413 -0.3066
27727TIP3    H284064   7.738   7.639   1.295  1.4716  1.0681  1.4089
27728TIP3   OH284065   0.764   0.335   1.543 -0.0665 -0.4197 -0.3868
27728TIP3    H184066   0.809   0.251   1.535  1.1297  0.0160  1.2931
27728TIP3    H284067   0.795   0.386   1.467  0.8632 -0.7720 -0.2576
27729TIP3   OH284068   6.079   4.424   3.890 -0.0732  0.3118 -0.2390
27729TIP3    H184069   6.133   4.483   3.837 -0.4680 -0.5440 -1.6578
27729TIP3    H284070   6.140   4.381   3.948  0.4765  0.8265 -0.4265
27730TIP3   OH284071   0.629   1.362   9.140 -0.3428 -0.2118 -0.0665
27730TIP3    H184072   0.687   1.309   9.194 -2.2374 -3.3235 -0.8096
27730TIP3    H284073   0.684   1.391   9.067  0.9780 -0.4173  0.8160
27731TIP3   OH284074   5.481   9.130   6.715  0.1290 -0.4114 -0.6743
27731TIP3    H184075   5.503   9.173   6.797 -1.6961 -0.8200  0.0665
27731TIP3    H284076   5.428   9.193   6.667  0.2082 -0.6160 -1.0386
27732TIP3   OH284077   9.701   9.680   0.043 -0.0268 -0.1098  0.0512
27732TIP3    H184078   9.770   9.746   0.043 -0.7708  0.6952  0.7784
27732TIP3    H284079   9.624   9.726   0.076 -1.3281 -0.5527 -2.1729
27733TIP3   OH284080   0.607   8.475   9.041  0.0495  0.0241  0.1646
27733TIP3    H184081   0.687   8.527   9.034 -0.3094  0.5644  0.0544
27733TIP3    H284082   0.605   8.446   9.132 -0.1862  0.9225  0.4566
27734TIP3   OH284083   7.381   7.422   6.563 -0.5918 -0.3040 -0.0919
27734TIP3    H184084   7.454   7.366   6.588 -0.8815 -0.2272  0.9513
27734TIP3    H284085   7.422   7.498   6.523 -0.1629 -0.8563 -0.7206
27735TIP3   OH284086   7.465   1.678  10.177  0.4213 -0.2956  0.2467
27735TIP3    H184087   7.371   1.664  10.188  0.5902 -0.4500  1.7588
27735TIP3    H284088   7.500   1.676  10.266  1.8645 -0.2500 -0.2895
27736TIP3   OH284089  10.887   1.288   9.281 -0.3670  0.1270 -0.1016
27736TIP3    H184090  10.971   1.241   9.273 -0.5765 -0.5065  1.1079
27736TIP3    H284091  10.848   1.282   9.194  0.3609 -0.5208 -0.4004
27737TIP3   OH284092   1.629   1.541   0.254  0.0513 -0.2021 -0.6256
27737TIP3    H184093   1.542   1.578   0.239 -0.4564 -1.8857 -2.2630
27737TIP3    H284094   1.619   1.483   0.329 -0.0036  0.2756 -0.2598
27738TIP3   OH284095   6.193   2.065   4.464  0.1261 -0.6890 -0.2580
27738TIP3    H184096   6.174   2.033   4.552  1.4647  0.2484  0.3977
27738TIP3    H284097   6.187   2.160   4.471  0.9291 -0.5671 -0.9967
27739TIP3   OH284098  10.217   4.969   7.319 -0.2735 -0.3407 -0.0363
27739TIP3    H184099  10.253   4.943   7.234 -1.0098  0.9255 -0.7706
27739TIP3    H284100  10.128   4.935   7.319 -0.5022  0.2443 -0.0692
27740TIP3   OH284101   6.818   5.297   3.867  0.4260  0.5908 -0.2533
27740TIP3    H184102   6.854   5.374   3.824  0.6194  0.6451  0.0048
27740TIP3    H284103   6.726   5.295   3.840  0.2999  1.1703  0.1061
27741TIP3   OH284104   8.772   9.416   0.908 -0.5963 -0.2270  0.0997
27741TIP3    H184105   8.691   9.432   0.956 -0.3736  1.9292 -0.1125
27741TIP3    H284106   8.751   9.345   0.848 -1.7332 -1.0145  1.3833
27742TIP3   OH284107   8.628   1.158  10.193 -0.2113 -0.0237 -0.6988
27742TIP3    H184108   8.612   1.250  10.214  0.9252  0.1196 -0.3965
27742TIP3    H284109   8.541   1.119  10.191 -0.8416  1.3318 -2.1924
27743TIP3   OH284110   4.275   4.746   9.247 -0.1829  0.1551  0.2174
27743TIP3    H184111   4.319   4.776   9.327 -1.6663  0.1579  1.0673
27743TIP3    H284112   4.340   4.759   9.178  0.0662  3.1660  0.8756
27744TIP3   OH284113   2.640   1.935   3.337 -0.7105 -0.4268  0.6377
27744TIP3    H184114   2.722   1.909   3.379  0.0042 -1.0202 -1.0437
27744TIP3    H284115   2.622   1.864   3.275 -0.4237  1.4982 -1.7828
27745TIP3   OH284116  10.476   7.222   7.607 -0.2438 -0.3697  0.0684
27745TIP3    H184117  10.388   7.186   7.603 -0.4441  0.1445 -0.3446
27745TIP3    H284118  10.518   7.193   7.525  0.9446 -3.0068  1.4969
27746TIP3   OH284119   7.599   5.444   8.290 -0.0932 -0.2380  0.3402
27746TIP3    H184120   7.631   5.424   8.202  0.4875  0.0825  0.4713
27746TIP3    H284121   7.580   5.358   8.329 -1.5295 -0.3354 -0.5118
27747TIP3   OH284122  10.010   8.244   0.031 -0.1349 -0.1407  0.8746
27747TIP3    H184123  10.031   8.232   0.124 -0.8708 -1.0281  0.9354
27747TIP3    H284124   9.920   8.213   0.022 -1.3284  3.0857  0.5105
27748TIP3   OH284125   9.600   6.767   3.122 -0.2517 -0.0023  0.2108
27748TIP3    H184126   9.596   6.779   3.027 -2.4162  0.7675  0.3468
27748TIP3    H284127   9.515   6.729   3.145  0.1705 -0.0335  1.8663
27749TIP3   OH284128   6.391   7.089   3.091  0.2293  0.0659  0.0284
27749TIP3    H184129   6.417   7.055   3.005  1.4323 -0.0228  0.4015
27749TIP3    H284130   6.346   7.016   3.133  0.6047 -0.2509 -0.1166
27750TIP3   OH284131   1.256   8.167   6.010  0.3849  0.0162  0.7590
27750TIP3    H184132   1.216   8.253   6.018  0.1726  0.0738 -0.5829
27750TIP3    H284133   1.349   8.184   5.993  0.1166  0.0635 -0.8533
27751TIP3   OH284134  10.289   9.181  10.575 -0.0360 -0.6178  0.4679
27751TIP3    H184135  10.344   9.254  10.604 -1.1137  1.1606 -1.7385
27751TIP3    H284136  10.337   9.141  10.503 -0.7002 -0.3264 -0.1471
27752TIP3   OH284137   0.476   4.691   8.834  0.3541 -0.3320  0.7949
27752TIP3    H184138   0.500   4.613   8.885  0.4956 -0.0801  1.1148
27752TIP3    H284139   0.409   4.660   8.773  2.0310 -1.2478 -0.6792
27753TIP3   OH284140   1.527   7.154   8.029 -0.9335 -0.6897 -0.1706
27753TIP3    H184141   1.575   7.183   8.107 -0.6912 -0.5440 -0.3725
27753TIP3    H284142   1.483   7.232   7.997  0.0333 -0.4449 -0.9410
27754TIP3   OH284143   0.235   8.796   3.593  0.4476  0.3965 -0.1160
27754TIP3    H184144   0.229   8.868   3.530 -1.6443  0.1957 -0.2060
27754TIP3    H284145   0.198   8.721   3.546  0.0848 -0.0727  0.8999
27755TIP3   OH284146   1.385  10.307   3.979  0.2561 -0.6736  0.0159
27755TIP3    H184147   1.310  10.249   3.995 -1.1333  1.0275 -0.0956
27755TIP3    H284148   1.403  10.346   4.065 -0.3842  0.5183 -0.3744
27756TIP3   OH284149   3.396   7.561   8.624  0.4130  0.0646  0.2041
27756TIP3    H184150   3.339   7.573   8.699  0.6550  1.2420  0.2199
27756TIP3    H284151   3.351   7.496   8.570 -1.1395  1.2192  0.0414
27757TIP3   OH284152   0.578   6.868   7.343 -0.1793  0.4422 -0.3647
27757TIP3    H184153   0.639   6.820   7.288  1.6578  0.9355  1.1375
27757TIP3    H284154   0.633   6.926   7.395 -1.3434 -1.9538  4.0660
27758TIP3   OH284155   1.297   4.624   6.577 -0.1085 -0.6452 -0.5484
27758TIP3    H184156   1.245   4.658   6.504  0.2247  0.8053 -0.1442
27758TIP3    H284157   1.383   4.663   6.564  0.1481 -0.9435  0.2410
27759TIP3   OH284158   1.909   7.694  10.576  0.0278 -0.7131 -0.6663
27759TIP3    H184159   2.003   7.716  10.575 -0.7110  3.1222 -1.3644
27759TIP3    H284160   1.884   7.693  10.483 -0.9606  0.3776 -0.4384
27760TIP3   OH284161   0.554   8.443   4.264  0.2204  0.9112 -0.7433
27760TIP3    H184162   0.571   8.537   4.273 -0.6744  0.8886  2.9056
27760TIP3    H284163   0.588   8.405   4.346 -4.0723 -1.1268  0.3966
27761TIP3   OH284164   8.325   9.928   3.221 -0.0188  0.3625 -0.1973
27761TIP3    H184165   8.309   9.854   3.162 -0.3092 -0.2795  0.6706
27761TIP3    H284166   8.270   9.910   3.297  0.2133  1.2762  0.1972
27762TIP3   OH284167   3.142   7.612   7.707  0.1695 -0.1078  0.1180
27762TIP3    H184168   3.151   7.524   7.672  4.2416  0.2860 -0.3253
27762TIP3    H284169   3.177   7.606   7.796 -0.9983  0.7982  0.6679
27763TIP3   OH284170   7.427   1.669   5.811 -0.3310 -0.2335  0.6852
27763TIP3    H184171   7.505   1.709   5.773  0.9177 -2.8569  0.2424
27763TIP3    H284172   7.354   1.704   5.759  0.8670 -0.1269 -1.0159
27764TIP3   OH284173   4.420   3.089   9.143  0.1947  0.3514 -0.3763
27764TIP3    H184174   4.331   3.075   9.176  0.4468 -0.8811 -0.1567
27764TIP3    H284175   4.466   3.130   9.216 -0.4128  1.8639 -0.8131
27765TIP3   OH284176   9.705  10.229   9.487  0.2611  0.5436  0.2933
27765TIP3    H184177   9.635  10.278   9.528 -0.8256 -0.1009 -0.7269
27765TIP3    H284178   9.776  10.230   9.551 -0.9610  0.5151  1.6932
27766TIP3   OH284179  10.681   1.156   9.445  0.0749 -0.0379  0.5707
27766TIP3    H184180  10.646   1.110   9.369  0.8612 -0.2408  0.3212
27766TIP3    H284181  10.759   1.201   9.413  0.9022 -0.8122  1.4267
27767TIP3   OH284182   6.331   9.623  10.180 -0.0623 -0.3380  0.3497
27767TIP3    H184183   6.266   9.585  10.239 -2.7141  0.7581 -1.6421
27767TIP3    H284184   6.360   9.702  10.224 -1.0884 -0.1633  0.7440
27768TIP3   OH284185   3.814  10.210   3.030 -0.6393  0.1443 -0.0660
27768TIP3    H184186   3.852  10.127   3.057 -1.0258  0.6844  2.3137
27768TIP3    H284187   3.889  10.263   3.001 -0.1978 -0.4525 -0.0203
27769TIP3   OH284188   7.386   6.566   7.409 -0.4729  0.1815  0.3160
27769TIP3    H184189   7.345   6.569   7.322 -1.5737 -0.1050  0.8117
27769TIP3    H284190   7.474   6.532   7.392 -0.2124  1.3228 -0.8391
27770TIP3   OH284191   9.538   8.467   0.234 -0.2574  0.1107  0.4163
27770TIP3    H184192   9.492   8.446   0.316 -2.2796 -0.7063 -0.8448
27770TIP3    H284193   9.628   8.437   0.249 -0.0422  1.7643  2.9970
27771TIP3   OH284194   1.174   6.782   3.120  0.7911  0.0473  0.2488
27771TIP3    H184195   1.257   6.744   3.149 -0.0051 -0.4476  2.0183
27771TIP3    H284196   1.145   6.725   3.048  1.2437 -0.7064  0.6472
27772TIP3   OH284197   6.792   6.273   4.763 -0.0997  0.2433  0.3945
27772TIP3    H184198   6.834   6.284   4.849  0.2890 -1.4076  0.4535
27772TIP3    H284199   6.718   6.215   4.780  0.2789 -0.5014 -0.4665
27773TIP3   OH284200   3.739   4.164   0.017 -0.5788 -0.4916  0.4353
27773TIP3    H184201   3.811   4.194  -0.039  0.1135  0.7740  1.9362
27773TIP3    H284202   3.737   4.227   0.089 -3.8458  0.1060 -0.0296
27774TIP3   OH284203   8.325   8.403   6.713 -0.7310 -0.3008  0.0543
27774TIP3    H184204   8.389   8.353   6.764 -1.7362 -0.4981  1.1598
27774TIP3    H284205   8.379   8.464   6.662  0.3126  0.7044  2.1913
27775TIP3   OH284206   2.541   1.431   2.728  0.5111 -0.0248 -0.1135
27775TIP3    H184207   2.554   1.352   2.779  0.3667  0.4597  0.7024
27775TIP3    H284208   2.554   1.503   2.791  2.3625  0.6619 -1.2028
27776TIP3   OH284209  10.223   4.934   6.165  0.3875 -0.6527  0.4525
27776TIP3    H184210  10.297   4.994   6.176  0.1055 -0.6104  2.4806
27776TIP3    H284211  10.254   4.869   6.102  2.1604 -0.6187  1.2286
27777TIP3   OH284212   9.908   3.869   5.160 -0.2372  0.2005  0.2216
27777TIP3    H184213   9.923   3.963   5.165 -0.8291  0.3591 -0.7094
27777TIP3    H284214   9.922   3.837   5.249 -1.0242  1.3140  0.7628
27778TIP3   OH284215   0.368   9.081   1.129  0.2002 -0.3257 -0.2094
27778TIP3    H184216   0.276   9.088   1.155  0.8356 -1.2951  2.6181
27778TIP3    H284217   0.403   9.169   1.142  0.3724 -0.6614  1.9597
27779TIP3   OH284218  10.190   4.148   8.102  0.2781  0.0059  0.3278
27779TIP3    H184219  10.100   4.139   8.073  0.7677 -0.8038 -0.9820
27779TIP3    H284220  10.206   4.070   8.155 -0.2051  0.8537  1.8067
27780TIP3   OH284221   2.961   1.300   3.401 -0.3371 -0.0594 -0.1116
27780TIP3    H184222   3.021   1.340   3.464 -0.8615 -1.2288  1.1812
27780TIP3    H284223   3.007   1.305   3.318  1.5911 -0.9407  0.8319
27781TIP3   OH284224   9.969   2.098  10.406 -0.7919 -0.4644  0.2471
27781TIP3    H184225   9.994   2.116  10.496  1.6379 -0.9829 -0.2444
27781TIP3    H284226   9.885   2.141  10.395 -1.0961 -0.2842  2.7038
27782TIP3   OH284227   2.447   4.511   6.904 -0.3070 -0.2770  0.2046
27782TIP3    H184228   2.376   4.552   6.954 -0.2746  0.4599 -0.3286
27782TIP3    H284229   2.484   4.583   6.853 -1.2342 -1.2287 -1.9550
27783TIP3   OH284230   7.989   5.551   6.668 -0.6975  0.1749 -0.8530
27783TIP3    H184231   7.966   5.498   6.592 -2.4120  1.2179 -1.1133
27783TIP3    H284232   7.912   5.547   6.725  0.1895  0.1870  0.4024
27784TIP3   OH284233  10.637   7.809   6.410  0.3241 -0.0359 -0.1642
27784TIP3    H184234  10.640   7.719   6.442 -0.5596  0.1804  0.5490
27784TIP3    H284235  10.638   7.863   6.489  2.1556  0.6475 -0.5969
27785TIP3   OH284236   3.854   7.786   9.586 -0.1257 -0.1463  0.5270
27785TIP3    H184237   3.926   7.723   9.590 -0.2042 -0.1755  2.1420
27785TIP3    H284238   3.885   7.861   9.637  0.0941  1.2996 -1.6422
27786TIP3   OH284239   7.369  10.147   9.059  0.4199 -0.1415 -0.2847
27786TIP3    H184240   7.373  10.058   9.025 -1.1257  0.1701 -1.3523
27786TIP3    H284241   7.354  10.202   8.982  1.9677  1.1449  0.2565
27787TIP3   OH284242   0.406   6.931   9.068  0.1408 -0.1036 -0.7036
27787TIP3    H184243   0.374   6.848   9.104  0.2686 -0.5840 -1.6748
27787TIP3    H284244   0.494   6.940   9.103 -0.1573  0.0255  0.0405
27788TIP3   OH284245  10.091   8.449   5.483  0.8917 -0.0642 -0.6489
27788TIP3    H184246  10.149   8.401   5.424 -1.2082 -1.8127 -1.4412
27788TIP3    H284247  10.005   8.412   5.467 -0.3244  1.7578  1.1521
27789TIP3   OH284248   8.787   4.536  10.658 -0.3580 -0.3547 -0.1412
27789TIP3    H184249   8.798   4.445  10.630  2.8316 -0.1058 -0.0620
27789TIP3    H284250   8.799   4.587  10.578 -0.9539  0.0385  0.0188
27790TIP3   OH284251   3.375   5.479   9.598  0.3206  0.0672 -0.4267
27790TIP3    H184252   3.326   5.555   9.565  0.6163  0.2894 -0.3625
27790TIP3    H284253   3.447   5.468   9.535 -0.6205 -1.1440 -1.3339
27791TIP3   OH284254   1.048   2.124   9.878  0.4816  0.1444 -0.5992
27791TIP3    H184255   1.059   2.159   9.789  0.3553  1.0046 -0.2846
27791TIP3    H284256   1.028   2.032   9.865  2.1792 -0.1341 -1.4040
27792TIP3   OH284257  10.477   8.639   2.755  0.4686 -0.6754 -0.0291
27792TIP3    H184258  10.546   8.621   2.819  0.5698  1.2354  0.4828
27792TIP3    H284259  10.400   8.594   2.789  0.5498  0.2132  1.4316
27793TIP3   OH284260   4.424   2.200   2.141  0.6331 -0.2949  0.6519
27793TIP3    H184261   4.503   2.245   2.112  1.9270 -2.5143  0.4780
27793TIP3    H284262   4.442   2.174   2.231  0.4939 -1.5916  0.3281
27794TIP3   OH284263   6.852   9.125   3.841  0.2577  0.0167 -0.1611
27794TIP3    H184264   6.772   9.092   3.799 -0.0658 -1.8476  1.7169
27794TIP3    H284265   6.918   9.123   3.772 -0.4586 -2.0352 -0.8559
27795TIP3   OH284266   0.151   3.076   8.240 -0.2348 -0.0961 -0.2549
27795TIP3    H184267   0.111   3.036   8.317  2.7179  1.5624  2.3308
27795TIP3    H284268   0.107   3.033   8.166 -3.6671 -1.3489  2.2303
27796TIP3   OH284269   4.665   1.029   9.935  0.3911 -0.4698 -0.7054
27796TIP3    H184270   4.683   0.958   9.873 -1.6603  0.1187 -2.0951
27796TIP3    H284271   4.612   1.091   9.885 -2.5144 -0.5569  1.9537
27797TIP3   OH284272  10.622   4.428   1.415  0.6545  0.2971 -0.0905
27797TIP3    H184273  10.625   4.476   1.333 -0.0323 -0.7324 -0.7257
27797TIP3    H284274  10.707   4.447   1.456  0.9376  0.9464 -0.9461
27798TIP3   OH284275   6.796   6.099   1.596  0.5894  0.1562  0.1504
27798TIP3    H184276   6.867   6.129   1.652  1.3842 -0.4196 -0.5252
27798TIP3    H284277   6.823   6.012   1.567 -0.9874 -0.6120  0.8980
27799TIP3   OH284278   1.368   0.855   0.729  0.6256 -0.1239 -0.6986
27799TIP3    H184279   1.332   0.886   0.646  2.2389 -2.5180 -2.4322
27799TIP3    H284280   1.463   0.857   0.717  0.8675 -2.5640  0.1975
27800TIP3   OH284281   2.146   2.640   4.490 -0.0828  0.4043 -0.1705
27800TIP3    H184282   2.115   2.553   4.513  0.9326 -0.1946 -1.0019
27800TIP3    H284283   2.079   2.674   4.431  0.0703 -0.2538 -0.7263
27801TIP3   OH284284   2.665   9.738   1.188  0.3553 -0.1498 -0.0178
27801TIP3    H184285   2.742   9.691   1.155  0.7642  0.7768 -0.4266
27801TIP3    H284286   2.594   9.674   1.183  1.5053 -1.7680  2.4734
27802TIP3   OH284287   6.105  10.480   7.383  0.4142  0.4818  0.3736
27802TIP3    H184288   6.081  10.391   7.356  1.5447 -0.0744  1.1095
27802TIP3    H284289   6.022  10.519   7.411  0.1301 -0.9413  1.6627
27803TIP3   OH284290   6.372   9.903   3.437  0.6004 -0.5031 -0.1138
27803TIP3    H184291   6.424   9.858   3.370  3.0146 -0.1823  1.4536
27803TIP3    H284292   6.320   9.833   3.477 -1.4680 -0.6107 -2.6487
27804TIP3   OH284293   7.911   6.535   9.047  0.0174 -0.9723 -0.2060
27804TIP3    H184294   7.983   6.492   9.001  0.0015  0.3353 -1.5093
27804TIP3    H284295   7.940   6.626   9.057 -1.3969 -0.4599 -0.6187
27805TIP3   OH284296   6.987   0.612   2.812  0.6520  0.6451  0.8706
27805TIP3    H184297   7.035   0.554   2.872 -0.9848 -0.1685  1.4649
27805TIP3    H284298   7.027   0.698   2.824  1.9393  0.0017  1.3430
27806TIP3   OH284299   8.683   9.104   8.064 -0.0060  0.3420  0.3272
27806TIP3    H184300   8.727   9.029   8.103 -0.6687 -0.8388 -1.1159
27806TIP3    H284301   8.739   9.132   7.992 -1.5410 -1.2539 -1.6067
27807TIP3   OH284302   7.779   1.531   4.743 -0.4342 -0.1954  0.3491
27807TIP3    H184303   7.853   1.470   4.749 -0.4376 -0.2305  0.0261
27807TIP3    H284304   7.817   1.617   4.760  0.1568  0.1294 -2.2322
27808TIP3   OH284305   3.964   7.231   8.279 -0.1291  0.1455 -0.2752
27808TIP3    H184306   4.002   7.242   8.192  0.0268  0.2877 -0.1885
27808TIP3    H284307   3.952   7.320   8.311  2.7094  0.1461  1.1165
27809TIP3   OH284308   8.316   4.760   4.151 -0.5482 -0.1172 -0.8071
27809TIP3    H184309   8.251   4.829   4.170  0.1940  0.2258  0.5782
27809TIP3    H284310   8.270   4.678   4.171 -0.6085  0.1187  0.0615
27810TIP3   OH284311   4.265   5.842   6.758  0.3397 -0.1050  0.1515
27810TIP3    H184312   4.241   5.820   6.668  0.9849 -1.6819  0.3424
27810TIP3    H284313   4.306   5.763   6.792  0.9869  0.7918  1.5317
27811TIP3   OH284314   7.590   6.877   5.340 -0.1989  0.0453 -0.1654
27811TIP3    H184315   7.528   6.804   5.338 -2.9627  2.1916 -0.1803
27811TIP3    H284316   7.626   6.881   5.251 -0.4305 -0.9667 -0.3076
27812TIP3   OH284317   6.186  10.673   8.878  0.9194 -0.1558 -0.2959
27812TIP3    H184318   6.245  10.600   8.894  2.7121  0.9642 -1.4562
27812TIP3    H284319   6.146  10.655   8.793  0.1663 -0.5274  0.1289
27813TIP3   OH284320   5.939   8.970   0.976  0.2984  0.6501 -0.4237
27813TIP3    H184321   5.981   9.052   1.002  0.7529 -0.3482  2.3344
27813TIP3    H284322   6.006   8.903   0.990 -0.6991 -0.4318 -0.6448
27814TIP3   OH284323  10.104   2.149   7.780 -0.4526 -0.0522 -0.2575
27814TIP3    H184324  10.133   2.178   7.693 -3.0031 -0.6557 -1.4199
27814TIP3    H284325  10.162   2.194   7.841  0.9978  0.9271 -2.2436
27815TIP3   OH284326   6.881  10.822   8.289  0.8750  1.0572  0.5634
27815TIP3    H184327   6.893  10.804   8.382  2.3592 -1.2861 -0.0041
27815TIP3    H284328   6.799  10.778   8.266  1.2534  0.4108  0.4613
27816TIP3   OH284329   0.766   9.447   9.126  0.1042  0.2657  0.3858
27816TIP3    H184330   0.853   9.472   9.158  1.1162 -0.4679 -1.6504
27816TIP3    H284331   0.725   9.530   9.101  0.5277  0.5351  0.5711
27817TIP3   OH284332   9.481   0.126   1.841  0.0033 -0.1693  0.0816
27817TIP3    H184333   9.438   0.203   1.876  0.2431  0.1295 -0.2682
27817TIP3    H284334   9.573   0.152   1.833 -0.1962  0.1410 -1.7297
27818TIP3   OH284335   0.636   3.124   9.444  0.0071  0.0898 -0.0636
27818TIP3    H184336   0.709   3.064   9.454 -0.1104  0.0923  0.9999
27818TIP3    H284337   0.603   3.136   9.534 -0.1911  1.4539 -0.2930
27819TIP3   OH284338  10.030   2.035   8.536 -0.3019 -0.6239 -0.2742
27819TIP3    H184339  10.099   2.100   8.531 -1.2918  0.5072  0.1483
27819TIP3    H284340  10.061   1.971   8.600  0.4418 -0.2505 -0.2597
27820TIP3   OH284341   3.240   7.377   8.487 -0.2489  0.2371 -0.6619
27820TIP3    H184342   3.293   7.303   8.518  0.7722  0.7904 -1.0350
27820TIP3    H284343   3.170   7.337   8.436 -1.4134 -0.6530  1.4918
27821TIP3   OH284344  10.060   4.426   5.258  0.1234  0.2866  0.4215
27821TIP3    H184345  10.125   4.488   5.292  0.5626 -0.4114  0.8637
27821TIP3    H284346  10.106   4.342   5.253 -0.2105  0.1531 -0.9790
27822TIP3   OH284347   5.578  10.442   9.514 -0.1099  0.3073 -0.1796
27822TIP3    H184348   5.583  10.404   9.601 -0.2892  0.8190  0.0633
27822TIP3    H284349   5.666  10.474   9.496 -0.0468  0.1017 -0.2285
27823TIP3   OH284350   6.710   2.998   4.048 -0.5088  0.0453 -0.6328
27823TIP3    H184351   6.705   2.906   4.021 -1.4209 -0.0173 -0.2931
27823TIP3    H284352   6.642   3.041   3.996  1.5882  1.0607 -2.7481
27824TIP3   OH284353   3.537   2.764   5.602  0.0773  0.0413  0.2382
27824TIP3    H184354   3.494   2.850   5.602  0.6187  0.3213  1.0133
27824TIP3    H284355   3.479   2.708   5.550 -0.6240  0.7065  0.2944
27825TIP3   OH284356   2.046   8.910   3.261 -0.4403 -0.0604  0.0516
27825TIP3    H184357   1.967   8.933   3.214  0.3033  0.3392 -1.0483
27825TIP3    H284358   2.088   8.995   3.279  0.2626 -0.3140 -0.3431
27826TIP3   OH284359   4.022   5.733   1.878  0.0065  0.4223 -0.0384
27826TIP3    H184360   3.961   5.676   1.925 -0.9485  1.3741 -0.0585
27826TIP3    H284361   4.059   5.790   1.946  0.6308  0.0579 -0.0737
27827TIP3   OH284362   8.002   4.774   3.173  0.0191 -0.0474 -0.3421
27827TIP3    H184363   8.037   4.837   3.110  0.6297 -1.8258 -1.8825
27827TIP3    H284364   8.050   4.791   3.254  0.7320  0.9269 -0.9542
27828TIP3   OH284365   5.704   4.526   2.816 -0.3168  0.0661  0.0418
27828TIP3    H184366   5.665   4.471   2.884  1.1424  0.0429  0.9152
27828TIP3    H284367   5.753   4.465   2.761 -0.4090  0.2392 -0.2332
27829TIP3   OH284368  10.312   2.160   0.090  0.4775  0.1471  0.4994
27829TIP3    H184369  10.395   2.124   0.121  0.4816 -1.2688 -1.0362
27829TIP3    H284370  10.263   2.179   0.169  2.0452  0.5047  1.4300
27830TIP3   OH284371   8.436   0.857   5.260  0.8438  0.2104  0.4557
27830TIP3    H184372   8.525   0.843   5.228  1.0318 -0.0826  1.0854
27830TIP3    H284373   8.412   0.944   5.229  0.7711 -0.3091 -1.0164
27831TIP3   OH284374   9.093   9.749   4.349  0.1296 -0.1150  0.4264
27831TIP3    H184375   9.065   9.841   4.349  1.3284  0.2770  0.8812
27831TIP3    H284376   9.012   9.699   4.338 -0.3456  1.0437 -2.2519
27832TIP3   OH284377   7.006   7.099   9.910  0.2143 -0.3276  0.5234
27832TIP3    H184378   7.077   7.101   9.974 -0.1744  2.5219  0.9881
27832TIP3    H284379   7.050   7.090   9.825  1.1992  1.3859  0.8035
27833TIP3   OH284380   5.477   4.324   3.611 -0.0055  0.1934 -0.0131
27833TIP3    H184381   5.522   4.362   3.535  1.1572 -0.2331  0.4469
27833TIP3    H284382   5.387   4.312   3.581  0.4694 -0.1435 -1.3951
27834TIP3   OH284383   1.563   3.517   4.347 -0.4903  0.0056 -0.1125
27834TIP3    H184384   1.576   3.600   4.394 -0.7574 -0.9406  1.7028
27834TIP3    H284385   1.469   3.500   4.354 -0.3944 -0.5798 -0.2567
27835TIP3   OH284386   0.806   6.905   4.932  0.5092 -0.4760 -0.1149
27835TIP3    H184387   0.759   6.917   4.849  1.4681 -0.5656 -0.6911
27835TIP3    H284388   0.811   6.993   4.969  0.9688 -0.2652 -0.6583
27836TIP3   OH284389   9.615   8.277   9.929  0.2341 -0.3872 -0.3644
27836TIP3    H184390   9.661   8.219   9.868  1.1660 -0.4236  0.3565
27836TIP3    H284391   9.646   8.251  10.016 -0.5891  0.0923  0.0859
27837TIP3   OH284392   7.055  10.545   0.865  0.1925 -0.2194 -0.0552
27837TIP3    H184393   7.116  10.525   0.794 -0.2199 -1.0178 -0.1998
27837TIP3    H284394   7.103  10.604   0.922  0.9419 -0.4886 -0.3933
27838TIP3   OH284395   5.908  10.900   6.239  0.2687  0.2785 -0.4098
27838TIP3    H184396   5.828  10.898   6.185 -0.0564  0.5194  0.0523
27838TIP3    H284397   5.909  10.816   6.284 -0.5390  0.8489  0.7254
27839TIP3   OH284398   9.176   4.044   0.899  0.0924 -0.2297 -0.1340
27839TIP3    H184399   9.171   4.048   0.995  1.0253 -0.0681 -0.0787
27839TIP3    H284400   9.085   4.050   0.870 -0.1438  0.5997  0.7188
27840TIP3   OH284401   3.669   8.814   0.283  0.1802  0.7958  0.0151
27840TIP3    H184402   3.628   8.895   0.315 -0.6333  0.1193  0.7308
27840TIP3    H284403   3.608   8.745   0.309  1.9306 -0.3066  1.4503
27841TIP3   OH284404   7.036   5.615   1.883  0.1286  0.1401 -0.8581
27841TIP3    H184405   7.125   5.616   1.917  0.3771  0.5602 -1.4927
27841TIP3    H284406   6.992   5.687   1.928  0.5864  0.9930 -1.7325
27842TIP3   OH284407   1.924   0.945   5.268 -0.1428 -0.4606 -0.4489
27842TIP3    H184408   1.928   1.003   5.343  0.6381 -0.6680 -0.3195
27842TIP3    H284409   2.015   0.915   5.256 -0.4415 -1.2470 -0.8224
27843TIP3   OH284410   8.458   9.635   4.763  0.1505 -0.3934  0.0368
27843TIP3    H184411   8.383   9.589   4.801  0.0750  0.8694  1.5195
27843TIP3    H284412   8.534   9.595   4.805  0.0617  1.0743  1.6976
27844TIP3   OH284413   8.586   5.422   9.325 -0.0691 -0.0561  0.2167
27844TIP3    H184414   8.555   5.448   9.238  2.6774  0.7252 -0.6285
27844TIP3    H284415   8.590   5.503   9.375 -0.0726 -0.2629  0.5584
27845TIP3   OH284416   5.796   1.452   1.228 -0.1779  0.5206 -0.4235
27845TIP3    H184417   5.731   1.382   1.224 -0.8042  1.0852 -0.3485
27845TIP3    H284418   5.874   1.414   1.188 -0.7492  0.0463 -1.1203
27846TIP3   OH284419  10.264   3.700   4.798 -0.4892  0.2847  0.2789
27846TIP3    H184420  10.218   3.680   4.879  1.0456 -1.6519  0.7413
27846TIP3    H284421  10.231   3.636   4.735 -0.2176  0.4963 -0.0817
27847TIP3   OH284422   1.130   6.651   0.444 -0.1386  0.4682 -0.1171
27847TIP3    H184423   1.140   6.661   0.538 -0.9922  1.2427 -0.0949
27847TIP3    H284424   1.163   6.563   0.425  0.4021  0.4574  0.8392
27848TIP3   OH284425   2.065  10.110   6.887  0.1595 -0.3492 -0.2719
27848TIP3    H184426   2.023  10.107   6.973  0.6371 -0.2842 -0.0330
27848TIP3    H284427   2.068  10.203   6.865 -0.7729 -0.4232 -0.7715
27849TIP3   OH284428   2.566  10.073   8.825  0.1021  0.2957 -0.3236
27849TIP3    H184429   2.564   9.980   8.845  2.5347 -0.4045 -2.7180
27849TIP3    H284430   2.547  10.116   8.908  0.3262 -2.3219  1.1785
27850TIP3   OH284431   0.959  10.043   6.333 -0.3733  0.1467  0.2780
27850TIP3    H184432   1.054  10.042   6.346 -0.4249  2.0058  0.9943
27850TIP3    H284433   0.928   9.965   6.380  0.7897 -0.5742 -0.0980
27851TIP3   OH284434   4.528   1.466   5.277  0.0513  0.0549 -0.3774
27851TIP3    H184435   4.529   1.505   5.189  1.4054 -1.4249 -1.0629
27851TIP3    H284436   4.496   1.536   5.334  0.2787  1.4292 -1.8737
27852TIP3   OH284437   7.835   5.080  10.796 -0.1482 -0.0451  0.0255
27852TIP3    H184438   7.886   5.008  10.759 -1.2593 -1.1569  0.5869
27852TIP3    H284439   7.840   5.149  10.730 -1.0762 -1.5302 -1.6893
27853TIP3   OH284440   1.391   2.299   2.634 -0.3172  0.2486  0.5155
27853TIP3    H184441   1.306   2.276   2.673 -0.7849  0.3104 -0.4353
27853TIP3    H284442   1.369   2.356   2.560  0.5369  0.0293  0.0747
27854TIP3   OH284443   5.550   5.073  10.521 -0.2668  0.0272  0.1334
27854TIP3    H184444   5.598   5.154  10.540  3.7661 -2.1934  0.7102
27854TIP3    H284445   5.508   5.050  10.603  0.3760  0.4506  0.5906
27855TIP3   OH284446   7.520   8.363   8.368 -0.5900  0.8152 -0.0366
27855TIP3    H184447   7.598   8.359   8.312 -0.2967  2.6549  0.2072
27855TIP3    H284448   7.505   8.456   8.382 -2.5250  0.4702  0.3762
27856TIP3   OH284449   6.155  10.731   3.230 -0.2784  0.0151  0.2769
27856TIP3    H184450   6.162  10.659   3.167 -3.0988  0.4411 -0.6333
27856TIP3    H284451   6.073  10.716   3.275 -1.1538  2.8085 -0.1940
27857TIP3   OH284452   0.100   9.193   6.527 -0.0774  0.0864 -0.0910
27857TIP3    H184453   0.052   9.268   6.491  0.8123  0.4358 -0.5925
27857TIP3    H284454   0.082   9.196   6.621 -1.0663  0.1788 -0.2816
27858TIP3   OH284455   5.006   8.031   3.751 -0.2586 -0.1663  0.4292
27858TIP3    H184456   5.100   8.047   3.760 -0.0962 -0.8763  0.1101
27858TIP3    H284457   4.989   7.955   3.807 -0.6699  0.0381  0.5872
27859TIP3   OH284458   6.846   7.856   0.609 -0.5477 -0.7397 -0.1448
27859TIP3    H184459   6.933   7.839   0.574 -0.1445 -0.0135  0.4761
27859TIP3    H284460   6.789   7.858   0.532  0.2320  0.3045 -0.7220
27860TIP3   OH284461   5.852   6.744   3.320 -0.5826  0.1030  0.2848
27860TIP3    H184462   5.770   6.709   3.284 -0.1720  0.1230 -0.7094
27860TIP3    H284463   5.896   6.667   3.358 -1.2917  0.1859  1.2963
27861TIP3   OH284464   4.817   7.083   0.219 -0.1249 -0.3742  0.3567
27861TIP3    H184465   4.750   7.115   0.158  1.2341 -0.5550 -1.2802
27861TIP3    H284466   4.808   7.140   0.296  0.2326  2.0356 -1.2664
27862TIP3   OH284467   3.485   8.551   2.918  0.2988 -0.2803  0.5436
27862TIP3    H184468   3.429   8.619   2.955 -1.5216 -1.9436  1.0124
27862TIP3    H284469   3.496   8.488   2.989 -0.3120 -1.7905 -0.6375
27863TIP3   OH284470   8.667   7.639   1.191  0.0261  0.5277 -1.1071
27863TIP3    H184471   8.688   7.573   1.258 -0.9732  0.8338 -0.4585
27863TIP3    H284472   8.752   7.674   1.164  0.4254  0.9950  0.6312
27864TIP3   OH284473   3.093   8.119  10.190  0.0214  0.1778  0.2669
27864TIP3    H184474   3.163   8.184  10.199  1.7228 -1.4107 -0.8235
27864TIP3    H284475   3.138   8.035  10.183 -1.9736 -0.8742 -1.0146
27865TIP3   OH284476   6.710   8.749   5.451  0.0860  0.1004  0.1832
27865TIP3    H184477   6.779   8.813   5.466  2.5199 -1.5618 -2.6965
27865TIP3    H284478   6.639   8.799   5.411  0.6706  1.4754  0.8124
27866TIP3   OH284479   6.945   6.710  10.227  0.1100  0.1863  0.6170
27866TIP3    H184480   6.858   6.700  10.188  0.4523 -0.4268 -0.0194
27866TIP3    H284481   6.996   6.638  10.189  1.0880  0.9727  0.4143
27867TIP3   OH284482  10.277   0.002   5.476  0.2971 -0.5480 -0.2844
27867TIP3    H184483  10.217  -0.025   5.406 -1.1983  1.7494 -0.0086
27867TIP3    H284484  10.364  -0.004   5.437 -0.4007 -0.4609 -1.9545
27868TIP3   OH284485   6.675   4.338   2.201  0.1382 -0.4452 -0.3188
27868TIP3    H184486   6.589   4.300   2.181  0.4419 -0.7049 -1.1879
27868TIP3    H284487   6.725   4.328   2.120  1.0040 -0.3252  0.1847
27869TIP3   OH284488   8.238   1.582   1.661  0.2269  0.6453  0.1453
27869TIP3    H184489   8.214   1.623   1.745  2.2901  0.4089  0.8970
27869TIP3    H284490   8.155   1.547   1.628 -0.6621  0.7829  2.0552
27870TIP3   OH284491   7.860   0.042   2.397  0.6011 -0.3742 -0.3713
27870TIP3    H184492   7.847   0.075   2.308  1.3960  0.6015 -0.1391
27870TIP3    H284493   7.936  -0.015   2.391 -0.0007 -1.1849 -0.5158
27871TIP3   OH284494   2.293   6.602   2.989 -0.5368 -0.1064  0.3574
27871TIP3    H184495   2.271   6.693   3.011 -0.4999 -0.2551  1.0412
27871TIP3    H284496   2.332   6.568   3.069  3.5172  0.5492 -1.0826
27872TIP3   OH284497   4.895   7.595   3.833  0.3517 -0.4325 -0.2877
27872TIP3    H184498   4.908   7.516   3.780 -0.1168 -2.4341  2.3571
27872TIP3    H284499   4.801   7.612   3.827  0.7735  1.5347 -2.8331
27873TIP3   OH284500   0.978   7.663   9.136  0.1759  0.2681  0.6383
27873TIP3    H184501   0.951   7.751   9.160 -0.2191  0.3084  0.0623
27873TIP3    H284502   0.935   7.606   9.200 -0.5470  0.4015  0.2758
27874TIP3   OH284503   5.793   6.282   9.036  0.5627  0.3454 -0.3528
27874TIP3    H184504   5.834   6.369   9.028  0.1322  0.4370 -1.8968
27874TIP3    H284505   5.703   6.300   9.061  1.3791  0.1298  3.4481
27875TIP3   OH284506   5.426   8.761   3.468  0.5035  0.2121 -0.3865
27875TIP3    H184507   5.399   8.817   3.396  0.1720  1.9988  1.0678
27875TIP3    H284508   5.520   8.779   3.479  0.6651 -0.4170 -0.6523
27876TIP3   OH284509   9.127   7.170   7.816  0.1257  0.2290  0.4665
27876TIP3    H184510   9.144   7.159   7.909  0.2558 -0.0984  0.4048
27876TIP3    H284511   9.104   7.082   7.785 -0.3759  0.4217  0.2830
27877TIP3   OH284512   5.887   4.069   6.378 -0.0073 -0.0330 -0.1019
27877TIP3    H184513   5.922   3.985   6.406  1.1729  0.5080  0.1468
27877TIP3    H284514   5.900   4.071   6.283 -1.2495 -0.6574 -0.2904
27878TIP3   OH284515   2.249   5.069   8.094 -0.6562  0.2856 -0.0785
27878TIP3    H184516   2.163   5.029   8.081 -0.7961  0.5369  0.0671
27878TIP3    H284517   2.295   5.055   8.011 -1.5176  1.8345 -0.8496
27879TIP3   OH284518   9.389   0.435   1.569  0.7370 -0.4898  0.0055
27879TIP3    H184519   9.341   0.393   1.497 -0.5816 -0.3379  0.7514
27879TIP3    H284520   9.323   0.444   1.639  2.0305 -0.8736  1.3276
27880TIP3   OH284521   7.206   0.557   0.341  0.2080 -0.3778 -0.0455
27880TIP3    H184522   7.204   0.506   0.260  1.5980 -1.0559  0.3063
27880TIP3    H284523   7.222   0.491   0.409 -1.2697  0.1335  0.8370
27881TIP3   OH284524   9.628   9.617   7.605  0.2622  0.0932 -0.2968
27881TIP3    H184525   9.666   9.669   7.535  0.4107 -0.9193 -0.9829
27881TIP3    H284526   9.568   9.557   7.562  0.7050 -0.8704  0.3622
27882TIP3   OH284527   0.833   8.520   3.010 -0.1693 -0.1135  0.2653
27882TIP3    H184528   0.747   8.502   2.971  0.0439 -1.1103  0.2363
27882TIP3    H284529   0.878   8.574   2.944 -1.3293  1.8226  0.9503
27883TIP3   OH284530   0.185   7.080   7.017  0.3853 -0.4404  0.0473
27883TIP3    H184531   0.169   7.174   7.007  1.7813 -0.4133 -3.0646
27883TIP3    H284532   0.280   7.072   7.020  0.5143 -1.8593 -3.3143
27884TIP3   OH284533   0.911   3.272   6.542 -0.0210  0.2640 -0.3149
27884TIP3    H184534   1.000   3.265   6.574 -0.0509  1.2196  0.0285
27884TIP3    H284535   0.908   3.216   6.464  0.5672 -0.6003  0.2752
27885TIP3   OH284536   6.214   1.957   7.879 -0.3697  0.1848  0.1915
27885TIP3    H184537   6.298   2.003   7.873 -0.9177  1.2302  0.3529
27885TIP3    H284538   6.216   1.915   7.965  1.7362 -3.3689 -1.3901
27886TIP3   OH284539   0.997   8.957   8.326 -0.5969  0.2392  0.1083
27886TIP3    H184540   0.906   8.972   8.300 -0.4342 -1.8853 -2.0876
27886TIP3    H284541   0.992   8.891   8.395 -0.7303 -2.2299 -2.1113
27887TIP3   OH284542   4.814   9.885   9.420 -0.1175  0.2419  0.1307
27887TIP3    H184543   4.756   9.841   9.358 -0.1978  0.0865  0.3126
27887TIP3    H284544   4.766   9.964   9.445  0.8491  1.4591 -1.6506
27888TIP3   OH284545   5.315   3.923   9.797  0.9964 -0.1497  0.9671
27888TIP3    H184546   5.274   3.863   9.860  0.2582  0.5096  1.1246
27888TIP3    H284547   5.383   3.870   9.756 -0.1160 -1.3385  0.5789
27889TIP3   OH284548   8.936   3.933   1.349  0.3916 -0.8095  0.0127
27889TIP3    H184549   8.895   3.848   1.340 -0.0799 -0.6285  0.4337
27889TIP3    H284550   9.004   3.935   1.281  0.4542 -1.5440  0.0538
27890TIP3   OH284551   7.200   8.951   7.322 -0.0551  0.2033  0.4267
27890TIP3    H184552   7.241   9.032   7.354  0.8267  0.5594 -1.4656
27890TIP3    H284553   7.266   8.883   7.338  0.0746  0.2481  0.0903
27891TIP3   OH284554   2.503  10.760   9.053  0.1572 -0.1042  0.6282
27891TIP3    H184555   2.445  10.832   9.078  0.0921 -0.2138  0.7942
27891TIP3    H284556   2.503  10.701   9.128  0.8140  0.1019  0.7956
27892TIP3   OH284557   9.751   9.063   4.799 -0.0817 -0.0638 -0.4050
27892TIP3    H184558   9.760   9.015   4.716  1.1795 -0.5257 -0.0330
27892TIP3    H284559   9.794   9.006   4.863  2.3854  1.9462 -0.1098
27893TIP3   OH284560   1.921   5.349   1.222 -0.9365  0.3192  0.1129
27893TIP3    H184561   1.869   5.271   1.201 -1.3359  0.1820  1.5237
27893TIP3    H284562   1.910   5.406   1.145 -0.4123 -1.0989 -1.0598
27894TIP3   OH284563   7.490   5.276   7.163 -0.2146  0.3778 -0.3361
27894TIP3    H184564   7.409   5.226   7.152  1.2710 -2.4199  0.6268
27894TIP3    H284565   7.506   5.276   7.257  1.7417 -0.5991 -0.6279
27895TIP3   OH284566   6.963  10.211   1.833 -0.2724 -0.0563  0.0672
27895TIP3    H184567   6.990  10.302   1.819  2.6914 -0.6721  1.2033
27895TIP3    H284568   6.956  10.174   1.745 -0.6049  0.9958 -0.3642
27896TIP3   OH284569   7.609   7.049   8.826 -0.0712 -0.1212  0.0136
27896TIP3    H184570   7.619   7.122   8.765 -0.9361  0.7901  0.9262
27896TIP3    H284571   7.516   7.024   8.817 -0.2493  0.1346  1.0617
27897TIP3   OH284572   1.932   8.738   5.326  0.0552  0.2888 -0.2284
27897TIP3    H184573   1.930   8.833   5.337  2.6264  0.3291  0.3149
27897TIP3    H284574   1.859   8.706   5.380 -0.9250  1.9317 -0.5248
27898TIP3   OH284575   4.206   3.577   5.071 -0.0144 -0.1453 -0.0555
27898TIP3    H184576   4.277   3.572   5.006 -0.6788  1.1248 -0.9217
27898TIP3    H284577   4.128   3.549   5.023 -0.1418 -1.5376  0.8918
27899TIP3   OH284578   4.454   3.742   4.879  0.0885  0.3937  0.8314
27899TIP3    H184579   4.493   3.673   4.932 -1.5522 -0.3024  1.2111
27899TIP3    H284580   4.429   3.699   4.797  0.4770  0.9221  0.4229
27900TIP3   OH284581   6.909   0.000   7.522 -0.9731  0.0125  0.1801
27900TIP3    H184582   6.838  -0.063   7.533 -0.0151 -0.8467  1.9497
27900TIP3    H284583   6.929  -0.002   7.429 -0.1770 -3.2524  0.3253
27901TIP3   OH284584   4.710  10.393   5.849  0.4048  0.1424 -0.3567
27901TIP3    H184585   4.696  10.301   5.825 -1.6551  0.4061 -0.3217
27901TIP3    H284586   4.713  10.393   5.944 -0.4184  0.2066 -0.3280
27902TIP3   OH284587   4.870   7.365   2.925 -0.2101 -0.0524  0.3645
27902TIP3    H184588   4.915   7.361   2.841 -0.8060 -2.8372  0.0588
27902TIP3    H284589   4.784   7.328   2.908 -0.0759 -1.4591  2.3154
27903TIP3   OH284590   9.593   1.723   9.771  0.4103  0.5012 -0.5288
27903TIP3    H184591   9.584   1.658   9.702 -3.0685 -1.6934  1.7018
27903TIP3    H284592   9.509   1.768   9.775  1.0607  1.7121  1.2138
27904TIP3   OH284593   0.275   4.002   1.872 -0.0140 -0.2723 -0.7221
27904TIP3    H184594   0.310   3.998   1.961  0.7787 -1.6018 -1.0748
27904TIP3    H284595   0.234   4.088   1.866 -1.0976 -0.5961  1.3129
27905TIP3   OH284596   5.153   6.031   6.137  0.6518 -0.5899  0.5933
27905TIP3    H184597   5.245   6.013   6.114  0.1289 -2.5342 -0.1478
27905TIP3    H284598   5.159   6.097   6.206  2.5984 -0.4653  0.3786
27906TIP3   OH284599   6.228   5.935   8.194  0.0749  0.0758 -0.1297
27906TIP3    H184600   6.235   6.005   8.130  0.3372 -1.0435 -1.3702
27906TIP3    H284601   6.266   5.859   8.150  0.5301 -0.6647  1.4657
27907TIP3   OH284602   0.444   4.816   2.057  0.1934 -0.4570  0.0209
27907TIP3    H184603   0.396   4.743   2.095 -0.2959 -0.9704 -1.4976
27907TIP3    H284604   0.531   4.779   2.038 -0.0475 -0.6649 -0.7270
27908TIP3   OH284605   5.434   4.815   9.199 -0.2890  0.2981  0.2827
27908TIP3    H184606   5.459   4.821   9.291 -1.0714 -4.1213  1.0161
27908TIP3    H284607   5.516   4.801   9.152 -0.1725 -2.4753  1.1221
27909TIP3   OH284608   7.138   4.770   6.373 -0.5935 -0.4428 -0.0177
27909TIP3    H184609   7.125   4.736   6.284 -0.7941  0.4268 -0.3344
27909TIP3    H284610   7.165   4.861   6.360  0.3730 -0.6004  0.7966
27910TIP3   OH284611   3.593   5.476   2.399  0.3709  0.3418  0.1587
27910TIP3    H184612   3.608   5.549   2.338 -2.1376  1.4417  0.7538
27910TIP3    H284613   3.507   5.442   2.376  0.1741 -0.4474  1.8841
27911TIP3   OH284614   7.346   8.770   6.360 -0.2301  0.0867  0.1370
27911TIP3    H184615   7.436   8.797   6.341  0.6046 -0.9982  2.1983
27911TIP3    H284616   7.317   8.728   6.280  1.5759 -0.6883 -0.1692
27912TIP3   OH284617   7.914   7.258   8.917  0.0185 -0.6405 -0.4288
27912TIP3    H184618   7.958   7.179   8.884  0.9674 -0.9762  1.4784
27912TIP3    H284619   7.979   7.328   8.906 -0.7739 -0.1092 -1.9980
27913TIP3   OH284620   3.956   9.417   0.363 -0.2932  0.0487 -0.0256
27913TIP3    H184621   4.047   9.434   0.384 -0.2418 -1.6661  1.3664
27913TIP3    H284622   3.939   9.330   0.399 -1.9245 -0.5337 -2.0060
27914TIP3   OH284623   0.730   9.425   8.273 -0.2862  0.1390 -0.4586
27914TIP3    H184624   0.781   9.462   8.201  0.0428 -0.3430 -0.4787
27914TIP3    H284625   0.644   9.408   8.235  0.3477 -1.6414 -1.2292
27915TIP3   OH284626   8.358   6.576   1.662  0.1103  0.1738  0.0037
27915TIP3    H184627   8.284   6.629   1.632 -0.1615  0.3908  0.9996
27915TIP3    H284628   8.317   6.507   1.716  0.5796 -0.1191 -0.0097
27916TIP3   OH284629  10.039   6.465   1.395  0.1172 -0.3823 -0.0338
27916TIP3    H184630   9.970   6.526   1.368  0.6832  0.3700  0.1614
27916TIP3    H284631  10.103   6.468   1.324 -1.1600 -2.9761 -1.4245
27917TIP3   OH284632   1.028   3.192   9.281 -0.3792 -0.2055  0.1625
27917TIP3    H184633   1.107   3.243   9.260  0.2604 -0.8377  0.9598
27917TIP3    H284634   0.966   3.216   9.213  0.5878  0.1157 -0.6436
27918TIP3   OH284635   7.956   3.200   1.284  0.3633 -0.2610 -0.1613
27918TIP3    H184636   7.907   3.207   1.202 -0.5675 -0.7891  0.3229
27918TIP3    H284637   7.971   3.106   1.295  1.5080 -0.1031 -0.3005
27919TIP3   OH284638   1.259   0.217   9.793  0.2852  0.6739 -0.2208
27919TIP3    H184639   1.324   0.180   9.733 -1.7380 -0.0273 -2.1360
27919TIP3    H284640   1.291   0.305   9.813  0.9515  1.0126 -2.5397
27920TIP3   OH284641   1.545   2.671   4.134  0.5991  0.0396 -0.0018
27920TIP3    H184642   1.454   2.694   4.113  0.0043 -1.9186  0.2325
27920TIP3    H284643   1.588   2.665   4.049  0.8342  2.0391 -0.0723
27921TIP3   OH284644   6.816   5.298   1.653 -0.1779 -0.0501  0.2450
27921TIP3    H184645   6.746   5.275   1.715  0.1769  0.3423  0.8043
27921TIP3    H284646   6.893   5.252   1.687  0.5793  1.9816  1.4569
27922TIP3   OH284647   0.961   6.553   5.708 -0.8132  0.3321  0.2329
27922TIP3    H184648   0.935   6.523   5.621  1.6153 -0.5273 -0.2636
27922TIP3    H284649   0.998   6.640   5.693  2.1548 -0.8966 -0.1288
27923TIP3   OH284650   1.694   4.070   0.320 -0.3964  0.1210  0.3237
27923TIP3    H184651   1.763   4.089   0.384  1.2608 -1.2574 -0.9727
27923TIP3    H284652   1.675   4.155   0.280  0.1766  0.6162  1.0724
27924TIP3   OH284653  10.810   3.983   1.591  0.3664  0.1129 -0.1302
27924TIP3    H184654  10.735   3.961   1.647 -1.4619  0.6404 -2.1967
27924TIP3    H284655  10.804   3.921   1.518  2.2334 -0.0966 -0.1353
27925TIP3   OH284656   8.969   4.564   0.029  0.6627 -0.5133  0.4927
27925TIP3    H184657   8.884   4.540  -0.008  0.5678  0.1302  0.2859
27925TIP3    H284658   9.030   4.555  -0.044  0.4592  0.8516  0.1370
27926TIP3   OH284659   9.411  10.770   0.733 -0.3230 -0.6753 -0.1730
27926TIP3    H184660   9.452  10.804   0.654  1.2380 -0.5034  0.6668
27926TIP3    H284661   9.479  10.778   0.800 -0.3066 -4.1961  0.4052
27927TIP3   OH284662   3.287   1.905   7.275  0.0106  0.3052 -0.1598
27927TIP3    H184663   3.351   1.876   7.340  0.2005 -1.5999 -1.1332
27927TIP3    H284664   3.274   1.830   7.218 -3.3104  0.5042  0.1195
27928TIP3   OH284665   7.323   6.845   2.214 -0.3151  0.0830  0.3019
27928TIP3    H184666   7.291   6.755   2.225  0.6911 -0.2779  0.3657
27928TIP3    H284667   7.393   6.838   2.149  1.4701  0.4070  2.1136
27929TIP3   OH284668   5.109   1.502   9.350  0.1723 -0.3638 -0.6879
27929TIP3    H184669   5.027   1.516   9.396  1.4292 -0.4135  1.7349
27929TIP3    H284670   5.105   1.410   9.322 -0.4373 -0.4887 -0.2253
27930TIP3   OH284671   7.810   4.068   7.933 -0.8132  0.0009  0.6427
27930TIP3    H184672   7.730   4.115   7.958 -2.0949 -1.7349  0.0542
27930TIP3    H284673   7.846   4.038   8.016 -2.2044 -1.3389  0.8158
27931TIP3   OH284674   2.426   1.264   6.329 -0.2584  0.0796 -0.6011
27931TIP3    H184675   2.449   1.208   6.403 -0.2828 -1.0041 -1.3870
27931TIP3    H284676   2.481   1.233   6.257  0.4054  1.6996 -0.8245
27932TIP3   OH284677   0.036   7.107   8.282  0.3876  0.5854 -0.4349
27932TIP3    H184678   0.061   7.110   8.189 -1.5497  0.0286 -1.0242
27932TIP3    H284679   0.064   7.020   8.311  1.9924  1.1624 -0.1577
27933TIP3   OH284680   6.162  10.385  10.743 -0.1491  0.2364  0.0940
27933TIP3    H184681   6.179  10.463  10.795 -0.5562  0.2328  0.2405
27933TIP3    H284682   6.088  10.343  10.787 -0.5563  0.2747 -0.5320
27934TIP3   OH284683   6.211   6.930   5.026 -0.1594 -0.0367 -0.1475
27934TIP3    H184684   6.265   6.980   5.086  1.0563 -1.3568 -0.0833
27934TIP3    H284685   6.165   6.996   4.973  3.8046  1.2849 -2.3437
27935TIP3   OH284686   8.144   5.508   7.250 -0.3960  0.6409  0.2363
27935TIP3    H184687   8.151   5.580   7.187 -1.0138  0.8730  0.4213
27935TIP3    H284688   8.195   5.538   7.326 -0.1471  0.6184  0.0800
27936TIP3   OH284689   0.956   0.225   1.025  0.3013 -0.3533  0.2951
27936TIP3    H184690   1.014   0.283   1.074  0.0071  0.4975 -0.3237
27936TIP3    H284691   0.868   0.248   1.055  0.0618  0.6246 -1.0136
27937TIP3   OH284692   4.446   5.781   1.875  0.1982 -0.0562 -0.1737
27937TIP3    H184693   4.429   5.731   1.955 -0.7851 -1.2678 -1.0997
27937TIP3    H284694   4.385   5.744   1.810  2.3589 -0.5704 -2.0528
27938TIP3   OH284695   4.970   7.634   6.376  0.5271  0.0518  0.5297
27938TIP3    H184696   4.924   7.683   6.308 -0.0281  0.4124  1.1529
27938TIP3    H284697   5.061   7.633   6.348  0.7165  2.1438  0.8740
27939TIP3   OH284698   6.289   8.287   3.778  0.6776  0.5123 -0.4810
27939TIP3    H184699   6.277   8.377   3.808  2.9250  0.7694 -0.1495
27939TIP3    H284700   6.272   8.291   3.683 -0.1286  1.0768 -0.3167
27940TIP3   OH284701   3.397   7.171   8.571 -0.0586 -0.1207 -0.2436
27940TIP3    H184702   3.411   7.198   8.662  0.1470  0.2003 -0.3700
27940TIP3    H284703   3.392   7.075   8.575 -1.4835 -0.0393  0.2994
27941TIP3   OH284704   8.204   7.348   7.962  0.3490 -0.2133  0.0822
27941TIP3    H184705   8.130   7.408   7.949 -0.4303 -1.3098 -0.7112
27941TIP3    H284706   8.239   7.334   7.874 -0.4535 -2.0971  0.0269
27942TIP3   OH284707  10.508   5.194   5.148 -0.2562  0.8399  0.0970
27942TIP3    H184708  10.574   5.140   5.105 -1.8613 -1.8056  0.7400
27942TIP3    H284709  10.461   5.237   5.076  1.0925  1.5047 -0.4212
27943TIP3   OH284710   6.812   4.480   5.599 -0.9612 -0.4112 -0.3194
27943TIP3    H184711   6.750   4.456   5.530 -1.7440  0.8902 -0.1198
27943TIP3    H284712   6.757   4.494   5.677 -0.3574  0.2174  0.0110
27944TIP3   OH284713   4.463   8.123   4.945 -0.2778  0.0722 -0.2962
27944TIP3    H184714   4.548   8.131   4.988  0.6475 -0.7243 -1.8766
27944TIP3    H284715   4.480   8.147   4.854 -1.8016  0.1219 -0.5898
27945TIP3   OH284716   5.402   5.765   3.365  0.1477 -0.6119 -0.1351
27945TIP3    H184717   5.328   5.825   3.354 -0.3278 -1.2193 -0.3081
27945TIP3    H284718   5.472   5.819   3.403  0.6424  0.7214 -2.7215
27946TIP3   OH284719   4.735  10.010   5.335 -0.0107  0.0644 -0.0892
27946TIP3    H184720   4.775   9.987   5.419  1.3324 -3.2844 -1.4936
27946TIP3    H284721   4.800  10.065   5.292 -0.7772  1.9461  1.0125
27947TIP3   OH284722   6.906   2.133   6.610  0.4032  0.5513 -0.1541
27947TIP3    H184723   6.847   2.076   6.561  1.4543 -1.0066  0.3451
27947TIP3    H284724   6.958   2.178   6.543 -1.0406  1.6877 -0.5856
27948TIP3   OH284725   6.900   0.589   5.000  0.7536  0.0807  0.3063
27948TIP3    H184726   6.902   0.612   5.093  3.4185  0.1280  0.3004
27948TIP3    H284727   6.856   0.504   4.998 -0.0292  0.4190  1.4922
27949TIP3   OH284728   8.380   0.872   4.578  0.1722  0.7744 -0.6447
27949TIP3    H184729   8.316   0.809   4.610  0.7212  0.0384 -0.9510
27949TIP3    H284730   8.384   0.856   4.483  0.0428  1.5333 -0.7836
27950TIP3   OH284731   3.276   3.580   9.424  0.2306 -0.3752  0.3797
27950TIP3    H184732   3.296   3.674   9.422 -1.2079 -0.0659 -0.9577
27950TIP3    H284733   3.183   3.575   9.404  0.6591 -2.1919 -1.4179
27951TIP3   OH284734   9.288  10.901  10.549 -0.0485  0.1271  0.1673
27951TIP3    H184735   9.370  10.888  10.597 -0.4150  0.7124  0.9804
27951TIP3    H284736   9.287  10.993  10.526 -1.8409  0.9246  2.8855
27952TIP3   OH284737   8.192   2.004   2.281  0.6031 -0.4231 -0.4943
27952TIP3    H184738   8.125   2.063   2.315  1.2836 -0.6391  1.3529
27952TIP3    H284739   8.174   1.921   2.325  1.4017 -0.7913 -0.8510
27953TIP3   OH284740   6.903   3.828   2.243  0.2657  0.1746  0.8170
27953TIP3    H184741   6.930   3.751   2.192  0.6845  0.2381  0.9444
27953TIP3    H284742   6.810   3.836   2.224  0.6284  0.8822 -0.8656
27954TIP3   OH284743   4.608   9.114   3.993  0.6445  0.3644  0.6225
27954TIP3    H184744   4.628   9.099   4.085  2.3009 -0.8196  0.1133
27954TIP3    H284745   4.580   9.029   3.960  2.4737  0.1635 -0.5149
27955TIP3   OH284746   6.542   6.655   4.672  0.1295 -0.2221 -0.0323
27955TIP3    H184747   6.530   6.562   4.693 -4.7858  0.0328 -0.6519
27955TIP3    H284748   6.556   6.697   4.757  2.1893 -1.3642  0.2792
27956TIP3   OH284749   0.254   5.182   2.187  0.4401  0.4420 -0.1490
27956TIP3    H184750   0.253   5.151   2.096 -0.9071  0.8942 -0.3229
27956TIP3    H284751   0.345   5.175   2.214  0.3390 -3.5645 -0.1839
27957TIP3   OH284752   1.281   5.192   8.256  0.1982  0.0801 -0.5141
27957TIP3    H184753   1.205   5.150   8.215 -1.2491  0.2559  1.7957
27957TIP3    H284754   1.273   5.284   8.232  0.5177 -0.1253 -1.4460
27958TIP3   OH284755  10.164   9.799   6.486 -0.1574  0.3155  0.1693
27958TIP3    H184756  10.240   9.761   6.442 -0.0967  1.0059 -0.3464
27958TIP3    H284757  10.200   9.837   6.566  0.1142  0.9663 -0.2549
27959TIP3   OH284758   8.679   6.776   2.212  0.0743 -0.5448  0.0109
27959TIP3    H184759   8.642   6.726   2.139  0.1235 -0.9080  0.2285
27959TIP3    H284760   8.672   6.867   2.185  1.8914 -0.7424 -1.3148
27960TIP3   OH284761   5.819   4.669   3.461  0.5890  0.5292 -0.2589
27960TIP3    H184762   5.823   4.626   3.546 -1.6512  1.0961  0.1900
27960TIP3    H284763   5.824   4.763   3.482 -1.4484  0.7475 -0.5583
27961TIP3   OH284764   8.490   7.223   8.018  0.3756  0.5852  0.4136
27961TIP3    H184765   8.419   7.287   8.031 -0.1656  0.1945 -0.5553
27961TIP3    H284766   8.466   7.177   7.938  2.4470  1.3967 -0.7348
27962TIP3   OH284767   5.045   6.905  10.403 -0.3055  0.3374 -0.2094
27962TIP3    H184768   5.096   6.826  10.420 -1.2316 -0.6505 -1.8083
27962TIP3    H284769   5.102   6.959  10.349 -0.0931  0.2593 -0.0631
27963TIP3   OH284770   8.647   4.005   8.690 -0.0394  0.1040 -0.3582
27963TIP3    H184771   8.741   3.999   8.706 -0.2168 -1.8884  0.2640
27963TIP3    H284772   8.617   4.075   8.747  1.0437  0.6864 -0.4777
27964TIP3   OH284773   1.912   9.783   5.495  0.5425  0.3796 -0.6998
27964TIP3    H184774   1.851   9.757   5.425 -0.6003  2.0722 -0.4010
27964TIP3    H284775   1.964   9.853   5.457  0.5063  0.7205 -0.1382
27965TIP3   OH284776   5.568   8.104   1.636  0.1653 -0.0741 -0.1353
27965TIP3    H184777   5.633   8.085   1.704  0.3944  0.4995 -0.1875
27965TIP3    H284778   5.535   8.191   1.658  0.0416 -0.0030 -0.5975
27966TIP3   OH284779   1.495   1.023   3.907  0.6040  0.4074  0.0617
27966TIP3    H184780   1.507   0.947   3.964 -0.8385 -0.2200 -0.4251
27966TIP3    H284781   1.565   1.015   3.842  2.8685  1.6255  2.1604
27967TIP3   OH284782   5.188  10.896   2.631 -0.4144 -0.3456  0.1917
27967TIP3    H184783   5.211  10.935   2.546  0.5456  0.6412  0.8745
27967TIP3    H284784   5.269  10.855   2.660 -0.7901 -0.8311  0.5545
27968TIP3   OH284785  10.391   3.843   6.597 -0.0741 -0.3853  0.4831
27968TIP3    H184786  10.332   3.801   6.659 -0.3912 -1.5424 -0.5478
27968TIP3    H284787  10.476   3.803   6.613 -0.1029 -0.5021  0.3526
27969TIP3   OH284788   1.629   3.831   2.555  0.3588 -0.1149  0.1345
27969TIP3    H184789   1.605   3.787   2.637 -0.4948 -0.1215 -0.1052
27969TIP3    H284790   1.596   3.921   2.566 -0.0514 -0.2050 -0.3237
27970TIP3   OH284791  10.169   0.809   4.124 -0.4704 -0.2339 -0.4448
27970TIP3    H184792  10.232   0.881   4.125  0.1979 -0.8028 -0.4957
27970TIP3    H284793  10.167   0.780   4.033  0.9649 -1.7088 -0.0611
27971TIP3   OH284794   6.509   1.899   1.044  0.0626 -0.3635  0.2898
27971TIP3    H184795   6.440   1.844   1.007  0.2187 -0.9055  0.7942
27971TIP3    H284796   6.567   1.838   1.089  0.5195  0.1597  0.4205
27972TIP3   OH284797  10.151   7.118   0.787 -0.3485  0.6044 -0.7357
27972TIP3    H184798  10.117   7.201   0.755 -3.2513 -0.2910 -0.2760
27972TIP3    H284799  10.119   7.111   0.876  1.0847 -0.4007 -0.2548
27973TIP3   OH284800   8.744   4.581   4.814  0.6124  0.9866  0.3642
27973TIP3    H184801   8.740   4.585   4.719 -2.0922  0.6294  0.3895
27973TIP3    H284802   8.831   4.545   4.833  0.4718 -0.9002 -2.0370
27974TIP3   OH284803  10.281   8.343   8.649  0.5934  0.0797 -0.1309
27974TIP3    H184804  10.330   8.411   8.605  1.1990 -0.7717 -0.8092
27974TIP3    H284805  10.338   8.266   8.647  0.7955  0.0676  2.4291
27975TIP3   OH284806   9.129   9.245   3.367  0.4528 -0.0411 -0.4383
27975TIP3    H184807   9.129   9.184   3.440 -0.5225  1.5282  0.9454
27975TIP3    H284808   9.037   9.271   3.357  0.8697  1.4145 -0.7678
27976TIP3   OH284809   2.462   1.211   3.504  0.4605  0.3136  0.1967
27976TIP3    H184810   2.435   1.145   3.569 -1.0422  0.4408 -0.2624
27976TIP3    H284811   2.402   1.284   3.518  0.8293  0.7852 -0.6333
27977TIP3   OH284812   9.900  10.745   8.860 -0.1650  0.3775 -0.6604
27977TIP3    H184813   9.838  10.763   8.930 -1.9390 -1.9583 -1.5004
27977TIP3    H284814   9.932  10.831   8.833 -2.5112  1.6235  0.2793
27978TIP3   OH284815   0.382   3.596   5.734  0.1402 -0.0300 -0.4199
27978TIP3    H184816   0.296   3.616   5.771  0.8732  0.9066  0.8433
27978TIP3    H284817   0.431   3.677   5.742  1.5764 -0.9227  0.1213
27979TIP3   OH284818   6.450   5.126   4.074 -0.3020  0.0865  0.1702
27979TIP3    H184819   6.368   5.082   4.094 -0.1005 -0.5347 -0.3483
27979TIP3    H284820   6.517   5.058   4.081  0.2060  0.6348  0.8145
27980TIP3   OH284821   2.534   7.066   2.069  0.2841  0.0170  0.2916
27980TIP3    H184822   2.490   7.074   1.984 -0.0801  0.1345  0.4912
27980TIP3    H284823   2.595   6.993   2.057  0.8996  0.6198 -0.3640
27981TIP3   OH284824   7.549   6.481   4.124  0.5566  0.1344 -0.1588
27981TIP3    H184825   7.645   6.486   4.132  0.8406 -3.3008  0.0806
27981TIP3    H284826   7.525   6.402   4.172 -2.5323  1.1905  0.2601
27982TIP3   OH284827   0.733  10.584   3.246 -0.1359  0.2340 -0.2395
27982TIP3    H184828   0.641  10.566   3.266 -0.2730 -0.0951 -1.1102
27982TIP3    H284829   0.781  10.519   3.297 -0.2506  1.5362  1.6366
27983TIP3   OH284830   1.782   6.305   0.111 -0.2271 -0.0743 -0.2102
27983TIP3    H184831   1.788   6.369   0.040 -1.1335 -0.7336 -0.9164
27983TIP3    H284832   1.846   6.238   0.087 -1.3124 -0.8530 -1.0299
27984TIP3   OH284833   4.301   0.734   6.038 -0.2435 -0.1532 -0.4376
27984TIP3    H184834   4.296   0.793   5.963 -0.7262  0.7590  0.2796
27984TIP3    H284835   4.270   0.787   6.112 -2.7743 -1.8903 -0.1080
27985TIP3   OH284836   5.554   2.123   8.054  0.1126  0.1156  0.2837
27985TIP3    H184837   5.634   2.149   8.100  0.5997 -1.0508  0.1364
27985TIP3    H284838   5.483   2.148   8.112  0.5094  2.1855 -0.0632
27986TIP3   OH284839   2.802   3.150   6.696  0.2174  0.9292  0.0321
27986TIP3    H184840   2.850   3.190   6.623 -1.5658  2.8714 -0.1641
27986TIP3    H284841   2.845   3.065   6.708  1.4438  1.0964 -2.3829
27987TIP3   OH284842  10.253   3.702   4.422 -0.1820 -0.0410  0.6468
27987TIP3    H184843  10.265   3.793   4.451  1.5994 -0.0301  0.0244
27987TIP3    H284844  10.192   3.707   4.349  4.2878  1.6860 -3.5885
27988TIP3   OH284845   3.440   8.329   4.995 -0.2039 -0.8380  0.5818
27988TIP3    H184846   3.499   8.338   5.069 -1.4768  0.6090  1.4866
27988TIP3    H284847   3.394   8.246   5.009 -0.5621 -0.4864  1.5278
27989TIP3   OH284848   7.186   3.731   8.362  0.3994  0.1740 -0.5288
27989TIP3    H184849   7.094   3.738   8.387  0.3250 -1.3580 -0.2715
27989TIP3    H284850   7.185   3.726   8.266  0.5007  3.4379 -0.8117
27990TIP3   OH284851   6.358   0.926   7.167  0.0663  0.4907 -0.5553
27990TIP3    H184852   6.353   0.878   7.250 -1.1042  1.0756 -0.2500
27990TIP3    H284853   6.443   0.970   7.170  0.1081  0.3833  0.2722
27991TIP3   OH284854   2.453   2.550   4.261  0.0475  0.2209 -0.0386
27991TIP3    H184855   2.447   2.541   4.166 -0.1396 -2.9028  0.1752
27991TIP3    H284856   2.531   2.499   4.285 -0.3624  0.2847  1.5517
27992TIP3   OH284857   6.873   9.337   6.795  0.4253 -0.3910 -0.0387
27992TIP3    H184858   6.935   9.288   6.848  1.0346 -0.5024 -0.8500
27992TIP3    H284859   6.822   9.388   6.859  0.8759 -0.8286  0.6759
27993TIP3   OH284860   8.928   4.736   2.709 -0.0045  0.0260  0.4463
27993TIP3    H184861   8.946   4.751   2.802 -0.0827 -1.2066  0.6791
27993TIP3    H284862   9.006   4.692   2.676  0.2236  0.8894 -0.2046
27994TIP3   OH284863   8.699  10.877  10.755 -0.1596  0.0448  0.1673
27994TIP3    H184864   8.642  10.933  10.808  0.5583  3.3558 -2.2538
27994TIP3    H284865   8.787  10.911  10.769  0.8973 -2.8977  1.3370
27995TIP3   OH284866   6.632   4.112   5.355  0.3250 -0.4511  0.3213
27995TIP3    H184867   6.674   4.197   5.369  0.3640 -0.3871 -0.1490
27995TIP3    H284868   6.603   4.115   5.263 -1.6386 -0.0870  0.8967
27996TIP3   OH284869   1.597   5.769   7.065  0.0057  0.0319  0.1707
27996TIP3    H184870   1.630   5.800   7.149  1.1572 -0.5760 -0.0434
27996TIP3    H284871   1.559   5.847   7.024  1.1271  0.7418  0.4550
27997TIP3   OH284872   1.506   5.926   8.335  0.2454  0.0927 -0.0258
27997TIP3    H184873   1.492   5.867   8.409  1.9389 -0.9827 -0.5160
27997TIP3    H284874   1.572   5.988   8.366  0.1073  0.3612 -0.2581
27998TIP3   OH284875   0.050   3.188   9.223 -0.6013  0.2734  0.1824
27998TIP3    H184876   0.135   3.228   9.239  0.2776 -1.7262  0.8829
27998TIP3    H284877   0.011   3.180   9.310 -0.9198 -0.0379  0.0145
27999TIP3   OH284878   3.776   4.459   1.493 -0.1421 -0.4799 -0.7189
27999TIP3    H184879   3.685   4.486   1.481 -0.1957  0.1161  0.8246
27999TIP3    H284880   3.770   4.373   1.535  0.0463 -2.1041 -3.6931
28000TIP3   OH284881   3.658   7.674   5.802  0.5861 -0.0055 -0.4248
28000TIP3    H184882   3.605   7.739   5.756  0.5400 -0.6055 -1.2341
28000TIP3    H284883   3.634   7.591   5.762  0.4060 -0.5732  0.8211
28001TIP3   OH284884   3.532   3.551   5.369 -0.1075  0.0873 -0.7190
28001TIP3    H184885   3.467   3.499   5.417  0.4526  0.1775  0.1443
28001TIP3    H284886   3.482   3.592   5.299 -1.0326  0.3375  0.0730
28002TIP3   OH284887   6.709   4.406   9.329 -0.5778  0.2233 -0.0424
28002TIP3    H184888   6.672   4.322   9.302  0.7671 -0.5132  0.3588
28002TIP3    H284889   6.803   4.397   9.316 -0.4666  1.9135 -0.6288
28003TIP3   OH284890  10.135   4.755   2.353  0.1780 -0.2182 -0.2095
28003TIP3    H184891  10.137   4.660   2.341  0.8403 -0.7861  3.2902
28003TIP3    H284892  10.206   4.788   2.299 -0.4400 -1.5820 -1.9651
28004TIP3   OH284893   8.074   8.471   6.750 -0.0809 -0.3874 -0.0012
28004TIP3    H184894   8.162   8.436   6.734  0.2223  0.4702 -0.2606
28004TIP3    H284895   8.042   8.420   6.825  0.8292 -0.3823  0.4085
28005TIP3   OH284896   5.647   7.402   8.100  0.1053  0.3478  0.1643
28005TIP3    H184897   5.687   7.473   8.051  1.8543 -1.1385 -0.7010
28005TIP3    H284898   5.592   7.357   8.035 -1.0478  0.9327  0.7202
28006TIP3   OH284899  10.603   6.895   0.821 -0.1022 -0.0943  0.2743
28006TIP3    H184900  10.519   6.913   0.778  0.4670  0.4242 -0.6743
28006TIP3    H284901  10.643   6.827   0.767  0.4106  0.2107  0.2618
28007TIP3   OH284902   9.962   9.337   6.550 -0.2841  0.1566  0.4295
28007TIP3    H184903   9.939   9.253   6.589 -0.2385  0.4770  1.1594
28007TIP3    H284904   9.945   9.325   6.456 -1.5697 -0.2443  0.6844
28008TIP3   OH284905   8.161   2.508   3.364  0.6531 -0.0439  0.0486
28008TIP3    H184906   8.175   2.487   3.272 -0.4431  0.4203 -0.2328
28008TIP3    H284907   8.175   2.425   3.410  1.2549 -0.2662 -0.5241
28009TIP3   OH284908   8.140  10.613   7.937  0.3024  0.1432 -0.1288
28009TIP3    H184909   8.177  10.655   7.859  1.4968  0.0780  0.3873
28009TIP3    H284910   8.155  10.519   7.924  0.4665  0.1281  0.1591
28010TIP3   OH284911   5.241   8.063   3.225 -0.3980 -0.2782 -0.0038
28010TIP3    H184912   5.214   7.978   3.191  0.0377 -0.2289 -0.4888
28010TIP3    H284913   5.249   8.118   3.146  0.5876 -0.1472  0.1789
28011TIP3   OH284914   9.216   9.684   5.558 -0.1476  0.1334  0.6566
28011TIP3    H184915   9.223   9.780   5.564 -1.1286  0.1818  1.3300
28011TIP3    H284916   9.248   9.663   5.471  1.3969  0.9261  0.9923
28012TIP3   OH284917   1.609   4.704   2.059 -0.5953 -0.1458  0.0559
28012TIP3    H184918   1.621   4.679   2.151 -1.5224  1.6783  0.7153
28012TIP3    H284919   1.646   4.631   2.010  0.1462 -1.0639  1.8736
28013TIP3   OH284920   0.584   4.787   7.981  0.1039  0.4613 -0.1657
28013TIP3    H184921   0.582   4.731   8.059  1.6440  0.0839 -0.3644
28013TIP3    H284922   0.571   4.727   7.908  0.9695  0.4612 -0.3303
28014TIP3   OH284923   0.198   9.398   8.756 -0.0247 -0.1254 -0.2840
28014TIP3    H184924   0.288   9.369   8.738 -0.7002 -1.6327 -1.4597
28014TIP3    H284925   0.156   9.320   8.794 -1.0172  0.3595 -0.3720
28015TIP3   OH284926   8.423   2.102   8.851 -0.4327  0.4566 -0.6627
28015TIP3    H184927   8.460   2.120   8.764 -1.2682 -0.2066 -1.1801
28015TIP3    H284928   8.427   2.007   8.859 -0.3311  0.5157  0.0497
28016TIP3   OH284929   2.977   5.631   8.297 -0.4083  0.2000 -0.3762
28016TIP3    H184930   3.047   5.687   8.264  0.7794 -0.6881  0.5808
28016TIP3    H284931   2.905   5.692   8.314  0.7914  1.4516  0.4848
28017TIP3   OH284932  10.214   8.266   2.897  0.5126 -0.5680 -0.1173
28017TIP3    H184933  10.287   8.267   2.836  0.4493  0.8664 -0.1992
28017TIP3    H284934  10.225   8.185   2.947  2.3489 -0.2153  0.1068
28018TIP3   OH284935   8.175   9.561  10.499  0.1219 -0.3032  0.4210
28018TIP3    H184936   8.099   9.612  10.473 -0.3574 -1.4133 -0.4707
28018TIP3    H284937   8.249   9.604  10.456 -0.3751 -0.7650 -0.9774
28019TIP3   OH284938   6.003   2.226   1.809 -0.4288 -0.1269  0.2812
28019TIP3    H184939   5.927   2.246   1.864 -1.8149 -1.5829 -1.0091
28019TIP3    H284940   5.970   2.231   1.720  0.4419 -2.6731 -0.2754
28020TIP3   OH284941   7.738   2.387   0.810 -0.9952  0.3980 -0.0312
28020TIP3    H184942   7.709   2.468   0.766 -2.6298 -0.4586 -0.6393
28020TIP3    H284943   7.665   2.326   0.798  0.9532 -1.8604 -1.3713
28021TIP3   OH284944   0.666   4.135   7.738  0.2526  0.5662 -0.3151
28021TIP3    H184945   0.725   4.143   7.664  1.3955  1.1369  0.6279
28021TIP3    H284946   0.613   4.215   7.735  2.9607  2.5933  1.6846
28022TIP3   OH284947   2.658   5.036   7.302  0.0211  1.2843 -0.1204
28022TIP3    H184948   2.595   5.000   7.240 -1.7125  1.1665  1.6017
28022TIP3    H284949   2.743   5.008   7.269 -0.7795  1.6838 -2.6799
28023TIP3   OH284950   0.170   7.897   1.824 -0.0260  0.1479  0.1571
28023TIP3    H184951   0.221   7.887   1.904 -0.4653 -0.3869  0.3806
28023TIP3    H284952   0.175   7.990   1.803  2.1783 -0.0911 -0.5900
28024TIP3   OH284953   9.654   2.357   1.737 -0.8017 -0.1802  0.6517
28024TIP3    H184954   9.611   2.295   1.796 -2.5686 -1.5463 -1.9322
28024TIP3    H284955   9.584   2.416   1.709  0.5218  2.0979  1.7584
28025TIP3   OH284956   2.995   8.195   5.738  0.2460  0.0034  0.5145
28025TIP3    H184957   2.914   8.167   5.781 -0.7448  0.5878 -0.9114
28025TIP3    H284958   3.013   8.126   5.674 -0.2932  0.8818 -0.6084
28026TIP3   OH284959   7.399   7.924   1.055  0.6509  0.3016  0.0224
28026TIP3    H184960   7.341   7.981   1.005 -0.2538  0.1709  0.8953
28026TIP3    H284961   7.384   7.837   1.018 -0.0277  0.2027  0.5072
28027TIP3   OH284962   7.379   4.720   0.454  0.0268  0.3007 -0.2363
28027TIP3    H184963   7.432   4.640   0.448 -0.5589 -0.0324 -1.2410
28027TIP3    H284964   7.319   4.714   0.380 -0.2466  1.5261 -0.1264
28028TIP3   OH284965   4.345   9.335  10.267 -0.1157  0.1917  0.0809
28028TIP3    H184966   4.251   9.325  10.281  0.0029 -1.6418 -0.2366
28028TIP3    H284967   4.358   9.319  10.174  0.4153  1.3997 -0.0722
28029TIP3   OH284968   9.307   0.797   2.973  0.1778  0.0811 -0.9224
28029TIP3    H184969   9.292   0.734   3.042 -0.3253 -1.0145 -2.0042
28029TIP3    H284970   9.359   0.866   3.014  1.3775 -1.3829  0.1088
28030TIP3   OH284971   5.964   2.040  10.253  0.1528  0.7191  0.6170
28030TIP3    H184972   5.982   1.950  10.225 -0.2356  0.7363  0.3084
28030TIP3    H284973   6.024   2.054  10.326  0.7191  0.4467  0.2172
28031TIP3   OH284974   6.708   0.324   0.188 -0.4042 -0.2494  0.3815
28031TIP3    H184975   6.770   0.305   0.118 -0.7331 -2.0438  0.5354
28031TIP3    H284976   6.760   0.365   0.257 -0.3200  2.9721 -1.4057
28032TIP3   OH284977   1.826   2.378   0.290 -0.1600 -0.2192  0.2454
28032TIP3    H184978   1.899   2.354   0.233  0.7473 -0.9709  1.6570
28032TIP3    H284979   1.767   2.303   0.286 -1.4544  0.8369 -1.7479
28033TIP3   OH284980   7.565   3.152   5.899  0.7094  0.5710 -0.0302
28033TIP3    H184981   7.474   3.134   5.923  1.4442 -0.9800  1.8756
28033TIP3    H284982   7.560   3.179   5.808 -1.6815  0.7613  0.0731
28034TIP3   OH284983   9.618   6.198   2.074 -0.6237  0.5387 -1.0537
28034TIP3    H184984   9.559   6.270   2.094 -1.1727 -0.2291  0.2191
28034TIP3    H284985   9.700   6.221   2.119 -1.4372 -0.5463  1.1273
28035TIP3   OH284986   0.044   7.089   7.635  0.5244  0.2548  0.3959
28035TIP3    H184987  -0.020   7.154   7.607  2.1247  0.5406 -3.2045
28035TIP3    H284988   0.102   7.136   7.694 -0.9811  0.7103  1.5774
28036TIP3   OH284989  10.161   9.128   5.409  0.6551  0.6273 -0.1591
28036TIP3    H184990  10.116   9.103   5.490  0.0369  2.6022  0.1560
28036TIP3    H284991  10.249   9.091   5.418 -0.2534 -1.6799  0.0598
28037TIP3   OH284992  10.226  10.686   9.225 -0.1388  0.1248  0.1125
28037TIP3    H184993  10.158  10.623   9.201  0.2919  0.1405 -1.2338
28037TIP3    H284994  10.200  10.768   9.184 -0.0103  0.4915  0.7477
28038TIP3   OH284995   9.722   5.457   3.870  0.5239  0.0981  0.5428
28038TIP3    H184996   9.635   5.496   3.868  0.2569 -0.4584 -1.7870
28038TIP3    H284997   9.781   5.530   3.884 -0.2513  0.6494  0.9967
28039TIP3   OH284998   2.111   6.504   0.128 -0.4831 -0.5924  0.1884
28039TIP3    H184999   2.095   6.486   0.221  0.2322  0.1061  0.4573
28039TIP3    H285000   2.049   6.574   0.106  2.3545  2.5539  1.3920
28040TIP3   OH285001   9.651   7.193   0.217 -0.2533  0.3528  0.0383
28040TIP3    H185002   9.633   7.283   0.193  0.7578  0.2901 -0.9966
28040TIP3    H285003   9.738   7.194   0.256 -0.1385 -0.2077 -0.1852
28041TIP3   OH285004   9.597   5.063   5.362 -0.0015 -0.7317 -0.1030
28041TIP3    H185005   9.604   5.135   5.299  5.1878 -0.6454  0.1604
28041TIP3    H285006   9.597   5.106   5.448  1.3672 -0.9454  0.0222
28042TIP3   OH285007   5.097   2.233   3.548  0.6191 -0.1385 -0.3384
28042TIP3    H185008   5.013   2.227   3.593 -0.5237  0.0091 -2.3812
28042TIP3    H285009   5.115   2.326   3.542  0.5698 -0.1442 -0.5628
28043TIP3   OH285010   2.485   3.609   9.227 -0.0886  0.0400 -0.8289
28043TIP3    H185011   2.520   3.685   9.273  1.2930 -0.8656 -0.3192
28043TIP3    H285012   2.390   3.622   9.228 -0.1067  0.2811  1.8993
28044TIP3   OH285013  10.683   3.371   2.243 -0.2076 -0.2315  0.0926
28044TIP3    H185014  10.608   3.350   2.188 -0.0579  0.2199 -0.2992
28044TIP3    H285015  10.654   3.447   2.294  0.3423  0.6894 -0.8909
28045TIP3   OH285016   4.858   2.067   6.703  0.4366 -0.0894 -0.4206
28045TIP3    H185017   4.886   2.036   6.789  2.0848 -0.3842 -1.0262
28045TIP3    H285018   4.768   2.036   6.694  0.4494 -0.5849  0.9408
28046TIP3   OH285019   6.518   6.437   8.908 -0.4187  0.5428  0.0279
28046TIP3    H185020   6.570   6.360   8.933 -1.8282 -1.2425 -2.1335
28046TIP3    H285021   6.547   6.457   8.820 -1.8030  0.9141 -0.3651
28047TIP3   OH285022   7.783   2.389   1.673 -0.4389 -0.1316 -0.4778
28047TIP3    H185023   7.876   2.383   1.650 -0.3904  1.1032 -0.6741
28047TIP3    H285024   7.737   2.375   1.590 -0.3720  0.7805 -0.6767
28048TIP3   OH285025   8.034   2.029   3.033  0.1861  0.4445  0.3573
28048TIP3    H185026   8.015   1.944   2.993  0.0844  0.2567  0.8031
28048TIP3    H285027   7.964   2.087   3.001 -0.2062  0.1602  0.6926
28049TIP3   OH285028   9.652   0.776   4.568 -0.0187  0.4002 -0.4559
28049TIP3    H185029   9.582   0.798   4.629 -0.1505  0.5888 -0.6741
28049TIP3    H285030   9.650   0.681   4.561 -1.7894  0.5144 -2.2610
28050TIP3   OH285031   9.856   1.520   6.148 -0.0385  0.4933  0.2430
28050TIP3    H185032   9.929   1.503   6.089  1.0221  0.1145  1.6176
28050TIP3    H285033   9.890   1.584   6.210 -1.4938  1.7404 -0.1926
28051TIP3   OH285034   3.859   0.060   2.756 -0.4733 -0.0434  0.5852
28051TIP3    H185035   3.832   0.109   2.833  0.8319 -0.6834  1.4825
28051TIP3    H285036   3.929   0.002   2.787 -0.9723 -1.4341 -0.7424
28052TIP3   OH285037   3.586   7.817   0.562  0.2364  0.2334 -0.0077
28052TIP3    H185038   3.528   7.741   0.550 -0.3415  0.6012  0.4202
28052TIP3    H285039   3.537   7.890   0.525 -1.8058  1.5262  4.5415
28053TIP3   OH285040   6.664   1.343   3.078  0.4598  0.2894 -0.0932
28053TIP3    H185041   6.578   1.329   3.117 -0.0007 -1.3655 -1.5755
28053TIP3    H285042   6.650   1.412   3.013  0.0010 -0.5961 -0.9673
28054TIP3   OH285043   5.360   9.841   6.152 -0.3967 -0.5947  0.3801
28054TIP3    H185044   5.386   9.876   6.067 -0.7115 -0.4791  0.3301
28054TIP3    H285045   5.344   9.918   6.206 -0.7856 -0.6606  0.3617
28055TIP3   OH285046   8.025   6.429   4.007 -0.3467 -0.6212 -0.0772
28055TIP3    H185047   7.980   6.503   4.045  0.8153 -0.2068  0.5307
28055TIP3    H285048   8.014   6.358   4.071  1.2795 -0.0341  0.9103
28056TIP3   OH285049   0.391   6.241   4.798 -0.3748 -0.4606  0.5399
28056TIP3    H185050   0.465   6.194   4.838  0.5809  1.1621  0.7974
28056TIP3    H285051   0.401   6.226   4.704  0.6100  0.1306  0.5277
28057TIP3   OH285052   7.947   8.096   5.120  0.3837 -0.1453 -0.2340
28057TIP3    H185053   8.004   8.047   5.061  0.9367 -1.1774  1.1048
28057TIP3    H285054   7.858   8.080   5.087  0.6345 -1.2505 -0.3957
28058TIP3   OH285055   7.853   6.336   2.094  0.0042  0.0687  0.6230
28058TIP3    H185056   7.936   6.336   2.048 -0.2964  0.2913  0.0766
28058TIP3    H285057   7.874   6.305   2.182  0.7316  0.5603  0.6208
28059TIP3   OH285058  10.438  10.831   5.294  0.2237  0.0426 -0.0903
28059TIP3    H185059  10.476  10.792   5.216 -2.5292 -3.1298 -0.0979
28059TIP3    H285060  10.475  10.780   5.366 -0.1639  0.3585  0.3373
28060TIP3   OH285061   8.264   6.729   0.178 -0.1976 -0.2772 -0.0037
28060TIP3    H185062   8.190   6.789   0.190 -0.4123 -0.9371  2.2757
28060TIP3    H285063   8.226   6.642   0.185  0.5091 -0.6747 -0.8572
28061TIP3   OH285064   2.139   9.410   9.058  0.4751 -0.7293 -0.2535
28061TIP3    H185065   2.159   9.333   9.006  0.7407 -0.3038 -0.7865
28061TIP3    H285066   2.043   9.411   9.064  0.1664  0.9185 -3.4176
28062TIP3   OH285067   7.149   9.373   1.451 -0.1613  0.2870  0.2224
28062TIP3    H185068   7.110   9.377   1.538  0.3745 -0.1942  0.4870
28062TIP3    H285069   7.240   9.349   1.467  0.0157  0.4955 -0.4522
28063TIP3   OH285070   0.494   2.431   5.550  0.0951 -0.0000  0.1545
28063TIP3    H185071   0.538   2.443   5.466  0.7469  1.1065  0.6413
28063TIP3    H285072   0.495   2.336   5.564 -0.3770 -0.2421 -1.2551
28064TIP3   OH285073   4.907   3.168   1.024 -0.6469  0.2165 -0.3569
28064TIP3    H185074   4.890   3.195   0.933  0.4759  0.6451 -0.4503
28064TIP3    H285075   4.916   3.250   1.072 -5.2996  0.1920  1.0521
28065TIP3   OH285076   2.281   6.060   5.916 -0.5557 -1.0837  0.3772
28065TIP3    H185077   2.318   5.994   5.857  1.3827  1.7530 -1.9058
28065TIP3    H285078   2.194   6.079   5.879  0.8391  1.0534 -2.2025
28066TIP3   OH285079   6.001   8.693   4.142  0.5989  0.0267  0.4320
28066TIP3    H185080   5.978   8.606   4.109  0.0961  0.0130  0.8114
28066TIP3    H285081   6.065   8.727   4.079 -1.7185  0.7804 -1.6710
28067TIP3   OH285082   5.295   9.782   2.610 -0.3587  0.3959 -0.1659
28067TIP3    H185083   5.220   9.828   2.648  0.0094  0.4298  0.5356
28067TIP3    H285084   5.301   9.815   2.520 -0.9691  0.6501 -0.1147
28068TIP3   OH285085   0.960   4.674   6.477  0.1539 -0.2701 -0.3410
28068TIP3    H185086   1.023   4.676   6.549  0.2534  2.8186 -0.4109
28068TIP3    H285087   1.004   4.625   6.407  1.4924 -0.2313  0.4588
28069TIP3   OH285088   1.002   1.353   8.761  0.2763  0.6079  0.1469
28069TIP3    H185089   1.096   1.340   8.774  0.1437  1.1894  2.0388
28069TIP3    H285090   0.993   1.374   8.669  2.2858  2.6520  0.3386
28070TIP3   OH285091   9.306   2.549   5.022  0.4352 -0.2775 -0.6233
28070TIP3    H185092   9.347   2.573   4.939  0.2433  0.9541 -0.3930
28070TIP3    H285093   9.369   2.490   5.064  1.1292  0.1104 -1.0895
28071TIP3   OH285094   0.123   6.962   3.612 -0.5891 -0.2860 -0.4290
28071TIP3    H185095   0.066   7.025   3.568 -0.8809  0.2349  0.6768
28071TIP3    H285096   0.064   6.899   3.652 -0.5897  1.3065  2.3576
28072TIP3   OH285097   1.104   7.012   3.431  0.4750 -0.0533 -0.0065
28072TIP3    H185098   1.011   7.013   3.453  1.1086  1.1372  3.2440
28072TIP3    H285099   1.120   7.096   3.388  0.4442  0.9804  1.8894
28073TIP3   OH285100   9.263   7.996   5.134 -0.1255  0.4000 -0.5130
28073TIP3    H185101   9.344   8.033   5.098  0.4676  0.9468  1.2710
28073TIP3    H285102   9.238   8.056   5.204 -1.4248 -0.4103 -0.2520
28074TIP3   OH285103   4.711   8.030   0.368  0.0036  0.4332 -0.3875
28074TIP3    H185104   4.737   8.032   0.276  1.2211  0.8123 -0.0573
28074TIP3    H285105   4.739   8.115   0.402 -2.3971  1.1963 -0.1583
28075TIP3   OH285106   8.821   6.396  10.463 -0.3101 -1.0005  0.7861
28075TIP3    H185107   8.772   6.441  10.394  0.9126  0.6800  0.9428
28075TIP3    H285108   8.777   6.420  10.544  0.1383 -0.3196  0.8387
28076TIP3   OH285109   6.761   5.322   7.232  0.0536 -0.3599  0.6347
28076TIP3    H185110   6.695   5.261   7.201 -0.0912 -0.2132  0.6551
28076TIP3    H285111   6.804   5.355   7.153 -0.1276 -0.1972  0.6030
28077TIP3   OH285112   0.738   1.344   6.486 -0.2753  0.0740  0.3068
28077TIP3    H185113   0.766   1.344   6.394 -0.0982 -0.4361  0.3553
28077TIP3    H285114   0.815   1.374   6.534 -0.1704 -0.2388  0.3385
28078TIP3   OH285115   1.808   4.796  10.654 -0.4696  0.6917 -0.2108
28078TIP3    H185116   1.884   4.833  10.609  0.9451 -0.1575  1.3506
28078TIP3    H285117   1.813   4.702  10.635 -0.2296  0.4192  1.0937
28079TIP3   OH285118  10.359   2.711   1.006 -0.5702  0.2357 -0.4641
28079TIP3    H185119  10.442   2.678   1.039 -1.5504 -1.3469  0.4922
28079TIP3    H285120  10.375   2.805   0.993  1.0547  0.1571  0.6496
28080TIP3   OH285121   3.494   7.181   0.776 -0.0660  0.0383 -0.4521
28080TIP3    H185122   3.424   7.123   0.806 -0.1150  0.2359 -0.1866
28080TIP3    H285123   3.557   7.122   0.734 -0.8917 -0.0239 -1.6440
28081TIP3   OH285124   9.883   1.874   1.540 -0.6331 -0.2195 -0.4241
28081TIP3    H185125   9.954   1.830   1.585 -0.0194  0.2090 -0.9487
28081TIP3    H285126   9.877   1.829   1.455 -0.8776 -0.1511 -0.4440
28082TIP3   OH285127   6.399   7.208   8.304 -0.3874 -0.0879  0.1176
28082TIP3    H185128   6.383   7.170   8.218 -0.4713  1.7128 -0.7044
28082TIP3    H285129   6.326   7.269   8.317  0.7193  1.2060  0.5120
28083TIP3   OH285130   4.396   6.868   4.713  0.0593  0.0088  0.4008
28083TIP3    H185131   4.417   6.849   4.622 -0.8593 -2.2207  0.5929
28083TIP3    H285132   4.307   6.834   4.725  0.2424  0.0516  2.1754
28084TIP3   OH285133   7.792   6.159   6.247  0.1536 -0.0726  0.1644
28084TIP3    H185134   7.865   6.124   6.298 -0.6104  1.9104  2.8901
28084TIP3    H285135   7.831   6.221   6.187  1.0021 -1.7733 -1.1076
28085TIP3   OH285136   6.105   6.104   9.247  0.2236 -0.1523  0.0632
28085TIP3    H185137   6.051   6.133   9.321  0.0256 -0.7859  0.1763
28085TIP3    H285138   6.052   6.036   9.205  0.3690  0.1527 -0.6171
28086TIP3   OH285139   8.988   4.540  10.041 -0.2276 -0.0369 -0.1997
28086TIP3    H185140   9.025   4.550  10.129  1.7513 -0.8697 -0.8964
28086TIP3    H285141   9.057   4.568   9.982 -0.2509 -2.6056 -1.5863
28087TIP3   OH285142   1.584   3.007   4.817 -0.0788  0.2180  0.0269
28087TIP3    H185143   1.519   3.075   4.834  0.8319  0.3907  3.5756
28087TIP3    H285144   1.545   2.927   4.850  0.9815  0.0933  1.0420
28088TIP3   OH285145  10.735   1.608   6.074 -0.2871  0.4122  0.3971
28088TIP3    H185146  10.755   1.694   6.111 -0.5328 -0.7922  3.5564
28088TIP3    H285147  10.656   1.580   6.120 -0.3565 -1.4546 -0.7636
28089TIP3   OH285148   1.997   5.558   7.770  0.9538  0.2799  0.2276
28089TIP3    H185149   2.092   5.553   7.755  0.7667  0.2777 -1.0202
28089TIP3    H285150   1.964   5.472   7.744  0.6003  0.2699  0.6903
28090TIP3   OH285151   2.352   7.337   9.231 -0.6414  0.4329 -0.0093
28090TIP3    H185152   2.347   7.429   9.203  1.4832  0.0973 -1.7799
28090TIP3    H285153   2.443   7.312   9.215 -0.9533 -1.7665  1.2522
28091TIP3   OH285154   6.483   0.920   4.066  0.3034  0.2452  0.9122
28091TIP3    H185155   6.562   0.931   4.013  0.6238 -1.3230  1.0101
28091TIP3    H285156   6.502   0.968   4.147  1.2834 -0.3300  1.0459
28092TIP3   OH285157   2.628   9.430   0.070 -0.1455  0.0560 -0.5957
28092TIP3    H185158   2.622   9.509   0.017 -0.6083  0.5278  0.1473
28092TIP3    H285159   2.719   9.401   0.060 -0.2786  0.0316 -1.7806
28093TIP3   OH285160   4.910   9.121   2.586  0.5098 -0.5114  0.5126
28093TIP3    H185161   4.895   9.026   2.583 -0.8760 -0.3000 -0.2674
28093TIP3    H285162   4.869   9.149   2.668 -0.0069 -0.4637  0.2454
28094TIP3   OH285163   1.895   3.048   9.422 -0.0814  0.5474 -0.1462
28094TIP3    H185164   1.953   2.974   9.441  0.4477  1.0867  0.4041
28094TIP3    H285165   1.814   3.008   9.391 -0.2759 -0.3130  1.3774
28095TIP3   OH285166   1.649   8.912   7.712 -0.1532 -0.8188  0.6968
28095TIP3    H185167   1.603   8.828   7.719  0.5275 -1.2154  0.4819
28095TIP3    H285168   1.646   8.948   7.800  0.8440 -1.7687  1.1488
28096TIP3   OH285169   7.425  10.694   7.739 -0.4330  0.7973  0.9468
28096TIP3    H185170   7.402  10.669   7.649  0.9950 -0.5683  0.9127
28096TIP3    H285171   7.508  10.741   7.730 -0.2331  0.5664  1.5475
28097TIP3   OH285172   9.534   6.175   8.212 -0.2207 -0.4037  0.4584
28097TIP3    H185173   9.524   6.192   8.118 -1.5325  1.1046  0.8237
28097TIP3    H285174   9.474   6.237   8.254  0.3391 -1.0451  2.3019
28098TIP3   OH285175   3.785   4.263   6.755 -0.1769 -0.1406  0.0508
28098TIP3    H185176   3.877   4.240   6.773 -0.0816 -1.5659 -1.9305
28098TIP3    H285177   3.737   4.183   6.775 -1.2327  0.9318  2.1861
28099TIP3   OH285178  10.637   3.522   8.134  0.1350  0.2857 -0.1181
28099TIP3    H185179  10.672   3.574   8.207 -1.0774 -0.0315  0.7258
28099TIP3    H285180  10.542   3.533   8.140  0.0105  0.2814 -1.7014
28100TIP3   OH285181   4.531   7.862   0.050  0.6452  0.4124 -0.1635
28100TIP3    H185182   4.496   7.818  -0.027 -1.0577  0.5797  0.4728
28100TIP3    H285183   4.509   7.804   0.123  1.3943  0.7158  0.3205
28101TIP3   OH285184   8.759   4.021   5.339  0.1248  0.1292 -0.2953
28101TIP3    H185185   8.818   3.984   5.274  0.3217  1.3196 -0.8242
28101TIP3    H285186   8.796   3.996   5.424  0.3384 -0.7131 -0.6371
28102TIP3   OH285187   5.943   1.625   5.804 -0.1677  0.3740  0.1022
28102TIP3    H185188   5.969   1.536   5.829  2.3256  1.4387  1.7608
28102TIP3    H285189   5.867   1.644   5.858  1.1320  0.2660  2.0501
28103TIP3   OH285190  10.404   7.774   7.167  0.6242 -0.2011 -0.4921
28103TIP3    H185191  10.343   7.725   7.112  0.9204  0.4751 -1.4569
28103TIP3    H285192  10.417   7.719   7.245 -3.2540  0.7655  1.0613
28104TIP3   OH285193   4.010   6.614   1.784  0.0242  0.1406  0.5799
28104TIP3    H185194   3.946   6.607   1.714  1.5390  1.1496 -0.9811
28104TIP3    H285195   3.994   6.701   1.823 -0.1001  0.0437  0.7443
28105TIP3   OH285196  10.216   8.916   6.649 -0.0933  0.3085 -0.2769
28105TIP3    H185197  10.165   8.936   6.727  0.8104  1.5825  0.0070
28105TIP3    H285198  10.293   8.868   6.681  0.5310  1.2677 -0.3056
28106TIP3   OH285199   5.655   8.743   9.011 -1.0283 -0.2715  0.0077
28106TIP3    H185200   5.749   8.755   9.021 -1.0971 -0.2797  0.7120
28106TIP3    H285201   5.639   8.756   8.918 -0.0643 -2.0369 -0.4510
28107TIP3   OH285202   7.603   6.653   9.794 -0.1127 -0.0503 -0.0550
28107TIP3    H185203   7.583   6.626   9.884  0.4687 -0.3176 -0.0057
28107TIP3    H285204   7.543   6.600   9.740 -0.5065  0.1555  0.1721
28108TIP3   OH285205   5.621   1.355   4.013  0.0932  0.2191 -0.3088
28108TIP3    H185206   5.683   1.404   3.961  1.2418 -0.0461  0.7620
28108TIP3    H285207   5.551   1.332   3.952 -0.0092  2.3117 -1.0547
28109TIP3   OH285208   6.277   0.262   6.141 -0.7406  0.0135 -0.0307
28109TIP3    H185209   6.362   0.293   6.171 -0.6840  0.5324 -0.7002
28109TIP3    H285210   6.292   0.170   6.120 -0.5682 -0.1255  0.6797
28110TIP3   OH285211   4.214   6.766   1.967  0.2684  0.4995  0.0669
28110TIP3    H185212   4.229   6.822   2.044  1.1696 -0.0104  0.2804
28110TIP3    H285213   4.173   6.687   2.002 -0.4612  0.7682 -0.1566
28111TIP3   OH285214   3.301   8.532   7.435 -0.2305  0.0871  0.4764
28111TIP3    H185215   3.269   8.608   7.387 -1.1394 -1.4481 -1.4363
28111TIP3    H285216   3.291   8.459   7.375  0.9592 -1.5221  2.1308
28112TIP3   OH285217   5.026   5.208   5.339 -0.2104 -0.3128 -0.3878
28112TIP3    H185218   4.932   5.204   5.325 -0.2196  0.6702 -0.7094
28112TIP3    H285219   5.037   5.202   5.434 -0.5915 -0.4514 -0.3523
28113TIP3   OH285220   8.097   1.782   6.226  0.0022 -0.1348 -0.3013
28113TIP3    H185221   8.089   1.853   6.289  1.1799 -0.6505  0.4675
28113TIP3    H285222   8.186   1.791   6.192  0.0303 -1.0035 -0.4767
28114TIP3   OH285223   5.126   4.469   2.913  0.7609 -0.1923  0.1329
28114TIP3    H185224   5.035   4.452   2.937  1.6346 -2.1516  2.5059
28114TIP3    H285225   5.146   4.552   2.955  0.4050 -0.3747  0.6840
28115TIP3   OH285226   5.696   4.171   2.602 -0.1180  0.2566  0.5139
28115TIP3    H185227   5.719   4.222   2.680  0.6004 -0.6266  0.8872
28115TIP3    H285228   5.605   4.144   2.617 -0.0316  0.2207  0.9739
28116TIP3   OH285229   7.284   6.121   8.137 -0.0847  0.1740  0.2191
28116TIP3    H185230   7.271   6.029   8.118  0.0037 -0.0014  0.9761
28116TIP3    H285231   7.285   6.164   8.052 -1.1240 -0.3869 -0.0827
28117TIP3   OH285232   6.382   9.266   3.300 -0.2530 -0.3266  0.3080
28117TIP3    H185233   6.462   9.254   3.248 -0.0006  1.2797  0.2768
28117TIP3    H285234   6.401   9.340   3.358 -1.8340  0.3707  0.0106
28118TIP3   OH285235   1.574   4.240   1.244 -0.5760  0.0302  0.6966
28118TIP3    H185236   1.512   4.227   1.316  0.2633 -0.3035  1.3797
28118TIP3    H285237   1.659   4.213   1.280 -0.2603 -0.9054 -0.6719
28119TIP3   OH285238   3.187   7.877   2.008 -0.3250 -0.1606 -0.2297
28119TIP3    H185239   3.203   7.831   1.925  0.7798  1.4320 -0.9505
28119TIP3    H285240   3.127   7.820   2.056 -2.3313 -0.3991 -2.7977
28120TIP3   OH285241   8.980   6.816  10.354 -0.2131  0.1116  0.1717
28120TIP3    H185242   9.036   6.818  10.432 -0.9081  0.6793  0.6681
28120TIP3    H285243   9.036   6.780  10.285  0.7241  0.5564  0.6860
28121TIP3   OH285244   8.516   9.864   9.046 -0.0299 -0.1975 -0.1283
28121TIP3    H185245   8.549   9.915   9.119  1.4054 -0.9518 -0.2150
28121TIP3    H285246   8.455   9.801   9.086  0.0526 -0.0124  0.2909
28122TIP3   OH285247   2.841   7.430   9.246  0.3532  0.1236 -0.6373
28122TIP3    H185248   2.826   7.341   9.275  0.4152  0.6804  1.2456
28122TIP3    H285249   2.836   7.426   9.150 -0.3278 -1.7456 -0.5532
28123TIP3   OH285250   2.845   0.787   3.319 -0.6223  0.4262  0.9475
28123TIP3    H185251   2.894   0.719   3.273  0.0327  1.3931  0.1933
28123TIP3    H285252   2.809   0.742   3.396 -1.3304 -1.1004 -0.2249
28124TIP3   OH285253   0.708   4.313   9.858 -0.0130 -0.6579 -0.4653
28124TIP3    H185254   0.740   4.229   9.826  0.7898 -0.1312 -1.0832
28124TIP3    H285255   0.784   4.355   9.898 -0.5549 -0.4847  0.4183
28125TIP3   OH285256   1.302   5.686   1.486  0.7194 -0.2234 -0.1811
28125TIP3    H185257   1.366   5.758   1.486  0.5846 -0.0781  1.0207
28125TIP3    H285258   1.306   5.651   1.575 -0.5644 -0.4919 -0.2116
28126TIP3   OH285259   8.796   8.772   3.000 -0.1595 -0.4555 -0.2106
28126TIP3    H185260   8.824   8.854   2.959  0.1112 -0.4211  0.0368
28126TIP3    H285261   8.762   8.719   2.928 -1.3600  0.2960 -0.2268
28127TIP3   OH285262   7.017   0.537  10.705 -0.3501  0.3261 -1.5160
28127TIP3    H185263   7.014   0.612  10.646 -0.6066  0.0757 -1.8269
28127TIP3    H285264   7.042   0.463  10.649 -0.0185  0.1949 -1.1966
28128TIP3   OH285265   2.792   0.881   4.419 -0.2919 -0.5669  0.2217
28128TIP3    H185266   2.758   0.896   4.507 -0.3824 -2.1435  0.4764
28128TIP3    H285267   2.720   0.838   4.372  0.2170 -0.9451 -0.2232
28129TIP3   OH285268   8.302   6.342   3.529  0.6200  0.3572  0.2144
28129TIP3    H185269   8.238   6.407   3.560  1.0052  0.1854  1.4261
28129TIP3    H285270   8.330   6.375   3.444 -1.4494  0.1828 -0.5970
28130TIP3   OH285271   3.913   0.487  10.358  0.0867  0.2732 -0.0397
28130TIP3    H185272   3.996   0.469  10.401  0.2454  0.4285 -0.2773
28130TIP3    H285273   3.860   0.530  10.425 -0.7550 -2.1092  0.9389
28131TIP3   OH285274   8.316   0.320  10.379  0.4192 -0.0639  0.9284
28131TIP3    H185275   8.320   0.230  10.347  1.1002  0.2520  0.0756
28131TIP3    H285276   8.237   0.357  10.338 -0.0484 -0.3612  1.5466
28132TIP3   OH285277   0.882   3.592   1.455 -0.5146  0.0547  0.2136
28132TIP3    H185278   0.849   3.649   1.386 -0.9325 -2.5829 -1.9187
28132TIP3    H285279   0.977   3.600   1.450 -0.5805  1.6077  0.9459
28133TIP3   OH285280   7.378   4.382   8.177 -0.4787  1.2194 -0.3020
28133TIP3    H185281   7.289   4.387   8.214 -0.1802  0.2116  0.5947
28133TIP3    H285282   7.431   4.437   8.235 -0.4217  1.4412 -0.5629
28134TIP3   OH285283   4.500   2.528   9.323  0.0733  0.4269 -0.0934
28134TIP3    H185284   4.596   2.535   9.328  0.0798 -0.2116  1.0581
28134TIP3    H285285   4.468   2.596   9.381 -0.1517  0.2232  0.0231
28135TIP3   OH285286   4.251   7.319   4.808  0.0717  0.1637 -0.0883
28135TIP3    H185287   4.166   7.293   4.771 -1.3185  2.1623  1.4789
28135TIP3    H285288   4.234   7.329   4.901  2.1143  0.4407  0.2897
28136TIP3   OH285289   9.772   9.192   4.423  0.8329  0.6430 -0.7962
28136TIP3    H185290   9.769   9.247   4.345  3.6679  2.4178  0.1924
28136TIP3    H285291   9.733   9.244   4.492 -0.5831 -0.4534 -0.7284
28137TIP3   OH285292   6.044   5.040   1.752 -0.0114  0.1212 -0.2338
28137TIP3    H185293   5.986   5.088   1.692  1.9562  0.9775 -1.5836
28137TIP3    H285294   6.036   4.949   1.726  0.6538  0.4592 -1.7354
28138TIP3   OH285295  10.113   5.008   9.157 -0.0417  0.0885 -0.4803
28138TIP3    H185296  10.125   4.964   9.073 -0.0848  1.6542 -1.3427
28138TIP3    H285297  10.175   4.964   9.215  2.1132  0.8215 -2.0747
28139TIP3   OH285298   5.081   8.329   2.718  0.3236  0.6212 -0.3554
28139TIP3    H185299   5.038   8.281   2.647  0.0950  0.4641 -0.1137
28139TIP3    H285300   5.027   8.310   2.795  0.6217  0.7158 -0.1234
28140TIP3   OH285301   4.661   5.557   1.414 -0.4752  0.0995 -0.2612
28140TIP3    H185302   4.616   5.551   1.498 -0.5347  0.3320 -0.2758
28140TIP3    H285303   4.714   5.477   1.409  0.6590  0.7653  0.6482
28141TIP3   OH285304   2.787  10.609  10.267 -0.0736  0.5021  0.1604
28141TIP3    H185305   2.872  10.641  10.296 -0.7294  3.4601 -0.8179
28141TIP3    H285306   2.788  10.620  10.172 -1.8650  1.5467  0.2219
28142TIP3   OH285307   3.077   1.119   4.547  0.4869  0.1757  0.0132
28142TIP3    H185308   3.033   1.144   4.466 -0.6831 -1.3832  0.1072
28142TIP3    H285309   3.129   1.042   4.524  1.4500  0.6927  0.3995
28143TIP3   OH285310   4.314   5.347   3.918  0.1574 -0.0676  0.5832
28143TIP3    H185311   4.288   5.273   3.973  2.6596 -0.4431  1.3971
28143TIP3    H285312   4.391   5.315   3.871  0.9152  1.8026  0.4630
28144TIP3   OH285313   5.659   7.798   9.954 -0.0255 -0.0485  0.5431
28144TIP3    H185314   5.747   7.812   9.919 -0.2941 -1.7352 -0.9688
28144TIP3    H285315   5.670   7.801  10.049  1.8991 -1.2872  0.4228
28145TIP3   OH285316  10.817   9.647   8.636  0.2305 -0.3303  0.0580
28145TIP3    H185317  10.843   9.574   8.580  0.5693 -0.2689  0.1293
28145TIP3    H285318  10.821   9.612   8.725  1.0918 -0.0352  0.1483
28146TIP3   OH285319   1.857   7.975   0.035 -0.2127  0.3866  0.2740
28146TIP3    H185320   1.946   7.970   0.070  0.1942 -1.5864 -0.8869
28146TIP3    H285321   1.868   8.012  -0.052 -0.7889  1.8609  0.7945
28147TIP3   OH285322   1.287   7.317   0.207 -0.6911  0.0101 -0.1719
28147TIP3    H185323   1.207   7.362   0.179 -0.7465 -0.6997 -1.2140
28147TIP3    H285324   1.270   7.225   0.189  0.3448 -0.1467 -0.3914
28148TIP3   OH285325   0.206   8.506   3.509 -0.4251  0.3617  0.1225
28148TIP3    H185326   0.192   8.502   3.604  1.5137 -3.1015  0.4471
28148TIP3    H285327   0.141   8.445   3.473 -0.2344  0.6058 -0.6547
28149TIP3   OH285328   1.503   5.852   7.549  0.2318  0.4245  0.0370
28149TIP3    H185329   1.511   5.867   7.643  0.3064  0.8103 -0.0288
28149TIP3    H285330   1.590   5.822   7.522  0.4544  1.1343 -0.0536
28150TIP3   OH285331   1.140   9.302   5.609  0.5948 -0.4454  0.1640
28150TIP3    H185332   1.235   9.313   5.615  0.3045  2.7168  0.4764
28150TIP3    H285333   1.120   9.313   5.516  0.4069  0.5740  0.3148
28151TIP3   OH285334   0.160   5.642   0.366  0.5892  0.5471  0.0309
28151TIP3    H185335   0.206   5.558   0.363  2.4104  1.4809 -0.1333
28151TIP3    H285336   0.080   5.628   0.316  1.3866 -0.7918 -0.9390
28152TIP3   OH285337   0.813  10.657   6.359 -0.2370  0.0385  0.0082
28152TIP3    H185338   0.726  10.671   6.321  0.0289 -0.1341 -0.6857
28152TIP3    H285339   0.831  10.737   6.408 -1.1944 -0.3253  0.9702
28153TIP3   OH285340   1.229  10.492   4.304  0.0115 -0.1361  0.3440
28153TIP3    H185341   1.191  10.578   4.286  0.7259  0.3093  0.8677
28153TIP3    H285342   1.237  10.489   4.399  1.2042 -0.2270  0.2654
28154TIP3   OH285343   0.446   2.914   1.834 -0.0469 -0.0613  0.1943
28154TIP3    H185344   0.442   2.998   1.788  0.5740  0.1074  0.4338
28154TIP3    H285345   0.391   2.926   1.911 -1.0015 -0.3089 -0.4377
28155TIP3   OH285346   8.071   0.596   1.344  0.0545  0.5505 -0.4452
28155TIP3    H185347   8.111   0.556   1.422 -1.6792  0.1739  0.2992
28155TIP3    H285348   8.105   0.685   1.343 -1.7370  1.4114  2.2519
28156TIP3   OH285349   3.011  10.531   8.658 -0.0918 -0.1122  0.4193
28156TIP3    H185350   3.092  10.529   8.710  0.5727 -0.5341 -0.5931
28156TIP3    H285351   3.030  10.476   8.582 -0.9120  0.7521 -0.4520
28157TIP3   OH285352   7.615   6.571   2.832 -0.3285  0.2376  0.3139
28157TIP3    H185353   7.585   6.660   2.850 -0.0782  0.1326  1.3246
28157TIP3    H285354   7.552   6.514   2.875  0.9012  0.0010  1.9118
28158TIP3   OH285355  10.590   1.064   3.534 -0.1875 -0.5586  0.4708
28158TIP3    H185356  10.605   1.155   3.507  0.6194 -0.8935 -0.2390
28158TIP3    H285357  10.503   1.065   3.574  0.0355  0.6355  0.9728
28159TIP3   OH285358   1.269  10.738   1.687  0.3561  0.1233 -0.7017
28159TIP3    H185359   1.353  10.701   1.715 -0.1246 -0.3387  0.1825
28159TIP3    H285360   1.288  10.829   1.667  0.6389  0.6944  1.8022
28160TIP3   OH285361   8.219   1.991   8.129 -0.2682 -0.0829  0.3714
28160TIP3    H185362   8.131   1.955   8.129 -1.5625  2.7438 -1.5046
28160TIP3    H285363   8.273   1.922   8.091 -2.1291 -1.0576 -0.6473
28161TIP3   OH285364   1.235   8.057   9.937  0.1003 -0.2377 -0.1576
28161TIP3    H185365   1.280   7.972   9.931 -1.2945 -0.9125 -2.3641
28161TIP3    H285366   1.245   8.095   9.850 -1.3005  0.7887  0.0977
28162TIP3   OH285367   2.904   4.338   6.066 -0.1520 -0.3364  0.0360
28162TIP3    H185368   2.904   4.244   6.083  0.7031 -0.1608  1.0872
28162TIP3    H285369   2.954   4.348   5.985  0.8621 -0.6854  0.6064
28163TIP3   OH285370   2.804   2.468   9.117  0.1781  0.2532  0.2390
28163TIP3    H185371   2.711   2.481   9.135  0.2470  0.4425  0.4598
28163TIP3    H285372   2.806   2.432   9.028 -0.2091 -1.4541  0.8816
28164TIP3   OH285373   7.559   6.638   2.540  0.1183 -0.4069  0.2139
28164TIP3    H185374   7.495   6.677   2.599  0.3244 -1.8542  1.4752
28164TIP3    H285375   7.514   6.562   2.502 -0.6976  1.5426 -3.1250
28165TIP3   OH285376   2.105   4.566   8.955 -0.7940  0.1676 -0.6828
28165TIP3    H185377   2.093   4.570   9.050 -2.0358  1.1876 -0.8579
28165TIP3    H285378   2.048   4.494   8.927 -0.7025  0.0971 -0.6868
28166TIP3   OH285379   2.801   5.421   5.994 -0.3737 -0.3284  0.0917
28166TIP3    H185380   2.815   5.441   5.902  0.5010  1.1591  0.5118
28166TIP3    H285381   2.881   5.376   6.022 -0.4677 -0.4176  0.2236
28167TIP3   OH285382   2.439   7.738   9.576 -0.1630 -0.2287 -0.1253
28167TIP3    H185383   2.429   7.681   9.499 -0.3629 -0.5842  0.1569
28167TIP3    H285384   2.406   7.823   9.547 -3.4100 -1.1375  0.4865
28168TIP3   OH285385   6.667   0.697   2.674  0.4279  0.3683  0.4239
28168TIP3    H185386   6.732   0.640   2.632  1.6697  0.8209  1.6677
28168TIP3    H285387   6.673   0.676   2.767 -0.4019  1.2415  0.6916
28169TIP3   OH285388   9.483   4.601   2.484  0.3987 -0.1153  0.0714
28169TIP3    H185389   9.410   4.632   2.431 -0.0814 -0.2250  0.6686
28169TIP3    H285390   9.496   4.510   2.456  0.8753  0.1614 -0.6475
28170TIP3   OH285391   2.596   9.514   8.596  0.3267 -0.7488 -0.6247
28170TIP3    H185392   2.630   9.560   8.519 -1.1020  0.0981 -0.7692
28170TIP3    H285393   2.662   9.530   8.664  0.8378 -0.2100 -1.2311
28171TIP3   OH285394   9.505   0.476   3.478 -0.1268  0.2600  0.5726
28171TIP3    H185395   9.590   0.496   3.518 -0.5286 -1.4058  2.3845
28171TIP3    H285396   9.482   0.389   3.510 -2.5234  0.6417  0.1253
28172TIP3   OH285397   2.322   1.086   7.447 -0.1283 -0.3595  0.6709
28172TIP3    H185398   2.284   1.142   7.380 -0.1122 -2.2247 -0.9902
28172TIP3    H285399   2.293   0.997   7.425  0.8231 -1.1971  2.4722
28173TIP3   OH285400   8.032   0.056  10.155  0.3801  0.0965  0.0187
28173TIP3    H185401   8.109   0.094  10.112  1.0532  0.0213  1.1218
28173TIP3    H285402   8.001   0.124  10.215  1.3052 -0.8618  1.6549
28174TIP3   OH285403   5.073   0.599   7.508  0.1729 -0.3913 -0.3855
28174TIP3    H185404   5.064   0.518   7.558  1.7109 -2.1000 -2.6369
28174TIP3    H285405   5.158   0.590   7.464  1.0468  3.0914  0.3022
28175TIP3   OH285406   0.301   2.429   7.409  0.3462 -0.7880 -0.6062
28175TIP3    H185407   0.222   2.407   7.459  0.6623 -0.5663 -0.0091
28175TIP3    H285408   0.373   2.413   7.469  0.6027  2.3524  0.0988
28176TIP3   OH285409   3.697   1.452   6.692 -0.2298 -0.4311  0.1149
28176TIP3    H185410   3.719   1.545   6.690  1.7516 -0.8075  1.6811
28176TIP3    H285411   3.655   1.438   6.777 -1.5302 -0.7931 -0.5611
28177TIP3   OH285412   9.921   1.719   0.198 -0.0016  0.0739  0.1888
28177TIP3    H185413   9.853   1.746   0.137  0.7758  1.1408 -0.2406
28177TIP3    H285414   9.992   1.686   0.142  0.5747  0.7329  0.5062
28178TIP3   OH285415   4.829   3.011   5.501  0.0059  0.1025 -0.2924
28178TIP3    H185416   4.737   3.028   5.480 -0.6312  0.2559  2.3082
28178TIP3    H285417   4.868   3.098   5.510 -0.2091  0.0893  0.9184
28179TIP3   OH285418   9.068   5.077   8.466 -0.2504  0.4850 -0.1589
28179TIP3    H185419   8.974   5.072   8.453 -0.7916  1.2163  2.7296
28179TIP3    H285420   9.078   5.116   8.553  2.7416  1.7483 -0.9461
28180TIP3   OH285421   2.896   9.584   1.102  0.2974 -0.1413 -0.6823
28180TIP3    H185422   2.950   9.561   1.178  0.6341  1.1265 -0.5059
28180TIP3    H285423   2.955   9.575   1.027  0.0048 -1.2591 -0.7890
28181TIP3   OH285424  10.574   4.883   4.086 -0.2081  0.9762  0.2406
28181TIP3    H185425  10.652   4.863   4.034  0.0326 -1.2517  1.3392
28181TIP3    H285426  10.509   4.911   4.022  0.3862 -0.6954 -1.1742
28182TIP3   OH285427   8.080   3.523   8.745 -0.3305 -0.3032 -0.0343
28182TIP3    H185428   8.109   3.547   8.657 -1.5022 -1.6213 -0.8212
28182TIP3    H285429   8.161   3.511   8.794  0.4173 -1.1042 -1.3842
28183TIP3   OH285430   9.032  10.282   9.150  0.2171  0.4651  0.1303
28183TIP3    H185431   8.938  10.295   9.155 -0.0429 -0.3703 -1.7943
28183TIP3    H285432   9.059  10.268   9.241 -1.4735  0.7943  0.7221
28184TIP3   OH285433  10.468   4.546  10.204 -0.6485  0.6823 -0.0493
28184TIP3    H185434  10.535   4.490  10.165  0.3688  1.5604  0.3893
28184TIP3    H285435  10.419   4.488  10.262  1.3114  0.5077  1.5067
28185TIP3   OH285436   8.732   4.330  10.284  0.0564 -0.0211 -0.1796
28185TIP3    H185437   8.639   4.353  10.288 -0.2695 -1.1444 -0.8607
28185TIP3    H285438   8.749   4.312  10.192  1.1010  0.7262 -0.1462
28186TIP3   OH285439   5.217   2.796  10.608  0.0228 -0.0510  0.2708
28186TIP3    H185440   5.175   2.722  10.564  1.0001  0.0157 -0.8200
28186TIP3    H285441   5.146   2.859  10.623 -0.7332 -1.0009  0.8138
28187TIP3   OH285442  10.530   9.456   4.952  0.6801 -0.0443  0.4438
28187TIP3    H185443  10.471   9.382   4.938 -0.6581  0.9117  0.8252
28187TIP3    H285444  10.489   9.508   5.021  2.2363  0.4113  1.0872
28188TIP3   OH285445  10.046   0.580   5.973  0.0094  0.7360 -0.2823
28188TIP3    H185446  10.024   0.493   5.940 -0.9051  0.2767  1.4115
28188TIP3    H285447  10.140   0.589   5.956  1.1648 -2.3616  3.1029
28189TIP3   OH285448   8.432   9.779   1.841 -0.5357  0.1686 -0.2417
28189TIP3    H185449   8.385   9.697   1.828 -0.1042  0.1909 -2.2992
28189TIP3    H285450   8.415   9.830   1.761  0.6750  1.3173  0.1915
28190TIP3   OH285451   0.403   1.826  10.430 -0.7037  0.3860  0.5682
28190TIP3    H185452   0.335   1.894  10.431  0.8328  1.9958  1.8609
28190TIP3    H285453   0.451   1.841  10.349 -0.1110  1.1416  1.0489
28191TIP3   OH285454   2.945  10.058   3.135 -0.1773 -0.2234  0.9522
28191TIP3    H185455   3.021  10.037   3.189  0.0827  1.1416  1.1414
28191TIP3    H285456   2.968  10.024   3.048  0.4379 -0.2738  1.1307
28192TIP3   OH285457   6.454   1.598   7.295 -0.1413  0.4933  0.2647
28192TIP3    H185458   6.420   1.646   7.371 -1.7680 -0.2988  0.0826
28192TIP3    H285459   6.418   1.510   7.304  0.8298 -0.0240 -0.6708
28193TIP3   OH285460   5.627   0.282   0.926 -0.4595  0.0966  0.8084
28193TIP3    H185461   5.694   0.229   0.883  0.6800  1.3163  1.0177
28193TIP3    H285462   5.581   0.221   0.984 -0.8093 -1.1692 -0.7340
28194TIP3   OH285463   8.364   8.251   0.524  0.2759  0.0912  0.2630
28194TIP3    H185464   8.348   8.205   0.441 -0.5439  0.9591 -0.0748
28194TIP3    H285465   8.329   8.193   0.591  0.7521 -0.5228 -0.0067
28195TIP3   OH285466   7.370   0.895   3.830  0.2459  0.1807  0.6018
28195TIP3    H185467   7.412   0.976   3.801 -0.5876  0.6207  0.6129
28195TIP3    H285468   7.429   0.826   3.800 -0.0098  0.6737 -1.1519
28196TIP3   OH285469   1.781   6.805  10.845  0.0201 -0.4788 -0.3328
28196TIP3    H185470   1.778   6.740  10.775 -0.8818  1.0482 -1.7723
28196TIP3    H285471   1.873   6.834  10.848  0.0156 -0.3791 -1.0600
28197TIP3   OH285472   8.691   9.004   1.404  0.1670 -0.0726 -0.5821
28197TIP3    H185473   8.694   8.938   1.335 -2.0220  0.5066 -1.3214
28197TIP3    H285474   8.605   9.044   1.395  0.2407  0.7820  1.8269
28198TIP3   OH285475   3.372   0.587  10.667  0.0703 -0.0214  0.1846
28198TIP3    H185476   3.464   0.594  10.691  0.2503  1.4185 -0.7965
28198TIP3    H285477   3.372   0.587  10.571 -0.9538 -0.2121  0.1645
28199TIP3   OH285478   2.040  10.401   1.089 -0.0448  0.3645  0.3013
28199TIP3    H185479   2.079  10.446   1.164  1.7749 -1.7931  0.7458
28199TIP3    H285480   2.007  10.472   1.033  1.8235  2.1986  1.3855
28200TIP3   OH285481   6.705   7.322   3.799  0.6488 -0.3531 -0.7940
28200TIP3    H185482   6.625   7.370   3.819  0.2886 -1.1950 -0.1298
28200TIP3    H285483   6.767   7.388   3.771 -0.0202  0.4194 -0.4828
28201TIP3   OH285484   1.249   0.143   3.149  0.2551  0.2150 -0.9443
28201TIP3    H185485   1.293   0.153   3.234 -1.2967 -3.1319  0.4215
28201TIP3    H285486   1.156   0.156   3.168 -0.0035  0.7422 -2.4386
28202TIP3   OH285487   9.664   0.956  10.038  0.1942  0.5810 -0.3592
28202TIP3    H185488   9.688   0.885  10.096  1.4474  0.9972 -0.3457
28202TIP3    H285489   9.574   0.978  10.063 -0.0698 -0.7126 -0.1037
28203TIP3   OH285490   4.141   0.864   5.567  0.2521  0.1042  0.1703
28203TIP3    H185491   4.166   0.939   5.513  0.1108 -0.1897 -0.3118
28203TIP3    H285492   4.124   0.794   5.504 -2.5403  0.4704  0.3899
28204TIP3   OH285493   6.055   0.239   1.886  0.0629  0.0792  0.3259
28204TIP3    H185494   5.991   0.276   1.826  0.7975 -0.3800 -0.7620
28204TIP3    H285495   6.137   0.235   1.836  0.8878  0.4014  1.5973
28205TIP3   OH285496   3.519   4.844   8.904  0.3637  0.1006  0.4336
28205TIP3    H185497   3.448   4.904   8.884 -0.1280  0.0548  1.9420
28205TIP3    H285498   3.598   4.891   8.878 -0.1491  0.4722 -0.5029
28206TIP3   OH285499   4.334   9.488   4.031 -0.6257  0.1806  0.2088
28206TIP3    H185500   4.318   9.397   4.004 -1.6425  0.7706 -1.3273
28206TIP3    H285501   4.403   9.518   3.971 -1.6421  0.9690 -0.6067
28207TIP3   OH285502   8.056   6.932   3.520 -0.4359  0.1822 -0.2720
28207TIP3    H185503   8.130   6.874   3.537 -0.8156 -0.1985  0.0922
28207TIP3    H285504   8.034   6.917   3.428  0.4449  0.8878 -0.6103
28208TIP3   OH285505   5.193   5.251   6.844 -0.6728 -0.1119  0.0814
28208TIP3    H185506   5.270   5.295   6.807 -0.0900  0.2461  1.6260
28208TIP3    H285507   5.156   5.202   6.771 -0.2483  1.4427 -1.2491
28209TIP3   OH285508   6.509   3.010   1.506  0.2073 -0.4296 -0.0774
28209TIP3    H185509   6.568   3.084   1.494  0.0006  0.0707  1.7440
28209TIP3    H285510   6.453   3.011   1.428  0.8656  0.7086 -0.5545
28210TIP3   OH285511   9.840   9.810   4.075 -0.1539 -0.0785  0.3579
28210TIP3    H185512   9.857   9.868   4.148  1.3386  0.4731 -0.3891
28210TIP3    H285513   9.837   9.867   3.998 -1.3562 -0.6804 -0.0652
28211TIP3   OH285514   4.963   0.060  10.521 -0.3578  0.6497 -0.3834
28211TIP3    H185515   4.926   0.044  10.608 -0.3988  1.8771 -0.1534
28211TIP3    H285516   4.974   0.155  10.517  1.0425  0.4858 -1.1500
28212TIP3   OH285517  10.654   1.069   3.929 -0.0725 -0.3311 -0.3084
28212TIP3    H185518  10.687   1.038   3.844  0.0615  0.3336 -0.5064
28212TIP3    H285519  10.704   1.020   3.993 -0.6975 -1.3996 -0.5994
28213TIP3   OH285520   0.776   5.076  10.869 -0.4144 -0.0446  0.2616
28213TIP3    H185521   0.828   5.128  10.808  0.1803  1.1857  1.7585
28213TIP3    H285522   0.693   5.062  10.824  1.1711 -2.2489 -2.3008
28214TIP3   OH285523  10.240   2.020  10.355 -0.1172 -0.1143 -0.4427
28214TIP3    H185524  10.272   2.009  10.265 -1.7543 -2.4995 -0.8186
28214TIP3    H285525  10.145   2.024  10.347 -0.2595  0.4118  1.1367
28215TIP3   OH285526   4.039   4.362   2.836 -0.1592  0.1371 -0.4874
28215TIP3    H185527   4.069   4.271   2.840  0.9666  0.4632 -1.2701
28215TIP3    H285528   4.053   4.395   2.925  0.5018 -0.1237 -0.4861
28216TIP3   OH285529   4.055   7.323   4.238 -0.1308 -0.0121 -0.2137
28216TIP3    H185530   3.972   7.281   4.258 -0.0378  0.5578  1.4861
28216TIP3    H285531   4.122   7.263   4.271  0.0081  1.2917  2.0582
28217TIP3   OH285532  10.230   2.996   9.542  0.3209  0.1339  1.0449
28217TIP3    H185533  10.283   2.961   9.614  2.3492 -0.3298 -0.5920
28217TIP3    H285534  10.274   3.076   9.516  0.7803 -0.7004 -0.9104
28218TIP3   OH285535   0.038   9.506   6.411  0.0108  0.1381 -0.3091
28218TIP3    H185536   0.089   9.492   6.331 -0.6412 -0.4036 -0.6372
28218TIP3    H285537   0.103   9.529   6.477  0.3853  3.1196 -1.5415
28219TIP3   OH285538   1.589   0.718   4.767  0.1589 -0.2735  0.0198
28219TIP3    H185539   1.556   0.737   4.855  0.3155  1.1227 -0.1965
28219TIP3    H285540   1.622   0.802   4.735  1.7609 -1.1267 -0.6989
28220TIP3   OH285541  10.453   9.106  10.358 -0.4318  0.1626  0.2875
28220TIP3    H185542  10.451   9.068  10.270 -1.0279 -1.0870  0.8159
28220TIP3    H285543  10.547   9.110  10.380 -0.1328  2.3839 -1.1560
28221TIP3   OH285544   8.836   0.052   6.611  0.1957  0.1209  0.3005
28221TIP3    H185545   8.824   0.119   6.544  1.8057  0.8407  0.6793
28221TIP3    H285546   8.928   0.061   6.637 -0.2908 -0.3720  2.3492
28222TIP3   OH285547   5.186   7.440  10.612 -0.2819 -0.2605  0.2580
28222TIP3    H185548   5.154   7.519  10.570 -1.5845 -1.2195 -0.6227
28222TIP3    H285549   5.172   7.371  10.548  0.1143 -1.3346  1.2917
28223TIP3   OH285550   6.072   7.753   9.496  0.2895 -0.3112  0.2929
28223TIP3    H185551   6.093   7.672   9.450 -1.9933 -0.9817  0.3161
28223TIP3    H285552   6.155   7.782   9.533  1.1646 -2.6523  0.3087
28224TIP3   OH285553   6.991   4.938   8.516  0.1203  0.5800 -0.7252
28224TIP3    H185554   7.026   4.970   8.599  0.5998 -0.5163 -0.4986
28224TIP3    H285555   6.925   4.873   8.541 -0.0656  0.5820 -1.1997
28225TIP3   OH285556   2.751   6.241   0.978  0.1882 -0.1600 -0.6600
28225TIP3    H185557   2.721   6.240   1.069  1.0823  1.1657 -0.3296
28225TIP3    H285558   2.803   6.321   0.971 -0.7751  0.3445 -2.6300
28226TIP3   OH285559   3.074   7.824   4.690 -0.0001  0.8607  0.3681
28226TIP3    H185560   3.039   7.838   4.778  0.3984  1.0865  0.4959
28226TIP3    H285561   3.139   7.755   4.700  1.7480  2.4603  0.7203
28227TIP3   OH285562   9.710   6.999   2.011  0.3628 -0.1564  0.3688
28227TIP3    H185563   9.625   6.985   2.053  0.1398 -0.6452 -0.2299
28227TIP3    H285564   9.756   6.917   2.025  0.5641 -0.0572  0.2815
28228TIP3   OH285565   0.870   7.417   4.231 -0.0410 -0.1247 -0.0939
28228TIP3    H185566   0.885   7.463   4.314  3.4069  1.1208 -1.2244
28228TIP3    H285567   0.794   7.461   4.193 -1.1312 -0.1236  1.9260
28229TIP3   OH285568   0.241   6.259   1.356 -1.0478 -0.0544  0.1478
28229TIP3    H185569   0.318   6.207   1.378 -1.0821  0.5816  1.9038
28229TIP3    H285570   0.209   6.220   1.275 -2.0543 -3.9606  2.1477
28230TIP3   OH285571   4.488   8.741   1.841  0.2314  0.3027  0.0051
28230TIP3    H185572   4.579   8.716   1.828 -0.0566 -1.5229  1.1949
28230TIP3    H285573   4.473   8.730   1.935 -2.1601 -3.2223 -0.5759
28231TIP3   OH285574   6.288   5.377   3.782 -0.5510  0.5028 -0.3535
28231TIP3    H185575   6.223   5.364   3.713 -1.5800 -1.9171  0.9395
28231TIP3    H285576   6.251   5.444   3.839 -1.3878 -0.0306 -0.2584
28232TIP3   OH285577   5.652   6.474   0.300 -0.0376 -0.1776  0.0375
28232TIP3    H185578   5.603   6.523   0.234  1.2061  2.0763  0.6790
28232TIP3    H285579   5.586   6.422   0.346 -1.2591  0.0531 -1.3821
28233TIP3   OH285580   5.004   0.416   9.669 -0.1164 -0.5323 -0.1916
28233TIP3    H185581   4.966   0.414   9.757  2.1507  0.6743  0.9084
28233TIP3    H285582   4.954   0.351   9.620 -2.0989 -0.5654  1.6932
28234TIP3   OH285583   7.994   2.045   7.148 -0.2680 -0.1479  0.3652
28234TIP3    H185584   8.051   1.989   7.201  1.3085  0.0905 -0.9995
28234TIP3    H285585   7.993   2.004   7.062  0.2544  1.4293 -0.4362
28235TIP3   OH285586   1.479   9.172   6.511 -0.5971 -0.2282  0.3625
28235TIP3    H185587   1.417   9.161   6.583 -3.3655  0.9019 -1.6718
28235TIP3    H285588   1.457   9.103   6.449  0.5934 -0.1668 -0.1589
28236TIP3   OH285589   7.011   4.966  10.115 -0.3493 -0.3111 -0.2419
28236TIP3    H185590   7.001   4.900  10.184 -0.1018 -0.6980 -0.5729
28236TIP3    H285591   7.085   5.020  10.142 -1.1195  0.4186  0.4951
28237TIP3   OH285592   9.233   3.405   6.471 -0.0015 -0.1751 -0.0160
28237TIP3    H185593   9.231   3.442   6.383 -2.4486  1.6804  0.7015
28237TIP3    H285594   9.273   3.473   6.525 -1.3851  0.0641  0.7634
28238TIP3   OH285595   5.394   0.171   6.189 -0.0544 -0.2823 -0.0853
28238TIP3    H185596   5.369   0.096   6.242  0.3610  1.0758  2.1756
28238TIP3    H285597   5.369   0.247   6.242  1.5872  1.1510 -1.2648
28239TIP3   OH285598   1.329  10.622   4.034 -0.0167 -0.6668  0.1056
28239TIP3    H185599   1.248  10.573   4.019 -0.6989  0.5874 -0.4857
28239TIP3    H285600   1.371  10.627   3.948  0.0454 -0.2199  0.1567
28240TIP3   OH285601   0.610   5.292   0.063 -0.0078 -0.0771 -0.3412
28240TIP3    H185602   0.585   5.288   0.155 -1.6944  0.2860 -0.7484
28240TIP3    H285603   0.668   5.216   0.050 -0.6204 -0.7491  0.7659
28241TIP3   OH285604  10.284   7.119   5.176  0.4419 -0.0471 -0.0219
28241TIP3    H185605  10.294   7.213   5.158 -0.5456 -0.1634 -1.3938
28241TIP3    H285606  10.320   7.076   5.098  3.4007 -0.9634  1.7140
28242TIP3   OH285607   9.841   6.354   7.272 -0.1051 -0.4919 -0.0956
28242TIP3    H185608   9.813   6.268   7.240  0.5673 -1.1446  0.9950
28242TIP3    H285609   9.937   6.346   7.280  0.2195  1.0627 -1.9650
28243TIP3   OH285610   6.194  10.296   7.630  0.2312  0.2450  0.2665
28243TIP3    H185611   6.187  10.370   7.570 -0.5445 -0.5780 -0.7015
28243TIP3    H285612   6.210  10.221   7.573  0.7114 -0.3771  1.2031
28244TIP3   OH285613   7.370   4.480   3.543  1.0237  0.1998 -0.3700
28244TIP3    H185614   7.408   4.412   3.487  1.7216  1.4902 -1.5138
28244TIP3    H285615   7.346   4.433   3.623  0.0669 -1.6912 -1.6722
28245TIP3   OH285616   9.200   8.063   1.746  0.2109  0.0182 -0.0021
28245TIP3    H185617   9.121   8.116   1.750  0.2805  0.2231 -1.0411
28245TIP3    H285618   9.271   8.128   1.741  0.6452 -0.0934  2.7959
28246TIP3   OH285619   5.876  10.000   1.078  0.0095 -0.1848 -0.0303
28246TIP3    H185620   5.841  10.086   1.057  0.7133  0.3171  0.8097
28246TIP3    H285621   5.899  10.005   1.171  0.6170 -1.0803 -0.1200
28247TIP3   OH285622   6.877   5.842   5.080 -0.3268 -0.7154  0.4912
28247TIP3    H185623   6.841   5.803   5.000  0.8624 -1.7671  0.4486
28247TIP3    H285624   6.919   5.923   5.050  1.0495 -1.6386 -0.1484
28248TIP3   OH285625   3.256  10.156  10.082 -1.1210  0.0514  0.1186
28248TIP3    H185626   3.224  10.207  10.156 -2.0726  0.9555 -0.8748
28248TIP3    H285627   3.267  10.219  10.011  1.3081 -0.5154 -0.1036
28249TIP3   OH285628   6.770   0.447   3.603  0.5963 -0.5615  0.3145
28249TIP3    H185629   6.778   0.390   3.679 -1.3558 -0.9983  0.2563
28249TIP3    H285630   6.676   0.464   3.596  0.8944  0.7569 -1.0717
28250TIP3   OH285631  10.783   0.238   0.416 -0.1123  0.3628 -0.1812
28250TIP3    H185632  10.747   0.315   0.459  0.1223 -0.2343  1.1104
28250TIP3    H285633  10.777   0.258   0.322  0.5768  2.2145  0.1411
28251TIP3   OH285634   1.004   0.707   7.372  0.5225 -0.1624  0.1464
28251TIP3    H185635   0.918   0.739   7.400  1.1745  1.8466  0.0096
28251TIP3    H285636   1.058   0.710   7.451  1.1784  1.2925 -0.3144
28252TIP3   OH285637   5.298   7.139   9.952 -0.1501 -0.0114 -0.3378
28252TIP3    H185638   5.299   7.043   9.946 -0.5415 -0.0488  0.1128
28252TIP3    H285639   5.346   7.168   9.875  0.5575 -0.5869 -0.1232
28253TIP3   OH285640   4.826   6.950   0.542 -0.0913 -0.0110  0.2377
28253TIP3    H185641   4.781   7.000   0.473  1.2462  0.4041 -0.3523
28253TIP3    H285642   4.904   7.001   0.562  1.3466 -1.8600 -0.4254
28254TIP3   OH285643   6.851   3.328   5.346  0.3964  0.8604  0.1566
28254TIP3    H185644   6.849   3.424   5.347 -2.4896  0.9034 -0.9767
28254TIP3    H285645   6.832   3.303   5.437  2.2802  1.2882  0.7136
28255TIP3   OH285646   1.358   0.303  10.237  0.2950  0.0313  0.0477
28255TIP3    H185647   1.381   0.388  10.275 -0.6142  0.6559 -0.7630
28255TIP3    H285648   1.441   0.255  10.233  0.6691  0.5358  1.3366
28256TIP3   OH285649   2.138   4.124   5.353 -0.3206 -0.2658  0.3184
28256TIP3    H185650   2.076   4.056   5.379 -0.4056  0.4774  2.2329
28256TIP3    H285651   2.132   4.190   5.422  0.2007  1.4147 -1.1789
28257TIP3   OH285652   2.223   4.757   4.140  0.3378 -0.7368  1.0333
28257TIP3    H185653   2.239   4.725   4.229  0.5605 -1.6641  0.6736
28257TIP3    H285654   2.227   4.678   4.086  2.2851  0.0534 -0.0727
28258TIP3   OH285655   5.405   4.389   3.274  0.3720  0.6420 -0.0804
28258TIP3    H185656   5.311   4.388   3.290  0.8476  1.0319  3.3744
28258TIP3    H285657   5.433   4.299   3.285  0.5752  0.7204  0.0521
28259TIP3   OH285658   7.441  10.666   0.343  0.2439  0.0481  0.7368
28259TIP3    H185659   7.480  10.630   0.264  0.5925 -2.7083  2.0365
28259TIP3    H285660   7.512  10.718   0.382  0.2255  1.0083 -0.4400
28260TIP3   OH285661   5.567   5.036   4.657 -0.4350 -0.8033  0.8009
28260TIP3    H185662   5.593   5.116   4.703  1.0018 -1.0131  0.3887
28260TIP3    H285663   5.569   4.968   4.724 -3.8445 -0.2176  1.7177
28261TIP3   OH285664   8.262   1.999   5.734 -0.1080 -0.3380  0.2239
28261TIP3    H185665   8.317   1.926   5.702 -1.7299 -0.8545 -1.5709
28261TIP3    H285666   8.259   2.060   5.661 -1.8912 -0.3212  0.2849
28262TIP3   OH285667   0.747   8.149   8.919  0.3808 -0.4949 -0.2925
28262TIP3    H185668   0.834   8.115   8.937 -0.0506 -0.5536  1.8877
28262TIP3    H285669   0.710   8.168   9.005 -1.8961 -0.7783 -1.1537
28263TIP3   OH285670  10.902   6.128   2.041  0.1455  0.4731  0.4321
28263TIP3    H185671  10.984   6.164   2.008 -0.8022  1.4662 -1.0033
28263TIP3    H285672  10.852   6.106   1.961 -0.0908 -2.3345  1.2298
28264TIP3   OH285673   5.388   3.971   0.166 -0.3154  0.3404 -0.5626
28264TIP3    H185674   5.391   4.027   0.089 -2.1936 -0.8451 -1.5845
28264TIP3    H285675   5.396   3.882   0.131 -1.3243 -0.2298  0.5721
28265TIP3   OH285676   4.471   3.843  10.650 -0.3674  0.3553 -0.0847
28265TIP3    H185677   4.376   3.850  10.652 -0.4573  0.2799 -1.9021
28265TIP3    H285678   4.488   3.749  10.642 -0.0399  0.1906  2.1451
28266TIP3   OH285679   7.994   2.891   7.530  0.4070 -0.2995 -0.3107
28266TIP3    H185680   8.046   2.935   7.598 -0.5566  0.1365  0.1652
28266TIP3    H285681   8.006   2.798   7.548  1.4298 -0.2322 -0.5350
28267TIP3   OH285682   6.032   0.530   4.866 -0.6286 -0.4818 -0.3191
28267TIP3    H185683   6.107   0.476   4.841 -0.3041 -0.7084  1.0304
28267TIP3    H285684   5.961   0.467   4.879 -0.3946 -0.5470  0.7314
28268TIP3   OH285685   5.217   4.832   7.350  0.6585  0.0302 -0.2635
28268TIP3    H185686   5.195   4.825   7.443  1.6410  1.4572  0.1171
28268TIP3    H285687   5.142   4.876   7.311  1.1541  1.4970  0.3257
28269TIP3   OH285688   4.389   9.672   1.878 -0.5868  0.1469  0.0816
28269TIP3    H185689   4.386   9.598   1.818  0.6117  1.6124 -1.9506
28269TIP3    H285690   4.482   9.697   1.880 -1.0023  1.7884  0.3941
28270TIP3   OH285691   7.944   7.861   6.485 -0.5560 -0.4162 -0.1225
28270TIP3    H185692   8.028   7.887   6.524 -0.9980  3.1955 -1.1902
28270TIP3    H285693   7.968   7.816   6.404  0.3399 -0.7377  0.3059
28271TIP3   OH285694   5.895   7.413   8.491 -0.2351  0.2664 -0.2600
28271TIP3    H185695   5.826   7.448   8.434  1.3810  1.6144 -1.4964
28271TIP3    H285696   5.921   7.331   8.450  1.1357  1.3800 -1.7468
28272TIP3   OH285697  10.649   2.768   8.552  0.1755  0.0407  0.4562
28272TIP3    H185698  10.658   2.829   8.478  1.1638 -0.9409 -0.2520
28272TIP3    H285699  10.603   2.692   8.514  0.2485 -0.2640  0.9794
28273TIP3   OH285700   3.215   8.278  10.685 -0.3654 -0.2456  0.2295
28273TIP3    H185701   3.199   8.321  10.769  0.6640 -0.1185  0.3712
28273TIP3    H285702   3.217   8.184  10.706  2.0536 -0.1447  0.7781
28274TIP3   OH285703   9.161   3.035   5.283  0.0615 -0.1724 -0.2971
28274TIP3    H185704   9.243   3.083   5.276  0.0387 -0.2904 -1.8533
28274TIP3    H285705   9.114   3.077   5.354  1.3063  0.1386  0.3625
28275TIP3   OH285706   8.534   6.656   1.972  0.1751 -0.6368  0.1239
28275TIP3    H185707   8.514   6.570   1.936 -0.0573 -0.5769  0.1090
28275TIP3    H285708   8.461   6.676   2.029 -1.7003  1.1389 -2.6339
28276TIP3   OH285709  10.170   8.081   2.016 -0.6326  0.7491 -0.1622
28276TIP3    H185710  10.207   8.004   1.973 -1.9050  0.6183 -1.0635
28276TIP3    H285711  10.169   8.148   1.948 -1.7309  0.8508 -0.0622
28277TIP3   OH285712   9.548   3.792   9.897 -0.5171  0.4097 -0.3410
28277TIP3    H185713   9.503   3.876   9.908  0.0689  0.7488 -0.5431
28277TIP3    H285714   9.478   3.731   9.875 -1.0305  0.7200  0.3896
28278TIP3   OH285715   9.987  10.413   3.041  0.3252  0.2308  0.3312
28278TIP3    H185716   9.908  10.361   3.030  0.1316  0.7806 -1.1577
28278TIP3    H285717   9.962  10.501   3.013  2.0074 -0.0585 -2.4300
28279TIP3   OH285718   3.854  10.587  10.528  0.9348  0.1739  0.4310
28279TIP3    H185719   3.871  10.681  10.530 -1.3246  0.7252 -1.5885
28279TIP3    H285720   3.837  10.564  10.619  0.3330  2.0049  0.8285
28280TIP3   OH285721   9.611   2.434   1.107  0.0760  0.3089  0.0223
28280TIP3    H185722   9.702   2.414   1.129 -0.2064 -0.5171  0.4990
28280TIP3    H285723   9.560   2.391   1.175 -0.6113  2.5771  1.0150
28281TIP3   OH285724   8.024   6.595   9.506  0.0459 -0.0509  0.5005
28281TIP3    H185725   7.955   6.542   9.466 -2.1740  2.1724  1.1348
28281TIP3    H285726   8.003   6.595   9.599  0.9786  0.5834  0.7235
28282TIP3   OH285727   7.038   3.645   3.054  0.1996 -0.3742  0.1370
28282TIP3    H185728   6.947   3.674   3.063  0.8620  1.5348  1.3344
28282TIP3    H285729   7.036   3.582   2.982 -1.8963  0.3593 -0.5294
28283TIP3   OH285730   1.376   1.347   9.583 -0.7277 -0.1676  0.7304
28283TIP3    H185731   1.386   1.393   9.667 -1.5380  0.5404  0.4463
28283TIP3    H285732   1.341   1.261   9.607  1.5372 -0.9938  1.3388
28284TIP3   OH285733   4.452   2.951   9.651 -0.1911  0.0589 -0.0183
28284TIP3    H185734   4.429   2.960   9.558  0.3367 -2.1103 -0.4034
28284TIP3    H285735   4.372   2.917   9.692  0.5564 -2.2604 -0.3568
28285TIP3   OH285736   0.416   6.506   2.818  0.0445 -0.4096  0.2048
28285TIP3    H185737   0.391   6.454   2.895 -1.3213  0.3271  0.2776
28285TIP3    H285738   0.422   6.596   2.851 -0.0967 -0.1559 -0.4519
28286TIP3   OH285739   8.681   2.516   7.603 -0.2192  0.3321  0.0293
28286TIP3    H185740   8.612   2.485   7.662 -0.8084 -0.6509 -1.1378
28286TIP3    H285741   8.759   2.466   7.629 -0.1615  0.7650  0.7286
28287TIP3   OH285742   2.478   6.721   2.083 -0.3797 -0.6413 -0.6049
28287TIP3    H185743   2.383   6.727   2.076 -0.3417 -0.7666 -1.3820
28287TIP3    H285744   2.509   6.724   1.992  0.3158 -1.2091 -0.4016
28288TIP3   OH285745  10.481   7.981   0.406 -0.1762  0.3827  0.6489
28288TIP3    H185746  10.496   8.032   0.485  0.2519  0.3354  0.6003
28288TIP3    H285747  10.542   8.018   0.342  0.3773 -0.4019  0.7066
28289TIP3   OH285748   3.631   2.794   6.186  0.2262 -0.2711 -0.1825
28289TIP3    H185749   3.678   2.816   6.267  0.7173  1.1863 -0.8416
28289TIP3    H285750   3.700   2.781   6.121 -0.2096  0.3767 -0.7901
28290TIP3   OH285751   2.131   2.648  10.626  0.3499  0.1031 -0.3171
28290TIP3    H185752   2.169   2.566  10.660 -0.5181 -0.0535  0.3131
28290TIP3    H285753   2.145   2.711  10.697  1.2877  0.5945 -0.9226
28291TIP3   OH285754   0.642   6.967   2.862 -0.5486 -0.5527  0.1900
28291TIP3    H185755   0.634   6.996   2.771 -1.0218 -0.7025  0.1805
28291TIP3    H285756   0.556   6.931   2.883 -1.0069  1.0485  1.2417
28292TIP3   OH285757   0.530   3.727   2.587  0.0002 -0.8624 -0.0288
28292TIP3    H185758   0.545   3.774   2.505  1.0078 -0.0633  0.5816
28292TIP3    H285759   0.591   3.768   2.649 -1.6304 -0.5778  1.4570
28293TIP3   OH285760   4.703   6.603   0.486  0.1301  0.0746 -0.6233
28293TIP3    H185761   4.652   6.682   0.504 -0.6520 -0.7293  0.9482
28293TIP3    H285762   4.638   6.533   0.480  0.9774 -1.2529  2.9994
28294TIP3   OH285763   6.698   5.848   4.836 -0.5096 -0.1331  0.5927
28294TIP3    H185764   6.704   5.803   4.752 -0.0979 -0.0069  0.5492
28294TIP3    H285765   6.667   5.936   4.813  0.4066  0.1680  0.4733
28295TIP3   OH285766   3.216   1.601   0.806 -0.4050  0.0024  0.3689
28295TIP3    H185767   3.193   1.692   0.791 -0.3295 -0.2615 -1.5614
28295TIP3    H285768   3.312   1.601   0.813 -0.4805  0.2251  1.8627
28296TIP3   OH285769   7.244   8.123   3.399  0.0279  0.4874 -0.1642
28296TIP3    H185770   7.154   8.092   3.405 -1.1278  3.2163 -1.8491
28296TIP3    H285771   7.248   8.170   3.316  3.1788  0.0691 -0.3739
28297TIP3   OH285772   6.356   9.719   9.275  0.1010  0.4011 -0.0241
28297TIP3    H185773   6.419   9.757   9.335  1.0965 -1.4825  0.2044
28297TIP3    H285774   6.271   9.732   9.317  0.6619  0.1996  1.2030
28298TIP3   OH285775   3.118   3.311   6.626  0.1377  0.0336 -0.3773
28298TIP3    H185776   3.147   3.292   6.536  1.3349  0.4606 -0.1033
28298TIP3    H285777   3.196   3.299   6.679 -0.0109  1.8105  0.3298
28299TIP3   OH285778   3.583   2.164   9.738 -0.0276  0.2464  0.4031
28299TIP3    H185779   3.657   2.220   9.716  0.3532 -0.0768  0.8465
28299TIP3    H285780   3.617   2.075   9.732  0.0048  0.1338  1.9434
28300TIP3   OH285781   3.083   6.630   3.291  0.0017 -0.5003  0.7748
28300TIP3    H185782   2.992   6.629   3.261  0.4559  1.2547 -0.8196
28300TIP3    H285783   3.114   6.541   3.273 -0.7194 -0.4467 -0.9602
28301TIP3   OH285784   8.110   4.172   8.920 -0.0629 -0.0635  0.2870
28301TIP3    H185785   8.064   4.255   8.912 -0.5355 -0.3293  0.2459
28301TIP3    H285786   8.089   4.141   9.008  0.5829  0.1374  0.5180
28302TIP3   OH285787   8.212   4.463   8.640 -0.2239 -0.1982 -0.0138
28302TIP3    H185788   8.127   4.440   8.603  0.2897 -1.3209 -0.5250
28302TIP3    H285789   8.275   4.443   8.571  0.3012  2.8556 -0.5663
28303TIP3   OH285790   0.846   1.089   7.795 -0.3829 -0.0856 -0.0200
28303TIP3    H185791   0.816   1.123   7.879  0.0387  0.3248 -0.0312
28303TIP3    H285792   0.913   1.152   7.766  0.5079 -0.9851  0.0204
28304TIP3   OH285793   5.182   3.376   8.448 -0.0625  0.5870  0.2633
28304TIP3    H185794   5.253   3.428   8.411  1.4608 -0.9023  0.9828
28304TIP3    H285795   5.105   3.403   8.399  1.2225  1.2533 -1.4982
28305TIP3   OH285796   7.427   9.509   3.122 -0.2634 -0.0703 -0.2912
28305TIP3    H185797   7.351   9.563   3.100 -1.5752 -1.8985 -0.4090
28305TIP3    H285798   7.463   9.482   3.037  0.1403  0.2438 -0.2268
28306TIP3   OH285799   3.726   0.534   7.696  0.0290  0.1943 -0.7936
28306TIP3    H185800   3.647   0.580   7.722  0.3347  0.5901 -0.5435
28306TIP3    H285801   3.777   0.525   7.777  0.0475 -0.4378 -0.8731
28307TIP3   OH285802   8.589  10.039   9.231  0.2863 -0.6184  0.3944
28307TIP3    H185803   8.682  10.020   9.217  0.4928 -0.4122  1.3729
28307TIP3    H285804   8.568   9.991   9.312 -0.2658 -0.0717  0.5803
28308TIP3   OH285805   4.770  10.655   5.419 -0.0177  0.0234  0.4874
28308TIP3    H185806   4.797  10.563   5.423  1.4248  0.3063 -1.4590
28308TIP3    H285807   4.736  10.666   5.331  0.6916  1.5646  0.3831
28309TIP3   OH285808   6.104   3.463   6.545 -0.1216 -0.1656  0.2342
28309TIP3    H185809   6.120   3.467   6.450  1.3205  0.3777  0.4680
28309TIP3    H285810   6.009   3.457   6.553 -0.8949  5.1393 -1.1940
28310TIP3   OH285811   4.379   8.388   9.383 -0.1604 -0.5915 -0.1841
28310TIP3    H185812   4.429   8.310   9.405  3.2719  1.3861 -0.2703
28310TIP3    H285813   4.355   8.426   9.468 -0.6914 -1.0624 -0.1224
28311TIP3   OH285814   3.317   1.090   3.150 -0.3084 -0.1723  0.0719
28311TIP3    H185815   3.354   1.108   3.236  0.8124 -0.0368 -0.4277
28311TIP3    H285816   3.238   1.144   3.146 -0.8986 -0.8852  1.3631
28312TIP3   OH285817   8.598   7.182   1.672  0.4043 -0.0600  0.2520
28312TIP3    H185818   8.644   7.265   1.680 -0.0497  0.2707 -0.4753
28312TIP3    H285819   8.529   7.186   1.738 -1.7166  1.5780 -1.8522
28313TIP3   OH285820   6.535   4.422   9.551  0.1637  0.7232  0.2586
28313TIP3    H185821   6.584   4.404   9.470  2.0675  0.9660  1.2901
28313TIP3    H285822   6.507   4.513   9.542  0.5587  0.8186 -0.0385
28314TIP3   OH285823   9.514   1.998   6.152  0.0826 -0.0644 -0.1645
28314TIP3    H185824   9.463   1.921   6.176 -2.0954  1.5477  0.6484
28314TIP3    H285825   9.484   2.021   6.064  1.2206 -0.4911 -0.6892
28315TIP3   OH285826   8.620  10.522   2.142 -0.2164  0.1103 -0.1313
28315TIP3    H185827   8.596  10.439   2.102 -1.2712 -0.3160  1.3098
28315TIP3    H285828   8.572  10.524   2.225  0.9745  1.4761  0.5730
28316TIP3   OH285829   3.277   1.548   2.137  0.4151 -0.0620  0.0229
28316TIP3    H185830   3.239   1.635   2.124 -0.3418 -0.5133 -0.9208
28316TIP3    H285831   3.248   1.498   2.061  0.8804 -1.1285  0.5326
28317TIP3   OH285832   1.628   7.902   6.329 -0.5291  0.3842  0.0738
28317TIP3    H185833   1.538   7.873   6.316 -0.5642  0.5678 -0.1002
28317TIP3    H285834   1.664   7.841   6.393 -0.9032  0.5648  0.4613
28318TIP3   OH285835   0.003   7.832   0.023  0.4635  0.1645  0.0943
28318TIP3    H185836  -0.038   7.756  -0.019  1.9869  0.7686 -2.7454
28318TIP3    H285837  -0.037   7.907  -0.021  1.9295  0.8475 -0.1146
28319TIP3   OH285838   6.752   8.164  10.024 -0.4092  0.0980  0.8397
28319TIP3    H185839   6.659   8.171  10.046 -0.2716  0.6342  1.2719
28319TIP3    H285840   6.797   8.209  10.095  0.1122  0.8663  0.0386
28320TIP3   OH285841   3.347  10.701   4.278 -0.7051 -0.4264 -0.3206
28320TIP3    H185842   3.366  10.769   4.213 -0.4309 -1.4678 -1.3505
28320TIP3    H285843   3.252  10.705   4.290 -0.4525  2.2236  1.9951
28321TIP3   OH285844   7.937   9.199   8.237  0.3871 -0.1992  0.7123
28321TIP3    H185845   7.898   9.176   8.153 -0.6554  2.2454  0.4277
28321TIP3    H285846   8.013   9.141   8.245  0.7893 -0.2221 -2.1283
28322TIP3   OH285847   6.997   0.571   3.120  0.1835  0.8241 -0.1613
28322TIP3    H185848   6.938   0.525   3.179  0.1165  0.6664 -0.3497
28322TIP3    H285849   7.000   0.661   3.153 -0.6834  1.0011 -0.5364
28323TIP3   OH285850   1.421   6.811   9.021  0.3827 -0.1307 -0.6540
28323TIP3    H185851   1.500   6.795   9.072 -0.0378  0.1959  0.1272
28323TIP3    H285852   1.430   6.901   8.990 -0.8548  0.9094  1.7051
28324TIP3   OH285853   7.670   7.903   1.131 -0.2481 -0.1613 -0.0005
28324TIP3    H185854   7.693   7.867   1.046 -1.4091 -0.0881 -0.3682
28324TIP3    H285855   7.576   7.922   1.124  0.0896  1.9559  0.5133
28325TIP3   OH285856   2.938   6.869   0.957 -0.4883  0.5349  0.2542
28325TIP3    H185857   2.907   6.811   1.027 -0.8686 -0.2038 -0.5125
28325TIP3    H285858   3.028   6.842   0.942 -1.3434 -1.5486 -1.7270
28326TIP3   OH285859  10.116   0.942   2.111  0.1222  0.5114 -0.1694
28326TIP3    H185860  10.124   1.037   2.099 -1.0142  0.5532 -0.7144
28326TIP3    H285861  10.025   0.929   2.135 -0.0671 -0.5633 -1.3771
28327TIP3   OH285862   1.305   1.408   8.698 -0.4640 -0.1004 -0.3093
28327TIP3    H185863   1.280   1.396   8.607  0.2439  2.6142 -0.9574
28327TIP3    H285864   1.365   1.483   8.697 -0.3191 -0.0749  2.3746
28328TIP3   OH285865   0.490   8.373   0.196  0.9393  0.3675 -0.4430
28328TIP3    H185866   0.526   8.442   0.252 -1.1811  1.4064 -0.2431
28328TIP3    H285867   0.471   8.301   0.256  0.1692  0.8706 -0.0571
28329TIP3   OH285868   5.197   0.880   3.963  0.2478 -0.2343 -0.0692
28329TIP3    H185869   5.139   0.906   4.035  0.3389 -0.8466  0.2331
28329TIP3    H285870   5.194   0.953   3.902  0.7069  0.6154  0.8899
28330TIP3   OH285871   4.518   7.608   5.913 -0.1300 -0.3540  0.0121
28330TIP3    H185872   4.475   7.541   5.965 -1.3315  0.0144 -0.4656
28330TIP3    H285873   4.447   7.650   5.864  0.6850  0.7589 -0.2642
28331TIP3   OH285874   6.625   1.194   9.888  0.2416  0.1199 -0.2436
28331TIP3    H185875   6.688   1.157   9.826 -0.3337 -0.3579 -0.5662
28331TIP3    H285876   6.562   1.241   9.833 -0.4055 -0.5043 -0.0559
28332TIP3   OH285877   8.929   2.255   5.401 -0.1849 -0.1516 -0.0031
28332TIP3    H185878   8.961   2.194   5.335 -0.1218 -0.3812  0.2363
28332TIP3    H285879   8.900   2.199   5.473 -0.1739  0.0976  0.1978
28333TIP3   OH285880   5.959   9.236   0.670  0.1752 -0.0671 -0.0310
28333TIP3    H185881   6.036   9.179   0.670 -0.5449 -1.0520 -0.0813
28333TIP3    H285882   5.994   9.323   0.690  1.0481 -0.8569  2.1951
28334TIP3   OH285883   1.722   4.394   3.382  0.2088  0.0415  0.3930
28334TIP3    H185884   1.755   4.316   3.427 -2.3408 -0.4683  1.5521
28334TIP3    H285885   1.660   4.360   3.318 -1.7809  1.1008  1.6694
28335TIP3   OH285886   8.809  10.463   5.329 -0.1888 -0.1246 -0.4422
28335TIP3    H185887   8.742  10.471   5.261  0.7599 -0.9151 -1.5040
28335TIP3    H285888   8.875  10.527   5.306 -1.0531  1.4506  1.2379
28336TIP3   OH285889   3.009   8.046   5.502 -0.2826 -0.1745 -0.6754
28336TIP3    H185890   2.918   8.051   5.471 -0.3567  0.8914 -0.3337
28336TIP3    H285891   3.023   7.954   5.520 -1.4091 -0.3194 -0.4386
28337TIP3   OH285892  10.832   9.874   4.413  0.2090 -0.5786  0.6677
28337TIP3    H185893  10.814   9.857   4.506 -1.3230  2.1589  0.9909
28337TIP3    H285894  10.912   9.927   4.414 -0.2346  0.1127  0.5380
28338TIP3   OH285895  10.863   0.167   6.933  0.4926  0.1763  0.2580
28338TIP3    H185896  10.812   0.221   6.872 -0.0146 -0.3436  0.2147
28338TIP3    H285897  10.954   0.182   6.907  0.2543 -0.6721 -1.1797
28339TIP3   OH285898   7.483   3.205  10.627  0.5256  0.0959 -0.4060
28339TIP3    H185899   7.553   3.199  10.561 -1.2625  0.0335 -2.3850
28339TIP3    H285900   7.433   3.124  10.616  0.4992 -0.1867  1.4608
28340TIP3   OH285901   6.395   8.467   9.573  0.4278  0.3137 -0.1658
28340TIP3    H185902   6.469   8.414   9.543 -0.0008 -0.2846 -0.1891
28340TIP3    H285903   6.429   8.514   9.649  0.5287 -0.8049  0.5172
28341TIP3   OH285904   9.435   1.492   7.766 -0.2398 -0.1783 -0.1550
28341TIP3    H185905   9.463   1.523   7.680 -0.2915 -0.0019 -0.1096
28341TIP3    H285906   9.353   1.446   7.749 -0.2551 -0.1353 -0.1989
28342TIP3   OH285907   8.735  10.537   0.767  0.4124  0.2560 -0.2482
28342TIP3    H185908   8.648  10.512   0.733 -0.3094  1.8887  0.3045
28342TIP3    H285909   8.778  10.579   0.692  0.0785  0.9209 -0.0751
28343TIP3   OH285910   4.530   6.742  10.378 -0.1143 -0.2456 -0.3324
28343TIP3    H185911   4.514   6.700  10.293  0.1260 -1.2209  0.0862
28343TIP3    H285912   4.587   6.816  10.358  0.3307 -0.7486 -0.9688
28344TIP3   OH285913  10.763   3.045   4.583  0.1242  0.5506  0.1626
28344TIP3    H185914  10.685   3.000   4.551 -0.7470  1.6545  0.6548
28344TIP3    H285915  10.814   2.977   4.627 -0.1016 -0.3701 -0.9679
28345TIP3   OH285916   5.682   8.109  10.590 -0.2697 -0.4585  0.0864
28345TIP3    H185917   5.714   8.178  10.532  0.0275 -0.4160  0.2990
28345TIP3    H285918   5.591   8.096  10.564 -0.4797  0.3719  0.4041
28346TIP3   OH285919   7.029   8.283   7.115  0.6030 -0.7129 -0.1088
28346TIP3    H185920   7.020   8.370   7.077 -1.9777 -1.8699 -2.5562
28346TIP3    H285921   7.113   8.251   7.082  0.8550  0.2685 -0.4631
28347TIP3   OH285922   7.321   9.965  10.849  0.3609  0.2339  0.2463
28347TIP3    H185923   7.394   9.936  10.904 -0.5560 -0.3127  1.2165
28347TIP3    H285924   7.362   9.990  10.766  1.6413 -0.0731  0.7575
28348TIP3   OH285925   5.452   1.883   4.354 -0.0856  0.2013 -0.3021
28348TIP3    H185926   5.543   1.851   4.350  0.5319  1.6218  1.2171
28348TIP3    H285927   5.403   1.807   4.387  0.9070 -0.0356  0.7413
28349TIP3   OH285928   0.973  10.653   4.148  0.3507  0.3193  0.2427
28349TIP3    H185929   0.890  10.608   4.134 -0.8247  1.7409  2.1151
28349TIP3    H285930   1.040  10.591   4.117 -1.2871 -1.6835  0.5093
28350TIP3   OH285931   2.662   1.710   0.315  0.1810  0.7584 -0.2896
28350TIP3    H185932   2.629   1.795   0.285 -1.0563  1.0534  1.7236
28350TIP3    H285933   2.692   1.667   0.235 -2.2962  1.7449 -1.8970
28351TIP3   OH285934   0.559   2.345   4.754  0.2646  0.0281  0.0792
28351TIP3    H185935   0.643   2.299   4.748  0.9169  1.2516 -0.6031
28351TIP3    H285936   0.530   2.355   4.663 -0.0953  0.5394  0.2417
28352TIP3   OH285937   4.606   7.007   3.224  0.2367  0.2726  0.0281
28352TIP3    H185938   4.653   6.940   3.174  0.0080  0.4309 -0.4055
28352TIP3    H285939   4.519   7.009   3.185  0.1514  0.6137  0.2368
28353TIP3   OH285940   0.532   8.243   6.103 -0.7930 -0.4979  0.2270
28353TIP3    H185941   0.588   8.318   6.126 -0.1491 -1.1587  0.8547
28353TIP3    H285942   0.594   8.173   6.080 -1.3894 -0.5022 -1.5478
28354TIP3   OH285943   8.183   9.721   9.895  0.2720  0.3085 -0.1229
28354TIP3    H185944   8.236   9.800   9.909  0.4758  0.3993 -1.3027
28354TIP3    H285945   8.247   9.650   9.891  0.0091 -0.1463  2.1999
28355TIP3   OH285946  10.562   6.914   6.671  0.5676  0.0491  0.6275
28355TIP3    H185947  10.623   6.857   6.624  0.2456 -0.7948  1.1858
28355TIP3    H285948  10.495   6.936   6.607  0.9477  0.1920  0.2742
28356TIP3   OH285949   5.875  10.459   1.915 -0.0233  0.1021  0.4836
28356TIP3    H185950   5.963  10.495   1.902  1.2666 -2.6693  0.6917
28356TIP3    H285951   5.870  10.440   2.009 -1.4392  1.5117  0.7286
28357TIP3   OH285952   3.858   6.146  10.071  0.0827 -0.3665 -0.5386
28357TIP3    H185953   3.824   6.174  10.156 -0.9972 -2.3928 -0.2504
28357TIP3    H285954   3.861   6.226  10.019 -1.3447  0.5465  0.7056
28358TIP3   OH285955   1.276   0.399   2.836 -0.0874 -0.2265 -0.2865
28358TIP3    H185956   1.290   0.373   2.745 -0.7510 -1.0614 -0.1633
28358TIP3    H285957   1.320   0.331   2.887 -0.0475  0.0250  0.0115
28359TIP3   OH285958   5.158   0.157   7.130 -0.0762 -0.4163 -0.0965
28359TIP3    H185959   5.068   0.153   7.162 -0.3551 -0.7052 -0.8807
28359TIP3    H285960   5.209   0.109   7.196 -0.8054 -2.0006 -0.6250
28360TIP3   OH285961   2.916   8.189   0.394  0.2858 -0.0117 -0.7376
28360TIP3    H185962   2.842   8.132   0.378  0.9062 -0.9194 -0.4733
28360TIP3    H285963   2.993   8.132   0.386  1.1172  1.2928 -3.0716
28361TIP3   OH285964   9.497   0.049   1.442  0.0007 -0.0029  0.2434
28361TIP3    H185965   9.557  -0.025   1.431  0.0017 -0.0157  0.3362
28361TIP3    H285966   9.554   0.121   1.469 -0.1894 -0.3223  1.5318
28362TIP3   OH285967   3.904   9.915   8.620 -0.2463 -0.1204  0.3079
28362TIP3    H185968   3.905   9.920   8.525  0.5039  1.9028  0.3702
28362TIP3    H285969   3.962   9.843   8.641 -0.0055 -0.2515 -0.7555
28363TIP3   OH285970   8.226   9.962   6.600  0.6361  0.4828 -0.0311
28363TIP3    H185971   8.159   9.982   6.665 -0.8523  1.1726 -1.6797
28363TIP3    H285972   8.292  10.030   6.610 -0.8252  2.1016 -0.8369
28364TIP3   OH285973   2.779   0.242   5.296 -0.4190 -0.0701 -0.2900
28364TIP3    H185974   2.689   0.275   5.294 -1.3406 -2.1815  1.9330
28364TIP3    H285975   2.825   0.302   5.355 -1.4200 -1.1579  1.6788
28365TIP3   OH285976  10.210   7.274   4.359  0.2690 -0.1479  0.4081
28365TIP3    H185977  10.209   7.248   4.451 -0.1350  1.2363  0.8137
28365TIP3    H285978  10.302   7.266   4.333  0.1737 -1.9686  0.4803
28366TIP3   OH285979  10.284   7.347   5.624 -0.0338  0.0023  0.1149
28366TIP3    H185980  10.302   7.440   5.611 -0.9275  0.3124  0.9206
28366TIP3    H285981  10.333   7.325   5.704  0.5580 -0.3480 -0.3379
28367TIP3   OH285982   3.523   5.135   5.749 -0.4319 -0.1676 -0.4635
28367TIP3    H185983   3.438   5.153   5.789  0.5447  2.7782  0.5235
28367TIP3    H285984   3.578   5.211   5.771  2.1359 -1.3934 -2.0288
28368TIP3   OH285985  10.875   6.152   9.507  0.0943 -0.6599 -0.4321
28368TIP3    H185986  10.932   6.131   9.432  1.5791 -0.0968  0.4929
28368TIP3    H285987  10.898   6.088   9.573 -1.1066 -1.0576 -0.3770
28369TIP3   OH285988   3.464   2.762   6.883  0.2612  0.2272  0.2207
28369TIP3    H185989   3.485   2.782   6.792  0.8927 -1.4451 -0.0299
28369TIP3    H285990   3.421   2.677   6.880  1.1119 -0.2797  1.5637
28370TIP3   OH285991   0.362   6.772   8.301  1.1302 -0.6358  0.3783
28370TIP3    H185992   0.361   6.705   8.233 -0.7356 -1.5441  1.2212
28370TIP3    H285993   0.444   6.819   8.288  1.6903 -1.9944 -1.2987
28371TIP3   OH285994   6.645   1.389   1.426  0.1040  0.1951 -0.6246
28371TIP3    H185995   6.604   1.433   1.500  2.1651  0.4120  0.4660
28371TIP3    H285996   6.587   1.316   1.406 -1.2524  0.9979  0.2263
28372TIP3   OH285997   0.453  10.446   1.567 -0.0973 -0.0196  0.0271
28372TIP3    H185998   0.432  10.452   1.660  0.0006  0.1754  0.0360
28372TIP3    H285999   0.523  10.380   1.563  1.2661  1.3668  0.3141
28373TIP3   OH286000   5.122   4.240   2.085  0.2432 -0.7462 -0.4666
28373TIP3    H186001   5.108   4.278   2.172 -0.5805 -0.4211 -0.7301
28373TIP3    H286002   5.071   4.296   2.026 -0.6204 -1.9891 -0.9239
28374TIP3   OH286003   0.590   8.767  10.309  0.2195 -0.0236 -0.1437
28374TIP3    H186004   0.623   8.849  10.273 -0.8000  0.9861  1.1135
28374TIP3    H286005   0.669   8.720  10.337  0.8005  0.6450 -0.6120
28375TIP3   OH286006   2.893   4.764   3.240  0.6203  0.5722 -0.3242
28375TIP3    H186007   2.831   4.762   3.313  0.0925 -1.0817 -0.7681
28375TIP3    H286008   2.947   4.686   3.253  2.2074  1.6223 -0.3277
28376TIP3   OH286009   8.248   7.712   4.903 -0.0264  0.0060  0.6505
28376TIP3    H186010   8.204   7.717   4.818 -0.5797  1.8653  1.0088
28376TIP3    H286011   8.329   7.665   4.884 -1.0621 -1.4181 -0.4784
28377TIP3   OH286012  10.311   6.713   6.041 -0.4099 -0.2250  0.3534
28377TIP3    H186013  10.362   6.641   6.004 -0.0538 -0.7273  1.7837
28377TIP3    H286014  10.232   6.672   6.075  0.3042 -0.1419  2.2016
28378TIP3   OH286015   2.010   5.099   1.650 -0.1175 -0.5693  0.3920
28378TIP3    H186016   1.931   5.121   1.602  0.7524 -1.1375 -1.3714
28378TIP3    H286017   2.037   5.182   1.691 -0.2401  0.2349 -1.0867
28379TIP3   OH286018   8.452   6.098   3.491 -0.1040  0.1256  0.1303
28379TIP3    H186019   8.358   6.103   3.473 -0.6285  1.0755  2.7153
28379TIP3    H286020   8.459   6.034   3.562  1.0505  0.8134  0.6644
28380TIP3   OH286021   4.913   4.990   3.675 -0.3167  0.4885  0.1393
28380TIP3    H186022   4.822   5.019   3.675 -0.2082  0.8456  0.5754
28380TIP3    H286023   4.916   4.916   3.735 -0.2575  0.6956  0.3958
28381TIP3   OH286024   7.613   9.308  10.426 -0.3307  0.4412  0.0692
28381TIP3    H186025   7.571   9.325  10.342 -1.8525 -1.8551  0.2718
28381TIP3    H286026   7.706   9.301  10.405 -0.5115  1.3179 -1.1514
28382TIP3   OH286027  10.054   6.541   3.589  0.3915  0.6168 -0.2422
28382TIP3    H186028  10.062   6.462   3.537  0.7866  0.1428  0.5227
28382TIP3    H286029  10.090   6.518   3.675 -2.7628  0.4784  1.2057
28383TIP3   OH286030   0.555   1.971   0.785 -0.2164  0.2879 -0.6213
28383TIP3    H186031   0.607   2.030   0.730  1.2505  0.0227  0.4238
28383TIP3    H286032   0.470   1.966   0.741 -0.0914  2.4649 -1.2352
28384TIP3   OH286033   5.324   9.590   3.183  0.3615 -0.4975  0.0733
28384TIP3    H186034   5.311   9.635   3.267  0.0347 -0.0159 -0.2314
28384TIP3    H286035   5.409   9.619   3.153 -0.7550  1.6900 -1.1817
28385TIP3   OH286036  10.850   9.710   1.402  0.3148 -0.2322 -0.0053
28385TIP3    H186037  10.840   9.713   1.307 -0.2912 -0.1625  0.0597
28385TIP3    H286038  10.780   9.652   1.432 -3.3247  4.0635  0.8956
28386TIP3   OH286039   9.088   4.509   1.772 -0.2527  0.0860  0.2100
28386TIP3    H186040   9.087   4.446   1.699 -0.7107 -0.3227  0.5566
28386TIP3    H286041   8.996   4.515   1.799 -0.5726  2.4960 -1.1428
28387TIP3   OH286042   4.504   5.276  10.821 -0.7085 -0.5463 -0.1269
28387TIP3    H186043   4.476   5.288  10.912  0.7509 -0.2448  0.3147
28387TIP3    H286044   4.540   5.188  10.818  0.3241 -0.1376 -0.0962
28388TIP3   OH286045   9.023   7.619   1.835 -0.6056  0.0277 -0.2209
28388TIP3    H186046   9.035   7.713   1.837 -0.8519  0.0680 -0.6905
28388TIP3    H286047   8.993   7.597   1.924 -0.9146  0.4378 -0.2221
28389TIP3   OH286048   2.568   0.834   4.244 -0.2714  0.1921  0.3914
28389TIP3    H186049   2.546   0.923   4.214 -1.5323 -0.8665 -2.1247
28389TIP3    H286050   2.655   0.818   4.207 -0.2287  0.2235  0.4786
28390TIP3   OH286051   0.013   7.849  10.633 -0.7862 -0.1250  0.0493
28390TIP3    H186052   0.077   7.883  10.696 -0.6734  2.0826 -1.1318
28390TIP3    H286053   0.053   7.769  10.599  1.9999  1.7093 -1.4296
28391TIP3   OH286054   6.990   2.775   5.122  0.5721  0.6338 -0.0347
28391TIP3    H186055   6.989   2.852   5.064  2.0763 -0.1163 -1.1044
28391TIP3    H286056   6.980   2.812   5.210 -0.3987  1.9086 -0.6374
28392TIP3   OH286057   2.208   3.133   9.527 -0.2807  0.0500  0.1839
28392TIP3    H186058   2.213   3.045   9.488  3.0491 -0.2965  1.0742
28392TIP3    H286059   2.205   3.192   9.452 -0.8360 -0.7528 -0.4520
28393TIP3   OH286060   0.575   2.529   7.798 -0.0177 -1.1860  0.1085
28393TIP3    H186061   0.532   2.593   7.742 -0.9431 -0.5498  1.4872
28393TIP3    H286062   0.533   2.446   7.776 -1.7465 -0.6422  1.1546
28394TIP3   OH286063   8.435   1.137   4.689 -0.3115 -0.0119 -0.4030
28394TIP3    H186064   8.409   1.049   4.661 -0.6651  0.0709 -0.3469
28394TIP3    H286065   8.394   1.195   4.625 -2.1322  0.2608  0.9048
28395TIP3   OH286066   4.520   0.434   7.829  0.3006 -0.3866  0.2804
28395TIP3    H186067   4.563   0.506   7.785 -1.0865  0.8296  0.8177
28395TIP3    H286068   4.505   0.368   7.761 -0.6254  0.8916 -0.7899
28396TIP3   OH286069   8.973   9.584   7.494  0.1848 -0.0528 -0.5632
28396TIP3    H186070   8.879   9.564   7.500  0.3483 -0.5290  0.7852
28396TIP3    H286071   8.984   9.663   7.547  1.1191 -2.2092  2.7257
28397TIP3   OH286072   0.634   1.902   5.730 -0.3414 -0.4448 -0.0436
28397TIP3    H186073   0.586   1.843   5.671 -0.0398  0.2879 -1.0556
28397TIP3    H286074   0.657   1.977   5.675 -1.2785  0.9382  1.3637
28398TIP3   OH286075   3.765   1.444   8.911 -0.0873  0.1218 -0.2330
28398TIP3    H186076   3.687   1.417   8.863 -0.5060  0.7416  0.0785
28398TIP3    H286077   3.828   1.468   8.843 -0.3297  0.0447 -0.4863
28399TIP3   OH286078   6.996   9.472   6.581 -0.2377  0.4963  0.5843
28399TIP3    H186079   6.972   9.397   6.526 -1.5882  0.3780  1.2932
28399TIP3    H286080   6.969   9.446   6.669 -0.3788  1.6581  0.8969
28400TIP3   OH286081   8.354   4.379   2.357 -0.8058 -0.6669 -0.0365
28400TIP3    H186082   8.258   4.384   2.348 -0.5352  1.1079 -3.2426
28400TIP3    H286083   8.378   4.299   2.310 -0.5234  0.8034 -2.5419
28401TIP3   OH286084   4.679   7.077   1.619  0.0744  0.5371  0.1371
28401TIP3    H186085   4.620   7.123   1.678  0.0907  1.8080 -0.7910
28401TIP3    H286086   4.753   7.137   1.608 -0.1373  0.5474 -1.5137
28402TIP3   OH286087   0.792   7.830   5.644  0.4452  0.1395 -0.4352
28402TIP3    H186088   0.757   7.743   5.662  0.3276  0.0124 -1.2622
28402TIP3    H286089   0.794   7.836   5.549  1.2960  0.7029 -0.3943
28403TIP3   OH286090   8.950   1.326   7.722 -0.3306 -0.5338 -0.5007
28403TIP3    H186091   8.864   1.369   7.722 -0.7641 -1.2466  1.8357
28403TIP3    H286092   9.010   1.391   7.685 -1.5473  0.7237 -0.3599
28404TIP3   OH286093  10.333   6.491   1.750  0.2057  0.0243  0.3011
28404TIP3    H186094  10.403   6.531   1.698  1.9689 -1.8700  1.0798
28404TIP3    H286095  10.374   6.416   1.793 -2.0245 -0.4770  1.7682
28405TIP3   OH286096   5.316   7.881   0.861 -0.0414  0.7345 -0.1508
28405TIP3    H186097   5.263   7.959   0.843 -1.2505  0.0857  0.5137
28405TIP3    H286098   5.382   7.911   0.923  0.3237  1.5321 -0.9102
28406TIP3   OH286099   1.235   7.963   3.981  0.2212  0.3208 -0.1903
28406TIP3    H186100   1.215   7.874   3.952 -0.5351  0.1278  0.8786
28406TIP3    H286101   1.203   8.019   3.910  0.1609 -0.2275 -0.6015
28407TIP3   OH286102   6.923   7.438   7.209 -0.1376 -0.2336  0.0714
28407TIP3    H186103   6.963   7.446   7.296  1.1533 -0.4295 -0.4834
28407TIP3    H286104   6.938   7.346   7.184 -3.0389 -1.0041  0.8090
28408TIP3   OH286105   1.718   7.176   8.235 -0.6524 -0.0336  0.1385
28408TIP3    H186106   1.683   7.190   8.323 -1.6397 -0.1027 -0.2313
28408TIP3    H286107   1.792   7.236   8.229 -1.7902  1.4574  0.3268
28409TIP3   OH286108   0.427   7.016  10.376  0.0391 -0.4480  0.1226
28409TIP3    H186109   0.412   7.075  10.450  1.0532  1.0064 -0.7871
28409TIP3    H286110   0.370   7.050  10.307  0.7540 -0.4332 -0.4648
28410TIP3   OH286111   7.753   2.069   2.557 -0.1454  0.2935 -1.0588
28410TIP3    H186112   7.847   2.067   2.574 -0.0439  0.0377 -1.6254
28410TIP3    H286113   7.732   1.981   2.526 -0.6540  0.2202 -0.5397
28411TIP3   OH286114   9.824   2.490   4.617 -0.2454  0.2789 -0.5787
28411TIP3    H186115   9.788   2.553   4.679  0.0748  0.7352 -0.8552
28411TIP3    H286116   9.869   2.426   4.673 -0.8668  0.0932 -0.2782
28412TIP3   OH286117   2.981   9.423   8.603  0.2340  0.3304  0.3039
28412TIP3    H186118   2.890   9.452   8.600  0.1492 -0.0077 -0.4622
28412TIP3    H286119   3.031   9.500   8.576 -0.0600 -0.4648 -2.9252
28413TIP3   OH286120   2.702   9.840   8.017  0.0052 -0.0960  0.0883
28413TIP3    H186121   2.606   9.850   8.018 -0.0017 -0.1037 -0.3735
28413TIP3    H286122   2.723   9.822   7.926  0.4299 -0.3016  0.2250
28414TIP3   OH286123   6.590   0.231   7.529  0.0709  0.1746 -0.2666
28414TIP3    H186124   6.524   0.162   7.520 -0.8871  0.9689  0.4446
28414TIP3    H286125   6.586   0.279   7.447 -0.4293  0.3688 -0.1338
28415TIP3   OH286126   2.840   1.563   4.169 -0.1167 -0.1024  0.1154
28415TIP3    H186127   2.849   1.469   4.151 -1.2221 -0.2749  0.3482
28415TIP3    H286128   2.755   1.570   4.213 -0.4706  1.1258 -0.7188
28416TIP3   OH286129   8.598   7.759   0.181  0.0366 -0.0980 -0.5168
28416TIP3    H186130   8.592   7.717   0.267  1.7995  0.4809 -0.0813
28416TIP3    H286131   8.578   7.689   0.119  0.0848 -0.8674  0.3138
28417TIP3   OH286132   6.368   0.251   5.714 -0.2342  0.2646  0.4127
28417TIP3    H186133   6.370   0.157   5.731  0.3504  0.1537 -0.2180
28417TIP3    H286134   6.458   0.273   5.691 -0.2368  1.1064  1.1809
28418TIP3   OH286135  10.873   7.695   7.936  1.0814  0.0493 -0.5753
28418TIP3    H186136  10.829   7.769   7.895  0.0647 -0.6227 -0.7270
28418TIP3    H286137  10.835   7.689   8.023  1.7194  0.1784 -0.2847
28419TIP3   OH286138   2.410   2.848   3.794 -0.7992 -0.3577 -0.3435
28419TIP3    H186139   2.343   2.783   3.817 -1.0257 -0.2344 -0.6423
28419TIP3    H286140   2.378   2.930   3.830  0.6897 -0.8130  2.2502
28420TIP3   OH286141   3.377   1.324   8.330  0.3022  0.1085  0.0889
28420TIP3    H186142   3.442   1.387   8.361 -0.7956  0.3311  2.0376
28420TIP3    H286143   3.428   1.245   8.311  1.1425  0.2100  1.7570
28421TIP3   OH286144   4.184   6.403   3.344 -0.1189  0.2723 -0.0438
28421TIP3    H186145   4.183   6.498   3.355 -2.0018  0.3531 -0.6049
28421TIP3    H286146   4.102   6.373   3.383 -0.9740 -0.7738 -2.4116
28422TIP3   OH286147   4.455   0.787   3.761 -0.2579  0.0565 -0.7211
28422TIP3    H186148   4.511   0.711   3.777 -0.2125  0.1361 -0.4927
28422TIP3    H286149   4.492   0.856   3.816 -1.5524 -0.3503  0.7620
28423TIP3   OH286150   5.253   1.344   4.921 -0.1439 -0.1047 -0.0823
28423TIP3    H186151   5.287   1.405   4.987  0.4723 -0.2540 -0.2558
28423TIP3    H286152   5.167   1.319   4.954  0.6794 -1.2053  1.3528
28424TIP3   OH286153   4.853   1.261  10.814 -0.4346 -0.1463 -0.1963
28424TIP3    H186154   4.893   1.288  10.731  0.9632 -0.4991  0.3204
28424TIP3    H286155   4.776   1.210  10.789  0.5793 -1.1972 -1.3338
28425TIP3   OH286156   8.120   8.182   3.377  0.1297 -0.4422 -0.3897
28425TIP3    H186157   8.136   8.170   3.283 -1.6128  0.0488 -0.7854
28425TIP3    H286158   8.046   8.244   3.381 -1.1011 -1.9196  1.2497
28426TIP3   OH286159   3.685   6.816   1.235 -0.1548  0.7953 -0.0635
28426TIP3    H186160   3.645   6.821   1.321 -1.0247 -2.5532 -0.1324
28426TIP3    H286161   3.658   6.897   1.191 -0.8093  1.9484  2.2876
28427TIP3   OH286162   1.312   3.592   1.783  0.4525 -0.0910 -0.0572
28427TIP3    H186163   1.268   3.670   1.815 -0.2165  0.0434 -1.2605
28427TIP3    H286164   1.345   3.616   1.696 -2.2009 -1.9234 -1.7202
28428TIP3   OH286165   8.120   9.700   8.453  0.2613 -0.4014 -0.0134
28428TIP3    H186166   8.049   9.694   8.516  1.2945 -2.0130  1.0745
28428TIP3    H286167   8.132   9.611   8.421  1.5027 -0.0846 -0.4939
28429TIP3   OH286168   4.740   2.890   2.546  0.3666  0.2796  0.4139
28429TIP3    H186169   4.660   2.875   2.596 -1.4727  0.1765 -2.3434
28429TIP3    H286170   4.751   2.810   2.494  1.3630  0.9215 -0.3955
28430TIP3   OH286171   6.090   2.171   3.559  0.3688  0.7631  0.0526
28430TIP3    H186172   6.146   2.216   3.496  2.3211  0.1003  1.2192
28430TIP3    H286173   6.025   2.237   3.585  0.5123  1.5289 -1.4163
28431TIP3   OH286174   7.845   3.986   2.328 -0.1616  0.4413 -0.0670
28431TIP3    H186175   7.821   3.911   2.383  0.8613  0.1903  0.0606
28431TIP3    H286176   7.847   4.060   2.388  0.3524  0.2778  0.1305
28432TIP3   OH286177   6.803   2.601   5.297  0.2643  0.0368 -0.1003
28432TIP3    H186178   6.800   2.696   5.307  1.6304  0.1910 -1.0044
28432TIP3    H286179   6.869   2.573   5.360  0.6793 -0.1783 -0.6224
28433TIP3   OH286180   7.821   6.780   1.312 -0.2014  0.1507 -0.3676
28433TIP3    H186181   7.765   6.757   1.238 -0.7235  1.0360 -0.2625
28433TIP3    H286182   7.772   6.752   1.389  0.3242 -0.7332 -0.3325
28434TIP3   OH286183   0.819   4.237   6.565 -0.4531  0.0581  0.2399
28434TIP3    H186184   0.767   4.305   6.521  2.1183  0.6626 -2.2061
28434TIP3    H286185   0.822   4.264   6.656 -0.6463  2.5096 -0.4064
28435TIP3   OH286186   3.544   2.757   7.647  0.3427 -0.0590 -0.0809
28435TIP3    H186187   3.467   2.700   7.645  0.5365 -0.3732  0.8152
28435TIP3    H286188   3.610   2.706   7.692  1.4604 -0.2246 -1.8341
28436TIP3   OH286189   1.942   4.509   7.113 -0.2901  0.3066  0.0675
28436TIP3    H186190   1.940   4.599   7.081 -1.8152  0.7010  1.1431
28436TIP3    H286191   1.852   4.479   7.106 -0.6890  0.3118  3.5083
28437TIP3   OH286192  10.055   5.166   4.210 -0.3909  0.0599 -0.3159
28437TIP3    H186193  10.144   5.131   4.206 -1.1086 -1.9832  0.4976
28437TIP3    H286194  10.028   5.173   4.119  0.7264  1.1137 -0.5952
28438TIP3   OH286195   9.836   9.839  10.087  0.7575 -0.0579 -0.7612
28438TIP3    H186196   9.751   9.812  10.120  0.5639  0.8311 -0.4885
28438TIP3    H286197   9.899   9.799  10.146  0.3867  2.5354  1.6154
28439TIP3   OH286198   1.886   4.454   3.072 -1.1309  0.1577  0.4026
28439TIP3    H186199   1.866   4.539   3.111  0.7011  0.7893  0.0751
28439TIP3    H286200   1.919   4.401   3.144  0.2587  0.6346  0.1481
28440TIP3   OH286201   4.358   4.279   7.221 -0.2516 -0.2999  0.5650
28440TIP3    H186202   4.430   4.218   7.237 -0.3716 -0.2942  1.1620
28440TIP3    H286203   4.380   4.322   7.139 -0.6020 -1.8066 -0.3558
28441TIP3   OH286204  10.318   2.664   9.770 -0.5691 -0.0949 -0.5749
28441TIP3    H186205  10.240   2.610   9.782 -0.0006 -0.6723  0.6465
28441TIP3    H286206  10.375   2.611   9.714 -1.1397  0.4434 -1.6992
28442TIP3   OH286207   6.760   8.472   5.929 -0.1935 -0.5127 -0.5035
28442TIP3    H186208   6.822   8.545   5.928  0.8411 -1.3696 -0.4520
28442TIP3    H286209   6.797   8.410   5.991 -1.4741 -0.7536  0.0577
28443TIP3   OH286210  10.342   9.931   0.558 -0.1889  0.1921  1.0115
28443TIP3    H186211  10.280   9.943   0.486 -0.8156  2.7492  1.8645
28443TIP3    H286212  10.290   9.948   0.637  1.2269  0.8459  1.8421
28444TIP3   OH286213   5.115   3.183   3.598  0.1142 -0.0281 -0.5550
28444TIP3    H186214   5.151   3.201   3.511 -1.2350  0.3519 -1.0605
28444TIP3    H286215   5.020   3.191   3.587 -0.0683  0.3753  1.0333
28445TIP3   OH286216   1.156   1.683   3.837 -0.7964 -0.3375 -0.4305
28445TIP3    H186217   1.104   1.606   3.812 -1.2947 -0.3286  0.5279
28445TIP3    H286218   1.210   1.653   3.910 -0.6048  0.0859 -0.3953
28446TIP3   OH286219   5.409   2.720   3.498  0.3909  0.1122  0.3027
28446TIP3    H186220   5.482   2.782   3.501 -1.4749  2.4301  0.7192
28446TIP3    H286221   5.440   2.650   3.441  2.1264  2.1301 -1.4487
28447TIP3   OH286222  10.148   0.984   8.193 -0.6685 -0.7830  0.0791
28447TIP3    H186223  10.218   0.996   8.129 -0.9288 -2.6276 -0.6227
28447TIP3    H286224  10.186   0.925   8.258 -1.4002 -1.4361 -0.0713
28448TIP3   OH286225   1.057   3.728   4.523  0.0611 -0.3762  0.1956
28448TIP3    H186226   1.070   3.798   4.587  1.8248 -0.8886  0.4591
28448TIP3    H286227   0.981   3.680   4.555 -1.9901  2.0787 -0.6517
28449TIP3   OH286228   6.228   6.859   8.863  0.4658 -0.3335 -0.2151
28449TIP3    H186229   6.234   6.953   8.848  0.9567 -0.5941 -1.9261
28449TIP3    H286230   6.164   6.849   8.933 -0.2042  1.2286 -0.5727
28450TIP3   OH286231   3.266   4.480   0.692  0.1872  0.0221  0.0023
28450TIP3    H186232   3.346   4.441   0.657  0.0457  0.3599 -0.7185
28450TIP3    H286233   3.241   4.422   0.764  1.6497  0.4871  0.9389
28451TIP3   OH286234   3.812   5.715   4.652 -0.1325  0.2772  0.5723
28451TIP3    H186235   3.766   5.709   4.569  0.1524  0.5127  0.3966
28451TIP3    H286236   3.765   5.655   4.710 -0.4503  0.2623  0.2992
28452TIP3   OH286237   6.043   2.710   2.988 -0.1325  0.9246  0.3745
28452TIP3    H186238   6.093   2.734   2.909  1.5519 -1.8370  0.4864
28452TIP3    H286239   6.105   2.721   3.060 -0.0762 -1.1936  0.6912
28453TIP3   OH286240   9.268   6.727   3.516  0.4430  0.0358 -0.5693
28453TIP3    H186241   9.213   6.765   3.446  0.6331  0.4545 -0.4932
28453TIP3    H286242   9.301   6.802   3.564  0.1083 -0.2575  0.1398
28454TIP3   OH286243   2.728   3.047   5.245  0.2852 -0.3138 -0.0977
28454TIP3    H186244   2.799   3.022   5.185  0.3517 -0.1169 -0.1000
28454TIP3    H286245   2.722   3.142   5.237 -1.0866 -0.4680 -1.3633
28455TIP3   OH286246   3.555   8.048   0.010 -0.4158 -0.1582  0.3248
28455TIP3    H186247   3.533   8.140  -0.003  0.4667 -0.0452 -0.5440
28455TIP3    H286248   3.638   8.049   0.058 -0.1384 -0.4799 -0.1330
28456TIP3   OH286249   9.202   4.180   4.255 -0.0936  0.1353  0.3832
28456TIP3    H186250   9.145   4.202   4.329  0.2629  0.1155  0.6655
28456TIP3    H286251   9.179   4.090   4.233  1.2644 -0.6143  1.8380
28457TIP3   OH286252   5.045  10.806  10.087  0.2863  0.1280  0.0661
28457TIP3    H186253   5.047  10.726  10.034  0.4248 -0.6856  1.2556
28457TIP3    H286254   5.131  10.808  10.129  0.2011  0.8021  0.2080
28458TIP3   OH286255   6.134   9.203   9.707 -0.2409  0.0233  0.7534
28458TIP3    H186256   6.091   9.285   9.733  0.7039  0.8594 -0.2511
28458TIP3    H286257   6.227   9.218   9.724  0.1043 -0.3195 -0.7168
28459TIP3   OH286258   3.098   5.603  10.293 -0.7300  0.9893  0.8728
28459TIP3    H186259   3.018   5.555  10.312 -0.7117  0.2687 -0.7159
28459TIP3    H286260   3.155   5.585  10.368 -1.2311 -0.3405  0.9579
28460TIP3   OH286261   5.197  10.116   5.527 -0.5307 -0.5065 -0.2856
28460TIP3    H186262   5.244  10.110   5.610 -0.0022  0.3624 -0.4990
28460TIP3    H286263   5.138  10.191   5.539  1.4743  1.3982 -1.5598
28461TIP3   OH286264   1.969   7.234  10.361  0.4773  0.7141 -0.0858
28461TIP3    H186265   1.932   7.299  10.420 -0.0673  2.4405 -2.1915
28461TIP3    H286266   1.906   7.228  10.289 -0.7322 -4.0076  1.0663
28462TIP3   OH286267   5.970   8.765   4.610 -0.3210 -0.3392  0.4136
28462TIP3    H186268   5.919   8.780   4.690  0.3456 -1.0903  0.9978
28462TIP3    H286269   6.044   8.824   4.618 -0.9969  0.6416 -0.3627
28463TIP3   OH286270   8.639  10.788   5.140 -0.1221 -0.3126  0.1498
28463TIP3    H186271   8.560  10.819   5.185  1.3309  2.4104  1.0210
28463TIP3    H286272   8.708  10.792   5.206  0.5221 -4.4846 -0.0404
28464TIP3   OH286273   0.709   4.545   5.521 -0.0763  0.7491 -0.1172
28464TIP3    H186274   0.621   4.583   5.526 -0.2452  0.2559  0.9593
28464TIP3    H286275   0.718   4.495   5.602  0.0301 -1.8025 -1.6137
28465TIP3   OH286276   9.137   1.870   6.060  0.0865 -0.1915 -0.1661
28465TIP3    H186277   9.148   1.775   6.054 -0.5197 -0.2116 -1.2412
28465TIP3    H286278   9.086   1.893   5.983 -0.5430  0.8982  0.5496
28466TIP3   OH286279   0.891   8.644   9.134 -0.1720 -0.2785 -0.1130
28466TIP3    H186280   0.975   8.681   9.160  0.2502 -0.8038 -0.7097
28466TIP3    H286281   0.827   8.687   9.192  0.5136  0.0101  0.4432
28467TIP3   OH286282   8.807   9.699   2.846 -0.2106  0.4697  0.5587
28467TIP3    H186283   8.766   9.683   2.761  0.5635  1.5275 -0.0437
28467TIP3    H286284   8.756   9.771   2.884 -0.2334  0.3416  0.7767
28468TIP3   OH286285   0.078   3.238   3.235 -0.2924  0.4921 -0.0299
28468TIP3    H186286   0.147   3.186   3.193 -1.3671  0.7499 -2.2174
28468TIP3    H286287   0.049   3.299   3.167 -0.2648  2.8522  1.9224
28469TIP3   OH286288   5.622   8.342   4.781 -0.4305  0.5272  0.2350
28469TIP3    H186289   5.528   8.351   4.796 -0.3318  1.2550  0.4348
28469TIP3    H286290   5.659   8.319   4.866 -0.4453  0.0754  0.1220
28470TIP3   OH286291   7.711   9.304   9.177 -0.0709  0.9794  0.1371
28470TIP3    H186292   7.655   9.227   9.168  3.2768 -2.0452  2.3975
28470TIP3    H286293   7.650   9.376   9.194 -3.4410 -0.9201 -2.5230
28471TIP3   OH286294   5.803   8.529  10.809  0.4104  0.2066  0.9527
28471TIP3    H186295   5.724   8.543  10.757 -1.5992  1.0468  3.9312
28471TIP3    H286296   5.873   8.567  10.757 -1.4542  1.2717 -0.9515
28472TIP3   OH286297  10.064   3.363   3.363  0.0375 -0.2956 -0.7363
28472TIP3    H186298   9.987   3.314   3.334 -1.0910  1.2985 -0.5647
28472TIP3    H286299  10.137   3.302   3.350 -1.0517 -1.3803 -2.2115
28473TIP3   OH286300   7.151   9.883   0.511  0.3267  0.1261  0.4297
28473TIP3    H186301   7.122   9.816   0.449  1.1187  0.0029  0.1864
28473TIP3    H286302   7.145   9.841   0.597  0.1243 -0.0137  0.3463
28474TIP3   OH286303   7.766   1.159   3.001 -0.3758 -0.1318 -0.2355
28474TIP3    H186304   7.808   1.122   3.078  0.1563 -1.2899 -1.0548
28474TIP3    H286305   7.736   1.246   3.029  1.7796  0.4000  0.6394
28475TIP3   OH286306  10.356   1.166  10.133  0.2155  0.1382 -0.0133
28475TIP3    H186307  10.443   1.160  10.094  0.1992 -0.2513  0.0104
28475TIP3    H286308  10.371   1.196  10.222  0.4341 -1.2486  0.4297
28476TIP3   OH286309   0.577   6.570   5.430  0.0355 -0.3140  0.0759
28476TIP3    H186310   0.627   6.648   5.455 -1.4211  1.6326 -2.6470
28476TIP3    H286311   0.522   6.552   5.506  1.5441  0.2805  1.3684
28477TIP3   OH286312   3.424   3.936   7.552  0.2773  0.0746  0.1360
28477TIP3    H186313   3.348   3.956   7.497 -0.3629 -0.2942  0.8770
28477TIP3    H286314   3.500   3.955   7.496 -0.3567  0.5777 -0.5610
28478TIP3   OH286315  10.431   0.425   8.248  0.5142 -0.5183 -0.5257
28478TIP3    H186316  10.373   0.448   8.175  2.7022  0.6333 -2.0130
28478TIP3    H286317  10.413   0.333   8.265 -2.9939  0.1825  0.3500
28479TIP3   OH286318   9.117   0.791   6.201 -0.3738 -0.0179 -0.4156
28479TIP3    H186319   9.080   0.874   6.233  1.2341  0.6914 -0.3130
28479TIP3    H286320   9.209   0.795   6.224  0.3538 -0.5968 -2.8632
28480TIP3   OH286321   4.181   6.100   6.897  0.0461 -0.3243 -0.1677
28480TIP3    H186322   4.186   6.013   6.858 -0.0838  0.0343 -1.0206
28480TIP3    H286323   4.203   6.160   6.825 -2.9868  0.5463 -0.5413
28481TIP3   OH286324   9.453   9.596   9.815 -0.5084  0.0170  0.6128
28481TIP3    H186325   9.529   9.651   9.834  0.0291 -1.4137  3.0098
28481TIP3    H286326   9.482   9.540   9.743 -0.3545  1.3847 -0.4421
28482TIP3   OH286327   5.937   7.809   5.169  0.3208  0.2844 -0.4280
28482TIP3    H186328   5.919   7.868   5.242  2.4098  0.3300  0.0981
28482TIP3    H286329   5.989   7.862   5.108  1.3772 -0.7129 -0.4100
28483TIP3   OH286330   2.683   9.144   2.153 -0.6528 -0.0407  0.3582
28483TIP3    H186331   2.661   9.054   2.176 -1.1581  0.1688  0.6981
28483TIP3    H286332   2.636   9.197   2.217 -2.5139  0.5788 -1.4274
28484TIP3   OH286333   8.676   4.945   2.881  0.1284 -0.7398 -0.2434
28484TIP3    H186334   8.652   5.021   2.934  0.7868 -0.1244 -0.8077
28484TIP3    H286335   8.759   4.915   2.918 -1.1311 -2.5456  1.3718
28485TIP3   OH286336   7.417   4.732  10.657  0.4251  0.2363 -0.3301
28485TIP3    H186337   7.444   4.643  10.633  1.9105  0.3804  0.6839
28485TIP3    H286338   7.490   4.787  10.632 -0.3146  1.1280 -0.5561
28486TIP3   OH286339   5.568   3.744   0.327  0.3174  0.1537 -0.0935
28486TIP3    H186340   5.617   3.816   0.367  0.8107  0.2980 -0.9190
28486TIP3    H286341   5.631   3.703   0.267 -0.1604 -0.5424 -0.1283
28487TIP3   OH286342   3.445   7.363  10.362 -0.6675 -0.4833  0.2406
28487TIP3    H186343   3.490   7.295  10.310 -1.2765 -1.9331  1.5368
28487TIP3    H286344   3.516   7.415  10.399 -0.1651 -0.7382 -0.3363
28488TIP3   OH286345   4.878   7.475   8.791 -0.6209  0.5554 -0.1398
28488TIP3    H186346   4.797   7.475   8.741 -0.3722 -1.6077 -0.6557
28488TIP3    H286347   4.861   7.413   8.863  0.6033 -0.0844 -0.3757
28489TIP3   OH286348   7.883   6.943   9.726  0.7693  0.0563 -0.7399
28489TIP3    H186349   7.902   7.010   9.791  0.1994 -1.1266  0.6741
28489TIP3    H286350   7.965   6.936   9.675  1.8110 -0.1524  0.8930
28490TIP3   OH286351  10.214   1.222   6.601  0.1272  0.2970  0.3495
28490TIP3    H186352  10.174   1.243   6.685  0.8205  1.5777  0.3768
28490TIP3    H286353  10.244   1.306   6.566  1.9123 -0.4773 -0.1028
28491TIP3   OH286354   9.420   9.933   9.708 -0.1103 -0.2041 -0.2863
28491TIP3    H186355   9.352   9.867   9.698 -0.4583  0.0315  0.4430
28491TIP3    H286356   9.500   9.890   9.678 -0.4914 -0.6391 -0.7062
28492TIP3   OH286357   7.020   6.617   7.258 -0.3297 -0.3681 -0.0881
28492TIP3    H186358   7.022   6.675   7.334 -0.9995 -1.0553  0.4751
28492TIP3    H286359   7.096   6.642   7.206 -1.5963  2.2790 -0.8477
28493TIP3   OH286360   7.587   3.789   4.718 -0.0175 -0.4317 -0.3048
28493TIP3    H186361   7.538   3.864   4.753  2.2793  0.5274  1.1080
28493TIP3    H286362   7.531   3.713   4.737 -0.4435  0.4393  2.4437
28494TIP3   OH286363   0.944   0.837   3.357  0.1969 -0.6860 -0.0864
28494TIP3    H186364   0.947   0.742   3.372  1.9930 -0.4444  1.4694
28494TIP3    H286365   0.889   0.870   3.428 -0.0349 -0.5091 -0.3484
28495TIP3   OH286366   0.097   4.733   2.594  0.0887  0.1508  0.2726
28495TIP3    H186367   0.122   4.820   2.563 -0.7740  0.1719 -0.3805
28495TIP3    H286368   0.159   4.715   2.665 -0.5778  1.8752  1.3528
28496TIP3   OH286369   0.936  10.731   8.285 -0.7088 -0.2348  0.1704
28496TIP3    H186370   1.017  10.681   8.276 -0.2709  0.5465 -0.2806
28496TIP3    H286371   0.902  10.705   8.371  0.1012 -0.4471  0.4346
28497TIP3   OH286372   4.837   2.913   4.959  0.0188  0.4569 -0.1968
28497TIP3    H186373   4.784   2.912   4.879  0.4884 -1.4694 -0.5269
28497TIP3    H286374   4.927   2.911   4.927  0.2106 -0.0072  0.3682
28498TIP3   OH286375  10.808   5.523   4.205  0.1833  0.0820  0.1200
28498TIP3    H186376  10.736   5.482   4.253 -0.3530  0.2525 -0.5175
28498TIP3    H286377  10.813   5.612   4.242 -1.5815  0.9203 -1.4715
28499TIP3   OH286378  10.363   1.055   6.276 -0.1511 -0.0144  0.1099
28499TIP3    H186379  10.336   1.091   6.192 -0.1473 -0.9702 -0.3190
28499TIP3    H286380  10.423   1.119   6.312 -1.2372  1.0784  0.0354
28500TIP3   OH286381   8.401   3.153   2.713 -0.1782  0.6594 -0.2926
28500TIP3    H186382   8.420   3.169   2.621 -0.3579  0.5836 -0.3426
28500TIP3    H286383   8.307   3.133   2.715 -0.2357  0.9381 -0.0606
28501TIP3   OH286384   9.974   9.635   5.360 -0.6575  0.4103 -0.9114
28501TIP3    H186385  10.027   9.581   5.301  0.4990  1.3456 -0.7518
28501TIP3    H286386   9.949   9.711   5.306  0.0025  1.0345 -0.3545
28502TIP3   OH286387   4.777  10.838   3.195 -0.0218 -0.3745 -0.2030
28502TIP3    H186388   4.682  10.847   3.194 -0.4050 -3.0962  1.1718
28502TIP3    H286389   4.810  10.928   3.195 -2.6400  0.7113  1.2704
28503TIP3   OH286390   3.606   6.044   5.275 -0.7966 -0.0847  0.0196
28503TIP3    H186391   3.701   6.052   5.266 -0.5438 -1.6930  0.8763
28503TIP3    H286392   3.584   6.095   5.353 -0.4987 -0.4434  0.3426
28504TIP3   OH286393   4.570   7.052   0.054  0.1371 -0.2746 -0.0662
28504TIP3    H186394   4.543   7.065  -0.037  0.4928 -2.9264 -0.6474
28504TIP3    H286395   4.488   7.047   0.103 -0.0951  0.1877 -0.4008
28505TIP3   OH286396   2.011   8.899   8.325  0.5509  0.0489  0.1487
28505TIP3    H186397   2.060   8.817   8.319  0.2509 -0.0758 -0.6317
28505TIP3    H286398   2.020   8.940   8.239  0.3351  0.6342  0.3937
28506TIP3   OH286399  10.102   7.817   2.864  0.1029 -0.9018 -0.0228
28506TIP3    H186400  10.019   7.770   2.848 -1.8717  1.3711  2.5884
28506TIP3    H286401  10.097   7.894   2.808  0.0860 -0.4355  0.6008
28507TIP3   OH286402   1.672   0.664   0.798 -0.3124  0.2681  0.3430
28507TIP3    H186403   1.623   0.653   0.717 -0.3443 -1.3602  0.5542
28507TIP3    H286404   1.745   0.603   0.791  0.3570  0.9593  1.0502
28508TIP3   OH286405   8.778   6.755   9.300  0.0232 -0.1749  0.0955
28508TIP3    H186406   8.866   6.743   9.335 -0.9497 -1.7763  2.1652
28508TIP3    H286407   8.732   6.804   9.367 -0.7680  0.4579 -0.8768
28509TIP3   OH286408   8.295   4.345   2.634  0.8915 -0.1010 -0.0376
28509TIP3    H186409   8.250   4.429   2.624  0.3827 -0.4854 -1.1510
28509TIP3    H286410   8.388   4.365   2.625  0.7740  0.3497 -0.2471
28510TIP3   OH286411   6.333   8.092   1.939  0.0665 -0.1974 -0.1380
28510TIP3    H186412   6.368   8.174   1.973 -1.2048  0.4743 -0.3522
28510TIP3    H286413   6.397   8.026   1.962  0.8344  0.7709  0.5683
28511TIP3   OH286414   9.986   8.442   8.805  0.5977  0.2381 -0.2304
28511TIP3    H186415   9.941   8.379   8.862  1.0382  0.6306  0.5729
28511TIP3    H286416   9.923   8.513   8.793 -0.2694 -0.7729 -1.9395
28512TIP3   OH286417   6.289   4.735   8.826 -0.0170 -0.1524  0.6715
28512TIP3    H186418   6.344   4.659   8.806 -1.4055 -0.8814 -0.6684
28512TIP3    H286419   6.235   4.707   8.900  0.7708  0.2292  1.3960
28513TIP3   OH286420   7.818  10.246   5.877  0.5608  0.2631 -0.3293
28513TIP3    H186421   7.818  10.190   5.800  0.3564  1.2624 -1.0666
28513TIP3    H286422   7.809  10.335   5.843  3.2720  0.9914  0.6502
28514TIP3   OH286423  10.630   9.174   5.778 -0.2951 -0.0361  0.4692
28514TIP3    H186424  10.551   9.153   5.828  1.8452  0.1691  4.3414
28514TIP3    H286425  10.691   9.103   5.799  0.7893  0.0651 -1.9960
28515TIP3   OH286426  10.117   4.943   8.285  0.4205 -0.4924 -0.2918
28515TIP3    H186427  10.071   4.860   8.296 -1.8055  0.8889  1.5433
28515TIP3    H286428  10.134   4.973   8.374 -1.9698  2.6202 -0.7384
28516TIP3   OH286429   8.569   6.499   8.796 -0.7775  0.2980 -0.2544
28516TIP3    H186430   8.652   6.454   8.786 -0.3035  1.4201 -1.6237
28516TIP3    H286431   8.550   6.494   8.890 -0.0717 -1.4985 -0.1753
28517TIP3   OH286432   6.173   5.349   1.718  0.1864  0.0224 -0.2103
28517TIP3    H186433   6.177   5.307   1.633 -1.6048 -0.1987 -0.2140
28517TIP3    H286434   6.117   5.292   1.771 -1.2133  1.6601  0.1877
28518TIP3   OH286435  10.291   0.938  10.588 -0.1285 -0.1493 -0.4394
28518TIP3    H186436  10.265   0.866  10.531  0.0810 -1.5894  1.2028
28518TIP3    H286437  10.215   0.952  10.645  0.8521 -1.1513  1.2155
28519TIP3   OH286438  10.247   6.019   5.592 -0.6613 -0.5767  0.1067
28519TIP3    H186439  10.320   6.037   5.651 -0.5808  1.4420 -0.5200
28519TIP3    H286440  10.265   5.932   5.557  1.5816 -0.0679 -0.1882
28520TIP3   OH286441   9.831   5.233   0.672  0.0873  0.7767 -0.1065
28520TIP3    H186442   9.760   5.220   0.609  1.6234 -2.4396 -1.4261
28520TIP3    H286443   9.881   5.306   0.636 -0.9499  1.2172 -0.7091
28521TIP3   OH286444   1.560   7.712   3.051 -0.3240 -0.2513 -0.4854
28521TIP3    H186445   1.570   7.803   3.022 -1.4282 -0.3673 -1.3174
28521TIP3    H286446   1.640   7.693   3.100  1.5611  0.1095 -3.1527
28522TIP3   OH286447   2.463  10.152   5.214 -0.0745  0.5793  0.6886
28522TIP3    H186448   2.558  10.153   5.205 -0.1106  0.5194  0.3189
28522TIP3    H286449   2.430  10.194   5.135 -0.3711  0.2943  0.6591
28523TIP3   OH286450   3.409   6.413   2.412  0.5485 -0.0840  0.3354
28523TIP3    H186451   3.391   6.446   2.500  0.9585  0.6190  0.1538
28523TIP3    H286452   3.497   6.377   2.417  0.0990 -1.2108  0.5402
28524TIP3   OH286453   7.355   8.978  10.664  0.1411 -0.8203 -0.5593
28524TIP3    H186454   7.414   9.048  10.637  0.4075 -1.2161 -1.0217
28524TIP3    H286455   7.376   8.905  10.605  1.9673 -2.3298  1.7973
28525TIP3   OH286456   2.476   8.524   2.075 -0.1759  0.2640  0.7021
28525TIP3    H186457   2.403   8.582   2.054 -0.8925 -1.1870 -1.0678
28525TIP3    H286458   2.553   8.580   2.071 -1.0774  1.6024  1.5300
28526TIP3   OH286459   3.694   1.589   5.613  0.4420  0.0829 -0.6201
28526TIP3    H186460   3.695   1.494   5.623 -0.6134  0.1779  0.7493
28526TIP3    H286461   3.674   1.604   5.521 -1.1707 -1.0439 -0.4939
28527TIP3   OH286462   9.046   6.089   4.815  0.7146 -0.6010 -0.3753
28527TIP3    H186463   8.980   6.158   4.813  0.5579 -0.6185  1.7885
28527TIP3    H286464   8.995   6.008   4.821  0.9129 -0.8145 -1.4636
28528TIP3   OH286465   4.726   5.529   4.502  0.0879  0.4212 -0.2723
28528TIP3    H186466   4.673   5.450   4.489 -0.4968  0.0594  3.2291
28528TIP3    H286467   4.813   5.505   4.472 -0.0514 -1.6982  0.8232
28529TIP3   OH286468   8.631   2.248   2.965 -0.3770 -0.5555 -0.2193
28529TIP3    H186469   8.710   2.218   3.012 -0.6750 -0.5596  0.2842
28529TIP3    H286470   8.626   2.341   2.984 -0.8352 -0.6759  0.2503
28530TIP3   OH286471   0.404   1.303   4.554  0.3537  0.4765 -0.7897
28530TIP3    H186472   0.413   1.215   4.517 -0.5825 -0.0603  0.2000
28530TIP3    H286473   0.494   1.337   4.557  0.7730 -0.5902 -0.8291
28531TIP3   OH286474   8.095   7.420   0.724  0.0321 -0.3592  0.3208
28531TIP3    H186475   8.055   7.506   0.740  2.2027  0.3036  2.9984
28531TIP3    H286476   8.026   7.357   0.746 -1.8059  0.5493 -2.2566
28532TIP3   OH286477   9.460   7.975   8.603 -0.5077  0.3565 -0.2676
28532TIP3    H186478   9.405   8.041   8.560 -1.8425  0.6249  1.7527
28532TIP3    H286479   9.550   8.004   8.585 -1.0472  1.4438 -1.3325
28533TIP3   OH286480   4.444  10.074   5.473  0.3931 -0.2271 -0.3939
28533TIP3    H186481   4.530  10.084   5.432  0.8254  0.7713  0.6953
28533TIP3    H286482   4.408  10.162   5.474 -0.7078 -0.6550 -0.9392
28534TIP3   OH286483   8.550   6.838   3.609 -0.7276 -0.4923 -0.0554
28534TIP3    H186484   8.636   6.868   3.581 -1.5592  1.0970 -1.0224
28534TIP3    H286485   8.564   6.807   3.699  0.9983 -1.0832 -0.4845
28535TIP3   OH286486   3.003   6.655   2.645  0.0005 -0.2236 -0.1085
28535TIP3    H186487   3.000   6.698   2.560  0.1403 -1.4614 -0.7609
28535TIP3    H286488   2.985   6.562   2.626 -2.0089 -0.2313  1.4375
28536TIP3   OH286489   5.009   8.963   3.962 -0.4893 -0.7196  0.0453
28536TIP3    H186490   5.048   8.886   4.005 -0.1496 -1.0723 -0.8814
28536TIP3    H286491   4.916   8.942   3.954 -0.3570 -1.1492 -0.4271
28537TIP3   OH286492   9.007   3.758  10.601  0.2703  0.2316 -0.5069
28537TIP3    H186493   8.961   3.791  10.678  0.1328  0.2451 -0.5917
28537TIP3    H286494   8.947   3.777  10.528  0.6476  0.7372 -0.6907
28538TIP3   OH286495   6.227   0.630   7.172  0.4042 -0.3751 -0.4316
28538TIP3    H186496   6.179   0.598   7.095  0.9121 -0.3180 -0.7798
28538TIP3    H286497   6.160   0.669   7.228 -0.0017 -0.6170 -0.7485
28539TIP3   OH286498   6.204   2.335   4.434  0.1716  0.5283  0.1201
28539TIP3    H186499   6.226   2.309   4.344  3.1747  1.6119  0.4248
28539TIP3    H286500   6.154   2.416   4.425  0.0162  0.3613 -0.5713
28540TIP3   OH286501   0.990   3.466   8.812 -0.0358  0.4505 -0.0539
28540TIP3    H186502   0.940   3.543   8.787  0.1455  0.6313  0.1257
28540TIP3    H286503   1.016   3.425   8.730  1.0502  1.3559 -0.1929
28541TIP3   OH286504   9.566   9.448   8.972  0.5079  0.5035  0.0788
28541TIP3    H186505   9.532   9.533   8.944  0.4506 -0.0041 -1.4738
28541TIP3    H286506   9.613   9.467   9.053  0.3896  1.9984 -0.1738
28542TIP3   OH286507   2.144   6.505   1.826 -0.5250  0.4199  0.0948
28542TIP3    H186508   2.114   6.593   1.802 -1.8264  0.3407  1.2829
28542TIP3    H286509   2.065   6.450   1.817  0.2419 -0.6155 -0.5217
28543TIP3   OH286510   7.047   0.642   9.863 -0.3062 -0.3359  0.1845
28543TIP3    H186511   7.136   0.674   9.882 -0.5628 -0.2003  1.2229
28543TIP3    H286512   7.059   0.548   9.850  0.4282  0.0815 -2.7530
28544TIP3   OH286513   0.024   2.672   9.601 -0.6492  0.0989 -0.8535
28544TIP3    H186514  -0.034   2.596   9.602  1.0170 -1.2638  1.0363
28544TIP3    H286515   0.030   2.699   9.693  1.0151  0.7068 -1.1042
28545TIP3   OH286516   1.204   9.283  10.675  0.1861  0.4751  0.5303
28545TIP3    H186517   1.275   9.335  10.638  0.0113 -0.7870 -1.7455
28545TIP3    H286518   1.125   9.318  10.635 -0.4269  1.1505  2.2170
28546TIP3   OH286519   2.894   1.902   1.438 -0.0077  0.3638  0.5376
28546TIP3    H186520   2.916   1.960   1.511 -1.5240 -1.0518  2.2177
28546TIP3    H286521   2.947   1.823   1.453 -0.0284  0.2124 -0.1322
28547TIP3   OH286522  10.830   6.203   9.094 -0.1732  0.5208 -0.4681
28547TIP3    H186523  10.784   6.133   9.048  0.6456 -0.2050 -0.2102
28547TIP3    H286524  10.894   6.158   9.149 -0.2323  1.4352  0.3799
28548TIP3   OH286525   7.742   7.125   0.421  0.1364 -0.6660  0.5314
28548TIP3    H186526   7.696   7.145   0.340  2.7047 -1.3844 -1.2072
28548TIP3    H286527   7.830   7.162   0.409  0.9629 -1.8188  2.4763
28549TIP3   OH286528   3.819   8.061  10.529 -0.1066  0.3112  0.5517
28549TIP3    H186529   3.848   8.091  10.616  0.4152  0.6847  0.2550
28549TIP3    H286530   3.758   8.128  10.499 -0.4025  0.1051  0.6924
28550TIP3   OH286531   5.415   9.595  10.583  0.9203 -0.5089 -0.1136
28550TIP3    H186532   5.490   9.554  10.626  0.7189 -1.0734 -0.2831
28550TIP3    H286533   5.341   9.576  10.640  0.8802 -0.0985 -0.0309
28551TIP3   OH286534   3.400   9.458   3.379 -0.0925  0.0135 -0.2268
28551TIP3    H186535   3.391   9.382   3.321  1.5288  0.7852 -1.5822
28551TIP3    H286536   3.364   9.531   3.328  1.3238  0.6953 -0.3177
28552TIP3   OH286537   5.110   4.599  10.213 -0.2069 -0.6008  0.0480
28552TIP3    H186538   5.178   4.577  10.277 -0.6882 -0.4884  0.6120
28552TIP3    H286539   5.102   4.694  10.219  0.4474 -0.4696 -0.9172
28553TIP3   OH286540   4.503   2.769   6.770  0.1402 -0.2203 -0.3323
28553TIP3    H186541   4.489   2.704   6.839 -2.2251 -0.9403 -1.3847
28553TIP3    H286542   4.554   2.722   6.703 -0.2837 -0.5250 -0.4443
28554TIP3   OH286543   1.018   6.118   3.172  0.1799  0.3051  0.6864
28554TIP3    H186544   1.035   6.028   3.198 -1.0294 -0.9657 -2.4667
28554TIP3    H286545   1.086   6.169   3.216  2.1869 -2.3956  0.9389
28555TIP3   OH286546   8.980   7.383   0.826  0.5638  0.1284  0.3174
28555TIP3    H186547   8.904   7.388   0.883  1.0144  0.5815  0.8945
28555TIP3    H286548   8.947   7.406   0.739  0.2786  1.6048  0.7913
28556TIP3   OH286549   9.628   6.391   7.868  0.5535 -0.1836  0.5829
28556TIP3    H186550   9.638   6.485   7.883  0.3033 -0.3271  1.7530
28556TIP3    H286551   9.693   6.370   7.801  1.8325  0.5089  1.5644
28557TIP3   OH286552   7.247   1.597   5.145  0.2461 -0.1329 -0.2695
28557TIP3    H186553   7.152   1.606   5.143 -0.0534 -1.8503  2.1079
28557TIP3    H286554   7.262   1.503   5.135  1.5990 -0.0573  0.8659
28558TIP3   OH286555   2.651  10.140   2.656 -0.1766  0.1606 -0.6793
28558TIP3    H186556   2.607  10.130   2.572 -1.0090 -1.7144 -0.0576
28558TIP3    H286557   2.581  10.137   2.721  0.4526  1.6155  0.1194
28559TIP3   OH286558   2.383   6.710   9.196 -0.1662  0.2011  0.3002
28559TIP3    H186559   2.354   6.676   9.281  0.7177 -0.2308  0.4388
28559TIP3    H286560   2.478   6.705   9.199  0.0884  3.4719  0.6237
28560TIP3   OH286561   4.026   9.050   6.951 -0.1135  0.0765 -0.2318
28560TIP3    H186562   4.085   9.115   6.989  1.1508 -1.8891  1.3530
28560TIP3    H286563   4.064   9.032   6.865  0.7121 -0.0287  0.1396
28561TIP3   OH286564   7.599   4.823   6.902  0.2528  0.9760  0.1434
28561TIP3    H186565   7.689   4.795   6.883  0.1379 -0.2947  1.2591
28561TIP3    H286566   7.545   4.766   6.848  0.0888  0.5648  0.7214
28562TIP3   OH286567   2.670   5.654   1.301 -0.5956 -0.0848 -0.5271
28562TIP3    H186568   2.719   5.685   1.377 -0.6768  2.2119 -1.3423
28562TIP3    H286569   2.583   5.632   1.335 -0.0532 -0.9635  0.3410
28563TIP3   OH286570   3.012   3.010   5.119  0.3530 -0.1182 -0.0475
28563TIP3    H186571   3.015   3.090   5.066 -0.0552  0.1103  0.2645
28563TIP3    H286572   3.098   3.006   5.161 -0.2492  1.2228  1.4489
28564TIP3   OH286573   8.317  10.312   4.873 -0.4925  0.3442  0.2654
28564TIP3    H186574   8.353  10.261   4.946 -0.1386  1.1599  0.6721
28564TIP3    H286575   8.388  10.371   4.848 -0.0293 -0.9834 -1.8007
28565TIP3   OH286576   2.075   7.547   0.110 -0.1671 -0.3377 -0.4748
28565TIP3    H186577   2.013   7.581   0.045  0.4525  1.4229 -0.2155
28565TIP3    H286578   2.037   7.571   0.194 -0.1960 -1.2066 -0.2344
28566TIP3   OH286579   1.250   4.225   9.861  0.1869  0.3936  0.3473
28566TIP3    H186580   1.248   4.139   9.819  0.4410  0.7416 -0.3919
28566TIP3    H286581   1.340   4.234   9.893  0.7062  1.1388 -1.2160
28567TIP3   OH286582   4.302   8.502   9.623  0.8854  0.2493  0.5906
28567TIP3    H186583   4.265   8.426   9.667 -0.1577  0.1935 -0.3250
28567TIP3    H286584   4.283   8.575   9.682  0.9618 -0.0480  0.9874
28568TIP3   OH286585   7.821  10.219  10.134  0.6100 -0.5416 -0.0299
28568TIP3    H186586   7.775  10.235  10.052  1.2998 -1.0726 -0.5213
28568TIP3    H286587   7.841  10.307  10.167  0.3340 -0.3261 -0.4312
28569TIP3   OH286588   1.066   9.840   0.012  0.0204  0.3472  0.1421
28569TIP3    H186589   1.048   9.933  -0.004 -1.2991  0.1070  0.1200
28569TIP3    H286590   1.070   9.833   0.108 -1.4592  0.1923  0.2293
28570TIP3   OH286591   6.806  10.898   2.286 -0.0369 -0.4043 -0.3837
28570TIP3    H186592   6.723  10.942   2.269  0.0330  0.3136  1.0067
28570TIP3    H286593   6.869  10.969   2.298  0.5254 -0.9190 -0.2266
28571TIP3   OH286594   5.382   7.258   2.255  0.1672 -0.7921  0.2689
28571TIP3    H186595   5.360   7.187   2.316  0.3418  0.3519  1.7102
28571TIP3    H286596   5.300   7.307   2.244  0.6356  0.2716  1.3261
28572TIP3   OH286597   4.018   6.757   1.225 -0.2459 -0.8185  0.3437
28572TIP3    H186598   3.932   6.792   1.248 -1.0641 -2.4431 -0.1146
28572TIP3    H286599   4.079   6.827   1.249 -1.7554  0.7845 -0.2712
28573TIP3   OH286600   7.136   1.345   5.763 -0.5657 -0.2755 -0.0615
28573TIP3    H186601   7.079   1.352   5.839 -0.3529 -1.3936  0.2166
28573TIP3    H286602   7.225   1.355   5.799 -0.5215  0.4029 -0.3411
28574TIP3   OH286603   0.498  10.838   3.683 -0.0865  0.1032  0.3212
28574TIP3    H186604   0.592  10.855   3.675 -0.3146  1.0798 -0.6783
28574TIP3    H286605   0.477  10.787   3.605 -0.2086 -1.0208  1.0775
28575TIP3   OH286606   0.000   0.315   1.585 -0.0024  0.3419 -0.6693
28575TIP3    H186607  -0.017   0.342   1.675 -0.7798 -1.3542 -0.2753
28575TIP3    H286608   0.096   0.316   1.577  0.2438 -1.9200  1.0135
28576TIP3   OH286609   3.959  10.050   6.699  0.2572  0.5879 -0.1347
28576TIP3    H186610   4.028   9.990   6.726  0.5661  1.5537  1.3341
28576TIP3    H286611   3.884  10.028   6.754 -0.1469  0.4887 -0.7181
28577TIP3   OH286612  10.881   0.647   6.381  0.1536  0.5384  0.0776
28577TIP3    H186613  10.861   0.682   6.295  1.2246  1.7466  0.2873
28577TIP3    H286614  10.798   0.654   6.430 -0.3578  0.1876 -0.7241
28578TIP3   OH286615   8.149   9.399   6.044  0.8795 -0.1304  0.2483
28578TIP3    H186616   8.138   9.494   6.053 -0.7759 -0.2852  0.2400
28578TIP3    H286617   8.171   9.369   6.132 -2.3307 -0.1192  1.1796
28579TIP3   OH286618   6.702   6.362  10.214 -0.2308  0.2479  0.4501
28579TIP3    H186619   6.684   6.454  10.199  0.0225  0.3455  0.7414
28579TIP3    H286620   6.684   6.348  10.307 -0.5015 -0.0520  0.3563
28580TIP3   OH286621   5.300   2.407   7.699 -0.4041 -0.0925 -0.2625
28580TIP3    H186622   5.365   2.385   7.766  0.6204  1.3087 -0.7255
28580TIP3    H286623   5.286   2.501   7.710 -1.9298 -0.2635 -0.5755
28581TIP3   OH286624   6.147   7.134   8.867 -0.0281  0.3091  0.2801
28581TIP3    H186625   6.058   7.114   8.897  0.0096 -2.6637 -1.2098
28581TIP3    H286626   6.135   7.160   8.775  0.5863  0.6380  0.2901
28582TIP3   OH286627   6.474   2.856   4.662 -0.4424 -0.1412 -0.0133
28582TIP3    H186628   6.483   2.769   4.701  2.1907  0.6968  1.5200
28582TIP3    H286629   6.524   2.850   4.580  1.0530  0.2648  0.8279
28583TIP3   OH286630   7.870   2.092   6.595 -0.3020 -0.7392  0.7034
28583TIP3    H186631   7.877   2.141   6.677  1.6478 -0.2235  0.2860
28583TIP3    H286632   7.846   2.158   6.530 -0.2837 -0.8460  0.5873
28584TIP3   OH286633   8.352   9.526   1.571  0.3806 -0.2655  0.1171
28584TIP3    H186634   8.300   9.556   1.646 -1.8620 -0.7068 -1.1593
28584TIP3    H286635   8.364   9.605   1.518  3.9433  0.5753  1.8808
28585TIP3   OH286636   1.239   7.023   9.296  0.3728 -0.2308 -0.1212
28585TIP3    H186637   1.238   7.065   9.210  1.1349 -0.0687 -0.0597
28585TIP3    H286638   1.182   7.077   9.350  1.6192  0.9617  0.0515
28586TIP3   OH286639   5.886   4.962   3.496  0.0368  0.2664 -0.0177
28586TIP3    H186640   5.930   5.029   3.443  1.1148  0.0544  0.5773
28586TIP3    H286641   5.888   4.997   3.585 -1.6545  0.5641 -0.0565
28587TIP3   OH286642  10.588   8.154   1.433  0.5152  0.5389 -0.0153
28587TIP3    H186643  10.560   8.199   1.353 -0.2129  0.5255  0.2211
28587TIP3    H286644  10.533   8.076   1.437 -0.0609  0.9706  0.9357
28588TIP3   OH286645   2.403   9.919   0.205 -0.3168  0.4515 -0.3406
28588TIP3    H186646   2.420   9.958   0.291  1.6907  1.3907 -1.0802
28588TIP3    H286647   2.366   9.990   0.153 -0.3310  0.2493 -0.6095
28589TIP3   OH286648   7.994   3.419   0.731  0.0132  0.1904 -0.1126
28589TIP3    H186649   8.048   3.458   0.663  0.5064 -0.5125 -0.1312
28589TIP3    H286650   8.055   3.371   0.786 -0.2262  1.5547  1.4385
28590TIP3   OH286651   6.239   3.831   7.915 -0.0388 -0.1459 -0.0532
28590TIP3    H186652   6.290   3.895   7.966 -0.2262 -1.0571  1.3300
28590TIP3    H286653   6.148   3.847   7.939 -0.1266 -0.6146 -0.0549
28591TIP3   OH286654  10.871   6.236   9.896  0.2899  0.3155  0.3477
28591TIP3    H186655  10.944   6.267   9.950  0.6445  1.4484 -0.7144
28591TIP3    H286656  10.868   6.299   9.823 -0.9297 -0.4649 -0.3005
28592TIP3   OH286657   5.613   7.301   2.988 -0.1840  0.2037 -0.1338
28592TIP3    H186658   5.603   7.233   2.921  0.4216  0.1657 -0.1922
28592TIP3    H286659   5.688   7.353   2.958  0.5728 -0.2659  0.9008
28593TIP3   OH286660   1.227   1.276   7.314  0.1778  0.0153  0.5611
28593TIP3    H186661   1.246   1.189   7.347  1.8914 -0.0789 -0.5347
28593TIP3    H286662   1.258   1.335   7.383  1.7899 -0.2151  0.0709
28594TIP3   OH286663   7.794   7.183   7.368 -0.1640 -0.3872  0.0923
28594TIP3    H186664   7.772   7.184   7.462  1.7998 -1.6942  0.6344
28594TIP3    H286665   7.875   7.234   7.362 -0.9714  0.8006 -1.1455
28595TIP3   OH286666   5.876   8.880   5.495 -0.5206  0.1522 -0.1542
28595TIP3    H186667   5.965   8.870   5.529  0.4376  1.6197 -2.0428
28595TIP3    H286668   5.874   8.969   5.460 -2.2921 -0.3257 -1.3744
28596TIP3   OH286669   5.355   6.789  10.304  0.4184  0.1801  0.1353
28596TIP3    H186670   5.355   6.837  10.387 -0.5364 -0.7064  0.6658
28596TIP3    H286671   5.383   6.701  10.326  0.6278  0.0621 -0.5731
28597TIP3   OH286672   4.379  10.746   9.007 -0.2680 -0.4914 -0.5442
28597TIP3    H186673   4.361  10.773   9.097  1.0783 -3.4395  0.7408
28597TIP3    H286674   4.462  10.788   8.985  1.0263 -2.1502  0.8557
28598TIP3   OH286675   4.793   0.615   0.236 -0.4864 -0.3235 -0.1540
28598TIP3    H186676   4.874   0.607   0.287 -0.0632 -1.4989 -0.9523
28598TIP3    H286677   4.735   0.667   0.291  2.1611  4.3501 -1.2303
28599TIP3   OH286678   2.907   1.734   3.797  0.3253 -0.9372  0.5249
28599TIP3    H186679   2.938   1.644   3.809  1.9578 -0.7447 -1.5511
28599TIP3    H286680   2.862   1.733   3.712  1.6036  0.4415 -0.2264
28600TIP3   OH286681   1.049   0.655   6.107  0.0820 -0.5458  0.0144
28600TIP3    H186682   0.968   0.605   6.104 -0.2185 -0.1355  0.9801
28600TIP3    H286683   1.020   0.747   6.112  0.6083 -0.1882 -2.1958
28601TIP3   OH286684   3.659   5.348   1.965 -0.4561  0.0885  0.0171
28601TIP3    H186685   3.588   5.411   1.950 -0.2941  0.0245 -1.0947
28601TIP3    H286686   3.660   5.336   2.060 -1.7721  0.2785  0.0796
28602TIP3   OH286687   1.194   0.114   9.371 -0.1800 -0.1931 -0.0222
28602TIP3    H186688   1.112   0.065   9.359 -0.6205  0.3281  0.8242
28602TIP3    H286689   1.262   0.049   9.354 -0.7564 -0.6160 -0.8244
28603TIP3   OH286690   2.351   8.603   0.824 -0.5031  0.2323  0.7196
28603TIP3    H186691   2.272   8.568   0.783 -0.0381 -1.7733  1.4230
28603TIP3    H286692   2.320   8.641   0.907 -1.3088  3.5074 -0.9167
28604TIP3   OH286693   3.688   5.162  10.616  0.3669  0.5584 -0.6038
28604TIP3    H186694   3.735   5.181  10.697 -0.7396  0.6119  0.0360
28604TIP3    H286695   3.690   5.066  10.609  0.9037  0.5800 -0.7901
28605TIP3   OH286696   8.619   0.842   7.624  0.0769  0.2186  0.3351
28605TIP3    H186697   8.705   0.812   7.595 -0.9296 -1.9761 -0.6179
28605TIP3    H286698   8.564   0.835   7.546 -0.6800  3.0632  0.5073
28606TIP3   OH286699   9.370   7.193   3.250 -0.1768 -0.5195 -0.2463
28606TIP3    H186700   9.447   7.144   3.220  0.0676 -1.3296  1.5562
28606TIP3    H286701   9.376   7.277   3.204  2.5202 -0.0427  0.7812
28607TIP3   OH286702   4.448   0.485   2.907  0.2430  0.4191 -0.1811
28607TIP3    H186703   4.544   0.476   2.905  0.0918 -1.6420 -0.2951
28607TIP3    H286704   4.433   0.576   2.935  2.2220  0.2558  1.7090
28608TIP3   OH286705   7.236   3.753   1.061  0.1771 -0.7541 -0.6721
28608TIP3    H186706   7.320   3.795   1.080 -0.5748 -0.4824  2.7875
28608TIP3    H286707   7.217   3.776   0.970  3.3158  0.0294 -1.2494
28609TIP3   OH286708   9.550   3.192   2.258 -0.0073 -0.0971 -0.1296
28609TIP3    H186709   9.587   3.130   2.321 -1.2357 -0.9279 -0.1809
28609TIP3    H286710   9.458   3.200   2.284  0.3046  2.4426  0.4393
28610TIP3   OH286711   4.416   6.981   2.529 -0.7892  0.0369  0.2818
28610TIP3    H186712   4.473   6.904   2.524  0.1811  0.6694  1.0273
28610TIP3    H286713   4.399   7.005   2.438 -0.6982 -0.7637  0.0455
28611TIP3   OH286714  10.810   7.555   7.715 -0.1752 -0.7080 -0.2737
28611TIP3    H186715  10.903   7.547   7.693 -0.6004 -1.4441 -1.9421
28611TIP3    H286716  10.808   7.619   7.787  1.5218  0.2343 -0.9954
28612TIP3   OH286717  10.144   5.508   4.406  0.3395  0.0223 -0.0575
28612TIP3    H186718  10.193   5.500   4.324 -1.4011 -1.6706 -1.0192
28612TIP3    H286719  10.112   5.598   4.406  1.9461  0.6405 -0.2385
28613TIP3   OH286720   2.903   3.455   0.914 -0.2410  0.0957 -0.3771
28613TIP3    H186721   2.878   3.399   0.988 -0.2706 -1.5752 -1.6079
28613TIP3    H286722   2.835   3.522   0.910 -0.5910 -0.1721  0.6818
28614TIP3   OH286723   5.495   9.657   5.257 -0.1543  0.0341 -0.0056
28614TIP3    H186724   5.526   9.728   5.201 -0.8094 -0.9550 -1.6870
28614TIP3    H286725   5.458   9.592   5.197  0.0300 -1.5548  1.5009
28615TIP3   OH286726   9.910   3.708   9.557 -0.2074 -0.0409 -0.2348
28615TIP3    H186727   9.830   3.754   9.581 -0.4365 -0.7590  0.4187
28615TIP3    H286728   9.970   3.778   9.530 -0.5161  0.6684  0.8024
28616TIP3   OH286729   9.585  10.834   0.943 -0.7228  0.7471 -0.3644
28616TIP3    H186730   9.522  10.855   1.012  0.3075  2.4649  0.1203
28616TIP3    H286731   9.660  10.797   0.989 -0.7898  0.0580 -0.7916
28617TIP3   OH286732   7.644   1.310  10.810 -0.6953  0.3698 -0.1226
28617TIP3    H186733   7.739   1.327  10.812 -0.5824  0.2064  3.8806
28617TIP3    H286734   7.604   1.396  10.811 -0.4423  0.5095  1.8122
28618TIP3   OH286735   0.256   2.843   6.369  0.3175  0.2573  0.1848
28618TIP3    H186736   0.230   2.920   6.419  0.0555  0.6899 -0.6054
28618TIP3    H286737   0.219   2.769   6.418 -0.4846  0.7170  0.2862
28619TIP3   OH286738   6.466   7.000   8.655  0.3244  0.3238  0.7403
28619TIP3    H186739   6.532   6.967   8.715  0.7097  2.4019  1.5370
28619TIP3    H286740   6.507   6.993   8.568  0.6109 -0.6813  0.9519
28620TIP3   OH286741   8.920  10.378   7.319  0.0182  0.1420 -0.1531
28620TIP3    H186742   8.868  10.330   7.383  0.7954 -1.0946 -0.4061
28620TIP3    H286743   8.858  10.402   7.250 -0.1976 -1.5387 -0.5812
28621TIP3   OH286744   1.782   1.911   2.271 -0.1430 -0.3158  0.7296
28621TIP3    H186745   1.760   1.877   2.357 -2.7212  0.1227  0.3467
28621TIP3    H286746   1.710   1.970   2.250  1.0811  0.6101 -1.1873
28622TIP3   OH286747   2.916   9.359   4.352  0.3844  0.1506  0.0931
28622TIP3    H186748   2.894   9.303   4.277  2.8226  1.0223 -1.3921
28622TIP3    H286749   3.005   9.333   4.375 -0.4996 -0.5118  3.1873
28623TIP3   OH286750   7.822   5.275   3.755  0.0302  0.5162 -0.1450
28623TIP3    H186751   7.846   5.191   3.715 -2.9660 -0.0970 -0.8776
28623TIP3    H286752   7.788   5.327   3.683  0.9062  2.0353  0.4965
28624TIP3   OH286753   7.853   2.442   7.900 -0.1736  0.5036  0.2145
28624TIP3    H186754   7.909   2.460   7.975 -0.1112 -1.8655  0.8269
28624TIP3    H286755   7.843   2.526   7.856  0.6993  1.7288  2.2430
28625TIP3   OH286756   1.677  10.126   8.141  0.1762 -0.0171  0.3206
28625TIP3    H186757   1.766  10.126   8.106  0.2621 -1.3269  0.4680
28625TIP3    H286758   1.621  10.113   8.064  0.0780  1.0596  0.1938
28626TIP3   OH286759   5.232   7.854   0.379  0.8125 -0.0721 -0.7499
28626TIP3    H186760   5.299   7.839   0.446  0.2520 -0.6210 -0.2988
28626TIP3    H286761   5.163   7.901   0.424  1.2172  1.2009 -1.4132
28627TIP3   OH286762  10.366   7.040   4.222 -0.4847  0.3674 -0.0913
28627TIP3    H186763  10.424   7.009   4.152  0.4021  0.7990  0.4191
28627TIP3    H286764  10.403   7.126   4.246 -1.0021  0.3933  0.6373
28628TIP3   OH286765   1.732   9.495   6.288 -0.0434 -0.9006  0.4676
28628TIP3    H186766   1.777   9.573   6.255  2.2492 -1.2768  2.4682
28628TIP3    H286767   1.727   9.437   6.212 -0.1722  0.4493 -0.6063
28629TIP3   OH286768   2.949   4.841   6.029  0.5075  0.3416 -0.1203
28629TIP3    H186769   3.034   4.872   5.996  0.6143  1.5735  1.2332
28629TIP3    H286770   2.896   4.920   6.039  0.3805  0.0154  2.2830
28630TIP3   OH286771   4.853   4.321   3.211  0.7094 -0.3654  0.3072
28630TIP3    H186772   4.780   4.382   3.200  1.9469  0.8778 -1.7945
28630TIP3    H286773   4.883   4.336   3.301  0.5625  1.6873  0.0655
28631TIP3   OH286774   3.764   3.493  10.108  0.2846  0.0285  0.0663
28631TIP3    H186775   3.756   3.564  10.044 -1.1209 -1.1148 -1.0968
28631TIP3    H286776   3.700   3.515  10.176  0.3291  0.1902  0.0586
28632TIP3   OH286777   7.906   4.680   8.859  0.5069 -0.2972 -0.5572
28632TIP3    H186778   7.857   4.635   8.927  1.1071 -2.0998 -1.2520
28632TIP3    H286779   7.876   4.640   8.777  2.2249 -0.5942 -1.0760
28633TIP3   OH286780   9.750   4.542   0.708  0.3332  0.5971 -0.2282
28633TIP3    H186781   9.691   4.610   0.678  2.4543  2.0506 -1.3336
28633TIP3    H286782   9.752   4.478   0.637 -0.5959  0.0403  0.2243
28634TIP3   OH286783   0.950   9.148   5.281  0.0339  0.0899  0.6405
28634TIP3    H186784   0.928   9.238   5.304 -1.4175 -0.0968  0.1004
28634TIP3    H286785   0.970   9.105   5.364  0.6279  0.8632  0.9104
28635TIP3   OH286786   2.487   8.129   6.058 -0.0136  0.0441 -0.2265
28635TIP3    H186787   2.463   8.161   6.145 -1.3337 -0.3028 -0.4325
28635TIP3    H286788   2.581   8.143   6.052  0.2286 -0.6102  1.5379
28636TIP3   OH286789  10.358   9.873  10.101 -0.8854  0.1246  0.1982
28636TIP3    H186790  10.418   9.799  10.090  0.8439  1.0697  2.4449
28636TIP3    H286791  10.304   9.850  10.176 -3.2028 -0.5185 -1.5267
28637TIP3   OH286792   8.444  10.863   2.346 -0.2314 -0.0863 -0.3571
28637TIP3    H186793   8.422  10.956   2.351  1.0900  0.1799  1.3187
28637TIP3    H286794   8.490  10.853   2.263 -0.8791  0.6201 -0.8141
28638TIP3   OH286795   7.619   2.049   3.448  0.4179  1.0777  0.0523
28638TIP3    H186796   7.568   2.031   3.527 -0.1692 -0.6383 -0.6686
28638TIP3    H286797   7.710   2.050   3.477  0.2092  0.4514  0.7469
28639TIP3   OH286798   6.781   4.165   7.313  0.2003 -1.0000  0.2788
28639TIP3    H186799   6.705   4.173   7.371 -1.2499 -3.0248 -1.1815
28639TIP3    H286800   6.809   4.074   7.324  0.5052 -1.1276 -1.4137
28640TIP3   OH286801   8.002   7.457   8.455  0.3408  0.5463  0.5414
28640TIP3    H186802   7.920   7.419   8.423 -0.1319  0.9063  1.2977
28640TIP3    H286803   8.067   7.432   8.389 -0.9440  3.0207 -1.9018
28641TIP3   OH286804   3.490   3.909   6.049  0.1831  0.3111  0.6443
28641TIP3    H186805   3.430   3.955   5.991 -0.1918 -1.3390 -0.3576
28641TIP3    H286806   3.505   3.969   6.121 -0.1682  2.0199 -0.6420
28642TIP3   OH286807   8.889   7.996   8.753 -0.5358 -0.3103  0.2273
28642TIP3    H186808   8.896   8.073   8.808  0.6567  1.1679 -1.8537
28642TIP3    H286809   8.969   7.946   8.770 -0.3028 -0.0001  0.0544
28643TIP3   OH286810   2.359   6.730   9.502 -0.0700  0.3655 -0.0115
28643TIP3    H186811   2.380   6.686   9.585  0.5976 -0.8445 -0.8058
28643TIP3    H286812   2.433   6.788   9.486 -0.7088  1.4258  0.7733
28644TIP3   OH286813   8.472   6.378  10.352  0.3772 -0.4595 -0.2403
28644TIP3    H186814   8.549   6.424  10.319 -0.2965  0.1256 -1.0597
28644TIP3    H286815   8.398   6.424  10.312 -0.5218  0.3688  2.1353
28645TIP3   OH286816   7.769   3.791   6.711  0.1224 -0.1326  0.1600
28645TIP3    H186817   7.829   3.716   6.718  0.8167  0.4727  0.9073
28645TIP3    H286818   7.824   3.863   6.679 -0.0253  0.6023  1.4729
28646TIP3   OH286819   7.872   0.615   3.999  0.4927  0.1376  0.4868
28646TIP3    H186820   7.874   0.553   3.925 -0.1867 -0.7765  1.2118
28646TIP3    H286821   7.963   0.641   4.011  0.3321  2.8009 -2.6875
28647TIP3   OH286822  10.684   1.314   3.187 -0.8051 -0.1204 -0.4635
28647TIP3    H186823  10.775   1.332   3.162 -1.2579  0.4938 -1.7654
28647TIP3    H286824  10.669   1.223   3.160 -0.0267 -0.8752  1.5108
28648TIP3   OH286825   8.324  10.654   3.069 -0.1222 -0.3580 -0.9597
28648TIP3    H186826   8.348  10.730   3.017 -0.7369 -1.0642 -2.3349
28648TIP3    H286827   8.289  10.591   3.005 -1.0724 -1.1967  0.3357
28649TIP3   OH286828   3.189   2.492   1.940  0.3029 -0.6717 -0.1740
28649TIP3    H186829   3.170   2.570   1.888 -0.0802 -0.6505 -0.0122
28649TIP3    H286830   3.221   2.428   1.876 -0.9697 -0.9299 -0.5974
28650TIP3   OH286831   0.018   4.919   0.367 -0.7340 -0.6198 -0.1765
28650TIP3    H186832  -0.071   4.931   0.400 -1.4613 -1.5499 -1.6770
28650TIP3    H286833   0.033   4.824   0.373  0.4765 -0.3806  0.8133
28651TIP3   OH286834   5.477   1.667   3.627  1.0136 -0.0960 -0.2904
28651TIP3    H186835   5.449   1.629   3.543  0.3078  0.2643 -0.2266
28651TIP3    H286836   5.563   1.629   3.643  0.9672 -0.5049 -0.9674
28652TIP3   OH286837   3.518   2.010  10.790 -0.1744  0.2117  0.0923
28652TIP3    H186838   3.533   1.917  10.807  3.9576  0.7165  0.2684
28652TIP3    H286839   3.484   2.044  10.873  0.0408 -0.8370  0.6233
28653TIP3   OH286840   7.889  10.732   9.685  0.1910  0.3522  0.3007
28653TIP3    H186841   7.857  10.698   9.768  0.4268 -0.5062  0.0512
28653TIP3    H286842   7.980  10.757   9.702  0.1917  0.3240  0.3392
28654TIP3   OH286843   7.579  10.830   6.141  0.3419 -0.3222 -0.5238
28654TIP3    H186844   7.623  10.789   6.066 -0.8087  0.1441 -1.4974
28654TIP3    H286845   7.488  10.838   6.113 -0.3878 -1.2212  1.4008
28655TIP3   OH286846   3.694  10.310   7.919 -0.0897  0.0153 -0.1455
28655TIP3    H186847   3.732  10.396   7.938 -1.0578  0.5321 -0.4871
28655TIP3    H286848   3.769  10.257   7.893  0.3650  1.1502 -1.3005
28656TIP3   OH286849   9.117   8.972   3.826 -0.7015 -0.1563  0.4400
28656TIP3    H186850   9.124   9.050   3.882 -3.0100  0.5514 -0.1535
28656TIP3    H286851   9.047   8.920   3.865 -1.5269 -0.2381 -1.0897
28657TIP3   OH286852   7.479   0.925   7.122 -0.6608 -0.2540 -0.2067
28657TIP3    H186853   7.521   1.008   7.147 -1.3966  0.3259 -0.8393
28657TIP3    H286854   7.524   0.898   7.043 -1.2213  0.1968 -0.6967
28658TIP3   OH286855  10.612   8.506  10.434 -0.3808  0.3045 -0.0136
28658TIP3    H186856  10.532   8.558  10.433  0.8338  2.4264 -3.3436
28658TIP3    H286857  10.674   8.556  10.381  2.8954 -1.7014  1.5830
28659TIP3   OH286858   0.571   3.236   4.386 -0.3035 -0.4530  0.4815
28659TIP3    H186859   0.606   3.147   4.393 -1.0658 -0.8941 -0.9470
28659TIP3    H286860   0.492   3.226   4.333 -0.2613  1.1116  0.0871
28660TIP3   OH286861  10.016   6.272   8.769  0.1058 -0.1024  0.5277
28660TIP3    H186862  10.022   6.198   8.709  0.3487  0.5469 -0.2742
28660TIP3    H286863   9.922   6.286   8.782  0.0616 -0.5791  0.7268
28661TIP3   OH286864   4.297   7.173   3.795  0.1224 -0.0686  0.7244
28661TIP3    H186865   4.275   7.248   3.850 -1.6001  1.0080 -1.3092
28661TIP3    H286866   4.393   7.174   3.792  0.1729  1.3836  1.6365
28662TIP3   OH286867  10.569   5.473   0.316 -0.6620 -0.4301  0.0044
28662TIP3    H186868  10.476   5.496   0.322 -1.0677 -2.2763  1.8602
28662TIP3    H286869  10.570   5.386   0.276  0.3047 -0.2632 -0.3553
28663TIP3   OH286870   6.970   3.481   3.334 -0.1372 -0.1656 -0.8884
28663TIP3    H186871   6.950   3.565   3.292 -0.3498  0.5496  0.5826
28663TIP3    H286872   6.889   3.431   3.327  0.0462 -0.3490 -1.9424
28664TIP3   OH286873   6.388   7.003   2.468  0.6655  0.0523 -0.2304
28664TIP3    H186874   6.416   6.996   2.376 -1.3645  1.1800 -0.9969
28664TIP3    H286875   6.412   6.919   2.507  2.1676 -0.2115 -1.6062
28665TIP3   OH286876   6.436   0.639   6.075  0.2892 -0.2473  0.4367
28665TIP3    H186877   6.448   0.588   5.995  0.3976 -0.9885  0.9160
28665TIP3    H286878   6.371   0.705   6.052  2.0906  1.1122 -0.9641
28666TIP3   OH286879   5.447   6.806   5.365  0.5510  0.6590  0.0799
28666TIP3    H186880   5.425   6.770   5.451  0.1036 -0.0107 -0.3013
28666TIP3    H286881   5.372   6.860   5.342 -0.8119 -1.6239 -1.2207
28667TIP3   OH286882  10.226   7.441   2.430 -0.2591  0.2174  0.2184
28667TIP3    H186883  10.139   7.463   2.464 -0.6868 -0.1768 -0.5911
28667TIP3    H286884  10.212   7.365   2.374  0.2025  1.4509 -1.6959
28668TIP3   OH286885   8.133  10.124   0.107  1.0426  0.3033  0.2089
28668TIP3    H186886   8.163  10.118   0.016  1.8691 -1.7190  0.5400
28668TIP3    H286887   8.201  10.175   0.151  1.4087  0.0251 -0.0260
28669TIP3   OH286888   1.955   3.401   7.712 -0.1293  0.0773  0.0064
28669TIP3    H186889   2.025   3.426   7.773 -1.4024  0.2606  1.4482
28669TIP3    H286890   1.961   3.465   7.641  0.1338  1.1128  0.9333
28670TIP3   OH286891   1.450   3.620   0.941 -0.0016  0.1375 -0.0426
28670TIP3    H186892   1.382   3.565   0.902 -0.3097 -0.8628  1.7855
28670TIP3    H286893   1.459   3.587   1.030  0.9608  2.0430  0.6173
28671TIP3   OH286894   0.306   6.162   8.167 -0.7775  0.1894  0.3215
28671TIP3    H186895   0.281   6.168   8.259 -1.5718  4.1593  0.0315
28671TIP3    H286896   0.229   6.190   8.118  0.2683  0.2552 -1.3969
28672TIP3   OH286897   1.264   0.985   3.728  0.1777  1.0043 -0.1445
28672TIP3    H186898   1.347   1.031   3.719  1.1183 -0.3813  1.0227
28672TIP3    H286899   1.282   0.914   3.791 -2.4150  1.9334  1.8197
28673TIP3   OH286900   0.131   7.202   0.150 -0.9439  0.1573  1.0438
28673TIP3    H186901   0.156   7.169   0.236 -0.0331  2.0715  1.5558
28673TIP3    H286902   0.083   7.283   0.167 -0.5806  0.6762 -0.2434
28674TIP3   OH286903   8.418   0.821   6.897  0.5531  0.2192 -0.0350
28674TIP3    H186904   8.329   0.787   6.894  0.5063  0.3978 -1.0854
28674TIP3    H286905   8.461   0.770   6.964 -0.0266 -0.6472 -0.3060
28675TIP3   OH286906   1.326   7.084   7.130 -0.0370  0.1124 -0.4595
28675TIP3    H186907   1.369   7.136   7.198  0.6660 -2.7517  1.4898
28675TIP3    H286908   1.234   7.106   7.137  0.0929  0.2713  1.1064
28676TIP3   OH286909  10.879  10.482  10.457 -0.1443 -0.0269 -0.1948
28676TIP3    H186910  10.911  10.547  10.519 -1.2713  0.7620 -0.4114
28676TIP3    H286911  10.884  10.526  10.372  1.2093 -1.0306 -0.6622
28677TIP3   OH286912   7.898   8.282   9.372 -0.4487  0.3959 -0.2778
28677TIP3    H186913   7.985   8.320   9.384 -0.2685  0.7984 -2.3796
28677TIP3    H286914   7.838   8.357   9.373 -0.7069  0.1860  0.5460
28678TIP3   OH286915  10.089   7.924   4.668  0.1215 -0.1786 -0.5169
28678TIP3    H186916  10.123   7.838   4.693  0.3478  0.1392  0.3177
28678TIP3    H286917  10.167   7.979   4.659 -0.0704  0.1585 -0.1522
28679TIP3   OH286918   2.695   5.990   4.825 -0.8156 -0.1019 -0.5495
28679TIP3    H186919   2.682   6.031   4.911  0.0378 -0.0781 -0.4206
28679TIP3    H286920   2.790   5.984   4.816 -0.9086 -1.5997 -0.7763
28680TIP3   OH286921   4.143   5.928   4.684  0.1195  0.6591 -0.3329
28680TIP3    H186922   4.144   6.019   4.714 -0.4390  0.5304  0.0980
28680TIP3    H286923   4.205   5.926   4.611 -0.8005  1.6793 -1.1784
28681TIP3   OH286924  10.399   1.464   4.353  0.1402  0.2393 -0.2738
28681TIP3    H186925  10.424   1.552   4.381 -3.2185  1.5829 -1.0969
28681TIP3    H286926  10.341   1.432   4.422  1.7041 -1.6302  0.2735
28682TIP3   OH286927  10.707   7.929   7.878  0.4501 -0.7186 -0.2469
28682TIP3    H186928  10.612   7.933   7.874  0.3081 -2.3803  0.4531
28682TIP3    H286929  10.729   7.962   7.965  0.6528  1.0066 -0.9214
28683TIP3   OH286930  10.121   9.675   4.213 -0.0512 -0.5236  0.3018
28683TIP3    H186931  10.058   9.648   4.146 -0.0141  0.2722 -0.0639
28683TIP3    H286932  10.087   9.759   4.245  1.4045  0.4743 -0.6928
28684TIP3   OH286933   9.817   3.934   1.363  0.2565 -0.4316  0.5065
28684TIP3    H186934   9.773   3.941   1.279 -1.3870  0.7631  1.4142
28684TIP3    H286935   9.847   3.843   1.367 -0.7774 -0.8605 -0.7995
28685TIP3   OH286936   4.014   7.520   8.954 -0.0204 -0.0697 -0.2720
28685TIP3    H186937   4.109   7.510   8.949  0.3305  2.7002 -0.7435
28685TIP3    H286938   3.991   7.572   8.876 -1.6084  1.1027  0.9095
28686TIP3   OH286939   9.398   8.626   2.041 -0.4754 -0.0846 -0.1982
28686TIP3    H186940   9.379   8.690   2.109 -0.4201 -1.2352  0.9329
28686TIP3    H286941   9.330   8.639   1.975 -0.0639  1.5791 -0.3197
28687TIP3   OH286942   8.337   1.379   8.747 -0.5105  0.2593  0.4135
28687TIP3    H186943   8.299   1.465   8.764 -1.6348 -0.3275  0.9800
28687TIP3    H286944   8.263   1.319   8.751  0.3089 -0.7833  0.3698
28688TIP3   OH286945   2.122   6.562   1.437 -0.9143 -0.2946  0.3339
28688TIP3    H186946   2.117   6.607   1.521  1.1557  0.6547  0.0175
28688TIP3    H286947   2.211   6.527   1.433 -0.4969  0.8046 -1.9758
28689TIP3   OH286948   8.955   6.648   7.642  0.0779  0.0651  0.3572
28689TIP3    H186949   8.984   6.739   7.651 -1.1340  0.5498 -0.2987
28689TIP3    H286950   9.032   6.596   7.663  0.5432  1.2191  1.7161
28690TIP3   OH286951  10.196   3.620   3.121 -0.2797 -0.5121 -0.5716
28690TIP3    H186952  10.259   3.691   3.108 -1.1201  0.0033 -2.1346
28690TIP3    H286953  10.232   3.547   3.070  0.6150 -1.2790  1.0804
28691TIP3   OH286954   2.894   1.391   1.895 -0.4560 -0.4108  0.1352
28691TIP3    H186955   2.939   1.337   1.960 -0.1551  0.4520  0.6489
28691TIP3    H286956   2.902   1.481   1.927 -2.3547 -0.1946  0.1273
28692TIP3   OH286957   0.213   1.946   7.512  0.0326  0.8666 -0.3242
28692TIP3    H186958   0.187   1.890   7.439 -0.8509  2.1331 -1.0224
28692TIP3    H286959   0.260   2.019   7.471 -2.6489  2.9450 -0.0170
28693TIP3   OH286960   8.379  10.812   1.884 -0.0793  0.5470 -0.0867
28693TIP3    H186961   8.370  10.717   1.897 -1.1021  0.4511 -1.2768
28693TIP3    H286962   8.473  10.828   1.891 -0.0933  0.0172  3.4923
28694TIP3   OH286963   8.776   0.143   7.447  0.5755  0.5156  0.6589
28694TIP3    H186964   8.758   0.230   7.483 -1.5485 -0.0368  1.0192
28694TIP3    H286965   8.712   0.086   7.488 -0.9876 -0.4538 -2.7583
28695TIP3   OH286966   9.592   4.571   3.774 -0.3373 -0.5811  0.1741
28695TIP3    H186967   9.626   4.636   3.712 -0.1596  0.1560  1.0207
28695TIP3    H286968   9.651   4.577   3.850  0.0595 -2.1863  0.0222
28696TIP3   OH286969  10.205   8.710   5.296  0.0461 -0.6539 -0.0930
28696TIP3    H186970  10.124   8.739   5.337 -1.0109 -0.6367 -2.0700
28696TIP3    H286971  10.177   8.657   5.221  1.8496 -0.7239 -0.7791
28697TIP3   OH286972   9.032   0.364  10.620 -0.7097  0.0082  0.4144
28697TIP3    H186973   9.004   0.312  10.545  1.6270 -0.5717 -0.1579
28697TIP3    H286974   9.017   0.455  10.593  0.2014 -0.1846 -0.8668
28698TIP3   OH286975   5.714  10.143   7.857 -0.3757 -0.3462  0.1790
28698TIP3    H186976   5.774  10.130   7.931  0.1095 -2.0986 -0.4756
28698TIP3    H286977   5.716  10.237   7.841  1.8906 -0.2855  0.4613
28699TIP3   OH286978   5.806   3.140   6.618 -0.0694 -0.6597  0.6633
28699TIP3    H186979   5.746   3.201   6.575 -1.2865  0.9439  4.1899
28699TIP3    H286980   5.749   3.068   6.648  0.7152 -1.6910 -0.2441
28700TIP3   OH286981   3.902   0.382  10.688 -0.1844 -0.0286  0.1096
28700TIP3    H186982   3.892   0.468  10.730  0.4129 -0.2102  0.6384
28700TIP3    H286983   3.986   0.350  10.720 -0.7757 -1.1643  0.5573
28701TIP3   OH286984   0.300   4.886   5.783  0.0022  0.3278  0.1868
28701TIP3    H186985   0.306   4.959   5.845  0.4464 -0.0129  0.5542
28701TIP3    H286986   0.296   4.928   5.697  1.3390  0.7815  0.3212
28702TIP3   OH286987   4.911   2.330   0.316  0.1617  0.0489 -0.1681
28702TIP3    H186988   4.903   2.275   0.238  1.4641  0.5263 -0.6671
28702TIP3    H286989   4.864   2.410   0.293  2.6041  1.2317 -1.5286
28703TIP3   OH286990   4.858   7.243   3.272 -0.3431  0.2890 -0.2596
28703TIP3    H186991   4.947   7.231   3.240  0.7325  0.5909  2.3839
28703TIP3    H286992   4.812   7.163   3.245  0.5384  0.3307 -2.0558
28704TIP3   OH286993   4.697   4.427   9.983 -0.5043 -0.3542  0.4108
28704TIP3    H186994   4.763   4.405  10.049 -1.6117  0.3207  1.8143
28704TIP3    H286995   4.619   4.379  10.010 -1.7746  1.9623  1.2125
28705TIP3   OH286996   2.810   5.896   1.409 -0.0374 -0.2049 -0.2039
28705TIP3    H186997   2.801   5.864   1.319  1.9575  1.2272 -0.9813
28705TIP3    H286998   2.726   5.939   1.427 -0.2073  0.1439 -1.6676
28706TIP3   OH286999   2.848  10.633   2.296  0.1074  0.5777  0.2483
28706TIP3    H187000   2.850  10.639   2.391 -2.4323 -0.0153  0.4008
28706TIP3    H287001   2.806  10.714   2.268  1.3544  1.0119 -0.4428
28707TIP3   OH287002   3.019   5.866   9.167  0.0730  0.2620  0.3908
28707TIP3    H187003   3.111   5.891   9.165  1.0526 -2.7965 -2.6428
28707TIP3    H287004   2.972   5.949   9.160  2.6194  1.8201  0.4665
28708TIP3   OH287005   7.772   3.702  10.888 -0.0665  0.5798 -0.0714
28708TIP3    H187006   7.816   3.761  10.949  1.3870  0.1467 -0.6521
28708TIP3    H287007   7.776   3.746  10.804  0.7847 -0.1968 -0.4546
28709TIP3   OH287008   3.957   9.140   2.721 -0.6028  0.0998  0.3559
28709TIP3    H187009   3.878   9.175   2.764  0.3270  1.9911  0.6611
28709TIP3    H287010   3.949   9.169   2.630 -1.0413 -1.1513 -0.0163
28710TIP3   OH287011   5.652   9.546   9.591  0.1826  0.4324 -0.5528
28710TIP3    H187012   5.648   9.475   9.655 -0.1859  0.5358 -0.4597
28710TIP3    H287013   5.738   9.537   9.550  0.5205  0.5160  0.1270
28711TIP3   OH287014   1.230   3.996   8.206 -0.2167 -0.1214 -0.0975
28711TIP3    H187015   1.265   4.045   8.280  0.8713  0.3513 -0.8983
28711TIP3    H287016   1.262   3.907   8.218  0.7936  0.1733 -0.5017
28712TIP3   OH287017   2.102   3.998   2.319  0.1833 -0.0206  0.0533
28712TIP3    H187018   2.023   3.945   2.327  0.5761 -0.8362 -1.2383
28712TIP3    H287019   2.149   3.984   2.402 -0.7997  0.1431  0.6554
28713TIP3   OH287020   9.415   2.840   5.397  0.5159 -0.0950 -0.1963
28713TIP3    H187021   9.327   2.851   5.432  0.6323 -0.6647  0.2901
28713TIP3    H287022   9.466   2.910   5.437  0.4602 -0.2483  0.1503
28714TIP3   OH287023   2.865   9.958   1.039  0.3332  0.1817 -0.3549
28714TIP3    H187024   2.790   9.915   1.080  0.7581  0.8521  1.2031
28714TIP3    H287025   2.916   9.887   1.000 -0.4377 -0.4086 -0.3011
28715TIP3   OH287026   6.059   9.088   6.991  0.3700 -0.6112  0.5986
28715TIP3    H187027   5.968   9.081   7.019 -0.0019 -0.2895 -0.4760
28715TIP3    H287028   6.058   9.060   6.900  1.1304  0.5126  0.2172
28716TIP3   OH287029   6.255   1.228   9.904 -0.2530  0.6180  0.0721
28716TIP3    H187030   6.307   1.156   9.939  0.0980 -0.1937 -1.9943
28716TIP3    H287031   6.316   1.301   9.897 -0.5796  1.1478  2.0542
28717TIP3   OH287032   4.158   7.321   2.313 -0.0913  0.1683  0.1501
28717TIP3    H187033   4.251   7.330   2.333  0.2220 -1.9448 -0.1660
28717TIP3    H287034   4.146   7.372   2.233  1.0886 -0.6340 -0.5588
28718TIP3   OH287035   1.562   5.270   8.317 -0.2635  0.0072 -0.3888
28718TIP3    H187036   1.554   5.241   8.408 -0.4313  0.9238 -0.1035
28718TIP3    H287037   1.490   5.331   8.305 -0.1163  0.0487 -1.0797
28719TIP3   OH287038   8.081   8.397   0.327 -0.3447 -0.0627  0.2811
28719TIP3    H187039   8.103   8.484   0.291  0.5909 -0.1955  0.4956
28719TIP3    H287040   8.096   8.337   0.254  0.8221 -0.2459  0.6523
28720TIP3   OH287041   4.941   3.494   0.814  0.1348  0.3931  0.1006
28720TIP3    H187042   5.033   3.490   0.840  0.6356 -3.9699 -1.4393
28720TIP3    H287043   4.938   3.561   0.745  2.5064 -0.2839 -0.7589
28721TIP3   OH287044   8.767   5.751   5.601 -0.1395  0.1631 -0.0817
28721TIP3    H187045   8.818   5.798   5.668  1.2311 -0.7185 -0.4608
28721TIP3    H287046   8.721   5.683   5.650  0.0983  0.1276  0.0979
28722TIP3   OH287047   7.112   6.000   1.309 -0.0834  0.2564 -0.9134
28722TIP3    H187048   7.068   5.931   1.260 -0.2676  0.9425 -1.7343
28722TIP3    H287049   7.204   5.991   1.287  0.2472 -1.1902  0.8178
28723TIP3   OH287050   0.730   6.206   8.800  0.0168 -0.3536 -0.7955
28723TIP3    H187051   0.825   6.220   8.793 -0.0087 -0.0950 -0.6289
28723TIP3    H287052   0.692   6.283   8.757 -0.1323  0.3892  0.6177
28724TIP3   OH287053   6.117   1.129   4.445 -0.0028 -0.3502 -0.1840
28724TIP3    H187054   6.078   1.077   4.515  0.9030 -1.3876 -0.4209
28724TIP3    H287055   6.179   1.187   4.489  0.5202 -0.9578 -0.1244
28725TIP3   OH287056  10.220   4.591   7.552 -0.5934 -0.2444 -0.3843
28725TIP3    H187057  10.177   4.583   7.467 -3.1430 -0.1846  0.7901
28725TIP3    H287058  10.158   4.551   7.613  0.5978  0.8053  1.6049
28726TIP3   OH287059   6.934   2.986   6.905 -0.5570 -0.0977  0.6399
28726TIP3    H187060   7.004   2.990   6.840 -0.9626  0.1649  0.2104
28726TIP3    H287061   6.902   3.076   6.910 -1.4019 -0.3655  0.2199
28727TIP3   OH287062   9.324   5.534   6.852 -0.5195 -0.3663 -0.4067
28727TIP3    H187063   9.301   5.588   6.928 -0.5682 -2.1412  0.8846
28727TIP3    H287064   9.242   5.490   6.828 -0.6590  0.6242 -1.9240
28728TIP3   OH287065   6.674   2.203   2.635 -0.4982  1.0130 -0.1280
28728TIP3    H187066   6.753   2.235   2.677 -0.8583 -0.5684  1.9336
28728TIP3    H287067   6.705   2.136   2.574 -0.2264 -1.6756  2.6813
28729TIP3   OH287068   2.547   1.208   4.988 -0.5475  1.2497 -0.3956
28729TIP3    H187069   2.530   1.115   5.000  1.9565  0.7209 -0.4818
28729TIP3    H287070   2.555   1.243   5.077 -0.7699  1.2299 -0.3679
28730TIP3   OH287071   0.009   5.413   0.190 -0.2691  0.5962 -0.0086
28730TIP3    H187072  -0.005   5.322   0.214  1.6006  0.6139  1.3568
28730TIP3    H287073  -0.067   5.460   0.226 -0.2388 -0.1552  1.0706
28731TIP3   OH287074   6.898   6.654   8.965 -0.1297  0.0730 -0.6054
28731TIP3    H187075   6.828   6.637   9.028 -0.2994  1.4891 -0.3987
28731TIP3    H287076   6.948   6.726   9.003 -0.9583  1.8035 -2.6581
28732TIP3   OH287077   7.464   5.273   5.247 -0.1974  0.2727  0.1777
28732TIP3    H187078   7.416   5.280   5.164 -0.1673 -0.4343  0.0921
28732TIP3    H287079   7.475   5.363   5.276  1.3608  0.6860 -1.4755
28733TIP3   OH287080   5.786   9.108   7.040 -0.0165 -0.5403 -0.0357
28733TIP3    H187081   5.705   9.057   7.033 -0.0345 -0.7664  1.5678
28733TIP3    H287082   5.778   9.154   7.124  1.6087 -0.7003  0.2227
28734TIP3   OH287083   3.517   5.926   5.584 -0.1748 -0.3732  0.6502
28734TIP3    H187084   3.512   6.006   5.532 -0.3895 -0.4556  0.5424
28734TIP3    H287085   3.594   5.938   5.640 -0.5587  0.1732  1.0710
28735TIP3   OH287086  10.787   2.130   7.770 -0.0141 -0.5172  0.0048
28735TIP3    H187087  10.819   2.126   7.860 -0.0376  0.4133  0.0646
28735TIP3    H287088  10.841   2.067   7.723  0.5892 -0.3827  0.5010
28736TIP3   OH287089   0.939   8.020   2.945 -0.0758  1.0744  0.2545
28736TIP3    H187090   1.022   7.976   2.933 -0.3781  0.5473  0.0689
28736TIP3    H287091   0.960   8.099   2.995  0.9404  2.3776 -2.0694
28737TIP3   OH287092   3.725   6.701   8.802  0.7406 -0.0142 -0.0533
28737TIP3    H187093   3.766   6.787   8.796 -2.2617  1.6270  0.8395
28737TIP3    H287094   3.686   6.698   8.889  0.9205 -2.4055  0.0216
28738TIP3   OH287095   7.081   0.525   1.335 -0.3097 -0.0848  0.3812
28738TIP3    H187096   7.126   0.483   1.409 -0.8888 -1.2002  0.1212
28738TIP3    H287097   6.990   0.530   1.362 -0.3902  0.2108  0.0551
28739TIP3   OH287098   0.607   3.303   0.318  0.0945 -0.2057 -0.0977
28739TIP3    H187099   0.543   3.341   0.257 -0.3616 -0.5980  0.1301
28739TIP3    H287100   0.582   3.339   0.403  1.8373  1.8046 -0.3580
28740TIP3   OH287101   4.738   1.625   7.620 -0.7954  0.0241  0.6974
28740TIP3    H187102   4.723   1.534   7.644 -0.5272 -0.1262  0.3113
28740TIP3    H287103   4.718   1.675   7.699 -0.1599 -0.4376  1.1612
28741TIP3   OH287104   2.236   6.699  10.604 -0.5197  0.2490  0.1605
28741TIP3    H187105   2.141   6.707  10.590 -0.4945  0.4239  0.0860
28741TIP3    H287106   2.275   6.750  10.533 -0.3480 -0.5752 -0.3530
28742TIP3   OH287107   0.656   1.783   0.990  0.4504  0.0382 -0.5635
28742TIP3    H187108   0.590   1.805   0.925  0.1436 -0.3637 -0.3953
28742TIP3    H287109   0.733   1.833   0.965  0.8655 -1.3197 -2.1919
28743TIP3   OH287110  10.041   3.027   2.866  0.2106  0.1535  0.1600
28743TIP3    H187111  10.118   3.084   2.863 -0.0569  0.4914 -2.1665
28743TIP3    H287112  10.076   2.938   2.861  0.4512  0.3204 -1.2911
28744TIP3   OH287113   2.297   7.496   3.343 -0.2301  0.6221  0.0880
28744TIP3    H187114   2.276   7.572   3.397 -0.9482  0.4922 -0.0098
28744TIP3    H287115   2.272   7.421   3.397  3.6352  0.2164  1.7003
28745TIP3   OH287116   8.847   8.788   6.782 -0.2180  0.0522 -0.5054
28745TIP3    H187117   8.941   8.808   6.776 -0.5354  1.2604 -3.2022
28745TIP3    H287118   8.842   8.693   6.770  0.6556 -0.0017 -0.5044
28746TIP3   OH287119   1.302  10.622   7.436  0.9086  0.5029  0.4085
28746TIP3    H187120   1.372  10.598   7.497  0.5377 -0.4337  0.4890
28746TIP3    H287121   1.324  10.576   7.355  0.3999  0.2112  0.4306
28747TIP3   OH287122  10.072   7.798   3.827 -0.2355  0.3990  0.1467
28747TIP3    H187123  10.141   7.736   3.806  1.2622  2.4039 -1.3551
28747TIP3    H287124   9.993   7.745   3.834  0.9832 -1.6789 -0.7994
28748TIP3   OH287125   9.207   5.049   2.487 -0.0608  0.0643 -0.0450
28748TIP3    H187126   9.131   4.993   2.506 -0.5777  0.8666  0.3020
28748TIP3    H287127   9.226   5.031   2.395 -1.0587  0.2943 -0.3166
28749TIP3   OH287128   3.270   2.302   5.594 -0.2795  0.4455 -0.4443
28749TIP3    H187129   3.294   2.322   5.503 -0.4862  1.3282 -0.3135
28749TIP3    H287130   3.213   2.374   5.620 -0.4049  0.0792  0.3160
28750TIP3   OH287131   1.032   9.987   7.016  0.2576 -0.3323  0.0834
28750TIP3    H187132   0.942  10.008   6.991  0.5193  2.8039  1.3775
28750TIP3    H287133   1.085  10.013   6.941  0.1947 -1.5673 -0.4176
28751TIP3   OH287134   0.290   8.850   5.354 -0.2254 -0.4458  0.0849
28751TIP3    H187135   0.292   8.859   5.259 -1.9904 -0.0727  0.0449
28751TIP3    H287136   0.359   8.908   5.386 -0.1749  0.0673 -0.9366
28752TIP3   OH287137   6.868   2.660   8.173  0.1939  0.4347 -0.2480
28752TIP3    H187138   6.932   2.730   8.157 -1.0036  2.0989  1.7619
28752TIP3    H287139   6.808   2.665   8.099  1.8633 -0.6304 -1.7525
28753TIP3   OH287140   2.910   0.762  10.773  0.2455  0.3461 -0.0262
28753TIP3    H187141   2.999   0.795  10.783  0.5341 -0.2808 -0.4909
28753TIP3    H287142   2.883   0.793  10.686 -0.4343  1.5473  0.5889
28754TIP3   OH287143   4.535   1.525   4.174  0.6717 -0.0389 -0.4103
28754TIP3    H187144   4.591   1.448   4.169  0.2701 -0.4728  1.1725
28754TIP3    H287145   4.524   1.541   4.268 -0.0836  1.3402 -0.7022
28755TIP3   OH287146   5.907  10.698   5.337 -0.0986  0.2644  0.3889
28755TIP3    H187147   5.975  10.754   5.376 -2.4687  0.3205  5.0765
28755TIP3    H287148   5.838  10.759   5.311  0.2951 -0.0375 -1.5006
28756TIP3   OH287149  10.757   9.598  10.387 -0.1353  0.3951 -0.2845
28756TIP3    H187150  10.778   9.654  10.313  0.1509  0.4195 -0.1859
28756TIP3    H287151  10.841   9.586  10.433 -0.1589 -0.2368 -0.3932
28757TIP3   OH287152   0.740  10.442   7.885  0.3426 -0.1611  0.3180
28757TIP3    H187153   0.792  10.430   7.805 -0.9735 -0.1013 -0.5746
28757TIP3    H287154   0.673  10.506   7.860  0.0984  0.1032  1.5803
28758TIP3   OH287155   9.478   1.459   3.036  0.0803 -0.2102 -0.0670
28758TIP3    H187156   9.427   1.444   2.956  2.2796  1.3251 -1.8920
28758TIP3    H287157   9.493   1.371   3.071 -0.6758 -0.9642 -1.5212
28759TIP3   OH287158   7.129   3.719   2.667 -0.1047  0.1844 -0.1955
28759TIP3    H187159   7.191   3.785   2.696 -0.6097  0.2262  0.8335
28759TIP3    H287160   7.043   3.756   2.687 -0.5705  0.6768 -2.7414
28760TIP3   OH287161   2.637   9.710   5.049 -0.3369 -0.0769  0.4703
28760TIP3    H187162   2.707   9.688   5.110 -0.6655  0.6719  1.1332
28760TIP3    H287163   2.627   9.805   5.057 -1.4596 -0.1814  0.4281
28761TIP3   OH287164  10.103   3.497   5.055  0.3233  0.0407  0.1090
28761TIP3    H187165  10.059   3.413   5.040  1.6135 -0.9774  1.6541
28761TIP3    H287166  10.051   3.560   5.006 -0.3466 -1.7281 -1.6148
28762TIP3   OH287167   4.542   7.908   7.260  0.6037  0.1464  0.1225
28762TIP3    H187168   4.502   7.919   7.173 -0.9589  2.9979  1.0766
28762TIP3    H287169   4.473   7.869   7.313 -0.2344  2.7532  1.1418
28763TIP3   OH287170   4.635  10.663  10.260 -0.1321  0.0552 -0.9184
28763TIP3    H187171   4.699  10.695  10.323 -0.3082 -2.5748  0.7281
28763TIP3    H287172   4.687  10.623  10.191  0.2427 -3.6635  1.2578
28764TIP3   OH287173   1.567   2.199   4.756 -0.5430 -0.2821 -0.8312
28764TIP3    H187174   1.649   2.242   4.734 -0.0962 -0.1404  0.9704
28764TIP3    H287175   1.501   2.244   4.704  0.4073  0.0822 -1.7520
28765TIP3   OH287176   1.802   3.958   0.705 -0.1216 -0.1069  0.0463
28765TIP3    H187177   1.737   3.888   0.710 -0.4595  0.2617  1.4106
28765TIP3    H287178   1.797   4.000   0.791  0.4318  1.2675 -0.5715
28766TIP3   OH287179   3.212   2.745   8.055  0.3346 -0.3218  0.5204
28766TIP3    H187180   3.145   2.812   8.043  0.0388 -0.6121  0.5278
28766TIP3    H287181   3.288   2.793   8.089 -0.0902 -0.0842  1.1702
28767TIP3   OH287182   4.091   4.547  10.778 -0.1861 -0.1738  0.0604
28767TIP3    H187183   4.161   4.500  10.733  1.3128  1.6506  0.3405
28767TIP3    H287184   4.103   4.527  10.870  2.2010  2.6596  0.5310
28768TIP3   OH287185   5.887   6.416   9.632 -0.5668  0.2784  0.3513
28768TIP3    H187186   5.854   6.457   9.552 -1.5545 -1.1457 -0.0071
28768TIP3    H287187   5.982   6.432   9.629 -0.6492  0.6629 -0.8580
28769TIP3   OH287188   1.898   5.606   0.490 -0.7229  0.2179  0.7765
28769TIP3    H187189   1.875   5.595   0.582 -0.9175  0.4545  0.7577
28769TIP3    H287190   1.989   5.577   0.484 -0.5008  0.8166  1.1675
28770TIP3   OH287191   5.330   9.388   6.452 -0.2290  0.0971 -0.4960
28770TIP3    H187192   5.309   9.434   6.370 -0.6322  0.0002 -0.4481
28770TIP3    H287193   5.368   9.455   6.508 -1.0222  0.4242 -0.3463
28771TIP3   OH287194   6.973   8.756   8.251 -0.1738  0.2402 -0.7323
28771TIP3    H187195   6.955   8.666   8.222 -2.2467 -0.0754  1.2411
28771TIP3    H287196   7.048   8.749   8.309  0.7486  0.0803 -1.9189
28772TIP3   OH287197   3.235   3.356   5.163  0.3981 -0.3252 -0.0454
28772TIP3    H187198   3.149   3.350   5.205  0.4705 -2.1114 -0.0717
28772TIP3    H287199   3.287   3.408   5.225 -0.3979 -0.1292  0.4846
28773TIP3   OH287200   1.067   6.566   1.221  0.1095 -0.0917  0.0166
28773TIP3    H187201   0.979   6.604   1.224 -0.3264 -0.9094 -1.5174
28773TIP3    H287202   1.120   6.623   1.278 -1.3473  0.5380  0.7850
28774TIP3   OH287203   5.309   5.411   1.788  0.7031 -0.4761  0.1980
28774TIP3    H187204   5.322   5.324   1.825  1.0339  0.2083  1.8108
28774TIP3    H287205   5.391   5.457   1.806 -0.7863  1.3712  3.0500
28775TIP3   OH287206   5.326   2.147   0.555  0.1031 -0.0513  0.1501
28775TIP3    H187207   5.235   2.176   0.547  0.0326 -0.3829 -0.2576
28775TIP3    H287208   5.367   2.214   0.610 -0.8617 -0.9858  2.0641
28776TIP3   OH287209   5.167   5.374   9.405 -0.4684  0.0835 -0.2905
28776TIP3    H187210   5.206   5.299   9.449 -2.0766 -1.1997 -0.9536
28776TIP3    H287211   5.171   5.445   9.470  1.1088 -0.5485  0.3278
28777TIP3   OH287212   2.421   6.749   0.917  0.0523  0.3735 -0.1440
28777TIP3    H187213   2.399   6.841   0.901 -1.0326  0.5502  1.9715
28777TIP3    H287214   2.336   6.705   0.919  0.6277 -0.9651 -2.4383
28778TIP3   OH287215   3.272   7.067   1.096  1.0102  0.2404 -0.2480
28778TIP3    H187216   3.245   7.151   1.059  2.2785  0.0613 -1.6763
28778TIP3    H287217   3.233   7.065   1.183 -0.5063  1.5261 -0.8641
28779TIP3   OH287218   1.862   5.647   3.573 -0.3885 -0.4597 -0.0442
28779TIP3    H187219   1.825   5.725   3.531  0.9459  0.3210  0.1737
28779TIP3    H287220   1.948   5.675   3.603 -1.2028 -1.0015  3.1328
28780TIP3   OH287221   6.458  10.252   1.832  0.1296 -0.1243  0.2309
28780TIP3    H187222   6.365  10.256   1.855  0.1473  0.0156  0.2762
28780TIP3    H287223   6.487  10.343   1.834  0.1810 -0.1312 -0.1493
28781TIP3   OH287224   2.311   5.210   8.320  0.4646  0.0042  0.2973
28781TIP3    H187225   2.233   5.242   8.365  0.5872 -1.3151  1.5171
28781TIP3    H287226   2.278   5.155   8.249  0.2801  0.1311  0.2863
28782TIP3   OH287227   8.778   5.861   7.254 -0.1354 -0.0826  0.0043
28782TIP3    H187228   8.752   5.877   7.163 -1.9044 -2.6808 -0.0699
28782TIP3    H287229   8.695   5.858   7.302  0.6086 -0.7554  1.3158
28783TIP3   OH287230   4.404   6.951   1.698 -0.2456  0.1022 -0.0806
28783TIP3    H187231   4.446   6.865   1.705 -0.2543  0.2004  1.9000
28783TIP3    H287232   4.341   6.942   1.627 -0.1599 -1.5046  0.0230
28784TIP3   OH287233   3.191   7.593   8.010 -0.2331  0.4460 -0.6125
28784TIP3    H187234   3.247   7.517   8.029 -1.7887 -0.3755  1.0053
28784TIP3    H287235   3.228   7.664   8.061 -1.5792 -0.5468  1.9534
28785TIP3   OH287236   4.890   5.456   6.166  0.0213 -0.4838 -0.1963
28785TIP3    H187237   4.897   5.423   6.077  3.6720  1.5692 -0.8595
28785TIP3    H287238   4.883   5.551   6.157  0.1696 -0.2408  1.7132
28786TIP3   OH287239   5.724   8.634   6.148 -0.1637 -0.4805  0.3556
28786TIP3    H187240   5.816   8.661   6.139  0.5046 -1.3365  3.3880
28786TIP3    H287241   5.680   8.714   6.176 -0.8361  0.3978 -2.7898
28787TIP3   OH287242   4.762   6.187   3.472  0.0703  0.1002 -0.2689
28787TIP3    H187243   4.702   6.153   3.406 -0.7853  0.3463  0.3621
28787TIP3    H287244   4.747   6.132   3.549 -0.4419  1.0944  0.3669
28788TIP3   OH287245   6.697   3.884  10.123  0.6576 -0.0512 -0.5581
28788TIP3    H187246   6.689   3.833  10.043 -2.9916 -0.6388  0.0290
28788TIP3    H287247   6.670   3.973  10.098 -0.3059 -0.1940 -0.0696
28789TIP3   OH287248   5.801   8.622   1.689 -0.5747  0.3552 -0.6696
28789TIP3    H187249   5.790   8.630   1.784 -2.0700  0.4869 -0.8273
28789TIP3    H287250   5.885   8.663   1.672  0.0872 -0.3533  0.6834
28790TIP3   OH287251   2.029   8.616   9.596  0.2488  0.2220 -0.4093
28790TIP3    H187252   2.031   8.602   9.502 -0.9216  0.2410 -0.4467
28790TIP3    H287253   1.969   8.549   9.630  2.1993 -1.1191  0.5926
28791TIP3   OH287254   7.474   9.260   6.364  0.2381 -0.4707 -0.1489
28791TIP3    H187255   7.446   9.174   6.394  0.0061 -0.1841  0.4843
28791TIP3    H287256   7.399   9.317   6.381 -0.0910 -0.3681 -1.7313
28792TIP3   OH287257   0.519   3.413   7.052 -0.4414 -0.6177  0.2724
28792TIP3    H187258   0.579   3.388   7.122  0.9566  0.6804 -0.4140
28792TIP3    H287259   0.477   3.493   7.084  0.9527  0.5610 -0.7384
28793TIP3   OH287260   2.282   9.619   1.791 -0.2911  0.2133 -0.1669
28793TIP3    H187261   2.203   9.645   1.744  0.0593 -1.6504 -1.9001
28793TIP3    H287262   2.303   9.532   1.759  0.9948 -0.4748  2.2260
28794TIP3   OH287263   7.656   2.413   4.931 -0.1183 -0.4011  0.3443
28794TIP3    H187264   7.626   2.503   4.914  1.2734 -0.2889 -2.1296
28794TIP3    H287265   7.751   2.421   4.938 -0.0275 -1.6087  0.5863
28795TIP3   OH287266   4.103   9.030   0.040  0.1692  0.1371  0.0645
28795TIP3    H187267   4.126   9.121   0.056 -0.2245  0.0355  1.3254
28795TIP3    H287268   4.181   8.992   0.000  1.5380  0.2811  2.4109
28796TIP3   OH287269   8.565   4.034   0.089  0.7930 -1.0908 -0.7622
28796TIP3    H187270   8.597   4.068   0.172 -0.8076 -1.0132 -0.1349
28796TIP3    H287271   8.540   4.111   0.039 -0.9594 -1.2054 -0.1325
28797TIP3   OH287272   7.867   4.408   0.746  0.1249  0.2115 -0.5898
28797TIP3    H187273   7.881   4.314   0.736 -1.5249  0.0408 -1.6111
28797TIP3    H287274   7.844   4.439   0.659 -0.0793  1.4379 -0.1215
28798TIP3   OH287275   8.330   5.003   1.773  0.2682  0.2637  0.2365
28798TIP3    H187276   8.347   4.931   1.712  2.8511 -1.6727  2.9246
28798TIP3    H287277   8.406   5.060   1.765  1.0449 -0.4455  2.0832
28799TIP3   OH287278   9.446   4.581   0.959  0.3290 -0.1951  0.0097
28799TIP3    H187279   9.377   4.637   0.926 -0.5875 -0.4492  1.3854
28799TIP3    H287280   9.450   4.600   1.053  1.3779 -0.9804  0.1533
28800TIP3   OH287281   5.982   6.526   3.023 -0.3868 -0.2409 -0.2642
28800TIP3    H187282   5.956   6.477   3.101 -0.0464  2.4260  1.6506
28800TIP3    H287283   5.909   6.513   2.962 -1.2667 -1.3840  0.9629
28801TIP3   OH287284   6.797   6.766   5.467  0.1806 -0.0734 -0.4073
28801TIP3    H187285   6.833   6.828   5.531 -1.4100 -1.9015  2.4639
28801TIP3    H287286   6.747   6.820   5.407  2.7622  1.8638 -1.0162
28802TIP3   OH287287   5.558   4.809   4.810  0.1640 -0.1747  0.0764
28802TIP3    H187288   5.464   4.822   4.813  0.1738  0.1233 -0.7349
28802TIP3    H287289   5.574   4.763   4.728  1.0178  2.3946 -1.2928
28803TIP3   OH287290   6.211   7.677   1.885 -0.6343 -0.0146 -0.4859
28803TIP3    H187291   6.124   7.642   1.864 -1.3537  1.0087  0.6109
28803TIP3    H287292   6.236   7.631   1.965 -0.6275  0.3770 -0.2546
28804TIP3   OH287293   9.264   4.998   0.231  0.1003  0.4082 -0.0957
28804TIP3    H187294   9.228   4.910   0.240 -0.5002  0.7413  1.0400
28804TIP3    H287295   9.198   5.047   0.183 -0.2517  0.6050  0.5733
28805TIP3   OH287296   5.844   7.057   5.316 -0.4101 -0.0178 -0.4047
28805TIP3    H187297   5.841   7.014   5.231  1.2871 -0.7900 -0.1287
28805TIP3    H287298   5.828   7.149   5.298 -0.8461 -0.2898 -1.4464
28806TIP3   OH287299   4.636   5.353   7.538 -0.0013  0.4990  0.2513
28806TIP3    H187300   4.615   5.370   7.446 -1.0547 -1.0785  0.1573
28806TIP3    H287301   4.554   5.369   7.584  0.4034  0.8313  0.8553
28807TIP3   OH287302   8.055   0.253   0.154 -0.2807 -0.4851 -0.6080
28807TIP3    H187303   8.130   0.262   0.094  1.5699 -2.0087  1.3431
28807TIP3    H287304   8.093   0.260   0.241 -2.4065 -1.5102  0.4680
28808TIP3   OH287305  10.831   0.171   2.463  0.0847 -0.0383  0.5229
28808TIP3    H187306  10.787   0.218   2.534 -1.2502 -0.7533  0.1968
28808TIP3    H287307  10.799   0.212   2.383 -0.1605 -0.6991  0.2721
28809TIP3   OH287308   9.928   5.670   9.891 -0.1488  0.7882  0.6033
28809TIP3    H187309   9.866   5.740   9.870  0.7854  1.3035 -0.5827
28809TIP3    H287310   9.948   5.683   9.983 -1.2986  1.0072  0.8463
28810TIP3   OH287311   8.042   8.656   2.377 -0.6038  0.1375  0.3673
28810TIP3    H187312   7.975   8.708   2.421 -1.0554  0.5628 -0.7900
28810TIP3    H287313   8.014   8.652   2.286 -0.8193 -2.5063  0.4600
28811TIP3   OH287314   7.540   6.332  10.555  0.2894  0.5016 -0.0801
28811TIP3    H187315   7.445   6.332  10.569  0.7647  0.2855  4.5775
28811TIP3    H287316   7.565   6.240  10.562  0.9825  0.7315  0.5864
28812TIP3   OH287317   5.894   5.765   2.625  0.3726  0.5775  0.2318
28812TIP3    H187318   5.823   5.704   2.603  1.1215  0.0786 -0.9315
28812TIP3    H287319   5.875   5.793   2.714  0.9642 -2.8006  1.5575
28813TIP3   OH287320   2.831   7.297   3.321 -0.7910  0.3606  0.2531
28813TIP3    H187321   2.860   7.280   3.410  0.6048 -1.5134 -0.5077
28813TIP3    H287322   2.838   7.392   3.312 -1.2573  0.6268  2.2047
28814TIP3   OH287323   2.593   5.588   9.257  0.4261 -0.4599 -0.0144
28814TIP3    H187324   2.507   5.549   9.276  0.4805 -0.6102 -0.0775
28814TIP3    H287325   2.651   5.550   9.323  0.2866  0.2336  0.5226
28815TIP3   OH287326   2.470   1.213   4.407  0.3190  0.1144  0.3376
28815TIP3    H187327   2.539   1.279   4.417 -0.2423  0.3929  3.7142
28815TIP3    H287328   2.389   1.262   4.425 -0.2888 -1.0604  0.8936
28816TIP3   OH287329   8.981   5.845   0.447 -0.0198 -0.0990 -0.0528
28816TIP3    H187330   9.067   5.872   0.478  0.3982  1.2657 -2.1878
28816TIP3    H287331   8.984   5.858   0.352 -2.4226 -0.4604 -0.2558
28817TIP3   OH287332   9.477   1.586   4.266 -0.0543 -0.1921 -0.2004
28817TIP3    H187333   9.398   1.543   4.299 -0.7735  0.4504 -1.0491
28817TIP3    H287334   9.447   1.671   4.234  1.2097  0.6292  0.6906
28818TIP3   OH287335   7.844   5.453   9.295  0.3010 -0.0781 -0.2455
28818TIP3    H187336   7.757   5.413   9.303 -0.0979  0.4190 -1.8160
28818TIP3    H287337   7.843   5.525   9.358 -0.7570  0.4544 -0.8412
28819TIP3   OH287338   4.541   3.278   6.319  0.1988  0.2841 -0.3852
28819TIP3    H187339   4.448   3.278   6.338  0.2556 -0.2291 -0.0743
28819TIP3    H287340   4.578   3.345   6.377  0.0932  0.1229 -0.1299
28820TIP3   OH287341   1.958   8.123   2.989 -0.1333 -0.3058  0.0979
28820TIP3    H187342   1.907   8.166   2.921  1.6108 -0.7312 -1.5636
28820TIP3    H287343   2.046   8.161   2.981  0.2251 -0.6280  1.8945
28821TIP3   OH287344   6.896   3.978   8.499 -0.3013 -0.2340 -0.5542
28821TIP3    H187345   6.860   4.065   8.479  0.0370 -0.0389 -0.3324
28821TIP3    H287346   6.976   3.973   8.447 -0.1466 -0.2788 -0.3140
28822TIP3   OH287347   0.938   8.234   2.329 -0.2692 -0.0183  0.1484
28822TIP3    H187348   0.948   8.316   2.377 -0.7757  0.6444 -0.8440
28822TIP3    H287349   0.908   8.171   2.394 -2.8996  1.3172  0.3611
28823TIP3   OH287350  10.580   5.406   4.749 -0.2951  0.3523 -0.6019
28823TIP3    H187351  10.561   5.440   4.836 -0.1329  1.1256 -0.8639
28823TIP3    H287352  10.524   5.456   4.690  0.0350  0.2540 -1.0053
28824TIP3   OH287353   2.223   0.785   7.042  0.2837 -0.1450  0.4417
28824TIP3    H187354   2.291   0.799   6.976  0.0472  0.9572  0.4261
28824TIP3    H287355   2.171   0.864   7.040 -0.2952 -0.4966  1.2983
28825TIP3   OH287356   9.169   7.419   3.005  0.1597 -0.3203 -0.2319
28825TIP3    H187357   9.182   7.450   2.915  0.0630 -3.2173 -1.3457
28825TIP3    H287358   9.257   7.415   3.042  0.0766  2.6259  0.5592
28826TIP3   OH287359   7.723   3.578   4.054 -0.8465 -0.1765  0.3962
28826TIP3    H187360   7.758   3.634   4.124 -0.1070 -1.1639  0.8431
28826TIP3    H287361   7.668   3.514   4.100  0.4438 -1.4598  0.2385
28827TIP3   OH287362   3.971   4.910   9.342 -0.0173  0.0469  0.4286
28827TIP3    H187363   4.021   4.856   9.280 -0.2590  0.2144  0.0890
28827TIP3    H287364   4.037   4.940   9.405  0.3176  0.2662 -0.0159
28828TIP3   OH287365   8.523   9.306   6.173 -0.4330 -0.0218 -0.4716
28828TIP3    H187366   8.585   9.361   6.125  1.3724 -0.3985  1.3017
28828TIP3    H287367   8.501   9.236   6.111  1.5646 -0.3166 -0.9237
28829TIP3   OH287368   9.395   2.832   7.044 -0.1075  0.1937 -0.6016
28829TIP3    H187369   9.458   2.791   6.985  0.6673  0.0690  0.2904
28829TIP3    H287370   9.325   2.767   7.053  0.3174 -0.2625 -0.5038
28830TIP3   OH287371   3.469   9.023   5.412 -0.3156  0.1956 -0.4822
28830TIP3    H187372   3.399   8.975   5.368 -1.7498  0.3947  1.4371
28830TIP3    H287373   3.433   9.110   5.426  0.7057  0.6068 -0.3524
28831TIP3   OH287374   3.670   7.759   9.369 -0.2326  0.0718 -0.0408
28831TIP3    H187375   3.603   7.703   9.406 -0.9656  1.3527  0.6415
28831TIP3    H287376   3.743   7.755   9.432 -0.5354  0.3596  0.3364
28832TIP3   OH287377   1.998   3.942   3.606 -0.5651 -0.3558  0.4662
28832TIP3    H187378   1.904   3.930   3.621 -1.4595  0.5375 -3.3288
28832TIP3    H287379   2.031   3.854   3.588 -1.3091 -0.3849 -0.8574
28833TIP3   OH287380   0.732   8.963   8.280  0.2854 -0.6263 -0.0664
28833TIP3    H187381   0.687   8.971   8.197  0.9703 -0.4901 -0.4325
28833TIP3    H287382   0.665   8.982   8.346 -0.5925 -2.0176 -0.5093
28834TIP3   OH287383   8.945   4.111   8.075 -0.2259 -0.4005  0.3992
28834TIP3    H187384   8.995   4.192   8.067 -2.1019  1.0485  2.2474
28834TIP3    H287385   8.855   4.136   8.057 -1.0227 -1.8106  2.1354
28835TIP3   OH287386   7.934   7.403   2.436 -0.4496 -0.2891 -0.0139
28835TIP3    H187387   8.001   7.337   2.419 -0.6419 -0.7971  1.1288
28835TIP3    H287388   7.909   7.390   2.527 -1.4609  0.4871 -0.1539
28836TIP3   OH287389   2.787   7.519   5.736  0.3334 -0.2125  0.1100
28836TIP3    H187390   2.841   7.558   5.668  0.7467  3.0877  2.1091
28836TIP3    H287391   2.846   7.510   5.812 -0.2625 -3.1834  0.3718
28837TIP3   OH287392   1.484   8.158   5.588 -0.5803  0.3329  0.0264
28837TIP3    H187393   1.394   8.190   5.592 -1.0573 -0.7154 -1.5444
28837TIP3    H287394   1.476   8.067   5.560  0.9726  0.2006 -0.0568
28838TIP3   OH287395   1.224   0.876   9.193  0.5037  0.0695  0.1894
28838TIP3    H187396   1.240   0.970   9.189  0.2256  0.0940 -0.5915
28838TIP3    H287397   1.130   0.868   9.204  0.2361 -0.1125 -1.8400
28839TIP3   OH287398   6.151   1.462   6.347 -0.3781 -0.0859  0.2000
28839TIP3    H187399   6.197   1.536   6.387  0.8639  0.0676 -1.4288
28839TIP3    H287400   6.064   1.464   6.386  0.3274  0.8776  1.8272
28840TIP3   OH287401   2.213   7.693   5.194 -0.0368  0.1548 -0.0131
28840TIP3    H187402   2.270   7.752   5.144 -0.2340 -1.2577 -1.9997
28840TIP3    H287403   2.135   7.683   5.140 -0.9857 -0.1648  1.3624
28841TIP3   OH287404   2.890   6.768   2.406  0.0996  0.1011  0.3660
28841TIP3    H187405   2.899   6.847   2.353 -1.0595  0.3764  0.5450
28841TIP3    H287406   2.797   6.746   2.399  0.3402 -1.0372  0.6208
28842TIP3   OH287407   6.434   9.975   2.262  0.4875  0.3403 -0.2841
28842TIP3    H187408   6.473  10.062   2.268 -0.6946  1.2812 -3.7715
28842TIP3    H287409   6.487   9.929   2.196  0.5453 -1.2860  0.8397
28843TIP3   OH287410   9.006   9.790   3.461  0.6598  1.0513 -0.1732
28843TIP3    H187411   9.007   9.753   3.373  1.0133 -1.1776  0.7075
28843TIP3    H287412   9.097   9.815   3.478  1.4841 -2.2835  0.9697
28844TIP3   OH287413   1.271   4.499   6.847  0.4884 -0.0206  0.3357
28844TIP3    H187414   1.258   4.513   6.753  1.0895 -0.0538  0.2411
28844TIP3    H287415   1.187   4.465   6.879 -0.2731  1.6067  0.1374
28845TIP3   OH287416   6.567   6.535   1.630 -0.5466  0.9591  0.2939
28845TIP3    H187417   6.594   6.493   1.549 -1.2949 -0.3441  0.6884
28845TIP3    H287418   6.619   6.615   1.635  1.3771 -0.2167 -0.1783
28846TIP3   OH287419   9.359  10.684   9.273 -0.2236  0.1580  0.5993
28846TIP3    H187420   9.272  10.667   9.238 -1.0859  0.8282  2.2906
28846TIP3    H287421   9.386  10.602   9.313  0.8034 -0.6377 -1.5624
28847TIP3   OH287422   5.684   5.945  10.350 -0.0396 -0.3358 -0.0743
28847TIP3    H187423   5.697   5.912  10.261  1.5246 -0.0651  0.0301
28847TIP3    H287424   5.600   5.991  10.346 -1.6740 -3.1495 -0.5438
28848TIP3   OH287425   0.775   8.021   7.975 -0.2269 -0.4104 -0.2015
28848TIP3    H187426   0.816   8.022   8.061 -3.0145 -1.6452  1.2889
28848TIP3    H287427   0.781   8.111   7.943  1.4094 -0.0764  0.9850
28849TIP3   OH287428   0.562   5.277   6.389  0.4832  0.0979  0.9094
28849TIP3    H187429   0.627   5.218   6.428  0.4694  0.0367  0.8400
28849TIP3    H287430   0.572   5.264   6.295 -0.8275 -1.2388  0.9112
28850TIP3   OH287431   8.399   7.503   1.795  0.6591  0.0060  0.1412
28850TIP3    H187432   8.348   7.423   1.779  1.1208  0.1293 -2.4937
28850TIP3    H287433   8.444   7.487   1.878  0.5399 -2.3802 -0.1829
28851TIP3   OH287434   5.925   5.577   0.545  0.9025  1.1010 -0.1965
28851TIP3    H187435   5.954   5.512   0.481 -0.1967  0.0212  0.3681
28851TIP3    H287436   5.833   5.591   0.526  0.0444 -0.5897  2.1730
28852TIP3   OH287437   2.909   4.743   0.760 -0.0311  0.2454 -0.3158
28852TIP3    H187438   3.004   4.749   0.772  0.0074 -0.9906  0.1450
28852TIP3    H287439   2.873   4.805   0.824  0.4704  1.8796 -1.5385
28853TIP3   OH287440   8.530   8.872   6.095  0.0885 -0.3290  0.3408
28853TIP3    H187441   8.610   8.862   6.147 -0.0205  1.3190  0.8973
28853TIP3    H287442   8.522   8.790   6.046  2.0071 -0.6008  0.4138
28854TIP3   OH287443   3.779   5.221   0.221  0.7513  0.2519 -0.2831
28854TIP3    H187444   3.786   5.210   0.316 -0.4025  0.0521 -0.2096
28854TIP3    H287445   3.842   5.159   0.185  1.2101  0.3374  0.3438
28855TIP3   OH287446   5.679   3.845   7.452  0.2496  0.3234 -0.4058
28855TIP3    H187447   5.755   3.842   7.394 -0.2641 -0.4848 -1.0655
28855TIP3    H287448   5.714   3.827   7.539  0.5472 -2.4573 -1.0124
28856TIP3   OH287449   5.199   0.585   5.697  1.0329 -0.0633 -0.1007
28856TIP3    H187450   5.121   0.621   5.739  1.6478  2.4341 -0.9456
28856TIP3    H287451   5.246   0.541   5.768  0.3902  1.1182  1.1200
28857TIP3   OH287452   5.540   7.430   1.971 -0.6525  0.2782 -0.4874
28857TIP3    H187453   5.544   7.390   1.884  2.0237  0.2822 -0.4536
28857TIP3    H287454   5.608   7.498   1.969 -0.3682  0.1129  1.6530
28858TIP3   OH287455   7.126   5.009   5.021  0.2277  0.1285  0.3248
28858TIP3    H187456   7.128   5.067   5.097 -0.1999 -0.1366  0.5401
28858TIP3    H287457   7.044   5.030   4.976  0.6818  0.5927 -0.3109
28859TIP3   OH287458   2.837   0.008   0.741 -0.1567 -0.1131 -0.9934
28859TIP3    H187459   2.779  -0.063   0.713 -0.4325  0.3036 -1.4674
28859TIP3    H287460   2.900  -0.036   0.799 -1.0883 -0.5195 -0.2645
28860TIP3   OH287461   4.221  10.078   7.766  0.2830  0.0616 -0.3466
28860TIP3    H187462   4.145  10.118   7.808 -0.4312  0.7503 -2.1784
28860TIP3    H287463   4.297  10.124   7.802 -0.3237  0.8545 -0.0610
28861TIP3   OH287464   7.911  10.043   0.993  0.8386  0.5743  0.4101
28861TIP3    H187465   7.861  10.100   1.051  0.4843  0.7531 -0.0743
28861TIP3    H287466   7.846   9.985   0.954  1.2803 -0.7343  1.5282
28862TIP3   OH287467   8.827  10.014   1.332 -0.4841  0.3988 -0.4272
28862TIP3    H187468   8.868  10.062   1.403 -2.4978 -0.1180  1.1839
28862TIP3    H287469   8.770  10.078   1.289 -0.3903  0.3455 -0.6339
28863TIP3   OH287470   2.650   9.329   4.004 -0.5968  0.3901 -0.1643
28863TIP3    H187471   2.579   9.327   4.069 -0.7919 -1.2308 -0.3899
28863TIP3    H287472   2.606   9.319   3.920 -0.1842  0.6422 -0.4163
28864TIP3   OH287473   0.417   0.070   9.042  0.1632  0.1723 -0.2490
28864TIP3    H187474   0.421   0.098   9.133  0.6143 -1.5242  0.2892
28864TIP3    H287475   0.403   0.151   8.992 -0.1084  1.1201  1.3122
28865TIP3   OH287476   5.086   6.900   9.964  0.2352  0.1817 -0.0170
28865TIP3    H187477   5.119   6.831  10.022 -0.1385  1.5651  1.9120
28865TIP3    H287478   5.073   6.855   9.880  0.6016 -1.9530  0.9854
28866TIP3   OH287479   8.672   6.387   6.775  0.0052  0.1282  0.7526
28866TIP3    H187480   8.705   6.371   6.864 -1.2626 -1.9538  0.9078
28866TIP3    H287481   8.655   6.300   6.739 -0.7261  0.9638 -1.0829
28867TIP3   OH287482   6.880   7.432   8.792 -0.1786 -0.4306 -0.1781
28867TIP3    H187483   6.866   7.493   8.720  0.5809  0.3864  0.3581
28867TIP3    H287484   6.971   7.445   8.817 -1.1260  1.3222  2.7613
28868TIP3   OH287485   9.295   1.621   0.648 -0.2707  0.3748  0.5182
28868TIP3    H187486   9.237   1.693   0.625  1.1474  1.7864  1.1118
28868TIP3    H287487   9.303   1.625   0.743  0.7881  0.2343  0.4533
28869TIP3   OH287488   1.840   5.069   7.465  0.5728 -0.3398  0.3362
28869TIP3    H187489   1.864   5.119   7.387  0.1163 -0.5952  0.0243
28869TIP3    H287490   1.796   4.991   7.431  1.5501 -1.1233  0.8060
28870TIP3   OH287491  10.714   9.448   5.825  0.3991  0.2365 -0.6236
28870TIP3    H187492  10.646   9.439   5.891  1.3169  0.8800  0.4437
28870TIP3    H287493  10.724   9.360   5.789 -0.0830 -0.1330  0.1243
28871TIP3   OH287494   9.158   9.961   3.727  0.1006  0.1265  0.2695
28871TIP3    H187495   9.135  10.039   3.677  0.3020 -0.4916 -0.8249
28871TIP3    H287496   9.074   9.921   3.751 -0.0237  1.0621  1.5137
28872TIP3   OH287497   8.067   5.859   9.592 -0.3227 -0.0970 -0.0398
28872TIP3    H187498   7.979   5.885   9.566  0.2159 -0.2944 -2.2984
28872TIP3    H287499   8.071   5.878   9.686 -3.0496 -0.9499  0.3518
28873TIP3   OH287500   6.251   0.784   0.618 -0.0164 -0.0762  0.0278
28873TIP3    H187501   6.337   0.756   0.647 -0.0947  0.4921  0.8452
28873TIP3    H287502   6.247   0.758   0.526  1.2565  0.4389 -0.1886
28874TIP3   OH287503   4.662   5.007   5.390  0.5887  0.3474  0.1416
28874TIP3    H187504   4.692   4.920   5.416  1.5717  1.0017  1.2943
28874TIP3    H287505   4.612   5.039   5.465 -0.5531  0.4520 -0.6208
28875TIP3   OH287506   3.551  10.237  10.843 -0.2606  0.1478 -0.6301
28875TIP3    H187507   3.581  10.284  10.766  1.2507 -0.2197 -0.2896
28875TIP3    H287508   3.608  10.266  10.914 -1.9969  0.9259  0.5186
28876TIP3   OH287509   3.921   7.856  10.009 -0.3591 -0.1307  0.1430
28876TIP3    H187510   3.836   7.859  10.052 -0.5399 -0.7698 -0.1613
28876TIP3    H287511   3.914   7.785   9.945 -0.1636  0.9282 -1.0939
28877TIP3   OH287512   0.025   1.663  10.056 -0.1920 -0.1145 -0.6160
28877TIP3    H187513  -0.059   1.632  10.092 -0.2140  1.0237  0.3719
28877TIP3    H287514   0.081   1.673  10.133  0.1303  1.2859 -1.0061
28878TIP3   OH287515   3.164  10.150   7.860  0.0358 -0.0472 -0.5033
28878TIP3    H187516   3.240  10.174   7.911  0.0023 -3.8941  1.7891
28878TIP3    H287517   3.200  10.119   7.776  0.6355  1.0733 -0.6751
28879TIP3   OH287518   5.212   9.837   5.847 -0.1322  0.3989 -0.1242
28879TIP3    H187519   5.261   9.780   5.907  2.4050  1.5367 -0.9786
28879TIP3    H287520   5.169   9.777   5.787 -1.6863 -0.7212  1.9950
28880TIP3   OH287521   6.403   6.126   7.776  0.1389 -0.4595  0.0602
28880TIP3    H187522   6.445   6.211   7.785  0.1920 -0.4615 -0.1580
28880TIP3    H287523   6.440   6.089   7.696  0.2026 -0.7377  0.2182
28881TIP3   OH287524  10.295   9.490   4.585  0.0054  0.2163 -0.1002
28881TIP3    H187525  10.321   9.414   4.637 -0.8946  0.7864  1.2291
28881TIP3    H287526  10.221   9.459   4.532 -0.8965  0.3679  1.0490
28882TIP3   OH287527  10.045   1.497   2.578  0.2741  0.3182 -0.6201
28882TIP3    H187528  10.124   1.444   2.581  1.3841  1.9425  0.0805
28882TIP3    H287529   9.992   1.464   2.651  0.7243 -0.1370 -0.4884
28883TIP3   OH287530  10.891   1.732   0.411  0.4539  0.5401  0.2327
28883TIP3    H187531  10.884   1.717   0.505  0.2377  2.7968  0.6352
28883TIP3    H287532  10.880   1.645   0.372  2.0212 -0.6886  2.3089
28884TIP3   OH287533   4.894   7.156   9.570  0.2988 -0.0838  0.3870
28884TIP3    H187534   4.833   7.227   9.590 -0.4399 -0.3170 -0.9726
28884TIP3    H287535   4.966   7.169   9.631  0.8213  2.6420 -0.6927
28885TIP3   OH287536  10.584   6.998   3.125  0.2294  0.5971 -0.3476
28885TIP3    H187537  10.516   7.005   3.058 -0.9044 -0.3407  0.6605
28885TIP3    H287538  10.620   6.911   3.113  1.6331  1.2634 -1.1880
28886TIP3   OH287539   2.049   9.927   0.988 -0.2360  0.2930  0.9642
28886TIP3    H187540   2.079   9.909   1.077  0.2302  0.0795  0.7649
28886TIP3    H287541   2.111   9.881   0.931 -0.0663  1.0713  0.4998
28887TIP3   OH287542   2.872   7.335   9.673 -0.1191 -0.2247 -0.4561
28887TIP3    H187543   2.880   7.340   9.578 -0.4060  1.2182 -0.4295
28887TIP3    H287544   2.812   7.406   9.696  0.8404  0.1924  0.9073
28888TIP3   OH287545   7.811   0.018   6.731 -0.4594 -0.3791  0.1867
28888TIP3    H187546   7.861  -0.044   6.784  0.6874  0.5436  0.2323
28888TIP3    H287547   7.807  -0.022   6.645  0.8935 -0.2253  0.0285
28889TIP3   OH287548   2.545   8.796   4.173 -0.3968  0.8055 -0.1168
28889TIP3    H187549   2.604   8.861   4.133  0.2491 -0.2713 -0.9778
28889TIP3    H287550   2.600   8.719   4.186 -0.8408  0.7780  2.0051
28890TIP3   OH287551   2.417   1.560   8.870  0.1612 -0.2660 -0.6286
28890TIP3    H187552   2.418   1.638   8.814  0.5965  0.0833 -0.1454
28890TIP3    H287553   2.419   1.487   8.808 -0.7005  0.0874 -1.1052
28891TIP3   OH287554   2.626   4.254   6.172 -0.2243 -0.7142  0.1874
28891TIP3    H187555   2.635   4.243   6.077  0.3491 -1.8200  0.3504
28891TIP3    H287556   2.666   4.176   6.209  0.7457  0.3004  1.3913
28892TIP3   OH287557   3.381   7.862   9.552 -0.3536  0.2081 -0.0033
28892TIP3    H187558   3.312   7.805   9.517 -0.2302  0.0651 -0.0143
28892TIP3    H287559   3.398   7.924   9.482 -0.1361 -0.0527 -0.1825
28893TIP3   OH287560  10.587   2.580   3.221  0.3000  0.6852 -0.1891
28893TIP3    H187561  10.572   2.524   3.297  1.2266  0.5713 -0.0773
28893TIP3    H287562  10.543   2.535   3.149  2.7239 -1.3730 -0.5559
28894TIP3   OH287563  10.742   4.802   7.129 -0.3953 -0.1896  0.2783
28894TIP3    H187564  10.734   4.870   7.063 -0.6397 -1.8167 -1.4613
28894TIP3    H287565  10.686   4.731   7.098 -1.5294 -0.5714  2.8920
28895TIP3   OH287566   6.137   6.107   3.120 -0.1416 -0.2670  0.3138
28895TIP3    H187567   6.063   6.048   3.130  0.1456 -0.9896 -1.4078
28895TIP3    H287568   6.212   6.057   3.153 -0.4130  0.6137  2.4401
28896TIP3   OH287569   3.505  10.480   0.182  0.1986  0.0180  0.0748
28896TIP3    H187570   3.518  10.551   0.120  1.2890 -1.0463 -0.9730
28896TIP3    H287571   3.425  10.437   0.153  1.3416 -1.2190 -1.4147
28897TIP3   OH287572   6.820   8.200   8.946 -0.0043  0.2555  0.4835
28897TIP3    H187573   6.792   8.189   8.855  0.8587 -0.1214  0.2489
28897TIP3    H287574   6.813   8.112   8.984 -0.2521  0.3886  0.7493
28898TIP3   OH287575   0.079   5.704   9.847  0.3263  0.4346 -0.6491
28898TIP3    H187576  -0.009   5.741   9.855  0.4665  0.5165  0.7664
28898TIP3    H287577   0.104   5.721   9.756 -1.5834 -0.6641 -1.4259
28899TIP3   OH287578   6.540   6.842   9.374 -0.1183 -0.8207 -0.6771
28899TIP3    H187579   6.516   6.910   9.438 -1.2758 -1.3431 -0.5225
28899TIP3    H287580   6.548   6.889   9.291 -0.1552 -0.3704 -0.4307
28900TIP3   OH287581   3.859   3.335   6.998 -0.1437  0.5033  0.4318
28900TIP3    H187582   3.811   3.298   7.072 -0.6103 -1.0260 -0.5893
28900TIP3    H287583   3.879   3.425   7.025  0.3153 -0.1948  2.6881
28901TIP3   OH287584   4.700   8.076   2.451  0.0461  0.2269  0.2310
28901TIP3    H187585   4.606   8.083   2.436 -0.0723 -0.2320  0.7242
28901TIP3    H287586   4.720   7.983   2.437  0.0869 -0.0585  1.9446
28902TIP3   OH287587   4.431   9.205   5.327  0.0187  1.1865 -0.3724
28902TIP3    H187588   4.487   9.280   5.350  1.3539  0.5859 -1.5282
28902TIP3    H287589   4.352   9.244   5.291 -0.5019  2.0682  1.5692
28903TIP3   OH287590   9.644   7.333   9.461  0.3646 -0.2152 -0.0719
28903TIP3    H187591   9.608   7.405   9.408 -1.4084 -1.2697 -0.3652
28903TIP3    H287592   9.577   7.318   9.528  0.9217 -1.2974  0.2511
28904TIP3   OH287593   9.001   6.140   4.313 -0.0298 -0.0174 -0.4630
28904TIP3    H187594   8.964   6.119   4.227  1.9756  2.3003 -2.0275
28904TIP3    H287595   9.080   6.086   4.319 -0.6314 -0.8568  0.4201
28905TIP3   OH287596   1.753   5.739   9.998  0.1379 -0.1048 -0.0297
28905TIP3    H187597   1.819   5.704  10.058 -0.4079 -0.7463  0.2103
28905TIP3    H287598   1.669   5.722  10.041 -0.2393 -0.1733 -0.7666
28906TIP3   OH287599   7.146   2.088   3.559  0.2277 -0.4049  0.3018
28906TIP3    H187600   7.185   2.144   3.626 -0.1780  0.4685 -0.1787
28906TIP3    H287601   7.080   2.143   3.517 -0.1716 -1.2437 -0.1899
28907TIP3   OH287602   9.955   9.292   5.775  0.2164  0.3660 -0.7085
28907TIP3    H187603   9.972   9.357   5.707 -0.8003  0.8735 -0.5106
28907TIP3    H287604   9.861   9.300   5.793  0.2648 -0.4675  0.0328
28908TIP3   OH287605   1.987   5.024   2.662 -0.4436  0.2588  0.2771
28908TIP3    H187606   2.005   5.091   2.595  0.5895  0.1253  0.4095
28908TIP3    H287607   1.927   4.963   2.620  0.3751  0.0496 -0.6248
28909TIP3   OH287608   7.189   4.499  10.122  0.1627  0.1426 -0.4132
28909TIP3    H187609   7.202   4.543  10.038  0.8338 -0.8145 -0.8282
28909TIP3    H287610   7.248   4.544  10.182  0.3738  0.2276 -0.6812
28910TIP3   OH287611   5.120   8.389   5.467  0.1025  0.3122 -0.5903
28910TIP3    H187612   5.104   8.376   5.373  0.9798 -0.6532 -0.6205
28910TIP3    H287613   5.215   8.396   5.474  0.1474 -1.0082  0.3841
28911TIP3   OH287614   3.388   7.530   2.058 -0.3427 -0.0431  0.0263
28911TIP3    H187615   3.424   7.514   1.971 -0.8470  0.4577 -0.2813
28911TIP3    H287616   3.356   7.445   2.087 -1.2037  0.0017 -0.7596
28912TIP3   OH287617   9.522   8.953   1.981 -0.5337  0.0859 -0.1265
28912TIP3    H187618   9.460   8.899   2.031 -1.9336 -0.3715 -2.2038
28912TIP3    H287619   9.466   9.014   1.932  0.7225  0.3736 -1.2651
28913TIP3   OH287620   4.156   0.156   4.869 -0.4119  0.0145  0.4430
28913TIP3    H187621   4.094   0.130   4.801 -1.4607 -0.5654  1.5680
28913TIP3    H287622   4.212   0.079   4.882  0.8514  0.6818 -0.8641
28914TIP3   OH287623   6.482   2.653   7.097  0.1172  0.1786  0.1055
28914TIP3    H187624   6.547   2.719   7.071 -0.0454  0.2921 -0.0143
28914TIP3    H287625   6.481   2.591   7.025 -2.3707  1.9636 -1.5680
28915TIP3   OH287626   9.993   6.611   6.557  0.1947 -0.5606  0.1660
28915TIP3    H187627  10.053   6.541   6.533  1.3826  1.3776 -3.0712
28915TIP3    H287628   9.916   6.597   6.502  0.9331  1.2261 -1.4331
28916TIP3   OH287629   9.690  10.440   8.312 -0.4444  0.0140 -0.0805
28916TIP3    H187630   9.783  10.420   8.299 -0.5193 -0.0614 -0.5178
28916TIP3    H287631   9.662  10.379   8.380 -0.1451  0.1237  0.1489
28917TIP3   OH287632   0.026   3.847   1.828  0.3261 -0.1199 -0.3233
28917TIP3    H187633   0.001   3.900   1.752  2.0956 -0.9974 -1.5885
28917TIP3    H287634   0.115   3.875   1.849  0.0108 -0.1774  1.2042
28918TIP3   OH287635   0.154   3.211   6.132 -0.6563  0.1543  0.6861
28918TIP3    H187636   0.234   3.249   6.096 -0.6247 -0.4465  0.0845
28918TIP3    H287637   0.084   3.272   6.107 -0.5735 -0.0370 -0.0331
28919TIP3   OH287638   2.111   5.729   1.454  0.5798  0.2248  0.2444
28919TIP3    H187639   2.049   5.802   1.449  2.0330  1.5489  0.8026
28919TIP3    H287640   2.061   5.654   1.422 -1.3311  1.2110  0.7219
28920TIP3   OH287641   2.963   2.245   1.528 -0.5938  0.2117  0.1219
28920TIP3    H187642   3.032   2.201   1.479  0.6520  0.4220  1.5913
28920TIP3    H287643   2.991   2.336   1.531 -1.8754  0.6552 -0.7740
28921TIP3   OH287644   4.972  10.701   7.503 -0.6912 -0.5943  0.6295
28921TIP3    H187645   4.926  10.765   7.557  0.8324  0.7097  0.4663
28921TIP3    H287646   4.907  10.634   7.484 -2.2397  0.6871  1.1866
28922TIP3   OH287647   3.438   1.401   3.243  0.2831 -0.2973 -0.6464
28922TIP3    H187648   3.500   1.465   3.207 -0.5037  0.7606 -0.2015
28922TIP3    H287649   3.476   1.374   3.326  0.3016  0.1288 -0.5129
28923TIP3   OH287650   7.045   6.825  10.463 -0.0446  0.3328  0.0084
28923TIP3    H187651   6.979   6.771  10.419 -0.4361  1.6100 -1.0586
28923TIP3    H287652   7.113   6.837  10.397 -0.2046  1.5191  0.0397
28924TIP3   OH287653   1.004   1.667   0.126 -0.8762  0.1982 -0.1348
28924TIP3    H187654   1.048   1.752   0.129  1.7258 -1.0608  0.7707
28924TIP3    H287655   0.939   1.670   0.197  2.4856 -0.0752  3.2862
28925TIP3   OH287656   5.671   4.023   0.467 -0.9693  0.2158 -0.5074
28925TIP3    H187657   5.652   4.062   0.381  1.9105 -1.0175 -1.8683
28925TIP3    H287658   5.765   4.038   0.479 -1.0032 -0.9642  1.7593
28926TIP3   OH287659   3.506   7.367   0.992 -0.1700 -0.4791 -0.0167
28926TIP3    H187660   3.508   7.293   0.931  2.3675 -1.1109  0.7325
28926TIP3    H287661   3.550   7.438   0.945 -0.2312 -0.2600  0.2565
28927TIP3   OH287662   6.754   9.852   4.915  0.4671  0.0559 -0.6540
28927TIP3    H187663   6.781   9.814   4.832 -1.9208 -4.7716  0.3981
28927TIP3    H287664   6.801   9.801   4.981 -0.7830  0.8949  0.9736
28928TIP3   OH287665  10.414   6.724   1.566  0.4750 -0.0084 -0.7388
28928TIP3    H187666  10.330   6.770   1.571  1.0739  1.4329 -2.5096
28928TIP3    H287667  10.476   6.781   1.611  0.7063 -0.5130 -0.4094
28929TIP3   OH287668   3.678   3.727   7.481  0.7523 -0.3183 -0.0412
28929TIP3    H187669   3.730   3.648   7.469  1.0364  0.0954 -1.8658
28929TIP3    H287670   3.695   3.779   7.402 -0.5022  0.9417  0.4728
28930TIP3   OH287671   2.864   6.715   6.665 -0.8361  0.3071  0.1601
28930TIP3    H187672   2.888   6.699   6.574 -1.7334 -0.2097  0.0013
28930TIP3    H287673   2.937   6.764   6.701 -0.7523  1.0689 -1.0064
28931TIP3   OH287674   0.415   3.692   9.828 -0.6905 -0.5518  0.0663
28931TIP3    H187675   0.381   3.603   9.828 -2.2858  0.0260 -0.1686
28931TIP3    H287676   0.339   3.747   9.850 -0.2622  0.9197 -1.8343
28932TIP3   OH287677   9.251   7.029   1.491 -0.6645  0.2623 -0.0197
28932TIP3    H187678   9.311   6.998   1.559  0.8500  1.3276 -0.7922
28932TIP3    H287679   9.164   7.011   1.525  0.0208  1.1662  2.4084
28933TIP3   OH287680   6.548   2.262   6.079 -0.2798  0.0658  0.0076
28933TIP3    H187681   6.572   2.354   6.074  0.2747 -0.0846 -0.1851
28933TIP3    H287682   6.593   2.221   6.005 -1.7425 -0.0980 -0.8480
28934TIP3   OH287683  10.755   1.122  10.832  0.7207  0.7388  0.0787
28934TIP3    H187684  10.677   1.069  10.818  1.5298 -0.7441  0.8608
28934TIP3    H287685  10.823   1.078  10.782  1.6422  0.4423  1.5251
28935TIP3   OH287686   1.658   6.355   2.985  0.5404  0.6204  0.1078
28935TIP3    H187687   1.724   6.382   3.048 -1.5109  1.6273  1.9686
28935TIP3    H287688   1.653   6.260   2.994  1.3607  0.5889  0.2837
28936TIP3   OH287689  10.885   1.151   6.361  0.3446 -0.2107  0.1839
28936TIP3    H187690  10.926   1.072   6.326  1.9431 -0.1625  1.7960
28936TIP3    H287691  10.958   1.212   6.374 -0.7474  1.2264 -0.2351
28937TIP3   OH287692   5.470   6.501   7.790 -0.1253 -0.6645 -0.2267
28937TIP3    H187693   5.465   6.532   7.700  0.7579  1.5352  0.4070
28937TIP3    H287694   5.400   6.547   7.836 -0.2264 -1.3515  0.3440
28938TIP3   OH287695   6.649   3.683   0.267  0.0438  0.4157 -0.0810
28938TIP3    H187696   6.742   3.680   0.246  0.7407 -1.1771  2.7422
28938TIP3    H287697   6.613   3.602   0.230  0.0184  0.4581 -0.1497
28939TIP3   OH287698   8.718   1.514   0.580  0.2293  0.0557  0.0586
28939TIP3    H187699   8.717   1.515   0.484  1.3412 -1.2622 -0.0033
28939TIP3    H287700   8.751   1.600   0.605  0.4311  0.2298 -0.7615
28940TIP3   OH287701   9.968   3.811   7.991 -0.1829  0.1612  0.6741
28940TIP3    H187702   9.936   3.815   7.901  0.3608  1.1691  0.5100
28940TIP3    H287703   9.976   3.717   8.010  0.7039 -0.0677 -0.7023
28941TIP3   OH287704   8.775   3.556   4.985  0.4119 -0.2251  0.1277
28941TIP3    H187705   8.698   3.537   5.038  0.7956  0.6218  1.0169
28941TIP3    H287706   8.844   3.500   5.021  0.3772 -0.5131 -0.2501
28942TIP3   OH287707   7.352   6.818   5.739 -0.3451  0.4310 -0.0850
28942TIP3    H187708   7.324   6.814   5.647  0.0671  0.4610 -0.2161
28942TIP3    H287709   7.447   6.802   5.735 -0.5804 -1.2407  0.4900
28943TIP3   OH287710   6.187   2.951   2.082  0.2161 -0.0471  0.7621
28943TIP3    H187711   6.126   3.025   2.087 -0.4856 -0.5299 -0.3288
28943TIP3    H287712   6.254   2.979   2.019 -0.7996 -0.8352 -0.7146
28944TIP3   OH287713   0.334   9.006   4.539 -0.1348 -0.2272 -0.0931
28944TIP3    H187714   0.338   9.005   4.634 -1.9770 -0.8556  0.0195
28944TIP3    H287715   0.398   9.072   4.513  1.5739 -1.1946  1.4659
28945TIP3   OH287716   0.184   5.365  10.859 -0.3872 -0.1183  0.1954
28945TIP3    H187717   0.197   5.456  10.834 -0.0731  0.2399  1.5820
28945TIP3    H287718   0.124   5.369  10.933 -0.7485 -1.0773 -0.0370
28946TIP3   OH287719   8.014   6.798  10.768  0.3856  0.0151  0.1404
28946TIP3    H187720   7.986   6.768  10.854  0.3237  1.0041  0.4824
28946TIP3    H287721   7.933   6.801  10.716  0.4418 -0.6976  0.0055
28947TIP3   OH287722   6.151   2.636   9.856 -0.0651 -0.0563 -0.1002
28947TIP3    H187723   6.090   2.609   9.788 -0.1969 -1.1576  0.4201
28947TIP3    H287724   6.236   2.641   9.812 -0.2491 -0.1901 -0.4724
28948TIP3   OH287725   6.352  10.583   5.742  0.2262  0.6111  0.6503
28948TIP3    H187726   6.393  10.630   5.670  0.0446  0.6567  0.5760
28948TIP3    H287727   6.335  10.495   5.707 -0.2659  0.7661  0.4924
28949TIP3   OH287728   9.767   5.600   8.986  0.2375 -0.2984 -0.5832
28949TIP3    H187729   9.854   5.639   8.995 -0.3276  1.6289 -2.5718
28949TIP3    H287730   9.711   5.652   9.043 -0.0374  0.0758 -1.1845
28950TIP3   OH287731   4.451   4.661  10.135 -0.3278 -0.1044  0.2430
28950TIP3    H187732   4.444   4.633  10.044 -0.6989 -0.7229  0.4527
28950TIP3    H287733   4.387   4.608  10.182  0.2092 -0.1592  0.9486
28951TIP3   OH287734   3.311   1.054   5.913  0.2458 -0.0813  0.1043
28951TIP3    H187735   3.353   1.061   5.828 -1.6626 -2.8316 -1.2239
28951TIP3    H287736   3.367   0.994   5.963  0.4261  0.0961  0.1139
28952TIP3   OH287737   5.719   0.175   7.201  0.3777 -0.4134  0.3716
28952TIP3    H187738   5.690   0.100   7.150  1.1779 -0.5088  0.0484
28952TIP3    H287739   5.714   0.249   7.140 -0.4698 -0.1874  0.7069
28953TIP3   OH287740   1.667   2.560   3.307  0.1579  0.6616 -0.3285
28953TIP3    H187741   1.716   2.593   3.231  0.1622 -0.1399 -0.6838
28953TIP3    H287742   1.657   2.466   3.291  1.5202  0.1606  1.4106
28954TIP3   OH287743   7.014   9.333   1.679  0.6228 -0.2419  0.4561
28954TIP3    H187744   7.022   9.398   1.749  0.9015 -1.3760  1.5109
28954TIP3    H287745   6.992   9.252   1.724  1.4819 -1.1518 -0.7091
28955TIP3   OH287746   0.233   4.478   0.005  0.3059 -0.2191  0.3318
28955TIP3    H187747   0.186   4.559   0.023 -1.1025 -0.7470 -0.8243
28955TIP3    H287748   0.323   4.506  -0.011 -0.0803  1.0762  0.2831
28956TIP3   OH287749   1.095  10.626   5.970 -0.3671  0.3679  0.4673
28956TIP3    H187750   1.054  10.711   5.983 -2.2176 -0.5997  1.1641
28956TIP3    H287751   1.084  10.609   5.876 -2.0035 -0.0660  0.7117
28957TIP3   OH287752   5.482   8.009   2.017  0.0115  0.0631  0.2244
28957TIP3    H187753   5.567   8.018   1.973  0.4590 -0.6644  0.9120
28957TIP3    H287754   5.468   7.915   2.021 -1.2048  0.1861 -0.5530
28958TIP3   OH287755   0.101   4.996   6.916 -0.0909  0.2507  0.0411
28958TIP3    H187756   0.145   5.029   6.838  0.9280  0.1740  0.5603
28958TIP3    H287757   0.009   5.021   6.904  0.0482  0.2586 -1.1569
28959TIP3   OH287758   8.592   6.240   5.426 -0.2031  0.4811  0.1452
28959TIP3    H187759   8.673   6.285   5.402 -0.0769  0.0345 -0.2734
28959TIP3    H287760   8.549   6.222   5.342 -0.9157  1.0396  0.3759
28960TIP3   OH287761   4.589   8.571   3.126  0.0704  0.3241  0.2334
28960TIP3    H187762   4.541   8.601   3.048 -0.6046  3.5081  1.7172
28960TIP3    H287763   4.522   8.562   3.194  0.9256 -0.3066  1.0187
28961TIP3   OH287764   4.424   9.221   2.805 -0.4996  0.5064  0.2512
28961TIP3    H187765   4.481   9.147   2.786 -1.1722  0.0491 -0.0018
28961TIP3    H287766   4.445   9.245   2.895 -0.6491 -0.3196  0.5100
28962TIP3   OH287767   8.695   9.159   8.604 -0.0729  0.0181 -0.2429
28962TIP3    H187768   8.613   9.160   8.555  0.3358  0.9757 -0.9478
28962TIP3    H287769   8.738   9.241   8.580  0.2499  0.4304  1.5545
28963TIP3   OH287770   8.720   5.947   4.702 -0.3651 -0.6018  0.5919
28963TIP3    H187771   8.762   5.939   4.616 -1.2382 -1.0569  0.1954
28963TIP3    H287772   8.783   5.907   4.763 -0.0782 -0.9770  0.0596
28964TIP3   OH287773   6.547   9.028   6.293 -0.2902  0.6915 -0.3907
28964TIP3    H187774   6.633   9.000   6.325 -0.1286  1.6058 -0.0113
28964TIP3    H287775   6.493   9.035   6.371 -1.0202 -0.8467 -0.7173
28965TIP3   OH287776   6.599   3.738   2.247  0.2366  0.5665 -0.4462
28965TIP3    H187777   6.571   3.711   2.334 -0.1638  0.8385 -0.4861
28965TIP3    H287778   6.686   3.699   2.236 -0.7967 -1.7542 -0.9869
28966TIP3   OH287779   4.290   0.490   6.986 -0.3752  0.5694  0.0225
28966TIP3    H187780   4.313   0.404   6.949 -1.3491  0.2601  0.0813
28966TIP3    H287781   4.337   0.494   7.069  0.3970  0.4872 -0.4015
28967TIP3   OH287782   0.020   2.984   1.233  0.0255 -0.3990  0.2020
28967TIP3    H187783   0.040   2.896   1.201 -0.7420 -0.0669 -1.3051
28967TIP3    H287784   0.052   2.986   1.323  1.2278 -1.7951 -0.1709
28968TIP3   OH287785   3.094   9.769   9.107  0.5813 -0.2318 -0.1929
28968TIP3    H187786   3.137   9.767   9.193 -0.4072  2.9351  0.5265
28968TIP3    H287787   3.000   9.777   9.128 -0.2147 -3.7721 -1.7023
28969TIP3   OH287788   8.583   7.017   2.027 -0.8208 -0.0968  0.0793
28969TIP3    H187789   8.504   7.017   1.973 -0.1991  1.3184 -0.8950
28969TIP3    H287790   8.558   7.064   2.106 -1.0314  0.1355 -0.1237
28970TIP3   OH287791   7.408   9.318   8.230 -0.1654 -0.6745  0.0910
28970TIP3    H187792   7.496   9.289   8.255  0.8254  1.0634 -1.2061
28970TIP3    H287793   7.402   9.298   8.136 -1.4693 -1.4331  0.3053
28971TIP3   OH287794   7.087   9.550   9.626 -0.7101  0.3548 -0.3505
28971TIP3    H187795   7.125   9.464   9.611  0.2228  0.6595  0.1702
28971TIP3    H287796   7.077   9.588   9.539  0.5589  0.4067 -0.4896
28972TIP3   OH287797  10.195   3.909   8.226  0.4043 -0.4162 -0.1701
28972TIP3    H187798  10.130   3.843   8.202 -0.2646  0.9184 -2.2481
28972TIP3    H287799  10.202   3.901   8.321 -2.5595 -0.8337  0.1172
28973TIP3   OH287800   5.888   7.611   9.708 -0.6250  0.2211 -0.0798
28973TIP3    H187801   5.860   7.694   9.748  0.8113  1.8930 -2.2655
28973TIP3    H287802   5.885   7.629   9.614  0.1448 -2.1192 -0.5934
28974TIP3   OH287803   1.548   1.376   8.507  0.2353  0.0793 -0.2307
28974TIP3    H187804   1.526   1.456   8.556  0.8937  0.1282 -0.0050
28974TIP3    H287805   1.628   1.399   8.458 -0.3586  0.0030 -1.2710
28975TIP3   OH287806   1.203   8.238   2.120  0.2066  0.4563  0.2591
28975TIP3    H187807   1.252   8.178   2.176  2.5148 -0.2725 -2.3082
28975TIP3    H287808   1.112   8.209   2.128  0.8855 -1.6069  1.2259
28976TIP3   OH287809  10.226   0.367   5.330  0.0233 -0.0860  0.2006
28976TIP3    H187810  10.132   0.374   5.315 -0.1314  0.5732  1.3041
28976TIP3    H287811  10.237   0.389   5.423  1.4841  2.0566 -0.4032
28977TIP3   OH287812   0.579   4.883   6.283 -0.3169  0.5791 -0.1798
28977TIP3    H187813   0.540   4.817   6.341 -1.2133 -0.5830 -2.0005
28977TIP3    H287814   0.589   4.838   6.199  0.0630  2.4490 -1.1902
28978TIP3   OH287815   3.021   0.412   0.223 -0.0995 -0.3618 -0.3798
28978TIP3    H187816   3.029   0.482   0.159  0.2784 -0.3331 -0.3018
28978TIP3    H287817   3.031   0.455   0.308 -1.2979 -0.2876 -0.2609
28979TIP3   OH287818   0.890   6.232   1.834 -0.2477 -0.1592 -0.5109
28979TIP3    H187819   0.964   6.207   1.889 -0.3827  0.5181  0.0045
28979TIP3    H287820   0.903   6.325   1.817 -2.1305  0.6066  1.5536
28980TIP3   OH287821   5.018   1.954  10.011 -0.3648  0.2924 -0.2310
28980TIP3    H187822   5.024   2.001   9.928 -1.9894  1.5834  0.3336
28980TIP3    H287823   4.925   1.932  10.020  0.0692 -1.5146  0.3725
28981TIP3   OH287824   1.604   3.768   2.819 -0.9146 -0.0382  0.6052
28981TIP3    H187825   1.609   3.810   2.905 -0.1940  1.2168 -0.0236
28981TIP3    H287826   1.629   3.677   2.835  0.8504  0.5618  1.4763
28982TIP3   OH287827   5.092   5.335   3.317  0.0141 -0.1483  0.0095
28982TIP3    H187828   5.059   5.253   3.352 -0.4554  0.7455  1.7920
28982TIP3    H287829   5.145   5.310   3.241 -2.9123 -1.8089 -1.6233
28983TIP3   OH287830   8.059   6.869   3.150  0.3224 -0.4402 -0.3586
28983TIP3    H187831   7.972   6.901   3.174  0.1282 -0.1212 -1.4316
28983TIP3    H287832   8.041   6.796   3.090  0.7858 -1.4100  0.6494
28984TIP3   OH287833   5.966   0.988   8.427  0.3933 -0.4151 -0.4358
28984TIP3    H187834   5.973   0.963   8.335  0.3633  0.0757 -0.5714
28984TIP3    H287835   5.875   0.972   8.449  0.7784 -2.2862  0.0267
28985TIP3   OH287836   6.477  10.427   8.526 -0.0835 -0.2120 -0.0960
28985TIP3    H187837   6.414  10.435   8.455  0.3258 -0.2521 -0.4688
28985TIP3    H287838   6.561  10.414   8.482  0.3965  1.1917  0.3432
28986TIP3   OH287839   1.402   8.826   8.573 -0.4509  0.0119 -0.4816
28986TIP3    H187840   1.365   8.909   8.603  0.0552 -0.0195  0.2569
28986TIP3    H287841   1.327   8.769   8.561 -0.8360  0.6954 -1.3777
28987TIP3   OH287842   4.069   3.930   5.031  0.4447  0.2558 -0.2087
28987TIP3    H187843   4.145   3.893   5.075  0.4632  0.9715  0.3717
28987TIP3    H287844   4.044   4.005   5.085 -0.6155  0.0801 -0.4525
28988TIP3   OH287845   1.761   4.861   7.279  0.0196 -0.3451  0.4778
28988TIP3    H187846   1.785   4.822   7.195 -0.3698 -0.0760  0.2354
28988TIP3    H287847   1.693   4.925   7.257 -0.8161 -0.9777  1.1186
28989TIP3   OH287848   2.182   2.990   7.912  0.1706  0.3155  0.3054
28989TIP3    H187849   2.095   3.029   7.922 -0.1612 -0.1158 -0.7850
28989TIP3    H287850   2.167   2.896   7.921  0.1038  0.0234 -2.1786
28990TIP3   OH287851   8.252   7.655   2.961  0.2601 -0.1104  0.2594
28990TIP3    H187852   8.253   7.564   2.991  0.0248 -0.2027 -0.0053
28990TIP3    H287853   8.246   7.649   2.865  2.7084  0.1613  0.0197
28991TIP3   OH287854   6.685   7.075   3.920 -0.0792 -0.4526  0.3078
28991TIP3    H187855   6.696   7.143   3.854 -0.0851 -0.9459 -0.2056
28991TIP3    H287856   6.774   7.049   3.944 -0.0488  0.5441  1.3624
28992TIP3   OH287857   8.330   7.017   7.551 -0.1860  0.7816 -0.4911
28992TIP3    H187858   8.328   6.921   7.554  2.7782  0.6046 -0.5151
28992TIP3    H287859   8.240   7.044   7.565 -0.6754 -1.9473  2.8528
28993TIP3   OH287860   2.382   2.593   4.862 -0.0985 -0.6164 -0.0831
28993TIP3    H187861   2.415   2.627   4.945  0.2555 -0.0133 -0.4561
28993TIP3    H287862   2.458   2.594   4.804 -0.4098 -0.7288 -0.5025
28994TIP3   OH287863  10.313   2.023   7.535  0.2169 -0.4681 -0.0454
28994TIP3    H187864  10.350   2.023   7.624 -0.2557 -0.9911  0.1599
28994TIP3    H287865  10.284   1.932   7.522  0.3476 -0.4115 -0.7630
28995TIP3   OH287866   3.581   9.045   0.418 -0.0993 -0.4575  0.4289
28995TIP3    H187867   3.532   9.049   0.499  0.2976 -1.1236  0.7136
28995TIP3    H287868   3.626   9.129   0.412 -1.6924  0.3917 -0.1266
28996TIP3   OH287869   0.983   6.102   3.770 -0.1770 -0.3350 -0.1093
28996TIP3    H187870   0.988   6.191   3.737 -0.5582 -0.5622 -0.8101
28996TIP3    H287871   1.074   6.078   3.789 -0.2612  1.2060  2.9424
28997TIP3   OH287872   0.482   5.388   1.635  0.3639  0.1798 -0.6477
28997TIP3    H187873   0.436   5.322   1.688 -0.6675  2.1904  1.1256
28997TIP3    H287874   0.513   5.340   1.558 -0.0010 -2.4306  0.7109
28998TIP3   OH287875   6.249   0.936  10.828  0.0421  0.3680 -0.1905
28998TIP3    H187876   6.259   0.943  10.923  0.8213 -1.3488 -0.1085
28998TIP3    H287877   6.164   0.895  10.815  0.7956 -1.2948 -0.1101
28999TIP3   OH287878   2.708   2.167   2.558 -0.2818  0.1833 -0.0280
28999TIP3    H187879   2.749   2.194   2.640 -1.3905 -1.6230  1.1907
28999TIP3    H287880   2.615   2.187   2.571 -0.3658  0.6001 -1.1801
29000TIP3   OH287881   5.013   8.859  10.604  0.1200  0.4300  0.1146
29000TIP3    H187882   5.059   8.891  10.526  2.3830 -2.0319  0.2816
29000TIP3    H287883   5.083   8.838  10.666 -1.3482 -1.3926  1.2753
29001TIP3   OH287884   6.558   7.405   4.612  0.6116 -0.2140  0.0369
29001TIP3    H187885   6.598   7.440   4.692 -0.0955  1.7691 -0.4189
29001TIP3    H287886   6.464   7.416   4.626  0.3998 -1.3784 -0.4063
29002TIP3   OH287887   3.219   6.563   2.132 -0.0217 -0.1104 -0.0435
29002TIP3    H187888   3.208   6.490   2.192  1.2696 -0.2886  0.0151
29002TIP3    H287889   3.229   6.522   2.046  1.2068 -0.0708  0.0533
29003TIP3   OH287890   1.856  10.606   6.060 -0.0069 -0.3918 -0.4453
29003TIP3    H187891   1.948  10.581   6.073 -0.2870 -0.6582  1.2318
29003TIP3    H287892   1.851  10.696   6.090 -0.0597  0.0387 -1.7010
29004TIP3   OH287893   3.882   5.745   5.164  0.9860 -0.1342  0.6509
29004TIP3    H187894   3.918   5.659   5.187  2.8803  0.1391 -1.0221
29004TIP3    H287895   3.949   5.785   5.108  0.1663  2.4437  1.3680
29005TIP3   OH287896   8.104   6.868   1.071 -0.2688 -0.2156 -0.5380
29005TIP3    H187897   8.048   6.871   0.994 -1.8046  1.5935  0.5834
29005TIP3    H287898   8.193   6.878   1.037 -0.3591 -3.9470 -2.4429
29006TIP3   OH287899   9.011   1.034   0.204  0.0279  0.0860 -0.3707
29006TIP3    H187900   8.984   1.037   0.296  0.9467  0.1836 -0.0991
29006TIP3    H287901   8.967   0.957   0.169 -0.9028  0.4501 -0.0394
29007TIP3   OH287902   9.043   1.331   8.942  0.7420  0.0324 -0.2383
29007TIP3    H187903   8.986   1.371   9.007  1.4957 -0.3574  0.6772
29007TIP3    H287904   9.101   1.402   8.914 -2.0217  1.2924 -3.4247
29008TIP3   OH287905   0.797   5.870   4.409 -0.6281 -0.2470 -0.1174
29008TIP3    H187906   0.722   5.810   4.404 -0.7260 -0.1172 -0.2287
29008TIP3    H287907   0.846   5.842   4.486 -0.7389 -0.3959 -0.1018
29009TIP3   OH287908   9.033   8.927  10.562  0.2009 -0.2426 -0.2769
29009TIP3    H187909   9.015   8.987  10.635 -2.8543 -0.0611 -1.0571
29009TIP3    H287910   9.089   8.859  10.600 -1.7833 -0.4993  2.4754
29010TIP3   OH287911   5.923   1.350   8.465  0.7499 -0.0963  0.7167
29010TIP3    H187912   5.941   1.317   8.553  0.6135  0.7862  1.0913
29010TIP3    H287913   5.900   1.442   8.479 -0.8576 -0.3355 -0.0633
29011TIP3   OH287914   8.713   2.118   3.731 -0.4710  0.1180 -0.1892
29011TIP3    H187915   8.646   2.122   3.800  1.1079 -0.3055  1.4461
29011TIP3    H287916   8.767   2.196   3.746 -0.1803  0.0859 -1.0305
29012TIP3   OH287917  10.409   4.169   0.177  0.5392 -0.2136 -0.0159
29012TIP3    H187918  10.499   4.199   0.172  0.5043  0.1338  1.1583
29012TIP3    H287919  10.413   4.075   0.163  1.0373 -0.1345 -0.3903
29013TIP3   OH287920   7.985   2.925   9.040  0.8013  0.0414  0.3954
29013TIP3    H187921   7.943   2.990   8.984 -1.1108 -1.2936  0.1744
29013TIP3    H287922   8.004   2.971   9.122  0.2936  1.0840 -0.0633
29014TIP3   OH287923   9.221   3.364  10.308  0.1726 -0.0560 -0.2016
29014TIP3    H187924   9.174   3.290  10.346 -0.3063  0.0758 -0.5201
29014TIP3    H287925   9.176   3.441  10.342  1.6721  0.1638  1.4368
29015TIP3   OH287926   7.730   9.687   0.106 -0.4037 -0.4153  0.0414
29015TIP3    H187927   7.806   9.631   0.091 -0.9627 -1.2934  0.4107
29015TIP3    H287928   7.751   9.733   0.188 -0.3688 -0.8371  0.2742
29016TIP3   OH287929   9.890   7.033   6.763 -0.2841 -0.4597  0.9283
29016TIP3    H187930   9.913   7.077   6.681  0.0171  2.5219  2.4910
29016TIP3    H287931   9.973   7.024   6.810 -0.1468 -3.7591  0.3370
29017TIP3   OH287932   0.049   3.876   9.373  0.6922 -0.5583 -0.5098
29017TIP3    H187933   0.057   3.931   9.296  3.5254 -2.7785 -1.9628
29017TIP3    H287934   0.055   3.786   9.340 -3.0816 -1.9392  1.7888
29018TIP3   OH287935   4.770   7.518   2.182  0.1673  0.1097  0.7539
29018TIP3    H187936   4.792   7.428   2.208 -0.6493 -0.9835 -1.9379
29018TIP3    H287937   4.698   7.543   2.240 -0.8746 -1.7480  0.3575
29019TIP3   OH287938   3.380   9.775   3.314  0.6548  0.3311  0.0469
29019TIP3    H187939   3.354   9.794   3.404  1.2921 -0.5020  0.4287
29019TIP3    H287940   3.474   9.790   3.313  0.6016  0.6061 -0.5545
29020TIP3   OH287941   8.675   8.960   2.121 -0.1277  0.4374 -0.5348
29020TIP3    H187942   8.592   8.961   2.074 -0.3926  0.7550 -0.0670
29020TIP3    H287943   8.718   8.879   2.094 -0.8609 -0.0327 -0.2977
29021TIP3   OH287944   5.615   1.608   8.572 -0.1925  0.0883  0.0432
29021TIP3    H187945   5.647   1.699   8.569 -1.3932  0.5175 -0.1899
29021TIP3    H287946   5.537   1.612   8.628  0.0191 -0.8964  0.4275
29022TIP3   OH287947   2.152   5.849   8.609 -0.3505  0.5791 -0.1268
29022TIP3    H187948   2.181   5.810   8.526 -0.9323 -0.7977  0.2822
29022TIP3    H287949   2.229   5.897   8.640 -0.1810  1.2872 -1.5334
29023TIP3   OH287950   2.428   7.046   6.048 -0.1418  0.0513 -0.1786
29023TIP3    H187951   2.465   7.059   6.135 -0.1303 -0.5073 -0.0979
29023TIP3    H287952   2.443   7.130   6.003 -0.5151  0.4810  0.4848
29024TIP3   OH287953   5.638   8.331   0.363  0.1876 -0.6291 -0.6578
29024TIP3    H187954   5.662   8.384   0.286 -1.3416  1.2124  0.0476
29024TIP3    H287955   5.666   8.384   0.438  0.3530 -1.7374  0.0876
29025TIP3   OH287956   8.688   2.534   2.933 -0.1065 -0.6657  0.4842
29025TIP3    H187957   8.595   2.550   2.949 -0.2646 -0.2395 -0.7596
29025TIP3    H287958   8.729   2.542   3.019 -1.1298 -0.2033  0.9404
29026TIP3   OH287959   5.140   9.733   1.378 -0.0229 -0.0404 -0.0631
29026TIP3    H187960   5.150   9.706   1.469  2.6648  0.7104 -0.0310
29026TIP3    H287961   5.102   9.820   1.382  2.7951  1.2730  0.6286
29027TIP3   OH287962   1.378   6.670   5.573  0.2568 -0.5518 -0.0621
29027TIP3    H187963   1.394   6.576   5.570 -0.7471 -0.7232 -0.3752
29027TIP3    H287964   1.316   6.687   5.502  0.5447  0.3757 -0.1177
29028TIP3   OH287965   4.432   7.433   8.257  0.0087 -0.3862 -0.0090
29028TIP3    H187966   4.354   7.488   8.265 -0.1429 -0.7097  0.7825
29028TIP3    H287967   4.426   7.372   8.330  0.6300 -0.8920 -0.3707
29029TIP3   OH287968   5.750   9.103  10.476  0.9725 -0.3496  0.0046
29029TIP3    H187969   5.815   9.125  10.543  0.7107 -0.5854  0.3425
29029TIP3    H287970   5.803   9.073  10.401  1.4181  2.7914 -1.0569
29030TIP3   OH287971   0.064   9.326   4.032  0.0252 -0.6910  0.0223
29030TIP3    H187972   0.064   9.340   4.127  0.8232 -0.7348  0.0356
29030TIP3    H287973   0.112   9.243   4.020  0.9404 -0.1066 -0.4864
29031TIP3   OH287974   3.456   2.634   4.178 -0.4165 -0.5083 -0.1644
29031TIP3    H187975   3.487   2.637   4.087 -0.9951 -1.1837 -0.3976
29031TIP3    H287976   3.405   2.552   4.183  0.3101 -0.9125  0.9930
29032TIP3   OH287977   7.712   5.022   7.039  0.1988  0.0324  0.0735
29032TIP3    H187978   7.649   4.951   7.042  0.8674 -0.5675  0.0796
29032TIP3    H287979   7.752   5.023   7.126  0.9705 -0.3085 -0.2698
29033TIP3   OH287980   1.285   4.189   4.851 -0.5444  0.1578  0.3437
29033TIP3    H187981   1.251   4.189   4.940  0.9403 -0.2922  0.9566
29033TIP3    H287982   1.365   4.136   4.857 -0.3981  0.1692 -1.2439
29034TIP3   OH287983   9.385   2.205   0.584  0.0165  0.7376  0.2149
29034TIP3    H187984   9.465   2.179   0.538  1.4030  0.7842  2.4387
29034TIP3    H287985   9.327   2.237   0.515  1.0918 -1.2010 -1.7365
29035TIP3   OH287986  10.409   9.030   8.178 -0.0529 -0.0112 -0.6063
29035TIP3    H187987  10.408   9.049   8.272  0.2373 -1.5457 -0.2692
29035TIP3    H287988  10.498   9.051   8.150 -0.6607  2.3149 -0.9875
29036TIP3   OH287989   8.846   2.831   5.574  0.1328 -0.2994  0.0315
29036TIP3    H187990   8.868   2.803   5.663  1.2966 -0.2488 -0.2304
29036TIP3    H287991   8.891   2.768   5.517  0.6901  0.5900 -0.5347
29037TIP3   OH287992   8.239  10.203   6.905 -0.1394 -0.5856 -0.5788
29037TIP3    H187993   8.245  10.153   6.986 -1.4381  1.4190  0.8458
29037TIP3    H287994   8.324  10.248   6.898  0.7038 -2.2368 -1.4144
29038TIP3   OH287995   5.981   9.512  10.117  0.0949 -0.6110 -0.0239
29038TIP3    H187996   6.054   9.545  10.065  0.7424 -0.7545  0.7678
29038TIP3    H287997   5.908   9.570  10.096  0.7107  0.1515 -0.0880
29039TIP3   OH287998   6.139   0.537   3.970 -0.1282 -0.1636 -0.2279
29039TIP3    H187999   6.106   0.622   3.940 -0.9429 -0.1752  0.5828
29039TIP3    H288000   6.107   0.474   3.906 -0.0472  0.0703 -0.4971
29040TIP3   OH288001   8.261   2.028   3.483  0.2772 -0.4805  0.0643
29040TIP3    H188002   8.231   2.020   3.392  1.5817 -1.2776 -0.3261
29040TIP3    H288003   8.226   1.951   3.527 -0.7718  0.1559  0.3918
29041TIP3   OH288004   5.459  10.428   7.517 -0.3557  0.4735  0.2888
29041TIP3    H188005   5.371  10.466   7.525 -0.2314  0.8639 -0.1427
29041TIP3    H288006   5.444  10.335   7.498 -0.6805  0.5997 -0.0793
29042TIP3   OH288007   1.695   1.882   4.351  0.3325  0.4744 -0.5936
29042TIP3    H188008   1.634   1.950   4.379  1.0640  1.2388 -0.7935
29042TIP3    H288009   1.758   1.928   4.295  2.5754  0.3065  1.6027
29043TIP3   OH288010   6.556   0.563   6.435 -0.0474  0.5773 -0.3081
29043TIP3    H188011   6.585   0.643   6.390 -0.6164  0.5620 -0.7169
29043TIP3    H288012   6.579   0.577   6.527 -1.5595  1.9301 -0.0789
29044TIP3   OH288013   7.759   2.526   8.748  0.6793 -0.0064 -0.1893
29044TIP3    H188014   7.725   2.614   8.731 -1.0381 -0.7694 -0.8751
29044TIP3    H288015   7.720   2.471   8.680  0.7441 -1.5267  0.9466
29045TIP3   OH288016   4.728   8.627   1.824  0.1537  0.1789  0.0489
29045TIP3    H188017   4.807   8.651   1.873  0.1288  1.0638 -0.3258
29045TIP3    H288018   4.735   8.532   1.812  0.6583  0.1020  0.8828
29046TIP3   OH288019   5.131   3.682   8.844 -0.9250 -0.3082  0.2049
29046TIP3    H188020   5.144   3.702   8.751 -0.4556 -0.7855  0.1661
29046TIP3    H288021   5.078   3.755   8.877 -1.2354 -0.2174 -0.4753
29047TIP3   OH288022   5.068   8.885   9.805 -0.9677 -0.1120 -0.3522
29047TIP3    H188023   5.039   8.962   9.854 -1.0533  0.9842 -2.0430
29047TIP3    H288024   5.162   8.881   9.821 -0.8452  0.7736 -0.8141
29048TIP3   OH288025   5.706   3.532   2.000  0.0797 -0.1426 -0.3260
29048TIP3    H188026   5.667   3.445   1.992 -0.9868  0.2279  0.6117
29048TIP3    H288027   5.639   3.592   1.968  0.1355  0.4504  0.6082
29049TIP3   OH288028   2.091   8.261   9.969 -0.4189  0.4941 -0.5656
29049TIP3    H188029   2.159   8.196   9.951 -0.3580  1.1112 -2.8463
29049TIP3    H288030   2.114   8.335   9.913 -0.9389  2.2096  1.3535
29050TIP3   OH288031   4.476   9.284   0.519  0.0681  0.5612 -0.3283
29050TIP3    H188032   4.415   9.328   0.579 -0.7975 -0.9806 -0.0315
29050TIP3    H288033   4.510   9.210   0.570  0.3395  0.0015 -1.3070
29051TIP3   OH288034   2.180   0.291   7.540  0.4186 -0.3357  0.1290
29051TIP3    H188035   2.124   0.280   7.617 -0.6362 -0.3412 -0.6217
29051TIP3    H288036   2.130   0.252   7.468  1.4254 -0.4073 -0.5460
29052TIP3   OH288037   8.900   0.721   8.269  0.0562 -0.1947 -0.3345
29052TIP3    H188038   8.919   0.647   8.327 -0.3995  0.8387  1.2209
29052TIP3    H288039   8.986   0.751   8.239  0.2628 -1.1277 -0.7038
29053TIP3   OH288040   2.565   5.224   7.878 -0.5630 -0.3666 -0.4124
29053TIP3    H188041   2.659   5.225   7.862 -0.1442  1.2660  1.7189
29053TIP3    H288042   2.539   5.133   7.863  1.6261 -1.1731  0.3590
29054TIP3   OH288043   4.815   1.828   5.733  0.0077  0.0132  0.0498
29054TIP3    H188044   4.720   1.829   5.744 -0.0749 -0.0419 -0.6184
29054TIP3    H288045   4.828   1.843   5.639  0.6660  0.3283  0.1859
29055TIP3   OH288046   8.372   0.369   5.620  1.0155  0.0717 -0.0181
29055TIP3    H188047   8.321   0.438   5.579  0.1670 -0.0787  0.7451
29055TIP3    H288048   8.332   0.288   5.589  2.1639 -0.1074 -1.1074
29056TIP3   OH288049   1.622   3.867   3.299 -0.2956  0.2645  0.5264
29056TIP3    H188050   1.584   3.952   3.322 -0.1993  0.1808  1.0097
29056TIP3    H288051   1.577   3.804   3.356  1.4809  0.3281  2.1248
29057TIP3   OH288052   3.168   0.850   2.738  0.3128 -0.0830  0.4853
29057TIP3    H188053   3.207   0.789   2.801  0.0470 -0.5462  0.2055
29057TIP3    H288054   3.188   0.812   2.653  1.9726  1.3006  0.1979
29058TIP3   OH288055   7.706   0.602   7.310  0.8200  0.1328 -0.8410
29058TIP3    H188056   7.620   0.596   7.269  0.9790  1.2048 -1.3666
29058TIP3    H288057   7.711   0.525   7.367 -0.8148  0.4866 -0.1557
29059TIP3   OH288058   1.791   7.610   3.489  0.0410  0.4526  0.1795
29059TIP3    H188059   1.755   7.682   3.539  0.7638 -0.4973  2.1600
29059TIP3    H288060   1.783   7.534   3.546  1.2397 -0.6141 -0.9965
29060TIP3   OH288061   7.873   5.622   1.442  0.0497  0.1503  0.0066
29060TIP3    H188062   7.913   5.554   1.496  0.9697  0.7872  0.1524
29060TIP3    H288063   7.908   5.704   1.476 -2.4568  0.8868  1.0595
29061TIP3   OH288064   3.248   2.366   8.256 -0.4516  0.3327 -0.1725
29061TIP3    H188065   3.270   2.303   8.325  0.5936  1.9032  0.9715
29061TIP3    H288066   3.324   2.368   8.199  0.8270  2.6601  1.4500
29062TIP3   OH288067   3.027   6.533   4.673 -0.0945  0.2432 -0.6456
29062TIP3    H188068   2.972   6.485   4.610 -4.3205  0.7301  2.2057
29062TIP3    H288069   3.075   6.464   4.719 -0.7906 -0.6239 -1.1684
29063TIP3   OH288070   7.936   6.049   9.226 -0.0286  0.3010 -0.3893
29063TIP3    H188071   7.901   5.961   9.214 -0.6429 -0.1473  3.5128
29063TIP3    H288072   8.031   6.038   9.220 -0.0654 -0.7894  0.5868
29064TIP3   OH288073   2.980   5.922   2.022  0.5298 -0.0966  0.7658
29064TIP3    H188074   3.009   5.982   1.953 -2.5424  0.8971  0.1927
29064TIP3    H288075   2.979   5.836   1.980  0.3356  0.2240  0.1028
29065TIP3   OH288076  10.451   0.210   2.298  0.2216 -0.0201  0.1342
29065TIP3    H188077  10.452   0.127   2.346 -1.1088  0.6779  1.4577
29065TIP3    H288078  10.395   0.194   2.222 -0.9130 -0.0743  0.9574
29066TIP3   OH288079   7.659   0.947   8.174 -0.1154 -0.2638  0.2922
29066TIP3    H188080   7.673   0.868   8.226 -1.3728 -0.6281  0.1110
29066TIP3    H288081   7.591   0.922   8.111  0.3127  0.6186 -0.5344
29067TIP3   OH288082   0.416  10.877   1.593  0.3400 -0.4254  0.4051
29067TIP3    H188083   0.341  10.837   1.636  0.0480 -1.2379 -0.8263
29067TIP3    H288084   0.378  10.947   1.539  0.5789 -0.2386  0.4751
29068TIP3   OH288085   4.023   3.765   3.827  0.3856 -0.7034 -0.1813
29068TIP3    H188086   4.074   3.751   3.748  0.6938  0.3054 -0.1595
29068TIP3    H288087   3.953   3.825   3.801  0.7777  0.0233  0.4312
29069TIP3   OH288088   8.287   8.290   3.579 -0.2346 -0.1727 -0.3515
29069TIP3    H188089   8.232   8.269   3.654  0.2139  0.8187  0.2797
29069TIP3    H288090   8.230   8.274   3.503 -0.6466 -1.3181  0.1705
29070TIP3   OH288091   3.717   9.073   4.216  0.1287  0.3876  0.3226
29070TIP3    H188092   3.790   9.027   4.174 -0.1941  0.4185 -0.2869
29070TIP3    H288093   3.639   9.027   4.185 -0.2600  1.7917 -0.9094
29071TIP3   OH288094  10.216   8.575   7.517 -0.1860 -0.9205  0.0570
29071TIP3    H188095  10.215   8.496   7.571 -1.2205 -0.9947 -0.0556
29071TIP3    H288096  10.167   8.551   7.438 -0.9437 -0.0288  0.2343
29072TIP3   OH288097   6.668   6.404   2.998  0.4767  0.0098  0.0886
29072TIP3    H188098   6.630   6.370   3.079 -3.3794 -0.3917 -1.6611
29072TIP3    H288099   6.629   6.491   2.987  1.9995  0.6403 -0.7106
29073TIP3   OH288100   6.778   4.675   1.014 -0.0033 -0.0901  0.1599
29073TIP3    H188101   6.790   4.693   0.920  2.1864 -2.8298 -0.2186
29073TIP3    H288102   6.817   4.751   1.057  0.8549  0.2703 -1.1703
29074TIP3   OH288103   8.372   6.980   8.254  0.3619  0.3623 -0.0101
29074TIP3    H188104   8.314   6.931   8.312  1.5753 -1.1396  0.0015
29074TIP3    H288105   8.331   6.972   8.167  0.6080 -0.8173 -0.0308
29075TIP3   OH288106   2.994   0.192   2.591  0.1116 -0.4002  0.7095
29075TIP3    H188107   3.028   0.216   2.504 -1.3007  0.1790  0.2880
29075TIP3    H288108   2.918   0.248   2.603 -0.0376 -0.8663  2.1068
29076TIP3   OH288109   6.759   9.075   6.494 -0.0270 -0.2297 -0.8150
29076TIP3    H188110   6.834   9.108   6.445 -0.2849 -0.1456 -1.1582
29076TIP3    H288111   6.709   9.154   6.517 -0.3756 -0.3357 -1.1953
29077TIP3   OH288112   8.399   1.379   7.996  0.0132  0.1983  0.0515
29077TIP3    H188113   8.493   1.376   7.977  0.3726  0.8801  1.6118
29077TIP3    H288114   8.389   1.333   8.079 -1.1938 -0.7312 -0.5782
29078TIP3   OH288115   8.734   7.293   4.653  0.3223 -0.0315  0.7167
29078TIP3    H188116   8.812   7.345   4.632 -1.3897  1.3868 -2.8362
29078TIP3    H288117   8.707   7.325   4.740  2.6484  0.7050  1.2359
29079TIP3   OH288118   4.596   8.363   7.146 -0.5152  0.2086 -0.6121
29079TIP3    H188119   4.642   8.290   7.185  0.8236  1.2706 -0.1342
29079TIP3    H288120   4.504   8.348   7.168 -0.0309 -0.2517  1.2568
29080TIP3   OH288121  10.185   5.951   0.826  0.0761  0.0147 -0.5241
29080TIP3    H188122  10.112   5.969   0.767  0.3810 -2.3193 -1.7630
29080TIP3    H288123  10.146   5.897   0.895  0.5837 -1.3989 -1.2896
29081TIP3   OH288124   2.500   2.669   7.473  0.3293 -0.2737  0.2906
29081TIP3    H188125   2.588   2.707   7.464  0.1786  0.7149  2.2339
29081TIP3    H288126   2.515   2.575   7.482  1.3310 -0.0327  1.5603
29082TIP3   OH288127  10.838  10.399   8.956  0.1686  0.0129  0.2241
29082TIP3    H188128  10.827  10.304   8.965 -0.2268  0.0363  0.0151
29082TIP3    H288129  10.929  10.415   8.980  0.9701 -0.7201 -1.9915
29083TIP3   OH288130   0.663  10.331   1.316  0.1307 -0.6866 -0.0828
29083TIP3    H188131   0.682  10.421   1.345 -0.6418  0.0868 -1.8351
29083TIP3    H288132   0.747  10.286   1.322  0.1079 -0.5188  2.9363
29084TIP3   OH288133   3.089   8.282   6.489 -0.2517  0.3347 -0.3974
29084TIP3    H188134   3.126   8.306   6.574 -0.9883  1.0004 -0.2522
29084TIP3    H288135   3.139   8.333   6.426  1.3386 -1.2986 -0.5394
29085TIP3   OH288136  10.305   1.605   9.204 -0.4715 -0.2202 -0.6731
29085TIP3    H188137  10.246   1.680   9.208  1.4867  1.3446  1.1781
29085TIP3    H288138  10.311   1.584   9.111 -1.8359  1.2966 -1.1457
29086TIP3   OH288139   9.633   9.242   2.049 -0.0245  0.6125  0.6484
29086TIP3    H188140   9.703   9.275   2.106 -0.6906  0.9822  1.2630
29086TIP3    H288141   9.625   9.149   2.072  0.3353  0.5420  0.4966
29087TIP3   OH288142  10.273   4.919   3.947 -0.5350 -0.0400  0.4840
29087TIP3    H188143  10.313   4.923   3.860 -0.5808 -1.1236  0.3978
29087TIP3    H288144  10.182   4.945   3.933 -0.2242  1.0633  0.4406
29088TIP3   OH288145   4.723   8.922   1.201  0.3164 -0.1202 -0.3723
29088TIP3    H188146   4.704   8.877   1.119 -2.3531  0.2085 -0.0162
29088TIP3    H288147   4.810   8.890   1.226  0.6703 -1.1723 -2.6606
29089TIP3   OH288148  10.440   4.875   0.316  0.2654 -0.1313 -0.1919
29089TIP3    H188149  10.508   4.817   0.351 -0.1258 -0.8038 -0.5040
29089TIP3    H288150  10.411   4.831   0.235 -0.9908 -0.2157  0.2793
29090TIP3   OH288151   4.646  10.673   4.237 -0.6296  0.0747 -0.0150
29090TIP3    H188152   4.703  10.599   4.214 -0.7454 -0.1589  0.4284
29090TIP3    H288153   4.631  10.719   4.155 -1.2444 -0.8865 -0.4544
29091TIP3   OH288154   7.788   2.661   3.664  0.5067 -0.0972  0.0388
29091TIP3    H188155   7.878   2.692   3.678 -0.0152  1.6864 -0.3059
29091TIP3    H288156   7.779   2.588   3.724  1.9819  0.1149  0.5723
29092TIP3   OH288157   0.106   3.793   8.057  0.1604 -0.3767  1.3431
29092TIP3    H188158   0.126   3.704   8.030 -0.8269 -0.2472  0.0934
29092TIP3    H288159   0.103   3.843   7.976 -1.3376  0.3529  1.8063
29093TIP3   OH288160   5.235   8.473   3.232  0.5840  0.0643 -0.1827
29093TIP3    H188161   5.162   8.509   3.181  1.1498  1.7537  0.1229
29093TIP3    H288162   5.194   8.412   3.292 -0.2102 -1.2591 -1.9896
29094TIP3   OH288163   7.964   1.430   9.534  0.3833  0.1567  0.0245
29094TIP3    H188164   7.909   1.351   9.535  0.4832  0.0077 -2.0387
29094TIP3    H288165   8.051   1.399   9.561  0.2643 -0.3252 -0.1331
29095TIP3   OH288166   3.392   4.948   7.372 -0.7059 -0.5540  0.0746
29095TIP3    H188167   3.370   4.856   7.381 -0.3235 -0.5990  0.6296
29095TIP3    H288168   3.479   4.956   7.413 -0.6723  0.0211 -0.0978
29096TIP3   OH288169   1.702   2.155   4.147 -0.1238  0.0011  1.0560
29096TIP3    H188170   1.615   2.119   4.130 -0.3663  1.1913 -0.4847
29096TIP3    H288171   1.762   2.092   4.106 -0.4840  0.7811 -0.7527
29097TIP3   OH288172   7.658   9.515   5.873  0.1866  0.1636 -0.0146
29097TIP3    H188173   7.632   9.553   5.957 -0.0498 -2.3055  1.0958
29097TIP3    H288174   7.749   9.489   5.886 -0.1567 -1.1570 -0.1664
29098TIP3   OH288175   7.411  10.819   9.002  0.3055  0.1610 -0.1758
29098TIP3    H188176   7.341  10.757   9.025  0.3282  0.3738  0.4843
29098TIP3    H288177   7.365  10.898   8.976  0.2884  0.0446 -0.5086
29099TIP3   OH288178   6.182   9.852   6.516  0.3400  0.1639 -0.4214
29099TIP3    H188179   6.220   9.906   6.584  2.0193  0.4081 -1.5078
29099TIP3    H288180   6.189   9.904   6.436  0.7712 -1.0947 -1.2431
29100TIP3   OH288181   5.965  10.908   7.696 -0.1568  0.6043 -0.1179
29100TIP3    H188182   6.008  10.953   7.623  0.2035 -0.0091 -0.2929
29100TIP3    H288183   5.913  10.839   7.655  0.8538 -0.4014  0.2465
29101TIP3   OH288184   8.398   9.538   8.235 -0.2948  0.6552  0.3653
29101TIP3    H188185   8.347   9.485   8.296  0.3493  0.8204  1.0533
29101TIP3    H288186   8.432   9.475   8.171  1.3336  0.0452  1.7651
29102TIP3   OH288187   8.880   6.047   3.178  0.3430  0.0578  0.5954
29102TIP3    H188188   8.906   5.958   3.200  0.6687 -0.1391 -0.5173
29102TIP3    H288189   8.957   6.100   3.199  0.9262 -0.2310 -0.6652
29103TIP3   OH288190  10.605   0.481   8.446 -0.1931 -0.1529 -0.4612
29103TIP3    H188191  10.540   0.466   8.377 -0.5332 -0.7769 -0.0181
29103TIP3    H288192  10.590   0.410   8.508  1.8099 -1.1251 -1.0055
29104TIP3   OH288193   0.829   8.581   0.665 -0.1735  0.1233  0.2754
29104TIP3    H188194   0.906   8.589   0.720  0.8382  1.3114 -1.2354
29104TIP3    H288195   0.863   8.581   0.576 -1.9226  0.8249 -0.4336
29105TIP3   OH288196   8.766   0.815   9.189  0.5735  0.4579  0.4125
29105TIP3    H188197   8.800   0.757   9.121 -0.8902  3.2975 -3.0565
29105TIP3    H288198   8.711   0.759   9.243  0.4492 -1.6947 -1.7646
29106TIP3   OH288199   2.284   7.358   7.706 -0.4677  0.4756 -0.5050
29106TIP3    H188200   2.323   7.397   7.784 -0.2015  1.5220 -1.1236
29106TIP3    H288201   2.329   7.274   7.695  1.0352  1.2734 -0.7068
29107TIP3   OH288202   3.540   7.387   4.847 -0.1500 -0.2891  0.4256
29107TIP3    H188203   3.594   7.466   4.844 -2.5202  1.4173 -0.4631
29107TIP3    H288204   3.603   7.316   4.859  2.0417  1.7586  2.1138
29108TIP3   OH288205   6.939   1.668   5.173 -0.1762  0.6181 -0.0912
29108TIP3    H188206   6.869   1.719   5.214 -1.3180 -1.5960  0.8631
29108TIP3    H288207   6.946   1.589   5.227  0.9200 -0.6560 -1.9875
29109TIP3   OH288208   0.219   8.131   5.756  0.4356 -0.1826  0.2521
29109TIP3    H188209   0.246   8.191   5.825 -0.2064  1.8244 -1.1413
29109TIP3    H288210   0.195   8.051   5.802  0.2115  1.0058  2.3372
29110TIP3   OH288211   9.800   6.757   8.366  0.1738  0.0371 -0.1530
29110TIP3    H188212   9.741   6.833   8.367  0.6116  0.3891  1.8041
29110TIP3    H288213   9.746   6.686   8.330 -1.2690  0.4886  1.0018
29111TIP3   OH288214   5.153   1.103   2.759 -0.1557 -0.7424  0.0195
29111TIP3    H188215   5.143   1.094   2.854  0.8351  1.2542  0.3717
29111TIP3    H288216   5.211   1.178   2.748  1.3075 -2.0711 -2.1512
29112TIP3   OH288217  10.135  10.050   9.215  0.1449  0.2725 -0.0631
29112TIP3    H188218  10.136   9.959   9.244 -0.2286 -0.2863 -1.7468
29112TIP3    H288219  10.225  10.067   9.187 -0.7217 -1.2067 -4.4163
29113TIP3   OH288220   0.384   2.659   2.909 -0.5380 -0.4387 -0.0096
29113TIP3    H188221   0.347   2.571   2.908  1.5181 -1.3499  0.2468
29113TIP3    H288222   0.308   2.716   2.897 -1.9016 -2.2275 -0.4063
29114TIP3   OH288223   5.889   3.039   5.010 -0.0984 -0.0799 -0.3457
29114TIP3    H188224   5.921   2.982   4.940 -1.3828 -0.0637 -0.9761
29114TIP3    H288225   5.794   3.036   5.001 -0.2440  0.6488  0.8358
29115TIP3   OH288226  10.780   5.200   1.296 -0.2499  0.6174 -0.5187
29115TIP3    H188227  10.780   5.174   1.388 -3.2050 -1.1873 -0.8873
29115TIP3    H288228  10.759   5.293   1.297  4.0783  1.8302  0.6250
29116TIP3   OH288229   9.812   2.618   4.874  0.7960 -0.0025 -0.2500
29116TIP3    H188230   9.850   2.679   4.937  0.4150 -0.4885  0.4571
29116TIP3    H288231   9.791   2.540   4.925 -1.8080  0.4890 -0.4429
29117TIP3   OH288232   6.381   0.200   8.661  0.2165  0.4772 -0.2146
29117TIP3    H188233   6.388   0.291   8.691 -1.4525  0.7086 -0.3855
29117TIP3    H288234   6.451   0.154   8.705  0.7314  1.7411  0.3353
29118TIP3   OH288235   4.807   8.244   1.334  0.5551 -0.1734  0.1783
29118TIP3    H188236   4.778   8.199   1.414  0.6191 -0.9363 -0.2151
29118TIP3    H288237   4.890   8.201   1.312  0.0878 -0.5969 -0.7909
29119TIP3   OH288238   8.574   9.553   0.299 -0.0155 -0.2850 -0.3198
29119TIP3    H188239   8.666   9.579   0.302 -0.2262  0.3891  0.8689
29119TIP3    H288240   8.525   9.635   0.309 -0.7012 -0.8828  1.8543
29120TIP3   OH288241   6.993   2.043   3.212  0.1200  0.2794  0.1605
29120TIP3    H188242   7.041   2.074   3.289  0.0644 -0.4132  0.4867
29120TIP3    H288243   6.931   1.979   3.247 -1.6502  1.7770 -0.1357
29121TIP3   OH288244   7.150  10.403  10.831  0.6048  0.1870  0.0165
29121TIP3    H188245   7.197  10.324  10.856  0.0564 -0.6736 -1.5175
29121TIP3    H288246   7.196  10.435  10.754  2.4670  2.9631  2.0665
29122TIP3   OH288247   2.429   6.632   8.844  0.6991  0.3826 -0.1894
29122TIP3    H188248   2.386   6.701   8.894  0.9562  1.3561 -1.2542
29122TIP3    H288249   2.508   6.673   8.809  0.9787 -0.5208 -0.6536
29123TIP3   OH288250   6.080   1.568   5.571  0.2773 -0.0775 -0.1834
29123TIP3    H188251   6.052   1.586   5.661  0.4714 -1.6109  0.2026
29123TIP3    H288252   6.169   1.533   5.580  1.7781  3.0009 -1.2578
29124TIP3   OH288253   6.135   9.835   9.754 -0.5707 -0.6738 -0.0856
29124TIP3    H188254   6.091   9.871   9.831  0.6286 -0.0762  0.3552
29124TIP3    H288255   6.192   9.906   9.724  0.3733 -1.5222 -0.3823
29125TIP3   OH288256   1.441   1.580   1.617 -0.1212  0.0051  0.4967
29125TIP3    H188257   1.459   1.601   1.526  0.0248 -2.3194 -0.0579
29125TIP3    H288258   1.492   1.645   1.667  1.7948 -0.2150 -1.0600
29126TIP3   OH288259   4.018   6.395   1.946 -0.0388 -0.2629  0.0189
29126TIP3    H188260   4.037   6.488   1.955 -0.6189 -0.0333 -0.9407
29126TIP3    H288261   4.100   6.355   1.918  0.1827 -0.0264  0.3340
29127TIP3   OH288262   4.166   6.321   1.362  0.3983  0.1636 -0.0605
29127TIP3    H188263   4.137   6.294   1.449  1.6333  0.3533  0.4254
29127TIP3    H288264   4.112   6.397   1.341 -0.2797 -0.2146  0.3027
29128TIP3   OH288265   2.812   7.882   8.846  0.1957 -0.1174 -0.3718
29128TIP3    H188266   2.740   7.930   8.888  0.2868  0.5157 -0.9104
29128TIP3    H288267   2.778   7.794   8.833 -0.1055 -0.1119  0.3306
29129TIP3   OH288268   5.446   1.238   6.447  0.2041 -0.3114  0.4230
29129TIP3    H188269   5.484   1.326   6.457 -2.3343  1.1972 -1.7859
29129TIP3    H288270   5.363   1.243   6.495 -0.4940 -1.0932 -0.6700
29130TIP3   OH288271   4.981   3.855   7.337 -0.6920  0.1950 -0.0907
29130TIP3    H188272   4.926   3.841   7.414 -1.2807 -0.7554 -0.6697
29130TIP3    H288273   5.061   3.895   7.372 -0.8264 -0.4921  1.0579
29131TIP3   OH288274   8.607   6.681   3.884 -0.1241 -0.8266 -0.0025
29131TIP3    H188275   8.564   6.625   3.949 -1.6801  0.2509 -0.0395
29131TIP3    H288276   8.616   6.626   3.807 -2.0335 -0.9647 -0.1871
29132TIP3   OH288277  10.294   5.317   0.060 -0.1565  0.2424 -0.8019
29132TIP3    H188278  10.246   5.334  -0.021  1.1603 -0.1153 -1.6858
29132TIP3    H288279  10.258   5.381   0.122 -2.3202 -0.5428 -1.1538
29133TIP3   OH288280   2.203   5.149   1.950  0.1586 -0.1770  0.3886
29133TIP3    H188281   2.207   5.137   2.045 -0.2466 -1.4062  0.2741
29133TIP3    H288282   2.208   5.243   1.938 -1.1962  0.1175  1.7166
29134TIP3   OH288283   0.913   5.505   0.612  0.0986  0.2783 -0.1037
29134TIP3    H188284   0.928   5.572   0.679  0.3502 -0.0925  0.2187
29134TIP3    H288285   0.821   5.517   0.586 -0.1174  0.1810  0.5908
29135TIP3   OH288286   0.588   4.194   0.003 -0.4623  0.0008 -0.7513
29135TIP3    H188287   0.571   4.236  -0.081 -0.9651  0.7997 -0.2554
29135TIP3    H288288   0.620   4.264   0.059  0.1337 -0.5799 -0.3449
29136TIP3   OH288289  10.650   5.623   9.489 -0.4193 -0.7245  0.0698
29136TIP3    H188290  10.628   5.532   9.509 -0.6726 -0.2376  2.1902
29136TIP3    H288291  10.595   5.675   9.547 -1.8703  0.9248 -2.5736
29137TIP3   OH288292   1.394   7.619   8.762 -0.3720  0.0828 -0.5284
29137TIP3    H188293   1.365   7.532   8.734  2.1334 -0.8227 -0.5195
29137TIP3    H288294   1.359   7.628   8.850  0.9087 -1.7964  0.2419
29138TIP3   OH288295   0.173   5.730   6.031 -0.3128  0.3123  0.3038
29138TIP3    H188296   0.237   5.770   6.089  0.1985  0.7065 -0.5127
29138TIP3    H288297   0.122   5.672   6.088  0.7079  0.0496  0.9831
29139TIP3   OH288298   4.260   1.569   6.290 -0.0430  0.2959 -0.1759
29139TIP3    H188299   4.185   1.510   6.276  0.2716 -0.2539  0.4137
29139TIP3    H288300   4.321   1.546   6.220 -0.1336  0.2635 -0.2450
29140TIP3   OH288301   3.762   4.158   6.239  0.0940  0.3922  1.0110
29140TIP3    H188302   3.671   4.172   6.214  0.0132 -0.7960  0.5572
29140TIP3    H288303   3.812   4.213   6.179 -0.2078 -0.9627 -0.5768
29141TIP3   OH288304   4.995   2.891   5.714  0.1865  0.7364  0.1984
29141TIP3    H188305   4.922   2.938   5.674 -0.6815 -0.9084 -0.2132
29141TIP3    H288306   4.975   2.892   5.808  1.3646  3.1233  0.5084
29142TIP3   OH288307   1.237   5.458   6.168  0.1107  0.1885  0.5430
29142TIP3    H188308   1.271   5.409   6.243 -0.3365 -1.6351 -0.3935
29142TIP3    H288309   1.152   5.418   6.149  2.0574 -2.6453 -3.6904
29143TIP3   OH288310   1.735   8.244   2.838 -0.2008 -0.4373 -0.3720
29143TIP3    H188311   1.793   8.293   2.779  0.6243 -0.6819  0.2087
29143TIP3    H288312   1.675   8.197   2.779 -0.4810  0.6180 -0.9566
29144TIP3   OH288313   7.560   5.588   2.810  0.2762 -0.2613 -0.1744
29144TIP3    H188314   7.621   5.562   2.879 -0.3536 -0.7769  0.1979
29144TIP3    H288315   7.487   5.630   2.857  0.7645  1.2261 -0.6769
29145TIP3   OH288316  10.804   6.766   8.957  0.0368 -0.2057 -0.0693
29145TIP3    H188317  10.874   6.804   9.011  0.8729  0.0735 -1.3101
29145TIP3    H288318  10.728   6.821   8.975 -0.7347 -2.1499  3.4285
29146TIP3   OH288319  10.599  10.228   5.780 -0.1789 -0.4921 -0.8212
29146TIP3    H188320  10.673  10.236   5.720  1.0179  0.4072  0.7072
29146TIP3    H288321  10.523  10.218   5.723  1.0421 -0.8767 -2.4442
29147TIP3   OH288322  10.623   3.421   7.531 -0.8418 -0.3612 -0.2129
29147TIP3    H188323  10.563   3.386   7.465 -0.5765 -1.1301 -0.0662
29147TIP3    H288324  10.710   3.398   7.499 -0.7694 -2.3232  1.2202
29148TIP3   OH288325   0.590   3.870   1.500 -0.4734 -0.2851  0.2606
29148TIP3    H188326   0.528   3.863   1.573 -1.0984  3.1373  0.2415
29148TIP3    H288327   0.539   3.908   1.429  0.7256 -1.2651 -1.1895
29149TIP3   OH288328   6.227   3.748   4.472 -0.0817 -0.3208 -0.2350
29149TIP3    H188329   6.283   3.670   4.468  0.6566  0.2218 -1.0762
29149TIP3    H288330   6.156   3.729   4.411  0.1952 -0.2757 -0.5803
29150TIP3   OH288331  10.682   8.708   5.675 -0.1433  0.2377 -0.3601
29150TIP3    H188332  10.730   8.625   5.683 -0.3464  0.0510 -1.0651
29150TIP3    H288333  10.590   8.682   5.667 -0.1425  0.4939 -1.3073
29151TIP3   OH288334   0.400   2.061   4.940 -0.1130 -0.0686  0.7905
29151TIP3    H188335   0.480   2.016   4.913 -1.2485 -0.6800 -1.7981
29151TIP3    H288336   0.431   2.139   4.986  1.9388 -0.8382  0.8220
29152TIP3   OH288337   3.908   9.599   0.151  0.0415  0.3039  0.1076
29152TIP3    H188338   3.822   9.567   0.121 -0.3172  0.2137  1.1834
29152TIP3    H288339   3.920   9.556   0.236 -0.2672  2.6680  1.4233
29153TIP3   OH288340   7.912   4.072   6.221 -0.3930  0.1916  0.4177
29153TIP3    H188341   7.956   4.060   6.137 -0.6255  1.8728  0.0129
29153TIP3    H288342   7.928   3.990   6.268 -0.8808 -1.0775 -1.5118
29154TIP3   OH288343  10.464   4.308   6.681 -0.3248 -0.4197  0.1581
29154TIP3    H188344  10.415   4.309   6.763 -0.0066  0.9238  0.3561
29154TIP3    H288345  10.411   4.255   6.622 -1.3654 -0.0607  0.7561
29155TIP3   OH288346   6.174   9.054   0.387  0.3303 -0.1473 -0.1296
29155TIP3    H188347   6.210   9.077   0.472 -0.2733 -0.1899  0.1417
29155TIP3    H288348   6.177   9.135   0.336 -2.8388  0.9624  1.1759
29156TIP3   OH288349   7.766   6.386   1.294  1.3975  0.2039 -0.4435
29156TIP3    H188350   7.764   6.405   1.201  0.4479  1.8033 -0.1413
29156TIP3    H288351   7.681   6.346   1.312  1.1785  0.8084 -0.1058
29157TIP3   OH288352   3.261   2.875   9.061  0.7449  0.4394  0.6719
29157TIP3    H188353   3.258   2.799   9.118  1.7647 -1.0620 -1.1420
29157TIP3    H288354   3.169   2.893   9.039  0.3754  0.7993  2.3869
29158TIP3   OH288355   0.074   4.074   9.679 -0.4158 -0.3712 -0.0080
29158TIP3    H188356   0.092   4.062   9.773 -2.0286 -2.6022  0.1085
29158TIP3    H288357   0.102   3.991   9.639 -0.8400  0.1021 -1.3243
29159TIP3   OH288358  10.502   6.257   5.608 -0.0929 -0.2024  0.1145
29159TIP3    H188359  10.431   6.239   5.545 -0.3929  1.3003 -0.0050
29159TIP3    H288360  10.509   6.176   5.659 -0.8623 -0.9171 -0.8603
29160TIP3   OH288361   2.033   0.518  10.890  0.3116  0.3743  0.0774
29160TIP3    H188362   2.061   0.514  10.799  0.2766  0.8376  0.0423
29160TIP3    H288363   2.100   0.572  10.933 -0.6582  1.7531 -0.0701
29161TIP3   OH288364  10.568   8.590   8.776 -0.0439  0.3490 -0.1454
29161TIP3    H188365  10.503   8.616   8.842  0.3264  0.3818  0.2088
29161TIP3    H288366  10.633   8.659   8.778  1.1465 -0.7574  1.0713
29162TIP3   OH288367  10.741   0.735   9.603 -0.4321 -0.8257 -0.2292
29162TIP3    H188368  10.830   0.723   9.571  0.0499 -0.0851  0.7700
29162TIP3    H288369  10.685   0.701   9.534  0.5224  1.1876 -2.1126
29163TIP3   OH288370   1.037   2.464   1.558 -0.5057 -0.8614  0.2184
29163TIP3    H188371   1.091   2.436   1.631 -1.2407  1.5802  1.8330
29163TIP3    H288372   0.949   2.475   1.595 -1.1159 -0.4195 -1.2579
29164TIP3   OH288373   4.041   7.569   6.636 -0.0478 -0.2281  0.4583
29164TIP3    H188374   4.021   7.532   6.722 -0.7018  1.6400  1.1772
29164TIP3    H288375   4.110   7.633   6.653  1.1110 -1.1030 -0.7395
29165TIP3   OH288376   6.098   2.006   4.204  0.1931  0.2427  0.6489
29165TIP3    H188377   6.188   2.018   4.173 -0.3082  1.4711 -0.4367
29165TIP3    H288378   6.101   2.030   4.297  0.7827  1.3633  0.3568
29166TIP3   OH288379   0.269   3.475   8.387  0.2020 -0.3187 -0.1015
29166TIP3    H188380   0.294   3.389   8.354 -1.4538 -1.5183  1.5674
29166TIP3    H288381   0.256   3.462   8.481 -0.1464  1.7569  0.1825
29167TIP3   OH288382   7.787   5.959   4.177 -0.0002 -0.1709  0.5566
29167TIP3    H188383   7.871   5.913   4.180  0.3256  0.2557 -1.0733
29167TIP3    H288384   7.748   5.934   4.093 -1.6487 -0.5656  1.3854
29168TIP3   OH288385   6.982   3.491   0.862 -0.5334 -0.2374 -0.2239
29168TIP3    H188386   6.912   3.517   0.802 -0.4025 -1.0738 -0.7615
29168TIP3    H288387   6.941   3.429   0.922 -0.8584  1.1881  1.0853
29169TIP3   OH288388   1.185   2.890   4.232  1.2018  0.6428 -0.1804
29169TIP3    H188389   1.126   2.816   4.219  2.0474 -0.0340 -0.1972
29169TIP3    H288390   1.253   2.858   4.291  0.4740  2.0254  1.5298
29170TIP3   OH288391   2.214   6.783   2.113 -0.5999 -0.4250 -0.0639
29170TIP3    H188392   2.202   6.704   2.166 -0.4039 -0.9058 -0.7227
29170TIP3    H288393   2.157   6.770   2.037  0.8594 -0.8285 -1.1356
29171TIP3   OH288394   6.570   5.042   8.590 -0.0075 -0.5397 -0.4147
29171TIP3    H188395   6.541   5.129   8.563 -1.1062 -1.0601 -0.9767
29171TIP3    H288396   6.546   4.985   8.517  1.9761 -1.1127 -0.6720
29172TIP3   OH288397   5.458   7.982   4.918  0.3311  0.0289 -0.1475
29172TIP3    H188398   5.435   8.057   4.972  1.1463 -0.3350  0.7156
29172TIP3    H288399   5.543   7.953   4.950  1.1966  0.2398 -2.0947
29173TIP3   OH288400   7.047   3.131   2.005  0.1946 -0.0901 -0.2406
29173TIP3    H188401   7.056   3.123   2.100  1.2456  0.1643 -0.3058
29173TIP3    H288402   7.084   3.217   1.985 -0.0217 -0.1432 -0.8892
29174TIP3   OH288403   1.516   7.373   9.632 -0.0547 -0.5617 -0.3387
29174TIP3    H188404   1.509   7.324   9.714 -0.1701 -0.0484 -0.0419
29174TIP3    H288405   1.445   7.437   9.635 -0.0935 -0.5699 -0.8622
29175TIP3   OH288406   1.926   9.438   5.655 -0.4465 -0.1119 -0.2991
29175TIP3    H188407   1.855   9.493   5.623 -0.7661 -0.8660 -0.9064
29175TIP3    H288408   1.971   9.493   5.720 -2.2201  0.0027  0.9074
29176TIP3   OH288409   9.512   7.836  10.453  0.1053  0.0422 -0.0223
29176TIP3    H188410   9.588   7.891  10.470  1.1615 -1.5022  0.3627
29176TIP3    H288411   9.445   7.897  10.421  1.6947  1.3299 -1.0088
29177TIP3   OH288412   0.442   5.946   3.194 -0.1551  0.0456  0.1732
29177TIP3    H188413   0.463   5.864   3.150 -1.8285 -0.7445  0.7496
29177TIP3    H288414   0.363   5.977   3.151 -0.9302  0.0644  1.5582
29178TIP3   OH288415   9.506   0.546   0.393 -0.1409 -0.2684 -0.2102
29178TIP3    H188416   9.508   0.585   0.305 -1.5165 -0.1124 -0.1932
29178TIP3    H288417   9.598   0.532   0.415  0.3777  2.0298 -0.6515
29179TIP3   OH288418   7.408   4.935   5.150 -0.1536  0.1271  0.2641
29179TIP3    H188419   7.367   4.991   5.215 -3.4238 -1.1820 -0.4377
29179TIP3    H288420   7.440   4.859   5.200  2.8107  1.7136  0.9885
29180TIP3   OH288421   8.149   7.349   6.723 -0.3861  0.5789  0.5637
29180TIP3    H188422   8.104   7.432   6.741 -1.6143 -0.0265  0.4093
29180TIP3    H288423   8.182   7.360   6.634 -0.7644  0.8174  0.4461
29181TIP3   OH288424   3.526   8.052   9.120 -0.1590  0.2265 -0.2383
29181TIP3    H188425   3.599   8.072   9.178 -0.9391  0.6367  0.6318
29181TIP3    H288426   3.457   8.113   9.147 -1.4472 -1.3575  0.1799
29182TIP3   OH288427   9.459   6.973   6.861  0.2501  0.3352 -0.2408
29182TIP3    H188428   9.373   6.966   6.819  0.1573 -1.4674  0.1675
29182TIP3    H288429   9.442   6.960   6.954  1.0661 -1.0692 -0.2724
29183TIP3   OH288430   2.398   6.670   6.887 -0.1962  0.0995  0.1256
29183TIP3    H188431   2.390   6.764   6.904  0.4409  0.1849 -0.0056
29183TIP3    H288432   2.432   6.665   6.798  2.2724 -0.1645  1.0062
29184TIP3   OH288433   2.235   0.246   5.707  0.0071  0.5822  0.1696
29184TIP3    H188434   2.264   0.161   5.674  0.3473  0.2618  1.2224
29184TIP3    H288435   2.263   0.309   5.641 -0.2405 -0.1131 -0.6227
29185TIP3   OH288436   3.675  10.293   0.514 -0.2620 -0.3569  0.2555
29185TIP3    H188437   3.732  10.221   0.540 -0.2796 -1.3008 -2.0348
29185TIP3    H288438   3.728  10.346   0.455 -0.9336  0.2770  0.2018
29186TIP3   OH288439   7.608   8.183   9.940  0.1943  0.0059  0.9281
29186TIP3    H188440   7.521   8.205   9.974 -0.6119 -1.5054 -0.0440
29186TIP3    H288441   7.592   8.117   9.873  2.1025 -0.2292  0.6372
29187TIP3   OH288442   4.159   9.590   8.029  0.2218  0.1663 -0.2905
29187TIP3    H188443   4.228   9.591   7.963 -0.2916 -1.2372 -0.8871
29187TIP3    H288444   4.095   9.527   7.996 -0.6773  0.3989  0.9287
29188TIP3   OH288445   5.381   5.843   8.901 -0.2486 -0.4596  0.2830
29188TIP3    H188446   5.431   5.791   8.837 -1.7908 -2.2725  0.4798
29188TIP3    H288447   5.290   5.836   8.872 -0.9438 -0.9853  2.4115
29189TIP3   OH288448   9.494   8.222   1.352  0.7536  0.5027  0.6023
29189TIP3    H188449   9.399   8.214   1.353  0.5859  2.0072  2.3842
29189TIP3    H288450   9.525   8.137   1.320 -1.1563 -0.3270  0.8107
29190TIP3   OH288451   4.838   7.399   7.841  0.2286  0.3787  0.3537
29190TIP3    H188452   4.876   7.346   7.771  2.6834  1.2984  0.8990
29190TIP3    H288453   4.885   7.482   7.838 -1.3664  1.4029  1.5025
29191TIP3   OH288454   5.990   3.134   0.872 -0.2157  0.0999  0.2446
29191TIP3    H188455   5.909   3.156   0.826 -0.5112 -1.0157  0.1911
29191TIP3    H288456   6.055   3.194   0.837 -0.7678  0.2547 -0.5462
29192TIP3   OH288457   0.731   1.305   1.313  0.2688 -0.1331 -0.3893
29192TIP3    H188458   0.722   1.399   1.329 -1.9064 -0.3670  0.0887
29192TIP3    H288459   0.643   1.277   1.286  0.6654 -2.1629  0.2452
29193TIP3   OH288460   1.334   3.079   0.720  0.0837  0.1403  0.5195
29193TIP3    H188461   1.277   3.002   0.722  1.4942 -0.9506  0.0006
29193TIP3    H288462   1.371   3.085   0.807  0.8571 -0.4654  0.2392
29194TIP3   OH288463  10.101   3.887   1.711 -0.2360 -0.3386 -0.0793
29194TIP3    H188464  10.181   3.834   1.715 -0.5224 -0.9492 -1.6820
29194TIP3    H288465  10.045   3.851   1.780  1.1471  0.6715  1.6783
29195TIP3   OH288466   4.283   1.469   5.699 -0.5543  1.0685 -0.2152
29195TIP3    H188467   4.235   1.461   5.617  1.1941  0.4556 -1.2253
29195TIP3    H288468   4.236   1.414   5.761 -1.5229  1.0282 -0.9726
29196TIP3   OH288469   5.588   6.472   3.248 -0.3619  0.2969 -0.3370
29196TIP3    H188470   5.546   6.452   3.164  0.7506  2.0369 -1.3708
29196TIP3    H288471   5.521   6.520   3.296 -0.7251  0.0240 -0.5574
29197TIP3   OH288472   7.829   7.108   6.654  0.5896  0.3306 -0.4079
29197TIP3    H188473   7.921   7.118   6.678  0.3332 -0.0689  0.8254
29197TIP3    H288474   7.781   7.137   6.732 -0.3047 -0.2074 -0.7498
29198TIP3   OH288475   1.012   0.676   8.395  0.6404  0.2126  0.0376
29198TIP3    H188476   1.030   0.616   8.467 -0.0281  1.5941  1.4107
29198TIP3    H288477   0.930   0.646   8.357  2.3099 -2.1696 -2.0130
29199TIP3   OH288478   1.932   3.434   4.494  0.4117 -0.3786  0.4184
29199TIP3    H188479   1.987   3.356   4.481 -0.7934 -1.0966 -0.6006
29199TIP3    H288480   1.956   3.492   4.422 -1.0022 -1.2228 -0.7817
29200TIP3   OH288481   5.780   6.088  10.743 -0.1092 -0.1936 -0.5505
29200TIP3    H188482   5.743   6.023  10.682  0.3937 -0.6405 -0.3884
29200TIP3    H288483   5.724   6.083  10.820 -1.6363  1.3920 -1.4793
29201TIP3   OH288484   8.762  10.318   4.661 -0.1697  0.7056 -0.1355
29201TIP3    H188485   8.683  10.297   4.611 -0.7850 -1.5928  1.6325
29201TIP3    H288486   8.834  10.294   4.603 -0.8600 -0.8156 -0.4185
29202TIP3   OH288487   1.500   5.215   9.283  0.3397  0.1736 -0.1992
29202TIP3    H188488   1.473   5.134   9.326  1.7113  0.1533  0.6725
29202TIP3    H288489   1.418   5.263   9.269 -0.1613  0.3665  2.8242
29203TIP3   OH288490   2.902   3.689   3.850  0.1654 -0.2695  0.4816
29203TIP3    H188491   2.873   3.709   3.939 -0.3416  1.7153 -0.0821
29203TIP3    H288492   2.833   3.725   3.794  1.8512  1.1842 -0.7749
29204TIP3   OH288493   3.963   2.480  10.210  0.1349  0.0081  0.4108
29204TIP3    H188494   3.980   2.388  10.231  0.3490  0.0687  0.5104
29204TIP3    H288495   4.018   2.529  10.272 -1.1658  0.2344  1.4121
29205TIP3   OH288496   9.181   1.136   0.440  0.4193 -0.1000  0.4882
29205TIP3    H188497   9.182   1.132   0.345 -0.0823 -1.8951  0.5114
29205TIP3    H288498   9.101   1.090   0.465 -0.0940  1.4169  1.7652
29206TIP3   OH288499   5.906   6.687   0.749 -0.1215  0.1116  0.6261
29206TIP3    H188500   5.855   6.682   0.830  0.4210 -0.2695  0.9480
29206TIP3    H288501   5.873   6.614   0.696  0.0316 -0.0883  0.8036
29207TIP3   OH288502   7.926   0.350   6.030 -0.3035  0.3159  0.0197
29207TIP3    H188503   7.938   0.301   5.949  1.0496  2.0028 -0.8663
29207TIP3    H288504   7.862   0.418   6.008 -0.7806  0.1020  0.7012
29208TIP3   OH288505   2.034   8.478   8.858  1.1590  0.1823 -0.3327
29208TIP3    H188506   2.016   8.572   8.866 -0.5265 -0.1978  0.7129
29208TIP3    H288507   1.949   8.436   8.870  2.0253 -1.5315  0.1177
29209TIP3   OH288508   2.761   0.712   3.629 -0.2200  0.1236  0.3150
29209TIP3    H188509   2.703   0.788   3.627 -1.0511 -0.4357  1.6229
29209TIP3    H288510   2.728   0.659   3.702  1.0642 -0.9138  0.1765
29210TIP3   OH288511   0.061   3.844   4.067 -0.1757 -0.3947 -0.1370
29210TIP3    H188512  -0.005   3.841   3.998  0.0115  0.1051 -0.3382
29210TIP3    H288513   0.042   3.924   4.115  0.3811 -0.1626 -0.2967
29211TIP3   OH288514   5.886   5.502   1.702  0.3039  0.2407 -0.7983
29211TIP3    H188515   5.897   5.444   1.777 -1.4139  1.7317  0.6948
29211TIP3    H288516   5.840   5.449   1.637 -0.7656 -0.2583  0.3322
29212TIP3   OH288517   7.369   1.287   5.420  0.4966 -0.1079  0.6995
29212TIP3    H188518   7.464   1.302   5.424  0.5564 -0.4949  0.8735
29212TIP3    H288519   7.350   1.279   5.327  0.2483  2.2016  0.4948
29213TIP3   OH288520   3.199   1.470   1.054 -0.4364 -0.1204  0.1919
29213TIP3    H188521   3.212   1.533   0.984  1.6255 -1.4834 -0.7689
29213TIP3    H288522   3.187   1.386   1.008 -0.2746 -0.8484  1.4374
29214TIP3   OH288523   4.280   0.123   0.754 -0.7009  0.7537  0.4261
29214TIP3    H188524   4.187   0.119   0.733 -0.3901 -1.6244 -0.7953
29214TIP3    H288525   4.284   0.102   0.847 -1.3326 -0.2727  0.2374
29215TIP3   OH288526   2.792  10.452   4.335  0.1762 -0.0671  0.3781
29215TIP3    H188527   2.780  10.368   4.292 -2.8666  0.6541 -0.4653
29215TIP3    H288528   2.864  10.494   4.289 -1.2899 -0.3964 -2.3972
29216TIP3   OH288529   8.455   4.569   3.053 -0.3578  0.1044  0.3920
29216TIP3    H188530   8.542   4.529   3.049 -0.1568  0.5873 -0.2064
29216TIP3    H288531   8.395   4.495   3.064 -0.0294 -0.4117 -1.1182
29217TIP3   OH288532   9.564   7.477   1.237 -0.1339 -0.0372 -0.4894
29217TIP3    H188533   9.481   7.511   1.205  0.2109  1.7505  0.4016
29217TIP3    H288534   9.574   7.393   1.192 -1.5019  0.5742 -2.0442
29218TIP3   OH288535   5.079   5.346   4.680 -1.0115  0.3413  0.2186
29218TIP3    H188536   5.135   5.277   4.717 -0.3250 -0.8536 -2.7472
29218TIP3    H288537   5.001   5.345   4.734  0.0383 -1.0080  1.8213
29219TIP3   OH288538   5.403   3.927   1.948 -0.3887 -0.0120 -0.3422
29219TIP3    H188539   5.476   3.868   1.928 -0.2887 -0.4346  1.1545
29219TIP3    H288540   5.336   3.870   1.987 -1.1151  0.5335 -0.7665
29220TIP3   OH288541   7.025   7.151   8.656 -0.1079  0.2577 -0.3560
29220TIP3    H188542   7.060   7.198   8.580 -0.6518  1.8261  0.3293
29220TIP3    H288543   6.930   7.156   8.645 -0.2071  1.1284  0.7758
29221TIP3   OH288544   0.110   7.394   1.635  0.3233  0.1419  0.1403
29221TIP3    H188545   0.174   7.331   1.668  0.4503 -0.0299 -0.4149
29221TIP3    H288546   0.139   7.478   1.669  1.2171  0.1588 -0.6152
29222TIP3   OH288547   3.621   5.952   2.945  0.2017  0.4054  0.2954
29222TIP3    H188548   3.659   5.903   2.872  1.8469 -0.0919  1.4428
29222TIP3    H288549   3.589   5.885   3.005 -0.2620  0.8016  0.5012
29223TIP3   OH288550   7.222   7.781   7.841  0.6323 -0.3830 -0.5252
29223TIP3    H188551   7.218   7.867   7.882 -0.1221 -1.1754  1.1445
29223TIP3    H288552   7.287   7.732   7.892  0.2145 -1.1660 -0.7178
29224TIP3   OH288553   2.378   4.956   9.195  0.4177  0.1127 -0.2309
29224TIP3    H188554   2.307   5.006   9.155  1.1681  1.6657  0.2646
29224TIP3    H288555   2.394   5.000   9.279 -0.8298 -2.7806  1.6820
29225TIP3   OH288556   5.927  10.666   0.331  0.1121  0.0629  0.1904
29225TIP3    H188557   5.932  10.630   0.243  2.6392  1.7661 -0.4454
29225TIP3    H288558   5.848  10.720   0.330  1.0604  1.5264 -1.6894
29226TIP3   OH288559  10.108   1.144   0.612 -0.1611  0.0367  0.6563
29226TIP3    H188560  10.022   1.103   0.621 -0.4567  0.4403 -0.2200
29226TIP3    H288561  10.125   1.145   0.518  1.0374 -0.4987  0.8476
29227TIP3   OH288562   5.638  10.467   3.188  0.0257  0.1180 -0.2180
29227TIP3    H188563   5.621  10.382   3.228  0.9269  0.0030 -0.0522
29227TIP3    H288564   5.714  10.501   3.236  2.9686 -1.2041 -3.5337
29228TIP3   OH288565   7.346   2.106   1.231 -0.2367 -0.2007  0.3949
29228TIP3    H188566   7.283   2.083   1.162 -1.3610 -0.0484  1.3495
29228TIP3    H288567   7.427   2.125   1.183 -0.9314 -0.2834 -0.8715
29229TIP3   OH288568   9.226   2.445   9.517 -0.2407  0.5726 -0.1649
29229TIP3    H188569   9.169   2.507   9.562  1.0079  3.4020 -2.2049
29229TIP3    H288570   9.176   2.418   9.440 -0.7142 -0.9607  0.6314
29230TIP3   OH288571   2.008   9.655  10.017  0.2842  0.5220  0.1161
29230TIP3    H188572   1.983   9.600  10.091  1.0145  0.1341  0.0914
29230TIP3    H288573   1.993   9.745  10.047 -0.6493  0.3253  0.2623
29231TIP3   OH288574  10.490   3.110   8.843 -0.0611 -0.1396  0.0323
29231TIP3    H188575  10.536   3.025   8.843  0.2017 -0.0448  1.9475
29231TIP3    H288576  10.482   3.133   8.751  2.7597 -0.7087 -0.4377
29232TIP3   OH288577   1.632   4.800   2.359 -0.1143  0.1113  0.2552
29232TIP3    H188578   1.547   4.845   2.360 -1.2150 -1.6822 -2.1510
29232TIP3    H288579   1.630   4.745   2.437  0.2626  2.3581  1.9485
29233TIP3   OH288580   1.098   4.132   7.414 -0.0345  0.1467  0.1379
29233TIP3    H188581   1.095   4.209   7.469 -0.2586  0.1820  0.0784
29233TIP3    H288582   1.164   4.152   7.348  0.1220  0.1664  0.3025
29234TIP3   OH288583   5.904   0.757   5.454 -0.5826  0.2388  0.1622
29234TIP3    H188584   5.904   0.754   5.358  2.3061 -1.9574  0.1000
29234TIP3    H288585   5.897   0.850   5.475 -1.4363  0.7648 -2.1435
29235TIP3   OH288586   6.166   5.604   3.921 -0.0630 -0.0883 -0.1870
29235TIP3    H188587   6.236   5.611   3.986  0.2033 -1.1705 -0.3476
29235TIP3    H288588   6.118   5.686   3.930  0.9241  0.4628  0.2727
29236TIP3   OH288589   0.293   4.229   9.326  0.2743 -0.6378 -0.5384
29236TIP3    H188590   0.376   4.215   9.371 -0.7668 -0.1436  1.6588
29236TIP3    H288591   0.316   4.277   9.247  1.9410  0.7890  0.7571
29237TIP3   OH288592   7.628   8.695   3.259 -0.2702 -0.0907  0.2199
29237TIP3    H188593   7.667   8.634   3.197 -0.3699  0.8810 -0.8111
29237TIP3    H288594   7.702   8.728   3.310 -0.0239  0.1092 -0.2675
29238TIP3   OH288595   7.583   3.327   5.346 -1.0945  0.0718  0.2719
29238TIP3    H188596   7.549   3.383   5.276  1.9345 -0.4868 -1.8173
29238TIP3    H288597   7.569   3.238   5.315 -0.7901 -0.2262  0.9719
29239TIP3   OH288598   6.672   0.431   5.130  0.2434  0.0228 -0.5938
29239TIP3    H188599   6.666   0.361   5.065  0.3796  0.4808 -1.1186
29239TIP3    H288600   6.690   0.387   5.213  3.1589 -0.4362 -1.3621
29240TIP3   OH288601   9.208   8.079   0.399 -0.4085 -0.5621 -0.2885
29240TIP3    H188602   9.167   7.999   0.431  0.1541 -0.6933  0.1239
29240TIP3    H288603   9.301   8.056   0.388 -0.1468  0.1648  0.2979
29241TIP3   OH288604   7.481   5.793   6.518 -0.3171 -0.3314  0.0044
29241TIP3    H188605   7.539   5.853   6.565  0.2828 -0.6810 -0.2771
29241TIP3    H288606   7.444   5.846   6.447  1.2787 -0.6235 -1.0968
29242TIP3   OH288607   9.799   0.095   0.835 -0.8130  0.0277 -0.2791
29242TIP3    H188608   9.768   0.177   0.798  0.2445  1.2588  1.4212
29242TIP3    H288609   9.727   0.064   0.891 -0.8470  0.3089 -0.1670
29243TIP3   OH288610   9.736   5.125   9.827 -0.0555 -0.1947 -0.4781
29243TIP3    H188611   9.784   5.106   9.746 -1.4519  0.0799 -1.4009
29243TIP3    H288612   9.677   5.197   9.803 -0.9421 -0.5430  0.6197
29244TIP3   OH288613   5.419   9.529   4.073 -0.6412  0.0540 -0.2218
29244TIP3    H188614   5.347   9.476   4.107  0.3209  0.0693  1.9895
29244TIP3    H288615   5.484   9.465   4.046 -0.4178  0.0641  0.2812
29245TIP3   OH288616   5.668   1.414   7.213  0.3942 -0.4288  1.0931
29245TIP3    H188617   5.660   1.345   7.147  1.2532  0.6666 -0.2022
29245TIP3    H288618   5.584   1.459   7.211 -0.2911 -1.5753  2.1698
29246TIP3   OH288619   0.065   1.422  10.280 -0.5454 -0.1628  0.2608
29246TIP3    H188620   0.078   1.509  10.318 -0.0404 -0.3592  0.5452
29246TIP3    H288621  -0.028   1.420  10.255 -0.1357  1.1476 -1.5287
29247TIP3   OH288622   8.941   5.503   8.336 -0.4537 -0.2197  0.4359
29247TIP3    H188623   8.978   5.466   8.416  0.2956  1.4357  0.8972
29247TIP3    H288624   9.008   5.563   8.304 -1.2261  0.0251 -0.7860
29248TIP3   OH288625   2.338  10.739   2.972  0.4954 -0.9736 -0.3271
29248TIP3    H188626   2.257  10.784   2.946  1.0644  1.0469  1.1676
29248TIP3    H288627   2.403  10.809   2.978  1.6953 -2.1668  1.1044
29249TIP3   OH288628  10.654   8.766   8.089  0.0540 -0.0427 -0.9610
29249TIP3    H188629  10.617   8.854   8.098 -0.8410 -0.2622 -2.2041
29249TIP3    H288630  10.703   8.752   8.170 -1.2805  0.8977  0.0508
29250TIP3   OH288631   5.091   8.092   6.867 -0.3752 -0.0184 -0.3902
29250TIP3    H188632   5.099   8.182   6.836  0.5822 -0.1316 -0.4880
29250TIP3    H288633   5.174   8.074   6.911 -0.0153 -1.2707 -1.5047
29251TIP3   OH288634  10.387   7.462  10.168  0.6509 -0.7143 -0.1858
29251TIP3    H188635  10.299   7.443  10.202  0.3811 -1.3990 -1.2254
29251TIP3    H288636  10.444   7.451  10.244 -0.1572 -0.1483  0.5379
29252TIP3   OH288637   0.795   3.557  10.201 -0.1099 -0.5541 -0.3237
29252TIP3    H188638   0.789   3.462  10.195  0.0159 -0.7196  1.5247
29252TIP3    H288639   0.861   3.573  10.269  0.5714  0.8764 -1.2761
29253TIP3   OH288640   5.285   3.300   0.037  0.0365  0.1102 -0.0346
29253TIP3    H188641   5.375   3.313   0.006  0.1597 -1.8940 -0.6829
29253TIP3    H288642   5.255   3.221  -0.009 -1.8141  0.3226  0.7107
29254TIP3   OH288643   7.955   4.296   8.213  0.2307  0.0433  0.0262
29254TIP3    H188644   7.921   4.339   8.134  1.1376  0.9931  0.1301
29254TIP3    H288645   7.979   4.208   8.184  1.0659  0.5571 -0.9092
29255TIP3   OH288646   3.266   2.964   6.107 -0.0815 -0.4629 -0.1166
29255TIP3    H188647   3.335   3.008   6.157 -0.0940  2.0933 -2.1439
29255TIP3    H288648   3.304   2.879   6.083  2.0572  0.5015 -0.4077
29256TIP3   OH288649   9.606   2.405   9.170  0.3216  0.4112  0.2623
29256TIP3    H188650   9.586   2.460   9.095 -0.9646 -0.7814 -0.3310
29256TIP3    H288651   9.580   2.317   9.142  0.5363 -0.1833  1.8362
29257TIP3   OH288652   6.353   0.989   3.201  0.4010 -0.2152 -0.5089
29257TIP3    H188653   6.263   0.989   3.232  0.9085  2.6962  1.3430
29257TIP3    H288654   6.345   0.986   3.105 -1.7923  1.8184 -0.4743
29258TIP3   OH288655  10.582   2.492   3.962 -0.5114  0.0783 -0.2620
29258TIP3    H188656  10.512   2.515   4.024  0.5793  0.8474  0.7238
29258TIP3    H288657  10.646   2.445   4.015  0.5238  0.8961 -0.7433
29259TIP3   OH288658   9.747   5.401   7.989 -0.0593  0.2285 -0.0212
29259TIP3    H188659   9.840   5.407   7.967  0.6320  1.0859  2.7229
29259TIP3    H288660   9.715   5.491   7.984 -0.3777  0.1458  0.4590
29260TIP3   OH288661   2.567   4.271   8.199 -0.4912  0.0399  0.3610
29260TIP3    H188662   2.505   4.234   8.136 -1.5255 -2.6996  2.7420
29260TIP3    H288663   2.512   4.313   8.265  0.2401 -0.7154  1.4980
29261TIP3   OH288664   6.996   1.541   6.407 -0.2904 -0.0542  0.4398
29261TIP3    H188665   6.953   1.615   6.448 -0.8954 -0.5181  0.6578
29261TIP3    H288666   7.083   1.539   6.447 -0.1128  0.7845  0.1210
29262TIP3   OH288667   9.322   8.977   1.170 -0.5251  0.5930 -0.2546
29262TIP3    H188668   9.327   9.031   1.249  3.4888 -0.6276  0.5600
29262TIP3    H288669   9.322   8.887   1.204  0.7324  0.0583 -1.5750
29263TIP3   OH288670  10.177   5.803   7.476 -0.6295  0.1056  0.3274
29263TIP3    H188671  10.260   5.839   7.506  0.5754 -2.2062 -0.0587
29263TIP3    H288672  10.184   5.709   7.490 -2.9989 -0.2185 -0.1872
29264TIP3   OH288673   5.439   4.498   3.849 -0.9734 -0.3005  0.5265
29264TIP3    H188674   5.470   4.518   3.937 -3.0479  0.5193  1.1208
29264TIP3    H288675   5.447   4.403   3.842  0.3979 -0.2535  1.1016
29265TIP3   OH288676   9.470   3.594   3.619  0.0870 -1.0300  0.4765
29265TIP3    H188677   9.381   3.594   3.654  0.0286 -0.4263  0.3400
29265TIP3    H288678   9.489   3.501   3.602 -1.2544 -1.0306 -1.3460
29266TIP3   OH288679   7.037   3.802   0.617  0.8328  0.3272  0.6961
29266TIP3    H188680   7.115   3.760   0.581 -0.5494 -1.8649  0.0678
29266TIP3    H288681   7.069   3.849   0.694  3.0817  1.2140 -0.6692
29267TIP3   OH288682   2.160   3.573   3.264 -0.1260  0.3191  0.4290
29267TIP3    H188683   2.119   3.632   3.201  0.3403 -1.4360 -1.6443
29267TIP3    H288684   2.254   3.589   3.253 -0.0398 -0.0731  0.5924
29268TIP3   OH288685  10.643   6.264   9.554  0.3114 -0.1894 -0.1406
29268TIP3    H188686  10.734   6.233   9.553 -0.4396 -2.5557 -0.6097
29268TIP3    H288687  10.607   6.237   9.470 -1.1301 -0.2717  0.4721
29269TIP3   OH288688   6.540   1.252   9.105 -0.1811 -0.3718 -0.3703
29269TIP3    H188689   6.593   1.231   9.028  0.0199  0.1165 -0.3681
29269TIP3    H288690   6.481   1.322   9.075  0.7760  0.7217  0.2656
29270TIP3   OH288691   6.906   2.701   6.353  0.7287 -0.0163 -0.0546
29270TIP3    H188692   6.866   2.770   6.407 -1.1490 -1.8234  1.0180
29270TIP3    H288693   6.921   2.743   6.268 -3.6965  0.8585 -0.6477
29271TIP3   OH288694   3.305   1.006   3.852  0.5926  0.4523  0.3746
29271TIP3    H188695   3.241   0.983   3.920  0.0812 -1.6870 -0.7559
29271TIP3    H288696   3.304   0.932   3.792  2.1402  1.6170 -1.1787
29272TIP3   OH288697   2.821   6.759   6.364  0.2392 -0.0199  1.1260
29272TIP3    H188698   2.768   6.691   6.321 -0.6443 -0.1146  2.3155
29272TIP3    H288699   2.897   6.769   6.307 -1.5427  0.9204 -1.2855
29273TIP3   OH288700   1.392   8.128  10.184 -0.8519  0.6772 -0.4128
29273TIP3    H188701   1.319   8.090  10.135  0.0199  0.0700 -1.2625
29273TIP3    H288702   1.470   8.106  10.133  0.0742  0.1573  1.1681
29274TIP3   OH288703   2.648   9.411   5.364  0.5813  0.0383  0.3111
29274TIP3    H188704   2.639   9.329   5.315 -0.2106  0.2126  0.1597
29274TIP3    H288705   2.573   9.463   5.338  2.9499  2.3825 -2.5302
29275TIP3   OH288706   5.301   3.052   4.666  0.9097  0.1130  0.0118
29275TIP3    H188707   5.345   3.095   4.739  0.0934 -0.4475  0.8521
29275TIP3    H288708   5.249   3.121   4.625 -1.1276 -0.1598  1.9064
29276TIP3   OH288709   8.047   1.320   4.004  0.3079  0.4093  0.0459
29276TIP3    H188710   7.956   1.292   3.993  0.3421  0.6797 -1.0827
29276TIP3    H288711   8.043   1.390   4.069 -0.0125 -0.9093  1.5105
29277TIP3   OH288712   4.621   0.545   0.966  0.1255  0.2839  0.5306
29277TIP3    H188713   4.641   0.637   0.949  0.4713  0.1078 -0.0262
29277TIP3    H288714   4.647   0.531   1.057  1.4360  0.3654  0.1839
29278TIP3   OH288715   4.331   2.212   8.425  0.1995 -0.4902  0.3080
29278TIP3    H188716   4.387   2.238   8.352 -1.5466  2.1712 -0.2192
29278TIP3    H288717   4.292   2.294   8.456 -1.1938 -1.8676  2.5125
29279TIP3   OH288718   7.023   3.238   4.758 -0.1061  0.1444  0.0441
29279TIP3    H188719   7.012   3.163   4.699 -1.4208 -0.7845  1.4007
29279TIP3    H288720   6.944   3.238   4.812  1.0289  0.9897  1.7874
29280TIP3   OH288721   6.232   6.019   7.524 -0.4201  0.1448  0.0026
29280TIP3    H188722   6.221   6.104   7.567 -1.3706 -0.3622  0.8027
29280TIP3    H288723   6.237   5.956   7.595 -0.8249 -0.5790 -0.5937
29281TIP3   OH288724   2.279   0.128   2.332  0.0611 -0.2172 -0.1363
29281TIP3    H188725   2.214   0.059   2.335  1.1048 -1.2419 -0.4141
29281TIP3    H288726   2.363   0.082   2.333  0.7782  1.0409 -0.3437
29282TIP3   OH288727   9.514   0.837   1.289 -0.2054 -0.1021 -0.3072
29282TIP3    H188728   9.458   0.801   1.358  0.0501  1.5810  0.8464
29282TIP3    H288729   9.593   0.864   1.335  1.6160 -2.3515 -1.8898
29283TIP3   OH288730   1.433   5.607   4.812  0.5528  0.1211 -0.3332
29283TIP3    H188731   1.471   5.589   4.898  1.3517  0.5324 -0.5887
29283TIP3    H288732   1.499   5.578   4.750  1.0242  2.0087 -0.7737
29284TIP3   OH288733   7.587   5.344   0.484 -0.5104  0.2854  0.2632
29284TIP3    H188734   7.548   5.373   0.566 -2.0166  0.2143 -0.4045
29284TIP3    H288735   7.577   5.419   0.425  0.8028  0.4351  0.1950
29285TIP3   OH288736   8.911   8.696   9.003  0.6519  0.9451  0.2355
29285TIP3    H188737   8.818   8.698   9.025  0.6293  0.5239  0.1904
29285TIP3    H288738   8.939   8.787   9.011 -0.0210  1.2778 -0.8731
29286TIP3   OH288739  10.287   2.766   2.640 -0.4847 -0.3594  0.2996
29286TIP3    H188740  10.267   2.758   2.733  1.4610 -0.5054  0.7535
29286TIP3    H288741  10.267   2.857   2.619  0.8682  0.2275  1.3768
29287TIP3   OH288742   7.256   3.465   0.973  0.5137  0.1307  0.3427
29287TIP3    H188743   7.176   3.502   0.935 -0.0923  0.9246  2.2114
29287TIP3    H288744   7.326   3.525   0.946  0.0838  0.7315  0.5287
29288TIP3   OH288745   3.854  10.471   2.475  0.0616  0.0636 -0.3513
29288TIP3    H188746   3.845  10.454   2.569 -0.1910 -2.0671 -0.7080
29288TIP3    H288747   3.920  10.540   2.470  0.4554 -0.1231  1.3770
29289TIP3   OH288748   2.538   9.189   1.929  0.1500  0.0319  0.5549
29289TIP3    H188749   2.597   9.184   2.004  0.2569  0.8243  0.5263
29289TIP3    H288750   2.451   9.194   1.968 -0.0863 -2.7944  0.5981
29290TIP3   OH288751   6.876   0.464  10.070 -0.3435 -0.2270  0.1598
29290TIP3    H188752   6.859   0.483   9.977  1.8346  0.3123 -0.1790
29290TIP3    H288753   6.806   0.510  10.116 -0.0399  1.6421 -1.1135
29291TIP3   OH288754   0.184   2.303  10.419  0.9198  0.7012  0.2406
29291TIP3    H188755   0.223   2.389  10.437 -1.9915  2.3376 -0.6990
29291TIP3    H288756   0.172   2.301  10.324 -0.5149 -0.0494  0.4107
29292TIP3   OH288757   2.724   8.970   4.049  0.0115  0.2337 -0.0328
29292TIP3    H188758   2.787   9.025   4.002  0.7076  0.3223  0.9814
29292TIP3    H288759   2.770   8.888   4.066 -0.6354 -0.2437 -0.5137
29293TIP3   OH288760   8.198   5.248   1.101  0.0883 -0.5077 -0.3612
29293TIP3    H188761   8.218   5.334   1.140 -0.7787 -0.6694  0.4861
29293TIP3    H288762   8.270   5.232   1.041 -0.1237  1.1882 -1.1435
29294TIP3   OH288763   4.365   6.354   6.870  0.1718  0.4164 -0.6507
29294TIP3    H188764   4.312   6.351   6.949  1.3798 -0.2595  0.1618
29294TIP3    H288765   4.445   6.306   6.892 -0.0068 -0.9689 -2.6944
29295TIP3   OH288766   3.199   7.716   2.735  0.5592 -0.1555 -0.6808
29295TIP3    H188767   3.219   7.625   2.712  2.9735  0.2537 -0.3913
29295TIP3    H288768   3.266   7.768   2.690  0.1159  1.3659  0.3446
29296TIP3   OH288769   5.692   2.501   1.434 -0.4485 -0.4785 -0.2630
29296TIP3    H188770   5.668   2.541   1.350 -0.3530  0.5436  0.1765
29296TIP3    H288771   5.639   2.422   1.440 -1.7139  0.3214 -0.5303
29297TIP3   OH288772   4.012   5.381   2.544 -0.2445  0.0876  0.5671
29297TIP3    H188773   3.989   5.402   2.453 -0.1266 -0.0589  0.5010
29297TIP3    H288774   3.930   5.350   2.583 -0.0769 -0.8579  0.2072
29298TIP3   OH288775   3.509   4.739   4.417  0.4075 -0.2691  0.8728
29298TIP3    H188776   3.450   4.782   4.479 -1.4746  0.0170 -0.9925
29298TIP3    H288777   3.560   4.810   4.378  0.1756 -0.2118  0.6737
29299TIP3   OH288778   0.758   0.461   7.842  0.0165  0.2579  0.0214
29299TIP3    H188779   0.696   0.449   7.914  1.6070  1.6909  1.7295
29299TIP3    H288780   0.757   0.376   7.796 -2.0434 -0.2463  0.8699
29300TIP3   OH288781   0.377   6.115   5.154 -0.3703 -0.3855  0.9655
29300TIP3    H188782   0.404   6.039   5.206 -1.3715 -0.8905  0.7647
29300TIP3    H288783   0.405   6.190   5.206 -0.5589 -0.8823  1.8056
29301TIP3   OH288784   5.038  10.267   7.966 -0.1809  0.2395 -0.0420
29301TIP3    H188785   4.992  10.260   7.882  0.2168 -1.0878 -0.1751
29301TIP3    H288786   4.972  10.297   8.028 -0.7556  0.1816 -0.6192
29302TIP3   OH288787  10.120   0.493   9.302  0.4089 -0.2941 -0.0835
29302TIP3    H188788  10.122   0.587   9.322 -1.0867  0.3142 -2.4143
29302TIP3    H288789  10.158   0.486   9.215 -1.1062 -1.6217 -0.6801
29303TIP3   OH288790   5.120   0.258   4.783  0.3449  0.3004  0.0260
29303TIP3    H188791   5.138   0.241   4.875 -1.0679 -1.6931 -0.0117
29303TIP3    H288792   5.126   0.353   4.775 -0.9037  0.6646  2.5038
29304TIP3   OH288793   3.394   3.313   4.023  0.2684 -0.0185 -0.3102
29304TIP3    H188794   3.410   3.400   4.059 -2.0194  0.2572  0.2033
29304TIP3    H288795   3.302   3.315   3.994  0.3553 -2.0398 -0.9111
29305TIP3   OH288796   6.111  10.724   8.120 -0.5853 -0.1655 -0.5236
29305TIP3    H188797   6.127  10.796   8.059 -0.4330  1.2232  1.0818
29305TIP3    H288798   6.061  10.660   8.069 -2.9948  2.1876 -1.3543
29306TIP3   OH288799   8.100   2.669   8.285  0.3755  0.0100 -0.5690
29306TIP3    H188800   8.116   2.755   8.246 -0.2935  0.0319 -0.8136
29306TIP3    H288801   8.043   2.688   8.360 -0.9793 -0.3550 -1.4740
29307TIP3   OH288802   4.748   9.937   9.780 -0.5454  0.4610  0.2776
29307TIP3    H188803   4.681   9.942   9.712 -0.7911  0.7878  0.5429
29307TIP3    H288804   4.700   9.921   9.861 -0.1644 -1.2289  0.2093
29308TIP3   OH288805   6.309   5.002   0.537 -0.8112 -0.0207 -0.3410
29308TIP3    H188806   6.372   4.983   0.606  0.4194 -0.8886 -1.6348
29308TIP3    H288807   6.312   5.097   0.526  0.7102 -0.0838 -0.7246
29309TIP3   OH288808   4.195   0.177   2.207  0.9036  0.3949 -0.2066
29309TIP3    H188809   4.109   0.214   2.188 -0.4228 -0.0762  3.7973
29309TIP3    H288810   4.257   0.241   2.172 -1.1525  2.2983 -0.6169
29310TIP3   OH288811   0.534   3.414   9.342 -0.0021  0.6251 -0.6259
29310TIP3    H188812   0.453   3.366   9.357 -1.5801  2.6749 -1.9424
29310TIP3    H288813   0.538   3.477   9.414  0.1583  0.8614 -0.8412
29311TIP3   OH288814   6.445   5.022   0.800 -0.3929 -0.4352  0.1828
29311TIP3    H188815   6.401   4.940   0.824 -1.2703 -0.3384 -0.9999
29311TIP3    H288816   6.532   5.014   0.839 -0.7707 -1.5161  0.8816
29312TIP3   OH288817   8.240  10.842   0.380  0.0908  0.2237 -0.1093
29312TIP3    H188818   8.234  10.938   0.378  0.1242  0.2272 -2.4030
29312TIP3    H288819   8.191  10.817   0.458 -1.7603  2.0034 -0.6099
29313TIP3   OH288820   9.975   3.819   4.650 -0.5053  0.2403  0.0236
29313TIP3    H188821   9.913   3.891   4.662 -0.5716  0.3422 -0.8438
29313TIP3    H288822   9.942   3.772   4.573 -0.3457 -0.5960  0.4573
29314TIP3   OH288823   5.807   0.276   3.364 -0.3752 -0.1047  0.1412
29314TIP3    H188824   5.780   0.211   3.299 -0.7694  0.7109 -0.5391
29314TIP3    H288825   5.732   0.335   3.371  0.0903  0.4556  0.5122
29315TIP3   OH288826  10.551   1.875   1.571  0.2140  0.2854  0.4268
29315TIP3    H188827  10.567   1.800   1.514  0.5726 -0.5069  1.5371
29315TIP3    H288828  10.476   1.849   1.624  0.2536  0.7726  0.7335
29316TIP3   OH288829   1.321   3.338   1.643  0.1758 -0.0612  0.0022
29316TIP3    H188830   1.254   3.270   1.647 -0.8956  1.0047  1.5298
29316TIP3    H288831   1.298   3.398   1.714  1.5665  1.4452 -0.7505
29317TIP3   OH288832   3.282   3.040   2.831  0.3311  0.2950  0.3297
29317TIP3    H188833   3.277   3.028   2.736  1.7320  1.5837  0.0611
29317TIP3    H288834   3.375   3.038   2.851  0.1271  1.1848  1.5021
29318TIP3   OH288835   6.748   4.899   1.782  0.2298  0.9850 -0.0532
29318TIP3    H188836   6.825   4.952   1.762  1.8298  0.1768  3.1665
29318TIP3    H288837   6.699   4.952   1.845  0.3466 -0.1061  0.9985
29319TIP3   OH288838   2.774   3.850   7.304  0.3852 -0.3585  0.8346
29319TIP3    H188839   2.693   3.895   7.279  1.0205 -0.3419 -1.3282
29319TIP3    H288840   2.778   3.861   7.399 -0.6446  2.1871  0.6707
29320TIP3   OH288841   3.868   3.355   7.645  0.3302  0.5645  0.5347
29320TIP3    H188842   3.827   3.383   7.727  0.7940  1.2795  0.5336
29320TIP3    H288843   3.845   3.263   7.637 -2.7742  1.3122 -0.3685
29321TIP3   OH288844   9.480   5.781   9.850 -0.2027 -0.1989  0.4095
29321TIP3    H188845   9.488   5.856   9.791 -0.5927 -0.9249 -0.5891
29321TIP3    H288846   9.570   5.757   9.870 -0.0605  1.1909  1.6244
29322TIP3   OH288847   1.611   2.069   3.389 -0.0533 -0.2841 -0.0329
29322TIP3    H188848   1.538   2.019   3.425  2.0613 -3.1922  0.5696
29322TIP3    H288849   1.678   2.004   3.369  2.1148  2.1298 -1.3422
29323TIP3   OH288850   5.632  10.252   5.433 -0.2929  0.0299 -0.9671
29323TIP3    H188851   5.725  10.262   5.454 -0.3834  0.5552 -0.8106
29323TIP3    H288852   5.606  10.337   5.398 -1.1281  0.4246  0.5668
29324TIP3   OH288853   2.668   0.905   4.665  0.1734 -0.0567  0.0062
29324TIP3    H188854   2.680   0.992   4.702 -0.5656 -0.4245  1.1929
29324TIP3    H288855   2.716   0.847   4.724  1.8519 -0.3472 -1.5538
29325TIP3   OH288856   0.812   9.877   4.543 -0.0816  0.4097  0.5001
29325TIP3    H188857   0.812   9.972   4.547  1.0707  0.3987  1.8765
29325TIP3    H288858   0.880   9.851   4.606 -0.1379 -1.3058 -0.0966
29326TIP3   OH288859   7.787   5.762   5.983  0.5421 -0.2811  0.3831
29326TIP3    H188860   7.874   5.748   6.021  0.7276 -1.5606 -0.4565
29326TIP3    H288861   7.735   5.687   6.014  0.8800 -1.7432 -2.3233
29327TIP3   OH288862   1.718   7.756   8.971 -0.0248  0.0559  0.3494
29327TIP3    H188863   1.675   7.828   9.018  1.6554 -1.1109  4.0589
29327TIP3    H288864   1.797   7.795   8.934 -1.2292  0.9276 -1.5002
29328TIP3   OH288865  10.831   5.345   0.981  0.6691 -0.0795 -0.5176
29328TIP3    H188866  10.816   5.359   0.887  0.8298 -0.1004 -0.5467
29328TIP3    H288867  10.743   5.334   1.017  0.6282 -0.5468 -0.7423
29329TIP3   OH288868   0.197   7.731   5.201  0.4339 -0.1587  0.0213
29329TIP3    H188869   0.257   7.780   5.258  3.6589 -3.3107 -0.3097
29329TIP3    H288870   0.201   7.777   5.117  2.2205 -0.0380  0.1189
29330TIP3   OH288871   0.797   3.990   2.739 -0.4235 -0.6063 -0.0673
29330TIP3    H188872   0.839   3.918   2.788  0.1291  0.3752  0.9502
29330TIP3    H288873   0.707   3.989   2.770  0.1749  0.6965  1.8710
29331TIP3   OH288874   2.713   3.870   6.170  0.1791  0.1049  0.2432
29331TIP3    H188875   2.620   3.865   6.188  0.1134 -4.2103 -0.3044
29331TIP3    H288876   2.755   3.838   6.250  1.1006  0.5340 -0.0524
29332TIP3   OH288877   0.993   6.851   2.495 -0.1750  0.2042  0.0682
29332TIP3    H188878   1.028   6.940   2.499  0.3054  0.0519 -0.5711
29332TIP3    H288879   0.965   6.832   2.585 -0.6468  1.1358  0.1271
29333TIP3   OH288880   0.214   0.256   3.814  0.4314  0.0914 -0.6456
29333TIP3    H188881   0.256   0.206   3.744  0.9941 -2.6797  1.4762
29333TIP3    H288882   0.287   0.297   3.860  0.1875  0.7353 -0.8270
29334TIP3   OH288883   1.343   9.524   4.543 -0.1232 -0.3363 -0.2763
29334TIP3    H188884   1.386   9.438   4.550 -1.8254 -1.2654 -0.6308
29334TIP3    H288885   1.413   9.587   4.558  1.0388 -1.7975  0.7237
29335TIP3   OH288886   5.481   1.636   5.186  0.1548  0.4577 -0.3296
29335TIP3    H188887   5.409   1.580   5.216  1.3340 -0.6907  0.4956
29335TIP3    H288888   5.449   1.725   5.197 -0.1768  0.0684  2.7468
29336TIP3   OH288889  10.833   5.056  10.906 -0.5695 -0.1558 -0.9024
29336TIP3    H188890  10.796   4.971  10.930  1.0693 -1.5124 -2.8306
29336TIP3    H288891  10.874   5.041  10.820  1.0185  2.2230 -0.6570
29337TIP3   OH288892   5.086   5.285   5.080  0.3536 -0.0597 -0.2226
29337TIP3    H188893   5.068   5.380   5.081 -0.2347 -0.1014 -1.9291
29337TIP3    H288894   5.072   5.257   5.170  0.9825  1.5508  0.4211
29338TIP3   OH288895   0.154   2.870   0.576 -0.3937 -0.8376  0.4359
29338TIP3    H188896   0.159   2.844   0.484 -0.1958 -2.2947  0.8365
29338TIP3    H288897   0.245   2.882   0.603 -0.4911  1.6789 -0.0700
29339TIP3   OH288898  10.149  10.470   6.015  0.0883 -0.0353 -0.1188
29339TIP3    H188899  10.195  10.403   6.064 -0.7241 -0.0160  0.7098
29339TIP3    H288900  10.084  10.422   5.963  1.0334 -0.0663 -1.2979
29340TIP3   OH288901   1.213   2.474   9.342  0.0705  0.1204  0.3354
29340TIP3    H188902   1.263   2.392   9.345  0.9440  0.6102 -0.1081
29340TIP3    H288903   1.144   2.463   9.407  1.2902 -0.2621  1.6396
29341TIP3   OH288904  10.804   5.316   6.925 -0.1388 -0.1847 -0.3960
29341TIP3    H188905  10.797   5.338   7.018  0.7955  1.2999 -0.6287
29341TIP3    H288906  10.898   5.319   6.908 -0.2630 -0.9988 -1.2751
29342TIP3   OH288907   5.899   0.199   4.907  0.6506  0.0974  0.2381
29342TIP3    H188908   5.828   0.263   4.901  1.1974  0.8171  1.1291
29342TIP3    H288909   5.912   0.186   5.001  1.4872 -0.2599  0.0832
29343TIP3   OH288910   9.918  10.779   8.463 -0.1190  0.1549 -0.3140
29343TIP3    H188911   9.895  10.851   8.521  1.1659 -0.9124  1.6297
29343TIP3    H288912   9.883  10.805   8.378 -2.4637  1.5990  0.9815
29344TIP3   OH288913   5.052   8.602   3.435  0.3292 -0.3990 -0.1832
29344TIP3    H188914   5.006   8.638   3.359  0.2551 -0.6376 -0.2524
29344TIP3    H288915   5.044   8.507   3.424 -0.3086 -0.4338  0.5029
29345TIP3   OH288916   3.318   4.220   7.673  0.1964  0.0729 -0.4026
29345TIP3    H188917   3.331   4.159   7.601 -0.9940 -0.3222 -0.3074
29345TIP3    H288918   3.406   4.241   7.704  0.6647 -0.6233 -1.2459
29346TIP3   OH288919   2.846   0.745   9.816  0.3619 -0.2434  0.6478
29346TIP3    H188920   2.866   0.673   9.756  2.0711  0.5614  0.1896
29346TIP3    H288921   2.798   0.808   9.762  0.4133 -0.2758  0.5626
29347TIP3   OH288922  10.236   4.191   5.508 -0.3204  0.4679 -0.4075
29347TIP3    H188923  10.227   4.206   5.602 -1.0639 -0.7200 -0.2763
29347TIP3    H288924  10.149   4.163   5.479 -0.6538  2.6627 -1.8303
29348TIP3   OH288925   1.187   8.642   3.824  0.1692 -0.3727  0.0761
29348TIP3    H188926   1.196   8.696   3.903  0.8691 -0.8323  0.3243
29348TIP3    H288927   1.095   8.652   3.798  0.3864  1.3072 -0.1624
29349TIP3   OH288928  10.168   5.603   0.435 -0.6409 -0.4503 -0.4687
29349TIP3    H188929  10.137   5.666   0.369  1.0733  0.6218 -0.3158
29349TIP3    H288930  10.205   5.657   0.504 -0.6326 -1.6181  0.4764
29350TIP3   OH288931  10.665  10.891   0.113 -0.5867  0.0614  0.5199
29350TIP3    H188932  10.682  10.889   0.019 -2.3769  0.2608  0.1654
29350TIP3    H288933  10.683  10.981   0.139  5.0017 -0.9858  1.4892
29351TIP3   OH288934  10.796   1.386   5.466  0.2958 -0.0561  0.3234
29351TIP3    H188935  10.750   1.439   5.401  1.3361  1.0057  0.4362
29351TIP3    H288936  10.849   1.448   5.516  2.9212 -1.3199 -0.6711
29352TIP3   OH288937   5.909   8.187   1.376  0.6988 -0.1619  0.2266
29352TIP3    H188938   5.947   8.185   1.464 -1.8043  1.4402  1.4712
29352TIP3    H288939   5.859   8.105   1.370 -1.0886  0.7889  1.3432
29353TIP3   OH288940   3.134   4.500  10.792 -0.0882  0.3903 -0.2563
29353TIP3    H188941   3.120   4.561  10.865 -1.5166  0.2158 -0.3561
29353TIP3    H288942   3.048   4.461  10.777  0.7317 -1.4980 -0.3457
29354TIP3   OH288943   5.500   4.671   2.710 -0.4152  0.0654 -0.2012
29354TIP3    H188944   5.511   4.707   2.622  0.7324 -0.2687 -0.2193
29354TIP3    H288945   5.578   4.616   2.723 -1.4425 -1.3357  0.3294
29355TIP3   OH288946   8.301   5.599   8.581  0.0201 -0.3634 -0.1591
29355TIP3    H188947   8.252   5.517   8.591  1.2513 -1.1883 -0.6443
29355TIP3    H288948   8.387   5.581   8.619  0.9208  0.0968 -1.8464
29356TIP3   OH288949   8.001   9.955   3.205 -0.0309 -0.3181 -0.3604
29356TIP3    H188950   7.909   9.982   3.204  0.2887  0.7839 -0.8366
29356TIP3    H288951   7.998   9.862   3.231 -1.2597 -0.2695 -0.2614
29357TIP3   OH288952   3.266   9.045   8.814 -0.1602  0.8719  0.5538
29357TIP3    H188953   3.289   9.086   8.730  0.7797  0.2983  0.5105
29357TIP3    H288954   3.335   8.980   8.828 -0.4322  0.8092  1.6693
29358TIP3   OH288955   4.962   8.633  10.345 -0.4342 -0.2425 -0.6073
29358TIP3    H188956   5.013   8.554  10.363  0.1984 -0.3101 -2.4455
29358TIP3    H288957   4.881   8.621  10.395 -0.7135 -2.4762 -1.4635
29359TIP3   OH288958   7.400   3.923   5.929  0.4229  0.1865 -0.1935
29359TIP3    H188959   7.364   3.919   5.841 -1.3063 -0.4788  0.5070
29359TIP3    H288960   7.470   3.857   5.929  1.0130  0.7788 -1.2760
29360TIP3   OH288961   5.897   0.894  10.540  0.1558  0.4842 -0.1331
29360TIP3    H188962   5.878   0.950  10.616 -0.8929 -2.0106  1.5831
29360TIP3    H288963   5.811   0.878  10.500  0.7512  2.3040 -2.3912
29361TIP3   OH288964   4.012   5.405   1.765 -0.2232 -0.3812 -0.0449
29361TIP3    H188965   3.955   5.329   1.760 -1.2498  0.2674  1.2020
29361TIP3    H288966   4.099   5.371   1.743 -0.5800 -2.0011  0.8559
29362TIP3   OH288967   2.588   2.923   1.941 -0.9124  0.7772  0.1165
29362TIP3    H188968   2.587   2.827   1.939  1.5699  0.6280  1.8316
29362TIP3    H288969   2.641   2.948   1.865  0.5091  0.5970  0.9982
29363TIP3   OH288970   8.776   2.904   2.266 -0.3653  0.0820 -0.0317
29363TIP3    H188971   8.800   2.918   2.174  0.1657 -0.8044 -0.0373
29363TIP3    H288972   8.846   2.849   2.301 -1.2788 -0.7528  0.5343
29364TIP3   OH288973  10.775   0.451  10.067 -0.6376  0.1271  0.2308
29364TIP3    H188974  10.751   0.526  10.013 -0.2491 -0.7780 -1.2346
29364TIP3    H288975  10.858   0.420  10.031 -0.7162 -0.9209  0.8994
29365TIP3   OH288976   8.044   1.255   0.557  0.0006  0.2552  0.1656
29365TIP3    H188977   8.108   1.325   0.566 -0.3722  0.6139  0.0434
29365TIP3    H288978   8.019   1.256   0.464  0.5519 -0.5379 -0.0031
29366TIP3   OH288979   1.979   3.577   1.974  0.4972  0.9570  0.0532
29366TIP3    H188980   1.912   3.565   1.907 -1.0874  2.0821  1.3405
29366TIP3    H288981   1.929   3.598   2.053  2.1136 -2.2508  2.1634
29367TIP3   OH288982   2.914   0.282   0.781  0.1925 -0.5229 -0.2111
29367TIP3    H188983   2.841   0.340   0.760 -0.9262 -1.2879  1.3733
29367TIP3    H288984   2.873   0.198   0.802  1.3470 -0.5768  2.1878
29368TIP3   OH288985   2.529   3.294  10.665 -0.2504  0.2014 -0.4726
29368TIP3    H188986   2.513   3.386  10.685 -1.0447 -0.0222 -0.0275
29368TIP3    H288987   2.620   3.279  10.691 -0.1570  0.8198 -0.4237
29369TIP3   OH288988   1.359   0.178   3.388 -0.1655 -0.7135 -0.5462
29369TIP3    H188989   1.365   0.271   3.409  1.8953 -1.1605  1.3685
29369TIP3    H288990   1.279   0.148   3.431 -0.3664  0.0167 -0.4057
29370TIP3   OH288991   2.852   1.071  10.717  0.4286  0.4808 -0.2238
29370TIP3    H188992   2.916   1.141  10.710  1.0825 -0.1189 -0.3911
29370TIP3    H288993   2.883   1.004  10.655 -0.0157 -0.0775  0.1453
29371TIP3   OH288994   9.761   2.486   7.652 -1.0787  0.8334 -0.0665
29371TIP3    H188995   9.726   2.560   7.703 -1.8431 -0.6484  1.6496
29371TIP3    H288996   9.706   2.412   7.676 -0.6080 -0.2422 -2.0929
29372TIP3   OH288997   4.243  10.858   7.676 -0.1413 -0.2932 -0.3389
29372TIP3    H188998   4.201  10.781   7.714 -0.3804 -0.3885 -0.7989
29372TIP3    H288999   4.316  10.877   7.735 -0.7337 -0.2190  0.3818
29373TIP3   OH289000   1.290   3.598   3.797 -0.0849  0.4156 -0.7110
29373TIP3    H189001   1.337   3.520   3.825 -0.8211  0.1971 -0.0475
29373TIP3    H289002   1.358   3.658   3.768  0.6417  0.2658  0.5986
29374TIP3   OH289003  10.186   7.797   8.426  0.0334  0.0215 -0.2649
29374TIP3    H189004  10.203   7.778   8.334  1.8129 -0.9133  0.1907
29374TIP3    H289005  10.217   7.718   8.472  2.2287  1.6790  1.3407
29375TIP3   OH289006   2.668   7.136   0.615  0.2202  0.7555  0.7269
29375TIP3    H189007   2.753   7.166   0.649  0.8348 -0.7614  0.6161
29375TIP3    H289008   2.662   7.045   0.644 -1.0483  0.6280  0.1054
29376TIP3   OH289009   9.410   5.751   5.236  0.6109  0.4229 -0.0159
29376TIP3    H189010   9.346   5.728   5.169  0.3812  1.0025  0.0024
29376TIP3    H289011   9.430   5.668   5.279 -0.8138  0.3709  0.5942
29377TIP3   OH289012   2.169   7.077   9.635  0.5179 -0.0662 -0.1095
29377TIP3    H189013   2.137   6.987   9.645 -1.7899  0.8045  1.1032
29377TIP3    H289014   2.171   7.091   9.541 -1.5253 -0.6312 -0.2787
29378TIP3   OH289015  10.485   9.846   4.325  0.3360 -0.1155 -0.4858
29378TIP3    H189016  10.456   9.929   4.289 -2.3368 -1.2724 -1.2220
29378TIP3    H289017  10.501   9.863   4.418  1.9623  1.6350 -1.0110
29379TIP3   OH289018   7.319   3.227   8.557 -0.3091  0.0887 -0.0062
29379TIP3    H189019   7.285   3.315   8.544  0.3508  0.1388 -1.6345
29379TIP3    H289020   7.254   3.169   8.517  0.3173  0.0071 -0.9214
29380TIP3   OH289021   9.469   1.662   2.341  0.3772 -0.6301  0.7445
29380TIP3    H189022   9.463   1.675   2.246  2.1497 -0.2482  0.6507
29380TIP3    H289023   9.451   1.569   2.353  3.1664 -1.4210 -0.3676
29381TIP3   OH289024   4.318   9.766   7.027 -0.1264  0.5036 -0.1418
29381TIP3    H189025   4.315   9.703   6.956  0.4915  1.6006 -1.1701
29381TIP3    H289026   4.259   9.730   7.094 -1.2993 -0.1647 -1.4972
29382TIP3   OH289027   5.559   0.513   5.674 -0.7278  0.1307  0.2267
29382TIP3    H189028   5.653   0.523   5.691 -0.7895  0.9195  0.1357
29382TIP3    H289029   5.539   0.424   5.705 -0.6605  1.1052  3.4773
29383TIP3   OH289030   6.724   7.103   9.334  0.3754 -0.2600 -0.2861
29383TIP3    H189031   6.763   7.026   9.376 -0.9936 -1.1609 -0.6135
29383TIP3    H289032   6.698   7.159   9.407  2.1154  0.3229 -0.0544
29384TIP3   OH289033   8.917   8.154   1.596 -0.1587  0.5710  0.5243
29384TIP3    H189034   8.908   8.239   1.553  0.0953  0.6264  0.5803
29384TIP3    H289035   8.827   8.126   1.612 -0.2802  0.3205 -0.4900
29385TIP3   OH289036   0.902   3.035   2.155 -0.1341  0.6133 -0.2320
29385TIP3    H189037   0.958   3.111   2.167  1.1404 -0.5114  1.3883
29385TIP3    H289038   0.815   3.064   2.183 -0.0416  1.8907 -1.1815
29386TIP3   OH289039   9.964  10.100   6.091 -0.3634  0.2595 -0.2849
29386TIP3    H189040  10.025  10.029   6.072 -0.1864  0.1355  0.6781
29386TIP3    H289041  10.019  10.177   6.102 -0.2855  0.0062  1.2988
29387TIP3   OH289042   1.627   6.882   1.574  0.3008  0.2811 -0.3237
29387TIP3    H189043   1.709   6.842   1.542  1.1488  1.7986 -0.1365
29387TIP3    H289044   1.651   6.972   1.596 -2.1815  2.0641 -3.8377
29388TIP3   OH289045   3.938   0.969   8.193 -0.2594  0.2645 -0.0885
29388TIP3    H189046   3.860   0.949   8.245 -0.0942 -1.2256 -0.3476
29388TIP3    H289047   3.993   1.022   8.251 -0.7764 -0.0160  0.6754
29389TIP3   OH289048   4.742   6.111   4.302  0.4991 -0.5917  0.3097
29389TIP3    H189049   4.782   6.179   4.356  0.8735 -1.8880  1.7508
29389TIP3    H289050   4.811   6.085   4.240  0.7313 -0.4407  0.5053
29390TIP3   OH289051   4.422   5.072   5.580  0.4019  0.5845 -0.0371
29390TIP3    H189052   4.366   5.005   5.541  0.2583  0.9992 -0.5501
29390TIP3    H289053   4.372   5.153   5.572  0.3059  0.6617  1.1429
29391TIP3   OH289054  10.837   2.584   4.162  0.4384 -0.5237  0.3665
29391TIP3    H189055  10.830   2.498   4.120  0.1100  0.5191 -1.8498
29391TIP3    H289056  10.930   2.605   4.160  0.7056 -1.3594  2.1514
29392TIP3   OH289057   6.693   3.679   8.920 -0.3612 -0.7757 -0.0175
29392TIP3    H189058   6.715   3.695   8.828  0.9522 -0.3830  0.3523
29392TIP3    H289059   6.601   3.704   8.927 -0.2582 -0.0435 -1.0511
29393TIP3   OH289060   1.094   7.185   8.005  0.0934 -0.6333 -0.2311
29393TIP3    H189061   1.175   7.146   7.972 -0.2142 -0.5831 -1.0481
29393TIP3    H289062   1.047   7.214   7.927 -0.8037 -0.8250  0.2220
29394TIP3   OH289063   6.155   5.208  10.641  0.5476 -0.4534 -0.1249
29394TIP3    H189064   6.175   5.116  10.660 -0.0267 -0.5850 -0.1382
29394TIP3    H289065   6.089   5.205  10.572  0.6494 -0.0268 -0.2420
29395TIP3   OH289066   3.373   5.579   1.652 -0.4669  0.3897  0.7178
29395TIP3    H189067   3.410   5.663   1.679 -3.0415  0.6566  4.0202
29395TIP3    H289068   3.338   5.595   1.565  1.6735  1.8222  0.0503
29396TIP3   OH289069   1.765   8.130   6.369 -0.0597 -0.1717 -0.4751
29396TIP3    H189070   1.832   8.099   6.429  1.7927 -0.3086 -2.4913
29396TIP3    H289071   1.712   8.052   6.350 -0.9479 -0.0265  1.2425
29397TIP3   OH289072   8.931   4.665   9.477 -0.2463  0.2869 -0.6496
29397TIP3    H189073   8.856   4.636   9.529  0.5254  0.1717  0.4483
29397TIP3    H289074   8.971   4.734   9.529  0.3744  0.3961 -1.2555
29398TIP3   OH289075   1.754   2.216   6.569 -0.7249  0.0531 -0.4049
29398TIP3    H189076   1.798   2.187   6.650 -0.9621  1.6126  0.3210
29398TIP3    H289077   1.666   2.177   6.575 -0.9613  0.6780  0.4267
29399TIP3   OH289078   1.839   8.288   7.938  0.0486  0.0279  0.2678
29399TIP3    H189079   1.776   8.313   8.005 -0.2136  1.1803 -0.3837
29399TIP3    H289080   1.912   8.349   7.948  1.5493 -1.8565  1.6101
29400TIP3   OH289081   4.335   4.858   2.111 -0.0374 -0.3231  0.4730
29400TIP3    H189082   4.379   4.881   2.193 -1.3329  0.4718  0.9787
29400TIP3    H289083   4.261   4.918   2.107  0.6085  0.4023 -1.8497
29401TIP3   OH289084  10.227   8.249   1.491  0.2647 -0.3108 -0.2824
29401TIP3    H189085  10.199   8.234   1.401  2.0832 -2.1573 -0.6279
29401TIP3    H289086  10.249   8.161   1.524  3.3196  0.6468  0.6220
29402TIP3   OH289087   5.284   0.004   7.300  0.4615 -0.6776 -0.0401
29402TIP3    H189088   5.242   0.012   7.385 -0.9718 -1.8346 -0.5941
29402TIP3    H289089   5.360  -0.052   7.315  0.8242 -0.0219  0.6462
29403TIP3   OH289090   2.169   0.704   3.666 -0.0481 -0.4732 -0.2977
29403TIP3    H189091   2.112   0.736   3.736 -0.6513  3.3591 -2.2871
29403TIP3    H289092   2.110   0.663   3.603 -0.0053 -0.5678 -0.2763
29404TIP3   OH289093   9.733   3.217   3.759 -0.4458 -0.2185  0.1444
29404TIP3    H189094   9.791   3.210   3.835  0.3302  1.2201 -0.2693
29404TIP3    H289095   9.651   3.176   3.787 -0.2138  0.3894  1.8181
29405TIP3   OH289096   6.052   9.274  10.241 -0.3393 -0.3622  0.0015
29405TIP3    H189097   5.994   9.199  10.227  1.0892 -1.1488 -2.2553
29405TIP3    H289098   6.002   9.349  10.210 -1.1691 -0.6027  0.7205
29406TIP3   OH289099  10.446   7.872   7.801  0.7853 -0.3270 -0.4274
29406TIP3    H189100  10.424   7.830   7.718 -1.5857 -1.5895  0.7358
29406TIP3    H289101  10.467   7.799   7.860 -0.4803  0.2861  0.8422
29407TIP3   OH289102   4.042   1.457   7.243 -0.8869 -0.2895  0.5324
29407TIP3    H189103   4.121   1.510   7.248  0.7681 -2.6620  1.2540
29407TIP3    H289104   4.013   1.465   7.152  0.5060  0.1666  0.1053
29408TIP3   OH289105   2.288   0.011  10.816  0.6261 -0.2680 -0.0759
29408TIP3    H189106   2.283  -0.083  10.800 -0.2686 -1.0909  3.9210
29408TIP3    H289107   2.197   0.039  10.823  0.8667  1.0914 -1.7116
29409TIP3   OH289108  10.679   9.931   8.171  0.0620 -0.5598 -0.2033
29409TIP3    H189109  10.671   9.840   8.198  2.9424 -0.4237  1.6205
29409TIP3    H289110  10.743   9.968   8.232  0.1549  2.2838 -1.8480
29410TIP3   OH289111   2.704   4.047   9.374 -0.0686  0.1948 -0.1209
29410TIP3    H189112   2.696   3.953   9.357  0.9134  0.0107  0.3790
29410TIP3    H289113   2.616   4.081   9.358 -0.2910 -0.7026 -0.9303
29411TIP3   OH289114   6.468   4.009   2.301  0.0058 -0.0453  0.4285
29411TIP3    H189115   6.507   3.923   2.285  0.0760 -0.0255  0.4926
29411TIP3    H289116   6.538   4.061   2.340 -0.1712 -0.1001  0.8253
29412TIP3   OH289117   2.439   1.358  10.188  0.0025  0.2675  0.2556
29412TIP3    H189118   2.422   1.452  10.175 -1.9478 -0.0595  0.1833
29412TIP3    H289119   2.419   1.343  10.280 -1.7827 -0.4589 -0.2197
29413TIP3   OH289120   4.869   0.029   6.478  0.2732  0.4857 -0.2938
29413TIP3    H189121   4.830  -0.058   6.466 -0.1174  0.6106  0.0465
29413TIP3    H289122   4.846   0.053   6.567  0.2711  0.9965 -0.4325
29414TIP3   OH289123   7.167   1.354   7.413 -0.4002  0.0282 -0.0292
29414TIP3    H189124   7.153   1.360   7.318  0.2882  0.9046 -0.0894
29414TIP3    H289125   7.259   1.376   7.425 -0.4705 -0.1319  0.8389
29415TIP3   OH289126   8.399   1.336   6.801  0.3996  0.0506  0.3915
29415TIP3    H189127   8.399   1.347   6.706  3.0317 -2.0176  0.0569
29415TIP3    H289128   8.323   1.279   6.818 -0.4192  0.8792 -0.3484
29416TIP3   OH289129   9.945   0.311   9.766  0.0979 -0.1601 -0.2244
29416TIP3    H189130   9.964   0.355   9.684  0.5644  0.9528  0.4559
29416TIP3    H289131   9.860   0.269   9.751 -0.5129  1.1995 -0.8322
29417TIP3   OH289132  10.249  10.597  10.404  0.2872  0.2102  0.0114
29417TIP3    H189133  10.166  10.595  10.357 -1.4406 -0.0621  2.8310
29417TIP3    H289134  10.252  10.684  10.444  1.6650  0.4259 -0.5181
29418TIP3   OH289135   3.147   5.536   2.190  0.0206 -0.0699  0.6025
29418TIP3    H189136   3.066   5.584   2.173 -0.3479 -0.1159  2.0928
29418TIP3    H289137   3.211   5.604   2.211  0.7296  0.0628 -1.6803
29419TIP3   OH289138   6.506   0.817   6.331  0.0300 -0.5179  0.1023
29419TIP3    H189139   6.416   0.843   6.350  0.4066 -0.0437  1.3735
29419TIP3    H289140   6.551   0.900   6.314 -0.1546 -0.8766 -2.5048
29420TIP3   OH289141   4.200   5.873   9.589  0.5736  0.2535  0.0590
29420TIP3    H189142   4.236   5.880   9.678  1.6195 -0.2448 -0.3105
29420TIP3    H289143   4.232   5.788   9.557  0.4859  0.5791 -0.9139
29421TIP3   OH289144   2.424   4.959   5.788  0.8017  0.0151  0.5347
29421TIP3    H189145   2.393   4.874   5.820 -1.3718  0.0671 -1.1758
29421TIP3    H289146   2.452   5.006   5.867  1.3509 -2.0029  1.5884
29422TIP3   OH289147   9.559   4.802  10.089 -0.3151 -0.0248  0.1606
29422TIP3    H189148   9.524   4.803  10.000 -2.6028 -0.0334  0.9805
29422TIP3    H289149   9.559   4.894  10.116 -2.8856 -0.2422  1.2318
29423TIP3   OH289150   6.087   6.851   0.302 -0.2335 -0.0963  0.1119
29423TIP3    H189151   6.002   6.875   0.267  0.4170  3.3658  0.4758
29423TIP3    H289152   6.124   6.789   0.239 -1.1395  1.9851 -2.6335
29424TIP3   OH289153   8.903  10.163   6.922  0.7381 -0.0897 -0.0777
29424TIP3    H189154   8.980  10.128   6.967  0.6447  0.0814  0.2124
29424TIP3    H289155   8.830  10.113   6.958  0.3875  1.5584  1.6067
29425TIP3   OH289156   2.916   9.693   1.902  0.2230  0.0179 -0.4776
29425TIP3    H189157   2.964   9.610   1.906  1.7753  0.8639 -0.9773
29425TIP3    H289158   2.983   9.760   1.915 -0.7856  1.2630 -1.5119
29426TIP3   OH289159   7.678   7.922   6.924 -0.3990 -0.1758 -0.1776
29426TIP3    H189160   7.620   7.873   6.982  0.1989 -0.1290  0.4748
29426TIP3    H289161   7.764   7.882   6.938  0.4428  2.0617  1.5658
29427TIP3   OH289162   2.964   2.092   6.295 -0.2606 -0.2614 -0.3186
29427TIP3    H189163   2.985   2.026   6.360  0.1607  0.2742  0.1041
29427TIP3    H289164   3.006   2.062   6.215 -0.3441 -0.6625 -0.2120
29428TIP3   OH289165   0.496   5.314   0.595  0.5231 -0.3378 -0.4856
29428TIP3    H189166   0.477   5.220   0.595  1.6612 -0.5902  0.6060
29428TIP3    H289167   0.437   5.351   0.661 -0.8707 -0.0420 -1.8375
29429TIP3   OH289168   4.217   1.781   1.409  0.3980  0.3215 -0.0828
29429TIP3    H189169   4.311   1.784   1.429  0.4708 -0.8639 -0.2103
29429TIP3    H289170   4.205   1.847   1.341  1.3070 -0.1332 -0.7010
29430TIP3   OH289171   5.989   2.577  10.304  0.1208 -0.1087 -0.0386
29430TIP3    H189172   6.000   2.513  10.233 -1.2720  1.5823 -1.8847
29430TIP3    H289173   6.070   2.627  10.305  0.3683 -0.4987 -0.0067
29431TIP3   OH289174   2.909   9.423   2.883 -0.6443 -0.4675 -0.4077
29431TIP3    H189175   2.864   9.428   2.967 -0.0363 -0.0925 -0.1023
29431TIP3    H289176   3.002   9.433   2.904 -0.4380 -0.9092 -1.0677
29432TIP3   OH289177  10.899  10.113   3.045  0.5570  0.6088 -0.0814
29432TIP3    H189178  10.884  10.172   2.972  0.1027  1.9659  1.0674
29432TIP3    H289179  10.878  10.165   3.123  0.2709 -1.0209  0.9799
29433TIP3   OH289180   7.304   8.312  10.028 -0.1293  0.2122 -0.8287
29433TIP3    H189181   7.245   8.308  10.103  0.4055  0.9411 -0.3626
29433TIP3    H289182   7.246   8.315   9.951 -0.6768 -0.3972 -0.4521
29434TIP3   OH289183  10.052   1.212   5.967 -0.6816  0.4124  0.5186
29434TIP3    H189184   9.969   1.164   5.979 -1.4156  1.5967  0.3558
29434TIP3    H289185  10.025   1.295   5.929  0.9771 -0.9120 -4.1930
29435TIP3   OH289186  10.764   1.522   3.728 -0.3260  0.3190 -0.5623
29435TIP3    H189187  10.746   1.453   3.792 -1.4204  1.1958  0.1091
29435TIP3    H289188  10.858   1.541   3.738  0.0568 -1.2506 -0.9672
29436TIP3   OH289189   5.389  10.475   6.655 -0.3330 -0.4218  0.7824
29436TIP3    H189190   5.333  10.543   6.618  0.6211 -0.3825 -0.6619
29436TIP3    H289191   5.355  10.462   6.744 -1.2604  1.1006  0.6888
29437TIP3   OH289192   4.963   2.737   6.878  0.2219 -0.2166 -0.1727
29437TIP3    H189193   4.903   2.673   6.917  1.9006 -1.8229 -0.1196
29437TIP3    H289194   4.918   2.767   6.798 -1.6419  0.3954  1.0304
29438TIP3   OH289195   1.454   5.765  10.707 -0.5623  0.7585 -0.0672
29438TIP3    H189196   1.470   5.705  10.780  1.5291  0.8301 -0.4173
29438TIP3    H289197   1.362   5.791  10.718 -1.1133 -1.3628  0.9160
29439TIP3   OH289198   0.313   9.681   5.238 -0.0422 -0.3236 -0.5261
29439TIP3    H189199   0.343   9.664   5.149  0.5080  0.0460 -0.4155
29439TIP3    H289200   0.377   9.638   5.294  0.9789  1.4574 -0.2570
29440TIP3   OH289201   4.459  10.127   9.640  0.6440 -0.4593  0.3191
29440TIP3    H189202   4.421  10.201   9.593  0.6804 -0.2022  0.6874
29440TIP3    H289203   4.488  10.164   9.723  0.1611 -0.9984  0.7348
29441TIP3   OH289204   1.390   0.089   1.067  0.5829 -0.1110 -1.1473
29441TIP3    H189205   1.408   0.182   1.079 -0.0406 -0.2965  1.8964
29441TIP3    H289206   1.460   0.058   1.009  2.9169  1.5569  0.6178
29442TIP3   OH289207   6.924   2.429   6.485  0.3252  0.3831  0.3590
29442TIP3    H189208   6.944   2.504   6.429 -0.1981 -0.1422 -0.5614
29442TIP3    H289209   6.958   2.453   6.571  2.1579  0.7535 -0.4312
29443TIP3   OH289210   5.264   6.935   8.580 -0.3233  0.0900  0.4737
29443TIP3    H189211   5.284   6.988   8.503  1.9377 -0.0482  0.9071
29443TIP3    H289212   5.168   6.932   8.582 -0.4792  1.7776 -1.1620
29444TIP3   OH289213   8.737   7.950   8.273  0.3102 -0.1056  0.0018
29444TIP3    H189214   8.813   7.908   8.313  1.2661  2.0155  0.5309
29444TIP3    H289215   8.771   8.031   8.234 -1.8861  1.7440  1.6446
29445TIP3   OH289216   8.025   3.447   6.861  0.6287 -0.2993  0.6164
29445TIP3    H189217   8.053   3.535   6.886  0.8314  0.3438 -1.6416
29445TIP3    H289218   8.106   3.398   6.850  0.5482 -0.5341  1.0482
29446TIP3   OH289219   9.176   5.135   4.157 -0.5245  0.1174 -0.0224
29446TIP3    H189220   9.253   5.123   4.214  0.1778  1.8750 -0.5407
29446TIP3    H289221   9.127   5.206   4.198 -1.1944 -0.1062 -0.4299
29447TIP3   OH289222   0.477   0.774   9.169 -0.2050 -0.5120 -1.0334
29447TIP3    H189223   0.506   0.773   9.077  1.8373  2.3847 -0.5692
29447TIP3    H289224   0.414   0.845   9.173  0.5887  0.1632 -0.0124
29448TIP3   OH289225   5.330   5.755   0.080  0.4204 -0.5430  0.2755
29448TIP3    H189226   5.380   5.708   0.014 -1.7759 -3.0678  0.2505
29448TIP3    H289227   5.245   5.771   0.039  0.9226  3.4636  0.3640
29449TIP3   OH289228   1.320   0.011   3.973 -0.2884 -0.2997  0.8334
29449TIP3    H189229   1.350  -0.071   3.935 -0.4005  0.1075 -0.1487
29449TIP3    H289230   1.226  -0.002   3.988 -0.2077 -0.5240  1.1581
29450TIP3   OH289231   5.675   5.186   0.263  0.2786  0.1290 -0.1389
29450TIP3    H189232   5.585   5.187   0.295  0.4136 -0.6217  0.2702
29450TIP3    H289233   5.724   5.232   0.331  0.2854  0.0848 -0.1138
29451TIP3   OH289234   0.719   5.680   3.180 -0.8969  0.4838  0.4686
29451TIP3    H189235   0.665   5.655   3.255 -0.5498 -0.4251  0.4205
29451TIP3    H289236   0.782   5.609   3.170 -0.3492  1.0335 -0.1219
29452TIP3   OH289237   5.306   7.848   4.216 -0.0556  0.2108  0.1749
29452TIP3    H189238   5.355   7.832   4.297  1.7296  2.2201 -0.4245
29452TIP3    H289239   5.352   7.797   4.149  0.0298  0.5797 -0.0484
29453TIP3   OH289240   6.835   1.456   5.026  0.1011  0.0379  0.7346
29453TIP3    H189241   6.869   1.530   5.077  1.7876 -0.9719  1.1700
29453TIP3    H289242   6.752   1.434   5.068  0.2386  0.8272  1.4521
29454TIP3   OH289243   3.510   4.167  10.767 -0.3806  0.9561  0.2627
29454TIP3    H189244   3.523   4.164  10.672  0.1922 -3.3968  0.2752
29454TIP3    H289245   3.596   4.192  10.802 -0.0423  0.6228 -0.3142
29455TIP3   OH289246   8.573   4.369   3.887 -0.5341 -0.6545  0.0348
29455TIP3    H189247   8.568   4.350   3.981 -0.1813 -0.6327  0.0576
29455TIP3    H289248   8.485   4.398   3.864 -1.0036 -2.0073  0.0658
29456TIP3   OH289249   6.092   4.170   1.146  0.4394 -0.4839 -0.1853
29456TIP3    H189250   6.077   4.251   1.097  0.2977 -0.6540 -0.4298
29456TIP3    H289251   6.009   4.153   1.190  0.9373  0.3172  1.1084
29457TIP3   OH289252   1.797   2.741   3.107  0.0644  0.9880 -0.1358
29457TIP3    H189253   1.757   2.818   3.148  0.0906  1.3595 -0.7965
29457TIP3    H289254   1.746   2.728   3.026  0.8237  1.0427 -0.6305
29458TIP3   OH289255   6.569   1.312   2.161  0.1305 -0.4014 -0.2607
29458TIP3    H189256   6.630   1.345   2.227  0.5143 -1.3407 -0.1276
29458TIP3    H289257   6.502   1.380   2.153 -0.1710 -0.4668  1.4193
29459TIP3   OH289258   8.769   1.008   2.891 -0.2892  0.0866  0.7652
29459TIP3    H189259   8.676   1.023   2.908 -0.5841  2.5297 -2.1531
29459TIP3    H289260   8.789   1.064   2.815  3.1469 -1.6924  0.1547
29460TIP3   OH289261   3.936   0.597   2.935  0.1838 -0.1162  0.2281
29460TIP3    H189262   3.891   0.600   2.850  1.1752 -1.0345 -0.3483
29460TIP3    H289263   3.901   0.672   2.983 -1.3355 -0.3121 -0.5051
29461TIP3   OH289264   3.387  10.024   9.321 -0.5274  0.1720  0.1827
29461TIP3    H189265   3.476   9.992   9.302 -0.8781 -1.1146  0.6145
29461TIP3    H289266   3.342   9.949   9.359 -1.5580  1.0612  0.7757
29462TIP3   OH289267   8.349   7.011   3.562  0.0463  0.0110  0.5001
29462TIP3    H189268   8.415   6.947   3.591  0.3363  0.1327  0.1066
29462TIP3    H289269   8.339   6.996   3.468 -0.9214 -0.3977  0.6523
29463TIP3   OH289270   1.403   8.528   2.030 -0.5511  0.6152 -0.3615
29463TIP3    H189271   1.496   8.548   2.020 -0.7112  0.7699 -1.8696
29463TIP3    H289272   1.396   8.435   2.007 -1.0358  1.1289 -2.4921
29464TIP3   OH289273   6.988   0.099   3.641 -0.1395  0.0769 -0.7505
29464TIP3    H189274   7.076   0.137   3.644  0.7117 -1.8680  0.6628
29464TIP3    H289275   6.939   0.146   3.709  0.0035  0.6496 -1.0345
29465TIP3   OH289276   2.771  10.363   3.705 -0.5003 -0.1995  0.1727
29465TIP3    H189277   2.777  10.321   3.791 -0.9556 -2.4789 -0.8357
29465TIP3    H289278   2.816  10.447   3.716 -0.6736 -0.3556  2.6484
29466TIP3   OH289279   1.433   3.856   4.978  0.4444  0.3817  0.0725
29466TIP3    H189280   1.394   3.909   5.048  0.2527 -0.0162  0.2681
29466TIP3    H289281   1.501   3.805   5.021 -0.9450 -1.3025  0.3651
29467TIP3   OH289282   1.482   1.067   9.166 -0.4396  0.9446 -0.2340
29467TIP3    H189283   1.514   1.003   9.230 -2.1005  0.9273  0.6262
29467TIP3    H289284   1.461   1.144   9.217  0.4245  1.7854 -1.1112
29468TIP3   OH289285   5.623   2.213   2.079 -0.1515  0.2761 -0.1159
29468TIP3    H189286   5.629   2.186   1.987 -0.4064 -1.0637  0.2493
29468TIP3    H289287   5.712   2.241   2.102 -0.3963  2.1269 -1.1865
29469TIP3   OH289288   3.161   7.148   5.515  0.4171 -0.4285  0.4240
29469TIP3    H189289   3.227   7.083   5.539  3.0925  1.4052 -1.3492
29469TIP3    H289290   3.155   7.142   5.419 -0.6943  0.6265  0.4005
29470TIP3   OH289291   1.540   9.192   9.920 -0.0888  0.1303  0.1200
29470TIP3    H189292   1.484   9.180   9.997  1.4599  2.1738  1.7084
29470TIP3    H289293   1.569   9.283   9.927  2.1430 -0.3882 -1.4831
29471TIP3   OH289294   0.277   1.323   9.639 -0.2855  0.5397 -0.0612
29471TIP3    H189295   0.194   1.361   9.612 -0.9007 -0.3432  0.5193
29471TIP3    H289296   0.274   1.325   9.735 -0.6010 -1.4435  0.0069
29472TIP3   OH289297   8.637   6.541   2.332 -0.6938  0.1908  0.1431
29472TIP3    H189298   8.676   6.578   2.411 -0.9436  0.3687  0.1862
29472TIP3    H289299   8.641   6.612   2.268 -0.9260  0.2058  0.1425
29473TIP3   OH289300   7.627   4.992   5.520 -0.7321  0.2640  0.5318
29473TIP3    H189301   7.544   5.033   5.495 -0.4145  0.5595 -0.0729
29473TIP3    H289302   7.688   5.019   5.452 -0.3349 -0.6296  0.5186
29474TIP3   OH289303   4.829  10.490   2.450  0.0599 -0.4046 -0.6767
29474TIP3    H189304   4.899  10.495   2.514 -1.3236  0.5995  0.8442
29474TIP3    H289305   4.791  10.578   2.449 -1.0202 -0.8551 -1.6417
29475TIP3   OH289306   7.632   9.801   5.167  0.2065 -0.2310 -0.2901
29475TIP3    H189307   7.568   9.871   5.157 -0.1809 -0.3982  0.8319
29475TIP3    H289308   7.717   9.844   5.163 -0.0153  0.2176 -0.1674
29476TIP3   OH289309   6.786   4.947   8.034 -0.3954  0.3382 -0.4361
29476TIP3    H189310   6.715   4.992   8.080 -0.6836 -0.6593  0.1205
29476TIP3    H289311   6.746   4.868   7.999  0.6575 -0.7942  0.8167
29477TIP3   OH289312   1.488   3.502  10.433 -1.1882  0.1066 -0.4904
29477TIP3    H189313   1.570   3.533  10.394 -1.0050 -0.8589 -0.8910
29477TIP3    H289314   1.477   3.556  10.511  0.4526 -0.5357  0.2247
29478TIP3   OH289315   6.194   4.971  10.370  0.2509  0.6896 -0.4071
29478TIP3    H189316   6.121   4.919  10.404  0.3443  1.3394  0.8653
29478TIP3    H289317   6.152   5.047  10.329  0.0873 -0.5875 -2.7577
29479TIP3   OH289318   9.942  10.212   5.245  0.5372 -0.2557  0.0512
29479TIP3    H189319   9.957  10.234   5.338  1.2747 -1.7590  0.3126
29479TIP3    H289320  10.030  10.200   5.209  0.3656  2.0670 -1.3432
29480TIP3   OH289321   1.473   4.808   5.707 -0.7390 -0.2472  0.1523
29480TIP3    H189322   1.427   4.879   5.664 -0.0532 -0.5796 -1.2018
29480TIP3    H289323   1.404   4.750   5.739 -1.2906 -0.1825 -0.8720
29481TIP3   OH289324   5.802   9.089   1.893 -0.4124 -0.5277  0.0878
29481TIP3    H189325   5.835   9.143   1.965  1.1428 -0.7042 -0.4500
29481TIP3    H289326   5.733   9.035   1.932  0.8728 -1.1280  1.6356
29482TIP3   OH289327   9.802   5.818   7.782 -0.3077  0.0075  0.3226
29482TIP3    H189328   9.835   5.906   7.763  1.2747 -1.1048 -2.7380
29482TIP3    H289329   9.725   5.809   7.726 -0.1444 -0.7425  0.2094
29483TIP3   OH289330  10.852   0.570   5.263  0.0187 -0.3607  0.0550
29483TIP3    H189331  10.845   0.575   5.167 -0.6219  1.0337  0.1484
29483TIP3    H289332  10.914   0.639   5.286 -0.7093  0.0907  0.7179
29484TIP3   OH289333   8.887   2.538   7.259 -0.4320 -0.5353 -0.0907
29484TIP3    H189334   8.963   2.574   7.306  0.4270 -1.4248 -0.7455
29484TIP3    H289335   8.870   2.602   7.189 -0.0175 -0.5293 -0.1904
29485TIP3   OH289336   3.595   1.342   6.974  0.5277 -0.0788 -0.8583
29485TIP3    H189337   3.596   1.380   7.062 -1.4045  1.7205 -1.5549
29485TIP3    H289338   3.503   1.322   6.957  0.3864  2.2235 -3.4843
29486TIP3   OH289339   8.313   7.388   5.889 -0.0527  0.0786 -0.6701
29486TIP3    H189340   8.305   7.322   5.819  2.3187  0.2063 -1.1567
29486TIP3    H289341   8.314   7.336   5.970 -0.2756 -0.3039 -0.9074
29487TIP3   OH289342   7.637   2.747  10.149 -0.5163 -0.6480  0.7365
29487TIP3    H189343   7.575   2.790  10.207 -0.2541 -1.5935  1.7361
29487TIP3    H289344   7.593   2.746  10.064 -1.3802 -0.2726  1.1692
29488TIP3   OH289345  10.107   1.472   7.168 -0.5388 -0.1304 -0.4846
29488TIP3    H189346  10.022   1.439   7.139 -0.4075 -0.3550 -0.6200
29488TIP3    H289347  10.087   1.554   7.212 -0.8547 -0.3098 -0.2874
29489TIP3   OH289348  10.456   2.574   8.447 -0.1364  0.0106  0.3555
29489TIP3    H189349  10.470   2.519   8.370 -1.9065 -1.0844  0.7420
29489TIP3    H289350  10.422   2.514   8.513 -1.7723  1.4714  0.9321
29490TIP3   OH289351   3.443   7.626   7.102 -0.5954  0.1903  0.3403
29490TIP3    H189352   3.435   7.622   7.007 -0.7062  0.9485  0.3105
29490TIP3    H289353   3.451   7.719   7.121 -1.1836  0.0860  1.1232
29491TIP3   OH289354   4.754   0.821   9.768  0.2013 -0.2792 -0.1210
29491TIP3    H189355   4.774   0.733   9.736 -1.4481 -0.7137 -0.0452
29491TIP3    H289356   4.689   0.855   9.706  0.7072  0.8308 -0.0600
29492TIP3   OH289357   0.128   8.787   0.936  0.3456  0.1566  0.7362
29492TIP3    H189358   0.051   8.737   0.909  0.2782  0.1412  0.9554
29492TIP3    H289359   0.125   8.786   1.032  0.7831 -0.1023  0.7498
29493TIP3   OH289360   8.351   2.279   2.362  0.5346 -0.3453 -0.2785
29493TIP3    H189361   8.331   2.244   2.449  0.0079 -0.3467 -0.3935
29493TIP3    H289362   8.267   2.275   2.315  0.4981  0.9128 -0.3492
29494TIP3   OH289363   1.294   3.115   7.652  0.3829 -0.4165 -0.2295
29494TIP3    H189364   1.363   3.092   7.714 -1.1491 -2.4395  0.8681
29494TIP3    H289365   1.226   3.049   7.667 -1.4055  0.9367 -1.8728
29495TIP3   OH289366   6.261   3.032  10.309  0.2054 -1.0833  0.8688
29495TIP3    H189367   6.225   3.117  10.284 -1.1729 -1.5967  1.0354
29495TIP3    H289368   6.354   3.049  10.323  0.8906 -0.4352 -3.1376
29496TIP3   OH289369   2.095  10.867   4.390 -0.1846 -0.2502  0.4380
29496TIP3    H189370   2.165  10.825   4.339 -1.0758 -0.5231 -0.5848
29496TIP3    H289371   2.121  10.854   4.481  0.9746 -0.5627  0.0804
29497TIP3   OH289372   7.235   4.269   2.840  0.1027  0.4618  0.2764
29497TIP3    H189373   7.190   4.192   2.874  3.0402 -1.2759  0.5559
29497TIP3    H289374   7.186   4.293   2.761 -0.3154 -2.3694 -0.4192
29498TIP3   OH289375   9.866   2.740   8.501  0.1207  0.1395  0.1208
29498TIP3    H189376   9.789   2.722   8.555 -0.4353  2.8854  0.3877
29498TIP3    H289377   9.880   2.834   8.509  2.3546  0.0395 -1.4960
29499TIP3   OH289378   2.429   3.555   5.720 -0.5417  0.0992 -0.1379
29499TIP3    H189379   2.484   3.610   5.664  0.5621  0.1259  0.9295
29499TIP3    H289380   2.471   3.469   5.719  1.1495  0.7752  2.7824
29500TIP3   OH289381   4.562   8.566   6.237  0.4889 -0.5865  0.0212
29500TIP3    H189382   4.507   8.496   6.272 -2.3492  1.1130 -0.7171
29500TIP3    H289383   4.629   8.580   6.303  1.6268 -4.3619 -0.1046
29501TIP3   OH289384   0.236  10.761   0.764  0.3440 -0.1705  0.5285
29501TIP3    H189385   0.249  10.714   0.846 -0.1913  1.3750  1.5246
29501TIP3    H289386   0.324  10.779   0.732  0.7255  2.4998  2.7369
29502TIP3   OH289387   4.561   5.567   6.738 -0.2645 -0.0826  0.0175
29502TIP3    H189388   4.610   5.635   6.784  2.4072 -1.6098 -0.4221
29502TIP3    H289389   4.605   5.486   6.760 -2.3506 -1.5295 -0.8156
29503TIP3   OH289390   3.711   1.281   8.512  0.5352  0.0859  0.7866
29503TIP3    H189391   3.803   1.280   8.540  1.0866 -0.6045 -0.9604
29503TIP3    H289392   3.673   1.202   8.551 -0.0495  1.6056  3.6054
29504TIP3   OH289393   7.571   6.809   2.957 -0.5118 -0.1062  0.1859
29504TIP3    H189394   7.510   6.785   3.027 -1.0791  2.4162  0.6536
29504TIP3    H289395   7.518   6.856   2.894  0.3161 -0.9792 -1.2287
29505TIP3   OH289396   4.983   8.677   4.099 -0.1030 -0.0055 -0.4895
29505TIP3    H189397   5.070   8.638   4.102 -0.5177 -1.3359 -2.8920
29505TIP3    H289398   4.925   8.605   4.076 -1.7860  0.9616  0.4935
29506TIP3   OH289399   3.341   5.233   0.259 -0.2461  0.2189  0.2572
29506TIP3    H189400   3.341   5.310   0.203  1.9540  0.8576  1.0546
29506TIP3    H289401   3.292   5.259   0.337  0.8471  0.9997  0.7082
29507TIP3   OH289402   3.645   2.846   8.016  0.3951 -0.0805  0.4620
29507TIP3    H189403   3.701   2.835   7.939 -0.9659 -3.2286 -0.2166
29507TIP3    H289404   3.568   2.892   7.982  0.2200 -0.5988  0.1481
29508TIP3   OH289405   6.316   2.998   1.295 -0.4681 -0.0809 -0.3285
29508TIP3    H189406   6.355   3.026   1.212 -1.9813  0.8120 -0.7929
29508TIP3    H289407   6.240   2.947   1.269 -0.6210 -0.2859  0.5159
29509TIP3   OH289408   2.477   3.266  10.368  0.0519 -0.2774 -0.3950
29509TIP3    H189409   2.487   3.326  10.294  1.3818 -0.4438 -0.3784
29509TIP3    H289410   2.479   3.323  10.445 -1.6763 -0.0673 -0.4597
29510TIP3   OH289411   1.731   3.240   1.450 -0.2768 -0.4937  0.4622
29510TIP3    H189412   1.688   3.265   1.532  1.4189  0.9210  0.9881
29510TIP3    H289413   1.661   3.241   1.385 -1.1120  1.6367  1.2962
29511TIP3   OH289414   6.420   4.475   2.217 -0.1636  0.1704  0.2863
29511TIP3    H189415   6.509   4.510   2.221 -0.3610  0.6772  0.3956
29511TIP3    H289416   6.392   4.469   2.308 -1.2551  2.7439  0.2163
29512TIP3   OH289417   5.354   6.564   7.108 -0.2139 -0.4896 -0.0269
29512TIP3    H189418   5.348   6.642   7.053  0.0742 -1.1869 -1.1023
29512TIP3    H289419   5.309   6.587   7.189  0.5523  1.0513 -0.0018
29513TIP3   OH289420   4.234  10.616   5.185  0.1537  0.3136 -0.6613
29513TIP3    H189421   4.289  10.542   5.161 -0.1913  0.1463 -0.9426
29513TIP3    H289422   4.149  10.578   5.207  0.5481  0.4178  1.1939
29514TIP3   OH289423   5.366   3.748   1.413  0.0711  0.5153  0.0275
29514TIP3    H189424   5.417   3.689   1.358 -0.0725  0.0630  0.3804
29514TIP3    H289425   5.427   3.818   1.436  1.4461 -1.4151  2.7636
29515TIP3   OH289426   5.262   8.882   4.868  0.2983  0.3197 -0.1122
29515TIP3    H189427   5.345   8.915   4.903 -0.1827  1.2420  0.1828
29515TIP3    H289428   5.272   8.888   4.773  1.9831 -3.0943 -0.3074
29516TIP3   OH289429   3.370   8.954   9.749 -0.1871  0.4931 -0.4128
29516TIP3    H189430   3.442   8.956   9.687  0.2894 -1.1321  0.0280
29516TIP3    H289431   3.372   8.865   9.785 -0.4493  1.3750  1.9290
29517TIP3   OH289432   1.378  10.333   7.310 -0.3883 -0.3502  0.0244
29517TIP3    H189433   1.307  10.330   7.374 -0.8476  3.6391 -0.0411
29517TIP3    H289434   1.337  10.367   7.230  1.4130  1.4365 -0.2102
29518TIP3   OH289435   2.931   6.477   0.364 -0.7663  0.3536  0.1937
29518TIP3    H189436   2.945   6.544   0.297 -1.2838 -0.9061 -1.2471
29518TIP3    H289437   3.018   6.451   0.392 -0.5098  0.3977 -0.5433
29519TIP3   OH289438  10.660   1.616   7.810 -0.2409 -0.3125  0.1990
29519TIP3    H189439  10.631   1.697   7.768 -1.1445  0.1276  1.6248
29519TIP3    H289440  10.703   1.644   7.890  0.3783 -1.1977  0.1913
29520TIP3   OH289441   4.698   0.027   9.539 -0.1108  0.0573  0.5920
29520TIP3    H189442   4.613   0.037   9.498  0.3459  0.3272 -0.3120
29520TIP3    H289443   4.695  -0.058   9.582 -0.6077 -0.2208  0.0136
29521TIP3   OH289444   3.259   0.959   8.077  0.3355  0.0215  0.2613
29521TIP3    H189445   3.251   1.048   8.112 -1.0493  0.6500 -1.4527
29521TIP3    H289446   3.302   0.909   8.146  0.3501  1.8163  1.6254
29522TIP3   OH289447   3.198   5.556   2.499  0.1676 -0.6216  0.0143
29522TIP3    H189448   3.249   5.620   2.448  0.3963 -0.6273  0.2317
29522TIP3    H289449   3.112   5.556   2.458  0.5607 -1.1668 -0.8356
29523TIP3   OH289450   7.471   1.894   4.499 -0.1609  0.1497  0.0767
29523TIP3    H189451   7.377   1.876   4.503  0.1845 -1.5374  1.9463
29523TIP3    H289452   7.492   1.933   4.584  1.1902 -1.7249  0.6821
29524TIP3   OH289453   9.090   8.101   8.978  0.5102  0.3353  0.2008
29524TIP3    H189454   9.116   8.063   8.893 -0.1373  0.9292 -0.2760
29524TIP3    H289455   9.143   8.180   8.985  0.7759  0.1329  0.4953
29525TIP3   OH289456   9.752  10.528  10.883  0.5637 -0.3991 -0.1181
29525TIP3    H189457   9.670  10.496  10.845  0.1438 -1.1521  1.3242
29525TIP3    H289458   9.795  10.576  10.812 -1.6572  1.0322 -0.5901
29526TIP3   OH289459   4.007   0.966   6.927  0.3332 -0.4072 -0.2849
29526TIP3    H189460   3.981   1.053   6.894 -1.5296 -0.4173  0.9981
29526TIP3    H289461   4.008   0.976   7.022 -0.3695 -1.9054 -0.0912
29527TIP3   OH289462   0.719   4.364   1.961  0.0348  0.4968  0.1475
29527TIP3    H189463   0.746   4.327   2.045 -1.4623  1.2992  1.0336
29527TIP3    H289464   0.752   4.303   1.895 -1.7634 -2.0950  1.4922
29528TIP3   OH289465   9.234   9.972   1.600 -0.3320  0.0746 -0.5351
29528TIP3    H189466   9.168   9.940   1.538 -0.6733  2.0114 -1.2130
29528TIP3    H289467   9.313   9.982   1.547 -0.7789  2.3055 -0.8647
29529TIP3   OH289468   8.519   2.317   1.528 -0.1868 -0.1587  0.2647
29529TIP3    H189469   8.427   2.305   1.507  0.2474 -0.2943 -1.8837
29529TIP3    H289470   8.554   2.228   1.534  0.3817 -0.1904 -2.2162
29530TIP3   OH289471   2.866   1.129   9.206 -0.1508 -0.3228  0.4938
29530TIP3    H189472   2.935   1.110   9.143 -0.0506 -0.3996  0.6263
29530TIP3    H289473   2.865   1.225   9.212  1.5537 -0.3487  2.2500
29531TIP3   OH289474   4.845   7.164   8.781 -0.3255  0.4461  0.4767
29531TIP3    H189475   4.810   7.188   8.695  0.5028 -0.2279 -0.0683
29531TIP3    H289476   4.842   7.069   8.783  2.3300  0.2742 -0.0195
29532TIP3   OH289477   0.108   8.758  10.211 -0.1657  0.2601 -0.1168
29532TIP3    H189478   0.141   8.756  10.301 -0.3094  3.9523  0.1732
29532TIP3    H289479   0.183   8.731  10.158  0.7836  0.6734  0.9653
29533TIP3   OH289480  10.658   4.011  10.330 -0.5312 -0.2731  0.0870
29533TIP3    H189481  10.694   4.064  10.401 -1.2536 -0.2682  0.4598
29533TIP3    H289482  10.634   4.075  10.263  1.5162 -0.3767 -0.8249
29534TIP3   OH289483   0.532   6.836   4.914  0.1798 -0.3944  0.0966
29534TIP3    H189484   0.460   6.777   4.936 -0.0407 -0.7278 -1.4599
29534TIP3    H289485   0.609   6.795   4.953 -0.2419 -0.7899  0.5220
29535TIP3   OH289486   9.824   2.330   8.338 -0.2601  0.1827  0.0915
29535TIP3    H189487   9.730   2.339   8.319  0.1362  0.7373 -1.8439
29535TIP3    H289488   9.854   2.262   8.279  0.6547  0.3219  0.3848
29536TIP3   OH289489   3.001   0.637   4.000  0.0724 -0.3421  0.4128
29536TIP3    H189490   3.008   0.607   3.909 -0.7064 -1.6635  0.7520
29536TIP3    H289491   3.089   0.668   4.022  0.5113 -0.8710 -0.5058
29537TIP3   OH289492   5.728  10.243  10.352  0.0272 -0.0821  0.4118
29537TIP3    H189493   5.690  10.158  10.331  0.0197 -0.1384  0.6472
29537TIP3    H289494   5.817  10.240  10.317  0.0925 -0.2590  0.5958
29538TIP3   OH289495   7.743   1.250   9.093 -0.3847  0.2760 -0.2201
29538TIP3    H189496   7.791   1.308   9.151  0.8169  0.5589 -1.4359
29538TIP3    H289497   7.733   1.299   9.012 -0.6680 -0.6603 -0.7758
29539TIP3   OH289498   2.413   2.449   5.341  0.4010 -0.3053 -0.2636
29539TIP3    H189499   2.417   2.405   5.256  1.7999 -0.3812 -0.1745
29539TIP3    H289500   2.460   2.391   5.400  0.7801  0.4852  0.2234
29540TIP3   OH289501   6.561   2.142   8.479 -0.1750  0.2856 -0.4068
29540TIP3    H189502   6.579   2.141   8.385  1.7129 -0.2062 -0.0822
29540TIP3    H289503   6.547   2.050   8.501 -0.7893  0.4177 -0.2169
29541TIP3   OH289504   4.331   4.294   5.946 -0.9758  0.0868  0.1211
29541TIP3    H189505   4.358   4.297   5.854  0.8276  0.7528  0.6481
29541TIP3    H289506   4.396   4.238   5.989 -1.8043 -0.2223  1.0066
29542TIP3   OH289507   2.661   2.922  10.309  0.8900 -0.9612  0.4561
29542TIP3    H189508   2.725   2.960  10.248 -0.7299  0.7514 -0.2927
29542TIP3    H289509   2.619   2.852  10.259  1.8222 -1.7558  0.7753
29543TIP3   OH289510   1.170   1.902   0.615 -0.6182 -0.3842  0.5657
29543TIP3    H189511   1.102   1.855   0.664 -1.9435 -0.6232 -1.3890
29543TIP3    H289512   1.129   1.923   0.531  2.1534 -1.7338 -1.2623
29544TIP3   OH289513   1.317   7.980   4.950 -0.2913 -0.2435  0.5557
29544TIP3    H189514   1.299   7.890   4.925  1.7591 -0.9884  1.5310
29544TIP3    H289515   1.407   7.995   4.922 -0.2731  1.1793  1.2794
29545TIP3   OH289516  10.692   9.030   1.756 -0.0695 -0.6490 -0.3452
29545TIP3    H189517  10.697   9.067   1.844  0.2663  0.0211 -0.6455
29545TIP3    H289518  10.598   9.018   1.740 -0.2001  0.3021 -0.3409
29546TIP3   OH289519   9.405   6.254   6.797  0.2179  0.1297  0.0002
29546TIP3    H189520   9.463   6.196   6.747  1.5307  0.4437  1.1082
29546TIP3    H289521   9.460   6.289   6.867 -1.7557 -0.9391  2.2001
29547TIP3   OH289522   0.950   5.525  10.850  0.0438 -1.2337  0.1782
29547TIP3    H189523   0.909   5.548  10.767  2.3292  0.6121 -0.5461
29547TIP3    H289524   0.878   5.492  10.904 -1.9445 -0.2468 -1.7245
29548TIP3   OH289525   2.714   5.870   0.151 -0.1030 -0.0361  0.2670
29548TIP3    H189526   2.748   5.958   0.169 -0.6859  0.2798 -0.1492
29548TIP3    H289527   2.778   5.811   0.191  0.1299  0.5810  0.8268
29549TIP3   OH289528   7.790   4.180   5.636 -0.2269  0.3973 -0.1503
29549TIP3    H189529   7.759   4.156   5.549 -1.4860 -0.3041  0.4740
29549TIP3    H289530   7.750   4.265   5.654 -0.1617  0.4304 -0.1611
29550TIP3   OH289531   0.567   4.211   0.341 -0.4485 -0.2409 -0.1396
29550TIP3    H189532   0.525   4.277   0.285  0.0847  0.3767  0.1691
29550TIP3    H289533   0.659   4.210   0.312 -0.4754 -0.9412 -0.2190
29551TIP3   OH289534   2.816   8.427  10.814  0.2030 -0.0504  0.3128
29551TIP3    H189535   2.820   8.385  10.728 -0.2736 -0.8619  0.6789
29551TIP3    H289536   2.724   8.450  10.825  0.0356 -0.9978  1.0805
29552TIP3   OH289537  10.169  10.186   3.656  0.6585  0.2316 -0.0079
29552TIP3    H189538  10.166  10.155   3.566 -1.0146 -1.3957  0.5459
29552TIP3    H289539  10.238  10.135   3.697 -1.1821 -1.9517  0.5535
29553TIP3   OH289540   9.799   4.850   2.314 -0.7753 -0.1656 -0.2667
29553TIP3    H189541   9.860   4.827   2.244 -2.1509 -0.7110 -1.3268
29553TIP3    H289542   9.772   4.940   2.294 -0.9342 -0.2105 -0.2564
29554TIP3   OH289543   8.294   2.686   0.407 -0.5101 -0.5522 -0.2179
29554TIP3    H189544   8.285   2.613   0.346  0.3041 -1.9686  1.2790
29554TIP3    H289545   8.384   2.679   0.439  0.0888  1.9942 -1.0697
29555TIP3   OH289546   0.531   4.562   8.460 -0.4252  0.0167  0.8628
29555TIP3    H189547   0.456   4.540   8.514 -0.6401 -0.5738  0.3364
29555TIP3    H289548   0.509   4.647   8.421 -0.4331  0.2611  1.3949
29556TIP3   OH289549   5.050   1.134   9.774 -0.0158 -0.3407 -0.1159
29556TIP3    H189550   5.061   1.225   9.748  0.0246 -0.7735 -1.7786
29556TIP3    H289551   4.986   1.136   9.845  0.0727  0.9874 -0.0596
29557TIP3   OH289552   6.384   4.383  10.310  0.2185  0.3308 -0.1366
29557TIP3    H189553   6.410   4.425  10.228 -0.6453  1.6683  0.2426
29557TIP3    H289554   6.420   4.439  10.378 -0.1799 -0.0516  0.3937
29558TIP3   OH289555   8.100   4.400   1.542 -0.5131 -0.6162 -0.0698
29558TIP3    H189556   8.130   4.490   1.528 -2.1730 -0.1679 -1.0290
29558TIP3    H289557   8.116   4.357   1.458 -0.6974 -0.9223  0.0500
29559TIP3   OH289558   4.173   5.546   2.704  0.0896  0.4225 -0.4121
29559TIP3    H189559   4.203   5.457   2.717 -0.2184  0.4659  0.6601
29559TIP3    H289560   4.077   5.539   2.702 -0.0002  0.8821  1.0766
29560TIP3   OH289561   0.450   5.067   3.093  0.2160  0.0569 -0.0574
29560TIP3    H189562   0.418   4.980   3.070  2.1310 -0.2782 -1.7647
29560TIP3    H289563   0.374   5.124   3.081 -0.5171 -1.0704 -1.0362
29561TIP3   OH289564   1.378   9.251   0.105  0.1308  0.2613  0.3496
29561TIP3    H189565   1.284   9.241   0.117  0.4427 -3.0543  0.9944
29561TIP3    H289566   1.405   9.310   0.176 -1.2998  0.4308  0.7856
29562TIP3   OH289567   8.741   7.731   4.984  0.1424  0.1457 -0.2520
29562TIP3    H189568   8.681   7.742   4.910 -0.9117 -0.8659  0.4211
29562TIP3    H289569   8.740   7.816   5.028 -1.8735 -0.2255  0.5056
29563TIP3   OH289570   5.019   0.867   1.549  0.4833  0.5334  0.2949
29563TIP3    H189571   5.084   0.830   1.609  0.7001 -0.1145 -0.3129
29563TIP3    H289572   5.022   0.809   1.473 -0.7288  0.5663  0.2036
29564TIP3   OH289573   8.107   4.065   3.215 -0.4364 -0.7436  0.0600
29564TIP3    H189574   8.095   4.083   3.308 -0.6860  0.9070 -0.2523
29564TIP3    H289575   8.064   3.980   3.201  0.0149 -1.2404  1.5165
29565TIP3   OH289576  10.877  10.058   0.190  0.9189 -0.7980 -0.0291
29565TIP3    H189577  10.848  10.066   0.280 -0.1146 -0.9698 -0.3373
29565TIP3    H289578  10.914  10.144   0.169  0.4265 -0.4989  0.3111
29566TIP3   OH289579   6.284   3.682   1.941 -0.0221 -0.1817  0.0144
29566TIP3    H189580   6.216   3.614   1.941  0.2228 -0.4325  1.0095
29566TIP3    H289581   6.267   3.731   1.860  0.1031 -1.7310 -1.0101
29567TIP3   OH289582   4.624   1.485   6.970  0.0066 -0.0673 -0.0315
29567TIP3    H189583   4.643   1.426   6.897  0.3871 -0.7233  0.5908
29567TIP3    H289584   4.560   1.438   7.023  0.9810 -0.3066  0.9431
29568TIP3   OH289585   7.323  10.287   3.441  0.3456  0.2152 -0.4598
29568TIP3    H189586   7.356  10.357   3.498  0.0961  1.1918 -1.4906
29568TIP3    H289587   7.271  10.333   3.375  1.6152 -0.7603 -2.1949
29569TIP3   OH289588   2.280   3.128   1.137  0.3498 -0.3741 -0.2259
29569TIP3    H189589   2.359   3.148   1.086  0.9167 -3.6132 -0.8107
29569TIP3    H289590   2.211   3.119   1.072  0.0848 -0.1817  0.0260
29570TIP3   OH289591  10.597   1.449  10.394  0.1927  0.4841  0.2096
29570TIP3    H189592  10.631   1.400  10.469  1.9712  0.5637 -0.4907
29570TIP3    H289593  10.527   1.503  10.430 -0.1867 -0.7817  1.4585
29571TIP3   OH289594   3.357   6.936   1.734  0.6302  0.0090 -0.3226
29571TIP3    H189595   3.365   6.849   1.694 -1.2453 -0.5985  0.4822
29571TIP3    H289596   3.293   6.981   1.678  2.0043  1.1071 -1.0545
29572TIP3   OH289597   1.359   2.433   2.880 -0.4104  0.2293 -0.1162
29572TIP3    H189598   1.372   2.368   2.811 -0.6900 -0.4223  0.4310
29572TIP3    H289599   1.439   2.486   2.878 -0.0619 -0.2943 -0.4032
29573TIP3   OH289600   2.027   6.618   2.938 -0.4784  0.2789 -0.5980
29573TIP3    H189601   2.015   6.530   2.903 -2.2987 -0.0662  0.7363
29573TIP3    H289602   2.118   6.621   2.967 -0.2973 -1.0231 -0.9766
29574TIP3   OH289603   5.456   4.361   5.584  1.0340  0.5621 -0.4747
29574TIP3    H189604   5.378   4.415   5.572  0.2959 -0.1332  1.0106
29574TIP3    H289605   5.493   4.354   5.496 -1.6788 -0.7447 -1.6111
29575TIP3   OH289606   8.068   2.758  10.688  0.2706 -0.1582  0.0373
29575TIP3    H189607   8.105   2.694  10.628 -0.0594  0.9708 -1.4398
29575TIP3    H289608   8.053   2.710  10.769  2.3815 -1.3101 -0.1875
29576TIP3   OH289609   7.449   9.413   1.087 -0.0540  0.5172 -0.6401
29576TIP3    H189610   7.355   9.412   1.069 -0.6020 -0.5485  1.8332
29576TIP3    H289611   7.457   9.457   1.172  1.7748  1.1240 -1.0768
29577TIP3   OH289612   4.936   7.688   2.058 -0.3621  0.0725  0.1017
29577TIP3    H189613   4.977   7.662   1.975  1.4017  1.3854  0.5257
29577TIP3    H289614   4.876   7.616   2.077  0.4218 -1.0720 -1.4631
29578TIP3   OH289615   5.292   1.148   0.130 -0.3859 -0.1011 -0.2105
29578TIP3    H189616   5.276   1.087   0.058  2.3118 -2.5124  1.0247
29578TIP3    H289617   5.326   1.092   0.201  0.5743  2.6323  1.6359
29579TIP3   OH289618   1.701   6.619   5.850  0.0775 -0.0293 -0.0132
29579TIP3    H189619   1.698   6.706   5.811 -0.2643 -0.9802 -2.2437
29579TIP3    H289620   1.784   6.618   5.899  1.7327  0.5366 -2.6000
29580TIP3   OH289621   7.149   8.509   5.907  0.0325  0.1160  0.0246
29580TIP3    H189622   7.068   8.484   5.863  0.8458  0.8010 -1.9572
29580TIP3    H289623   7.218   8.465   5.858  1.0587  1.8366 -0.1494
29581TIP3   OH289624   7.450   0.245   3.154 -0.1330 -0.2391 -0.9529
29581TIP3    H189625   7.389   0.171   3.150  0.0916 -0.6856  1.9286
29581TIP3    H289626   7.402   0.312   3.203  0.4876  0.7145 -1.6259
29582TIP3   OH289627   0.196  10.464   3.581 -0.3135 -0.3817 -0.1804
29582TIP3    H189628   0.175  10.372   3.601 -1.6112  0.0259  0.4293
29582TIP3    H289629   0.277  10.481   3.629 -0.6057 -0.9190  0.5142
29583TIP3   OH289630   6.158   2.775   7.095 -0.3599  0.2262 -0.0552
29583TIP3    H189631   6.209   2.752   7.017 -0.4047 -0.9363  0.2442
29583TIP3    H289632   6.128   2.864   7.078 -0.9894 -0.2580 -1.7111
29584TIP3   OH289633   0.433  10.227   9.635  0.8979  0.3886 -0.0564
29584TIP3    H189634   0.352  10.185   9.664  1.8826 -2.0023 -0.5544
29584TIP3    H289635   0.437  10.308   9.686 -1.0187 -0.1818  1.1219
29585TIP3   OH289636   8.024   7.242   9.922 -0.7154  0.2757 -0.5523
29585TIP3    H189637   8.046   7.169   9.980 -0.9726  0.1511 -0.6075
29585TIP3    H289638   8.073   7.316   9.957  1.2670 -0.3872 -1.7673
29586TIP3   OH289639  10.713   9.711   6.227 -0.7545 -0.1002  0.2205
29586TIP3    H189640  10.695   9.641   6.290 -1.9050 -0.5220 -0.5413
29586TIP3    H289641  10.800   9.691   6.193 -0.4448 -0.2922  1.1242
29587TIP3   OH289642   8.939   9.645   9.013  0.1545  0.3539 -0.0817
29587TIP3    H189643   8.909   9.554   9.007 -0.3036  0.4296  0.7839
29587TIP3    H289644   8.971   9.666   8.926  0.7672 -0.8133 -0.1609
29588TIP3   OH289645   0.029   1.475   7.754 -0.5752 -0.4328  0.7341
29588TIP3    H189646   0.089   1.470   7.679  0.2769  0.1870  1.3574
29588TIP3    H289647  -0.056   1.496   7.715 -0.7718 -2.9028 -0.3263
29589TIP3   OH289648   2.012   2.217   1.936  0.3795 -0.5231 -0.4896
29589TIP3    H189649   1.924   2.191   1.964  0.8129 -1.9077 -0.3299
29589TIP3    H289650   2.044   2.142   1.886  1.1865  0.2789 -1.1998
29590TIP3   OH289651   3.636   9.572   4.990 -0.1427 -0.1686  0.3032
29590TIP3    H189652   3.580   9.638   4.950 -2.8820 -2.0577  0.7653
29590TIP3    H289653   3.632   9.497   4.930 -0.7243 -1.4608  1.8904
29591TIP3   OH289654  10.653  10.591   9.110 -0.2366 -0.1845 -0.0088
29591TIP3    H189655  10.739  10.624   9.138 -0.3784 -0.1274  0.3563
29591TIP3    H289656  10.591  10.655   9.143 -0.3601  0.2708 -1.0630
29592TIP3   OH289657   1.163   4.335   7.888  0.6973 -0.0806  0.1194
29592TIP3    H189658   1.094   4.393   7.919  1.2697  0.3037  0.7107
29592TIP3    H289659   1.132   4.247   7.909 -0.1699  0.0050 -0.7675
29593TIP3   OH289660   7.574   2.432   9.607 -0.1216 -0.1746  0.6816
29593TIP3    H189661   7.543   2.364   9.667 -1.6776  1.1640  1.4513
29593TIP3    H289662   7.609   2.383   9.532 -2.3203 -1.8375  0.6549
29594TIP3   OH289663   8.665   0.726   9.882 -0.2753  0.0377 -0.4898
29594TIP3    H189664   8.597   0.665   9.912  1.1626 -0.9811  0.8242
29594TIP3    H289665   8.675   0.787   9.954 -1.1403  1.4030 -1.4817
29595TIP3   OH289666   1.579   4.696   8.184  0.6963 -0.1740  0.6535
29595TIP3    H189667   1.491   4.688   8.221  0.9368 -1.8377  0.9461
29595TIP3    H289668   1.602   4.607   8.158  3.1365 -0.2096  2.5732
29596TIP3   OH289669   2.651   2.681   1.261 -0.6011  0.2319 -0.0415
29596TIP3    H189670   2.617   2.695   1.173 -0.4553  0.9209  0.0071
29596TIP3    H289671   2.746   2.671   1.249 -0.6271 -0.0714 -0.0032
29597TIP3   OH289672   6.124  10.247   3.488  0.1183  0.1529 -0.2029
29597TIP3    H189673   6.071  10.215   3.415  0.2696  0.0361 -0.2611
29597TIP3    H289674   6.061  10.264   3.557  0.1217 -1.0625  0.1192
29598TIP3   OH289675  10.148   4.180   9.590 -0.6776 -0.1213  0.4395
29598TIP3    H189676  10.128   4.185   9.497 -1.2216 -1.5421  0.4577
29598TIP3    H289677  10.193   4.263   9.609 -1.2297  0.5252 -0.9044
29599TIP3   OH289678   6.597  10.263   2.088  0.0906 -0.6790 -0.0110
29599TIP3    H189679   6.537  10.278   2.016 -1.6437 -2.5192  0.9507
29599TIP3    H289680   6.655  10.193   2.058 -0.6868 -1.5056  0.3685
29600TIP3   OH289681   5.559   2.980   8.211  0.4988 -0.3731  0.3689
29600TIP3    H189682   5.499   3.053   8.225  1.8675  0.7686  0.4721
29600TIP3    H289683   5.589   2.957   8.299  0.3302 -0.8561  0.3040
29601TIP3   OH289684   4.512   6.265  10.233  0.2104 -0.0017 -0.1199
29601TIP3    H189685   4.512   6.234  10.323  0.2301 -0.2346 -0.2007
29601TIP3    H289686   4.550   6.194  10.182 -0.0617  0.0152 -0.3533
29602TIP3   OH289687   2.616   6.733   1.844 -0.1713 -0.4376 -0.6295
29602TIP3    H189688   2.615   6.655   1.788  2.0687  0.0699 -1.5103
29602TIP3    H289689   2.705   6.735   1.881  0.0800  2.0327 -1.1718
29603TIP3   OH289690   3.139   7.404   4.621  0.7540 -0.0779 -0.1976
29603TIP3    H189691   3.137   7.393   4.716 -1.6803  1.8679  0.0897
29603TIP3    H289692   3.214   7.460   4.604  0.3170  0.8351  0.7997
29604TIP3   OH289693   0.722   9.304   2.112  0.0420  0.0842 -0.2953
29604TIP3    H189694   0.737   9.346   2.197  0.9480 -1.2966  0.2552
29604TIP3    H289695   0.803   9.318   2.064  0.8733 -2.0162  0.3616
29605TIP3   OH289696   7.510   0.596   6.028 -0.3376  0.1063 -0.7957
29605TIP3    H189697   7.462   0.644   5.960  2.4314  0.4728 -2.6257
29605TIP3    H289698   7.567   0.662   6.068  1.2377 -0.9914 -1.1601
29606TIP3   OH289699   2.720   7.404   2.863  0.4010  0.1053  0.1069
29606TIP3    H189700   2.758   7.403   2.775  2.0243  0.4222  0.7657
29606TIP3    H289701   2.796   7.405   2.921 -0.5672 -3.3111  1.6235
29607TIP3   OH289702   2.553   8.170   3.673 -0.5224 -0.1902  0.4579
29607TIP3    H189703   2.625   8.111   3.694  0.0483  0.0449 -0.8017
29607TIP3    H289704   2.486   8.114   3.634  0.7195  0.1705 -2.4155
29608TIP3   OH289705   2.241  10.206   1.315  0.3012 -0.2435  0.4148
29608TIP3    H189706   2.146  10.220   1.319  0.1360 -1.5553  1.9318
29608TIP3    H289707   2.275  10.253   1.390  0.9339  0.5984 -0.3775
29609TIP3   OH289708  10.072   5.670   3.263 -0.4060 -0.6457 -0.7398
29609TIP3    H189709  10.016   5.725   3.317 -0.1719 -1.4393  0.3583
29609TIP3    H289710  10.122   5.618   3.326 -0.4804 -1.9749 -1.7283
29610TIP3   OH289711   2.058   3.583  10.390 -0.2103 -0.5843 -0.2608
29610TIP3    H189712   1.998   3.521  10.430  0.5756 -0.4468  1.1997
29610TIP3    H289713   2.130   3.530  10.356  0.1132 -0.5400  0.3469
29611TIP3   OH289714   6.348  10.004   6.659 -0.3327 -0.8590 -0.0853
29611TIP3    H189715   6.442  10.018   6.647 -0.1071 -0.9916  1.3397
29611TIP3    H289716   6.316  10.086   6.697 -0.6748 -1.0275 -0.0055
29612TIP3   OH289717   9.957   2.003   7.947 -0.2920 -0.5947 -0.1434
29612TIP3    H189718  10.002   2.064   7.888 -2.5080  1.4359  0.0732
29612TIP3    H289719   9.957   2.048   8.032 -0.3670 -1.7863  0.5061
29613TIP3   OH289720   0.065   6.748  10.405 -0.3350  0.0020  0.1610
29613TIP3    H189721  -0.016   6.719  10.448 -0.0992 -0.5299  0.2575
29613TIP3    H289722   0.086   6.831  10.448 -0.3202 -0.3277  0.8069
29614TIP3   OH289723   3.468   1.627   3.444 -0.1415  0.1375  0.7731
29614TIP3    H189724   3.536   1.626   3.376  0.3140 -0.6605  1.2172
29614TIP3    H289725   3.405   1.692   3.415  1.2635  1.5552  0.7793
29615TIP3   OH289726  10.323   6.214   6.435 -0.2424 -0.1068 -0.4867
29615TIP3    H189727  10.273   6.141   6.469 -0.2595 -1.7138 -3.5768
29615TIP3    H289728  10.414   6.183   6.434 -0.0865  0.3451 -0.7551
29616TIP3   OH289729   4.090   9.139   8.864  0.3417  0.9260 -0.4008
29616TIP3    H189730   4.073   9.218   8.915  0.0599  0.2493  0.5878
29616TIP3    H289731   4.042   9.152   8.782 -0.6974  1.2616  0.2485
29617TIP3   OH289732   6.404  10.002   5.484 -0.4199 -0.3477  0.0785
29617TIP3    H189733   6.444   9.951   5.554 -0.2293  0.0547  0.2672
29617TIP3    H289734   6.477  10.021   5.424 -0.7673 -1.5700 -0.7867
29618TIP3   OH289735  10.074   6.432   4.633 -0.2649  0.4439  0.1951
29618TIP3    H189736  10.142   6.416   4.567  0.4569  1.7997  0.5608
29618TIP3    H289737   9.993   6.433   4.584  0.0294 -0.6729 -0.3383
29619TIP3   OH289738   8.662   3.651   6.019  0.3183  0.1334 -0.4645
29619TIP3    H189739   8.668   3.656   6.114  0.8933  1.3212 -0.5440
29619TIP3    H289740   8.591   3.711   5.996  0.5934  0.3263 -0.8194
29620TIP3   OH289741   5.457   3.453   0.309  0.2832  0.5212  0.4830
29620TIP3    H189742   5.533   3.417   0.264 -0.2245  0.3653 -0.2790
29620TIP3    H289743   5.442   3.538   0.268  0.2590  0.7104  0.8781
29621TIP3   OH289744   0.825   4.711   1.471 -0.2542  0.2819 -0.3047
29621TIP3    H189745   0.886   4.753   1.532 -0.8777 -1.3622  1.5563
29621TIP3    H289746   0.881   4.666   1.409  0.4188  2.9305 -1.7960
29622TIP3   OH289747   7.704   7.570   6.738 -0.1319  0.1436 -0.4749
29622TIP3    H189748   7.786   7.552   6.691  1.0972  0.9511  1.2483
29622TIP3    H289749   7.724   7.552   6.829 -1.3141  2.0833  0.2387
29623TIP3   OH289750   6.257   2.963   6.644  0.0334 -0.4674 -0.0048
29623TIP3    H189751   6.301   2.930   6.722 -0.2237 -0.4223  0.1590
29623TIP3    H289752   6.176   2.914   6.640 -1.6868  1.9853  1.7842
29624TIP3   OH289753   9.212   4.994   9.055 -0.2029 -0.5537  0.1688
29624TIP3    H189754   9.201   5.018   9.147 -1.0861  1.9415 -0.4891
29624TIP3    H289755   9.133   4.945   9.033  0.2644 -1.6346  0.8493
29625TIP3   OH289756   0.961   0.622   3.786  0.2441 -0.0089  0.3531
29625TIP3    H189757   0.997   0.705   3.818  3.1009 -1.0045  0.0277
29625TIP3    H289758   0.957   0.633   3.691 -0.2839  0.0503  0.3771
29626TIP3   OH289759   2.022   1.338   1.034  0.0980  0.1071 -0.3245
29626TIP3    H189760   2.022   1.260   0.979  1.2075 -0.7649  0.8313
29626TIP3    H289761   1.939   1.334   1.081 -0.4087  0.3229 -1.1850
29627TIP3   OH289762   2.974   4.979   3.095  0.3638 -0.1607 -0.3130
29627TIP3    H189763   3.054   5.002   3.143 -0.0205  0.4982  0.0238
29627TIP3    H289764   2.948   4.894   3.131  1.5297 -0.9638 -1.2316
29628TIP3   OH289765   1.872   7.632   5.691 -0.0347  0.2650  0.3037
29628TIP3    H189766   1.811   7.684   5.743  0.5199  1.6453 -0.3874
29628TIP3    H289767   1.891   7.686   5.614  1.2348 -0.5828 -0.0164
29629TIP3   OH289768   2.452   2.101   5.462 -0.6159  0.0135 -0.0492
29629TIP3    H189769   2.473   2.033   5.397 -3.9344 -1.8628  0.6153
29629TIP3    H289770   2.433   2.052   5.542  0.6093  2.0821  1.6113
29630TIP3   OH289771   5.504   9.104   9.758  0.4251 -0.2878  0.2161
29630TIP3    H189772   5.466   9.055   9.685  2.2663 -1.4920  0.0085
29630TIP3    H289773   5.439   9.096   9.828 -0.9587  0.1270 -0.9518
29631TIP3   OH289774   3.525   3.311   1.504  0.3428 -0.2204 -0.2003
29631TIP3    H189775   3.528   3.396   1.548  0.0672 -1.3079  2.0611
29631TIP3    H289776   3.616   3.282   1.500  0.7170  1.0324 -2.9209
29632TIP3   OH289777   9.571   0.873   0.556 -0.9634  0.6990  0.3120
29632TIP3    H189778   9.481   0.841   0.567 -1.8110  2.2103 -1.6682
29632TIP3    H289779   9.561   0.967   0.546  0.5246  0.6533 -2.5503
29633TIP3   OH289780   6.900   7.304   5.351 -0.1765  0.1412  0.1290
29633TIP3    H189781   6.846   7.382   5.367 -3.1106 -1.8773  0.8070
29633TIP3    H289782   6.956   7.328   5.277 -3.6591  1.6931 -2.2358
29634TIP3   OH289783   4.368   9.836   0.256 -0.5286  0.1012 -0.6848
29634TIP3    H189784   4.314   9.840   0.178  0.8617  0.8765 -1.6575
29634TIP3    H289785   4.454   9.868   0.227  0.6291 -1.6323  0.6177
29635TIP3   OH289786   7.870   4.315   2.961 -0.0792  0.2166  1.2167
29635TIP3    H189787   7.952   4.310   2.913 -0.1515  0.3920  1.0739
29635TIP3    H289788   7.818   4.379   2.913  0.2486  1.2006  2.1138
29636TIP3   OH289789   4.080   9.999   0.428  0.5645 -0.0314 -0.5350
29636TIP3    H189790   4.149  10.058   0.398  0.5051 -0.2543 -1.1437
29636TIP3    H289791   4.037   9.970   0.347 -1.4368  1.5191 -0.1176
29637TIP3   OH289792   6.211  10.249   0.592  0.4874 -0.5116  0.1736
29637TIP3    H189793   6.281  10.207   0.541  2.0024  1.4647  0.4889
29637TIP3    H289794   6.255  10.283   0.670 -1.1715 -0.6167  1.1932
29638TIP3   OH289795   4.217   9.446   1.629 -0.1385 -0.0488  0.1765
29638TIP3    H189796   4.224   9.351   1.627 -0.7032 -0.0872 -1.2699
29638TIP3    H289797   4.134   9.463   1.674  0.1566 -0.2185  0.7917
29639TIP3   OH289798   6.044   5.203   6.441 -0.0299  0.3423 -0.1705
29639TIP3    H189799   5.987   5.277   6.463  0.2565  0.0519  1.6722
29639TIP3    H289800   5.986   5.141   6.397 -0.4679  1.2628 -0.9450
29640TIP3   OH289801   5.517   4.109   3.796 -0.1635 -0.3301 -0.1662
29640TIP3    H189802   5.577   4.051   3.748  0.7573  0.4966 -0.0408
29640TIP3    H289803   5.504   4.184   3.738  1.2860  0.8783  0.9705
29641TIP3   OH289804   7.728   3.356   1.041  0.0625 -0.4039 -0.0019
29641TIP3    H189805   7.649   3.305   1.060  0.7571 -0.9042  1.7943
29641TIP3    H289806   7.719   3.435   1.094  0.3774 -0.0609 -0.4516
29642TIP3   OH289807   5.297   8.409  10.204 -0.2654  0.0435  0.3810
29642TIP3    H189808   5.257   8.438  10.286 -1.4520 -1.7244  0.4650
29642TIP3    H289809   5.225   8.408  10.141  0.3767  0.1467 -0.3720
29643TIP3   OH289810  10.426   2.898   5.592  0.3249 -0.0099  0.0817
29643TIP3    H189811  10.432   2.962   5.521 -0.5620  1.0671  0.9478
29643TIP3    H289812  10.335   2.868   5.589  0.6708 -1.0535 -0.1574
29644TIP3   OH289813   1.783   0.137   2.848 -0.5099 -0.1565  0.3395
29644TIP3    H189814   1.793   0.216   2.795 -0.4525  0.1279  0.7610
29644TIP3    H289815   1.817   0.067   2.794 -1.7390 -0.1005 -0.5504
29645TIP3   OH289816   0.979   9.336   2.001  0.0396 -0.3289 -0.7065
29645TIP3    H189817   1.005   9.283   1.926  2.0569 -1.4686  0.6965
29645TIP3    H289818   1.053   9.331   2.061 -2.3738 -1.5329  2.4834
29646TIP3   OH289819   6.983   9.432   4.713 -0.7347 -0.6435 -0.3403
29646TIP3    H189820   7.046   9.379   4.665 -1.2856 -2.5206  0.9019
29646TIP3    H289821   7.036   9.502   4.752  0.4460 -1.6527 -0.0561
29647TIP3   OH289822   0.873  10.607   8.518  0.1351  0.0657  0.1064
29647TIP3    H189823   0.924  10.591   8.597 -1.9090 -0.7583  1.3287
29647TIP3    H289824   0.786  10.574   8.538 -0.7404  0.8169 -2.1233
29648TIP3   OH289825   0.636   9.220   8.506  0.0333  0.5343  0.1852
29648TIP3    H189826   0.561   9.199   8.450 -1.6406  1.1457  2.1030
29648TIP3    H289827   0.671   9.301   8.469 -2.2909  2.0496  1.0763
29649TIP3   OH289828   5.628   4.099   7.785  0.6299 -0.0462  0.0276
29649TIP3    H189829   5.656   4.071   7.873 -0.9739 -0.3481  0.4689
29649TIP3    H289830   5.686   4.172   7.764  1.9753 -0.8599  0.7326
29650TIP3   OH289831   0.789   6.669   2.379 -0.0229 -0.1879 -0.3914
29650TIP3    H189832   0.757   6.696   2.465 -0.5696 -0.5390 -0.4835
29650TIP3    H289833   0.879   6.701   2.376  0.2107 -0.7303  0.5641
29651TIP3   OH289834  10.153   8.461   4.489 -0.4011  0.4947  0.1024
29651TIP3    H189835  10.098   8.464   4.567 -1.4964  0.5956 -0.6501
29651TIP3    H289836  10.156   8.368   4.466 -0.1811  0.4811  0.1780
29652TIP3   OH289837   3.939   3.085  10.033 -0.0730 -0.0225  0.0971
29652TIP3    H189838   3.895   3.154   9.983  1.1160  2.3619  2.1589
29652TIP3    H289839   4.032   3.102  10.020  0.2510 -1.1278  0.8501
29653TIP3   OH289840   9.833   3.855   6.441  0.0832  0.0672 -0.4011
29653TIP3    H189841   9.881   3.792   6.388 -0.3232  1.4081 -2.4844
29653TIP3    H289842   9.897   3.923   6.461 -0.6738  1.5567 -2.6721
29654TIP3   OH289843   4.894   5.402   7.554  0.2293  0.7387 -0.0464
29654TIP3    H189844   4.800   5.391   7.573  0.0246 -0.1585 -1.4322
29654TIP3    H289845   4.930   5.314   7.565  0.8857  1.0435  0.2828
29655TIP3   OH289846   7.484   5.608   6.268  0.2505  0.4040 -0.0041
29655TIP3    H189847   7.412   5.668   6.286  1.3822  1.7798  0.0709
29655TIP3    H289848   7.483   5.548   6.343 -2.1378 -0.9931 -1.0540
29656TIP3   OH289849   8.947   1.827   9.457 -0.1083  0.6310  0.4796
29656TIP3    H189850   8.881   1.866   9.400  0.3035 -2.2656 -2.3278
29656TIP3    H289851   9.030   1.852   9.418  0.1929 -1.1293 -0.1332
29657TIP3   OH289852   3.049   2.221   0.268 -0.2900 -0.0158 -0.6239
29657TIP3    H189853   3.027   2.154   0.204  0.7873 -1.8621  0.8587
29657TIP3    H289854   3.001   2.197   0.347  2.8516 -1.2246  1.0680
29658TIP3   OH289855   9.154   0.639   8.871  0.4603 -0.8359  1.0026
29658TIP3    H189856   9.142   0.696   8.947 -1.3508 -0.6735  0.6550
29658TIP3    H289857   9.085   0.665   8.810  1.7153 -1.1193 -0.6227
29659TIP3   OH289858   9.507   4.374   6.279  0.5441 -0.7791 -0.0707
29659TIP3    H189859   9.516   4.316   6.204 -1.5677 -1.2750  0.0006
29659TIP3    H289860   9.422   4.352   6.317 -0.0754  1.9163  0.3490
29660TIP3   OH289861   7.831   4.810   4.910  0.7951 -0.6460  0.3678
29660TIP3    H189862   7.906   4.805   4.969  1.7536  1.0545 -0.6385
29660TIP3    H289863   7.826   4.902   4.885 -2.2752 -0.4713  1.1844
29661TIP3   OH289864   2.483   1.897   6.076 -0.2835 -0.0805 -0.0574
29661TIP3    H189865   2.563   1.925   6.120  0.3998 -0.9932 -0.6907
29661TIP3    H289866   2.428   1.975   6.076  1.2050  1.0202 -0.9773
29662TIP3   OH289867  10.786   3.422   7.924 -0.2542  0.1088  0.5204
29662TIP3    H189868  10.719   3.416   7.856 -0.4929 -1.9647  0.8908
29662TIP3    H289869  10.738   3.442   8.004 -0.4343 -1.0965  0.7325
29663TIP3   OH289870   1.720   8.545   4.949  0.2122 -0.6852 -0.2558
29663TIP3    H189871   1.803   8.574   4.986 -0.7235  1.9471 -0.0105
29663TIP3    H289872   1.741   8.519   4.859  1.2977 -0.1591 -0.1617
29664TIP3   OH289873   0.032   8.896   6.898  0.0645 -0.2286  0.0976
29664TIP3    H189874   0.053   8.821   6.952 -3.6452 -1.2965  0.3378
29664TIP3    H289875  -0.001   8.962   6.960 -2.7012 -0.8685 -0.5825
29665TIP3   OH289876   3.885   0.876   5.829 -0.5745 -0.0182  0.0650
29665TIP3    H189877   3.947   0.946   5.808 -0.7474  0.3176  0.6389
29665TIP3    H289878   3.931   0.822   5.893 -1.2853  0.9021  1.4012
29666TIP3   OH289879   1.652   7.674   0.652 -0.2493 -0.5181  0.1292
29666TIP3    H189880   1.700   7.616   0.712  0.0613 -0.4396 -0.0479
29666TIP3    H289881   1.560   7.661   0.676 -0.2293 -1.5231 -0.2849
29667TIP3   OH289882   0.623   5.660   6.697 -0.3716  0.6604  0.2088
29667TIP3    H189883   0.648   5.609   6.620  0.6923 -0.7304  1.4340
29667TIP3    H289884   0.705   5.698   6.729 -0.7419  0.9565  0.8285
29668TIP3   OH289885   4.115   5.478   7.607  0.4232  0.2426 -0.0590
29668TIP3    H189886   4.093   5.512   7.694 -0.6816  0.1740 -0.2934
29668TIP3    H289887   4.103   5.553   7.549  1.4813  0.3793 -0.1277
29669TIP3   OH289888  10.833   5.886   1.443 -0.5235  0.2189  0.3856
29669TIP3    H189889  10.817   5.880   1.537  2.5741  0.4753  1.0539
29669TIP3    H289890  10.860   5.797   1.418 -0.3379  0.3850 -0.0167
29670TIP3   OH289891   8.587   8.913   5.159 -0.7596 -0.3381  0.6271
29670TIP3    H189892   8.583   8.903   5.254  0.0831 -1.2958  0.5896
29670TIP3    H289893   8.616   8.827   5.128  0.2924  0.3471 -0.3797
29671TIP3   OH289894   8.120   7.730   6.153 -0.4673 -0.2559 -0.1934
29671TIP3    H189895   8.069   7.661   6.110  2.4456 -2.0912 -0.9803
29671TIP3    H289896   8.142   7.693   6.239 -0.8524  0.7300  0.3423
29672TIP3   OH289897   0.315   7.410   0.719 -0.4513  0.2283  0.0257
29672TIP3    H189898   0.409   7.428   0.718 -0.3887  0.5290  2.9988
29672TIP3    H289899   0.274   7.496   0.710 -0.4041  0.3092  0.5773
29673TIP3   OH289900   5.734   3.234   5.838 -0.5576 -0.4043 -0.3070
29673TIP3    H189901   5.643   3.237   5.810 -0.4009 -0.2260 -0.8100
29673TIP3    H289902   5.784   3.247   5.757 -0.0950 -0.1182  0.0217
29674TIP3   OH289903   9.459   6.461   0.206  0.5453 -0.0588 -0.0287
29674TIP3    H189904   9.400   6.514   0.153  1.2633 -0.7513 -1.6043
29674TIP3    H289905   9.402   6.414   0.267 -0.3591  0.4313 -0.4866
29675TIP3   OH289906   3.683   6.734   2.101  0.6824  0.2762 -0.2308
29675TIP3    H189907   3.669   6.795   2.028 -3.2393 -0.4117 -0.2660
29675TIP3    H289908   3.607   6.747   2.158  0.7863 -3.0760  0.8772
29676TIP3   OH289909   1.899   7.856   2.977 -0.5697 -0.2885 -0.3904
29676TIP3    H189910   1.822   7.885   3.027 -0.5433 -0.2236 -0.3878
29676TIP3    H289911   1.937   7.936   2.942 -1.4807 -0.4579 -1.8288
29677TIP3   OH289912  10.505   6.235   4.126 -0.8174 -1.0429  0.2016
29677TIP3    H189913  10.547   6.227   4.211 -0.0322 -1.7211 -0.2336
29677TIP3    H289914  10.460   6.151   4.113  0.0303 -1.3994 -0.5364
29678TIP3   OH289915   5.411   8.075   6.151 -0.0430  0.9791  0.0771
29678TIP3    H189916   5.403   8.164   6.187 -1.0038  0.9257  0.0145
29678TIP3    H289917   5.335   8.028   6.186  0.2198  0.2982 -0.2454
29679TIP3   OH289918   7.075   9.874   8.390  0.2257  0.3666 -0.0498
29679TIP3    H189919   7.158   9.896   8.432  0.4127 -0.6970  0.1563
29679TIP3    H289920   7.098   9.813   8.320 -0.5499 -1.5555  1.2893
29680TIP3   OH289921  10.536   9.990   9.580 -0.5158 -0.4947 -0.2404
29680TIP3    H189922  10.486  10.070   9.592 -0.2613 -0.3843  0.1027
29680TIP3    H289923  10.538   9.950   9.667  0.2766 -0.3249 -0.1772
29681TIP3   OH289924   9.628   8.687   9.567  0.0997  0.6187  0.0703
29681TIP3    H189925   9.608   8.747   9.640 -0.8241 -1.5323  1.6767
29681TIP3    H289926   9.545   8.677   9.521 -0.0850 -0.4387  0.6165
29682TIP3   OH289927   7.840   4.844   1.183  0.5564 -0.6221 -0.1491
29682TIP3    H189928   7.784   4.871   1.110  1.7069 -1.8162 -1.5604
29682TIP3    H289929   7.895   4.920   1.201 -0.1478 -0.1164 -0.1161
29683TIP3   OH289930   2.644   0.726   6.569 -0.1786 -0.0202  0.0780
29683TIP3    H189931   2.677   0.811   6.541  0.8300 -0.6801 -0.8028
29683TIP3    H289932   2.718   0.686   6.615 -1.0486  0.0726  1.6416
29684TIP3   OH289933   6.706   0.420   2.577  0.1751  0.0111 -0.4231
29684TIP3    H189934   6.737   0.415   2.668  0.0976  1.3669 -0.2958
29684TIP3    H289935   6.663   0.336   2.562  0.2069 -0.2510  0.7976
29685TIP3   OH289936   4.057   6.942   2.868 -0.3535  0.6977  0.6152
29685TIP3    H189937   4.045   7.035   2.887  0.9226  0.7969  1.0089
29685TIP3    H289938   4.093   6.940   2.780  0.1931  0.6100  0.8398
29686TIP3   OH289939  10.168   0.738   9.445  0.2366 -0.1322 -0.2937
29686TIP3    H189940  10.095   0.800   9.451  0.6425  0.2289  4.3885
29686TIP3    H289941  10.242   0.784   9.482  1.6958 -2.0553 -0.6420
29687TIP3   OH289942   0.422   3.475   2.149 -0.2624 -0.6645  0.5626
29687TIP3    H189943   0.482   3.546   2.173 -0.5654 -0.6336  1.2590
29687TIP3    H289944   0.457   3.441   2.067  1.0206 -0.9911  1.2035
29688TIP3   OH289945   4.261   2.037  10.111 -0.0776 -0.3145 -0.0868
29688TIP3    H189946   4.221   2.102  10.052 -0.0269 -0.1637  0.0440
29688TIP3    H289947   4.352   2.033  10.084  0.1315  0.3363  0.4908
29689TIP3   OH289948   8.939   0.521   2.451 -0.2522 -0.2548  0.1926
29689TIP3    H189949   9.027   0.485   2.465  1.3139  2.8695 -0.6887
29689TIP3    H289950   8.923   0.575   2.529 -1.5139 -0.9277  0.4290
29690TIP3   OH289951   5.062   2.000   6.379 -0.2743 -0.5440 -0.1545
29690TIP3    H189952   5.050   2.067   6.312  0.0764 -1.2976 -0.9918
29690TIP3    H289953   5.154   2.008   6.405 -0.0114 -1.2300 -0.8499
29691TIP3   OH289954   7.727   3.549   4.996  0.3218 -0.7533  0.3608
29691TIP3    H189955   7.674   3.624   5.024 -0.6184  0.2214 -3.4854
29691TIP3    H289956   7.664   3.477   4.992 -0.2838 -0.1661 -1.8985
29692TIP3   OH289957   4.257  10.636   4.558  0.4067  0.6082 -0.9268
29692TIP3    H189958   4.327  10.660   4.497  1.9416  0.3505  0.6875
29692TIP3    H289959   4.248  10.541   4.548  1.4227  0.4020  0.0124
29693TIP3   OH289960   7.793   2.910   1.513  0.0975 -0.4119 -0.3624
29693TIP3    H189961   7.882   2.882   1.492  0.3503  0.8287 -1.0384
29693TIP3    H289962   7.757   2.938   1.429 -1.6712 -2.8036 -0.4804
29694TIP3   OH289963   9.261   4.670   8.644  0.1951  0.4947  0.6188
29694TIP3    H189964   9.345   4.636   8.615 -0.3922  1.3610 -2.3528
29694TIP3    H289965   9.281   4.721   8.722  2.6307  1.6293 -0.6600
29695TIP3   OH289966   0.772  10.648   0.861 -0.1106  0.3914 -0.2045
29695TIP3    H189967   0.830  10.590   0.909 -0.7635 -0.7448 -0.7397
29695TIP3    H289968   0.831  10.706   0.812  0.5473  0.4013  0.5751
29696TIP3   OH289969  10.158   1.093   4.249  0.1499 -0.5682 -0.1924
29696TIP3    H189970  10.171   1.127   4.337 -1.8275  0.9687 -0.4169
29696TIP3    H289971  10.150   0.998   4.261  1.2385 -0.5290  1.0689
29697TIP3   OH289972   1.335   7.200   2.443 -0.0127 -0.0347  0.0551
29697TIP3    H189973   1.383   7.118   2.453 -1.6231 -1.2197 -1.2283
29697TIP3    H289974   1.352   7.228   2.354 -1.1625 -0.1655 -0.2307
29698TIP3   OH289975   7.290  10.664   6.622  0.2065 -0.2116  0.4381
29698TIP3    H189976   7.365  10.710   6.585 -2.0159  2.3675 -1.1987
29698TIP3    H289977   7.279  10.588   6.566  0.6075  0.2896 -0.3314
29699TIP3   OH289978   2.977   2.103   2.190  0.2100  0.4645  0.0012
29699TIP3    H189979   2.979   2.103   2.286  1.9228  1.0460  0.0091
29699TIP3    H289980   3.000   2.193   2.167 -0.8980  0.5138 -0.9683
29700TIP3   OH289981  10.104   2.191   5.312  0.1431  0.9828  0.2550
29700TIP3    H189982  10.143   2.104   5.323  0.7536  1.0734 -1.0540
29700TIP3    H289983  10.033   2.194   5.376 -0.4909 -0.8265 -0.3170
29701TIP3   OH289984  10.807  10.644   1.682  0.4620 -0.3752  0.5780
29701TIP3    H189985  10.810  10.653   1.586 -1.1841 -0.2399  0.5139
29701TIP3    H289986  10.839  10.555   1.699  0.9344 -0.3407 -0.0762
29702TIP3   OH289987   4.169   0.835   3.653  0.2781  0.0159  0.0799
29702TIP3    H189988   4.240   0.775   3.675 -0.5018 -1.3819 -1.0441
29702TIP3    H289989   4.126   0.853   3.736  0.8221 -0.6127  0.5064
29703TIP3   OH289990   8.620   0.480   8.878  0.0985  0.2627 -0.2109
29703TIP3    H189991   8.540   0.428   8.868  1.0767 -1.5708  0.9474
29703TIP3    H289992   8.685   0.418   8.912  1.3886  2.2134  1.0794
29704TIP3   OH289993   9.155   4.129   5.155  0.3295  0.0459 -0.2664
29704TIP3    H189994   9.202   4.054   5.192  0.2451  0.0202 -0.2104
29704TIP3    H289995   9.134   4.103   5.066  0.2729 -0.0102 -0.2370
29705TIP3   OH289996   2.902   5.634   9.160  0.3087  0.0319  0.3686
29705TIP3    H189997   2.950   5.717   9.168 -0.0461  0.2327  0.4318
29705TIP3    H289998   2.822   5.648   9.209 -0.0583 -0.1209 -0.1770
29706TIP3   OH289999   5.151   4.024   1.103 -0.3730 -0.1425 -0.5544
29706TIP3    H190000   5.245   4.027   1.088 -0.1017  0.0230  1.0210
29706TIP3    H290001   5.122   3.943   1.060  0.9325 -1.5762  1.1011
29707TIP3   OH290002   0.771   6.787   5.523 -0.4995  0.3602 -1.0565
29707TIP3    H190003   0.771   6.734   5.443 -0.4518 -1.8770  0.3648
29707TIP3    H290004   0.863   6.807   5.538 -0.3997 -0.1731 -0.9517
29708TIP3   OH290005   1.874   0.218   9.384 -0.2235 -0.1492 -0.5047
29708TIP3    H190006   1.787   0.190   9.412 -0.3831 -0.3720 -1.2076
29708TIP3    H290007   1.911   0.262   9.461  0.7461 -3.7152  1.3008
29709TIP3   OH290008   5.226   1.859   9.666  0.1270  0.5713  1.1190
29709TIP3    H190009   5.169   1.824   9.597  1.5077 -0.3316  0.3992
29709TIP3    H290010   5.181   1.938   9.696  0.1619  1.7926 -1.7915
29710TIP3   OH290011  10.410   3.189   1.713 -0.4219 -0.2472 -0.1416
29710TIP3    H190012  10.358   3.185   1.633 -1.8702  2.3986  0.5278
29710TIP3    H290013  10.489   3.236   1.688  0.4473 -1.8668 -0.5629
29711TIP3   OH290014   9.360   2.949   1.852 -0.6596  0.1858 -0.2206
29711TIP3    H190015   9.423   2.900   1.799 -0.4514  0.0621  0.1397
29711TIP3    H290016   9.365   2.909   1.938  0.2586  1.4724  0.3633
29712TIP3   OH290017   4.492   2.927   7.954  0.3311  0.2222 -0.4967
29712TIP3    H190018   4.480   2.835   7.976 -0.3046 -0.2788 -2.6354
29712TIP3    H290019   4.462   2.975   8.031 -2.5566 -1.3125 -0.5085
29713TIP3   OH290020   8.996   2.232   1.821  0.1366  0.3976  0.3417
29713TIP3    H190021   9.034   2.282   1.894  1.0446  1.1721 -0.6204
29713TIP3    H290022   9.016   2.141   1.841  1.1272  0.6727  0.6577
29714TIP3   OH290023   4.044   4.140   3.641  0.0861 -0.0434  0.0305
29714TIP3    H190024   3.989   4.066   3.663 -2.4252  1.2000 -1.5950
29714TIP3    H290025   4.118   4.101   3.594 -1.6013 -1.5117 -1.5657
29715TIP3   OH290026   9.821   8.840   0.417  0.0158 -0.0312  0.3525
29715TIP3    H190027   9.902   8.871   0.376  0.4840 -0.6687  0.7772
29715TIP3    H290028   9.844   8.754   0.452 -1.2310 -0.8444 -0.7493
29716TIP3   OH290029   5.882   8.853   6.788  0.0577 -0.1232 -0.0080
29716TIP3    H190030   5.847   8.914   6.853  0.4464 -0.1588  0.2426
29716TIP3    H290031   5.812   8.843   6.724  0.2369  1.1581 -0.4414
29717TIP3   OH290032   5.047   7.077   7.404  0.6344 -0.1907 -0.1052
29717TIP3    H190033   5.099   7.087   7.484  0.4188 -0.0729  0.0214
29717TIP3    H290034   4.999   6.995   7.417  0.1467  0.1316  0.1454
29718TIP3   OH290035   8.276   3.465   0.942  0.1753  0.1388 -0.0157
29718TIP3    H190036   8.199   3.440   0.993  0.9000 -0.9484  0.5860
29718TIP3    H290037   8.283   3.399   0.874  0.9151 -0.1288  0.3077
29719TIP3   OH290038   8.705   8.816   3.264  0.4680  0.1482 -0.2958
29719TIP3    H190039   8.724   8.803   3.170 -0.3594 -1.4419 -0.2889
29719TIP3    H290040   8.790   8.835   3.303  0.8080  0.9587 -1.3836
29720TIP3   OH290041  10.781   1.129   7.667 -0.2984  0.3906 -0.7769
29720TIP3    H190042  10.868   1.144   7.631  0.5607 -0.4507  0.8500
29720TIP3    H290043  10.774   1.034   7.674 -1.3216  0.4483 -0.7827
29721TIP3   OH290044   0.841   7.652   4.396 -0.9041 -0.2273  0.2636
29721TIP3    H190045   0.858   7.679   4.486 -2.7146 -1.3016  0.9977
29721TIP3    H290046   0.764   7.702   4.370 -0.8756 -0.5118 -0.3906
29722TIP3   OH290047   3.501   2.749   0.723 -0.1297 -0.5545 -0.0263
29722TIP3    H190048   3.569   2.683   0.705 -0.4395 -1.0080  0.4398
29722TIP3    H290049   3.473   2.730   0.812  0.2317  0.6233  0.3606
29723TIP3   OH290050   6.314   8.884   7.094  0.3400 -0.2754  0.8211
29723TIP3    H190051   6.251   8.817   7.119  1.4090 -1.6160  0.0236
29723TIP3    H290052   6.262   8.964   7.084 -1.1661 -1.2700  0.5282
29724TIP3   OH290053   6.563   7.573   9.601  0.6245  0.2327 -0.2283
29724TIP3    H190054   6.561   7.492   9.551  0.0480  0.3658 -0.4380
29724TIP3    H290055   6.641   7.619   9.570  2.3491 -1.3030  1.6430
29725TIP3   OH290056   0.638   3.317   9.924  0.7320  0.0131 -0.8028
29725TIP3    H190057   0.711   3.280   9.875  2.6245  0.9234  1.1702
29725TIP3    H290058   0.608   3.245   9.980  1.1328  0.0417 -0.5435
29726TIP3   OH290059   9.697   5.622   4.868  0.1781 -0.7719  0.6698
29726TIP3    H190060   9.720   5.654   4.781 -0.7509 -0.7113  0.4312
29726TIP3    H290061   9.742   5.538   4.875  0.8024 -0.4693  0.4021
29727TIP3   OH290062   8.916   4.032   8.598 -0.9638  0.2342  0.5968
29727TIP3    H190063   8.973   4.038   8.522 -0.0220 -0.0131  1.2695
29727TIP3    H290064   8.944   4.104   8.655 -0.2755 -0.8156  1.6166
29728TIP3   OH290065   6.204   6.887   2.843  0.6345 -0.7446  0.7246
29728TIP3    H190066   6.174   6.830   2.772 -1.3105  0.9471  0.0820
29728TIP3    H290067   6.156   6.856   2.920 -2.6901  1.5889 -0.1861
29729TIP3   OH290068   2.650   8.706   9.915  0.7240 -0.1237 -0.5016
29729TIP3    H190069   2.721   8.770   9.915  0.1154  0.5875  1.1230
29729TIP3    H290070   2.685   8.632   9.966  0.7689 -0.3370 -0.8368
29730TIP3   OH290071   4.609   7.602   5.021  0.4845  0.0883 -0.1112
29730TIP3    H190072   4.542   7.628   4.958  0.8773 -0.1011 -0.6151
29730TIP3    H290073   4.691   7.606   4.973  0.3956 -5.0726 -1.3448
29731TIP3   OH290074   7.952   7.627   9.377 -0.5352  0.5109  0.3296
29731TIP3    H190075   7.996   7.559   9.428  0.6714 -0.9185 -2.4212
29731TIP3    H290076   7.999   7.707   9.400  0.1731 -0.1301  1.2120
29732TIP3   OH290077  10.014   9.803   1.025  0.1801  0.0619  0.3302
29732TIP3    H190078   9.949   9.753   1.075 -0.1705  2.0568  2.0245
29732TIP3    H290079   9.991   9.895   1.041  0.6562  0.8325 -2.8272
29733TIP3   OH290080  10.167   8.666   7.907  0.4314 -0.6001 -0.0842
29733TIP3    H190081  10.253   8.676   7.949  1.5092 -2.5265 -1.6575
29733TIP3    H290082  10.150   8.572   7.909 -1.3211 -0.3201 -0.4797
29734TIP3   OH290083   0.177   2.583   4.627 -1.0065 -0.8482 -0.3741
29734TIP3    H190084   0.199   2.589   4.535 -1.3213 -1.6539 -0.5120
29734TIP3    H290085   0.092   2.539   4.629 -1.9966  0.9816  0.2046
29735TIP3   OH290086   4.035   9.169   9.216  0.6269  0.7430 -0.1046
29735TIP3    H190087   4.086   9.248   9.234  0.9495  1.2280 -2.7447
29735TIP3    H290088   4.069   9.138   9.132 -1.8690 -0.2519 -0.8130
29736TIP3   OH290089   8.973   8.292  10.858  0.4950 -0.1711 -0.0449
29736TIP3    H190090   8.936   8.223  10.804  2.6000 -0.9259 -0.6160
29736TIP3    H290091   9.013   8.245  10.932  1.3590  0.4687 -0.0913
29737TIP3   OH290092   1.874   6.874   5.897 -0.2706  0.0461 -0.2909
29737TIP3    H190093   1.864   6.876   5.993 -3.0840 -0.0455 -0.4925
29737TIP3    H290094   1.909   6.960   5.875  1.9832 -0.4805  0.8844
29738TIP3   OH290095   3.966   8.777   2.171 -0.6280 -0.1048  0.0710
29738TIP3    H190096   4.026   8.826   2.227 -1.6838  0.8208  0.4249
29738TIP3    H290097   3.880   8.792   2.209 -1.0104 -2.3274  0.2441
29739TIP3   OH290098   5.967   4.113   2.137 -0.1519  0.2513 -0.5977
29739TIP3    H190099   5.874   4.117   2.114 -0.7857 -1.6527  1.2887
29739TIP3    H290100   6.011   4.091   2.055 -1.6222 -0.7723 -1.1589
29740TIP3   OH290101   4.285   6.472   2.179  0.0656 -0.0718 -0.0839
29740TIP3    H190102   4.302   6.453   2.271  1.0168 -0.1433 -0.2637
29740TIP3    H290103   4.365   6.515   2.148 -0.4587  0.4545 -0.7360
29741TIP3   OH290104   2.400   8.513   3.416  0.1154 -0.1067 -0.6845
29741TIP3    H190105   2.360   8.597   3.439  0.8340 -0.0014  0.2711
29741TIP3    H290106   2.450   8.531   3.337 -0.2719  0.2016 -0.8612
29742TIP3   OH290107   9.972   0.158  10.461  0.0700  0.1079 -0.4005
29742TIP3    H190108  10.046   0.189  10.409 -1.2922  1.0115 -1.9024
29742TIP3    H290109   9.928   0.239  10.489 -0.9149 -0.4197 -0.4013
29743TIP3   OH290110   6.173   8.941   6.760  0.2469 -0.1757  0.4615
29743TIP3    H190111   6.137   8.940   6.671 -1.6626  0.4470  1.1830
29743TIP3    H290112   6.144   8.859   6.798  0.5378 -0.1572  0.7293
29744TIP3   OH290113   2.241   4.717   2.819 -0.2998  0.1925 -0.2685
29744TIP3    H190114   2.228   4.727   2.913 -1.0413 -2.3232 -0.0379
29744TIP3    H290115   2.156   4.739   2.781 -0.3469  0.0634 -0.2392
29745TIP3   OH290116   5.396   2.784   8.820 -0.0863 -0.2607  0.2374
29745TIP3    H190117   5.393   2.837   8.899  0.3751  0.3432 -0.1426
29745TIP3    H290118   5.387   2.694   8.851 -2.0160  0.0820  0.7946
29746TIP3   OH290119   7.684   4.501   9.402  0.0069  0.7963  0.3960
29746TIP3    H190120   7.702   4.424   9.456  0.7585  1.0997  0.5890
29746TIP3    H290121   7.612   4.546   9.448 -1.8557 -0.8237 -0.7872
29747TIP3   OH290122   7.122   9.321   6.161  0.4692  0.5027 -0.6227
29747TIP3    H190123   7.174   9.241   6.156 -1.5415 -0.9120 -0.1113
29747TIP3    H290124   7.112   9.350   6.070  0.1280 -0.5915 -0.9452
29748TIP3   OH290125   2.516   3.294   2.641  0.4110  0.3208 -0.6512
29748TIP3    H190126   2.424   3.269   2.631  0.7430 -1.0136 -0.5885
29748TIP3    H290127   2.547   3.242   2.715  0.7990  2.0250  0.4622
29749TIP3   OH290128   2.319   6.583   7.330  0.5946  0.6014 -0.8536
29749TIP3    H190129   2.336   6.561   7.238  0.3275  1.0937 -1.0267
29749TIP3    H290130   2.277   6.505   7.366 -1.0363  1.0502 -1.6492
29750TIP3   OH290131   3.772   6.081   1.748 -0.1832 -0.0370  0.3171
29750TIP3    H190132   3.810   5.998   1.773  0.5147  0.1360 -0.1566
29750TIP3    H290133   3.714   6.060   1.674  0.7010  0.0245 -0.4099
29751TIP3   OH290134   3.313   8.730   1.991  0.2140 -0.2200 -0.1445
29751TIP3    H190135   3.298   8.728   1.897 -0.0769 -2.5522 -0.1083
29751TIP3    H290136   3.226   8.723   2.030  0.3984 -0.0921  0.3061
29752TIP3   OH290137   5.921  10.093   1.593  0.0954 -0.4635  0.3648
29752TIP3    H190138   6.004  10.055   1.620 -0.0558 -0.1648  1.2934
29752TIP3    H290139   5.881  10.124   1.674 -1.1265 -1.0034 -0.0086
29753TIP3   OH290140   3.452   0.160   1.711 -0.0268 -0.6615 -0.0934
29753TIP3    H190141   3.496   0.230   1.663 -1.9891  0.4782 -0.3067
29753TIP3    H290142   3.517   0.130   1.775  0.9137  1.2260 -0.0991
29754TIP3   OH290143   8.359   1.550   7.000  0.5250  0.0385  0.3764
29754TIP3    H190144   8.292   1.528   7.064  0.8369  1.9829  1.4620
29754TIP3    H290145   8.358   1.478   6.938 -0.4846 -1.4385  2.0213
29755TIP3   OH290146   8.323   4.478   3.823  0.6411 -0.0766 -0.2875
29755TIP3    H190147   8.277   4.402   3.788 -0.2725  0.1069  0.4892
29755TIP3    H290148   8.359   4.521   3.746 -1.6819  0.5507 -1.0977
29756TIP3   OH290149  10.350   1.203  10.414 -0.5520  0.4607 -0.3093
29756TIP3    H190150  10.307   1.143  10.475  0.5584 -1.6888 -1.5247
29756TIP3    H290151  10.400   1.263  10.470 -1.5877  0.1747  0.9511
29757TIP3   OH290152   1.133   6.753   3.779  0.3852  0.0418 -0.1807
29757TIP3    H190153   1.152   6.678   3.834  1.3891  1.0629  0.9199
29757TIP3    H290154   1.181   6.738   3.698  0.5810 -0.4873  0.0371
29758TIP3   OH290155   9.545   1.495   5.304  0.2743  0.3143 -0.4619
29758TIP3    H190156   9.583   1.428   5.248 -0.8414  0.0680 -0.9449
29758TIP3    H290157   9.487   1.545   5.246 -0.3587  0.4940  0.3079
29759TIP3   OH290158   0.382   2.619   0.527  0.5318  0.0109  0.1796
29759TIP3    H190159   0.371   2.709   0.498 -0.8357 -0.4172 -0.7526
29759TIP3    H290160   0.472   2.615   0.560  0.4206  1.8535  0.8251
29760TIP3   OH290161   1.664   1.187   5.889  0.0423 -0.8545 -0.2973
29760TIP3    H190162   1.731   1.210   5.954 -0.7866  1.4183 -0.1602
29760TIP3    H290163   1.589   1.160   5.941  0.2596 -1.6977 -0.4091
29761TIP3   OH290164   0.234   5.778   5.031  0.2639  0.4984  0.1586
29761TIP3    H190165   0.217   5.815   5.118  0.4796  0.5582  0.1759
29761TIP3    H290166   0.314   5.725   5.043 -0.8081 -1.1271  0.4662
29762TIP3   OH290167  10.465   5.756   3.107  0.0397 -0.1665 -0.0628
29762TIP3    H190168  10.516   5.769   3.187  0.8069 -0.3143 -0.5185
29762TIP3    H290169  10.374   5.756   3.137  0.3009  0.0205  0.7753
29763TIP3   OH290170   9.263   7.826   8.243 -0.2899 -0.4176 -0.7014
29763TIP3    H190171   9.225   7.904   8.203 -0.0703 -0.1751 -0.4395
29763TIP3    H290172   9.354   7.825   8.212  0.6558  1.1644  1.7323
29764TIP3   OH290173  10.480   8.295   7.390  0.1428 -0.0537 -0.1447
29764TIP3    H190174  10.443   8.265   7.307 -0.8645  1.1008 -0.1389
29764TIP3    H290175  10.478   8.390   7.385  0.6716  0.0297  0.9425
29765TIP3   OH290176   0.506   7.728   0.632 -0.6784 -0.0452 -0.1305
29765TIP3    H190177   0.574   7.683   0.682 -2.0845 -1.2586  0.8047
29765TIP3    H290178   0.499   7.679   0.551  1.1084  1.4950 -1.3083
29766TIP3   OH290179   4.097   9.304   0.047 -0.1014  0.2116 -1.0022
29766TIP3    H190180   4.005   9.303   0.071  0.2624  1.3577  0.6120
29766TIP3    H290181   4.144   9.308   0.130  1.3985  0.1010 -1.8000
29767TIP3   OH290182   1.200   1.186   8.265  0.1289  0.6515  0.4617
29767TIP3    H190183   1.212   1.091   8.272  1.0976  0.6794 -0.6214
29767TIP3    H290184   1.174   1.201   8.174 -1.8124  1.2734  1.0727
29768TIP3   OH290185   3.434   8.010   0.446  0.1680  0.1079  0.2632
29768TIP3    H190186   3.464   8.093   0.408  1.6720 -0.8199 -0.6734
29768TIP3    H290187   3.368   7.977   0.384 -1.0185  0.9289  1.0338
29769TIP3   OH290188   2.187   5.056   2.235 -0.4577 -0.1868  0.3479
29769TIP3    H190189   2.270   5.016   2.210 -0.6407 -1.0865  1.1308
29769TIP3    H290190   2.125   4.983   2.241 -0.2814 -0.2600  3.9827
29770TIP3   OH290191   6.400   5.989   0.912 -0.0159 -0.3983  0.1792
29770TIP3    H190192   6.349   6.032   0.843  1.1554 -2.0866 -1.8643
29770TIP3    H290193   6.376   6.036   0.992  0.6789  3.6494 -1.7021
29771TIP3   OH290194   6.863   3.393   3.638 -0.3141  0.2447 -0.5423
29771TIP3    H190195   6.904   3.338   3.705  2.0657  1.6786 -0.7153
29771TIP3    H290196   6.885   3.350   3.555  0.5614  0.7939 -0.6105
29772TIP3   OH290197   0.615   4.139   5.021  0.0147 -0.4358 -0.1023
29772TIP3    H190198   0.603   4.047   5.047  0.6705 -0.9130 -1.3809
29772TIP3    H290199   0.710   4.152   5.021 -0.0696  0.2097 -0.0420
29773TIP3   OH290200   6.954   7.242   4.954  0.2105 -0.6197  0.0313
29773TIP3    H190201   7.037   7.227   4.909  0.6063  1.9717 -0.2500
29773TIP3    H290202   6.887   7.227   4.886  0.7194  1.5454 -1.0399
29774TIP3   OH290203   4.198  10.603   1.621 -0.3414 -0.0607  0.0783
29774TIP3    H190204   4.124  10.661   1.602  0.5238  1.0289 -0.1010
29774TIP3    H290205   4.234  10.638   1.702  0.6932  0.1802 -0.4703
29775TIP3   OH290206   2.439   2.342   5.762  0.1344  0.1759 -0.5572
29775TIP3    H190207   2.378   2.268   5.766 -0.1828  0.4803  0.4982
29775TIP3    H290208   2.450   2.369   5.853  3.0341 -0.8268 -0.5076
29776TIP3   OH290209   3.599   1.829   4.938  0.3224 -0.2220  0.5486
29776TIP3    H190210   3.615   1.904   4.881  0.9917 -0.8525 -0.1061
29776TIP3    H290211   3.683   1.783   4.943 -0.0048 -0.7850  1.1672
29777TIP3   OH290212   9.578   2.860   2.366  0.1129  0.3507 -0.1004
29777TIP3    H190213   9.658   2.807   2.365 -0.1712 -0.0717 -0.7176
29777TIP3    H290214   9.599   2.932   2.425  0.8480  0.0840 -0.0176
29778TIP3   OH290215  10.112   9.563   2.069 -0.2739 -0.2305  0.1516
29778TIP3    H190216  10.021   9.570   2.039 -0.6112  2.8399  1.5158
29778TIP3    H290217  10.165   9.573   1.990 -1.0405 -1.7274 -0.6090
29779TIP3   OH290218   2.704   2.231  10.676  0.7364 -0.3130 -0.4699
29779TIP3    H190219   2.779   2.183  10.711  0.6801 -0.1992 -0.1947
29779TIP3    H290220   2.654   2.258  10.753 -0.7388 -2.2164 -0.6880
29780TIP3   OH290221   1.115   1.660   1.154  0.2189  0.4425  0.3160
29780TIP3    H190222   1.084   1.750   1.143  0.5929  0.5634  0.2280
29780TIP3    H290223   1.052   1.607   1.105 -0.3625  0.5877  0.8905
29781TIP3   OH290224   2.422   7.111   7.603 -0.0958 -0.4465 -0.0187
29781TIP3    H190225   2.370   7.079   7.530  0.3226 -3.3369  0.8536
29781TIP3    H290226   2.488   7.167   7.562 -0.6943 -0.9063 -1.6910
29782TIP3   OH290227   9.586   2.719   1.079  0.2667 -0.2155  0.1322
29782TIP3    H190228   9.677   2.719   1.105  0.2731 -2.1174  0.2169
29782TIP3    H290229   9.568   2.629   1.052 -1.4720  0.2067 -0.2691
29783TIP3   OH290230   2.464   1.770   2.241  0.3529 -0.4005  0.9223
29783TIP3    H190231   2.448   1.754   2.334 -0.3415  1.5437  1.1925
29783TIP3    H290232   2.508   1.855   2.239 -1.1525  0.4184 -0.5634
29784TIP3   OH290233   5.908   1.810   4.287  0.0327 -0.9416 -0.3947
29784TIP3    H190234   5.951   1.868   4.224 -0.8976 -2.5799 -2.6729
29784TIP3    H290235   5.942   1.723   4.266 -1.1398 -1.6823  0.6519
29785TIP3   OH290236   0.846   2.530   4.088  0.1843  0.3991 -0.1057
29785TIP3    H190237   0.935   2.496   4.084  0.1449  0.3704 -1.1448
29785TIP3    H290238   0.856   2.626   4.088  0.2163  0.4046 -0.8202
29786TIP3   OH290239   6.045   2.127   3.820 -0.3227  0.0838  0.1585
29786TIP3    H190240   6.074   2.123   3.729  0.3607 -1.0014  0.3919
29786TIP3    H290241   6.061   2.038   3.854 -2.4253 -0.1056  0.7852
29787TIP3   OH290242   9.001   5.147   6.195 -0.3317 -0.0999  0.1054
29787TIP3    H190243   8.944   5.111   6.264 -0.2457 -0.8571 -0.2097
29787TIP3    H290244   8.949   5.140   6.115 -1.4386  3.0644  0.3793
29788TIP3   OH290245   5.073   4.326   0.070  0.5209  0.2938  0.3661
29788TIP3    H190246   5.169   4.321   0.064  0.4833 -0.7347  0.5350
29788TIP3    H290247   5.052   4.278   0.150 -0.2706 -1.1722 -0.6821
29789TIP3   OH290248  10.806   4.958   1.921 -0.4036  0.0853 -0.3833
29789TIP3    H190249  10.830   4.935   1.832 -0.3282 -1.0972 -0.0769
29789TIP3    H290250  10.843   4.888   1.975 -0.7640  0.5837  0.5379
29790TIP3   OH290251   6.236   9.176   0.620 -0.2841  0.0478  0.5414
29790TIP3    H190252   6.305   9.136   0.674 -1.1533  1.0161  2.4657
29790TIP3    H290253   6.272   9.262   0.596  0.8596 -1.0553 -2.1120
29791TIP3   OH290254   0.236   0.301   0.124  0.4649  0.3461 -0.3482
29791TIP3    H190255   0.185   0.237   0.074 -0.2356  2.1721 -2.1316
29791TIP3    H290256   0.248   0.261   0.210 -0.9333 -1.6510 -1.0128
29792TIP3   OH290257   9.907   1.757   7.764 -0.4961  0.2523  0.0395
29792TIP3    H190258   9.819   1.726   7.787 -0.9577  1.1095 -0.4880
29792TIP3    H290259   9.935   1.808   7.839  0.1663 -1.1843  0.8103
29793TIP3   OH290260   4.402   0.109   1.785 -0.6395  0.1571  0.4247
29793TIP3    H190261   4.398   0.204   1.775  3.1979  0.7147  2.2343
29793TIP3    H290262   4.411   0.076   1.695 -1.9178  1.4471 -0.2232
29794TIP3   OH290263   3.789   2.544   9.549 -0.4043  0.8860  0.2662
29794TIP3    H190264   3.876   2.546   9.508 -1.1403  1.4397 -1.3379
29794TIP3    H290265   3.789   2.621   9.606  1.7705 -1.5333  3.9897
29795TIP3   OH290266   2.679   4.522   3.614  0.2851  0.2450  0.2443
29795TIP3    H190267   2.759   4.573   3.612 -0.2487  1.1011 -0.0135
29795TIP3    H290268   2.642   4.532   3.526  0.1522 -0.5573  0.2010
29796TIP3   OH290269   2.468   9.958   4.705 -0.5568  0.3507  0.0166
29796TIP3    H190270   2.420  10.012   4.642 -2.1793  0.4113  1.2191
29796TIP3    H290271   2.424   9.873   4.702 -0.6993  0.3662  1.0614
29797TIP3   OH290272   2.040   9.892   8.178  0.1296 -0.0025  0.2716
29797TIP3    H190273   2.109   9.932   8.231  0.6173 -1.7955  1.0814
29797TIP3    H290274   2.064   9.799   8.173 -1.7924 -0.5318 -0.1230
29798TIP3   OH290275  10.100   1.296   6.842  0.1348  0.0699  0.3026
29798TIP3    H190276  10.177   1.270   6.893 -1.3472 -3.6468  0.9614
29798TIP3    H290277  10.032   1.310   6.907 -1.5545 -3.9217 -0.2873
29799TIP3   OH290278   3.911   3.954   7.441 -0.1361  0.6324 -0.1813
29799TIP3    H190279   3.847   3.914   7.382 -1.0676  1.0912  0.4810
29799TIP3    H290280   3.988   3.898   7.434 -0.0878  0.8766 -2.0733
29800TIP3   OH290281  10.192   5.667   6.498  0.1034 -0.0429  0.5617
29800TIP3    H190282  10.246   5.706   6.429 -0.3770  1.2038  0.8709
29800TIP3    H290283  10.158   5.587   6.458 -0.9961  1.1434 -1.0717
29801TIP3   OH290284   8.980   3.099   0.419  0.4157  0.8589  0.2712
29801TIP3    H190285   8.967   3.156   0.343  1.5702  0.7604 -0.0220
29801TIP3    H290286   9.051   3.140   0.468 -0.6399  1.1976  1.5906
29802TIP3   OH290287   2.434   9.900   7.164  0.0247 -0.4707 -0.4582
29802TIP3    H190288   2.344   9.907   7.132 -0.6455  0.7139  1.5098
29802TIP3    H290289   2.450   9.983   7.209  1.8349 -0.9706 -0.1167
29803TIP3   OH290290   9.012   5.990   3.768 -0.0447  0.2489 -0.2954
29803TIP3    H190291   9.076   6.045   3.724 -0.0841 -0.2022 -0.9344
29803TIP3    H290292   8.939   5.985   3.706  0.1593 -0.9092 -0.4597
29804TIP3   OH290293   5.315   0.647   3.956  0.0270  0.3590  0.9993
29804TIP3    H190294   5.273   0.568   3.923  0.1528  0.9614 -0.6645
29804TIP3    H290295   5.246   0.713   3.958  1.0962  1.9634 -3.7777
29805TIP3   OH290296   2.617   0.477   1.106  0.5095  0.8773 -0.6705
29805TIP3    H190297   2.622   0.572   1.092  0.2092  1.1025  0.5847
29805TIP3    H290298   2.665   0.463   1.187  1.1979 -0.1663 -1.2411
29806TIP3   OH290299   4.262   1.980   8.958 -0.1313  0.2171  0.1642
29806TIP3    H190300   4.240   1.896   8.920 -0.9266 -0.2362  1.5749
29806TIP3    H290301   4.230   1.976   9.048  1.0956  1.4857  0.7134
29807TIP3   OH290302   0.551   5.812   4.677 -0.4151  0.8276  0.5803
29807TIP3    H190303   0.512   5.879   4.621 -2.4220 -1.0112 -0.3710
29807TIP3    H290304   0.476   5.763   4.710  0.9518 -0.4979  1.8496
29808TIP3   OH290305   2.567  10.518   2.384  0.0639  0.1888  0.0908
29808TIP3    H190306   2.620  10.511   2.305  1.5142 -0.0461  1.0442
29808TIP3    H290307   2.629  10.506   2.456 -1.2504  0.1532  1.2688
29809TIP3   OH290308   7.461   0.832  10.550  0.5489 -0.3490 -0.3605
29809TIP3    H190309   7.406   0.801  10.622  0.3453  0.4772 -0.1549
29809TIP3    H290310   7.515   0.901  10.588 -1.1329  1.6930 -1.4724
29810TIP3   OH290311   2.202   4.331   9.508  0.1670 -0.1221  0.1427
29810TIP3    H190312   2.251   4.252   9.529  0.0504  0.2215  1.8526
29810TIP3    H290313   2.210   4.386   9.585  0.5368  1.7147 -1.1396
29811TIP3   OH290314   7.265  10.699   3.230 -0.1594 -0.1183  0.2005
29811TIP3    H190315   7.344  10.649   3.251 -0.8670 -1.6599 -0.6547
29811TIP3    H290316   7.266  10.773   3.291  1.5061 -0.5557  0.7435
29812TIP3   OH290317   0.178   2.228   6.443 -0.8595  0.5475 -0.2461
29812TIP3    H190318   0.149   2.195   6.528  0.1388 -0.0106 -0.1053
29812TIP3    H290319   0.256   2.280   6.463 -0.0689 -0.3440 -0.8927
29813TIP3   OH290320   4.968   7.261   2.288  0.1531 -0.5323 -0.1120
29813TIP3    H190321   5.005   7.200   2.352  0.2377  1.5521  1.9579
29813TIP3    H290322   5.035   7.329   2.278 -0.7778  0.3163 -0.7524
29814TIP3   OH290323   8.785   9.022   9.946  0.1959  0.7924 -0.1172
29814TIP3    H190324   8.714   9.053   9.889  0.7591  0.2473 -1.1616
29814TIP3    H290325   8.835   8.961   9.891 -0.1742 -1.0472  1.4806
29815TIP3   OH290326   0.775   9.949   7.251 -0.1916 -0.2115 -0.7638
29815TIP3    H190327   0.693   9.996   7.234  0.2344  1.1005  0.5744
29815TIP3    H290328   0.844  10.011   7.226  0.3997 -0.9061 -0.8980
29816TIP3   OH290329   5.228   8.027   5.474 -0.0875  0.6682  0.6326
29816TIP3    H190330   5.310   7.998   5.513 -0.1091  0.6886  0.6929
29816TIP3    H290331   5.251   8.049   5.383 -0.3923 -1.1469  0.0710
29817TIP3   OH290332   7.151   8.978   6.667  0.0229  0.4679 -0.1317
29817TIP3    H190333   7.067   9.008   6.701 -0.8680  0.0330 -1.8904
29817TIP3    H290334   7.140   8.972   6.573  1.3825 -1.5485 -0.2525
29818TIP3   OH290335   0.903   6.043   3.455  0.4210  0.0359  0.0658
29818TIP3    H190336   0.922   6.126   3.498  0.4871  0.1931 -0.2659
29818TIP3    H290337   0.962   5.980   3.498  0.0046  0.0549  0.6741
29819TIP3   OH290338   7.923   5.158   1.439 -0.2370 -0.7011  0.2990
29819TIP3    H190339   7.878   5.234   1.402 -1.0076 -1.8280 -1.1653
29819TIP3    H290340   7.967   5.117   1.364  0.4581 -1.5107  1.1223
29820TIP3   OH290341   7.051   9.966   5.290 -0.2987 -0.1972  0.2173
29820TIP3    H190342   7.062   9.950   5.384  1.2646 -0.8995 -0.0540
29820TIP3    H290343   7.086  10.054   5.276  0.7477 -0.6078  0.1125
29821TIP3   OH290344   1.034   1.913   1.102  0.0509  0.5188  0.4723
29821TIP3    H190345   0.976   1.908   1.026  1.6868  0.9447 -0.8823
29821TIP3    H290346   1.012   1.996   1.144  0.3858  1.1929 -0.6504
29822TIP3   OH290347   3.543   4.484   8.162 -0.3201  0.4613 -0.0639
29822TIP3    H190348   3.500   4.449   8.084  1.4782 -0.8561 -0.5336
29822TIP3    H290349   3.472   4.495   8.226 -1.5795 -0.0170 -1.3301
29823TIP3   OH290350   9.980   6.987   4.270 -0.5317 -0.1022 -0.1382
29823TIP3    H190351   9.933   7.041   4.207 -0.1735  0.0191 -0.3040
29823TIP3    H290352   9.939   7.007   4.354 -0.6454  0.1480 -0.2524
29824TIP3   OH290353   5.697   2.210   6.459 -0.2645  0.1724 -0.4983
29824TIP3    H190354   5.742   2.177   6.381 -0.4394  0.2789 -0.6473
29824TIP3    H290355   5.670   2.299   6.435  0.4323  0.5266 -0.0078
29825TIP3   OH290356   6.806   4.786   0.769 -0.2986  0.6591 -0.5322
29825TIP3    H190357   6.747   4.724   0.724 -0.2919  1.2244 -1.3434
29825TIP3    H290358   6.760   4.869   0.765 -1.0914  0.4315  2.0476
29826TIP3   OH290359   0.840   9.448  10.037 -0.3222 -0.0252  0.0211
29826TIP3    H190360   0.870   9.360  10.060 -1.9008 -0.3033  1.1856
29826TIP3    H290361   0.808   9.439   9.947  0.5836 -0.3408 -0.2837
29827TIP3   OH290362   4.966   5.282   1.193  0.4034 -0.6639  0.3815
29827TIP3    H190363   4.959   5.353   1.129  0.8182 -1.4149 -0.5222
29827TIP3    H290364   5.026   5.219   1.153  2.9219  0.0779  2.6895
29828TIP3   OH290365  10.876   8.105   2.822  0.7203  0.1725  0.8839
29828TIP3    H190366  10.820   8.160   2.768  0.4354 -1.3506 -0.4556
29828TIP3    H290367  10.854   8.129   2.912 -0.1786  1.4433  0.3545
29829TIP3   OH290368  10.209   8.402  10.849 -0.3967  0.5904 -0.3747
29829TIP3    H190369  10.126   8.362  10.874  0.1304 -0.0541  0.3578
29829TIP3    H290370  10.186   8.492  10.825 -1.1843  0.6473  0.5711
29830TIP3   OH290371   9.352   4.507   4.539  0.1785  0.0147 -0.1155
29830TIP3    H190372   9.282   4.459   4.581 -1.1781  1.8866 -0.1072
29830TIP3    H290373   9.413   4.440   4.509 -0.5470 -1.5465  1.7251
29831TIP3   OH290374   5.719   7.533   2.288 -0.7228 -0.3362  0.7161
29831TIP3    H190375   5.763   7.492   2.363  0.2748 -1.3122 -0.3558
29831TIP3    H290376   5.695   7.459   2.231 -0.7861  0.4245 -0.2745
29832TIP3   OH290377   8.613   3.373   1.534 -0.1649  0.0453 -0.1839
29832TIP3    H190378   8.623   3.458   1.579 -1.0003  0.3196 -0.4878
29832TIP3    H290379   8.658   3.384   1.451 -1.7889  0.8454 -1.0162
29833TIP3   OH290380   6.487   4.348   7.459  0.4333 -0.5527 -0.3550
29833TIP3    H190381   6.395   4.345   7.484 -0.2784 -1.6065 -2.7038
29833TIP3    H290382   6.521   4.261   7.482  0.3114 -0.8137 -1.1148
29834TIP3   OH290383   1.648  10.407   7.485 -0.4389  0.1442 -0.2941
29834TIP3    H190384   1.593  10.462   7.541 -0.5139  0.8745 -1.0673
29834TIP3    H290385   1.661  10.459   7.406 -0.5772 -0.9882 -1.0825
29835TIP3   OH290386   2.288   8.871   4.220 -0.3855 -0.0110 -0.3921
29835TIP3    H190387   2.282   8.937   4.150  1.5499  1.1134  0.4211
29835TIP3    H290388   2.372   8.829   4.205 -1.0788 -1.5122 -0.1819
29836TIP3   OH290389   2.649   2.336   5.576 -0.1581  0.4635 -0.3286
29836TIP3    H190390   2.604   2.265   5.530  0.5510 -1.3715  1.5869
29836TIP3    H290391   2.585   2.368   5.639  0.4651 -0.7908  1.0296
29837TIP3   OH290392   5.125   0.093   0.579 -0.0494 -0.0138  0.0839
29837TIP3    H190393   5.099   0.173   0.626 -0.2287 -0.2507  0.3900
29837TIP3    H290394   5.115   0.023   0.643  0.1442 -0.2796 -0.1742
29838TIP3   OH290395   6.077   6.015   1.728  0.2475 -0.1359  0.2365
29838TIP3    H190396   6.087   6.108   1.711 -0.5097 -0.2154 -0.7523
29838TIP3    H290397   5.997   5.991   1.682 -0.7952 -0.8342  2.2876
29839TIP3   OH290398   1.292   7.972   1.947  0.3766  0.0543  0.4073
29839TIP3    H190399   1.331   8.045   1.995 -0.4819  0.6017  0.3005
29839TIP3    H290400   1.198   7.982   1.962  0.2214 -0.7557 -0.0017
29840TIP3   OH290401   3.293   0.947   9.338 -0.0919 -0.2904  0.1265
29840TIP3    H190402   3.233   0.933   9.411  1.1568 -3.0217  0.7346
29840TIP3    H290403   3.272   0.879   9.275  0.8931  0.1090 -0.6732
29841TIP3   OH290404   2.279   7.827   4.655 -0.0809 -0.4542  0.2237
29841TIP3    H190405   2.370   7.808   4.636  0.6031  1.1416  1.5822
29841TIP3    H290406   2.241   7.851   4.571  0.6785 -1.3541 -0.3914
29842TIP3   OH290407   8.443   6.358   7.286  0.1170  0.2665  0.6156
29842TIP3    H190408   8.402   6.414   7.353  2.1729  1.1530  1.2007
29842TIP3    H290409   8.463   6.417   7.214  2.3486  0.3861  1.2577
29843TIP3   OH290410   8.889   2.858   0.291 -0.3678 -0.3258 -0.0742
29843TIP3    H190411   8.817   2.826   0.345 -0.0877 -1.5899 -0.4189
29843TIP3    H290412   8.921   2.935   0.338 -2.4321  0.7438 -0.3314
29844TIP3   OH290413   0.217   7.651  10.438 -0.4666  0.2514 -0.4682
29844TIP3    H190414   0.166   7.582  10.480 -0.6380  1.1595  0.8725
29844TIP3    H290415   0.184   7.655  10.348 -0.2732 -1.5604 -0.6419
29845TIP3   OH290416  10.250   0.510   9.058  0.4025 -0.3865 -0.1938
29845TIP3    H190417  10.308   0.575   9.097  0.3283 -1.4486  1.8383
29845TIP3    H290418  10.308   0.442   9.023  0.4727  0.6099 -2.1345
29846TIP3   OH290419   2.575   4.547   9.439  0.1507  0.4780 -0.2919
29846TIP3    H190420   2.587   4.631   9.396 -0.2591  1.2089  0.9823
29846TIP3    H290421   2.632   4.551   9.516 -0.3120 -0.1663  0.0970
29847TIP3   OH290422   1.691   1.828   9.887  0.3195 -0.1427  0.3386
29847TIP3    H190423   1.637   1.850   9.963 -0.6649 -1.4498  0.0624
29847TIP3    H290424   1.659   1.742   9.859 -0.1910  0.8050 -2.2792
29848TIP3   OH290425  10.609   5.394   6.741 -0.5290  0.4532 -0.0230
29848TIP3    H190426  10.669   5.351   6.802  0.4678  1.2684 -0.3955
29848TIP3    H290427  10.531   5.413   6.792 -0.4805 -0.6353  0.4756
29849TIP3   OH290428   1.008   8.853  10.601  0.4801 -0.0044  0.2772
29849TIP3    H190429   1.094   8.817  10.582  0.6297 -0.1540  1.2324
29849TIP3    H290430   1.001   8.930  10.544  2.0208  1.1309  1.5397
29850TIP3   OH290431   8.575   7.752   9.508  0.3426 -0.0878 -0.1064
29850TIP3    H190432   8.557   7.731   9.416  0.7857  0.0602 -0.2327
29850TIP3    H290433   8.490   7.770   9.546 -0.0209 -1.7101 -0.0966
29851TIP3   OH290434   8.461   8.646   6.565  0.4102 -0.4651 -0.4445
29851TIP3    H190435   8.453   8.741   6.552  0.3870 -0.1407  1.5774
29851TIP3    H290436   8.500   8.614   6.484 -1.9589  0.8740 -2.2482
29852TIP3   OH290437   1.591   9.104  10.508  0.4124  0.4898 -0.4003
29852TIP3    H190438   1.516   9.046  10.520  0.5940  0.3287 -0.0491
29852TIP3    H290439   1.572   9.180  10.563  1.2000 -0.2067  0.8508
29853TIP3   OH290440   7.436   5.387   5.884  0.0821 -0.0820 -0.4421
29853TIP3    H190441   7.499   5.346   5.825 -0.7377  0.7343 -1.9359
29853TIP3    H290442   7.423   5.474   5.849 -2.3292 -0.4146 -0.5529
29854TIP3   OH290443   8.791   6.208   1.243  0.3054  0.1940 -0.0694
29854TIP3    H190444   8.716   6.264   1.220  0.5160  0.2602 -0.6133
29854TIP3    H290445   8.832   6.188   1.159  0.9275  0.2002  0.2267
29855TIP3   OH290446   7.777   0.315   0.853  0.1053 -0.1291 -0.3294
29855TIP3    H190447   7.733   0.381   0.907  0.8631  0.0616  0.0624
29855TIP3    H290448   7.838   0.365   0.799 -0.0627 -0.4070 -0.7804
29856TIP3   OH290449   5.140   1.749   3.187 -1.0946  0.2532  0.2064
29856TIP3    H190450   5.142   1.796   3.271 -1.8824  0.6085  0.0281
29856TIP3    H290451   5.143   1.656   3.212 -1.4309  0.3538  0.6332
29857TIP3   OH290452   3.730   7.296   5.648 -0.1228 -0.5678  0.5384
29857TIP3    H190453   3.760   7.297   5.739  2.1093 -1.0319 -0.1341
29857TIP3    H290454   3.758   7.211   5.614  1.5049  0.6300 -1.2997
29858TIP3   OH290455   0.438   1.351   6.472  0.0886  0.2817  0.2255
29858TIP3    H190456   0.434   1.339   6.567 -0.1038 -0.6683  0.1060
29858TIP3    H290457   0.531   1.354   6.452  0.2313  3.6833  0.7907
29859TIP3   OH290458   3.134   5.062  10.833 -0.1222 -0.0890 -0.1146
29859TIP3    H190459   3.154   5.145  10.790 -3.5688  1.4861  0.9908
29859TIP3    H290460   3.130   4.999  10.761  1.0147  0.9898 -1.1891
29860TIP3   OH290461  10.370   7.038   8.479 -0.3813 -0.2420 -0.5988
29860TIP3    H190462  10.420   6.981   8.538  0.1349  0.3811 -0.4277
29860TIP3    H290463  10.423   7.044   8.400 -0.7492 -0.5229 -0.8711
29861TIP3   OH290464   7.907   0.554   5.341 -0.5291  0.1098  0.4605
29861TIP3    H190465   7.951   0.609   5.406 -0.9001  0.0161  0.7939
29861TIP3    H290466   7.860   0.616   5.285 -3.2114  0.0707  2.4617
29862TIP3   OH290467   9.816   6.084   9.234 -0.8155  0.2290 -0.2534
29862TIP3    H190468   9.738   6.045   9.195  0.1591 -1.5547 -0.4989
29862TIP3    H290469   9.874   6.101   9.160  0.2476 -1.3531  0.1631
29863TIP3   OH290470   5.949   2.962   8.852 -0.5229  0.1698 -0.0627
29863TIP3    H190471   5.952   2.901   8.779  0.0944 -0.5034  0.5064
29863TIP3    H290472   5.986   3.043   8.818 -0.0016 -0.2172 -0.4235
29864TIP3   OH290473   7.111   5.638   6.062  0.8796  0.4327  0.3077
29864TIP3    H190474   7.119   5.717   6.115 -0.8329 -0.0793  1.4338
29864TIP3    H290475   7.133   5.567   6.122  0.3927 -0.0621 -0.0934
29865TIP3   OH290476   4.756   6.309  10.529  0.1164 -0.6121 -0.3282
29865TIP3    H190477   4.807   6.383  10.497  1.2274 -1.8283 -1.4737
29865TIP3    H290478   4.702   6.346  10.599  0.5866  1.2752 -0.9086
29866TIP3   OH290479   0.857   7.029   8.478  0.0408  0.5512  0.1671
29866TIP3    H190480   0.922   6.967   8.445 -1.4496 -0.1946 -1.5381
29866TIP3    H290481   0.902   7.076   8.549  2.0411 -0.6806 -0.2142
29867TIP3   OH290482   6.704   5.007   0.919 -0.3068  0.2671  0.4017
29867TIP3    H190483   6.673   5.086   0.964 -0.3753  0.4205  0.0843
29867TIP3    H290484   6.790   5.030   0.885 -1.1294  0.8595 -1.3811
29868TIP3   OH290485   7.493   6.293   8.003 -0.1826  0.3609 -0.2592
29868TIP3    H190486   7.417   6.320   7.953 -0.7048 -0.6338 -0.0184
29868TIP3    H290487   7.457   6.243   8.077  0.6971 -0.2242 -0.2067
29869TIP3   OH290488   4.281   9.180   1.572  0.0311  0.2629 -0.5798
29869TIP3    H190489   4.249   9.136   1.493 -1.8957  1.7307 -0.7027
29869TIP3    H290490   4.376   9.166   1.571 -0.3212 -3.0416 -1.0633
29870TIP3   OH290491   0.148   9.441   6.160  0.2639 -0.3186 -0.7432
29870TIP3    H190492   0.139   9.461   6.067 -1.1916  0.0740 -0.5383
29870TIP3    H290493   0.223   9.381   6.164  1.9060  1.5289 -1.8712
29871TIP3   OH290494   3.520   1.138   2.993 -0.5499  0.3165  0.3618
29871TIP3    H190495   3.452   1.103   3.051 -0.3704  0.2120  0.5144
29871TIP3    H290496   3.477   1.150   2.909 -0.2767 -1.6087 -0.0944
29872TIP3   OH290497   0.759   6.447   1.235 -0.0679  0.1268  0.0131
29872TIP3    H190498   0.749   6.477   1.145 -0.9677 -1.3261 -0.4108
29872TIP3    H290499   0.685   6.487   1.282 -0.5536 -0.4016 -0.2787
29873TIP3   OH290500   8.255   6.762   7.612  0.0172  0.3640 -0.5933
29873TIP3    H190501   8.185   6.698   7.625 -0.0821  0.1499 -2.0518
29873TIP3    H290502   8.310   6.754   7.690 -2.3217  1.5480  1.3151
29874TIP3   OH290503   9.995   9.702   0.295 -0.2705  0.2280  0.2424
29874TIP3    H190504  10.029   9.694   0.206 -0.7312 -0.3959  0.1188
29874TIP3    H290505   9.984   9.612   0.325 -1.1128  0.4254  0.5505
29875TIP3   OH290506   6.364   9.436   3.655  0.2419 -0.1169  0.2629
29875TIP3    H190507   6.435   9.375   3.637 -1.0064 -2.2228  1.9137
29875TIP3    H290508   6.284   9.388   3.631 -0.7280  1.3863  0.3517
29876TIP3   OH290509   6.345   2.063   2.178  0.4461  0.2699  0.6072
29876TIP3    H190510   6.314   1.988   2.129 -1.1236  0.3173  1.4702
29876TIP3    H290511   6.336   2.137   2.118  1.9753 -0.2013 -0.2335
29877TIP3   OH290512   4.924   1.560   4.511 -0.4027 -0.0403  0.0835
29877TIP3    H190513   4.985   1.492   4.541 -0.8434 -1.2257 -1.5230
29877TIP3    H290514   4.853   1.511   4.470 -0.9644  1.3895 -0.7155
29878TIP3   OH290515   8.403   0.877   1.689  0.2809  0.1906  0.0124
29878TIP3    H190516   8.345   0.898   1.762  0.3287  1.6250 -0.3418
29878TIP3    H290517   8.490   0.868   1.728  0.3978  1.4761  0.0720
29879TIP3   OH290518   5.669   6.201   1.722  0.5420  0.1119 -0.8245
29879TIP3    H190519   5.723   6.234   1.650  0.1303 -2.8744 -2.6763
29879TIP3    H290520   5.719   6.128   1.758  0.6087  1.3596  1.8719
29880TIP3   OH290521   3.709   4.930   5.571  0.8511  0.2357 -0.6655
29880TIP3    H190522   3.761   4.952   5.648  1.8633 -1.5297 -0.7847
29880TIP3    H290523   3.687   5.015   5.532  0.8255  1.1448  1.1937
29881TIP3   OH290524  10.487   3.671   7.502 -0.0941 -0.1986  0.2254
29881TIP3    H190525  10.574   3.632   7.492  0.4649  1.0572 -0.0103
29881TIP3    H290526  10.486   3.702   7.593  0.8721  2.3661 -0.5355
29882TIP3   OH290527   5.372   7.404   3.052 -0.0706 -0.6166 -0.1440
29882TIP3    H190528   5.320   7.328   3.079 -2.4484  0.9819  0.1194
29882TIP3    H290529   5.463   7.377   3.065 -0.8707 -2.2920  3.1723
29883TIP3   OH290530   6.193  10.174   1.141 -0.1989  0.1124 -0.3355
29883TIP3    H190531   6.152  10.195   1.057 -0.0091  0.2639 -0.3924
29883TIP3    H290532   6.128  10.197   1.207 -0.4440 -0.2387 -0.4504
29884TIP3   OH290533   3.619   9.598   9.699  0.0739  0.9238  0.3614
29884TIP3    H190534   3.563   9.594   9.776  1.3976  0.2169  1.3223
29884TIP3    H290535   3.560   9.581   9.626 -0.7203 -1.6011  1.4850
29885TIP3   OH290536   7.453   7.900   8.956 -0.0208  0.2713  0.2054
29885TIP3    H190537   7.532   7.850   8.979 -0.4166 -0.5232 -0.1370
29885TIP3    H290538   7.480   7.954   8.882  0.4500  0.6793  0.6655
29886TIP3   OH290539   5.450  10.801   5.711  0.0559 -0.0929 -0.1815
29886TIP3    H190540   5.376  10.779   5.653 -0.1697  0.5049 -0.1313
29886TIP3    H290541   5.432  10.891   5.738  0.6521 -0.0510  0.0753
29887TIP3   OH290542   7.814   2.376   2.137  0.3881 -0.2835 -0.0076
29887TIP3    H190543   7.858   2.453   2.102  0.0824 -0.1446 -0.0893
29887TIP3    H290544   7.882   2.310   2.143  0.4340 -0.3278 -0.9312
29888TIP3   OH290545   9.067   4.013   7.104 -0.2832  0.4616 -0.4638
29888TIP3    H190546   9.150   4.002   7.151  0.2429 -0.9385 -1.6649
29888TIP3    H290547   9.056   4.108   7.097  1.6131  0.6759 -0.9645
29889TIP3   OH290548   0.701   0.910   4.415 -0.4362  0.2865  1.2569
29889TIP3    H190549   0.754   0.988   4.399 -0.8455  0.4894  0.8676
29889TIP3    H290550   0.759   0.851   4.462  0.8010 -0.3186 -0.9035
29890TIP3   OH290551   1.013   7.660   4.647  0.4350  0.0827  0.1929
29890TIP3    H190552   1.025   7.706   4.730 -1.8159  0.5969  0.2972
29890TIP3    H290553   0.985   7.572   4.671 -2.9096  0.9806  0.1370
29891TIP3   OH290554   1.450   8.749   1.120 -0.0141 -0.1474  0.2916
29891TIP3    H190555   1.397   8.763   1.198  1.2348 -0.6609  1.2594
29891TIP3    H290556   1.538   8.732   1.153  0.2396 -1.9470 -1.1353
29892TIP3   OH290557   7.120   3.583   7.484  0.4333 -0.1015  0.5835
29892TIP3    H190558   7.163   3.639   7.549  0.3115  0.4069  0.2332
29892TIP3    H290559   7.054   3.535   7.534 -0.8026  1.5097  0.5833
29893TIP3   OH290560   9.568   1.703   9.019  0.4938  1.0318  0.3158
29893TIP3    H190561   9.617   1.785   9.016 -0.5014  1.6286  0.2804
29893TIP3    H290562   9.477   1.728   9.006 -0.0082  0.0835  1.7050
29894TIP3   OH290563   1.494   0.755   5.025 -0.1502  0.3680 -0.1157
29894TIP3    H190564   1.552   0.802   5.085 -2.1586  1.0011  1.4664
29894TIP3    H290565   1.438   0.703   5.083 -0.8694 -0.5679 -1.6020
29895TIP3   OH290566  10.725   5.823   9.922  0.1435  0.1082 -0.0611
29895TIP3    H190567  10.680   5.765   9.860  1.4076  0.4390 -1.3561
29895TIP3    H290568  10.731   5.906   9.876  1.5352  0.2330  0.2926
29896TIP3   OH290569   5.168   4.300  10.454 -0.3830  0.3757  0.3697
29896TIP3    H190570   5.226   4.271  10.383 -1.1231 -0.9158  0.2472
29896TIP3    H290571   5.139   4.387  10.427 -0.4854 -0.0034 -0.8140
29897TIP3   OH290572   3.922   1.808   3.380  0.1138 -0.9136 -0.6665
29897TIP3    H190573   3.833   1.780   3.361  0.1884 -1.3015 -0.4561
29897TIP3    H290574   3.967   1.728   3.409 -0.1371 -0.2604  1.6855
29898TIP3   OH290575   1.824   5.675   6.732  0.3568 -0.1511 -0.7800
29898TIP3    H190576   1.873   5.757   6.743 -0.7040  0.6158 -1.5133
29898TIP3    H290577   1.732   5.702   6.737 -0.0212 -1.5752  0.7692
29899TIP3   OH290578   3.349  10.028   1.122  0.0146 -0.1132  0.0287
29899TIP3    H190579   3.322  10.116   1.095 -0.0664 -0.3028 -0.5262
29899TIP3    H290580   3.438  10.018   1.089  0.0943 -0.1719  0.2560
29900TIP3   OH290581   3.574   2.224   8.987  0.1902 -0.7441 -0.0778
29900TIP3    H190582   3.576   2.314   9.018  0.8035 -0.8906  0.3362
29900TIP3    H290583   3.512   2.179   9.044 -1.5384 -0.1838 -1.4586
29901TIP3   OH290584   4.347   3.667   4.222  0.6245 -0.2713  0.0286
29901TIP3    H190585   4.255   3.658   4.197  0.8083  0.9293 -1.1867
29901TIP3    H290586   4.378   3.577   4.234 -0.4427 -0.7287 -0.5561
29902TIP3   OH290587   9.548   6.757   5.567  0.2424  0.0703  0.1518
29902TIP3    H190588   9.524   6.848   5.585 -0.5447  0.0012 -0.5073
29902TIP3    H290589   9.644   6.758   5.561  0.3323  0.6129  1.4161
29903TIP3   OH290590   2.733   3.436   4.758  0.2908 -0.0195 -0.2647
29903TIP3    H190591   2.691   3.506   4.709 -1.1530 -1.4391 -1.1921
29903TIP3    H290592   2.751   3.368   4.693 -0.3744 -1.3778  0.8902
29904TIP3   OH290593   0.091  10.717  10.252 -0.4402 -0.1167  0.1862
29904TIP3    H190594   0.004  10.752  10.231 -0.6845 -1.0502 -0.4232
29904TIP3    H290595   0.133  10.787  10.302 -1.9174 -0.0431  1.3967
29905TIP3   OH290596   1.843  10.298   9.426  0.0673  0.3626  0.5206
29905TIP3    H190597   1.818  10.254   9.345  0.6650 -0.2743  0.6740
29905TIP3    H290598   1.920  10.250   9.456 -0.2150  0.5258  1.5209
29906TIP3   OH290599   5.598   2.485   6.434  0.2725  0.4091  0.2774
29906TIP3    H190600   5.577   2.574   6.406 -2.0209  0.1934  1.0634
29906TIP3    H290601   5.654   2.497   6.511  1.7411  1.0840 -0.8398
29907TIP3   OH290602   3.749   0.995   1.601  0.3366  0.7809 -0.0821
29907TIP3    H190603   3.765   1.067   1.662 -1.2852 -0.5251  2.0452
29907TIP3    H290604   3.656   1.004   1.578  0.2892 -0.2134 -0.3299
29908TIP3   OH290605   2.482   4.593   2.947  0.6676 -0.0722 -0.0800
29908TIP3    H190606   2.426   4.517   2.960  0.7243  0.0202  0.7746
29908TIP3    H290607   2.440   4.644   2.878 -0.6382  0.3045  0.9630
29909TIP3   OH290608   1.008   3.516   7.342 -0.0317  0.5586  0.9084
29909TIP3    H190609   0.972   3.603   7.324 -0.0362  0.1177 -1.5105
29909TIP3    H290610   1.057   3.494   7.263 -1.8197 -2.5511  0.5080
29910TIP3   OH290611   4.280   4.696   3.037 -0.3261 -0.0303  0.1008
29910TIP3    H190612   4.343   4.627   3.017  0.3175  0.1185  1.4633
29910TIP3    H290613   4.204   4.649   3.072 -0.1046 -0.0854  0.5130
29911TIP3   OH290614   2.667   4.907   2.992 -0.0497  0.1572  0.1644
29911TIP3    H190615   2.684   4.945   3.078 -0.9119  0.1931  0.3281
29911TIP3    H290616   2.754   4.898   2.953  0.3869 -0.1191  1.1468
29912TIP3   OH290617   5.170  10.181   0.770 -0.2360 -0.4992  0.5835
29912TIP3    H190618   5.123  10.186   0.686  0.2069 -1.8509  0.2324
29912TIP3    H290619   5.167  10.271   0.804 -0.0024  0.2051 -1.1145
29913TIP3   OH290620   8.542  10.210   4.520 -0.1218  0.3125 -0.5741
29913TIP3    H190621   8.570  10.119   4.516  1.4195  0.7737 -0.8707
29913TIP3    H290622   8.447  10.206   4.525 -0.0161 -1.3955  2.1763
29914TIP3   OH290623   0.413  10.324   2.784 -0.7057  0.4628 -0.0362
29914TIP3    H190624   0.319  10.307   2.772 -0.8117  1.3586 -0.5794
29914TIP3    H290625   0.436  10.384   2.713  0.8851 -1.7042 -1.4662
29915TIP3   OH290626   0.799   1.375   3.129  0.0850 -0.1815 -0.3603
29915TIP3    H190627   0.885   1.412   3.152 -1.0954  1.6587  1.4865
29915TIP3    H290628   0.816   1.282   3.116  1.9155 -0.5252  3.1785
29916TIP3   OH290629   1.292   3.403   0.820 -0.2349  0.2389 -0.4666
29916TIP3    H190630   1.373   3.353   0.805  0.0881  1.2234 -2.2133
29916TIP3    H290631   1.260   3.370   0.904  2.6311  0.7051  0.9340
29917TIP3   OH290632   8.503   9.016   1.166  0.1200 -0.2941  0.0543
29917TIP3    H190633   8.572   9.082   1.171  0.9945 -1.2238  0.6641
29917TIP3    H290634   8.500   8.991   1.073  1.3215 -0.9688  0.1849
29918TIP3   OH290635   8.273   1.771   7.664  0.0299  0.3965  0.1152
29918TIP3    H190636   8.200   1.751   7.606  0.7017 -1.5185 -0.1222
29918TIP3    H290637   8.275   1.699   7.727  1.3463  0.7220  0.4850
29919TIP3   OH290638   6.813   2.000   1.151 -0.2097  0.2187  0.5679
29919TIP3    H190639   6.769   1.916   1.154 -1.0416  0.5144 -1.3638
29919TIP3    H290640   6.782   2.047   1.228  0.4206 -1.2674  1.7740
29920TIP3   OH290641   6.086   3.119   2.556  0.0628 -0.1278  0.2787
29920TIP3    H190642   6.166   3.147   2.510 -0.1560 -1.9100 -1.3312
29920TIP3    H290643   6.091   3.024   2.555 -2.6785 -0.3484 -1.0467
29921TIP3   OH290644  10.823   9.310   1.091 -0.0898 -0.1414 -0.0854
29921TIP3    H190645  10.767   9.383   1.118  0.8606  0.3331  0.6367
29921TIP3    H290646  10.907   9.350   1.071 -0.4092 -0.6046 -2.7938
29922TIP3   OH290647   3.670  10.358   9.915  0.4137  0.3745  0.0961
29922TIP3    H190648   3.632  10.363   9.827 -1.8927 -3.3199  0.6781
29922TIP3    H290649   3.617  10.417   9.968 -0.1725  0.3312 -0.4273
29923TIP3   OH290650   7.816  10.377   2.945 -0.3127 -0.1830  0.0835
29923TIP3    H190651   7.842  10.368   2.853  0.3316  3.3151 -0.2054
29923TIP3    H290652   7.721  10.375   2.944 -0.3081 -1.2641 -0.4485
29924TIP3   OH290653   9.940   8.064   1.601  0.0096  0.2426 -0.3300
29924TIP3    H190654   9.854   8.105   1.594 -0.0467  0.0442 -0.8603
29924TIP3    H290655   9.927   7.987   1.656  0.2673  1.3357  1.3195
29925TIP3   OH290656   5.335   4.158   7.729 -0.5993 -0.4257 -0.0089
29925TIP3    H190657   5.329   4.185   7.821 -1.6528 -1.8328  0.3714
29925TIP3    H290658   5.421   4.118   7.722  0.2888  1.3876 -0.1617
29926TIP3   OH290659  10.875   6.534   9.350  0.3547 -0.1424 -0.0711
29926TIP3    H190660  10.831   6.532   9.265  0.9458 -0.1907 -0.3851
29926TIP3    H290661  10.851   6.618   9.388 -1.7179 -1.0063  0.7168
29927TIP3   OH290662   5.632  10.193   2.925 -0.4632 -0.6953 -0.2912
29927TIP3    H190663   5.655  10.124   2.988 -0.5750  0.3459  0.9376
29927TIP3    H290664   5.538  10.203   2.935 -0.2755  0.4536  0.4240
29928TIP3   OH290665   8.662   9.391   2.577  0.0179  0.5585 -0.0854
29928TIP3    H190666   8.589   9.384   2.516  1.1842  0.6522 -1.5728
29928TIP3    H290667   8.704   9.305   2.575 -0.2732  0.3718  1.0805
29929TIP3   OH290668   8.729  10.543   4.413  0.1184  0.2604  0.0063
29929TIP3    H190669   8.709  10.608   4.346  0.5136  0.2651 -0.1080
29929TIP3    H290670   8.687  10.576   4.492 -1.3663 -0.3358 -0.5080
29930TIP3   OH290671   5.846  10.605   9.793  0.3846  0.1839  0.1145
29930TIP3    H190672   5.769  10.553   9.773 -0.6552  1.2793  1.1216
29930TIP3    H290673   5.917  10.564   9.743 -0.8539 -0.7872 -0.8943
29931TIP3   OH290674   9.540   4.908   6.953 -0.6263 -0.0621 -0.1739
29931TIP3    H190675   9.629   4.897   6.919 -1.3483  0.2824 -2.2746
29931TIP3    H290676   9.527   4.832   7.010  0.0853 -1.5991 -1.9562
29932TIP3   OH290677   7.551   2.106   8.130 -0.0234  0.1137 -0.1083
29932TIP3    H190678   7.522   2.186   8.174 -1.0461 -0.9025  1.1251
29932TIP3    H290679   7.602   2.138   8.055 -1.2744  1.9451 -0.2596
29933TIP3   OH290680   2.484   7.840   3.721  0.6454  0.2600  0.1232
29933TIP3    H190681   2.530   7.904   3.774 -0.2888 -0.3682  1.7694
29933TIP3    H290682   2.467   7.767   3.780  0.1705 -0.7885 -1.2343
29934TIP3   OH290683   5.375   4.159   1.309  0.8411  0.3083 -0.4336
29934TIP3    H190684   5.420   4.153   1.225 -1.1723  0.1315 -1.5616
29934TIP3    H290685   5.407   4.083   1.358  1.2550 -0.1975 -1.4530
29935TIP3   OH290686   2.105   1.756   5.441 -0.2173  0.7137  0.0126
29935TIP3    H190687   2.076   1.805   5.518  0.9315  0.7819  0.4122
29935TIP3    H290688   2.199   1.742   5.455 -0.3677 -0.9702 -0.4379
29936TIP3   OH290689   8.759   1.952   9.303 -0.2287  0.0640  0.1535
29936TIP3    H190690   8.765   1.943   9.208 -2.3434 -1.5688  0.0764
29936TIP3    H290691   8.720   2.038   9.318 -1.0197 -0.1710 -0.5357
29937TIP3   OH290692   6.484   9.435   1.603  0.2388  0.1144 -0.4679
29937TIP3    H190693   6.484   9.348   1.644 -1.2034  1.0444  1.6194
29937TIP3    H290694   6.566   9.475   1.632 -0.2993  0.3915  0.6773
29938TIP3   OH290695   6.967   8.093   4.617  0.3000 -1.1011  0.1108
29938TIP3    H190696   6.979   8.148   4.540 -2.2648  0.4400  0.6984
29938TIP3    H290697   6.925   8.014   4.584  0.3045 -0.9665 -0.2222
29939TIP3   OH290698  10.549   1.194   7.535  0.0336  0.0950 -0.1710
29939TIP3    H190699  10.593   1.154   7.460  1.1339 -1.5934  1.2970
29939TIP3    H290700  10.606   1.175   7.609 -2.1164 -0.3194  1.4769
29940TIP3   OH290701   0.746   5.344   9.252 -0.1099 -0.4434  0.6018
29940TIP3    H190702   0.809   5.335   9.181 -1.0629 -0.1038 -0.3199
29940TIP3    H290703   0.672   5.290   9.225 -1.6202  1.7983 -0.0184
29941TIP3   OH290704  10.174   2.368   0.754  0.3208  0.2068 -0.0803
29941TIP3    H190705  10.216   2.282   0.752  1.0975  0.5556  0.6458
29941TIP3    H290706  10.097   2.358   0.697  0.4246 -0.9429 -0.0535
29942TIP3   OH290707   3.063   1.337   3.930 -0.0747 -0.4728  0.0072
29942TIP3    H190708   3.113   1.316   3.851  1.8802 -0.2711  1.1231
29942TIP3    H290709   3.128   1.375   3.989 -1.5337 -0.4191  1.6321
29943TIP3   OH290710   0.725   0.637   0.675 -0.2431 -0.3200 -0.1199
29943TIP3    H190711   0.683   0.589   0.603 -0.9800 -0.2306  0.2398
29943TIP3    H290712   0.697   0.591   0.754  1.5306 -1.1472  0.0669
29944TIP3   OH290713   6.345   8.720   6.860 -0.2832  0.3824  0.4265
29944TIP3    H190714   6.336   8.626   6.875 -0.2207  0.1765 -0.6872
29944TIP3    H290715   6.282   8.760   6.919 -1.6728 -0.4752 -0.4030
29945TIP3   OH290716   8.628  10.788   8.093 -0.1909 -0.0698  0.7730
29945TIP3    H190717   8.596  10.746   8.172 -1.5339 -0.5086  0.0348
29945TIP3    H290718   8.708  10.741   8.071  0.9094  0.8973  2.5389
29946TIP3   OH290719   2.873   7.408   8.976 -0.2493 -0.1941 -0.2480
29946TIP3    H190720   2.846   7.321   8.949 -0.0206 -0.4180  0.2403
29946TIP3    H290721   2.935   7.436   8.909 -1.8306  0.4289 -1.5284
29947TIP3   OH290722   1.713  10.516  10.169  0.7322  0.2231 -0.1557
29947TIP3    H190723   1.640  10.463  10.136  0.8836 -0.4802  0.6064
29947TIP3    H290724   1.769  10.529  10.092 -0.2104  0.8128 -0.7615
29948TIP3   OH290725  10.509  10.043   3.491  0.3074 -0.2587  0.1966
29948TIP3    H190726  10.591  10.029   3.444 -1.0976  0.5772 -2.7562
29948TIP3    H290727  10.485   9.957   3.525  2.4255 -0.4788  1.2902
29949TIP3   OH290728   3.486   3.493   9.269  0.1654  0.5198  0.3851
29949TIP3    H190729   3.520   3.560   9.211  0.0636 -0.4962 -0.9026
29949TIP3    H290730   3.419   3.537   9.321  1.9474  2.0437  1.4995
29950TIP3   OH290731  10.810   1.630  10.619  0.2462 -0.2701  0.1555
29950TIP3    H190732  10.891   1.680  10.612  0.2107 -0.1601  0.5211
29950TIP3    H290733  10.817   1.585  10.704 -0.2094 -0.0182  0.3289
29951TIP3   OH290734   2.679   3.546   9.502 -0.2310  0.1856  0.4072
29951TIP3    H190735   2.735   3.553   9.579  0.8959 -1.6592 -0.1969
29951TIP3    H290736   2.616   3.478   9.524  0.1977 -0.4689 -0.3428
29952TIP3   OH290737   5.135   2.534   9.157 -0.6674  0.2963 -0.3474
29952TIP3    H190738   5.100   2.447   9.136  0.9773 -0.7722  1.0492
29952TIP3    H290739   5.220   2.516   9.197 -0.7136  2.5122  0.8907
29953TIP3   OH290740   7.926   9.885   5.217  0.0359  0.5133 -0.0626
29953TIP3    H190741   7.995   9.919   5.274 -0.0184  0.6419 -0.0719
29953TIP3    H290742   7.971   9.864   5.135  0.2289 -0.2562  0.2288
29954TIP3   OH290743  10.835   4.752   2.936 -0.0552 -0.8246  0.1253
29954TIP3    H190744  10.836   4.841   2.972  0.8215 -0.6612 -0.2802
29954TIP3    H290745  10.787   4.760   2.854  0.6249 -0.5747 -0.2567
29955TIP3   OH290746   5.355   8.386   4.821 -0.0778 -0.0490 -0.8064
29955TIP3    H190747   5.328   8.410   4.909  1.5515 -1.0467  0.0197
29955TIP3    H290748   5.293   8.318   4.795  0.9571 -1.6452  0.6718
29956TIP3   OH290749   3.115  10.515   2.253  0.3765  0.4557 -0.1925
29956TIP3    H190750   3.164  10.561   2.321  0.5946 -0.1950  0.0969
29956TIP3    H290751   3.025  10.548   2.263  0.5768  1.0112 -0.1658
29957TIP3   OH290752   6.075  10.098   6.694 -0.7077  0.6501 -0.4047
29957TIP3    H190753   6.031  10.101   6.779 -2.0417 -0.4125 -1.0179
29957TIP3    H290754   6.071  10.006   6.669  3.5801  0.0717  0.3172
29958TIP3   OH290755   2.030   1.955   9.205  0.4995 -0.2389  0.1588
29958TIP3    H190756   1.981   1.879   9.234 -1.3501  0.8612  0.0439
29958TIP3    H290757   2.049   2.004   9.285  1.8425 -0.8715  0.2530
29959TIP3   OH290758   4.998   9.986  10.022  0.2847  0.0625 -0.1395
29959TIP3    H190759   5.003   9.950  10.111  1.3344 -0.4746 -0.3978
29959TIP3    H290760   5.079   9.958   9.980 -1.7805 -3.0447 -2.5314
29960TIP3   OH290761   8.902  10.019   6.174 -0.2936 -0.6189  0.0821
29960TIP3    H190762   8.883  10.049   6.085 -2.3589 -1.5721  0.1200
29960TIP3    H290763   8.878   9.926   6.173  1.5220 -1.1488  1.1452
29961TIP3   OH290764   1.545   9.920   5.439 -1.0047 -0.1879  0.3214
29961TIP3    H190765   1.533   9.977   5.363  0.2055 -0.8329 -0.3869
29961TIP3    H290766   1.456   9.905   5.473 -1.8029 -1.4024 -2.0898
29962TIP3   OH290767   2.319   3.481   2.929 -0.4889  0.3351 -0.0278
29962TIP3    H190768   2.232   3.522   2.937 -0.4048  0.5565 -0.2377
29962TIP3    H290769   2.357   3.522   2.851 -0.7650 -0.8200 -0.7886
29963TIP3   OH290770   1.074   8.960   6.723 -0.0397  0.0229 -0.0949
29963TIP3    H190771   1.029   8.876   6.710 -0.4386 -0.1695  2.1700
29963TIP3    H290772   1.003   9.023   6.738  0.3001  0.6009 -0.8470
29964TIP3   OH290773   6.694   4.190   6.283  0.1714 -0.1907  0.7001
29964TIP3    H190774   6.651   4.168   6.366  0.8580  0.9719  1.3974
29964TIP3    H290775   6.672   4.282   6.268  0.4502 -0.2567 -0.1605
29965TIP3   OH290776   0.447   1.382   0.073  0.5578  0.4087  0.1375
29965TIP3    H190777   0.363   1.406   0.034  0.2350 -0.5800  0.1993
29965TIP3    H290778   0.435   1.292   0.103  1.3265  0.5847  1.0326
29966TIP3   OH290779   8.886   0.720   9.675 -0.5942 -0.0152 -0.3328
29966TIP3    H190780   8.836   0.704   9.755  0.5228 -0.1818  0.3634
29966TIP3    H290781   8.971   0.753   9.706 -0.0585 -0.3051 -1.4271
29967TIP3   OH290782   0.985   1.698   6.818  0.1273 -0.1574  0.3434
29967TIP3    H190783   1.050   1.693   6.888  1.9128 -0.2935 -1.2431
29967TIP3    H290784   0.922   1.764   6.847  2.5274  2.0908  0.7254
29968TIP3   OH290785   3.810   0.198   9.814  0.3169  0.3022  0.7155
29968TIP3    H190786   3.898   0.163   9.822  0.9344  1.0963 -1.6931
29968TIP3    H290787   3.762   0.131   9.765  0.0593  0.5709  0.5945
29969TIP3   OH290788   4.938   1.486   1.910 -0.2958 -0.6972 -0.2844
29969TIP3    H190789   4.910   1.401   1.942 -0.5686 -0.6502 -0.3996
29969TIP3    H290790   4.903   1.549   1.973 -0.9883 -0.5903 -0.7687
29970TIP3   OH290791   3.759   8.705   3.873 -0.4799  0.1241 -0.0745
29970TIP3    H190792   3.750   8.800   3.863  1.5714  0.1419 -2.7872
29970TIP3    H290793   3.744   8.670   3.785  0.9343 -1.8578  0.4117
29971TIP3   OH290794   0.107   4.176  10.230 -0.1580  0.1071  0.4694
29971TIP3    H190795   0.091   4.110  10.297  0.1177  1.4168  1.8815
29971TIP3    H290796   0.201   4.192  10.234 -0.0002 -0.3676 -0.8133
29972TIP3   OH290797   6.734  10.752   5.126  0.3029  0.4912 -0.2610
29972TIP3    H190798   6.667  10.793   5.181  0.9641  1.3150 -0.0269
29972TIP3    H290799   6.687  10.689   5.072 -0.5041  0.3322  0.6032
29973TIP3   OH290800   4.163   9.093   2.906  0.4505  0.1112 -0.4336
29973TIP3    H190801   4.233   9.151   2.878 -0.7365  1.0877 -1.4499
29973TIP3    H290802   4.100   9.093   2.834 -0.8221 -0.3858  0.6354
29974TIP3   OH290803   3.595   9.495   5.912  0.1296 -0.0042  0.2563
29974TIP3    H190804   3.631   9.420   5.865 -0.2151  0.4820 -0.8268
29974TIP3    H290805   3.505   9.469   5.934 -0.1353  0.2251 -0.4972
29975TIP3   OH290806   6.032   8.806   1.721  0.0007 -0.3786 -0.6992
29975TIP3    H190807   6.010   8.814   1.814  2.3645  1.2836 -0.1760
29975TIP3    H290808   6.000   8.887   1.682  0.3927 -0.3607 -0.9942
29976TIP3   OH290809   7.184   3.211   7.414 -0.8886 -0.3315  0.8694
29976TIP3    H190810   7.247   3.271   7.374 -1.3818 -1.5685 -2.0047
29976TIP3    H290811   7.238   3.140   7.450 -0.5362 -0.2944  0.4176
29977TIP3   OH290812   6.318   1.941   8.201 -0.3552 -0.9147  0.1007
29977TIP3    H190813   6.344   1.853   8.174  2.3151  0.0820 -0.8761
29977TIP3    H290814   6.321   1.939   8.297  1.4318 -1.4587  0.0710
29978TIP3   OH290815   2.082   9.774   0.599 -0.3609 -0.5942 -0.3120
29978TIP3    H190816   1.997   9.763   0.556 -0.2375 -0.1348 -0.6917
29978TIP3    H290817   2.092   9.869   0.609 -0.5351 -0.7014  1.0556
29979TIP3   OH290818   8.107   1.312   5.490  0.2940  0.3027 -0.1119
29979TIP3    H190819   8.138   1.305   5.581  0.2671  0.2764 -0.1051
29979TIP3    H290820   8.012   1.313   5.497  0.2670 -0.9954 -0.2307
29980TIP3   OH290821  10.276   0.541   2.062  0.4798  0.1772  0.1368
29980TIP3    H190822  10.339   0.475   2.092  0.4075 -0.9140 -1.9398
29980TIP3    H290823  10.195   0.493   2.048 -0.0183  1.0147  0.0433
29981TIP3   OH290824   6.724   9.842   6.046 -0.5925 -0.6009 -0.1208
29981TIP3    H190825   6.744   9.905   6.115 -0.4321 -0.5377 -0.2240
29981TIP3    H290826   6.745   9.887   5.964 -1.2775 -0.4852 -0.2434
29982TIP3   OH290827   1.559   1.579  10.527 -0.1626  0.3620  0.2393
29982TIP3    H190828   1.571   1.551  10.618  0.8530  2.1770  0.7359
29982TIP3    H290829   1.476   1.542  10.500  0.7394 -2.4357  1.0006
29983TIP3   OH290830   4.696   4.959   2.813  0.0779  0.4163  0.1509
29983TIP3    H190831   4.648   4.878   2.830 -1.8319  1.2742 -0.7972
29983TIP3    H290832   4.655   5.024   2.870 -0.1123  1.2372 -0.8873
29984TIP3   OH290833   8.801   9.515   6.307  0.1237  0.2694 -0.0978
29984TIP3    H190834   8.722   9.479   6.348 -0.1188 -1.1400 -1.6669
29984TIP3    H290835   8.872   9.488   6.365 -0.5543  2.6120  2.0145
29985TIP3   OH290836   5.442   1.028   0.315 -0.0749  0.2310  0.2364
29985TIP3    H190837   5.492   1.109   0.321 -0.3830  0.5269 -0.8847
29985TIP3    H290838   5.466   0.978   0.393  1.0213  0.8846  0.3276
29986TIP3   OH290839   3.319   2.066   6.659 -0.3370 -0.6562 -0.5725
29986TIP3    H190840   3.322   2.044   6.566  0.5220 -1.2755 -0.4063
29986TIP3    H290841   3.331   2.161   6.660  1.3955 -0.8393 -1.0196
29987TIP3   OH290842   5.645   5.202  10.821 -0.1626  0.3187 -0.0868
29987TIP3    H190843   5.721   5.186  10.878 -1.1343 -1.5658  0.7650
29987TIP3    H290844   5.680   5.194  10.732  1.1025  1.9362  0.2101
29988TIP3   OH290845   3.067   3.219   7.524 -0.5142  0.4261  0.1154
29988TIP3    H190846   3.050   3.172   7.442 -0.6023  0.0225  0.3575
29988TIP3    H290847   2.987   3.208   7.575 -0.0257 -0.3714  0.7394
29989TIP3   OH290848   2.072   2.670   9.357 -0.6640  0.6251  0.3459
29989TIP3    H190849   2.110   2.586   9.381  0.1977  0.9574  0.1891
29989TIP3    H290850   1.979   2.662   9.378 -0.2458  0.3250  2.2465
29990TIP3   OH290851   4.793   9.446   0.720 -0.3601  0.1066 -0.1533
29990TIP3    H190852   4.755   9.526   0.756  0.3581  1.2748 -1.8875
29990TIP3    H290853   4.815   9.394   0.797 -1.0416  1.4746  1.0154
29991TIP3   OH290854   3.748   9.247   8.902 -0.4104 -0.1494 -0.6072
29991TIP3    H190855   3.839   9.229   8.927 -0.9886 -3.6080 -0.4400
29991TIP3    H290856   3.696   9.185   8.954 -2.6807  0.4044 -2.0535
29992TIP3   OH290857   2.828   2.416   5.816 -0.5645  0.6299 -0.2250
29992TIP3    H190858   2.769   2.403   5.741  0.7980 -0.4343 -1.1703
29992TIP3    H290859   2.787   2.485   5.867 -2.8004 -0.2658 -0.6662
29993TIP3   OH290860   8.425   3.087   7.282 -0.2132  0.4985 -0.3515
29993TIP3    H190861   8.334   3.063   7.300  0.7289 -2.5698  0.9901
29993TIP3    H290862   8.461   3.108   7.368  0.3658  1.9164 -0.9010
29994TIP3   OH290863   9.862   5.790   6.164 -0.2668 -0.1021 -0.2849
29994TIP3    H190864   9.945   5.753   6.136 -0.0455 -0.6816  1.0371
29994TIP3    H290865   9.809   5.714   6.190 -0.6973  0.3411  0.1694
29995TIP3   OH290866   6.041  10.731   1.144  0.1892  0.5599 -0.1894
29995TIP3    H190867   5.995  10.813   1.128 -0.9969  0.1678  0.9884
29995TIP3    H290868   6.107  10.753   1.210 -2.3113  0.0445  2.7633
29996TIP3   OH290869   7.985   2.818   4.652 -0.1739  0.4583 -0.0914
29996TIP3    H190870   7.890   2.825   4.660 -0.1100 -0.1882  1.4206
29996TIP3    H290871   7.998   2.766   4.572 -1.0911  0.1809 -0.0744
29997TIP3   OH290872   9.102   3.659   7.950 -0.2736 -0.8472 -0.2175
29997TIP3    H190873   9.160   3.613   7.889  0.4463  0.0752 -0.2484
29997TIP3    H290874   9.047   3.714   7.895 -1.7865 -2.3326 -0.2529
29998TIP3   OH290875   2.981   7.869  10.342  0.2682 -0.0552 -0.2401
29998TIP3    H190876   3.071   7.849  10.317  0.5868  1.7535 -0.7206
29998TIP3    H290877   2.963   7.953  10.300 -1.5230 -0.1970  0.1641
29999TIP3   OH290878   2.834  10.530   7.666  0.3621  0.3826  0.1288
29999TIP3    H190879   2.765  10.595   7.682 -1.4802 -1.1601 -1.0117
29999TIP3    H290880   2.868  10.509   7.753 -1.3130  0.4940  0.8578
30000TIP3   OH290881   8.958   1.259   6.510 -0.6059 -0.0003 -0.2656
30000TIP3    H190882   8.900   1.333   6.491  0.0799  0.4194 -0.7726
30000TIP3    H290883   8.929   1.227   6.595 -0.0406  1.7438  0.6320
30001TIP3   OH290884   0.425   2.066   4.597 -0.0351 -0.6397 -0.6279
30001TIP3    H190885   0.359   2.041   4.532 -0.1552  0.4631 -0.9640
30001TIP3    H290886   0.376   2.116   4.662  0.4745  0.3025 -0.9496
30002TIP3   OH290887   9.727  10.435   6.442 -0.2402 -0.1863 -0.3280
30002TIP3    H190888   9.722  10.400   6.353 -0.1391 -0.9036 -0.0617
30002TIP3    H290889   9.820  10.453   6.455 -0.2577 -0.0627 -0.3729
30003TIP3   OH290890   6.050   4.515   8.742  0.2607  0.3175 -0.0492
30003TIP3    H190891   6.069   4.488   8.831  1.1377  1.2821  0.0768
30003TIP3    H290892   5.958   4.539   8.743 -0.3154 -1.7086  0.0471
30004TIP3   OH290893  10.311   8.335   6.000  0.5157  0.5577 -0.0648
30004TIP3    H190894  10.321   8.376   5.915  0.5370  2.0332  0.6202
30004TIP3    H290895  10.393   8.353   6.046  0.1622  0.5663  0.5855
30005TIP3   OH290896  10.446   2.886   8.302  0.1294 -0.0327  0.6168
30005TIP3    H190897  10.541   2.892   8.317  0.0471  3.0904  0.7023
30005TIP3    H290898  10.420   2.976   8.282 -2.5756 -1.1004 -1.1920
30006TIP3   OH290899   6.264   0.058   4.220 -0.4372  0.1058 -0.0918
30006TIP3    H190900   6.180   0.067   4.175 -0.0470  2.3163 -0.4640
30006TIP3    H290901   6.243   0.010   4.301 -2.0791  0.7700 -0.0970
30007TIP3   OH290902  10.248   1.477   1.940  0.4108  0.9032 -0.5212
30007TIP3    H190903  10.154   1.460   1.940  0.5961 -0.6138  1.9742
30007TIP3    H290904  10.257   1.561   1.986  0.3236  0.0875  1.0655
30008TIP3   OH290905   4.794   6.721   4.073 -0.4222 -0.2612  0.5208
30008TIP3    H190906   4.747   6.674   4.142 -1.3833  0.4585  0.3906
30008TIP3    H290907   4.725   6.755   4.016  0.1366  1.8710  0.9943
30009TIP3   OH290908   8.057   0.388   2.267  0.1185 -0.3868 -0.4908
30009TIP3    H190909   8.101   0.472   2.260 -1.3363  0.4608  0.1244
30009TIP3    H290910   8.036   0.364   2.176 -0.5652  0.5394 -0.5925
30010TIP3   OH290911   4.041   2.798   7.979  0.0116  0.2472  0.2966
30010TIP3    H190912   4.099   2.767   7.909 -1.2235  2.1464 -1.7086
30010TIP3    H290913   3.953   2.784   7.944 -0.6250  1.6093  1.2845
30011TIP3   OH290914   3.311   9.024  10.505 -0.2934 -0.2339 -0.6363
30011TIP3    H190915   3.315   9.117  10.483  0.1753 -0.3811 -1.2091
30011TIP3    H290916   3.236   8.990  10.456 -0.7643 -0.0625 -0.0421
30012TIP3   OH290917   2.768   2.383   8.846 -0.2920 -0.3684  0.3037
30012TIP3    H190918   2.814   2.440   8.784 -0.0450 -0.7807  0.1053
30012TIP3    H290919   2.684   2.365   8.804 -0.9213  0.9120  0.9548
30013TIP3   OH290920   1.081  10.268   5.178 -0.0131  0.3099 -0.5648
30013TIP3    H190921   1.092  10.363   5.170  0.7090  0.2076 -0.8048
30013TIP3    H290922   0.990  10.257   5.208  0.0797  1.1017  0.0459
30014TIP3   OH290923   2.642   4.076   2.175  0.3442 -0.0157  0.0922
30014TIP3    H190924   2.710   4.143   2.182  0.8305 -0.3720 -0.9805
30014TIP3    H290925   2.630   4.064   2.081 -1.4345  0.2501  0.2526
30015TIP3   OH290926   0.015   8.589   1.616  0.4391 -0.3675  0.2422
30015TIP3    H190927  -0.010   8.658   1.678 -0.5128 -0.0031 -0.5116
30015TIP3    H290928   0.105   8.610   1.591 -0.4635  1.8994 -1.5488
30016TIP3   OH290929   7.600   2.239   8.947 -0.4136 -0.0027 -0.1247
30016TIP3    H190930   7.690   2.210   8.961 -0.0760  1.5714  1.3233
30016TIP3    H290931   7.595   2.324   8.990 -1.9974  0.9954 -2.1134
30017TIP3   OH290932   7.089   4.596   6.733  0.3325 -0.0559  0.1720
30017TIP3    H190933   7.074   4.688   6.756 -0.8517 -0.1988  0.0151
30017TIP3    H290934   7.024   4.548   6.784  0.5259 -0.7586 -0.2363
30018TIP3   OH290935   6.669   6.894   2.191 -0.1986 -0.0917  0.1253
30018TIP3    H190936   6.609   6.938   2.131 -1.0023 -0.3048  0.7551
30018TIP3    H290937   6.617   6.822   2.228  0.9566 -1.3345 -0.5680
30019TIP3   OH290938   4.690   7.689   6.667 -0.5984 -0.0194  0.0847
30019TIP3    H190939   4.762   7.723   6.613 -0.0817  0.8175  1.2514
30019TIP3    H290940   4.688   7.595   6.647 -0.5009  0.2676 -1.4476
30020TIP3   OH290941   3.724   6.972   3.081  0.4892  0.1855 -0.5147
30020TIP3    H190942   3.654   6.986   3.145  0.0941 -0.8138 -0.7047
30020TIP3    H290943   3.801   7.012   3.121 -0.0001  0.5539  0.0832
30021TIP3   OH290944   7.954  10.131   4.932  0.1034  0.6573 -0.4198
30021TIP3    H190945   8.001  10.193   4.877  1.8341  1.0648  1.3992
30021TIP3    H290946   7.934  10.180   5.012 -0.4920 -0.4902  0.1715
30022TIP3   OH290947   1.305   2.183   5.510 -0.0351 -0.3208 -0.1009
30022TIP3    H190948   1.256   2.263   5.528  1.3294  0.0847  2.2347
30022TIP3    H290949   1.356   2.203   5.432 -0.6060  0.6670 -0.2345
30023TIP3   OH290950   6.418  10.659   0.179 -0.2182  0.1022  0.1765
30023TIP3    H190951   6.458  10.709   0.108 -0.9628  0.3656 -0.0695
30023TIP3    H290952   6.400  10.573   0.140  1.4913 -0.5503  0.7339
30024TIP3   OH290953   2.807   3.355   6.341 -0.0500  0.1550  0.3481
30024TIP3    H190954   2.786   3.337   6.249  2.3425  0.5326 -0.3609
30024TIP3    H290955   2.745   3.422   6.368 -2.6586 -1.9568 -0.0471
30025TIP3   OH290956   5.521   5.692   2.863  0.2041  0.1977 -0.4142
30025TIP3    H190957   5.573   5.630   2.914 -0.8929  0.0038  0.5057
30025TIP3    H290958   5.492   5.758   2.927 -2.0550 -0.6135 -0.5200
30026TIP3   OH290959   4.321   2.336   7.005 -0.4023  0.1190  0.0789
30026TIP3    H190960   4.404   2.292   7.025 -0.2171 -0.3105 -1.4951
30026TIP3    H290961   4.262   2.266   6.978  0.0640  0.7714 -3.0025
30027TIP3   OH290962   4.260   6.376  10.241  0.0812 -0.2062 -0.3285
30027TIP3    H190963   4.344   6.349  10.205  0.1017  0.3796 -0.7318
30027TIP3    H290964   4.228   6.299  10.289  0.3679 -0.7679 -1.0251
30028TIP3   OH290965   9.769   8.268   7.434 -0.2613  0.1144  0.2804
30028TIP3    H190966   9.787   8.303   7.521 -2.5986 -0.0370  0.8912
30028TIP3    H290967   9.733   8.180   7.451  0.2073 -0.3243 -0.8984
30029TIP3   OH290968   9.265   2.292   8.673  0.1464  0.5414 -0.3928
30029TIP3    H190969   9.289   2.239   8.750 -0.7668 -0.4312 -0.7564
30029TIP3    H290970   9.172   2.309   8.685 -0.0430  0.2203 -1.3837
30030TIP3   OH290971   1.806   4.186   1.417 -0.0497  0.0678 -0.2671
30030TIP3    H190972   1.857   4.259   1.383  1.9897 -0.1804  1.9768
30030TIP3    H290973   1.871   4.131   1.463 -1.7630 -2.2950 -0.5094
30031TIP3   OH290974   5.508   7.331   1.658 -0.3740 -0.7951 -0.0325
30031TIP3    H190975   5.536   7.422   1.656 -0.1984 -0.8485 -1.7789
30031TIP3    H290976   5.561   7.287   1.591 -2.8164 -1.4067 -1.7486
30032TIP3   OH290977   9.412   6.293   0.664  0.2650  0.0804  0.2852
30032TIP3    H190978   9.430   6.219   0.722  1.3374 -0.3756 -0.6026
30032TIP3    H290979   9.395   6.366   0.724  0.1100 -0.6561  1.1687
30033TIP3   OH290980   6.289   1.965   9.215  0.5499 -0.5391  0.2209
30033TIP3    H190981   6.234   1.917   9.153  1.1592  1.1236 -1.7232
30033TIP3    H290982   6.308   1.901   9.284  2.1548 -3.5314 -2.6510
30034TIP3   OH290983   4.597   4.157   4.265  0.3931 -0.1908 -0.3722
30034TIP3    H190984   4.533   4.089   4.242  0.6974  0.2419 -2.6808
30034TIP3    H290985   4.669   4.144   4.203  1.5178  0.7891  0.6889
30035TIP3   OH290986   6.141   0.204  10.385  0.6343  0.0382  0.0290
30035TIP3    H190987   6.221   0.185  10.336  1.2004  0.7828  0.6410
30035TIP3    H290988   6.167   0.199  10.477  0.0861  0.7078  0.2293
30036TIP3   OH290989   9.783   6.166   3.374 -0.8793 -0.1175  0.1997
30036TIP3    H190990   9.759   6.185   3.284 -1.1528 -0.3921  0.2141
30036TIP3    H290991   9.701   6.164   3.422 -0.6035  1.9516  0.8480
30037TIP3   OH290992   3.773   5.096   4.170 -0.6111  0.1117 -0.3689
30037TIP3    H190993   3.688   5.127   4.140 -0.2990  1.8789  0.4196
30037TIP3    H290994   3.834   5.168   4.150  0.5439 -0.7801 -0.1847
30038TIP3   OH290995   3.781   6.481   7.452  0.4378  0.1114 -0.3927
30038TIP3    H190996   3.796   6.405   7.509  2.2163  0.3941 -0.4483
30038TIP3    H290997   3.686   6.495   7.456  0.3571 -0.6836  1.4507
30039TIP3   OH290998   0.042   5.567   3.981 -0.4946 -0.3183 -0.4185
30039TIP3    H190999   0.003   5.557   4.068  1.0931  0.2714  0.3880
30039TIP3    H291000   0.127   5.522   3.987  0.6763  1.7165 -0.9268
30040TIP3   OH291001   9.471   7.432   2.663  0.3126 -0.4050  0.1684
30040TIP3    H191002   9.486   7.401   2.574  0.1228 -0.2359  0.0774
30040TIP3    H291003   9.435   7.356   2.710  0.3505 -0.4734  0.0855
30041TIP3   OH291004   8.207   0.746   6.087  0.8078 -0.4498 -0.0519
30041TIP3    H191005   8.155   0.796   6.024  0.2157  0.3962  1.0769
30041TIP3    H291006   8.232   0.667   6.040 -0.2154 -0.1640 -1.1187
30042TIP3   OH291007   8.772   3.758   1.008 -0.4591  0.2232 -0.0061
30042TIP3    H191008   8.716   3.832   1.031 -1.0059 -0.3836  0.6723
30042TIP3    H291009   8.759   3.695   1.079  0.1103 -0.4620 -0.4924
30043TIP3   OH291010  10.329   1.602   4.935  0.9859  0.2861  0.4713
30043TIP3    H191011  10.421   1.619   4.957  0.6048  1.2970  1.4287
30043TIP3    H291012  10.306   1.524   4.985  1.6169 -0.6427 -0.6556
30044TIP3   OH291013   5.063   9.343   8.825 -0.1018  0.5030 -0.2583
30044TIP3    H191014   5.130   9.412   8.824 -2.1346  2.6165 -1.6521
30044TIP3    H291015   4.997   9.374   8.888 -0.1686 -1.1776  0.5617
30045TIP3   OH291016   3.175   2.363   4.751 -0.0712 -0.1892 -0.2591
30045TIP3    H191017   3.124   2.290   4.716 -0.5209  0.6133 -1.3210
30045TIP3    H291018   3.143   2.440   4.704 -0.3340  0.8740  1.5806
30046TIP3   OH291019   7.769  10.343   7.269  0.6380 -0.0522  0.2124
30046TIP3    H191020   7.690  10.290   7.274  0.1657  0.6116  0.0071
30046TIP3    H291021   7.828  10.306   7.334  0.3272 -0.8312  0.0582
30047TIP3   OH291022   3.677   9.311   0.409  0.7309  0.0400 -0.4557
30047TIP3    H191023   3.688   9.393   0.458  2.1262  0.1226 -0.8682
30047TIP3    H291024   3.736   9.319   0.334 -0.8478 -0.3788 -1.8110
30048TIP3   OH291025   4.895   9.666   5.123 -0.7513  0.4324 -0.2020
30048TIP3    H191026   4.824   9.662   5.187 -0.5956 -1.2172 -0.0720
30048TIP3    H291027   4.900   9.577   5.088  2.3679 -0.0496  1.1055
30049TIP3   OH291028   3.119  10.031   5.601  0.4318 -0.0771  0.5282
30049TIP3    H191029   3.136  10.047   5.693  1.4255 -1.2412  0.5727
30049TIP3    H291030   3.168  10.099   5.555  1.0711 -0.3342  0.8251
30050TIP3   OH291031   4.611   6.106   9.697 -0.7203 -0.3847 -0.6148
30050TIP3    H191032   4.689   6.157   9.674 -0.8809 -0.0962 -0.5242
30050TIP3    H291033   4.540   6.148   9.649 -1.2375  0.8427  1.1316
30051TIP3   OH291034   7.822   5.509   8.460  0.6823 -0.1137  0.4884
30051TIP3    H191035   7.758   5.494   8.391  1.1325  1.1525 -0.2386
30051TIP3    H291036   7.803   5.443   8.527 -1.4970  0.3704  0.3932
30052TIP3   OH291037   2.999   7.570   1.697 -0.1537  0.1157  0.3516
30052TIP3    H191038   2.913   7.612   1.691  0.2231  0.8615  0.0695
30052TIP3    H291039   3.050   7.607   1.625  0.0049 -1.2985 -0.3092
30053TIP3   OH291040   5.289   8.003   3.729  0.4518  0.3467  0.0054
30053TIP3    H191041   5.265   8.020   3.638 -0.2201 -0.1630  0.0849
30053TIP3    H291042   5.382   7.979   3.725  0.6164  1.0374 -0.4538
30054TIP3   OH291043   0.946   3.624   3.460 -0.4996 -0.1244 -0.0548
30054TIP3    H191044   0.967   3.596   3.549 -1.4627 -1.8347 -0.3168
30054TIP3    H291045   0.858   3.661   3.466 -0.3700  0.2275 -0.2292
30055TIP3   OH291046   3.670   9.492   0.154  0.0961 -0.2457  0.2583
30055TIP3    H191047   3.642   9.545   0.229  1.5422  2.3206 -0.9031
30055TIP3    H291048   3.596   9.496   0.093  0.6225  1.5097 -0.3142
30056TIP3   OH291049   8.999   2.656   0.756 -0.0484  0.2094 -0.0641
30056TIP3    H191050   9.051   2.607   0.692 -0.6377 -0.0622 -0.3485
30056TIP3    H291051   9.056   2.727   0.783  0.5306 -0.1704 -0.2485
30057TIP3   OH291052   5.403   3.748   3.409  0.5542 -0.2546 -0.7072
30057TIP3    H191053   5.401   3.827   3.463 -0.6885 -1.4671  1.1114
30057TIP3    H291054   5.374   3.778   3.322  0.0374  1.2861 -0.0396
30058TIP3   OH291055   7.608   4.995   8.975  0.0085 -0.1350  0.4662
30058TIP3    H191056   7.695   4.962   8.996  0.1755  0.2449  0.3821
30058TIP3    H291057   7.562   4.919   8.938 -0.3787 -0.8946  2.3687
30059TIP3   OH291058   6.971   0.997   1.701  0.5592  0.1383  0.4087
30059TIP3    H191059   6.882   1.001   1.667  0.0846 -1.4846  1.3152
30059TIP3    H291060   7.026   1.028   1.629 -0.6646  0.3298 -0.4811
30060TIP3   OH291061   3.962   5.614   1.530  0.4654  0.1708 -1.5028
30060TIP3    H191062   3.943   5.561   1.452 -0.6953 -0.7340 -0.6295
30060TIP3    H291063   3.993   5.551   1.595  2.0542  1.0107 -1.4021
30061TIP3   OH291064   8.265  10.312   7.449  0.9046 -0.3853 -0.1400
30061TIP3    H191065   8.291  10.402   7.432  0.7140 -0.2011  0.5209
30061TIP3    H291066   8.300  10.293   7.536 -0.5670 -0.3653  0.4743
30062TIP3   OH291067   6.482   2.522   6.514 -0.4467  0.4926  0.1594
30062TIP3    H191068   6.391   2.498   6.498 -0.2563 -0.4422  0.4333
30062TIP3    H291069   6.507   2.573   6.437 -1.1613  0.6626  0.0300
30063TIP3   OH291070   6.608   0.111  10.100  0.2686  0.2628 -0.2806
30063TIP3    H191071   6.641   0.169  10.170  0.9883 -0.3290 -0.1124
30063TIP3    H291072   6.671   0.038  10.099  0.5097  0.4718 -1.8375
30064TIP3   OH291073   6.929   7.240   0.875  0.2595 -0.1084 -0.1518
30064TIP3    H191074   7.006   7.183   0.881 -0.2018 -0.8712 -1.0469
30064TIP3    H291075   6.865   7.186   0.828 -0.7609  0.5700  0.4453
30065TIP3   OH291076   1.451   5.588   6.560  0.3840  0.4237  0.4187
30065TIP3    H191077   1.472   5.587   6.466 -1.4808  1.6737 -0.0597
30065TIP3    H291078   1.509   5.654   6.597 -0.0515  1.1414 -0.1731
30066TIP3   OH291079   5.761   2.529   6.740 -0.4554  0.4158  0.3853
30066TIP3    H191080   5.797   2.587   6.807 -2.2768  0.5214  1.3051
30066TIP3    H291081   5.802   2.559   6.658  1.0088  0.9447  1.2778
30067TIP3   OH291082   6.110   8.879   3.605  0.3184  0.0948  0.4723
30067TIP3    H191083   6.199   8.913   3.617  0.0330  1.2254 -0.3677
30067TIP3    H291084   6.056   8.958   3.597 -0.2970 -0.4960 -2.1155
30068TIP3   OH291085   7.519   4.359   2.489  0.1319  0.3710  0.1702
30068TIP3    H191086   7.509   4.269   2.457  2.3618 -0.0591  0.5211
30068TIP3    H291087   7.561   4.350   2.574  0.3061  1.7480  0.2490
30069TIP3   OH291088   4.431  10.857  10.423 -0.4058 -0.0636  0.1257
30069TIP3    H191089   4.339  10.852  10.397 -0.5802 -0.1430  0.7340
30069TIP3    H291090   4.480  10.857  10.341 -0.9327 -0.4387 -0.1927
30070TIP3   OH291091  10.556   4.020   3.574 -0.2810  0.2895  0.2628
30070TIP3    H191092  10.485   3.967   3.611 -0.3049 -0.2060 -0.4748
30070TIP3    H291093  10.545   4.106   3.613 -0.5053 -0.1315  1.1499
30071TIP3   OH291094   9.399   3.401   8.637  0.0865  0.1378  0.1074
30071TIP3    H191095   9.415   3.482   8.685  2.3854  0.1508 -0.5617
30071TIP3    H291096   9.411   3.424   8.545 -1.8092 -0.4378 -0.3303
30072TIP3   OH291097   5.211   5.416   8.827 -0.3024  0.1832 -0.6632
30072TIP3    H191098   5.233   5.467   8.905 -0.0399  0.4961 -0.9413
30072TIP3    H291099   5.264   5.336   8.835  0.1199  0.4489 -0.7841
30073TIP3   OH291100   7.226   8.045   3.023  0.0713  0.1132  0.6295
30073TIP3    H191101   7.180   7.963   3.009 -0.7640  0.3078  2.0228
30073TIP3    H291102   7.166   8.112   2.990 -0.0132  0.2624  1.0730
30074TIP3   OH291103   7.336  10.516   2.097 -0.5039  0.1967 -0.3900
30074TIP3    H191104   7.340  10.567   2.178 -0.2626 -1.2840  0.5704
30074TIP3    H291105   7.424  10.522   2.061 -0.7544  1.3168 -0.8671
30075TIP3   OH291106   5.916   1.567  10.764  0.2673 -0.2852  0.2730
30075TIP3    H191107   5.832   1.559  10.809 -0.4810 -0.0895 -1.0253
30075TIP3    H291108   5.980   1.535  10.827 -0.6129  0.7766  1.7763
30076TIP3   OH291109   8.089   7.865   1.385 -0.0542 -0.2184  0.2787
30076TIP3    H191110   8.036   7.945   1.382 -2.0672 -1.4404  0.8527
30076TIP3    H291111   8.140   7.873   1.465  0.1798  0.7246  0.0490
30077TIP3   OH291112   7.814   4.540   5.248  0.0963 -0.2670 -0.4866
30077TIP3    H191113   7.779   4.507   5.330 -0.2314  1.2310  0.0038
30077TIP3    H291114   7.902   4.501   5.242 -0.6468 -2.0475 -0.4998
30078TIP3   OH291115   5.541   0.378   8.589 -0.2059 -0.9706  0.4879
30078TIP3    H191116   5.571   0.294   8.555 -1.8599 -0.7938 -1.6527
30078TIP3    H291117   5.472   0.356   8.652  2.1960 -1.2644  3.2219
30079TIP3   OH291118  10.727   2.975   2.144 -0.3478  0.5549 -0.1556
30079TIP3    H191119  10.637   2.953   2.169 -0.2323 -0.2125 -0.3921
30079TIP3    H291120  10.778   2.899   2.172 -0.1830 -0.3005 -2.5703
30080TIP3   OH291121   9.737   9.522   9.844  0.4361  0.3217 -0.1160
30080TIP3    H191122   9.783   9.588   9.896  0.5076 -0.1717  0.4543
30080TIP3    H291123   9.800   9.497   9.776  1.0734 -0.4326  0.7266
30081TIP3   OH291124  10.309   6.554   5.701 -0.6203 -0.0251 -0.3098
30081TIP3    H191125  10.362   6.537   5.778 -0.4224 -0.5644 -0.5593
30081TIP3    H291126  10.262   6.472   5.685 -0.4303 -0.0214 -0.9358
30082TIP3   OH291127   5.140   4.730   5.979 -0.1462  0.1088  0.5832
30082TIP3    H191128   5.044   4.737   5.976 -0.1930 -0.4559  0.5766
30082TIP3    H291129   5.157   4.638   5.958  0.3144 -0.1894  2.1615
30083TIP3   OH291130   0.996   9.674   3.109  0.2772 -0.5048  0.1452
30083TIP3    H191131   1.034   9.662   3.023  0.7022 -1.5391  0.4622
30083TIP3    H291132   0.959   9.762   3.107  1.3891 -0.0327 -0.6671
30084TIP3   OH291133   3.472  10.051   7.137  0.0482  0.0684  0.2806
30084TIP3    H191134   3.490  10.053   7.231  0.3564 -1.3017  0.2721
30084TIP3    H291135   3.428  10.134   7.120  0.2166  0.4571  1.5858
30085TIP3   OH291136   3.361   5.217   8.407  0.3139 -0.3483  0.0308
30085TIP3    H191137   3.380   5.219   8.501 -0.1317  0.2954  0.1119
30085TIP3    H291138   3.447   5.215   8.365  0.5192 -0.4436  0.4447
30086TIP3   OH291139   3.500   4.694   5.130  0.4570  0.3891  0.4471
30086TIP3    H191140   3.479   4.601   5.138 -0.2200  0.5416  0.4939
30086TIP3    H291141   3.529   4.719   5.218 -0.8084  0.5667  0.8316
30087TIP3   OH291142   7.703   0.809   2.421 -0.9099  0.1952  0.1312
30087TIP3    H191143   7.673   0.718   2.416  0.5014 -0.2199 -1.6219
30087TIP3    H291144   7.767   0.817   2.351 -0.7143  2.4556  0.5040
30088TIP3   OH291145   7.192   0.928   8.739  0.3063 -0.1334  0.2150
30088TIP3    H191146   7.131   0.854   8.732  0.0881  0.0152  0.5086
30088TIP3    H291147   7.277   0.887   8.755  0.3277 -0.3515 -0.4408
30089TIP3   OH291148   0.720  10.851   3.228  0.2250 -0.3773 -0.1594
30089TIP3    H191149   0.688  10.868   3.139 -1.0639 -1.3362  0.0982
30089TIP3    H291150   0.749  10.760   3.226 -1.4481 -0.9898  0.8099
30090TIP3   OH291151   0.844   2.428   0.952  0.0762  0.4720 -0.8860
30090TIP3    H191152   0.845   2.521   0.929  2.7096  1.0217  0.9514
30090TIP3    H291153   0.935   2.407   0.972 -0.7340 -1.9609  0.7663
30091TIP3   OH291154   5.318   7.076   4.472 -0.0313  0.1566  0.6923
30091TIP3    H191155   5.273   7.081   4.388 -0.3656 -0.5710  0.8216
30091TIP3    H291156   5.328   7.167   4.499  0.0593  0.3962 -0.1211
30092TIP3   OH291157   4.293   1.930   4.240 -0.3364 -0.1032 -0.1736
30092TIP3    H191158   4.333   1.891   4.317  1.6755  0.2448 -0.9777
30092TIP3    H291159   4.345   1.898   4.167 -2.3676 -0.6652 -1.4570
30093TIP3   OH291160   0.379   8.191   9.375  1.0331  0.0228 -0.0900
30093TIP3    H191161   0.356   8.119   9.435  0.4540  0.7462  0.5779
30093TIP3    H291162   0.323   8.177   9.299  1.5990 -0.7639 -0.3859
30094TIP3   OH291163   6.278   4.026   0.753  0.3513  0.8836 -0.9488
30094TIP3    H191164   6.370   4.006   0.737  0.3684 -0.3424  0.4814
30094TIP3    H291165   6.242   3.947   0.792 -1.6727  0.8498 -2.6899
30095TIP3   OH291166   1.784   7.889   7.116 -0.7073 -0.1598  0.2142
30095TIP3    H191167   1.879   7.880   7.110 -0.5802  0.7700  0.6909
30095TIP3    H291168   1.750   7.830   7.049  0.1773 -1.1129  0.5813
30096TIP3   OH291169  10.649   4.569   1.180  0.3951  0.1616 -0.1641
30096TIP3    H191170  10.739   4.600   1.191  1.6031 -2.3911 -1.8453
30096TIP3    H291171  10.637   4.563   1.086 -1.0544 -0.8648  0.0488
30097TIP3   OH291172   4.685   6.398   7.543  0.4253 -0.4954  0.2948
30097TIP3    H191173   4.655   6.435   7.460  1.4359 -1.3992 -0.4991
30097TIP3    H291174   4.747   6.462   7.578 -1.3703  0.7943  1.3387
30098TIP3   OH291175  10.139   8.578   7.271 -0.1496 -0.3393 -0.1885
30098TIP3    H191176  10.219   8.596   7.222 -0.1458 -0.8262 -0.3759
30098TIP3    H291177  10.111   8.492   7.239 -0.6121 -0.2830  0.0544
30099TIP3   OH291178   4.133   1.120   3.284 -0.3683 -0.1651  0.4766
30099TIP3    H191179   4.116   1.137   3.191 -0.4067 -1.9130  0.1362
30099TIP3    H291180   4.170   1.203   3.317 -2.9526  1.4489 -0.3794
30100TIP3   OH291181  10.310   0.147   5.174 -0.4446 -0.3179 -0.4883
30100TIP3    H191182  10.358   0.080   5.224 -2.9871 -0.9497  1.3075
30100TIP3    H291183  10.286   0.212   5.239 -3.2750 -0.8200 -0.9246
30101TIP3   OH291184   9.971   8.533  10.019  0.2453  0.3480 -0.0281
30101TIP3    H191185  10.040   8.599  10.022  0.6745 -0.1277  0.7639
30101TIP3    H291186   9.902   8.568  10.076 -0.3453  0.9868 -1.0866
30102TIP3   OH291187   0.450   7.095   9.574  0.3717 -0.0569 -0.1462
30102TIP3    H191188   0.474   7.101   9.667 -2.8406 -1.8295  0.9619
30102TIP3    H291189   0.388   7.166   9.560  1.4933  0.7489 -1.2451
30103TIP3   OH291190   7.869   4.743   6.889  0.6405 -0.6260 -0.1758
30103TIP3    H191191   7.901   4.736   6.979 -0.3772 -0.9765  0.1708
30103TIP3    H291192   7.919   4.815   6.851  0.3106  0.2406  0.9970
30104TIP3   OH291193   7.261   8.611   2.468  0.3444 -0.3420 -0.5391
30104TIP3    H191194   7.328   8.603   2.400 -0.3698 -0.7781 -1.2158
30104TIP3    H291195   7.191   8.552   2.439 -0.2542 -0.0284  0.2388
30105TIP3   OH291196   8.601  10.889   3.146  0.8257  0.4597  0.0713
30105TIP3    H191197   8.676  10.907   3.089  1.7786 -0.3822  1.0232
30105TIP3    H291198   8.619  10.802   3.182 -0.9289 -0.0380 -0.1640
30106TIP3   OH291199   4.461   5.131   0.933 -0.5593 -0.2538  0.3695
30106TIP3    H191200   4.527   5.102   0.995  0.6500  0.2302 -0.6596
30106TIP3    H291201   4.462   5.064   0.864 -2.5105 -1.2659  1.2206
30107TIP3   OH291202   0.192   8.393   4.315  0.2166  0.7066 -0.3995
30107TIP3    H191203   0.103   8.375   4.344 -0.4899  3.9130 -0.2551
30107TIP3    H291204   0.208   8.328   4.246 -2.7412  0.8334 -1.3509
30108TIP3   OH291205   1.021   8.306   3.058  0.2594  0.0658  0.2473
30108TIP3    H191206   1.007   8.396   3.086 -1.4078 -0.3516  0.9243
30108TIP3    H291207   1.088   8.272   3.117  1.1952  0.9505 -0.2746
30109TIP3   OH291208   6.183   6.406   3.455  0.3249 -0.4625 -0.4739
30109TIP3    H191209   6.198   6.387   3.362  0.4067 -0.0527 -0.5446
30109TIP3    H291210   6.271   6.408   3.493  0.3957  0.8602 -0.6778
30110TIP3   OH291211   8.115   7.254   7.021  0.0428 -0.1126 -0.4015
30110TIP3    H191212   8.150   7.222   7.104 -2.1197 -1.3966  0.1014
30110TIP3    H291213   8.163   7.334   7.004  1.2530 -0.3514  1.5762
30111TIP3   OH291214   3.782   3.809   7.224  0.0309 -0.0079  0.1285
30111TIP3    H191215   3.813   3.861   7.149  0.8258 -0.3830  0.1877
30111TIP3    H291216   3.687   3.815   7.220  0.0710  2.8464  1.0782
30112TIP3   OH291217   7.452   2.541   1.561 -0.2294  1.0099  0.1407
30112TIP3    H191218   7.361   2.524   1.534 -0.1452  1.4903 -0.4924
30112TIP3    H291219   7.483   2.458   1.596 -0.2474  0.2162 -1.5931
30113TIP3   OH291220   1.194   8.455   3.257 -0.3455  0.4794 -0.3066
30113TIP3    H191221   1.137   8.470   3.334  0.3144  1.4261  0.0189
30113TIP3    H291222   1.267   8.515   3.270  0.9812 -1.0308 -0.4979
30114TIP3   OH291223   8.029   2.489   9.170  0.1571  0.0027 -0.1665
30114TIP3    H191224   7.993   2.402   9.152 -2.7434  0.9345  0.5865
30114TIP3    H291225   7.995   2.544   9.100  0.0791  0.9497  0.5898
30115TIP3   OH291226   0.694   9.348   8.833  0.0034  0.0175  0.7767
30115TIP3    H191227   0.720   9.256   8.821 -0.9784 -0.1692 -0.0660
30115TIP3    H291228   0.693   9.360   8.928  0.7934 -0.6422  0.8819
30116TIP3   OH291229   0.687   1.580   8.143 -0.1511 -1.2045  0.2194
30116TIP3    H191230   0.761   1.622   8.101 -0.7314  0.7385  1.0353
30116TIP3    H291231   0.726   1.523   8.209  0.6479  0.5276  1.3136
30117TIP3   OH291232   3.217   6.440   4.861 -0.1809 -0.2341 -0.2240
30117TIP3    H191233   3.157   6.504   4.900 -0.2344 -0.8997  0.8270
30117TIP3    H291234   3.304   6.477   4.873 -0.0907 -0.9423  1.6338
30118TIP3   OH291235   7.732   3.881   9.479  0.8805 -0.0220  0.6398
30118TIP3    H191236   7.757   3.825   9.552  2.4862  2.6375  2.2722
30118TIP3    H291237   7.797   3.861   9.411  0.5733 -1.0941  0.6314
30119TIP3   OH291238   4.509  10.102  10.211  0.1290 -0.0930  0.1592
30119TIP3    H191239   4.593  10.122  10.169 -0.1888  1.6942  0.2894
30119TIP3    H291240   4.508  10.156  10.290 -1.1688 -0.0261  0.1250
30120TIP3   OH291241   8.436   7.025   6.826  0.7499  0.5873 -0.0250
30120TIP3    H191242   8.412   7.117   6.821  1.6162  0.8514  0.5365
30120TIP3    H291243   8.519   7.019   6.778  0.2554 -0.0674 -0.8189
30121TIP3   OH291244   5.710   1.127   8.707 -0.2714  0.0449 -0.6716
30121TIP3    H191245   5.671   1.165   8.786  0.5867  0.8279 -0.6114
30121TIP3    H291246   5.642   1.137   8.640  0.2481  2.6338 -0.9263
30122TIP3   OH291247   9.979   0.207   3.096  0.0267  0.0499  0.0177
30122TIP3    H191248  10.063   0.252   3.087  1.0744 -1.6730  0.7065
30122TIP3    H291249   9.915   0.271   3.065  1.6828  0.9494 -1.8514
30123TIP3   OH291250   8.545   4.890   4.262  0.2783  0.0241 -0.0707
30123TIP3    H191251   8.495   4.828   4.209 -1.9754  0.9339  0.8687
30123TIP3    H291252   8.636   4.861   4.253 -0.5093 -2.4405 -0.9177
30124TIP3   OH291253   6.774   3.583   3.098  0.3677  0.5627 -0.1547
30124TIP3    H191254   6.748   3.496   3.128  0.5268  0.4731 -0.2742
30124TIP3    H291255   6.725   3.644   3.154  0.3976  0.3974  0.0491
30125TIP3   OH291256   5.115   2.502   6.194  0.2325  0.1327  0.1033
30125TIP3    H191257   5.146   2.483   6.282  1.0606  0.3508 -0.1295
30125TIP3    H291258   5.022   2.483   6.197  0.1982  0.3984  1.0994
30126TIP3   OH291259   4.973   6.138   4.073  0.1220  0.1935  0.0770
30126TIP3    H191260   4.926   6.157   3.992  0.0984  1.6963  0.4188
30126TIP3    H291261   5.032   6.067   4.050 -0.5952 -0.0879 -0.9898
30127TIP3   OH291262   9.839   0.811   7.769 -0.3449  0.0491  0.4517
30127TIP3    H191263   9.777   0.880   7.793 -0.8156 -0.4265  0.6215
30127TIP3    H291264   9.922   0.839   7.808 -0.0500  1.4751 -1.0803
30128TIP3   OH291265   2.238   0.486   9.985  0.7059  0.7751  0.1970
30128TIP3    H191266   2.256   0.404  10.030  2.9045  0.9935 -0.2044
30128TIP3    H291267   2.230   0.462   9.893 -0.4718  0.8004  0.2687
30129TIP3   OH291268   7.363  10.406   4.503 -0.1945 -0.1698 -0.0242
30129TIP3    H191269   7.343  10.469   4.434  2.5323 -0.0432 -0.8468
30129TIP3    H291270   7.442  10.441   4.545  0.8632 -2.5294  0.1211
30130TIP3   OH291271   3.861   5.303   7.645 -0.0259  0.0785 -0.0789
30130TIP3    H191272   3.796   5.360   7.602 -0.6479  1.4522  2.4765
30130TIP3    H291273   3.937   5.360   7.658  0.3439 -0.4675  0.1661
30131TIP3   OH291274   7.910   7.019   5.729 -0.2857 -0.1179 -0.5483
30131TIP3    H191275   7.916   7.025   5.633 -1.1618  0.9780 -0.5537
30131TIP3    H291276   7.862   6.937   5.745 -0.1837 -0.2776 -1.0461
30132TIP3   OH291277   2.601   7.087   7.386 -0.0643 -0.5927  0.5353
30132TIP3    H191278   2.569   7.131   7.307 -1.9285 -0.5079  1.2990
30132TIP3    H291279   2.657   7.016   7.353  0.2696  0.2601 -0.8026
30133TIP3   OH291280   6.280   5.009   0.074 -0.3784  0.0822 -0.1584
30133TIP3    H191281   6.258   4.955  -0.002  1.7056 -0.3562 -0.5105
30133TIP3    H291282   6.282   4.948   0.147 -0.7871  0.2141 -0.0330
30134TIP3   OH291283   2.301   5.197   4.743 -0.0002 -0.2397 -0.3771
30134TIP3    H191284   2.325   5.201   4.836  0.1579  0.6573 -0.4422
30134TIP3    H291285   2.216   5.154   4.741  0.4155 -1.0947  0.1009
30135TIP3   OH291286   5.037   9.435   4.973 -0.1623 -0.1547 -0.1645
30135TIP3    H191287   5.100   9.388   5.028  0.8003  2.0547  0.7506
30135TIP3    H291288   5.091   9.480   4.908 -1.1014 -0.7227 -1.3977
30136TIP3   OH291289   6.649   5.792   0.651 -0.0896  0.2321 -0.0095
30136TIP3    H191290   6.640   5.882   0.619 -0.3572 -0.3636 -1.7111
30136TIP3    H291291   6.740   5.787   0.680  0.0861  0.9049 -0.3994
30137TIP3   OH291292   5.233   7.491   0.136  0.0422 -0.2587 -0.2137
30137TIP3    H191293   5.314   7.466   0.181  0.5987  2.0240  0.1612
30137TIP3    H291294   5.260   7.558   0.074 -1.4086 -0.2508 -0.8674
30138TIP3   OH291295   9.420   2.848   0.879 -0.3191 -0.7042  0.0703
30138TIP3    H191296   9.447   2.787   0.810 -0.1001 -1.9423  1.2182
30138TIP3    H291297   9.501   2.869   0.926 -0.2935  0.9497 -0.6458
30139TIP3   OH291298   3.127   1.406   5.127  0.2576 -0.4244  0.0223
30139TIP3    H191299   3.218   1.424   5.149  0.1078  0.5807 -0.1388
30139TIP3    H291300   3.078   1.480   5.163 -0.0181  1.3023 -3.4495
30140TIP3   OH291301   0.014   0.112  10.023 -0.2822  0.3790 -0.0805
30140TIP3    H191302  -0.080   0.131  10.021 -0.3963 -0.1803 -2.4324
30140TIP3    H291303   0.049   0.151   9.943  0.9195 -1.9431 -0.7967
30141TIP3   OH291304   2.483   7.480   4.331 -0.1483  0.0567 -0.6241
30141TIP3    H191305   2.530   7.559   4.356  0.6104 -0.8232  0.8396
30141TIP3    H291306   2.398   7.488   4.374 -0.2589  0.2925 -0.8820
30142TIP3   OH291307   7.980  10.127   6.669 -1.2106 -0.1359  0.0614
30142TIP3    H191308   7.992  10.095   6.758  1.0124 -0.6096 -0.3447
30142TIP3    H291309   7.948  10.051   6.620  1.1279 -1.0140 -0.2547
30143TIP3   OH291310   6.153   7.094   1.618 -0.2146  0.0521  0.3562
30143TIP3    H191311   6.154   7.048   1.702  0.0853 -0.8294 -0.1175
30143TIP3    H291312   6.073   7.146   1.621 -0.7747 -0.7928  0.7695
30144TIP3   OH291313   5.399   8.289   8.967 -0.2441 -0.2459 -0.2645
30144TIP3    H191314   5.359   8.357   9.020 -1.7233 -2.0681  1.0913
30144TIP3    H291315   5.402   8.325   8.878  2.3639  2.9316  0.9071
30145TIP3   OH291316   4.324   8.915   5.691 -1.0995 -0.3859  0.1044
30145TIP3    H191317   4.311   8.986   5.627 -1.7402  0.5740  1.2597
30145TIP3    H291318   4.393   8.862   5.653 -0.7579  0.7296 -0.9170
30146TIP3   OH291319   7.282   7.614   4.211 -0.2699 -0.4398  0.0797
30146TIP3    H191320   7.189   7.618   4.233 -0.7217 -0.9438 -1.6560
30146TIP3    H291321   7.321   7.563   4.283 -1.3964 -0.6336  0.5778
30147TIP3   OH291322   0.020   4.110   2.205  0.0810 -0.3481  0.0023
30147TIP3    H191323   0.010   4.195   2.249 -0.5190 -0.6535  0.4688
30147TIP3    H291324   0.111   4.109   2.177  0.2621  0.1924  0.5349
30148TIP3   OH291325   8.804   0.030   8.334 -0.1117  0.0440 -0.1171
30148TIP3    H191326   8.742  -0.018   8.389  0.8148  1.9333  2.8540
30148TIP3    H291327   8.889   0.017   8.376  0.9528  0.3760 -2.0442
30149TIP3   OH291328   6.730   5.511   0.883  0.0457 -0.0629  0.1375
30149TIP3    H191329   6.826   5.509   0.883  0.0468 -0.2457 -0.3808
30149TIP3    H291330   6.707   5.597   0.849  0.0454 -0.8251 -1.9622
30150TIP3   OH291331   8.316   4.269   5.063  0.0007  0.3910 -0.6202
30150TIP3    H191332   8.394   4.242   5.111 -1.0916  0.5712  1.3974
30150TIP3    H291333   8.243   4.233   5.115 -1.2852  1.3916 -1.6673
30151TIP3   OH291334   5.681   7.817  10.371 -0.0591  0.4515  0.2760
30151TIP3    H191335   5.670   7.863  10.287 -0.3979 -0.1579 -0.0242
30151TIP3    H291336   5.775   7.803  10.378 -0.1819 -1.5415 -1.1552
30152TIP3   OH291337   4.665   3.044   3.886  0.6080 -0.1425  0.1420
30152TIP3    H191338   4.743   3.007   3.928  0.2453  0.6688  1.5913
30152TIP3    H291339   4.597   3.038   3.953 -0.1660  0.6214 -0.5606
30153TIP3   OH291340   2.370   6.684   0.592  0.5231 -0.1736  0.4257
30153TIP3    H191341   2.410   6.639   0.666  2.2822 -1.6908 -1.3223
30153TIP3    H291342   2.286   6.640   0.580 -0.1996  0.6961  2.0095
30154TIP3   OH291343   8.990   8.376  10.411  0.1745 -0.5845 -0.0446
30154TIP3    H191344   9.078   8.411  10.395  0.0664 -0.1947  0.2082
30154TIP3    H291345   8.934   8.421  10.348 -0.0158 -0.0773  0.4804
30155TIP3   OH291346  10.666   9.232   7.203 -0.1560  0.3066  0.1855
30155TIP3    H191347  10.643   9.225   7.110  0.2137 -1.2398  0.1856
30155TIP3    H291348  10.611   9.166   7.245  0.7185  0.0017  0.8631
30156TIP3   OH291349   5.696   6.013   8.400 -0.1040 -0.2108 -0.0731
30156TIP3    H191350   5.647   6.088   8.367 -0.4909 -0.5015 -0.1702
30156TIP3    H291351   5.713   5.960   8.322 -0.0669 -0.3552  0.0331
30157TIP3   OH291352   1.980   3.396   1.636 -0.6954  0.4534  0.2304
30157TIP3    H191353   1.959   3.327   1.699  0.8368  0.0077  0.2983
30157TIP3    H291354   1.999   3.349   1.554 -0.6429  0.8708  0.0009
30158TIP3   OH291355   5.786   1.000   7.541  0.6928 -0.7962 -0.6060
30158TIP3    H191356   5.847   0.979   7.612 -0.3270  0.3489  0.6603
30158TIP3    H291357   5.730   0.922   7.535 -1.8221  0.5232  2.7258
30159TIP3   OH291358   6.069   1.900   3.943 -0.4740 -0.3997 -0.0672
30159TIP3    H191359   6.011   1.824   3.943 -1.0837  0.0362  1.4248
30159TIP3    H291360   6.064   1.935   4.032  0.9276  0.5357 -0.3122
30160TIP3   OH291361  10.510   1.327   7.917  0.4323  0.0995  0.3627
30160TIP3    H191362  10.552   1.402   7.876 -0.4302  0.5658  0.3018
30160TIP3    H291363  10.472   1.363   7.998  0.8129 -0.4738  0.7983
30161TIP3   OH291364   0.529   3.545   4.402  0.5605  0.0896 -0.7699
30161TIP3    H191365   0.559   3.458   4.375  2.1703 -0.3894  2.1322
30161TIP3    H291366   0.550   3.549   4.496 -0.8093  3.0751 -0.4972
30162TIP3   OH291367  10.400   1.663   3.204  0.1789  0.4846  0.2305
30162TIP3    H191368  10.341   1.587   3.208  0.1221  0.5613  0.9073
30162TIP3    H291369  10.399   1.699   3.293  0.6584  0.9381  0.0557
30163TIP3   OH291370   5.363   3.706   8.616 -0.3734  0.0957 -0.2689
30163TIP3    H191371   5.345   3.625   8.568 -1.2325 -1.1924  2.0516
30163TIP3    H291372   5.452   3.694   8.650 -0.2862  0.3822 -0.3967
30164TIP3   OH291373   9.985   4.288   6.329 -0.6333 -0.2471  0.2090
30164TIP3    H191374   9.986   4.377   6.365  0.4852 -0.8289  1.7268
30164TIP3    H291375   9.895   4.258   6.341 -1.0771  0.7268 -0.5181
30165TIP3   OH291376   0.532   8.952   7.836 -0.4544 -0.3200  0.2305
30165TIP3    H191377   0.448   8.991   7.809  0.6212  0.4720 -2.2684
30165TIP3    H291378   0.548   8.883   7.772  0.6872 -0.6176  0.8149
30166TIP3   OH291379   2.139   1.051   4.446 -0.3237  0.2309 -0.4303
30166TIP3    H191380   2.217   1.020   4.491 -1.0876 -0.4072  0.4843
30166TIP3    H291381   2.162   1.047   4.353  0.6292 -0.2056 -0.1869
30167TIP3   OH291382   9.047   3.240   1.310 -0.1694  0.3436 -0.3419
30167TIP3    H191383   9.053   3.145   1.318 -0.6449  0.3844  0.5889
30167TIP3    H291384   9.035   3.271   1.399  0.0512  1.2882 -0.6347
30168TIP3   OH291385   9.361   2.077   7.985 -0.0388  0.5103 -0.3160
30168TIP3    H191386   9.304   2.106   8.056 -0.1836 -1.7170  0.5653
30168TIP3    H291387   9.330   2.125   7.908 -2.3499  0.2721  0.3759
30169TIP3   OH291388   7.766   3.583   3.281 -0.3049 -0.1274 -0.4551
30169TIP3    H191389   7.725   3.633   3.352  0.0448  1.0030 -1.0093
30169TIP3    H291390   7.786   3.649   3.214 -1.4871 -1.2941 -2.0309
30170TIP3   OH291391   6.009   5.725   4.347  0.5806  0.4948 -0.8632
30170TIP3    H191392   6.071   5.656   4.321  0.0062 -0.4405  0.1589
30170TIP3    H291393   5.931   5.677   4.375  1.1950  1.3192  2.8132
30171TIP3   OH291394   5.286   4.631   7.782  0.0854 -0.1746  0.3084
30171TIP3    H191395   5.352   4.700   7.792  0.9429 -0.8122 -0.6560
30171TIP3    H291396   5.335   4.557   7.747 -1.3637 -0.2694 -1.6831
30172TIP3   OH291397   8.342   0.555   3.916  0.6615  0.2786  0.6507
30172TIP3    H191398   8.340   0.513   3.829  1.2650 -0.3703  0.9371
30172TIP3    H291399   8.357   0.647   3.898  1.4338  0.0494  0.0876
30173TIP3   OH291400   6.463   6.956   9.115  0.2530  0.1417 -0.6957
30173TIP3    H191401   6.421   6.909   9.044 -0.8443  0.9896 -0.6217
30173TIP3    H291402   6.553   6.968   9.085  0.5755 -1.9070 -0.7477
30174TIP3   OH291403   0.542   2.960   9.673 -0.1624  0.3413 -0.2524
30174TIP3    H191404   0.601   2.947   9.747 -1.9959 -3.3746  0.7905
30174TIP3    H291405   0.574   2.900   9.606 -1.7245 -0.5034 -0.2876
30175TIP3   OH291406   8.032   3.695   6.504  0.0207  0.3053 -0.9291
30175TIP3    H191407   8.010   3.606   6.530 -0.0037 -0.2350 -2.6659
30175TIP3    H291408   8.113   3.686   6.454  0.0761  1.2699 -1.0307
30176TIP3   OH291409  10.573   9.198   0.408  0.1135 -0.1408 -0.1998
30176TIP3    H191410  10.575   9.260   0.481  1.3148  0.9037 -1.0697
30176TIP3    H291411  10.517   9.239   0.342  0.6089 -0.1423 -0.6323
30177TIP3   OH291412   6.336  10.796   0.584 -0.2940 -0.5774 -0.4258
30177TIP3    H191413   6.280  10.827   0.513 -0.3762 -0.1813 -0.1876
30177TIP3    H291414   6.310  10.705   0.598 -1.1453 -0.2782 -0.0468
30178TIP3   OH291415   0.651   2.639   0.536 -0.1372 -0.2011  0.6001
30178TIP3    H191416   0.712   2.565   0.539  1.2439  0.8159 -0.7506
30178TIP3    H291417   0.703   2.713   0.565 -2.1443 -0.0372  4.3435
30179TIP3   OH291418   5.825   3.757   7.665 -0.2459  0.6111 -0.1149
30179TIP3    H191419   5.778   3.751   7.748 -2.3165 -1.3476 -1.3111
30179TIP3    H291420   5.850   3.666   7.645 -0.0831  0.9760 -1.7574
30180TIP3   OH291421   7.467   3.485   1.383 -0.3041  0.1525  0.2836
30180TIP3    H191422   7.427   3.572   1.381  0.2976  0.4599 -2.3598
30180TIP3    H291423   7.553   3.500   1.422 -0.3887  0.6469  0.2975
30181TIP3   OH291424   4.981   3.334   7.366  0.4008  0.1189  0.0875
30181TIP3    H191425   4.965   3.246   7.331 -0.5644  0.9262 -1.5993
30181TIP3    H291426   4.996   3.320   7.459 -1.2232 -1.6956  0.1369
30182TIP3   OH291427   0.535   5.422   2.565  0.3056  0.1949  0.1128
30182TIP3    H191428   0.526   5.507   2.523 -1.7714 -0.6073 -1.2253
30182TIP3    H291429   0.466   5.368   2.525  1.1650 -1.9389  1.3451
30183TIP3   OH291430   0.865   3.772   9.777 -0.2750 -0.7031  0.2568
30183TIP3    H191431   0.911   3.825   9.842 -0.8380  0.5609 -0.3305
30183TIP3    H291432   0.773   3.794   9.789 -0.5081 -1.4722 -0.0808
30184TIP3   OH291433   4.028   4.860   6.125 -0.2839  0.0135  0.8837
30184TIP3    H191434   4.050   4.949   6.098  0.3690 -0.0748  1.0944
30184TIP3    H291435   3.945   4.868   6.171  0.4327  0.7443  2.1035
30185TIP3   OH291436   4.892   7.624   4.540  0.3966 -0.1318  0.0655
30185TIP3    H191437   4.953   7.689   4.506 -0.3493  0.4390 -0.2128
30185TIP3    H291438   4.907   7.624   4.635  0.6519  0.1762  0.0268
30186TIP3   OH291439   6.576   6.365  10.806  0.2755 -0.3483 -0.0897
30186TIP3    H191440   6.567   6.433  10.872 -0.2417  1.0145 -1.5047
30186TIP3    H291441   6.488   6.329  10.796  0.1526  0.1053 -0.6934
30187TIP3   OH291442   1.653   5.066   5.577  1.1421 -0.1933  0.4970
30187TIP3    H191443   1.669   4.989   5.632  2.6576  0.7282  1.4086
30187TIP3    H291444   1.621   5.132   5.638 -1.2803 -0.3821 -0.4601
30188TIP3   OH291445   0.313   5.059   9.347 -0.0401 -0.0204 -0.0288
30188TIP3    H191446   0.242   5.123   9.343  0.0738  0.1487  0.5668
30188TIP3    H291447   0.319   5.023   9.258  1.7279  2.7969 -1.1877
30189TIP3   OH291448   3.718   6.147   8.972  0.4369 -0.9908 -0.0112
30189TIP3    H191449   3.655   6.196   9.024  0.7148 -1.2250  0.5496
30189TIP3    H291450   3.699   6.172   8.881  1.2532  0.9829  0.3096
30190TIP3   OH291451   3.212   1.593   7.983  0.8777 -0.0527  0.2953
30190TIP3    H191452   3.223   1.623   8.074  0.8935 -0.1633  0.3302
30190TIP3    H291453   3.262   1.512   7.979 -0.9081 -1.2492  0.8123
30191TIP3   OH291454  10.746   2.200   5.215  0.2230 -0.2081  0.7023
30191TIP3    H191455  10.686   2.236   5.150 -0.7804 -1.3053  0.9934
30191TIP3    H291456  10.760   2.273   5.277  1.6103  1.0208 -0.9490
30192TIP3   OH291457   5.322   4.485   0.673 -0.1300  0.0855  0.1959
30192TIP3    H191458   5.286   4.571   0.694 -0.4612 -0.3897  1.7094
30192TIP3    H291459   5.273   4.424   0.728 -0.2320 -1.1476 -1.1870
30193TIP3   OH291460   6.340   1.866   5.477 -0.0352  0.0409 -0.1491
30193TIP3    H191461   6.311   1.813   5.551  0.1210 -0.0330 -0.1395
30193TIP3    H291462   6.285   1.944   5.479 -0.8056 -0.4815 -0.6411
30194TIP3   OH291463   1.641   9.062   1.136 -0.5987 -0.1840 -0.4720
30194TIP3    H191464   1.647   9.133   1.073  0.5249 -1.2861 -1.6931
30194TIP3    H291465   1.720   9.009   1.120  0.2154 -0.0673  2.4516
30195TIP3   OH291466  10.627   4.646  10.739  0.3872  0.2910  0.5275
30195TIP3    H191467  10.721   4.656  10.731  0.2332  1.0414 -0.4806
30195TIP3    H291468  10.596   4.731  10.771 -0.0089  0.2440  0.2765
30196TIP3   OH291469   9.886   0.291   4.887  0.2449 -0.0550 -0.3278
30196TIP3    H191470   9.868   0.383   4.865  0.2548 -0.4528 -2.1540
30196TIP3    H291471   9.810   0.243   4.853 -0.0645 -0.6807  1.1811
30197TIP3   OH291472   4.705   4.693   2.561  0.1612  0.3644 -0.8084
30197TIP3    H191473   4.620   4.650   2.561 -0.3453  1.2834 -2.2711
30197TIP3    H291474   4.768   4.621   2.549 -0.5499 -0.1363 -1.6180
30198TIP3   OH291475  10.271   6.006   0.295 -0.6315 -0.6632 -0.8084
30198TIP3    H191476  10.259   5.914   0.317  0.4266 -0.7165 -0.4013
30198TIP3    H291477  10.328   6.006   0.219 -0.0480 -0.3316 -0.3772
30199TIP3   OH291478   8.171   4.290   0.812 -0.1561  0.5249 -0.0743
30199TIP3    H191479   8.099   4.269   0.872  0.4952 -1.9678 -0.0838
30199TIP3    H291480   8.131   4.344   0.744 -2.0062 -0.7368 -0.0331
30200TIP3   OH291481   3.763   3.201   2.261 -0.0857 -0.3937  0.1205
30200TIP3    H191482   3.768   3.128   2.199 -0.6872  0.5902 -1.1359
30200TIP3    H291483   3.829   3.263   2.230  0.6457 -0.5118  1.3667
30201TIP3   OH291484   7.214   6.298   4.834  0.0050  0.3237  0.1484
30201TIP3    H191485   7.238   6.389   4.855  0.8566  0.4154 -1.0696
30201TIP3    H291486   7.183   6.302   4.743  2.9883 -0.9837 -1.0925
30202TIP3   OH291487   9.155   8.078   5.408 -0.3402  0.0128  0.3019
30202TIP3    H191488   9.151   8.152   5.468 -1.7901 -1.5185  2.2461
30202TIP3    H291489   9.064   8.048   5.401 -0.2203  0.0581 -2.6656
30203TIP3   OH291490   2.416   0.332   8.050  0.2854  0.0493  0.1008
30203TIP3    H191491   2.385   0.255   8.097  0.4454 -0.2944 -0.3544
30203TIP3    H291492   2.347   0.351   7.986  0.0836  0.4971  0.4418
30204TIP3   OH291493   3.779   8.711   4.348  0.4309  0.0135  0.5032
30204TIP3    H191494   3.790   8.795   4.304  1.1838  0.5972  1.7609
30204TIP3    H291495   3.836   8.651   4.299 -1.8074 -0.3849 -1.8325
30205TIP3   OH291496   9.482   5.565  10.779  0.1492  0.2948 -0.1932
30205TIP3    H191497   9.389   5.587  10.781 -0.2193 -0.9953 -1.4598
30205TIP3    H291498   9.490   5.488  10.834  0.5045  0.4594 -0.0050
30206TIP3   OH291499  10.024   3.140   3.611  0.2016  0.4055  0.4151
30206TIP3    H191500  10.096   3.186   3.653 -0.3788  0.6834  1.1327
30206TIP3    H291501   9.969   3.210   3.575  0.7231  0.1716 -0.8933
30207TIP3   OH291502   1.617   5.277   6.983  0.4660  0.0164  0.5309
30207TIP3    H191503   1.670   5.356   6.986 -1.9694  1.7771 -0.2294
30207TIP3    H291504   1.606   5.258   6.890 -1.1066  0.3396  0.6278
30208TIP3   OH291505   6.439   9.584   6.296  0.5195  0.1295  0.0293
30208TIP3    H191506   6.350   9.549   6.300  0.4672  0.2204 -0.2869
30208TIP3    H291507   6.463   9.577   6.204  1.0183 -0.3297  0.1914
30209TIP3   OH291508   8.172   1.607   8.759 -0.2623  0.2397 -0.3981
30209TIP3    H191509   8.161   1.696   8.726 -0.2098  0.6052  0.5527
30209TIP3    H291510   8.085   1.582   8.789  0.1927  0.9026  1.5987
30210TIP3   OH291511   6.376  10.886   1.655  0.1629  0.0447 -0.1705
30210TIP3    H191512   6.440  10.957   1.648 -0.4802  0.5080 -1.7981
30210TIP3    H291513   6.415  10.813   1.608  0.3271 -0.3152  0.5162
30211TIP3   OH291514   3.686   2.968   1.071  0.3055  0.0706 -0.1507
30211TIP3    H191515   3.770   3.013   1.067 -0.2860  1.1433 -1.1279
30211TIP3    H291516   3.622   3.035   1.047 -0.7247 -0.9784 -0.4182
30212TIP3   OH291517   4.485   4.448   9.345  0.4932 -0.5347  0.8744
30212TIP3    H191518   4.442   4.378   9.295  1.4906 -0.7135  0.2441
30212TIP3    H291519   4.430   4.459   9.422 -1.6397  0.4074 -0.6680
30213TIP3   OH291520   1.606   2.499   1.555 -0.5010 -0.1087 -0.0225
30213TIP3    H191521   1.695   2.529   1.534 -0.7391  0.0298 -0.8739
30213TIP3    H291522   1.608   2.482   1.649  1.0047 -1.9984 -0.3335
30214TIP3   OH291523   9.069   2.475   9.260  0.2769  0.2575 -0.2432
30214TIP3    H191524   9.010   2.516   9.197  2.2104  1.9508 -1.0722
30214TIP3    H291525   9.141   2.441   9.207 -0.3539 -2.7480  0.6167
30215TIP3   OH291526   1.361   8.030   8.573 -0.5455 -0.0615  0.3072
30215TIP3    H191527   1.358   7.937   8.552  1.5733 -0.0292 -0.3963
30215TIP3    H291528   1.298   8.071   8.514  1.2303 -0.6446 -2.1098
30216TIP3   OH291529   4.258   4.495   8.729  0.0183 -0.0084  0.0494
30216TIP3    H191530   4.271   4.403   8.703  1.1006  0.0096  0.5044
30216TIP3    H291531   4.224   4.537   8.649  1.1771 -0.4339 -0.6921
30217TIP3   OH291532  10.021   7.470   2.964  0.3353 -0.0940  0.6961
30217TIP3    H191533  10.053   7.400   2.906 -1.5363  1.1247 -2.0247
30217TIP3    H291534  10.089   7.537   2.960 -0.5097  0.7273 -1.6774
30218TIP3   OH291535  10.553   2.459   0.915  0.0249  0.2348  0.2376
30218TIP3    H191536  10.592   2.373   0.927  3.6847  1.3986 -1.8403
30218TIP3    H291537  10.562   2.502   1.000  0.6264 -0.5270  0.5713
30219TIP3   OH291538   4.632   8.900   8.099 -0.0864 -0.6855 -0.2678
30219TIP3    H191539   4.684   8.949   8.162 -1.2713  0.2385  0.0065
30219TIP3    H291540   4.683   8.820   8.084  1.7600  0.4641 -0.5251
30220TIP3   OH291541   8.200   5.966   9.155 -0.4891 -0.1339 -0.4277
30220TIP3    H191542   8.286   5.933   9.181 -0.9544  0.0472  1.4346
30220TIP3    H291543   8.204   5.969   9.059  2.1335  1.3832 -0.3686
30221TIP3   OH291544   8.093   2.353  10.630  0.3719  0.4389 -0.2248
30221TIP3    H191545   8.110   2.439  10.591 -3.2413  1.9930  1.1540
30221TIP3    H291546   8.003   2.333  10.607  0.1024 -1.5145  2.0573
30222TIP3   OH291547   4.677   9.590   8.732 -0.4192 -0.0831 -0.7131
30222TIP3    H191548   4.662   9.580   8.826  1.8432  2.9476  0.1416
30222TIP3    H291549   4.711   9.506   8.703 -0.7042 -0.9338  1.2586
30223TIP3   OH291550  10.712   8.520   2.476  0.1373  0.2113 -0.5905
30223TIP3    H191551  10.732   8.609   2.507  1.2140 -1.0485  2.7958
30223TIP3    H291552  10.618   8.520   2.462 -0.4147  1.2024  2.3292
30224TIP3   OH291553   9.647   0.334   7.103 -0.0211 -0.6852  0.8177
30224TIP3    H191554   9.707   0.304   7.172 -0.9375 -2.6155  0.8401
30224TIP3    H291555   9.705   0.367   7.034  0.9566 -0.1102  1.8747
30225TIP3   OH291556  10.228   7.471   7.786  0.1784  0.3645  0.2838
30225TIP3    H191557  10.309   7.421   7.789 -0.7309 -1.1677  0.4546
30225TIP3    H291558  10.212   7.487   7.693 -0.2958 -1.0253  0.1107
30226TIP3   OH291559   6.053   8.216   3.142  0.1009 -0.4131  0.3069
30226TIP3    H191560   6.010   8.198   3.058 -0.5321 -2.0283  0.9251
30226TIP3    H291561   6.024   8.145   3.199  3.8947 -1.9091  0.6766
30227TIP3   OH291562   2.630   3.831   2.319 -0.2989 -0.5171 -0.3628
30227TIP3    H191563   2.649   3.849   2.412  1.0430 -2.0694 -0.2790
30227TIP3    H291564   2.620   3.917   2.280  0.5259  0.2374  0.9743
30228TIP3   OH291565   2.870   3.866  10.090  0.3970 -0.0816  0.7604
30228TIP3    H191566   2.788   3.894  10.130 -0.8036 -0.2972 -1.3949
30228TIP3    H291567   2.918   3.947  10.072  0.7736  0.0362  2.1391
30229TIP3   OH291568   4.097   2.846   8.571  0.8812 -0.6835 -0.3542
30229TIP3    H191569   4.098   2.928   8.621  0.4791 -0.7139 -0.2987
30229TIP3    H291570   4.081   2.778   8.637 -0.4136 -0.6540 -0.6198
30230TIP3   OH291571   2.201   8.443   9.808 -0.2363 -0.4562 -0.1563
30230TIP3    H191572   2.260   8.485   9.871 -0.4313 -1.5817  0.8300
30230TIP3    H291573   2.197   8.503   9.734  1.5172  0.0212  0.0921
30231TIP3   OH291574   9.252   5.643   3.974  0.4201 -0.3583  0.3756
30231TIP3    H191575   9.166   5.643   3.932  0.3232 -0.8037  0.5676
30231TIP3    H291576   9.271   5.735   3.990 -0.1209 -0.2699  0.5289
30232TIP3   OH291577   6.822   2.847   7.766  0.3256 -0.2449 -0.4954
30232TIP3    H191578   6.809   2.774   7.705 -1.6325 -1.2831  1.0491
30232TIP3    H291579   6.753   2.910   7.743 -0.1355 -0.4374  0.3440
30233TIP3   OH291580   8.100   4.178  10.287  0.0589 -0.1317 -0.2972
30233TIP3    H191581   8.038   4.123  10.239 -0.0769 -0.9877  0.8342
30233TIP3    H291582   8.185   4.159  10.247 -0.2640  0.3926 -1.2683
30234TIP3   OH291583  10.614   0.636   9.865  0.4100 -0.1170 -0.2501
30234TIP3    H191584  10.575   0.718   9.896 -0.3118 -1.4100  2.5300
30234TIP3    H291585  10.707   0.657   9.853  0.0332  1.3923 -0.8790
30235TIP3   OH291586   4.575   3.691   8.643  0.0268  0.2210 -0.4807
30235TIP3    H191587   4.502   3.731   8.596  0.1409 -0.6890 -1.4480
30235TIP3    H291588   4.548   3.694   8.735 -1.0853  0.2044 -0.7937
30236TIP3   OH291589   3.520   9.614   0.413 -0.5083  0.2888  0.6538
30236TIP3    H191590   3.502   9.630   0.506 -1.3358  1.2336  0.3520
30236TIP3    H291591   3.576   9.688   0.387 -2.5568  1.6029 -0.2402
30237TIP3   OH291592   0.958   2.230   5.277  0.0502 -0.2099 -0.2437
30237TIP3    H191593   1.020   2.166   5.243  1.0132  1.4971 -1.8984
30237TIP3    H291594   0.875   2.183   5.283  0.8816 -1.7949 -0.6562
30238TIP3   OH291595   3.926   8.473   5.460  0.4281  0.7098  1.2206
30238TIP3    H191596   3.996   8.532   5.488  0.3284  1.1589  0.5440
30238TIP3    H291597   3.846   8.511   5.498  0.4774  0.5051  1.5336
30239TIP3   OH291598   0.001   9.195   6.059  0.0455 -0.0064  0.0544
30239TIP3    H191599   0.020   9.285   6.088 -0.6064  0.0763  0.2341
30239TIP3    H291600  -0.085   9.175   6.097  0.5556 -1.0162  0.7365
30240TIP3   OH291601   6.191   6.844   4.648  0.1461  0.3609 -0.3249
30240TIP3    H191602   6.145   6.812   4.725  0.4326  1.8289  0.5008
30240TIP3    H291603   6.226   6.929   4.675  0.9562  0.5310 -1.8164
30241TIP3   OH291604  10.147   5.285   6.994  0.4690 -0.0371 -0.0992
30241TIP3    H191605  10.082   5.349   7.022  1.5009  1.5370 -1.1243
30241TIP3    H291606  10.190   5.257   7.074  0.7507  1.4212  0.2896
30242TIP3   OH291607   2.470   5.434   4.178  0.5085 -0.1520 -1.0013
30242TIP3    H191608   2.426   5.380   4.113 -0.9508  0.3920 -0.5097
30242TIP3    H291609   2.399   5.465   4.234  1.6538 -0.0359  0.4200
30243TIP3   OH291610   4.268   2.658   3.679 -0.4293 -0.0184  0.3116
30243TIP3    H191611   4.318   2.710   3.615 -1.2859  1.6486  0.9253
30243TIP3    H291612   4.209   2.605   3.626  0.8395 -0.8007 -0.3614
30244TIP3   OH291613   5.819  10.660   5.062  0.3984 -0.0530  0.2215
30244TIP3    H191614   5.910  10.643   5.087  0.5707  1.2030  0.5016
30244TIP3    H291615   5.799  10.745   5.101 -0.1855  0.7283 -1.6885
30245TIP3   OH291616   7.105   6.610   1.180  0.4636 -0.0493  0.1824
30245TIP3    H191617   7.104   6.541   1.114  0.0596 -0.7250  0.8683
30245TIP3    H291618   7.040   6.673   1.149  0.1448 -0.4497  0.0149
30246TIP3   OH291619  10.429   0.776   5.815 -0.3444  0.4257 -0.8393
30246TIP3    H191620  10.391   0.851   5.769 -1.4648  0.9208  0.8127
30246TIP3    H291621  10.445   0.807   5.903 -0.2258 -1.1046 -0.2865
30247TIP3   OH291622   4.440   9.054   7.073 -0.4115  0.0714  0.2118
30247TIP3    H191623   4.527   9.076   7.105 -0.3000 -0.7002  0.4480
30247TIP3    H291624   4.404   9.137   7.041  0.5683  0.3175 -0.2707
30248TIP3   OH291625   0.951   9.039   7.984 -0.5532 -0.1257 -0.3223
30248TIP3    H191626   0.870   9.051   8.034 -0.6842 -0.4937 -0.4439
30248TIP3    H291627   1.020   9.062   8.046 -0.7929  2.1448 -0.7933
30249TIP3   OH291628   8.825   1.570   3.020 -0.0465  0.3876  0.6507
30249TIP3    H191629   8.765   1.590   3.092  0.0477  1.1730  0.5110
30249TIP3    H291630   8.905   1.540   3.064 -0.7221 -1.2849  0.8336
30250TIP3   OH291631   8.986   6.230   7.398 -0.2647 -0.0331 -0.0486
30250TIP3    H191632   8.969   6.147   7.442 -1.0695 -0.8836 -1.8624
30250TIP3    H291633   9.004   6.205   7.307  2.0110  1.5762 -0.1343
30251TIP3   OH291634   2.284   8.152   3.895  0.0191  0.2906 -0.2512
30251TIP3    H191635   2.214   8.191   3.947  0.0969 -1.8105  1.5512
30251TIP3    H291636   2.239   8.116   3.818 -0.2415  2.4771 -1.1998
30252TIP3   OH291637   8.777   7.707   8.855  0.4126  0.0620  0.0740
30252TIP3    H191638   8.726   7.626   8.848 -1.1878  0.7181  3.0315
30252TIP3    H291639   8.767   7.748   8.769  0.3777 -2.2919 -1.1567
30253TIP3   OH291640   3.009  10.715   7.020  0.2059 -0.7334 -0.1921
30253TIP3    H191641   3.102  10.739   7.028  0.2108 -0.8980  0.2521
30253TIP3    H291642   3.007  10.655   6.945  0.1175  1.0047 -1.6609
30254TIP3   OH291643   5.571   7.829   8.473  0.9573  0.4761 -0.1325
30254TIP3    H191644   5.476   7.842   8.475  0.9385  0.3279 -0.0660
30254TIP3    H291645   5.601   7.860   8.559  1.5190  4.7490 -1.6200
30255TIP3   OH291646   1.907   3.748   3.262 -0.3360  0.2311 -0.7919
30255TIP3    H191647   1.849   3.813   3.302 -0.1881  0.5362 -1.0624
30255TIP3    H291648   1.868   3.664   3.284  0.4955  0.3094  1.2072
30256TIP3   OH291649   3.706   7.203   4.005  0.2852  0.6963 -0.0607
30256TIP3    H191650   3.771   7.268   3.980  0.3200 -0.0695 -2.1810
30256TIP3    H291651   3.634   7.216   3.943  0.1873 -1.0690 -0.3898
30257TIP3   OH291652   1.479   5.915   2.361  0.3088  0.6165  0.0977
30257TIP3    H191653   1.438   5.983   2.307  1.4225  1.4999  0.3204
30257TIP3    H291654   1.417   5.900   2.432  0.1485  1.5806  0.1751
30258TIP3   OH291655   2.568  10.238   3.409 -0.2351 -0.4762 -0.2458
30258TIP3    H191656   2.531  10.325   3.395 -1.8145 -1.2752 -1.3074
30258TIP3    H291657   2.602  10.241   3.499 -1.4222  0.8350  0.2045
30259TIP3   OH291658   2.979   7.888   4.453 -0.0059 -0.3264  0.1932
30259TIP3    H191659   3.021   7.861   4.535  0.8675  1.1418  0.2681
30259TIP3    H291660   2.978   7.809   4.399  2.2556 -0.5949  0.4694
30260TIP3   OH291661   8.007   6.443   5.100 -0.1320 -0.4821  0.4250
30260TIP3    H191662   8.041   6.355   5.082  0.2556 -0.3866  0.6652
30260TIP3    H291663   7.945   6.460   5.030  0.1586 -0.7576  0.0955
30261TIP3   OH291664   2.256  10.306   8.423  0.4160 -0.5365 -0.4128
30261TIP3    H191665   2.324  10.300   8.490 -2.0451  2.9146  2.7739
30261TIP3    H291666   2.178  10.269   8.464 -0.9189  0.5653 -1.8312
30262TIP3   OH291667   9.509   2.790   4.364  0.4657 -0.3133  0.1287
30262TIP3    H191668   9.593   2.778   4.410  0.3127  0.1419  0.5466
30262TIP3    H291669   9.471   2.703   4.360  0.3238 -0.3161  1.1980
30263TIP3   OH291670  10.429   1.264   4.160  0.2279  0.3159  0.5347
30263TIP3    H191671  10.338   1.234   4.157  0.6068 -0.8935  0.4073
30263TIP3    H291672  10.431   1.328   4.231 -0.7923  0.6168  0.3079
30264TIP3   OH291673   2.811   3.350   6.044  0.7633 -0.2407  0.1587
30264TIP3    H191674   2.836   3.312   5.960  1.5307  2.0354 -0.6972
30264TIP3    H291675   2.742   3.412   6.023  2.5683  2.1056  0.7851
30265TIP3   OH291676   0.850   2.715   5.618 -0.7175  0.0599 -0.4680
30265TIP3    H191677   0.832   2.633   5.664 -2.8268  0.4931 -0.4210
30265TIP3    H291678   0.907   2.690   5.545  2.5043 -0.6842  2.1029
30266TIP3   OH291679   7.208   2.211   0.801 -0.2601  0.5616  0.4230
30266TIP3    H191680   7.207   2.116   0.811  0.3171  0.2997 -1.6035
30266TIP3    H291681   7.169   2.244   0.882 -1.1156 -1.4222  0.8786
30267TIP3   OH291682   6.805   4.104   7.047  0.1832  0.1316  0.4049
30267TIP3    H191683   6.785   4.154   7.126 -1.5418  1.8584 -1.0172
30267TIP3    H291684   6.722   4.062   7.024  0.3864  0.4457 -0.9940
30268TIP3   OH291685   7.648   4.372   5.768  0.2498  0.3988  0.3892
30268TIP3    H191686   7.650   4.319   5.848  1.5144 -0.8643 -0.4308
30268TIP3    H291687   7.557   4.399   5.759 -0.6277 -2.3270  0.4238
30269TIP3   OH291688   8.928   2.849   7.550 -0.4084 -0.6860 -0.5305
30269TIP3    H191689   8.893   2.929   7.511 -1.0423 -1.0926 -0.8081
30269TIP3    H291690   8.879   2.839   7.631  1.0060  0.2350  0.4795
30270TIP3   OH291691  10.237   1.302   9.926  0.3845 -0.2082  0.3311
30270TIP3    H191692  10.270   1.288  10.015  0.2047  0.3896  0.4997
30270TIP3    H291693  10.286   1.378   9.894  0.9230 -0.8216 -0.3332
30271TIP3   OH291694   3.502  10.174   5.986 -0.0707  0.1537  0.3603
30271TIP3    H191695   3.475  10.097   6.037  0.7271 -0.6725 -0.4021
30271TIP3    H291696   3.591  10.152   5.956 -0.6585  0.3702 -1.7660
30272TIP3   OH291697   9.936   1.824   1.842 -0.2020 -0.2676  0.0036
30272TIP3    H191698   9.875   1.898   1.836 -0.4147 -0.5719 -2.9280
30272TIP3    H291699   9.885   1.754   1.884 -1.0562  0.2679 -0.1287
30273TIP3   OH291700   7.538   9.050   4.132 -0.2196  0.3198 -0.4223
30273TIP3    H191701   7.534   9.107   4.209  1.4208 -0.6220  0.4120
30273TIP3    H291702   7.572   9.107   4.063 -0.8515  0.9437 -0.2363
30274TIP3   OH291703   0.266   1.347   2.491 -0.6657  0.2424  0.6896
30274TIP3    H191704   0.314   1.316   2.568 -0.3249  0.7936  0.7059
30274TIP3    H291705   0.222   1.269   2.457  0.5475 -0.3618  0.4487
30275TIP3   OH291706   3.568   5.091   8.738  0.1564 -0.0827 -0.3876
30275TIP3    H191707   3.624   5.070   8.664 -0.7069  0.6779 -1.2809
30275TIP3    H291708   3.485   5.047   8.719  0.0986 -0.3233  0.3900
30276TIP3   OH291709   6.935   3.684   8.421 -0.4398  0.4969  0.3221
30276TIP3    H191710   6.879   3.733   8.481 -2.2063 -0.1208 -0.7395
30276TIP3    H291711   6.925   3.593   8.448  0.2419  0.3922  0.2417
30277TIP3   OH291712   3.838   0.054   2.012  0.4427  0.1051 -0.0384
30277TIP3    H191713   3.889  -0.023   2.039 -0.4539  0.5092  3.2614
30277TIP3    H291714   3.749   0.019   1.998  0.3600  0.2857  0.0338
30278TIP3   OH291715   7.500   5.068   0.128  0.1758  0.1317 -0.0637
30278TIP3    H191716   7.494   5.162   0.144 -2.2741 -0.1557  1.1050
30278TIP3    H291717   7.495   5.028   0.215  0.1656 -1.1290 -0.6178
30279TIP3   OH291718   6.591  10.605   8.754 -0.1297  0.6154 -0.5555
30279TIP3    H191719   6.558  10.686   8.714  1.5284  1.1709 -0.8772
30279TIP3    H291720   6.556  10.535   8.700 -2.4352  1.0065  0.3191
30280TIP3   OH291721   9.541   3.818   7.251 -0.2063 -0.2669 -0.4296
30280TIP3    H191722   9.537   3.728   7.219 -0.4426  0.1805 -1.6974
30280TIP3    H291723   9.598   3.864   7.189 -0.0495  0.4518  0.2267
30281TIP3   OH291724   8.961   7.942   6.100  0.1553 -1.0993 -0.2672
30281TIP3    H191725   8.890   7.980   6.152 -1.2224 -4.3020  0.4388
30281TIP3    H291726   8.940   7.966   6.010  0.2161  0.9543  0.2145
30282TIP3   OH291727   2.967   7.639   2.597  0.0911 -0.0299 -0.4334
30282TIP3    H191728   3.015   7.573   2.548  0.6698 -0.0356  0.1277
30282TIP3    H291729   3.033   7.680   2.653 -0.1363  1.4285 -1.1846
30283TIP3   OH291730   2.551   8.557   8.686  0.8537  0.2546 -0.0148
30283TIP3    H191731   2.577   8.544   8.594  1.1767  1.3078 -0.0851
30283TIP3    H291732   2.490   8.631   8.683 -0.5483 -0.8399  0.4168
30284TIP3   OH291733   8.322   5.508   1.171 -0.1704 -0.0486 -0.4482
30284TIP3    H191734   8.402   5.525   1.221 -0.3577  2.0274 -0.8009
30284TIP3    H291735   8.272   5.589   1.177 -2.2241 -1.2544 -0.3350
30285TIP3   OH291736   2.009   4.490   7.717  0.3431 -0.3814  0.2705
30285TIP3    H191737   1.927   4.529   7.748  0.6394  1.4633 -1.0527
30285TIP3    H291738   2.042   4.441   7.791 -1.6168 -0.6177  1.0602
30286TIP3   OH291739   7.202   3.159   2.490 -0.2555  0.0300 -0.7642
30286TIP3    H191740   7.150   3.145   2.411 -2.3744 -1.6364  0.7978
30286TIP3    H291741   7.247   3.076   2.504 -0.3855  0.0868  0.0622
30287TIP3   OH291742   9.506   3.000   3.478 -0.5910  0.0062 -0.2492
30287TIP3    H191743   9.599   2.990   3.497 -0.7280 -0.2238  0.3221
30287TIP3    H291744   9.503   3.048   3.395  0.0457  2.4264  1.0110
30288TIP3   OH291745   3.366   0.144   2.947 -0.4968 -0.2523  0.0713
30288TIP3    H191746   3.437   0.087   2.920 -0.2437  0.5058 -0.9395
30288TIP3    H291747   3.320   0.165   2.865 -3.9287 -3.2884  0.9610
30289TIP3   OH291748   0.610   6.481   6.246  0.0929  0.0477 -0.2768
30289TIP3    H191749   0.522   6.505   6.275  0.8132  0.7918  1.4708
30289TIP3    H291750   0.603   6.475   6.151 -2.1760 -1.3689 -0.1010
30290TIP3   OH291751   7.178   5.903   4.905 -0.1877 -0.6863 -0.0522
30290TIP3    H191752   7.224   5.843   4.964  0.9421  2.4094  2.4843
30290TIP3    H291753   7.247   5.960   4.871 -1.4567  0.4925 -0.7422
30291TIP3   OH291754   4.445   9.205   3.443  0.2777 -0.1116  0.6156
30291TIP3    H191755   4.528   9.177   3.405  0.0874  1.7211 -1.2875
30291TIP3    H291756   4.379   9.179   3.379 -0.2554  1.3256  0.5484
30292TIP3   OH291757   6.540   7.763   4.939 -0.0243  0.1794  0.0838
30292TIP3    H191758   6.480   7.785   5.011 -0.4589 -1.5880  0.3172
30292TIP3    H291759   6.517   7.824   4.869 -1.5454  0.0968  0.4685
30293TIP3   OH291760   3.706   4.661   6.306 -0.4534  0.1108  0.1905
30293TIP3    H191761   3.662   4.625   6.383 -0.9958 -0.1712 -0.2473
30293TIP3    H291762   3.757   4.588   6.270  2.8215  1.0990  2.3443
30294TIP3   OH291763   7.383   1.797   1.733 -0.1987 -0.1546 -0.5970
30294TIP3    H191764   7.465   1.841   1.757 -0.7483  0.2868  0.5180
30294TIP3    H291765   7.353   1.844   1.656 -0.1188  0.6056 -0.1778
30295TIP3   OH291766   0.833   5.983   1.004  0.3510 -0.4282 -0.2745
30295TIP3    H191767   0.829   6.040   1.081  1.2040  0.1059 -0.6104
30295TIP3    H291768   0.927   5.973   0.986  0.1565 -0.2769 -1.4470
30296TIP3   OH291769   0.298  10.132   6.672 -0.2208 -0.5349  0.2530
30296TIP3    H191770   0.247  10.209   6.696  0.0962 -0.2724  0.0947
30296TIP3    H291771   0.307  10.138   6.577  1.5740  0.3686  0.4369
30297TIP3   OH291772   3.669  10.439   1.654  0.2288  0.3042  0.0846
30297TIP3    H191773   3.637  10.495   1.583  1.8199 -2.1213 -2.7975
30297TIP3    H291774   3.754  10.476   1.678  0.2276  0.4528 -0.1403
30298TIP3   OH291775   7.600   6.820   9.593 -0.7533 -0.0271 -0.1760
30298TIP3    H191776   7.607   6.752   9.660  1.2792 -0.2918 -0.6133
30298TIP3    H291777   7.647   6.784   9.518 -1.8353  0.8321 -1.3034
30299TIP3   OH291778   8.426   9.101   3.843  0.7216 -0.0131  0.0200
30299TIP3    H191779   8.360   9.066   3.782  1.3883 -0.3082 -0.5393
30299TIP3    H291780   8.488   9.147   3.787  0.5157  1.0524  0.6305
30300TIP3   OH291781   7.042   1.629  10.515 -0.6966  0.3548  0.1265
30300TIP3    H191782   7.085   1.547  10.541  0.5769  0.4918 -1.3915
30300TIP3    H291783   6.962   1.600  10.471 -1.8592  0.0738  2.2675
30301TIP3   OH291784   7.454   7.182   5.918 -0.5099 -0.1575 -0.4398
30301TIP3    H191785   7.391   7.225   5.976 -1.1801  0.9436 -1.9176
30301TIP3    H291786   7.415   7.096   5.901 -1.7575  0.5853 -1.4904
30302TIP3   OH291787   7.539   9.342   0.362  0.1301  0.8868  0.0474
30302TIP3    H191788   7.540   9.269   0.300 -0.4299  1.3714 -0.5513
30302TIP3    H291789   7.487   9.410   0.318 -0.9163  0.9828  1.3578
30303TIP3   OH291790   6.615   9.887   2.074 -0.1678 -0.2809 -0.6806
30303TIP3    H191791   6.538   9.865   2.021 -3.1435  0.8134  2.8278
30303TIP3    H291792   6.644   9.971   2.040 -2.0941  0.4765 -0.5624
30304TIP3   OH291793   3.007   1.744   9.135 -0.0880  0.3167  0.2605
30304TIP3    H191794   2.933   1.772   9.080  0.1603  0.6224  0.0733
30304TIP3    H291795   3.061   1.823   9.144 -0.6029  0.5197  1.7396
30305TIP3   OH291796  10.879   2.286   8.812 -0.2041  0.2158 -0.0062
30305TIP3    H191797  10.961   2.298   8.861 -0.9320  0.6577  1.1292
30305TIP3    H291798  10.891   2.339   8.733  2.1279 -2.7026 -1.8302
30306TIP3   OH291799   6.762   0.011   0.477  0.6338  0.2555 -0.1269
30306TIP3    H191800   6.736   0.103   0.470  1.1034  0.3803 -0.2775
30306TIP3    H291801   6.684  -0.038   0.451 -0.1432  0.5635  1.4744
30307TIP3   OH291802   7.706   0.160   3.175 -0.2257 -0.8198  0.0428
30307TIP3    H191803   7.730   0.150   3.083 -0.6037 -2.1822  0.0594
30307TIP3    H291804   7.610   0.157   3.175 -0.2169 -2.8231  0.6225
30308TIP3   OH291805   5.558   2.810   9.176 -0.9774  0.1291 -0.2267
30308TIP3    H191806   5.601   2.850   9.100 -0.9743  0.2253 -0.1736
30308TIP3    H291807   5.465   2.823   9.160 -0.9489  0.8438  0.1696
30309TIP3   OH291808   9.783   6.820   6.289  0.2506 -0.2860  0.4113
30309TIP3    H191809   9.714   6.855   6.345  1.2069 -0.0933  1.5090
30309TIP3    H291810   9.811   6.740   6.332  2.9786  1.3137  1.9066
30310TIP3   OH291811   5.182   7.069   4.850 -0.9208  0.1337  0.1558
30310TIP3    H191812   5.231   7.016   4.787 -2.7778 -1.6074  0.1031
30310TIP3    H291813   5.155   7.146   4.800 -0.4001 -0.1025 -0.5055
30311TIP3   OH291814   2.402   9.880   6.535 -0.1116 -0.3873 -0.4668
30311TIP3    H191815   2.378   9.931   6.612  0.2820  0.1101 -0.6682
30311TIP3    H291816   2.336   9.903   6.469 -0.3989 -0.7489 -0.3098
30312TIP3   OH291817   6.581   2.947   1.232  0.0322  0.0329 -0.5879
30312TIP3    H191818   6.578   2.972   1.140 -1.0755  0.4172 -0.4691
30312TIP3    H291819   6.601   3.029   1.278  1.1176 -0.2603 -0.5085
30313TIP3   OH291820   8.348   9.443   3.594 -0.5064  0.3108 -0.1655
30313TIP3    H191821   8.338   9.509   3.525  1.5672  0.7945 -0.0623
30313TIP3    H291822   8.262   9.400   3.598 -1.1177  1.2222 -2.0454
30314TIP3   OH291823   3.288  10.451   6.491  0.2442 -0.1315 -0.4252
30314TIP3    H191824   3.349  10.379   6.510 -0.7481 -0.9405 -0.1939
30314TIP3    H291825   3.324  10.526   6.538  1.2477 -0.4965 -0.5842
30315TIP3   OH291826  10.500   3.562   6.936  0.5559 -0.5058 -0.0630
30315TIP3    H191827  10.576   3.576   6.992  1.9628 -4.2526 -0.7592
30315TIP3    H291828  10.452   3.490   6.978 -1.1769  0.0262 -1.0224
30316TIP3   OH291829   6.822   7.585   7.871 -0.3105  0.0244  0.0540
30316TIP3    H191830   6.864   7.637   7.939 -0.2570 -0.4898  0.4241
30316TIP3    H291831   6.890   7.524   7.842 -1.1804 -1.7883  1.6691
30317TIP3   OH291832   1.040   5.384   9.688  0.3454  0.6490  0.2776
30317TIP3    H191833   0.988   5.342   9.620  0.2223  0.1765  0.6563
30317TIP3    H291834   1.046   5.476   9.661  0.8881  0.3254 -0.7224
30318TIP3   OH291835   0.341   6.683   4.308 -0.2330 -0.6512 -0.2122
30318TIP3    H191836   0.370   6.691   4.398  0.5111  0.1117 -0.5108
30318TIP3    H291837   0.412   6.719   4.256 -0.0958 -2.2496 -1.2008
30319TIP3   OH291838   5.754   1.818   8.648  0.7042 -0.2036 -0.2782
30319TIP3    H191839   5.763   1.889   8.585 -0.1862  0.4336  0.2950
30319TIP3    H291840   5.843   1.783   8.659  0.9757  0.1315 -1.3452
30320TIP3   OH291841   2.298   4.755   1.547  0.0597 -0.4504 -0.3107
30320TIP3    H191842   2.219   4.757   1.494 -0.0942 -0.1085 -0.0734
30320TIP3    H291843   2.307   4.663   1.574 -0.4752 -0.4213 -0.0179
30321TIP3   OH291844  10.381   4.058   5.090 -0.3157  0.9725  0.1361
30321TIP3    H191845  10.320   4.131   5.079 -0.0204  1.2587  0.3874
30321TIP3    H291846  10.465   4.100   5.110  0.1732  0.6190 -1.0847
30322TIP3   OH291847   8.420   8.620   9.918 -0.0093  0.3669 -0.0724
30322TIP3    H191848   8.387   8.585   9.836  0.7873 -0.6590  0.0173
30322TIP3    H291849   8.458   8.705   9.894  1.0080 -0.3027 -0.9558
30323TIP3   OH291850   1.229   4.878   9.286 -0.4544  0.9643 -0.2631
30323TIP3    H191851   1.206   4.970   9.286  0.6781  1.2887 -2.0099
30323TIP3    H291852   1.246   4.856   9.195  0.7364 -0.5883  0.2715
30324TIP3   OH291853   8.001   1.064   6.955  0.0017 -0.1975 -0.4318
30324TIP3    H191854   8.059   1.076   6.880  0.3555  1.3575  0.0676
30324TIP3    H291855   8.029   0.981   6.994  1.2147  0.0237 -0.7910
30325TIP3   OH291856   1.227   0.608   5.586 -0.4663  0.1662  0.2818
30325TIP3    H191857   1.285   0.680   5.561  0.6901 -0.2631  1.6303
30325TIP3    H291858   1.253   0.536   5.530  0.4980 -0.0901  1.0268
30326TIP3   OH291859   0.693   9.696   9.801 -0.0839  0.4222  0.2593
30326TIP3    H191860   0.671   9.615   9.756 -0.7370  1.3747 -1.2429
30326TIP3    H291861   0.788   9.705   9.792 -0.0292 -0.0999  0.3256
30327TIP3   OH291862   7.754   3.162   6.100 -0.1751  0.9004 -0.4164
30327TIP3    H191863   7.716   3.102   6.164 -1.7283  1.6222 -0.6181
30327TIP3    H291864   7.696   3.156   6.024  0.9884  0.9218 -1.3362
30328TIP3   OH291865   8.292   1.529   5.447  0.2482  0.1549  0.9004
30328TIP3    H191866   8.346   1.472   5.393 -0.3335  0.0126  0.4465
30328TIP3    H291867   8.245   1.469   5.505 -0.2933  0.1686  0.4869
30329TIP3   OH291868   9.327   9.119   1.465  0.4418 -0.9262 -0.0318
30329TIP3    H191869   9.416   9.134   1.435  0.6623 -0.9439  0.5988
30329TIP3    H291870   9.311   9.186   1.531  0.1319 -1.1643  0.1451
30330TIP3   OH291871   1.634   1.390   7.275  0.0674  0.3018 -0.2187
30330TIP3    H191872   1.687   1.330   7.328 -1.4949 -0.2992  0.7321
30330TIP3    H291873   1.615   1.340   7.195 -2.4097 -1.1637  1.1465
30331TIP3   OH291874   1.025   1.344   1.765 -0.2535  0.2822 -0.6008
30331TIP3    H191875   1.096   1.405   1.785  0.9325 -0.9906 -0.7666
30331TIP3    H291876   1.065   1.257   1.775 -1.0692 -0.4659 -3.1803
30332TIP3   OH291877  10.065   2.477   1.401 -0.1845  0.1898  0.2992
30332TIP3    H191878  10.145   2.426   1.411 -0.8025 -0.8415  0.0562
30332TIP3    H291879  10.093   2.555   1.352  0.8961  0.4400  1.2666
30333TIP3   OH291880   3.445   5.072   2.525  0.1187 -0.5852  0.4209
30333TIP3    H191881   3.461   5.110   2.612 -1.0734 -0.0760  0.4375
30333TIP3    H291882   3.350   5.064   2.520  0.2802 -3.1215  0.1980
30334TIP3   OH291883   6.280   1.906   6.326  0.5676 -0.2654 -0.3184
30334TIP3    H191884   6.210   1.925   6.264  1.4805  2.4766 -0.6173
30334TIP3    H291885   6.338   1.847   6.280 -1.0124 -1.8496 -0.3946
30335TIP3   OH291886   6.940   3.964   2.658  0.8305 -0.0018 -0.1040
30335TIP3    H191887   6.899   4.050   2.663  1.4074  0.2891 -0.3215
30335TIP3    H291888   6.997   3.969   2.581  0.4114 -0.7737 -0.4703
30336TIP3   OH291889   3.754   0.827   5.378 -0.1713 -0.4783 -0.4164
30336TIP3    H191890   3.760   0.750   5.321 -0.4689 -0.2820 -0.7162
30336TIP3    H291891   3.753   0.790   5.467  1.0297 -0.7453 -0.4937
30337TIP3   OH291892   7.141  10.007   9.449 -0.5225 -0.3155 -0.5333
30337TIP3    H191893   7.145  10.013   9.353  2.0685  0.7919 -0.4262
30337TIP3    H291894   7.065  10.060   9.473  0.0993  1.2802 -1.8941
30338TIP3   OH291895   1.606   7.841   4.222 -0.3806  0.3299 -0.5016
30338TIP3    H191896   1.591   7.812   4.132  0.6141  1.5779 -1.0920
30338TIP3    H291897   1.535   7.801   4.272 -0.2417 -1.4168 -1.6106
30339TIP3   OH291898   4.507   9.015   0.174 -0.2738 -0.6604  0.3782
30339TIP3    H191899   4.493   8.990   0.265 -0.2314  0.8843  0.8288
30339TIP3    H291900   4.561   9.093   0.178  0.5404 -1.1170 -1.0197
30340TIP3   OH291901   5.417   1.997   1.104 -0.7157 -0.0551  0.2726
30340TIP3    H191902   5.431   2.090   1.091 -3.1149  0.3648  0.2160
30340TIP3    H291903   5.502   1.963   1.132  0.3283  2.0337 -0.1984
30341TIP3   OH291904   7.762   8.057  10.803  0.2016 -0.5737  0.7388
30341TIP3    H191905   7.716   8.095  10.877 -0.0943 -0.9809  0.7684
30341TIP3    H291906   7.695   8.044  10.736  0.8524  2.0577 -0.5706
30342TIP3   OH291907   5.802   5.820   5.438  0.3506 -0.0114 -0.2838
30342TIP3    H191908   5.816   5.725   5.449 -0.8188 -0.3945 -1.7987
30342TIP3    H291909   5.826   5.857   5.523 -1.3793 -1.9061  1.1449
30343TIP3   OH291910   9.677   0.872   4.991  0.2381 -0.9600 -0.2682
30343TIP3    H191911   9.768   0.890   5.013  0.3767 -3.2299  1.3649
30343TIP3    H291912   9.677   0.780   4.963 -1.6183 -1.1832  0.3438
30344TIP3   OH291913  10.684   4.960   0.499  0.4772  0.4092 -0.6801
30344TIP3    H191914  10.632   5.041   0.507 -3.1515 -1.5904 -1.6534
30344TIP3    H291915  10.618   4.890   0.495  3.4101 -2.5810 -0.6045
30345TIP3   OH291916   7.564   2.352   3.231 -0.1031 -0.0941 -0.2286
30345TIP3    H191917   7.640   2.377   3.284  0.9172 -1.7202 -0.8558
30345TIP3    H291918   7.502   2.316   3.293 -0.1396  0.6882  0.2109
30346TIP3   OH291919   5.270   2.322  10.276  0.3051 -0.0856  0.3141
30346TIP3    H191920   5.245   2.366  10.358  0.2442  0.1472  0.1715
30346TIP3    H291921   5.310   2.391  10.224 -0.8654  0.0870 -0.3884
30347TIP3   OH291922  10.882   5.541   3.249  0.5140 -0.5269  0.3462
30347TIP3    H191923  10.898   5.549   3.155 -0.3280 -0.3585  0.2153
30347TIP3    H291924  10.886   5.631   3.282  0.8634 -0.5908  0.4883
30348TIP3   OH291925   2.264  10.172   8.192  0.0938  0.1335  0.0536
30348TIP3    H191926   2.283  10.207   8.279  2.3046  0.2087 -0.4080
30348TIP3    H291927   2.211  10.240   8.150 -0.1196  0.5545  0.9774
30349TIP3   OH291928   0.596  10.218   4.521  0.4120 -0.5365 -0.1507
30349TIP3    H191929   0.584  10.127   4.494 -2.5506 -0.0296 -0.8887
30349TIP3    H291930   0.531  10.266   4.471  0.4600  1.6945  1.7833
30350TIP3   OH291931   7.705   0.668   0.282  0.2352 -0.3661 -0.1139
30350TIP3    H191932   7.727   0.756   0.315  0.1956 -0.1949 -0.5412
30350TIP3    H291933   7.724   0.672   0.189 -0.9721 -0.4085 -0.3840
30351TIP3   OH291934   4.006   3.814   0.475 -0.1371  0.2355  0.1850
30351TIP3    H191935   4.027   3.753   0.405  0.7786  0.4904  0.2220
30351TIP3    H291936   3.925   3.780   0.514 -0.2938 -0.2674 -0.5669
30352TIP3   OH291937   0.291   3.507   1.680  0.4868 -0.2696 -0.3168
30352TIP3    H191938   0.345   3.537   1.607 -0.4609  0.1530 -0.8759
30352TIP3    H291939   0.219   3.460   1.638 -1.6773  2.3987  0.0526
30353TIP3   OH291940   5.801   6.041   0.485 -0.1779 -0.1193 -0.2353
30353TIP3    H191941   5.711   6.022   0.458  0.2877 -1.8445 -0.7366
30353TIP3    H291942   5.855   5.982   0.431  1.2922  1.2301 -0.3052
30354TIP3   OH291943   6.763   7.725   5.619  0.1107  0.1910  0.3307
30354TIP3    H191944   6.679   7.730   5.574 -0.0167 -0.8973  0.4235
30354TIP3    H291945   6.742   7.745   5.710 -0.2276 -0.9557  0.5281
30355TIP3   OH291946   1.633   5.886   5.686 -0.0948  0.1758 -0.1604
30355TIP3    H191947   1.615   5.843   5.770  0.8508  0.8157  0.3842
30355TIP3    H291948   1.550   5.927   5.662 -0.6559 -0.8700 -0.0578
30356TIP3   OH291949   4.101   7.785   2.425  0.3524 -0.0284 -0.0595
30356TIP3    H191950   4.117   7.839   2.347  0.6781  1.4038  0.9720
30356TIP3    H291951   4.085   7.847   2.495  1.2413 -1.2517  1.2987
30357TIP3   OH291952   3.702   6.534   9.037  0.3153  0.1476  0.3874
30357TIP3    H191953   3.622   6.564   9.081  0.3552 -0.9520  1.2473
30357TIP3    H291954   3.675   6.457   8.988  0.6112  0.4521 -0.2566
30358TIP3   OH291955   8.259  10.568   8.294  0.5128 -0.0173 -0.0878
30358TIP3    H191956   8.175  10.521   8.291  0.1931  0.5702 -0.6409
30358TIP3    H291957   8.292  10.562   8.204  1.4096 -0.8492  0.2866
30359TIP3   OH291958   1.738   1.737   3.851  0.4637  0.1438 -0.3430
30359TIP3    H191959   1.788   1.655   3.847 -0.3221 -0.3300 -0.9098
30359TIP3    H291960   1.798   1.804   3.820  0.9059 -0.3337 -0.5311
30360TIP3   OH291961   6.105   7.209   8.363 -0.0638 -0.5699 -0.4173
30360TIP3    H191962   6.090   7.132   8.307  0.3971 -1.0923  0.1724
30360TIP3    H291963   6.140   7.173   8.444  0.5235  0.3019 -0.2764
30361TIP3   OH291964   1.901   2.850   0.114 -0.7057  0.0141  0.7914
30361TIP3    H191965   1.975   2.909   0.120 -0.1476 -0.8243  3.4433
30361TIP3    H291966   1.826   2.901   0.144 -1.0955  0.5484 -0.9249
30362TIP3   OH291967   1.078   8.481   4.986  0.5224  0.2003  0.3185
30362TIP3    H191968   1.010   8.439   5.038 -0.2720  2.2429  1.0147
30362TIP3    H291969   1.044   8.481   4.896  1.7922 -3.1079 -0.3235
30363TIP3   OH291970   6.191   0.986   5.550 -0.1226 -0.6087 -0.0883
30363TIP3    H191971   6.098   1.002   5.534  0.0625 -0.0964 -0.6836
30363TIP3    H291972   6.213   0.912   5.493 -0.0716 -0.4566 -0.2691
30364TIP3   OH291973   8.445   0.048   1.293 -0.1958 -0.2954 -0.3968
30364TIP3    H191974   8.493   0.030   1.212 -0.8562 -0.4491 -0.7613
30364TIP3    H291975   8.498   0.008   1.362 -1.3592 -3.3599 -1.1105
30365TIP3   OH291976   8.479   7.434  10.091  0.0887 -0.5330 -0.2318
30365TIP3    H191977   8.530   7.356  10.115 -0.9884 -1.0785  0.3468
30365TIP3    H291978   8.397   7.424  10.138  0.5853  1.8607  1.2778
30366TIP3   OH291979   7.115   8.530   3.390  0.0025  0.1968  0.5716
30366TIP3    H191980   7.069   8.446   3.385 -1.1244  0.8704 -1.3700
30366TIP3    H291981   7.045   8.595   3.397  0.8594  1.0167  2.2359
30367TIP3   OH291982   4.462   8.574   4.473 -0.4282 -0.1552  0.0666
30367TIP3    H191983   4.467   8.498   4.415  0.1979  0.6935 -1.0234
30367TIP3    H291984   4.551   8.586   4.506 -0.6280 -0.1932  0.6260
30368TIP3   OH291985  10.377   5.498   3.612 -0.1021  0.0566 -0.2655
30368TIP3    H191986  10.448   5.521   3.672 -0.2286  1.9804 -0.7974
30368TIP3    H291987  10.316   5.571   3.617 -1.3873 -0.9385 -0.8429
30369TIP3   OH291988   4.241   9.109   8.531 -0.6278 -0.3435  0.2166
30369TIP3    H191989   4.222   9.122   8.438  1.4963  1.7721 -0.0213
30369TIP3    H291990   4.215   9.192   8.572  1.4109 -0.0322  0.9520
30370TIP3   OH291991   0.780   6.060   2.378 -0.4592 -0.2624  0.0279
30370TIP3    H191992   0.773   6.004   2.300 -2.4396  1.1400 -0.8796
30370TIP3    H291993   0.753   6.147   2.348 -1.7631  0.2316  2.3676
30371TIP3   OH291994   7.407   1.073   6.311 -0.5295 -0.2100 -0.1661
30371TIP3    H191995   7.470   1.051   6.380  0.2658  3.2400  0.3662
30371TIP3    H291996   7.379   0.988   6.277 -0.1724 -2.0693  3.6591
30372TIP3   OH291997   7.413   4.922   9.431  0.5047  0.5412  0.2452
30372TIP3    H191998   7.342   4.975   9.394 -0.4813  0.2801  1.6541
30372TIP3    H291999   7.456   4.883   9.355  0.5931  2.4820 -0.7831
30373TIP3   OH292000   8.043   0.539   9.611 -0.4111 -0.0932 -0.7424
30373TIP3    H192001   8.036   0.473   9.679  0.1699  0.5456 -0.0407
30373TIP3    H292002   8.010   0.619   9.651  0.6248  0.4613 -0.9558
30374TIP3   OH292003  10.233   6.622   3.846  0.3764  0.1662  0.0049
30374TIP3    H192004  10.283   6.703   3.839 -0.7274  1.0357  1.5474
30374TIP3    H292005  10.169   6.639   3.916  0.1603 -2.0563  0.4343
30375TIP3   OH292006   7.477   8.636   5.786  0.1190  0.2359  0.1726
30375TIP3    H192007   7.389   8.600   5.776  0.2267  0.0069  0.0325
30375TIP3    H292008   7.522   8.572   5.841  0.5673 -0.2855 -0.7870
30376TIP3   OH292009   5.475   4.679   6.027  0.4970 -0.2457 -0.3438
30376TIP3    H192010   5.420   4.752   6.054 -0.4016 -0.4701 -1.4709
30376TIP3    H292011   5.413   4.613   5.995  1.1754 -2.0291  1.7270
30377TIP3   OH292012  10.418   2.898  10.253  0.0134 -0.5390 -0.3355
30377TIP3    H192013  10.334   2.898  10.207 -0.7176  1.3468  0.8645
30377TIP3    H292014  10.471   2.835  10.206 -1.4984 -0.4931 -2.2196
30378TIP3   OH292015   7.082   3.568   1.465 -0.0720  0.0182 -0.2567
30378TIP3    H192016   7.102   3.494   1.521  1.6809  0.4275 -0.2928
30378TIP3    H292017   7.088   3.533   1.376 -0.1846 -0.0097 -0.2537
30379TIP3   OH292018   7.285   8.258   9.306  0.3296 -0.4097  0.8449
30379TIP3    H192019   7.239   8.181   9.274  1.4310 -1.0203  0.6636
30379TIP3    H292020   7.378   8.240   9.288  0.7748  0.2228  2.3053
30380TIP3   OH292021   9.723   1.866   2.341 -0.1622 -0.3357  0.1504
30380TIP3    H192022   9.634   1.830   2.348 -1.3146  2.3245  0.0317
30380TIP3    H292023   9.770   1.825   2.413 -1.2994 -2.1968 -0.0851
30381TIP3   OH292024   1.437   8.481   9.190 -0.0823 -0.0032 -0.3689
30381TIP3    H192025   1.530   8.459   9.191 -0.3975 -1.4697 -0.0985
30381TIP3    H292026   1.433   8.567   9.149  1.2597 -0.6117 -1.8879
30382TIP3   OH292027   5.968  10.062   7.604 -0.2907 -0.1355  0.3667
30382TIP3    H192028   5.899  10.011   7.645  0.6119 -1.0097  0.8419
30382TIP3    H292029   6.020  10.095   7.677  1.6607 -2.1622  0.0025
30383TIP3   OH292030  10.288   8.674   2.036  0.5113  0.1900 -0.1802
30383TIP3    H192031  10.321   8.624   1.961  0.4582 -1.5920  0.9450
30383TIP3    H292032  10.334   8.639   2.111 -0.3768  1.0593  0.8087
30384TIP3   OH292033  10.459   4.469   2.384  0.4473 -0.0972 -0.0463
30384TIP3    H192034  10.391   4.516   2.337  0.3532 -1.4154 -1.2943
30384TIP3    H292035  10.431   4.377   2.382  0.8802 -0.3047  1.8539
30385TIP3   OH292036   1.737   6.381   1.900  0.7011  0.7260 -0.5630
30385TIP3    H192037   1.755   6.452   1.962  0.2490  0.0702  0.3442
30385TIP3    H292038   1.823   6.354   1.868  1.2150 -0.5966  1.7003
30386TIP3   OH292039   6.408   9.474   8.890 -0.0986  0.4417 -0.0277
30386TIP3    H192040   6.382   9.557   8.852 -3.6368  0.1488  1.4037
30386TIP3    H292041   6.456   9.498   8.969 -1.7737  1.2286  0.8007
30387TIP3   OH292042   5.132  10.076   4.904 -0.2612 -0.2851  0.0741
30387TIP3    H192043   5.111   9.984   4.918  1.2452 -0.6438  0.1251
30387TIP3    H292044   5.172  10.105   4.986  0.1753  0.1359 -0.2773
30388TIP3   OH292045   1.112   8.522   0.518 -0.8104  0.0426 -0.4590
30388TIP3    H192046   1.060   8.518   0.438  0.3523 -0.3859 -1.2283
30388TIP3    H292047   1.064   8.469   0.581 -1.7507  0.3979 -0.8621
30389TIP3   OH292048   3.930   1.421   1.721 -0.2415 -0.0956 -0.2154
30389TIP3    H192049   3.956   1.428   1.629  1.9585  1.8744  0.4597
30389TIP3    H292050   4.011   1.402   1.768 -1.2996 -0.9487  1.3707
30390TIP3   OH292051   4.912   3.305   4.911 -0.1080 -0.3456 -0.4090
30390TIP3    H192052   4.894   3.362   4.836  0.8483  0.5677  0.0382
30390TIP3    H292053   4.943   3.364   4.979 -0.5322 -1.2262  0.5706
30391TIP3   OH292054   1.201   8.400   9.263  0.2408 -0.3792 -0.1076
30391TIP3    H192055   1.292   8.426   9.246 -0.1884  1.2963  0.0437
30391TIP3    H292056   1.169   8.369   9.178  1.3645 -2.4205  0.1510
30392TIP3   OH292057   0.797   6.473  10.007  0.4298 -0.1467  0.0497
30392TIP3    H192058   0.823   6.404  10.068 -2.0369  1.0990  2.7132
30392TIP3    H292059   0.795   6.552  10.060  0.9804  1.6066 -2.3937
30393TIP3   OH292060   3.667   9.875   5.044 -0.2783  0.4191 -1.1443
30393TIP3    H192061   3.629   9.825   5.116  0.6030 -1.4957 -1.9312
30393TIP3    H292062   3.611   9.854   4.969  0.5324 -0.0220 -1.6462
30394TIP3   OH292063   2.425   1.680   9.784 -0.0200  0.0344  0.8627
30394TIP3    H192064   2.362   1.725   9.841 -0.7262 -0.4130  0.4564
30394TIP3    H292065   2.381   1.598   9.760  0.8803 -0.4531  0.8608
30395TIP3   OH292066   7.040   3.919  10.467  0.1741 -0.7690  1.0765
30395TIP3    H192067   7.088   3.902  10.386 -1.1888 -1.6535  0.4171
30395TIP3    H292068   7.013   4.010  10.460  1.0014 -0.5145  1.0658
30396TIP3   OH292069   1.086   0.444   6.810  0.0326 -0.6600  0.1135
30396TIP3    H192070   1.112   0.355   6.785 -1.4743 -1.2849  0.6751
30396TIP3    H292071   1.141   0.465   6.885 -0.1644 -1.4490  0.4840
30397TIP3   OH292072   0.881   5.491   3.380 -0.3988 -0.2209 -0.0198
30397TIP3    H192073   0.861   5.418   3.438  0.5600  0.0649  0.7068
30397TIP3    H292074   0.929   5.452   3.307 -0.2752 -0.3841  0.1476
30398TIP3   OH292075   1.340   7.378  10.435 -0.4015  0.4639  1.3383
30398TIP3    H192076   1.370   7.468  10.442  3.0391 -0.1262 -2.2607
30398TIP3    H292077   1.290   7.375  10.354 -2.2486 -0.6047  2.4254
30399TIP3   OH292078   5.406   6.395   1.390 -0.1142 -0.2006 -0.1074
30399TIP3    H192079   5.366   6.408   1.476  1.9429 -0.6811  1.0004
30399TIP3    H292080   5.437   6.482   1.364 -1.4432  0.1005 -0.7920
30400TIP3   OH292081   7.373   2.524   2.164 -0.1072  0.9407 -0.2209
30400TIP3    H192082   7.300   2.508   2.223  0.1423  0.1853 -0.1007
30400TIP3    H292083   7.362   2.615   2.135 -2.2883  0.2453 -1.8697
30401TIP3   OH292084   0.401   7.438  10.628 -0.0157 -0.9580  1.1222
30401TIP3    H192085   0.345   7.476  10.696  0.3760  0.7679  0.5228
30401TIP3    H292086   0.481   7.490  10.630  0.9570 -2.3635  0.8740
30402TIP3   OH292087   3.395  10.645   2.084 -0.2967 -0.1376 -0.3693
30402TIP3    H192088   3.313  10.694   2.083  0.2899  0.9923  1.6050
30402TIP3    H292089   3.372  10.559   2.119 -0.8256 -0.2704 -1.0219
30403TIP3   OH292090   4.926   8.008  10.446 -0.4129 -0.2515 -0.1865
30403TIP3    H192091   4.852   7.957  10.477 -0.8133  0.3332 -0.1686
30403TIP3    H292092   4.889   8.092  10.419  0.5149  0.9671  2.0327
30404TIP3   OH292093   6.865   6.554   0.939  0.2236  0.1588 -0.3411
30404TIP3    H192094   6.830   6.641   0.958  1.5558  0.9014 -1.0928
30404TIP3    H292095   6.822   6.496   1.002  0.2115  1.5473  0.9862
30405TIP3   OH292096   5.363  10.154   2.360  0.1753 -0.3800 -0.0257
30405TIP3    H192097   5.382  10.197   2.443 -2.4727 -0.4010  0.6765
30405TIP3    H292098   5.325  10.223   2.305 -2.4846 -1.3036  0.5026
30406TIP3   OH292099   3.837   1.361   4.229  0.4354  0.4644  0.2207
30406TIP3    H192100   3.806   1.283   4.275  0.8346 -0.4139 -0.9496
30406TIP3    H292101   3.762   1.420   4.229  0.5914  0.7322  2.4577
30407TIP3   OH292102  10.349   9.619   3.410  0.1420 -0.0884 -0.0796
30407TIP3    H192103  10.438   9.595   3.438  0.8329  1.4071 -0.8725
30407TIP3    H292104  10.297   9.611   3.490  0.7926 -1.7700  0.2279
30408TIP3   OH292105   3.871   4.518   9.532  0.2201  0.5458 -0.4684
30408TIP3    H192106   3.932   4.573   9.582  0.6399 -0.3805  0.0520
30408TIP3    H292107   3.787   4.565   9.539  0.8547  1.8731 -1.2670
30409TIP3   OH292108   6.953   5.799   0.067  0.2374  0.1713  0.9518
30409TIP3    H192109   6.935   5.762  -0.019  3.5432 -0.0242  0.2168
30409TIP3    H292110   6.933   5.728   0.129 -1.1801 -0.0269  0.2949
30410TIP3   OH292111   6.765   7.253   6.505 -0.2528  0.3284  0.2145
30410TIP3    H192112   6.773   7.175   6.560  0.4429  0.4389  0.2866
30410TIP3    H292113   6.836   7.310   6.534  0.7774 -0.0282 -1.4544
30411TIP3   OH292114   6.062   6.980   9.767 -0.3974 -0.4730  0.2545
30411TIP3    H192115   6.077   7.070   9.797  1.1169 -1.2371  1.9929
30411TIP3    H292116   5.985   6.952   9.815 -1.7895  0.3237 -1.4109
30412TIP3   OH292117   5.233   4.313   1.022 -0.0506 -0.7999 -0.1415
30412TIP3    H192118   5.196   4.255   1.088 -0.9170 -0.3912 -0.2572
30412TIP3    H292119   5.218   4.268   0.939 -1.3287 -0.1358 -0.2985
30413TIP3   OH292120   4.358   7.923   7.470 -0.0919 -0.2828  0.0883
30413TIP3    H192121   4.302   7.877   7.533 -2.2539  1.1470 -0.6460
30413TIP3    H292122   4.349   8.015   7.493  1.5548  0.0407 -0.4344
30414TIP3   OH292123   5.068  10.683   6.261 -0.5460 -0.2617 -0.1497
30414TIP3    H192124   5.042  10.654   6.173 -1.3802  0.0161 -0.0031
30414TIP3    H292125   4.990  10.668   6.315  0.8183 -3.2042  1.2391
30415TIP3   OH292126   0.071   3.603   6.548  0.5705  0.3015  0.2897
30415TIP3    H192127   0.071   3.679   6.606  0.8257 -0.3673  1.1900
30415TIP3    H292128   0.069   3.528   6.607 -2.1061 -0.4180 -0.5912
30416TIP3   OH292129   5.982   4.062   4.635  0.2273 -0.1571  0.0357
30416TIP3    H192130   5.994   4.093   4.724  0.2168 -0.1479  0.0337
30416TIP3    H292131   6.071   4.041   4.605  0.5927  2.4551 -0.9080
30417TIP3   OH292132  10.425   3.849   1.962 -0.3447 -0.5286 -0.5415
30417TIP3    H192133  10.450   3.773   2.014  0.6259  0.0897 -0.0830
30417TIP3    H292134  10.379   3.813   1.887  1.5551 -1.7023 -1.2048
30418TIP3   OH292135   6.386   6.488   4.444  0.5072 -0.1616 -0.2018
30418TIP3    H192136   6.300   6.527   4.431  0.6186  0.5563  0.9549
30418TIP3    H292137   6.436   6.557   4.489  1.5602 -0.7078 -0.4926
30419TIP3   OH292138   8.082   2.278   1.033 -0.4337  1.2130 -0.4972
30419TIP3    H192139   8.034   2.242   1.108  1.3868  0.7661  0.5023
30419TIP3    H292140   8.040   2.363   1.017  0.2695  2.1975  2.2317
30420TIP3   OH292141   5.188   9.320   4.061 -0.5244 -0.3268 -0.6293
30420TIP3    H192142   5.116   9.257   4.056  0.0502 -0.9519 -1.5560
30420TIP3    H292143   5.267   9.266   4.059 -0.0265  0.3826 -0.4934
30421TIP3   OH292144   1.167   7.429   8.595 -0.1066 -0.2537 -0.1334
30421TIP3    H192145   1.093   7.451   8.538  0.7273  2.4454 -0.3230
30421TIP3    H292146   1.241   7.476   8.557  1.1861 -0.9398  1.4253
30422TIP3   OH292147   4.506   0.226   0.390 -0.2062  0.0631  0.5116
30422TIP3    H192148   4.599   0.243   0.378 -0.0003 -2.0072 -1.6300
30422TIP3    H292149   4.465   0.254   0.308 -0.9661 -1.8441  0.1745
30423TIP3   OH292150   7.028   4.559   7.977 -0.2567  0.2344 -0.4120
30423TIP3    H192151   7.026   4.654   7.961  0.5871 -0.0905 -2.9507
30423TIP3    H292152   7.005   4.521   7.892 -1.4342 -1.8687  0.7704
30424TIP3   OH292153   0.670   2.723   1.809  0.0809  0.0518 -0.4852
30424TIP3    H192154   0.598   2.754   1.755  0.7267 -0.6447 -1.8056
30424TIP3    H292155   0.634   2.648   1.857 -0.4807  0.6480  0.0599
30425TIP3   OH292156   8.694   5.122   7.645  0.3079 -0.1299  0.1173
30425TIP3    H192157   8.664   5.212   7.639 -0.8338 -0.5589 -0.8858
30425TIP3    H292158   8.787   5.126   7.621  0.2710  0.7736  0.1173
30426TIP3   OH292159   3.377   4.615   4.723 -0.2764 -0.1988  0.1836
30426TIP3    H192160   3.401   4.690   4.778  1.6360  0.3674 -1.3123
30426TIP3    H292161   3.436   4.545   4.751 -1.9321 -1.1893  1.4464
30427TIP3   OH292162   0.914   7.968   4.605  0.2923  0.2828  0.3242
30427TIP3    H192163   1.008   7.966   4.620  0.1343  0.9273  1.5440
30427TIP3    H292164   0.876   7.927   4.682 -0.3966 -1.2180 -0.7651
30428TIP3   OH292165   1.756   3.104   2.577 -0.2059 -0.1772 -0.3846
30428TIP3    H192166   1.665   3.074   2.580 -0.9005  1.8181  0.6380
30428TIP3    H292167   1.800   3.054   2.645 -0.5558 -1.0767 -0.8090
30429TIP3   OH292168   1.188   3.913   0.931 -0.1992  0.1500  1.0898
30429TIP3    H192169   1.231   3.993   0.899  2.6151 -1.4794  0.4268
30429TIP3    H292170   1.135   3.884   0.857  0.5494  0.2349  0.5059
30430TIP3   OH292171   0.219   3.445   2.609 -0.3694 -0.2225 -0.2479
30430TIP3    H192172   0.162   3.379   2.648  0.2976 -1.3433 -1.1055
30430TIP3    H292173   0.160   3.506   2.566 -1.1327  1.0645  2.4649
30431TIP3   OH292174   1.327   5.530  10.493 -0.1742 -0.3943  0.8444
30431TIP3    H192175   1.396   5.594  10.507 -0.1462 -0.1430 -0.3532
30431TIP3    H292176   1.336   5.505  10.401 -3.1533  1.4476 -0.0855
30432TIP3   OH292177   8.879   0.037   8.707  0.1863 -0.1500 -0.0099
30432TIP3    H192178   8.917  -0.050   8.693  2.1413  0.4535  1.1445
30432TIP3    H292179   8.834   0.030   8.791  0.6023  0.0386  0.2282
30433TIP3   OH292180   6.397   2.519   2.639  0.1331 -0.2966  0.3438
30433TIP3    H192181   6.355   2.434   2.627 -2.3543  0.6597  1.4084
30433TIP3    H292182   6.340   2.580   2.590  0.3759  1.0580  1.6883
30434TIP3   OH292183   1.363   7.278   6.353  0.5433  0.0118 -0.6990
30434TIP3    H192184   1.407   7.280   6.268  0.6080  3.4774 -0.7144
30434TIP3    H292185   1.428   7.310   6.415 -0.3962  0.3742  0.1364
30435TIP3   OH292186   5.760  10.359   3.977  0.2056  0.0029  0.2844
30435TIP3    H192187   5.852  10.379   3.957  0.0208  1.4683  0.7959
30435TIP3    H292188   5.733  10.427   4.038 -1.3195 -0.2307 -0.0786
30436TIP3   OH292189  10.402   4.411   6.931 -1.0185 -0.0266  0.1762
30436TIP3    H192190  10.316   4.370   6.935 -1.2758  0.5921  1.2549
30436TIP3    H292191  10.448   4.378   7.008 -0.4069 -0.0880 -0.2093
30437TIP3   OH292192   5.513   5.549   7.990  0.3042 -0.1541 -0.5663
30437TIP3    H192193   5.423   5.518   7.978 -0.3871  1.6029 -0.2124
30437TIP3    H292194   5.518   5.573   8.082  0.1763  2.4645 -1.1519
30438TIP3   OH292195  10.761   5.309   2.963  0.4136  0.1461 -0.0291
30438TIP3    H192196  10.693   5.375   2.976 -0.9093 -0.6981 -2.1150
30438TIP3    H292197  10.743   5.273   2.876  2.7287 -1.0817 -0.0765
30439TIP3   OH292198   7.820   5.325   3.128  0.4729  0.4003 -0.1303
30439TIP3    H192199   7.796   5.410   3.091  0.3981  0.8539  0.9126
30439TIP3    H292200   7.901   5.342   3.176  0.5462 -0.1628 -0.0473
30440TIP3   OH292201   1.304   0.863   5.543  0.7075 -0.4031  0.8951
30440TIP3    H192202   1.354   0.926   5.595 -0.2168  0.5502  0.6742
30440TIP3    H292203   1.288   0.908   5.460  0.4046 -1.1018  0.5646
30441TIP3   OH292204   7.347   7.420   6.886 -0.3128  0.0691 -0.0873
30441TIP3    H192205   7.257   7.448   6.905  0.5169  2.6219  0.4431
30441TIP3    H292206   7.377   7.481   6.818  0.3665 -2.1106 -1.8475
30442TIP3   OH292207   9.769   9.248   9.207 -0.2736  0.4611  0.1577
30442TIP3    H192208   9.701   9.251   9.275 -0.9178  1.1946 -0.5113
30442TIP3    H292209   9.759   9.330   9.159 -0.3528 -0.4078 -1.3430
30443TIP3   OH292210   7.512   4.667   9.545  0.1880  0.2423 -0.0411
30443TIP3    H192211   7.498   4.759   9.524 -0.0446 -0.1865 -1.9481
30443TIP3    H292212   7.567   4.669   9.623  2.3817  2.0321 -1.5032
30444TIP3   OH292213   0.165  10.474  10.846  0.4110  0.1958  0.0522
30444TIP3    H192214   0.072  10.453  10.840 -0.0364  2.1078 -0.1374
30444TIP3    H292215   0.208  10.407  10.793 -0.4894 -2.7080  2.6818
30445TIP3   OH292216   8.084   7.378   8.752  0.0497 -0.1143  0.4941
30445TIP3    H192217   8.064   7.415   8.666 -0.8941  0.0712  0.7820
30445TIP3    H292218   8.077   7.284   8.740  0.7912 -0.1346  0.1634
30446TIP3   OH292219   3.234   9.016   2.549  0.7593 -0.4044 -0.6711
30446TIP3    H192220   3.267   8.964   2.475  0.4110  0.1837 -1.2537
30446TIP3    H292221   3.229   9.105   2.514 -1.2619 -0.4307 -0.5529
30447TIP3   OH292222   2.381   0.359   5.505  0.4935 -0.2834  0.2145
30447TIP3    H192223   2.460   0.333   5.551  0.2835  0.0031  0.7504
30447TIP3    H292224   2.407   0.366   5.413  1.2570  0.4730  0.4802
30448TIP3   OH292225   7.093   7.391   2.514 -0.4409  0.3417 -0.0864
30448TIP3    H192226   7.095   7.329   2.587  0.3953  1.2644  0.7080
30448TIP3    H292227   7.013   7.369   2.467 -0.2095 -1.2760  0.2110
30449TIP3   OH292228   1.559   1.730   6.310  0.3431 -0.3239  0.4323
30449TIP3    H192229   1.578   1.682   6.229 -0.3666 -1.9311  1.1700
30449TIP3    H292230   1.549   1.821   6.283  2.0875 -0.4994 -0.9795
30450TIP3   OH292231   8.737   4.875   8.457  0.2213 -0.4547 -0.3198
30450TIP3    H192232   8.674   4.804   8.470  0.5336 -1.0277 -1.7127
30450TIP3    H292233   8.813   4.850   8.510  0.1398 -0.9177 -0.4173
30451TIP3   OH292234   5.843   5.559  10.855 -0.2085  0.1100 -0.0494
30451TIP3    H192235   5.871   5.510  10.778 -2.7855  0.0886 -1.0432
30451TIP3    H292236   5.894   5.640  10.852 -0.8729  0.5125 -2.3038
30452TIP3   OH292237   0.655   0.928   4.808 -0.3634  0.2248 -0.3511
30452TIP3    H192238   0.572   0.938   4.855  1.4477  0.6130  3.0474
30452TIP3    H292239   0.656   0.836   4.781 -1.2627 -0.1752  0.8797
30453TIP3   OH292240   2.707   5.677   4.889 -0.3427 -0.3312 -0.8565
30453TIP3    H192241   2.721   5.756   4.836 -1.1842  0.2179 -0.2710
30453TIP3    H292242   2.704   5.709   4.979 -1.3757 -0.9378 -0.6638
30454TIP3   OH292243   5.734   1.189   9.602 -0.3686 -0.1864 -0.2706
30454TIP3    H192244   5.642   1.193   9.628 -0.4491 -0.6525 -0.4778
30454TIP3    H292245   5.766   1.278   9.615 -0.9116  0.0388 -0.4191
30455TIP3   OH292246   1.399  10.448   0.270  0.2425  0.0676 -0.0741
30455TIP3    H192247   1.336  10.517   0.249  0.9415  1.0040  0.7719
30455TIP3    H292248   1.454  10.441   0.192  0.1660  0.4843 -0.1700
30456TIP3   OH292249   7.954   6.605   5.501 -0.7729  0.3242  0.1235
30456TIP3    H192250   7.920   6.527   5.456  2.1549 -1.6569  1.0254
30456TIP3    H292251   7.993   6.657   5.431  0.4908 -0.9131 -0.1526
30457TIP3   OH292252   1.213   4.087   4.087 -0.4952 -0.2569 -0.1696
30457TIP3    H192253   1.156   4.113   4.159 -0.3345  0.0966 -0.1638
30457TIP3    H292254   1.223   3.993   4.096 -0.1199 -0.1574  0.5419
30458TIP3   OH292255   8.247   2.785   2.579  0.3423  0.3921  0.1128
30458TIP3    H192256   8.195   2.861   2.552 -1.1206 -0.3433  0.6970
30458TIP3    H292257   8.303   2.766   2.505  0.5034  1.8425 -0.1664
30459TIP3   OH292258  10.597   9.367   7.975 -0.1705  0.1331 -0.2087
30459TIP3    H192259  10.509   9.333   7.957 -0.2303 -0.6026  1.3045
30459TIP3    H292260  10.583   9.433   8.043  0.1795  1.9258 -1.7848
30460TIP3   OH292261  10.262   8.298   5.302  0.4958  0.2412 -0.3747
30460TIP3    H192262  10.333   8.262   5.354  0.2180  0.5096  0.2078
30460TIP3    H292263  10.302   8.368   5.250  0.7066  0.2068 -0.2551
30461TIP3   OH292264   6.961   8.595   4.870  0.3495 -0.4808  0.1767
30461TIP3    H192265   7.012   8.540   4.811  2.3467  1.0752  0.3567
30461TIP3    H292266   7.012   8.598   4.951  0.3572  1.6944  0.1365
30462TIP3   OH292267   9.224   4.343   4.721 -0.2426  0.5949  0.5102
30462TIP3    H192268   9.293   4.283   4.749  0.2238  0.6235 -0.5073
30462TIP3    H292269   9.175   4.363   4.800 -0.3097 -0.9957  0.9099
30463TIP3   OH292270   3.486   6.877   4.786  0.0319  0.1746  0.2833
30463TIP3    H192271   3.465   6.834   4.869  0.1051  1.7091  1.1508
30463TIP3    H292272   3.416   6.943   4.776 -0.9366 -1.0729 -1.7450
30464TIP3   OH292273   4.290   6.957   8.184  0.4658 -0.2834  0.1570
30464TIP3    H192274   4.359   6.922   8.239 -0.1177 -1.1882  0.3339
30464TIP3    H292275   4.320   7.045   8.160  0.6314  0.2228  2.0750
30465TIP3   OH292276  10.677   1.931   0.636  0.2550  0.1080 -0.0839
30465TIP3    H192277  10.627   1.859   0.672 -0.8252 -0.5862 -2.7015
30465TIP3    H292278  10.611   1.992   0.601  1.1748  1.7061  0.8383
30466TIP3   OH292279   2.392   8.283   0.075  0.1100  0.1162  0.1924
30466TIP3    H192280   2.399   8.295  -0.020  0.3307  1.8156  0.3992
30466TIP3    H292281   2.475   8.314   0.110  0.0491 -0.5501  0.9459
30467TIP3   OH292282   2.562   1.419   7.382 -0.2208  0.2600 -0.3497
30467TIP3    H192283   2.563   1.325   7.364 -2.8974  0.1943 -0.6267
30467TIP3    H292284   2.643   1.452   7.342  0.7542 -1.8877 -0.3062
30468TIP3   OH292285   8.913   2.399   7.738 -0.3253  0.2896 -0.4037
30468TIP3    H192286   9.004   2.401   7.765 -0.3724  0.9703 -0.2742
30468TIP3    H292287   8.873   2.331   7.792 -0.2935  1.2458  0.8416
30469TIP3   OH292288   1.783   0.067  10.470  0.2498 -0.2904 -0.0658
30469TIP3    H192289   1.857   0.006  10.467 -0.2631 -1.2734  3.2100
30469TIP3    H292290   1.722   0.028  10.531 -0.7119  2.8836  1.2314
30470TIP3   OH292291   2.337   0.094   6.904 -0.2335  0.0437 -0.9506
30470TIP3    H192292   2.412   0.124   6.956  0.2916  0.2156 -1.7850
30470TIP3    H292293   2.293   0.031   6.960  0.1547  0.4387 -0.1867
30471TIP3   OH292294   6.589   3.871   6.036 -0.8823  0.1026  0.1601
30471TIP3    H192295   6.559   3.781   6.027  2.7251 -1.2437 -0.2615
30471TIP3    H292296   6.544   3.918   5.966 -3.4106 -1.1016  0.8337
30472TIP3   OH292297   8.379   3.391   3.684 -0.1348 -0.0024 -0.5439
30472TIP3    H192298   8.314   3.407   3.753 -0.3134 -0.0288 -0.7067
30472TIP3    H292299   8.329   3.395   3.602  0.0605 -0.0634 -0.6660
30473TIP3   OH292300   5.560   4.978   0.489  0.8260 -0.4260 -0.2020
30473TIP3    H192301   5.527   4.889   0.501  1.8648 -0.8542 -0.4060
30473TIP3    H292302   5.574   4.986   0.395 -0.1835  0.3083 -0.3122
30474TIP3   OH292303   0.672   0.189  10.565  0.0858  0.4462 -0.3617
30474TIP3    H192304   0.611   0.235  10.507  0.1822  0.3595 -0.5354
30474TIP3    H292305   0.693   0.252  10.634 -1.0725  0.1014  0.3322
30475TIP3   OH292306   8.498   4.615   6.140 -0.6776  0.0986 -0.4503
30475TIP3    H192307   8.438   4.553   6.099  0.1475 -0.4355 -0.8774
30475TIP3    H292308   8.568   4.627   6.076  0.1634 -0.0457  0.4150
30476TIP3   OH292309   5.642   7.210   6.691  0.3112  0.1133  0.2342
30476TIP3    H192310   5.590   7.251   6.761 -1.0577 -0.5402 -0.3687
30476TIP3    H292311   5.610   7.250   6.611  1.3514  0.3086 -0.1013
30477TIP3   OH292312   0.826  10.094   1.265  0.0008 -0.0031  0.1428
30477TIP3    H192313   0.912  10.134   1.282 -1.0659  1.9589  1.3004
30477TIP3    H292314   0.811  10.037   1.341  0.4048 -0.6049 -0.2225
30478TIP3   OH292315   6.644   5.878   2.579 -0.1597 -0.4623  0.0671
30478TIP3    H192316   6.712   5.834   2.528 -1.3565  0.3842 -2.4421
30478TIP3    H292317   6.662   5.971   2.566 -1.9423 -0.2209 -0.9267
30479TIP3   OH292318   5.113   6.811   6.839 -0.2313  0.3743 -0.5380
30479TIP3    H192319   5.021   6.828   6.857  0.0237 -0.2230  1.6346
30479TIP3    H292320   5.133   6.731   6.887  1.1239 -0.2374 -2.0208
30480TIP3   OH292321   9.855   0.514   4.388  0.9700  0.1204 -0.4660
30480TIP3    H192322   9.921   0.485   4.452 -0.0016 -0.8606  0.1415
30480TIP3    H292323   9.902   0.571   4.329  2.0978  0.4093  0.6633
30481TIP3   OH292324   6.018  10.386   3.944  0.0697 -0.3034 -0.8875
30481TIP3    H192325   6.070  10.313   3.978  2.1010  1.7330  0.6203
30481TIP3    H292326   6.043  10.461   3.998 -2.0589  1.5147 -2.2568
30482TIP3   OH292327   1.412  10.821   0.041  0.1870 -0.0493 -0.3460
30482TIP3    H192328   1.411  10.909   0.002 -0.4877 -0.3946 -1.1440
30482TIP3    H292329   1.412  10.762  -0.034 -1.1208 -0.7377  0.1657
30483TIP3   OH292330   3.505   7.942   9.945  0.2245  0.1173  0.8177
30483TIP3    H192331   3.555   7.884  10.003 -0.5703 -1.5441 -0.1273
30483TIP3    H292332   3.545   7.930   9.859  0.3115  1.3219  0.6633
30484TIP3   OH292333   4.327   8.324   5.445 -0.3110 -0.3239  0.1096
30484TIP3    H192334   4.346   8.328   5.351 -0.8663  0.8217  0.0273
30484TIP3    H292335   4.401   8.368   5.486 -1.4101  1.7689 -0.0251
30485TIP3   OH292336   3.172   9.906   8.473  0.2716 -0.8706 -0.0031
30485TIP3    H192337   3.201   9.992   8.442 -1.5010 -0.5504 -0.8756
30485TIP3    H292338   3.091   9.924   8.521  0.7739 -1.8762  1.2792
30486TIP3   OH292339   9.244   3.300   5.804  0.1177  0.0813 -0.3864
30486TIP3    H192340   9.203   3.296   5.891 -0.2197 -0.7934 -0.5751
30486TIP3    H292341   9.266   3.209   5.784 -1.1988  0.0311 -1.8613
30487TIP3   OH292342   6.989   1.888   5.831  0.5059  0.4516  0.2395
30487TIP3    H192343   7.026   1.831   5.763 -0.0688 -0.9113  1.0231
30487TIP3    H292344   7.035   1.863   5.911 -1.4033 -0.6365  1.0556
30488TIP3   OH292345   9.239  10.166   8.723 -0.1722  0.6077  0.9158
30488TIP3    H192346   9.220  10.238   8.782  0.6108  0.5286  1.2697
30488TIP3    H292347   9.333  10.151   8.732 -0.2260 -0.0770  0.4161
30489TIP3   OH292348   2.780   4.695   8.078 -0.1852 -0.8735 -0.6160
30489TIP3    H192349   2.872   4.699   8.050  0.0346 -3.7027 -0.5833
30489TIP3    H292350   2.765   4.778   8.123  2.8472 -0.9349  0.7477
30490TIP3   OH292351   3.852   1.468   3.095 -0.4313  0.3123 -0.3895
30490TIP3    H192352   3.792   1.398   3.119 -2.9991  2.0284 -1.3767
30490TIP3    H292353   3.852   1.467   2.999 -1.4079  2.2789 -0.4553
30491TIP3   OH292354   2.057   6.678   9.045 -0.1430 -0.0513  0.6346
30491TIP3    H192355   2.075   6.748   8.982 -1.4101  0.5400  0.9045
30491TIP3    H292356   2.129   6.685   9.109 -0.1833  0.9315  0.5922
30492TIP3   OH292357   1.750   5.837   6.418  0.1648 -0.1374  0.1985
30492TIP3    H192358   1.822   5.778   6.396 -0.5059 -1.2917  0.9973
30492TIP3    H292359   1.789   5.904   6.474  0.5238 -1.0813  1.0966
30493TIP3   OH292360   6.465   7.442   6.193  0.1419 -0.2912 -0.0193
30493TIP3    H192361   6.383   7.415   6.234 -1.1526  1.3168 -1.3958
30493TIP3    H292362   6.501   7.507   6.254 -0.2819 -0.0286 -0.0465
30494TIP3   OH292363   6.881  10.172  10.842 -0.2648 -0.2523  0.4758
30494TIP3    H192364   6.976  10.173  10.857 -0.1968  0.2582  0.0002
30494TIP3    H292365   6.860  10.079  10.829  0.4578 -0.1991 -1.2446
30495TIP3   OH292366  10.574   3.890   1.717  0.1390 -0.2793  0.3342
30495TIP3    H192367  10.526   3.864   1.796  0.1033 -0.2686  0.3163
30495TIP3    H292368  10.529   3.968   1.686  1.0116  0.5687  1.1091
30496TIP3   OH292369   8.382   5.543   0.814  0.3156  0.0428 -0.0058
30496TIP3    H192370   8.413   5.571   0.900  0.7695 -0.5185  0.0156
30496TIP3    H292371   8.357   5.624   0.770 -1.3639  0.2245  1.1997
30497TIP3   OH292372   3.954   4.692   7.643  0.1412 -0.4627 -0.4821
30497TIP3    H192373   4.009   4.734   7.710 -0.9401 -0.4459  0.4169
30497TIP3    H292374   3.912   4.620   7.689 -1.1038 -0.0663 -0.9784
30498TIP3   OH292375   2.304   5.163   6.588 -0.6661 -0.4626  0.7025
30498TIP3    H192376   2.223   5.125   6.623 -2.1219  2.1676  0.4312
30498TIP3    H292377   2.283   5.255   6.573  2.1425  0.1236 -0.2338
30499TIP3   OH292378   7.239   9.298   9.108 -0.0649  0.1266 -0.8153
30499TIP3    H192379   7.174   9.228   9.100  0.8613 -0.8306 -0.1342
30499TIP3    H292380   7.187   9.377   9.125 -1.2216 -0.0948 -2.9281
30500TIP3   OH292381   0.848   5.037   8.914 -0.6140 -0.1307 -0.5122
30500TIP3    H192382   0.903   4.959   8.928  0.3701  0.5158 -0.6532
30500TIP3    H292383   0.817   5.029   8.825  0.6382  0.3137 -1.0179
30501TIP3   OH292384   4.823   9.679   9.810 -0.3250 -0.4264 -0.4896
30501TIP3    H192385   4.865   9.697   9.894 -1.1132 -0.8848  0.0142
30501TIP3    H292386   4.783   9.762   9.785  0.1922 -0.1995 -0.5821
30502TIP3   OH292387   6.893   4.579   3.447 -0.4000 -0.4447 -0.4192
30502TIP3    H192388   6.916   4.493   3.481 -1.7587 -1.1318 -1.1595
30502TIP3    H292389   6.976   4.616   3.419  0.4731 -0.7089  1.6265
30503TIP3   OH292390   6.758   8.232   3.126  0.0972 -0.1860  0.2768
30503TIP3    H192391   6.821   8.299   3.100  0.4885 -0.4287  0.5991
30503TIP3    H292392   6.757   8.170   3.053  0.2574 -0.2031  0.2891
30504TIP3   OH292393   8.707   1.025   0.054  0.0665 -0.1092 -0.0340
30504TIP3    H192394   8.618   1.056   0.035  0.2555  0.6514  0.3049
30504TIP3    H292395   8.699   0.981   0.139 -0.1398 -0.7685 -0.3810
30505TIP3   OH292396   5.431   2.006   8.640  0.3528  1.0678  1.0164
30505TIP3    H192397   5.373   2.052   8.578  1.6206 -0.0491 -1.1036
30505TIP3    H292398   5.514   2.000   8.594  0.2811 -3.3656  1.0799
30506TIP3   OH292399   3.179  10.327   3.951  0.0185  0.0256  0.0581
30506TIP3    H192400   3.184  10.325   3.856  0.4601 -1.0426  0.0879
30506TIP3    H292401   3.233  10.253   3.980  2.0907  1.8817  1.2490
30507TIP3   OH292402  10.578   5.711   6.312  0.5313  0.6761  0.0407
30507TIP3    H192403  10.660   5.738   6.271  0.4695 -2.6215 -2.6235
30507TIP3    H292404  10.510   5.742   6.252  0.2386 -1.2842 -0.7131
30508TIP3   OH292405   9.642   9.268  10.583  0.3277 -0.2754 -0.1165
30508TIP3    H192406   9.594   9.268  10.666 -1.8928  1.7665 -1.2676
30508TIP3    H292407   9.609   9.345  10.537  2.5416 -0.5461 -2.3283
30509TIP3   OH292408   3.983   4.154   5.170 -0.3454 -0.3310  0.1683
30509TIP3    H192409   3.917   4.138   5.238  0.6403  2.2605  1.8719
30509TIP3    H292410   3.932   4.178   5.093 -1.4327  0.0088  0.9603
30510TIP3   OH292411   4.004   4.332   1.834 -0.2798  0.2156  0.0555
30510TIP3    H192412   3.927   4.386   1.815  0.7113  1.4298 -0.6567
30510TIP3    H292413   4.050   4.380   1.903  1.3191  1.0578 -1.5059
30511TIP3   OH292414   2.154   2.314   9.076 -0.5772  0.0196  0.1196
30511TIP3    H192415   2.180   2.359   8.996 -1.8594  0.6708  0.0438
30511TIP3    H292416   2.214   2.239   9.082  0.0160  0.3764 -1.0374
30512TIP3   OH292417   8.213   6.041   1.057  0.3640  0.0156  0.1761
30512TIP3    H192418   8.281   6.008   0.998 -0.0038  0.0292 -0.2563
30512TIP3    H292419   8.260   6.062   1.138  0.8145 -0.3200  0.0029
30513TIP3   OH292420   5.750   7.838   2.901 -0.4664  0.4758  0.0712
30513TIP3    H192421   5.664   7.810   2.870 -0.6153  2.3298 -1.3526
30513TIP3    H292422   5.765   7.785   2.979 -2.9432  0.1769  0.4378
30514TIP3   OH292423   6.695  10.557   0.072  0.5302 -0.3828  0.4831
30514TIP3    H192424   6.652  10.477   0.041 -0.4394  0.0396  0.6943
30514TIP3    H292425   6.697  10.547   0.168 -2.2804  1.0949  0.7951
30515TIP3   OH292426   7.254   9.503   0.801  0.2740  0.0489 -0.3559
30515TIP3    H192427   7.326   9.445   0.824 -0.8410 -0.6864  1.6405
30515TIP3    H292428   7.176   9.446   0.804 -0.7123  1.3793  0.5587
30516TIP3   OH292429   7.184   5.480   2.274  0.0775 -0.6221 -0.6538
30516TIP3    H192430   7.101   5.436   2.256  0.4720 -2.0575  0.7984
30516TIP3    H292431   7.245   5.409   2.297  0.6354  0.6059  2.2016
30517TIP3   OH292432   3.294   6.785   3.404  0.9768 -0.2660  0.4005
30517TIP3    H192433   3.355   6.712   3.416  1.7560  0.2611 -0.2203
30517TIP3    H292434   3.214   6.744   3.371  1.2560 -0.8794  0.4675
30518TIP3   OH292435  10.041   2.169   5.709 -0.0915 -0.5549 -0.3620
30518TIP3    H192436  10.039   2.240   5.645  0.6246 -0.0302  0.1734
30518TIP3    H292437   9.950   2.139   5.715  0.2328 -2.8677 -4.0120
30519TIP3   OH292438   2.014   9.122   6.288 -0.2949 -0.2116  0.2532
30519TIP3    H192439   2.104   9.105   6.313 -0.3382 -1.9547 -0.6423
30519TIP3    H292440   1.990   9.050   6.230 -2.1271  0.4385  0.1054
30520TIP3   OH292441   6.268  10.606   8.328 -0.4318 -0.5545  0.0437
30520TIP3    H192442   6.197  10.633   8.270 -0.3292 -0.1475  0.1041
30520TIP3    H292443   6.327  10.681   8.329 -0.6820 -0.3682  1.0705
30521TIP3   OH292444   6.881   5.637   4.009 -0.1740  0.5109 -0.1261
30521TIP3    H192445   6.903   5.573   4.077  0.5261  2.5370  1.6594
30521TIP3    H292446   6.902   5.721   4.048 -2.0180  1.9362 -2.0112
30522TIP3   OH292447   7.234   6.005  10.250  0.4351  0.0052 -0.3994
30522TIP3    H192448   7.160   6.052  10.288  0.1061 -0.3725 -0.5676
30522TIP3    H292449   7.230   6.024  10.157  2.7683  3.0804 -0.0203
30523TIP3   OH292450  10.033   0.196   0.757  0.3380  0.0423 -0.5656
30523TIP3    H192451  10.073   0.110   0.769  0.0906 -0.5702 -3.3573
30523TIP3    H292452   9.939   0.180   0.757  0.1236  0.8522  1.8544
30524TIP3   OH292453   6.977   5.253   1.351  0.0635  0.8357  0.1622
30524TIP3    H192454   6.885   5.278   1.353  0.2622  1.6567 -0.3442
30524TIP3    H292455   6.979   5.163   1.385 -0.9284  0.7810  0.0911
30525TIP3   OH292456   7.301   7.840   4.771 -0.5757  0.5271  0.1950
30525TIP3    H192457   7.267   7.919   4.814  1.3599  1.3274  0.3406
30525TIP3    H292458   7.253   7.836   4.688 -0.5300  2.0194  0.0618
30526TIP3   OH292459   6.736   0.269   0.473  0.2736  0.3099 -0.0784
30526TIP3    H192460   6.795   0.320   0.528  0.9476  1.7128 -2.0076
30526TIP3    H292461   6.652   0.315   0.478 -0.2022 -0.6399  1.2077
30527TIP3   OH292462   8.047   0.350   3.903  0.1875 -0.1187 -0.8474
30527TIP3    H192463   8.051   0.282   3.836  0.3435 -0.0763 -0.8810
30527TIP3    H292464   8.026   0.430   3.855  3.4993  0.5861 -1.3434
30528TIP3   OH292465   1.128   7.303   4.440  0.3498  0.0720 -0.0340
30528TIP3    H192466   1.155   7.385   4.398  0.7039 -0.0910 -0.1297
30528TIP3    H292467   1.168   7.234   4.386  0.8568 -0.1362  0.6008
30529TIP3   OH292468   9.091   7.110   6.601  0.1559  0.0261 -0.8337
30529TIP3    H192469   9.162   7.070   6.552  0.8423  0.4010 -0.1672
30529TIP3    H292470   9.123   7.198   6.622  0.1192 -0.3106  0.7584
30530TIP3   OH292471   6.829   5.754   4.276  0.2314 -0.1360  0.2318
30530TIP3    H192472   6.828   5.659   4.267 -0.8474 -0.2159  1.1024
30530TIP3    H292473   6.909   5.773   4.325  0.6554 -0.5417 -0.2820
30531TIP3   OH292474   6.950   4.450   4.931 -0.1243 -0.4839  0.1326
30531TIP3    H192475   6.999   4.496   4.999 -1.6050  0.2882  0.7444
30531TIP3    H292476   6.909   4.376   4.976  0.4810 -1.1387 -0.3706
30532TIP3   OH292477   0.085   3.136   3.882  0.0042  0.0506 -0.5024
30532TIP3    H192478  -0.006   3.127   3.854  0.3549  0.2672 -1.7914
30532TIP3    H292479   0.087   3.219   3.930 -0.5133 -0.0432 -0.3150
30533TIP3   OH292480   8.782  10.301   1.674 -0.0315 -0.1315 -0.1063
30533TIP3    H192481   8.764  10.295   1.580  1.8587  0.9416 -0.5916
30533TIP3    H292482   8.833  10.222   1.694  1.5227  0.7290 -0.5225
30534TIP3   OH292483   7.552   8.451   4.894  0.5772 -0.1659 -0.3505
30534TIP3    H192484   7.478   8.508   4.915  2.3114  2.0172  0.3569
30534TIP3    H292485   7.572   8.470   4.802 -1.6168 -3.1695 -1.5769
30535TIP3   OH292486  10.533   4.627   8.803  0.0895 -0.3525 -0.6714
30535TIP3    H192487  10.551   4.536   8.778 -3.6634 -0.7240 -2.6590
30535TIP3    H292488  10.495   4.620   8.891 -1.3353 -0.9288 -1.2979
30536TIP3   OH292489   6.265  10.762   5.195  0.2133 -0.1645 -0.1939
30536TIP3    H192490   6.228  10.850   5.184 -4.0714 -1.6672  0.5008
30536TIP3    H292491   6.220  10.709   5.129 -2.9601 -3.1349  3.8345
30537TIP3   OH292492   3.618   2.032   5.764  0.1983  0.8550 -0.2824
30537TIP3    H192493   3.701   2.078   5.751  0.0454  1.9681  2.0916
30537TIP3    H292494   3.641   1.955   5.817 -0.4306  2.2280  2.1432
30538TIP3   OH292495   7.669  10.482   3.511 -0.4594 -0.2220 -0.1195
30538TIP3    H192496   7.707  10.394   3.515  0.1083 -0.0740 -1.7185
30538TIP3    H292497   7.717  10.532   3.577  1.7058 -0.2213 -1.6061
30539TIP3   OH292498   7.962   2.024   4.890 -0.1946 -0.2967  0.3411
30539TIP3    H192499   7.993   2.046   4.803 -3.2490 -1.0949 -1.0928
30539TIP3    H292500   7.926   2.106   4.925  2.1983  0.3551  1.5401
30540TIP3   OH292501   3.616   6.298   5.739 -0.5674 -0.1011 -0.4102
30540TIP3    H192502   3.679   6.234   5.772  1.0271  1.4105 -0.3380
30540TIP3    H292503   3.552   6.307   5.809  0.5338  0.1159  0.6016
30541TIP3   OH292504   5.617   1.010   4.964  0.6860 -0.3140 -0.1575
30541TIP3    H192505   5.534   1.001   4.917  0.4035  2.4862 -0.3521
30541TIP3    H292506   5.682   1.024   4.895  0.5900  1.7849  0.1317
30542TIP3   OH292507   1.181   6.698   1.001 -0.0058  0.4435 -0.6733
30542TIP3    H192508   1.134   6.638   1.058 -0.2065  0.6365 -0.6342
30542TIP3    H292509   1.230   6.755   1.061  1.1447 -0.4446 -0.7334
30543TIP3   OH292510   0.580   2.455   1.892 -0.5508 -0.6649  0.2938
30543TIP3    H192511   0.552   2.436   1.803 -0.7500 -0.0076  0.2054
30543TIP3    H292512   0.528   2.397   1.947 -3.9009  1.9958  0.3224
30544TIP3   OH292513  10.443   4.499   9.900 -0.0602  0.1915 -0.0034
30544TIP3    H192514  10.382   4.456   9.960  0.3578  0.2012  0.4245
30544TIP3    H292515  10.512   4.435   9.885 -1.1122 -0.5813 -2.0129
30545TIP3   OH292516   5.686   3.388   4.218 -0.2185 -0.1337 -0.2634
30545TIP3    H192517   5.631   3.456   4.180 -0.5948 -0.0248  0.4505
30545TIP3    H292518   5.655   3.307   4.179  0.2453  0.0961 -1.1341
30546TIP3   OH292519   5.831   2.412   9.149  0.2754  0.2125 -0.5670
30546TIP3    H192520   5.814   2.465   9.071 -2.1386  0.8247  0.2856
30546TIP3    H292521   5.751   2.419   9.200  1.8511  0.0549  2.1141
30547TIP3   OH292522   1.904   4.918   8.874 -0.3988  0.2551 -0.1576
30547TIP3    H192523   1.913   4.837   8.825 -1.9810 -2.1932  3.2081
30547TIP3    H292524   1.845   4.972   8.821 -1.5356 -1.9339 -1.2493
30548TIP3   OH292525   7.591   8.377   6.928  0.4606  0.3836 -0.6225
30548TIP3    H192526   7.570   8.285   6.912 -0.0642  0.3522  0.2185
30548TIP3    H292527   7.510   8.424   6.906  0.1131  0.4532  0.7276
30549TIP3   OH292528   3.846   9.293   7.707 -0.1554  0.3270  0.0123
30549TIP3    H192529   3.784   9.361   7.735  0.5315  0.8071  0.4030
30549TIP3    H292530   3.845   9.297   7.612 -1.5851 -0.4635 -0.0266
30550TIP3   OH292531   7.703   3.334   3.151  0.3385  0.0470 -0.2744
30550TIP3    H192532   7.608   3.334   3.137  0.3876 -0.0062 -0.6220
30550TIP3    H292533   7.717   3.395   3.224 -0.2145 -1.9386  1.6047
30551TIP3   OH292534   0.858   1.532   7.095  0.4262 -0.0174  0.0647
30551TIP3    H192535   0.843   1.495   7.008  0.4987 -0.3746  0.2042
30551TIP3    H292536   0.788   1.597   7.106 -1.0593 -1.6504  0.7021
30552TIP3   OH292537   6.274   7.769   3.226 -0.0440  0.2314 -0.3737
30552TIP3    H192538   6.362   7.765   3.263  0.1826  0.3984 -0.8903
30552TIP3    H292539   6.282   7.828   3.151 -0.4454 -0.2931 -0.8320
30553TIP3   OH292540   1.025   4.157   2.855 -0.2860 -0.0056 -0.3553
30553TIP3    H192541   1.022   4.138   2.761 -1.3084 -1.4704 -0.0766
30553TIP3    H292542   1.114   4.134   2.881 -0.2769 -0.5167 -0.8062
30554TIP3   OH292543   5.619   5.297   1.932 -0.4205 -0.6623 -0.3507
30554TIP3    H192544   5.641   5.298   1.839 -1.6934  2.1715 -0.7443
30554TIP3    H292545   5.578   5.383   1.948  1.4148 -0.2490  3.2451
30555TIP3   OH292546   9.366   9.723   5.295 -0.3353 -0.1956  0.1264
30555TIP3    H192547   9.431   9.784   5.331 -1.1356  1.5584 -1.2513
30555TIP3    H292548   9.307   9.779   5.244 -2.2749 -1.8826  0.4083
30556TIP3   OH292549   5.869   0.040   6.785  0.2516  0.5486 -0.6502
30556TIP3    H192550   5.895   0.070   6.698 -1.6775  0.0822 -1.4391
30556TIP3    H292551   5.903   0.106   6.844  1.0035  1.2484 -1.8238
30557TIP3   OH292552   5.678   7.330   8.720  0.1932  0.2041  0.1077
30557TIP3    H192553   5.620   7.280   8.664 -1.1610  1.1590  0.6161
30557TIP3    H292554   5.746   7.363   8.661  0.4485 -1.1829 -0.4330
30558TIP3   OH292555   2.585   7.531   5.165  0.5013  0.0960 -0.0474
30558TIP3    H192556   2.530   7.561   5.092  1.5758  1.3271 -0.3932
30558TIP3    H292557   2.573   7.436   5.166 -1.8908  0.3250  0.1315
30559TIP3   OH292558   8.729   4.240   7.525  0.1663  0.0050  0.6641
30559TIP3    H192559   8.714   4.330   7.495  2.2378 -0.5410 -2.4388
30559TIP3    H292560   8.757   4.250   7.616  0.7060  2.5700  0.3057
30560TIP3   OH292561   3.049   1.899   8.121  0.2086 -0.1840  0.3303
30560TIP3    H192562   3.140   1.929   8.126  0.8037 -1.8020  0.0743
30560TIP3    H292563   2.998   1.968   8.163  1.6010  0.6121  0.7717
30561TIP3   OH292564   6.759   0.240   3.315 -0.1615  0.1089 -0.1085
30561TIP3    H192565   6.829   0.299   3.345  0.1790 -0.0633 -0.5464
30561TIP3    H292566   6.780   0.156   3.356 -0.7720  0.3450  0.6944
30562TIP3   OH292567   6.097   1.523  10.031  0.4199 -0.5908  0.2267
30562TIP3    H192568   6.101   1.499   9.939  2.8430 -1.2403  0.4470
30562TIP3    H292569   6.022   1.473  10.065 -0.4160 -0.4490 -1.3319
30563TIP3   OH292570   9.815   4.118  10.609 -0.3163  0.2738  0.8540
30563TIP3    H192571   9.886   4.076  10.658 -0.0024  0.6573  0.7338
30563TIP3    H292572   9.843   4.112  10.518  0.0919  1.3925  0.8898
30564TIP3   OH292573   0.564   4.181   5.334  0.0183  0.8155  0.2504
30564TIP3    H192574   0.607   4.236   5.268 -1.7364 -0.5486 -2.1856
30564TIP3    H292575   0.498   4.238   5.373 -1.0917  0.8289 -1.5293
30565TIP3   OH292576   0.867   2.537   8.404  0.3932  0.3013  0.8322
30565TIP3    H192577   0.898   2.578   8.485 -2.2388 -1.0025  2.6307
30565TIP3    H292578   0.774   2.557   8.400  0.3976  0.2204 -1.8821
30566TIP3   OH292579   4.950   4.204   9.248 -0.0480  0.0820 -0.0342
30566TIP3    H192580   4.889   4.244   9.310 -0.1327 -0.7549  0.4326
30566TIP3    H292581   4.941   4.110   9.263 -1.2793 -0.2580 -2.4062
30567TIP3   OH292582   8.499   8.947   8.276 -0.5648 -0.6811 -0.4816
30567TIP3    H192583   8.500   8.880   8.345 -0.4024 -1.1267 -0.9069
30567TIP3    H292584   8.572   9.005   8.299  0.7269 -1.9009 -1.2906
30568TIP3   OH292585   5.422   6.263   7.059 -0.0402  0.2022 -0.0123
30568TIP3    H192586   5.361   6.203   7.103  1.4600 -0.7398  0.8710
30568TIP3    H292587   5.372   6.344   7.050 -2.0541 -1.0502 -0.9903
30569TIP3   OH292588   2.921   5.022   4.670 -0.2907 -0.1671  0.1559
30569TIP3    H192589   2.828   5.033   4.650 -1.1973 -2.2307  2.7060
30569TIP3    H292590   2.945   5.104   4.714 -1.2648 -0.1447  0.6659
30570TIP3   OH292591   9.028   0.543   1.436  0.7090  0.0022  0.3272
30570TIP3    H192592   8.963   0.534   1.366  2.8388  1.5825 -2.0316
30570TIP3    H292593   9.019   0.634   1.466  0.0308 -0.5682  1.9849
30571TIP3   OH292594   4.901   3.762   9.616 -0.1217  0.5540  0.3807
30571TIP3    H192595   4.963   3.828   9.583 -0.4165 -0.3805 -2.2703
30571TIP3    H292596   4.922   3.754   9.709  3.4641  0.6056 -0.2904
30572TIP3   OH292597   3.573   8.747   6.658  0.1300  0.0635 -0.7812
30572TIP3    H192598   3.628   8.769   6.583 -0.3002  0.9219 -0.8530
30572TIP3    H292599   3.587   8.817   6.721  2.2145 -1.7579  0.9526
30573TIP3   OH292600   3.195   9.251   4.351  0.0456  0.8873 -0.4854
30573TIP3    H192601   3.230   9.186   4.290  0.3878  0.2702  0.3509
30573TIP3    H292602   3.265   9.316   4.361  0.8731 -0.1479  0.8941
30574TIP3   OH292603   7.006   5.779   4.708  0.1911  0.6525  0.3690
30574TIP3    H192604   7.071   5.813   4.769  0.0809  1.2963  0.1352
30574TIP3    H292605   6.985   5.853   4.651  1.4232 -0.2941 -1.4448
30575TIP3   OH292606   1.779   1.438   0.045  0.7335  0.1609  0.3337
30575TIP3    H192607   1.746   1.468   0.130 -1.0260  1.0319 -0.6188
30575TIP3    H292608   1.800   1.345   0.059 -1.8938 -0.3918  1.1207
30576TIP3   OH292609   2.235   2.303   3.439  0.0287 -0.0456  0.1496
30576TIP3    H192610   2.268   2.292   3.350 -0.5012 -0.6506  0.0242
30576TIP3    H292611   2.140   2.307   3.429  0.0095  0.8752  0.5909
30577TIP3   OH292612   6.322  10.698   5.466 -0.5751  0.2080  0.0820
30577TIP3    H192613   6.259  10.628   5.479  0.6099 -1.0701 -0.7007
30577TIP3    H292614   6.304  10.731   5.378  0.2028 -0.5811 -0.3914
30578TIP3   OH292615   6.188   3.641   3.284  0.3709  0.0786 -0.3753
30578TIP3    H192616   6.116   3.649   3.221  1.2175 -0.9184 -1.5215
30578TIP3    H292617   6.230   3.727   3.285 -0.2006  0.3608 -0.4843
30579TIP3   OH292618   3.254   0.206   8.772  0.7479  0.1279 -0.1258
30579TIP3    H192619   3.226   0.166   8.690 -0.7836 -0.2305  0.5446
30579TIP3    H292620   3.347   0.184   8.779  0.6953 -0.5393 -1.3473
30580TIP3   OH292621   0.100   5.229   5.625 -0.0075 -0.5923  0.6132
30580TIP3    H192622   0.036   5.220   5.696  0.5017  1.1386  1.3565
30580TIP3    H292623   0.173   5.275   5.665 -0.3372  1.8825 -1.3614
30581TIP3   OH292624   2.321   9.196   9.935  0.2262  0.6163  0.2624
30581TIP3    H192625   2.291   9.237   9.854 -1.8901  0.2749  0.8224
30581TIP3    H292626   2.302   9.260  10.003  2.2911  1.0362  0.5184
30582TIP3   OH292627   8.627  10.216   0.964  0.0881 -0.1545  0.1662
30582TIP3    H192628   8.710  10.243   0.923 -0.7670  1.9488 -0.2578
30582TIP3    H292629   8.644  10.222   1.058  0.1226  1.3348  0.0848
30583TIP3   OH292630   1.482   5.993   1.026 -0.3641 -0.2426 -0.0342
30583TIP3    H192631   1.501   5.908   1.067  1.4620  1.1958  2.3892
30583TIP3    H292632   1.407   6.027   1.075 -0.6455 -0.1442 -0.5281
30584TIP3   OH292633   6.055   2.533   9.307 -0.5972 -0.4118  0.4412
30584TIP3    H192634   5.996   2.538   9.382 -0.6198 -0.1654  0.4063
30584TIP3    H292635   6.000   2.506   9.234 -0.5374 -0.8560  0.5532
30585TIP3   OH292636   0.694   7.249   7.735  0.4149  0.0282 -0.4528
30585TIP3    H192637   0.683   7.189   7.661  1.7281  0.5024 -1.0542
30585TIP3    H292638   0.789   7.256   7.747  0.3028  1.8928 -0.3289
30586TIP3   OH292639   0.842   3.146   5.110 -0.2467  0.0518  0.5304
30586TIP3    H192640   0.762   3.158   5.060 -0.8081  1.4661  1.6990
30586TIP3    H292641   0.910   3.190   5.058  0.0830 -2.1974 -1.0700
30587TIP3   OH292642   5.485   4.840   1.246 -0.1863 -0.6139  0.0746
30587TIP3    H192643   5.419   4.907   1.262  1.2909  0.7457  0.7317
30587TIP3    H292644   5.434   4.762   1.224 -1.9954  0.4010  0.4017
30588TIP3   OH292645   4.120   9.605   9.058  0.8736 -0.7343 -0.0199
30588TIP3    H192646   4.081   9.673   9.114  0.4935 -1.7325  0.9616
30588TIP3    H292647   4.207   9.639   9.037  0.8303 -0.0976  0.7607
30589TIP3   OH292648   8.604   8.327  10.862  0.4285 -0.2523  0.7358
30589TIP3    H192649   8.651   8.301  10.783  0.2079  0.5178  0.3452
30589TIP3    H292650   8.512   8.325  10.837  0.3179 -0.6322  1.1649
30590TIP3   OH292651   4.999   6.606   9.199  0.6398 -0.4695 -0.5145
30590TIP3    H192652   5.073   6.550   9.223  1.7018  0.9261 -0.4368
30590TIP3    H292653   5.037   6.673   9.143 -0.8635 -0.6014 -1.7652
30591TIP3   OH292654   3.454   9.739   5.850  0.0815 -0.0422  0.0130
30591TIP3    H192655   3.366   9.738   5.888  0.2617 -0.2692  0.4371
30591TIP3    H292656   3.488   9.651   5.868  0.2968 -0.0357 -0.3794
30592TIP3   OH292657   1.910   9.280   1.088 -0.4398  0.6965  0.0688
30592TIP3    H192658   1.969   9.300   1.015 -0.6551  1.0668 -0.0041
30592TIP3    H292659   1.905   9.361   1.138  1.2834 -0.0814  1.6346
30593TIP3   OH292660   6.085   0.970   2.487 -0.0741  0.2124 -0.4478
30593TIP3    H192661   6.033   0.897   2.452  1.0872 -0.4821 -0.7712
30593TIP3    H292662   6.060   1.045   2.433  0.6331 -0.5374 -1.8686
30594TIP3   OH292663   6.295   3.223   2.139 -0.4505 -0.2030 -0.7572
30594TIP3    H192664   6.265   3.297   2.191 -3.8563 -1.7470 -0.2331
30594TIP3    H292665   6.318   3.261   2.054  2.0103  1.9127  0.7197
30595TIP3   OH292666   5.490   8.331   8.243 -0.1920  0.1828 -0.2144
30595TIP3    H192667   5.469   8.323   8.150  0.3802 -0.0441 -0.3309
30595TIP3    H292668   5.421   8.386   8.280  0.6863  1.9973 -1.1714
30596TIP3   OH292669   5.413   0.986   8.868 -0.5086  0.1826 -0.2868
30596TIP3    H192670   5.469   0.965   8.793 -1.8224 -1.2166 -0.9226
30596TIP3    H292671   5.368   1.066   8.844  0.9249  1.1323  0.0885
30597TIP3   OH292672   1.669   5.488   2.858 -0.7174 -0.3658 -0.5443
30597TIP3    H192673   1.713   5.573   2.856 -3.6648  1.3148  0.7156
30597TIP3    H292674   1.709   5.442   2.932  0.9998 -0.2196 -1.3249
30598TIP3   OH292675   0.058   0.111   0.024 -0.3522 -0.3952 -0.6533
30598TIP3    H192676   0.091   0.070  -0.056  0.3152 -0.1349 -0.5201
30598TIP3    H292677   0.017   0.039   0.073  0.9101 -0.9389 -0.3658
30599TIP3   OH292678   9.185   1.013   9.346  0.0511  0.0270 -0.1874
30599TIP3    H192679   9.197   1.055   9.432 -0.4237  1.6887 -0.9024
30599TIP3    H292680   9.267   1.027   9.300  1.2221 -2.9150  0.7497
30600TIP3   OH292681   8.017   6.068   7.267  0.0637 -0.4263 -0.0873
30600TIP3    H192682   8.108   6.088   7.290 -0.3897  0.8732  0.7334
30600TIP3    H292683   7.996   6.131   7.198 -0.1138 -0.9741 -0.5407
30601TIP3   OH292684   0.773   0.323   0.701  0.2220  0.0251  0.4658
30601TIP3    H192685   0.810   0.235   0.695  3.8925  1.1366  2.9488
30601TIP3    H292686   0.777   0.357   0.612  0.2109 -1.7999 -0.2619
30602TIP3   OH292687   1.700   0.962   4.674  0.2797  0.6906  0.4637
30602TIP3    H192688   1.699   1.026   4.603  1.1647 -1.4819 -1.6330
30602TIP3    H292689   1.791   0.961   4.704  0.3929  0.0448  0.1111
30603TIP3   OH292690   7.057   8.319   9.816  0.4681  0.6439 -0.1271
30603TIP3    H192691   7.098   8.299   9.731  2.5410 -4.6319  1.6859
30603TIP3    H292692   6.985   8.256   9.822  1.3178 -0.1859  2.4895
30604TIP3   OH292693   1.258   5.110   3.170 -0.0481 -0.0170 -0.2648
30604TIP3    H192694   1.180   5.061   3.147 -1.2085  1.7550 -0.2825
30604TIP3    H292695   1.283   5.156   3.090  1.3116 -0.9195 -0.3912
30605TIP3   OH292696  10.900   5.099   0.809 -0.4567 -0.5530 -0.0476
30605TIP3    H192697  10.809   5.111   0.782 -0.8681  0.6300  1.6946
30605TIP3    H292698  10.894   5.075   0.902  0.9632 -2.0508 -0.2996
30606TIP3   OH292699   4.401   0.016   7.877 -0.2959  0.7199  0.7541
30606TIP3    H192700   4.381   0.064   7.958  0.4518  0.6642  0.9750
30606TIP3    H292701   4.473  -0.042   7.901  0.2982  1.0944 -0.0892
30607TIP3   OH292702   7.195  10.182   7.529 -0.3714  0.3840  0.0477
30607TIP3    H192703   7.173  10.272   7.504  0.0711  0.8719  1.3303
30607TIP3    H292704   7.223  10.189   7.620 -2.1749 -1.3433  0.7992
30608TIP3   OH292705   8.102   0.424   1.133  0.1710 -0.3111 -0.3336
30608TIP3    H192706   8.180   0.379   1.167 -0.5287 -0.6535  0.8935
30608TIP3    H292707   8.081   0.489   1.200 -0.3660  0.0452 -0.8426
30609TIP3   OH292708   2.058   7.338   9.797  0.8452 -0.2204 -0.5588
30609TIP3    H192709   2.140   7.385   9.786  1.4782 -1.5232 -1.8560
30609TIP3    H292710   2.002   7.397   9.846  2.4940  0.7691  0.1966
30610TIP3   OH292711   4.460   6.808   3.995 -0.1547 -0.5105  0.1559
30610TIP3    H192712   4.379   6.768   3.964  0.9254 -0.4511 -3.1063
30610TIP3    H292713   4.522   6.795   3.923  2.6465 -0.1865  2.3290
30611TIP3   OH292714   8.910   4.319   6.641  0.1462  0.5890 -0.2355
30611TIP3    H192715   8.929   4.303   6.549  0.3762  2.4774 -0.5555
30611TIP3    H292716   8.852   4.395   6.641 -2.2411 -1.1159  1.0640
30612TIP3   OH292717   3.243   2.965   2.570 -0.1888  0.0469  0.3478
30612TIP3    H192718   3.170   2.936   2.515  2.6637 -1.5383 -2.9757
30612TIP3    H292719   3.278   3.042   2.525  2.6650 -1.7019 -0.6383
30613TIP3   OH292720   1.943   6.789   2.266  0.3607  0.6510  0.2117
30613TIP3    H192721   2.000   6.840   2.209 -0.6771 -0.4871 -1.9792
30613TIP3    H292722   1.856   6.827   2.254 -0.3069 -1.1264 -0.9504
30614TIP3   OH292723   0.676   3.640   2.131 -0.8119 -0.5853  0.3239
30614TIP3    H192724   0.683   3.595   2.046  1.2462 -0.4017  0.3398
30614TIP3    H292725   0.743   3.708   2.127 -1.2632 -0.0250  1.7846
30615TIP3   OH292726   3.349   6.411   9.392  0.2024 -0.3437 -0.4092
30615TIP3    H192727   3.343   6.317   9.410  1.4824 -0.3348  0.2612
30615TIP3    H292728   3.304   6.452   9.466 -0.6349 -0.4279 -0.8672
30616TIP3   OH292729   0.178   5.495   2.666  0.2002 -0.1330 -0.1220
30616TIP3    H192730   0.100   5.521   2.616  0.4356  1.3193  0.2067
30616TIP3    H292731   0.224   5.578   2.682  2.1399 -1.0414 -0.8225
30617TIP3   OH292732   2.323   9.797   1.132  0.1188  0.1591 -0.3487
30617TIP3    H192733   2.341   9.704   1.139 -0.3254  0.1163  0.2744
30617TIP3    H292734   2.367   9.824   1.051 -0.6278 -0.8029 -1.1020
30618TIP3   OH292735   8.422   8.701   8.782  0.1497  0.0065  0.0503
30618TIP3    H192736   8.412   8.756   8.704 -0.2758 -0.0229  0.0853
30618TIP3    H292737   8.407   8.612   8.751  1.8746 -0.2367 -0.2295
30619TIP3   OH292738   6.999   8.113   0.418  0.1578 -0.7016 -0.1345
30619TIP3    H192739   6.987   8.200   0.456 -0.4936 -0.5202 -0.7290
30619TIP3    H292740   7.093   8.096   0.425  0.5126  0.6436 -1.2755
30620TIP3   OH292741   7.097   5.195   5.215  0.4452  0.0419  0.2557
30620TIP3    H192742   7.077   5.155   5.300  0.4142 -1.4785 -0.4353
30620TIP3    H292743   7.134   5.280   5.236 -3.0851  1.4095  1.7429
30621TIP3   OH292744   9.984   2.054   9.494  0.2638  0.0316 -0.4223
30621TIP3    H192745   9.926   2.124   9.523 -1.0771 -1.0087 -0.5227
30621TIP3    H292746   9.968   1.982   9.554  2.6206  0.2034  0.5210
30622TIP3   OH292747  10.206   0.423   7.120  0.5053  0.4190  0.7716
30622TIP3    H192748  10.287   0.465   7.149 -0.3640  2.5146  0.3336
30622TIP3    H292749  10.217   0.412   7.025 -0.2012  1.9515  0.4800
30623TIP3   OH292750   5.867   4.589   7.794 -0.5902 -0.3589 -0.0932
30623TIP3    H192751   5.914   4.662   7.753  0.9277 -1.1759  0.1187
30623TIP3    H292752   5.934   4.523   7.810 -1.8448 -1.6402  0.1319
30624TIP3   OH292753   8.201   5.655   3.206 -0.1984  0.1194  0.5412
30624TIP3    H192754   8.117   5.700   3.211 -0.4500 -0.4407  2.9313
30624TIP3    H292755   8.245   5.680   3.288  1.6346 -0.2298 -0.2954
30625TIP3   OH292756   9.800   6.540   7.066  0.4130 -0.5260 -0.1507
30625TIP3    H192757   9.875   6.598   7.053 -0.6348  1.2267  1.1493
30625TIP3    H292758   9.827   6.479   7.135  0.6375  0.1618  0.3779
30626TIP3   OH292759   5.295   6.257   3.818  0.0649 -0.2643 -0.4773
30626TIP3    H192760   5.374   6.292   3.859 -0.4546  0.8521 -0.4136
30626TIP3    H292761   5.227   6.267   3.884 -0.3006 -0.5337 -0.8083
30627TIP3   OH292762   4.303   1.535   7.496  0.5425  0.5804 -0.8389
30627TIP3    H192763   4.290   1.453   7.449  2.6971 -0.8755  0.8859
30627TIP3    H292764   4.362   1.585   7.441  1.3315 -0.1889 -0.7136
30628TIP3   OH292765  10.463   3.741   7.773  0.7776  0.7379 -0.2177
30628TIP3    H192766  10.436   3.735   7.865  1.5963  0.3489  0.0157
30628TIP3    H292767  10.542   3.796   7.776 -0.7753  3.1341 -1.0542
30629TIP3   OH292768   0.527   7.098   4.826  0.5167  0.7151  0.4165
30629TIP3    H192769   0.588   7.060   4.762 -1.7705 -0.0014 -1.4633
30629TIP3    H292770   0.513   7.027   4.889 -1.5666 -0.7497 -1.5304
30630TIP3   OH292771   8.184   4.983   9.670  0.4247  0.1176  0.2541
30630TIP3    H192772   8.214   4.914   9.729  0.6434  0.8336  1.0168
30630TIP3    H292773   8.140   4.938   9.599  2.1868 -0.9131 -0.2356
30631TIP3   OH292774   4.798   7.871   1.915  0.3352  0.3211 -0.4842
30631TIP3    H192775   4.804   7.793   1.970 -2.8620  0.2397 -0.0913
30631TIP3    H292776   4.766   7.839   1.831 -2.3440  1.2161  0.0805
30632TIP3   OH292777   3.290   1.449   6.882 -0.1192  0.1242  0.2083
30632TIP3    H192778   3.313   1.392   6.809  0.3873  0.8065 -0.1763
30632TIP3    H292779   3.280   1.536   6.843 -1.8599  0.1379  0.6265
30633TIP3   OH292780   9.642   0.977   7.833  0.4397 -0.5793 -0.1064
30633TIP3    H192781   9.608   1.057   7.873 -1.4427 -1.7259  0.7059
30633TIP3    H292782   9.635   0.911   7.902  1.1499 -1.6443 -1.0218
30634TIP3   OH292783   4.830   4.443   3.490  0.4400 -0.1751 -0.6559
30634TIP3    H192784   4.749   4.397   3.468 -0.1722  0.8865 -0.6945
30634TIP3    H292785   4.857   4.407   3.574  0.0126 -0.6414 -0.7144
30635TIP3   OH292786  10.132   5.525   0.152  0.1499 -0.2933 -0.5126
30635TIP3    H192787  10.141   5.578   0.232 -0.1429  0.6800 -1.1135
30635TIP3    H292788  10.038   5.509   0.144  0.0038  0.9459 -1.4965
30636TIP3   OH292789   2.054   9.976   4.231 -0.5710 -0.1975  0.5705
30636TIP3    H192790   2.146   9.975   4.203 -0.4482  0.3401  0.9261
30636TIP3    H292791   2.042   9.893   4.277 -0.2949 -0.3256  0.4145
30637TIP3   OH292792   9.627   1.504   2.639  0.1522 -0.7735 -0.4535
30637TIP3    H192793   9.677   1.462   2.569 -2.3780 -1.0086 -2.2642
30637TIP3    H292794   9.595   1.432   2.692  0.9397 -0.6804  0.1637
30638TIP3   OH292795   6.843   9.841   9.525  0.1357 -0.0496 -0.5145
30638TIP3    H192796   6.785   9.782   9.575  1.3575 -1.3556 -0.5746
30638TIP3    H292797   6.903   9.782   9.479  2.0630  1.2714  0.1869
30639TIP3   OH292798   1.294   7.285   0.666  0.7270  0.6534 -0.4704
30639TIP3    H192799   1.375   7.314   0.709 -0.0770  0.6012  1.1497
30639TIP3    H292800   1.321   7.207   0.616  1.3058 -0.7315  1.8339
30640TIP3   OH292801   0.965   4.642   6.076 -0.2097  0.1975 -0.1672
30640TIP3    H192802   1.059   4.638   6.059 -0.3686  2.5554 -2.1991
30640TIP3    H292803   0.953   4.727   6.120 -1.7300  1.9279 -3.5797
30641TIP3   OH292804   5.188   4.063   3.140 -0.7130 -0.1304 -0.0587
30641TIP3    H192805   5.189   3.976   3.179 -1.8808 -0.7938 -1.4157
30641TIP3    H292806   5.279   4.079   3.115 -0.5335 -1.1011 -0.0650
30642TIP3   OH292807   6.721   9.364   6.080 -0.4935 -0.3892  0.5559
30642TIP3    H192808   6.676   9.448   6.069 -0.6364 -0.5085  0.2388
30642TIP3    H292809   6.787   9.381   6.147 -0.8695 -0.1578  0.8709
30643TIP3   OH292810   1.369   4.425   2.799  0.4702  0.2361 -0.6690
30643TIP3    H192811   1.421   4.505   2.793 -0.4009  0.7039 -3.6711
30643TIP3    H292812   1.293   4.450   2.853  1.3205  0.7268  0.3360
30644TIP3   OH292813   7.768   9.500   3.100 -0.6286  0.1234  0.7334
30644TIP3    H192814   7.828   9.429   3.076 -0.5904  0.2831  0.3474
30644TIP3    H292815   7.737   9.535   3.016 -1.3124  0.0023  0.9300
30645TIP3   OH292816   9.400   1.172   7.255  0.3398  0.0159  0.0166
30645TIP3    H192817   9.476   1.180   7.314  0.1010 -0.3792  0.3852
30645TIP3    H292818   9.435   1.190   7.168  0.9045 -0.3860  0.1575
30646TIP3   OH292819   8.663   4.514   7.009  0.0358  0.7746  0.0604
30646TIP3    H192820   8.630   4.586   6.956  0.6863  1.4854  0.5936
30646TIP3    H292821   8.591   4.451   7.011  0.0362  0.6637 -1.7397
30647TIP3   OH292822   0.587   6.357   4.000  0.3315 -0.5673 -0.4858
30647TIP3    H192823   0.533   6.390   3.929  1.2603 -0.2973 -1.0849
30647TIP3    H292824   0.533   6.291   4.043 -0.8585  0.4199 -0.4165
30648TIP3   OH292825   9.209   6.209   1.292  0.3557  0.2488 -0.0898
30648TIP3    H192826   9.160   6.126   1.282  1.1254 -0.0779 -1.3638
30648TIP3    H292827   9.158   6.272   1.242  0.9136  0.0354 -0.9471
30649TIP3   OH292828   9.305   9.995   9.049  0.5111  0.4220  0.0309
30649TIP3    H192829   9.325   9.991   9.143 -1.8134 -0.2004  0.5440
30649TIP3    H292830   9.210  10.000   9.045  0.5452  0.0161 -2.3344
30650TIP3   OH292831   1.749   4.353   9.340 -0.0739 -0.0594  0.4266
30650TIP3    H192832   1.758   4.259   9.356  0.5283 -0.6755 -2.8779
30650TIP3    H292833   1.838   4.387   9.341 -0.1385  0.1389 -0.0089
30651TIP3   OH292834   8.390   2.416  10.399 -0.5783 -0.0202 -0.0336
30651TIP3    H192835   8.367   2.435  10.308 -2.2528  2.8532  0.8571
30651TIP3    H292836   8.479   2.449  10.409 -0.6529  0.3277 -0.4828
30652TIP3   OH292837   9.983  10.361   5.820  0.5155  0.8642 -0.8655
30652TIP3    H192838   9.894  10.392   5.803 -0.4286 -0.6602  0.9167
30652TIP3    H292839   9.979  10.267   5.806  1.4849  0.5870  0.5239
30653TIP3   OH292840   1.716   8.757   9.863  0.9074 -0.3732 -0.4445
30653TIP3    H192841   1.746   8.820   9.928 -1.1497 -0.6620  0.9028
30653TIP3    H292842   1.723   8.803   9.780  0.9171  1.0795  0.3268
30654TIP3   OH292843   1.994   1.945   5.623 -0.1917 -0.7391 -0.4427
30654TIP3    H192844   1.965   1.977   5.538 -0.4142  1.2880  0.3412
30654TIP3    H292845   1.916   1.952   5.679 -0.4538 -3.3511 -0.3288
30655TIP3   OH292846   6.270   9.710   1.179  0.0064  0.7476  0.3037
30655TIP3    H192847   6.349   9.661   1.202 -1.7244 -2.1777  0.4078
30655TIP3    H292848   6.227   9.729   1.262 -1.3246 -1.1933  0.1207
30656TIP3   OH292849   8.406   8.349   4.287 -0.1337  0.1833 -0.2211
30656TIP3    H192850   8.325   8.396   4.271 -0.8810 -0.2724  1.8835
30656TIP3    H292851   8.462   8.412   4.332  0.6618  0.4511 -1.5353
30657TIP3   OH292852   2.932   0.235   6.137  0.2835 -0.0287 -0.1066
30657TIP3    H192853   2.887   0.253   6.220  0.2257  0.6166 -0.2673
30657TIP3    H292854   2.969   0.147   6.148 -0.5303 -0.3338  0.2356
30658TIP3   OH292855   7.647   3.656   8.058  0.2202 -0.3745  0.2576
30658TIP3    H192856   7.593   3.586   8.096 -1.9195 -0.3753 -2.4706
30658TIP3    H292857   7.614   3.736   8.098  0.8825 -0.6746  1.4442
30659TIP3   OH292858   2.645   4.683   5.131 -0.0346  0.6487 -0.0998
30659TIP3    H192859   2.659   4.753   5.195  0.5754  0.4594 -0.0200
30659TIP3    H292860   2.577   4.629   5.170 -1.5375  1.9534 -0.7936
30660TIP3   OH292861   6.501   0.720   9.030  0.0055 -0.7403  0.9230
30660TIP3    H192862   6.478   0.763   8.948 -1.8299  0.3212  1.9552
30660TIP3    H292863   6.478   0.628   9.016  1.5375 -0.9805 -0.3799
30661TIP3   OH292864   3.596   7.443   9.266 -0.4924  0.2372  0.2006
30661TIP3    H192865   3.671   7.409   9.216 -1.3373 -0.5054 -0.6050
30661TIP3    H292866   3.562   7.513   9.211 -1.1628 -0.2909 -0.0658
30662TIP3   OH292867   5.751  10.709   1.859  0.4293  0.0272 -0.5772
30662TIP3    H192868   5.829  10.762   1.873  0.7642 -0.7438  0.7219
30662TIP3    H292869   5.776  10.622   1.892 -0.7040 -0.4352 -0.9116
30663TIP3   OH292870   5.945   8.318   5.419  0.3281 -0.0222 -0.1266
30663TIP3    H192871   6.001   8.355   5.488 -0.1280  0.1751  0.1389
30663TIP3    H292872   5.980   8.230   5.405  0.5073 -0.0155  0.2590
30664TIP3   OH292873  10.585   8.258  10.757  0.7648 -0.2933  0.0341
30664TIP3    H192874  10.538   8.237  10.838 -0.3928 -0.5378 -0.6651
30664TIP3    H292875  10.669   8.292  10.786  1.2842 -2.4424  1.3093
30665TIP3   OH292876   9.580   2.988   8.323 -0.0068  0.3038  0.2599
30665TIP3    H192877   9.670   3.009   8.348 -0.3448  0.7793  1.1343
30665TIP3    H292878   9.529   3.063   8.354 -0.5854  0.4538 -1.0191
30666TIP3   OH292879   0.542   6.749   2.297 -0.3370 -0.1174  0.1317
30666TIP3    H192880   0.552   6.844   2.289  0.0869 -0.2526 -1.1884
30666TIP3    H292881   0.632   6.716   2.295 -0.5299 -0.7260 -2.5532
30667TIP3   OH292882   7.709  10.233   8.976  0.8220  0.1679  0.0386
30667TIP3    H192883   7.670  10.267   8.895 -0.5903  0.3336  0.7585
30667TIP3    H292884   7.656  10.271   9.046 -0.1469 -2.6177  0.9328
30668TIP3   OH292885   4.523   8.165   3.788  0.2483 -0.6878 -0.1392
30668TIP3    H192886   4.539   8.201   3.875  0.5404 -0.3179 -0.3457
30668TIP3    H292887   4.599   8.190   3.736 -0.2225 -0.3304 -0.6804
30669TIP3   OH292888   4.100   4.981   4.649 -0.6789 -0.0255 -0.0797
30669TIP3    H192889   4.071   4.903   4.601  1.7058 -1.0102 -0.0543
30669TIP3    H292890   4.164   4.948   4.711 -2.3499  1.4787  2.6376
30670TIP3   OH292891   3.497   0.461   1.979  0.0976  0.3047  0.4223
30670TIP3    H192892   3.401   0.463   1.972  0.1129 -1.2149 -0.5709
30670TIP3    H292893   3.526   0.415   1.900  1.4917 -1.7961  2.0716
30671TIP3   OH292894  10.541  10.561  10.095  0.0486  0.4104 -0.2423
30671TIP3    H192895  10.447  10.577  10.091  0.1321  0.8574 -0.5667
30671TIP3    H292896  10.577  10.612  10.023  0.4816 -0.2159 -0.4748
30672TIP3   OH292897   7.052   2.802   1.872 -0.1551  0.0457  0.3119
30672TIP3    H192898   7.135   2.846   1.852 -0.3917  0.6071  0.5496
30672TIP3    H292899   6.997   2.819   1.795  0.1682 -0.8987 -0.1456
30673TIP3   OH292900   9.407  10.553   1.331  0.0496 -0.1432 -0.1611
30673TIP3    H192901   9.489  10.589   1.296  0.2143 -0.9944 -0.6845
30673TIP3    H292902   9.359  10.630   1.363  0.0742  0.6337 -1.8781
30674TIP3   OH292903   2.263   4.486   4.052 -0.4145  0.6412 -0.5454
30674TIP3    H192904   2.353   4.453   4.049 -0.5182  0.3592 -0.6508
30674TIP3    H292905   2.209   4.407   4.045 -0.6720  0.7685 -0.0353
30675TIP3   OH292906   1.155   0.285   1.504 -0.3674  0.0090 -0.1920
30675TIP3    H192907   1.061   0.277   1.487 -0.2702  1.0510 -1.3954
30675TIP3    H292908   1.196   0.231   1.436 -0.0884 -1.9401  1.4212
30676TIP3   OH292909  10.907   7.629   2.957 -0.3508 -0.2708  0.3320
30676TIP3    H192910  10.965   7.705   2.955  2.0806 -1.8438  2.9503
30676TIP3    H292911  10.939   7.572   2.888 -0.1351 -0.2190  0.3881
30677TIP3   OH292912   7.129   7.603   8.356 -0.3370 -0.1667  0.0651
30677TIP3    H192913   7.155   7.574   8.444 -0.7387 -0.2276  0.1686
30677TIP3    H292914   7.190   7.673   8.334 -0.3029 -0.0758  0.4419
30678TIP3   OH292915   4.616   0.940   3.982  0.0240  0.5411  0.0256
30678TIP3    H192916   4.609   1.028   3.944 -0.7670  0.5433  0.1525
30678TIP3    H292917   4.644   0.955   4.072  0.0079  0.6582  0.0119
30679TIP3   OH292918   2.186   1.163   1.755  0.6255  0.0368  0.4303
30679TIP3    H192919   2.228   1.239   1.795  2.8584 -0.4152 -0.9049
30679TIP3    H292920   2.141   1.197   1.678 -2.7857  0.7314  2.5055
30680TIP3   OH292921   8.514   9.592  10.603  0.2262 -0.0779 -0.5955
30680TIP3    H192922   8.461   9.513  10.599  0.0744  0.0035 -0.2533
30680TIP3    H292923   8.463   9.658  10.557  0.2023 -0.0948 -0.5926
30681TIP3   OH292924  10.272   7.606   3.889 -0.0693  0.9525  0.7798
30681TIP3    H192925  10.275   7.510   3.883  1.3941  1.0658 -1.9266
30681TIP3    H292926  10.301   7.625   3.978  0.1803 -1.1169  1.1949
30682TIP3   OH292927   3.004  10.796   0.927 -0.0669  0.7508 -0.3255
30682TIP3    H192928   3.091  10.767   0.900 -0.5136 -0.0635 -0.9329
30682TIP3    H292929   2.978  10.733   0.995 -0.6171  0.3331 -0.9128
30683TIP3   OH292930   6.512   1.090  10.836  0.3013  0.1975  0.0165
30683TIP3    H192931   6.451   1.116  10.905 -0.1224  1.5562 -0.8471
30683TIP3    H292932   6.543   1.004  10.864 -1.3909 -0.1781  0.8845
30684TIP3   OH292933   2.222   4.313  10.791  0.7429  0.5359 -0.0611
30684TIP3    H192934   2.188   4.248  10.730 -0.1745  1.8330 -0.9832
30684TIP3    H292935   2.308   4.280  10.817  0.7103 -0.5480 -1.2553
30685TIP3   OH292936   1.690   9.988   7.321 -0.2345  0.0093  0.0420
30685TIP3    H192937   1.622  10.024   7.378  1.3609 -1.6150  3.2860
30685TIP3    H292938   1.683   9.893   7.331  2.4078 -0.2306  0.5359
30686TIP3   OH292939   5.528   7.938   9.504 -0.0693 -0.6200 -0.4374
30686TIP3    H192940   5.616   7.970   9.522 -0.9537  2.7320 -1.3717
30686TIP3    H292941   5.481   8.015   9.471 -2.9648 -2.6134 -1.3156
30687TIP3   OH292942   7.761   6.184   9.709 -0.2973 -0.4631 -0.5232
30687TIP3    H192943   7.801   6.206   9.625  0.1574  0.1644 -0.1439
30687TIP3    H292944   7.667   6.179   9.690 -0.1933 -0.3415 -1.0689
30688TIP3   OH292945   7.877   4.397   1.693 -0.0764 -0.6727 -0.1591
30688TIP3    H192946   7.956   4.383   1.641 -0.5023 -1.9614 -0.4964
30688TIP3    H292947   7.843   4.481   1.662  0.0989 -1.0422 -1.4218
30689TIP3   OH292948   8.804   9.360   5.088 -0.6535 -0.5065 -0.5904
30689TIP3    H192949   8.818   9.270   5.060  0.7125 -0.3066 -0.6192
30689TIP3    H292950   8.858   9.412   5.028  1.8845 -0.0037  1.8964
30690TIP3   OH292951   9.103  10.225   7.153  0.4810 -0.6340  0.3357
30690TIP3    H192952   9.047  10.266   7.219 -0.6094  0.0406 -0.9461
30690TIP3    H292953   9.168  10.175   7.203  0.7931  1.2658  1.9344
30691TIP3   OH292954   0.202   2.748   0.851 -0.1269  0.1386 -0.0975
30691TIP3    H192955   0.255   2.698   0.789  0.7656  1.1645 -0.1890
30691TIP3    H292956   0.265   2.786   0.912 -0.5562  2.6295 -1.0821
30692TIP3   OH292957   7.079   6.360   2.749  0.1901 -0.4597  0.1724
30692TIP3    H192958   7.099   6.418   2.675 -1.8943 -0.8661 -0.7758
30692TIP3    H292959   7.163   6.320   2.771  0.8240 -0.6781 -2.3098
30693TIP3   OH292960   3.746   4.997   6.239 -0.5345  0.7034 -0.4183
30693TIP3    H192961   3.654   4.971   6.246 -0.0953 -0.8555  0.0059
30693TIP3    H292962   3.755   5.070   6.300 -1.3072  0.3233  0.1697
30694TIP3   OH292963   9.423   8.000   1.096 -0.6403  0.1059  0.8834
30694TIP3    H192964   9.508   8.035   1.070 -0.2230  0.4684  2.6091
30694TIP3    H292965   9.361   8.041   1.035  0.3871 -0.0698 -0.3157
30695TIP3   OH292966   8.049   7.694   4.298 -0.0402  0.1720  0.0514
30695TIP3    H192967   8.125   7.644   4.329 -0.1073  0.9014  1.4230
30695TIP3    H292968   8.039   7.667   4.206  1.9038  0.1096 -0.1758
30696TIP3   OH292969  10.330   2.425   8.812  0.1310 -0.1152 -0.2528
30696TIP3    H192970  10.398   2.411   8.746 -1.5370  2.1317 -2.6744
30696TIP3    H292971  10.370   2.485   8.876  0.3933  1.4824 -1.8370
30697TIP3   OH292972   4.268   8.902   1.011  0.0400 -0.0054  0.0019
30697TIP3    H192973   4.273   8.871   1.101 -1.3435  0.8213  0.3825
30697TIP3    H292974   4.306   8.990   1.013 -2.1044  0.9576  0.2788
30698TIP3   OH292975   1.698   7.849   3.606  0.3538  0.9591 -0.5653
30698TIP3    H192976   1.633   7.870   3.673  0.0484 -1.8789  0.1363
30698TIP3    H292977   1.735   7.934   3.582  0.8771  2.1387  3.5634
30699TIP3   OH292978   3.555   6.926   7.699  0.2742  0.2800  0.4210
30699TIP3    H192979   3.555   7.001   7.759 -1.8854  2.3062 -1.8996
30699TIP3    H292980   3.475   6.878   7.719  0.7101 -0.3667  0.6511
30700TIP3   OH292981   3.678   2.445   2.666 -0.4578  0.0996  0.7096
30700TIP3    H192982   3.676   2.366   2.612  0.1181 -0.7868  1.9304
30700TIP3    H292983   3.592   2.449   2.707 -0.8189  0.6518 -0.0788
30701TIP3   OH292984   8.032   1.608   0.071  0.6904 -0.3179 -0.5140
30701TIP3    H192985   8.043   1.632  -0.021  1.6431 -1.0509 -0.6046
30701TIP3    H292986   7.940   1.580   0.077 -0.1933  2.2710 -0.6080
30702TIP3   OH292987   5.870   3.929   5.792  0.2447  0.3037  0.4165
30702TIP3    H192988   5.804   3.997   5.776  0.4779  0.7399  1.2730
30702TIP3    H292989   5.820   3.848   5.797 -0.0268  0.3795 -0.7163
30703TIP3   OH292990   6.852   2.708   9.270 -0.2538 -0.3028  0.0497
30703TIP3    H192991   6.857   2.803   9.277 -0.0657 -0.2059 -1.1885
30703TIP3    H292992   6.764   2.686   9.301  0.0007  0.1770  1.1544
30704TIP3   OH292993   7.572   7.921   3.652  0.1516  0.8636  0.1099
30704TIP3    H192994   7.507   7.865   3.609  0.3455 -0.0404  0.9560
30704TIP3    H292995   7.624   7.957   3.581 -0.4315  0.5283 -0.4945
30705TIP3   OH292996   0.203   9.728   0.180  0.7130 -0.2369 -0.1974
30705TIP3    H192997   0.298   9.717   0.186  0.6718  0.1604  1.6226
30705TIP3    H292998   0.167   9.654   0.228  0.1799  0.7654  1.0148
30706TIP3   OH292999   6.682   1.543   6.165  0.1659 -0.2192 -0.5429
30706TIP3    H193000   6.701   1.629   6.203 -2.9057  0.2523  0.1949
30706TIP3    H293001   6.658   1.489   6.241 -0.2824 -1.0095 -1.2368
30707TIP3   OH293002   5.053   4.940   1.101 -0.1065  0.1227 -0.0482
30707TIP3    H193003   5.114   5.013   1.097 -1.5257  1.3430 -0.4066
30707TIP3    H293004   5.102   4.865   1.068  1.4664  0.8460  0.5691
30708TIP3   OH293005   1.704   9.462   9.929 -0.2232 -0.4236  0.0442
30708TIP3    H193006   1.696   9.539   9.985  0.6969 -1.1454  1.2046
30708TIP3    H293007   1.790   9.426   9.949 -1.3469 -2.8228  0.9204
30709TIP3   OH293008   7.252  10.780   7.214 -0.1741  0.1762  0.2051
30709TIP3    H193009   7.219  10.705   7.166  2.6984 -1.7384  0.9708
30709TIP3    H293010   7.314  10.822   7.154 -0.2675  0.7488  0.4989
30710TIP3   OH293011   1.745   3.884   3.664 -0.5264 -0.0574  0.9024
30710TIP3    H193012   1.659   3.920   3.643 -0.3925 -0.0803  0.2985
30710TIP3    H293013   1.731   3.790   3.671 -1.0058  0.1281  3.1151
30711TIP3   OH293014   5.210   4.963   5.058 -0.1621 -0.2124 -0.1166
30711TIP3    H193015   5.117   4.968   5.082 -0.0345  0.2715  0.2870
30711TIP3    H293016   5.254   4.946   5.142  0.0999 -0.5995 -0.3323
30712TIP3   OH293017   6.182   5.884   5.975  0.1585 -0.1083  0.3540
30712TIP3    H193018   6.239   5.962   5.979 -0.7154  0.6887 -1.6669
30712TIP3    H293019   6.238   5.815   5.941  0.5801 -0.0276  0.8632
30713TIP3   OH293020  10.190   9.597   1.782  0.1151 -0.3236 -0.2164
30713TIP3    H193021  10.206   9.663   1.715  2.3544  0.4296  0.9444
30713TIP3    H293022  10.123   9.539   1.744  0.2056  0.9220 -2.4342
30714TIP3   OH293023   5.418  10.155   3.290 -0.3250 -0.4277 -0.1583
30714TIP3    H193024   5.440  10.069   3.254  0.7764 -0.4781  0.5822
30714TIP3    H293025   5.478  10.166   3.364 -2.3409 -0.2341  1.5404
30715TIP3   OH293026   2.131   8.171   0.339 -0.1843 -0.3899 -0.3009
30715TIP3    H193027   2.199   8.108   0.314 -1.8463 -1.7970 -1.4998
30715TIP3    H293028   2.060   8.156   0.276 -0.5698  2.9073 -0.8026
30716TIP3   OH293029   9.563   6.096   6.638  0.6026  0.1409  0.2277
30716TIP3    H193030   9.622   6.021   6.642 -2.2109 -2.2524  0.4802
30716TIP3    H293031   9.508   6.079   6.561 -1.8187  0.4829  1.7700
30717TIP3   OH293032   6.829   0.051   6.801 -0.1656  0.6420  0.1819
30717TIP3    H193033   6.822   0.052   6.897 -0.5881 -1.1667  0.2020
30717TIP3    H293034   6.918   0.019   6.785 -0.0020  1.2031 -0.0399
30718TIP3   OH293035   5.919   7.917   9.072 -0.7499 -0.7147 -0.1602
30718TIP3    H193036   5.874   7.998   9.096  0.5496 -0.3300  1.1507
30718TIP3    H293037   5.874   7.849   9.123 -0.9196 -0.5883 -0.1405
30719TIP3   OH293038   4.144   3.350   7.164  0.1756  0.4579 -0.3867
30719TIP3    H193039   4.091   3.302   7.101  0.1439  0.8912 -0.6938
30719TIP3    H293040   4.176   3.283   7.225 -0.5306  0.1608 -0.3312
30720TIP3   OH293041   3.953   1.255   8.606  0.3305  0.1322  0.0495
30720TIP3    H193042   4.046   1.273   8.617  0.1880  1.0134 -0.1224
30720TIP3    H293043   3.937   1.176   8.658  1.1561  0.0146  0.1309
30721TIP3   OH293044   4.709   6.360   5.150  0.4962 -0.4483  0.1618
30721TIP3    H193045   4.682   6.365   5.058 -1.9660 -1.1166  0.7784
30721TIP3    H293046   4.726   6.451   5.175 -1.9668  0.1672 -0.1483
30722TIP3   OH293047   6.301  10.191   4.372 -0.6409 -1.0510 -0.1848
30722TIP3    H193048   6.385  10.227   4.343 -0.7956 -1.2513 -0.9162
30722TIP3    H293049   6.238  10.260   4.354 -0.6082 -0.8296  0.5420
30723TIP3   OH293050   6.176   6.155   7.066 -0.6456 -0.2809 -0.0800
30723TIP3    H193051   6.137   6.163   7.152  1.6303 -1.1194  1.1299
30723TIP3    H293052   6.230   6.234   7.056  2.8413 -2.2377  1.4557
30724TIP3   OH293053   0.972   2.193  10.635 -0.1833 -0.0677  0.1145
30724TIP3    H193054   0.899   2.173  10.694 -1.3428  0.6364 -1.0491
30724TIP3    H293055   1.037   2.235  10.692 -1.1472  0.3390  0.9570
30725TIP3   OH293056   8.622   6.501   3.681 -0.2416  0.2908  0.0120
30725TIP3    H193057   8.627   6.558   3.604  0.8728  0.4046  0.1489
30725TIP3    H293058   8.696   6.441   3.671 -0.3010  0.0720  0.8101
30726TIP3   OH293059   0.996   5.854   0.487  0.6868  0.2071 -0.2645
30726TIP3    H193060   1.034   5.941   0.497  4.1195 -1.1200 -0.3725
30726TIP3    H293061   0.944   5.841   0.566  1.9007  1.5591  0.8249
30727TIP3   OH293062   2.122   1.318   1.553  0.4466  0.0625  0.0006
30727TIP3    H193063   2.054   1.378   1.585 -0.0536 -0.8978  0.7643
30727TIP3    H293064   2.203   1.352   1.592  0.1455  0.1563  0.5517
30728TIP3   OH293065   4.199   9.819   4.370 -0.2811 -0.0690 -0.5542
30728TIP3    H193066   4.286   9.856   4.357  0.4092 -1.6635 -0.7679
30728TIP3    H293067   4.184   9.766   4.291 -2.0181  1.1769 -1.1347
30729TIP3   OH293068   5.567   0.802   9.598 -0.2018  0.0097  0.1764
30729TIP3    H193069   5.644   0.756   9.563  0.0845  0.2641  0.4688
30729TIP3    H293070   5.536   0.855   9.525  0.3938  0.5383  0.3002
30730TIP3   OH293071   9.569   3.268   7.017 -0.7556  0.4625  1.0533
30730TIP3    H193072   9.481   3.300   7.034 -0.9440  0.1181  0.7394
30730TIP3    H293073   9.577   3.271   6.921 -1.1155 -1.3017  0.9344
30731TIP3   OH293074   5.986  10.333   3.136  0.3271  0.0778 -0.2082
30731TIP3    H193075   5.955  10.258   3.186 -0.5218 -0.0354 -0.8898
30731TIP3    H293076   5.961  10.409   3.190 -1.5332  0.0157 -0.8984
30732TIP3   OH293077   0.713   8.741   9.682 -0.3659 -0.2015  0.2655
30732TIP3    H193078   0.699   8.649   9.705 -3.1698 -0.2440 -1.2297
30732TIP3    H293079   0.776   8.738   9.610  0.1258 -0.8682  0.7071
30733TIP3   OH293080   7.830   7.011   8.388  0.4624  0.2803 -0.1909
30733TIP3    H193081   7.921   6.984   8.391  1.0451  1.9628 -1.2650
30733TIP3    H293082   7.832   7.107   8.394 -1.0786  0.4873 -1.9373
30734TIP3   OH293083   2.993   4.444   1.541 -0.2215 -0.2664 -0.0273
30734TIP3    H193084   2.972   4.443   1.635 -0.1952  1.6393  0.0476
30734TIP3    H293085   2.951   4.366   1.506 -1.5621 -0.2009  1.3143
30735TIP3   OH293086   6.041   1.652   4.577  0.0377  0.3477  0.7721
30735TIP3    H193087   6.000   1.569   4.600 -3.0109  1.9949  1.8488
30735TIP3    H293088   6.033   1.657   4.481 -1.1545  0.0283  0.8356
30736TIP3   OH293089   6.688  10.423   9.056 -0.0942  0.6500  0.3655
30736TIP3    H193090   6.713  10.354   8.995  1.1095  1.0269  0.4126
30736TIP3    H293091   6.599  10.447   9.030 -0.6494 -1.0910  0.5179
30737TIP3   OH293092   4.006   4.784   5.687  0.0266  0.1348  0.6748
30737TIP3    H193093   4.044   4.765   5.773 -1.2126 -0.5492  1.0837
30737TIP3    H293094   4.023   4.878   5.674  3.2291 -0.3990  0.1193
30738TIP3   OH293095   4.154   4.138   7.095  0.0236 -0.2073 -0.7249
30738TIP3    H193096   4.217   4.185   7.150 -2.1015  0.6215  1.1149
30738TIP3    H293097   4.172   4.046   7.112 -0.5184  0.0267  1.3566
30739TIP3   OH293098   8.079   4.416   4.861  0.2846  0.3264  0.0963
30739TIP3    H193099   8.042   4.493   4.818  0.8780  0.3049 -0.4726
30739TIP3    H293100   8.138   4.452   4.927  2.4312  0.4473 -1.7448
30740TIP3   OH293101   9.414   3.402   7.530  0.2332 -0.2306 -0.2224
30740TIP3    H193102   9.383   3.438   7.446 -2.4603 -0.0225  0.7680
30740TIP3    H293103   9.470   3.328   7.505  0.3761  0.4750 -2.1977
30741TIP3   OH293104   3.910   6.689   7.699  0.4350 -0.1879  0.0712
30741TIP3    H193105   3.877   6.717   7.613 -2.0102 -0.4532  0.8453
30741TIP3    H293106   3.946   6.769   7.738  2.0393 -0.1644 -1.3398
30742TIP3   OH293107   1.933   2.386   9.176 -0.1182 -0.3276 -0.3486
30742TIP3    H193108   1.999   2.362   9.112 -1.3004 -1.3124 -1.2538
30742TIP3    H293109   1.939   2.319   9.244  1.1068  0.6930  0.5934
30743TIP3   OH293110   4.907   1.413   4.029  0.2121 -0.7787 -0.6548
30743TIP3    H193111   4.884   1.483   4.091  0.7938 -2.1005  1.1388
30743TIP3    H293112   4.847   1.426   3.955  0.6330  1.8853 -0.6295
30744TIP3   OH293113   0.203   2.982   3.110 -1.0740  0.5053 -0.2819
30744TIP3    H193114   0.295   2.965   3.091 -0.8702  1.1993  0.0522
30744TIP3    H293115   0.155   2.924   3.051 -0.4312 -1.3734  0.9609
30745TIP3   OH293116   6.680   7.461   5.110  0.5864  0.1765 -0.1302
30745TIP3    H193117   6.607   7.401   5.127  0.6301 -0.0873 -0.8536
30745TIP3    H293118   6.733   7.458   5.191  0.6644 -0.8723 -0.2116
30746TIP3   OH293119   8.946   5.526   4.661  0.2214 -0.0430  0.2246
30746TIP3    H193120   8.856   5.497   4.647  0.1842 -1.1069  2.3011
30746TIP3    H293121   8.999   5.448   4.644  0.9042  0.7731 -1.7918
30747TIP3   OH293122   7.381  10.580   2.836  0.0479 -0.1633 -0.1540
30747TIP3    H193123   7.339  10.663   2.856 -0.2504 -0.5177  0.7290
30747TIP3    H293124   7.453  10.603   2.777  2.1164  1.2189  2.6866
30748TIP3   OH293125   8.763   3.912   6.961 -0.6512 -0.0254 -0.2644
30748TIP3    H193126   8.773   3.901   7.056 -0.2684 -1.5846 -0.4523
30748TIP3    H293127   8.792   4.001   6.944 -0.5808  0.2263  1.0671
30749TIP3   OH293128   3.011   7.952   3.412 -0.2909  0.4827  0.3229
30749TIP3    H193129   2.919   7.927   3.416  0.2780 -1.8986 -0.1221
30749TIP3    H293130   3.048   7.926   3.496  0.1030  1.0031  0.3214
30750TIP3   OH293131  10.227   4.519   0.851  0.6959 -0.3113 -0.2935
30750TIP3    H193132  10.220   4.520   0.756  0.2062 -2.7419 -0.3244
30750TIP3    H293133  10.137   4.510   0.883  0.8793  0.1857  0.4017
30751TIP3   OH293134   9.547  10.540   7.128 -0.1796  0.1753 -0.2149
30751TIP3    H193135   9.568  10.498   7.045 -0.8887  1.0453 -0.8572
30751TIP3    H293136   9.454  10.562   7.122 -1.0181 -2.2336  1.9467
30752TIP3   OH293137   6.140   7.061  10.256  0.0704 -0.1630  0.4411
30752TIP3    H193138   6.071   6.996  10.242 -0.4508  0.2893  0.8938
30752TIP3    H293139   6.094   7.144  10.263  0.4422 -0.1127  2.9209
30753TIP3   OH293140  10.847   1.297   4.172  0.1342  0.1201  0.1512
30753TIP3    H193141  10.821   1.354   4.244  0.3844  0.0795  0.2723
30753TIP3    H293142  10.798   1.216   4.188 -0.6701  0.4920 -0.3375
30754TIP3   OH293143   6.511   9.363  10.015 -0.0824 -0.2506 -0.1500
30754TIP3    H193144   6.576   9.372  10.085  0.1718  1.1798 -0.5444
30754TIP3    H293145   6.428   9.352  10.061  0.0830  0.6490  0.3993
30755TIP3   OH293146   0.202   7.096  10.196  0.3622 -0.2720 -0.0711
30755TIP3    H193147   0.131   7.080  10.134 -0.2651 -1.4001  0.9107
30755TIP3    H293148   0.163   7.150  10.264  0.5776 -0.4839  0.2212
30756TIP3   OH293149  10.609   4.062   7.572  0.2727 -0.1857  0.1847
30756TIP3    H193150  10.578   4.153   7.575 -0.1179 -0.2325 -1.5543
30756TIP3    H293151  10.660   4.052   7.652 -0.2157  1.3689  0.7318
30757TIP3   OH293152  10.852   8.514   3.240  0.0389 -0.6618 -0.6910
30757TIP3    H193153  10.861   8.599   3.282 -0.2544 -0.7210 -0.5083
30757TIP3    H293154  10.766   8.481   3.268  0.7128 -1.6225  0.3716
30758TIP3   OH293155   6.934   7.278   1.686  0.6141  0.1793  0.1150
30758TIP3    H193156   6.944   7.333   1.608 -1.9522  0.4541 -0.1262
30758TIP3    H293157   7.023   7.261   1.716  1.7443 -0.4408 -3.2003
30759TIP3   OH293158   2.684   9.408   0.987  0.1199  0.3617 -0.4911
30759TIP3    H193159   2.751   9.422   1.053 -0.1811 -1.7017  0.3296
30759TIP3    H293160   2.642   9.494   0.976  0.5067  0.8561  1.6223
30760TIP3   OH293161   7.464   6.222   5.343 -0.2693 -0.1390 -0.5179
30760TIP3    H193162   7.519   6.226   5.265 -0.7268 -1.2099 -0.9201
30760TIP3    H293163   7.512   6.164   5.403  0.7973  1.8262  0.6256
30761TIP3   OH293164   1.721   8.434   7.387 -0.1831  0.1058 -0.0086
30761TIP3    H193165   1.636   8.432   7.432 -0.8697 -1.3562 -1.2966
30761TIP3    H293166   1.735   8.344   7.357  1.5605  0.4459 -0.3380
30762TIP3   OH293167   8.797   3.147   5.280  0.3787  0.2164  0.2784
30762TIP3    H193168   8.735   3.125   5.350  0.9805 -0.2338  0.6821
30762TIP3    H293169   8.744   3.192   5.214  0.2166  3.0288  2.1494
30763TIP3   OH293170   5.618   8.407   3.587  0.6038 -0.1282 -0.5927
30763TIP3    H193171   5.559   8.474   3.552 -1.8913 -1.6500  0.4453
30763TIP3    H293172   5.588   8.325   3.546 -0.2023 -1.4302  2.3577
30764TIP3   OH293173   0.717   4.527   8.691  0.3586 -0.1459 -0.0159
30764TIP3    H193174   0.669   4.580   8.627  0.5370 -0.9837 -0.8591
30764TIP3    H293175   0.655   4.460   8.719  1.4162 -2.2657 -2.3356
30765TIP3   OH293176   4.100   7.058   7.445 -0.2412 -0.0779  0.2963
30765TIP3    H193177   4.053   7.030   7.367  0.0145 -0.5173  0.3000
30765TIP3    H293178   4.039   7.041   7.517 -0.5075  0.4006  0.1881
30766TIP3   OH293179   9.716   3.726   0.763  0.3195  0.4269  0.3331
30766TIP3    H193180   9.679   3.642   0.737 -1.8604  1.3021  0.3427
30766TIP3    H293181   9.761   3.709   0.845 -0.3816 -0.6732  0.5065
30767TIP3   OH293182   8.109   8.696   0.268 -0.2503  0.2967  0.2738
30767TIP3    H193183   8.162   8.763   0.225 -1.4789  1.4495  0.4817
30767TIP3    H293184   8.042   8.673   0.203  0.3778 -1.0373  0.0638
30768TIP3   OH293185   6.448   9.775   4.891 -0.3050 -0.2278  0.5558
30768TIP3    H193186   6.531   9.812   4.921 -0.5195 -0.0576  0.9547
30768TIP3    H293187   6.397   9.762   4.971 -0.8968  0.2508  0.2674
30769TIP3   OH293188  10.333   9.030   7.516 -0.3403  0.2101 -0.2408
30769TIP3    H193189  10.244   9.015   7.484 -1.0328 -1.9550  2.3313
30769TIP3    H293190  10.322   9.077   7.599  0.9921  0.6805 -0.2959
30770TIP3   OH293191   5.591   9.857   0.560 -0.1529  0.0443  0.2879
30770TIP3    H193192   5.662   9.893   0.614  0.3285  0.3660 -0.5404
30770TIP3    H293193   5.512   9.900   0.594  0.1358  0.2284  0.7485
30771TIP3   OH293194   0.949   0.329   2.123  0.0703  0.1947 -0.3131
30771TIP3    H193195   0.994   0.266   2.179 -0.2175 -0.0469 -0.3530
30771TIP3    H293196   1.015   0.396   2.105  0.8886 -0.8804 -1.5452
30772TIP3   OH293197   0.139   2.696   1.139 -0.5348 -0.7867  0.1134
30772TIP3    H193198   0.126   2.633   1.068 -1.0078 -0.3204 -0.2201
30772TIP3    H293199   0.207   2.755   1.106 -1.7779  0.3166 -0.5836
30773TIP3   OH293200   9.414   2.792   5.112  0.7666 -0.3241 -0.0306
30773TIP3    H193201   9.387   2.830   5.195  0.1614  0.8986 -0.7554
30773TIP3    H293202   9.399   2.698   5.122 -1.6606  0.0503  0.3980
30774TIP3   OH293203   0.809   3.504  10.785 -0.3542  0.4795  0.0474
30774TIP3    H193204   0.894   3.470  10.813 -1.0226  0.3871  2.1692
30774TIP3    H293205   0.751   3.486  10.859 -2.4592 -0.2544 -1.6685
30775TIP3   OH293206   2.014   0.276  10.585 -0.1469 -0.6784 -0.2297
30775TIP3    H193207   1.950   0.330  10.540 -0.0927 -0.4451 -0.0276
30775TIP3    H293208   2.080   0.337  10.618  1.3737 -1.0728 -2.2992
30776TIP3   OH293209   5.551   4.569   7.129  0.7191 -0.2301 -0.3007
30776TIP3    H193210   5.458   4.581   7.146  0.1806 -3.2773 -0.6291
30776TIP3    H293211   5.571   4.632   7.059 -0.7910  1.1843  0.4835
30777TIP3   OH293212  10.663   8.829   2.117 -0.2784 -0.4630 -0.5445
30777TIP3    H193213  10.585   8.865   2.157  0.3671  1.2736 -0.7854
30777TIP3    H293214  10.648   8.837   2.023 -1.0839 -3.0038 -0.7178
30778TIP3   OH293215   4.732   8.924   7.194 -0.0853 -0.7376 -0.2531
30778TIP3    H193216   4.748   9.007   7.238  0.1814 -1.2609  0.6750
30778TIP3    H293217   4.755   8.940   7.103  0.1695  0.1450 -0.0398
30779TIP3   OH293218   1.707   0.347   7.542  0.5487  0.6012 -0.2489
30779TIP3    H193219   1.673   0.338   7.453 -1.2726  1.7012  0.2835
30779TIP3    H293220   1.652   0.290   7.595 -0.4530  2.2767  0.6119
30780TIP3   OH293221   0.558   5.395   5.689 -0.2355 -0.3863  0.3088
30780TIP3    H193222   0.651   5.377   5.672  0.0463 -0.5211  1.8225
30780TIP3    H293223   0.514   5.372   5.608  1.3066  2.0935 -1.3728
30781TIP3   OH293224   9.177   0.095   4.248 -0.7014 -0.1706 -0.0401
30781TIP3    H193225   9.122   0.145   4.187  1.0357  1.6687 -0.1922
30781TIP3    H293226   9.181   0.008   4.209 -2.2129  0.0671 -0.8280
30782TIP3   OH293227   9.014   1.634   2.779  0.2261 -0.6245 -0.2427
30782TIP3    H193228   9.055   1.619   2.864  0.3764 -0.0764 -0.2107
30782TIP3    H293229   8.957   1.710   2.793  0.0687 -0.6815 -0.5677
30783TIP3   OH293230   7.605   3.957   1.538 -0.0575 -0.0252  0.7445
30783TIP3    H193231   7.573   4.031   1.487 -0.3802 -0.7244 -0.0927
30783TIP3    H293232   7.574   3.974   1.627  0.8155  1.3944  0.8182
30784TIP3   OH293233   7.928   7.090   4.466  0.2147  0.7084 -0.4565
30784TIP3    H193234   7.921   7.007   4.420 -1.6005  1.9594 -2.6470
30784TIP3    H293235   8.022   7.104   4.477  0.5979 -0.9295 -1.3503
30785TIP3   OH293236   9.731   7.130   4.156  0.0164  0.1619  0.4097
30785TIP3    H193237   9.772   7.211   4.185 -1.2315  0.8706  0.2633
30785TIP3    H293238   9.676   7.103   4.230  1.7925 -1.5840  1.1997
30786TIP3   OH293239   3.600   4.567   8.563  0.1452  0.1973  0.2891
30786TIP3    H193240   3.507   4.588   8.555  0.5654  2.4054  0.6854
30786TIP3    H293241   3.643   4.628   8.503  1.4465  0.3382  1.3273
30787TIP3   OH293242   7.712   1.392   7.313  0.1720  0.2543  0.3832
30787TIP3    H193243   7.765   1.472   7.309  0.5849 -0.0310 -0.1539
30787TIP3    H293244   7.774   1.322   7.290 -0.4674 -0.0704 -0.3868
30788TIP3   OH293245   2.774   7.029   3.820  0.9867  0.0008  0.8500
30788TIP3    H193246   2.706   7.005   3.757  0.8470  2.6969 -0.1633
30788TIP3    H293247   2.777   6.955   3.882 -1.2999 -1.1772 -0.3247
30789TIP3   OH293248   3.821   6.317   4.909 -0.4585 -0.6042 -0.1381
30789TIP3    H193249   3.857   6.404   4.897 -0.3625 -0.5486  0.4924
30789TIP3    H293250   3.875   6.278   4.977 -1.7096 -0.4327  1.0112
30790TIP3   OH293251  10.553   5.319   9.535 -0.6196  0.4783  0.0140
30790TIP3    H193252  10.462   5.304   9.558  0.1265 -2.1071  1.7175
30790TIP3    H293253  10.594   5.346   9.616  0.3772  0.2654 -0.4018
30791TIP3   OH293254   2.185   7.134   8.676  0.7615  0.2587  0.2462
30791TIP3    H193255   2.248   7.157   8.608  1.7787 -1.0513  0.7034
30791TIP3    H293256   2.217   7.180   8.754  0.5993  0.3729  0.2436
30792TIP3   OH293257   7.593   5.195   8.413  0.3157 -0.0097 -0.1852
30792TIP3    H193258   7.666   5.176   8.471 -0.5284 -0.7789  0.6720
30792TIP3    H293259   7.518   5.153   8.455 -0.5570  0.4802 -1.2038
30793TIP3   OH293260   1.473   4.408   8.144 -0.3624  0.2163  0.0345
30793TIP3    H193261   1.393   4.360   8.164 -1.3831  1.5332 -0.7613
30793TIP3    H293262   1.475   4.414   8.049  0.0800  1.1642  0.0875
30794TIP3   OH293263   3.128   2.926   4.036  0.1493  0.0852 -0.1811
30794TIP3    H193264   3.086   2.929   3.950 -1.1279  1.4591  0.4257
30794TIP3    H293265   3.218   2.953   4.020  0.3586 -1.1856 -1.2869
30795TIP3   OH293266   9.074   9.848  10.293 -0.4893  0.3056 -0.2310
30795TIP3    H193267   9.053   9.755  10.297 -1.7210  0.6304  1.8321
30795TIP3    H293268   9.017   9.882  10.223 -1.3454 -0.1750  0.2194
30796TIP3   OH293269   8.333   5.675   0.046  0.7079 -0.2773  0.1875
30796TIP3    H193270   8.257   5.650   0.099  0.2986 -0.0602 -0.2906
30796TIP3    H293271   8.405   5.682   0.109  0.1562  0.2853  0.7646
30797TIP3   OH293272   5.708   4.421   8.149  0.1064 -0.3580 -0.4188
30797TIP3    H193273   5.655   4.478   8.094  1.1211  1.0092 -0.0518
30797TIP3    H293274   5.740   4.479   8.218  1.9534 -1.1536 -0.5648
30798TIP3   OH293275   5.817   6.044   7.367  0.9153  0.4573  0.3604
30798TIP3    H193276   5.803   5.974   7.430  0.4568  1.9759  2.0391
30798TIP3    H293277   5.744   6.038   7.306  1.1804 -0.8255  0.1511
30799TIP3   OH293278   3.701   9.708   3.221 -0.1341  0.2242 -0.0061
30799TIP3    H193279   3.665   9.733   3.136  1.2968  0.8066 -0.4643
30799TIP3    H293280   3.771   9.771   3.237  0.2156 -0.4383  1.1853
30800TIP3   OH293281  10.019   1.576   6.592  0.0395  0.4603 -0.1722
30800TIP3    H193282  10.076   1.532   6.655 -1.8601 -1.6933  0.1364
30800TIP3    H293283   9.943   1.604   6.643  0.7480  3.4197 -0.5480
30801TIP3   OH293284   4.490   5.377   4.233 -0.6126 -0.4450 -0.2059
30801TIP3    H193285   4.505   5.452   4.174  1.0181 -1.0830 -0.6623
30801TIP3    H293286   4.567   5.322   4.221 -0.3016 -0.6895  2.4266
30802TIP3   OH293287   2.345   0.734   3.288  0.5736  0.0043  0.4087
30802TIP3    H193288   2.425   0.782   3.266  0.9176 -0.4106  0.7581
30802TIP3    H293289   2.336   0.744   3.383 -0.8694  1.7307  0.1495
30803TIP3   OH293290   8.627   7.093   7.508 -0.0629  0.4210  0.2972
30803TIP3    H193291   8.534   7.072   7.521 -0.1747 -0.3243 -1.4183
30803TIP3    H293292   8.666   7.083   7.595 -1.5719  0.6824  1.0341
30804TIP3   OH293293   6.979   9.653  10.237  0.5493 -0.1118 -0.2617
30804TIP3    H193294   6.911   9.658  10.304  0.0436 -0.1670 -0.7719
30804TIP3    H293295   7.060   9.638  10.287  0.4174  1.3746  0.4483
30805TIP3   OH293296   8.925   7.725   0.809 -0.1034 -0.5693  0.0451
30805TIP3    H193297   8.888   7.679   0.733 -3.3279 -0.8013  1.6122
30805TIP3    H293298   8.882   7.811   0.808  0.4341 -0.2763  1.1870
30806TIP3   OH293299   9.862   1.067   3.194  0.4926  0.2959  0.7474
30806TIP3    H193300   9.812   1.100   3.119 -0.0817 -0.5766  0.7249
30806TIP3    H293301   9.893   0.981   3.166  2.1972  0.8818  0.6945
30807TIP3   OH293302   2.473  10.887   0.441 -0.1155 -0.2342 -0.1744
30807TIP3    H193303   2.420  10.811   0.417 -0.1226 -0.1099 -0.5696
30807TIP3    H293304   2.455  10.951   0.372 -1.4262  0.7716  1.0594
30808TIP3   OH293305   7.396  10.198   6.172 -0.0902 -0.5624 -0.2884
30808TIP3    H193306   7.306  10.223   6.194 -0.3091 -1.3168 -0.3044
30808TIP3    H293307   7.400  10.206   6.076 -0.0754 -0.3330 -0.2699
30809TIP3   OH293308   8.541   5.882   8.521 -0.7837  0.0354 -0.2562
30809TIP3    H193309   8.561   5.788   8.520 -0.6345 -0.0049  2.0726
30809TIP3    H293310   8.561   5.911   8.432 -2.0639 -2.3602 -1.4235
30810TIP3   OH293311   6.886   7.628   8.258 -0.0444  0.1677 -0.1657
30810TIP3    H193312   6.970   7.617   8.302 -0.9680  0.5271  1.8243
30810TIP3    H293313   6.908   7.666   8.173  1.7190  1.7146  0.8917
30811TIP3   OH293314   0.711   4.687   9.186  0.4968  0.4218 -0.0023
30811TIP3    H193315   0.775   4.671   9.256  3.2942  2.6760 -1.8274
30811TIP3    H293316   0.627   4.683   9.231  2.0632  0.7775  3.3354
30812TIP3   OH293317   9.507   3.261   1.604 -0.3050 -0.2885  0.2805
30812TIP3    H193318   9.471   3.195   1.545 -0.9293  1.1549 -1.0368
30812TIP3    H293319   9.577   3.302   1.554  0.9985 -0.8298  1.5946
30813TIP3   OH293320   1.637   4.610   9.470  0.3003 -0.0277 -0.2782
30813TIP3    H193321   1.655   4.541   9.406 -0.8941  0.6943 -1.4433
30813TIP3    H293322   1.719   4.658   9.478  0.6294 -0.4931 -0.8083
30814TIP3   OH293323   8.668   5.631   9.537  0.0358 -0.1932 -0.2835
30814TIP3    H193324   8.606   5.562   9.564 -0.4342  0.2018 -0.3396
30814TIP3    H293325   8.754   5.591   9.548 -0.2046 -0.5422  0.3791
30815TIP3   OH293326   3.363   2.167   2.648 -0.4514 -0.7477  0.2109
30815TIP3    H193327   3.431   2.151   2.582  0.6269 -0.6380  1.2544
30815TIP3    H293328   3.354   2.262   2.651 -1.6937 -0.8164 -0.9308
30816TIP3   OH293329   3.200   9.302   8.395  0.4234  0.0192 -0.0907
30816TIP3    H193330   3.148   9.367   8.442 -0.7130 -1.4616  0.7672
30816TIP3    H293331   3.136   9.252   8.344  1.5569  1.2746 -2.9777
30817TIP3   OH293332   2.097   1.619   1.068 -0.3970 -0.8499  0.4345
30817TIP3    H193333   2.125   1.534   1.035  0.4424 -0.5818  0.4371
30817TIP3    H293334   2.068   1.602   1.157 -0.9812 -1.2604  0.1780
30818TIP3   OH293335   8.783   3.146   9.830  0.8874  0.0299 -0.2511
30818TIP3    H193336   8.733   3.214   9.876  0.8821 -0.2142  0.1035
30818TIP3    H293337   8.718   3.101   9.776  0.4274 -1.2395  1.3039
30819TIP3   OH293338   9.175   7.358   2.156  0.5179  0.0837 -0.5835
30819TIP3    H193339   9.243   7.347   2.089  0.3882 -0.6171 -0.6118
30819TIP3    H293340   9.173   7.452   2.173  1.7219  0.0899 -0.3548
30820TIP3   OH293341   3.117   8.096   1.352 -0.1829 -0.4656 -0.1138
30820TIP3    H193342   3.148   8.185   1.371 -2.3748 -0.3082  3.5769
30820TIP3    H293343   3.177   8.039   1.400  0.2913 -0.9491 -1.2273
30821TIP3   OH293344   2.830   6.175   4.234 -0.1266  0.7264  0.1959
30821TIP3    H193345   2.873   6.096   4.202 -1.2787  0.0221  0.3421
30821TIP3    H293346   2.799   6.220   4.155 -2.4543 -0.7160  0.1795
30822TIP3   OH293347   9.032   4.068   8.339  0.8257  0.5711 -0.0827
30822TIP3    H193348   9.076   3.986   8.318  0.9180  0.5491  0.1921
30822TIP3    H293349   8.992   4.096   8.257 -0.2871 -0.3946  0.1089
30823TIP3   OH293350   8.113   4.591   0.995  0.0153 -0.1271 -0.0076
30823TIP3    H193351   8.134   4.660   1.058 -0.0234 -1.5703  1.6507
30823TIP3    H293352   8.085   4.638   0.916 -1.2938  1.7453  1.4870
30824TIP3   OH293353   9.873   6.644   5.339  1.0305 -0.1084  0.7636
30824TIP3    H193354   9.877   6.731   5.301  2.2744  0.1123  1.3577
30824TIP3    H293355   9.956   6.634   5.386  0.7064 -1.4242  1.1041
30825TIP3   OH293356   4.197   1.486   5.125  0.2155 -0.1190  0.1401
30825TIP3    H193357   4.142   1.533   5.063 -0.3951 -0.2305  0.5909
30825TIP3    H293358   4.279   1.535   5.127 -0.1845  0.5597  0.1353
30826TIP3   OH293359   5.659   7.289   2.177  0.2748 -0.0587  0.3861
30826TIP3    H193360   5.677   7.284   2.083  2.4428 -0.0626  0.7529
30826TIP3    H293361   5.563   7.285   2.183  0.1293 -1.8002 -1.7086
30827TIP3   OH293362   7.769   8.350   6.702 -0.4240 -0.1995 -0.2143
30827TIP3    H193363   7.822   8.279   6.736 -0.5584 -0.0793  0.2601
30827TIP3    H293364   7.712   8.375   6.775  0.2166  0.9641 -0.0859
30828TIP3   OH293365   2.953   3.798  10.463  0.2466  0.2227  0.0387
30828TIP3    H193366   2.859   3.814  10.457 -0.8892 -4.7787  0.4614
30828TIP3    H293367   2.981   3.846  10.541 -1.6698  2.4684 -0.5341
30829TIP3   OH293368   5.252   9.290   4.789  0.0465  0.0239 -0.1669
30829TIP3    H193369   5.250   9.374   4.745  0.8223 -0.6556 -1.5764
30829TIP3    H293370   5.175   9.243   4.756 -0.1446  0.0161  0.2793
30830TIP3   OH293371   5.535   8.435   5.761  0.9025 -0.1762  0.0957
30830TIP3    H193372   5.520   8.504   5.825  0.0666  0.4458 -0.7428
30830TIP3    H293373   5.625   8.406   5.778  0.9407  0.4729  1.0687
30831TIP3   OH293374   5.668   4.142   7.362 -0.4672 -0.3853  0.4256
30831TIP3    H193375   5.604   4.181   7.302  0.5516 -1.0711 -1.1698
30831TIP3    H293376   5.639   4.050   7.369 -1.1568 -0.0814  1.8135
30832TIP3   OH293377   0.465   4.723   9.609  0.3749 -0.5485 -0.1530
30832TIP3    H193378   0.523   4.735   9.684 -0.4510  0.1522  0.4013
30832TIP3    H293379   0.500   4.782   9.542 -0.5805  1.1090  0.7323
30833TIP3   OH293380  10.586   3.994   5.496 -0.1761  0.6083  0.1512
30833TIP3    H193381  10.497   3.970   5.519 -0.6220  0.4371 -1.6054
30833TIP3    H293382  10.582   4.017   5.403  1.2921  2.2088  0.4089
30834TIP3   OH293383   9.080   8.981   7.607 -0.1622  0.0470 -0.0052
30834TIP3    H193384   9.070   9.032   7.688  2.0900 -1.3292  1.2473
30834TIP3    H293385   9.119   9.043   7.545 -0.2228  0.6537  0.5464
30835TIP3   OH293386   4.866   9.057   8.440 -0.1767  0.1081 -0.1403
30835TIP3    H193387   4.900   9.097   8.520  0.9586 -0.1409 -0.4748
30835TIP3    H293388   4.823   8.977   8.470 -0.7477  0.5844  0.3320
30836TIP3   OH293389   7.836   1.228   1.709 -0.5598  0.4286  0.1381
30836TIP3    H193390   7.806   1.236   1.799  0.5683  1.8051  0.4300
30836TIP3    H293391   7.859   1.317   1.683  2.2846 -0.3313 -0.3490
30837TIP3   OH293392   0.858  10.155   0.780 -0.1124  0.7316 -0.4128
30837TIP3    H193393   0.765  10.158   0.805 -0.0241  0.6152 -0.0640
30837TIP3    H293394   0.888  10.245   0.788  0.0961  0.5788  0.6122
30838TIP3   OH293395   5.129   0.357   6.578 -0.6435 -0.3178 -0.7241
30838TIP3    H193396   5.039   0.364   6.546 -0.5031 -0.2129 -1.0991
30838TIP3    H293397   5.124   0.385   6.670 -0.5886  2.0078 -1.3810
30839TIP3   OH293398   3.278   4.133   9.495 -0.1415 -0.3446 -0.0328
30839TIP3    H193399   3.251   4.193   9.425 -2.4701 -0.2296  0.8821
30839TIP3    H293400   3.370   4.154   9.511 -0.5145  2.0355 -0.6655
30840TIP3   OH293401   6.992   9.298   8.022 -0.0114 -0.3818  0.1735
30840TIP3    H193402   7.038   9.355   8.083 -0.9493 -0.6754  1.1876
30840TIP3    H293403   7.015   9.332   7.935  2.0368 -0.4793  0.6190
30841TIP3   OH293404   3.727   8.972   3.863  0.0159 -0.4601 -0.4188
30841TIP3    H193405   3.696   9.051   3.818  1.3674  1.1699  1.3544
30841TIP3    H293406   3.656   8.951   3.924  0.0827 -0.0088 -0.1832
30842TIP3   OH293407   5.228   1.477   5.202 -0.1724 -0.2519 -0.3512
30842TIP3    H193408   5.217   1.495   5.296  0.4713  1.5685 -0.5871
30842TIP3    H293409   5.161   1.531   5.160 -0.1167 -0.6688 -0.9814
30843TIP3   OH293410   5.012   2.793   8.696 -0.1040 -0.1041  0.3914
30843TIP3    H193411   5.082   2.812   8.759 -0.7939  2.5790  0.4737
30843TIP3    H293412   5.035   2.843   8.618 -0.5980 -1.3266 -0.5712
30844TIP3   OH293413   7.378   9.562   7.145  0.4157  0.0921  0.3776
30844TIP3    H193414   7.384   9.514   7.062 -1.0124  0.7588 -0.1484
30844TIP3    H293415   7.401   9.652   7.122  0.3941  0.2031  0.7879
30845TIP3   OH293416   0.912   6.293   8.243  0.3678  0.3846  0.1586
30845TIP3    H193417   0.901   6.226   8.311  0.5023 -0.7887 -0.9480
30845TIP3    H293418   1.004   6.317   8.249  0.6943 -0.6563 -0.4366
30846TIP3   OH293419   2.064   7.434   6.616 -0.1011  0.1620 -0.4588
30846TIP3    H193420   2.155   7.459   6.600  0.1318 -0.8300 -0.7561
30846TIP3    H293421   2.068   7.341   6.640 -0.7294  0.8032  2.5400
30847TIP3   OH293422   9.449   1.770   2.076 -0.2896 -0.0431 -0.0584
30847TIP3    H193423   9.532   1.738   2.039  0.8068  0.8099  1.5370
30847TIP3    H293424   9.390   1.695   2.069  1.1747 -1.3226  0.4432
30848TIP3   OH293425   7.752   7.326   8.387  0.7412 -0.0763 -0.0676
30848TIP3    H193426   7.705   7.393   8.436  1.6176  1.9903 -1.8862
30848TIP3    H293427   7.754   7.358   8.297  3.9705 -0.9313 -0.4421
30849TIP3   OH293428  10.869   9.603   3.084 -0.2353 -0.4712 -0.4544
30849TIP3    H193429  10.879   9.685   3.035 -0.6756 -0.2534 -0.1840
30849TIP3    H293430  10.908   9.536   3.027  0.8579  0.0370 -0.3246
30850TIP3   OH293431   9.401   7.565   3.324 -0.0112 -0.0755 -0.6938
30850TIP3    H193432   9.412   7.647   3.371  0.9506 -1.5881  1.9372
30850TIP3    H293433   9.363   7.505   3.389  1.2790 -2.2810 -1.8555
30851TIP3   OH293434   5.902   8.739   7.253 -0.2792 -0.2561  0.3315
30851TIP3    H193435   5.918   8.692   7.335 -1.1873 -0.1553  0.5834
30851TIP3    H293436   5.922   8.830   7.274  2.8584 -0.6131 -0.5405
30852TIP3   OH293437   9.464   7.839   1.430 -0.9942  0.6109  0.0054
30852TIP3    H193438   9.421   7.799   1.355 -0.0733 -1.3586  0.4400
30852TIP3    H293439   9.407   7.819   1.504 -0.3909 -0.1774  0.2687
30853TIP3   OH293440   1.001   2.221   0.698  0.2342  1.0485 -0.3782
30853TIP3    H193441   1.083   2.174   0.707  0.0192  0.8734  0.7016
30853TIP3    H293442   0.982   2.217   0.604  0.7437 -0.1096 -0.4465
30854TIP3   OH293443   6.169   0.476  10.547  0.3230  0.6210  0.2987
30854TIP3    H193444   6.214   0.559  10.536  2.0436 -0.3132 -0.1887
30854TIP3    H293445   6.206   0.419  10.478  0.1838 -0.9234  1.4385
30855TIP3   OH293446   4.876   5.548   3.935 -0.0882  0.5365 -0.5180
30855TIP3    H193447   4.898   5.619   3.995 -0.8801  2.3634 -2.2740
30855TIP3    H293448   4.958   5.500   3.923  0.2823  0.6603  1.2779
30856TIP3   OH293449   2.596   3.918   5.759 -0.5759  0.6486 -0.7296
30856TIP3    H193450   2.573   3.858   5.688 -1.3645  2.1411 -1.8090
30856TIP3    H293451   2.512   3.940   5.800 -0.2283  0.5155  0.0533
30857TIP3   OH293452   3.274   5.836   5.452  0.8056  0.1611 -0.4827
30857TIP3    H193453   3.332   5.874   5.518  0.1674 -1.4453  1.0886
30857TIP3    H293454   3.306   5.871   5.368  1.4524  2.5119  0.6692
30858TIP3   OH293455   7.452   6.450   3.018  0.8170  0.0460 -0.5777
30858TIP3    H193456   7.460   6.358   3.045  0.0447  0.6894  2.1741
30858TIP3    H293457   7.386   6.487   3.077  0.8475  2.3094 -1.8371
30859TIP3   OH293458   6.779   3.099   8.807  0.4615 -0.2051  0.0137
30859TIP3    H193459   6.817   3.043   8.874  2.5915  0.0912 -0.8593
30859TIP3    H293460   6.853   3.124   8.752 -1.2229 -0.9387 -2.8349
30860TIP3   OH293461   5.134   5.324   6.278  0.4800 -0.1989 -0.3391
30860TIP3    H193462   5.203   5.374   6.323 -0.3608 -0.1321  0.9068
30860TIP3    H293463   5.066   5.389   6.260 -0.0180 -0.6118  0.0353
30861TIP3   OH293464  10.571   7.821  10.617  0.1750  0.1823 -0.1191
30861TIP3    H193465  10.535   7.903  10.583  0.5418 -0.6586 -2.7935
30861TIP3    H293466  10.508   7.754  10.589  0.3596 -0.5643  1.1942
30862TIP3   OH293467   4.758   5.596   1.991 -0.0587  0.2937  0.5045
30862TIP3    H193468   4.785   5.687   1.982  0.4465  0.1008  0.0634
30862TIP3    H293469   4.817   5.547   1.933  0.0155 -0.3771  1.1370
30863TIP3   OH293470   0.360   6.710   7.464  0.3460 -0.0004  0.1183
30863TIP3    H193471   0.397   6.797   7.448  1.4714 -0.6081 -0.6939
30863TIP3    H293472   0.388   6.689   7.553 -0.1788  0.5766  0.4317
30864TIP3   OH293473   8.176   5.740   2.556  0.7354  0.3868  0.1420
30864TIP3    H193474   8.083   5.721   2.542 -0.0656  2.8058  1.4512
30864TIP3    H293475   8.199   5.800   2.485  1.3066 -0.1736 -0.1553
30865TIP3   OH293476   4.523   3.383   0.790 -0.3328  0.1272  0.3397
30865TIP3    H193477   4.591   3.439   0.827 -0.3598  1.0942 -1.0054
30865TIP3    H293478   4.505   3.421   0.704 -1.6726 -0.8648  0.1541
30866TIP3   OH293479   3.188   4.236   6.678 -0.8013 -0.0750 -0.5370
30866TIP3    H193480   3.162   4.167   6.739 -1.4701  0.0564 -0.6675
30866TIP3    H293481   3.235   4.190   6.608 -0.3042 -0.2620 -0.0864
30867TIP3   OH293482   6.482   2.552   3.251  0.2499  0.0433  0.8986
30867TIP3    H193483   6.498   2.617   3.320 -0.1290  0.8321  0.2631
30867TIP3    H293484   6.570   2.524   3.224  0.4092  0.0502  1.4043
30868TIP3   OH293485   8.631   5.993   6.438  0.0311  0.1206  0.0860
30868TIP3    H193486   8.544   6.033   6.440  0.6755  1.7186 -1.4238
30868TIP3    H293487   8.692   6.067   6.441  1.3085 -0.8807 -0.2969
30869TIP3   OH293488   3.901   0.290   5.013 -0.6518  0.5364  0.0707
30869TIP3    H193489   3.948   0.208   5.024 -1.3371  0.2807  1.2927
30869TIP3    H293490   3.855   0.302   5.096 -1.6136  1.4774 -0.5780
30870TIP3   OH293491   1.974   6.431   4.089 -0.3684  0.4412  0.1713
30870TIP3    H193492   1.913   6.495   4.053  0.5689  0.7985 -0.8384
30870TIP3    H293493   1.985   6.366   4.020  1.8509  1.4146 -0.4947
30871TIP3   OH293494   7.010   0.207   8.804  0.3995 -0.0229 -0.1550
30871TIP3    H193495   6.999   0.168   8.890  2.5258  0.6749  0.4956
30871TIP3    H293496   6.943   0.276   8.799  0.9895  0.7084  1.4307
30872TIP3   OH293497   9.170   7.217   4.497 -0.5221  0.4877 -0.3210
30872TIP3    H193498   9.206   7.257   4.417 -0.4759  0.5456 -0.2713
30872TIP3    H293499   9.163   7.124   4.476  0.2233  0.3851 -0.1190
30873TIP3   OH293500   2.404   8.016   7.795  0.4714 -0.7159  0.4730
30873TIP3    H193501   2.423   7.942   7.852 -2.6060 -0.0202  2.6784
30873TIP3    H293502   2.309   8.010   7.780  0.8384  0.1581 -3.2685
30874TIP3   OH293503   5.710   2.409   7.151 -0.3425  0.1838 -0.0315
30874TIP3    H193504   5.662   2.416   7.234  0.4026 -0.3534  0.4595
30874TIP3    H293505   5.795   2.374   7.176  0.1160  0.6073 -0.9564
30875TIP3   OH293506   0.939   7.131   5.507  0.7407  0.7650 -0.2875
30875TIP3    H193507   0.912   7.107   5.418  0.3201  0.1489  0.0034
30875TIP3    H293508   0.951   7.048   5.552  1.2805  1.0702  0.1429
30876TIP3   OH293509   9.315   9.028   6.455  0.4189  0.2376 -0.2529
30876TIP3    H193510   9.348   8.951   6.500  0.2937  1.2836  1.7767
30876TIP3    H293511   9.392   9.066   6.413  1.3589  1.1040  2.0527
30877TIP3   OH293512   7.619   2.746   8.945 -0.4524  0.1465  0.4321
30877TIP3    H193513   7.652   2.717   9.030  0.2074  1.2243  0.5522
30877TIP3    H293514   7.538   2.696   8.933 -0.1742 -0.5477  1.3576
30878TIP3   OH293515   4.654   1.676   6.595 -0.0643 -0.0813 -0.4332
30878TIP3    H193516   4.561   1.654   6.592 -0.6472  1.9802  0.5963
30878TIP3    H293517   4.672   1.720   6.512 -1.1010  3.0805  0.8518
30879TIP3   OH293518   7.105   0.844   2.894 -0.0265 -0.3571 -0.9091
30879TIP3    H193519   7.152   0.832   2.977  1.3952 -1.6637 -1.8513
30879TIP3    H293520   7.019   0.878   2.920  1.6306  2.9622  0.8240
30880TIP3   OH293521  10.068   4.301   6.080 -0.1231  0.5816  0.4831
30880TIP3    H193522  10.137   4.368   6.080  1.3207 -0.8609  0.6488
30880TIP3    H293523  10.049   4.287   6.173 -0.6763  0.9854  0.4377
30881TIP3   OH293524   6.100   0.438   5.292 -0.4075  0.3710  0.1472
30881TIP3    H193525   6.169   0.489   5.333  0.1297 -0.3141  0.1120
30881TIP3    H293526   6.145   0.384   5.227 -1.1567  0.9449 -0.8764
30882TIP3   OH293527   8.052   4.920   9.381 -0.3994 -0.0639 -0.0925
30882TIP3    H193528   7.968   4.957   9.407 -1.5364 -2.1284 -0.6704
30882TIP3    H293529   8.032   4.833   9.347  1.8112 -0.0812 -1.5988
30883TIP3   OH293530   0.438   4.181   8.072  0.2178  0.5461  0.1867
30883TIP3    H193531   0.423   4.087   8.082 -1.1585  0.5214 -1.5964
30883TIP3    H293532   0.531   4.188   8.050  0.6695 -0.2336  1.6954
30884TIP3   OH293533   8.154   3.028  10.742  0.4919  0.0841  0.0775
30884TIP3    H193534   8.164   2.957  10.679  3.6317  1.8469 -1.6573
30884TIP3    H293535   8.204   2.999  10.818  0.3236 -0.2650  0.0576
30885TIP3   OH293536   8.475   5.350   7.276 -0.1167 -0.4623 -0.2200
30885TIP3    H193537   8.474   5.306   7.361 -1.1437 -0.6066 -0.2857
30885TIP3    H293538   8.506   5.439   7.296 -1.4520 -0.1303  0.5241
30886TIP3   OH293539   2.657   2.098   7.308 -0.3983  0.8607 -0.2402
30886TIP3    H193540   2.728   2.036   7.325  0.1359  1.6323  0.4108
30886TIP3    H293541   2.578   2.054   7.339 -0.0530  0.4247  0.0331
30887TIP3   OH293542   9.939   2.803   5.026 -0.4694  0.9142  0.2501
30887TIP3    H193543  10.005   2.858   4.984  3.0414 -1.7117  1.7909
30887TIP3    H293544   9.912   2.852   5.103  1.6451  1.1303  0.9176
30888TIP3   OH293545   3.684   3.515   2.079 -0.1804  0.3905 -0.0623
30888TIP3    H193546   3.711   3.603   2.055  1.3059 -0.2014 -0.6947
30888TIP3    H293547   3.594   3.507   2.045 -0.7129  1.9676  0.8890
30889TIP3   OH293548   7.040   6.470   1.926 -0.7169 -0.5516 -0.0679
30889TIP3    H193549   7.123   6.424   1.939  0.8184  2.4444  1.6901
30889TIP3    H293550   7.050   6.514   1.841 -1.1316 -1.3336 -0.5322
30890TIP3   OH293551   8.452   0.274   6.304 -0.4784  0.5768  0.1785
30890TIP3    H193552   8.404   0.197   6.333 -1.1906  0.9363 -0.0278
30890TIP3    H293553   8.384   0.338   6.281 -0.0437  0.1206 -2.8711
30891TIP3   OH293554   7.556   3.998   6.630 -0.4696 -0.2715  0.3957
30891TIP3    H193555   7.558   4.002   6.535 -0.8754  0.8091  0.4169
30891TIP3    H293556   7.602   3.917   6.652  3.9003  1.5998 -0.5786
30892TIP3   OH293557   3.413   1.024   4.513 -0.3689  0.2032  0.4579
30892TIP3    H193558   3.461   0.979   4.582  0.3086 -0.9629 -0.7138
30892TIP3    H293559   3.456   0.996   4.432 -0.3317  2.4810 -0.3898
30893TIP3   OH293560   9.837   4.165   5.946 -0.0022  0.2393 -0.2759
30893TIP3    H193561   9.889   4.230   5.992 -0.8074  1.8115 -1.4983
30893TIP3    H293562   9.876   4.081   5.970  0.9303  1.1383  1.5141
30894TIP3   OH293563   2.438   3.590   3.769 -0.2885 -0.5302  0.0271
30894TIP3    H193564   2.486   3.548   3.697 -1.3247  0.3937 -1.2402
30894TIP3    H293565   2.452   3.683   3.756 -0.3732 -0.3559  1.1266
30895TIP3   OH293566   8.117   7.608   2.314 -0.5403 -0.0878 -0.0007
30895TIP3    H193567   8.054   7.541   2.341 -0.8191  0.0208 -0.3823
30895TIP3    H293568   8.080   7.645   2.234  1.0375 -1.4934 -1.4711
30896TIP3   OH293569   9.339   3.212   9.529 -0.3730 -0.3651  0.5093
30896TIP3    H193570   9.300   3.210   9.617 -0.2877  0.0487  0.5579
30896TIP3    H293571   9.398   3.288   9.530 -2.1959  1.1824 -0.6560
30897TIP3   OH293572   8.339   5.854   5.297 -0.0909 -0.1240  0.0786
30897TIP3    H193573   8.334   5.804   5.215 -0.4904  0.8009 -0.4870
30897TIP3    H293574   8.432   5.871   5.310 -0.0355 -0.1691 -0.2553
30898TIP3   OH293575   8.172   7.026   1.545 -0.0474  0.6719 -0.3311
30898TIP3    H193576   8.262   7.058   1.541  0.8574 -1.7790 -2.1738
30898TIP3    H293577   8.142   7.026   1.454 -1.2529 -0.2132  0.0288
30899TIP3   OH293578   1.901   9.053   5.372  0.2635 -0.3970 -0.1282
30899TIP3    H193579   1.921   9.102   5.292  0.9850 -1.3204 -0.5312
30899TIP3    H293580   1.806   9.056   5.379  0.2708  0.7032 -0.3635
30900TIP3   OH293581   1.126   8.120   0.430  0.2029 -0.3462  0.0799
30900TIP3    H193582   1.154   8.079   0.511  1.6157  0.3768 -0.0183
30900TIP3    H293583   1.142   8.054   0.363 -0.4471 -0.7388  0.2963
30901TIP3   OH293584   1.192   4.652   4.253 -0.6976 -0.5529 -0.1245
30901TIP3    H193585   1.221   4.581   4.196 -0.8896  1.3105 -2.6844
30901TIP3    H293586   1.273   4.687   4.291 -0.1869  0.2331 -1.8519
30902TIP3   OH293587   9.572   3.853   2.850  0.0349  0.8056  0.2596
30902TIP3    H193588   9.628   3.778   2.872 -1.3099 -0.9575 -1.8359
30902TIP3    H293589   9.616   3.896   2.777  0.2200  1.3566  0.6905
30903TIP3   OH293590   7.279   8.259   2.293  0.1166  0.0714 -0.1536
30903TIP3    H193591   7.274   8.325   2.224  0.1031  2.0901  1.6609
30903TIP3    H293592   7.362   8.276   2.337 -1.4684  1.4056  2.6217
30904TIP3   OH293593   1.072   1.744   7.770  0.3084  0.0354 -0.2137
30904TIP3    H193594   1.030   1.829   7.758  1.1599  0.3195 -1.2258
30904TIP3    H293595   1.164   1.758   7.750  0.6523 -0.9075  0.5954
30905TIP3   OH293596   9.743   4.093   2.862  0.4223 -0.4024  0.1804
30905TIP3    H193597   9.720   4.160   2.927  0.1255  1.5149 -1.7943
30905TIP3    H293598   9.766   4.016   2.915 -1.2825  0.5433  2.5168
30906TIP3   OH293599   4.946   9.390   0.351 -0.6310 -0.4710 -0.1221
30906TIP3    H193600   5.007   9.360   0.283  0.8754  0.9799  0.4901
30906TIP3    H293601   4.977   9.347   0.431 -0.7715 -0.1840  0.0877
30907TIP3   OH293602   0.430   8.069   8.520 -0.2967 -0.3248 -0.0212
30907TIP3    H193603   0.507   8.099   8.569 -0.0315 -0.7800 -0.1499
30907TIP3    H293604   0.465   8.010   8.453 -0.8209 -1.1802  0.4323
30908TIP3   OH293605   1.701   0.276   0.605 -0.8084  0.2094 -0.2029
30908TIP3    H193606   1.779   0.324   0.632 -0.8290 -0.6982  1.5966
30908TIP3    H293607   1.731   0.186   0.592 -1.2655  0.1680 -1.0703
30909TIP3   OH293608  10.134   4.438   2.652  0.6788  0.6344  0.0832
30909TIP3    H193609  10.096   4.483   2.576  0.6193  0.6513  0.1228
30909TIP3    H293610  10.144   4.347   2.623 -0.9122  0.2696  0.6141
30910TIP3   OH293611   1.386  10.530  10.761  0.3105 -0.3655  0.0549
30910TIP3    H193612   1.303  10.494  10.793 -0.1929 -0.7979 -1.6681
30910TIP3    H293613   1.444  10.526  10.837 -0.4165 -2.6440  0.5584
30911TIP3   OH293614   1.614   4.661   4.909  0.1778  0.3455  0.5752
30911TIP3    H193615   1.535   4.707   4.881 -0.7095 -1.0607  0.6854
30911TIP3    H293616   1.586   4.606   4.982  1.5059  0.6458  1.3605
30912TIP3   OH293617   7.497   3.352   4.134  0.1093 -0.2529  0.2530
30912TIP3    H193618   7.588   3.332   4.113  0.2386 -1.2872  1.6207
30912TIP3    H293619   7.449   3.273   4.112 -0.1928 -0.2952  1.0112
30913TIP3   OH293620   1.086   4.069   2.578 -0.4737  0.6659  0.5202
30913TIP3    H193621   1.035   3.988   2.578  0.1338  0.2768  0.8410
30913TIP3    H293622   1.068   4.109   2.493 -0.9833  0.3249  0.4653
30914TIP3   OH293623   1.237   4.126   3.820 -0.6447 -0.1841  0.3362
30914TIP3    H193624   1.221   4.220   3.813 -1.1321 -0.2704  0.2312
30914TIP3    H293625   1.221   4.106   3.912 -2.5389 -0.5075 -0.0315
30915TIP3   OH293626  10.084   5.635  10.543  0.6796 -0.0123  0.8700
30915TIP3    H193627  10.143   5.582  10.490 -0.4184 -2.3345  1.8458
30915TIP3    H293628  10.141   5.680  10.606  1.6062 -0.2335  0.2003
30916TIP3   OH293629   1.601   7.023   6.637 -0.3388  0.2103 -0.5022
30916TIP3    H193630   1.647   7.102   6.611 -0.1151  0.6855  1.1842
30916TIP3    H293631   1.619   7.015   6.731 -4.6342  1.1652  0.6439
30917TIP3   OH293632   6.206   6.454   8.605 -0.3520  0.1757 -0.1051
30917TIP3    H193633   6.243   6.542   8.595  2.9228 -1.2417 -2.0005
30917TIP3    H293634   6.222   6.432   8.697  0.3906  0.9273 -0.0379
30918TIP3   OH293635   9.315  10.120   8.335 -0.5520 -0.2132 -0.0058
30918TIP3    H193636   9.264  10.071   8.400 -0.1233 -0.7275 -0.0531
30918TIP3    H293637   9.324  10.060   8.261  0.4463 -0.2697  0.1570
30919TIP3   OH293638   4.620  10.677   6.453 -0.0451  0.3934  0.1545
30919TIP3    H193639   4.556  10.613   6.484  1.3494 -0.8108  0.6451
30919TIP3    H293640   4.705  10.638   6.474  0.8678  1.6568 -1.0447
30920TIP3   OH293641   2.656   6.880   0.409 -0.7173  0.0852 -0.1958
30920TIP3    H193642   2.587   6.813   0.409 -0.6936  0.0621  0.0144
30920TIP3    H293643   2.609   6.961   0.388 -0.5013 -0.2498 -2.2168
30921TIP3   OH293644   6.992   3.900   6.776 -0.2895  0.5208  0.0147
30921TIP3    H193645   6.997   3.906   6.872 -0.9717  0.1939  0.0810
30921TIP3    H293646   7.062   3.956   6.744  0.3272  0.1681  0.7152
30922TIP3   OH293647   8.178   7.843   5.262 -0.2003  0.0119  0.5077
30922TIP3    H193648   8.133   7.898   5.197 -1.8305 -1.3113  0.4351
30922TIP3    H293649   8.260   7.817   5.219 -1.5766 -1.4810 -1.4540
30923TIP3   OH293650   1.177  10.544   5.378 -0.3047 -0.1205  0.6935
30923TIP3    H193651   1.081  10.537   5.383 -0.4062  0.2350 -0.5095
30923TIP3    H293652   1.192  10.626   5.331  0.5706 -0.6597  0.0076
30924TIP3   OH293653   9.948   4.341   6.652  0.5025 -0.4430 -0.5588
30924TIP3    H193654   9.967   4.390   6.572 -0.1995 -1.2388 -1.2359
30924TIP3    H293655   9.958   4.249   6.627 -2.3511 -0.8535 -0.5116
30925TIP3   OH293656   6.184   7.426   7.304  0.0061 -0.2812  0.0735
30925TIP3    H193657   6.263   7.443   7.356  0.2276 -2.4516  0.5518
30925TIP3    H293658   6.215   7.368   7.234 -0.7975  0.5265 -0.9812
30926TIP3   OH293659   5.459   2.047   0.206 -0.2088 -0.5798 -0.1523
30926TIP3    H193660   5.489   2.015   0.291 -1.2884 -2.4067 -0.4111
30926TIP3    H293661   5.386   2.106   0.227  0.9187  0.7032  0.2667
30927TIP3   OH293662   8.578   9.152   7.665 -0.0593  0.0060  0.6678
30927TIP3    H193663   8.633   9.226   7.689 -0.4814  0.5093  0.1367
30927TIP3    H293664   8.626   9.109   7.594 -0.4183  0.5494  0.0820
30928TIP3   OH293665   2.240  10.357   8.990  0.3995  0.1035  0.1993
30928TIP3    H193666   2.217  10.445   9.019  0.4430  0.6863 -1.4517
30928TIP3    H293667   2.334  10.360   8.976  0.5570 -0.4992  1.0202
30929TIP3   OH293668   7.397   8.268   3.197  0.1159  0.3670 -0.0086
30929TIP3    H193669   7.409   8.351   3.244  2.3872 -0.1199  0.3748
30929TIP3    H293670   7.380   8.295   3.107  0.7805  1.2825  0.1190
30930TIP3   OH293671   3.334   5.022   8.061  0.0656  0.0251 -0.3374
30930TIP3    H193672   3.332   5.079   7.984  0.0611 -3.2810 -2.9884
30930TIP3    H293673   3.253   5.043   8.109 -0.6893  1.1660 -2.0216
30931TIP3   OH293674   2.846   5.580  10.754 -0.7956 -0.3497 -0.3558
30931TIP3    H193675   2.786   5.654  10.742 -1.0942 -0.1630  1.8527
30931TIP3    H293676   2.797   5.504  10.723 -1.0692  0.1584 -1.2202
30932TIP3   OH293677   0.301   0.745   4.195  0.2338 -0.4766 -0.2193
30932TIP3    H193678   0.263   0.706   4.117 -1.5262  0.5344  0.0850
30932TIP3    H293679   0.248   0.712   4.267  0.4369  0.3323  0.3155
30933TIP3   OH293680   5.636  10.850   7.062 -0.3428 -0.1857 -0.1307
30933TIP3    H193681   5.609  10.861   6.971  1.8303 -1.6902 -1.0439
30933TIP3    H293682   5.621  10.758   7.081 -1.8763  0.3394  1.4980
30934TIP3   OH293683   0.375   1.917   6.318 -0.1168  0.7222  0.1594
30934TIP3    H193684   0.344   1.836   6.358  1.2466  0.2205  0.2692
30934TIP3    H293685   0.339   1.916   6.230  0.5929 -0.4495 -0.1346
30935TIP3   OH293686   4.700   7.312   2.612 -0.0355  0.0464 -0.1494
30935TIP3    H193687   4.787   7.323   2.652  0.0093  1.7917 -0.6425
30935TIP3    H293688   4.647   7.273   2.681  0.7465  0.4148  0.6896
30936TIP3   OH293689   4.269   1.700   3.135 -0.2379  0.1879 -0.3864
30936TIP3    H193690   4.192   1.658   3.096  1.3890 -0.3277 -3.3782
30936TIP3    H293691   4.282   1.780   3.083 -0.0392  1.5139  1.5804
30937TIP3   OH293692   3.053   7.769   8.905 -0.2489  0.4540  0.0435
30937TIP3    H193693   2.966   7.808   8.895 -0.1177  0.9374  0.6620
30937TIP3    H293694   3.054   7.736   8.995 -0.6991 -1.8902 -0.7646
30938TIP3   OH293695  10.126   3.706   0.210 -0.5563 -0.2916  0.4610
30938TIP3    H193696  10.137   3.732   0.301 -0.2071  0.3823  0.2334
30938TIP3    H293697  10.128   3.610   0.212 -0.5710 -0.2822  1.1583
30939TIP3   OH293698   2.375   3.681  10.569  0.2476  0.0542 -1.1026
30939TIP3    H193699   2.459   3.684  10.615 -0.0750  1.8455 -0.5604
30939TIP3    H293700   2.353   3.773  10.552 -2.0632 -0.2884 -0.3508
30940TIP3   OH293701  10.025   6.179   9.073 -0.0419 -0.2700  0.2252
30940TIP3    H193702  10.115   6.158   9.098 -0.4708 -1.0039  1.2142
30940TIP3    H293703  10.034   6.235   8.996  1.2726  0.2002  0.6997
30941TIP3   OH293704   5.859   8.909   7.553  0.4282 -0.5185  0.1939
30941TIP3    H193705   5.862   8.938   7.461 -1.9193 -1.0568 -0.1162
30941TIP3    H293706   5.861   8.813   7.547 -1.4694 -0.6103  0.5486
30942TIP3   OH293707   9.093   3.347   3.055  0.3976 -0.7518  0.0782
30942TIP3    H193708   9.104   3.383   2.967 -0.0452 -0.9924 -0.0838
30942TIP3    H293709   9.010   3.385   3.085  0.2953 -1.0585  0.1879
30943TIP3   OH293710   1.275   9.778  10.235 -0.1971 -0.0344 -0.6828
30943TIP3    H193711   1.315   9.778  10.148 -0.1569  0.8089 -0.6741
30943TIP3    H293712   1.337   9.824  10.291  0.7279 -2.3196  0.2816
30944TIP3   OH293713   2.567   0.383   6.125  0.1626 -0.6496 -0.3147
30944TIP3    H193714   2.611   0.433   6.056 -0.0734 -1.6617 -1.2283
30944TIP3    H293715   2.500   0.442   6.160  0.4129 -0.0614 -0.8261
30945TIP3   OH293716   2.035   6.714  10.397 -0.6630  0.6066  0.0448
30945TIP3    H193717   1.948   6.682  10.422 -0.6507  1.8945  1.8745
30945TIP3    H293718   2.024   6.808  10.385  0.2029  0.5877 -1.0782
30946TIP3   OH293719   8.169   9.972   6.324  0.1104 -0.7538 -0.0531
30946TIP3    H193720   8.134   9.982   6.413  1.0675 -0.5814  0.3212
30946TIP3    H293721   8.112  10.026   6.270  0.1564  0.0245  0.6440
30947TIP3   OH293722  10.763   3.370   5.227  0.8352  0.5320 -0.0021
30947TIP3    H193723  10.808   3.372   5.143 -0.7406 -0.8121 -0.9412
30947TIP3    H293724  10.733   3.280   5.236 -1.5972  1.3170  0.5510
30948TIP3   OH293725   8.345   2.149   9.855  0.6228  0.5568  0.3363
30948TIP3    H193726   8.386   2.125   9.772  2.1033  0.3178  1.1122
30948TIP3    H293727   8.418   2.173   9.912 -0.1158 -1.7533  2.4066
30949TIP3   OH293728   9.038   4.647   7.278  0.2825 -0.3018  1.2754
30949TIP3    H193729   9.122   4.675   7.242  0.0730  0.9045  1.6544
30949TIP3    H293730   8.977   4.717   7.252 -0.7718 -1.5084  0.3907
30950TIP3   OH293731  10.414   8.658   8.048  0.3993 -0.1244  0.2761
30950TIP3    H193732  10.503   8.691   8.033  0.5957 -1.2185 -1.2530
30950TIP3    H293733  10.416   8.623   8.137  1.2385  0.6594  0.5769
30951TIP3   OH293734  10.697   4.370  10.789 -0.2468  0.0675  0.3467
30951TIP3    H193735  10.737   4.374  10.876 -0.2740 -1.6281  0.4853
30951TIP3    H293736  10.698   4.460  10.757  1.3210  0.4604  1.4049
30952TIP3   OH293737   7.589   1.000   6.524  0.5666  0.2021  0.2113
30952TIP3    H193738   7.587   1.077   6.580  1.2530 -0.5907  1.3814
30952TIP3    H293739   7.674   0.960   6.540  0.5653 -0.3498 -1.0174
30953TIP3   OH293740   5.942   2.594  10.859  0.7038 -0.5998 -0.1143
30953TIP3    H193741   5.971   2.646  10.784 -0.0574  0.5279  0.3373
30953TIP3    H293742   5.970   2.644  10.935 -0.4699 -0.5870  0.3358
30954TIP3   OH293743   3.391   9.675   6.402  0.6490  0.3850  0.2515
30954TIP3    H193744   3.352   9.595   6.368  1.5280  0.1608 -0.2580
30954TIP3    H293745   3.479   9.649   6.431  0.2626  0.7527  1.9025
30955TIP3   OH293746   1.418   9.169   3.557 -0.0067 -0.4018  0.1041
30955TIP3    H193747   1.453   9.161   3.646  1.2925 -2.1891 -0.5142
30955TIP3    H293748   1.382   9.082   3.538  0.0668 -0.1472 -1.2527
30956TIP3   OH293749   2.812   3.965   0.254 -0.1907 -0.3496 -0.0412
30956TIP3    H193750   2.740   3.904   0.270 -1.4199  1.0446 -0.0223
30956TIP3    H293751   2.769   4.051   0.245  1.3340  0.3167 -1.4667
30957TIP3   OH293752   1.427   8.930   0.916 -0.1767 -0.4566  0.2260
30957TIP3    H193753   1.352   8.891   0.872  1.3238 -1.5309 -1.4958
30957TIP3    H293754   1.425   8.893   1.005 -0.4285 -2.2563 -0.4963
30958TIP3   OH293755   8.786  10.754   6.778  0.4985 -0.0672  0.1008
30958TIP3    H193756   8.743  10.800   6.851  0.6179  0.1124  0.0609
30958TIP3    H293757   8.803  10.823   6.714  0.9726 -0.1133  0.1759
30959TIP3   OH293758   7.843   8.922   8.495 -0.0721  0.7054 -0.4505
30959TIP3    H193759   7.872   8.925   8.586 -1.7948  0.1433  0.1486
30959TIP3    H293760   7.921   8.892   8.446  0.2931 -1.1390  1.1259
30960TIP3   OH293761   8.375   6.524   6.671  0.3657  0.4205 -0.8790
30960TIP3    H193762   8.374   6.620   6.677 -1.9025  0.3441  2.6019
30960TIP3    H293763   8.456   6.499   6.716  0.4243  0.6818 -0.8322
30961TIP3   OH293764   0.843   9.734   2.831  0.0716  0.1693 -0.4087
30961TIP3    H193765   0.846   9.788   2.752 -1.6071 -0.8317 -1.2294
30961TIP3    H293766   0.864   9.646   2.800 -0.5854 -0.2327  0.2581
30962TIP3   OH293767  10.556   5.580   7.031  0.0887  0.2423  0.2265
30962TIP3    H193768  10.648   5.598   7.050  0.3825 -0.9114 -0.0601
30962TIP3    H293769  10.550   5.583   6.935 -0.2109  0.4765  0.2507
30963TIP3   OH293770  10.554   4.508   0.127  0.0370  0.2640 -0.4219
30963TIP3    H193771  10.537   4.422   0.089 -0.3235 -0.5911  1.5732
30963TIP3    H293772  10.648   4.519   0.120  0.3205 -1.0664  0.7884
30964TIP3   OH293773   4.735   2.114   0.965  0.2349 -0.3895  0.3425
30964TIP3    H193774   4.723   2.029   1.006 -1.0347 -1.1873 -1.5334
30964TIP3    H293775   4.784   2.095   0.884 -2.2628  0.1724 -1.4293
30965TIP3   OH293776  10.725   7.831   9.361 -0.4844  0.3498  0.6310
30965TIP3    H193777  10.651   7.848   9.420  0.4460 -1.5885  2.4812
30965TIP3    H293778  10.696   7.755   9.310  0.2157 -0.4444  1.3955
30966TIP3   OH293779   3.299   0.072   3.191  0.5784  0.2479 -0.3262
30966TIP3    H193780   3.325  -0.017   3.168  0.1343  0.0603 -0.1259
30966TIP3    H293781   3.285   0.116   3.108  0.1090 -0.0835 -0.4279
30967TIP3   OH293782   7.699   3.591   1.197  0.2483  0.1375 -0.2867
30967TIP3    H193783   7.648   3.632   1.127  0.8815  0.7095 -0.4258
30967TIP3    H293784   7.722   3.664   1.255  0.7355 -0.1493 -0.1200
30968TIP3   OH293785  10.515   3.441   5.816 -0.5093 -0.1727 -0.0839
30968TIP3    H193786  10.542   3.423   5.726 -1.8811 -0.5688 -0.4330
30968TIP3    H293787  10.594   3.427   5.868  0.0971 -0.7236 -1.1347
30969TIP3   OH293788   4.563   4.740   1.117  0.0145 -0.0775 -0.2001
30969TIP3    H193789   4.646   4.785   1.136  0.0218 -0.3205  0.3555
30969TIP3    H293790   4.513   4.746   1.199 -0.3413 -0.3155 -0.3981
30970TIP3   OH293791   0.158   4.899   4.159  0.0461 -0.7124 -0.0543
30970TIP3    H193792   0.245   4.936   4.145 -0.1120  0.8110  2.3858
30970TIP3    H293793   0.166   4.852   4.242 -1.4543 -0.5175  0.2272
30971TIP3   OH293794   6.574   8.912   5.283  0.5122  0.5451 -0.5768
30971TIP3    H193795   6.496   8.892   5.230  2.2118  1.4745 -3.6759
30971TIP3    H293796   6.586   9.006   5.272  1.4384  0.6079  0.8114
30972TIP3   OH293797   4.514   4.180   6.791  0.2253 -0.4519 -0.2899
30972TIP3    H193798   4.496   4.242   6.719  0.8435  0.0892  0.0064
30972TIP3    H293799   4.569   4.230   6.851  2.6187 -1.9622 -1.0930
30973TIP3   OH293800   2.554   9.458   5.024 -0.0592 -0.2542 -0.4663
30973TIP3    H193801   2.585   9.548   5.013  2.1009 -1.0958 -1.8925
30973TIP3    H293802   2.477   9.466   5.081  2.0759  2.1382  2.3951
30974TIP3   OH293803   3.749   2.313   8.537  0.3070  0.1043 -0.3502
30974TIP3    H193804   3.713   2.258   8.606 -0.2902 -1.9936 -2.2187
30974TIP3    H293805   3.830   2.349   8.575 -0.1284 -0.7506  1.4944
30975TIP3   OH293806   8.441   6.959   1.246 -0.5084 -0.5355 -0.1872
30975TIP3    H193807   8.422   7.002   1.329 -1.0037 -1.2804  0.0944
30975TIP3    H293808   8.401   7.015   1.180  1.1409  0.8623 -0.0920
30976TIP3   OH293809  10.219   3.245   1.003  0.0282 -0.5784  0.6162
30976TIP3    H193810  10.231   3.208   0.915 -1.6607  2.3555 -1.0219
30976TIP3    H293811  10.278   3.319   1.006 -0.8715  0.1317  1.4350
30977TIP3   OH293812   0.698   4.818   2.493  0.1769  0.1646  0.0241
30977TIP3    H193813   0.745   4.840   2.412  0.8634  2.8606  1.0479
30977TIP3    H293814   0.606   4.835   2.472  0.4928  2.3223  0.1699
30978TIP3   OH293815   9.792   1.671   0.595  0.0188 -0.0972  0.4060
30978TIP3    H193816   9.860   1.607   0.574  1.0457  1.4187 -1.2242
30978TIP3    H293817   9.710   1.626   0.575  0.6656 -1.1775  0.1050
30979TIP3   OH293818   8.752   7.819   2.630 -0.6025 -0.2737 -0.2677
30979TIP3    H193819   8.735   7.852   2.718  1.5085 -1.9947  0.8818
30979TIP3    H293820   8.825   7.872   2.597  0.0345 -1.0146 -0.0847
30980TIP3   OH293821   2.153   9.639   8.224  0.1623  0.2163 -0.0123
30980TIP3    H193822   2.195   9.630   8.310 -0.1823 -2.0727 -0.0355
30980TIP3    H293823   2.178   9.560   8.177  0.0855  1.2910 -1.9423
30981TIP3   OH293824  10.818   6.989   9.758 -0.1479 -0.1551 -0.0059
30981TIP3    H193825  10.795   6.896   9.754 -1.3346  0.1351 -0.2987
30981TIP3    H293826  10.784   7.026   9.677 -1.7548  0.9521  1.1006
30982TIP3   OH293827   2.011   3.911   7.184 -0.4041  0.3202  0.3368
30982TIP3    H193828   2.060   3.971   7.128 -1.3422  1.4175  0.6509
30982TIP3    H293829   1.920   3.923   7.157 -0.6284 -0.8391  0.5378
30983TIP3   OH293830   7.980   6.505   6.749 -0.2710  0.0284 -0.3657
30983TIP3    H193831   8.035   6.444   6.799 -0.1268  1.9595  2.0310
30983TIP3    H293832   8.010   6.495   6.658  0.8783 -2.2152  0.1841
30984TIP3   OH293833  10.377  10.496   5.538 -0.4868  0.0136 -0.3870
30984TIP3    H193834  10.322  10.513   5.615  0.7877  2.2545  0.1356
30984TIP3    H293835  10.442  10.566   5.540  2.5881 -2.5988 -0.7871
30985TIP3   OH293836   8.043   3.715   8.992  0.1686 -0.2834 -0.3312
30985TIP3    H193837   8.121   3.771   8.989  0.1714 -0.3486 -1.7884
30985TIP3    H293838   8.066   3.638   8.940 -1.1069  0.0156 -1.3823
30986TIP3   OH293839   0.595   2.531   7.256 -0.2056  0.1357  0.2277
30986TIP3    H193840   0.648   2.464   7.298 -1.0787 -0.4907  0.3547
30986TIP3    H293841   0.600   2.511   7.162  1.8820  1.6351 -0.0501
30987TIP3   OH293842  10.470   8.389   4.653 -0.3543  0.6640  0.0155
30987TIP3    H193843  10.476   8.449   4.578  2.3224 -1.0042 -1.2339
30987TIP3    H293844  10.461   8.302   4.613 -1.3095 -0.0831  1.7391
30988TIP3   OH293845   2.783   3.473   1.380 -0.1593 -0.0049  0.0887
30988TIP3    H193846   2.837   3.531   1.434 -0.2064 -0.2716  0.4186
30988TIP3    H293847   2.720   3.434   1.440  1.3905 -2.2553  0.3660
30989TIP3   OH293848   9.335  10.630   7.673  0.3775  0.6645 -0.1425
30989TIP3    H193849   9.256  10.665   7.714  0.0126  0.8205 -0.9679
30989TIP3    H293850   9.402  10.696   7.691 -0.4013  2.0874 -2.0562
30990TIP3   OH293851   2.530   1.637   1.014  0.2938 -0.1992  0.6760
30990TIP3    H193852   2.560   1.597   0.933 -1.4197  2.0811 -1.2397
30990TIP3    H293853   2.435   1.636   1.008  0.1521  1.1263  2.0332
30991TIP3   OH293854  10.793   6.610   8.740 -0.6643 -0.0994 -0.0353
30991TIP3    H193855  10.830   6.675   8.679 -2.1645  1.6854  0.8550
30991TIP3    H293856  10.807   6.649   8.827 -0.1427 -1.7683  0.6632
30992TIP3   OH293857   4.963   9.383   7.809 -0.4839 -0.3381  0.0442
30992TIP3    H193858   4.994   9.417   7.725  0.8237  0.3576  0.7854
30992TIP3    H293859   4.969   9.288   7.800  2.2652 -0.2573  0.2395
30993TIP3   OH293860   7.880   0.018   0.191 -0.3151  0.5938 -0.2607
30993TIP3    H193861   7.931   0.083   0.143  1.4671 -1.3149 -1.1597
30993TIP3    H293862   7.941  -0.018   0.256 -1.6763  0.7682  1.1795
30994TIP3   OH293863   7.839   5.345   0.343  0.1843  0.4100  0.1783
30994TIP3    H193864   7.750   5.315   0.361  0.1499  0.1366 -0.4120
30994TIP3    H293865   7.891   5.265   0.336  0.5525  0.5821  0.8738
30995TIP3   OH293866   0.568   9.000   3.662 -0.8523  0.3200 -0.1649
30995TIP3    H193867   0.615   8.922   3.691 -0.1612  0.5264 -0.7029
30995TIP3    H293868   0.560   9.054   3.741 -0.4351  0.1544 -0.0064
30996TIP3   OH293869   7.046   5.157   2.811 -0.2410  0.2619  0.0847
30996TIP3    H193870   7.045   5.137   2.905 -0.6145  1.1880  0.2877
30996TIP3    H293871   6.964   5.119   2.778 -0.0831 -0.1121  0.1277
30997TIP3   OH293872   6.293   6.029   6.590  0.2808 -0.9233 -0.3700
30997TIP3    H193873   6.335   5.943   6.592  0.3436 -0.8799  0.3089
30997TIP3    H293874   6.231   6.023   6.517  0.9720 -1.2148 -0.9434
30998TIP3   OH293875   5.815   9.014   4.487 -0.2473 -0.5835  0.0948
30998TIP3    H193876   5.823   9.106   4.512 -2.6151 -0.7257  1.6970
30998TIP3    H293877   5.902   8.989   4.457  0.6495  1.9527  0.3862
30999TIP3   OH293878   4.223   3.619   7.073 -0.3070 -0.1843  0.4934
30999TIP3    H193879   4.318   3.630   7.085 -0.4652  0.4992  1.1869
30999TIP3    H293880   4.209   3.525   7.081  0.0843 -0.1389  2.3309
31000TIP3   OH293881   2.764   9.077   9.720 -0.4210  0.5823  0.3756
31000TIP3    H193882   2.762   9.132   9.642  0.8326  1.7267  1.1066
31000TIP3    H293883   2.673   9.050   9.732 -0.6972  0.6549 -1.2678
31001TIP3   OH293884   2.567  10.227   0.678 -0.6767 -0.3645 -0.0240
31001TIP3    H193885   2.555  10.315   0.712  0.8810  0.6769 -1.9308
31001TIP3    H293886   2.583  10.173   0.755 -1.3714  1.0672  1.1586
31002TIP3   OH293887   2.046   1.481   9.912 -0.3359 -0.4682 -0.7361
31002TIP3    H193888   2.076   1.452   9.999  1.6033  0.0682 -1.1652
31002TIP3    H293889   2.002   1.564   9.928 -0.6298 -0.7265 -0.1784
31003TIP3   OH293890   7.789   8.731   0.294 -0.5456  0.2332 -0.2192
31003TIP3    H193891   7.726   8.723   0.366 -0.2964 -1.9715 -0.1593
31003TIP3    H293892   7.865   8.775   0.333 -1.0366  0.5031  0.4416
31004TIP3   OH293893   0.996   9.949   8.996  0.4211  0.1083  0.3730
31004TIP3    H193894   0.914   9.996   8.982  0.8166  0.7143  0.0124
31004TIP3    H293895   1.050  10.009   9.048  1.4847  0.7145 -1.3358
31005TIP3   OH293896   6.608   8.478   4.329  0.0151  0.7443 -0.3757
31005TIP3    H193897   6.520   8.458   4.361  0.8381 -0.9515  1.0205
31005TIP3    H293898   6.621   8.570   4.354 -0.4856  0.3238  1.6284
31006TIP3   OH293899   6.843   6.462   5.941  0.5011  0.3697  0.3175
31006TIP3    H193900   6.828   6.522   5.868 -0.3135  0.2655  0.3911
31006TIP3    H293901   6.921   6.413   5.915  1.3913  1.6678  0.4002
31007TIP3   OH293902   6.769   6.493   1.890  0.4697 -0.4748 -0.2709
31007TIP3    H193903   6.794   6.582   1.915  0.0515 -0.1331 -1.0239
31007TIP3    H293904   6.850   6.443   1.897  0.8853  0.1379 -0.5896
31008TIP3   OH293905   1.436   3.635  10.684 -0.2759  0.2406 -0.0532
31008TIP3    H193906   1.378   3.711  10.678  0.4562  0.7434 -0.9789
31008TIP3    H293907   1.417   3.597  10.770 -0.5229  1.5675  0.4956
31009TIP3   OH293908   1.731   0.448   5.501 -0.7539  0.1229  0.3148
31009TIP3    H193909   1.777   0.465   5.419  0.3460 -1.7067  0.5026
31009TIP3    H293910   1.695   0.533   5.527 -0.2639  0.9267 -1.5322
31010TIP3   OH293911   5.813   9.421   1.689 -0.0812 -0.3074 -0.1535
31010TIP3    H193912   5.809   9.442   1.596 -0.4993  0.7683  0.0904
31010TIP3    H293913   5.900   9.382   1.702  0.2617  0.2094 -0.8632
31011TIP3   OH293914   8.680   6.103  10.677 -0.3464  0.8179  0.1032
31011TIP3    H193915   8.596   6.116  10.632  0.3860  2.0529 -0.9469
31011TIP3    H293916   8.682   6.171  10.744  0.0838  1.2070 -0.2967
31012TIP3   OH293917   3.120   6.867   3.843 -0.2862 -0.6368 -0.5210
31012TIP3    H193918   3.131   6.927   3.769  1.5430  0.5789  0.6667
31012TIP3    H293919   3.203   6.821   3.850  0.5410  1.0534  2.2183
31013TIP3   OH293920   4.849   1.113   7.218  0.2373 -0.4456  0.5782
31013TIP3    H193921   4.893   1.045   7.168  0.9918  1.8912 -2.2736
31013TIP3    H293922   4.757   1.105   7.193  0.4952  0.2134 -0.6845
31014TIP3   OH293923   1.058   4.820   5.483  0.0132  0.1224 -0.1695
31014TIP3    H193924   1.013   4.878   5.545 -0.8642  0.8537 -1.4410
31014TIP3    H293925   0.987   4.772   5.439  0.3872  1.5186 -2.4350
31015TIP3   OH293926   3.766  10.458   0.282  0.6230  0.4338  0.0283
31015TIP3    H193927   3.697  10.463   0.215  1.3768 -0.2158 -0.8152
31015TIP3    H293928   3.819  10.536   0.267 -0.1550  1.1746  0.9682
31016TIP3   OH293929   5.618   3.951   8.909 -0.5804  0.3002  0.3275
31016TIP3    H193930   5.533   3.986   8.935 -1.5756 -2.8532  1.7712
31016TIP3    H293931   5.597   3.870   8.861  1.5963 -0.5355  0.6874
31017TIP3   OH293932   2.852   5.502   8.895 -0.6178 -0.3868 -0.4099
31017TIP3    H193933   2.778   5.444   8.914 -0.8823 -0.2973 -1.1386
31017TIP3    H293934   2.897   5.511   8.979 -1.4659 -0.3927  0.0606
31018TIP3   OH293935   2.152   7.003   7.718 -0.2127 -0.4856 -0.6052
31018TIP3    H193936   2.062   7.014   7.686  0.0821 -0.5580 -1.4869
31018TIP3    H293937   2.207   7.030   7.644  0.5017  1.1098  0.4703
31019TIP3   OH293938   8.684  10.588   0.249 -0.5211  0.2044 -0.1252
31019TIP3    H193939   8.701  10.578   0.156  0.2940 -0.6073  0.0979
31019TIP3    H293940   8.737  10.520   0.291 -2.3585 -0.7157  0.8089
31020TIP3   OH293941   8.852   7.511   0.625 -0.0899  0.3851 -0.3293
31020TIP3    H193942   8.887   7.558   0.550  4.5168 -2.5790 -0.4457
31020TIP3    H293943   8.808   7.434   0.587 -1.5168  0.9963  0.0112
31021TIP3   OH293944   0.785   6.598   1.544 -0.4030 -0.0795  0.7012
31021TIP3    H193945   0.868   6.619   1.500  0.1596  0.1870  1.8643
31021TIP3    H293946   0.767   6.508   1.517 -0.5631  0.3609 -0.8045
31022TIP3   OH293947   9.408   7.219   7.204 -0.0855 -0.2351 -0.0900
31022TIP3    H193948   9.437   7.278   7.135  2.2425 -1.0199  0.1279
31022TIP3    H293949   9.391   7.136   7.160 -1.5972  0.0733 -0.1323
31023TIP3   OH293950   8.358   1.861   2.930 -0.2442  0.3424  0.0102
31023TIP3    H193951   8.266   1.850   2.953 -0.2615  0.1138 -0.1701
31023TIP3    H293952   8.394   1.773   2.931  1.2461  0.6568  5.1838
31024TIP3   OH293953   9.654   5.183   8.380  0.1133  0.3862  0.2460
31024TIP3    H193954   9.574   5.228   8.355 -0.1989 -0.0916  0.3618
31024TIP3    H293955   9.677   5.131   8.303  0.1310  0.2715  0.3294
31025TIP3   OH293956   6.969   9.120  10.665  0.1581  0.0364 -0.2381
31025TIP3    H193957   7.054   9.147  10.701  1.3939 -1.4475 -1.8918
31025TIP3    H293958   6.935   9.199  10.622  0.7208  0.6130  0.3520
31026TIP3   OH293959   3.681   6.391   0.967 -0.9163  0.6831 -0.2062
31026TIP3    H193960   3.607   6.413   1.024 -0.4580  1.3285  0.1516
31026TIP3    H293961   3.750   6.453   0.992  0.5348 -1.2717  1.0134
31027TIP3   OH293962   1.649   7.958   4.872  0.3006  0.2755 -0.0599
31027TIP3    H193963   1.627   7.871   4.905  1.1749  0.2481  0.4680
31027TIP3    H293964   1.739   7.971   4.899  0.2254  1.2810 -0.2895
31028TIP3   OH293965   3.712   2.726   1.502 -0.1513 -0.5065  0.2402
31028TIP3    H193966   3.661   2.773   1.437  1.2052  0.2837 -0.2851
31028TIP3    H293967   3.782   2.683   1.452  1.9541  1.4995  1.2718
31029TIP3   OH293968   7.999   0.053   8.701 -0.1287 -0.1034  0.0714
31029TIP3    H193969   8.027   0.129   8.649 -0.3174  1.8187  2.6031
31029TIP3    H293970   7.921   0.021   8.656 -1.6662  2.9157  0.3171
31030TIP3   OH293971   0.856   2.292   8.289 -0.0816 -0.1407 -0.0490
31030TIP3    H193972   0.897   2.377   8.306 -1.8724  1.3403 -2.5854
31030TIP3    H293973   0.785   2.286   8.354 -1.0295  1.1365 -0.9365
31031TIP3   OH293974   5.304   9.883   5.078 -0.5732  0.0555 -0.1702
31031TIP3    H193975   5.390   9.870   5.117 -0.4329 -1.8992 -1.0158
31031TIP3    H293976   5.292   9.978   5.077  2.8470  0.6752 -2.6683
31032TIP3   OH293977   1.601   7.322   2.909  0.3168  0.1002 -0.4158
31032TIP3    H193978   1.625   7.320   3.002 -0.3576 -0.6195 -0.2443
31032TIP3    H293979   1.683   7.336   2.863  0.7884 -0.3818  0.2567
31033TIP3   OH293980   7.224   2.359   5.274  0.8912  0.1780  0.3114
31033TIP3    H193981   7.271   2.442   5.286 -0.1263  0.8589 -0.2605
31033TIP3    H293982   7.157   2.379   5.209  0.6758 -1.1259  0.1111
31034TIP3   OH293983   5.671   1.721   4.398  0.0006 -0.2387 -0.1249
31034TIP3    H193984   5.700   1.699   4.487 -2.2870 -0.8426  0.5395
31034TIP3    H293985   5.747   1.761   4.357  1.0653  0.2261  2.1754
31035TIP3   OH293986  10.601   5.744   5.843 -0.2027 -0.5072 -0.1192
31035TIP3    H193987  10.615   5.789   5.926 -1.0787  0.0878 -0.2837
31035TIP3    H293988  10.686   5.705   5.822  0.0327 -0.6516  1.0380
31036TIP3   OH293989   2.488   1.213   1.943 -0.3971  0.1793  0.5287
31036TIP3    H193990   2.396   1.235   1.959 -1.1092 -1.3963 -1.0598
31036TIP3    H293991   2.535   1.250   2.019 -1.9972  2.9269  0.3360
31037TIP3   OH293992   2.603   7.167   3.177  0.5472 -0.3778  0.0214
31037TIP3    H193993   2.573   7.238   3.120 -1.3124 -0.4338  0.8780
31037TIP3    H293994   2.696   7.185   3.191  0.1808  1.7270 -0.0060
31038TIP3   OH293995   7.430   0.994   4.293  0.1550 -0.2131 -0.0776
31038TIP3    H193996   7.427   0.902   4.319  2.8996 -0.7361 -1.3010
31038TIP3    H293997   7.484   1.036   4.360  1.0453 -0.0457 -0.8859
31039TIP3   OH293998   5.985   4.051   3.744  0.4510 -0.3207 -0.2059
31039TIP3    H193999   6.016   4.059   3.835 -2.1159 -1.3382  0.8664
31039TIP3    H294000   5.990   4.140   3.709  1.5953  0.0717  0.8783
31040TIP3   OH294001   4.152   0.196   1.348  0.0292  0.4430 -0.5348
31040TIP3    H194002   4.128   0.273   1.400  1.2288  1.0284 -0.8190
31040TIP3    H294003   4.093   0.200   1.272 -0.4874  0.6067 -0.1320
31041TIP3   OH294004  10.149   7.988   1.381 -0.1109  0.4915 -0.5858
31041TIP3    H194005  10.092   8.045   1.330 -0.8535  0.7492  0.5210
31041TIP3    H294006  10.091   7.942   1.441  0.5460 -0.9931 -1.0343
31042TIP3   OH294007   7.254   9.422   3.440  0.3908  0.5054 -0.7940
31042TIP3    H194008   7.237   9.476   3.364 -1.1521 -1.3145 -1.8273
31042TIP3    H294009   7.300   9.345   3.406  1.7966  0.7060  0.5005
31043TIP3   OH294010   3.424   9.084   9.475  0.3174 -0.0298 -0.3702
31043TIP3    H194011   3.412   9.142   9.401 -2.2152 -1.6995 -1.4063
31043TIP3    H294012   3.418   9.141   9.552 -0.8843  1.2273 -1.3599
31044TIP3   OH294013   9.626   3.510   6.227  0.5286  0.5768  0.3762
31044TIP3    H194014   9.583   3.588   6.262  1.0090  0.6865  0.7309
31044TIP3    H294015   9.556   3.445   6.219  0.2942  0.7622  0.9210
31045TIP3   OH294016   8.513   2.706  10.609 -0.4298 -0.8568 -0.1453
31045TIP3    H194017   8.593   2.678  10.564  0.0178 -1.1591  0.7962
31045TIP3    H294018   8.530   2.685  10.701 -1.2541 -0.1248  0.1829
31046TIP3   OH294019   9.396   0.784   9.019  0.1257 -0.1353  0.1269
31046TIP3    H194020   9.398   0.838   8.940  0.0352  1.1502  0.9814
31046TIP3    H294021   9.307   0.794   9.053  0.1024 -0.8376  0.2878
31047TIP3   OH294022   0.369   9.138   7.465  0.2198  0.1559  0.1728
31047TIP3    H194023   0.301   9.100   7.521 -0.0328  0.2666 -0.0566
31047TIP3    H294024   0.326   9.150   7.380  0.3657  0.7236  0.1717
31048TIP3   OH294025   0.568   1.911   1.668 -0.8165  0.4783 -0.0463
31048TIP3    H194026   0.522   1.894   1.586 -2.4966 -0.5454  1.0289
31048TIP3    H294027   0.635   1.843   1.673 -3.1957 -1.9787  1.1172
31049TIP3   OH294028   5.070   4.858   7.006 -0.3189  0.2018 -0.4175
31049TIP3    H194029   5.040   4.881   7.095  2.5961  0.7330  0.5398
31049TIP3    H294030   5.125   4.932   6.980 -0.0778 -0.5443 -2.1569
31050TIP3   OH294031   5.514   0.697   0.944 -0.3290  0.3800  0.4742
31050TIP3    H194032   5.440   0.645   0.973  0.3750 -0.1130  1.4373
31050TIP3    H294033   5.485   0.787   0.953 -1.5857  0.1969 -1.2680
31051TIP3   OH294034   1.561   4.722   6.579 -0.3154  0.0364  0.2611
31051TIP3    H194035   1.519   4.781   6.516  0.5290  0.1593 -0.2183
31051TIP3    H294036   1.647   4.705   6.540 -0.8076 -2.1452 -0.0126
31052TIP3   OH294037   9.282   0.760   1.483 -0.3784  0.2298 -0.4352
31052TIP3    H194038   9.219   0.789   1.416 -1.8528 -0.7236  0.4629
31052TIP3    H294039   9.281   0.664   1.476  1.1229  0.2005 -0.4869
31053TIP3   OH294040   8.413   1.080   7.021  0.3245  0.0390 -0.1332
31053TIP3    H194041   8.501   1.105   6.992  0.4347  1.2186  1.0811
31053TIP3    H294042   8.398   0.993   6.984  2.5376 -0.7619  0.7157
31054TIP3   OH294043   3.174   7.504   3.368 -0.2032  0.3618  0.0540
31054TIP3    H194044   3.243   7.550   3.321 -0.6216  0.9692  0.0235
31054TIP3    H294045   3.208   7.416   3.381  1.5436  1.2510  2.0080
31055TIP3   OH294046   3.549   6.551   3.790 -0.3707  0.2894  0.2133
31055TIP3    H194047   3.643   6.561   3.803 -0.0836 -0.8480 -0.8854
31055TIP3    H294048   3.522   6.489   3.858 -0.1542 -0.1070 -0.0596
31056TIP3   OH294049   0.107   3.023  10.072  0.5184 -0.0754 -0.2834
31056TIP3    H194050   0.058   3.104  10.085 -0.2172 -0.2005 -2.0528
31056TIP3    H294051   0.058   2.957  10.122  0.2769  0.2669 -0.0589
31057TIP3   OH294052   1.088   1.746   4.430 -0.4216 -0.1492  0.0768
31057TIP3    H194053   1.132   1.789   4.356 -1.7240 -0.4072 -0.8863
31057TIP3    H294054   1.120   1.656   4.428  0.8738  0.2597  0.9369
31058TIP3   OH294055   5.345   7.970   8.707 -0.0606  0.3523  0.6571
31058TIP3    H194056   5.420   8.025   8.685  0.1277 -0.3265 -0.4460
31058TIP3    H294057   5.279   7.991   8.641 -0.1002 -0.4993  0.4165
31059TIP3   OH294058   0.836   2.948   5.352 -0.1280 -0.1043 -0.4292
31059TIP3    H194059   0.896   2.889   5.306  1.3266  0.0457  1.1694
31059TIP3    H294060   0.818   3.017   5.289  2.1777  0.3488 -0.6791
31060TIP3   OH294061   8.975   9.436   5.332 -0.4560  0.3577 -0.7452
31060TIP3    H194062   8.910   9.417   5.264 -0.5728 -1.6767 -0.1382
31060TIP3    H294063   8.965   9.365   5.396  0.8893  1.2002  0.4778
31061TIP3   OH294064  10.210   2.073   9.177  0.3853 -0.0749  0.0741
31061TIP3    H194065  10.301   2.104   9.178  0.4323 -0.1968 -0.2320
31061TIP3    H294066  10.176   2.096   9.264  0.0899  1.8006 -0.4991
31062TIP3   OH294067   8.629  10.588   3.151  0.0621 -0.0252  0.1013
31062TIP3    H194068   8.555  10.531   3.173  1.4939 -1.3185  1.9043
31062TIP3    H294069   8.635  10.583   3.056 -0.5615 -2.0771  0.1054
31063TIP3   OH294070   7.903   6.335   7.546  0.2222  0.3909  0.3219
31063TIP3    H194071   7.865   6.271   7.486  3.1938  0.1169 -1.5037
31063TIP3    H294072   7.947   6.281   7.613 -1.3751  0.6801  1.6711
31064TIP3   OH294073  10.004   5.531   7.125 -0.3165  0.6253  0.4679
31064TIP3    H194074   9.923   5.552   7.079  0.9126  2.7497 -0.8938
31064TIP3    H294075  10.066   5.599   7.098  2.6233 -2.0950 -0.3319
31065TIP3   OH294076   7.554   5.495  10.135  0.0958 -0.1722  0.2864
31065TIP3    H194077   7.640   5.505  10.176  0.3451 -1.0887  0.0131
31065TIP3    H294078   7.513   5.581  10.143  1.4570  0.5730 -0.5206
31066TIP3   OH294079   8.227   8.739   1.930 -0.1134 -0.5101 -0.0161
31066TIP3    H194080   8.229   8.644   1.940 -0.0249 -0.4213  0.9163
31066TIP3    H294081   8.319   8.765   1.925 -0.0655 -0.3368  1.3482
31067TIP3   OH294082   6.685   8.254   2.244  0.1290 -0.1383 -0.3196
31067TIP3    H194083   6.628   8.274   2.171 -1.3462 -1.6483  0.3525
31067TIP3    H294084   6.758   8.205   2.205 -1.2695 -2.0522 -0.7069
31068TIP3   OH294085   6.156   8.941   8.912 -0.1097 -0.4773 -0.2116
31068TIP3    H194086   6.246   8.913   8.899 -0.7182 -1.9752 -1.5106
31068TIP3    H294087   6.152   9.029   8.874  0.9742 -0.0428  0.6247
31069TIP3   OH294088   4.461  10.056   1.185  0.1627 -0.4387  0.2796
31069TIP3    H194089   4.499   9.986   1.238  0.2092 -0.8796 -0.3333
31069TIP3    H294090   4.393  10.095   1.242 -1.2139 -2.2307 -0.0452
31070TIP3   OH294091   1.258   2.406   3.654 -0.9846  0.5894  0.1293
31070TIP3    H194092   1.281   2.365   3.570 -1.8062  1.4701 -0.5379
31070TIP3    H294093   1.171   2.442   3.641 -0.5091  2.1108  0.8497
31071TIP3   OH294094   9.258   5.523   9.365  0.6171 -0.6242  0.2696
31071TIP3    H194095   9.280   5.511   9.457  0.0641 -1.3334  0.3130
31071TIP3    H294096   9.251   5.434   9.330  2.4464 -0.3860 -0.8585
31072TIP3   OH294097  10.097  10.747   0.290 -0.2456 -0.6226 -0.1906
31072TIP3    H194098  10.166  10.697   0.246 -0.4533  0.2179 -1.5192
31072TIP3    H294099  10.052  10.793   0.220  0.1225  1.6905  1.0024
31073TIP3   OH294100   1.287   7.248   5.502  0.0575  0.3257  0.1444
31073TIP3    H194101   1.310   7.328   5.550 -2.0875  1.3357 -0.3708
31073TIP3    H294102   1.210   7.214   5.548  0.3390 -0.9148 -0.2522
31074TIP3   OH294103   8.063   6.026   2.658  0.0846 -0.4854  0.0509
31074TIP3    H194104   8.093   5.985   2.577 -1.5984  0.3417 -1.0624
31074TIP3    H294105   8.086   5.964   2.727  2.4101 -0.7984 -0.9140
31075TIP3   OH294106  10.751   9.135   1.339  0.6290  0.4214 -0.2241
31075TIP3    H194107  10.759   9.051   1.383  0.4536  1.0310  1.0225
31075TIP3    H294108  10.678   9.124   1.278 -0.9136  0.3005  1.5386
31076TIP3   OH294109   2.264   7.529   8.841 -0.0207 -0.3750  0.8203
31076TIP3    H194110   2.202   7.569   8.902 -0.3298 -1.3933  1.2107
31076TIP3    H294111   2.271   7.591   8.769 -1.3271 -0.1350  0.8715
31077TIP3   OH294112   1.544   6.938   9.251 -0.1529 -0.0625 -0.1991
31077TIP3    H194113   1.462   6.980   9.276 -1.1223 -1.0886 -1.5229
31077TIP3    H294114   1.601   7.010   9.223 -1.4066  0.4932 -1.4181
31078TIP3   OH294115   1.823  10.128   0.723  0.0140 -0.1647  0.7145
31078TIP3    H194116   1.817  10.221   0.747  1.1018 -0.4859  2.4733
31078TIP3    H294117   1.753  10.115   0.659 -0.2116  1.8447  0.4833
31079TIP3   OH294118   5.047   8.804   6.368 -0.1818  0.3119 -0.5875
31079TIP3    H194119   5.096   8.830   6.290  0.2070  0.4260 -0.3099
31079TIP3    H294120   5.092   8.849   6.440 -0.0534 -0.4071 -0.2063
31080TIP3   OH294121   1.867   7.076   0.929  0.2477  0.1043  0.0768
31080TIP3    H194122   1.802   7.141   0.904 -0.4537 -0.4771  0.3482
31080TIP3    H294123   1.854   7.004   0.867  0.4242 -0.1456  0.3267
31081TIP3   OH294124   5.253   2.695   6.046 -0.6979  1.1173  0.1403
31081TIP3    H194125   5.327   2.740   6.087  1.6955 -1.2600 -1.2736
31081TIP3    H294126   5.225   2.631   6.112  2.2547 -1.7601 -1.1558
31082TIP3   OH294127   4.647  10.405   0.053 -0.1673 -0.3187  0.2635
31082TIP3    H194128   4.583  10.352   0.101 -0.3397 -0.1354  0.2367
31082TIP3    H294129   4.727  10.396   0.104 -0.4911  0.3285  0.8991
31083TIP3   OH294130   6.305   3.048   6.382 -0.6513  0.0981 -0.2362
31083TIP3    H194131   6.281   3.013   6.468 -1.6859 -0.1452 -0.6138
31083TIP3    H294132   6.290   3.143   6.391  2.4992  0.6079  0.9014
31084TIP3   OH294133   9.130  10.176   4.256 -0.3677  0.5309 -0.1320
31084TIP3    H194134   9.212  10.200   4.298 -2.1415  2.2587  2.7314
31084TIP3    H294135   9.129  10.225   4.174  2.1838 -1.0079 -1.1759
31085TIP3   OH294136   9.868   6.840   9.635 -0.0657  0.4216 -0.2793
31085TIP3    H194137   9.823   6.769   9.589 -1.0851  2.1385 -2.0877
31085TIP3    H294138   9.926   6.796   9.696 -0.0357 -1.9820 -1.9128
31086TIP3   OH294139   9.256   2.713  10.387  0.1193  0.4158  0.2227
31086TIP3    H194140   9.304   2.783  10.345  0.6069 -0.3238 -0.4779
31086TIP3    H294141   9.190   2.757  10.441  0.5556  1.3992 -0.0433
31087TIP3   OH294142   2.466   3.959   7.748 -0.3025 -0.1340 -0.3627
31087TIP3    H194143   2.526   3.972   7.821 -1.3565 -0.3187  0.5730
31087TIP3    H294144   2.440   4.048   7.722  2.5769  0.1543 -2.7639
31088TIP3   OH294145   4.610   8.439   0.489 -0.2020  0.2586  0.4347
31088TIP3    H194146   4.705   8.452   0.493 -0.3552  2.4033 -1.1586
31088TIP3    H294147   4.593   8.419   0.397 -1.3134 -0.1417  0.7091
31089TIP3   OH294148  10.425   8.715   9.835 -0.0532  0.1791  0.1021
31089TIP3    H194149  10.501   8.730   9.779  0.7157  0.5929  1.2168
31089TIP3    H294150  10.455   8.652   9.901 -1.1538 -0.8475 -0.3490
31090TIP3   OH294151   1.147   9.442  10.900  0.6726  0.0486 -0.0656
31090TIP3    H194152   1.179   9.520  10.854  1.5808 -0.6751 -0.6927
31090TIP3    H294153   1.170   9.369  10.842 -1.1413 -0.6077 -0.0081
31091TIP3   OH294154   4.419   4.064   8.919  0.5133 -0.2039  0.2860
31091TIP3    H194155   4.409   4.002   8.991 -1.6184  0.5651  0.7275
31091TIP3    H294156   4.342   4.121   8.925  0.1599 -0.1912 -2.6765
31092TIP3   OH294157   3.870   9.423   1.364 -0.2217  0.2080  0.4646
31092TIP3    H194158   3.901   9.337   1.396 -1.8369 -0.6148 -0.0754
31092TIP3    H294159   3.818   9.402   1.287 -1.8170  1.5310  1.1287
31093TIP3   OH294160   2.947   7.835   6.183 -0.1085  0.3823 -0.3247
31093TIP3    H194161   3.034   7.870   6.161  0.0347 -0.0366 -0.4246
31093TIP3    H294162   2.906   7.906   6.233 -0.1244  1.0075 -1.2036
31094TIP3   OH294163   1.850   9.155   7.818  0.1171  0.3243  0.0929
31094TIP3    H194164   1.829   9.074   7.865 -0.3470  0.3451 -0.0727
31094TIP3    H294165   1.855   9.222   7.886  0.2232  0.2068  0.1994
31095TIP3   OH294166   9.690   9.219   6.526 -0.0632 -0.7631  0.3212
31095TIP3    H194167   9.727   9.176   6.603 -0.7625 -1.0662  0.5000
31095TIP3    H294168   9.606   9.254   6.556 -1.1023 -2.2794 -0.6923
31096TIP3   OH294169   7.767   5.343   1.823 -0.1143 -0.0251 -0.4010
31096TIP3    H194170   7.764   5.295   1.740 -0.4764  1.1990 -1.1334
31096TIP3    H294171   7.761   5.276   1.890 -0.7930 -0.9835 -1.3752
31097TIP3   OH294172   7.783   6.966   0.100 -0.2537 -0.2039 -0.1214
31097TIP3    H194173   7.740   7.052   0.097 -1.3733 -0.7108  0.6411
31097TIP3    H294174   7.736   6.918   0.168  0.4567 -1.3842 -0.4305
31098TIP3   OH294175   3.841   3.768   9.138  0.9008  0.0941 -0.0206
31098TIP3    H194176   3.857   3.714   9.215  0.8349  1.3469  0.9180
31098TIP3    H294177   3.788   3.841   9.171  1.0293  0.7539 -1.2156
31099TIP3   OH294178   7.534   7.392   7.872  0.6635 -0.2583  0.2224
31099TIP3    H194179   7.445   7.399   7.906  0.0995 -1.1496 -0.9923
31099TIP3    H294180   7.553   7.298   7.875  1.5034 -0.0978  0.2825
31100TIP3   OH294181   0.142   7.562   4.892 -0.0576 -0.1284  0.3685
31100TIP3    H194182   0.234   7.588   4.885 -0.3551  0.9619  0.1958
31100TIP3    H294183   0.099   7.639   4.930 -1.0927 -0.1581 -0.6968
31101TIP3   OH294184   5.735   9.277   4.095 -0.4643 -0.1592  0.1805
31101TIP3    H194185   5.755   9.357   4.045 -0.6388 -0.8354 -1.0184
31101TIP3    H294186   5.816   9.256   4.140  0.2263 -0.4071 -1.1163
31102TIP3   OH294187   5.847   7.299   3.353 -0.0835  0.5714  0.3376
31102TIP3    H194188   5.799   7.331   3.430 -1.3440  0.6196 -0.4377
31102TIP3    H294189   5.881   7.213   3.380  0.8700  1.2753  1.4707
31103TIP3   OH294190   5.394   0.084   3.712 -0.4056  0.0569  0.0553
31103TIP3    H194191   5.367   0.167   3.671  0.3642 -0.2153 -1.0456
31103TIP3    H294192   5.376   0.097   3.805 -0.8044  1.2599 -0.1629
31104TIP3   OH294193   2.799   8.236   3.109 -0.2739  0.0157 -0.9328
31104TIP3    H194194   2.889   8.224   3.142 -0.1035  1.3384 -0.8628
31104TIP3    H294195   2.794   8.178   3.032  0.3698 -0.6745 -0.4760
31105TIP3   OH294196   6.314   7.760   2.810 -0.5943 -0.2076  0.1831
31105TIP3    H194197   6.362   7.759   2.728 -0.4410 -1.7089  0.2644
31105TIP3    H294198   6.274   7.673   2.816 -1.6097  0.2938  1.1116
31106TIP3   OH294199   2.627   1.744   7.585  0.4290  0.2586 -0.3306
31106TIP3    H194200   2.710   1.790   7.601  0.4130  0.5202 -0.9666
31106TIP3    H294201   2.618   1.745   7.489 -1.0652  1.6019 -0.2172
31107TIP3   OH294202   0.760   1.446   8.902 -0.3908 -0.5663 -0.5120
31107TIP3    H194203   0.845   1.425   8.863 -0.8373 -0.9387 -1.3131
31107TIP3    H294204   0.707   1.475   8.828 -1.0686 -0.6692 -0.0738
31108TIP3   OH294205   8.231   9.234   1.722 -0.6282 -0.0371 -0.4260
31108TIP3    H194206   8.151   9.274   1.689 -0.0776  2.0017  0.4992
31108TIP3    H294207   8.202   9.158   1.771 -1.8544 -0.1680 -1.3036
31109TIP3   OH294208   2.079   8.617   7.361 -0.3804 -0.6589 -0.5284
31109TIP3    H194209   2.045   8.622   7.271  0.3724  1.0590 -0.7535
31109TIP3    H294210   2.007   8.579   7.411 -1.5742  0.2069 -1.5165
31110TIP3   OH294211   0.755   8.190   4.700  0.0175 -0.0383  0.0219
31110TIP3    H194212   0.769   8.207   4.793  3.0566 -0.2869 -0.2915
31110TIP3    H294213   0.756   8.094   4.693 -2.7899 -0.1654 -0.0486
31111TIP3   OH294214   4.628   3.464   4.347 -1.1160  0.1090  0.1112
31111TIP3    H194215   4.613   3.461   4.441 -2.5408  1.2237 -0.0432
31111TIP3    H294216   4.544   3.440   4.308 -0.6134 -0.0976 -0.8761
31112TIP3   OH294217   6.304   8.789  10.278  0.1949  0.1713  0.0793
31112TIP3    H194218   6.372   8.856  10.266  0.3815  0.2042  1.2247
31112TIP3    H294219   6.229   8.824  10.230 -0.1993  1.9724  1.8470
31113TIP3   OH294220  10.439  10.033  10.852  0.0906 -0.2251  0.5051
31113TIP3    H194221  10.435  10.063  10.943  2.0212  0.9503  0.2590
31113TIP3    H294222  10.505   9.964  10.852 -1.2374 -1.5472  0.2783
31114TIP3   OH294223   5.493   1.861   7.946 -0.0917 -0.1404 -0.3616
31114TIP3    H194224   5.562   1.827   7.890  1.0956 -0.4793  1.2109
31114TIP3    H294225   5.522   1.950   7.969 -0.4042 -0.1112 -0.0660
31115TIP3   OH294226   2.594   8.357   9.786 -0.5076  0.1910 -0.0199
31115TIP3    H194227   2.665   8.383   9.844  0.1790  1.6047 -1.4045
31115TIP3    H294228   2.515   8.384   9.831 -0.0421  0.5255  0.6162
31116TIP3   OH294229   2.537   7.296   9.659 -0.1585 -0.0364 -0.0698
31116TIP3    H194230   2.580   7.363   9.712 -0.4158 -0.0725  0.1893
31116TIP3    H294231   2.490   7.242   9.723 -0.5760 -0.0053 -0.3478
31117TIP3   OH294232   3.782   5.648   8.836 -0.0710  0.2656 -0.1214
31117TIP3    H194233   3.815   5.694   8.759 -0.1241  0.0483 -0.2752
31117TIP3    H294234   3.688   5.638   8.820 -0.0296 -0.0554 -0.1741
31118TIP3   OH294235   7.681   3.935   8.292 -0.3904  0.3609  0.4620
31118TIP3    H194236   7.603   3.880   8.301 -0.4404  0.4869  0.8153
31118TIP3    H294237   7.650   4.024   8.307 -0.5269  0.6278 -1.2240
31119TIP3   OH294238   6.186  10.668   8.591 -0.2715  0.1289  0.3660
31119TIP3    H194239   6.243  10.675   8.515  1.6929  0.0170  1.7302
31119TIP3    H294240   6.182  10.756   8.627 -0.5463  0.0367  0.5686
31120TIP3   OH294241   2.577   0.855   8.623  0.1374  0.3260 -0.2760
31120TIP3    H194242   2.672   0.846   8.624  0.0507 -0.6200  0.3301
31120TIP3    H294243   2.558   0.900   8.541  0.9785 -0.9673 -1.2182
31121TIP3   OH294244   8.933   6.570   4.546 -0.3159  0.0526  0.2240
31121TIP3    H194245   8.937   6.594   4.454  0.8803 -1.5174 -0.1782
31121TIP3    H294246   8.907   6.478   4.546 -0.7718  0.1576  1.4946
31122TIP3   OH294247   6.264   3.719   7.651 -0.2220 -0.0108  0.4027
31122TIP3    H194248   6.344   3.670   7.637 -0.7303 -0.9552  0.7334
31122TIP3    H294249   6.279   3.766   7.733  0.4510  0.7919 -0.1628
31123TIP3   OH294250   2.767   6.752  10.526 -0.5051  0.3472  0.3261
31123TIP3    H194251   2.743   6.791  10.442 -0.1913 -0.6016 -0.2167
31123TIP3    H294252   2.723   6.807  10.591 -0.9395  0.9590 -0.4657
31124TIP3   OH294253  10.224   7.927   3.320 -0.3580  0.5453 -0.4653
31124TIP3    H194254  10.137   7.959   3.343  0.0167  0.0942  1.7882
31124TIP3    H294255  10.266   7.910   3.404  0.7036 -2.4818 -1.4977
31125TIP3   OH294256   9.825   9.917  10.842 -0.3927  0.3485 -0.3052
31125TIP3    H194257   9.796   9.994  10.890 -1.5464 -0.2180 -0.0655
31125TIP3    H294258   9.919   9.931  10.829 -0.2521  0.9762  1.2425
31126TIP3   OH294259   8.257   1.090   9.708  0.0817  0.1177 -0.1382
31126TIP3    H194260   8.227   1.014   9.757  1.0531  0.9233  1.8483
31126TIP3    H294261   8.337   1.060   9.664 -0.2595 -0.3674 -0.4274
31127TIP3   OH294262   0.037  10.074   1.120 -0.1812  0.1371  0.0145
31127TIP3    H194263   0.026  10.167   1.140  1.0686  0.8670 -2.3564
31127TIP3    H294264   0.129  10.057   1.137 -0.4114 -0.7084  0.4600
31128TIP3   OH294265   3.587   4.856   1.860 -0.1767 -0.1549 -0.0896
31128TIP3    H194266   3.501   4.848   1.820 -0.6469  1.8635  0.4209
31128TIP3    H294267   3.585   4.940   1.906  0.7342 -1.7160  3.1488
31129TIP3   OH294268   2.212   1.113   9.770  0.1330 -0.3719 -0.4332
31129TIP3    H194269   2.243   1.134   9.858  2.4389 -0.0751 -1.2365
31129TIP3    H294270   2.138   1.172   9.756  0.9280  0.9490  0.6260
31130TIP3   OH294271   2.337   6.983   2.286  0.1275  0.0636  0.0193
31130TIP3    H194272   2.412   6.995   2.228 -0.0982  0.4666 -0.1946
31130TIP3    H294273   2.295   6.903   2.255  0.8215 -0.5220  0.5384
31131TIP3   OH294274   7.780   5.646   8.898  0.2349 -0.1909 -0.3973
31131TIP3    H194275   7.871   5.637   8.926  0.5082  1.1721 -0.7601
31131TIP3    H294276   7.728   5.623   8.976  0.9435  1.2694  0.5637
31132TIP3   OH294277   7.656   4.833   3.240  0.2759  0.0015 -0.0169
31132TIP3    H194278   7.638   4.866   3.328  1.1577  0.8026 -0.1226
31132TIP3    H294279   7.749   4.807   3.242  0.3518  0.1861 -0.7516
31133TIP3   OH294280   3.468   8.701   5.759  0.3546  0.3289 -0.0111
31133TIP3    H194281   3.541   8.639   5.758  1.0423  1.1254 -1.0177
31133TIP3    H294282   3.390   8.646   5.749  0.9509 -0.3924 -0.8590
31134TIP3   OH294283   0.811   2.451   2.039 -0.3399  0.0562 -0.7777
31134TIP3    H194284   0.742   2.418   1.982 -2.1042  0.2997  1.1095
31134TIP3    H294285   0.801   2.546   2.037 -0.8203  0.0490  0.3557
31135TIP3   OH294286  10.695   2.693   5.270 -0.7088 -0.0531  0.3979
31135TIP3    H194287  10.640   2.659   5.340 -2.3328  0.9187 -0.3575
31135TIP3    H294288  10.636   2.743   5.215  0.6803 -0.1396 -1.2549
31136TIP3   OH294289   6.278   4.396   7.680 -0.4300  0.0730 -0.5473
31136TIP3    H194290   6.199   4.354   7.714  0.9709 -0.8598  1.7732
31136TIP3    H294291   6.251   4.485   7.657 -1.8707  0.2122  1.4691
31137TIP3   OH294292   8.645   0.125   4.235  0.7622  0.7047 -0.4713
31137TIP3    H194293   8.592   0.071   4.178 -1.4815  1.4108  0.8162
31137TIP3    H294294   8.656   0.208   4.187  1.6961  0.1823 -1.1972
31138TIP3   OH294295   4.498   3.638   1.726  0.0923  0.4523  0.4287
31138TIP3    H194296   4.412   3.680   1.721  0.0362  0.3414  0.4618
31138TIP3    H294297   4.483   3.557   1.775  0.0380 -0.0293 -0.3773
31139TIP3   OH294298   5.233   9.845   3.318  0.0942  0.4700 -0.0299
31139TIP3    H194299   5.205   9.937   3.314 -0.0746  0.3945 -3.1148
31139TIP3    H294300   5.329   9.850   3.315  0.1640  0.5383  1.5811
31140TIP3   OH294301   9.840   2.726   9.438 -0.2109 -0.3748 -0.1954
31140TIP3    H194302   9.780   2.768   9.377 -3.0064 -1.6575  1.4944
31140TIP3    H294303   9.826   2.632   9.425  1.2691 -0.7197  0.4607
31141TIP3   OH294304   7.158   3.542   0.248  0.1108  0.0216  0.7588
31141TIP3    H194305   7.218   3.539   0.174 -1.7151 -0.5298 -0.7726
31141TIP3    H294306   7.190   3.476   0.309 -0.1122 -1.7593 -0.9860
31142TIP3   OH294307   8.568   2.222   6.787 -0.5504  0.0617  0.3050
31142TIP3    H194308   8.479   2.196   6.810 -0.1474 -2.2696 -0.5084
31142TIP3    H294309   8.576   2.312   6.819 -2.7714 -0.1040  1.5015
31143TIP3   OH294310   2.038   2.467   9.636  0.1559  0.7659  0.5685
31143TIP3    H194311   2.047   2.463   9.541  2.3876  0.5993  0.7468
31143TIP3    H294312   1.943   2.476   9.650 -0.4151 -0.8902 -1.5893
31144TIP3   OH294313   8.936  10.021   2.112  0.5969  0.0514  0.7762
31144TIP3    H194314   8.959   9.967   2.036 -0.4494  1.7350 -0.8209
31144TIP3    H294315   8.934  10.110   2.078  1.2073  1.0063  3.0772
31145TIP3   OH294316   7.457   5.003   3.084 -0.2091  0.2081  0.1210
31145TIP3    H194317   7.398   4.950   3.031  1.9503  0.0801 -2.3689
31145TIP3    H294318   7.521   4.940   3.119 -0.6747  0.5239  1.6130
31146TIP3   OH294319   3.243   3.141   5.476 -0.4851 -0.3864 -0.0937
31146TIP3    H194320   3.184   3.102   5.539 -1.9071 -0.3872 -1.3752
31146TIP3    H294321   3.216   3.105   5.391  2.6579 -2.0078 -0.5669
31147TIP3   OH294322   5.944   8.772   9.035 -0.5084  0.5514 -0.0503
31147TIP3    H194323   5.995   8.837   8.987 -1.7211  1.5599 -0.0147
31147TIP3    H294324   6.005   8.699   9.048  1.4264  2.3048  1.3562
31148TIP3   OH294325   9.431   5.906   3.544 -0.2795  0.0905  0.1801
31148TIP3    H194326   9.351   5.867   3.579 -0.3817  1.6125  1.7994
31148TIP3    H294327   9.473   5.946   3.621  1.5450  0.1415 -0.8076
31149TIP3   OH294328   5.153   3.785   2.307 -0.2435 -0.3321  0.5335
31149TIP3    H194329   5.139   3.833   2.226 -0.7258  0.2074  0.9309
31149TIP3    H294330   5.121   3.843   2.376  0.3329 -0.7005  1.1324
31150TIP3   OH294331   5.636   7.400   3.530  0.1603 -0.1868 -0.0374
31150TIP3    H194332   5.624   7.447   3.612  2.3887 -1.1377  0.8939
31150TIP3    H294333   5.646   7.309   3.555  0.4361 -0.5653 -1.4245
31151TIP3   OH294334   8.474   1.338   6.273 -0.0822 -0.8949  0.1348
31151TIP3    H194335   8.411   1.279   6.231 -1.0994  0.2487  0.0210
31151TIP3    H294336   8.552   1.284   6.285 -1.0636 -2.3408  0.2584
31152TIP3   OH294337   9.772   4.488   2.114 -0.4406 -0.5472 -0.0110
31152TIP3    H194338   9.858   4.459   2.082 -0.0985  0.5003 -0.0728
31152TIP3    H294339   9.763   4.446   2.199 -0.3503 -1.5330 -0.4734
31153TIP3   OH294340   7.155   1.608   3.784 -0.0047  0.4847 -0.0887
31153TIP3    H194341   7.137   1.602   3.691 -0.6716  1.4137 -0.0308
31153TIP3    H294342   7.079   1.567   3.826  0.1210  0.4035  0.0621
31154TIP3   OH294343   0.296   4.639  10.059  0.1073 -0.1100  0.1697
31154TIP3    H194344   0.309   4.593  10.142 -0.1766  0.1974  0.3844
31154TIP3    H294345   0.298   4.570   9.993  2.5024 -0.1584  0.1991
31155TIP3   OH294346   8.796   4.031  10.092 -0.1958  0.0386  0.1609
31155TIP3    H194347   8.867   3.978  10.057 -0.2390  0.7287 -1.0303
31155TIP3    H294348   8.837   4.116  10.112  0.2778 -0.8445  3.6617
31156TIP3   OH294349   9.589   6.441   3.081  0.2198  0.0018  0.1526
31156TIP3    H194350   9.551   6.448   2.993 -0.3048 -1.0250  0.2796
31156TIP3    H294351   9.636   6.523   3.094 -0.6862  0.6552 -0.6198
31157TIP3   OH294352   4.743   0.648  10.436  0.1652 -1.0812 -0.1064
31157TIP3    H194353   4.766   0.558  10.456  1.5661 -0.6028  0.6322
31157TIP3    H294354   4.761   0.658  10.343 -1.9206 -2.0672 -0.6713
31158TIP3   OH294355   5.381   5.393   0.834 -0.6385 -0.4006 -0.1321
31158TIP3    H194356   5.425   5.339   0.899 -1.5497 -1.3491 -0.2735
31158TIP3    H294357   5.451   5.433   0.783  0.2032  1.6927  2.4131
31159TIP3   OH294358   8.377   8.739   3.601 -0.3223 -0.1077 -0.6340
31159TIP3    H194359   8.334   8.777   3.677 -0.5709 -0.5080 -0.5696
31159TIP3    H294360   8.319   8.667   3.574  1.5918 -2.4855  1.1001
31160TIP3   OH294361   2.574   0.323   4.999  0.0542  0.2045 -0.1122
31160TIP3    H194362   2.571   0.252   4.935 -1.1952 -1.6896  1.8568
31160TIP3    H294363   2.586   0.403   4.948 -0.8044 -1.1874 -2.6382
31161TIP3   OH294364   9.920   1.978   9.239  0.8027 -0.5921 -0.0532
31161TIP3    H194365   9.921   2.024   9.323 -3.4237 -0.6383  0.2600
31161TIP3    H294366   9.961   2.039   9.178  0.2535  1.2686  1.3373
31162TIP3   OH294367   5.749   8.753   5.188  0.3615 -0.5763  0.1943
31162TIP3    H194368   5.689   8.691   5.147  1.1067 -1.4001  0.3374
31162TIP3    H294369   5.763   8.820   5.121  2.1774 -2.3009 -1.2842
31163TIP3   OH294370   2.094   8.414   2.422  0.1918  0.5351 -0.0000
31163TIP3    H194371   2.106   8.479   2.491  0.1806  2.6487 -1.8683
31163TIP3    H294372   2.120   8.331   2.463  1.2893  1.8415  2.1789
31164TIP3   OH294373   2.322   2.923   7.686  0.3794 -0.5204  0.1752
31164TIP3    H194374   2.302   2.970   7.767  0.9289 -1.5257  0.9139
31164TIP3    H294375   2.310   2.988   7.617 -2.5713 -0.2769  0.7984
31165TIP3   OH294376   7.243   9.376   6.427  0.0593 -0.3641  0.5395
31165TIP3    H194377   7.175   9.414   6.483  0.8961  2.2342 -0.0376
31165TIP3    H294378   7.217   9.401   6.338  0.3373 -1.7622  0.0506
31166TIP3   OH294379   7.764   7.248   0.128  0.3678 -0.3127 -0.5392
31166TIP3    H194380   7.720   7.259   0.044 -0.1971  0.5928 -0.1412
31166TIP3    H294381   7.771   7.337   0.163  1.9351 -0.4986 -0.2920
31167TIP3   OH294382   4.114   1.825   7.141  0.7980  0.7116 -0.5322
31167TIP3    H194383   4.057   1.794   7.070  0.2082 -0.0428  0.2432
31167TIP3    H294384   4.162   1.747   7.168  0.9083  0.9583 -0.0025
31168TIP3   OH294385   8.106   3.305   0.418 -0.0178  0.3784 -0.0806
31168TIP3    H194386   8.198   3.282   0.408 -0.3171 -0.1337 -2.2407
31168TIP3    H294387   8.107   3.392   0.459  1.3816  0.0850  0.5535
31169TIP3   OH294388   4.810   0.076   0.537  0.3157 -0.4182 -0.4408
31169TIP3    H194389   4.903   0.097   0.537  0.2193  0.0223 -0.2692
31169TIP3    H294390   4.774   0.126   0.610  0.4759 -3.0194  1.5557
31170TIP3   OH294391   0.029   3.252  10.227  0.1725 -0.5477 -0.1305
31170TIP3    H194392   0.099   3.291  10.176  0.4724 -0.1754  0.5611
31170TIP3    H294393   0.032   3.297  10.312 -2.0316  0.7347 -0.6641
31171TIP3   OH294394   9.125   6.667   5.357 -0.1875  0.4188 -0.1308
31171TIP3    H194395   9.047   6.697   5.403  0.0103 -0.3017  0.6998
31171TIP3    H294396   9.148   6.585   5.400 -0.4390 -0.7085 -2.0498
31172TIP3   OH294397  10.265   7.554   9.693  0.2762  0.5306  0.5615
31172TIP3    H194398  10.200   7.613   9.654  0.4401  1.4054  1.5666
31172TIP3    H294399  10.297   7.601   9.770  1.8649 -0.0255  0.2844
31173TIP3   OH294400   5.429   2.134   4.503  0.2216 -0.2767 -0.2471
31173TIP3    H194401   5.427   2.103   4.412 -2.4542  0.3465 -0.4871
31173TIP3    H294402   5.351   2.096   4.543  0.2619  1.0981  1.2110
31174TIP3   OH294403   1.612   6.583   5.325  0.0184 -0.7610 -0.2811
31174TIP3    H194404   1.615   6.487   5.328 -0.5961 -0.7734  0.0846
31174TIP3    H294405   1.662   6.611   5.402 -0.9388 -0.8219  0.3908
31175TIP3   OH294406  10.080  10.412   9.371 -0.6782  0.4801 -0.3819
31175TIP3    H194407  10.063  10.462   9.450 -1.0077 -1.9032  1.1505
31175TIP3    H294408  10.066  10.475   9.300 -0.3059  2.7226  1.3989
31176TIP3   OH294409   9.339   3.196   7.683  0.4919 -0.2826  0.1551
31176TIP3    H194410   9.247   3.193   7.655  0.4326 -0.0974  0.3262
31176TIP3    H294411   9.381   3.253   7.618  0.3687  0.0920  0.3985
31177TIP3   OH294412   6.283   1.610   1.901 -0.5429 -0.0062  0.0646
31177TIP3    H194413   6.278   1.567   1.986  0.7462 -0.9370 -0.2856
31177TIP3    H294414   6.228   1.557   1.844 -1.3541  0.5797  0.2779
31178TIP3   OH294415  10.450   2.293  10.264  0.3805  0.2417  0.3118
31178TIP3    H194416  10.473   2.380  10.297 -0.4191  0.9726 -0.9570
31178TIP3    H294417  10.530   2.241  10.276  0.7345  1.0087  1.4880
31179TIP3   OH294418   9.378   6.868   3.722 -1.2624 -0.2457  0.3210
31179TIP3    H194419   9.362   6.824   3.805 -1.9535 -1.5735 -0.4877
31179TIP3    H294420   9.446   6.817   3.680 -2.0135 -0.5248 -0.5960
31180TIP3   OH294421   9.299   3.896   2.778  0.1029  0.4610  0.2267
31180TIP3    H194422   9.280   3.817   2.728  1.2301  0.5997 -0.4351
31180TIP3    H294423   9.392   3.890   2.800 -0.2730  0.5787  2.0157
31181TIP3   OH294424   5.932   4.118   5.538  0.1110  0.0844  0.1281
31181TIP3    H194425   5.871   4.114   5.611  2.7140 -0.9344  2.4193
31181TIP3    H294426   5.927   4.032   5.497  0.1308 -0.0548  0.4196
31182TIP3   OH294427   9.315  10.684   7.067 -1.0006  0.4698  0.1283
31182TIP3    H194428   9.278  10.747   7.129  0.2622  0.6078  0.7648
31182TIP3    H294429   9.325  10.733   6.986  1.5909  1.6785  1.0683
31183TIP3   OH294430   4.191   8.365   4.829  0.5528 -0.3720  0.3099
31183TIP3    H194431   4.213   8.332   4.742 -1.3164 -1.2161  0.1135
31183TIP3    H294432   4.229   8.453   4.832  1.2422 -0.5956 -1.0813
31184TIP3   OH294433   9.681   1.828   5.961 -0.3685 -0.1422  0.2300
31184TIP3    H194434   9.686   1.840   6.056 -0.1146 -2.0810  0.4950
31184TIP3    H294435   9.592   1.854   5.938  0.1499  2.2564  0.6553
31185TIP3   OH294436   8.332   7.311   7.719  0.2498  0.3739  0.6725
31185TIP3    H194437   8.252   7.325   7.668 -0.4269  0.6302  1.7635
31185TIP3    H294438   8.400   7.357   7.670 -0.1756 -0.2430 -0.5154
31186TIP3   OH294439   3.811   0.242   3.534 -0.4771  0.8049 -0.2168
31186TIP3    H194440   3.896   0.215   3.570 -0.5814 -1.3344 -1.4552
31186TIP3    H294441   3.789   0.322   3.584  0.2572 -0.8862  3.1397
31187TIP3   OH294442   0.516   0.134   5.700 -0.4921  0.0974  0.2545
31187TIP3    H194443   0.561   0.132   5.615  0.0190  0.0981  0.5230
31187TIP3    H294444   0.577   0.178   5.759 -1.5627  1.6901  0.2243
31188TIP3   OH294445   3.690  10.730   6.833 -0.2990  0.3351  0.2725
31188TIP3    H194446   3.750  10.770   6.895  0.1228 -0.2717  0.2628
31188TIP3    H294447   3.630  10.801   6.808  0.2325  0.8709  0.4980
31189TIP3   OH294448   0.783   3.046   7.560  0.3403 -0.0414  0.5549
31189TIP3    H194449   0.834   2.981   7.513  1.5522  0.1225  1.5847
31189TIP3    H294450   0.808   3.130   7.522  0.1881 -0.0264  0.4851
31190TIP3   OH294451   1.169   2.153  10.457 -0.0875 -0.8424  0.1260
31190TIP3    H194452   1.231   2.116  10.519  0.3251 -1.3123 -0.5463
31190TIP3    H294453   1.092   2.175  10.509 -0.3299 -2.6124  0.5792
31191TIP3   OH294454   5.621   0.992   4.473  0.2612 -0.3368 -0.1839
31191TIP3    H194455   5.607   0.900   4.450 -0.3925 -0.3300  0.1674
31191TIP3    H294456   5.700   1.016   4.425  0.2980 -1.0083 -0.4833
31192TIP3   OH294457   3.705   0.390   2.875  0.2619  0.2106  0.3493
31192TIP3    H194458   3.756   0.309   2.876  1.0961  0.7256  1.4406
31192TIP3    H294459   3.647   0.382   2.951 -2.1355 -0.8530 -1.4829
31193TIP3   OH294460   8.726  10.453   2.901  0.5812  0.0459  0.6485
31193TIP3    H194461   8.778  10.475   2.824 -1.2507  1.0465 -0.3956
31193TIP3    H294462   8.635  10.470   2.873 -0.3089 -1.5929  2.3555
31194TIP3   OH294463   2.978   1.227   1.148 -0.3102 -0.0990 -0.2020
31194TIP3    H194464   2.890   1.220   1.111  0.4785 -0.1139 -2.2392
31194TIP3    H294465   2.997   1.141   1.184 -0.5622 -0.5622 -1.1554
31195TIP3   OH294466   0.295   3.108  10.299  0.5225  0.8678 -0.1450
31195TIP3    H194467   0.375   3.061  10.274 -0.5953 -0.3275 -1.6537
31195TIP3    H294468   0.246   3.118  10.217 -1.7870 -0.2103  0.9983
31196TIP3   OH294469   7.557   6.888   8.351  0.3850 -0.3348  0.1843
31196TIP3    H194470   7.644   6.926   8.362  0.5322 -0.1785 -1.2805
31196TIP3    H294471   7.535   6.854   8.437  2.0969 -0.7932  0.4949
31197TIP3   OH294472   8.432   8.127   1.186 -0.1194  0.6747 -0.1124
31197TIP3    H194473   8.409   8.166   1.102 -1.4015 -1.0258 -0.6049
31197TIP3    H294474   8.406   8.036   1.178  0.5777  0.2577  1.8237
31198TIP3   OH294475  10.851   9.085   5.441 -0.0607  0.0537  0.2523
31198TIP3    H194476  10.880   9.085   5.532  1.6931 -0.7289 -0.2586
31198TIP3    H294477  10.887   9.166   5.404 -0.1351  0.0067  0.0766
31199TIP3   OH294478   7.416   1.595   1.012 -0.0754 -0.2872  0.0760
31199TIP3    H194479   7.416   1.652   1.089 -2.1559 -0.2448  0.1005
31199TIP3    H294480   7.493   1.539   1.024  1.9240  2.3128  0.1461
31200TIP3   OH294481   5.337   5.965   7.651  0.5021  0.4559  0.0541
31200TIP3    H194482   5.405   5.920   7.702 -1.7842 -1.1330  1.9228
31200TIP3    H294483   5.293   6.022   7.715 -1.0959  0.0256 -0.6056
31201TIP3   OH294484   7.422   7.728   6.815 -0.5199 -0.2088  0.1570
31201TIP3    H194485   7.476   7.693   6.743 -0.2898  1.6641 -0.6296
31201TIP3    H294486   7.472   7.706   6.894 -0.6790 -2.1375 -0.2214
31202TIP3   OH294487   1.615   1.146   6.895  0.3128  0.2103 -0.0530
31202TIP3    H194488   1.533   1.153   6.944  0.1814  0.1172 -0.2582
31202TIP3    H294489   1.598   1.193   6.813 -0.5593 -2.3286 -1.4435
31203TIP3   OH294490   2.753   5.055   3.219 -0.0479  0.2451 -0.2633
31203TIP3    H194491   2.839   5.046   3.177 -0.6034 -2.0237 -1.0240
31203TIP3    H294492   2.772   5.049   3.313  0.5777 -0.9530 -0.4453
31204TIP3   OH294493  10.804   2.381   4.780 -0.1198  0.5551 -0.1705
31204TIP3    H194494  10.760   2.452   4.827 -1.5467  0.2911 -1.0626
31204TIP3    H294495  10.875   2.355   4.839  0.4276  2.6676  0.2203
31205TIP3   OH294496   4.613   9.705   0.772  0.3220  0.2603  0.4442
31205TIP3    H194497   4.597   9.799   0.780  0.2311  0.2714  0.1489
31205TIP3    H294498   4.611   9.689   0.677 -1.9215 -0.3987  0.5395
31206TIP3   OH294499   6.674   8.188   3.883 -0.0015 -0.2244  0.3422
31206TIP3    H194500   6.769   8.190   3.894  0.1992  0.4019 -1.3828
31206TIP3    H294501   6.659   8.120   3.817 -0.7765 -0.4085  0.6940
31207TIP3   OH294502   9.949   4.809   9.912  0.0371 -0.3488  0.4108
31207TIP3    H194503  10.018   4.743   9.909  1.3991  1.0323 -0.4492
31207TIP3    H294504   9.931   4.828   9.820  0.2122  0.9665  0.6214
31208TIP3   OH294505   3.811   5.168   1.759 -0.1853 -0.1251 -0.4444
31208TIP3    H194506   3.722   5.181   1.791  0.3911 -0.9135  1.6362
31208TIP3    H294507   3.851   5.107   1.821  2.1029  0.9119 -0.7755
31209TIP3   OH294508   2.857   3.687   1.933  0.2909 -0.0919 -0.6267
31209TIP3    H194509   2.874   3.595   1.917 -1.3826 -0.1125 -2.7473
31209TIP3    H294510   2.805   3.689   2.013  2.2039 -0.7226  0.7126
31210TIP3   OH294511   7.606   1.086   4.528 -0.3027 -0.0019 -0.0075
31210TIP3    H194512   7.633   1.176   4.547 -1.1567  0.2269  0.1490
31210TIP3    H294513   7.597   1.045   4.614  0.6436 -0.4204 -0.0895
31211TIP3   OH294514   7.668   2.746   9.410  0.2962 -0.2585  0.1502
31211TIP3    H194515   7.628   2.729   9.324 -0.7944  3.0477 -0.1426
31211TIP3    H294516   7.758   2.716   9.400 -0.5241 -2.6282 -1.1148
31212TIP3   OH294517   5.988   7.677  10.592  0.2496  0.3132  0.1962
31212TIP3    H194518   5.952   7.597  10.552 -0.3859  0.9241 -0.4748
31212TIP3    H294519   5.912   7.735  10.600  0.9524  1.3669 -0.5863
31213TIP3   OH294520   3.211   8.346   1.880  0.1639 -0.4151 -0.0250
31213TIP3    H194521   3.232   8.343   1.973 -0.1297  0.1557  0.0597
31213TIP3    H294522   3.293   8.375   1.838 -0.1086  0.7309  0.2000
31214TIP3   OH294523   7.074  10.352   9.283 -0.0945 -0.1116 -0.2986
31214TIP3    H194524   7.116  10.351   9.369  0.1800  1.7601 -0.3554
31214TIP3    H294525   6.981  10.362   9.303  0.0139  0.7985 -0.1995
31215TIP3   OH294526   0.286   4.882   3.886 -0.0360 -1.0389  0.3333
31215TIP3    H194527   0.323   4.950   3.830 -2.5161  0.3013  0.1964
31215TIP3    H294528   0.319   4.904   3.974  0.5112 -0.6383  0.0333
31216TIP3   OH294529   5.883   5.540  10.592 -0.1396 -0.1941  0.2397
31216TIP3    H194530   5.912   5.487  10.519 -1.0698 -0.1326 -0.1966
31216TIP3    H294531   5.928   5.623  10.581 -0.5237 -0.0678 -0.4696
31217TIP3   OH294532   9.616   9.852   1.490  0.7667 -0.2118  0.6202
31217TIP3    H194533   9.560   9.927   1.511  0.8611  0.2708 -0.7234
31217TIP3    H294534   9.584   9.822   1.405  0.5379 -1.9004  1.2676
31218TIP3   OH294535   8.369   6.381   8.434  0.5768 -0.3105  0.6024
31218TIP3    H194536   8.402   6.413   8.519  0.2542 -0.4060  0.7667
31218TIP3    H294537   8.385   6.287   8.436  0.7404 -0.2856  0.4772
31219TIP3   OH294538   4.554   7.047   0.677 -0.0722 -0.1218 -0.3007
31219TIP3    H194539   4.644   7.065   0.651  0.1313 -0.7180 -0.0360
31219TIP3    H294540   4.540   7.100   0.755  0.8498 -1.7667  1.0682
31220TIP3   OH294541   7.561   7.801   5.669  0.1728  0.1537  0.0908
31220TIP3    H194542   7.547   7.882   5.620  2.7638  0.3141 -0.5531
31220TIP3    H294543   7.602   7.830   5.751  2.8396 -0.4956 -0.9048
31221TIP3   OH294544   0.468   7.331   2.216 -0.5671  0.0604  0.2023
31221TIP3    H194545   0.428   7.245   2.230 -0.6830  0.0340 -0.2786
31221TIP3    H294546   0.548   7.313   2.165 -0.4530  0.2108  0.3265
31222TIP3   OH294547   1.783   5.379   6.468 -0.5920 -0.6907  0.0596
31222TIP3    H194548   1.847   5.338   6.409 -0.8651  0.3197 -0.9863
31222TIP3    H294549   1.776   5.319   6.542  0.8285 -1.3060 -0.2723
31223TIP3   OH294550   7.641   3.083   2.421 -0.0404 -0.0028  0.0396
31223TIP3    H194551   7.657   3.050   2.509  0.2403  1.0701  0.4181
31223TIP3    H294552   7.589   3.163   2.434  1.3197  1.0456 -0.6204
31224TIP3   OH294553  10.055  10.613   0.523 -0.2578 -0.0546  0.4958
31224TIP3    H194554  10.077  10.538   0.467 -0.3095 -0.2410  0.7258
31224TIP3    H294555  10.062  10.689   0.465  1.9174  0.0025  0.7596
31225TIP3   OH294556   6.975   2.466  10.817  0.0314 -0.5628  0.1482
31225TIP3    H194557   6.930   2.481  10.900  1.9342  0.2476  1.1136
31225TIP3    H294558   7.068   2.481  10.837  0.4920  0.4320 -2.3093
31226TIP3   OH294559   7.023   3.767   3.924  0.3675  0.0799 -0.0381
31226TIP3    H194560   6.944   3.766   3.978 -1.6317 -0.9892 -2.7417
31226TIP3    H294561   7.037   3.674   3.902  0.9703  0.4782 -1.4494
31227TIP3   OH294562   9.134   1.488   7.073  0.1714 -0.3064  0.0384
31227TIP3    H194563   9.219   1.507   7.033 -0.2004 -0.4264 -0.8241
31227TIP3    H294564   9.128   1.548   7.146  1.1423 -0.5136  0.3097
31228TIP3   OH294565   6.981   9.890   3.668  0.5414  0.0807 -0.0034
31228TIP3    H194566   7.045   9.864   3.602  0.0699  0.8844 -0.7862
31228TIP3    H294567   6.982   9.985   3.667 -0.6257  0.1092  0.0164
31229TIP3   OH294568   2.463   3.887   3.063 -0.3664  0.1553  0.2428
31229TIP3    H194569   2.413   3.860   3.141 -0.0676  2.5246  1.3329
31229TIP3    H294570   2.460   3.982   3.065  0.1097  0.2835 -2.4118
31230TIP3   OH294571   9.445   0.583   1.126 -0.1275 -0.5967  0.4523
31230TIP3    H194572   9.476   0.520   1.062 -0.9369  0.2028 -0.7714
31230TIP3    H294573   9.400   0.531   1.192  0.6512 -1.4265  0.3364
31231TIP3   OH294574   8.198   9.887   1.302 -0.6222  0.4978  0.7860
31231TIP3    H194575   8.218   9.977   1.276 -1.1653  1.2528  2.7787
31231TIP3    H294576   8.135   9.856   1.237 -0.8381  1.7610  0.3733
31232TIP3   OH294577   2.637   5.023  10.817  0.1683  0.3008  0.8879
31232TIP3    H194578   2.710   5.001  10.874  0.0033  0.9551  1.3604
31232TIP3    H294579   2.659   4.982  10.733  0.4116 -0.6685  1.4091
31233TIP3   OH294580   0.507   8.646   3.276 -0.3245 -0.2786 -0.2756
31233TIP3    H194581   0.412   8.643   3.270 -0.2342 -2.2553 -3.4978
31233TIP3    H294582   0.535   8.556   3.259  2.1709 -0.2967  2.9420
31234TIP3   OH294583   6.259   3.432   8.257  0.0917 -0.3097  0.4465
31234TIP3    H194584   6.209   3.389   8.327 -1.8079 -0.0502 -0.6852
31234TIP3    H294585   6.243   3.379   8.179  1.8262 -0.3469  0.0877
31235TIP3   OH294586   2.734   8.255   6.042  0.6980 -0.1953  0.0890
31235TIP3    H194587   2.776   8.190   5.985  3.2000 -0.0983  1.6755
31235TIP3    H294588   2.743   8.338   5.995  2.1542 -0.2186  0.2825
31236TIP3   OH294589   7.570   6.046   2.144 -0.1484  0.3449  0.1441
31236TIP3    H194590   7.637   6.062   2.077  1.0021 -0.3417  1.0904
31236TIP3    H294591   7.502   6.110   2.125  1.4868  2.1854  0.1023
31237TIP3   OH294592   3.541   5.442   3.388 -0.2132  0.1876  0.5084
31237TIP3    H194593   3.569   5.484   3.469  0.1026 -1.4700  1.3100
31237TIP3    H294594   3.597   5.364   3.381 -1.6326 -0.8164 -0.1984
31238TIP3   OH294595   5.000   1.715   3.818  0.2393 -0.1589 -0.2724
31238TIP3    H194596   4.979   1.626   3.789 -1.3202 -0.0377  0.3679
31238TIP3    H294597   5.095   1.717   3.825  0.3364 -1.5450 -1.0303
31239TIP3   OH294598   6.513   3.615   6.061 -0.3101  0.3605  0.0907
31239TIP3    H194599   6.453   3.546   6.030  0.5880 -0.2573 -0.3361
31239TIP3    H294600   6.523   3.598   6.154 -0.4674  0.2025  0.0795
31240TIP3   OH294601   1.306   2.831   9.587 -0.0196 -0.4013  0.2546
31240TIP3    H194602   1.257   2.833   9.504  0.6744  0.4401 -0.1603
31240TIP3    H294603   1.282   2.913   9.631  1.3343  0.2562 -0.1708
31241TIP3   OH294604   9.492   9.232   3.138 -0.0573 -0.8055  0.2952
31241TIP3    H194605   9.554   9.304   3.125 -0.2524 -0.8057 -0.7982
31241TIP3    H294606   9.512   9.170   3.067 -1.9478 -0.3355 -0.7134
31242TIP3   OH294607   4.383   8.509   3.330 -0.3165 -0.8312  0.2891
31242TIP3    H194608   4.290   8.495   3.311 -0.4723 -0.7163  0.9267
31242TIP3    H294609   4.390   8.602   3.349  0.0342 -0.7344 -0.2933
31243TIP3   OH294610   4.720   1.887  10.073  0.1968 -0.7257 -0.4378
31243TIP3    H194611   4.723   1.851  10.162 -1.1685 -0.3980 -0.2400
31243TIP3    H294612   4.650   1.952  10.075  0.5030 -0.3266 -1.6248
31244TIP3   OH294613   8.984   2.397   1.593  0.8436 -0.6920  0.4826
31244TIP3    H194614   8.976   2.346   1.674 -0.1700 -0.8584  0.2949
31244TIP3    H294615   9.072   2.432   1.596  0.2948  0.7120  2.5214
31245TIP3   OH294616   6.727   7.744   3.545 -0.7767  0.0899 -0.8282
31245TIP3    H194617   6.754   7.755   3.453 -3.7255 -0.2908 -1.8471
31245TIP3    H294618   6.755   7.656   3.568 -1.0411 -0.2529 -1.7798
31246TIP3   OH294619   8.429   7.743   6.878 -0.3055  0.0410 -0.2893
31246TIP3    H194620   8.478   7.669   6.843  0.0909  0.3638 -0.4212
31246TIP3    H294621   8.433   7.809   6.809  0.2822  0.5958  0.2718
31247TIP3   OH294622  10.099   5.229   4.905  0.0036 -0.0814 -0.6074
31247TIP3    H194623  10.132   5.169   4.972  2.8338  0.8278 -1.0546
31247TIP3    H294624  10.063   5.172   4.837 -0.7042 -1.1017  0.5804
31248TIP3   OH294625   9.520   1.757   2.781 -0.4462  0.5020  0.0106
31248TIP3    H194626   9.425   1.758   2.793 -0.3977  0.7831  0.3871
31248TIP3    H294627   9.540   1.666   2.757 -1.0216  0.8250 -1.8908
31249TIP3   OH294628   4.616   7.868   4.016  0.3147  0.1709 -0.2966
31249TIP3    H194629   4.570   7.785   4.028  0.1300  0.3462  0.2541
31249TIP3    H294630   4.628   7.876   3.921 -1.5571  0.5294 -0.5353
31250TIP3   OH294631   4.210   7.409   1.526 -0.2994  0.2037  1.0080
31250TIP3    H194632   4.188   7.447   1.441 -0.0373 -1.6678  0.0421
31250TIP3    H294633   4.210   7.483   1.586  1.4200  1.9524 -0.9509
31251TIP3   OH294634   6.784   9.743   8.281  0.4068 -0.4872 -0.0537
31251TIP3    H194635   6.874   9.739   8.251  0.9644  0.1281  1.4586
31251TIP3    H294636   6.781   9.819   8.339 -0.6907 -1.3922  1.1360
31252TIP3   OH294637   7.562   8.229   9.217  0.0179 -0.4867  0.0956
31252TIP3    H194638   7.651   8.260   9.234 -0.5222  1.6533 -0.6613
31252TIP3    H294639   7.553   8.229   9.122 -1.2321  0.7527  0.1846
31253TIP3   OH294640   2.645   9.590   0.428  0.1520 -0.2024  0.3331
31253TIP3    H194641   2.711   9.563   0.492  1.5375 -1.0072 -1.3612
31253TIP3    H294642   2.671   9.678   0.403  0.1644 -0.2527  0.1710
31254TIP3   OH294643   1.694   9.405   1.539 -0.0537 -0.0334  0.0390
31254TIP3    H194644   1.691   9.311   1.522 -1.2731 -0.2662  1.2855
31254TIP3    H294645   1.674   9.446   1.455 -0.2746 -0.9233 -0.3520
31255TIP3   OH294646   9.375   5.551   3.000  0.0629 -0.1767 -0.2049
31255TIP3    H194647   9.304   5.488   2.995  0.3735 -0.4945 -0.6939
31255TIP3    H294648   9.428   5.534   2.922  0.1104  0.7301 -0.3885
31256TIP3   OH294649   8.198   9.304   1.391 -0.3296 -0.3812  0.4001
31256TIP3    H194650   8.284   9.276   1.424  1.1028  1.3040 -1.6520
31256TIP3    H294651   8.159   9.351   1.464  1.5620  0.8941  0.6620
31257TIP3   OH294652   9.016   9.417   8.696  0.1028 -0.5503 -0.1374
31257TIP3    H194653   9.104   9.454   8.699  0.4409 -1.1801 -1.4621
31257TIP3    H294654   8.968   9.474   8.637 -0.6501  0.2867  1.2410
31258TIP3   OH294655   2.446   0.038   3.697 -0.0727  0.3841 -0.0809
31258TIP3    H194656   2.438   0.129   3.726  0.1023 -0.0504  1.4085
31258TIP3    H294657   2.367  -0.004   3.730  0.3657 -0.2378  0.1958
31259TIP3   OH294658   2.599   6.299   6.362 -0.0613 -0.5349 -0.1355
31259TIP3    H194659   2.687   6.279   6.329 -0.4672 -0.4535 -1.2977
31259TIP3    H294660   2.550   6.218   6.351 -0.7869  0.0914 -1.7625
31260TIP3   OH294661   2.157   9.698   6.552 -0.1858  0.4345 -0.4813
31260TIP3    H194662   2.200   9.766   6.499  0.5079  0.0297 -0.4423
31260TIP3    H294663   2.109   9.747   6.619 -0.1569  0.9059 -0.7965
31261TIP3   OH294664   7.147  10.778   3.542  0.0075 -0.4539  0.3038
31261TIP3    H194665   7.094  10.827   3.605  0.2378 -0.2793  0.3664
31261TIP3    H294666   7.236  10.781   3.579 -0.0223 -1.1709  0.4590
31262TIP3   OH294667   9.172   4.137   3.235 -0.4964 -0.2713  0.6026
31262TIP3    H194668   9.113   4.075   3.277 -1.8930  0.5622 -0.0389
31262TIP3    H294669   9.166   4.117   3.141 -1.8665  1.4754  0.2464
31263TIP3   OH294670   0.966   4.044   8.434 -0.7327  0.3092  0.1685
31263TIP3    H194671   1.014   4.105   8.378 -2.5893  2.6330  0.9477
31263TIP3    H294672   0.902   4.003   8.375  0.6017 -1.0657 -0.3826
31264TIP3   OH294673   8.747  10.323   9.982 -0.4493 -0.3185 -0.5764
31264TIP3    H194674   8.842  10.323   9.984 -0.4458 -1.4254  0.2246
31264TIP3    H294675   8.723  10.241   9.938 -1.0348 -0.0483 -0.7824
31265TIP3   OH294676  10.871  10.550   2.736  0.1905 -0.5620 -0.1852
31265TIP3    H194677  10.850  10.517   2.649 -0.4250  2.8993 -1.5110
31265TIP3    H294678  10.810  10.623   2.750  3.1035  1.8534  1.1922
31266TIP3   OH294679   7.659   1.368   1.450  0.0931 -0.0827 -0.0721
31266TIP3    H194680   7.712   1.290   1.468 -0.5586 -1.0833 -2.1696
31266TIP3    H294681   7.646   1.408   1.536  1.7156 -1.4391  0.8780
31267TIP3   OH294682   2.451   3.751   4.482 -0.5219  0.0663 -0.1849
31267TIP3    H194683   2.387   3.750   4.553  0.3564  2.4897  0.7634
31267TIP3    H294684   2.522   3.696   4.512 -0.7514 -0.0130  0.2166
31268TIP3   OH294685   1.958   1.254   8.404 -0.3704  0.3000  0.8238
31268TIP3    H194686   1.930   1.172   8.363 -1.3238  0.9677  0.0736
31268TIP3    H294687   1.987   1.229   8.491 -1.3312 -0.7432  0.8680
31269TIP3   OH294688   5.853   5.071   0.103 -0.1861 -0.3865  0.3387
31269TIP3    H194689   5.782   5.095   0.162  0.2875 -2.1814  1.7089
31269TIP3    H294690   5.919   5.030   0.159  2.3839  1.9764 -0.7155
31270TIP3   OH294691   2.735   8.030   8.028 -0.4833 -0.5297 -0.1818
31270TIP3    H194692   2.666   8.086   8.064 -0.1244  0.2994 -0.7401
31270TIP3    H294693   2.722   8.034   7.933  0.2863 -0.3950 -0.2947
31271TIP3   OH294694   3.584   6.306   9.868 -0.5585  0.1032 -0.0568
31271TIP3    H194695   3.550   6.379   9.817 -0.6567  1.1455  1.4481
31271TIP3    H294696   3.651   6.344   9.924 -0.7329 -0.9117  0.8791
31272TIP3   OH294697   5.160   6.908   6.002 -0.5482 -0.4315 -0.2183
31272TIP3    H194698   5.196   6.970   6.065 -1.0626 -0.4814  0.1297
31272TIP3    H294699   5.074   6.944   5.980  0.2204  0.4064 -2.0659
31273TIP3   OH294700   2.353   6.716   0.263 -0.0123  0.1999  0.3105
31273TIP3    H194701   2.283   6.681   0.208  0.4402 -0.4656  0.1449
31273TIP3    H294702   2.308   6.750   0.341 -0.6063  0.6962 -0.2377
31274TIP3   OH294703   0.517  10.634   6.041 -0.2748 -0.3831  0.5674
31274TIP3    H194704   0.509  10.723   6.075  1.3831 -0.6139  1.6526
31274TIP3    H294705   0.472  10.636   5.957  0.5462  1.7307  0.1320
31275TIP3   OH294706   2.417   6.134   7.602  0.0985  0.3858 -0.8494
31275TIP3    H194707   2.467   6.057   7.626  0.4333  0.9755  0.4472
31275TIP3    H294708   2.325   6.109   7.616  0.2612  0.5525  0.6350
31276TIP3   OH294709   9.137   6.896   0.820 -0.3238 -0.6444 -0.2710
31276TIP3    H194710   9.098   6.972   0.864  1.7341  0.1021  0.3856
31276TIP3    H294711   9.176   6.932   0.741 -0.3076 -1.2393 -0.5340
31277TIP3   OH294712   2.250   9.430  10.073 -0.2299 -0.2588 -0.3045
31277TIP3    H194713   2.326   9.488  10.084 -0.5538 -0.0589  1.0241
31277TIP3    H294714   2.194   9.449  10.148 -2.0220  0.2082 -1.6887
31278TIP3   OH294715   4.076   3.577   1.720 -0.3294  0.0435 -0.5631
31278TIP3    H194716   4.158   3.620   1.744 -1.0222  0.1832  1.8224
31278TIP3    H294717   4.028   3.642   1.670  0.6010  0.3095 -1.1275
31279TIP3   OH294718   8.162   8.960   7.728 -0.3735 -0.5312 -0.0916
31279TIP3    H194719   8.236   8.920   7.774  0.6159 -2.7020 -3.1760
31279TIP3    H294720   8.086   8.909   7.756 -0.2249 -0.2188  0.9079
31280TIP3   OH294721   8.440   3.854   7.388  0.0707 -0.2074  0.8493
31280TIP3    H194722   8.510   3.918   7.390  0.1153 -0.2833  1.9199
31280TIP3    H294723   8.360   3.906   7.380  0.2686 -0.1561 -1.5627
31281TIP3   OH294724   4.730   0.059   0.165  0.0909 -0.2979 -0.5245
31281TIP3    H194725   4.823   0.045   0.144  0.4077  0.2323  0.4344
31281TIP3    H294726   4.730   0.138   0.219 -0.8331 -0.7525  0.1661
31282TIP3   OH294727   1.662   9.618   8.966 -0.5557  0.2358 -0.2202
31282TIP3    H194728   1.748   9.647   8.936 -0.7936  0.4316 -0.7373
31282TIP3    H294729   1.658   9.526   8.942 -0.3982  0.1667  0.0185
31283TIP3   OH294730   3.896   4.753  10.720 -0.1388 -0.3671  0.7081
31283TIP3    H194731   3.835   4.730  10.791  0.5046  1.0185  1.7751
31283TIP3    H294732   3.957   4.680  10.716 -0.7987 -0.9318  0.8886
31284TIP3   OH294733   7.794   8.539   8.177  0.0800 -0.1184  0.5843
31284TIP3    H194734   7.722   8.581   8.224  0.9038 -0.0629  1.8392
31284TIP3    H294735   7.767   8.542   8.085 -0.0526  2.8389  0.6334
31285TIP3   OH294736   6.113   8.871   5.658 -0.2474  0.5467  0.5520
31285TIP3    H194737   6.129   8.856   5.751 -0.7789 -1.0869  0.4055
31285TIP3    H294738   6.147   8.793   5.615  0.7308  1.6236 -0.7316
31286TIP3   OH294739   4.870   1.444   0.371  0.3526 -0.1968 -0.1118
31286TIP3    H194740   4.963   1.430   0.351 -0.4571 -2.2236 -3.2112
31286TIP3    H294741   4.827   1.443   0.285 -2.5331  1.0713  1.1842
31287TIP3   OH294742   7.636   6.187   4.734  0.3519 -0.1016  0.3990
31287TIP3    H194743   7.563   6.225   4.684  0.8466 -0.6676 -0.7828
31287TIP3    H294744   7.600   6.174   4.822 -0.2394  1.8401  0.4947
31288TIP3   OH294745   7.229   6.236   5.621  0.1540 -0.6457  0.4249
31288TIP3    H194746   7.196   6.246   5.531  0.0250  0.8618  0.6259
31288TIP3    H294747   7.322   6.256   5.615 -0.0619  0.5256  0.7989
31289TIP3   OH294748   0.695   3.836   2.358 -0.7575  0.0646 -0.3183
31289TIP3    H194749   0.678   3.842   2.264 -1.6855  1.5120 -0.0930
31289TIP3    H294750   0.735   3.750   2.370 -0.7460 -0.1949 -2.0127
31290TIP3   OH294751   5.086   5.136   5.994 -0.1045 -0.3500 -0.1896
31290TIP3    H194752   5.070   5.193   6.069 -0.5305 -0.9709  0.2057
31290TIP3    H294753   4.999   5.106   5.968  0.1205 -0.8580 -0.3645
31291TIP3   OH294754   1.266   7.046   3.085 -0.1670 -0.4029  0.4166
31291TIP3    H194755   1.248   6.952   3.087 -0.5036 -0.3339  1.3265
31291TIP3    H294756   1.298   7.066   3.174 -1.4083  0.5803  0.6747
31292TIP3   OH294757   4.548   6.234   3.731  0.1364  0.4531  0.1045
31292TIP3    H194758   4.494   6.172   3.780  1.2650 -1.0641 -0.5325
31292TIP3    H294759   4.502   6.246   3.648  0.1447  0.1294  0.0540
31293TIP3   OH294760   8.217   6.274  10.548  0.1737 -0.3637  0.2077
31293TIP3    H194761   8.208   6.369  10.561 -0.0657 -0.2619 -0.6401
31293TIP3    H294762   8.128   6.241  10.558  0.1220 -0.3881 -0.2966
31294TIP3   OH294763   9.981   7.443   2.486  0.4393  0.1288 -0.2902
31294TIP3    H194764  10.004   7.351   2.476  3.8719  0.6326  1.4975
31294TIP3    H294765   9.920   7.445   2.560 -0.1117 -0.7038 -0.7052
31295TIP3   OH294766   1.299   1.944   8.663  0.2126  0.6031  0.4524
31295TIP3    H194767   1.214   1.972   8.697  0.7699  0.5059  2.0030
31295TIP3    H294768   1.333   1.884   8.729 -0.0380 -2.2192 -1.8241
31296TIP3   OH294769   1.554   9.002   6.298 -0.0623 -0.5371 -0.1210
31296TIP3    H194770   1.626   9.004   6.361  0.1195 -1.1611 -0.2975
31296TIP3    H294771   1.478   8.977   6.351 -0.2507  0.5472  0.1460
31297TIP3   OH294772   1.420   8.382   6.485 -0.3907 -0.5557 -0.2030
31297TIP3    H194773   1.425   8.288   6.506  0.6494 -0.7145 -1.0461
31297TIP3    H294774   1.387   8.383   6.395  0.9661 -0.2047 -0.7247
31298TIP3   OH294775   2.290   8.739  10.121 -0.4256  0.2971 -0.0485
31298TIP3    H194776   2.200   8.716  10.100 -0.1396 -1.0377  0.1118
31298TIP3    H294777   2.311   8.811  10.062 -1.1805 -0.2291 -0.9773
31299TIP3   OH294778   2.967   4.319  10.706 -0.2488 -0.4071  0.0943
31299TIP3    H194779   2.880   4.357  10.693  0.0218 -0.3950 -2.0285
31299TIP3    H294780   2.951   4.227  10.726 -0.7604 -0.3001  0.1918
31300TIP3   OH294781   8.753   6.894   2.897  0.3052 -0.2371  0.4929
31300TIP3    H194782   8.758   6.963   2.963 -0.5962  1.1300 -0.7883
31300TIP3    H294783   8.671   6.911   2.851  1.6964  0.0295 -2.1422
31301TIP3   OH294784   6.666  10.040   0.917  0.1151  0.2395  0.1576
31301TIP3    H194785   6.573  10.026   0.900  0.2477  0.9839 -1.3696
31301TIP3    H294786   6.693  10.104   0.851  1.5072  0.7361  1.1697
31302TIP3   OH294787   9.237  10.624   0.086 -0.2132  0.5292  0.3115
31302TIP3    H194788   9.242  10.647   0.179 -0.3879  1.2897  0.1399
31302TIP3    H294789   9.321  10.652   0.049  0.8513 -1.9179  0.6715
31303TIP3   OH294790   6.256   8.999   2.764  0.7172  0.0636 -0.7418
31303TIP3    H194791   6.237   9.090   2.743 -2.7217 -0.5296 -0.6706
31303TIP3    H294792   6.203   8.980   2.842  0.7289 -2.2071 -1.2109
31304TIP3   OH294793   5.675   1.511   9.431 -0.2364  0.6936 -0.3157
31304TIP3    H194794   5.739   1.517   9.502  0.4621 -0.4319 -0.8122
31304TIP3    H294795   5.722   1.465   9.361 -1.2412  0.8514 -1.1100
31305TIP3   OH294796   3.211   1.201   8.165  0.5124  0.1904  0.2404
31305TIP3    H194797   3.166   1.175   8.245 -1.0044  1.2560 -0.2297
31305TIP3    H294798   3.281   1.260   8.195  0.5359 -0.1272  0.8330
31306TIP3   OH294799   8.565   8.967   5.516  0.5476 -0.0677 -0.2631
31306TIP3    H194800   8.565   9.050   5.468 -0.2992 -0.7576 -1.5089
31306TIP3    H294801   8.639   8.918   5.479 -1.3577 -1.4499 -2.4937
31307TIP3   OH294802   4.420   8.419   8.967 -0.6565 -0.9930 -0.4073
31307TIP3    H194803   4.472   8.482   8.917  0.2588 -1.3280  0.1011
31307TIP3    H294804   4.329   8.448   8.955 -0.1813  1.6187  1.3865
31308TIP3   OH294805   0.064  10.643   7.514 -0.4521  0.3035 -0.2198
31308TIP3    H194806   0.008  10.719   7.497  0.6609  1.0084 -0.9079
31308TIP3    H294807   0.109  10.664   7.596 -0.1763  0.3931 -0.3885
31309TIP3   OH294808   5.731   0.760   7.346  0.5551 -0.0202  0.0331
31309TIP3    H194809   5.718   0.839   7.293  1.1337 -0.4161 -0.7326
31309TIP3    H294810   5.719   0.688   7.284 -0.2577 -0.5518  0.7864
31310TIP3   OH294811   6.154   6.108   0.043 -0.7996 -0.1148 -0.0269
31310TIP3    H194812   6.115   6.157  -0.029 -1.3599  0.1977  0.4802
31310TIP3    H294813   6.095   6.123   0.117 -1.4505 -2.1790 -0.0527
31311TIP3   OH294814   6.608   4.511   0.075  0.5020  0.1081  0.5626
31311TIP3    H194815   6.537   4.455   0.043  2.4253 -1.2185 -1.7521
31311TIP3    H294816   6.682   4.452   0.085  1.5661  1.5996  2.0101
31312TIP3   OH294817   6.449   3.085   1.036 -0.5629  0.3325 -0.0078
31312TIP3    H194818   6.392   3.067   0.962 -1.7892  1.5434  0.5969
31312TIP3    H294819   6.444   3.179   1.049  1.7388  0.5217 -0.0181
31313TIP3   OH294820   2.786   3.496   5.531  0.0988  0.6476 -0.2823
31313TIP3    H194821   2.702   3.450   5.541  0.3967  0.4692  1.9653
31313TIP3    H294822   2.766   3.570   5.473 -1.5590  0.4643 -0.0028
31314TIP3   OH294823   4.253   1.248   9.432  0.3764  0.3379 -0.5752
31314TIP3    H194824   4.341   1.285   9.445  0.6630 -0.3080 -0.6553
31314TIP3    H294825   4.239   1.250   9.338  0.1945  0.6782 -0.5444
31315TIP3   OH294826   5.018   1.483   8.358 -0.2072  0.2490 -0.2909
31315TIP3    H194827   4.924   1.492   8.345  0.1996  2.4582 -2.4009
31315TIP3    H294828   5.048   1.571   8.380  1.4015 -0.3733  0.1569
31316TIP3   OH294829   6.463   2.317   1.696 -0.1401  0.0765 -0.3510
31316TIP3    H194830   6.515   2.249   1.739 -0.3579  0.6967  0.9707
31316TIP3    H294831   6.383   2.322   1.748  0.1954  1.8425  0.0952
31317TIP3   OH294832   1.969   0.756   3.497  0.1475 -0.3427  0.0761
31317TIP3    H194833   1.953   0.807   3.417  0.4992 -3.4314 -2.1354
31317TIP3    H294834   1.882   0.744   3.535 -0.0876  0.7928 -0.0512
31318TIP3   OH294835   8.064   0.905   3.353 -0.6516 -0.1370  0.8095
31318TIP3    H194836   7.992   0.843   3.350  0.6836 -1.7067 -0.4989
31318TIP3    H294837   8.073   0.936   3.263 -0.6610  1.2446  1.2568
31319TIP3   OH294838   6.392   0.579  10.880  0.9831  0.0363 -0.6091
31319TIP3    H194839   6.296   0.575  10.874  1.0065  0.2481 -1.1531
31319TIP3    H294840   6.409   0.637  10.955  0.6921 -1.0643  0.3449
31320TIP3   OH294841   7.039  10.585   9.540  0.2092  0.1377  0.0572
31320TIP3    H194842   7.011  10.505   9.585  0.5673 -0.2016 -0.3169
31320TIP3    H294843   7.133  10.590   9.557  0.1288  0.6579  0.3534
31321TIP3   OH294844   8.528  10.707  10.216 -0.9016 -0.4248 -0.4525
31321TIP3    H194845   8.557  10.628  10.169  0.6982  0.3078 -0.7812
31321TIP3    H294846   8.606  10.762  10.219 -2.0291  1.2200 -0.3555
31322TIP3   OH294847   4.232   8.721   5.154 -0.3674  0.2176  0.5416
31322TIP3    H194848   4.265   8.657   5.091 -0.6743  0.4642  0.1302
31322TIP3    H294849   4.279   8.802   5.132 -2.9865  1.2721 -1.6877
31323TIP3   OH294850   5.846   2.904  10.257 -0.6642 -0.2458  0.0071
31323TIP3    H194851   5.874   2.994  10.245  0.8981 -0.5707  1.0672
31323TIP3    H294852   5.877   2.859  10.178 -0.6740 -0.0481 -0.1117
31324TIP3   OH294853   3.392   3.733   6.608  0.0450 -0.8293  0.4017
31324TIP3    H194854   3.423   3.650   6.644 -1.3774 -1.7508 -0.3613
31324TIP3    H294855   3.384   3.790   6.684  1.0240 -1.3876  0.9499
31325TIP3   OH294856   3.430   0.881   8.966 -0.1545 -0.3537 -0.3874
31325TIP3    H194857   3.490   0.934   9.018 -0.6455 -0.0760 -0.1011
31325TIP3    H294858   3.399   0.941   8.898 -1.0731 -0.1360  0.2183
31326TIP3   OH294859   3.221   1.745   3.116 -0.0423  0.7728 -0.3390
31326TIP3    H194860   3.257   1.778   3.199  0.7093 -2.4742  0.7876
31326TIP3    H294861   3.187   1.659   3.138 -1.0751  0.3571 -3.1832
31327TIP3   OH294862   4.343   0.524   5.590 -0.3890 -0.2407 -0.4683
31327TIP3    H194863   4.328   0.590   5.657  0.0990 -0.7643  0.1586
31327TIP3    H294864   4.436   0.504   5.595 -0.0390  0.7034 -2.2387
31328TIP3   OH294865   8.369   2.369   8.903 -0.2365 -0.2035 -0.7769
31328TIP3    H194866   8.383   2.423   8.825  0.6653 -0.7558 -1.0128
31328TIP3    H294867   8.372   2.279   8.871  0.0482 -0.4346 -0.1207
31329TIP3   OH294868  10.764   3.242   4.787 -0.2886 -0.3974 -0.4915
31329TIP3    H194869  10.806   3.156   4.779  1.6921  0.4374  0.1672
31329TIP3    H294870  10.796   3.291   4.712  0.0594  0.3101  0.1021
31330TIP3   OH294871   0.930   0.422   4.477 -0.7356 -0.0780 -0.1071
31330TIP3    H194872   0.952   0.501   4.527 -1.3760 -0.7154  1.2654
31330TIP3    H294873   1.014   0.388   4.448 -0.3916  0.7083 -0.0693
31331TIP3   OH294874  10.045   1.068   1.062 -0.5583 -0.5082  0.6341
31331TIP3    H194875   9.972   1.118   1.098 -1.1990 -1.7439  1.1108
31331TIP3    H294876  10.029   0.978   1.092  0.6946 -0.9494  0.0206
31332TIP3   OH294877   0.476  10.041   2.706 -0.0469 -0.0285 -0.2145
31332TIP3    H194878   0.507  10.117   2.755  1.0829 -0.1469 -0.7196
31332TIP3    H294879   0.555   9.988   2.691 -0.4464 -0.2219 -1.7550
31333TIP3   OH294880   7.955  10.008   4.471  0.3176 -0.1491  0.3761
31333TIP3    H194881   7.969   9.917   4.500 -0.9216 -0.8900 -1.1882
31333TIP3    H294882   7.865  10.027   4.499  0.6921  0.7312  0.9952
31334TIP3   OH294883   8.570   5.957   1.098 -0.4097 -0.4177 -0.0598
31334TIP3    H194884   8.497   5.996   1.146  0.8181  2.0741 -0.0561
31334TIP3    H294885   8.594   6.022   1.032  3.1852 -0.0536  1.3695
31335TIP3   OH294886   8.361   9.065   9.044 -0.1507 -0.0898 -0.0949
31335TIP3    H194887   8.426   9.033   8.981  0.7474  0.4676  0.5179
31335TIP3    H294888   8.286   9.006   9.034  0.1770 -0.3262 -1.3087
31336TIP3   OH294889   5.948   5.973   8.895 -0.1430 -0.2723  0.5736
31336TIP3    H194890   5.864   6.019   8.896  1.2151  2.3858  0.0429
31336TIP3    H294891   5.956   5.936   8.982 -0.6879  1.7772  1.5570
31337TIP3   OH294892  10.890   4.504   2.896 -0.1542 -0.4181  0.2234
31337TIP3    H194893  10.888   4.595   2.926 -1.3888 -0.3092 -0.1045
31337TIP3    H294894  10.861   4.509   2.804  0.9311 -1.0220 -0.1715
31338TIP3   OH294895   8.025   8.352   2.114  0.1222  0.8458  0.0639
31338TIP3    H194896   7.946   8.304   2.092  0.7153 -0.7958  1.2595
31338TIP3    H294897   8.026   8.352   2.210  1.1231  1.5854  0.0633
31339TIP3   OH294898   1.863   5.262   5.911 -0.0916  0.3163  0.3115
31339TIP3    H194899   1.863   5.301   5.823 -2.6141 -2.2435 -1.0017
31339TIP3    H294900   1.947   5.217   5.917  0.2636  0.8110 -0.6446
31340TIP3   OH294901   4.541   0.558   0.097 -0.2697 -0.5892  0.3250
31340TIP3    H194902   4.565   0.616   0.025 -1.8545 -2.5744 -1.9773
31340TIP3    H294903   4.624   0.537   0.140  0.8194  0.2236 -1.2847
31341TIP3   OH294904   9.834  10.274   8.791  0.4401  0.0292 -0.0197
31341TIP3    H194905   9.909  10.332   8.803  0.0673  0.4693  0.1777
31341TIP3    H294906   9.847  10.204   8.856  1.9750 -1.2593 -1.6088
31342TIP3   OH294907   2.868   5.420   5.736  0.4395 -0.0610  0.1433
31342TIP3    H194908   2.952   5.431   5.692 -0.6806  2.8598 -1.5763
31342TIP3    H294909   2.819   5.359   5.681  0.7004 -0.1318 -0.0094
31343TIP3   OH294910  10.208   8.540   2.863  0.1197 -0.4309  0.5346
31343TIP3    H194911  10.224   8.447   2.881 -1.0272 -0.8514 -0.5000
31343TIP3    H294912  10.156   8.540   2.783 -2.4231  0.9481  2.0786
31344TIP3   OH294913   1.606   5.745   1.120 -0.3566  0.1167 -0.2089
31344TIP3    H194914   1.511   5.733   1.127 -0.1618 -0.8932  1.1305
31344TIP3    H294915   1.639   5.657   1.101  0.3000  0.5110 -0.9455
31345TIP3   OH294916   0.632   6.648   7.080  0.0854  0.7079 -0.1348
31345TIP3    H194917   0.605   6.595   7.155  2.0721 -0.7983 -0.4155
31345TIP3    H294918   0.557   6.644   7.020 -0.7256  0.2191  0.8776
31346TIP3   OH294919  10.698   5.745   3.964 -0.2672  0.1937  0.3564
31346TIP3    H194920  10.737   5.719   4.048  0.2191  0.5874  0.2594
31346TIP3    H294921  10.761   5.808   3.927  1.3739 -2.5321 -1.9597
31347TIP3   OH294922   1.166   8.853   9.087 -0.6817 -0.4260 -0.0124
31347TIP3    H194923   1.086   8.823   9.044 -0.2388 -0.5446 -0.7637
31347TIP3    H294924   1.190   8.933   9.041 -2.2541  1.6392  2.4379
31348TIP3   OH294925   8.459   9.309   3.094  0.4015 -0.1295 -0.2408
31348TIP3    H194926   8.495   9.327   3.007  0.2432  1.0425 -0.0707
31348TIP3    H294927   8.526   9.339   3.155  0.0251  0.1251  0.0521
31349TIP3   OH294928   4.360   7.134   0.513 -0.1034 -0.2223 -0.4558
31349TIP3    H194929   4.304   7.118   0.590  0.1407 -0.0611 -0.2406
31349TIP3    H294930   4.436   7.078   0.526  0.8176  1.1512  0.3740
31350TIP3   OH294931   2.514   6.445   7.921 -0.1418 -0.2865  0.1648
31350TIP3    H194932   2.536   6.501   7.846  0.8165 -1.0551 -0.1499
31350TIP3    H294933   2.484   6.363   7.881  0.1871 -0.6304  0.6177
31351TIP3   OH294934   8.778   4.549   6.628  0.0676 -0.1535 -0.1070
31351TIP3    H194935   8.717   4.577   6.560 -1.9606 -2.0361  0.8489
31351TIP3    H294936   8.818   4.631   6.659 -1.3542  1.0659 -1.3199
31352TIP3   OH294937   7.255   0.528   8.388 -0.4760  0.2957 -0.3225
31352TIP3    H194938   7.194   0.559   8.455 -1.5193 -0.1421 -1.0523
31352TIP3    H294939   7.340   0.525   8.433 -0.7279  2.1449  0.3414
31353TIP3   OH294940   8.916   2.054   7.686  0.2567 -0.3099  0.2120
31353TIP3    H194941   8.974   2.004   7.744  1.9237 -0.3000 -1.3500
31353TIP3    H294942   8.851   1.990   7.656  0.7225 -0.8681  0.3753
31354TIP3   OH294943  10.119   0.298  10.008  0.1817  0.0119  0.0049
31354TIP3    H194944  10.056   0.288   9.937  0.5440  1.5803 -0.5690
31354TIP3    H294945  10.205   0.292   9.966  0.4050  1.6973  0.1468
31355TIP3   OH294946   7.604  10.507   2.043 -0.4002 -0.1171  0.4037
31355TIP3    H194947   7.682  10.541   2.088 -0.5590 -0.3019  0.8136
31355TIP3    H294948   7.634  10.426   2.001  0.2275  0.9574 -1.3462
31356TIP3   OH294949   5.830   7.883   2.367 -0.2998 -0.6363  0.0782
31356TIP3    H194950   5.802   7.970   2.397 -2.1602 -0.7689 -1.1545
31356TIP3    H294951   5.797   7.823   2.434  0.7869 -0.4418  0.8112
31357TIP3   OH294952   0.909  10.550   5.347 -0.1196  0.8511 -0.5348
31357TIP3    H194953   0.852  10.590   5.413 -1.5624 -0.1600 -1.0899
31357TIP3    H294954   0.871  10.578   5.264 -0.5997 -0.8404 -0.9218
31358TIP3   OH294955   3.011   9.593   6.407 -0.1970 -0.2452  0.0651
31358TIP3    H194956   3.028   9.673   6.457  1.6282 -0.5034 -0.0664
31358TIP3    H294957   2.967   9.534   6.469  0.3608  0.1047  0.8100
31359TIP3   OH294958   0.928   4.439   4.346  0.0027 -0.0298 -0.3567
31359TIP3    H194959   0.860   4.373   4.359 -0.5713  0.8007  1.1510
31359TIP3    H294960   1.010   4.389   4.345 -0.5675 -1.0392 -2.1601
31360TIP3   OH294961   0.185   6.588   5.447  0.5116  0.5539  0.1546
31360TIP3    H194962   0.221   6.672   5.419  0.4761  0.6433  0.3747
31360TIP3    H294963   0.095   6.608   5.473 -0.2200  0.0579 -1.8531
31361TIP3   OH294964   9.791   4.792   7.139 -0.1252  0.1500 -0.2170
31361TIP3    H194965   9.706   4.748   7.144  0.7643 -1.6479  0.4350
31361TIP3    H294966   9.804   4.811   7.047 -1.1008  0.1466 -0.3584
31362TIP3   OH294967   8.898   7.343   2.214  0.0818 -0.3240 -0.0591
31362TIP3    H194968   8.986   7.351   2.179  0.0445 -1.3568 -0.4395
31362TIP3    H294969   8.867   7.433   2.224  0.3625  0.0362 -2.0320
31363TIP3   OH294970   7.165   6.177   7.395 -0.1330  0.1353  0.5863
31363TIP3    H194971   7.072   6.158   7.405  0.1827 -1.3805  0.9457
31363TIP3    H294972   7.171   6.227   7.314 -1.2578  0.2472  0.5615
31364TIP3   OH294973   5.313   3.373   3.830  0.1635  0.3219  0.0446
31364TIP3    H194974   5.271   3.405   3.750 -1.0611 -3.2306 -0.8906
31364TIP3    H294975   5.382   3.314   3.799  0.8836  0.2656  1.6532
31365TIP3   OH294976   3.501   2.769   8.760 -0.8121 -0.7899  0.8908
31365TIP3    H194977   3.487   2.823   8.682 -2.7871  1.1139  2.3889
31365TIP3    H294978   3.418   2.723   8.772 -1.1791  0.1989  2.6537
31366TIP3   OH294979   5.042   1.835   1.736 -0.0887  0.0770  0.3905
31366TIP3    H194980   5.030   1.752   1.690  0.9593 -1.1448  2.1990
31366TIP3    H294981   5.064   1.898   1.667  1.2834 -1.6281 -0.8068
31367TIP3   OH294982   4.869   5.870   4.553 -0.8400 -0.4751 -0.2446
31367TIP3    H194983   4.829   5.795   4.597  2.3689 -1.5424  1.1498
31367TIP3    H294984   4.874   5.937   4.621 -0.5884 -0.2350 -0.4986
31368TIP3   OH294985   3.577   4.039   1.478  0.7091 -0.0392 -0.2285
31368TIP3    H194986   3.533   4.084   1.406 -1.4261  0.7780  1.4934
31368TIP3    H294987   3.505   4.006   1.533  2.1446  1.7181  2.9695
31369TIP3   OH294988   5.128   6.792   1.178 -0.0266 -0.0028 -0.8735
31369TIP3    H194989   5.089   6.821   1.261  1.0016  1.5736 -0.8971
31369TIP3    H294990   5.055   6.788   1.117 -0.7498 -0.8795  0.0253
31370TIP3   OH294991   6.658   9.351   1.380  1.0482 -0.2103  0.5921
31370TIP3    H194992   6.657   9.315   1.469  0.4946  0.4057  0.8422
31370TIP3    H294993   6.621   9.281   1.325 -1.3077  0.4001  1.2619
31371TIP3   OH294994   2.982   3.264   4.920 -0.0143  0.9955 -0.5586
31371TIP3    H194995   2.895   3.282   4.956  0.0555  0.3602 -0.0406
31371TIP3    H294996   2.965   3.203   4.848  0.1860 -1.7408  1.5146
31372TIP3   OH294997   1.457   8.467   1.677  0.3944 -0.1486  0.0879
31372TIP3    H194998   1.435   8.375   1.690  1.9891 -0.4249  1.1548
31372TIP3    H294999   1.546   8.465   1.643  0.6688  0.9951  0.6892
31373TIP3   OH295000  10.567   3.759   2.928  0.4786 -0.2643  0.7486
31373TIP3    H195001  10.609   3.841   2.902  0.6271 -0.7051 -0.4929
31373TIP3    H295002  10.507   3.784   2.998  0.1235  1.0100  0.0405
31374TIP3   OH295003  10.643   1.514  10.841  0.6950 -0.2270  0.0074
31374TIP3    H195004  10.588   1.445  10.878 -1.0969  0.5178 -1.1792
31374TIP3    H295005  10.682   1.557  10.917  0.2450 -1.2474  0.8420
31375TIP3   OH295006   9.977   3.986  10.424  0.3918 -0.0028 -0.7823
31375TIP3    H195007  10.026   4.004  10.343  2.3245  0.6725  0.4788
31375TIP3    H295008   9.999   3.895  10.445 -0.1522 -0.1950 -0.9975
31376TIP3   OH295009   6.437   3.937   4.029  0.3631 -0.1426  0.6403
31376TIP3    H195010   6.412   3.948   4.120 -1.3618  1.6176  0.0301
31376TIP3    H295011   6.529   3.962   4.026  0.4561 -0.2781  1.8865
31377TIP3   OH295012   7.063   3.302   3.155 -0.5077  0.2068  0.1500
31377TIP3    H195013   7.132   3.271   3.214  1.3385  0.8745 -1.5412
31377TIP3    H295014   7.031   3.382   3.195 -0.9221 -0.5274  1.3655
31378TIP3   OH295015   8.912   1.283   0.609 -0.0665 -0.3903 -0.2539
31378TIP3    H195016   8.975   1.318   0.672 -1.7572 -0.5277  1.6282
31378TIP3    H295017   8.854   1.357   0.590  0.1412 -0.4825 -1.3293
31379TIP3   OH295018   1.507  10.009   0.788 -0.0373 -0.5066 -0.5816
31379TIP3    H195019   1.553  10.072   0.733 -1.1426  0.9013  0.0354
31379TIP3    H295020   1.576   9.959   0.831  0.9514  1.5471  0.3245
31380TIP3   OH295021   6.479   7.462   3.850 -0.2373  0.1485  0.4935
31380TIP3    H195022   6.522   7.546   3.865 -0.4406  0.0013  2.0946
31380TIP3    H295023   6.399   7.466   3.902 -0.3886 -0.9336  0.3678
31381TIP3   OH295024   6.131   6.877  10.785  0.0390 -0.6649  0.4932
31381TIP3    H195025   6.093   6.789  10.788 -0.2041 -0.5486  0.9184
31381TIP3    H295026   6.112   6.909  10.697 -0.1129 -0.9311  0.4280
31382TIP3   OH295027   0.462   2.504   9.575 -0.1715 -0.3094 -0.0902
31382TIP3    H195028   0.520   2.476   9.647 -0.8463 -0.8260  0.2647
31382TIP3    H295029   0.490   2.593   9.555 -0.0488 -0.1160  0.9020
31383TIP3   OH295030   5.603   4.658  10.478  0.4375  0.0099  0.1587
31383TIP3    H195031   5.587   4.707  10.559  1.9800  1.1748 -0.1965
31383TIP3    H295032   5.677   4.602  10.499  1.3826  0.9257 -0.6739
31384TIP3   OH295033   3.725   0.608   3.158 -0.2624 -0.1366  0.3393
31384TIP3    H195034   3.764   0.541   3.215 -1.8617 -1.8766 -0.4982
31384TIP3    H295035   3.657   0.561   3.109 -0.9526  1.9661 -0.8389
31385TIP3   OH295036   5.975   0.980   4.940  0.2445  0.4715 -0.5194
31385TIP3    H195037   5.963   1.012   4.850  0.4371  0.5765 -0.5087
31385TIP3    H295038   6.032   1.045   4.981  0.0340  0.5018 -0.2753
31386TIP3   OH295039   5.837   4.906  10.782  0.0631  0.9876 -0.0641
31386TIP3    H195040   5.849   4.959  10.860 -2.6817  2.4084 -0.4698
31386TIP3    H295041   5.845   4.816  10.812  1.8636  1.5321  1.2415
31387TIP3   OH295042   7.656   3.466   9.829  0.4679 -0.0419 -0.0727
31387TIP3    H195043   7.598   3.494   9.758 -0.0469  0.0715  0.3947
31387TIP3    H295044   7.707   3.394   9.790  0.3058  0.1254 -0.6078
31388TIP3   OH295045   1.589   0.266   2.625 -0.7834 -0.4450 -0.0505
31388TIP3    H195046   1.518   0.328   2.645 -0.8040 -0.4837 -0.0034
31388TIP3    H295047   1.554   0.181   2.649 -1.1105 -0.5996 -1.0343
31389TIP3   OH295048   0.148   0.639   5.655 -0.1439 -0.6260 -0.0524
31389TIP3    H195049   0.212   0.570   5.638 -0.5862 -0.8055 -1.0225
31389TIP3    H295050   0.080   0.597   5.707 -0.6303 -1.0373 -1.0166
31390TIP3   OH295051   3.752   7.485   2.708 -0.4367  0.0982 -0.0860
31390TIP3    H195052   3.827   7.479   2.648  0.5420  0.9295  1.0081
31390TIP3    H295053   3.724   7.576   2.702 -1.4465 -0.2290 -0.5593
31391TIP3   OH295054   3.512   9.728   7.051  0.4648  0.4918 -0.1720
31391TIP3    H195055   3.448   9.736   6.981 -1.2307 -1.9643  0.9568
31391TIP3    H295056   3.566   9.653   7.026  0.1206 -0.1412  0.9214
31392TIP3   OH295057   2.275   0.870   9.090 -0.0015 -0.0251  0.5870
31392TIP3    H195058   2.197   0.925   9.094 -0.2151 -0.2509 -0.2647
31392TIP3    H295059   2.325   0.905   9.016  0.6362  0.0166  1.0228
31393TIP3   OH295060   0.391   9.899   2.236 -0.0709  0.3121  0.1704
31393TIP3    H195061   0.311   9.846   2.230 -0.1006  0.1730  1.4929
31393TIP3    H295062   0.448   9.866   2.167 -0.8407 -0.1347 -0.2606
31394TIP3   OH295063   8.674   6.137   8.570 -0.0577 -0.4135 -0.2346
31394TIP3    H195064   8.604   6.184   8.616 -0.8324 -1.4414 -0.3304
31394TIP3    H295065   8.657   6.045   8.589  1.8688 -0.6495  0.5562
31395TIP3   OH295066   0.061   7.621   6.801  0.3788  0.0841 -0.1034
31395TIP3    H195067  -0.017   7.675   6.788  0.6463  0.1608 -1.4830
31395TIP3    H295068   0.095   7.605   6.713  1.8168 -0.1203  0.4560
31396TIP3   OH295069   2.083   2.799   1.117 -0.3613 -0.4100 -0.2893
31396TIP3    H195070   2.176   2.792   1.099  0.1122 -1.8556  2.2327
31396TIP3    H295071   2.041   2.756   1.042  1.1504 -1.9767 -0.3027
31397TIP3   OH295072   0.208   0.397   5.205  0.0713 -0.2868  0.6776
31397TIP3    H195073   0.295   0.373   5.237  0.6954 -0.3880 -0.9814
31397TIP3    H295074   0.193   0.485   5.240  1.2447  0.1036  0.2447
31398TIP3   OH295075   5.525   8.337   2.052  0.6806  0.6502 -0.2403
31398TIP3    H195076   5.449   8.307   2.002  1.9418 -2.0270 -0.7447
31398TIP3    H295077   5.525   8.283   2.131  2.0213  0.5999 -0.2485
31399TIP3   OH295078   9.410  10.225   0.085 -0.9651 -0.3390 -0.0857
31399TIP3    H195079   9.376  10.197   0.000  1.2444  1.9754 -1.9033
31399TIP3    H295080   9.352  10.297   0.111 -1.6304 -1.0343  0.3965
31400TIP3   OH295081  10.552   3.411   7.802  0.3039  0.0606  0.0946
31400TIP3    H195082  10.560   3.479   7.735  1.7398 -0.7764 -0.6097
31400TIP3    H295083  10.473   3.436   7.851  0.2136  1.6543 -0.7877
31401TIP3   OH295084   1.992  10.412   3.718 -0.3250  0.2505  0.6123
31401TIP3    H195085   1.959  10.365   3.794 -1.0684  0.1464  0.2311
31401TIP3    H295086   2.002  10.503   3.748  0.4534 -0.0046  1.1486
31402TIP3   OH295087   1.101   8.677   9.292 -0.2536 -0.5157 -0.2011
31402TIP3    H195088   1.159   8.728   9.237  0.3853 -1.5179 -0.4949
31402TIP3    H295089   1.128   8.586   9.278 -0.0615 -0.8108  1.7693
31403TIP3   OH295090   4.568   5.694   5.346 -0.0667 -0.4597 -0.1076
31403TIP3    H195091   4.655   5.669   5.378  1.0508  3.3815  0.3220
31403TIP3    H295092   4.532   5.748   5.417 -1.1389  1.1860 -1.8201
31404TIP3   OH295093   4.549   3.747   5.166  0.6883 -1.2030  0.6841
31404TIP3    H195094   4.600   3.668   5.147 -0.6547 -1.2725 -3.5196
31404TIP3    H295095   4.590   3.816   5.115 -1.9087 -0.7752 -1.0428
31405TIP3   OH295096   1.181   8.029   9.675  0.0558 -0.0268 -0.5357
31405TIP3    H195097   1.190   8.090   9.602  2.2369  0.6373  0.2054
31405TIP3    H295098   1.236   7.955   9.651 -0.7519 -0.6898 -0.3932
31406TIP3   OH295099   2.545   0.150   3.156  0.1785  0.0741  0.0836
31406TIP3    H195100   2.633   0.186   3.144  0.7065 -1.0780  0.3437
31406TIP3    H295101   2.518   0.125   3.067 -0.7355  2.2522 -0.3026
31407TIP3   OH295102   4.754  10.430  10.414 -0.9972 -0.1826 -0.2451
31407TIP3    H195103   4.795  10.344  10.403 -1.3105 -0.2579 -0.9174
31407TIP3    H295104   4.784  10.480  10.338 -0.0235  0.6383  0.6513
31408TIP3   OH295105   4.868   8.603  10.706 -0.1546  0.6412 -0.2928
31408TIP3    H195106   4.803   8.622  10.638  0.3173 -0.6187 -1.1396
31408TIP3    H295107   4.948   8.645  10.674 -0.0980  0.6019 -0.2020
31409TIP3   OH295108   1.688   4.853   6.822 -0.5040  0.5617  0.4883
31409TIP3    H195109   1.639   4.880   6.900  0.6039  1.0681  1.0338
31409TIP3    H295110   1.621   4.846   6.753 -1.2959  1.6240  1.1054
31410TIP3   OH295111   1.119   3.442   6.160 -0.1149  0.5431  0.0872
31410TIP3    H195112   1.175   3.369   6.131 -0.5934  1.0386 -2.2827
31410TIP3    H295113   1.140   3.452   6.253  1.2499 -1.4636  0.0764
31411TIP3   OH295114   0.756   8.128   3.974 -0.3411  0.0247 -0.0520
31411TIP3    H195115   0.680   8.174   4.010  1.4467  0.9307  2.9311
31411TIP3    H295116   0.821   8.197   3.961  0.4875 -0.9239 -1.1469
31412TIP3   OH295117   0.536   5.419   4.734 -0.5102  0.2369  0.1914
31412TIP3    H195118   0.581   5.499   4.706 -0.5997  0.5719  0.9684
31412TIP3    H295119   0.444   5.444   4.741 -0.4056  0.3520  1.3855
31413TIP3   OH295120   8.493   7.039   0.653 -0.0956 -0.6109 -0.1500
31413TIP3    H195121   8.466   6.986   0.578 -1.9513 -0.2332  0.2194
31413TIP3    H295122   8.451   7.124   0.640 -1.1245 -0.7784  1.6942
31414TIP3   OH295123   1.267   2.520   2.497  0.1248 -0.2580 -0.2661
31414TIP3    H195124   1.200   2.537   2.563  0.3554 -1.3247  0.2642
31414TIP3    H295125   1.254   2.589   2.432 -2.0053 -0.8686 -0.5682
31415TIP3   OH295126   4.899   4.577   0.296 -0.3590 -0.1244  0.0029
31415TIP3    H195127   4.908   4.558   0.389  0.0365 -0.4455 -0.0999
31415TIP3    H295128   4.839   4.652   0.293  0.5324  0.6376  0.5707
31416TIP3   OH295129   0.153   5.068   7.194  0.5571  0.1893 -0.1939
31416TIP3    H195130   0.230   5.123   7.180  1.9178 -1.6174 -0.0461
31416TIP3    H295131   0.126   5.043   7.105 -0.0884  1.0517 -0.2641
31417TIP3   OH295132   7.529   9.651   2.091  0.1106 -0.4852  0.2110
31417TIP3    H195133   7.544   9.743   2.114 -1.8025 -0.0091 -0.2887
31417TIP3    H295134   7.437   9.635   2.111  0.2540 -2.1368 -0.2586
31418TIP3   OH295135   8.184   6.977   4.298  0.3199 -0.1669  0.0277
31418TIP3    H195136   8.177   6.893   4.344 -1.2888  0.9196  1.9610
31418TIP3    H295137   8.227   7.035   4.361  0.5285  0.7119 -0.9023
31419TIP3   OH295138   1.712   3.404   7.443 -0.5200  0.5114  0.6289
31419TIP3    H195139   1.634   3.391   7.497  0.3427 -0.4441  1.6880
31419TIP3    H295140   1.774   3.337   7.473  0.7279  1.2753 -0.1471
31420TIP3   OH295141   1.439  10.403   9.641  0.2977 -0.3230 -0.1284
31420TIP3    H195142   1.502  10.332   9.636  0.4006 -0.2242 -0.2756
31420TIP3    H295143   1.463  10.453   9.719  0.5191 -0.1755 -0.2905
31421TIP3   OH295144   6.645   0.826   0.086 -0.0511 -0.4691  0.2248
31421TIP3    H195145   6.717   0.768   0.059  1.1178  0.4759  1.1644
31421TIP3    H295146   6.581   0.769   0.128  0.7509 -1.1730  0.5110
31422TIP3   OH295147   0.370   3.386   0.185  0.2571 -0.1856  0.2441
31422TIP3    H195148   0.290   3.397   0.236  0.1075  1.9658 -0.3737
31422TIP3    H295149   0.343   3.331   0.111 -0.7821  0.8966 -0.2053
31423TIP3   OH295150   4.998   2.005   1.516  0.2625 -0.1836 -0.6816
31423TIP3    H195151   5.025   1.967   1.432  0.7508 -0.7210 -0.2881
31423TIP3    H295152   4.904   2.021   1.505  0.2578 -0.5477 -1.2265
31424TIP3   OH295153   5.216   7.766  10.004  0.0303  0.3772 -0.1216
31424TIP3    H195154   5.282   7.740  10.069 -0.2046  1.1237  0.4272
31424TIP3    H295155   5.244   7.854   9.976  0.4991 -0.1907 -1.5326
31425TIP3   OH295156   2.012   7.555   3.171  0.0699 -0.3611 -0.4850
31425TIP3    H195157   2.017   7.491   3.100  0.1827 -0.7175 -0.1655
31425TIP3    H295158   1.999   7.501   3.250  0.3783 -0.0064 -0.1858
31426TIP3   OH295159   1.241   0.780  10.113 -0.0216 -0.4955  0.1919
31426TIP3    H195160   1.176   0.711  10.121  0.6053 -1.2759 -1.2189
31426TIP3    H295161   1.300   0.751  10.044 -0.7844  2.2338 -1.8289
31427TIP3   OH295162   4.346   3.249   5.116 -0.2548  0.6437 -0.0487
31427TIP3    H195163   4.321   3.237   5.208 -0.6393  1.7902  0.0083
31427TIP3    H295164   4.263   3.254   5.069 -0.1015  1.6919 -0.2293
31428TIP3   OH295165   4.294   8.333   1.499 -0.3705  0.1930  0.0268
31428TIP3    H195166   4.376   8.297   1.466 -1.1796 -1.2160 -0.5035
31428TIP3    H295167   4.294   8.311   1.592  0.4983  1.4945  0.3684
31429TIP3   OH295168   5.964   9.157   4.213  0.0779 -0.1595  0.4088
31429TIP3    H195169   6.023   9.217   4.258  0.8096  0.5943 -1.4607
31429TIP3    H295170   5.971   9.075   4.262  2.9594 -0.2098  0.0632
31430TIP3   OH295171   9.965   8.844   5.440 -0.1424  0.0675  0.0678
31430TIP3    H195172   9.990   8.788   5.513 -0.2237  1.2216  0.9992
31430TIP3    H295173   9.992   8.932   5.466  0.3818  0.4327 -1.5536
31431TIP3   OH295174   6.658   2.639   4.312  0.7148  0.3301  0.4551
31431TIP3    H195175   6.573   2.645   4.268  0.4686  1.8872  1.0911
31431TIP3    H295176   6.680   2.546   4.308 -1.3297 -0.2242  0.8654
31432TIP3   OH295177  10.171   3.536   8.476  0.1707  0.1480 -0.1767
31432TIP3    H195178  10.113   3.460   8.482 -0.2316  0.5250  0.8543
31432TIP3    H295179  10.255   3.500   8.446  0.6102 -1.0668  2.2644
31433TIP3   OH295180   8.437  10.771   4.358  0.6636 -0.0254 -0.2256
31433TIP3    H195181   8.392  10.855   4.344 -0.2916 -0.1797  1.5353
31433TIP3    H295182   8.382  10.707   4.313 -0.1315 -0.0177  0.6859
31434TIP3   OH295183   7.993   8.988   7.140 -0.7065  0.5895 -0.2124
31434TIP3    H195184   8.008   8.957   7.050  0.1696  1.5917 -0.4366
31434TIP3    H295185   8.070   9.041   7.160 -0.8139  0.2307  1.2131
31435TIP3   OH295186   3.837   9.392  10.304 -0.5479 -0.1788  0.2566
31435TIP3    H195187   3.794   9.408  10.220  0.7536  0.1222 -0.3643
31435TIP3    H295188   3.779   9.434  10.369 -0.5341  1.3515 -0.6835
31436TIP3   OH295189   5.255  10.183  10.128  0.1009  0.4374  0.2490
31436TIP3    H195190   5.233  10.178  10.035  0.5175  0.9503  0.1167
31436TIP3    H295191   5.317  10.256  10.134 -0.4267  0.8355  1.0173
31437TIP3   OH295192   3.550   5.994  10.227  0.2831 -0.6306  0.0425
31437TIP3    H195193   3.526   6.053  10.156  4.7511  2.2601  0.5450
31437TIP3    H295194   3.492   6.020  10.299  0.4666  1.4865 -0.5063
31438TIP3   OH295195   7.802  10.285   3.706  0.0403 -0.4610 -0.7708
31438TIP3    H195196   7.886  10.243   3.691 -0.3680 -1.5032 -0.2451
31438TIP3    H295197   7.743  10.213   3.729 -0.9786  0.2574 -1.0673
31439TIP3   OH295198  10.871   8.644   2.109  0.1270 -0.5642  0.2416
31439TIP3    H195199  10.826   8.716   2.154  2.9089  0.7180  1.1892
31439TIP3    H295200  10.881   8.675   2.019  3.4781  1.5397  1.1667
31440TIP3   OH295201   9.197  10.474   2.397  0.0670  0.3784 -0.0666
31440TIP3    H195202   9.164  10.417   2.328  0.0922 -0.0204  0.2501
31440TIP3    H295203   9.278  10.512   2.361  0.3057 -0.1546 -0.0934
31441TIP3   OH295204   9.394   6.646   2.454  0.7947  0.2903  0.3317
31441TIP3    H195205   9.388   6.665   2.360 -2.7615  0.5775  0.4829
31441TIP3    H295206   9.466   6.701   2.485  1.8277  0.4631 -2.1087
31442TIP3   OH295207   8.048   3.282   2.328 -0.2139  0.3305  0.1727
31442TIP3    H195208   8.122   3.301   2.386  0.2374  0.3734 -0.4076
31442TIP3    H295209   8.084   3.294   2.240 -0.4065 -1.4559 -0.1738
31443TIP3   OH295210  10.359   4.534  10.581 -0.3744 -0.3952  0.3204
31443TIP3    H195211  10.315   4.485  10.649 -2.0697  2.2716  1.2984
31443TIP3    H295212  10.448   4.547  10.613 -0.9453  0.1834  1.7353
31444TIP3   OH295213   3.781   5.807   4.395 -0.6679  0.2646  0.6494
31444TIP3    H195214   3.859   5.769   4.356  0.1026  0.7930  1.6282
31444TIP3    H295215   3.814   5.875   4.454 -1.6422 -1.4135  3.3363
31445TIP3   OH295216   5.300   0.055   6.450  0.9957  0.0164  0.7823
31445TIP3    H195217   5.229   0.058   6.385  0.6290 -1.9160  1.0204
31445TIP3    H295218   5.275   0.118   6.517 -0.6478 -0.8006  0.9806
31446TIP3   OH295219   7.151   7.061   4.811  0.0723  0.3558 -0.2674
31446TIP3    H195220   7.238   7.101   4.821 -0.2339  1.5512 -1.9524
31446TIP3    H295221   7.117   7.097   4.729 -1.5816 -0.9367 -0.2040
31447TIP3   OH295222   7.510   4.569   1.331 -0.0319  0.3439 -0.3472
31447TIP3    H195223   7.424   4.535   1.307  0.0778 -0.1780 -0.0342
31447TIP3    H295224   7.570   4.528   1.268 -0.0011  0.6165 -0.4937
31448TIP3   OH295225   7.769   2.844   8.674  0.5058  0.2260  0.0542
31448TIP3    H195226   7.695   2.897   8.644 -2.2083 -2.2337  1.9176
31448TIP3    H295227   7.807   2.894   8.747  1.8714  2.2623 -1.9140
31449TIP3   OH295228   0.831   2.620  10.847  0.0090 -0.0753  0.0332
31449TIP3    H195229   0.823   2.622  10.752  3.2844  0.9356 -0.3171
31449TIP3    H295230   0.791   2.536  10.872 -1.1781 -0.2388 -2.1588
31450TIP3   OH295231   8.869   4.290   0.372 -0.1264  0.0021 -0.2025
31450TIP3    H195232   8.861   4.311   0.465 -1.0636 -0.3014 -0.2083
31450TIP3    H295233   8.875   4.195   0.369  0.4838  0.0425 -0.4212
31451TIP3   OH295234   7.134   1.890   4.738 -0.0858 -0.5215 -0.3037
31451TIP3    H195235   7.058   1.848   4.778 -1.5412  0.7787 -1.5124
31451TIP3    H295236   7.148   1.842   4.657  1.7533 -2.0556  0.8482
31452TIP3   OH295237   8.931   8.398   2.294  0.7124  0.1411 -0.5123
31452TIP3    H195238   8.971   8.479   2.264  0.3650  0.8083  0.7636
31452TIP3    H295239   8.843   8.400   2.258  1.3943 -0.7879 -2.3730
31453TIP3   OH295240   5.803   5.816  10.132  0.1975  0.6571  0.6275
31453TIP3    H195241   5.778   5.724  10.126 -0.2043  0.8316 -0.7038
31453TIP3    H295242   5.872   5.818  10.198  0.7903 -0.7253  0.0741
31454TIP3   OH295243   9.031   6.562   2.089  0.1603 -0.0969  0.1995
31454TIP3    H195244   9.005   6.552   1.997 -1.3539  0.5246  0.5327
31454TIP3    H295245   9.020   6.474   2.127 -0.4618 -0.0766  0.0781
31455TIP3   OH295246   3.073   3.285   4.516  0.2749  0.4193  1.0299
31455TIP3    H195247   3.163   3.318   4.509  0.7027 -0.9905 -0.6912
31455TIP3    H295248   3.082   3.200   4.558  0.2068 -1.2184 -2.0150
31456TIP3   OH295249   3.868   3.107   0.302  0.1499 -0.5214 -0.5785
31456TIP3    H195250   3.915   3.075   0.379  1.1412 -1.1896 -1.4252
31456TIP3    H295251   3.776   3.098   0.324  0.4220 -0.1632  0.7392
31457TIP3   OH295252   5.154   4.935   5.378  0.2490  0.0113 -0.8052
31457TIP3    H195253   5.148   5.019   5.331  1.1401  0.9552  0.6887
31457TIP3    H295254   5.243   4.904   5.360  0.0483 -0.4281 -1.0441
31458TIP3   OH295255   1.540   3.571   4.049 -0.1230  0.2268 -0.2821
31458TIP3    H195256   1.601   3.573   3.975  0.7548  1.4254  0.4418
31458TIP3    H295257   1.589   3.532   4.121 -0.6230  0.0342 -0.0368
31459TIP3   OH295258   4.138   6.679   2.313 -0.3584 -0.0511 -0.3321
31459TIP3    H195259   4.077   6.672   2.240 -0.3202  1.9954 -0.6389
31459TIP3    H295260   4.223   6.656   2.275 -0.6265 -0.9174 -0.4190
31460TIP3   OH295261   6.257   6.146   0.398 -0.2071  0.0385  0.4416
31460TIP3    H195262   6.280   6.131   0.490 -0.3521 -0.1945  0.4422
31460TIP3    H295263   6.184   6.086   0.382 -0.4652  0.3889  0.2944
31461TIP3   OH295264   0.665   9.065   5.962 -0.1687  0.3099  0.0021
31461TIP3    H195265   0.654   9.131   6.031 -1.2787  0.5971 -0.4198
31461TIP3    H295266   0.642   8.982   6.005  0.8804  0.2360  0.4386
31462TIP3   OH295267   1.884   3.069   4.869 -0.8850 -1.0687 -0.8062
31462TIP3    H195268   1.801   3.080   4.822 -1.1598 -0.6688 -0.2253
31462TIP3    H295269   1.932   3.150   4.852 -0.8093 -1.0997 -0.7379
31463TIP3   OH295270   1.050   9.835   1.147  0.0027 -0.0598 -0.0804
31463TIP3    H195271   0.988   9.881   1.091 -0.7197 -0.7750  0.1049
31463TIP3    H295272   1.095   9.904   1.195  2.9929  0.8686 -3.7658
31464TIP3   OH295273   1.001   5.366   8.380  0.2737  0.2417 -0.0768
31464TIP3    H195274   1.020   5.438   8.320 -0.4001  0.5551  0.0808
31464TIP3    H295275   0.940   5.403   8.444  1.9303  0.2931  1.5740
31465TIP3   OH295276   5.793   2.139   5.817 -0.4370  0.4234 -0.0611
31465TIP3    H195277   5.779   2.232   5.833 -0.5417  0.0520  2.3335
31465TIP3    H295278   5.871   2.117   5.868 -0.7319 -0.8962 -0.1413
31466TIP3   OH295279   8.919   3.746   4.863 -0.7138 -0.5384  0.0218
31466TIP3    H195280   8.869   3.775   4.787 -0.7385 -1.2340 -0.2348
31466TIP3    H295281   8.854   3.706   4.921 -0.5792 -0.7128  0.0549
31467TIP3   OH295282   9.965   5.791   6.512 -0.0575 -0.0407  0.4377
31467TIP3    H195283   9.913   5.753   6.583 -0.0527 -1.1243 -0.1095
31467TIP3    H295284  10.039   5.732   6.502  1.1196  1.3137  0.9820
31468TIP3   OH295285   9.236   7.438   0.909 -0.7354 -0.0540  0.1713
31468TIP3    H195286   9.145   7.439   0.879 -0.3079  1.6710 -1.2530
31468TIP3    H295287   9.230   7.417   1.002 -2.4424 -1.6132 -0.2268
31469TIP3   OH295288   9.708   6.944   7.992 -0.2886 -0.3377 -0.3269
31469TIP3    H195289   9.793   6.946   8.037 -0.2551 -1.6948 -0.2808
31469TIP3    H295290   9.672   7.031   8.006  0.7817  0.0373  0.2759
31470TIP3   OH295291   3.745   7.226   0.131  0.2153  0.0061  0.1681
31470TIP3    H195292   3.832   7.200   0.102  0.4022  1.1808 -0.3949
31470TIP3    H295293   3.715   7.154   0.186  1.0557 -0.9561 -0.5922
31471TIP3   OH295294   6.304   7.522   4.603  0.5689  0.4214  0.2624
31471TIP3    H195295   6.305   7.613   4.631  0.2443  1.1346 -1.8819
31471TIP3    H295296   6.245   7.479   4.664 -0.5976  2.0050  0.3187
31472TIP3   OH295297   6.108   8.394   5.657 -0.1306 -0.1980  0.3450
31472TIP3    H195298   6.074   8.306   5.643  1.5990 -0.7465 -0.5754
31472TIP3    H295299   6.187   8.382   5.709 -0.7630  0.9848  1.6720
31473TIP3   OH295300   0.876  10.530   1.736  0.4942  0.7516 -0.7314
31473TIP3    H195301   0.961  10.522   1.779  0.5423 -0.7250 -1.0564
31473TIP3    H295302   0.814  10.546   1.807  1.0372  1.9576 -0.5032
31474TIP3   OH295303   6.091   7.251   9.853 -0.0557 -0.2209 -0.0868
31474TIP3    H195304   6.111   7.339   9.823  0.1625 -0.3387 -0.2889
31474TIP3    H295305   6.029   7.263   9.924  0.7242  0.1543  0.5499
31475TIP3   OH295306   1.004   5.247   0.561 -0.2402 -0.4325 -0.2392
31475TIP3    H195307   0.982   5.339   0.574  0.0176 -0.4297  0.1818
31475TIP3    H295308   0.928   5.210   0.516 -0.5756 -0.1398  0.0896
31476TIP3   OH295309   8.853   6.369   7.598  0.0349 -0.2291  0.0749
31476TIP3    H195310   8.901   6.451   7.594 -0.1804 -0.0378  1.1920
31476TIP3    H295311   8.916   6.303   7.569  0.7851  0.1016  0.9283
31477TIP3   OH295312   9.642   6.732   8.871 -0.5640 -0.8430 -0.1235
31477TIP3    H195313   9.620   6.817   8.907 -1.9041 -0.6243 -1.3674
31477TIP3    H295314   9.703   6.751   8.800 -1.2089 -0.8794 -0.6872
31478TIP3   OH295315   3.062   6.113   6.584  0.4609  0.2218 -0.2162
31478TIP3    H195316   3.041   6.025   6.615  0.9839  0.1371 -0.0818
31478TIP3    H295317   3.035   6.171   6.655 -0.2206  0.2038 -0.4558
31479TIP3   OH295318   0.313   1.739   0.985 -0.1975  0.1985  0.0992
31479TIP3    H195319   0.275   1.800   1.048  1.8049  0.8304  0.7688
31479TIP3    H295320   0.315   1.655   1.031  1.3106  0.6712  0.9583
31480TIP3   OH295321   9.344  10.336   1.516  0.0126 -0.4955 -0.0680
31480TIP3    H195322   9.377  10.391   1.445  2.1563 -1.0369  0.4448
31480TIP3    H295323   9.333  10.396   1.590  1.4248 -0.5759  0.2170
31481TIP3   OH295324   9.037   4.939   7.872  0.0225 -0.1009 -0.3463
31481TIP3    H195325   9.057   4.907   7.960  0.6007 -0.2064 -0.5150
31481TIP3    H295326   8.990   5.021   7.886 -0.4915 -0.4600  0.0710
31482TIP3   OH295327   2.830  10.675   3.146  0.2785 -0.0602  0.2368
31482TIP3    H195328   2.769  10.728   3.197  0.2330 -0.2547  0.3850
31482TIP3    H295329   2.775  10.607   3.107  0.5422 -0.8238  1.1498
31483TIP3   OH295330   2.179   5.875   3.242  0.1160 -0.6069  0.1347
31483TIP3    H195331   2.118   5.803   3.254  0.9063 -1.7784 -2.3622
31483TIP3    H295332   2.241   5.866   3.315 -2.3150  0.4209  2.5426
31484TIP3   OH295333  10.504   9.984   7.682  0.5482 -0.4397 -0.3440
31484TIP3    H195334  10.566  10.022   7.744 -0.0404 -2.1855  1.4215
31484TIP3    H295335  10.508   9.890   7.699  1.0440 -1.1532 -3.6625
31485TIP3   OH295336   0.662   9.408   6.002  0.3609 -0.0313 -0.1285
31485TIP3    H195337   0.612   9.335   5.965  1.2941 -0.5423 -0.4290
31485TIP3    H295338   0.597   9.464   6.043 -0.2845 -1.5418  0.9840
31486TIP3   OH295339  10.712   0.536   1.582 -0.3237 -0.0706  0.0471
31486TIP3    H195340  10.749   0.451   1.608  0.1709  0.3950  0.8734
31486TIP3    H295341  10.706   0.586   1.663  0.6276  1.1716 -0.6151
31487TIP3   OH295342   9.286   2.448   3.366  0.4072 -0.2756  0.2967
31487TIP3    H195343   9.305   2.541   3.357  1.0357 -0.2059  1.8779
31487TIP3    H295344   9.227   2.427   3.294 -0.2052  1.4753  0.2545
31488TIP3   OH295345   7.789   0.897   4.134  0.4105 -0.4677  0.0219
31488TIP3    H195346   7.831   0.811   4.133 -0.3758 -0.9185  2.1167
31488TIP3    H295347   7.792   0.925   4.225  0.9944  1.9321 -0.6658
31489TIP3   OH295348   6.181   8.196   0.274  0.6318  0.1501 -0.1312
31489TIP3    H195349   6.269   8.227   0.254  0.5201 -0.0941 -1.0782
31489TIP3    H295350   6.141   8.181   0.188 -0.0427 -0.5477  0.2865
31490TIP3   OH295351   7.484   6.850  10.539  0.5780 -0.4652 -0.5293
31490TIP3    H195352   7.500   6.788  10.611  1.4044  0.1718 -0.1480
31490TIP3    H295353   7.522   6.808  10.462  1.1062 -0.4527 -0.2779
31491TIP3   OH295354   1.623   1.332   9.462  0.1387  0.1388  0.2296
31491TIP3    H195355   1.647   1.242   9.439  0.5938  0.3937 -0.3088
31491TIP3    H295356   1.547   1.322   9.519 -0.7532 -0.5208 -1.0471
31492TIP3   OH295357   9.491   9.947   0.542 -0.1059 -0.1446 -0.0453
31492TIP3    H195358   9.490  10.013   0.473  2.3455 -0.8303 -0.8295
31492TIP3    H295359   9.574   9.902   0.530 -0.7496 -1.9444  1.8274
31493TIP3   OH295360   0.648   7.145   7.193  0.6592 -0.0786  0.4686
31493TIP3    H195361   0.705   7.162   7.118  1.7063 -1.4321  0.9252
31493TIP3    H295362   0.692   7.189   7.266  0.2681  0.2170  0.5302
31494TIP3   OH295363   5.127   4.822   4.310  0.2940 -0.0881  0.0191
31494TIP3    H195364   5.131   4.765   4.387  1.9840  0.2935  0.2473
31494TIP3    H295365   5.089   4.767   4.241  0.6058 -1.0566  0.6031
31495TIP3   OH295366   9.477   4.183   2.889 -0.2584 -0.2980 -0.1128
31495TIP3    H195367   9.527   4.197   2.969 -0.9212  1.4523  0.0335
31495TIP3    H295368   9.527   4.117   2.841  0.9360 -0.2924  1.0623
31496TIP3   OH295369   7.058   9.633   3.935  0.3851 -0.2915  0.1776
31496TIP3    H195370   7.019   9.564   3.880 -0.2970 -0.5047  0.9041
31496TIP3    H295371   6.984   9.687   3.962  0.7948  0.1766  0.3776
31497TIP3   OH295372   1.274   4.823   2.150  0.2127 -0.0732 -0.1448
31497TIP3    H195373   1.334   4.898   2.154  1.5728 -1.1592  0.7827
31497TIP3    H295374   1.266   4.795   2.241  0.3118 -1.4976 -0.5561
31498TIP3   OH295375   3.076   8.526   2.827  0.1790 -0.7382  0.2374
31498TIP3    H195376   3.096   8.489   2.913  1.7858  2.0507  1.1726
31498TIP3    H295377   3.149   8.585   2.808 -0.9693  0.0152 -2.2829
31499TIP3   OH295378   5.509   9.833  10.434 -0.1414 -0.7655  0.2956
31499TIP3    H195379   5.553   9.765  10.383 -0.7468 -0.2048 -1.0138
31499TIP3    H295380   5.457   9.785  10.499  0.2961 -1.5010  0.1153
31500TIP3   OH295381   6.882   6.906   3.217  1.1580  0.0317 -0.0833
31500TIP3    H195382   6.949   6.955   3.264  0.1680  1.5971 -0.2524
31500TIP3    H295383   6.810   6.897   3.279 -0.2624  2.3430 -1.2837
31501TIP3   OH295384   1.574   7.932   2.134  0.1303 -0.1865 -0.3183
31501TIP3    H195385   1.503   7.931   2.198  0.7819  0.5430  0.4418
31501TIP3    H295386   1.651   7.961   2.184  0.5037  1.0840 -1.5593
31502TIP3   OH295387   6.479   0.043   8.884  0.0799 -0.1419  0.1910
31502TIP3    H195388   6.385   0.049   8.900  0.3229  1.8282  1.2037
31502TIP3    H295389   6.499  -0.050   8.895 -1.8284 -0.7069 -0.6868
31503TIP3   OH295390   9.272   7.484  10.323 -0.2222  0.0771  0.7314
31503TIP3    H195391   9.333   7.410  10.331  0.2392  0.3989  0.2767
31503TIP3    H295392   9.233   7.493  10.410  0.2167 -0.2758  0.9682
31504TIP3   OH295393   9.252   7.386   5.466 -0.6650  0.2698  0.3820
31504TIP3    H195394   9.220   7.303   5.501 -1.1025  0.4566  0.4306
31504TIP3    H295395   9.180   7.448   5.480 -0.5567  0.5272 -0.1496
31505TIP3   OH295396   3.447   2.400   9.572  0.0683 -0.4736  0.0209
31505TIP3    H195397   3.386   2.361   9.635 -0.7379 -1.1335 -1.1186
31505TIP3    H295398   3.513   2.333   9.557  0.4410 -0.1951  0.3864
31506TIP3   OH295399   9.698   5.537   2.550 -0.3533 -0.3128  0.1227
31506TIP3    H195400   9.700   5.447   2.518 -0.0025 -0.1659 -0.2725
31506TIP3    H295401   9.783   5.549   2.593  0.0962  0.2003 -0.8665
31507TIP3   OH295402   4.095   9.034   6.308 -0.4897 -0.2865 -0.4400
31507TIP3    H195403   4.082   8.982   6.229 -1.1216  1.5026 -1.5562
31507TIP3    H295404   4.040   8.992   6.374 -0.5479 -1.3458 -1.1500
31508TIP3   OH295405  10.355   6.947   0.693  0.6377 -0.4398 -0.1177
31508TIP3    H195406  10.303   6.897   0.629  0.6149  0.1051 -0.5279
31508TIP3    H295407  10.295   7.015   0.724  1.5128  1.0620 -1.6149
31509TIP3   OH295408  10.810   6.863   8.060 -0.9039 -0.4709  0.2960
31509TIP3    H195409  10.764   6.781   8.041 -0.3933 -1.0088  1.2633
31509TIP3    H295410  10.837   6.854   8.151 -0.1812  0.4560  0.1859
31510TIP3   OH295411   7.817   3.401   3.644  0.1003  0.3046  0.2426
31510TIP3    H195412   7.850   3.438   3.725  2.1670  1.2072 -0.9401
31510TIP3    H295413   7.775   3.474   3.600  1.2429  0.4738 -0.6100
31511TIP3   OH295414   7.599   1.252   6.660  0.6360 -0.0830 -0.4140
31511TIP3    H195415   7.675   1.295   6.699  0.7521  0.0699 -0.8084
31511TIP3    H295416   7.554   1.212   6.734  0.2102  1.1983  0.0511
31512TIP3   OH295417   5.525   8.427   2.588  0.3591 -0.2279 -0.0123
31512TIP3    H195418   5.568   8.509   2.613 -2.0485  0.5347  2.0684
31512TIP3    H295419   5.526   8.374   2.668  0.9657 -1.8483 -1.0446
31513TIP3   OH295420   1.353   7.808   1.526 -0.3507  0.3559  0.3716
31513TIP3    H195421   1.386   7.800   1.436 -0.2682 -0.4290  0.4637
31513TIP3    H295422   1.265   7.771   1.521  0.4708 -1.8858  1.0650
31514TIP3   OH295423   5.911   1.691   3.715  0.5207  0.6635 -0.0749
31514TIP3    H195424   5.985   1.751   3.711  1.4621 -0.4780 -0.5571
31514TIP3    H295425   5.880   1.698   3.806  3.1849 -1.0228  1.1027
31515TIP3   OH295426   4.938   8.181  10.093 -0.7418 -0.1837  0.1312
31515TIP3    H195427   4.965   8.273  10.089  0.6580 -0.6088 -1.4342
31515TIP3    H295428   4.862   8.177  10.035 -1.0111  0.0449  0.4647
31516TIP3   OH295429  10.821  10.788   5.387  0.2525  0.2591  0.4835
31516TIP3    H195430  10.874  10.839   5.448 -0.5728  2.7516 -0.7411
31516TIP3    H295431  10.734  10.785   5.427  0.4086 -0.6619  0.7768
31517TIP3   OH295432   6.366   8.885   3.742 -0.7142  0.3566 -0.0326
31517TIP3    H195433   6.396   8.814   3.685 -2.1168  0.6480 -1.1936
31517TIP3    H295434   6.401   8.862   3.829  1.9590  0.1856 -1.0540
31518TIP3   OH295435   4.593   3.064   1.108  0.1743  0.4887 -0.1161
31518TIP3    H195436   4.564   3.025   1.190  0.8395 -0.1115 -0.1538
31518TIP3    H295437   4.663   3.006   1.077  0.8839  1.4615 -0.3981
31519TIP3   OH295438   9.082   0.272   8.634 -0.1117 -0.2393 -0.0005
31519TIP3    H195439   9.148   0.320   8.685 -1.1862  2.4760 -0.9953
31519TIP3    H295440   9.047   0.208   8.696  1.0577  0.5914  1.6192
31520TIP3   OH295441   4.229   1.333   5.932  0.2367 -0.2165  0.2840
31520TIP3    H195442   4.150   1.385   5.921  0.9829  0.7091 -0.8886
31520TIP3    H295443   4.288   1.388   5.983  1.0835  0.1839 -1.0832
31521TIP3   OH295444   0.339   2.057  10.138  0.7543 -0.4751  0.5017
31521TIP3    H195445   0.320   2.130  10.197  0.7610 -0.7126  0.8014
31521TIP3    H295446   0.434   2.061  10.126  0.5885  0.4636 -0.6719
31522TIP3   OH295447   4.880   5.729   0.137 -0.0946 -0.3703  0.3952
31522TIP3    H195448   4.842   5.815   0.119 -0.4115 -0.5610  0.1314
31522TIP3    H295449   4.940   5.714   0.064 -0.0292 -0.3654  0.4480
31523TIP3   OH295450   2.150   7.215   0.131  0.5672  0.5635 -0.0754
31523TIP3    H195451   2.221   7.270   0.164  1.8268 -0.9357 -0.1213
31523TIP3    H295452   2.185   7.126   0.137 -1.0093 -0.1510 -0.9136
31524TIP3   OH295453   3.207   7.041   1.541  0.0657  0.0905 -0.2304
31524TIP3    H195454   3.122   7.075   1.515 -0.4223 -0.3890  0.6874
31524TIP3    H295455   3.249   7.015   1.459 -0.8939 -0.1888 -0.6398
31525TIP3   OH295456   8.217   1.230   6.226  0.3139  0.1498  0.0618
31525TIP3    H195457   8.199   1.137   6.242  1.1532 -0.2612 -1.2609
31525TIP3    H295458   8.219   1.238   6.130  0.4868  1.4943  0.1584
31526TIP3   OH295459   5.906   3.910   7.298 -0.0163  0.5176 -0.2807
31526TIP3    H195460   5.971   3.905   7.368  1.6094 -0.7256 -1.7898
31526TIP3    H295461   5.932   3.985   7.245 -0.5001  0.7171 -0.2378
31527TIP3   OH295462   5.796   1.248   7.675  0.2492  0.0758 -0.4150
31527TIP3    H195463   5.807   1.313   7.605  1.5755 -0.7255 -0.9857
31527TIP3    H295464   5.731   1.187   7.641  0.0307  0.3365 -0.4658
31528TIP3   OH295465   0.761   9.949   0.428 -0.2671 -0.4572  0.0918
31528TIP3    H195466   0.851   9.956   0.461  0.0696 -0.6622 -0.7490
31528TIP3    H295467   0.768   9.892   0.351 -0.9804  0.1718 -0.4589
31529TIP3   OH295468   1.045  10.154   2.280  0.1989  0.0864  0.0168
31529TIP3    H195469   1.092  10.230   2.247  0.2326 -0.1610 -0.5071
31529TIP3    H295470   0.970  10.144   2.222 -2.1691  2.1576  2.4191
31530TIP3   OH295471   0.850   1.104   1.448  0.3115  0.3241  0.1448
31530TIP3    H195472   0.808   1.165   1.387 -1.0273 -1.7039 -1.1144
31530TIP3    H295473   0.944   1.113   1.429 -0.0650 -0.7807 -2.9454
31531TIP3   OH295474   4.673   8.471   2.739 -0.5431 -0.0032 -0.8893
31531TIP3    H195475   4.629   8.428   2.666  0.5319 -0.9348 -1.0090
31531TIP3    H295476   4.744   8.520   2.697  0.3919 -0.9506 -0.4388
31532TIP3   OH295477   3.875   4.190   2.649  0.1481  0.0667 -0.0491
31532TIP3    H195478   3.938   4.117   2.654  0.7775  0.6394  0.7355
31532TIP3    H295479   3.915   4.259   2.702 -0.6686  0.8151 -0.3916
31533TIP3   OH295480   1.616   9.188   3.744  0.0801 -0.1632  0.0984
31533TIP3    H195481   1.681   9.135   3.698  1.8415  0.2764  1.9279
31533TIP3    H295482   1.656   9.206   3.829 -2.8833 -0.7020  1.7312
31534TIP3   OH295483   4.713   2.967   9.493  0.6492  0.6387 -0.3974
31534TIP3    H195484   4.639   2.948   9.550  0.4868  1.8233 -0.1825
31534TIP3    H295485   4.782   2.997   9.552  0.5532  1.6571 -0.7720
31535TIP3   OH295486   3.843   5.178   7.391 -0.0548 -0.0265 -0.1405
31535TIP3    H195487   3.910   5.112   7.406  0.1817  0.3439  0.4720
31535TIP3    H295488   3.838   5.226   7.474 -0.5382  0.4335 -0.4314
31536TIP3   OH295489   7.973  10.666   1.904 -0.4359  0.4768  0.2564
31536TIP3    H195490   7.958  10.616   1.824 -0.7829  0.1835  0.5031
31536TIP3    H295491   8.066  10.689   1.900 -0.5954  1.0448 -0.5574
31537TIP3   OH295492   9.484   5.659   8.418 -0.6959 -0.0058  0.3049
31537TIP3    H195493   9.472   5.574   8.375  0.6138  0.8823 -1.9977
31537TIP3    H295494   9.398   5.701   8.412 -0.4002  0.4141 -2.3924
31538TIP3   OH295495   1.836   1.427   5.761  0.4690 -0.7231  0.0005
31538TIP3    H195496   1.761   1.366   5.759  0.2744 -0.4847 -1.9165
31538TIP3    H295497   1.905   1.377   5.804 -0.3827 -1.4344  0.6082
31539TIP3   OH295498   2.492   2.818   7.141  0.4768 -0.1155 -0.4206
31539TIP3    H195499   2.577   2.857   7.163  0.0060  0.0101  1.2801
31539TIP3    H295500   2.506   2.724   7.148  0.4694 -0.0932 -0.1028
31540TIP3   OH295501  10.725   2.771   8.073  0.4046  0.6207 -0.2224
31540TIP3    H195502  10.635   2.751   8.045  0.9698 -2.2042 -0.2980
31540TIP3    H295503  10.714   2.832   8.146 -1.6272 -0.2587  0.2808
31541TIP3   OH295504   5.200   3.505   1.990  0.4621  0.3852 -0.6046
31541TIP3    H195505   5.168   3.482   1.902 -3.5396 -0.0205  0.7946
31541TIP3    H295506   5.189   3.425   2.041 -3.1346  2.1038  1.6570
31542TIP3   OH295507  10.554   8.983   4.806  0.2428 -0.4401  0.0108
31542TIP3    H195508  10.461   9.006   4.812  0.0897 -0.2554 -2.1979
31542TIP3    H295509  10.554   8.891   4.780  0.6317 -0.2022 -0.8785
31543TIP3   OH295510   9.392   8.515   6.903  0.5931  0.1256 -0.2369
31543TIP3    H195511   9.435   8.474   6.978  2.3682  0.9612 -0.7382
31543TIP3    H295512   9.428   8.468   6.827  0.6893  0.9165 -0.6851
31544TIP3   OH295513   6.476   3.945   6.577  0.4347  0.2430  0.7877
31544TIP3    H195514   6.520   3.885   6.516 -1.9783  0.2219 -1.0979
31544TIP3    H295515   6.463   3.894   6.657  3.3534  0.1403  1.2978
31545TIP3   OH295516   1.890   2.425   8.476 -0.6791 -0.1966  0.4790
31545TIP3    H195517   1.800   2.393   8.475 -0.6111 -0.3848  0.2139
31545TIP3    H295518   1.936   2.370   8.412 -0.5647  0.4355  0.0092
31546TIP3   OH295519   3.389   5.014   0.701  0.0195 -0.5064  0.2834
31546TIP3    H195520   3.359   5.061   0.779 -0.8755 -0.1358 -0.2707
31546TIP3    H295521   3.439   4.940   0.736  2.2139  1.2646  1.1825
31547TIP3   OH295522   1.595   3.667   5.834 -0.2663 -0.3885 -0.0833
31547TIP3    H195523   1.531   3.710   5.777  0.3556 -1.0951 -1.3689
31547TIP3    H295524   1.618   3.734   5.899 -1.1665  0.3711 -0.5238
31548TIP3   OH295525   1.391   4.958   2.391  0.0311  0.4569 -0.2591
31548TIP3    H195526   1.319   5.003   2.348 -0.4688  0.1340  0.2248
31548TIP3    H295527   1.376   4.973   2.484  0.6902  0.5330 -0.1585
31549TIP3   OH295528   2.019   0.282   1.630  0.4845 -0.3437 -0.2859
31549TIP3    H195529   1.990   0.218   1.565  1.1713 -0.3550 -0.5909
31549TIP3    H295530   1.994   0.245   1.714 -1.1196  0.0294 -0.5735
31550TIP3   OH295531   2.282   6.979   3.342  0.4197 -0.0528 -0.4063
31550TIP3    H195532   2.230   6.944   3.414 -0.1713 -0.3039 -0.9465
31550TIP3    H295533   2.270   7.074   3.347  0.6269 -0.0465  0.0056
31551TIP3   OH295534   6.510   5.992   8.942 -0.5005  0.3014  0.8900
31551TIP3    H195535   6.510   6.033   8.855  0.1689 -0.1709  0.6616
31551TIP3    H295536   6.595   5.948   8.948 -1.0100 -0.6521  1.3223
31552TIP3   OH295537   3.304   4.514   8.320  0.3649 -0.4735 -0.2022
31552TIP3    H195538   3.284   4.430   8.362 -0.8380  1.2078  2.9494
31552TIP3    H295539   3.298   4.578   8.391 -0.2501  2.4974 -2.7148
31553TIP3   OH295540   1.795   1.232   1.179  0.2487 -0.3293 -0.5136
31553TIP3    H195541   1.770   1.312   1.226 -1.1323 -1.0344  0.0193
31553TIP3    H295542   1.868   1.198   1.230  0.9885  0.6856 -0.8637
31554TIP3   OH295543   0.298   2.843   9.730 -0.1035  0.6420 -0.5250
31554TIP3    H195544   0.309   2.750   9.711 -0.7152  0.3650  0.4269
31554TIP3    H295545   0.379   2.884   9.699 -0.0803 -0.1097 -1.5070
31555TIP3   OH295546   8.989   1.064   0.864 -0.3761  0.1511  0.1791
31555TIP3    H195547   8.969   1.007   0.789 -1.5438 -0.4705  0.9262
31555TIP3    H295548   8.904   1.096   0.892 -0.1042 -0.5563  1.9547
31556TIP3   OH295549   6.852   9.566   6.272  0.1152 -0.1546 -0.5649
31556TIP3    H195550   6.929   9.619   6.294  0.0832 -1.3003  2.6798
31556TIP3    H295551   6.790   9.581   6.343 -1.7319 -1.1627 -1.8547
31557TIP3   OH295552   7.567   0.950   8.522 -0.3896  0.1286  0.3629
31557TIP3    H195553   7.524   0.996   8.594  0.8893 -2.0953  2.7096
31557TIP3    H295554   7.498   0.938   8.456 -2.0789  0.7558  1.9393
31558TIP3   OH295555  10.846   2.015   0.374  0.0153  0.1542  0.4617
31558TIP3    H195556  10.775   2.048   0.319 -0.6273 -2.1162 -0.1915
31558TIP3    H295557  10.807   1.943   0.423  1.4943 -0.1774  1.2176
31559TIP3   OH295558   2.936   2.541  10.525 -0.2145  0.0091  0.3277
31559TIP3    H195559   2.846   2.529  10.556  0.0638 -0.8061  0.8373
31559TIP3    H295560   2.946   2.636  10.519 -0.5229  0.1770  2.0159
31560TIP3   OH295561  10.897   7.904   6.526 -0.1006  0.2540  0.3376
31560TIP3    H195562  10.831   7.853   6.573  0.1205 -0.4663 -0.1129
31560TIP3    H295563  10.908   7.858   6.443 -0.5680  1.5643 -0.4882
31561TIP3   OH295564   8.922   5.612  10.450 -0.2553 -0.3280  0.1154
31561TIP3    H195565   8.945   5.609  10.357  0.2832 -1.3599  0.2729
31561TIP3    H295566   8.984   5.675  10.487 -0.5172  0.1425 -0.2198
31562TIP3   OH295567   3.693   2.182   0.539 -0.2474 -0.2612  0.4690
31562TIP3    H195568   3.746   2.247   0.494 -1.2144  1.6247  1.8901
31562TIP3    H295569   3.730   2.178   0.627  0.3072 -2.3053  0.1747
31563TIP3   OH295570   1.862   9.456   2.866 -0.1129 -0.7836 -0.6416
31563TIP3    H195571   1.854   9.539   2.819 -2.8828 -3.1641 -5.0610
31563TIP3    H295572   1.944   9.418   2.836  0.6772 -0.1356  0.6288
31564TIP3   OH295573   5.878   8.712   1.276  0.1623 -0.4191 -0.4600
31564TIP3    H195574   5.963   8.707   1.319  0.0332  0.1645 -0.1353
31564TIP3    H295575   5.853   8.620   1.262  1.3806 -0.6050 -1.6596
31565TIP3   OH295576   8.674   7.026   3.795  0.6078  0.4591 -0.2739
31565TIP3    H195577   8.597   6.970   3.799  2.0340 -1.8112 -1.8551
31565TIP3    H295578   8.642   7.108   3.759 -0.9646 -0.6938 -1.6778
31566TIP3   OH295579   9.172   4.104   2.455  0.7973 -0.0227  0.4503
31566TIP3    H195580   9.090   4.063   2.426  1.9258 -0.1144 -3.1908
31566TIP3    H295581   9.146   4.166   2.522 -2.1975 -0.3562 -0.2549
31567TIP3   OH295582   2.624   6.558   7.181 -0.6085  0.7686  0.3611
31567TIP3    H195583   2.603   6.602   7.264 -1.1279  1.5452 -0.1711
31567TIP3    H295584   2.674   6.623   7.132  0.4424  0.0071  0.3881
31568TIP3   OH295585   2.384   3.943  10.555 -0.3506  0.0493 -0.2076
31568TIP3    H195586   2.345   3.968  10.471 -0.0994 -0.3995 -0.4604
31568TIP3    H295587   2.459   4.001  10.565  0.1517 -0.4981 -0.7284
31569TIP3   OH295588  10.582   0.858   1.998 -0.4812  0.1388  0.5064
31569TIP3    H195589  10.635   0.932   2.029  1.3952 -0.2616 -1.4947
31569TIP3    H295590  10.492   0.883   2.019  0.2511  2.0623  1.6882
31570TIP3   OH295591   3.756   6.476   8.333  0.3609  0.2133 -0.2545
31570TIP3    H195592   3.715   6.559   8.359  0.7676  0.4538 -0.3768
31570TIP3    H295593   3.687   6.429   8.285  0.9834  1.7268 -2.7993
31571TIP3   OH295594   4.525  10.266   3.860  0.0894 -0.2711 -0.0073
31571TIP3    H195595   4.443  10.239   3.902  0.0913 -0.8748 -0.3797
31571TIP3    H295596   4.589  10.200   3.888 -0.0577 -1.0815 -1.4658
31572TIP3   OH295597   2.487   0.935   5.012 -0.5614  0.9381 -0.2931
31572TIP3    H195598   2.396   0.925   4.984 -0.8916  0.2277  0.9755
31572TIP3    H295599   2.532   0.860   4.973 -0.8444  0.4395  0.3148
31573TIP3   OH295600   4.462   1.858   2.317  0.0273 -0.1931 -0.1617
31573TIP3    H195601   4.461   1.953   2.327  0.4038 -0.1275 -0.7022
31573TIP3    H295602   4.389   1.827   2.370  0.5797  0.3112  0.9259
31574TIP3   OH295603   2.322  10.737   9.505  0.0482 -0.3176 -0.1492
31574TIP3    H195604   2.235  10.763   9.535  1.1394  2.9957  0.6108
31574TIP3    H295605   2.373  10.728   9.585  1.1247  0.9351 -0.6619
31575TIP3   OH295606   2.339   6.322   5.983 -0.7309  0.1533  0.6324
31575TIP3    H195607   2.331   6.226   5.977  0.0290  0.0617  1.0713
31575TIP3    H295608   2.297   6.353   5.903 -1.9308 -0.4908  0.9887
31576TIP3   OH295609   1.741   5.533   2.389 -0.0390 -0.6242  0.4377
31576TIP3    H195610   1.726   5.543   2.295  1.4752 -0.0516  0.2267
31576TIP3    H295611   1.733   5.622   2.424 -0.5275 -0.8269  0.8543
31577TIP3   OH295612   9.556   5.991   1.403 -0.3081 -0.3400  0.2974
31577TIP3    H195613   9.528   6.069   1.451  0.0316 -0.4296  0.6489
31577TIP3    H295614   9.639   5.967   1.444 -0.2893 -0.7416  0.0249
31578TIP3   OH295615   6.809   5.144   2.394  0.3625 -0.2133 -0.5340
31578TIP3    H195616   6.725   5.168   2.355  0.8145 -0.0578 -1.4287
31578TIP3    H295617   6.827   5.214   2.456  0.9499  1.0379 -2.0523
31579TIP3   OH295618   3.963   1.293   5.645  0.0095 -0.3690  0.2720
31579TIP3    H195619   4.048   1.248   5.646 -1.1601 -2.7248  1.3096
31579TIP3    H295620   3.926   1.275   5.732 -2.2323 -0.7734 -0.7116
31580TIP3   OH295621   0.374   1.926   3.907 -0.8277 -0.2545 -0.0904
31580TIP3    H195622   0.329   1.985   3.847  0.4597  0.3129 -0.5478
31580TIP3    H295623   0.447   1.891   3.855 -1.8044 -2.6389  0.0117
31581TIP3   OH295624   1.068  10.075   3.046 -0.3902  0.4338  0.2632
31581TIP3    H195625   1.048  10.164   3.015  0.1374  0.0182 -1.3941
31581TIP3    H295626   0.987  10.026   3.031 -0.2102  0.2878 -0.2305
31582TIP3   OH295627   9.110   0.669   7.162  0.1829  0.4325 -0.1553
31582TIP3    H195628   9.195   0.663   7.206  0.3736  1.0320 -0.4364
31582TIP3    H295629   9.096   0.581   7.126  2.2588  1.1355 -2.9813
31583TIP3   OH295630   1.033   2.245   7.311  0.0183  0.1422  0.4234
31583TIP3    H195631   1.084   2.272   7.235  0.7709  1.1635  1.2628
31583TIP3    H295632   1.071   2.161   7.338 -1.3961 -1.1551 -1.3344
31584TIP3   OH295633   4.523   5.734   6.195  0.8676 -0.2074  0.1422
31584TIP3    H195634   4.529   5.814   6.143 -0.7844  0.5852  1.0915
31584TIP3    H295635   4.605   5.687   6.176  1.5421  1.3285 -1.0073
31585TIP3   OH295636   2.348   3.114  10.077 -0.3958 -0.1987 -0.2099
31585TIP3    H195637   2.361   3.034  10.128 -0.0126  0.2385  0.3869
31585TIP3    H295638   2.370   3.089   9.987 -0.2049 -0.7423 -0.0162
31586TIP3   OH295639   1.142   7.659   3.893  0.7076 -0.0830  0.1104
31586TIP3    H195640   1.087   7.719   3.843  1.4992  3.4536  3.0421
31586TIP3    H295641   1.090   7.638   3.970  1.0625 -2.0628 -0.1353
31587TIP3   OH295642  10.397   3.624   8.165 -0.0712  0.3677  0.1129
31587TIP3    H195643  10.429   3.713   8.179  0.0453  0.3293  0.0988
31587TIP3    H295644  10.314   3.620   8.211 -0.2895  0.6175 -0.2519
31588TIP3   OH295645   0.404   9.966   6.487 -0.1594 -0.5421 -0.5161
31588TIP3    H195646   0.486  10.003   6.456  0.4916 -1.5349 -0.0381
31588TIP3    H295647   0.396   9.996   6.578  0.7809 -2.1444  0.1442
31589TIP3   OH295648   6.889  10.637   9.047  0.0774 -0.0182 -0.4273
31589TIP3    H195649   6.849  10.694   9.112 -1.3770  0.6292 -1.8231
31589TIP3    H295650   6.853  10.550   9.066  0.4073 -0.0202  0.2082
31590TIP3   OH295651   3.174   9.684   3.970 -0.4238 -0.8339  0.6179
31590TIP3    H195652   3.253   9.659   3.922  0.0373 -0.4022  1.1405
31590TIP3    H295653   3.154   9.607   4.024 -0.4621 -1.0029  0.3668
31591TIP3   OH295654   3.263   2.128   8.436 -0.2060 -0.2368 -0.5963
31591TIP3    H195655   3.225   2.091   8.357  1.7697 -2.0812 -0.7630
31591TIP3    H295656   3.205   2.098   8.506 -0.9762 -0.0635 -1.1414
31592TIP3   OH295657   5.270   5.879   4.951 -0.3810 -0.5386 -0.0862
31592TIP3    H195658   5.351   5.871   5.002 -0.3126  2.4717  0.4732
31592TIP3    H295659   5.202   5.847   5.010  0.0127  0.4518  0.9558
31593TIP3   OH295660   1.158   1.256  10.162  0.4339  0.0272 -0.3067
31593TIP3    H195661   1.189   1.311  10.233  1.5747  1.5198 -1.8714
31593TIP3    H295662   1.219   1.182  10.161  0.6960  0.2347 -0.0015
31594TIP3   OH295663   1.770   4.261  10.539 -0.2643  0.5126 -0.4410
31594TIP3    H195664   1.844   4.275  10.480  0.2005  1.0421  0.2501
31594TIP3    H295665   1.704   4.325  10.512 -0.6156 -0.1829 -1.2735
31595TIP3   OH295666   0.894   1.962   7.818 -0.2960  0.1806  0.1228
31595TIP3    H195667   0.831   1.991   7.884  0.0282 -1.1446  1.0609
31595TIP3    H295668   0.976   2.005   7.844 -0.5095  0.8892 -0.3470
31596TIP3   OH295669   2.630   5.678   5.572 -0.4628  0.5662  0.5621
31596TIP3    H195670   2.696   5.659   5.506  0.4924 -0.2450  1.6929
31596TIP3    H295671   2.624   5.598   5.624 -2.3984  0.6003  0.4634
31597TIP3   OH295672   5.702  10.701  10.336  0.2849  0.2898  0.6192
31597TIP3    H195673   5.748  10.704  10.252  0.6028 -0.4190  0.7584
31597TIP3    H295674   5.632  10.766  10.327 -1.1945 -1.4007 -1.0978
31598TIP3   OH295675   3.677   7.739   2.624  0.2676 -0.0315  0.3756
31598TIP3    H195676   3.708   7.736   2.533  1.1590 -0.3810  0.6877
31598TIP3    H295677   3.734   7.803   2.667 -0.1691  0.1506  0.6922
31599TIP3   OH295678   2.475   5.913   2.428  0.0148  0.3850 -0.6616
31599TIP3    H195679   2.570   5.924   2.422  0.3425 -0.9697  1.3285
31599TIP3    H295680   2.461   5.818   2.424 -0.8815  0.2737  2.6855
31600TIP3   OH295681   6.640   7.854   6.552 -0.3252  0.0201  0.4196
31600TIP3    H195682   6.558   7.804   6.556 -1.1126  1.3186  1.2204
31600TIP3    H295683   6.709   7.788   6.559 -1.3197 -1.0157  0.6941
31601TIP3   OH295684   9.817   9.403   2.174  0.8102 -0.4931  0.7630
31601TIP3    H195685   9.836   9.482   2.124  2.6215 -1.3418  0.0168
31601TIP3    H295686   9.833   9.428   2.265 -0.8005  0.5746  0.7910
31602TIP3   OH295687   3.610   4.078   3.233  0.3374 -0.2852 -0.3024
31602TIP3    H195688   3.602   4.052   3.325  0.5226  0.3229 -0.1058
31602TIP3    H295689   3.520   4.095   3.205  0.3734  0.7354  0.1429
31603TIP3   OH295690   1.664   5.057   8.580  0.2601  0.0939  0.1018
31603TIP3    H195691   1.597   5.068   8.648  0.2812 -0.4464  0.2110
31603TIP3    H295692   1.653   4.967   8.549  0.7738  0.0805 -0.0502
31604TIP3   OH295693   8.539   8.376   9.725  0.4755  0.3705 -0.0178
31604TIP3    H195694   8.544   8.338   9.637  0.5355  3.0704 -1.3187
31604TIP3    H295695   8.473   8.445   9.716  1.5520  1.6777  1.6448
31605TIP3   OH295696   6.948   6.219   8.381 -0.3431 -0.4174 -0.8320
31605TIP3    H195697   6.943   6.129   8.349  1.2247 -0.9595  0.2914
31605TIP3    H295698   7.021   6.258   8.333 -0.2700 -0.1228 -0.4940
31606TIP3   OH295699   5.389   2.463   6.881 -0.1109  0.1686  0.4066
31606TIP3    H195700   5.320   2.406   6.849 -0.1299 -0.3632  1.3542
31606TIP3    H295701   5.468   2.409   6.879  0.2807  0.7498 -0.6058
31607TIP3   OH295702   9.209   1.226   9.525 -0.4019 -0.6768 -0.6087
31607TIP3    H195703   9.170   1.284   9.460 -0.1120  0.5934  0.3099
31607TIP3    H295704   9.303   1.236   9.512 -0.2926  0.6353  0.8197
31608TIP3   OH295705  10.124   1.278  10.260 -0.2308  0.1409  0.5514
31608TIP3    H195706  10.202   1.229  10.285 -0.3627 -0.2125  0.2665
31608TIP3    H295707  10.067   1.214  10.219 -0.8168  0.3219  1.0612
31609TIP3   OH295708   0.582   1.329  10.728 -0.2458  0.0469  0.0406
31609TIP3    H195709   0.503   1.327  10.782 -0.4050 -1.1967 -0.2080
31609TIP3    H295710   0.649   1.288  10.782  0.4281  1.7173  0.5156
31610TIP3   OH295711   8.733   5.699   6.435 -0.1308  0.1777  0.3911
31610TIP3    H195712   8.658   5.652   6.472 -0.5624  1.6262  1.4582
31610TIP3    H295713   8.735   5.782   6.483  0.6802  1.2031 -1.3124
31611TIP3   OH295714   9.874   0.554   8.150  0.3280 -0.4640  0.0157
31611TIP3    H195715   9.814   0.508   8.092  1.6657 -1.0835 -0.9265
31611TIP3    H295716   9.924   0.612   8.092  0.8667 -0.2077  0.7178
31612TIP3   OH295717   3.641   5.362   2.904  0.2802  0.4524 -0.6956
31612TIP3    H195718   3.565   5.311   2.934  0.5454  0.3382 -0.2158
31612TIP3    H295719   3.698   5.368   2.980 -0.0433  2.0500 -0.5487
31613TIP3   OH295720   9.002   5.427   6.199 -0.1344 -0.5926 -0.2910
31613TIP3    H195721   9.005   5.332   6.195  1.2316 -0.5953  0.2525
31613TIP3    H295722   8.979   5.447   6.290 -1.3218 -0.3948 -0.6212
31614TIP3   OH295723   1.077   5.047   0.258  0.3264  0.3747  0.2769
31614TIP3    H195724   0.985   5.060   0.281  0.5852  0.8502  1.0713
31614TIP3    H295725   1.077   5.036   0.163 -0.5702  0.1790  0.2919
31615TIP3   OH295726   7.658   7.157   9.184  0.4456 -0.1134 -0.2215
31615TIP3    H195727   7.675   7.112   9.267 -1.8573 -1.2624 -0.3120
31615TIP3    H295728   7.728   7.127   9.126  1.3633 -0.2700  0.9125
31616TIP3   OH295729   4.089  10.807   8.398 -0.2752  0.3923 -0.0887
31616TIP3    H195730   4.182  10.817   8.418 -0.4236  1.6278  0.0887
31616TIP3    H295731   4.057  10.745   8.464  0.3595  0.1866  0.0331
31617TIP3   OH295732   5.029  10.828   5.066 -0.6335  0.1683 -0.0445
31617TIP3    H195733   4.938  10.833   5.036 -0.6512 -1.2264 -0.3140
31617TIP3    H295734   5.067  10.913   5.043 -1.5388  0.3291 -1.0501
31618TIP3   OH295735   4.717   9.241  10.027  0.3912  0.4357  0.8096
31618TIP3    H195736   4.749   9.321   9.985  0.0324  2.8670  4.6315
31618TIP3    H295737   4.755   9.243  10.114 -1.7585 -2.2164  1.9592
31619TIP3   OH295738   5.977   0.079   5.817 -0.5055 -0.4060 -0.3738
31619TIP3    H195739   5.956   0.135   5.892 -0.6751  1.5901 -1.8441
31619TIP3    H295740   5.922   0.112   5.746  1.3995 -0.6019 -2.0416
31620TIP3   OH295741   9.917   7.000   8.157 -0.3081  0.5752 -0.0226
31620TIP3    H195742   9.987   6.963   8.211  0.0053  0.1978 -0.6741
31620TIP3    H295743   9.867   7.055   8.217  1.3007  1.8851  0.1956
31621TIP3   OH295744   8.595   5.313   6.773  0.3179  0.3688 -0.1436
31621TIP3    H195745   8.523   5.310   6.709 -0.5479 -1.7035  0.8148
31621TIP3    H295746   8.562   5.262   6.847  2.1600  0.8044  1.0182
31622TIP3   OH295747   8.903   0.452   3.922  0.0287  0.6268  0.0805
31622TIP3    H195748   8.905   0.357   3.907 -0.5867  0.9792 -2.8528
31622TIP3    H295749   8.810   0.472   3.933  0.1275  0.9556  0.3369
31623TIP3   OH295750   6.500   3.145   5.528  0.2963  0.2726  0.5705
31623TIP3    H195751   6.588   3.176   5.545  0.1046 -0.2055  2.6442
31623TIP3    H295752   6.459   3.138   5.614 -0.9093 -2.0392 -0.1116
31624TIP3   OH295753   9.960   4.676   5.894 -0.1505 -0.4544  0.2097
31624TIP3    H195754  10.006   4.724   5.964  0.8769  0.1070 -0.8186
31624TIP3    H295755   9.910   4.743   5.848 -0.6710 -0.7898  0.2874
31625TIP3   OH295756  10.397   6.798   5.645  0.0990 -0.0947  0.2600
31625TIP3    H195757  10.356   6.718   5.678  0.4342 -0.2923  0.1996
31625TIP3    H295758  10.361   6.867   5.701 -1.3851 -0.0668 -0.6630
31626TIP3   OH295759   1.681   0.703   0.173  0.1179  0.2072  0.2290
31626TIP3    H195760   1.623   0.677   0.101 -0.3963  0.4566  0.5434
31626TIP3    H295761   1.672   0.799   0.177 -0.0325  0.1750  0.7606
31627TIP3   OH295762   6.756   6.719   9.559  0.3407  0.4772 -0.5105
31627TIP3    H195763   6.818   6.783   9.523  0.6334 -0.0515 -0.9736
31627TIP3    H295764   6.752   6.649   9.492 -2.7930  1.7080 -1.8452
31628TIP3   OH295765   0.855   1.322   2.325 -0.0860  0.8260  0.2612
31628TIP3    H195766   0.948   1.305   2.309  0.0960  1.4888  0.6011
31628TIP3    H295767   0.839   1.292   2.414  0.1915  2.2125  0.7939
31629TIP3   OH295768   4.452   0.658   0.483  0.4051  0.3821  0.7072
31629TIP3    H195769   4.539   0.622   0.464 -0.8860 -1.2137 -3.0844
31629TIP3    H295770   4.407   0.588   0.530  0.3360  0.1376  0.2787
31630TIP3   OH295771   2.839  10.579   1.368 -0.2966  0.4390 -0.6603
31630TIP3    H195772   2.878  10.616   1.447  0.9587  0.9628 -1.4885
31630TIP3    H295773   2.776  10.515   1.400  1.5137 -0.7331  0.7524
31631TIP3   OH295774   1.492   7.237   9.076 -0.4768 -0.2617 -0.0536
31631TIP3    H195775   1.518   7.299   9.144  0.0866 -0.0179 -0.4948
31631TIP3    H295776   1.571   7.188   9.056 -0.6136 -0.2496 -0.6265
31632TIP3   OH295777   2.270   0.665   5.140 -0.0646 -0.6396  0.3084
31632TIP3    H195778   2.267   0.609   5.217  2.5384 -0.3488  0.7094
31632TIP3    H295779   2.210   0.624   5.078  3.0202 -5.1537 -0.1950
31633TIP3   OH295780   5.308   5.179   5.290  0.1461  0.2422 -0.3517
31633TIP3    H195781   5.224   5.220   5.311  0.0546  1.1101 -2.2675
31633TIP3    H295782   5.362   5.195   5.368 -1.1568  0.4493  0.5497
31634TIP3   OH295783  10.233   6.510   0.075  0.2479  0.2659  0.2828
31634TIP3    H195784  10.155   6.500   0.131  0.3016  1.1490  0.5266
31634TIP3    H295785  10.224   6.441   0.009 -0.7230  0.3242  0.3379
31635TIP3   OH295786   5.919   1.155  10.287  0.2639 -0.3055 -0.4652
31635TIP3    H195787   5.833   1.130  10.253  0.0533  1.3296 -1.2280
31635TIP3    H295788   5.904   1.172  10.380 -0.6086  1.3795 -0.8746
31636TIP3   OH295789   7.465   3.883   8.067  0.2720  0.1634 -0.0369
31636TIP3    H195790   7.423   3.900   8.151  1.2291 -1.1798  0.7369
31636TIP3    H295791   7.517   3.962   8.050 -1.1004  1.0889 -0.1533
31637TIP3   OH295792   8.325   2.118   5.479 -0.4475  0.2709  0.3741
31637TIP3    H195793   8.305   2.210   5.499 -0.5994  0.2060  0.5250
31637TIP3    H295794   8.256   2.092   5.418 -1.5863 -0.3144  1.8388
31638TIP3   OH295795   7.808   7.188   6.358 -0.2470  0.6887  0.5765
31638TIP3    H195796   7.782   7.135   6.433 -0.3919  1.2308  0.9134
31638TIP3    H295797   7.728   7.196   6.306  0.1267 -0.6922 -0.2774
31639TIP3   OH295798   7.714   1.892   3.015 -0.7735  0.0166  0.0855
31639TIP3    H195799   7.646   1.847   3.065 -0.2419 -1.4721 -0.4924
31639TIP3    H295800   7.769   1.934   3.081 -0.0105 -2.0186  0.7961
31640TIP3   OH295801   7.584  10.217   1.449  0.3049  0.4114 -0.4843
31640TIP3    H195802   7.609  10.265   1.528 -0.6125 -0.0267  0.0906
31640TIP3    H295803   7.489  10.223   1.447  0.2139 -0.8600 -0.7293
31641TIP3   OH295804   3.707   1.923  10.550 -0.0667 -0.2082 -0.1292
31641TIP3    H195805   3.711   1.935  10.645 -1.3494  0.1662 -0.1091
31641TIP3    H295806   3.797   1.939  10.520  0.1962  0.4078  0.9369
31642TIP3   OH295807   7.824   5.265   8.578 -0.4219  0.2598 -0.6609
31642TIP3    H195808   7.900   5.213   8.552 -1.2427 -2.2155  1.4571
31642TIP3    H295809   7.835   5.278   8.672 -0.8328  3.1136 -0.9212
31643TIP3   OH295810   7.224   0.049   9.233  0.5681 -0.5095  0.3555
31643TIP3    H195811   7.311   0.089   9.239  0.7285 -0.8515  0.3255
31643TIP3    H295812   7.163   0.121   9.249  0.8801 -0.5621  1.9169
31644TIP3   OH295813   5.393   4.883   8.067  0.1430  0.2692 -0.3387
31644TIP3    H195814   5.422   4.872   7.977  0.6157  1.3157 -0.3376
31644TIP3    H295815   5.429   4.808   8.114  1.1971  0.4971 -0.7375
31645TIP3   OH295816   9.735   3.583   5.069  0.4789 -0.0436 -0.4987
31645TIP3    H195817   9.727   3.542   4.983  0.6287  1.9789 -1.5418
31645TIP3    H295818   9.805   3.647   5.059 -1.1679  2.0255  0.3513
31646TIP3   OH295819   0.400   0.906   1.748  0.1912 -0.2686  0.4181
31646TIP3    H195820   0.426   0.941   1.662 -0.2583 -1.4423 -0.2238
31646TIP3    H295821   0.326   0.849   1.728  0.2581 -0.7690  1.5574
31647TIP3   OH295822   8.364  10.716   8.820 -0.0926  0.5285 -0.0580
31647TIP3    H195823   8.351  10.635   8.870 -1.7151  0.4158 -0.6127
31647TIP3    H295824   8.316  10.702   8.738  0.7854  1.5190 -0.7744
31648TIP3   OH295825   5.106   9.674   8.060  0.2669  0.1633 -0.2744
31648TIP3    H195826   5.166   9.609   8.097 -0.0816 -0.8776 -1.4548
31648TIP3    H295827   5.152   9.757   8.069  1.0411 -0.3419  0.6138
31649TIP3   OH295828   1.438   2.347   8.805  0.0712 -0.3042 -0.3061
31649TIP3    H195829   1.443   2.301   8.721  1.5253  1.2249 -1.1023
31649TIP3    H295830   1.433   2.439   8.782 -1.5313  0.0634  1.2890
31650TIP3   OH295831  10.136   2.058   8.908  0.4913 -0.5453 -0.1866
31650TIP3    H195832  10.158   2.063   9.001  0.7049 -0.7832 -0.2225
31650TIP3    H295833  10.167   1.972   8.881 -0.5267 -0.9032 -0.2324
31651TIP3   OH295834   4.777   1.296   0.586 -0.5438  0.0512 -0.5934
31651TIP3    H195835   4.821   1.342   0.515  1.0620 -0.3409  0.0972
31651TIP3    H295836   4.712   1.358   0.619 -1.8626 -0.0018 -2.8079
31652TIP3   OH295837   6.015   5.039   0.462 -0.3253  0.2339  0.1814
31652TIP3    H195838   6.079   4.968   0.457  1.4868  1.8204 -1.0465
31652TIP3    H295839   6.034   5.082   0.545  0.9702  1.2962 -0.6186
31653TIP3   OH295840   5.397   8.912   2.105 -0.1424  0.4540 -0.0997
31653TIP3    H195841   5.344   8.834   2.089 -0.3722  0.6013 -0.0524
31653TIP3    H295842   5.341   8.970   2.156 -0.1350  0.8364 -0.5158
31654TIP3   OH295843   4.020  10.297   0.253  0.5247  0.3473 -0.3714
31654TIP3    H195844   3.931  10.329   0.269 -0.2230 -2.2087  1.1634
31654TIP3    H295845   4.067  10.317   0.334  1.0092  0.6476 -0.7269
31655TIP3   OH295846  10.304   0.324   9.440 -0.0772  0.3892  0.1133
31655TIP3    H195847  10.232   0.376   9.405  0.0322  0.9843  0.7385
31655TIP3    H295848  10.370   0.325   9.371 -0.8169 -0.5087 -0.6352
31656TIP3   OH295849   4.943   0.832  10.530  0.5018  0.1639  0.6431
31656TIP3    H195850   4.974   0.804  10.616 -0.3660  1.4230  1.3962
31656TIP3    H295851   4.873   0.770  10.508 -1.1567  1.4013  2.1242
31657TIP3   OH295852   9.473   5.607   3.387  0.8324 -0.2416  0.1257
31657TIP3    H195853   9.564   5.617   3.358  0.4010  3.3068 -0.4968
31657TIP3    H295854   9.445   5.524   3.348  2.9427  0.0128 -2.2425
31658TIP3   OH295855   9.350   5.024   9.659 -0.4793 -0.0578  0.2760
31658TIP3    H195856   9.402   5.093   9.618  0.6462 -1.3129 -0.5172
31658TIP3    H295857   9.273   5.069   9.694 -0.0911  1.4924 -0.7548
31659TIP3   OH295858   8.119   4.767   5.003 -0.1521  0.5733  0.5420
31659TIP3    H195859   8.060   4.791   5.074 -1.7510  0.3577 -0.6628
31659TIP3    H295860   8.156   4.683   5.030 -2.3064 -0.5303  0.2514
31660TIP3   OH295861   6.730   4.532   6.440 -0.1081 -0.0883  0.0502
31660TIP3    H195862   6.660   4.569   6.386  1.2826  2.0026 -0.4265
31660TIP3    H295863   6.781   4.607   6.469  3.2964 -1.5687 -1.5222
31661TIP3   OH295864   8.561   4.626   1.598 -0.2357  0.0538 -0.0224
31661TIP3    H195865   8.491   4.597   1.657 -0.2598 -0.8327 -0.4810
31661TIP3    H295866   8.577   4.552   1.541 -0.6980  1.1426 -1.6263
31662TIP3   OH295867   2.482   1.229   8.320 -0.3867 -0.3683 -0.0539
31662TIP3    H195868   2.405   1.189   8.282 -1.2774 -0.6723  1.9133
31662TIP3    H295869   2.544   1.238   8.248 -1.6187 -1.6973 -1.3268
31663TIP3   OH295870   2.932   6.134   1.851  0.2577  0.0439 -0.0134
31663TIP3    H195871   2.908   6.226   1.854 -0.4601 -0.0415 -2.0548
31663TIP3    H295872   2.991   6.126   1.777  0.3299 -1.1345  0.1492
31664TIP3   OH295873   2.373   1.872   6.439 -0.0788  0.2140  1.8890
31664TIP3    H195874   2.319   1.886   6.517 -2.9115  1.1354 -0.0780
31664TIP3    H295875   2.335   1.796   6.396  2.8126 -1.6800  2.3695
31665TIP3   OH295876   5.991   5.790   5.148  0.0363  0.4012  0.1224
31665TIP3    H195877   6.035   5.793   5.063 -0.9254 -1.7104 -0.5223
31665TIP3    H295878   6.027   5.712   5.191 -0.6974  0.5068  0.9629
31666TIP3   OH295879   6.048   5.955   5.443 -0.0559 -0.2565  0.2232
31666TIP3    H195880   6.129   5.906   5.433  0.3184  0.5851 -1.0267
31666TIP3    H295881   5.989   5.918   5.378  0.1619  0.7661 -0.5913
31667TIP3   OH295882   4.562   9.446   5.290  0.5178  0.0802  0.6157
31667TIP3    H195883   4.470   9.470   5.298  0.6650  0.9428 -0.1659
31667TIP3    H295884   4.610   9.523   5.321  0.9851  0.5080 -1.0568
31668TIP3   OH295885  10.288   9.838   1.653  0.1749 -0.0271 -0.1378
31668TIP3    H195886  10.354   9.850   1.584 -0.3839  0.3305 -0.6223
31668TIP3    H295887  10.338   9.841   1.735  0.7715  0.1536 -0.5006
31669TIP3   OH295888   3.990   0.804   1.681  0.5594 -0.6695  0.3567
31669TIP3    H195889   3.916   0.860   1.655  0.3210 -1.4355 -0.7009
31669TIP3    H295890   3.952   0.741   1.741  1.0308  0.8595  2.3826
31670TIP3   OH295891   8.541   7.586   4.280  0.4845  0.0925 -0.1142
31670TIP3    H195892   8.524   7.679   4.265  1.0018  0.1861 -0.1455
31670TIP3    H295893   8.602   7.584   4.354 -0.0059 -0.2522  0.2858
31671TIP3   OH295894   0.638   5.579   4.028  0.0253  0.0409  0.0984
31671TIP3    H195895   0.717   5.611   4.070 -0.1450 -1.8215  2.0004
31671TIP3    H295896   0.568   5.633   4.064  0.3538  1.6674 -1.5621
31672TIP3   OH295897   6.847   5.652  10.758 -0.3204  0.3580  0.1324
31672TIP3    H195898   6.758   5.630  10.787 -0.9073  1.8197 -0.4942
31672TIP3    H295899   6.890   5.567  10.750 -1.7027 -0.3985  0.2958
31673TIP3   OH295900   8.912   6.842   1.362  0.3475  0.0910  0.4137
31673TIP3    H195901   8.828   6.844   1.408  1.3665  0.4673  2.3724
31673TIP3    H295902   8.977   6.858   1.430  1.9868  0.4107 -1.1473
31674TIP3   OH295903   7.892   6.000   4.850  0.0516 -0.8774  0.5275
31674TIP3    H195904   7.862   5.972   4.763 -0.9301 -1.3796  1.0105
31674TIP3    H295905   7.986   6.014   4.840 -0.3591  1.1000 -1.1559
31675TIP3   OH295906   9.654   4.020   1.142 -0.3790 -0.6067  0.0803
31675TIP3    H195907   9.687   4.104   1.113  1.7624 -1.1712  0.7229
31675TIP3    H295908   9.569   4.011   1.099 -1.9944  3.0278  2.0898
31676TIP3   OH295909   1.233  10.724  10.253 -0.4276  0.0697  0.5946
31676TIP3    H195910   1.261  10.720  10.344 -1.2049  0.9443  0.8826
31676TIP3    H295911   1.266  10.808  10.221 -1.1471  0.2985  0.4211
31677TIP3   OH295912   7.815  10.774   6.524 -0.2575 -0.4286  0.3736
31677TIP3    H195913   7.823  10.809   6.436 -1.5934 -0.7484  0.0950
31677TIP3    H295914   7.857  10.688   6.519 -0.4194 -0.4900  0.0159
31678TIP3   OH295915   4.517   1.836   2.011  0.3485  0.1932  0.3226
31678TIP3    H195916   4.483   1.851   2.099 -1.5504 -0.2411 -0.2965
31678TIP3    H295917   4.454   1.877   1.953  1.3828  0.1610 -0.8752
31679TIP3   OH295918   8.727   7.695   8.516  0.1822  0.6616 -0.1559
31679TIP3    H195919   8.785   7.619   8.520 -0.6323 -0.0506 -1.2686
31679TIP3    H295920   8.779   7.764   8.475  0.5949  0.3804 -0.1033
31680TIP3   OH295921   4.652  10.761   1.787  0.1714  0.4959 -0.6030
31680TIP3    H195922   4.592  10.705   1.738 -0.6859  0.2910  0.6308
31680TIP3    H295923   4.691  10.703   1.853 -1.6645  1.5295  1.5190
31681TIP3   OH295924   9.441   8.810   6.556  0.1059 -0.1376  0.1646
31681TIP3    H195925   9.407   8.721   6.565 -0.5508  0.0401 -0.4745
31681TIP3    H295926   9.491   8.825   6.636  0.2835 -1.1058  0.2472
31682TIP3   OH295927   6.086   1.689   0.088  0.0249 -0.2265 -0.3385
31682TIP3    H195928   6.039   1.605   0.086 -0.6897  0.1305  0.6135
31682TIP3    H295929   6.122   1.694   0.176  1.6452 -0.3604 -0.9707
31683TIP3   OH295930   0.216   8.560   1.889  0.1278 -0.5049  0.4847
31683TIP3    H195931   0.250   8.640   1.850  0.0605  0.2423  1.8795
31683TIP3    H295932   0.240   8.491   1.827  1.1311  0.4462 -0.2370
31684TIP3   OH295933   6.758   9.801  10.085  0.7960  0.0200 -0.0892
31684TIP3    H195934   6.786   9.718  10.125  1.6528  0.5285  0.3898
31684TIP3    H295935   6.734   9.857  10.158 -0.6878 -0.0946 -0.4543
31685TIP3   OH295936  10.847   0.095   8.623 -0.1675  0.1563  0.0728
31685TIP3    H195937  10.811   0.007   8.614  0.0455  0.0270  0.4336
31685TIP3    H295938  10.878   0.098   8.714  0.7366  0.2567 -0.2299
31686TIP3   OH295939   4.271   2.377   8.920 -0.0172  0.3627 -0.2127
31686TIP3    H195940   4.270   2.416   8.832  0.4280  0.9302  0.0292
31686TIP3    H295941   4.274   2.283   8.904  0.7318  0.4765 -0.8098
31687TIP3   OH295942   1.344  10.089   3.615 -0.3644  0.2129 -0.4089
31687TIP3    H195943   1.327   9.996   3.630  0.1515  0.2602  0.5664
31687TIP3    H295944   1.278  10.134   3.667 -1.5407  0.4289 -2.0035
31688TIP3   OH295945   0.459   3.008   3.007  0.1262  0.5988 -0.6627
31688TIP3    H195946   0.502   3.003   2.921  1.6448  0.8898  0.0374
31688TIP3    H295947   0.531   3.000   3.069 -1.1054 -1.2258  0.6258
31689TIP3   OH295948   2.817   6.511   9.822  0.5722  0.0667 -0.2745
31689TIP3    H195949   2.757   6.485   9.752 -0.3472  3.8673 -1.1340
31689TIP3    H295950   2.761   6.556   9.886  2.1397  1.8082 -0.0264
31690TIP3   OH295951   1.209   8.080   6.318 -0.1655 -0.0157 -0.4503
31690TIP3    H195952   1.175   8.160   6.357  1.5685  0.0724  1.0511
31690TIP3    H295953   1.251   8.109   6.237  1.6562  0.8883  0.7512
31691TIP3   OH295954   0.204   3.940   4.647  0.2171 -0.1326  0.0547
31691TIP3    H195955   0.153   4.019   4.667  0.8888 -0.1189  1.8384
31691TIP3    H295956   0.160   3.870   4.696  0.6279 -0.5386 -0.1508
31692TIP3   OH295957   0.167   6.938  10.598 -0.3142 -0.8977 -0.3001
31692TIP3    H195958   0.111   6.974  10.666  0.0578  0.2192 -0.5630
31692TIP3    H295959   0.217   7.013  10.565  1.3479 -1.8452 -0.0815
31693TIP3   OH295960   5.283   5.508   4.532 -0.1504  0.1036  0.1463
31693TIP3    H195961   5.320   5.581   4.583  0.9990 -0.7695  0.6173
31693TIP3    H295962   5.212   5.475   4.586  0.4101 -0.1730  0.7321
31694TIP3   OH295963   8.046  10.373   3.411 -0.1071 -0.6187  0.4616
31694TIP3    H195964   8.097  10.314   3.355 -1.0183 -0.1760 -0.8728
31694TIP3    H295965   8.095  10.376   3.493  1.3477 -1.1877 -0.3506
31695TIP3   OH295966   2.456   5.922   6.531 -0.5311  0.4686 -0.3672
31695TIP3    H195967   2.363   5.900   6.531 -0.3189 -0.8799 -2.7202
31695TIP3    H295968   2.501   5.837   6.534  0.6024  1.0529 -0.0558
31696TIP3   OH295969   6.390   7.430   4.116  0.1958 -0.7273 -0.2043
31696TIP3    H195970   6.449   7.354   4.110  0.5564 -0.3912 -0.9987
31696TIP3    H295971   6.418   7.475   4.196 -0.1523 -1.5294  0.3863
31697TIP3   OH295972   8.275   2.973   0.750  0.1900  0.2293  0.2871
31697TIP3    H195973   8.221   2.895   0.755 -0.0663  0.3807 -0.0861
31697TIP3    H295974   8.358   2.943   0.714  0.0040  0.1746 -0.0947
31698TIP3   OH295975   3.459  10.791   5.559 -0.2697  0.3726 -0.2144
31698TIP3    H195976   3.496  10.878   5.540  1.7633 -0.3485  0.1330
31698TIP3    H295977   3.505  10.733   5.499 -1.1879 -0.5632 -0.0323
31699TIP3   OH295978   7.125   1.081   8.005  0.0926  0.9335  0.1934
31699TIP3    H195979   7.191   1.149   7.994  2.3588 -1.1932 -0.1434
31699TIP3    H295980   7.174   0.999   8.003 -2.4164 -0.7188  1.3155
31700TIP3   OH295981   1.913   4.968   0.640  1.0719 -0.0369  0.0514
31700TIP3    H195982   1.956   4.909   0.702  1.8890  0.8694  0.3720
31700TIP3    H295983   1.916   5.054   0.682  0.7555  0.4090 -0.8124
31701TIP3   OH295984   2.185   2.026   7.626  0.1510 -0.0753 -0.5346
31701TIP3    H195985   2.127   2.091   7.666  0.5321  1.1772 -1.9101
31701TIP3    H295986   2.261   2.021   7.684  0.4633  1.3222 -0.7952
31702TIP3   OH295987   1.626   4.840   3.609 -0.3972 -0.0181  0.3687
31702TIP3    H195988   1.630   4.745   3.620 -3.1820  0.0697  4.3716
31702TIP3    H295989   1.533   4.859   3.592  0.2192  1.9810 -1.1980
31703TIP3   OH295990   2.856   9.759   0.752 -0.4720 -0.0122  0.0329
31703TIP3    H195991   2.899   9.676   0.772 -0.3176  0.1235  0.2690
31703TIP3    H295992   2.922   9.810   0.706 -0.0162  0.5927  1.3008
31704TIP3   OH295993   6.490   3.549   8.717 -0.1047 -0.0390  0.8887
31704TIP3    H195994   6.567   3.494   8.703  1.4361  1.7366  1.9012
31704TIP3    H295995   6.477   3.594   8.634  0.9284  0.7726  1.1426
31705TIP3   OH295996   6.589   2.413  10.721 -0.3958 -0.4183 -0.0052
31705TIP3    H195997   6.527   2.461  10.666 -0.3042  0.2223  0.4342
31705TIP3    H295998   6.675   2.435  10.685 -0.4140 -1.2241 -0.5504
31706TIP3   OH295999   7.365   0.292   2.127 -0.8053  0.4034  0.1044
31706TIP3    H196000   7.348   0.316   2.218 -0.3327  0.0208  0.2969
31706TIP3    H296001   7.303   0.345   2.077 -0.6634  1.0598  0.6040
31707TIP3   OH296002   6.040   7.599   6.961  0.3005 -0.3403 -0.1271
31707TIP3    H196003   6.096   7.574   7.035 -0.2874  0.8092  0.7441
31707TIP3    H296004   6.035   7.520   6.907 -0.5574 -1.7377  1.8922
31708TIP3   OH296005   7.990   3.975   4.496  0.0446  0.1349  0.1587
31708TIP3    H196006   7.981   4.013   4.583 -2.0502  0.3114 -0.0661
31708TIP3    H296007   7.955   3.886   4.505 -0.1722  0.1474 -0.4720
31709TIP3   OH296008   2.673   9.644   1.836 -0.3045  0.4916  0.2676
31709TIP3    H196009   2.759   9.661   1.873 -1.1266 -1.1442  3.2545
31709TIP3    H296010   2.687   9.573   1.774  0.7214  1.4831 -0.6771
31710TIP3   OH296011   4.072   0.950   4.367 -0.3354 -1.1937  0.3773
31710TIP3    H196012   3.999   0.890   4.355 -0.4496 -1.3665  1.7419
31710TIP3    H296013   4.142   0.897   4.404  0.5515 -1.0527 -1.0251
31711TIP3   OH296014   9.612   3.273  10.462 -0.1637  0.4694  0.2327
31711TIP3    H196015   9.563   3.191  10.457 -2.4270  1.7646 -0.4509
31711TIP3    H296016   9.598   3.305  10.551  0.7174  0.1222  0.5005
31712TIP3   OH296017   8.615   1.955   2.550 -0.3150  0.2904  0.2971
31712TIP3    H196018   8.548   1.965   2.481  0.3830 -0.0518 -0.4455
31712TIP3    H296019   8.649   2.043   2.564 -1.9283  0.7402  1.7489
31713TIP3   OH296020   1.298   7.385   4.768 -0.0376 -0.2851  0.2466
31713TIP3    H196021   1.295   7.290   4.759  0.8422 -0.1679 -1.7781
31713TIP3    H296022   1.280   7.418   4.680 -1.0785  1.4646  1.0506
31714TIP3   OH296023   7.717   0.074   4.415 -0.3122  0.1094  0.5943
31714TIP3    H196024   7.801   0.082   4.460 -1.1842 -0.1206  2.3098
31714TIP3    H296025   7.654   0.116   4.473 -1.2383  1.4043 -1.2284
31715TIP3   OH296026   3.736   7.362   8.417 -0.0347  0.6653  0.4841
31715TIP3    H196027   3.682   7.440   8.409  0.5652  0.9570 -0.9507
31715TIP3    H296028   3.703   7.318   8.496 -2.2031  0.9469 -0.2060
31716TIP3   OH296029   9.152   4.223   9.834 -0.1868  0.1388 -0.5991
31716TIP3    H196030   9.204   4.150   9.801 -0.4907 -0.7567  0.8378
31716TIP3    H296031   9.177   4.231   9.926 -0.3522  1.6908 -0.6574
31717TIP3   OH296032   0.448   3.107   2.502  0.1089  0.0710 -0.1266
31717TIP3    H196033   0.421   3.184   2.452 -0.3150  0.5789  0.8467
31717TIP3    H296034   0.539   3.123   2.524  0.2022 -0.0022 -0.4551
31718TIP3   OH296035   0.799   1.648   4.723 -0.4885  0.6894  0.1013
31718TIP3    H196036   0.876   1.705   4.725 -1.1666  1.6395 -0.2413
31718TIP3    H296037   0.737   1.690   4.782 -1.0790  0.4059 -0.3163
31719TIP3   OH296038   4.791   6.632   5.081 -0.5410 -0.3469 -0.0428
31719TIP3    H196039   4.856   6.674   5.025 -1.5836 -0.4582 -1.3925
31719TIP3    H296040   4.723   6.699   5.093  0.7994  0.5789  3.2424
31720TIP3   OH296041   5.587   5.175   7.826 -0.1802 -0.2940 -0.0991
31720TIP3    H196042   5.636   5.114   7.881  1.0537 -0.0459 -0.9054
31720TIP3    H296043   5.497   5.171   7.861  0.0083 -2.0564  0.2860
31721TIP3   OH296044   1.615   0.915   7.142 -0.6669 -0.8367  0.1333
31721TIP3    H196045   1.546   0.974   7.114 -1.5194 -1.6364  0.4950
31721TIP3    H296046   1.633   0.941   7.233 -1.2623 -1.3124  0.3974
31722TIP3   OH296047   9.999   6.754   6.868  0.4070  0.2176  0.0025
31722TIP3    H196048  10.052   6.763   6.789  0.9640  3.0827  0.5881
31722TIP3    H296049  10.047   6.804   6.935 -0.3363 -1.6170  2.0199
31723TIP3   OH296050   5.867   2.077  10.598  0.0242 -0.2211 -0.9876
31723TIP3    H196051   5.793   2.069  10.537  0.8836 -0.1182 -2.0900
31723TIP3    H296052   5.868   1.994  10.644 -0.8757 -0.1626 -0.8332
31724TIP3   OH296053   6.267   0.236   1.719  0.6438 -0.0605 -0.6628
31724TIP3    H196054   6.273   0.141   1.721  2.6342 -0.1123 -3.5208
31724TIP3    H296055   6.352   0.265   1.688  0.2965  2.7503  0.7031
31725TIP3   OH296056   1.526   0.637   6.501  0.1885  0.1151 -0.2146
31725TIP3    H196057   1.521   0.646   6.406 -0.2204  0.5701 -0.1546
31725TIP3    H296058   1.441   0.668   6.533  0.6084  0.7085  0.3494
31726TIP3   OH296059   4.908   0.410   7.904  0.2550  0.1903  0.0045
31726TIP3    H196060   4.933   0.503   7.902  1.9631 -0.1869  1.2458
31726TIP3    H296061   4.983   0.366   7.945 -0.6051 -1.7213 -0.3574
31727TIP3   OH296062   5.159   4.235   7.520 -0.3381  0.6448  1.1216
31727TIP3    H196063   5.228   4.212   7.582 -0.3880  2.7864  2.0521
31727TIP3    H296064   5.085   4.178   7.543  0.1853  0.2931  1.9695
31728TIP3   OH296065   1.136   8.568   7.721 -0.7448 -0.4074  0.0967
31728TIP3    H196066   1.049   8.529   7.718 -0.1121 -1.9649  1.0523
31728TIP3    H296067   1.187   8.518   7.657  0.3959 -2.0561  2.1958
31729TIP3   OH296068   8.261   1.498   6.119  0.7068 -0.1482  0.2367
31729TIP3    H196069   8.194   1.533   6.178  0.6834  0.2785 -0.0438
31729TIP3    H296070   8.253   1.403   6.128  0.8107 -0.0846  1.0408
31730TIP3   OH296071   9.735   9.250   1.787  0.0908 -0.0386 -0.0181
31730TIP3    H196072   9.687   9.238   1.870 -1.5076 -1.4052 -1.0609
31730TIP3    H296073   9.748   9.161   1.755  0.9171  0.4615 -1.1164
31731TIP3   OH296074  10.116   1.988   2.808  0.1633 -0.0941  0.2287
31731TIP3    H196075  10.128   1.939   2.727 -1.4068  0.0964 -0.1508
31731TIP3    H296076  10.200   1.981   2.853 -0.1060 -3.5881  0.4549
31732TIP3   OH296077  10.685   9.350  10.479 -0.1725  0.2992 -0.3701
31732TIP3    H196078  10.648   9.310  10.401 -1.1878  0.0345  0.2173
31732TIP3    H296079  10.686   9.444  10.460 -2.0399  0.4172 -0.0939
31733TIP3   OH296080   3.669   5.314   7.235 -0.5787  0.2010  0.1533
31733TIP3    H196081   3.726   5.258   7.287  1.3032 -0.3340 -2.2780
31733TIP3    H296082   3.666   5.397   7.283 -2.5401 -1.4791  3.2725
31734TIP3   OH296083   2.300   8.615   0.493  0.1952  0.3997 -0.2085
31734TIP3    H196084   2.272   8.690   0.546  0.5331  1.0154 -0.8830
31734TIP3    H296085   2.221   8.584   0.449 -0.3583 -0.9319  1.6101
31735TIP3   OH296086   3.039   0.640   6.584  0.0006 -0.8519 -0.0142
31735TIP3    H196087   3.013   0.726   6.550 -0.5649 -1.0783 -0.1650
31735TIP3    H296088   3.055   0.587   6.506  2.7837 -0.2028  0.0285
31736TIP3   OH296089   3.825   2.610   3.412 -0.4769  0.1018  0.2321
31736TIP3    H196090   3.762   2.627   3.482 -0.6966 -0.3374  0.1374
31736TIP3    H296091   3.873   2.693   3.403 -0.1398  0.0254  1.2181
31737TIP3   OH296092   4.800   6.298   3.082 -0.4850 -0.5739  0.1082
31737TIP3    H196093   4.860   6.303   3.157 -2.6168 -1.2024  1.9510
31737TIP3    H296094   4.811   6.209   3.049 -1.2732 -1.1195  1.2521
31738TIP3   OH296095   2.677   8.851   1.700  0.1811  0.6408 -0.4794
31738TIP3    H196096   2.603   8.903   1.731  1.0039  0.2719  2.3549
31738TIP3    H296097   2.720   8.906   1.635 -1.4040  1.6977 -0.6784
31739TIP3   OH296098   0.121   1.781   2.721 -0.8078  0.2329  0.1419
31739TIP3    H196099   0.040   1.814   2.758 -0.7586  0.5240 -0.0067
31739TIP3    H296100   0.109   1.790   2.626 -0.0575  1.5944  0.1522
31740TIP3   OH296101   9.787   5.145   0.192 -0.7323 -0.2182  0.6131
31740TIP3    H196102   9.705   5.138   0.143 -0.2852 -0.7805 -0.0763
31740TIP3    H296103   9.762   5.134   0.284 -1.3594 -0.9426  0.3623
31741TIP3   OH296104   1.117   9.170   0.718 -1.0501 -0.4044 -0.6878
31741TIP3    H196105   1.198   9.205   0.755 -0.2772 -1.6772 -1.1234
31741TIP3    H296106   1.064   9.248   0.700  0.3355  0.5090 -1.0155
31742TIP3   OH296107   3.522   0.790   3.193  0.5203  0.5371 -0.5111
31742TIP3    H196108   3.613   0.762   3.187  0.2194 -0.6277  0.0494
31742TIP3    H296109   3.524   0.870   3.246  0.9781 -0.9934  1.9476
31743TIP3   OH296110   5.438   5.672   6.569  0.5915 -0.6797  0.3118
31743TIP3    H196111   5.423   5.738   6.501  3.0192  0.3078  0.6520
31743TIP3    H296112   5.463   5.722   6.646  3.7329 -1.9291  0.2500
31744TIP3   OH296113   3.306   8.114   2.181 -0.0076 -0.1090  0.7110
31744TIP3    H196114   3.268   8.040   2.134 -0.7928  0.8592 -0.2120
31744TIP3    H296115   3.395   8.122   2.146 -0.6208  0.6849 -0.7761
31745TIP3   OH296116   9.434   0.212   8.582 -0.6170 -0.6355  0.1673
31745TIP3    H196117   9.520   0.190   8.546  0.0302  0.7086  0.7928
31745TIP3    H296118   9.436   0.177   8.671 -0.6812 -0.5558  0.2007
31746TIP3   OH296119   8.408   0.720   8.275  0.0599  0.3496 -0.2416
31746TIP3    H196120   8.491   0.760   8.251  0.9254 -0.4333  1.2604
31746TIP3    H296121   8.420   0.626   8.259 -0.5647  0.2383 -0.1052
31747TIP3   OH296122   3.613  10.742   6.393 -0.2387 -0.0431 -0.3239
31747TIP3    H196123   3.696  10.789   6.404 -1.4706  1.9339  1.0736
31747TIP3    H296124   3.584  10.766   6.305  0.2439 -0.0438 -0.4877
31748TIP3   OH296125   7.886   1.788   9.484  0.4859  0.3925  0.2412
31748TIP3    H196126   7.835   1.754   9.557  1.3094 -0.7064  0.3271
31748TIP3    H296127   7.821   1.821   9.422 -0.2868 -0.1729  0.7377
31749TIP3   OH296128   1.027   9.399   8.578  0.5319 -0.0673 -1.0066
31749TIP3    H196129   1.037   9.317   8.530  0.7909 -1.3735  1.1786
31749TIP3    H296130   1.023   9.374   8.670 -1.6671  2.1725 -0.3628
31750TIP3   OH296131   6.540   7.750   1.747 -0.1743 -0.1653 -0.0599
31750TIP3    H196132   6.466   7.705   1.789 -0.3388 -1.1373 -1.3371
31750TIP3    H296133   6.508   7.838   1.730  0.4914  0.9210  3.4390
31751TIP3   OH296134   5.250   6.004   7.126 -0.0616 -0.3803 -0.1480
31751TIP3    H196135   5.266   5.966   7.212  0.2409  0.4482  0.1738
31751TIP3    H296136   5.276   5.936   7.064  1.3848 -0.3548  0.4043
31752TIP3   OH296137   7.084   5.861   9.865 -0.5064  0.3108 -0.1114
31752TIP3    H196138   7.117   5.798   9.929 -1.9974 -0.5827 -0.1725
31752TIP3    H296139   7.104   5.822   9.780 -0.3264  0.5327 -0.1732
31753TIP3   OH296140   3.851   4.863   0.745 -0.7395  0.1243  0.2610
31753TIP3    H196141   3.880   4.813   0.822 -0.9847  0.1400  0.3656
31753TIP3    H296142   3.756   4.851   0.744 -0.6683 -0.4956 -0.4716
31754TIP3   OH296143   9.370   3.777   9.116  0.6800  0.3300 -0.3115
31754TIP3    H196144   9.406   3.802   9.201  1.0538  1.8748 -0.8934
31754TIP3    H296145   9.303   3.844   9.098  0.2830 -0.2474 -1.0292
31755TIP3   OH296146   6.659   7.413  10.119 -0.7357 -1.0667 -0.0810
31755TIP3    H196147   6.603   7.395  10.044 -0.8399 -0.8119 -0.0669
31755TIP3    H296148   6.747   7.418  10.083 -0.9737  0.9990 -0.5399
31756TIP3   OH296149   4.052   3.788   4.753 -1.0675 -0.5087  0.5480
31756TIP3    H196150   4.019   3.852   4.689  1.3608  0.9440  0.5939
31756TIP3    H296151   4.056   3.837   4.835  1.9497 -0.1883  0.3391
31757TIP3   OH296152   8.347   3.196   1.202  0.1868  0.3384 -0.2263
31757TIP3    H196153   8.383   3.195   1.290  1.2368 -1.3767 -0.6301
31757TIP3    H296154   8.374   3.112   1.164 -0.6878  0.8109 -1.9984
31758TIP3   OH296155   0.883   3.547   2.619 -0.2730 -0.5210  0.3835
31758TIP3    H196156   0.811   3.547   2.555  0.7041  1.0367 -0.8147
31758TIP3    H296157   0.884   3.459   2.655 -2.3829 -0.7533 -0.0074
31759TIP3   OH296158   1.091   6.287   7.815  0.1054 -0.5558  0.3186
31759TIP3    H196159   1.007   6.332   7.824 -0.0639 -0.9205  0.5590
31759TIP3    H296160   1.079   6.204   7.860  1.1060  0.0435  1.7421
31760TIP3   OH296161   3.030   2.114   3.924  0.5137 -0.3739 -0.2296
31760TIP3    H196162   3.125   2.129   3.926  0.2576  1.8791 -1.0863
31760TIP3    H296163   3.007   2.123   3.831 -0.7675  1.1023  0.1963
31761TIP3   OH296164   5.779   8.333   1.666 -0.4416 -0.0063  0.3010
31761TIP3    H196165   5.768   8.407   1.725 -1.1432 -1.0958  1.5779
31761TIP3    H296166   5.702   8.335   1.610 -0.4578  0.2199  0.3306
31762TIP3   OH296167   8.179  10.451   5.924 -0.0100  0.2993 -0.1384
31762TIP3    H196168   8.110  10.410   5.976 -0.5121  2.1986  0.8153
31762TIP3    H296169   8.147  10.449   5.834 -0.5126 -0.3640  0.0516
31763TIP3   OH296170   2.530   9.386   8.981 -0.5532 -0.1868  0.5696
31763TIP3    H196171   2.466   9.395   9.051 -0.8064  0.5590  0.2531
31763TIP3    H296172   2.560   9.296   8.987 -1.1350 -0.3475  1.1513
31764TIP3   OH296173   8.620   0.435   4.415  0.7063 -0.0441 -0.3857
31764TIP3    H196174   8.591   0.383   4.340 -0.2511 -1.0947  0.6681
31764TIP3    H296175   8.662   0.371   4.473  1.0208  0.6681  0.1814
31765TIP3   OH296176   1.005   4.563   3.292 -0.1708  0.8432 -0.5139
31765TIP3    H196177   1.098   4.575   3.276  0.0578 -1.3218 -1.0878
31765TIP3    H296178   0.998   4.552   3.387 -0.0010  1.9473 -0.3556
31766TIP3   OH296179   4.372   0.814   9.095  0.3667  0.1472  0.0998
31766TIP3    H196180   4.441   0.810   9.161  0.9030  1.1180 -0.3806
31766TIP3    H296181   4.381   0.733   9.046 -0.1900 -0.6964  1.3512
31767TIP3   OH296182   8.304   1.166   7.256  0.1600 -0.3485 -0.5862
31767TIP3    H196183   8.276   1.253   7.228  0.4094 -0.1966 -0.3674
31767TIP3    H296184   8.349   1.130   7.179  0.3712 -0.1420 -0.5622
31768TIP3   OH296185   1.224   5.359   2.092 -0.0193  0.8783 -0.3682
31768TIP3    H196186   1.161   5.431   2.091 -1.6762 -0.4350 -3.3055
31768TIP3    H296187   1.299   5.392   2.044 -0.1012  1.1791 -0.2909
31769TIP3   OH296188   2.701   0.819   0.935 -0.1512 -0.4688  0.0861
31769TIP3    H196189   2.754   0.814   1.015  0.5612  0.2212 -0.3270
31769TIP3    H296190   2.615   0.788   0.961  0.3096 -1.0830  0.9138
31770TIP3   OH296191   4.167   2.123   2.662 -0.3048 -0.0281 -0.9771
31770TIP3    H196192   4.261   2.104   2.650 -0.5387 -0.6198 -1.9885
31770TIP3    H296193   4.154   2.118   2.757  0.6476 -0.1101 -0.8326
31771TIP3   OH296194   9.318   7.531   0.239 -0.4152  0.3293  0.1582
31771TIP3    H196195   9.247   7.547   0.177  0.0101 -0.4534 -0.5527
31771TIP3    H296196   9.293   7.450   0.283  0.5247 -0.5563 -0.8687
31772TIP3   OH296197   7.081   8.530  10.489  0.6234  0.5510  0.1615
31772TIP3    H196198   7.138   8.454  10.479  0.6420  0.3528  1.6151
31772TIP3    H296199   7.118   8.596  10.429 -0.6816 -1.2437 -2.8210
31773TIP3   OH296200   9.437   1.067   9.180  0.1553 -0.1387 -0.8492
31773TIP3    H196201   9.475   0.994   9.131  0.8802  0.2681 -0.9070
31773TIP3    H296202   9.499   1.139   9.167  0.0540  0.1487  0.1853
31774TIP3   OH296203   1.336   8.537   0.988 -0.1137  0.5250 -0.0005
31774TIP3    H196204   1.371   8.612   1.036  2.4463 -0.2060 -0.5821
31774TIP3    H296205   1.391   8.530   0.910 -0.7820 -1.4868 -0.3559
31775TIP3   OH296206   4.084   1.600   6.548  0.0115 -0.5822 -0.4362
31775TIP3    H196207   4.002   1.631   6.586 -0.9746 -2.5953 -0.7928
31775TIP3    H296208   4.060   1.568   6.461  1.9989  2.8829 -2.5397
31776TIP3   OH296209   0.471   8.360  10.112  0.5855 -0.1751  0.8309
31776TIP3    H196210   0.522   8.279  10.119 -0.1812 -0.7872 -0.3785
31776TIP3    H296211   0.418   8.362  10.191  0.5633 -0.8966  0.8421
31777TIP3   OH296212   7.975   1.952   1.708 -0.0346 -0.5643  0.9763
31777TIP3    H196213   7.888   1.992   1.713  0.2951  0.1485  1.2018
31777TIP3    H296214   7.965   1.880   1.646 -0.3030  0.8304 -0.6759
31778TIP3   OH296215  10.213   9.858   8.187 -0.2691 -0.3782  0.1047
31778TIP3    H196216  10.235   9.856   8.280  1.2207  1.9538 -0.1024
31778TIP3    H296217  10.118   9.866   8.184 -0.1828  3.0059  1.6475
31779TIP3   OH296218  10.029   1.927   4.580  0.4400 -0.3651  0.1074
31779TIP3    H196219   9.979   1.966   4.508  0.1538  0.7863  0.9045
31779TIP3    H296220  10.089   1.866   4.537 -0.3226 -0.3480 -1.0267
31780TIP3   OH296221   5.623   3.076   7.836  0.0328  0.0976  0.3826
31780TIP3    H196222   5.569   2.999   7.820 -0.4472  0.3085  0.9709
31780TIP3    H296223   5.706   3.057   7.792 -0.0165 -0.8359  0.6739
31781TIP3   OH296224   6.567   1.053   4.321  0.3319  0.0606  0.0042
31781TIP3    H196225   6.538   1.011   4.402 -0.3197  1.3109  0.4432
31781TIP3    H296226   6.501   1.120   4.304 -0.4064 -1.1257 -2.3890
31782TIP3   OH296227  10.130   9.365   0.116  0.2063 -0.4925 -0.1928
31782TIP3    H196228  10.079   9.361   0.198  2.5569  0.1858  1.4055
31782TIP3    H296229  10.072   9.409   0.054 -1.0283  0.5952  1.6274
31783TIP3   OH296230   1.500   3.696   1.584 -0.0866  0.1392 -0.0301
31783TIP3    H196231   1.451   3.744   1.517 -1.3527  0.5244  1.1376
31783TIP3    H296232   1.569   3.651   1.535 -0.0570  1.5932 -1.4027
31784TIP3   OH296233   3.779   2.763   8.759 -0.2490  0.2314 -0.4580
31784TIP3    H196234   3.786   2.853   8.793 -0.6890 -0.5303  1.8682
31784TIP3    H296235   3.685   2.749   8.748 -0.1963 -0.0078 -0.5957
31785TIP3   OH296236   0.101   4.959  10.316 -0.6361 -0.2620  0.3148
31785TIP3    H196237   0.132   5.042  10.279 -1.6013  0.5721  1.2838
31785TIP3    H296238   0.005   4.966  10.312 -0.7714 -0.3004  2.5467
31786TIP3   OH296239   7.268   0.008   5.716  0.3512  0.1319 -0.4842
31786TIP3    H196240   7.181   0.048   5.719  0.3443  0.3782 -2.6596
31786TIP3    H296241   7.324   0.068   5.765 -0.2224  1.3014 -1.2228
31787TIP3   OH296242   8.813   2.737   5.826 -0.2959  0.3195  0.7430
31787TIP3    H196243   8.864   2.765   5.902 -0.8511  0.9248  0.9139
31787TIP3    H296244   8.731   2.705   5.864  0.0849 -0.9905  0.5005
31788TIP3   OH296245   2.056   3.021   7.135  0.6725 -0.0004 -0.6564
31788TIP3    H196246   1.999   2.949   7.165  1.9793 -1.1240 -0.7911
31788TIP3    H296247   2.016   3.100   7.172  0.2088 -0.9812  1.0305
31789TIP3   OH296248   4.505   2.526   0.019 -0.3731  0.1623 -0.7328
31789TIP3    H196249   4.554   2.535   0.100 -0.0142  1.7340 -1.0903
31789TIP3    H296250   4.414   2.521   0.046 -0.3505  1.7921 -0.2475
31790TIP3   OH296251  10.315   7.181   2.864  0.5362  0.8287 -0.4097
31790TIP3    H196252  10.312   7.250   2.930  0.3062  0.2828  0.1624
31790TIP3    H296253  10.225   7.150   2.858  0.7804  0.0024 -0.0292
31791TIP3   OH296254   6.942   8.432   3.810  0.2253  0.0048  0.1741
31791TIP3    H196255   6.931   8.447   3.904 -1.8272 -0.1594  0.0045
31791TIP3    H296256   6.884   8.359   3.790  0.7037 -0.0314 -1.2170
31792TIP3   OH296257   3.030   3.533   7.429 -0.1758  0.0335  0.4501
31792TIP3    H196258   3.076   3.595   7.485  0.5862  0.2979 -0.4403
31792TIP3    H296259   3.074   3.449   7.445  2.5987  0.7460 -2.3828
31793TIP3   OH296260   1.342   3.988   2.577  0.2060  0.1364  0.1718
31793TIP3    H196261   1.253   4.022   2.567  0.7275  0.8519 -2.8099
31793TIP3    H296262   1.367   3.958   2.490  2.0055 -2.4746  1.4487
31794TIP3   OH296263   2.483   2.548   7.161  0.1700 -0.0459  0.1900
31794TIP3    H196264   2.480   2.475   7.098  0.1563  1.0090 -1.0856
31794TIP3    H296265   2.448   2.511   7.242 -0.4126 -1.2980 -0.5944
31795TIP3   OH296266   6.450  10.712   0.950  0.5169 -0.1479  0.4493
31795TIP3    H196267   6.502  10.669   0.881  0.8685  0.7553  0.1387
31795TIP3    H296268   6.402  10.781   0.904 -1.3004 -1.2241  0.6636
31796TIP3   OH296269   7.046   7.441   5.135  0.3606 -0.0591 -0.7747
31796TIP3    H196270   6.998   7.521   5.116 -2.1497 -1.0293  0.8970
31796TIP3    H296271   7.031   7.386   5.058  0.9565  0.5553 -1.3421
31797TIP3   OH296272   1.387   3.952   2.310  0.4650  0.2813 -0.1987
31797TIP3    H196273   1.474   3.983   2.334  0.4208  1.3236 -1.3006
31797TIP3    H296274   1.379   3.970   2.217 -0.4866 -0.9096 -0.3774
31798TIP3   OH296275  10.596   4.033   2.846  0.4205 -0.4524 -1.2297
31798TIP3    H196276  10.530   3.994   2.790 -0.7630 -2.6463  1.4444
31798TIP3    H296277  10.616   4.117   2.805 -4.3694  0.5887 -1.9733
31799TIP3   OH296278   6.274   2.367   3.133 -0.6701 -1.1099 -0.3648
31799TIP3    H196279   6.339   2.432   3.161 -2.0935  0.0606  0.3895
31799TIP3    H296280   6.287   2.359   3.039 -1.1492  1.1286 -0.6821
31800TIP3   OH296281   2.258   5.287   3.999 -0.4686  0.1151  0.0865
31800TIP3    H196282   2.267   5.192   4.002 -0.5961 -0.0106 -2.0316
31800TIP3    H296283   2.168   5.304   4.025 -0.5243 -0.3577  0.2057
31801TIP3   OH296284   9.796   8.168   3.362  0.2125  0.1106  0.3873
31801TIP3    H196285   9.762   8.251   3.395  0.4451 -0.6355  2.6645
31801TIP3    H296286   9.737   8.102   3.397  1.2213 -0.8262  0.3780
31802TIP3   OH296287   6.002   2.352   6.520  0.1689 -0.5359  0.0386
31802TIP3    H196288   6.090   2.356   6.556  0.7102 -1.0238 -1.1984
31802TIP3    H296289   5.972   2.442   6.519  1.9354  0.1401 -2.5556
31803TIP3   OH296290   0.560   7.674   7.595  0.4325 -0.3020 -0.2808
31803TIP3    H196291   0.568   7.698   7.688 -1.4163 -0.3686 -0.0709
31803TIP3    H296292   0.490   7.730   7.562  1.5678  0.2611 -1.8700
31804TIP3   OH296293   9.837   8.423   1.756  0.3931 -0.4044 -0.4358
31804TIP3    H196294   9.812   8.423   1.848 -1.9439  1.9358 -0.9562
31804TIP3    H296295   9.929   8.447   1.755  0.4601 -0.5066  1.2751
31805TIP3   OH296296   8.381   7.447   8.205 -0.5806 -0.0130  0.0348
31805TIP3    H196297   8.412   7.362   8.238 -4.7546 -1.0917  1.8036
31805TIP3    H296298   8.407   7.509   8.274  0.2708 -0.2675 -0.0379
31806TIP3   OH296299   4.349   5.105   0.099  0.4858  0.0086 -0.5768
31806TIP3    H196300   4.290   5.153   0.040  0.2963 -1.8538 -1.9920
31806TIP3    H296301   4.292   5.059   0.159  0.3189 -2.3121 -2.3486
31807TIP3   OH296302   0.224   5.409  10.583  0.3838 -0.5873  0.1926
31807TIP3    H196303   0.207   5.359  10.663 -2.2071 -1.9197 -1.0634
31807TIP3    H296304   0.156   5.380  10.522  1.5258  1.2654 -2.1096
31808TIP3   OH296305   2.697  10.850   2.278 -0.2999 -0.0816 -0.0766
31808TIP3    H196306   2.721  10.922   2.336 -0.6041 -0.0987  0.0723
31808TIP3    H296307   2.719  10.882   2.190 -2.3799  1.0458 -0.2459
31809TIP3   OH296308   7.050   6.272   8.976 -0.3567 -0.2184  0.2751
31809TIP3    H196309   7.141   6.257   9.005  0.2424 -0.9472 -1.8094
31809TIP3    H296310   7.009   6.186   8.982 -1.1513  0.2372  1.8503
31810TIP3   OH296311   5.412   9.017   9.516 -0.0025  0.2069 -0.3202
31810TIP3    H196312   5.438   8.928   9.544 -3.0482 -1.7440 -3.0652
31810TIP3    H296313   5.439   9.022   9.425 -3.5804  0.3510 -1.4862
31811TIP3   OH296314   2.375   9.816   7.639  0.5273 -0.1781  0.4301
31811TIP3    H196315   2.308   9.837   7.704  0.8294 -2.6239  1.6367
31811TIP3    H296316   2.324   9.791   7.561 -0.0588 -2.0828  1.3553
31812TIP3   OH296317   5.408   2.813  10.798 -0.5005  0.1655  0.0700
31812TIP3    H196318   5.332   2.803  10.741 -0.9618 -0.5712  0.8075
31812TIP3    H296319   5.419   2.728  10.839 -0.1603  0.6782  1.0742
31813TIP3   OH296320   3.859   3.062   1.509 -0.2324  0.1005 -0.3205
31813TIP3    H196321   3.884   3.017   1.589 -0.3932  0.5113 -0.0364
31813TIP3    H296322   3.915   3.024   1.441 -1.2346 -1.4755 -0.3466
31814TIP3   OH296323   4.718  10.149   4.666  0.2435  0.2115  0.2856
31814TIP3    H196324   4.671  10.078   4.622  1.7747 -0.0958 -0.9651
31814TIP3    H296325   4.686  10.229   4.625 -0.4992  0.1602  0.7453
31815TIP3   OH296326   8.998   5.044   9.453  0.3011 -0.4318  0.2229
31815TIP3    H196327   8.940   5.087   9.516  0.0209  0.2247 -0.4730
31815TIP3    H296328   8.951   5.048   9.370  1.7762  1.0749 -0.5918
31816TIP3   OH296329   5.763   2.294   9.687  0.5681 -0.8011  0.3060
31816TIP3    H196330   5.825   2.264   9.621  0.3463 -1.8851  0.5605
31816TIP3    H296331   5.734   2.214   9.731 -4.4232 -1.0501 -2.6702
31817TIP3   OH296332   8.564   2.476   9.902  0.3804  0.2742  0.0036
31817TIP3    H196333   8.530   2.536   9.969  1.5833 -1.5644  2.4045
31817TIP3    H296334   8.640   2.522   9.865  0.4831  0.7780  0.8218
31818TIP3   OH296335   2.317   7.412   5.166 -0.2756  0.4709 -0.0147
31818TIP3    H196336   2.300   7.505   5.185  0.1347  0.1328  2.2463
31818TIP3    H296337   2.365   7.380   5.242  0.2689 -1.4378 -1.0974
31819TIP3   OH296338   1.302   2.969   5.377  0.0024  0.1954  0.1411
31819TIP3    H196339   1.276   3.058   5.401 -2.0126 -0.0835 -0.8722
31819TIP3    H296340   1.230   2.913   5.407  0.2841 -0.8587 -1.0386
31820TIP3   OH296341   1.591   3.658   6.989  0.0110 -0.1006  0.0969
31820TIP3    H196342   1.675   3.671   7.035 -0.0996 -2.5301  1.1821
31820TIP3    H296343   1.529   3.636   7.059 -0.8047 -1.2841 -0.9582
31821TIP3   OH296344   8.374   7.299   0.888  0.4841  0.5368  0.0329
31821TIP3    H196345   8.336   7.235   0.948  1.3002 -0.4344 -0.4543
31821TIP3    H296346   8.310   7.370   0.884 -2.0367 -1.6454 -1.8661
31822TIP3   OH296347   3.602   4.717   1.207  0.2494  0.7051 -0.2884
31822TIP3    H196348   3.673   4.662   1.174 -0.0590 -0.2251  0.5222
31822TIP3    H296349   3.529   4.700   1.147 -0.5131 -1.4791  1.1283
31823TIP3   OH296350   2.568   7.161  10.500  0.0801 -0.0070  0.2655
31823TIP3    H196351   2.497   7.213  10.463 -0.5747 -1.0632 -0.0172
31823TIP3    H296352   2.645   7.217  10.492 -0.2290  0.1971 -1.7905
31824TIP3   OH296353   0.766   4.451   0.719 -0.1536 -0.3216  0.4693
31824TIP3    H196354   0.838   4.390   0.704  0.1033 -0.2186  1.2521
31824TIP3    H296355   0.695   4.396   0.753 -0.4121 -0.4015 -0.1754
31825TIP3   OH296356   1.721   7.392   6.894  0.4813  0.1476 -0.5228
31825TIP3    H196357   1.738   7.331   6.966 -0.3029  1.1355  0.5289
31825TIP3    H296358   1.634   7.427   6.911  0.7785  1.3213 -1.2772
31826TIP3   OH296359   7.036   2.874   8.122  0.1758 -0.5504 -0.4916
31826TIP3    H196360   6.973   2.941   8.092 -1.3402 -1.1947  1.0725
31826TIP3    H296361   7.110   2.925   8.154 -1.0872  0.4732  0.9855
31827TIP3   OH296362   0.959   9.126   3.470 -0.5027 -0.6336 -0.3910
31827TIP3    H196363   0.954   9.218   3.444  0.2679 -0.1650  0.9817
31827TIP3    H296364   1.041   9.095   3.433  0.7635  0.1267  1.5729
31828TIP3   OH296365   0.409   7.359   4.005 -0.6653  0.3334 -0.1521
31828TIP3    H196366   0.319   7.371   3.977 -0.4350 -0.0712 -1.1161
31828TIP3    H296367   0.458   7.347   3.924  0.6465  2.8522  0.1884
31829TIP3   OH296368   5.840   9.503   0.444 -0.6488  0.3666  0.3188
31829TIP3    H196369   5.831   9.502   0.539 -1.4481  0.3332  0.2474
31829TIP3    H296370   5.785   9.576   0.415 -0.4124  0.3751 -0.1163
31830TIP3   OH296371   5.061   0.315  10.466 -0.2992  0.1265 -0.9879
31830TIP3    H196372   5.118   0.253  10.421  0.1652 -0.4025  0.2806
31830TIP3    H296373   5.117   0.389  10.487  0.1012 -0.6071  0.7054
31831TIP3   OH296374   5.567   9.229   5.363  0.1064 -0.8274  0.7160
31831TIP3    H196375   5.641   9.227   5.423  0.5781 -0.6674  0.1478
31831TIP3    H296376   5.569   9.145   5.317 -0.1603 -0.8886  0.8128
31832TIP3   OH296377   5.343  10.392   1.414  0.0214 -0.6229 -0.7196
31832TIP3    H196378   5.339  10.407   1.320  0.3969  0.1608 -0.6244
31832TIP3    H296379   5.252  10.387   1.442 -0.1110  0.0721 -0.9963
31833TIP3   OH296380  10.846   1.848   7.036 -0.0508 -0.0359 -0.2502
31833TIP3    H196381  10.767   1.892   7.005 -0.5569 -0.2426  0.7003
31833TIP3    H296382  10.918   1.897   6.997 -0.6444 -0.1040 -1.4790
31834TIP3   OH296383   1.777   5.971  10.800 -0.0772  0.3154 -0.3050
31834TIP3    H196384   1.692   5.972  10.845 -1.5316 -0.5217 -2.8334
31834TIP3    H296385   1.759   6.008  10.714  2.1664  0.1291 -0.9207
31835TIP3   OH296386   6.769   7.399   6.241 -0.3957 -0.0744  0.3405
31835TIP3    H196387   6.739   7.344   6.313 -0.8150 -0.9374 -0.4771
31835TIP3    H296388   6.693   7.452   6.219  0.6813  2.8125  2.8110
31836TIP3   OH296389   1.540   3.798   8.897  0.5920 -0.6855 -0.6162
31836TIP3    H196390   1.497   3.821   8.979  1.0434 -0.0323 -0.5576
31836TIP3    H296391   1.474   3.746   8.850 -0.9970  1.7469 -1.2865
31837TIP3   OH296392   7.283  10.377   5.383  0.2324  0.1135  0.2122
31837TIP3    H196393   7.274  10.317   5.457 -1.5875  1.8977  1.5496
31837TIP3    H296394   7.244  10.330   5.309  2.2892 -1.7905  0.2414
31838TIP3   OH296395   2.050   6.816   7.506 -0.2373 -1.2463 -0.4081
31838TIP3    H196396   1.980   6.853   7.560 -0.1883 -1.1675 -0.3995
31838TIP3    H296397   2.042   6.721   7.519  0.5262 -1.1723  0.6644
31839TIP3   OH296398   6.279   7.042   6.439 -0.4152  0.5141  0.5365
31839TIP3    H196399   6.337   7.010   6.508  0.2022 -0.3252 -0.3418
31839TIP3    H296400   6.278   6.971   6.375 -0.6695  1.4297 -0.4919
31840TIP3   OH296401   9.235   4.806   0.633  0.3828  0.4011  0.1343
31840TIP3    H196402   9.287   4.807   0.713  1.7035 -0.8247 -0.6694
31840TIP3    H296403   9.226   4.899   0.609  0.5955  0.7273  1.2875
31841TIP3   OH296404   9.180   7.996   8.478  0.1842  0.0217  0.0237
31841TIP3    H196405   9.248   7.974   8.415 -1.9390  0.5366 -2.6104
31841TIP3    H296406   9.201   8.086   8.506 -0.4076  0.9269 -2.2665
31842TIP3   OH296407   9.472   2.549   3.954 -0.3128  0.2062  0.2275
31842TIP3    H196408   9.401   2.582   3.899  2.7603  0.3532 -4.1898
31842TIP3    H296409   9.503   2.471   3.909  3.1402  0.9042  1.0802
31843TIP3   OH296410   6.417   5.608   7.218  0.1297 -0.3213  0.5038
31843TIP3    H196411   6.377   5.682   7.263 -0.4346 -1.3401  1.7553
31843TIP3    H296412   6.448   5.551   7.288  2.0495 -0.5066 -0.4377
31844TIP3   OH296413   0.530   7.939   5.875  0.2605 -0.2395 -0.3297
31844TIP3    H196414   0.545   7.884   5.952  1.5747  0.8596  0.2373
31844TIP3    H296415   0.494   7.879   5.809 -3.2354 -0.7492  1.8217
31845TIP3   OH296416   4.670   7.026   5.691 -0.2873 -0.3678 -0.4465
31845TIP3    H196417   4.647   7.119   5.688  0.4596 -0.2003 -1.4164
31845TIP3    H296418   4.756   7.024   5.733  0.3122 -0.4733 -1.6389
31846TIP3   OH296419   7.831   9.187   7.238  0.1877 -0.1858  0.0618
31846TIP3    H196420   7.884   9.111   7.213 -1.6373 -1.6482  0.4650
31846TIP3    H296421   7.753   9.182   7.183 -0.2384  1.0839  0.4976
31847TIP3   OH296422   7.327   6.599   3.588  0.2879  0.8460  0.0305
31847TIP3    H196423   7.309   6.560   3.502 -1.3791  0.7303  0.3947
31847TIP3    H296424   7.351   6.526   3.644  0.2196  0.7553 -0.0577
31848TIP3   OH296425  10.108   1.876   2.414  0.0605 -0.1318  0.9393
31848TIP3    H196426  10.137   1.878   2.506  1.8284  1.6121  0.4152
31848TIP3    H296427  10.164   1.810   2.373 -0.3755 -0.5400  0.9923
31849TIP3   OH296428   8.870   3.739   3.886  0.8745 -0.1950 -0.2906
31849TIP3    H196429   8.884   3.645   3.873  0.2486 -0.2196 -0.8631
31849TIP3    H296430   8.818   3.765   3.810  1.5260  0.7303 -0.4393
31850TIP3   OH296431  10.286   0.918   1.361 -0.1028  0.2341  0.0959
31850TIP3    H196432  10.290   1.011   1.381 -1.6115  0.1811  0.7700
31850TIP3    H296433  10.312   0.875   1.442 -0.4780  0.0653  0.1289
31851TIP3   OH296434   6.750   6.934   1.449 -0.1334  0.7592 -0.2089
31851TIP3    H196435   6.721   6.888   1.528 -1.4788  0.7792 -0.6684
31851TIP3    H296436   6.731   7.026   1.467  0.6681  0.9155 -0.1022
31852TIP3   OH296437   0.298   3.380   8.984 -0.2661  0.0020 -0.5703
31852TIP3    H196438   0.352   3.329   9.044 -0.1957  1.1800  0.4094
31852TIP3    H296439   0.255   3.315   8.929  0.5903 -1.0501 -0.0336
31853TIP3   OH296440   0.447   5.443   6.768  0.0550  0.1134  0.2788
31853TIP3    H196441   0.487   5.530   6.762 -0.9534  0.6030  0.4560
31853TIP3    H296442   0.520   5.385   6.790  0.7725  0.8853 -0.0082
31854TIP3   OH296443   7.031   8.970  10.223 -0.2750 -0.1156 -0.1830
31854TIP3    H196444   7.024   8.939  10.313  0.7893 -1.1394 -0.4282
31854TIP3    H296445   6.951   8.941  10.181  0.2971 -1.8097 -0.1708
31855TIP3   OH296446   0.506   2.511  10.674  0.1510  0.5230  0.1324
31855TIP3    H196447   0.552   2.594  10.663  1.2507  0.1991  1.9105
31855TIP3    H296448   0.437   2.530  10.738 -0.4904  0.3710 -0.5012
31856TIP3   OH296449   3.902   3.978   4.637  0.1512  0.4647 -0.4216
31856TIP3    H196450   3.862   4.062   4.660 -1.9023 -0.4352 -0.4888
31856TIP3    H296451   3.964   3.999   4.567  0.5744  2.0698  0.3912
31857TIP3   OH296452   7.982   3.955  10.551  0.3071 -0.3232  0.1459
31857TIP3    H196453   7.903   3.904  10.570  1.3199 -1.9412  0.2907
31857TIP3    H296454   7.973   3.979  10.459 -0.8019  0.3867  0.4254
31858TIP3   OH296455   1.652   6.896   7.420 -0.2452  0.0733 -0.2791
31858TIP3    H196456   1.576   6.841   7.401 -1.1858  0.7606  1.2513
31858TIP3    H296457   1.694   6.854   7.495  1.1969 -0.5489 -1.3774
31859TIP3   OH296458   3.384   0.365   5.826 -0.1365  0.2408  1.0882
31859TIP3    H196459   3.382   0.426   5.899  0.2777 -0.3988  1.6398
31859TIP3    H296460   3.408   0.419   5.750 -0.6907  0.9256  1.3910
31860TIP3   OH296461   9.306   9.867   7.799  0.0837 -0.6351 -0.3959
31860TIP3    H196462   9.254   9.895   7.874  0.4191 -1.9684  0.3790
31860TIP3    H296463   9.363   9.798   7.834  0.6461 -0.9050 -1.7603
31861TIP3   OH296464   2.092   8.155   2.516 -0.9445  0.2798  0.1329
31861TIP3    H196465   2.143   8.211   2.575 -0.7386  0.4800 -0.2352
31861TIP3    H296466   2.152   8.086   2.491 -0.6105  0.9182 -0.8864
31862TIP3   OH296467   4.071   6.120   0.365 -0.2609 -0.0329  0.3455
31862TIP3    H196468   4.118   6.048   0.408  0.5817 -0.0459 -0.5483
31862TIP3    H296469   4.110   6.199   0.402 -1.5426 -0.0021  1.7082
31863TIP3   OH296470   2.267   2.972   3.475  0.3253 -0.0357  0.1127
31863TIP3    H196471   2.232   3.027   3.544  0.7437  1.6654 -0.9777
31863TIP3    H296472   2.210   2.895   3.475 -1.1285  0.9907  0.7924
31864TIP3   OH296473   3.673   1.673   3.231  0.1294  0.5118  0.2526
31864TIP3    H196474   3.658   1.725   3.151  3.4097  1.3227  0.0177
31864TIP3    H296475   3.742   1.612   3.206 -1.0577 -1.4904  1.6307
31865TIP3   OH296476   6.011   1.127   0.189 -0.1736 -0.0804 -0.1054
31865TIP3    H196477   6.022   1.202   0.247 -1.3899  0.2378 -0.2564
31865TIP3    H296478   5.922   1.136   0.156 -0.9415 -2.4347  1.0957
31866TIP3   OH296479   8.500  10.086   4.243  0.1692 -0.3023  0.4624
31866TIP3    H196480   8.542  10.093   4.329 -0.6974  0.3462  0.8559
31866TIP3    H296481   8.487  10.177   4.216  0.6199 -0.5035 -0.4578
31867TIP3   OH296482   0.885   2.147  10.132 -0.1394 -0.0587  0.0799
31867TIP3    H196483   0.891   2.147  10.036 -1.2282  0.1095 -0.0019
31867TIP3    H296484   0.839   2.229  10.153  2.4666  1.3076  0.9432
31868TIP3   OH296485  10.223   1.452   3.218 -0.2004 -0.3805 -1.0117
31868TIP3    H196486  10.266   1.379   3.264 -1.3485 -0.4450 -0.0050
31868TIP3    H296487  10.138   1.417   3.191 -0.6800  0.5103 -0.6970
31869TIP3   OH296488   7.489   6.335   0.771  0.0887 -0.6500 -0.6689
31869TIP3    H196489   7.449   6.406   0.721  2.1997  0.0660 -1.4755
31869TIP3    H296490   7.416   6.292   0.814 -1.3907  1.3360 -1.0211
31870TIP3   OH296491   7.938   1.603   8.958  0.1316 -0.3900  0.1597
31870TIP3    H196492   7.859   1.550   8.961  0.4438 -0.9247 -0.5859
31870TIP3    H296493   7.931   1.662   9.033 -0.5403 -1.0374  0.6197
31871TIP3   OH296494   5.766   4.627   1.611 -0.5974  0.1361 -0.5621
31871TIP3    H196495   5.719   4.576   1.677  0.2166  0.3625  0.2105
31871TIP3    H296496   5.767   4.570   1.534  0.0419 -0.9229  0.1886
31872TIP3   OH296497  10.860   6.778   3.690 -0.4346  0.4382  0.4047
31872TIP3    H196498  10.831   6.691   3.717 -3.4946  1.1098 -0.3543
31872TIP3    H296499  10.779   6.825   3.667  1.2026  3.0326 -0.5568
31873TIP3   OH296500   6.739   8.182   6.954 -0.4496  0.6269 -0.3940
31873TIP3    H196501   6.699   8.095   6.947 -1.0279  0.8211  0.4035
31873TIP3    H296502   6.832   8.164   6.967 -0.4713  0.1478 -0.8324
31874TIP3   OH296503   9.239   9.084   9.717  0.2604 -0.5468  0.1752
31874TIP3    H196504   9.205   9.162   9.761 -0.1829  0.7400 -2.2890
31874TIP3    H296505   9.176   9.016   9.738 -0.9431  0.4794  0.0270
31875TIP3   OH296506   0.571   3.125  10.321  0.5685  0.2510 -0.6558
31875TIP3    H196507   0.579   3.109  10.415  0.8821  0.8472 -0.5837
31875TIP3    H296508   0.575   3.220  10.312  1.0686  0.1709 -1.3229
31876TIP3   OH296509   1.089   8.947  10.089  0.3490 -0.8928 -0.4896
31876TIP3    H196510   1.045   8.862  10.093  0.6255 -1.0010  0.3369
31876TIP3    H296511   1.175   8.931  10.129  0.4606 -0.2592 -0.4702
31877TIP3   OH296512   4.339   9.763   1.265 -0.2138 -0.3146 -0.1511
31877TIP3    H196513   4.430   9.793   1.271  0.2358 -1.5045 -0.6909
31877TIP3    H296514   4.330   9.700   1.337 -1.4205  1.6829  1.5655
31878TIP3   OH296515   2.408   0.079   8.167  0.7877 -0.0801 -0.3590
31878TIP3    H196516   2.466   0.038   8.231  0.4206 -1.4506 -0.8734
31878TIP3    H296517   2.358   0.007   8.130 -2.2662  1.1681  1.0001
31879TIP3   OH296518   7.295   9.619   3.808  0.0269 -0.0072  0.4441
31879TIP3    H196519   7.369   9.629   3.868  0.7693 -0.9898 -0.2594
31879TIP3    H296520   7.218   9.634   3.862  0.7118  0.0704  1.4249
31880TIP3   OH296521   1.337   7.421  10.725  0.0449 -0.3448 -0.2338
31880TIP3    H196522   1.252   7.416  10.768  1.2170 -0.3835  2.3193
31880TIP3    H296523   1.327   7.371  10.644 -2.4164 -0.0190 -0.1943
31881TIP3   OH296524   2.686   8.041  10.624 -0.5339 -0.4138  0.0241
31881TIP3    H196525   2.717   8.070  10.538 -1.3670  0.8129  0.1011
31881TIP3    H296526   2.591   8.032  10.613 -0.6447 -0.2594  0.8009
31882TIP3   OH296527   4.874   5.611   9.193  0.6306 -0.6331  0.0696
31882TIP3    H196528   4.889   5.541   9.257  1.6839 -0.1485  0.3692
31882TIP3    H296529   4.947   5.604   9.132  0.0068 -0.6426 -0.6900
31883TIP3   OH296530   8.315   3.815   8.694  0.7070  0.0264  0.1813
31883TIP3    H196531   8.293   3.824   8.786  1.7295  0.1491  0.4199
31883TIP3    H296532   8.331   3.905   8.664  1.8142 -0.1332  0.2596
31884TIP3   OH296533  10.257   1.581   6.084 -0.0251 -0.3102  0.4347
31884TIP3    H196534  10.229   1.492   6.106 -1.9900  0.8999  3.4890
31884TIP3    H296535  10.214   1.636   6.149  1.3587  2.8872 -1.1542
31885TIP3   OH296536  10.079   9.209  10.025  0.3153  0.0726 -0.1128
31885TIP3    H196537  10.074   9.236  10.116 -0.2679  2.6577 -0.8189
31885TIP3    H296538  10.091   9.290   9.976 -0.5991 -1.0699 -2.4377
31886TIP3   OH296539   6.547   6.343   1.890  0.3103  0.6642  0.2316
31886TIP3    H196540   6.624   6.391   1.861  0.5151  0.7779  0.9454
31886TIP3    H296541   6.510   6.396   1.960  0.1167  0.1460  0.5315
31887TIP3   OH296542   8.973  10.121   5.705  0.2025 -0.0607  0.8839
31887TIP3    H196543   8.983  10.200   5.652  0.9729 -1.7354 -1.6384
31887TIP3    H296544   9.060  10.107   5.744  0.5516 -0.5725 -0.0600
31888TIP3   OH296545   7.950   8.118   1.713 -0.0351 -0.2852 -0.0827
31888TIP3    H196546   7.880   8.061   1.744 -0.2319 -0.0027  0.0068
31888TIP3    H296547   7.962   8.095   1.621 -1.0433  0.4491 -0.4127
31889TIP3   OH296548   1.874   8.101   0.764  0.0551  0.0057  0.0078
31889TIP3    H196549   1.817   8.130   0.693 -2.1969  0.3440  1.8285
31889TIP3    H296550   1.942   8.049   0.721 -0.7449  0.8575 -2.4425
31890TIP3   OH296551   0.237   3.426   5.415 -0.5163  0.2615 -0.3215
31890TIP3    H196552   0.232   3.339   5.377  1.5013  0.7046 -1.7464
31890TIP3    H296553   0.328   3.434   5.446 -1.2562  1.0618  1.8514
31891TIP3   OH296554   4.313   6.833   0.275  0.2367 -0.0239  0.3532
31891TIP3    H196555   4.240   6.771   0.275 -0.5944  0.9418  0.2253
31891TIP3    H296556   4.275   6.915   0.245  1.2144  0.6845  1.0102
31892TIP3   OH296557   5.025   0.268  10.810  0.9292 -0.1815 -0.4287
31892TIP3    H196558   5.058   0.205  10.874 -0.0667 -1.7314 -1.3814
31892TIP3    H296559   5.030   0.222  10.726 -1.2887  0.4177 -0.9516
31893TIP3   OH296560   3.745   4.722   3.876  0.6327 -0.2869  0.5450
31893TIP3    H196561   3.832   4.683   3.882  0.1900 -1.3268  0.3735
31893TIP3    H296562   3.733   4.767   3.960  0.6610 -1.5913  1.2673
31894TIP3   OH296563  10.700   9.165   0.887 -0.1194  0.0744  0.0859
31894TIP3    H196564  10.738   9.216   0.959 -0.5029  1.4917 -0.6703
31894TIP3    H296565  10.774   9.142   0.832 -0.1131  1.2759 -0.4356
31895TIP3   OH296566   0.773   8.189   8.320  0.8483 -0.5169 -0.1171
31895TIP3    H196567   0.768   8.148   8.406  0.3900 -0.3241 -0.0486
31895TIP3    H296568   0.774   8.116   8.258  0.4104 -0.6401  0.0194
31896TIP3   OH296569  10.888  10.592   5.212 -0.0079  0.1770  0.2796
31896TIP3    H196570  10.870  10.673   5.260  0.5935  0.7300 -0.4030
31896TIP3    H296571  10.893  10.619   5.120  1.5890 -0.3919  0.1789
31897TIP3   OH296572   4.634   9.879  10.019  0.0771 -0.4394  0.1909
31897TIP3    H196573   4.666   9.875  10.109 -0.4745 -2.4874  0.3453
31897TIP3    H296574   4.593   9.794  10.004 -0.3850  0.0773 -1.8116
31898TIP3   OH296575   5.094   9.115   7.265 -0.1784 -0.6207  0.5746
31898TIP3    H196576   5.015   9.148   7.222 -0.6988 -0.5024  1.5993
31898TIP3    H296577   5.123   9.044   7.208  0.1385  0.6274 -0.8850
31899TIP3   OH296578   0.234   8.233   8.599  0.1699 -0.0341  0.4216
31899TIP3    H196579   0.304   8.173   8.575  1.7029  0.8392  2.4158
31899TIP3    H296580   0.249   8.252   8.692 -1.7368  1.4946  0.4919
31900TIP3   OH296581   1.281   0.749  10.581  0.1132 -0.0651 -0.4073
31900TIP3    H196582   1.243   0.805  10.649  1.9258 -0.8335  1.3615
31900TIP3    H296583   1.371   0.780  10.571  0.1766 -0.6077 -1.7645
31901TIP3   OH296584   2.559  10.853   5.387 -0.0146  0.1195 -0.5484
31901TIP3    H196585   2.529  10.774   5.343 -0.8814  0.8144 -1.2351
31901TIP3    H296586   2.654  10.844   5.391 -0.1199 -1.0905 -0.3389
31902TIP3   OH296587   1.756   0.226   2.260  0.2318 -0.1140  0.0282
31902TIP3    H196588   1.710   0.166   2.201 -1.4326  0.6986  0.4347
31902TIP3    H296589   1.689   0.288   2.288  1.7860  1.6230  0.0462
31903TIP3   OH296590   0.046   7.094   7.997  0.0413  0.0733  0.1531
31903TIP3    H196591   0.002   7.155   7.938 -0.1014  0.3948  0.5812
31903TIP3    H296592  -0.009   7.015   7.996 -0.0801  0.1605  0.0280
31904TIP3   OH296593   2.470   9.658   4.633 -0.2640  0.2756  0.0476
31904TIP3    H196594   2.509   9.611   4.559 -3.0569  0.1677 -1.4678
31904TIP3    H296595   2.430   9.590   4.686 -0.6991  0.5988  0.1345
31905TIP3   OH296596   3.363   9.253  10.824 -0.0433  0.1069  0.2313
31905TIP3    H196597   3.337   9.193  10.894  0.3037  0.9190  1.0766
31905TIP3    H296598   3.327   9.338  10.851 -1.0469  0.1890 -1.2384
31906TIP3   OH296599   7.936   2.527   4.884  0.1110  0.1361  0.0911
31906TIP3    H196600   7.909   2.617   4.905 -0.7311 -0.0914  0.0165
31906TIP3    H296601   8.016   2.538   4.833  0.4076  0.8174  0.6783
31907TIP3   OH296602   5.556   3.950   2.820 -0.3391  0.2068  0.2664
31907TIP3    H196603   5.559   3.908   2.734 -0.3161  1.1723 -0.2234
31907TIP3    H296604   5.646   3.945   2.852  0.0642  1.4544 -0.5932
31908TIP3   OH296605  10.203   2.268   5.942 -0.8128  0.0623  0.3288
31908TIP3    H196606  10.125   2.232   5.900  0.3494 -0.5099 -1.4275
31908TIP3    H296607  10.170   2.308   6.022 -2.9389  0.0006 -0.4483
31909TIP3   OH296608   8.703   9.621   9.191 -0.1794  0.4103  0.0454
31909TIP3    H196609   8.738   9.537   9.162 -1.7633  0.0446 -0.9271
31909TIP3    H296610   8.612   9.621   9.161 -0.9621  1.4372  2.1867
31910TIP3   OH296611  10.825   3.806   9.973 -0.5437  0.0149  0.2386
31910TIP3    H196612  10.748   3.762   9.939  0.7922 -1.2303 -1.3709
31910TIP3    H296613  10.816   3.897   9.943 -2.8372  0.7271  2.7462
31911TIP3   OH296614   3.432   1.165   2.720 -0.0032 -0.0060 -0.0262
31911TIP3    H196615   3.430   1.258   2.743  1.0721  0.3665 -1.3026
31911TIP3    H296616   3.372   1.158   2.646  0.1075 -0.2742 -0.0906
31912TIP3   OH296617   0.736   1.119   0.566  0.7512  0.3803 -0.0622
31912TIP3    H196618   0.665   1.170   0.605 -0.5488 -0.9197 -0.6714
31912TIP3    H296619   0.701   1.030   0.559  2.6487 -0.4374  0.1624
31913TIP3   OH296620   9.962   8.014   7.614 -0.7178  0.2020  1.0874
31913TIP3    H196621   9.965   8.098   7.569 -0.9557  0.9527  2.3967
31913TIP3    H296622   9.880   7.974   7.585  0.1279 -0.3195 -0.7373
31914TIP3   OH296623   1.103   1.417   7.068 -0.0679 -0.2328 -0.2033
31914TIP3    H196624   1.121   1.372   7.151  1.5576  1.3502  0.3596
31914TIP3    H296625   1.012   1.448   7.077  0.4868  1.0684  1.6048
31915TIP3   OH296626   2.500   9.879   2.389 -0.1078  0.2401  0.3727
31915TIP3    H196627   2.585   9.838   2.403  0.5416  1.3217 -0.2643
31915TIP3    H296628   2.515   9.972   2.406 -1.5547  0.2426  1.8323
31916TIP3   OH296629   6.711   6.094  10.897  0.2597  0.5897 -0.4953
31916TIP3    H196630   6.733   6.123  10.985  1.1139  1.6110 -1.0178
31916TIP3    H296631   6.686   6.174  10.851  0.4508  0.1657 -1.3544
31917TIP3   OH296632  10.413   7.543   7.335 -0.4222 -0.1519  0.1472
31917TIP3    H196633  10.483   7.563   7.398 -0.4906 -2.1898  0.9272
31917TIP3    H296634  10.335   7.531   7.389 -1.3667  1.7348 -0.6908
31918TIP3   OH296635   1.619   3.922   1.366 -0.3710 -0.1977 -0.5132
31918TIP3    H196636   1.616   3.912   1.461  0.8082  2.4940 -0.1001
31918TIP3    H296637   1.705   3.961   1.348 -1.7326  2.3559 -2.2637
31919TIP3   OH296638   9.166   6.976   4.352 -0.3510 -0.1150  0.4300
31919TIP3    H196639   9.143   6.886   4.332  1.2096 -0.0243 -2.2644
31919TIP3    H296640   9.108   7.029   4.297 -0.6027  0.5227  1.2744
31920TIP3   OH296641   0.871   9.927   9.919 -0.4008 -0.3976  0.2387
31920TIP3    H196642   0.844   9.886  10.001 -0.9899  0.8340  0.6854
31920TIP3    H296643   0.924   9.860   9.876  0.8841 -0.6929  2.1375
31921TIP3   OH296644   4.632   0.396   6.666 -0.5720  0.1243 -0.4387
31921TIP3    H196645   4.576   0.455   6.715 -0.5474  0.6607 -1.0337
31921TIP3    H296646   4.578   0.368   6.592 -0.9381 -1.4259  0.3828
31922TIP3   OH296647   7.053   2.576   1.646  0.0902  0.5632  0.0819
31922TIP3    H196648   7.070   2.483   1.632 -0.6670  0.6261 -1.4893
31922TIP3    H296649   7.067   2.589   1.740  2.5981 -0.6038 -0.0356
31923TIP3   OH296650   5.407   1.491   7.540  0.3899  0.4538  0.1310
31923TIP3    H196651   5.357   1.568   7.513  2.1461  1.0536 -1.6607
31923TIP3    H296652   5.457   1.521   7.616 -0.6542  0.3338  0.8995
31924TIP3   OH296653   8.124   3.356   1.125 -0.3145  0.3599  0.4770
31924TIP3    H196654   8.061   3.321   1.188 -1.3451  1.4209  0.0730
31924TIP3    H296655   8.200   3.298   1.132 -1.7195 -1.6273  0.2104
31925TIP3   OH296656   1.699   6.135   7.136  0.4692 -0.3729  0.0107
31925TIP3    H196657   1.641   6.126   7.211  0.2211  1.8167  0.1220
31925TIP3    H296658   1.641   6.159   7.064  0.7853 -1.8573 -0.7794
31926TIP3   OH296659   2.956   1.862   2.393  0.7973 -0.4313 -0.0558
31926TIP3    H196660   2.955   1.793   2.460  0.6711 -0.6848 -0.3168
31926TIP3    H296661   3.043   1.900   2.399  1.7226 -2.1825 -1.4940
31927TIP3   OH296662   8.064   0.392  10.269  0.4667 -0.4592  0.1061
31927TIP3    H196663   8.071   0.425  10.179  1.9863  0.4108  0.5053
31927TIP3    H296664   7.973   0.363  10.276  0.1102  0.1163 -1.4831
31928TIP3   OH296665   8.333  10.003   2.389  0.0260  0.4247 -0.0469
31928TIP3    H196666   8.390   9.931   2.415 -1.0462 -0.2778  0.4384
31928TIP3    H296667   8.360  10.076   2.444 -0.0130 -0.1088  0.6947
31929TIP3   OH296668   9.552   3.580   8.997 -0.1668  0.6421  0.2916
31929TIP3    H196669   9.494   3.646   9.035 -0.3213  0.4957  0.3130
31929TIP3    H296670   9.544   3.593   8.903 -0.1583  0.6879  0.2970
31930TIP3   OH296671   3.835   0.450   0.604  0.3020  0.5725  0.1994
31930TIP3    H196672   3.767   0.464   0.538 -0.2060  1.5126  0.8879
31930TIP3    H296673   3.858   0.539   0.633  2.2983  0.3331 -0.4644
31931TIP3   OH296674   9.437   1.645   6.760  0.4632 -0.5627 -0.6291
31931TIP3    H196675   9.405   1.736   6.760 -1.2225 -1.1197 -0.3207
31931TIP3    H296676   9.460   1.629   6.852 -2.5691 -1.4888  0.0713
31932TIP3   OH296677   5.947   9.706   1.689  0.1489 -1.4236 -0.2871
31932TIP3    H196678   5.885   9.640   1.657  0.0641 -1.5016  0.0377
31932TIP3    H296679   6.032   9.677   1.655 -0.0247 -1.1791 -0.9492
31933TIP3   OH296680   3.999   6.522   0.086 -0.1047 -0.4471  0.1941
31933TIP3    H196681   4.083   6.482   0.107  0.2699  0.1599 -0.1027
31933TIP3    H296682   4.016   6.617   0.088 -0.9588 -0.2954  0.8621
31934TIP3   OH296683   0.677   3.939   4.167  0.3134 -0.3829  1.0016
31934TIP3    H196684   0.661   4.033   4.155  1.8814  0.0254  1.8207
31934TIP3    H296685   0.644   3.921   4.255  1.7075 -0.1580  1.5877
31935TIP3   OH296686  10.347   3.416   2.591 -0.5483 -0.0869  0.2783
31935TIP3    H196687  10.398   3.485   2.549  0.3422  1.1871  3.2338
31935TIP3    H296688  10.274   3.461   2.631 -1.4942 -1.2879 -0.0480
31936TIP3   OH296689   8.465   1.018   2.926 -0.7064  0.1486 -0.2498
31936TIP3    H196690   8.493   1.019   3.018 -1.6108  0.9726  0.0249
31936TIP3    H296691   8.375   1.050   2.928 -1.1306 -0.9224 -1.3065
31937TIP3   OH296692   7.256   6.622   9.266  0.1397  0.2794  0.5047
31937TIP3    H196693   7.323   6.574   9.217  0.8521  0.6055  1.1378
31937TIP3    H296694   7.173   6.588   9.232  0.5274 -3.1856  2.4890
31938TIP3   OH296695   9.604   7.419   5.165 -0.0486 -0.0833 -0.3055
31938TIP3    H196696   9.626   7.387   5.253  0.0026  2.4283  0.6814
31938TIP3    H296697   9.509   7.409   5.160  0.1653 -2.2876 -0.8947
31939TIP3   OH296698   2.780   2.639   9.806  0.1516 -0.1609  0.0354
31939TIP3    H196699   2.745   2.557   9.771  1.2419  0.1806 -2.0044
31939TIP3    H296700   2.848   2.665   9.744  0.5375  1.7744  1.1743
31940TIP3   OH296701   6.052   7.553  10.884  0.1425  0.2899 -0.0653
31940TIP3    H196702   5.957   7.557  10.883 -0.2246 -0.5040  4.9815
31940TIP3    H296703   6.073   7.461  10.868  0.2775  0.6616 -2.3725
31941TIP3   OH296704   8.254   9.195   9.638 -0.6585  0.3647 -0.4124
31941TIP3    H196705   8.212   9.188   9.553  0.0402  0.0846 -0.7414
31941TIP3    H296706   8.348   9.193   9.619 -0.4923  0.3761  0.3552
31942TIP3   OH296707  10.870   3.429   6.115 -0.4095  0.1352  0.1023
31942TIP3    H196708  10.811   3.501   6.137 -1.4471 -0.2444 -1.2995
31942TIP3    H296709  10.838   3.396   6.031  0.5897 -1.3834  0.2715
31943TIP3   OH296710   5.987   0.782   3.885 -0.8121  0.2364  0.5813
31943TIP3    H196711   6.043   0.856   3.905 -2.1604  1.1339  1.2247
31943TIP3    H296712   5.910   0.794   3.942 -1.2987 -1.3706  0.3246
31944TIP3   OH296713   7.459  10.377   8.296  0.5024  0.8780  0.3266
31944TIP3    H196714   7.364  10.383   8.287  0.0087 -2.1277  1.9558
31944TIP3    H296715   7.493  10.435   8.229 -2.4802  0.6773 -1.5782
31945TIP3   OH296716   7.629   3.111   1.994 -0.0629  0.0710  0.0865
31945TIP3    H196717   7.593   3.133   1.909  0.4639 -1.5933 -0.6216
31945TIP3    H296718   7.650   3.195   2.034 -1.5036  0.9314 -0.8808
31946TIP3   OH296719   5.193   5.540   2.563  0.3430 -0.0960 -0.2369
31946TIP3    H196720   5.257   5.562   2.496  1.0277 -0.3085  0.3385
31946TIP3    H296721   5.240   5.484   2.624 -0.4474 -0.4245  0.0887
31947TIP3   OH296722   3.620   2.619   8.180  0.0343 -0.3337 -0.6843
31947TIP3    H196723   3.650   2.655   8.264 -1.0971  0.6391 -0.6785
31947TIP3    H296724   3.643   2.686   8.116 -0.0474 -0.6162 -1.0095
31948TIP3   OH296725   8.001   1.664   2.117  0.2213 -0.0529 -0.0841
31948TIP3    H196726   7.965   1.748   2.142  0.3445  0.7258 -2.3115
31948TIP3    H296727   8.067   1.645   2.184 -2.8446 -0.6502  3.0382
31949TIP3   OH296728   3.623   4.607   9.634  0.8910 -0.8128 -0.0809
31949TIP3    H196729   3.588   4.564   9.557 -0.8357 -0.4205  0.4528
31949TIP3    H296730   3.589   4.696   9.630  1.3141 -0.5961  0.8002
31950TIP3   OH296731   6.549   7.678   9.308  0.3535 -0.1792  0.1539
31950TIP3    H196732   6.633   7.649   9.272 -0.1572 -0.0700 -1.1772
31950TIP3    H296733   6.490   7.604   9.294  0.7693 -1.2583  3.3530
31951TIP3   OH296734   8.880   5.188   2.035  0.1217 -0.3255 -0.6156
31951TIP3    H196735   8.962   5.177   1.986  1.0956 -0.1879  0.9014
31951TIP3    H296736   8.849   5.099   2.048  0.7983 -0.4816  0.0077
31952TIP3   OH296737   2.521   7.862   0.042 -0.2699  0.2279  0.1816
31952TIP3    H196738   2.438   7.876   0.087 -0.2619  0.4221  0.1374
31952TIP3    H296739   2.536   7.768   0.048  0.1894  0.3574  1.3772
31953TIP3   OH296740   3.440   9.349  10.566  0.2952  0.4458 -0.4113
31953TIP3    H196741   3.352   9.346  10.529  0.4398 -0.0545 -0.7255
31953TIP3    H296742   3.429   9.324  10.658  0.0053  1.1683 -0.2500
31954TIP3   OH296743   4.377   6.729   7.064 -0.0043  0.5655 -0.3374
31954TIP3    H196744   4.326   6.753   6.986  2.5788  2.0895 -1.7043
31954TIP3    H296745   4.335   6.774   7.136 -0.2796  2.2909 -1.5164
31955TIP3   OH296746   5.830   8.617   5.519 -0.0138 -0.8813 -0.5603
31955TIP3    H196747   5.848   8.710   5.519 -1.8169 -0.4917  0.0025
31955TIP3    H296748   5.852   8.588   5.608 -0.2866 -0.7973 -0.4633
31956TIP3   OH296749   6.065  10.578   7.143 -0.2641 -0.3738  0.7303
31956TIP3    H196750   6.087  10.502   7.089  1.0572 -1.0330  2.0834
31956TIP3    H296751   6.111  10.561   7.226  1.3854  2.6507  0.5599
31957TIP3   OH296752   1.002   3.731   4.079 -0.7896  0.2736 -0.2437
31957TIP3    H196753   0.914   3.698   4.061 -0.1654 -1.1637 -0.8804
31957TIP3    H296754   1.030   3.773   3.998 -0.6129  0.0345 -0.3109
31958TIP3   OH296755   1.648   3.757   9.607  0.4345 -0.4257 -0.5313
31958TIP3    H196756   1.623   3.729   9.695 -1.4551  0.8235 -0.6247
31958TIP3    H296757   1.697   3.838   9.620 -0.0580 -0.1095 -0.6434
31959TIP3   OH296758  10.469   4.664   9.057  0.6109  0.3265 -0.2494
31959TIP3    H196759  10.471   4.759   9.066  2.1071  0.6251 -2.7499
31959TIP3    H296760  10.537   4.633   9.116  0.6743  0.8795 -0.0286
31960TIP3   OH296761   6.430   3.642   9.792 -0.6634  0.0437  0.0013
31960TIP3    H196762   6.425   3.634   9.696  0.2108  1.3468 -0.1778
31960TIP3    H296763   6.342   3.621   9.822 -0.3403 -2.9158 -0.8616
31961TIP3   OH296764   2.661   7.013   5.524 -0.2958  0.0220 -0.0184
31961TIP3    H196765   2.648   7.034   5.616  0.6906  0.7416 -0.0346
31961TIP3    H296766   2.747   7.048   5.503 -0.0018 -1.1756 -0.9110
31962TIP3   OH296767   9.078   9.803   2.725 -0.1593 -0.0169 -0.3114
31962TIP3    H196768   9.054   9.742   2.655 -2.1844  0.1651  0.1777
31962TIP3    H296769   8.998   9.814   2.776  0.8654  1.0553  1.1435
31963TIP3   OH296770   6.625   3.361   1.985  0.4101  0.1997 -0.5509
31963TIP3    H196771   6.635   3.344   1.891 -0.8662  1.0214 -0.8745
31963TIP3    H296772   6.603   3.276   2.022  1.2394 -0.1961 -0.9336
31964TIP3   OH296773   9.031   5.885   8.647  0.1318  0.4681 -0.1968
31964TIP3    H196774   8.989   5.971   8.636  0.4655  0.6280 -0.2301
31964TIP3    H296775   9.002   5.855   8.733  0.0471  0.6359 -0.1658
31965TIP3   OH296776  10.858   2.352   0.629  0.4377  0.3496 -0.2982
31965TIP3    H196777  10.875   2.270   0.583  1.6483  0.8462 -0.7871
31965TIP3    H296778  10.942   2.398   0.628 -0.0108  1.2487  0.6798
31966TIP3   OH296779   1.276   7.477   9.513 -0.0169  0.0377  0.0905
31966TIP3    H196780   1.200   7.525   9.547 -0.5128 -0.1282 -0.7797
31966TIP3    H296781   1.244   7.389   9.497  0.5901 -0.2733  0.5356
31967TIP3   OH296782   8.567   5.113   1.845  0.5105 -0.1857 -1.0482
31967TIP3    H196783   8.644   5.154   1.806  1.2199 -0.0485  0.4526
31967TIP3    H296784   8.592   5.022   1.860  0.4632 -0.0917 -0.3668
31968TIP3   OH296785   8.972   1.297   2.881 -0.2974  0.1381 -0.0884
31968TIP3    H196786   8.919   1.260   2.810 -0.0599  0.1301 -0.2636
31968TIP3    H296787   8.909   1.320   2.949 -0.4932 -0.1700 -0.1644
31969TIP3   OH296788   7.302  10.358   7.210 -0.7214 -0.2270 -0.0404
31969TIP3    H196789   7.274  10.274   7.246  0.9473 -0.6028  0.4806
31969TIP3    H296790   7.366  10.391   7.274 -1.1659  1.3211 -0.3612
31970TIP3   OH296791   8.705   6.800   9.021  0.3499  0.6289 -0.2134
31970TIP3    H196792   8.757   6.782   9.099  0.9624  1.0711 -0.5064
31970TIP3    H296793   8.671   6.889   9.035  1.0456  0.9934 -0.7487
31971TIP3   OH296794   5.034  10.280   9.504 -0.0753 -0.5924 -0.4400
31971TIP3    H196795   5.110  10.224   9.491  1.2897  0.9200  0.6026
31971TIP3    H296796   4.977  10.229   9.563  2.0278 -0.2285  2.1026
31972TIP3   OH296797   6.508   3.950   8.237  0.1570 -0.1339  0.1037
31972TIP3    H196798   6.508   3.976   8.145  0.5942  0.7859  0.3507
31972TIP3    H296799   6.419   3.920   8.253 -0.0135  0.0115 -0.5361
31973TIP3   OH296800   0.036   3.870   2.567  0.1895 -0.3158  0.5474
31973TIP3    H196801   0.124   3.833   2.565  0.2769 -0.1042 -1.3731
31973TIP3    H296802   0.048   3.961   2.594  0.4396 -0.4932  1.0611
31974TIP3   OH296803   6.272   9.185  10.080 -0.1079  0.7682  0.1155
31974TIP3    H196804   6.188   9.221  10.106 -0.4562  0.1097 -0.0636
31974TIP3    H296805   6.262   9.163   9.987  0.4096  1.0954 -0.0243
31975TIP3   OH296806   3.245   0.715   3.216  0.2322  0.2083 -0.1949
31975TIP3    H196807   3.334   0.742   3.193 -0.3167  1.5140 -0.8738
31975TIP3    H296808   3.246   0.707   3.312  0.7256  1.5674 -0.0723
31976TIP3   OH296809   5.691   6.340   7.933  0.1064 -0.3177 -0.4404
31976TIP3    H196810   5.766   6.339   7.873  0.8222  1.8959  0.2998
31976TIP3    H296811   5.635   6.409   7.899 -0.6715 -0.6728  0.1021
31977TIP3   OH296812   1.426   1.307   9.270  0.4213  0.0020  0.0050
31977TIP3    H196813   1.454   1.296   9.361  1.4043 -0.9599 -0.3887
31977TIP3    H296814   1.435   1.400   9.252  2.1139 -0.0732  0.3202
31978TIP3   OH296815   4.732   2.661   4.775 -0.1122 -0.1634 -0.0192
31978TIP3    H196816   4.809   2.630   4.728  0.0562 -0.5330  0.4945
31978TIP3    H296817   4.717   2.749   4.740 -0.4601 -0.7208 -1.3281
31979TIP3   OH296818   5.345   8.680   1.885  0.0270  0.4417  0.7094
31979TIP3    H196819   5.343   8.592   1.847 -0.5861 -0.2331  2.2265
31979TIP3    H296820   5.349   8.666   1.979  2.6511  2.0643  0.9336
31980TIP3   OH296821   8.797   3.444   6.692 -0.0495 -0.3832 -0.4696
31980TIP3    H196822   8.784   3.458   6.786 -0.4342 -1.0730 -0.4158
31980TIP3    H296823   8.880   3.396   6.687 -1.2976 -2.7159 -0.2665
31981TIP3   OH296824  10.820   7.774   0.293 -0.3678 -0.2695 -0.3236
31981TIP3    H196825  10.903   7.731   0.312  0.9382  2.2744  0.1858
31981TIP3    H296826  10.843   7.844   0.231 -2.4125 -0.4523 -1.3755
31982TIP3   OH296827   7.399   4.107   2.552 -0.3363  0.3644  0.1739
31982TIP3    H196828   7.478   4.062   2.580 -2.5007 -2.3137  2.6502
31982TIP3    H296829   7.344   4.039   2.513 -2.0703  1.7683 -0.0113
31983TIP3   OH296830   7.746   8.230  10.502  0.1525 -0.3212 -0.4453
31983TIP3    H196831   7.751   8.141  10.537  1.2869  0.4706  1.5560
31983TIP3    H296832   7.789   8.224  10.416 -1.8746 -2.1227 -1.4141
31984TIP3   OH296833   1.730   0.097   6.205 -0.2961  0.1181  0.2014
31984TIP3    H196834   1.726   0.039   6.129  0.2896  0.2084  0.0964
31984TIP3    H296835   1.693   0.180   6.173 -1.7420 -0.3715  0.5365
31985TIP3   OH296836   2.369   5.426   3.347 -0.0214 -0.0120 -0.3775
31985TIP3    H196837   2.356   5.348   3.402 -1.8396 -0.3703 -1.2538
31985TIP3    H296838   2.346   5.499   3.405  1.4579 -0.1083  0.3745
31986TIP3   OH296839   0.652   4.223   4.142 -0.8139 -0.3742 -0.2263
31986TIP3    H196840   0.559   4.224   4.162 -0.8932  1.5954 -0.5446
31986TIP3    H296841   0.695   4.241   4.226 -0.6588 -1.9884  0.0652
31987TIP3   OH296842   9.866   1.396   2.797  0.1767  0.1413  0.1611
31987TIP3    H196843   9.811   1.459   2.844 -0.3063  0.4582 -0.8096
31987TIP3    H296844   9.806   1.329   2.765  0.7407 -1.1031  1.5731
31988TIP3   OH296845   2.508   0.973   9.622 -0.5308  0.4294  0.5562
31988TIP3    H196846   2.529   1.015   9.538 -3.6388 -0.6245 -0.8834
31988TIP3    H296847   2.538   0.882   9.611 -2.1473 -0.0676 -0.0164
31989TIP3   OH296848  10.066   8.681   4.385  0.4147 -0.0688  0.0815
31989TIP3    H196849  10.102   8.593   4.397 -0.1636 -0.6702 -2.1200
31989TIP3    H296850   9.987   8.682   4.439  0.2646 -1.0277 -0.0917
31990TIP3   OH296851   1.574   0.751   9.555 -0.2270 -0.5345  0.3007
31990TIP3    H196852   1.509   0.776   9.490  1.3501  0.8713 -0.8077
31990TIP3    H296853   1.594   0.659   9.536  1.3577  0.2670 -2.2976
31991TIP3   OH296854  10.179   6.818   6.615  0.0760 -0.8155  0.2922
31991TIP3    H196855  10.243   6.748   6.608 -1.0346 -1.8270  0.0436
31991TIP3    H296856  10.095   6.777   6.595 -1.0139 -0.0574  2.8672
31992TIP3   OH296857   1.195   2.738   6.397 -0.0463 -0.2165 -0.2666
31992TIP3    H196858   1.251   2.711   6.470 -1.0906 -1.8824 -0.0396
31992TIP3    H296859   1.142   2.809   6.432 -0.5080 -0.9708  0.6003
31993TIP3   OH296860  10.279   8.021   8.028  0.8399  0.3341  0.1225
31993TIP3    H196861  10.284   8.073   8.108 -1.4339 -0.6441  0.9980
31993TIP3    H296862  10.342   7.950   8.041  0.4341  0.1373  1.1087
31994TIP3   OH296863   8.929   1.039   0.474  0.4064  0.3392 -0.1439
31994TIP3    H196864   8.924   1.123   0.519  1.8897  0.7634 -0.7193
31994TIP3    H296865   8.904   0.974   0.540  1.5575  1.0309  1.0086
31995TIP3   OH296866   5.297   9.755   9.943  0.1530  0.2679 -0.2658
31995TIP3    H196867   5.346   9.706   9.876  0.8328  2.1597 -1.2361
31995TIP3    H296868   5.260   9.829   9.895 -0.9399  0.6552  1.1235
31996TIP3   OH296869  10.906   4.605   7.730  0.1720  0.0078 -0.6991
31996TIP3    H196870  10.901   4.510   7.731 -0.1930 -0.0354 -2.7630
31996TIP3    H296871  10.827   4.634   7.775  0.5677 -0.6374  0.4555
31997TIP3   OH296872   1.445   1.405   7.012  0.3452  0.3213 -0.1822
31997TIP3    H196873   1.409   1.446   6.934 -0.1687  0.7702  0.2797
31997TIP3    H296874   1.408   1.316   7.012 -0.3955  0.6221  0.0340
31998TIP3   OH296875   4.985   8.533   7.592  0.1009  0.5304  0.0840
31998TIP3    H196876   4.977   8.506   7.501 -2.5753  1.1099  0.0345
31998TIP3    H296877   4.990   8.452   7.642  0.9498  0.2006 -0.5184
31999TIP3   OH296878   3.126   3.980   8.575 -0.2548  0.2180  0.2612
31999TIP3    H196879   3.060   3.914   8.597 -0.7393  0.7093  0.3066
31999TIP3    H296880   3.105   4.005   8.485  0.9184 -0.8396 -0.3327
32000TIP3   OH296881   7.400   7.558  10.509 -0.3327  0.0152  0.0534
32000TIP3    H196882   7.355   7.519  10.434  0.4986  1.5570 -1.3208
32000TIP3    H296883   7.336   7.619  10.546  0.1343  1.3213 -1.1724
32001TIP3   OH296884   3.063   3.152   8.411 -0.2368  0.0103  0.0573
32001TIP3    H196885   3.132   3.117   8.468 -0.4050 -0.0541  0.2210
32001TIP3    H296886   3.108   3.219   8.359 -0.2197  0.5484  0.7338
32002TIP3   OH296887   9.935   0.124   3.603 -0.3282  0.2019  0.2530
32002TIP3    H196888   9.944   0.035   3.638  1.0278  1.1138  2.4792
32002TIP3    H296889   9.986   0.124   3.523  0.5109 -0.7810  0.7662
32003TIP3   OH296890   5.541   9.411   7.179  0.0078 -0.0368 -0.0114
32003TIP3    H196891   5.490   9.367   7.247  2.4478 -0.4862  1.6462
32003TIP3    H296892   5.484   9.481   7.149 -0.9832  0.5869  2.9558
32004TIP3   OH296893   9.175   5.692   0.613  0.7476  0.5915 -0.6409
32004TIP3    H196894   9.196   5.613   0.662  1.0281  1.0899  0.0643
32004TIP3    H296895   9.154   5.757   0.680 -0.3690  0.8747 -1.2406
32005TIP3   OH296896   1.243   0.212   6.680 -0.0098 -0.1178  0.0334
32005TIP3    H196897   1.289   0.197   6.763 -1.0430 -2.8046  0.2246
32005TIP3    H296898   1.311   0.210   6.613  0.4807 -1.6022  0.5294
32006TIP3   OH296899   7.248  10.425   6.487 -0.8333 -0.0045  0.5657
32006TIP3    H196900   7.297  10.360   6.537 -1.7635 -0.5185  0.8304
32006TIP3    H296901   7.225  10.381   6.406 -0.7700  0.2732  0.3956
32007TIP3   OH296902   5.942   7.188   2.558 -0.2868  0.0485  0.2614
32007TIP3    H196903   5.941   7.190   2.462  2.2633 -0.1814  0.1644
32007TIP3    H296904   6.000   7.115   2.580 -0.1970  0.5924  1.9681
32008TIP3   OH296905   8.328   1.891   3.968 -0.1069 -0.4931 -0.2925
32008TIP3    H196906   8.312   1.877   4.061  0.1444  1.9178  0.1820
32008TIP3    H296907   8.405   1.838   3.949 -0.7722 -1.8155  0.6019
32009TIP3   OH296908   6.620   2.785   8.292  0.2017 -0.4560 -0.0686
32009TIP3    H196909   6.567   2.720   8.244 -0.8679 -1.8031  2.7282
32009TIP3    H296910   6.707   2.778   8.253 -0.1777 -2.7437 -0.6833
32010TIP3   OH296911   3.757   6.821   7.138 -0.6115  0.9224 -0.5939
32010TIP3    H196912   3.759   6.725   7.131  3.3142  0.8079  0.0257
32010TIP3    H296913   3.773   6.852   7.049  2.7980  0.7113 -0.2094
32011TIP3   OH296914   1.533   7.802   3.969  1.0549  0.1288  0.1019
32011TIP3    H196915   1.528   7.721   3.919 -0.0757 -0.2001  0.7242
32011TIP3    H296916   1.511   7.870   3.905 -1.1713 -0.3567  0.2739
32012TIP3   OH296917   1.237   3.870   1.979  0.2917  0.4266 -0.4188
32012TIP3    H196918   1.203   3.900   1.895  1.1132 -0.4921 -1.1130
32012TIP3    H296919   1.305   3.933   2.001 -0.1000  0.8152 -0.3084
32013TIP3   OH296920   6.211   7.072   3.729  0.3050 -0.1391 -0.2110
32013TIP3    H196921   6.251   7.152   3.696  2.7277 -0.8363  0.8353
32013TIP3    H296922   6.189   7.092   3.820  0.5862 -0.5506 -0.0498
32014TIP3   OH296923   4.036   2.929   6.631  0.0408  0.0275 -0.1058
32014TIP3    H196924   4.102   2.980   6.679  0.6535 -1.7692  1.0671
32014TIP3    H296925   4.085   2.885   6.562 -0.2746  0.1145 -0.3866
32015TIP3   OH296926   9.920   5.298   1.987  0.5416  0.7124  0.3828
32015TIP3    H196927   9.894   5.380   1.945 -5.1272 -0.3130  1.0837
32015TIP3    H296928   9.952   5.325   2.073 -1.4602  2.3147  0.7171
32016TIP3   OH296929  10.372   0.772   4.561 -0.1767 -0.1236 -0.6956
32016TIP3    H196930  10.407   0.752   4.648 -0.7387 -0.6232 -0.5839
32016TIP3    H296931  10.377   0.868   4.555 -1.2440  0.0136  0.3557
32017TIP3   OH296932  10.361   5.803   3.811 -0.4449 -0.2124 -0.2099
32017TIP3    H196933  10.279   5.838   3.777  0.2995  1.0033 -0.8015
32017TIP3    H296934  10.429   5.849   3.763  0.6131 -0.2782  1.1637
32018TIP3   OH296935   0.271   8.478  10.596  0.0795 -0.4454 -0.0135
32018TIP3    H196936   0.212   8.525  10.655 -1.5001 -0.5089 -1.4741
32018TIP3    H296937   0.222   8.469  10.515  2.0790 -0.5975 -1.2808
32019TIP3   OH296938   3.795   8.389   4.153  0.1911  0.4242 -0.0968
32019TIP3    H196939   3.723   8.354   4.101  0.4443 -0.6680  0.2620
32019TIP3    H296940   3.773   8.368   4.244  2.0186 -2.0732 -0.1203
32020TIP3   OH296941   1.884   0.537   5.810 -0.0604  0.2448  0.7139
32020TIP3    H196942   1.911   0.446   5.797  0.7195  0.5671 -0.0132
32020TIP3    H296943   1.962   0.581   5.842 -0.2749  0.7722  0.5247
32021TIP3   OH296944   2.412   7.260   3.673  0.0165 -0.0686 -0.1059
32021TIP3    H196945   2.499   7.224   3.663  0.4961  1.0694 -0.2361
32021TIP3    H296946   2.420   7.320   3.748 -0.8694 -0.6095  0.4326
32022TIP3   OH296947   4.194   8.374   4.040  0.2178 -0.2863  0.2616
32022TIP3    H196948   4.103   8.347   4.050 -0.9202  3.0361  0.1304
32022TIP3    H296949   4.209   8.374   3.945  0.0138  0.0564  0.2263
32023TIP3   OH296950   3.424   8.744  10.209  0.1108 -0.0969  0.0049
32023TIP3    H196951   3.479   8.752  10.287 -0.0953 -1.9167  0.4028
32023TIP3    H296952   3.347   8.696  10.240  0.3928 -1.5668 -1.4564
32024TIP3   OH296953   8.225   6.662   5.916 -0.0005  0.1186  1.1571
32024TIP3    H196954   8.200   6.670   5.824 -0.4629  0.3889  1.3042
32024TIP3    H296955   8.282   6.585   5.919  1.1247  0.8762  0.4096
32025TIP3   OH296956   5.998   8.118   1.967 -0.2239 -0.1243  0.2342
32025TIP3    H196957   5.929   8.176   2.000 -1.4738 -0.3587 -1.7892
32025TIP3    H296958   6.035   8.165   1.892  1.5906 -0.1795  1.0501
32026TIP3   OH296959  10.232   5.985   6.522  0.0142  0.1096  0.1360
32026TIP3    H196960  10.147   5.990   6.565 -0.4889  0.7345 -0.8755
32026TIP3    H296961  10.270   5.903   6.554 -0.1860  0.6878  1.9700
32027TIP3   OH296962   1.338   6.384   7.761  0.5937 -0.3531  0.7870
32027TIP3    H196963   1.383   6.299   7.760  1.0861 -0.0931  0.1621
32027TIP3    H296964   1.245   6.362   7.766  0.7497 -0.9119  1.3971
32028TIP3   OH296965   1.757   6.779   6.743  0.2922 -0.3366  0.6326
32028TIP3    H196966   1.791   6.749   6.659 -0.0037 -0.5326  0.5829
32028TIP3    H296967   1.814   6.852   6.767  1.2206 -1.1176  0.8899
32029TIP3   OH296968   3.997   8.312   6.547  0.0297 -0.7283 -0.4643
32029TIP3    H196969   4.041   8.378   6.494  1.0679 -1.8283 -1.0286
32029TIP3    H296970   3.959   8.251   6.484  0.9339 -1.8362  0.0298
32030TIP3   OH296971   9.515  10.415   9.599  0.5556  0.4269  0.5345
32030TIP3    H196972   9.551  10.493   9.557  0.9733  0.5719  1.1499
32030TIP3    H296973   9.524  10.431   9.693  0.0336 -0.0765  0.6799
32031TIP3   OH296974   9.123   8.730   0.871 -0.6412 -0.6771 -0.3774
32031TIP3    H196975   9.077   8.658   0.829 -1.8498  0.1166 -0.4623
32031TIP3    H296976   9.165   8.691   0.948 -1.6111 -1.3836 -0.1975
32032TIP3   OH296977   4.201   3.432   6.756  0.6761  0.1357  0.1724
32032TIP3    H196978   4.209   3.505   6.695  1.4949  0.2675  0.4319
32032TIP3    H296979   4.267   3.449   6.823 -1.0683  0.7302  1.8623
32033TIP3   OH296980  10.251   4.551   5.400  0.3425  0.3815  0.2970
32033TIP3    H196981  10.248   4.643   5.425  0.9796  0.0514  1.7082
32033TIP3    H296982  10.266   4.504   5.482 -0.6639 -1.0482 -0.2876
32034TIP3   OH296983   0.741   4.662   7.002  0.5537  0.5346  0.8209
32034TIP3    H196984   0.661   4.629   7.044  0.2792 -0.5515 -0.4689
32034TIP3    H296985   0.766   4.739   7.053 -0.5280  0.0651  2.0968
32035TIP3   OH296986   7.115   5.425   0.437 -0.2410  0.4124 -0.5699
32035TIP3    H196987   7.075   5.511   0.446 -3.3154 -0.9271 -0.0881
32035TIP3    H296988   7.166   5.413   0.517  1.1457  2.1228 -1.1301
32036TIP3   OH296989   2.973  10.325  10.187 -0.7155  0.3503  0.2357
32036TIP3    H196990   2.991  10.357  10.098  1.6074 -2.6309 -0.5428
32036TIP3    H296991   3.029  10.377  10.244  1.5877 -0.8658 -0.7600
32037TIP3   OH296992   2.292   3.828   3.751  0.1613 -0.1202  0.6517
32037TIP3    H196993   2.260   3.835   3.661  0.0222  0.0227  0.7128
32037TIP3    H296994   2.231   3.768   3.794 -0.9586  1.3415  1.1927
32038TIP3   OH296995   3.604   3.844   3.761 -0.0253 -0.4450  0.1052
32038TIP3    H196996   3.590   3.753   3.737  0.2818 -0.3950 -0.2716
32038TIP3    H296997   3.539   3.893   3.711  0.8651 -0.3032 -0.9439
32039TIP3   OH296998   2.951   8.365   1.912  0.1962 -0.3815 -0.2107
32039TIP3    H196999   2.943   8.454   1.947 -1.1829 -0.3502 -0.5412
32039TIP3    H297000   3.045   8.350   1.905  0.4561  1.5130 -1.3094
32040TIP3   OH297001   8.488   9.877   9.505  0.5021  0.5713 -0.0162
32040TIP3    H197002   8.581   9.858   9.497  0.6446  0.8993  0.7195
32040TIP3    H297003   8.483   9.938   9.579 -0.3993 -0.3019  0.6771
32041TIP3   OH297004   7.888  10.846   9.972  0.2008  0.2863 -0.5283
32041TIP3    H197005   7.822  10.893   9.922  0.1012 -0.5336 -1.1846
32041TIP3    H297006   7.945  10.915  10.007 -0.2550  0.9196 -1.0117
32042TIP3   OH297007   1.440   1.576   7.942  0.6585  0.0793 -0.3531
32042TIP3    H197008   1.479   1.643   7.999  0.5939 -0.0429 -0.1623
32042TIP3    H297009   1.407   1.510   8.003 -0.0393  0.2846 -0.5050
32043TIP3   OH297010   3.516   1.601   1.615  0.9615 -0.1149  0.0796
32043TIP3    H197011   3.433   1.564   1.645  1.7827 -2.0450  0.1653
32043TIP3    H297012   3.523   1.572   1.524  1.2633  0.5383 -0.1093
32044TIP3   OH297013   7.054   4.593   7.454  0.1170  0.1814 -0.3766
32044TIP3    H197014   7.098   4.678   7.460  2.8964 -1.2009  0.3753
32044TIP3    H297015   7.002   4.599   7.374 -0.6475  2.9261  0.2203
32045TIP3   OH297016   1.187   7.889   0.292  0.2806 -0.1284  0.6418
32045TIP3    H197017   1.203   7.875   0.198 -1.1031  1.1870  0.1673
32045TIP3    H297018   1.260   7.847   0.335  1.6712  0.3675 -1.1036
32046TIP3   OH297019   4.670   6.514   3.010 -0.1749  0.3430  0.2328
32046TIP3    H197020   4.715   6.532   2.927 -1.5703 -2.5152 -1.2821
32046TIP3    H297021   4.720   6.442   3.048 -1.5835 -0.7654  0.0569
32047TIP3   OH297022   3.127   9.970   3.677 -0.5265 -0.3173  0.2043
32047TIP3    H197023   3.060   9.989   3.743 -2.8380  0.2712 -2.1689
32047TIP3    H297024   3.154  10.056   3.645 -2.2178 -0.5732 -2.1603
32048TIP3   OH297025   1.155   9.019   2.329  0.0809  0.3097  0.3331
32048TIP3    H197026   1.184   9.014   2.238 -1.0990  0.6315 -0.0798
32048TIP3    H297027   1.102   8.940   2.342  3.2913 -1.8054  1.9316
32049TIP3   OH297028   8.539   0.611   3.336 -0.1995  0.2395  0.0307
32049TIP3    H197029   8.500   0.687   3.380 -1.9976 -0.4349 -0.2988
32049TIP3    H297030   8.579   0.648   3.257  0.7241  1.0980  0.8823
32050TIP3   OH297031   6.704   0.806   9.727  0.3807 -0.3855  0.1245
32050TIP3    H197032   6.622   0.769   9.760  0.5098 -1.4966 -0.7437
32050TIP3    H297033   6.684   0.897   9.708 -0.6319 -0.6317 -0.0256
32051TIP3   OH297034  10.012   0.933   2.446 -0.4789 -0.7104  0.5271
32051TIP3    H197035   9.924   0.919   2.412 -0.6082  0.1268  0.5025
32051TIP3    H297036  10.069   0.884   2.387 -1.0047 -2.1301  1.1478
32052TIP3   OH297037   2.774   1.766   4.857  0.0686 -0.1835 -0.3586
32052TIP3    H197038   2.773   1.816   4.939 -2.6613  1.8424 -1.4760
32052TIP3    H297039   2.695   1.713   4.860 -1.1661  1.3749 -2.3860
32053TIP3   OH297040   6.753   0.036   2.602 -0.1576  0.3287  0.0091
32053TIP3    H197041   6.761  -0.009   2.518 -0.3997 -1.2764  0.8117
32053TIP3    H297042   6.825   0.002   2.655 -0.1857  1.0950  0.5633
32054TIP3   OH297043   4.111   7.035   4.973 -0.1458 -0.2431 -0.3071
32054TIP3    H197044   4.057   7.019   4.896 -0.3777 -1.4738  0.0851
32054TIP3    H297045   4.058   7.095   5.027  0.0922  0.7471 -1.1640
32055TIP3   OH297046   7.825   2.772   0.888 -0.1508  0.5505  0.0209
32055TIP3    H197047   7.798   2.857   0.852  0.2912  0.2645 -1.0318
32055TIP3    H297048   7.764   2.756   0.960 -0.6106  1.4922 -0.1426
32056TIP3   OH297049   4.735   5.764   1.581  0.0135 -0.3108  0.1850
32056TIP3    H197050   4.732   5.736   1.490  0.8661 -2.4881  0.7802
32056TIP3    H297051   4.826   5.790   1.595  0.3473 -1.7644  0.8750
32057TIP3   OH297052   8.110   4.309   2.834 -0.0352  0.4492  0.3419
32057TIP3    H197053   8.136   4.223   2.865  0.2514 -0.0722 -1.2564
32057TIP3    H297054   8.171   4.329   2.762 -2.0664  0.5428 -1.4572
32058TIP3   OH297055   8.570   0.818   6.661  0.3198  0.0537 -0.2100
32058TIP3    H197056   8.588   0.908   6.634  2.3276 -0.2624 -0.0321
32058TIP3    H297057   8.539   0.825   6.751  2.1035  0.4879  0.4122
32059TIP3   OH297058   6.998  10.147   8.742  0.5472 -0.3821 -0.1833
32059TIP3    H197059   6.996  10.171   8.649  0.4093 -1.2205 -0.4011
32059TIP3    H297060   7.088  10.168   8.769  0.7207 -0.5443 -0.6177
32060TIP3   OH297061   1.909   8.333   6.599  0.0551  0.0332  0.2542
32060TIP3    H197062   1.903   8.238   6.591  0.7149  0.1099 -1.3895
32060TIP3    H297063   1.988   8.357   6.551  1.1003  1.2328  2.4024
32061TIP3   OH297064  10.133   6.025   5.118 -0.0695  0.3069 -0.0711
32061TIP3    H197065  10.075   5.954   5.144  1.1002 -1.1403 -1.2697
32061TIP3    H297066  10.124   6.090   5.188  0.6972 -2.0768  2.4548
32062TIP3   OH297067   8.135   4.177   6.693 -0.1699 -0.1903  0.2212
32062TIP3    H197068   8.047   4.173   6.657 -0.0563 -0.8505  0.0108
32062TIP3    H297069   8.172   4.090   6.676  0.2084 -0.2092  1.0954
32063TIP3   OH297070   9.089   6.445   1.740 -0.2397  0.4042 -0.1482
32063TIP3    H197071   9.176   6.446   1.780  0.4062 -1.2076 -1.3693
32063TIP3    H297072   9.089   6.519   1.679 -0.0770  0.9726  0.5369
32064TIP3   OH297073   7.422   7.178   4.781 -0.1063 -0.0602 -0.1569
32064TIP3    H197074   7.498   7.131   4.817 -0.6704 -0.3842  0.6527
32064TIP3    H297075   7.441   7.187   4.688  0.4014 -1.1713 -0.1759
32065TIP3   OH297076   0.768   0.568   3.351 -0.6790 -0.2989  0.7476
32065TIP3    H197077   0.752   0.513   3.275 -1.6167  1.4221 -0.3482
32065TIP3    H297078   0.860   0.553   3.372 -0.1143 -0.0515 -1.3631
32066TIP3   OH297079   1.299   8.998   6.379  0.1464 -0.0196 -0.4303
32066TIP3    H197080   1.234   8.928   6.386  0.3335 -0.1444  0.1115
32066TIP3    H297081   1.248   9.076   6.356 -0.0520 -0.3532 -1.1290
32067TIP3   OH297082   8.360   0.738   7.963  0.0252  0.1633  0.0908
32067TIP3    H197083   8.380   0.809   8.023 -0.2632 -1.3037  2.0345
32067TIP3    H297084   8.444   0.698   7.942  0.0785  0.3695 -0.0888
32068TIP3   OH297085   7.105   4.187   4.169 -0.4037  0.2882 -0.5629
32068TIP3    H197086   7.142   4.187   4.258  0.0106 -0.9831 -0.7100
32068TIP3    H297087   7.016   4.155   4.180 -0.1771 -0.3907 -0.6572
32069TIP3   OH297088   9.425   8.756   0.488 -0.7739 -0.5234  0.1561
32069TIP3    H197089   9.513   8.765   0.523 -0.1909 -1.5901 -0.9718
32069TIP3    H297090   9.397   8.669   0.518 -2.1355  0.4352  1.9129
32070TIP3   OH297091   6.593   1.431   9.543 -0.5351 -0.4092  0.4590
32070TIP3    H197092   6.662   1.424   9.610 -1.4390 -0.9710  1.3624
32070TIP3    H297093   6.632   1.391   9.465 -0.1958 -1.7237  1.2613
32071TIP3   OH297094   8.347   0.116   7.854 -0.7849  0.2365  0.1638
32071TIP3    H197095   8.356   0.023   7.872 -1.4819  0.3940  1.4796
32071TIP3    H297096   8.253   0.127   7.835 -0.8255  0.7567  0.6401
32072TIP3   OH297097   7.326   1.510   6.396 -0.3484  0.2477 -0.4345
32072TIP3    H197098   7.309   1.416   6.398 -2.9367  0.6486  0.1038
32072TIP3    H297099   7.319   1.538   6.487  1.7311  0.8335 -0.3838
32073TIP3   OH297100   1.444  10.503   8.355  0.5025 -0.0225 -0.1945
32073TIP3    H197101   1.467  10.585   8.400  0.4338 -0.7448  1.2036
32073TIP3    H297102   1.523  10.479   8.307  0.4570  0.9623 -0.7852
32074TIP3   OH297103   6.025   7.758   7.638 -0.0334 -0.2230  0.5399
32074TIP3    H197104   6.047   7.827   7.700  2.8545 -0.6635  0.1584
32074TIP3    H297105   6.099   7.697   7.643 -1.0926 -1.7551 -1.2433
32075TIP3   OH297106   4.454   4.713   9.723 -0.1293  0.5165  0.3681
32075TIP3    H197107   4.501   4.793   9.700 -1.1577  0.7785 -0.9422
32075TIP3    H297108   4.454   4.661   9.643 -2.0755  0.5409  0.3060
32076TIP3   OH297109  10.051   5.294  10.447  0.4475  0.1617 -0.3205
32076TIP3    H197110  10.136   5.317  10.409 -0.5240  3.8679 -0.6412
32076TIP3    H297111   9.987   5.316  10.378 -0.9140 -0.7464  0.5917
32077TIP3   OH297112   0.252   4.669   2.182 -0.1166 -0.9965  0.0505
32077TIP3    H197113   0.180   4.611   2.205  0.8262 -1.8201  1.0295
32077TIP3    H297114   0.273   4.715   2.264  0.2314 -0.4884 -0.3157
32078TIP3   OH297115   9.038   8.025   9.646  0.2086  0.2520 -0.1558
32078TIP3    H197116   9.106   8.019   9.713  1.5664  1.4102 -1.3669
32078TIP3    H297117   9.027   7.935   9.615  0.1317 -0.1741  1.0323
32079TIP3   OH297118   6.165  10.614   1.608  0.1229 -0.1967 -0.0861
32079TIP3    H197119   6.201  10.627   1.520  0.0655  1.2886  0.0942
32079TIP3    H297120   6.085  10.666   1.609 -1.1391 -2.0134  0.1266
32080TIP3   OH297121   2.302  10.877   6.387 -0.5849  0.2186  0.2886
32080TIP3    H197122   2.236  10.928   6.339 -1.9118 -1.6105  0.0676
32080TIP3    H297123   2.275  10.883   6.478  0.1129  1.0804  0.4531
32081TIP3   OH297124   2.297   4.149   2.530  0.3458  0.0172 -0.0861
32081TIP3    H197125   2.301   4.208   2.606  2.3578 -0.5144  0.2736
32081TIP3    H297126   2.325   4.202   2.456  0.3134  0.0085 -0.1049
32082TIP3   OH297127   2.432   9.769   8.041 -0.1199 -0.0387 -0.5177
32082TIP3    H197128   2.434   9.722   8.125  1.0747  1.2283  0.2046
32082TIP3    H297129   2.342   9.759   8.010 -0.8130  0.1100  1.3138
32083TIP3   OH297130   9.768  10.215   4.339  0.2208 -0.0346 -0.4994
32083TIP3    H197131   9.734  10.299   4.308 -1.5779 -0.1941  0.9089
32083TIP3    H297132   9.830  10.238   4.408  0.1023  0.1494 -0.4540
32084TIP3   OH297133   9.748   5.959   4.609  0.6426  0.2437  0.4371
32084TIP3    H197134   9.739   6.020   4.537 -0.6803 -0.7004 -0.2444
32084TIP3    H297135   9.777   5.877   4.569  1.3927  0.1175  1.1932
32085TIP3   OH297136   8.783   1.798   1.835  0.3314  0.2365 -0.0316
32085TIP3    H197137   8.748   1.880   1.868  1.8656  0.9455 -0.0765
32085TIP3    H297138   8.812   1.819   1.746  1.1907 -0.1992  0.1336
32086TIP3   OH297139   4.181   8.145   4.984 -0.8343  0.2492 -0.0841
32086TIP3    H197140   4.274   8.126   4.990 -0.9910 -1.3293 -1.8065
32086TIP3    H297141   4.177   8.228   4.936 -0.3122 -0.1516 -0.8391
32087TIP3   OH297142  10.348   0.932   7.892 -0.3965 -0.3309  0.5155
32087TIP3    H197143  10.423   0.875   7.877  0.0906  0.8052 -1.8621
32087TIP3    H297144  10.372   1.015   7.850 -1.6633  1.1839  2.5981
32088TIP3   OH297145   5.778   4.949   6.472  0.7956 -0.0216  0.2656
32088TIP3    H197146   5.699   5.001   6.463  1.9706  1.9033  0.4497
32088TIP3    H297147   5.749   4.866   6.509 -1.2480  0.2098 -0.7091
32089TIP3   OH297148   2.695   7.668   2.307 -0.4564  0.0401  0.0116
32089TIP3    H197149   2.746   7.617   2.244 -0.3501  1.1913 -0.8743
32089TIP3    H297150   2.648   7.603   2.358  1.8430 -1.0774  0.8357
32090TIP3   OH297151   7.064   8.579   9.742 -0.0699  0.0708 -0.0512
32090TIP3    H197152   7.059   8.489   9.775 -0.2167 -0.6613 -1.9603
32090TIP3    H297153   6.995   8.583   9.675  0.3023  1.4337 -0.3673
32091TIP3   OH297154   9.162   0.711   3.790  0.5227  0.5016  0.0587
32091TIP3    H197155   9.230   0.707   3.722  2.0211  1.5877  1.4061
32091TIP3    H297156   9.084   0.678   3.747  1.5083  0.7277 -2.0755
32092TIP3   OH297157   9.545   1.070   8.230 -0.4270  0.3746  0.1970
32092TIP3    H197158   9.472   1.131   8.224 -1.2700 -0.3747  2.1816
32092TIP3    H297159   9.543   1.038   8.320  2.3284  0.2861  0.3315
32093TIP3   OH297160   9.261   3.568   7.704  0.4059 -0.0531 -0.4502
32093TIP3    H197161   9.296   3.494   7.654 -0.1437  0.0108 -0.9271
32093TIP3    H297162   9.174   3.583   7.668  0.0567  0.0845  0.4338
32094TIP3   OH297163   2.108   7.053  10.674 -0.6731 -0.6755  0.1466
32094TIP3    H197164   2.040   7.119  10.658 -0.2459  0.1232  1.4747
32094TIP3    H297165   2.073   6.999  10.745  0.2426  0.0241  1.1530
32095TIP3   OH297166   7.529   0.874   1.838 -0.4616 -0.5949  0.1509
32095TIP3    H197167   7.468   0.825   1.894 -1.3150  0.5666  0.2766
32095TIP3    H297168   7.562   0.945   1.895 -1.8479  1.0102 -0.9427
32096TIP3   OH297169   0.306  10.391   0.908  0.1444  0.0523 -0.2477
32096TIP3    H197170   0.387  10.419   0.865 -0.6123  0.7803 -1.2353
32096TIP3    H297171   0.274  10.319   0.853 -0.1762  0.1481 -0.1869
32097TIP3   OH297172   8.435   7.123   1.469  0.2195  0.0300  0.1920
32097TIP3    H197173   8.444   7.194   1.405  0.0645 -0.2322 -0.1224
32097TIP3    H297174   8.497   7.146   1.539 -1.2958  1.5712  1.1048
32098TIP3   OH297175   4.537   3.934   6.923 -0.4021  0.5196 -0.5542
32098TIP3    H197176   4.486   4.003   6.881 -1.9475 -0.1904  0.0945
32098TIP3    H297177   4.553   3.966   7.012  0.4507  0.8020 -0.7944
32099TIP3   OH297178   6.857   7.085   2.946  0.2778  0.8686 -0.2274
32099TIP3    H197179   6.837   7.099   2.853  0.3582  1.3629 -0.1756
32099TIP3    H297180   6.810   7.005   2.969  0.2099  0.7733 -0.6799
32100TIP3   OH297181   7.281   2.193   0.108 -0.2084 -0.1143  0.3943
32100TIP3    H197182   7.253   2.112   0.150 -0.3076 -0.3702 -0.1688
32100TIP3    H297183   7.365   2.171   0.068 -0.4929 -0.0861 -0.2188
32101TIP3   OH297184   8.621   5.497   3.669  0.4860 -0.3838 -0.2336
32101TIP3    H197185   8.579   5.421   3.629  0.4060 -0.2462 -0.4115
32101TIP3    H297186   8.556   5.567   3.662  0.8592 -0.0884 -0.7908
32102TIP3   OH297187   6.233   5.722  10.218  0.4447  0.2533 -0.3138
32102TIP3    H197188   6.275   5.737  10.303 -1.2291 -1.2613  0.8646
32102TIP3    H297189   6.217   5.809  10.183  2.1264  0.8947  0.4120
32103TIP3   OH297190   3.876   5.178  10.812  0.4383  0.5971  0.4441
32103TIP3    H197191   3.943   5.169  10.745  0.5254  0.9426  0.4790
32103TIP3    H297192   3.912   5.132  10.888  0.4567  0.4326  0.3367
32104TIP3   OH297193   0.550   6.534   5.983  0.3978 -0.4636  0.2906
32104TIP3    H197194   0.620   6.599   5.978  0.4654 -0.5851 -0.4025
32104TIP3    H297195   0.470   6.584   5.963  0.0907 -0.0526  2.3014
32105TIP3   OH297196   7.476   1.024   5.925 -0.2942  0.3141  0.2570
32105TIP3    H197197   7.390   1.048   5.890 -0.3065 -2.0388 -1.5577
32105TIP3    H297198   7.495   1.092   5.989 -3.2758  1.2146  0.3576
32106TIP3   OH297199   4.997   6.890   3.460  0.2396  0.2909  0.0276
32106TIP3    H197200   4.970   6.916   3.548  2.1115  0.0397  0.7236
32106TIP3    H297201   5.069   6.828   3.475  1.1689  0.8998 -1.6825
32107TIP3   OH297202   1.016   3.333   4.120  0.3823 -0.4199 -0.4237
32107TIP3    H197203   0.974   3.403   4.170  1.5712  0.1411 -0.1691
32107TIP3    H297204   1.110   3.354   4.123  0.7002 -1.6575 -0.9169
32108TIP3   OH297205   9.465   8.576   7.494  0.1816  0.0215 -0.3891
32108TIP3    H197206   9.490   8.556   7.584 -0.2330 -1.5915 -0.6105
32108TIP3    H297207   9.375   8.607   7.501  0.2276  0.1243 -0.2336
32109TIP3   OH297208   4.399   4.631   0.597 -0.2414 -0.2482  0.2119
32109TIP3    H197209   4.399   4.624   0.692 -2.0637  2.7614  0.5475
32109TIP3    H297210   4.441   4.715   0.579 -2.1555  0.4434 -1.4321
32110TIP3   OH297211   1.358   8.460   6.232  0.0651 -0.0680  0.6011
32110TIP3    H197212   1.397   8.543   6.205  1.0288 -0.0281  2.0173
32110TIP3    H297213   1.278   8.453   6.180 -1.0803  2.6957  1.8137
32111TIP3   OH297214   7.673   7.823   9.570  0.0976  0.1873  0.3214
32111TIP3    H197215   7.694   7.733   9.543  0.3226  0.4484 -0.3932
32111TIP3    H297216   7.688   7.875   9.491 -3.4435  0.3968 -0.3437
32112TIP3   OH297217   6.795   8.210   2.676  0.0868 -0.1683 -0.1263
32112TIP3    H197218   6.711   8.176   2.646  0.5372 -0.4730 -1.0878
32112TIP3    H297219   6.860   8.166   2.621  0.8121  0.7608 -0.0416
32113TIP3   OH297220   0.990   6.076   6.170  0.0342 -0.3437  0.4093
32113TIP3    H197221   0.914   6.117   6.129 -0.2379 -0.2271  1.0176
32113TIP3    H297222   1.017   6.008   6.108 -0.6878 -0.5169  0.2797
32114TIP3   OH297223   2.334  10.447   4.669 -0.4001 -0.7042  0.0840
32114TIP3    H197224   2.425  10.476   4.681 -0.4048 -0.6717  0.0370
32114TIP3    H297225   2.309  10.481   4.583 -0.4307 -0.7805  0.0624
32115TIP3   OH297226   1.854   0.960   5.899  0.1490 -0.3074  0.1290
32115TIP3    H197227   1.943   0.971   5.933  0.5115  0.4781 -1.0406
32115TIP3    H297228   1.866   0.926   5.811 -0.8072 -3.5034  1.0994
32116TIP3   OH297229   5.866   6.513   3.523 -0.0282 -0.5633 -0.1211
32116TIP3    H197230   5.958   6.506   3.545 -0.3337 -2.1749  0.7564
32116TIP3    H297231   5.819   6.485   3.602 -1.2331 -1.2270 -1.0293
32117TIP3   OH297232   1.714   2.031   5.742  0.2338  0.1172 -0.1558
32117TIP3    H197233   1.736   2.122   5.762  2.5531 -0.3107 -0.3775
32117TIP3    H297234   1.684   1.994   5.825 -2.6436  1.5090 -0.4762
32118TIP3   OH297235   7.315   8.912   8.623 -0.0053  0.2719  0.6150
32118TIP3    H197236   7.317   8.993   8.572 -2.0773 -0.8979 -1.5056
32118TIP3    H297237   7.374   8.853   8.576 -1.3029 -0.5694  0.0131
32119TIP3   OH297238   0.328   8.075   0.077  0.4801  0.2128 -0.9861
32119TIP3    H197239   0.379   8.074   0.158 -1.3427  1.0325  0.2340
32119TIP3    H297240   0.389   8.109   0.011  1.7417  0.4119  0.2266
32120TIP3   OH297241   3.793   9.147   3.633  0.2772 -0.0916  0.0067
32120TIP3    H197242   3.866   9.086   3.647  0.4661  0.4597  1.5957
32120TIP3    H297243   3.797   9.167   3.540  1.1014 -1.3819 -0.2664
32121TIP3   OH297244   5.542   0.096   4.395  0.4174 -0.2198  0.5191
32121TIP3    H197245   5.622   0.120   4.348 -0.2682  1.4734  0.1370
32121TIP3    H297246   5.546   0.145   4.477 -0.0001 -0.4877  0.7033
32122TIP3   OH297247   8.678   4.958   7.973  0.5286  0.3979  0.8954
32122TIP3    H197248   8.597   4.958   7.923  0.1164  0.9463  1.5386
32122TIP3    H297249   8.688   5.049   8.002  1.5706  0.4158  0.5091
32123TIP3   OH297250   4.426   4.976   1.669  0.1519  0.1161 -0.1207
32123TIP3    H197251   4.470   4.976   1.754 -0.9092  2.0939  0.4710
32123TIP3    H297252   4.441   5.063   1.633 -0.7987 -0.1486 -1.2365
32124TIP3   OH297253   4.082   3.829   2.841 -0.5306  0.2970 -0.2753
32124TIP3    H197254   4.140   3.836   2.918  1.2307 -0.3747 -1.4664
32124TIP3    H297255   4.017   3.763   2.867  0.4444 -0.4293  0.4223
32125TIP3   OH297256   5.097   5.121   7.541 -0.0228 -0.1311  0.5246
32125TIP3    H197257   5.106   5.033   7.503 -1.2508 -0.2848  0.5540
32125TIP3    H297258   5.032   5.110   7.610  0.3998  0.6527  1.0631
32126TIP3   OH297259   4.439   7.401   2.170 -0.5064  0.5310  0.8240
32126TIP3    H197260   4.474   7.339   2.105  1.1510  1.0869  1.1362
32126TIP3    H297261   4.400   7.471   2.117  0.1159  0.5817  0.4105
32127TIP3   OH297262   3.946   1.404   9.360  0.1954  0.4845  0.3187
32127TIP3    H197263   3.865   1.423   9.407 -0.1965  0.9052 -0.4991
32127TIP3    H297264   3.921   1.339   9.294  0.7191 -0.0416  0.6244
32128TIP3   OH297265   2.124  10.424   5.803  0.1016  0.1766  0.2686
32128TIP3    H197266   2.088  10.370   5.733 -0.9505 -0.2341  1.0974
32128TIP3    H297267   2.091  10.383   5.883 -1.0449  2.2550  0.9184
32129TIP3   OH297268   7.010   8.803   3.146  0.5263 -0.2140 -0.3181
32129TIP3    H197269   6.963   8.749   3.210  2.2849 -0.3961  0.8747
32129TIP3    H297270   6.941   8.850   3.099 -0.9737 -2.2472 -0.2756
32130TIP3   OH297271   7.086   3.257   4.235  0.4683 -0.2128  0.4604
32130TIP3    H197272   7.127   3.176   4.206  2.0075  0.1106  1.5824
32130TIP3    H297273   7.123   3.273   4.322 -2.3189 -0.0276  1.7101
32131TIP3   OH297274   7.834   0.433   2.423  0.1657  0.5080 -0.3159
32131TIP3    H197275   7.917   0.406   2.383  0.5671  0.5589  0.4633
32131TIP3    H297276   7.769   0.417   2.355  1.0768  2.5322 -1.7597
32132TIP3   OH297277   8.635   2.007  10.491 -0.1452  0.0767  0.5922
32132TIP3    H197278   8.559   2.053  10.528 -0.8442 -0.2867 -0.3415
32132TIP3    H297279   8.682   2.074  10.442 -1.3526 -0.2148 -1.0572
32133TIP3   OH297280   4.219   7.204   2.815 -0.0692 -0.4537  0.0159
32133TIP3    H197281   4.269   7.193   2.896 -2.3335 -0.9633  1.4164
32133TIP3    H297282   4.271   7.267   2.764  1.8980 -0.8475  1.4028
32134TIP3   OH297283   4.480  10.527   2.280  0.0542 -0.0162 -0.3516
32134TIP3    H197284   4.524  10.460   2.332  1.0446  0.7526 -0.1611
32134TIP3    H297285   4.552  10.575   2.237 -0.5439  1.6515  0.4162
32135TIP3   OH297286   0.682   2.859   8.056  0.3924 -0.4916  0.1300
32135TIP3    H197287   0.602   2.877   8.006  0.0096 -1.0931  0.5235
32135TIP3    H297288   0.682   2.765   8.070  1.5937 -0.6261 -0.5712
32136TIP3   OH297289   7.629   1.082   1.979  0.3360  0.2719  0.0365
32136TIP3    H197290   7.543   1.110   2.012  0.8070  0.3970  1.2155
32136TIP3    H297291   7.687   1.154   2.003  0.5405  0.8354 -2.0042
32137TIP3   OH297292   4.397   0.590   7.237  0.5343 -0.4272 -0.1484
32137TIP3    H197293   4.482   0.614   7.199  0.6819 -0.8443 -0.0954
32137TIP3    H297294   4.372   0.665   7.290  0.2849  0.2058 -1.1348
32138TIP3   OH297295   0.578   5.901  10.454 -0.0103 -0.2024  0.2291
32138TIP3    H197296   0.665   5.896  10.493  0.1135  0.5763  0.0775
32138TIP3    H297297   0.519   5.918  10.527  0.2729  1.6961  0.0763
32139TIP3   OH297298  10.179   5.048   8.529  0.8944 -0.2316  0.2581
32139TIP3    H197299  10.275   5.050   8.528  0.8891  0.1787 -0.2691
32139TIP3    H297300  10.154   5.136   8.560  0.6922  0.1143 -0.8314
32140TIP3   OH297301   4.076   6.266   7.642 -0.2170 -0.9265 -0.1655
32140TIP3    H197302   4.135   6.205   7.597  1.3821 -0.6097  1.3704
32140TIP3    H297303   4.114   6.352   7.626 -0.2497 -0.7097  0.8108
32141TIP3   OH297304   2.428   1.463   6.966  0.1902 -0.1798  0.2085
32141TIP3    H197305   2.340   1.430   6.984  0.4355 -1.2084 -0.3997
32141TIP3    H297306   2.444   1.442   6.874  0.6499  1.0029 -0.0036
32142TIP3   OH297307   3.356   7.642   3.164 -0.3374  0.5658 -0.4079
32142TIP3    H197308   3.283   7.704   3.158 -0.3370  0.7269  0.9241
32142TIP3    H297309   3.415   7.680   3.229  1.1659  0.6382 -1.7539
32143TIP3   OH297310   9.317   0.364   9.323  0.1483  0.0214  0.4161
32143TIP3    H197311   9.296   0.276   9.356 -0.2688  0.3324  0.9934
32143TIP3    H297312   9.240   0.416   9.344  0.2368  0.4399 -0.2723
32144TIP3   OH297313   4.677   1.403   7.342 -0.2535  0.0654 -0.0119
32144TIP3    H197314   4.768   1.379   7.324 -0.5406  0.0681 -1.5974
32144TIP3    H297315   4.663   1.378   7.433  0.8225 -1.5185 -0.2552
32145TIP3   OH297316   3.855   8.423  10.694 -0.6132 -0.2729 -0.2272
32145TIP3    H197317   3.787   8.381  10.640 -0.6014 -1.0886  0.3743
32145TIP3    H297318   3.809   8.447  10.774 -0.4207  0.1059 -0.2296
32146TIP3   OH297319   6.742   5.008   6.966  0.0650 -0.1343 -0.4539
32146TIP3    H197320   6.674   4.948   6.933 -0.5989 -0.3322  1.1948
32146TIP3    H297321   6.694   5.086   6.993  0.4984 -0.2253  0.6039
32147TIP3   OH297322   8.434   5.044   5.779  0.6219  0.0453  0.9740
32147TIP3    H197323   8.495   4.986   5.733  0.6201  1.0332 -0.3187
32147TIP3    H297324   8.489   5.091   5.843  0.7654 -0.7778  1.4712
32148TIP3   OH297325   3.350   4.521   8.881  0.3068 -0.0801 -0.2716
32148TIP3    H197326   3.287   4.463   8.837  1.2874 -1.7497  0.4093
32148TIP3    H297327   3.433   4.474   8.874  0.5432 -0.4117  3.2151
32149TIP3   OH297328   3.890   0.490   7.939 -0.0331 -0.1133  0.0866
32149TIP3    H197329   3.981   0.462   7.930 -0.4644 -0.9035 -2.5238
32149TIP3    H297330   3.855   0.434   8.009  1.2553 -0.3552  0.5738
32150TIP3   OH297331   6.633   9.237   8.439 -0.3237 -0.5803 -0.3075
32150TIP3    H197332   6.539   9.223   8.425 -0.2688 -0.0988 -1.2472
32150TIP3    H297333   6.651   9.323   8.401  0.3987 -0.4244  0.3614
32151TIP3   OH297334   2.792   0.497   3.437  0.3947  0.1340 -0.2106
32151TIP3    H197335   2.751   0.558   3.498 -0.9618  1.7657 -2.6008
32151TIP3    H297336   2.757   0.411   3.463  0.2398  0.6749  1.5383
32152TIP3   OH297337   0.432   0.086   4.352  0.1481 -0.2981 -0.1937
32152TIP3    H197338   0.419   0.048   4.265  1.2165  0.2370 -0.6082
32152TIP3    H297339   0.512   0.045   4.385  0.0436 -0.1092  0.3137
32153TIP3   OH297340   9.538   3.635   1.235 -0.3026 -0.4625 -0.1912
32153TIP3    H197341   9.618   3.634   1.288 -1.4480  0.4703  1.6727
32153TIP3    H297342   9.523   3.544   1.212  2.1358 -0.4909 -1.9769
32154TIP3   OH297343   5.376   0.039   2.958 -0.0070 -0.0566 -0.0393
32154TIP3    H197344   5.300   0.037   3.016 -1.0100  2.8754 -1.0739
32154TIP3    H297345   5.429   0.111   2.992  0.3064  0.5011 -1.6341
32155TIP3   OH297346   4.974   2.703  10.028 -0.0908 -0.4715 -0.5492
32155TIP3    H197347   4.978   2.628   9.970  0.1820 -0.8537 -0.0462
32155TIP3    H297348   5.061   2.709  10.067  0.0883  0.4914 -1.0560
32156TIP3   OH297349   1.949   2.760   5.350 -0.1672  0.0216 -0.7526
32156TIP3    H197350   2.043   2.777   5.341  0.2385 -1.9205 -0.5918
32156TIP3    H297351   1.921   2.731   5.264 -0.4255 -0.2589 -0.5766
32157TIP3   OH297352   0.865  10.784   7.128 -0.1017  0.1328 -0.1095
32157TIP3    H197353   0.935  10.836   7.088  1.1988 -1.0622  0.5364
32157TIP3    H297354   0.842  10.719   7.062 -0.4807  0.4029 -0.2472
32158TIP3   OH297355   3.557  10.589   8.920  0.1243  0.0012 -0.9799
32158TIP3    H197356   3.629  10.634   8.966 -0.2490  0.4088 -0.7914
32158TIP3    H297357   3.491  10.576   8.988  0.2309 -0.8451 -1.0312
32159TIP3   OH297358   7.730  10.863   2.890 -0.1340  0.0654 -0.7685
32159TIP3    H197359   7.693  10.813   2.962 -2.9116  2.1819 -0.5269
32159TIP3    H297360   7.813  10.896   2.923 -0.7467 -0.0644  1.0024
32160TIP3   OH297361   4.935  10.426   7.408 -0.1156 -0.4502  0.4694
32160TIP3    H197362   5.017  10.405   7.364 -0.7565 -1.4423 -0.2994
32160TIP3    H297363   4.867  10.402   7.345 -1.0198 -0.5437  1.4476
32161TIP3   OH297364   6.860   4.979   0.468 -0.6481  0.1373 -0.1268
32161TIP3    H197365   6.897   5.063   0.498 -0.2631 -0.0261 -0.1359
32161TIP3    H297366   6.920   4.950   0.400 -1.1281  0.1557 -0.5609
32162TIP3   OH297367   0.416   3.613   9.529 -0.2109  0.2106  0.4076
32162TIP3    H197368   0.349   3.548   9.509 -0.0524  0.1338  0.1206
32162TIP3    H297369   0.463   3.577   9.604  2.1948 -1.7900 -1.8326
32163TIP3   OH297370  10.713   4.802   0.140 -0.2785 -0.2251 -1.1068
32163TIP3    H197371  10.667   4.770   0.217 -0.0305  1.6789 -0.0916
32163TIP3    H297372  10.797   4.755   0.141  0.1427  0.4840  0.4063
32164TIP3   OH297373   4.628   6.387   6.656 -0.6113  0.9455 -0.3421
32164TIP3    H197374   4.714   6.393   6.696 -0.4432  1.7400 -0.7897
32164TIP3    H297375   4.581   6.322   6.708  0.9608 -1.1625 -1.4260
32165TIP3   OH297376  10.598   3.552  10.641  0.5628  0.2121  0.2157
32165TIP3    H197377  10.582   3.588  10.729  0.2141 -1.6778  0.9700
32165TIP3    H297378  10.683   3.509  10.648  1.6520  2.0095 -1.0829
32166TIP3   OH297379   8.879   0.325  10.083  0.5160  0.5099 -0.2008
32166TIP3    H197380   8.877   0.398  10.145  2.2773 -0.5337  1.1814
32166TIP3    H297381   8.972   0.306  10.072  0.1582 -0.5022 -1.8004
32167TIP3   OH297382   0.426   6.141   0.420  0.0432  0.2972 -0.0575
32167TIP3    H197383   0.378   6.101   0.492 -1.0414 -0.8743 -1.3747
32167TIP3    H297384   0.494   6.194   0.463 -0.4555 -0.4846  1.7924
32168TIP3   OH297385   9.318   4.566   2.116  0.4528 -0.3077 -0.3908
32168TIP3    H197386   9.290   4.652   2.147 -1.1944 -1.5492  1.8263
32168TIP3    H297387   9.343   4.581   2.024  1.0828  2.6585  0.1593
32169TIP3   OH297388   6.281   7.299   6.367 -0.2888 -0.2216 -0.0167
32169TIP3    H197389   6.193   7.329   6.347 -0.5220  0.0838  1.3820
32169TIP3    H297390   6.271   7.206   6.388 -0.4200 -0.0135  0.8960
32170TIP3   OH297391   6.614   1.434   1.769  0.4404 -0.2006 -0.1731
32170TIP3    H197392   6.636   1.526   1.752  1.5096 -0.4817 -0.3627
32170TIP3    H297393   6.680   1.405   1.832  0.0347 -0.8097 -0.0259
32171TIP3   OH297394   5.443   1.476  10.741 -0.2481  0.1603  0.1937
32171TIP3    H197395   5.381   1.547  10.723 -0.2252 -0.3573 -2.3578
32171TIP3    H297396   5.403   1.399  10.702  1.5489 -0.3721 -0.7394
32172TIP3   OH297397   4.290   7.906   1.999 -0.0620 -0.2418 -0.1030
32172TIP3    H197398   4.226   7.976   2.007 -0.3517 -0.4668 -0.4332
32172TIP3    H297399   4.359   7.943   1.943 -0.7260 -0.5760 -1.1632
32173TIP3   OH297400   4.946   2.869   5.984 -0.0703  0.2452 -0.3291
32173TIP3    H197401   4.853   2.880   6.004 -0.3718  0.1305 -1.5655
32173TIP3    H297402   4.991   2.884   6.067 -1.2474 -0.5406  0.4829
32174TIP3   OH297403   1.265   5.391   9.298  0.1717  0.3030 -0.4389
32174TIP3    H197404   1.190   5.417   9.244  0.6822  0.4265 -1.1014
32174TIP3    H297405   1.318   5.471   9.305  0.2329  0.2229  0.0461
32175TIP3   OH297406   6.741   8.066   6.693  0.3168 -0.0506 -0.2009
32175TIP3    H197407   6.769   8.016   6.769 -2.1428  0.8052  1.3878
32175TIP3    H297408   6.692   8.003   6.639  1.3241 -0.4529 -0.6645
32176TIP3   OH297409   1.769   3.710   3.033 -0.4528  0.0994  0.5990
32176TIP3    H197410   1.767   3.615   3.043 -0.1065 -0.0734 -0.7489
32176TIP3    H297411   1.792   3.744   3.120  0.4565 -1.0988  0.8435
32177TIP3   OH297412  10.703   2.038   6.538 -0.2046 -0.5136 -0.0320
32177TIP3    H197413  10.618   2.051   6.497  0.2854 -0.8433 -1.2189
32177TIP3    H297414  10.742   2.125   6.542  1.1189 -0.7911 -3.5104
32178TIP3   OH297415   2.602   2.892   4.147 -0.0537  0.6302 -0.6168
32178TIP3    H197416   2.533   2.946   4.107  0.5408  1.8056 -0.0956
32178TIP3    H297417   2.680   2.910   4.095  0.2179  0.5092 -0.2526
32179TIP3   OH297418  10.398   7.146   9.502 -0.2945  0.5608 -0.3361
32179TIP3    H197419  10.328   7.140   9.438 -0.1656  0.6528 -0.4857
32179TIP3    H297420  10.413   7.240   9.513  0.1026  0.5392 -0.6371
32180TIP3   OH297421   7.268   9.692   0.022  0.0520 -0.5075 -0.1751
32180TIP3    H197422   7.269   9.773  -0.029  0.8257  0.7522  1.6848
32180TIP3    H297423   7.181   9.655   0.008 -0.7901  1.3447 -0.0769
32181TIP3   OH297424   0.726   9.997   6.015 -0.0933 -0.0532  0.4314
32181TIP3    H197425   0.699  10.089   6.024 -0.0806  0.1684 -1.4629
32181TIP3    H297426   0.690   9.969   5.931  0.5548 -1.5710  0.6231
32182TIP3   OH297427  10.397   1.955   8.642  0.0115  0.0535  0.0915
32182TIP3    H197428  10.318   1.906   8.617  1.7573 -1.6958 -2.5409
32182TIP3    H297429  10.409   1.935   8.735 -1.2758 -1.6917 -0.0580
32183TIP3   OH297430   3.615   0.644   2.688 -0.1932  0.1605  0.1225
32183TIP3    H197431   3.610   0.592   2.768 -3.2315 -0.5942 -0.4488
32183TIP3    H297432   3.600   0.581   2.617  2.3186  0.8304 -1.1503
32184TIP3   OH297433  10.402   2.006  10.568  0.3759 -0.4607  0.0530
32184TIP3    H197434  10.464   1.938  10.539 -1.5278 -2.0448 -0.5198
32184TIP3    H297435  10.332   2.004  10.502 -0.4820  1.0127  0.8727
32185TIP3   OH297436   5.410   3.585   4.774 -0.4731 -0.3323  0.3949
32185TIP3    H197437   5.447   3.670   4.750  0.2423 -0.2197  1.8453
32185TIP3    H297438   5.473   3.546   4.833 -0.2849 -2.3589 -1.0245
32186TIP3   OH297439   0.060   3.753  10.902  0.2511  0.2997 -0.4933
32186TIP3    H197440   0.111   3.788  10.974  1.4163  1.2291 -1.7116
32186TIP3    H297441   0.106   3.783  10.823 -1.9975  0.9159 -1.6556
32187TIP3   OH297442   0.973   9.246   1.499  0.3327  0.0522  0.1394
32187TIP3    H197443   1.022   9.322   1.466  1.6287  0.1457  2.1523
32187TIP3    H297444   0.886   9.281   1.518  1.7164  2.0158  4.0204
32188TIP3   OH297445   9.842  10.808   7.769 -0.6799  0.2983  0.5584
32188TIP3    H197446   9.851  10.750   7.845  0.8902 -0.1576  0.0705
32188TIP3    H297447   9.835  10.896   7.806  1.1524  0.2011  1.2613
32189TIP3   OH297448   8.995   1.453   2.530  0.1576  0.0520 -0.1334
32189TIP3    H197449   9.069   1.470   2.589  0.3911 -2.3559  0.4072
32189TIP3    H297450   8.918   1.454   2.587 -0.1203  1.4955 -0.5072
32190TIP3   OH297451   9.542   9.326   6.159 -0.9460  0.1560 -0.3201
32190TIP3    H197452   9.470   9.331   6.095 -0.9471  2.8486 -0.2287
32190TIP3    H297453   9.572   9.416   6.169  0.5403 -0.4819  1.8548
32191TIP3   OH297454   5.845   0.183   1.364 -0.5055  0.7402  0.0740
32191TIP3    H197455   5.916   0.209   1.423  0.2877  0.8079 -0.8858
32191TIP3    H297456   5.777   0.149   1.422  0.7114 -0.2750  0.9725
32192TIP3   OH297457   9.437   0.132   2.606  0.1584  0.1175 -0.1769
32192TIP3    H197458   9.391   0.119   2.689  1.7646  1.6389  1.0258
32192TIP3    H297459   9.461   0.225   2.607  3.5506 -0.6264 -0.4946
32193TIP3   OH297460   4.800   8.617   8.830  0.7949 -0.8733 -0.1371
32193TIP3    H197461   4.778   8.636   8.921  2.0069  0.4091 -0.0863
32193TIP3    H297462   4.851   8.693   8.801 -1.7297  0.0356 -2.6973
32194TIP3   OH297463   1.428   0.169   8.845 -0.2524 -0.3797 -0.0029
32194TIP3    H197464   1.398   0.253   8.810 -1.8652 -0.0700  1.9105
32194TIP3    H297465   1.347   0.120   8.863  0.4625 -0.8841  2.2335
32195TIP3   OH297466   3.367   0.476   9.398 -0.2138  0.0887 -0.3535
32195TIP3    H197467   3.359   0.442   9.309 -0.4482 -1.0743  0.1018
32195TIP3    H297468   3.395   0.401   9.450  0.7102  0.9423  0.4263
32196TIP3   OH297469   8.813   2.752   8.532  0.3675  0.4059  0.0978
32196TIP3    H197470   8.898   2.733   8.491  1.4729 -1.8139  3.0599
32196TIP3    H297471   8.749   2.732   8.464  2.1492 -0.2140 -1.4837
32197TIP3   OH297472   8.629   6.252   2.078 -0.1176  0.0810 -0.2859
32197TIP3    H197473   8.676   6.230   1.997  0.7656  1.0494 -0.0676
32197TIP3    H297474   8.698   6.258   2.144 -0.8227 -0.6225  0.5360
32198TIP3   OH297475   2.542   7.695   5.797  0.0496  0.3942  0.2275
32198TIP3    H197476   2.497   7.705   5.880  0.2767  2.0965  0.1665
32198TIP3    H297477   2.605   7.624   5.812  0.5586  1.1349  1.7256
32199TIP3   OH297478   1.228   4.323   0.453  0.2092  0.0162  0.1213
32199TIP3    H197479   1.251   4.409   0.489 -0.1820  0.4511 -0.6318
32199TIP3    H297480   1.312   4.280   0.438  0.5507  1.1584 -1.5789
32200TIP3   OH297481   7.285   1.257   4.036 -0.6600  0.2036  0.1848
32200TIP3    H197482   7.266   1.300   4.119 -0.7384 -0.5568  0.5735
32200TIP3    H297483   7.258   1.166   4.049  0.6306 -0.2642 -0.1796
32201TIP3   OH297484   9.657   3.653   3.225 -0.0298  0.3711  0.0078
32201TIP3    H197485   9.748   3.657   3.256  0.2332  0.7734 -0.8060
32201TIP3    H297486   9.612   3.722   3.275 -0.2731 -0.8643  1.5840
32202TIP3   OH297487   8.905   6.227   5.661  0.1843 -0.3214  0.3235
32202TIP3    H197488   8.918   6.140   5.699  0.5481 -0.4366 -0.0613
32202TIP3    H297489   8.913   6.214   5.567  0.8692  0.2319  0.2939
32203TIP3   OH297490   9.954  10.884   6.838 -0.8025 -0.2155 -0.0749
32203TIP3    H197491   9.898  10.850   6.908  0.4331  2.1506  2.2677
32203TIP3    H297492  10.040  10.845   6.855 -0.7116 -0.3988 -0.9244
32204TIP3   OH297493   4.251  10.014  10.563  0.8913 -0.0445  0.3727
32204TIP3    H197494   4.300   9.938  10.591  0.5621 -0.2943  0.2828
32204TIP3    H297495   4.168  10.008  10.611  1.5376  1.2181  1.7377
32205TIP3   OH297496   4.010  10.425   5.126 -0.3499  0.1983 -0.3908
32205TIP3    H197497   4.083  10.387   5.175 -1.7573 -1.9679  0.1545
32205TIP3    H297498   3.993  10.364   5.055 -2.1005  0.2571 -0.0650
32206TIP3   OH297499   9.476   4.551   7.366 -0.1800  0.3015  0.1454
32206TIP3    H197500   9.524   4.516   7.441 -0.3270 -1.4393 -0.5241
32206TIP3    H297501   9.402   4.597   7.404 -0.7662 -1.3234  1.0956
32207TIP3   OH297502   3.834   6.242   1.365 -0.1756 -0.1085  0.3167
32207TIP3    H197503   3.763   6.208   1.419  1.2875 -0.3939  2.1532
32207TIP3    H297504   3.913   6.201   1.400  1.2531  2.4344  0.3124
32208TIP3   OH297505   9.959   0.257   0.182 -0.1846 -0.5507 -0.0608
32208TIP3    H197506   9.997   0.302   0.106 -1.3739 -0.3568 -0.5681
32208TIP3    H297507   9.871   0.232   0.153 -1.2903  0.9474  1.7574
32209TIP3   OH297508   3.841   5.564   3.963  0.2803  0.3534  0.2392
32209TIP3    H197509   3.795   5.583   4.044 -1.3114  1.9096 -0.9533
32209TIP3    H297510   3.916   5.624   3.963 -0.8144  1.7952 -0.2763
32210TIP3   OH297511   1.786   3.345   7.966 -0.5990 -0.0402  0.2546
32210TIP3    H197512   1.818   3.389   7.888 -1.7800  1.2938  0.4723
32210TIP3    H297513   1.814   3.254   7.957 -0.0814  0.2633 -1.3424
32211TIP3   OH297514   3.399   6.655   1.040  0.1124 -0.1483  0.0021
32211TIP3    H197515   3.437   6.712   1.107  0.3968  0.5060 -0.6916
32211TIP3    H297516   3.443   6.571   1.052 -0.3149 -0.2356  1.0422
32212TIP3   OH297517   1.175   4.537   7.468 -0.3389  0.4016 -0.5227
32212TIP3    H197518   1.135   4.479   7.532 -0.0754  0.8152  0.0259
32212TIP3    H297519   1.264   4.503   7.456  0.8099  2.1967  1.8644
32213TIP3   OH297520   5.720  10.404   5.188 -0.2857 -0.1439 -0.6839
32213TIP3    H197521   5.689  10.470   5.250  0.2283 -2.0474  1.7566
32213TIP3    H297522   5.714  10.447   5.102 -2.7819  1.9974  0.4177
32214TIP3   OH297523   9.114   4.734   6.128 -0.0872  0.3538  0.0941
32214TIP3    H197524   9.044   4.705   6.188 -0.4982  2.3225  0.6296
32214TIP3    H297525   9.148   4.814   6.168  0.6058  0.9359 -1.5996
32215TIP3   OH297526   6.713   8.401   0.194 -0.0256  0.0724 -0.1120
32215TIP3    H197527   6.755   8.487   0.194  0.6618 -0.2544 -0.5721
32215TIP3    H297528   6.781   8.342   0.226 -0.0844 -0.4910 -1.0064
32216TIP3   OH297529   9.568   4.466   1.557  0.2751  0.5296 -0.0291
32216TIP3    H197530   9.539   4.377   1.540  1.4465  0.1375 -0.0884
32216TIP3    H297531   9.586   4.469   1.651 -1.0930  1.1361  0.2447
32217TIP3   OH297532   8.034   8.922   8.255  0.4092  0.1917 -0.0221
32217TIP3    H197533   8.073   8.956   8.336  0.6185  2.5283 -1.0038
32217TIP3    H297534   8.110   8.903   8.199  0.2501  1.4463 -0.6996
32218TIP3   OH297535   3.682   1.553   6.091 -0.7704  0.6875 -0.0535
32218TIP3    H197536   3.606   1.579   6.142 -0.4902 -0.6968  1.1487
32218TIP3    H297537   3.694   1.460   6.111  1.5344  0.9763  0.2092
32219TIP3   OH297538   6.982   4.835   7.638  0.1725  0.2113  0.1926
32219TIP3    H197539   6.947   4.920   7.663  0.8443  0.3058  0.8622
32219TIP3    H297540   6.970   4.830   7.543 -2.3577 -0.1205  0.4674
32220TIP3   OH297541   5.067   2.958   1.609  0.8046 -0.4058  0.0935
32220TIP3    H197542   5.031   2.875   1.639  1.4599 -2.0466 -3.2287
32220TIP3    H297543   4.998   2.996   1.555  1.3116  0.1535 -0.1727
32221TIP3   OH297544  10.880   4.989   1.074 -0.1010 -0.0881  0.9398
32221TIP3    H197545  10.962   5.014   1.117  0.6352 -0.7772 -0.0035
32221TIP3    H297546  10.814   5.045   1.114  0.4996 -0.7891  3.0436
32222TIP3   OH297547   3.191   6.117   9.909  0.5382 -0.1022  0.0008
32222TIP3    H197548   3.146   6.198   9.932  0.7235  0.3153 -1.0394
32222TIP3    H297549   3.122   6.058   9.880  0.5562  0.2991 -0.9175
32223TIP3   OH297550   4.702   1.312   4.215 -0.4577 -0.5259  0.1247
32223TIP3    H197551   4.790   1.274   4.204 -0.2011 -0.4942  1.8070
32223TIP3    H297552   4.647   1.238   4.240  0.4715  0.1996  5.6358
32224TIP3   OH297553   0.158   0.935   1.286 -0.3973 -0.3542 -0.3415
32224TIP3    H197554   0.183   0.925   1.194 -2.0518 -1.7859 -0.6824
32224TIP3    H297555   0.096   0.863   1.302  2.1860 -2.1987  2.7525
32225TIP3   OH297556   4.094  10.691   3.073  0.1128 -0.0552 -0.3261
32225TIP3    H197557   4.131  10.779   3.077 -0.2101  0.0584  0.1669
32225TIP3    H297558   4.149  10.645   3.009 -0.1668  0.7093 -1.1332
32226TIP3   OH297559   1.466   9.096   2.900  0.2541 -0.0503 -0.0302
32226TIP3    H197560   1.496   9.051   2.979  0.1234 -2.3374 -1.1999
32226TIP3    H297561   1.378   9.062   2.885 -0.3348  1.5133 -0.3645
32227TIP3   OH297562  10.628   1.909   8.014  0.0851 -0.0787 -0.1425
32227TIP3    H197563  10.707   1.859   8.036  1.0954  1.2077 -0.7262
32227TIP3    H297564  10.592   1.936   8.099 -0.5398 -1.8207  0.1910
32228TIP3   OH297565   6.947   9.560   7.511 -0.0403 -0.3746  0.0969
32228TIP3    H197566   7.015   9.504   7.474 -0.9646 -0.0041 -2.3494
32228TIP3    H297567   6.995   9.632   7.554  1.1063 -0.7980 -0.4472
32229TIP3   OH297568   7.556   0.077   0.140  0.2330 -0.2810 -0.5922
32229TIP3    H197569   7.589   0.036   0.220  0.3668  1.5437  0.3503
32229TIP3    H297570   7.461   0.069   0.147  0.2635 -0.6844 -0.5822
32230TIP3   OH297571   2.085   5.257   0.690  0.4204 -0.2248 -0.1264
32230TIP3    H197572   2.140   5.185   0.658  0.2422 -0.5053  0.1831
32230TIP3    H297573   2.075   5.315   0.615 -0.0554 -0.9095 -0.6060
32231TIP3   OH297574   6.944   7.929   2.262 -0.2328  0.3088 -0.0279
32231TIP3    H197575   7.017   7.892   2.214 -2.0071 -0.6255 -2.2159
32231TIP3    H297576   6.945   8.022   2.241  1.9880  0.9500  2.4042
32232TIP3   OH297577   3.598   5.454   7.735 -0.7870  0.8417  0.7998
32232TIP3    H197578   3.564   5.520   7.796  0.4030  1.0157  1.2811
32232TIP3    H297579   3.614   5.377   7.788  0.0771  0.9330  0.6729
32233TIP3   OH297580   6.900   8.569   1.985 -0.1336  0.3605 -0.3006
32233TIP3    H197581   6.953   8.527   1.918  0.0752 -1.2661  0.8239
32233TIP3    H297582   6.950   8.558   2.066 -1.8401 -0.6322  0.6773
32234TIP3   OH297583   4.929   8.458   7.934 -0.6075 -0.2495  0.0448
32234TIP3    H197584   4.942   8.406   7.854 -2.0733 -1.5671  0.6126
32234TIP3    H297585   5.017   8.479   7.964 -0.0127 -0.8796 -1.1934
32235TIP3   OH297586   6.531   9.000   4.192  0.3685  0.5170  0.4340
32235TIP3    H197587   6.546   9.095   4.197 -2.5600  1.1761 -1.0999
32235TIP3    H297588   6.486   8.979   4.274  0.1907  0.6282  0.3645
32236TIP3   OH297589   1.677   5.153   7.655 -0.4134 -0.0062 -0.6048
32236TIP3    H197590   1.667   5.248   7.666  0.3602 -0.0158  0.2722
32236TIP3    H297591   1.732   5.144   7.578  0.4141  0.2971 -0.0574
32237TIP3   OH297592   8.744   3.103   8.867 -0.4283  0.6630  0.1909
32237TIP3    H197593   8.679   3.112   8.796  0.3669  1.2668 -0.4818
32237TIP3    H297594   8.828   3.096   8.821  0.1838  1.8340  1.0912
32238TIP3   OH297595   6.465   7.152   6.991  0.1275 -0.0733  0.0046
32238TIP3    H197596   6.526   7.119   7.057  0.2303 -1.2948 -0.6789
32238TIP3    H297597   6.394   7.190   7.042  0.9023  0.3439  0.8135
32239TIP3   OH297598   8.701   0.739   5.187  0.3323  0.1962  0.2211
32239TIP3    H197599   8.786   0.700   5.165 -0.4719 -0.5790 -1.7318
32239TIP3    H297600   8.667   0.684   5.258  1.7121  0.9192  1.4971
32240TIP3   OH297601   8.571  10.564   9.019  0.1705  0.6470  0.5659
32240TIP3    H197602   8.653  10.607   9.044  0.7744  0.7359 -1.3616
32240TIP3    H297603   8.507  10.598   9.081  1.5289  0.7561  1.9802
32241TIP3   OH297604  10.417   3.574   1.483 -0.3824 -0.1940 -0.1257
32241TIP3    H197605  10.458   3.610   1.404  0.0707 -1.6153 -0.5663
32241TIP3    H297606  10.327   3.554   1.456  0.0735 -1.6863 -0.6352
32242TIP3   OH297607   4.817  10.092   6.993  0.3223  0.4156 -0.0453
32242TIP3    H197608   4.900  10.116   6.953 -0.5018  3.0997 -0.2942
32242TIP3    H297609   4.833  10.099   7.087  1.1235 -1.9488  0.0594
32243TIP3   OH297610   5.294   8.919   6.848  0.5244 -0.2565 -0.3654
32243TIP3    H197611   5.375   8.967   6.864  1.8140 -1.7600 -1.9961
32243TIP3    H297612   5.267   8.944   6.760  0.4437 -1.4410 -0.6894
32244TIP3   OH297613   3.234   5.054   3.199  0.0435 -0.1718 -0.5041
32244TIP3    H197614   3.233   5.127   3.261 -0.5649 -0.0173 -0.6869
32244TIP3    H297615   3.318   5.010   3.214  0.6654  0.8860 -0.7644
32245TIP3   OH297616   4.411   8.968   7.709 -0.1428  0.0935  0.2838
32245TIP3    H197617   4.483   8.914   7.674  1.2097  0.8246  1.8105
32245TIP3    H297618   4.436   9.057   7.686 -1.4288  0.2559 -0.5890
32246TIP3   OH297619   6.333   7.999   7.218  0.2168 -0.1999  0.4077
32246TIP3    H197620   6.360   7.917   7.176  0.0512  0.8504 -1.8850
32246TIP3    H297621   6.245   7.980   7.251  0.2765 -1.0242  0.1390
32247TIP3   OH297622   0.366   9.822  10.833 -0.0597 -0.6283  0.9702
32247TIP3    H197623   0.366   9.909  10.873  0.8208 -0.7410  1.2439
32247TIP3    H297624   0.278   9.788  10.849 -0.7517  0.6014 -0.0253
32248TIP3   OH297625   0.545   5.695   9.527  0.4658 -0.7908  0.1525
32248TIP3    H197626   0.609   5.625   9.542 -1.3073 -2.3904  0.5652
32248TIP3    H297627   0.484   5.658   9.463 -0.3375  0.5292  0.1235
32249TIP3   OH297628   3.192   2.236   1.781  0.7919 -0.4419  0.3450
32249TIP3    H197629   3.120   2.178   1.758 -1.0787  1.2626  1.5401
32249TIP3    H297630   3.230   2.196   1.860  0.0864 -0.5224  0.6560
32250TIP3   OH297631   1.504   9.127   2.400  0.3941  0.6101  0.4303
32250TIP3    H197632   1.544   9.162   2.321 -0.1594  0.6047  0.1387
32250TIP3    H297633   1.576   9.116   2.462  0.7923  0.8401  0.0065
32251TIP3   OH297634   9.762   9.107   2.715  0.2667  0.0396 -0.1304
32251TIP3    H197635   9.780   9.059   2.796  0.6436 -0.8905 -0.7410
32251TIP3    H297636   9.725   9.041   2.656  0.1591  0.6609 -0.7775
32252TIP3   OH297637   0.284   9.082   7.190 -0.0850 -0.3677 -0.3127
32252TIP3    H197638   0.298   8.997   7.148  0.2403 -0.2914 -0.3579
32252TIP3    H297639   0.271   9.143   7.117  1.2864 -0.0863 -0.3415
32253TIP3   OH297640   2.683   9.402   3.514 -0.1396 -0.2383 -0.1675
32253TIP3    H197641   2.644   9.467   3.573 -1.1787  2.1977 -3.2663
32253TIP3    H297642   2.756   9.448   3.473  0.0302 -1.5317 -1.3855
32254TIP3   OH297643   4.635  10.443   3.167  0.0816 -0.7553  0.3573
32254TIP3    H197644   4.617  10.493   3.087 -0.6808 -0.8674  0.4448
32254TIP3    H297645   4.702  10.380   3.141  1.0583  0.2869  0.2441
32255TIP3   OH297646   6.531   4.943   2.241  0.2551 -0.3447  0.2907
32255TIP3    H197647   6.496   4.995   2.314  2.3079  0.5573  0.6995
32255TIP3    H297648   6.575   4.869   2.283 -0.4315 -1.0456 -0.1808
32256TIP3   OH297649   9.497   5.541   7.508  0.2903 -0.1185 -0.2536
32256TIP3    H197650   9.521   5.620   7.459  1.2015  0.2050  0.6953
32256TIP3    H297651   9.404   5.553   7.528  0.1975  0.2869 -0.8806
32257TIP3   OH297652   1.948   8.327   3.628  0.2358  0.8727 -0.3295
32257TIP3    H197653   1.982   8.351   3.542 -0.9255 -0.3596 -1.1788
32257TIP3    H297654   1.946   8.409   3.677 -1.2189  2.0802 -2.2473
32258TIP3   OH297655   2.241   9.129  10.424 -0.2553 -0.7070  0.3690
32258TIP3    H197656   2.182   9.194  10.462  0.3950  1.4490 -2.0491
32258TIP3    H297657   2.284   9.089  10.500 -0.4780  1.8988  1.9985
32259TIP3   OH297658   9.130   1.517   4.804 -0.4407 -0.3775 -0.1656
32259TIP3    H197659   9.041   1.553   4.807 -0.0832  0.5389  1.8072
32259TIP3    H297660   9.122   1.432   4.846 -0.1681  0.3896  1.5310
32260TIP3   OH297661   3.476   4.481   4.371 -0.5244  0.4259 -0.7206
32260TIP3    H197662   3.479   4.577   4.376 -1.0794  0.4772 -1.2556
32260TIP3    H297663   3.387   4.461   4.342 -0.0376 -0.1892 -1.8608
32261TIP3   OH297664   1.095   7.135  10.537 -0.2631  0.1880 -0.1744
32261TIP3    H197665   1.174   7.188  10.550  0.7289 -1.3899  0.4825
32261TIP3    H297666   1.073   7.103  10.625  1.0571 -3.0490 -0.8979
32262TIP3   OH297667   6.909   6.288   5.478 -0.1010 -0.4958  0.0539
32262TIP3    H197668   6.989   6.270   5.429 -0.3415 -0.6911 -0.2794
32262TIP3    H297669   6.841   6.294   5.411 -0.3610 -0.3109  0.3305
32263TIP3   OH297670   7.996   7.594  10.770  0.4850  0.1373 -0.1185
32263TIP3    H197671   8.045   7.658  10.719 -0.2980  0.5491 -0.3711
32263TIP3    H297672   8.061   7.554  10.828  1.1218  0.6255 -0.4891
32264TIP3   OH297673   7.468   1.139   6.901 -0.6740  0.0482  0.1346
32264TIP3    H197674   7.392   1.194   6.920 -0.8746 -0.2696  0.2582
32264TIP3    H297675   7.524   1.149   6.977  0.6440  2.3142 -1.0030
32265TIP3   OH297676   2.923   0.298   4.484  0.2185 -0.0102  0.0105
32265TIP3    H197677   2.965   0.251   4.413 -1.6687 -1.0122 -0.5132
32265TIP3    H297678   2.873   0.231   4.531 -0.4167  1.0244  0.8591
32266TIP3   OH297679   6.841   0.483   1.472  0.3752  0.3695  0.1764
32266TIP3    H197680   6.885   0.537   1.538 -2.8895  1.0704  2.0131
32266TIP3    H297681   6.812   0.405   1.520  0.1219 -0.3314 -1.0687
32267TIP3   OH297682   0.792   3.059   5.720  0.6561  0.1162  0.0069
32267TIP3    H197683   0.859   3.092   5.780  0.7086 -1.1031  0.6468
32267TIP3    H297684   0.731   3.010   5.776 -0.0374  0.0891 -0.7525
32268TIP3   OH297685   1.969   9.066   9.836  0.3407  0.0130 -0.1056
32268TIP3    H197686   2.057   9.103   9.830  0.0631  0.4990 -1.7423
32268TIP3    H297687   1.923   9.124   9.896  0.4635  1.2806 -1.1776
32269TIP3   OH297688   2.599   2.863   3.606  0.4381  0.1534 -0.0829
32269TIP3    H197689   2.671   2.917   3.636  0.8940 -1.0474  1.1099
32269TIP3    H297690   2.531   2.874   3.673 -0.2009  0.7050 -0.8108
32270TIP3   OH297691   0.756   4.516   1.158  0.1776  0.1154  0.5989
32270TIP3    H197692   0.814   4.460   1.209  0.1172 -1.6972 -1.1649
32270TIP3    H297693   0.814   4.568   1.102  0.1955 -1.4053 -0.8746
32271TIP3   OH297694   8.065   2.723   8.589 -0.2121 -0.4228  0.3567
32271TIP3    H197695   7.994   2.694   8.647  0.1214 -0.8952  0.5315
32271TIP3    H297696   8.062   2.819   8.595 -0.4975 -0.4520  0.7803
32272TIP3   OH297697   5.390   7.865   2.295  0.3031 -0.0033  0.0985
32272TIP3    H197698   5.431   7.836   2.213  0.2175  1.0424 -0.3444
32272TIP3    H297699   5.299   7.882   2.271  0.3379  0.5533  0.3386
32273TIP3   OH297700   8.468   4.957   3.442  0.0619  0.4333  0.1277
32273TIP3    H197701   8.528   5.014   3.395  0.5080 -0.4637 -0.4358
32273TIP3    H297702   8.473   4.873   3.396 -0.1900 -0.2132  1.2157
32274TIP3   OH297703   7.449   1.472   0.458  0.2108  0.2830 -0.4485
32274TIP3    H197704   7.514   1.542   0.448  2.2881 -1.4188  0.2349
32274TIP3    H297705   7.486   1.399   0.408 -0.2067 -1.3612  1.5383
32275TIP3   OH297706   2.545   4.878   8.229 -0.1244 -0.4402  0.1935
32275TIP3    H197707   2.582   4.946   8.285  0.2996 -0.2189 -0.3436
32275TIP3    H297708   2.451   4.882   8.244  0.0270 -0.7567  1.2978
32276TIP3   OH297709   0.648   9.072   2.255  0.1391  0.0687 -0.1193
32276TIP3    H197710   0.688   9.131   2.191 -0.5156 -0.8747 -1.4417
32276TIP3    H297711   0.677   8.985   2.230  1.4933 -0.2041  2.1074
32277TIP3   OH297712   0.012   1.102   7.095  0.6030 -0.4886  0.2524
32277TIP3    H197713  -0.076   1.083   7.064  0.6475  0.3527 -0.4430
32277TIP3    H297714   0.005   1.189   7.134  1.0711 -0.5230  0.4192
32278TIP3   OH297715   1.316   3.244   6.036  0.0250 -0.3993 -0.0619
32278TIP3    H197716   1.396   3.296   6.036 -0.2416  0.0193 -0.3939
32278TIP3    H297717   1.340   3.162   6.078  0.1109  0.5372  1.8184
32279TIP3   OH297718   4.414   0.491   4.509 -0.4981  0.2551  0.1003
32279TIP3    H197719   4.409   0.448   4.594 -0.5295 -1.2159 -0.6172
32279TIP3    H297720   4.473   0.565   4.523  1.3394 -1.2550  0.9035
32280TIP3   OH297721   3.499   3.153   5.064  0.0077 -0.6306  0.1335
32280TIP3    H197722   3.537   3.228   5.111  0.3828  0.0219 -1.1649
32280TIP3    H297723   3.418   3.187   5.027 -1.2168 -1.6463  1.7577
32281TIP3   OH297724   3.126  10.850   6.718 -0.3954  0.1391  0.3966
32281TIP3    H197725   3.204  10.849   6.773 -0.5262 -1.3584  0.5997
32281TIP3    H297726   3.087  10.763   6.729 -0.3500 -0.2888 -2.1698
32282TIP3   OH297727   5.112  10.380   6.704 -0.5461 -0.6649  0.1604
32282TIP3    H197728   5.066  10.463   6.715  1.7062  0.4135  2.6196
32282TIP3    H297729   5.131  10.376   6.610  1.8369  3.2475  0.2231
32283TIP3   OH297730   0.844   8.589   2.244 -0.0044  0.3357 -0.4600
32283TIP3    H197731   0.911   8.573   2.311  1.0391  2.1387 -0.9911
32283TIP3    H297732   0.768   8.541   2.274  1.2171 -0.9813  0.6984
32284TIP3   OH297733   5.006   4.066   9.727 -0.2572  1.4156 -0.3699
32284TIP3    H197734   4.994   4.050   9.633  0.9877  2.0183 -0.6511
32284TIP3    H297735   5.052   3.988   9.758 -1.7279  0.6626  0.0116
32285TIP3   OH297736   0.031   7.591   2.263  0.4417 -0.2966  0.2261
32285TIP3    H197737   0.068   7.680   2.266  0.3078 -0.2728  1.3729
32285TIP3    H297738  -0.063   7.604   2.276  0.2537 -0.5197 -0.8167
32286TIP3   OH297739   1.017   8.393   9.529 -0.4956  0.1385 -0.6108
32286TIP3    H197740   1.025   8.473   9.476 -2.2474  1.3868  0.8625
32286TIP3    H297741   1.078   8.406   9.602 -1.5326  0.6685  0.1932
32287TIP3   OH297742   2.325  10.825  10.014 -0.5492  0.2234  0.0753
32287TIP3    H197743   2.386  10.841  10.086  1.6924  0.5857 -1.7838
32287TIP3    H297744   2.285  10.910   9.996  0.9344  0.7832 -0.7913
32288TIP3   OH297745   2.365   0.667   5.823 -0.1603  0.2942 -0.5975
32288TIP3    H197746   2.439   0.616   5.793  0.1287  0.0560  0.4548
32288TIP3    H297747   2.403   0.731   5.884 -0.9238 -0.5856  0.8670
32289TIP3   OH297748   9.126   3.463   4.806  0.1010  0.1545  0.1293
32289TIP3    H197749   9.164   3.523   4.871 -0.1042 -0.1739  0.5502
32289TIP3    H297750   9.036   3.451   4.834 -0.1724  0.5105 -0.5771
32290TIP3   OH297751   2.393   3.208   8.457  0.1868 -0.0715  0.1176
32290TIP3    H197752   2.391   3.213   8.553 -0.8928 -0.8371  0.1476
32290TIP3    H297753   2.333   3.137   8.435  0.3732  0.1342 -1.1382
32291TIP3   OH297754   1.859   1.264   8.078 -0.1875 -0.1280  0.2032
32291TIP3    H197755   1.890   1.199   8.014 -2.2689  0.3075 -1.3275
32291TIP3    H297756   1.908   1.343   8.058 -0.8986  0.0308 -0.9351
32292TIP3   OH297757   2.910   0.308   3.691  0.4604 -0.0900 -1.0864
32292TIP3    H197758   2.868   0.341   3.770  1.8959 -1.5446  0.3769
32292TIP3    H297759   2.985   0.366   3.678 -0.0335  0.4314 -1.6893
32293TIP3   OH297760   3.987   6.057   8.502 -0.1983 -0.0164  0.0603
32293TIP3    H197761   3.979   6.090   8.591 -1.4134 -0.7231  0.2309
32293TIP3    H297762   3.993   6.136   8.447 -0.1738  0.4275  0.6976
32294TIP3   OH297763   1.126   9.310   4.790  0.3872 -0.0038  0.2865
32294TIP3    H197764   1.129   9.367   4.712  1.1728  0.1026  0.3851
32294TIP3    H297765   1.175   9.232   4.765  0.9192  0.1671  0.7780
32295TIP3   OH297766   4.350   9.575   7.804  0.3187  0.2953  0.1684
32295TIP3    H197767   4.324   9.667   7.809  0.5472  0.5031 -1.6800
32295TIP3    H297768   4.437   9.573   7.843  0.6982  1.0719 -0.5832
32296TIP3   OH297769   1.318   1.961   1.596 -0.7715  0.2703  0.5008
32296TIP3    H197770   1.250   2.023   1.623 -0.0109  2.6603 -2.4243
32296TIP3    H297771   1.289   1.930   1.511  0.9670  0.0418 -0.0437
32297TIP3   OH297772   8.212   5.125   5.903 -0.3163  0.4416 -0.0745
32297TIP3    H197773   8.129   5.085   5.929 -0.9802  1.3160 -0.7981
32297TIP3    H297774   8.259   5.055   5.857  0.1290 -0.5894  1.8097
32298TIP3   OH297775   9.248   3.557   8.240 -0.0666 -0.3682  0.0968
32298TIP3    H197776   9.251   3.465   8.215 -0.7953 -1.2795  3.0772
32298TIP3    H297777   9.158   3.584   8.225 -0.2445 -0.6077  0.7278
32299TIP3   OH297778  10.863   6.691   8.455  0.1420  0.4204 -0.0915
32299TIP3    H197779  10.864   6.634   8.379  1.9459 -0.5391  0.5927
32299TIP3    H297780  10.771   6.717   8.464 -0.3284 -0.4943 -1.7871
32300TIP3   OH297781   6.405   9.113   8.399  0.5030  0.2073 -0.4450
32300TIP3    H197782   6.320   9.153   8.379  0.2392 -0.1493 -0.0487
32300TIP3    H297783   6.400   9.090   8.492  1.6783  1.7426  0.0363
32301TIP3   OH297784   9.700   6.037  10.017  0.3082 -0.1641 -0.1871
32301TIP3    H197785   9.619   6.067  10.057  1.1831  3.1694 -0.6190
32301TIP3    H297786   9.756   6.013  10.091 -0.0106  0.5168  0.2864
32302TIP3   OH297787   6.345   1.817   9.443  0.2202 -0.2927 -0.1704
32302TIP3    H197788   6.279   1.772   9.496 -0.2680 -2.0631 -2.1058
32302TIP3    H297789   6.428   1.799   9.487 -0.2478 -0.9915  0.4455
32303TIP3   OH297790   4.236   3.807   1.782 -0.1081 -0.3270 -0.3437
32303TIP3    H197791   4.243   3.881   1.842 -2.5919 -0.3719  0.0759
32303TIP3    H297792   4.177   3.837   1.713 -0.1622 -1.4909 -0.8307
32304TIP3   OH297793   6.596   6.472   8.650  0.1604  0.2392 -0.2145
32304TIP3    H197794   6.690   6.475   8.634  0.2690 -0.3509  0.2865
32304TIP3    H297795   6.557   6.474   8.563  0.7451 -3.1613 -0.6894
32305TIP3   OH297796   1.494   7.849   1.798 -0.4898  0.3538  0.0493
32305TIP3    H197797   1.443   7.910   1.853  0.0977  0.1209  0.8713
32305TIP3    H297798   1.429   7.785   1.769 -0.5927 -0.3078  1.6153
32306TIP3   OH297799   3.144   7.243   1.970  0.4624  0.0593 -0.4182
32306TIP3    H197800   3.232   7.224   1.940  0.9190  0.1406  0.8233
32306TIP3    H297801   3.134   7.194   2.052 -0.2340  0.9217  0.0417
32307TIP3   OH297802   9.714   5.997   8.045  0.2398  0.0726  0.7083
32307TIP3    H197803   9.679   5.945   8.118 -0.5239  1.0955  1.0947
32307TIP3    H297804   9.670   5.961   7.968 -0.3817  0.2256  0.9871
32308TIP3   OH297805   0.639   9.455   3.726 -0.2157  0.1140  0.3671
32308TIP3    H197806   0.544   9.459   3.715 -0.5062 -1.3364  1.9186
32308TIP3    H297807   0.667   9.385   3.667 -0.2093  0.0914  0.3967
32309TIP3   OH297808   1.802   2.111   6.807  0.7515  0.0920 -0.0256
32309TIP3    H197809   1.847   2.133   6.889 -1.5134 -0.2823  1.3892
32309TIP3    H297810   1.731   2.053   6.833 -0.5482  0.6187 -2.1509
32310TIP3   OH297811   3.086   3.594   8.037  0.2050 -0.2308 -0.6436
32310TIP3    H197812   3.108   3.570   7.947  1.5266  0.6200 -0.5717
32310TIP3    H297813   3.077   3.511   8.082  3.7860 -0.7735 -0.6016
32311TIP3   OH297814   9.819   3.367   3.547 -0.1338 -0.0111 -0.6394
32311TIP3    H197815   9.881   3.428   3.590  1.7071 -0.5000 -2.4425
32311TIP3    H297816   9.785   3.315   3.619  2.8156 -0.7847  0.3670
32312TIP3   OH297817  10.045   5.663   2.386  0.2423  0.4587 -0.3386
32312TIP3    H197818   9.967   5.693   2.339  0.2785  2.6843  0.8815
32312TIP3    H297819  10.019   5.663   2.478  1.4648  0.5718  0.0221
32313TIP3   OH297820   3.137   9.256   8.962 -0.0597 -0.4873  0.4968
32313TIP3    H197821   3.161   9.174   8.917  1.2372 -0.3339  0.8701
32313TIP3    H297822   3.155   9.325   8.898 -0.0181 -0.4024  0.6000
32314TIP3   OH297823   5.375   8.478   5.546  0.3806  0.5286 -0.7885
32314TIP3    H197824   5.404   8.456   5.634 -0.1052  1.5951 -0.3448
32314TIP3    H297825   5.435   8.547   5.518  0.8381 -0.1348 -1.4988
32315TIP3   OH297826   7.398   6.090   5.890  0.2143  0.0477  0.1848
32315TIP3    H197827   7.337   6.146   5.939 -1.7146 -1.7556 -0.0305
32315TIP3    H297828   7.456   6.054   5.957  2.2868  3.0898  0.2066
32316TIP3   OH297829   8.034  10.702   4.673  0.4314  0.0390 -0.0410
32316TIP3    H197830   7.999  10.631   4.619  0.0262 -0.0933  0.3844
32316TIP3    H297831   8.107  10.737   4.623  0.5359 -0.5781 -0.3252
32317TIP3   OH297832   9.038   8.089   2.951 -0.0691  0.3730 -0.5117
32317TIP3    H197833   9.007   8.176   2.924 -1.4906  0.5280  1.4547
32317TIP3    H297834   9.105   8.107   3.016  0.5422 -0.0291 -1.0129
32318TIP3   OH297835   8.768  10.367   9.254 -0.0508 -0.4521 -0.5785
32318TIP3    H197836   8.748  10.304   9.323  2.5227 -1.5401 -0.6935
32318TIP3    H297837   8.739  10.451   9.289 -2.2000 -1.4523  0.2142
32319TIP3   OH297838   5.958   5.374   5.995  0.0408 -0.5056 -0.0764
32319TIP3    H197839   5.970   5.407   5.906 -0.0422 -2.0871 -0.7215
32319TIP3    H297840   6.018   5.425   6.048 -0.6167  1.1514 -0.8501
32320TIP3   OH297841   9.560   9.805   3.435  0.6205 -0.0620 -0.7652
32320TIP3    H197842   9.623   9.851   3.490  0.3663 -1.5536  0.8453
32320TIP3    H297843   9.581   9.712   3.447 -1.3394 -0.5536 -0.8683
32321TIP3   OH297844   6.519   7.210   5.178 -0.2493  0.5437  0.5219
32321TIP3    H197845   6.454   7.280   5.180 -1.7487 -0.7536 -0.2617
32321TIP3    H297846   6.502   7.159   5.257 -1.4205 -0.8082 -0.5521
32322TIP3   OH297847   3.164   1.208   9.985  0.1164  0.1295 -0.3756
32322TIP3    H197848   3.234   1.232  10.046  0.8818  1.8101 -1.8320
32322TIP3    H297849   3.207   1.197   9.901 -1.3028  0.7431 -1.2231
32323TIP3   OH297850   6.699   1.444   6.693  0.3327  0.3968 -0.1754
32323TIP3    H197851   6.777   1.409   6.735 -1.5290 -1.7655  1.7950
32323TIP3    H297852   6.709   1.423   6.601  1.5902 -0.8437  0.2079
32324TIP3   OH297853  10.466   6.176   1.595  0.2449  0.5451  0.2614
32324TIP3    H197854  10.471   6.081   1.583  0.8369  0.1943  2.6471
32324TIP3    H297855  10.458   6.212   1.507  2.0927 -1.5931 -0.8626
32325TIP3   OH297856   1.059   3.857   9.987  0.3523 -0.2488 -0.8053
32325TIP3    H197857   0.974   3.870  10.030  0.3357 -0.3328 -0.8124
32325TIP3    H297858   1.122   3.853  10.059  0.3228 -0.4018 -0.7877
32326TIP3   OH297859   7.153   2.499  10.083  0.0547  0.1351 -0.6468
32326TIP3    H197860   7.190   2.478   9.997 -0.7737 -0.1459 -0.9423
32326TIP3    H297861   7.151   2.594  10.086 -0.0187  0.1463 -0.9853
32327TIP3   OH297862   1.386   9.667   6.920  0.2495  0.1533 -0.0821
32327TIP3    H197863   1.345   9.752   6.904  0.3357  0.3929  0.8644
32327TIP3    H297864   1.466   9.688   6.969  0.9819 -0.3853 -1.0230
32328TIP3   OH297865  10.532  10.589   1.559  0.6088 -0.6493 -0.3530
32328TIP3    H197866  10.516  10.679   1.531  0.1552 -0.6642 -0.1549
32328TIP3    H297867  10.623  10.588   1.587  0.8745 -0.4629 -1.1691
32329TIP3   OH297868   3.008   7.744   4.953 -0.2889  0.7104 -0.1554
32329TIP3    H197869   2.945   7.679   4.921 -0.0996  0.5285 -0.1607
32329TIP3    H297870   2.981   7.761   5.043  2.7127 -3.3492  1.8255
32330TIP3   OH297871   2.711   0.741   2.929 -0.2469  0.6416 -0.1128
32330TIP3    H197872   2.707   0.778   2.841  0.3505  0.5682 -0.1740
32330TIP3    H297873   2.742   0.651   2.916 -2.5190 -0.2020 -0.0478
32331TIP3   OH297874   3.134   4.760   7.491 -0.0996 -0.5183 -0.4917
32331TIP3    H197875   3.149   4.752   7.585  1.1968 -2.1617 -0.7871
32331TIP3    H297876   3.207   4.713   7.451 -1.2918 -0.9351 -2.3020
32332TIP3   OH297877   4.298   3.704   8.008 -0.0719 -1.5021 -0.8834
32332TIP3    H197878   4.296   3.709   7.912 -0.4984 -0.6185 -0.8437
32332TIP3    H297879   4.221   3.653   8.031 -1.6756  0.7168 -0.9264
32333TIP3   OH297880   0.636   6.443  10.497  0.3566 -0.1970  0.0736
32333TIP3    H197881   0.675   6.523  10.463  2.7457 -0.8952  0.9558
32333TIP3    H297882   0.587   6.406  10.423  1.3321  0.7953 -1.1116
32334TIP3   OH297883   9.343   6.660   3.136  0.5369  0.1880 -0.6461
32334TIP3    H197884   9.331   6.689   3.046  1.7355  1.3794 -0.4577
32334TIP3    H297885   9.277   6.707   3.186 -0.0205 -0.3493 -0.8605
32335TIP3   OH297886   7.496   3.698   6.203  0.2096 -0.3481 -0.7133
32335TIP3    H197887   7.546   3.710   6.122 -0.0556  0.5324 -0.7547
32335TIP3    H297888   7.561   3.668   6.267  0.5968 -0.1548 -1.0131
32336TIP3   OH297889   1.342   3.404   2.860  0.0847 -0.0957 -0.7851
32336TIP3    H197890   1.279   3.452   2.913 -1.0917 -2.9757  0.6096
32336TIP3    H297891   1.315   3.421   2.770 -1.3461  0.4437 -0.2882
32337TIP3   OH297892   1.322   2.326   9.948  0.5404  0.2551  0.1142
32337TIP3    H197893   1.245   2.281   9.984  0.2316  0.8061  0.1424
32337TIP3    H297894   1.324   2.410   9.993  1.3521  0.1218  0.3517
32338TIP3   OH297895   9.127   8.848   0.619  1.0108  0.3956 -0.0375
32338TIP3    H197896   9.197   8.904   0.652  1.2160 -0.3724  0.8814
32338TIP3    H297897   9.104   8.792   0.693 -0.4733  0.5259 -0.3745
32339TIP3   OH297898   6.496   4.872   9.139  0.0074 -0.2008  0.4554
32339TIP3    H197899   6.542   4.949   9.171  1.0583 -0.4272 -0.4417
32339TIP3    H297900   6.498   4.810   9.212  1.4456 -0.3227  0.3457
32340TIP3   OH297901   6.578   8.317   8.615  0.4990  0.1006  0.1516
32340TIP3    H197902   6.569   8.313   8.520 -1.5390 -1.5630  0.3383
32340TIP3    H297903   6.672   8.304   8.631  0.6430 -1.4969 -1.5862
32341TIP3   OH297904   3.876   9.867   5.843  0.0803 -0.5483  1.0311
32341TIP3    H197905   3.931   9.886   5.767 -0.1706 -0.4668  0.8698
32341TIP3    H297906   3.870   9.771   5.845 -0.4224 -0.5289  0.5816
32342TIP3   OH297907   3.023   3.947   3.743  0.3740  0.1322  0.1125
32342TIP3    H197908   2.927   3.951   3.748  0.4562  0.9128  2.3568
32342TIP3    H297909   3.042   3.856   3.724 -0.8107  0.3326 -2.5281
32343TIP3   OH297910   7.421   7.712   9.466 -0.0648  0.4454 -0.2790
32343TIP3    H197911   7.362   7.637   9.469  2.1198 -1.3790 -0.4963
32343TIP3    H297912   7.508   7.674   9.457  1.0759  3.0474 -1.3272
32344TIP3   OH297913  10.647   9.614  10.661  0.1744  0.3610  0.1282
32344TIP3    H197914  10.703   9.632  10.586  0.5776 -1.2354  0.0084
32344TIP3    H297915  10.688   9.539  10.705 -1.3168 -0.2237  0.6014
32345TIP3   OH297916  10.130   2.429   1.052 -0.2509 -0.0454  0.5968
32345TIP3    H197917  10.147   2.424   0.958 -2.4582 -2.2571  0.2096
32345TIP3    H297918  10.143   2.521   1.074 -2.3389  1.1551 -2.4871
32346TIP3   OH297919   0.540   3.396   6.775  0.5153  0.4658  0.1507
32346TIP3    H197920   0.540   3.408   6.870 -1.8794 -0.6279  0.3643
32346TIP3    H297921   0.569   3.305   6.763 -1.1535 -0.0862  0.0305
32347TIP3   OH297922  10.744  10.757   8.613  0.3560  0.7566 -0.6394
32347TIP3    H197923  10.651  10.736   8.605  0.7570 -0.7073 -1.7372
32347TIP3    H297924  10.773  10.708   8.689  0.3279  0.9053 -0.5313
32348TIP3   OH297925   5.081   0.293  10.031  0.5414  0.1965  0.2252
32348TIP3    H197926   4.988   0.292  10.009 -0.6355 -0.7268  4.3095
32348TIP3    H297927   5.111   0.379  10.005 -0.9289 -0.0389 -2.7130
32349TIP3   OH297928   5.592   6.666   4.216  0.3215  0.0878 -0.0558
32349TIP3    H197929   5.685   6.654   4.197  0.8542  0.9207  1.7508
32349TIP3    H297930   5.590   6.699   4.306 -1.8272 -1.7427  0.6751
32350TIP3   OH297931   0.204   8.411   0.989 -0.0315  0.9548 -0.4601
32350TIP3    H197932   0.159   8.380   1.068 -0.4582 -1.2624 -1.4802
32350TIP3    H297933   0.286   8.448   1.022  1.9982 -3.9148  0.9454
32351TIP3   OH297934  10.096   0.057   4.950 -0.1604  0.2036 -0.2043
32351TIP3    H197935  10.086   0.149   4.924 -0.4498  0.3311  0.3333
32351TIP3    H297936  10.167   0.058   5.014 -1.9504  0.5065  1.9162
32352TIP3   OH297937   5.462   7.700   0.469 -0.3717  0.3443  0.0830
32352TIP3    H197938   5.416   7.670   0.390  0.1790 -2.9184  0.8639
32352TIP3    H297939   5.538   7.747   0.435 -0.1378 -1.0117 -1.3685
32353TIP3   OH297940   1.371   3.340   6.363 -0.2442  0.2705 -0.6843
32353TIP3    H197941   1.358   3.435   6.371 -0.7981  0.1807 -0.5137
32353TIP3    H297942   1.461   3.332   6.332  0.1762  0.8162  0.3244
32354TIP3   OH297943   1.214   4.801   5.840  0.8074 -0.1330  0.2286
32354TIP3    H197944   1.225   4.750   5.920  0.2171 -0.9849 -0.2215
32354TIP3    H297945   1.203   4.891   5.871  3.6181  0.0690  0.9637
32355TIP3   OH297946   5.784   3.586   9.465 -0.3019  0.1221  0.0730
32355TIP3    H197947   5.766   3.578   9.558 -0.1895 -0.6010  0.0394
32355TIP3    H297948   5.702   3.562   9.422 -0.2068 -0.0348 -0.0211
32356TIP3   OH297949   2.181  10.771   0.195 -0.0906 -0.3251 -0.0837
32356TIP3    H197950   2.151  10.734   0.112  1.8189 -0.3246 -0.8292
32356TIP3    H297951   2.159  10.864   0.189  1.3130 -0.0258 -1.2754
32357TIP3   OH297952   1.810   2.837   0.440  0.4656 -0.3612  0.3959
32357TIP3    H197953   1.742   2.793   0.389 -0.1389  0.5013  0.4465
32357TIP3    H297954   1.885   2.777   0.436  0.3909 -0.3891 -1.3651
32358TIP3   OH297955   8.397   3.000   5.338  0.4002 -0.0512 -0.0789
32358TIP3    H197956   8.414   2.935   5.407  0.2494  0.7811  0.7509
32358TIP3    H297957   8.405   2.950   5.257  1.2712 -0.9018  0.5046
32359TIP3   OH297958   0.366   7.941   3.175  0.1753 -0.3530 -0.2439
32359TIP3    H197959   0.347   7.872   3.238 -2.1533  0.0253 -0.4490
32359TIP3    H297960   0.391   8.017   3.228 -0.0594 -0.5379  0.1305
32360TIP3   OH297961   2.276  10.757   4.871 -0.0841  0.2111 -0.4411
32360TIP3    H197962   2.290  10.683   4.930 -0.2004  0.7351  0.2470
32360TIP3    H297963   2.365  10.785   4.847 -0.0178  0.5355  0.1654
32361TIP3   OH297964   5.225   0.466   7.887 -0.2687 -0.6792  0.0040
32361TIP3    H197965   5.308   0.500   7.920 -1.3260  0.4124  1.6414
32361TIP3    H297966   5.250   0.408   7.815  1.8045  0.9223 -0.6421
32362TIP3   OH297967   6.630   3.434   0.981  0.0322 -0.5684  0.0400
32362TIP3    H197968   6.688   3.506   1.006 -2.0496  0.7683  1.2745
32362TIP3    H297969   6.602   3.455   0.892  1.6994 -1.4620 -0.7455
32363TIP3   OH297970   4.828   8.149   3.970 -0.2020  0.3097  0.2605
32363TIP3    H197971   4.859   8.060   3.991 -1.4353 -0.6288 -1.6135
32363TIP3    H297972   4.846   8.159   3.877 -0.0998  2.0655  0.4317
32364TIP3   OH297973   6.306   6.223   9.608  0.4321  0.4587  0.4578
32364TIP3    H197974   6.380   6.174   9.574 -1.1332 -2.0638  0.4065
32364TIP3    H297975   6.239   6.157   9.626 -2.3572  2.6899 -0.8443
32365TIP3   OH297976   0.762   2.366   9.170  0.3935 -0.2459  0.6856
32365TIP3    H197977   0.847   2.362   9.213  0.1063 -2.4178  1.1613
32365TIP3    H297978   0.698   2.371   9.241  0.0109 -1.7913  0.4835
32366TIP3   OH297979   8.621   0.129   4.500 -0.5758  0.5065  0.5732
32366TIP3    H197980   8.620   0.135   4.404 -0.1343  1.3176  0.6091
32366TIP3    H297981   8.699   0.076   4.519  0.6722  2.2562  0.5446
32367TIP3   OH297982   1.328   4.909   6.686  0.5593  0.0471  0.2537
32367TIP3    H197983   1.346   4.895   6.779  2.0644 -0.3177 -0.0692
32367TIP3    H297984   1.259   4.846   6.665  0.8801 -0.5375  0.9157
32368TIP3   OH297985   6.996   1.443   6.128  0.4774 -0.1636  0.1683
32368TIP3    H197986   7.011   1.469   6.219 -0.0410 -0.0912  0.2356
32368TIP3    H297987   6.901   1.437   6.120  0.5168 -0.1129 -0.3835
32369TIP3   OH297988   9.660   6.372   1.743 -0.0330 -0.0419 -0.1550
32369TIP3    H197989   9.731   6.374   1.808  0.1455  2.1116 -0.3410
32369TIP3    H297990   9.705   6.382   1.659 -0.5386  2.1781 -0.2238
32370TIP3   OH297991   0.629   3.201   1.900  0.8786 -0.2043 -0.0382
32370TIP3    H197992   0.551   3.238   1.859  0.4248 -1.1093 -0.0192
32370TIP3    H297993   0.596   3.154   1.976  1.6064  0.5866  0.7951
32371TIP3   OH297994   7.336   7.676   4.973  0.0205  0.0384  0.1310
32371TIP3    H197995   7.342   7.729   4.893  1.3279 -0.0674  0.1376
32371TIP3    H297996   7.269   7.720   5.025 -0.5033  0.3953 -0.8069
32372TIP3   OH297997   2.356   6.808   1.776  0.4820  0.0328 -0.1391
32372TIP3    H197998   2.346   6.753   1.698  1.4675  0.9069 -0.9147
32372TIP3    H297999   2.436   6.777   1.818  0.8075  0.5872 -0.3436
32373TIP3   OH298000   8.252   7.597  10.463  0.2344 -0.4827 -0.1166
32373TIP3    H198001   8.250   7.643  10.379 -1.0624  0.3624  0.3344
32373TIP3    H298002   8.286   7.662  10.525  0.7924 -0.9651  0.0958
32374TIP3   OH298003   8.419   9.753   8.725  0.0076  0.1296  0.4479
32374TIP3    H198004   8.488   9.687   8.719 -0.5551 -0.5330  1.1372
32374TIP3    H298005   8.443   9.805   8.801 -0.4127 -0.3001  0.8801
32375TIP3   OH298006   2.990   7.990   0.093 -0.2162  0.2067  1.0042
32375TIP3    H198007   2.982   7.898   0.067 -1.6182  0.4823  0.3834
32375TIP3    H298008   2.904   8.028   0.074  0.8347  2.0647 -0.3693
32376TIP3   OH298009   6.961   1.276   2.430  0.0901 -0.2289  0.2723
32376TIP3    H198010   6.946   1.369   2.448 -0.6816  0.2192 -2.3427
32376TIP3    H298011   7.052   1.261   2.456  0.1758  1.1834  0.8953
32377TIP3   OH298012   0.319   9.418   1.371  0.0913  0.4709  0.1274
32377TIP3    H198013   0.345   9.333   1.408 -0.0364  0.1384 -0.5232
32377TIP3    H298014   0.233   9.436   1.410  0.1111  0.2883  0.2546
32378TIP3   OH298015   5.906   9.141   8.522  0.2837 -0.3217  0.1591
32378TIP3    H198016   5.846   9.088   8.575  0.8322 -2.5634 -1.3353
32378TIP3    H298017   5.852   9.211   8.487 -1.6377 -2.4046 -1.3360
32379TIP3   OH298018   3.504   1.661   0.832 -0.4245 -0.1025  0.6465
32379TIP3    H198019   3.497   1.634   0.924  1.0804  0.7959  1.0518
32379TIP3    H298020   3.588   1.706   0.826  0.0216 -1.1134 -1.4418
32380TIP3   OH298021  10.612   0.571   8.811  0.5466 -0.2663 -0.1131
32380TIP3    H198022  10.555   0.532   8.877  2.0979 -0.0983  1.3939
32380TIP3    H298023  10.552   0.618   8.753 -0.8285  0.6484  1.9027
32381TIP3   OH298024   3.059   2.069  10.397 -0.0303 -0.1154  0.0028
32381TIP3    H198025   2.963   2.074  10.405  0.1334  0.2247  2.2922
32381TIP3    H298026   3.088   2.159  10.401  0.4069 -0.1812 -1.1549
32382TIP3   OH298027   9.712   8.038   2.616 -0.7038 -0.1215  0.8091
32382TIP3    H198028   9.695   8.108   2.553  1.9786 -1.6718 -1.9065
32382TIP3    H298029   9.691   7.957   2.568  0.1344 -1.3181  2.3624
32383TIP3   OH298030   1.625  10.226   2.185 -0.1980  0.4798  0.4669
32383TIP3    H198031   1.717  10.220   2.158  0.5712  2.0224  2.4743
32383TIP3    H298032   1.592  10.136   2.179  1.3135 -0.0326 -0.6612
32384TIP3   OH298033   7.443   7.625  10.105  0.0462  0.4664 -0.0640
32384TIP3    H198034   7.366   7.628  10.162 -0.5512  0.6667 -0.8695
32384TIP3    H298035   7.516   7.611  10.165 -0.7177 -0.7660  0.6274
32385TIP3   OH298036   1.273   5.299   3.410  0.1407 -0.5440 -0.1003
32385TIP3    H198037   1.178   5.312   3.412  0.0046 -1.4722  1.3493
32385TIP3    H298038   1.286   5.227   3.348  0.0076  0.2165 -1.0302
32386TIP3   OH298039   4.369   5.487   5.677  0.4817 -0.4622 -0.2941
32386TIP3    H198040   4.305   5.422   5.706  1.4007 -2.3471 -2.2128
32386TIP3    H298041   4.360   5.489   5.582  1.7686  0.8696 -0.4243
32387TIP3   OH298042   5.750   5.251  10.272  0.8002 -0.1609  0.5254
32387TIP3    H198043   5.800   5.234  10.192  0.5913 -0.2801  0.4200
32387TIP3    H298044   5.658   5.249  10.245  0.7561  1.1865  0.5039
32388TIP3   OH298045   4.647   2.582   4.480 -0.0052  0.0726 -0.6705
32388TIP3    H198046   4.713   2.534   4.531  1.2072  0.5514 -1.7376
32388TIP3    H298047   4.679   2.672   4.479 -2.1038  0.9094  1.0521
32389TIP3   OH298048   9.701   8.620   5.356 -0.8211 -0.1070  0.3437
32389TIP3    H198049   9.757   8.544   5.345  0.5147  0.9935 -0.9382
32389TIP3    H298050   9.695   8.633   5.450 -0.3571 -1.2696  0.5394
32390TIP3   OH298051   9.215   7.473   7.829  0.2935  0.2429  0.3645
32390TIP3    H198052   9.148   7.404   7.831 -0.0202  0.5475  0.5706
32390TIP3    H298053   9.210   7.508   7.740  0.3824  0.0676  0.2905
32391TIP3   OH298054   1.764  10.752   9.498 -0.7678 -0.3920 -0.3286
32391TIP3    H198055   1.852  10.778   9.524 -0.5917 -0.3740 -0.9171
32391TIP3    H298056   1.707  10.810   9.548 -0.5857 -2.1968  2.1201
32392TIP3   OH298057   1.727   8.489   9.243 -0.4367 -0.6367 -0.4737
32392TIP3    H198058   1.703   8.496   9.336 -1.5491 -1.2033 -0.7029
32392TIP3    H298059   1.787   8.415   9.239  2.8682  1.7683  0.3580
32393TIP3   OH298060  10.225   5.506   5.385  0.1774  0.0426  0.4433
32393TIP3    H198061  10.216   5.556   5.303 -0.0621 -1.1859 -0.3007
32393TIP3    H298062  10.315   5.474   5.383  0.8628  1.7164  1.7025
32394TIP3   OH298063   6.777  10.192   8.883 -0.1913  0.0548  0.3216
32394TIP3    H198064   6.849  10.180   8.821 -0.1920  1.5739  0.0008
32394TIP3    H298065   6.745  10.103   8.900  2.8202 -0.8959  1.7874
32395TIP3   OH298066  10.225   0.031   1.144 -0.0895  0.0679 -0.1148
32395TIP3    H198067  10.243   0.077   1.062 -1.1185 -1.2280 -1.1319
32395TIP3    H298068  10.276   0.077   1.210  1.0141  0.9663 -1.5405
32396TIP3   OH298069   7.969   4.964   5.961  0.3664 -0.6734 -0.0931
32396TIP3    H198070   7.927   4.902   5.902  1.2605 -0.2364 -1.2314
32396TIP3    H298071   7.916   4.961   6.041 -2.2214  0.3226 -1.6453
32397TIP3   OH298072   5.088  10.548   8.195 -0.2146  0.7583  0.5220
32397TIP3    H198073   5.128  10.517   8.113 -0.3273 -0.0456  0.7648
32397TIP3    H298074   5.016  10.604   8.166 -1.4113 -0.9469  0.0139
32398TIP3   OH298075  10.786   5.359   9.039 -0.2632 -0.1840  0.1321
32398TIP3    H198076  10.748   5.366   9.126 -0.6187  0.8697 -0.0864
32398TIP3    H298077  10.711   5.361   8.980  0.0589  2.1201 -0.3133
32399TIP3   OH298078   7.763   2.954   5.740  0.2895  0.3418 -0.2848
32399TIP3    H198079   7.751   3.006   5.660  0.8151  1.1389  0.1350
32399TIP3    H298080   7.815   3.011   5.797  1.2480 -0.8194  0.0381
32400TIP3   OH298081   0.994   6.842  10.879 -0.4654  0.6168  0.3951
32400TIP3    H198082   0.923   6.831  10.816  0.3214 -0.1232 -0.3813
32400TIP3    H298083   0.990   6.765  10.935  0.3410  0.0649 -0.2868
32401TIP3   OH298084   3.876   9.962   3.255 -0.1951  0.0437 -0.4413
32401TIP3    H198085   3.876  10.019   3.332 -1.8446 -2.1861  1.3549
32401TIP3    H298086   3.968   9.953   3.232  0.1931  2.5699 -0.2256
32402TIP3   OH298087   3.205   7.563   2.474 -0.1478  0.1091  0.0327
32402TIP3    H198088   3.147   7.511   2.419 -1.7403  1.8743 -0.0525
32402TIP3    H298089   3.224   7.641   2.422  1.9920 -0.2088  0.2477
32403TIP3   OH298090   7.200   6.924   3.971  0.5761  0.3701  0.8034
32403TIP3    H198091   7.244   6.954   3.892 -0.6043 -0.0029 -0.0307
32403TIP3    H298092   7.252   6.850   4.001  0.6319  0.0513 -0.0548
32404TIP3   OH298093   3.095   2.274   6.027 -0.5815 -0.3847 -0.1025
32404TIP3    H198094   3.135   2.330   5.960 -0.8761  0.3747  0.3473
32404TIP3    H298095   3.164   2.211   6.049 -0.4573 -0.6079 -1.0612
32405TIP3   OH298096   0.110   3.300   0.146  0.0471 -0.4861 -0.0675
32405TIP3    H198097   0.130   3.207   0.150  0.7659 -0.3397 -0.1638
32405TIP3    H298098   0.085   3.323   0.235  2.6364 -0.1770  0.6485
32406TIP3   OH298099   5.627   3.888   9.235 -0.1602 -0.2272  0.0686
32406TIP3    H198100   5.630   3.945   9.158 -0.7029 -3.0488 -2.2507
32406TIP3    H298101   5.706   3.835   9.229  0.1786 -0.0034  1.9573
32407TIP3   OH298102   6.856   1.361  10.767  0.4863 -0.7553  0.3936
32407TIP3    H198103   6.950   1.363  10.748  0.6271 -2.3833  0.8236
32407TIP3    H298104   6.834   1.269  10.777 -1.5469 -0.5519 -1.4165
32408TIP3   OH298105   9.426  10.648   4.751  0.6348  0.1311 -0.1305
32408TIP3    H198106   9.348  10.618   4.799  0.9249 -2.3651 -1.0617
32408TIP3    H298107   9.498  10.637   4.812  0.5943 -0.1312 -0.1267
32409TIP3   OH298108   2.930   8.283   4.432 -0.2383  0.0641 -0.1071
32409TIP3    H198109   2.926   8.370   4.391 -1.1098  0.6368  1.1468
32409TIP3    H298110   2.994   8.293   4.503 -1.0023 -0.0517  0.6094
32410TIP3   OH298111   4.522   4.959   7.256  0.2215 -0.4640  0.0747
32410TIP3    H198112   4.571   4.930   7.179 -1.2482  0.0288 -1.0859
32410TIP3    H298113   4.437   4.985   7.222  0.2709  1.8999  1.5328
32411TIP3   OH298114   8.700   5.862   9.942  0.0948 -0.6198  0.0436
32411TIP3    H198115   8.740   5.919   9.877 -0.4670 -1.0986 -0.7435
32411TIP3    H298116   8.773   5.830   9.994  0.4588  0.4508  0.2068
32412TIP3   OH298117   7.639   0.168   8.396  0.5494 -0.1204  0.3624
32412TIP3    H198118   7.546   0.177   8.375  0.6305 -0.6695 -0.2573
32412TIP3    H298119   7.684   0.221   8.330  0.6520  0.6537  1.0408
32413TIP3   OH298120   3.954   7.060   8.488 -0.0000  0.4646 -0.3687
32413TIP3    H198121   4.047   7.034   8.487  0.4255  1.8563  0.6646
32413TIP3    H298122   3.946   7.122   8.416 -0.1021  0.4560 -0.3650
32414TIP3   OH298123   3.915   6.285   9.639  0.0991  0.0005 -0.2779
32414TIP3    H198124   3.872   6.271   9.723  0.7801  0.6091  0.1822
32414TIP3    H298125   3.878   6.367   9.607 -1.3421 -1.0111 -1.3491
32415TIP3   OH298126   5.004   2.976  10.625 -0.3241  0.0877 -0.2887
32415TIP3    H198127   4.975   3.062  10.655  0.4235  0.2630 -0.0361
32415TIP3    H298128   4.960   2.963  10.542  0.3205  1.1582 -0.8157
32416TIP3   OH298129   5.639   0.296   4.558 -0.2103 -0.3042 -0.0860
32416TIP3    H198130   5.548   0.290   4.584 -0.1831 -2.0050 -0.2416
32416TIP3    H298131   5.642   0.369   4.496 -1.4576 -0.2340 -0.0809
32417TIP3   OH298132   7.087   1.514   2.231 -0.0813 -0.0857 -0.0357
32417TIP3    H198133   7.154   1.475   2.175 -0.8085  1.3817 -2.0198
32417TIP3    H298134   7.006   1.467   2.208  0.0293 -1.1965  1.6632
32418TIP3   OH298135   9.942   3.108   3.148  0.5066 -0.0378  0.6516
32418TIP3    H198136   9.927   3.027   3.197  1.5957 -1.5228 -1.3099
32418TIP3    H298137  10.037   3.117   3.145  0.4139  0.9436  0.2387
32419TIP3   OH298138   7.375  10.877   0.803 -0.3253 -0.4114  0.1088
32419TIP3    H198139   7.350  10.794   0.762  2.2573 -0.2719 -2.0362
32419TIP3    H298140   7.344  10.944   0.742  0.1009  0.0120  0.3486
32420TIP3   OH298141   1.264   5.963   5.671  0.3189 -0.2898 -0.6613
32420TIP3    H198142   1.180   5.919   5.667  0.5657 -0.7718 -0.6382
32420TIP3    H298143   1.297   5.945   5.760  0.2151  0.3286 -0.4942
32421TIP3   OH298144   6.944   4.615   0.384  0.2100 -0.4899  0.0374
32421TIP3    H198145   6.947   4.687   0.321  1.5349  1.0050  1.6954
32421TIP3    H298146   6.923   4.657   0.468 -0.0387 -2.1949  0.8824
32422TIP3   OH298147   9.595   1.250   2.282 -0.0567 -0.0231 -0.2204
32422TIP3    H198148   9.607   1.179   2.346  1.1881 -1.3567 -1.8239
32422TIP3    H298149   9.659   1.317   2.308  1.7418 -1.3362 -1.0220
32423TIP3   OH298150   9.187   4.577   1.230 -0.0588  0.4774  0.7281
32423TIP3    H198151   9.228   4.662   1.216  0.6697 -0.2702 -2.4147
32423TIP3    H298152   9.242   4.534   1.296  1.7523  1.1135 -0.2971
32424TIP3   OH298153   7.789   8.479   1.135  0.0607  0.2018  0.0446
32424TIP3    H198154   7.705   8.439   1.115  0.3221 -0.7126  0.7034
32424TIP3    H298155   7.854   8.412   1.114  0.4179 -0.4257  2.7123
32425TIP3   OH298156   6.269   1.004   0.175 -0.1356  0.4074 -0.3858
32425TIP3    H198157   6.178   1.033   0.178 -0.5920 -0.9027 -0.6438
32425TIP3    H298158   6.320   1.080   0.204 -1.5403 -0.0857  4.0776
32426TIP3   OH298159   0.427   6.534   1.011  0.5770 -0.2088 -0.3382
32426TIP3    H198160   0.460   6.478   0.940 -0.1397 -0.3670 -0.5627
32426TIP3    H298161   0.339   6.500   1.029  1.1286 -0.8557  1.3602
32427TIP3   OH298162   5.347  10.845   9.871  0.2369  0.5758  0.4626
32427TIP3    H198163   5.297  10.870   9.794  1.5457  1.3833 -0.1586
32427TIP3    H298164   5.332  10.916   9.934 -1.4758 -0.4687  1.3070
32428TIP3   OH298165   8.341   2.143  10.408 -0.0298  0.0518  0.2592
32428TIP3    H198166   8.354   2.235  10.431 -1.7778  0.8991 -1.8005
32428TIP3    H298167   8.274   2.112  10.469 -2.1701  1.3027 -1.3148
32429TIP3   OH298168   1.502  10.089   3.854 -0.2907 -0.0137 -0.1875
32429TIP3    H198169   1.491  10.177   3.891  0.8409 -0.2376  0.7260
32429TIP3    H298170   1.467  10.096   3.765 -1.2182  1.0668  0.2398
32430TIP3   OH298171   2.979   9.842   7.076  0.4958 -0.7097 -0.5484
32430TIP3    H198172   2.916   9.779   7.111  0.3717  0.2564  1.0720
32430TIP3    H298173   3.061   9.822   7.120 -0.0707  1.6338  1.8048
32431TIP3   OH298174   2.416   8.856   5.743 -0.4045  0.3199 -0.6173
32431TIP3    H198175   2.345   8.807   5.784  0.2368  0.2009  0.3988
32431TIP3    H298176   2.423   8.936   5.795 -1.6033  1.6772 -2.4010
32432TIP3   OH298177   0.957   4.884   6.237  0.7859  0.5193  0.3930
32432TIP3    H198178   0.921   4.869   6.324 -0.4897  0.1066 -0.1772
32432TIP3    H298179   1.031   4.943   6.251  0.2391  0.9354  1.6817
32433TIP3   OH298180   5.568   4.293   4.102 -0.1980  0.0084 -0.2392
32433TIP3    H198181   5.576   4.297   4.197 -0.8076 -0.0139 -0.1796
32433TIP3    H298182   5.658   4.288   4.070  0.0096 -0.0257  0.3369
32434TIP3   OH298183   3.005  10.719  10.381  0.1414  0.9996  0.5076
32434TIP3    H198184   3.008  10.756  10.469 -0.9747  0.3413  0.8458
32434TIP3    H298185   3.096  10.719  10.351  0.3523  2.5548  1.0931
32435TIP3   OH298186   0.837   8.093   4.363  0.2314  0.1253 -0.0635
32435TIP3    H198187   0.862   8.047   4.443 -0.0633 -0.5094 -0.3279
32435TIP3    H298188   0.855   8.031   4.292 -1.0079  0.0692 -0.3547
32436TIP3   OH298189   8.158  10.477   2.906  0.2205 -0.3740 -0.3062
32436TIP3    H198190   8.111  10.496   2.825  0.8137 -1.7580 -0.9992
32436TIP3    H298191   8.167  10.382   2.907  0.0999 -0.3949  1.4691
32437TIP3   OH298192   3.997   4.175   8.744 -0.3376 -0.8268  0.4441
32437TIP3    H198193   3.951   4.257   8.764 -0.3133 -1.4431  3.4142
32437TIP3    H298194   3.986   4.165   8.649  2.6725  4.3694 -0.8619
32438TIP3   OH298195   1.617   5.380   2.590 -0.3819  0.2388 -0.2452
32438TIP3    H198196   1.625   5.417   2.678  0.7149 -0.9429  0.1878
32438TIP3    H298197   1.686   5.423   2.540 -1.2450  1.1825 -0.6417
32439TIP3   OH298198   4.008   1.035  10.841 -0.4147 -0.3893  0.5010
32439TIP3    H198199   4.008   1.099  10.913  1.8912  0.2817 -0.0072
32439TIP3    H298200   4.026   1.087  10.763  0.5005 -1.4992 -0.0647
32440TIP3   OH298201   4.154   6.764   2.654  0.0279  0.4828  0.2996
32440TIP3    H198202   4.116   6.795   2.571  1.4299  2.8011  0.4068
32440TIP3    H298203   4.204   6.686   2.630 -0.3470  0.5767 -0.8546
32441TIP3   OH298204   8.509   6.716   0.335  0.6476  0.1627 -0.2413
32441TIP3    H198205   8.426   6.691   0.295 -0.3900 -0.1562  1.9818
32441TIP3    H298206   8.504   6.811   0.345  0.9441  0.2537 -0.8789
32442TIP3   OH298207   6.260   0.527   9.595 -0.1048 -0.0756 -0.6278
32442TIP3    H198208   6.254   0.470   9.672  1.0396  0.2942 -0.2431
32442TIP3    H298209   6.291   0.469   9.525 -0.1263 -0.1931 -0.5402
32443TIP3   OH298210   8.565   8.156   8.129  0.3796  0.3125 -0.1004
32443TIP3    H198211   8.494   8.107   8.171  0.5454 -0.6614 -0.9137
32443TIP3    H298212   8.567   8.240   8.175 -1.5115  0.4941 -0.2740
32444TIP3   OH298213   8.224   8.699   3.266  0.3368 -0.4513 -0.3144
32444TIP3    H198214   8.310   8.662   3.286  0.3300 -0.1435  0.3160
32444TIP3    H298215   8.163   8.648   3.320  0.1102 -0.7298 -0.8276
32445TIP3   OH298216   1.999   4.126   9.450 -0.4072  0.4375  0.2474
32445TIP3    H198217   2.041   4.212   9.454  0.1882  0.1765 -0.3323
32445TIP3    H298218   1.997   4.105   9.357  0.1518 -0.5190  0.4456
32446TIP3   OH298219   0.487   3.278   4.746  0.5091 -0.0563  0.3405
32446TIP3    H198220   0.548   3.241   4.683 -1.5967 -0.1256 -1.7924
32446TIP3    H298221   0.475   3.369   4.719 -1.3369 -0.4108 -0.1626
32447TIP3   OH298222   3.735   2.617  10.144  0.1206  0.1384  0.4294
32447TIP3    H198223   3.800   2.557  10.180  1.0422  0.8426 -0.0359
32447TIP3    H298224   3.712   2.579  10.059  0.8304  0.5202  0.0599
32448TIP3   OH298225   3.646   0.028   3.540  0.0722 -0.0720 -0.2152
32448TIP3    H198226   3.701   0.106   3.553  0.7783 -0.3900 -1.1690
32448TIP3    H298227   3.696  -0.026   3.478 -1.9788  0.3116 -2.3214
32449TIP3   OH298228   7.702   8.831   4.784 -0.4322  0.5661 -0.3592
32449TIP3    H198229   7.611   8.839   4.813 -0.6025 -0.0142 -0.7065
32449TIP3    H298230   7.695   8.809   4.691 -0.0007 -1.2729  0.0089
32450TIP3   OH298231   6.054   5.425   6.880  0.3505 -0.9392 -0.5038
32450TIP3    H198232   6.079   5.371   6.955  1.1288  0.3619  0.2056
32450TIP3    H298233   5.959   5.437   6.890  0.1915 -2.0184 -0.5927
32451TIP3   OH298234   1.589   2.660  10.413 -0.1793 -0.0839 -0.8957
32451TIP3    H198235   1.672   2.638  10.455 -1.8997 -2.2293  1.7652
32451TIP3    H298236   1.550   2.575  10.392 -2.4459  0.7722 -0.4181
32452TIP3   OH298237  10.737   8.008  10.801 -0.5045  0.2226  0.9064
32452TIP3    H198238  10.703   7.946  10.737 -0.4822  1.1946 -0.0658
32452TIP3    H298239  10.707   8.093  10.771 -1.6909  0.6033  2.9478
32453TIP3   OH298240   5.133   3.711  10.327 -0.0946  0.9688 -0.1492
32453TIP3    H198241   5.102   3.700  10.417 -0.7160 -1.8710 -0.6262
32453TIP3    H298242   5.073   3.658  10.274  1.7402  0.5412 -1.9162
32454TIP3   OH298243   7.105   7.204   2.289  0.2643 -0.4076 -0.0963
32454TIP3    H198244   7.200   7.200   2.284  0.3501  1.9463 -2.3092
32454TIP3    H298245   7.086   7.290   2.327 -0.9758 -0.5837 -0.2694
32455TIP3   OH298246   7.550   7.630   3.096  0.5985  0.0329  0.5504
32455TIP3    H198247   7.624   7.626   3.034 -0.5618  1.5909 -1.0224
32455TIP3    H298248   7.579   7.691   3.163  0.9827  0.1612  0.2738
32456TIP3   OH298249   7.661   7.466   7.332 -0.6507  0.1854 -0.0863
32456TIP3    H198250   7.709   7.395   7.290  0.6409  1.0860 -0.2008
32456TIP3    H298251   7.619   7.425   7.408  1.0337 -0.5058  0.5268
32457TIP3   OH298252   8.565   4.908   0.844 -0.0283 -0.0491  0.1270
32457TIP3    H198253   8.551   4.816   0.865 -3.1124  0.6829  1.7771
32457TIP3    H298254   8.628   4.938   0.909 -2.7841  0.0550  2.9793
32458TIP3   OH298255   4.283   7.789   7.727 -0.0865  1.0562 -0.3953
32458TIP3    H198256   4.196   7.821   7.749  0.2745  0.3364  2.4812
32458TIP3    H298257   4.329   7.786   7.811  1.5339 -2.1055 -1.2587
32459TIP3   OH298258   8.835   3.409   7.223 -0.3878 -0.3460  0.0110
32459TIP3    H198259   8.892   3.337   7.195 -0.1276  0.3229 -1.2738
32459TIP3    H298260   8.774   3.369   7.284  0.5317 -1.3955  0.2885
32460TIP3   OH298261   8.103   1.521   5.221  0.1778  0.0782 -1.2036
32460TIP3    H198262   8.064   1.437   5.244 -2.1400  1.5582  0.7824
32460TIP3    H298263   8.179   1.528   5.279  1.9196 -1.5723 -3.0897
32461TIP3   OH298264   0.607   6.319   1.903 -0.3747  0.0873  0.1992
32461TIP3    H198265   0.688   6.278   1.871  0.3174  0.9062  0.8758
32461TIP3    H298266   0.551   6.323   1.825 -0.3295 -1.7565  0.0100
32462TIP3   OH298267   6.767   3.666   9.176 -0.3519  0.0770 -0.5439
32462TIP3    H198268   6.728   3.656   9.090 -2.6904 -2.9954  0.6793
32462TIP3    H298269   6.777   3.761   9.187 -3.4827  0.8121 -2.7251
32463TIP3   OH298270   9.962   0.341   9.464 -0.0743 -0.3903  0.2306
32463TIP3    H198271  10.014   0.408   9.420  0.0385 -0.7103 -0.1275
32463TIP3    H298272   9.981   0.260   9.416 -1.2744 -0.4280 -0.2306
32464TIP3   OH298273   4.798   0.531   7.397  0.9587 -0.5354 -0.0630
32464TIP3    H198274   4.883   0.489   7.413 -0.1226 -2.3591  1.3294
32464TIP3    H298275   4.735   0.475   7.442 -1.0721  0.4617 -1.4986
32465TIP3   OH298276   2.677   2.450   0.657  0.2597  0.1464  0.1730
32465TIP3    H198277   2.664   2.513   0.586  0.2804 -0.6201 -0.5354
32465TIP3    H298278   2.599   2.458   0.711 -0.1980  0.1059 -0.4595
32466TIP3   OH298279   6.308   9.716   3.633 -0.2445 -0.3272 -0.3035
32466TIP3    H198280   6.319   9.621   3.641  0.0787 -0.3095 -0.4808
32466TIP3    H298281   6.398   9.749   3.621  0.1098  0.3456  3.0691
32467TIP3   OH298282   1.803   1.675   6.593  0.1682  0.2006 -0.2974
32467TIP3    H198283   1.746   1.751   6.595  0.1279  0.1540  1.0059
32467TIP3    H298284   1.881   1.704   6.545  0.0439  0.9768 -0.0369
32468TIP3   OH298285   9.400   9.296   6.625 -0.2667  0.2182  0.2199
32468TIP3    H198286   9.350   9.344   6.558 -0.3880  0.6538  0.6177
32468TIP3    H298287   9.379   9.340   6.707  0.7211  0.3783  0.4067
32469TIP3   OH298288   6.504  10.886   5.208  0.0359  0.2301 -0.0266
32469TIP3    H198289   6.430  10.828   5.191 -1.1493  1.4531  0.6950
32469TIP3    H298290   6.477  10.936   5.286  1.1797  1.4263 -0.3608
32470TIP3   OH298291   9.332   3.890   0.685 -0.5082 -0.3351  0.4902
32470TIP3    H198292   9.260   3.896   0.622 -0.1557  0.1501  0.1271
32470TIP3    H298293   9.316   3.961   0.746 -1.2812 -1.2736  1.4274
32471TIP3   OH298294   2.819   4.389   0.224 -0.1783  0.3368 -0.2204
32471TIP3    H198295   2.810   4.484   0.217  0.1381  0.2431 -3.3349
32471TIP3    H298296   2.901   4.376   0.270  0.3082  1.6108 -0.6805
32472TIP3   OH298297  10.001   5.535   2.650 -0.0479 -0.0988 -0.6190
32472TIP3    H198298   9.959   5.553   2.734  0.1604  1.6086 -0.8411
32472TIP3    H298299  10.088   5.502   2.672  0.0530  0.4658 -0.1504
32473TIP3   OH298300   0.774   6.112   4.164  0.1497 -0.0497  0.1482
32473TIP3    H198301   0.831   6.039   4.142  1.4111  0.2271  2.2358
32473TIP3    H298302   0.806   6.185   4.110  2.6167  0.4044  2.0649
32474TIP3   OH298303   4.437   3.515   9.782 -0.3230  0.4320 -0.1411
32474TIP3    H198304   4.442   3.591   9.723  0.6836  1.4874  1.2403
32474TIP3    H298305   4.372   3.539   9.847  0.2192  0.2542  0.4802
32475TIP3   OH298306   5.720   2.755   6.027 -0.0691  0.0298  0.0328
32475TIP3    H198307   5.729   2.792   5.939 -0.3137  0.7309  0.2996
32475TIP3    H298308   5.778   2.679   6.027  0.4881  0.4494 -0.4947
32476TIP3   OH298309   3.765  10.787   4.078  0.1159  0.5319 -0.0649
32476TIP3    H198310   3.724  10.704   4.055 -1.2374  1.2607 -0.3520
32476TIP3    H298311   3.727  10.810   4.163 -0.6878  1.5905 -0.6891
32477TIP3   OH298312   5.918   2.606   1.056 -0.2951 -0.0811  0.1856
32477TIP3    H198313   6.012   2.608   1.039 -0.0440 -0.6582  1.3593
32477TIP3    H298314   5.898   2.692   1.093 -0.0246 -0.3032  0.8629
32478TIP3   OH298315   5.271   0.307   8.417  0.2547  0.0901 -0.2630
32478TIP3    H198316   5.363   0.331   8.406  0.5864 -0.4090  1.2279
32478TIP3    H298317   5.235   0.374   8.474 -1.4390  2.6602 -3.9596
32479TIP3   OH298318   2.923   0.151   2.128  0.0473  0.0330 -0.2806
32479TIP3    H198319   3.013   0.159   2.095 -0.0844 -0.9306 -0.9095
32479TIP3    H298320   2.886   0.079   2.078 -1.8557  1.9202 -1.7329
32480TIP3   OH298321   6.102   5.578   7.417 -0.5099 -0.2369  0.1814
32480TIP3    H198322   6.110   5.652   7.358  0.1155 -0.8430 -0.5190
32480TIP3    H298323   6.177   5.585   7.476 -1.4355  0.6795  1.2978
32481TIP3   OH298324   9.885   9.347   7.146 -0.3559 -0.4388  0.2572
32481TIP3    H198325   9.833   9.273   7.113 -2.4572  1.6774 -1.5592
32481TIP3    H298326   9.969   9.340   7.100  0.2522 -2.7071  1.5845
32482TIP3   OH298327   5.994   1.929   3.244 -0.6109 -0.2165 -0.4338
32482TIP3    H198328   6.003   2.024   3.251 -0.3925 -0.3031  0.6271
32482TIP3    H298329   6.038   1.906   3.162 -1.5405  0.6969 -1.2224
32483TIP3   OH298330   2.686   0.051   1.790 -0.0585  0.6520  0.0590
32483TIP3    H198331   2.667   0.145   1.795  1.2517  0.8821  2.3868
32483TIP3    H298332   2.766   0.046   1.738  1.4959  1.2241  2.2160
32484TIP3   OH298333   0.189   4.824   3.112  0.0369  0.3531  0.3420
32484TIP3    H198334   0.144   4.835   3.029 -0.6138  1.8356  0.8441
32484TIP3    H298335   0.124   4.785   3.170  0.5085 -0.7393  0.1526
32485TIP3   OH298336   5.398   5.639   7.668  0.5377 -0.0054 -0.2158
32485TIP3    H198337   5.340   5.590   7.727  0.6242 -0.0777 -0.1911
32485TIP3    H298338   5.423   5.576   7.601 -0.8241  0.4904 -1.2364
32486TIP3   OH298339   7.306   2.989   1.378 -0.1261  0.3717  0.1810
32486TIP3    H198340   7.328   3.075   1.413  0.4168  0.2719  0.0947
32486TIP3    H298341   7.383   2.963   1.326  0.7344 -1.2009  2.1018
32487TIP3   OH298342   0.592   1.896   6.012  0.1331  0.1880  0.5050
32487TIP3    H198343   0.530   1.823   6.006 -1.1818  1.3358 -0.8555
32487TIP3    H298344   0.616   1.913   5.921  1.1705  0.8502  0.8902
32488TIP3   OH298345   6.935   6.976   9.209 -0.5022 -0.3882  0.4828
32488TIP3    H198346   7.014   6.950   9.162 -0.1427  0.6013  0.5296
32488TIP3    H298347   6.865   6.966   9.144 -0.2635 -0.7131  0.2710
32489TIP3   OH298348   9.639   7.941   5.339 -0.4647 -0.1896 -0.2209
32489TIP3    H198349   9.676   8.025   5.311  0.5322 -1.2960 -2.4799
32489TIP3    H298350   9.613   7.897   5.258 -2.7605 -1.3168  1.0185
32490TIP3   OH298351   8.457   0.614   5.979 -0.4120 -0.5484 -0.4066
32490TIP3    H198352   8.517   0.586   6.048  0.6919 -0.6948 -1.4137
32490TIP3    H298353   8.464   0.710   5.979 -2.6223 -0.2939  1.6193
32491TIP3   OH298354   2.082   3.914  10.137 -0.2076  0.4544 -0.3426
32491TIP3    H198355   2.052   3.984  10.079 -1.7621 -1.3584 -1.8875
32491TIP3    H298356   2.128   3.852  10.079  2.8374  1.0099  1.2804
32492TIP3   OH298357   4.093   0.695   2.272 -0.0815 -0.1934 -0.3945
32492TIP3    H198358   4.145   0.687   2.353  1.0615  0.0281 -1.0814
32492TIP3    H298359   4.070   0.788   2.268 -0.4421 -0.2713 -0.1437
32493TIP3   OH298360   7.950   7.983   4.790 -0.3261  0.1710  0.2318
32493TIP3    H198361   7.882   7.916   4.779 -0.1543  0.0832 -0.3199
32493TIP3    H298362   7.948   8.033   4.708  0.6830 -0.2073 -0.0316
32494TIP3   OH298363   0.674   3.822   3.880 -0.4920  0.3157  0.4821
32494TIP3    H198364   0.637   3.908   3.860  3.2288  2.0416  0.1640
32494TIP3    H298365   0.686   3.823   3.975  1.3949  1.0910  0.2803
32495TIP3   OH298366   9.434   1.739   6.200 -0.2408  0.2871 -0.0386
32495TIP3    H198367   9.371   1.782   6.258 -0.1670 -0.5952  0.7138
32495TIP3    H298368   9.391   1.658   6.173 -0.3247  0.7466 -1.3428
32496TIP3   OH298369   4.390   2.732   9.063 -0.5661 -0.2879  0.1941
32496TIP3    H198370   4.390   2.663   8.997 -1.0282  0.4328 -0.5814
32496TIP3    H298371   4.316   2.788   9.038 -0.3612  0.3353  0.9618
32497TIP3   OH298372   8.811   5.134   0.742  1.0810  0.4931 -0.0484
32497TIP3    H198373   8.762   5.106   0.819  1.1316  1.8770  0.5043
32497TIP3    H298374   8.818   5.055   0.688 -2.5059  0.3755 -0.5668
32498TIP3   OH298375   7.313   7.426  10.283 -0.1063 -0.1143  0.0307
32498TIP3    H198376   7.254   7.355  10.311 -0.6069  0.3409  0.1545
32498TIP3    H298377   7.359   7.391  10.208 -2.1232  0.2579 -1.4631
32499TIP3   OH298378   9.126  10.205  10.380 -0.8818  0.1674 -0.1542
32499TIP3    H198379   9.064  10.146  10.339 -1.3076  0.6420 -0.2062
32499TIP3    H298380   9.073  10.261  10.436 -0.8722  2.2561 -2.0955
32500TIP3   OH298381   3.378   4.349   1.226 -0.3898 -0.3530  0.1799
32500TIP3    H198382   3.444   4.394   1.278 -0.8080 -0.1797  0.5654
32500TIP3    H298383   3.411   4.260   1.216  0.6201  0.1226 -0.8931
32501TIP3   OH298384   0.485   5.522   1.176 -0.0984  1.1074  0.4188
32501TIP3    H198385   0.505   5.615   1.167  2.7533  0.5624  0.2872
32501TIP3    H298386   0.468   5.491   1.087  1.4858  1.0417  0.1118
32502TIP3   OH298387   6.096   0.173   7.456 -0.1154 -0.2491  0.5887
32502TIP3    H198388   6.111   0.267   7.462  0.7092 -0.3413  0.2269
32502TIP3    H298389   6.171   0.141   7.405 -1.6362 -0.7718 -1.4540
32503TIP3   OH298390   4.039   3.867   2.563 -0.0931 -0.0563 -0.3946
32503TIP3    H198391   4.041   3.778   2.528  0.9669 -0.2827  0.1879
32503TIP3    H298392   4.065   3.857   2.655  1.7027  1.0264 -0.7393
32504TIP3   OH298393   2.505   2.053   2.130  0.5017  0.7822 -0.4577
32504TIP3    H198394   2.520   2.070   2.223  1.6591 -0.0265 -0.4721
32504TIP3    H298395   2.412   2.071   2.117  0.1491  0.2055  1.0176
32505TIP3   OH298396   3.982   6.965   7.184 -0.6728  0.1220  0.2970
32505TIP3    H198397   3.967   7.042   7.129 -1.1011  1.1488  1.7720
32505TIP3    H298398   3.900   6.915   7.178 -0.2685 -0.4236 -0.9356
32506TIP3   OH298399   2.625   0.457   7.413  0.3433  0.3355  0.3479
32506TIP3    H198400   2.642   0.364   7.425 -0.6008  0.2857  1.5704
32506TIP3    H298401   2.710   0.495   7.392  0.3609 -1.1392 -2.9497
32507TIP3   OH298402   5.580   6.285   0.856  0.5416  0.0723 -0.2258
32507TIP3    H198403   5.612   6.244   0.776 -0.0668  1.2978 -1.1267
32507TIP3    H298404   5.497   6.240   0.874  0.5586 -0.0353 -0.4146
32508TIP3   OH298405   7.533   0.852   1.017  0.2748 -0.1796  0.0954
32508TIP3    H198406   7.497   0.866   1.104  1.3887  1.6716  0.3211
32508TIP3    H298407   7.569   0.763   1.019 -3.5844 -1.9727  0.0034
32509TIP3   OH298408   1.230   4.602   5.447 -0.4985 -0.0424 -0.1469
32509TIP3    H198409   1.179   4.613   5.527  0.0055 -1.6496  0.4392
32509TIP3    H298410   1.248   4.691   5.417 -1.2463  0.5760  1.1801
32510TIP3   OH298411   8.727   3.102   0.502 -0.0066 -0.5007 -0.3869
32510TIP3    H198412   8.707   3.093   0.409 -1.2216  1.5452 -0.3666
32510TIP3    H298413   8.823   3.096   0.507  0.1795  0.6767 -1.9524
32511TIP3   OH298414   5.224   5.608   8.509 -0.7273  0.5095 -0.3322
32511TIP3    H198415   5.147   5.563   8.473 -2.2115  1.1946  1.7945
32511TIP3    H298416   5.225   5.583   8.601  1.4610  0.7970 -0.2377
32512TIP3   OH298417   7.658   5.015   4.643 -0.3505  0.3656  0.6221
32512TIP3    H198418   7.642   5.109   4.645  0.4028  0.4936  1.4067
32512TIP3    H298419   7.753   5.006   4.644 -0.4060 -0.4030  0.1598
32513TIP3   OH298420   1.883   1.777   8.036 -0.8113  0.1544 -0.3676
32513TIP3    H198421   1.859   1.757   7.946  2.2058 -2.1423 -0.8176
32513TIP3    H298422   1.963   1.829   8.029 -0.6053  0.0618  0.9966
32514TIP3   OH298423   4.763   2.749   9.700 -0.0560 -0.2994  0.5416
32514TIP3    H198424   4.857   2.744   9.718  0.1670  1.6608  0.2023
32514TIP3    H298425   4.757   2.761   9.605 -0.8559 -3.3038  0.1206
32515TIP3   OH298426   2.821   5.558   1.975 -0.0049  0.4257 -0.0497
32515TIP3    H198427   2.779   5.551   2.060  0.7612  0.7156  0.3661
32515TIP3    H298428   2.804   5.474   1.932 -0.8243  0.4743  0.1813
32516TIP3   OH298429   4.997  10.843   2.437  0.5018 -0.2328 -0.8445
32516TIP3    H198430   5.040  10.843   2.522  0.7559  0.8810 -0.9675
32516TIP3    H298431   5.035  10.768   2.391 -0.1907 -1.3042  0.2811
32517TIP3   OH298432   9.397   6.032   3.791 -0.0800 -0.2217 -0.5396
32517TIP3    H198433   9.415   6.084   3.869 -0.1772  0.2551 -0.8260
32517TIP3    H298434   9.374   5.945   3.824 -0.2044 -0.0021 -0.0365
32518TIP3   OH298435   5.958   4.040   9.637 -0.0346 -0.1168  0.0318
32518TIP3    H198436   6.024   4.107   9.619  0.0852 -0.4151 -0.6595
32518TIP3    H298437   5.888   4.058   9.575  0.0373 -0.6769 -0.2168
32519TIP3   OH298438   4.973   3.366   3.977  0.1913 -0.3314  0.0073
32519TIP3    H198439   4.890   3.377   4.024  0.8090  0.0824  1.0606
32519TIP3    H298440   5.038   3.404   4.036  1.0909 -0.3597 -0.9398
32520TIP3   OH298441   4.988   5.590   3.304  0.4835  0.0181 -0.6078
32520TIP3    H198442   5.057   5.526   3.319  1.0851  1.2012  2.3165
32520TIP3    H298443   4.915   5.539   3.270  1.8875 -1.7052 -1.1663
32521TIP3   OH298444   0.942   5.278   8.070  0.1369 -0.7589 -0.3204
32521TIP3    H198445   0.876   5.226   8.115  0.4211 -1.6239 -0.8792
32521TIP3    H298446   1.014   5.217   8.054  0.8869  0.0558 -0.1215
32522TIP3   OH298447   5.707   3.636   2.834 -0.1205 -0.0684 -0.0126
32522TIP3    H198448   5.726   3.649   2.742  1.6548 -1.7746  0.0690
32522TIP3    H298449   5.780   3.677   2.880 -0.1646 -0.6334  0.5786
32523TIP3   OH298450   0.161   1.894   1.121 -0.1703 -0.3255  0.0158
32523TIP3    H198451   0.096   1.839   1.166  0.7702 -1.0900  0.4866
32523TIP3    H298452   0.148   1.981   1.158 -2.0298 -0.0712 -1.1152
32524TIP3   OH298453   8.010  10.767  10.476 -0.4503  0.8901  0.2261
32524TIP3    H198454   8.063  10.710  10.532 -0.1713  1.1149  0.1980
32524TIP3    H298455   8.068  10.842  10.458 -0.6538  0.9679 -0.0993
32525TIP3   OH298456   0.265   9.082   3.155 -0.2627  0.2269 -0.1143
32525TIP3    H198457   0.342   9.070   3.211 -0.1338  0.4899 -0.2313
32525TIP3    H298458   0.191   9.056   3.210 -0.0077 -1.0418 -0.3474
32526TIP3   OH298459   7.287   1.451   8.451  0.3614  0.0106 -0.1243
32526TIP3    H198460   7.286   1.542   8.481  2.0502  0.6868 -1.8714
32526TIP3    H298461   7.379   1.426   8.454  0.1698 -0.9637 -1.5370
32527TIP3   OH298462  10.440   5.969   4.722 -0.1303 -0.1147  0.1329
32527TIP3    H198463  10.522   5.932   4.686 -0.1554  0.2880 -0.3484
32527TIP3    H298464  10.415   5.907   4.790  0.2748 -0.5510 -0.0993
32528TIP3   OH298465  10.396   7.004   2.549  0.3630 -0.5547  0.1427
32528TIP3    H198466  10.370   6.938   2.613  2.4956 -1.2768  0.3313
32528TIP3    H298467  10.479   6.972   2.514 -0.0991  0.4739 -2.0678
32529TIP3   OH298468   5.150   3.366  10.172 -0.4145  0.3050  0.6454
32529TIP3    H198469   5.068   3.317  10.160  0.6692 -1.0643 -1.9214
32529TIP3    H298470   5.207   3.306  10.219  0.4802 -0.4255 -1.3252
32530TIP3   OH298471   0.610   5.237   4.555 -0.3072 -0.6063  0.3411
32530TIP3    H198472   0.613   5.288   4.636  0.3372  0.1636 -0.1542
32530TIP3    H298473   0.518   5.239   4.530 -0.6742 -1.5956  1.4994
32531TIP3   OH298474   0.502   0.416   3.425 -0.3020 -0.4624  0.2422
32531TIP3    H198475   0.504   0.498   3.473  2.1665  2.2059 -3.7592
32531TIP3    H298476   0.410   0.405   3.401 -0.6896  1.2088  0.8084
32532TIP3   OH298477   9.623   4.630   6.247 -0.0476  0.2195  0.0368
32532TIP3    H198478   9.574   4.551   6.266  3.3433 -1.8878  0.8576
32532TIP3    H298479   9.683   4.605   6.177  2.4904  1.3075  1.6415
32533TIP3   OH298480   6.562   1.632   9.999 -0.6744 -0.4400 -0.0603
32533TIP3    H198481   6.597   1.680  10.074 -0.8967 -0.4252  0.0338
32533TIP3    H298482   6.500   1.570  10.037 -0.2375 -0.9529 -0.1568
32534TIP3   OH298483   7.741   9.342   0.686  0.2813 -0.0284  0.4942
32534TIP3    H198484   7.656   9.381   0.668  0.0682 -0.6368  0.1702
32534TIP3    H298485   7.783   9.336   0.600  0.4352 -0.2292  0.5843
32535TIP3   OH298486   4.184   3.960   3.099  0.2607 -0.7130 -0.1325
32535TIP3    H198487   4.092   3.984   3.103  0.0164 -1.6385  0.1436
32535TIP3    H298488   4.226   4.032   3.053 -0.6065 -0.3050 -0.3046
32536TIP3   OH298489   1.728   0.606   2.458 -0.3969  0.3161 -0.1144
32536TIP3    H198490   1.717   0.683   2.403  1.0222  0.7529  0.2006
32536TIP3    H298491   1.807   0.564   2.426 -0.7071 -0.5760  0.2450
32537TIP3   OH298492   6.025   3.358   0.698  0.0856  0.0570  0.3497
32537TIP3    H198493   6.014   3.405   0.615  2.1207  0.5948  0.3526
32537TIP3    H298494   5.942   3.372   0.744  0.0714  2.3579 -0.2943
32538TIP3   OH298495   1.019   9.742   5.803 -0.3671 -0.0076  0.0191
32538TIP3    H198496   1.014   9.837   5.801  0.3478  0.0189 -1.1150
32538TIP3    H298497   1.043   9.721   5.893 -3.2692  0.6997  1.0920
32539TIP3   OH298498  10.628   5.441   1.821 -0.1723 -0.0834 -0.2859
32539TIP3    H198499  10.604   5.488   1.742  1.4940  0.8573 -0.2691
32539TIP3    H298500  10.720   5.420   1.810 -0.3838 -1.6944  0.5611
32540TIP3   OH298501   6.325   9.995   9.943 -0.0840  0.0537 -0.0406
32540TIP3    H198502   6.416   9.971   9.927  0.6272  2.1007  0.6029
32540TIP3    H298503   6.330  10.084   9.979 -2.4170  0.7717 -1.2832
32541TIP3   OH298504   5.297   1.382   1.563  0.6205  0.0268  0.0928
32541TIP3    H198505   5.219   1.398   1.511  1.2921  1.3170 -0.5512
32541TIP3    H298506   5.272   1.405   1.653  0.2936  0.5669 -0.1347
32542TIP3   OH298507   7.136   6.585  10.667 -0.5699 -0.3604  0.0814
32542TIP3    H198508   7.057   6.635  10.686 -0.7651 -1.0054  1.0064
32542TIP3    H298509   7.203   6.623  10.724 -1.0641 -2.0431  1.9055
32543TIP3   OH298510   2.402   1.886   8.000  0.0784  0.3317  0.0815
32543TIP3    H198511   2.439   1.912   8.084 -0.1572  1.2826 -0.1018
32543TIP3    H298512   2.361   1.801   8.017 -0.2970  0.6878  1.0130
32544TIP3   OH298513   8.229  10.764   4.041  0.4470  0.0204 -0.0404
32544TIP3    H198514   8.281  10.842   4.022 -2.7691  2.0901 -1.0198
32544TIP3    H298515   8.157  10.795   4.095 -1.8255 -1.8950 -1.7663
32545TIP3   OH298516   4.426   2.294   7.328  0.0504 -0.3891  0.5664
32545TIP3    H198517   4.331   2.276   7.330 -0.0924 -0.2645 -2.2194
32545TIP3    H298518   4.433   2.388   7.345 -0.0583 -0.8015  3.3737
32546TIP3   OH298519   7.992   0.230   6.265  0.2372  0.9836 -0.7640
32546TIP3    H198520   7.927   0.254   6.330  0.6823 -0.4437  0.2574
32546TIP3    H298521   7.960   0.269   6.183 -1.5593  0.8417 -0.1707
32547TIP3   OH298522   7.492   4.806   9.185 -0.5040 -0.2553  0.3995
32547TIP3    H198523   7.496   4.848   9.100 -0.0454 -0.7555  0.1656
32547TIP3    H298524   7.427   4.736   9.175 -2.0181  0.9938  1.0747
32548TIP3   OH298525   7.114  10.487  10.158  0.4935 -0.4976 -0.6434
32548TIP3    H198526   7.182  10.460  10.220  0.4056  1.1212  0.2288
32548TIP3    H298527   7.159  10.548  10.100 -0.0699  0.1490 -0.4095
32549TIP3   OH298528   6.640   0.325  10.270 -0.5318 -0.4850  0.4528
32549TIP3    H198529   6.667   0.382  10.199 -2.6399 -0.6998 -0.5964
32549TIP3    H298530   6.691   0.354  10.346  1.1244  0.3136 -0.9081
32550TIP3   OH298531   2.161   0.449   2.746 -0.6573 -0.2589 -0.1014
32550TIP3    H198532   2.150   0.357   2.722 -0.2975  0.1168 -1.8732
32550TIP3    H298533   2.072   0.481   2.760 -0.8148 -0.7331  0.0016
32551TIP3   OH298534   2.527   5.973   9.144 -0.4926  0.2852  0.6159
32551TIP3    H198535   2.565   5.897   9.188 -1.8242 -0.4273  0.6018
32551TIP3    H298536   2.455   6.000   9.201 -1.4631  0.1132 -0.4871
32552TIP3   OH298537  10.648   3.724   7.292  1.0320  0.4230 -0.4475
32552TIP3    H198538  10.568   3.774   7.310  0.0157 -1.7785  1.8421
32552TIP3    H298539  10.716   3.768   7.344  0.7934  0.9789 -0.5948
32553TIP3   OH298540   1.584   7.308   6.178  0.5138 -0.4713 -0.2263
32553TIP3    H198541   1.636   7.389   6.175 -0.4466  0.2682  1.6513
32553TIP3    H298542   1.625   7.251   6.113  1.7982  1.1776 -0.9306
32554TIP3   OH298543   7.110   6.883   2.632  0.0179  0.4910  0.0278
32554TIP3    H198544   7.165   6.895   2.555 -0.0559  0.8028  0.0247
32554TIP3    H298545   7.153   6.935   2.700 -0.8709  1.6505 -0.2626
32555TIP3   OH298546   0.601   2.560   6.980 -0.8886  0.4732 -0.6390
32555TIP3    H198547   0.606   2.590   6.889 -1.7410  1.0668 -0.5055
32555TIP3    H298548   0.670   2.609   7.025 -2.5134  2.6685 -0.3400
32556TIP3   OH298549   0.745   7.553   3.413  0.0418  0.0859  0.5746
32556TIP3    H198550   0.728   7.592   3.499  0.6444  2.0407 -0.1250
32556TIP3    H298551   0.816   7.606   3.376 -0.4046 -0.5022 -1.2473
32557TIP3   OH298552   8.134   6.431   0.963 -0.3884  0.3109 -0.0789
32557TIP3    H198553   8.198   6.468   1.025  0.2050 -1.4847  0.4474
32557TIP3    H298554   8.081   6.372   1.017 -1.2354  0.3177 -0.8969
32558TIP3   OH298555   7.826   0.586  10.465 -0.0662 -0.4990 -0.1978
32558TIP3    H198556   7.847   0.677  10.484  0.8768 -0.8682  0.6233
32558TIP3    H298557   7.823   0.544  10.551 -0.5607 -1.2348 -0.5600
32559TIP3   OH298558   4.870   6.285   0.149  0.1913  0.5859 -0.4987
32559TIP3    H198559   4.868   6.289   0.245  1.0376  2.2264 -0.5011
32559TIP3    H298560   4.792   6.332   0.121  0.2677  0.6532 -0.6027
32560TIP3   OH298561   9.030   1.076   1.704  0.5954 -0.2154 -0.8856
32560TIP3    H198562   9.008   1.049   1.615 -1.2274 -3.6858  0.4197
32560TIP3    H298563   8.960   1.039   1.758  1.6367  1.7244  2.0446
32561TIP3   OH298564   6.334  10.575   6.846  0.1541  0.1209 -0.0369
32561TIP3    H198565   6.241  10.583   6.865  0.0250 -1.3151  0.0526
32561TIP3    H298566   6.340  10.583   6.751 -0.4218 -2.2536 -0.3538
32562TIP3   OH298567   8.052   1.907   6.515 -0.1006 -0.1037 -0.1290
32562TIP3    H198568   8.133   1.950   6.485  0.4286 -2.3925 -2.3141
32562TIP3    H298569   7.997   1.980   6.544  2.3049  1.6376  0.4751
32563TIP3   OH298570   8.679   5.865   0.457 -0.1410  0.0636  0.0683
32563TIP3    H198571   8.774   5.870   0.467 -0.1778  0.7570  0.1097
32563TIP3    H298572   8.660   5.771   0.457  0.3729 -0.0720  1.7005
32564TIP3   OH298573   3.996   8.089   5.728 -0.0631 -0.2561  0.0998
32564TIP3    H198574   4.054   8.140   5.672 -1.2762 -2.2082 -3.2324
32564TIP3    H298575   3.922   8.148   5.746  1.8531  1.5808  2.8014
32565TIP3   OH298576   5.929   0.656  10.638  0.6694 -0.1666 -0.2118
32565TIP3    H198577   5.957   0.604  10.562  0.9743  0.6178 -0.6449
32565TIP3    H298578   5.945   0.747  10.612 -0.8671  0.2276  0.1082
32566TIP3   OH298579   1.679  10.286   3.207 -0.3000  0.1709  0.3433
32566TIP3    H198580   1.622  10.324   3.141  0.6805 -0.0511 -0.6707
32566TIP3    H298581   1.620  10.253   3.275 -1.3650 -0.0066 -0.6416
32567TIP3   OH298582  10.371   1.163   7.750 -0.3064 -0.3773  0.3548
32567TIP3    H198583  10.431   1.223   7.794 -0.6567  0.7592 -0.6616
32567TIP3    H298584  10.372   1.192   7.658 -2.1844 -0.5218  0.2591
32568TIP3   OH298585   9.120   0.186   6.799  0.1349  0.0388  0.5496
32568TIP3    H198586   9.169   0.268   6.805  0.2479 -0.0139  0.3458
32568TIP3    H298587   9.187   0.118   6.788 -0.0128  0.0528 -0.6040
32569TIP3   OH298588   2.082   5.172   6.923  0.1185 -0.0294 -0.1870
32569TIP3    H198589   2.020   5.128   6.981 -0.8146  1.3281 -0.1133
32569TIP3    H298590   2.168   5.149   6.959 -0.4120  0.1144  1.2636
32570TIP3   OH298591   8.659   7.615   7.081 -0.6890  0.4252 -0.0868
32570TIP3    H198592   8.678   7.576   7.166 -1.9972 -0.3677 -0.1334
32570TIP3    H298593   8.637   7.541   7.025  1.2028  0.8022 -1.4560
32571TIP3   OH298594   4.466   9.542   6.907  0.0955 -0.4180  0.1812
32571TIP3    H198595   4.547   9.493   6.897 -0.5847 -1.9505  1.8104
32571TIP3    H298596   4.439   9.528   6.998 -1.5148  0.8150 -0.0500
32572TIP3   OH298597   4.695   1.045   1.074 -0.2800  0.5865 -0.0450
32572TIP3    H198598   4.758   1.095   1.023 -1.0842  1.6352 -0.0508
32572TIP3    H298599   4.703   0.955   1.041  1.1382  0.7070 -0.0826
32573TIP3   OH298600   1.458   1.793   8.112  0.1300 -0.4787 -0.1272
32573TIP3    H198601   1.519   1.858   8.078  0.3621 -0.5581  0.1334
32573TIP3    H298602   1.372   1.820   8.078  0.3085 -0.3650 -0.4890
32574TIP3   OH298603   1.821  10.102   1.077 -0.3666 -0.0953 -0.8094
32574TIP3    H198604   1.883  10.059   1.018 -0.6931 -1.0845 -0.4543
32574TIP3    H298605   1.756  10.141   1.018  0.3340  0.5431 -1.1628
32575TIP3   OH298606   2.986   1.223  10.379 -0.4307 -0.2767 -0.0918
32575TIP3    H198607   2.903   1.258  10.347  0.3755  1.2245 -0.6728
32575TIP3    H298608   3.004   1.148  10.322  0.2495  1.4726 -2.3341
32576TIP3   OH298609   4.221   4.532  10.249 -0.0964 -0.0391 -0.2756
32576TIP3    H198610   4.177   4.505  10.330 -0.4876 -1.4991 -0.9172
32576TIP3    H298611   4.165   4.600  10.213 -2.2783 -2.2200 -1.3399
32577TIP3   OH298612   3.817   9.268   0.077 -0.4060  0.7783 -0.0710
32577TIP3    H198613   3.764   9.342   0.106  0.7308  1.7662 -0.4269
32577TIP3    H298614   3.759   9.217   0.021 -1.0932  1.6137 -0.1284
32578TIP3   OH298615   1.772   4.735   1.769 -0.3260  0.3943  0.0170
32578TIP3    H198616   1.814   4.728   1.855 -1.8917 -0.4358  0.7518
32578TIP3    H298617   1.844   4.755   1.709  1.2064 -1.4421  1.1298
32579TIP3   OH298618   9.748   0.859   5.323  0.8215 -0.4272  0.4289
32579TIP3    H198619   9.736   0.766   5.300  0.4217 -0.4906  0.8815
32579TIP3    H298620   9.667   0.883   5.367  1.2162 -0.0540  0.9562
32580TIP3   OH298621   2.431   2.028   2.660  0.0881  0.1959 -0.2592
32580TIP3    H198622   2.391   2.066   2.582  3.0931  1.6887 -1.2571
32580TIP3    H298623   2.465   2.103   2.708  2.1246 -0.9165  0.1491
32581TIP3   OH298624   3.247   6.282   5.104  0.3926  0.4605 -0.1039
32581TIP3    H198625   3.262   6.299   5.011  2.8638  1.2143  0.3745
32581TIP3    H298626   3.184   6.348   5.131  1.7017  2.0020 -0.6877
32582TIP3   OH298627  10.078   5.799   4.535 -0.5501  0.5580  0.2816
32582TIP3    H198628  10.058   5.844   4.453 -2.0338  0.3785  0.5097
32582TIP3    H298629  10.063   5.866   4.602  1.9306  1.1030  0.3883
32583TIP3   OH298630   0.096   9.047   8.012 -0.4305 -0.5183 -0.7813
32583TIP3    H198631   0.038   9.111   7.971  0.4586  0.7776 -0.0869
32583TIP3    H298632   0.179   9.056   7.965  0.4434  0.6105  0.8817
32584TIP3   OH298633   2.164   4.225  10.395  0.1568 -0.4550 -0.3180
32584TIP3    H198634   2.196   4.152  10.343 -1.4850 -2.4582  1.2888
32584TIP3    H298635   2.242   4.276  10.416  1.3759 -1.7729 -1.4296
32585TIP3   OH298636   0.147   8.695   2.361  0.1576 -0.3280  0.1623
32585TIP3    H198637   0.192   8.676   2.279  0.0961 -0.8890  0.2539
32585TIP3    H298638   0.074   8.751   2.335  1.5486  1.5778  0.1635
32586TIP3   OH298639   6.440   8.994  10.538  0.0162 -0.4869  0.2814
32586TIP3    H198640   6.471   8.972  10.450  0.3951 -1.3841  0.6276
32586TIP3    H298641   6.473   8.923  10.593 -0.0718  0.1562  1.1772
32587TIP3   OH298642   3.594   1.663   3.919 -0.4658 -0.6686  0.4521
32587TIP3    H198643   3.545   1.743   3.903  0.0648 -0.4746 -0.2640
32587TIP3    H298644   3.575   1.607   3.843  2.1854  0.3091 -1.0921
32588TIP3   OH298645   6.917   2.953   3.822 -0.0321  0.0987 -0.5054
32588TIP3    H198646   6.911   2.873   3.875 -1.4311 -0.9489 -2.1686
32588TIP3    H298647   6.840   2.951   3.766 -0.4309  2.9528 -0.1995
32589TIP3   OH298648   1.027   2.840   5.786  0.2807 -0.9520 -0.0039
32589TIP3    H198649   0.941   2.834   5.744 -0.7520  0.8882  1.6719
32589TIP3    H298650   1.058   2.928   5.765 -0.6031  0.3414  3.4505
32590TIP3   OH298651   5.207   1.378   8.157  0.6569 -0.3153 -0.1429
32590TIP3    H198652   5.142   1.405   8.222  1.9386 -1.3571  1.6857
32590TIP3    H298653   5.158   1.325   8.094 -0.4619 -0.1460  0.5630
32591TIP3   OH298654   3.775   0.743   8.034  0.1557  0.1846 -0.4380
32591TIP3    H198655   3.802   0.662   7.992  0.8222  0.6112 -0.8458
32591TIP3    H298656   3.841   0.808   8.007 -1.0940  1.1846 -1.1963
32592TIP3   OH298657   9.595  10.907   2.441  0.2307 -0.6172  0.1016
32592TIP3    H198658   9.540  10.942   2.511  0.0416  0.3112 -0.4944
32592TIP3    H298659   9.553  10.936   2.360  0.9794 -0.8545 -0.3875
32593TIP3   OH298660   4.917   9.639   1.794 -0.5751 -0.1192  0.0231
32593TIP3    H198661   4.983   9.624   1.727 -0.8895 -0.7313 -0.1561
32593TIP3    H298662   4.958   9.700   1.855 -1.0468  2.2109 -1.8410
32594TIP3   OH298663   1.127  10.264   9.290  0.3030 -0.0428  0.5755
32594TIP3    H198664   1.047  10.270   9.238  0.2696  1.3406  0.7624
32594TIP3    H298665   1.099  10.287   9.379  0.5569 -1.3965  1.0279
32595TIP3   OH298666  10.571   1.455   7.413  0.1218  0.1578 -0.3645
32595TIP3    H198667  10.487   1.494   7.390  0.1911  1.0691  0.8645
32595TIP3    H298668  10.548   1.381   7.470  0.0526 -0.9508 -1.7929
32596TIP3   OH298669   3.879   2.862   7.232 -0.7213 -0.1203 -0.0347
32596TIP3    H198670   3.821   2.877   7.157  0.6532  0.0494 -1.0964
32596TIP3    H298671   3.875   2.767   7.247 -1.4458 -0.0806  0.0583
32597TIP3   OH298672   8.922   6.867   6.618 -0.0535  0.6090  0.5086
32597TIP3    H198673   8.982   6.938   6.597 -0.7424  1.4626  1.3132
32597TIP3    H298674   8.971   6.787   6.599  0.9275  1.2858  0.1005
32598TIP3   OH298675   5.746   6.824   5.925 -0.6037 -0.1460  0.1183
32598TIP3    H198676   5.757   6.818   5.830 -0.3174  0.5848  0.0996
32598TIP3    H298677   5.714   6.737   5.951 -0.7709 -0.3237 -0.6551
32599TIP3   OH298678   9.515   5.223   8.082 -0.0276  0.3249 -0.4280
32599TIP3    H198679   9.535   5.130   8.079 -0.2005  0.1327  2.2955
32599TIP3    H298680   9.600   5.266   8.069  0.2583 -0.2350 -0.4247
32600TIP3   OH298681   2.710   6.450   8.469 -0.2989 -0.6147 -0.3899
32600TIP3    H198682   2.782   6.512   8.470  1.9524 -3.0567  1.1295
32600TIP3    H298683   2.720   6.403   8.386  0.0152 -1.0645 -0.1060
32601TIP3   OH298684   4.640   0.672   7.176  0.2597  0.4746  0.3882
32601TIP3    H198685   4.683   0.627   7.249 -2.1168  0.0389  1.6268
32601TIP3    H298686   4.645   0.765   7.198 -0.6346  0.3348  1.2751
32602TIP3   OH298687   5.759   0.099   0.543  0.5486  0.2401 -0.2266
32602TIP3    H198688   5.690   0.039   0.514 -0.9854  1.4605  0.7339
32602TIP3    H298689   5.722   0.186   0.531  1.5304  0.9042  1.2534
32603TIP3   OH298690   3.247   0.707   4.059  0.3568 -0.4290  0.1079
32603TIP3    H198691   3.251   0.710   4.155  0.4832  1.2457  0.0718
32603TIP3    H298692   3.336   0.727   4.030  0.3575 -1.0919 -0.3734
32604TIP3   OH298693   7.735  10.720   5.933  0.0063 -0.4549  0.1865
32604TIP3    H198694   7.820  10.724   5.889  0.0638 -0.2184  0.3126
32604TIP3    H298695   7.724  10.628   5.957  0.1681 -0.5093  0.0552
32605TIP3   OH298696   0.640   7.857  10.703 -0.3206 -0.2008 -0.4623
32605TIP3    H198697   0.698   7.884  10.775  0.1044  0.1095 -0.9171
32605TIP3    H298698   0.585   7.789  10.742  0.9444 -1.1447 -0.2478
32606TIP3   OH298699   0.967   3.349   7.789  0.0830  0.6192  0.5209
32606TIP3    H198700   0.913   3.326   7.713  1.7291 -0.0191 -0.4960
32606TIP3    H298701   1.055   3.361   7.753  0.8077  0.7659  2.2745
32607TIP3   OH298702   2.885   0.470   7.434 -0.1864 -0.5965  0.0062
32607TIP3    H198703   2.881   0.380   7.466 -0.0550 -0.4202  0.5274
32607TIP3    H298704   2.932   0.518   7.503  0.7726 -0.3636 -0.7921
32608TIP3   OH298705   2.707   5.215   5.621 -0.2754  0.1587 -0.1153
32608TIP3    H198706   2.648   5.173   5.559 -0.1632  1.2734 -1.0019
32608TIP3    H298707   2.651   5.239   5.695 -0.0735 -2.9578  1.2143
32609TIP3   OH298708   5.665   0.781   3.722 -0.0981  0.0719 -0.3407
32609TIP3    H198709   5.747   0.801   3.679 -0.5221  1.6338 -0.4957
32609TIP3    H298710   5.607   0.752   3.652  0.1731 -0.6179 -0.2922
32610TIP3   OH298711   9.891   9.862   1.794  0.9648 -0.3572 -0.4726
32610TIP3    H198712   9.882   9.953   1.822 -0.2461 -0.4315 -0.5639
32610TIP3    H298713   9.974   9.833   1.831  2.0060  1.1546 -1.4823
32611TIP3   OH298714   0.216   9.231   3.689 -0.0717  0.4770 -0.0426
32611TIP3    H198715   0.210   9.305   3.749  0.2400 -1.0821  2.0429
32611TIP3    H298716   0.265   9.165   3.737  0.5424 -0.7537 -2.1989
32612TIP3   OH298717   2.779   6.920   3.279  0.9098 -0.1912 -0.5866
32612TIP3    H198718   2.829   6.932   3.360 -0.1114  1.4113 -0.1342
32612TIP3    H298719   2.836   6.956   3.211  0.7906  0.7454 -0.2093
32613TIP3   OH298720   1.642   5.501   9.130 -0.0620 -0.3524 -0.3912
32613TIP3    H198721   1.712   5.453   9.174 -0.9029 -0.1546  1.2070
32613TIP3    H298722   1.678   5.590   9.120  1.1132 -0.9938 -2.4771
32614TIP3   OH298723   4.938   1.876   7.232 -0.1209 -0.4940 -0.8119
32614TIP3    H198724   4.872   1.890   7.299 -1.0700  0.2142 -1.8649
32614TIP3    H298725   4.899   1.811   7.173  1.3777 -2.4168  0.1684
32615TIP3   OH298726   3.325   0.679   5.352 -0.2023 -0.8408  0.4548
32615TIP3    H198727   3.309   0.774   5.355 -2.4467 -1.1623  1.0533
32615TIP3    H298728   3.376   0.665   5.272  1.3745  0.9855  1.0586
32616TIP3   OH298729   0.092   9.124   7.604 -0.2283 -0.2561 -0.2675
32616TIP3    H198730   0.058   9.199   7.654  0.6041 -0.3869  0.5312
32616TIP3    H298731   0.047   9.128   7.520 -0.4951  0.9077 -0.0819
32617TIP3   OH298732   6.965   6.830   0.185  0.5027  0.4558  0.4951
32617TIP3    H198733   6.907   6.896   0.149  0.2924  0.0757  0.1194
32617TIP3    H298734   6.908   6.773   0.236  0.8527  1.1962  1.7542
32618TIP3   OH298735   8.756   0.691   3.558  0.3944 -0.2088  0.4620
32618TIP3    H198736   8.670   0.732   3.547 -0.3111 -1.1364  2.1097
32618TIP3    H298737   8.766   0.635   3.482 -0.6784 -0.4240  0.4635
32619TIP3   OH298738   9.638   8.301   4.970 -0.2554 -0.2331  0.8121
32619TIP3    H198739   9.588   8.356   4.910 -1.0887  0.3206  1.9768
32619TIP3    H298740   9.727   8.303   4.935 -0.7867 -0.2356 -0.6078
32620TIP3   OH298741   4.958   8.199   2.505  0.7187  0.4428  0.0268
32620TIP3    H198742   4.867   8.180   2.486  0.4039  1.2393  0.6522
32620TIP3    H298743   4.994   8.232   2.423  0.1901  0.9970  0.0130
32621TIP3   OH298744   0.852   6.738   1.240  0.0036 -0.2908 -0.3024
32621TIP3    H198745   0.815   6.715   1.325 -0.7256 -1.8616 -1.0072
32621TIP3    H298746   0.788   6.708   1.176 -0.7468  3.2079 -1.4223
32622TIP3   OH298747   2.956   4.402   3.896 -0.4235  0.2161  0.1840
32622TIP3    H198748   2.983   4.388   3.986  1.7235  0.0554 -0.4126
32622TIP3    H298749   3.018   4.467   3.862 -1.2683  0.3855 -1.1417
32623TIP3   OH298750   7.961   7.058   5.464  0.0695 -0.3949  0.0129
32623TIP3    H198751   7.925   7.131   5.414 -0.5478 -0.9649 -0.3942
32623TIP3    H298752   7.989   6.995   5.397  1.3266 -0.2067  0.3347
32624TIP3   OH298753  10.530   4.684   6.675  0.0524 -0.1821 -0.0565
32624TIP3    H198754  10.550   4.742   6.602 -0.4228 -0.2943 -0.2754
32624TIP3    H298755  10.474   4.616   6.638  0.0803 -0.4246  0.3391
32625TIP3   OH298756   5.254   2.748   6.354 -0.6546  0.6418  0.1764
32625TIP3    H198757   5.232   2.815   6.289 -0.4634  0.5786  0.0446
32625TIP3    H298758   5.330   2.784   6.400 -0.9264  0.7830  0.5134
32626TIP3   OH298759   4.777   0.940   6.474  0.1873  0.1520  0.4421
32626TIP3    H198760   4.683   0.923   6.461  0.0972  1.3465 -0.6407
32626TIP3    H298761   4.816   0.853   6.480 -1.1117 -0.3856  1.9809
32627TIP3   OH298762   2.391   6.070   2.031  0.4063  0.2084 -0.3050
32627TIP3    H198763   2.382   6.111   1.945  1.3073  0.2773 -0.3668
32627TIP3    H298764   2.480   6.037   2.033  0.2383 -0.2215  0.4220
32628TIP3   OH298765   1.683   1.541   3.422  0.1963 -0.0908 -0.3498
32628TIP3    H198766   1.656   1.454   3.452 -0.5760  0.8215  1.8459
32628TIP3    H298767   1.776   1.546   3.443 -0.2498  0.3887  1.7135
32629TIP3   OH298768   7.347   7.218   8.023  0.3096 -0.1196 -0.1891
32629TIP3    H198769   7.299   7.291   7.985  2.4079  2.1720  1.2300
32629TIP3    H298770   7.279   7.159   8.056 -1.5716  2.3347  0.6575
32630TIP3   OH298771   7.383  10.104   8.646  0.0558 -0.0318 -0.8074
32630TIP3    H198772   7.301  10.144   8.673  0.7649  0.6759  0.3941
32630TIP3    H298773   7.450  10.167   8.673  1.3251 -2.4062  2.1732
32631TIP3   OH298774   1.904   6.649   8.586 -0.0025 -0.3267 -0.3012
32631TIP3    H198775   1.934   6.729   8.629  1.0758 -1.2784  0.8108
32631TIP3    H298776   1.950   6.579   8.632 -0.9171 -1.5920 -1.2467
32632TIP3   OH298777   1.856   2.147   1.623  0.5533 -0.2856  0.3206
32632TIP3    H198778   1.898   2.223   1.663  0.2741 -0.1783  0.4136
32632TIP3    H298779   1.779   2.183   1.579  1.2467 -0.2943 -0.9445
32633TIP3   OH298780   1.065  10.608   7.589 -0.0242  0.0651 -0.3367
32633TIP3    H198781   1.014  10.684   7.562  2.2270  2.4927  1.6826
32633TIP3    H298782   1.142  10.610   7.532 -0.5457 -1.5584 -1.1458
32634TIP3   OH298783   6.203   3.308  10.594  0.2491 -0.2046 -0.1002
32634TIP3    H198784   6.132   3.302  10.530  1.1971 -0.6265 -1.1663
32634TIP3    H298785   6.274   3.351  10.545  0.5969  0.5719  1.0562
32635TIP3   OH298786   8.835   7.820   4.483  0.3428 -0.8282 -0.5579
32635TIP3    H198787   8.897   7.747   4.478  1.3707 -0.0558  0.3775
32635TIP3    H298788   8.861   7.868   4.562 -1.3022 -0.3294 -0.2760
32636TIP3   OH298789   4.692   8.803   0.130  0.0213 -0.5597  0.0278
32636TIP3    H198790   4.628   8.872   0.118 -1.5697 -2.1042 -0.8368
32636TIP3    H298791   4.640   8.724   0.148  1.5677 -2.1198 -1.8838
32637TIP3   OH298792   2.680   0.837   2.665  0.2423  0.5577 -0.5055
32637TIP3    H198793   2.740   0.820   2.592 -0.6837 -2.4211 -0.6833
32637TIP3    H298794   2.593   0.823   2.628 -0.2507 -1.1378  1.1746
32638TIP3   OH298795   8.224   0.467   6.045  0.5325  0.5337  0.4138
32638TIP3    H198796   8.211   0.470   6.140 -0.4247 -1.5657  0.4058
32638TIP3    H298797   8.319   0.479   6.034  0.5903  1.3003  1.5804
32639TIP3   OH298798   6.400   8.422   6.880  0.1735  0.2974 -0.0616
32639TIP3    H198799   6.412   8.385   6.967 -1.0239 -0.1848 -0.0816
32639TIP3    H298800   6.455   8.368   6.823 -1.7624 -1.7454 -0.1390
32640TIP3   OH298801   2.373   6.314   9.618 -0.3091 -0.5356 -0.5056
32640TIP3    H198802   2.297   6.280   9.570  0.2084 -0.0557 -1.7142
32640TIP3    H298803   2.408   6.383   9.561 -0.8252  1.4708  1.4695
32641TIP3   OH298804  10.396  10.689   1.179  0.1876 -0.3441 -0.0614
32641TIP3    H198805  10.325  10.745   1.210 -1.3850 -1.7473 -0.9771
32641TIP3    H298806  10.393  10.613   1.236 -0.8457 -1.6234 -1.7403
32642TIP3   OH298807  10.103   0.207   7.328 -0.0467  0.2283  0.1688
32642TIP3    H198808  10.155   0.126   7.329 -0.8070 -0.3425 -1.4171
32642TIP3    H298809  10.119   0.244   7.241 -2.1282  0.1063 -0.3250
32643TIP3   OH298810   5.067   7.134   6.814  0.4530  0.1502 -0.2844
32643TIP3    H198811   5.119   7.075   6.869  1.1957  1.8259  0.8889
32643TIP3    H298812   4.976   7.107   6.828  0.6524  0.3357  1.5490
32644TIP3   OH298813   0.528   5.413   7.126  0.7847  0.2775  0.8611
32644TIP3    H198814   0.593   5.460   7.073  0.6425 -0.3033  0.1530
32644TIP3    H298815   0.535   5.452   7.213  0.2576  2.0380  0.1647
32645TIP3   OH298816  10.874   3.301   2.942 -0.2191 -0.2678 -0.4264
32645TIP3    H198817  10.897   3.390   2.970 -0.8667 -0.5308  1.0406
32645TIP3    H298818  10.941   3.277   2.879 -1.3426  2.1713 -2.7565
32646TIP3   OH298819   8.834   6.749   1.822  0.3859 -0.3281  0.0717
32646TIP3    H198820   8.860   6.683   1.758  1.1199  1.1752 -1.2137
32646TIP3    H298821   8.743   6.770   1.799  0.9794  0.9939 -1.2337
32647TIP3   OH298822   3.794   8.661   0.886 -0.7570 -0.1765  0.2103
32647TIP3    H198823   3.850   8.737   0.901 -1.7820  0.8119 -0.7065
32647TIP3    H298824   3.781   8.622   0.972  1.6706 -0.7306  0.3969
32648TIP3   OH298825   0.452   9.767   7.303  0.4862  0.1304 -0.3435
32648TIP3    H198826   0.504   9.803   7.375  1.0881  0.8499 -1.1115
32648TIP3    H298827   0.503   9.692   7.271  0.6821  0.3601 -0.5864
32649TIP3   OH298828   1.201   3.372   8.942 -0.5043 -0.4720  0.2082
32649TIP3    H198829   1.181   3.280   8.925 -0.5507 -0.5313  0.5714
32649TIP3    H298830   1.126   3.420   8.909  0.4127 -0.3876 -1.9093
32650TIP3   OH298831   7.939   1.287   0.295  0.0545  0.3129 -0.7677
32650TIP3    H198832   7.961   1.260   0.206 -1.1445  0.8787 -1.2656
32650TIP3    H298833   7.871   1.354   0.284  0.0324  0.5518  0.5688
32651TIP3   OH298834   5.662   6.776   9.066  0.0200  0.7819 -0.3617
32651TIP3    H198835   5.749   6.754   9.034 -0.8625  0.1698 -2.5461
32651TIP3    H298836   5.605   6.710   9.025 -1.6430  2.0737 -0.2242
32652TIP3   OH298837   6.427   1.260   4.188  0.2375 -0.2902 -0.3576
32652TIP3    H198838   6.355   1.213   4.147  0.8273 -0.8650 -0.7714
32652TIP3    H298839   6.466   1.311   4.117  1.0514 -1.0199 -0.4492
32653TIP3   OH298840   4.384   7.813   4.904  0.6583  0.8649 -0.4329
32653TIP3    H198841   4.419   7.886   4.956  1.3231  0.2847 -0.0351
32653TIP3    H298842   4.336   7.760   4.967 -0.0740  1.1086 -0.7798
32654TIP3   OH298843   5.135   9.087   1.135 -0.9462  0.6525  0.5851
32654TIP3    H198844   5.157   9.060   1.224 -0.3141  0.6748  0.4400
32654TIP3    H298845   5.218   9.118   1.098 -0.9895 -0.2583 -0.3298
32655TIP3   OH298846   5.641   1.434   2.100 -0.6443  0.0847 -0.1823
32655TIP3    H198847   5.584   1.360   2.122  0.4362 -1.3328 -1.9163
32655TIP3    H298848   5.600   1.474   2.024  1.0670 -1.5463 -2.0626
32656TIP3   OH298849   9.911   0.563   0.755  0.1206  0.3060  0.4371
32656TIP3    H198850   9.989   0.606   0.790  0.6629  1.9714 -2.4478
32656TIP3    H298851   9.838   0.617   0.785  0.3915  0.5782  0.6094
32657TIP3   OH298852   9.640   0.658   9.927 -0.6093  0.1871 -0.1521
32657TIP3    H198853   9.732   0.647   9.903 -0.7544 -1.4353 -0.0324
32657TIP3    H298854   9.641   0.723   9.998  0.2783  1.3252 -1.1693
32658TIP3   OH298855   8.602   8.647   7.124  0.2917 -0.3455  0.4398
32658TIP3    H198856   8.545   8.601   7.186 -1.0355 -0.6258 -0.9225
32658TIP3    H298857   8.555   8.642   7.041  2.3307 -0.5780 -0.7620
32659TIP3   OH298858   7.381   4.353   9.751  0.2977 -0.1907  0.0150
32659TIP3    H198859   7.342   4.438   9.770  2.3385  1.1475 -1.3742
32659TIP3    H298860   7.345   4.294   9.818 -1.8785  1.5154  0.4436
32660TIP3   OH298861   4.172   5.323   8.695  0.4717  1.0391  0.3188
32660TIP3    H198862   4.124   5.320   8.612  1.5037 -0.7557 -0.2549
32660TIP3    H298863   4.106   5.350   8.759 -1.5472 -1.9236 -0.3338
32661TIP3   OH298864  10.122   2.169   0.281  0.2703 -0.2703  0.0498
32661TIP3    H198865  10.046   2.226   0.294  0.4178 -0.1067  0.2082
32661TIP3    H298866  10.100   2.089   0.329 -0.5284 -0.9016 -1.3168
32662TIP3   OH298867   3.974   3.791   0.950  0.2675 -0.6056 -0.1099
32662TIP3    H198868   3.989   3.697   0.956  1.0438 -0.6105 -1.5480
32662TIP3    H298869   4.049   3.830   0.994  0.8039 -0.6768 -0.9268
32663TIP3   OH298870  10.792   3.649   0.938  0.2682  0.2356 -0.3474
32663TIP3    H198871  10.710   3.600   0.933  0.6629 -0.3086 -2.1061
32663TIP3    H298872  10.765   3.741   0.943 -0.4380  0.0161  0.0204
32664TIP3   OH298873   1.267   7.605   6.493 -0.1790 -0.1019  0.7181
32664TIP3    H198874   1.276   7.654   6.575 -0.4031  0.1612  0.5839
32664TIP3    H298875   1.308   7.661   6.427 -0.0820 -0.2727  0.6325
32665TIP3   OH298876   4.901   2.444  10.628 -0.1653 -0.6187 -0.1464
32665TIP3    H198877   4.836   2.423  10.696 -0.3252 -2.1834 -0.7465
32665TIP3    H298878   4.858   2.422  10.546  1.6607 -3.5010 -0.4956
32666TIP3   OH298879   1.249   0.076   1.331 -0.2860  0.4476  0.3873
32666TIP3    H198880   1.301   0.090   1.253  0.9373 -0.4214  1.0085
32666TIP3    H298881   1.159   0.065   1.299  0.5482 -2.8667 -1.2655
32667TIP3   OH298882   3.122   4.302   7.131  0.7511 -0.2483 -0.2813
32667TIP3    H198883   3.032   4.313   7.164  0.8047  1.7020 -0.6603
32667TIP3    H298884   3.128   4.365   7.059  2.4988 -0.1783 -0.0983
32668TIP3   OH298885   2.419   5.010   3.805 -0.0812 -0.8121 -0.2816
32668TIP3    H198886   2.403   4.918   3.827 -1.2332 -0.4121  0.6738
32668TIP3    H298887   2.482   5.040   3.870 -0.7061 -0.5985  0.2421
32669TIP3   OH298888   9.906   0.433   2.510  0.4461  1.0011  0.6736
32669TIP3    H198889   9.904   0.502   2.444 -2.9520  1.4527  1.0499
32669TIP3    H298890   9.887   0.353   2.463 -1.7688  1.2940  0.9623
32670TIP3   OH298891   0.220   0.550   1.395 -0.1780 -0.0824  0.0531
32670TIP3    H198892   0.242   0.465   1.433  0.3283  0.0938  0.1595
32670TIP3    H298893   0.125   0.554   1.400 -0.2859 -1.0499 -0.8269
32671TIP3   OH298894   2.287   8.195   9.670 -0.0608  0.2979 -0.1769
32671TIP3    H198895   2.223   8.266   9.677  0.8350  0.9999  1.7218
32671TIP3    H298896   2.361   8.234   9.623  0.4055  0.6484  0.8109
32672TIP3   OH298897   7.048  10.806   4.278  0.9918 -0.3031  0.2779
32672TIP3    H198898   6.961  10.845   4.271  0.5750 -1.2481  0.0742
32672TIP3    H298899   7.101  10.874   4.320  0.3048  0.5007 -0.1236
32673TIP3   OH298900   7.440  10.718   8.568 -0.0449 -0.3803 -0.0913
32673TIP3    H198901   7.461  10.807   8.596  0.7721 -0.1589 -1.3646
32673TIP3    H298902   7.442  10.721   8.473 -1.4800 -1.4308 -0.1917
32674TIP3   OH298903   1.573   7.377   0.913 -0.2859  0.2588 -0.2425
32674TIP3    H198904   1.545   7.318   0.983 -0.5886  1.4998  0.7044
32674TIP3    H298905   1.573   7.464   0.953  0.7084  0.8404 -1.4509
32675TIP3   OH298906   7.378   5.929   5.208 -0.1882  0.3050  0.8753
32675TIP3    H198907   7.471   5.948   5.214 -0.5719  2.4776  0.7479
32675TIP3    H298908   7.373   5.852   5.151  1.5898 -1.0466  2.4053
32676TIP3   OH298909  10.728   3.883   6.389  0.2581  0.1503 -0.0972
32676TIP3    H198910  10.706   3.790   6.382  0.8898  0.0902 -1.6067
32676TIP3    H298911  10.715   3.918   6.301  1.6768  1.1105  0.0356
32677TIP3   OH298912   3.329   8.812   3.656 -0.3614 -0.3116  0.2620
32677TIP3    H198913   3.409   8.858   3.681 -1.4206  0.1285  3.3057
32677TIP3    H298914   3.323   8.738   3.716 -2.5635  0.1248  0.7066
32678TIP3   OH298915   5.359  10.628   6.373 -0.1814 -0.2741  0.0319
32678TIP3    H198916   5.385  10.678   6.450 -0.3715 -1.5415  0.9598
32678TIP3    H298917   5.282  10.673   6.339  0.4489  0.8183  0.0371
32679TIP3   OH298918   9.630   7.844   1.681 -0.4094 -0.2638 -0.1618
32679TIP3    H198919   9.653   7.822   1.591  0.4013  0.6884 -0.1996
32679TIP3    H298920   9.642   7.939   1.687  2.0466 -0.5877  1.6174
32680TIP3   OH298921   5.350   8.416   9.330 -0.5317 -0.4062 -0.1256
32680TIP3    H198922   5.366   8.475   9.256  0.4973 -1.7831 -1.0498
32680TIP3    H298923   5.418   8.438   9.393  0.6780 -1.4263 -1.0204
32681TIP3   OH298924   9.864   3.438   8.661 -0.0567  0.2792 -0.0085
32681TIP3    H198925   9.827   3.419   8.747  0.5266  0.4354  0.2797
32681TIP3    H298926   9.935   3.375   8.650  0.5746  0.9520  0.0923
32682TIP3   OH298927   7.421   8.267   3.586  0.0747  0.7086 -0.4076
32682TIP3    H198928   7.366   8.329   3.633  0.4466  1.2752 -0.7065
32682TIP3    H298929   7.361   8.220   3.528 -0.5861 -0.7758  1.3871
32683TIP3   OH298930   6.828   3.211   0.390  0.6041  0.2258 -0.8141
32683TIP3    H198931   6.907   3.193   0.441 -0.5590  1.8103  1.7315
32683TIP3    H298932   6.855   3.280   0.329  0.6988  2.5889  1.7310
32684TIP3   OH298933   0.591   8.824   1.853  0.2155 -0.3552 -0.0144
32684TIP3    H198934   0.551   8.748   1.811  1.0948 -0.8306 -0.0185
32684TIP3    H298935   0.643   8.788   1.925  0.9138  0.1911 -0.2240
32685TIP3   OH298936   2.965   8.594   4.498 -0.3343 -0.0356  0.5500
32685TIP3    H198937   2.895   8.651   4.464  0.1391 -0.2974 -0.9205
32685TIP3    H298938   3.039   8.653   4.512  0.5248 -0.3914 -2.0503
32686TIP3   OH298939  10.846   7.708   1.572  0.1501  0.2250  0.4006
32686TIP3    H198940  10.923   7.678   1.524  0.7247  3.3102 -0.8120
32686TIP3    H298941  10.772   7.671   1.524  0.8076  0.1641 -0.5949
32687TIP3   OH298942   5.346   4.862   2.814 -0.3008  0.4492  0.0128
32687TIP3    H198943   5.423   4.918   2.812  0.8192 -0.7469  3.1484
32687TIP3    H298944   5.377   4.777   2.783 -1.0644  0.5875 -1.1941
32688TIP3   OH298945   4.309  10.668   1.848 -0.4959 -0.0253  0.1691
32688TIP3    H198946   4.324  10.760   1.870 -0.0978  0.0007 -0.1980
32688TIP3    H298947   4.302  10.624   1.933 -1.0523  0.3958  0.3464
32689TIP3   OH298948   7.700   0.925   9.845 -0.1285  0.6832 -0.7578
32689TIP3    H198949   7.668   0.998   9.792 -1.2777  2.8542  2.5625
32689TIP3    H298950   7.621   0.882   9.877  0.4883 -0.1466 -0.3131
32690TIP3   OH298951   8.378   5.670  10.690  0.1445 -0.5329 -0.0234
32690TIP3    H198952   8.419   5.756  10.699 -1.9839  0.5503 -0.2126
32690TIP3    H298953   8.326   5.660  10.769 -1.2001 -0.7442 -0.9057
32691TIP3   OH298954   9.564   7.994  10.178  0.2873 -0.5811 -0.0919
32691TIP3    H198955   9.636   8.057  10.175  0.5977 -0.9525 -0.5702
32691TIP3    H298956   9.485   8.046  10.166  0.5386 -0.2717 -0.3981
32692TIP3   OH298957   7.728  10.045   2.999  0.2801  0.6977  0.7390
32692TIP3    H198958   7.754  10.074   3.086 -1.2576  0.8838  1.1677
32692TIP3    H298959   7.656   9.984   3.014 -0.9285  1.7581 -0.4216
32693TIP3   OH298960   4.478   5.223   8.635 -0.3492 -0.1113 -0.0952
32693TIP3    H198961   4.445   5.307   8.603 -0.0921  0.2408  0.5371
32693TIP3    H298962   4.461   5.225   8.729 -0.1623 -0.6820 -0.0462
32694TIP3   OH298963   3.229  10.471   7.178 -0.2649 -0.2067  0.1226
32694TIP3    H198964   3.217  10.507   7.266  1.6685 -0.7733  0.6731
32694TIP3    H298965   3.148  10.424   7.160 -1.3855  1.3593  0.8620
32695TIP3   OH298966   2.984   3.014   8.068  0.5993 -0.2206  0.3744
32695TIP3    H198967   2.962   3.039   8.158  1.7538 -0.2437  0.6844
32695TIP3    H298968   3.080   3.022   8.064  0.8325 -2.5300 -0.1325
32696TIP3   OH298969   6.142   7.328   2.263  0.0338  0.0538  0.1687
32696TIP3    H198970   6.183   7.304   2.346  0.7523  1.1727  0.1592
32696TIP3    H298971   6.048   7.319   2.280  0.2150 -1.1945  0.6228
32697TIP3   OH298972   0.308   3.917   8.646 -0.1836 -0.2444 -0.1958
32697TIP3    H198973   0.233   3.901   8.703  1.1354  0.6300  1.9214
32697TIP3    H298974   0.346   3.831   8.632 -0.4701 -0.4697  0.3510
32698TIP3   OH298975   2.886   7.616   5.484  0.2246  0.1215 -0.4029
32698TIP3    H198976   2.943   7.546   5.454 -1.2353 -0.6946 -1.4410
32698TIP3    H298977   2.901   7.687   5.422  1.7017  0.7535  0.6457
32699TIP3   OH298978   2.130  10.786   1.455  0.4460 -0.0806 -0.6476
32699TIP3    H198979   2.160  10.711   1.404 -0.9309 -1.8441  0.9751
32699TIP3    H298980   2.196  10.853   1.440  2.9866 -2.3560 -0.4689
32700TIP3   OH298981   4.521   1.257   0.264 -0.2713 -0.5557  0.0699
32700TIP3    H198982   4.464   1.206   0.321  1.1790 -1.1912  0.9890
32700TIP3    H298983   4.497   1.348   0.281 -0.2986 -0.7687  1.2218
32701TIP3   OH298984   9.707   8.335   1.095 -0.0631  0.6828 -0.2645
32701TIP3    H198985   9.795   8.307   1.121 -0.3469 -0.3925 -0.4049
32701TIP3    H298986   9.676   8.387   1.169  0.1783 -0.0693  0.3814
32702TIP3   OH298987   5.429   2.336   1.637  0.0279  0.4294 -0.5638
32702TIP3    H198988   5.428   2.414   1.581 -0.4048  0.2780 -0.7658
32702TIP3    H298989   5.388   2.268   1.584  1.1748 -0.1623 -0.7089
32703TIP3   OH298990   5.220  10.683  10.678 -0.1566 -0.4035 -0.0344
32703TIP3    H198991   5.230  10.638  10.762  1.9411  0.1204  0.0570
32703TIP3    H298992   5.281  10.638  10.619 -0.2592  0.3882 -0.7627
32704TIP3   OH298993   5.668   7.583  10.741 -0.3202  0.7746 -0.0194
32704TIP3    H198994   5.675   7.657  10.681  0.1318  0.7831  0.0392
32704TIP3    H298995   5.627   7.514  10.688  0.5603  0.6074 -0.5105
32705TIP3   OH298996   8.874   6.706   0.060  0.2715  0.3511 -0.5740
32705TIP3    H198997   8.803   6.768   0.073 -0.2601 -0.2253 -0.6994
32705TIP3    H298998   8.930   6.717   0.136 -0.7771 -0.2899  0.3104
32706TIP3   OH298999   0.865   2.363   3.239 -0.3054 -0.1132  0.5150
32706TIP3    H199000   0.934   2.393   3.298 -1.3408 -0.3007  1.8696
32706TIP3    H299001   0.910   2.345   3.156  1.5433 -1.6912  1.7901
32707TIP3   OH299002   9.951   9.581   3.988 -0.0928 -0.0816  0.5965
32707TIP3    H199003   9.887   9.549   3.924  0.9870 -0.1092 -0.5218
32707TIP3    H299004   9.919   9.668   4.013 -0.8621 -0.3285  0.4876
32708TIP3   OH299005   0.415   4.468   5.316 -0.3512 -0.2006  0.2877
32708TIP3    H199006   0.342   4.529   5.317  0.8727  1.3711 -0.9085
32708TIP3    H299007   0.413   4.425   5.402 -1.9506  0.6437  0.6966
32709TIP3   OH299008   0.474   3.349   2.780 -0.3306 -0.0400  0.0625
32709TIP3    H199009   0.385   3.374   2.807 -0.3528  0.1936 -0.2264
32709TIP3    H299010   0.480   3.376   2.689 -0.6031 -1.7372 -0.4935
32710TIP3   OH299011   9.762  10.036   7.654  0.0505 -0.3252 -0.2067
32710TIP3    H199012   9.816  10.115   7.666 -0.2384 -0.1156 -0.2907
32710TIP3    H299013   9.675  10.069   7.631  0.3971 -0.6857 -2.2695
32711TIP3   OH299014   5.303   3.645   1.711 -0.1895  0.2958 -0.0259
32711TIP3    H199015   5.289   3.722   1.655 -1.7287  0.5660  0.6812
32711TIP3    H299016   5.216   3.608   1.724  0.0977  0.2735  2.2096
32712TIP3   OH299017   7.450   7.805  10.826 -0.3258 -0.5749 -0.5500
32712TIP3    H199018   7.491   7.878  10.780 -2.0600  1.0968  0.4259
32712TIP3    H299019   7.524   7.750  10.855  1.3373  2.4218  1.3970
32713TIP3   OH299020   6.263  10.742   3.668  0.2922  0.7821 -0.3826
32713TIP3    H199021   6.287  10.654   3.696  0.7897  0.9401 -0.2995
32713TIP3    H299022   6.295  10.799   3.739  2.7304  1.3214 -1.7948
32714TIP3   OH299023   8.528   2.924   4.290 -0.2513 -0.0911  0.0455
32714TIP3    H199024   8.578   2.980   4.230 -1.8378  2.5654  1.0124
32714TIP3    H299025   8.590   2.904   4.361  0.5057 -0.0212 -0.5746
32715TIP3   OH299026   5.317   9.234   7.827 -0.6757 -0.1156  0.0380
32715TIP3    H199027   5.392   9.251   7.883 -0.6977 -2.1294  0.7569
32715TIP3    H299028   5.243   9.224   7.888 -1.3692  0.9283 -0.5945
32716TIP3   OH299029   8.664   0.768   8.153 -0.4537  0.1455 -0.0378
32716TIP3    H199030   8.749   0.763   8.197 -0.9994 -1.6579  0.9234
32716TIP3    H299031   8.676   0.720   8.072  0.1389  2.2202 -1.2658
32717TIP3   OH299032   9.725   4.568   5.943 -0.5923  0.6687  0.3271
32717TIP3    H199033   9.690   4.553   5.855 -3.5068  1.8150  1.2078
32717TIP3    H299034   9.815   4.598   5.927 -0.8030  0.2444 -2.1953
32718TIP3   OH299035   2.511   3.607   1.848  0.8057  0.1584 -0.1928
32718TIP3    H199036   2.418   3.586   1.847  0.5734  1.1827 -1.0634
32718TIP3    H299037   2.527   3.641   1.936  0.5749 -0.8682  0.2683
32719TIP3   OH299038   4.338   6.704   3.712 -0.3809 -0.4689 -0.4910
32719TIP3    H199039   4.353   6.714   3.618 -0.7791  1.8174 -0.3585
32719TIP3    H299040   4.418   6.661   3.744  1.1519  1.5192 -1.4360
32720TIP3   OH299041   9.849   4.811   9.313 -0.4099  0.0082  0.7648
32720TIP3    H199042   9.944   4.799   9.319 -0.7336 -5.0766 -0.0243
32720TIP3    H299043   9.834   4.836   9.222  0.1534 -1.3992  0.2446
32721TIP3   OH299044   5.186  10.347   3.547  0.0560 -0.3863  0.0813
32721TIP3    H199045   5.163  10.254   3.546 -0.5198 -0.2440 -0.1568
32721TIP3    H299046   5.105  10.392   3.526  0.2291  0.1997  0.6596
32722TIP3   OH299047   2.946   2.810  10.180  0.4519 -0.1370  0.3103
32722TIP3    H199048   2.946   2.719  10.151  0.7547  0.1524 -0.6137
32722TIP3    H299049   3.038   2.831  10.194  0.5743  0.5931 -1.3471
32723TIP3   OH299050   7.872   8.309   8.676 -0.4403 -0.2016  0.3073
32723TIP3    H199051   7.883   8.315   8.771 -1.2479  1.2094  0.3442
32723TIP3    H299052   7.933   8.241   8.649 -1.1249 -1.5601  1.9948
32724TIP3   OH299053   4.488   3.482   1.329  0.5585 -0.1064 -0.3134
32724TIP3    H199054   4.403   3.439   1.329  0.8533 -0.7212  0.6445
32724TIP3    H299055   4.541   3.431   1.267  0.5441 -0.3759 -0.1033
32725TIP3   OH299056   8.694   9.957   0.784  0.6531 -0.1878 -0.2378
32725TIP3    H199057   8.781   9.921   0.767  0.9165  0.5894 -0.5736
32725TIP3    H299058   8.701  10.050   0.760  0.5033  0.5575  2.2933
32726TIP3   OH299059   0.929   8.063   0.208  0.7823  0.5668  0.1211
32726TIP3    H199060   0.952   8.116   0.285  0.9841  0.8933 -0.1576
32726TIP3    H299061   0.845   8.098   0.179  0.8126  0.5919  0.0634
32727TIP3   OH299062   9.048   3.118   3.753  0.3554 -0.4647 -0.0186
32727TIP3    H199063   8.955   3.116   3.774  0.6327  0.1662  1.3857
32727TIP3    H299064   9.083   3.037   3.790  0.0407 -1.7973 -2.4404
32728TIP3   OH299065   9.297   2.940   4.915  0.3289  0.1410 -0.9370
32728TIP3    H199066   9.339   2.872   4.967 -0.2383  0.9105  0.5894
32728TIP3    H299067   9.366   2.972   4.856  1.2195 -0.1924 -0.0967
32729TIP3   OH299068   4.562   9.845   6.582  0.0504  0.3438  0.4753
32729TIP3    H199069   4.476   9.802   6.586  0.1025  0.1844 -0.0719
32729TIP3    H299070   4.568   9.894   6.664 -1.0486  1.2624  0.0457
32730TIP3   OH299071   6.053   9.030   9.889 -0.4145  0.7801 -0.2089
32730TIP3    H199072   6.077   9.091   9.820 -1.1337  2.7327  1.1441
32730TIP3    H299073   5.957   9.036   9.894 -0.4663 -0.1626  0.2277
32731TIP3   OH299074  10.050   6.051   7.937 -0.0552  0.7500 -0.1783
32731TIP3    H199075  10.009   6.052   7.850 -0.7631 -0.4886  0.1075
32731TIP3    H299076   9.982   6.082   7.996 -0.1540 -0.0205  0.1298
32732TIP3   OH299077   5.975   0.223   3.578 -0.1042 -0.1994 -0.4145
32732TIP3    H199078   5.970   0.127   3.582 -1.1029 -0.0975  1.3330
32732TIP3    H299079   5.914   0.247   3.508  0.7235 -0.8506 -1.3970
32733TIP3   OH299080   6.045   9.844   7.797  0.2748  0.4190 -0.3386
32733TIP3    H199081   6.009   9.805   7.718 -0.2263  0.1327  0.0317
32733TIP3    H299082   5.969   9.869   7.849  0.4451 -3.0935  1.9353
32734TIP3   OH299083   5.476   3.095   2.650 -0.2948  0.6280  0.1873
32734TIP3    H199084   5.396   3.044   2.662 -0.8227  1.5391  0.6125
32734TIP3    H299085   5.530   3.040   2.593 -1.0693 -0.1592  0.1810
32735TIP3   OH299086   3.951   1.682   1.409 -0.4688  0.1148 -0.2353
32735TIP3    H199087   4.037   1.725   1.401  0.2109 -1.0770  0.3226
32735TIP3    H299088   3.940   1.669   1.503 -1.3767  0.4696 -0.2898
32736TIP3   OH299089   4.211   7.924   0.602  0.2870 -0.3081  0.5693
32736TIP3    H199090   4.177   7.909   0.514  1.7152 -1.1146  0.1080
32736TIP3    H299091   4.135   7.918   0.659 -1.1207  2.7228 -0.7772
32737TIP3   OH299092  10.830   3.562   1.236  0.0070  0.1853 -0.0804
32737TIP3    H199093  10.849   3.470   1.256 -0.5857  0.0813  0.0102
32737TIP3    H299094  10.888   3.583   1.163 -0.5269 -0.5354 -0.7185
32738TIP3   OH299095   7.063   2.092   1.396  0.2817  0.1391  0.4122
32738TIP3    H199096   7.009   2.065   1.471  0.2517 -1.1799 -0.0619
32738TIP3    H299097   7.027   2.177   1.371 -1.6505 -0.7259  0.0671
32739TIP3   OH299098   9.558   4.835   2.624  0.5635  0.1126 -0.6048
32739TIP3    H199099   9.585   4.810   2.712 -1.6364  0.2347  0.1668
32739TIP3    H299100   9.524   4.755   2.585 -3.4071  0.9267  0.6840
32740TIP3   OH299101   6.672   0.715   8.066 -0.3367 -0.3118  0.3576
32740TIP3    H199102   6.725   0.637   8.046 -0.9989 -0.9937  1.1660
32740TIP3    H299103   6.585   0.694   8.033 -1.0203 -0.7682  2.2893
32741TIP3   OH299104   1.040   4.998   9.672 -0.0667  0.9740  0.0276
32741TIP3    H199105   0.984   5.072   9.651 -1.4077  0.1955  0.6997
32741TIP3    H299106   1.003   4.925   9.622  0.7825  0.5851 -0.0522
32742TIP3   OH299107   9.232   4.658   4.859 -0.9887 -0.0863  0.4571
32742TIP3    H199108   9.196   4.607   4.931 -0.9788 -1.1589 -0.2623
32742TIP3    H299109   9.317   4.617   4.841  0.0163  1.5558  1.2507
32743TIP3   OH299110   1.191   8.388   8.531  0.1121 -0.4551  0.0856
32743TIP3    H199111   1.131   8.441   8.478  0.7832  0.4025  0.1590
32743TIP3    H299112   1.278   8.417   8.505  0.4788 -1.0578  0.6176
32744TIP3   OH299113   8.840   3.679   5.809 -0.0305 -0.3009  0.0922
32744TIP3    H199114   8.935   3.683   5.816  0.0713 -1.9670  0.1062
32744TIP3    H299115   8.809   3.683   5.899 -0.0455  1.0232  0.0503
32745TIP3   OH299116  10.326   6.863   4.439 -0.2157 -0.1824  0.3263
32745TIP3    H199117  10.360   6.897   4.522  1.4446 -2.0473  0.4659
32745TIP3    H299118  10.326   6.938   4.380  0.3861  0.7406  1.4690
32746TIP3   OH299119   6.829   5.893   6.615 -0.2578  0.0196 -0.7064
32746TIP3    H199120   6.912   5.933   6.642  0.4281 -1.4291 -0.5987
32746TIP3    H299121   6.767   5.965   6.618  0.6725  0.8341  0.6689
32747TIP3   OH299122   4.988   9.573   6.180 -0.5475 -0.2795 -0.3637
32747TIP3    H199123   4.991   9.569   6.084 -0.3092  0.9609 -0.4204
32747TIP3    H299124   5.055   9.512   6.208 -1.1230 -1.2211 -0.9635
32748TIP3   OH299125  10.347   5.469   3.327  0.2196 -0.0405 -0.0716
32748TIP3    H199126  10.388   5.420   3.398  0.2191 -0.0504 -0.0778
32748TIP3    H299127  10.272   5.416   3.301 -0.3227  0.4163  0.5385
32749TIP3   OH299128   2.337   1.897   9.051 -0.1372  0.5042 -0.6055
32749TIP3    H199129   2.367   1.970   8.997  0.1247  2.0834  1.5589
32749TIP3    H299130   2.243   1.893   9.036 -0.2203  1.5812 -0.4586
32750TIP3   OH299131   1.799   4.368   9.800 -0.0160 -0.2998 -0.1698
32750TIP3    H199132   1.790   4.289   9.853 -1.6627 -1.1449 -1.6194
32750TIP3    H299133   1.725   4.366   9.740  0.6950  1.6264 -1.2166
32751TIP3   OH299134   7.285   2.797   5.102  0.0055  0.8229 -0.3985
32751TIP3    H199135   7.203   2.824   5.143 -0.6231 -0.7146 -0.5567
32751TIP3    H299136   7.262   2.782   5.010  0.7097  1.3777 -0.6733
32752TIP3   OH299137   5.582   6.737   9.365  0.9453 -0.3625 -0.1722
32752TIP3    H199138   5.587   6.788   9.446 -0.4333 -0.5565  0.0608
32752TIP3    H299139   5.567   6.802   9.296  1.1790 -0.2795 -0.1449
32753TIP3   OH299140   4.196  10.309   5.263  0.5602 -0.1011  0.3331
32753TIP3    H199141   4.161  10.228   5.298 -2.6025  0.6232 -0.8341
32753TIP3    H299142   4.192  10.371   5.336  0.1119 -0.2452  0.4328
32754TIP3   OH299143   3.332   3.312   7.536  0.3373 -0.2240 -0.5094
32754TIP3    H199144   3.328   3.383   7.601  1.1739 -0.9853  0.4139
32754TIP3    H299145   3.254   3.260   7.552  0.2092 -0.0448 -0.5489
32755TIP3   OH299146   5.700   5.642   9.644 -0.0542  0.0670 -0.3084
32755TIP3    H199147   5.636   5.669   9.578  1.7579  0.4816 -1.9581
32755TIP3    H299148   5.743   5.723   9.670 -0.6297 -0.1070  1.3522
32756TIP3   OH299149   3.372   7.023   3.217 -0.2963 -0.1033  0.3269
32756TIP3    H199150   3.451   7.078   3.216 -0.7794  0.6623  1.6036
32756TIP3    H299151   3.391   6.955   3.281 -0.6604  0.0695  0.6184
32757TIP3   OH299152   8.532   5.611   9.870 -0.2587 -0.1639  0.6462
32757TIP3    H199153   8.473   5.640   9.939  0.1204  0.7973  0.5828
32757TIP3    H299154   8.477   5.563   9.809 -1.4155  2.3435 -0.4239
32758TIP3   OH299155   1.785   5.533   6.972  0.5172 -0.0384 -0.0463
32758TIP3    H199156   1.787   5.574   6.886 -1.2825  1.0402  0.3963
32758TIP3    H299157   1.744   5.597   7.029 -0.9138 -1.8018  1.0249
32759TIP3   OH299158   4.734   7.682   7.920  0.1963  0.0450  0.2126
32759TIP3    H199159   4.655   7.636   7.948 -0.2888  0.7591  0.0555
32759TIP3    H299160   4.729   7.767   7.964  1.2398 -0.1519  0.7590
32760TIP3   OH299161   2.575   0.605   4.752 -0.0200 -0.4451  0.1675
32760TIP3    H199162   2.516   0.638   4.685 -1.0146 -0.6337  0.9261
32760TIP3    H299163   2.662   0.609   4.712 -0.1291  2.5972  0.0419
32761TIP3   OH299164   6.822   3.903   7.314 -0.5340  0.6484  0.2000
32761TIP3    H199165   6.844   3.811   7.300  1.6645  0.9178  1.3704
32761TIP3    H299166   6.760   3.902   7.387 -0.6180  0.0727  0.1214
32762TIP3   OH299167   6.294  10.562   9.512 -0.4207 -0.2542  0.0046
32762TIP3    H199168   6.248  10.560   9.428  0.4088  2.3317 -0.5879
32762TIP3    H299169   6.225  10.575   9.577 -1.0274 -1.8818 -0.2673
32763TIP3   OH299170   9.428   5.893   4.982 -0.3841  0.0835  0.7245
32763TIP3    H199171   9.390   5.817   4.940 -2.2778  0.4259  1.7492
32763TIP3    H299172   9.375   5.967   4.952  0.3761  0.7897  1.0510
32764TIP3   OH299173   1.822   1.269   2.995 -0.2273 -0.1119 -0.4686
32764TIP3    H199174   1.908   1.299   3.024  0.3101 -3.0953  1.4252
32764TIP3    H299175   1.812   1.307   2.908  1.8691  2.3315  0.2263
32765TIP3   OH299176   0.073   2.931   2.015  0.1724  0.2448 -0.3487
32765TIP3    H199177   0.004   2.932   1.948 -0.2746 -2.4791 -0.0733
32765TIP3    H299178   0.052   2.854   2.069  2.2124  0.6237  1.0890
32766TIP3   OH299179   4.242   5.628   1.734 -0.1252  0.4709  0.8491
32766TIP3    H199180   4.161   5.659   1.775 -0.0513  1.7830  0.0626
32766TIP3    H299181   4.243   5.534   1.751 -3.2574 -0.1313 -1.4348
32767TIP3   OH299182   8.772   5.411   3.271 -0.6043  0.5433  0.2695
32767TIP3    H199183   8.779   5.487   3.213 -1.4156 -0.2608 -0.9122
32767TIP3    H299184   8.678   5.401   3.287 -0.4428  0.3189  1.1603
32768TIP3   OH299185   6.866   0.942   9.487 -0.2242 -0.2196  0.3259
32768TIP3    H199186   6.919   0.991   9.425 -1.3261 -0.7313 -1.0723
32768TIP3    H299187   6.928   0.911   9.553  0.9705  0.3886 -0.4788
32769TIP3   OH299188   1.104   3.275   7.125 -0.1663 -0.4238  0.3118
32769TIP3    H199189   1.176   3.215   7.105  0.0616 -0.0471 -0.0076
32769TIP3    H299190   1.131   3.359   7.088 -1.2805 -0.5525 -0.8622
32770TIP3   OH299191   9.789   6.602   3.569 -0.8053 -0.1560  0.1511
32770TIP3    H199192   9.769   6.527   3.513 -2.3661  0.9284 -0.8588
32770TIP3    H299193   9.884   6.609   3.568 -0.6688 -1.7037 -0.2733
32771TIP3   OH299194  10.830   2.331  10.811  0.3173 -0.2320 -0.0559
32771TIP3    H199195  10.884   2.372  10.879  0.1309 -0.7914  0.4417
32771TIP3    H299196  10.740   2.354  10.835  0.3410  1.0224 -1.1007
32772TIP3   OH299197   8.566   9.254   5.467  0.4197 -0.2623 -0.3257
32772TIP3    H199198   8.578   9.279   5.375  0.0362  2.7557  0.3144
32772TIP3    H299199   8.547   9.337   5.511 -0.7476 -1.8038  2.2750
32773TIP3   OH299200   3.256   3.273   4.910 -0.4495 -0.3194  0.1722
32773TIP3    H199201   3.171   3.242   4.878 -0.9652  0.1067  1.1235
32773TIP3    H299202   3.237   3.315   4.993  0.5087  0.9869 -0.2463
32774TIP3   OH299203   8.049   0.300   5.029 -0.2233  0.1374 -0.0480
32774TIP3    H199204   8.086   0.335   5.110  0.0047 -0.7179  0.2338
32774TIP3    H299205   8.123   0.296   4.968 -0.1703 -0.1579  0.0313
32775TIP3   OH299206   4.247   9.105   4.840  0.2465  0.0361 -0.3699
32775TIP3    H199207   4.176   9.117   4.778  1.2857  1.0969 -1.4102
32775TIP3    H299208   4.257   9.190   4.883  0.0200 -0.4813  0.7574
32776TIP3   OH299209   8.248   5.530   7.516 -0.1104  0.5781 -0.2091
32776TIP3    H199210   8.294   5.587   7.577  0.0165  0.5844 -0.3102
32776TIP3    H299211   8.157   5.532   7.545 -0.2204  1.3314 -0.5963
32777TIP3   OH299212   3.264  10.599   6.896 -0.0753  0.4067 -0.3708
32777TIP3    H199213   3.257  10.611   6.801  2.0775  1.0060 -0.5218
32777TIP3    H299214   3.336  10.537   6.907 -0.7223 -0.1565  0.8753
32778TIP3   OH299215  10.210   0.807  10.338  0.0874 -0.0662  0.0863
32778TIP3    H199216  10.243   0.869  10.274 -2.1111 -0.4549 -1.5510
32778TIP3    H299217  10.144   0.756  10.290 -1.4130 -0.6176  2.5704
32779TIP3   OH299218   5.222   4.718   3.796  0.0889  0.2210 -0.3712
32779TIP3    H199219   5.269   4.797   3.770 -0.8356  0.4237 -1.5017
32779TIP3    H299220   5.285   4.669   3.849  1.6408  0.3684 -1.9926
32780TIP3   OH299221   8.472   1.344   3.362 -0.0594 -0.5368 -0.8434
32780TIP3    H199222   8.402   1.348   3.427 -1.5870 -1.2121 -2.3848
32780TIP3    H299223   8.435   1.384   3.284  0.8215 -1.9799 -2.0657
32781TIP3   OH299224   9.553   6.885   6.458  0.3754 -0.2111 -0.1905
32781TIP3    H199225   9.584   6.848   6.541 -1.4531 -0.0928  0.5883
32781TIP3    H299226   9.539   6.978   6.476  1.5783  0.1786 -1.1424
32782TIP3   OH299227   0.364   7.513   8.468 -0.1140  0.2883 -0.6398
32782TIP3    H199228   0.349   7.419   8.466  0.8666  0.1151 -0.4301
32782TIP3    H299229   0.364   7.540   8.376 -0.1191  0.0320 -0.7139
32783TIP3   OH299230   6.955   8.927  10.495  0.4638 -0.1320  0.3873
32783TIP3    H199231   6.906   8.854  10.532  0.8543  0.4489  2.1167
32783TIP3    H299232   6.973   8.985  10.569  1.0464  1.2219 -0.7593
32784TIP3   OH299233   2.649   8.395   8.188 -0.2717 -0.3344 -0.7308
32784TIP3    H199234   2.687   8.340   8.257  0.9774 -2.1956 -2.7798
32784TIP3    H299235   2.598   8.334   8.134 -2.2133  1.2869 -0.8515
32785TIP3   OH299236   1.698   5.095   1.824  0.3576  0.0307  0.6478
32785TIP3    H199237   1.663   5.043   1.896  0.5098 -1.1491 -0.0968
32785TIP3    H299238   1.788   5.115   1.850  0.8961 -1.6528  0.1670
32786TIP3   OH299239   9.957   1.178   3.865  0.1690 -0.2531  0.0362
32786TIP3    H199240  10.042   1.135   3.853 -0.0579 -0.8752  0.6218
32786TIP3    H299241   9.955   1.202   3.958  0.4322  1.3579 -0.3265
32787TIP3   OH299242   7.952   3.416   5.066 -0.6938  0.6992 -0.1423
32787TIP3    H199243   8.018   3.386   5.004  1.3967  1.0707  1.7725
32787TIP3    H299244   7.896   3.475   5.016 -0.1338 -0.3159 -2.0431
32788TIP3   OH299245   7.309   4.465   7.909 -0.0749 -0.1334  0.0372
32788TIP3    H199246   7.334   4.440   7.998 -1.4266  0.4738  0.6057
32788TIP3    H299247   7.255   4.543   7.920 -0.4033 -0.1495 -1.3100
32789TIP3   OH299248   7.484   9.946   5.513 -0.6888  0.0362 -0.5472
32789TIP3    H199249   7.484   9.984   5.425 -2.3605  0.8707 -0.2200
32789TIP3    H299250   7.480   9.851   5.498  0.9509  0.0645 -1.3503
32790TIP3   OH299251   1.433   2.431   7.260 -0.4218  0.1760  0.4371
32790TIP3    H199252   1.416   2.494   7.330 -0.3509  0.7373 -0.0388
32790TIP3    H299253   1.491   2.366   7.299 -0.7075  0.2640  1.0117
32791TIP3   OH299254   6.324   4.973   8.711 -0.0724 -0.1054 -0.1625
32791TIP3    H199255   6.419   4.985   8.709  0.4384 -3.1710  0.5977
32791TIP3    H299256   6.310   4.893   8.761 -2.9437 -0.8149 -1.8369
32792TIP3   OH299257   4.128   6.162   9.830 -0.2032 -0.3483 -0.1000
32792TIP3    H199258   4.064   6.160   9.759  1.0214  0.2617 -1.2597
32792TIP3    H299259   4.171   6.247   9.822  1.4144 -1.1129  0.0458
32793TIP3   OH299260   0.575   5.044   2.320  0.9228  0.4350 -0.0886
32793TIP3    H199261   0.620   5.127   2.339  1.4034  0.1709 -0.0375
32793TIP3    H299262   0.632   5.001   2.256 -0.0630  0.7815 -1.2182
32794TIP3   OH299263   0.684   1.866   6.347  0.1748 -0.2594  0.1447
32794TIP3    H199264   0.656   1.911   6.267  3.9975 -0.5292 -1.5224
32794TIP3    H299265   0.661   1.927   6.417 -0.0785  1.6407 -1.4924
32795TIP3   OH299266  10.687   1.605   1.434 -0.0317 -0.2421  0.4896
32795TIP3    H199267  10.659   1.518   1.461  0.2823 -0.5999 -0.2952
32795TIP3    H299268  10.769   1.590   1.387 -0.2601  0.4231 -0.1342
32796TIP3   OH299269   5.719   6.001   0.759  0.8897  0.0955 -1.1966
32796TIP3    H199270   5.740   6.047   0.678 -0.2344 -1.4240 -2.4076
32796TIP3    H299271   5.645   5.945   0.737 -1.6245  1.9480  1.7283
32797TIP3   OH299272  10.722   5.280   2.047 -0.9099  0.3538 -0.3554
32797TIP3    H199273  10.754   5.366   2.021 -0.8722  1.4301  2.7702
32797TIP3    H299274  10.798   5.222   2.042 -0.5072  0.9259 -0.8217
32798TIP3   OH299275   7.607   4.480   6.090 -0.0663  0.1582 -0.0814
32798TIP3    H199276   7.615   4.396   6.135 -1.8628  0.6859  1.3056
32798TIP3    H299277   7.683   4.530   6.120  0.5713 -0.6627 -0.2864
32799TIP3   OH299278   4.364   4.383   3.163 -0.4433 -0.7356 -0.0903
32799TIP3    H199279   4.397   4.389   3.073  0.5153  1.4424  0.3504
32799TIP3    H299280   4.438   4.349   3.214  0.5328  2.0591  0.5226
32800TIP3   OH299281   7.209   1.750   3.174 -0.2893 -0.0142 -0.1256
32800TIP3    H199282   7.119   1.781   3.167  0.1290  1.0510 -1.3339
32800TIP3    H299283   7.240   1.786   3.257 -0.8555 -0.0606  0.1123
32801TIP3   OH299284   9.148   9.053   2.289 -0.0055 -0.2015  0.4998
32801TIP3    H199285   9.074   9.055   2.228  0.0912 -1.6550  0.2915
32801TIP3    H299286   9.183   9.142   2.288 -1.3632  0.3506  0.1262
32802TIP3   OH299287   5.372   7.373   4.502 -0.0866  0.1465 -0.7484
32802TIP3    H199288   5.333   7.434   4.441  0.2859  1.4304  0.2494
32802TIP3    H299289   5.466   7.391   4.498  0.1040 -0.8224 -0.9134
32803TIP3   OH299290   7.502   3.179   5.589 -0.8080  0.7708  0.0900
32803TIP3    H199291   7.412   3.204   5.611 -0.6685  2.0364 -0.7101
32803TIP3    H299292   7.550   3.262   5.584 -0.0194  0.2669 -1.3031
32804TIP3   OH299293  10.438   4.863   4.338 -0.3909  0.4949  0.1523
32804TIP3    H199294  10.464   4.835   4.251 -0.8087  0.9025 -0.1050
32804TIP3    H299295  10.385   4.791   4.372 -0.5948  0.5241 -0.1012
32805TIP3   OH299296   3.072   0.828   4.281 -0.0367  0.1368  0.1169
32805TIP3    H199297   2.992   0.824   4.333  0.4110  0.8829  0.8877
32805TIP3    H299298   3.140   0.789   4.337  0.1276 -0.5867 -0.5683
32806TIP3   OH299299   3.023   0.558   6.321  0.3625 -0.3786  0.2918
32806TIP3    H199300   3.024   0.477   6.373  0.8109  1.1256  2.7992
32806TIP3    H299301   3.093   0.545   6.257  0.0370 -2.1824  0.2382
32807TIP3   OH299302   6.730   7.770  10.137  0.5088  0.4526  0.3461
32807TIP3    H199303   6.652   7.826  10.137  0.7795  0.8283 -0.0693
32807TIP3    H299304   6.710   7.701  10.074  1.2792  1.6374 -1.2662
32808TIP3   OH299305   4.899   3.860   5.869  0.4810  0.5814  0.1299
32808TIP3    H199306   4.870   3.935   5.922  0.5718  1.7370 -1.3815
32808TIP3    H299307   4.818   3.818   5.839  0.4090  0.8303 -0.0285
32809TIP3   OH299308   7.720   9.562   1.232  0.0158 -0.2498 -0.1987
32809TIP3    H199309   7.783   9.633   1.247 -1.0224  0.6703 -0.0406
32809TIP3    H299310   7.761   9.507   1.166  3.0085 -2.2318  2.9628
32810TIP3   OH299311   1.151   3.829   1.187  0.5614 -0.1621 -0.3153
32810TIP3    H199312   1.192   3.853   1.104  2.3772 -0.8248  0.3409
32810TIP3    H299313   1.075   3.887   1.194 -0.0921 -0.5924 -2.7741
32811TIP3   OH299314   4.759  10.534   9.133 -0.4300  0.8729 -0.1679
32811TIP3    H199315   4.717  10.578   9.059 -1.7807  2.1252  1.2783
32811TIP3    H299316   4.717  10.572   9.211 -0.8612 -2.1767  1.2130
32812TIP3   OH299317   3.052   9.697   2.624 -0.1922  0.3507  0.1056
32812TIP3    H199318   2.990   9.629   2.649 -0.1839  0.5926  0.8047
32812TIP3    H299319   3.138   9.657   2.635 -0.2085  0.0013 -0.9057
32813TIP3   OH299320   5.020   0.600   8.977  0.4688 -0.0159 -0.3349
32813TIP3    H199321   5.030   0.527   8.917 -0.6749 -0.4772  0.0069
32813TIP3    H299322   5.066   0.673   8.935  2.1472 -1.0580 -0.3956
32814TIP3   OH299323   3.200   9.249  10.399 -0.4774 -0.0180 -0.1810
32814TIP3    H199324   3.128   9.307  10.374 -0.1691  0.8196  0.7869
32814TIP3    H299325   3.207   9.187  10.327 -0.5162  1.4493 -1.5093
32815TIP3   OH299326   0.330   4.891  10.457  0.1236 -0.4062  0.0781
32815TIP3    H199327   0.409   4.877  10.405  2.0269  1.6753  2.1496
32815TIP3    H299328   0.270   4.939  10.400  0.5081 -1.5893 -1.3730
32816TIP3   OH299329   0.267   0.902   2.690 -0.4765 -0.3321  0.4973
32816TIP3    H199330   0.319   0.913   2.769 -1.3874 -0.7381  1.1811
32816TIP3    H299331   0.289   0.815   2.658 -2.2614 -1.4283  2.0131
32817TIP3   OH299332   2.474   7.349   2.213  0.3720  0.5429 -0.1235
32817TIP3    H199333   2.515   7.421   2.262 -1.4583  1.3826  0.2501
32817TIP3    H299334   2.448   7.286   2.280  0.2560  0.4357 -0.2671
32818TIP3   OH299335   5.535   4.934   5.486  0.1881  0.2095 -0.8915
32818TIP3    H199336   5.549   4.899   5.574  1.7231 -1.5324 -1.7593
32818TIP3    H299337   5.504   5.024   5.500  1.9626  0.5508  1.4001
32819TIP3   OH299338   9.374   2.684   8.129 -0.6661  0.1545 -0.5905
32819TIP3    H199339   9.440   2.733   8.080  0.4676 -0.8245 -0.1029
32819TIP3    H299340   9.356   2.738   8.206  0.9326 -0.3627  0.1893
32820TIP3   OH299341   7.684   4.362   0.193 -0.1568  0.0617 -0.6316
32820TIP3    H199342   7.596   4.347   0.160 -0.3030  0.4515 -0.4198
32820TIP3    H299343   7.717   4.275   0.215 -0.3543 -0.1221 -1.0481
32821TIP3   OH299344   2.555  10.009  10.406  0.4297 -0.2936 -0.4692
32821TIP3    H199345   2.638  10.058  10.402  0.7734 -0.5810  1.8752
32821TIP3    H299346   2.581   9.918  10.395  0.2464 -0.2835 -1.0193
32822TIP3   OH299347   3.513   9.799   4.823 -0.4927 -0.5333  0.0532
32822TIP3    H199348   3.446   9.867   4.818  0.4010  0.4358  0.7632
32822TIP3    H299349   3.561   9.808   4.740 -0.0333  0.1035  0.3725
32823TIP3   OH299350   3.777   6.045   7.913  0.2928 -0.2904 -0.1711
32823TIP3    H199351   3.850   6.060   7.973  1.3705 -0.5419 -1.3875
32823TIP3    H299352   3.736   5.965   7.945  0.0511  0.2570  0.9712
32824TIP3   OH299353   2.811   1.800   5.394  0.1654  0.5686  0.1134
32824TIP3    H199354   2.722   1.765   5.395  0.6430 -0.7970 -1.2522
32824TIP3    H299355   2.845   1.782   5.482 -0.2962 -0.6278  0.0718
32825TIP3   OH299356   3.330   8.073   2.470 -0.2248 -0.0698  0.5292
32825TIP3    H199357   3.320   8.097   2.378 -1.4772  0.5132  0.7922
32825TIP3    H299358   3.401   8.128   2.502 -0.6933  0.7170  0.2378
32826TIP3   OH299359   8.304   5.863   8.649  0.6879 -1.0052 -0.2978
32826TIP3    H199360   8.384   5.885   8.602  0.1222  0.0884 -0.7817
32826TIP3    H299361   8.272   5.783   8.606  1.7272 -1.7029  0.1899
32827TIP3   OH299362   1.024   4.311   7.641  0.2968  0.0345  0.3058
32827TIP3    H199363   1.074   4.310   7.722 -0.8262  1.1008  1.0526
32827TIP3    H299364   0.983   4.225   7.636  0.7040 -0.1817  0.6394
32828TIP3   OH299365   3.712  10.424   5.139 -0.4387 -0.8081 -0.1716
32828TIP3    H199366   3.783  10.449   5.080  0.2857  1.8754  1.6633
32828TIP3    H299367   3.741  10.342   5.179  0.4817 -1.0084 -1.2224
32829TIP3   OH299368   2.688   3.155   0.424  0.2574  0.1681  0.1746
32829TIP3    H199369   2.681   3.202   0.341 -0.3027 -2.5990 -1.4565
32829TIP3    H299370   2.612   3.096   0.425 -0.0039  0.4175  2.9013
32830TIP3   OH299371   7.506   3.670   5.128 -0.9095  0.0913  0.3641
32830TIP3    H199372   7.425   3.664   5.077 -1.0141  1.4320  0.3430
32830TIP3    H299373   7.502   3.756   5.171  1.3479  1.0366 -1.1214
32831TIP3   OH299374   4.374   5.462   5.376 -0.1185 -0.1228 -0.4994
32831TIP3    H199375   4.435   5.535   5.381  1.1250 -1.1846  0.6463
32831TIP3    H299376   4.392   5.422   5.291  1.0856 -0.6639 -0.0000
32832TIP3   OH299377  10.225   0.872   2.903 -0.4633  0.6251  0.8002
32832TIP3    H199378  10.141   0.842   2.870 -0.5821  0.9243  0.8217
32832TIP3    H299379  10.242   0.954   2.855 -0.8904  1.3546  1.8512
32833TIP3   OH299380   1.777   1.601   7.356  0.2428  0.3835  0.2074
32833TIP3    H199381   1.787   1.668   7.288 -0.9403  1.3296  0.9133
32833TIP3    H299382   1.732   1.529   7.311  1.4466  0.0776 -0.5388
32834TIP3   OH299383   2.753   1.871   8.579  0.0332  0.3814  0.0833
32834TIP3    H199384   2.831   1.838   8.624 -0.4161 -1.1942 -0.2716
32834TIP3    H299385   2.781   1.955   8.543  0.8603  0.9766  1.9693
32835TIP3   OH299386   2.960   2.353  10.229  0.0362  0.4328 -0.3594
32835TIP3    H199387   2.967   2.446  10.205  0.4387  0.5887  0.3120
32835TIP3    H299388   2.958   2.354  10.325  0.3799 -0.2740 -0.3427
32836TIP3   OH299389   5.329   6.380   0.164 -0.1592 -0.4405  0.2593
32836TIP3    H199390   5.368   6.372   0.251 -0.2218 -0.4889  0.2828
32836TIP3    H299391   5.303   6.472   0.159  1.9142  0.1436 -0.5867
32837TIP3   OH299392   5.004  10.266   2.781 -0.8323  0.3404  0.0855
32837TIP3    H199393   4.968  10.194   2.832 -2.2379  2.0518  1.6383
32837TIP3    H299394   5.060  10.314   2.843  0.4242  0.3937 -1.0317
32838TIP3   OH299395   2.405   7.322   5.985  0.4969 -0.1319  0.5689
32838TIP3    H199396   2.354   7.390   6.029  0.5070 -0.8527  1.7338
32838TIP3    H299397   2.433   7.363   5.903 -0.6954  0.7721  0.5837
32839TIP3   OH299398   7.706   3.573  10.451  0.2341 -0.5619  0.3604
32839TIP3    H199399   7.739   3.487  10.478  1.0933 -0.1467  0.6579
32839TIP3    H299400   7.667   3.558  10.365  1.2255 -1.0624 -0.0123
32840TIP3   OH299401  10.352   9.606   8.670 -0.0051 -0.4553 -0.2116
32840TIP3    H199402  10.281   9.547   8.645 -1.6019  1.0539  0.5073
32840TIP3    H299403  10.343   9.681   8.612 -0.0612  0.4802  0.9597
32841TIP3   OH299404   6.746   7.260  10.846 -0.6521  0.3129  0.0934
32841TIP3    H199405   6.823   7.214  10.879 -0.4408  0.1555 -0.5926
32841TIP3    H299406   6.769   7.282  10.755 -1.3401  0.4276 -0.0581
32842TIP3   OH299407   2.801   6.439   6.677  0.2226  0.6241 -0.4648
32842TIP3    H199408   2.794   6.534   6.677 -0.1973  0.6213 -2.5242
32842TIP3    H299409   2.860   6.419   6.605 -0.2607 -0.7173 -0.5140
32843TIP3   OH299410   1.402   8.963   0.097  0.3818 -0.1832 -0.5579
32843TIP3    H199411   1.379   9.039   0.151 -0.7402 -0.6364 -0.3710
32843TIP3    H299412   1.407   8.998   0.008 -0.6137  0.0238 -0.5413
32844TIP3   OH299413   6.696   4.375   8.776 -0.4826  0.1422 -0.0937
32844TIP3    H199414   6.769   4.361   8.715 -0.7264  0.3263 -0.4291
32844TIP3    H299415   6.703   4.303   8.838  0.1242  0.2792  0.0104
32845TIP3   OH299416   5.766   4.104   9.827 -0.2137 -0.3506  0.3859
32845TIP3    H199417   5.821   4.053   9.767  1.7377  1.6724  0.3151
32845TIP3    H299418   5.786   4.068   9.913 -1.8038 -2.1962  0.0469
32846TIP3   OH299419   9.663   3.674   4.674  0.4202  0.0114  0.4492
32846TIP3    H199420   9.682   3.602   4.734 -1.9009  0.1470  1.4426
32846TIP3    H299421   9.668   3.634   4.587 -0.3393 -1.2522  0.9543
32847TIP3   OH299422   3.155   9.066   5.642  0.4684  0.2636  0.5151
32847TIP3    H199423   3.146   8.989   5.587 -2.0482  0.5284  0.4513
32847TIP3    H299424   3.168   9.138   5.581 -2.2315  0.5449  0.1596
32848TIP3   OH299425   5.489   7.307   8.455 -0.1650 -0.3240 -0.3874
32848TIP3    H199426   5.493   7.248   8.379 -1.8089 -1.1933  0.1543
32848TIP3    H299427   5.423   7.268   8.512  1.9287 -0.4181  2.1388
32849TIP3   OH299428   4.800   5.464   0.081  0.1696  0.0694  0.6146
32849TIP3    H199429   4.827   5.540   0.131  1.1256  0.0355  0.1696
32849TIP3    H299430   4.760   5.500   0.001  1.4202  0.1188 -0.0085
32850TIP3   OH299431   0.204   5.142   7.746  0.0388 -0.6790 -0.7975
32850TIP3    H199432   0.196   5.049   7.726  0.8032 -0.9726  0.1911
32850TIP3    H299433   0.141   5.158   7.816 -0.4923 -0.3221 -1.3514
32851TIP3   OH299434   5.789   9.142   5.539  0.0468  0.3688 -0.3319
32851TIP3    H199435   5.829   9.173   5.621 -0.0435  0.5616 -0.3581
32851TIP3    H299436   5.838   9.186   5.470  0.6202 -0.3928 -0.4105
32852TIP3   OH299437   8.580   5.429   9.065 -0.0579  0.2550 -0.1383
32852TIP3    H199438   8.503   5.401   9.016 -0.3637 -0.5851  0.7826
32852TIP3    H299439   8.633   5.478   9.002 -0.8784 -0.0039 -1.0406
32853TIP3   OH299440  10.035   6.269   3.460  0.3775 -0.6088  0.3234
32853TIP3    H199441   9.956   6.215   3.459  0.5354 -0.8378  0.2057
32853TIP3    H299442  10.071   6.259   3.372 -0.4104  0.8871 -0.2094
32854TIP3   OH299443   7.246   0.151   7.038  0.2177 -0.2162  0.1950
32854TIP3    H199444   7.309   0.099   7.089 -2.8899 -1.7679  2.7978
32854TIP3    H299445   7.204   0.207   7.103 -0.4713  1.4519 -1.6131
32855TIP3   OH299446   1.315   7.212   2.032 -0.7888  0.6211 -0.5199
32855TIP3    H199447   1.280   7.255   2.110 -1.3065  1.4116 -1.1693
32855TIP3    H299448   1.253   7.141   2.014 -1.3870  1.2274 -0.9261
32856TIP3   OH299449   1.957  10.081   3.846 -0.2882  0.4093  0.1466
32856TIP3    H199450   1.935   9.991   3.821 -1.6297  1.4483 -2.9429
32856TIP3    H299451   2.039  10.099   3.799 -0.4333  1.0198  0.1194
32857TIP3   OH299452   0.588   9.675   6.062 -0.0138 -0.3505 -0.0327
32857TIP3    H199453   0.635   9.702   5.984  0.4288 -1.8718 -0.3148
32857TIP3    H299454   0.656   9.664   6.129  0.0242 -2.1190 -0.3202
32858TIP3   OH299455   3.423  10.062   6.866  0.3653 -0.0226 -0.7964
32858TIP3    H199456   3.370   9.990   6.832 -1.9706  1.8726 -1.3993
32858TIP3    H299457   3.446  10.034   6.955 -1.0810 -1.2134 -0.7543
32859TIP3   OH299458   0.111   8.874   9.200 -0.0280 -0.3558  0.0775
32859TIP3    H199459   0.096   8.827   9.282  1.1405  1.4872  1.4404
32859TIP3    H299460   0.135   8.806   9.137 -2.1518 -1.9763  0.8783
32860TIP3   OH299461   1.785   1.571   1.295  0.0198  0.1947 -0.3662
32860TIP3    H199462   1.852   1.524   1.344  1.4798  2.8468  0.3133
32860TIP3    H299463   1.795   1.662   1.320 -1.1679  1.2840 -3.3387
32861TIP3   OH299464   7.372   0.223   8.345 -0.2298  0.2855 -0.0867
32861TIP3    H199465   7.354   0.203   8.437  1.0922  0.1061  0.1523
32861TIP3    H299466   7.301   0.282   8.320 -2.1403 -1.7367  0.2408
32862TIP3   OH299467   9.628   3.867   6.642  0.1187  0.3085 -0.6628
32862TIP3    H199468   9.609   3.961   6.639  0.5152  0.3722 -1.5538
32862TIP3    H299469   9.685   3.852   6.567  0.2277 -0.6145 -0.4074
32863TIP3   OH299470   5.393   1.890   9.068  0.0985 -0.8452  0.3808
32863TIP3    H199471   5.417   1.810   9.115 -2.3478 -2.4393 -0.8981
32863TIP3    H299472   5.461   1.901   9.002  1.8629 -0.3299  2.1764
32864TIP3   OH299473   9.886   4.152   8.962 -0.2949  0.1410 -0.3401
32864TIP3    H199474   9.883   4.059   8.939 -0.9390 -0.3215  1.4607
32864TIP3    H299475   9.976   4.166   8.991 -0.1309  0.1427 -0.8416
32865TIP3   OH299476   5.487  10.353   4.838 -0.4163 -0.1856 -0.1285
32865TIP3    H199477   5.550  10.425   4.839  0.2857 -0.7238 -2.1090
32865TIP3    H299478   5.439  10.363   4.921 -0.3210  2.5186 -0.3075
32866TIP3   OH299479   5.356   2.644   9.409 -0.0616 -0.0083 -0.1939
32866TIP3    H199480   5.314   2.559   9.400  0.0674 -0.1967  0.8145
32866TIP3    H299481   5.446   2.624   9.436 -0.2285  0.4383  0.7580
32867TIP3   OH299482   8.886   1.210   6.101 -0.2066  0.2138  0.3426
32867TIP3    H199483   8.922   1.121   6.107 -0.6534  0.0873  1.3012
32867TIP3    H299484   8.961   1.266   6.082  0.0530 -0.3800 -0.4625
32868TIP3   OH299485   3.990   9.905  10.640  0.4590  0.4841 -0.3876
32868TIP3    H199486   3.989   9.854  10.720 -1.1723  1.3431  0.1917
32868TIP3    H299487   3.953   9.847  10.573  1.2452 -0.0243 -0.3840
32869TIP3   OH299488   6.763   4.841   9.794  0.1313  0.2324  0.5714
32869TIP3    H199489   6.769   4.771   9.730  1.3067  1.3866 -0.6526
32869TIP3    H299490   6.703   4.808   9.861  0.4996 -1.8321 -0.0547
32870TIP3   OH299491   1.976   3.121   1.747 -0.5032 -0.3236 -0.1476
32870TIP3    H199492   1.981   3.105   1.653  0.5615 -1.1256  0.0142
32870TIP3    H299493   1.884   3.107   1.769 -0.6215 -0.8756 -0.9489
32871TIP3   OH299494   2.288   1.574   5.787 -0.1801  0.0229 -0.2746
32871TIP3    H199495   2.327   1.589   5.701 -0.4653  0.8950 -0.2601
32871TIP3    H299496   2.231   1.649   5.801 -0.5583 -0.3874  0.4444
32872TIP3   OH299497   3.617  10.084   9.882 -0.0939  0.2539 -0.4611
32872TIP3    H199498   3.625  10.166   9.930 -0.1904  0.5265 -0.9003
32872TIP3    H299499   3.524  10.077   9.861  0.0487  0.4733 -1.1807
32873TIP3   OH299500   4.337   7.749   5.767 -0.5991  0.0805  0.3244
32873TIP3    H199501   4.341   7.835   5.810 -2.9703 -0.1855  1.2394
32873TIP3    H299502   4.266   7.757   5.704 -1.1259 -1.3025  0.7029
32874TIP3   OH299503   7.390   6.701  10.765  0.3186 -0.0448  0.2482
32874TIP3    H199504   7.436   6.764  10.820 -0.9628 -0.8309  2.3188
32874TIP3    H299505   7.460   6.650  10.724  1.3178  0.2665  1.5025
32875TIP3   OH299506   7.745   0.721   8.305 -0.3330 -0.7396 -0.5092
32875TIP3    H199507   7.781   0.665   8.374 -2.5328  0.8404  2.1684
32875TIP3    H299508   7.676   0.668   8.264  0.4935 -1.4389 -1.0143
32876TIP3   OH299509   4.376   3.199   4.556  0.7095  0.0957  0.2950
32876TIP3    H199510   4.294   3.245   4.539  0.4731 -0.8067 -1.1645
32876TIP3    H299511   4.381   3.192   4.651 -0.6544  0.5877  0.4210
32877TIP3   OH299512   1.194   4.836   3.268  0.4154  0.2071 -0.2499
32877TIP3    H199513   1.272   4.889   3.284 -0.8168  2.0477  0.1098
32877TIP3    H299514   1.136   4.856   3.342 -1.6712  1.5310 -2.0731
32878TIP3   OH299515   7.244   9.071   9.353  0.0345  0.2348  0.1079
32878TIP3    H199516   7.229   9.062   9.447  1.3928  1.9100  0.5519
32878TIP3    H299517   7.339   9.078   9.344  0.0521 -1.2609 -1.5749
32879TIP3   OH299518   3.916   8.213   0.574  0.6853 -0.3862 -0.4839
32879TIP3    H199519   3.864   8.276   0.624  0.6741 -1.2691  0.6423
32879TIP3    H299520   3.962   8.161   0.640  0.6877 -1.5708 -1.3901
32880TIP3   OH299521  10.319   9.335   2.398  0.0318  0.3518 -0.0760
32880TIP3    H199522  10.297   9.413   2.450  1.7843  0.3102  0.7951
32880TIP3    H299523  10.385   9.366   2.336 -1.9806  0.3785 -2.3267
32881TIP3   OH299524   3.559   9.384   2.209  0.2102  0.4376 -0.1606
32881TIP3    H199525   3.545   9.463   2.157 -0.5989 -0.2107 -0.9616
32881TIP3    H299526   3.604   9.324   2.150 -2.1059 -0.8785 -0.6993
32882TIP3   OH299527   8.443  10.726   9.501  0.3446  0.3880 -0.2564
32882TIP3    H199528   8.403  10.787   9.439 -0.7754  0.2545  0.3079
32882TIP3    H299529   8.495  10.781   9.559  0.4116  0.6510 -0.5625
32883TIP3   OH299530   1.330   0.812   2.674 -0.0573 -0.4933  0.3657
32883TIP3    H199531   1.255   0.773   2.630  0.8418 -0.5983 -1.1514
32883TIP3    H299532   1.398   0.745   2.669  0.4529 -0.0109  0.7708
32884TIP3   OH299533   7.110  10.188   2.575 -0.0002  0.3419  0.0344
32884TIP3    H199534   7.111  10.172   2.669 -0.3478 -3.2687 -0.4492
32884TIP3    H299535   7.201  10.201   2.551  0.1626  0.5441  0.7504
32885TIP3   OH299536   7.401   4.115   8.730 -0.4718  0.0152  0.3127
32885TIP3    H199537   7.331   4.130   8.667  1.6543  0.6912 -2.0920
32885TIP3    H299538   7.406   4.020   8.738 -0.1182 -0.1621 -1.4716
32886TIP3   OH299539  10.757  10.789   7.824 -0.0235  0.3937  0.0344
32886TIP3    H199540  10.750  10.823   7.913 -1.5164  0.9639 -0.2780
32886TIP3    H299541  10.724  10.860   7.769 -0.8193 -0.6236 -0.8222
32887TIP3   OH299542  10.773   2.781   7.317 -0.1648  0.3666 -0.6537
32887TIP3    H199543  10.684   2.810   7.340 -0.3278 -0.5380 -0.0889
32887TIP3    H299544  10.818   2.774   7.401 -0.2320 -1.2839 -0.7205
32888TIP3   OH299545   2.676   9.978   7.353  0.7295  0.1908 -0.0313
32888TIP3    H199546   2.597  10.030   7.338 -0.1084 -0.6689  1.1911
32888TIP3    H299547   2.711  10.012   7.436  1.2514  0.0803 -0.2023
32889TIP3   OH299548   4.391   5.979   6.183  0.0286 -0.4624 -0.2444
32889TIP3    H199549   4.469   6.015   6.140  0.6089 -1.6034 -0.1683
32889TIP3    H299550   4.332   6.055   6.192  1.1472  0.4344 -0.2309
32890TIP3   OH299551   5.308   5.141   1.921 -1.0204  0.3974 -0.1695
32890TIP3    H199552   5.387   5.155   1.973 -0.8519  0.7982 -0.5273
32890TIP3    H299553   5.328   5.063   1.869  0.0071  1.7091 -1.8480
32891TIP3   OH299554   2.409   2.642   8.665  0.2565  0.6737 -0.2647
32891TIP3    H199555   2.414   2.584   8.741  3.6109  0.9076 -0.1574
32891TIP3    H299556   2.389   2.584   8.592  1.2116 -0.2746  0.1975
32892TIP3   OH299557   2.687   1.762  10.341  0.7535 -0.1211 -0.4432
32892TIP3    H199558   2.769   1.787  10.385  1.5004 -0.3329 -1.6702
32892TIP3    H299559   2.701   1.786  10.249 -0.6250 -0.0329 -0.6529
32893TIP3   OH299560   7.126   5.379   6.903 -0.2529 -0.1428 -0.4905
32893TIP3    H199561   7.105   5.289   6.926 -0.3396 -0.0375 -0.1429
32893TIP3    H299562   7.214   5.375   6.867 -0.2306 -0.3571 -0.4152
32894TIP3   OH299563   8.428   6.160   8.212  0.5597 -0.1681 -0.1633
32894TIP3    H199564   8.371   6.101   8.262  0.0016  1.8862  1.7900
32894TIP3    H299565   8.517   6.135   8.237  0.3158  0.0502  0.9888
32895TIP3   OH299566   5.690   4.886   1.608  0.1419  0.2991  0.3151
32895TIP3    H199567   5.602   4.909   1.641 -0.6626 -1.1021 -0.7226
32895TIP3    H299568   5.690   4.790   1.608  0.3571  0.2113 -3.0092
32896TIP3   OH299569   1.537   9.699   3.188  0.0382  0.2880  0.2157
32896TIP3    H199570   1.470   9.635   3.164 -0.4826  0.8835  0.0865
32896TIP3    H299571   1.524   9.712   3.282  1.5094 -1.3745  0.7041
32897TIP3   OH299572   4.914   4.501   0.601  0.1883 -0.3569  0.7373
32897TIP3    H199573   4.962   4.532   0.677  1.1958 -0.6806  0.2494
32897TIP3    H299574   4.909   4.406   0.613 -1.5019 -0.2138  1.4368
32898TIP3   OH299575   3.368  10.455   0.751  0.5972  0.4704 -0.0552
32898TIP3    H199576   3.394  10.443   0.659 -1.3233  0.3614 -0.6292
32898TIP3    H299577   3.334  10.544   0.755 -1.1346 -0.1519  0.0396
32899TIP3   OH299578   1.457   8.090   4.099 -0.3738 -0.3928 -0.0917
32899TIP3    H199579   1.384   8.042   4.061  0.7644 -1.4202 -1.0770
32899TIP3    H299580   1.510   8.022   4.142  0.5290  0.1619 -0.3005
32900TIP3   OH299581   2.079   8.891   2.373  0.6184  0.1270 -0.4302
32900TIP3    H199582   2.031   8.809   2.378 -0.8018  0.9179 -0.4369
32900TIP3    H299583   2.118   8.901   2.460  1.0500 -0.6755 -0.5196
32901TIP3   OH299584   2.576   0.639   3.938 -0.7930  0.3720 -0.1904
32901TIP3    H199585   2.577   0.724   3.895  1.2575  0.6978  0.4284
32901TIP3    H299586   2.574   0.658   4.032  1.5062 -0.1577  0.0273
32902TIP3   OH299587   7.433   2.435  10.550  0.6418  0.5346  0.4454
32902TIP3    H199588   7.430   2.401  10.460 -3.5721  2.9306 -0.5842
32902TIP3    H299589   7.515   2.483  10.555  1.2054 -0.0623 -1.9510
32903TIP3   OH299590   7.933   3.953   3.677 -0.3394 -0.1500 -0.7373
32903TIP3    H199591   7.845   3.917   3.688  0.1676 -1.2155 -0.0126
32903TIP3    H299592   7.946   4.008   3.754 -0.7225  0.8045 -1.3333
32904TIP3   OH299593   8.007   9.849   7.200 -0.2375 -0.0944  0.0491
32904TIP3    H199594   7.913   9.834   7.185 -0.1703 -0.1907 -0.2939
32904TIP3    H299595   8.042   9.763   7.222  0.0204 -0.3359 -1.2223
32905TIP3   OH299596   0.935   5.491   2.260  0.0931  0.7779 -0.4399
32905TIP3    H199597   0.983   5.513   2.340 -1.2733  1.3568  0.2537
32905TIP3    H299598   0.975   5.546   2.192  0.6122  1.0052  0.0412
32906TIP3   OH299599   3.680   7.841   8.594  0.1544  0.6886 -0.0248
32906TIP3    H199600   3.749   7.894   8.633 -0.5175  1.9345 -0.4386
32906TIP3    H299601   3.599   7.873   8.636 -0.3271  0.4339 -0.7340
32907TIP3   OH299602   3.560   5.163   1.275  0.0973 -0.2044 -0.1393
32907TIP3    H199603   3.638   5.176   1.328  0.0773  1.3229 -0.4579
32907TIP3    H299604   3.488   5.189   1.332 -0.0458  0.0069 -0.4162
32908TIP3   OH299605   3.493   8.904   1.863 -0.8900 -0.8580 -0.3380
32908TIP3    H199606   3.549   8.862   1.797 -0.2111  1.0573 -1.0338
32908TIP3    H299607   3.474   8.833   1.926  0.6497 -2.0676 -1.1509
32909TIP3   OH299608  10.375   6.132   2.712  0.0430 -0.0158  0.1468
32909TIP3    H199609  10.459   6.177   2.716 -0.0591  0.1219  1.0052
32909TIP3    H299610  10.342   6.150   2.624  1.1985 -0.6156 -0.4252
32910TIP3   OH299611   1.964   6.503   5.915  0.1823 -0.1994  0.5623
32910TIP3    H199612   2.029   6.566   5.946 -0.5095 -0.3586  2.4680
32910TIP3    H299613   1.993   6.420   5.952  1.5044 -1.2547 -2.5211
32911TIP3   OH299614   7.780   8.728   6.155  0.7527 -0.0558 -0.4048
32911TIP3    H199615   7.774   8.693   6.066 -1.9004  0.5437 -0.5324
32911TIP3    H299616   7.784   8.650   6.210 -0.1046 -0.5017 -0.9408
32912TIP3   OH299617   5.850   1.846  10.736 -0.2461  0.3682 -0.2534
32912TIP3    H199618   5.918   1.780  10.744 -0.2821  0.1051 -1.7406
32912TIP3    H299619   5.769   1.799  10.756 -0.1764  0.1815 -0.4004
32913TIP3   OH299620   8.770  10.178   5.981 -0.1600  0.2545  0.0659
32913TIP3    H199621   8.786  10.272   5.973 -0.1784  0.3302  0.8539
32913TIP3    H299622   8.714  10.170   6.058  0.9119 -0.5067  0.7936
32914TIP3   OH299623   3.327   6.209   6.616 -0.1772 -0.3105  0.6429
32914TIP3    H199624   3.377   6.131   6.592 -0.5908  0.1932 -2.2165
32914TIP3    H299625   3.235   6.183   6.608 -0.3214  0.4651 -0.4761
32915TIP3   OH299626  10.472   0.038   1.313  0.3458 -0.9595 -0.4114
32915TIP3    H199627  10.531  -0.018   1.262  0.9241 -0.1484 -0.6530
32915TIP3    H299628  10.529   0.106   1.350 -0.5270  0.2175 -1.1695
32916TIP3   OH299629   1.834   5.273   0.549 -0.1745 -0.0824 -0.1709
32916TIP3    H199630   1.748   5.267   0.589  0.2208  0.1010  0.7217
32916TIP3    H299631   1.822   5.239   0.460 -1.3120  0.6018 -0.2891
32917TIP3   OH299632   1.556   6.955   6.301 -0.0237 -0.2117  0.1858
32917TIP3    H199633   1.472   7.000   6.313  0.0616  0.4540 -1.3662
32917TIP3    H299634   1.583   6.979   6.212  1.4482 -1.0300  0.3760
32918TIP3   OH299635   0.229   6.257   7.120  0.1054 -0.1892  0.0385
32918TIP3    H199636   0.139   6.226   7.108 -0.0761  0.5551 -0.6285
32918TIP3    H299637   0.224   6.351   7.103  0.5300  0.3544  2.5725
32919TIP3   OH299638   1.030   5.647   9.684 -0.5457 -0.7180 -0.0711
32919TIP3    H199639   0.967   5.716   9.661 -0.0428  0.0418  0.7396
32919TIP3    H299640   1.078   5.683   9.759 -0.0775 -1.8487  0.1909
32920TIP3   OH299641   4.803  10.101   7.342 -0.2206  0.2074  0.3595
32920TIP3    H199642   4.771  10.023   7.297 -1.4426  0.2961  1.0397
32920TIP3    H299643   4.731  10.163   7.336  0.5926  1.1470  0.1730
32921TIP3   OH299644   4.529   4.907   4.020 -0.0697 -0.1778  0.2410
32921TIP3    H199645   4.541   4.840   3.952  1.1378  1.9326 -1.7880
32921TIP3    H299646   4.617   4.940   4.036 -0.8056  2.3693 -0.4823
32922TIP3   OH299647   7.485   9.524   0.120 -0.5400 -0.1920  0.0272
32922TIP3    H199648   7.575   9.549   0.100  0.6700 -2.0102  2.6430
32922TIP3    H299649   7.434   9.602   0.101  1.4932  0.7842 -1.8990
32923TIP3   OH299650  10.655   3.688   8.369 -0.0015  0.5522  0.4935
32923TIP3    H199651  10.583   3.745   8.340 -1.3390 -0.8353  0.9286
32923TIP3    H299652  10.677   3.721   8.456 -1.5443 -0.2447  1.2198
32924TIP3   OH299653   3.655   0.853   0.652  0.6666  0.1283  0.0735
32924TIP3    H199654   3.629   0.805   0.731  0.3138  0.0363 -0.0965
32924TIP3    H299655   3.594   0.927   0.647  1.3160  0.6961  0.4252
32925TIP3   OH299656   2.779  10.513   0.894  0.2476  0.0575 -0.2437
32925TIP3    H199657   2.828  10.437   0.862 -1.5059 -0.8196 -0.9724
32925TIP3    H299658   2.694  10.506   0.851 -1.2340  0.4341  2.4338
32926TIP3   OH299659   5.758   7.183   3.981  0.5595  0.0960 -0.3345
32926TIP3    H199660   5.833   7.227   3.941  0.2716  1.2268  0.3090
32926TIP3    H299661   5.683   7.211   3.928  0.3312  0.6500  0.2761
32927TIP3   OH299662   0.608   1.339  10.445  0.6525  0.3070 -0.4061
32927TIP3    H199663   0.601   1.335  10.541  4.0565  1.9386  0.0491
32927TIP3    H299664   0.538   1.399  10.419 -1.3484 -1.3374  0.7613
32928TIP3   OH299665   1.881   3.473   5.279  0.2102 -0.4213  0.0922
32928TIP3    H199666   1.851   3.398   5.227 -1.0214 -1.8761  2.6887
32928TIP3    H299667   1.959   3.440   5.325  0.3329  0.2833  0.3965
32929TIP3   OH299668   3.722   9.716   5.598 -0.0861 -0.3899  0.5245
32929TIP3    H199669   3.691   9.798   5.637  0.1114  0.4085 -0.9497
32929TIP3    H299670   3.781   9.680   5.664  2.8715  2.5595 -0.2337
32930TIP3   OH299671   4.882   1.439   3.692  0.1940  0.6691  0.4579
32930TIP3    H199672   4.798   1.473   3.724  0.4062  0.0913  1.7200
32930TIP3    H299673   4.888   1.352   3.731  0.9719  0.3420 -0.3703
32931TIP3   OH299674   7.405   8.448   6.256  0.3491  0.6574  0.0787
32931TIP3    H199675   7.387   8.355   6.269  0.5621  0.8071  1.7866
32931TIP3    H299676   7.456   8.473   6.333  1.6261  1.8567 -1.1059
32932TIP3   OH299677   5.545   6.316   9.125 -0.5829 -0.2622 -0.5350
32932TIP3    H199678   5.527   6.328   9.218 -0.9400  2.1956 -0.8341
32932TIP3    H299679   5.464   6.282   9.088 -0.2988 -1.6605  0.0996
32933TIP3   OH299680   6.668   8.662  10.002 -0.0496  0.6593  0.2766
32933TIP3    H199681   6.728   8.590  10.025  0.6346  1.3026  0.5389
32933TIP3    H299682   6.719   8.741  10.018 -0.7121  1.2020 -0.2564
32934TIP3   OH299683   4.440   9.296   3.081  0.0837 -0.7183 -0.3330
32934TIP3    H199684   4.450   9.383   3.043  1.8309 -0.2610  1.0195
32934TIP3    H299685   4.368   9.306   3.143  0.9847  0.1304  0.6334
32935TIP3   OH299686   8.434   9.555   9.042 -0.2816  0.2133  0.0928
32935TIP3    H199687   8.494   9.539   8.969  1.6216  0.3755  1.5359
32935TIP3    H299688   8.409   9.468   9.072 -0.3252  0.1345 -0.1690
32936TIP3   OH299689   9.222   6.993   3.402  0.4324  0.1603 -0.4936
32936TIP3    H199690   9.167   6.931   3.355 -1.6658  1.9268 -0.5018
32936TIP3    H299691   9.264   7.045   3.333  1.5642 -0.6808 -0.4679
32937TIP3   OH299692  10.486   8.788   0.706 -0.2496  0.0403  0.4199
32937TIP3    H199693  10.517   8.825   0.789 -0.4131  0.4617  0.2968
32937TIP3    H299694  10.525   8.844   0.639 -0.6441  0.1009  0.2372
32938TIP3   OH299695   1.117   1.312   9.452 -0.4006  0.0384  0.1605
32938TIP3    H199696   1.082   1.370   9.520  1.7325  0.7080  0.7520
32938TIP3    H299697   1.135   1.369   9.378  1.6121  0.1825  0.7064
32939TIP3   OH299698   3.981   9.826   9.517  0.0628  0.3186 -0.1621
32939TIP3    H199699   4.020   9.767   9.452  0.4322  2.0528 -1.5863
32939TIP3    H299700   3.908   9.776   9.554 -0.7514 -0.4104 -2.5874
32940TIP3   OH299701   3.423   6.216   4.612  0.0016  0.1676 -0.6284
32940TIP3    H199702   3.447   6.293   4.559  1.4747  0.7907  0.8417
32940TIP3    H299703   3.408   6.147   4.549 -1.4915  1.6740 -2.0238
32941TIP3   OH299704   0.445   1.974   9.172  0.1654 -0.2065 -0.5871
32941TIP3    H199705   0.496   2.025   9.235 -0.3147 -0.7860  0.2993
32941TIP3    H299706   0.358   1.967   9.211 -0.5578  0.5747 -1.9705
32942TIP3   OH299707   5.288   4.658   7.105 -0.1286 -0.2912 -0.3540
32942TIP3    H199708   5.231   4.704   7.043  2.3738  1.5624 -1.4207
32942TIP3    H299709   5.257   4.686   7.191 -2.3603 -1.3136 -0.7498
32943TIP3   OH299710  10.432   3.251   3.879  0.2236  0.7238 -0.0127
32943TIP3    H199711  10.424   3.251   3.974  3.2528 -2.5158  0.4713
32943TIP3    H299712  10.512   3.301   3.862  1.9117 -1.8673 -0.3250
32944TIP3   OH299713   9.271   8.783   2.796  0.1345 -0.3132 -0.6347
32944TIP3    H199714   9.197   8.749   2.746 -0.9251 -1.0266  1.3258
32944TIP3    H299715   9.323   8.705   2.818 -0.0322 -0.1731  0.3029
32945TIP3   OH299716   1.578   0.929   7.599  0.2772  0.0485 -0.1287
32945TIP3    H199717   1.642   0.885   7.655 -0.8417  0.4821  1.5723
32945TIP3    H299718   1.610   0.914   7.510  1.1393 -2.2748  0.4927
32946TIP3   OH299719   5.541   5.762   0.801  0.6140 -0.0175 -0.2988
32946TIP3    H199720   5.553   5.671   0.830  0.1514 -0.0791 -0.2775
32946TIP3    H299721   5.509   5.754   0.711 -1.3831  0.0290  0.3540
32947TIP3   OH299722  10.301  10.327   3.897  0.3473  0.1010 -0.5940
32947TIP3    H199723  10.232  10.359   3.839  0.5671 -0.8391 -1.3920
32947TIP3    H299724  10.377  10.316   3.840  0.2642 -1.8746 -0.3749
32948TIP3   OH299725   4.661   0.581   3.528  0.2307 -0.3763  0.0607
32948TIP3    H199726   4.689   0.592   3.437  1.1273  2.2093  0.5640
32948TIP3    H299727   4.730   0.528   3.569  0.6653 -0.1485 -0.3748
32949TIP3   OH299728   2.509  10.390   3.943  0.2216 -0.3342  0.0961
32949TIP3    H199729   2.503  10.427   4.031  0.2786  0.7664 -0.3509
32949TIP3    H299730   2.470  10.456   3.886 -1.2887 -1.7060 -0.5548
32950TIP3   OH299731   7.433   2.842  10.267  0.0373  0.3131  0.0483
32950TIP3    H199732   7.370   2.851  10.195  0.5324  2.5098 -0.1659
32950TIP3    H299733   7.381   2.812  10.341 -0.8136 -0.2258 -0.7498
32951TIP3   OH299734   9.736   4.690   6.480  0.1901 -0.2950 -0.6199
32951TIP3    H199735   9.680   4.671   6.405  0.9003 -1.9837 -0.7660
32951TIP3    H299736   9.676   4.688   6.555 -0.1809 -0.6544 -0.9209
32952TIP3   OH299737   1.199   6.713   4.206  0.5390 -0.3108 -0.4023
32952TIP3    H199738   1.276   6.687   4.256  0.7443  2.2311  0.7885
32952TIP3    H299739   1.127   6.661   4.242  1.6840 -3.2197 -1.9909
32953TIP3   OH299740  10.183   6.902   4.750 -0.2233 -0.0392  0.2699
32953TIP3    H199741  10.133   6.893   4.669  0.0764 -0.3725  0.1212
32953TIP3    H299742  10.226   6.817   4.762 -2.1906 -0.8896  2.0595
32954TIP3   OH299743   6.524   4.122   1.330 -0.3509  0.3257 -0.1799
32954TIP3    H199744   6.531   4.213   1.357  1.7117  0.5011 -1.0952
32954TIP3    H299745   6.530   4.072   1.411 -0.9098  0.9945  0.2772
32955TIP3   OH299746  10.114   4.325   4.517  0.0147  0.5116  0.6621
32955TIP3    H199747  10.032   4.371   4.535 -0.1905  0.0826  0.8386
32955TIP3    H299748  10.155   4.375   4.447 -0.9053  0.1199 -0.1837
32956TIP3   OH299749   1.058   3.767   2.593  0.9533 -0.0886 -0.4279
32956TIP3    H199750   1.077   3.787   2.501  1.9877 -1.5610 -0.5771
32956TIP3    H299751   0.987   3.703   2.589  0.6744  0.2025 -0.1712
32957TIP3   OH299752   2.466   3.487   5.414 -0.9336 -0.3111  0.1174
32957TIP3    H199753   2.467   3.528   5.328 -3.5931 -0.3517 -0.0114
32957TIP3    H299754   2.438   3.397   5.398 -0.7833 -0.5233  0.9653
32958TIP3   OH299755   2.584   7.267   7.123 -0.4880 -0.0325  0.9486
32958TIP3    H199756   2.579   7.363   7.117  3.1647  0.3449  1.7677
32958TIP3    H299757   2.648   7.242   7.057 -2.9027 -2.2967 -0.7725
32959TIP3   OH299758   4.237   2.662   3.933  0.7377 -0.0562  0.2018
32959TIP3    H199759   4.243   2.594   4.000 -0.0957  0.5105  0.8741
32959TIP3    H299760   4.257   2.617   3.851  3.4282 -0.4349  0.9681
32960TIP3   OH299761  10.128   7.427   9.363  0.0365 -0.2457 -0.0037
32960TIP3    H199762  10.046   7.405   9.318  0.3413 -1.6840  0.0924
32960TIP3    H299763  10.101   7.481   9.437 -1.4024 -4.1195  2.5562
32961TIP3   OH299764   9.230   7.002   8.420  0.1411 -0.7122 -0.1575
32961TIP3    H199765   9.183   7.003   8.503  0.8996  1.5880  0.2998
32961TIP3    H299766   9.289   6.927   8.428 -1.8456 -2.3566  0.1061
32962TIP3   OH299767   9.380   7.859   6.119 -0.3735  0.5124 -0.1439
32962TIP3    H199768   9.388   7.801   6.043  1.1963 -0.9132  1.0154
32962TIP3    H299769   9.311   7.818   6.172 -0.5367  0.7439 -0.1794
32963TIP3   OH299770   6.147   7.922   8.901  0.8800  0.6364 -0.1854
32963TIP3    H199771   6.076   7.962   8.952  0.9982 -0.4818  0.8843
32963TIP3    H299772   6.125   7.829   8.897  0.8430  0.6714 -2.2581
32964TIP3   OH299773   9.361   5.355   8.260  0.6382 -0.6088  0.2233
32964TIP3    H199774   9.409   5.333   8.180  1.0061  0.1146  0.2373
32964TIP3    H299775   9.275   5.385   8.229  1.3679  1.3834 -0.0628
32965TIP3   OH299776   3.549   9.273   9.627  0.2293 -0.0611 -0.5522
32965TIP3    H199777   3.575   9.232   9.545 -1.0395 -0.3048 -0.8573
32965TIP3    H299778   3.482   9.337   9.601 -0.4211 -0.3731  0.3285
32966TIP3   OH299779   8.909   2.005   8.749  0.0859  0.3981 -0.4037
32966TIP3    H199780   8.945   1.920   8.726 -2.3723 -0.3525 -1.8103
32966TIP3    H299781   8.863   1.990   8.832 -0.2713  0.3454 -0.6065
32967TIP3   OH299782   8.448   6.957   5.396  0.5138 -0.0296  0.4224
32967TIP3    H199783   8.400   7.039   5.409  2.1636  1.6576 -2.8186
32967TIP3    H299784   8.389   6.889   5.429 -3.9928  1.8583 -2.7415
32968TIP3   OH299785   1.893   4.462   2.202  0.1338 -0.0881 -0.3974
32968TIP3    H199786   1.927   4.380   2.165 -0.7939 -0.7411  0.1608
32968TIP3    H299787   1.929   4.464   2.291 -1.3075 -0.8280  0.2275
32969TIP3   OH299788   1.482   0.943   6.450  0.0562 -0.2833  0.2069
32969TIP3    H199789   1.538   0.918   6.376  0.5674 -1.8449  1.0663
32969TIP3    H299790   1.448   1.029   6.427 -0.9443 -1.2997 -2.5145
32970TIP3   OH299791  10.360   9.105   2.628 -0.2083  0.2237 -0.3251
32970TIP3    H199792  10.279   9.154   2.613 -1.2555 -1.8406 -1.9789
32970TIP3    H299793  10.343   9.055   2.708  0.4795  1.6676  0.7838
32971TIP3   OH299794   0.391   7.614  10.853 -0.6127  0.0282  0.0047
32971TIP3    H199795   0.364   7.615  10.945 -0.5658  2.4962  0.0454
32971TIP3    H299796   0.482   7.584  10.855 -0.8567 -0.6987  0.6710
32972TIP3   OH299797   2.101  10.838   2.882  0.0748  0.0488  0.2230
32972TIP3    H199798   2.103  10.884   2.797  1.4880 -3.0103 -1.5785
32972TIP3    H299799   2.016  10.796   2.885 -0.0129  0.2365  0.3700
32973TIP3   OH299800   7.904  10.557   3.645  0.0384  0.6144 -0.2348
32973TIP3    H199801   7.939  10.473   3.613 -1.8358  0.2113 -1.4283
32973TIP3    H299802   7.970  10.621   3.620  1.0224 -0.3628 -0.2539
32974TIP3   OH299803  10.501   8.082   6.189 -0.4506 -0.5439  0.3464
32974TIP3    H199804  10.523   8.051   6.101  1.7987 -0.1726  0.7234
32974TIP3    H299805  10.494   8.003   6.242 -0.5315 -0.6949  0.1128
32975TIP3   OH299806   7.825   9.720   6.424  0.1489  0.1930 -0.0229
32975TIP3    H199807   7.756   9.654   6.432  1.2382 -0.7492  3.0949
32975TIP3    H299808   7.851   9.716   6.332 -2.3650 -1.0157 -0.7843
32976TIP3   OH299809   2.001   8.914  10.289  0.3594  0.3374 -0.2894
32976TIP3    H199810   1.924   8.955  10.328  1.6993  2.3192  0.4081
32976TIP3    H299811   2.020   8.967  10.212  1.8258  0.7288  0.3244
32977TIP3   OH299812  10.598   8.712   4.810  0.3045 -0.2812 -0.6578
32977TIP3    H199813  10.558   8.634   4.847 -0.8059  0.4780 -0.2128
32977TIP3    H299814  10.662   8.740   4.876 -0.8930  0.4411  0.2531
32978TIP3   OH299815  10.489   1.890   5.671  0.4301 -0.1790  0.0848
32978TIP3    H199816  10.400   1.924   5.660 -0.5721 -2.5599  0.0660
32978TIP3    H299817  10.516   1.919   5.758 -0.2906  0.7177  0.0201
32979TIP3   OH299818   2.600   7.409   1.812  0.0392  0.1202  0.7605
32979TIP3    H199819   2.657   7.473   1.770 -1.2155 -0.1869 -1.5646
32979TIP3    H299820   2.573   7.351   1.741 -0.0709 -2.1061  2.5029
32980TIP3   OH299821   3.959   1.324   8.007  0.4220  0.0265 -0.0854
32980TIP3    H199822   3.974   1.318   8.102  0.2710  1.6480  0.0656
32980TIP3    H299823   3.917   1.409   7.995  0.8763  0.0496 -1.6724
32981TIP3   OH299824   2.105   3.400   2.157 -0.2397  0.3772  0.0313
32981TIP3    H199825   2.110   3.329   2.093 -0.2737  1.5972 -1.3633
32981TIP3    H299826   2.078   3.477   2.107  0.0163  1.4529  1.4583
32982TIP3   OH299827   3.282   1.701   6.756 -0.5174 -0.3110 -0.1208
32982TIP3    H199828   3.318   1.725   6.670 -1.1492 -0.9515 -0.5798
32982TIP3    H299829   3.197   1.745   6.759 -0.3458 -0.0053  0.3326
32983TIP3   OH299830  10.773   4.293   5.224  0.2679  0.8592 -0.4883
32983TIP3    H199831  10.748   4.385   5.230  0.1372  0.7858  0.2304
32983TIP3    H299832  10.819   4.276   5.307  1.1759  0.5410 -1.0469
32984TIP3   OH299833   4.552   3.167   8.925 -0.1627 -0.7656  0.0012
32984TIP3    H199834   4.542   3.086   8.876  1.5665 -1.2290  0.3505
32984TIP3    H299835   4.487   3.160   8.996 -1.1234 -1.0932 -0.8792
32985TIP3   OH299836   0.293   6.406   4.290  0.2726  0.7882 -0.3429
32985TIP3    H199837   0.319   6.497   4.283  0.0466  1.0427  1.6008
32985TIP3    H299838   0.287   6.376   4.200  0.9804  2.5019 -1.0040
32986TIP3   OH299839   5.555   1.593   1.166 -0.4785  0.0477 -0.1642
32986TIP3    H199840   5.522   1.636   1.245 -0.4024 -0.3628  0.0921
32986TIP3    H299841   5.640   1.556   1.192 -0.5929 -0.3508 -0.3530
32987TIP3   OH299842   1.379   4.667   9.521  0.0109  0.1619 -0.4732
32987TIP3    H199843   1.334   4.694   9.441 -0.3596  0.6298 -0.1100
32987TIP3    H299844   1.467   4.644   9.492 -0.4587 -0.8045 -1.1989
32988TIP3   OH299845   4.868   6.033   4.790 -0.3973  0.2603  0.1737
32988TIP3    H199846   4.778   6.002   4.788 -1.1810  1.8534  3.3153
32988TIP3    H299847   4.888   6.040   4.884  3.1250 -0.2867 -0.3926
32989TIP3   OH299848   5.661   7.708   1.826  0.6995 -0.6596  0.4081
32989TIP3    H199849   5.669   7.778   1.761 -0.8519 -1.0040 -0.1994
32989TIP3    H299850   5.747   7.703   1.866  1.4449  0.1941 -0.9914
32990TIP3   OH299851   9.741   3.088   4.909 -0.7649 -0.2357 -0.2017
32990TIP3    H199852   9.714   3.099   5.000 -0.2919 -0.2389 -0.0584
32990TIP3    H299853   9.662   3.060   4.863 -1.1417  0.3369  0.0958
32991TIP3   OH299854   1.769   9.840   8.235  0.4315 -0.0757  0.8150
32991TIP3    H199855   1.746   9.920   8.188  1.5447 -1.1628 -1.7816
32991TIP3    H299856   1.864   9.843   8.242  0.3362 -0.2170  2.6363
32992TIP3   OH299857   4.454   3.717   1.136 -0.0251 -0.6794  0.1406
32992TIP3    H199858   4.432   3.651   1.201 -1.7215  0.7661  1.1124
32992TIP3    H299859   4.550   3.723   1.140 -0.0681 -0.5210  2.6600
32993TIP3   OH299860   7.250   1.535   4.356  0.0267 -0.2879  0.2605
32993TIP3    H199861   7.180   1.497   4.303 -0.5121  1.9577 -0.7305
32993TIP3    H299862   7.310   1.461   4.372 -2.7128 -2.4364  1.5909
32994TIP3   OH299863   1.938   9.143  10.496  0.3755  0.2312 -0.0292
32994TIP3    H199864   1.906   9.217  10.548  2.0235 -0.4409  2.0762
32994TIP3    H299865   1.958   9.075  10.560 -1.3781 -2.2718 -1.8850
32995TIP3   OH299866   5.049   5.125   6.658 -0.5352  0.1382 -1.0182
32995TIP3    H199867   4.975   5.177   6.627 -0.7486  1.2260  1.1159
32995TIP3    H299868   5.095   5.098   6.578 -0.7268  3.1813 -2.2940
32996TIP3   OH299869   8.707   3.950   6.159 -0.0041 -0.6190 -0.0464
32996TIP3    H199870   8.778   3.965   6.096 -0.1073  2.1216  0.3444
32996TIP3    H299871   8.751   3.924   6.240  0.1629 -3.6279 -0.9933
32997TIP3   OH299872   0.741   7.863   4.821 -0.7306  0.0132  0.0053
32997TIP3    H199873   0.697   7.803   4.760 -1.0297  1.0725 -0.8580
32997TIP3    H299874   0.670   7.919   4.853 -0.3433  0.3474  0.2738
32998TIP3   OH299875  10.002   0.364   8.962 -0.4473 -0.1148  0.0342
32998TIP3    H199876  10.078   0.412   8.994  0.7143 -0.6754 -1.7639
32998TIP3    H299877  10.038   0.289   8.915 -2.1474 -1.0391  0.1228
32999TIP3   OH299878   2.445   6.194   4.507  0.1366 -0.0675  1.1050
32999TIP3    H199879   2.474   6.226   4.593 -1.2117 -0.5913  1.7751
32999TIP3    H299880   2.391   6.265   4.473  2.6049  1.2066 -0.4500
33000TIP3   OH299881   5.724   4.915  10.363 -0.6917  0.7068  0.5074
33000TIP3    H199882   5.672   4.834  10.361 -0.2872  0.4528  0.1018
33000TIP3    H299883   5.672   4.975  10.416 -0.8934  0.1062  1.0072
33001TIP3   OH299884   5.604   9.827   7.457 -0.0993 -0.0989  0.1964
33001TIP3    H199885   5.644   9.843   7.542  0.5991 -1.7022  0.1941
33001TIP3    H299886   5.566   9.912   7.433  2.2872  1.2159  0.7139
33002TIP3   OH299887   6.385   0.759   1.768  0.3119 -0.2755 -0.0966
33002TIP3    H199888   6.374   0.734   1.676  1.6625 -1.2070 -0.0401
33002TIP3    H299889   6.355   0.849   1.772 -0.9604 -0.6207 -1.1815
33003TIP3   OH299890   2.670   3.189   8.059  0.1592 -0.1875 -0.9496
33003TIP3    H199891   2.640   3.217   8.146 -0.3649 -0.3939 -1.0578
33003TIP3    H299892   2.739   3.252   8.036  3.1156 -2.3360  1.2367
33004TIP3   OH299893   9.685   8.483   0.509 -0.1394  0.1219  0.3088
33004TIP3    H199894   9.762   8.529   0.543 -0.0022 -0.5671  0.9694
33004TIP3    H299895   9.719   8.423   0.442 -0.1137 -0.0640  0.4852
33005TIP3   OH299896   3.885   5.509   5.481 -0.0090  0.1983 -0.4643
33005TIP3    H199897   3.796   5.475   5.481  0.1479 -0.2121 -1.0934
33005TIP3    H299898   3.877   5.597   5.519 -0.6659  0.1390 -0.4584
33006TIP3   OH299899   2.145   6.128   2.741 -0.0276 -0.1129  0.3892
33006TIP3    H199900   2.161   6.075   2.820  0.6284 -0.4348  0.0517
33006TIP3    H299901   2.228   6.126   2.694 -1.1262 -2.3351 -1.7458
33007TIP3   OH299902   2.349   7.262   8.876  0.0696  0.0287  0.0823
33007TIP3    H199903   2.415   7.291   8.939  0.3883 -1.0533  0.2640
33007TIP3    H299904   2.294   7.339   8.862 -0.6333  0.0371  2.4591
33008TIP3   OH299905   8.246   7.766   9.355 -0.1466 -0.1979 -0.4159
33008TIP3    H199906   8.253   7.828   9.282 -3.0168  0.4235 -0.3002
33008TIP3    H299907   8.259   7.680   9.315  1.0233  0.2792 -1.1169
33009TIP3   OH299908   7.926   2.677   9.393 -0.3123 -0.3592 -0.1965
33009TIP3    H199909   8.009   2.685   9.439 -0.4387  0.6527 -0.1237
33009TIP3    H299910   7.945   2.617   9.320  0.0857 -1.3223  0.6792
33010TIP3   OH299911   4.626   8.882   5.701 -0.1837 -0.3175  0.1908
33010TIP3    H199912   4.588   8.952   5.753  0.3116 -1.3130  1.9665
33010TIP3    H299913   4.576   8.804   5.725 -0.4933 -0.6768 -1.4781
33011TIP3   OH299914   2.861   7.085   8.102  0.3764 -0.2888  0.7628
33011TIP3    H199915   2.951   7.060   8.083  0.3871  0.8238 -0.8219
33011TIP3    H299916   2.823   7.106   8.017 -1.1993 -0.1313  1.4694
33012TIP3   OH299917   2.235   5.905   0.185 -0.3179 -1.1207  0.3874
33012TIP3    H199918   2.317   5.944   0.215 -0.3747 -0.2003 -0.6044
33012TIP3    H299919   2.184   5.891   0.265  0.5572 -1.1531  0.9569
33013TIP3   OH299920   2.747   6.431   9.029 -0.1148 -0.5821  0.2258
33013TIP3    H199921   2.776   6.475   8.949 -2.5243  1.4454  0.3249
33013TIP3    H299922   2.703   6.352   8.998  0.2383 -0.5591 -0.3437
33014TIP3   OH299923   4.824  10.385   5.430  0.2115 -0.3845 -0.1237
33014TIP3    H199924   4.904  10.392   5.378  1.1461  0.1587  1.3234
33014TIP3    H299925   4.842  10.315   5.492  0.3654  1.0708  1.5276
33015TIP3   OH299926   6.256   3.475   3.477 -0.2409 -0.1400 -0.3148
33015TIP3    H199927   6.166   3.452   3.500 -0.5894  1.8370  0.5349
33015TIP3    H299928   6.247   3.556   3.426  1.0564  0.2162 -0.0177
33016TIP3   OH299929   1.965  10.709   3.789 -0.4643 -0.3730  0.2822
33016TIP3    H199930   1.878  10.750   3.787 -0.2705  0.1264  1.3945
33016TIP3    H299931   1.966  10.659   3.870 -0.1931 -1.4998 -0.3925
33017TIP3   OH299932   3.147   6.725   5.245 -0.6310  0.0337  0.3266
33017TIP3    H199933   3.063   6.771   5.247  0.3896  2.0217  2.7319
33017TIP3    H299934   3.211   6.793   5.222  0.6567 -0.6743  1.6421
33018TIP3   OH299935   9.804   8.628   8.765  0.2098  0.0314 -0.3267
33018TIP3    H199936   9.795   8.676   8.683 -0.2208 -0.8091 -0.7821
33018TIP3    H299937   9.799   8.696   8.833 -0.8458  0.5837 -0.9376
33019TIP3   OH299938   0.821  10.018   4.940 -0.2303  0.3136  0.3561
33019TIP3    H199939   0.839  10.032   5.033 -1.4817 -2.6771  1.1758
33019TIP3    H299940   0.900   9.974   4.907  0.3823  1.7391 -0.1578
33020TIP3   OH299941  10.219   1.675   2.305  0.0164 -0.5712 -0.9783
33020TIP3    H199942  10.148   1.614   2.324 -0.0587 -0.3774 -0.6070
33020TIP3    H299943  10.294   1.620   2.286 -0.4051 -0.7860 -2.0969
33021TIP3   OH299944   9.163   3.248   2.646 -0.0239 -0.4417  0.3009
33021TIP3    H199945   9.069   3.250   2.630  0.2714  0.9594 -1.5584
33021TIP3    H299946   9.182   3.331   2.690  0.6011  0.3364 -1.3347
33022TIP3   OH299947   4.242   1.721   8.864 -0.4673  0.1523  0.0188
33022TIP3    H199948   4.282   1.689   8.945 -0.8011  0.7875  0.4426
33022TIP3    H299949   4.153   1.688   8.867 -0.6496  0.6567  0.1900
33023TIP3   OH299950  10.106   3.102   1.212  0.0228 -0.0052  0.5688
33023TIP3    H199951  10.012   3.083   1.208 -0.6462  2.4702  2.1996
33023TIP3    H299952  10.124   3.154   1.134  0.1092 -0.5714  0.1991
33024TIP3   OH299953   4.055   8.641  10.218 -0.3559 -0.6316  0.0734
33024TIP3    H199954   4.065   8.556  10.177 -1.9989 -0.5398 -0.5920
33024TIP3    H299955   3.974   8.635  10.268 -1.4061  0.9897 -1.2899
33025TIP3   OH299956   7.747   8.114   3.472 -0.5043  0.3670  0.0792
33025TIP3    H199957   7.788   8.176   3.412 -2.0147  0.6872 -0.6850
33025TIP3    H299958   7.662   8.095   3.432  0.0140 -2.4515  0.1128
33026TIP3   OH299959   8.903   8.551   5.334  0.2827  0.1262  0.3191
33026TIP3    H199960   8.878   8.488   5.266  0.5769  1.4888 -1.1017
33026TIP3    H299961   8.997   8.563   5.321  0.5470 -0.3182  1.6377
33027TIP3   OH299962   0.938   8.827   8.559 -0.1626 -0.0652 -0.0448
33027TIP3    H199963   0.936   8.919   8.584  0.3216  0.1055 -0.6367
33027TIP3    H299964   0.857   8.791   8.597  0.4112  0.2384  1.5515
33028TIP3   OH299965   2.341   3.396   1.115 -0.4221 -0.4326  0.0409
33028TIP3    H199966   2.378   3.386   1.202  0.0925 -2.3733 -0.3541
33028TIP3    H299967   2.248   3.375   1.126 -0.3891 -0.5231  0.1467
33029TIP3   OH299968  10.639   9.459   6.754 -0.1583  0.3165  0.3578
33029TIP3    H199969  10.732   9.478   6.742  0.0303  0.0976  1.3937
33029TIP3    H299970  10.594   9.526   6.704  0.5560 -0.0392 -0.8209
33030TIP3   OH299971   8.240   7.943   9.723 -0.8699 -0.0179 -0.1102
33030TIP3    H199972   8.200   7.927   9.809 -0.4920  1.5901  0.4102
33030TIP3    H299973   8.305   8.012   9.740 -0.9198  0.4593 -1.7271
33031TIP3   OH299974   8.082   3.997   7.850  0.0735 -0.7081  0.2020
33031TIP3    H199975   7.999   4.033   7.880  0.2451  0.2283 -0.4205
33031TIP3    H299976   8.148   4.062   7.875  0.1832  0.3202 -2.4576
33032TIP3   OH299977   1.196   5.652   5.534  0.0492 -0.2129  0.2501
33032TIP3    H199978   1.174   5.631   5.444  1.2424  2.1533 -0.6975
33032TIP3    H299979   1.122   5.704   5.566  0.4279  0.5226 -0.0357
33033TIP3   OH299980   8.099   8.317   8.015 -0.0666  0.6343 -0.3588
33033TIP3    H199981   8.060   8.374   7.949  1.4108  2.7426  0.4930
33033TIP3    H299982   8.193   8.328   8.004  0.2285  0.5218  1.6239
33034TIP3   OH299983   2.556   2.433   1.369  0.2708 -0.2689 -0.1959
33034TIP3    H199984   2.546   2.460   1.461  0.7488 -0.9627  0.0661
33034TIP3    H299985   2.596   2.509   1.327  0.4446 -0.0963  0.2649
33035TIP3   OH299986   8.178   8.416   9.352 -0.8833 -0.0359 -0.0871
33035TIP3    H199987   8.207   8.338   9.304 -0.5097  0.3141 -0.4313
33035TIP3    H299988   8.186   8.488   9.290 -0.6743  0.3778  0.4097
33036TIP3   OH299989   6.508   8.019   7.797 -0.3960 -0.4385  0.7046
33036TIP3    H199990   6.583   8.066   7.834 -0.8391 -0.8389  2.1852
33036TIP3    H299991   6.532   7.927   7.803  0.0218 -0.4945 -1.1942
33037TIP3   OH299992   3.237   1.074   2.541 -0.4549  0.2068 -0.1582
33037TIP3    H199993   3.150   1.109   2.523 -1.8209 -1.5833  2.3639
33037TIP3    H299994   3.225   1.014   2.615  2.4354 -2.2157 -1.4053
33038TIP3   OH299995   7.540   5.049   2.654 -0.5323  0.7996  0.0965
33038TIP3    H199996   7.604   5.026   2.587 -1.3949  1.8103 -1.1373
33038TIP3    H299997   7.459   5.006   2.626 -1.1795  2.1171 -0.1320
33039TIP3   OH299998   9.292   4.691   6.736 -0.4058  0.2772 -0.1486
33039TIP3    H199999   9.234   4.639   6.680 -3.0382  0.8684  1.8301
33039TIP3    H2    0   9.314   4.633   6.809 -0.3337  0.7900  0.2441
33040TIP3   OH2    1   5.297   6.833   7.433  0.7618 -0.2755  0.1675
33040TIP3    H1    2   5.235   6.774   7.391 -0.0357  0.7849 -0.1828
33040TIP3    H2    3   5.310   6.904   7.369  0.5077  0.7115  1.1793
33041TIP3   OH2    4   2.552   2.797   2.399  0.0335 -0.5729 -0.1341
33041TIP3    H1    5   2.581   2.827   2.485  0.8328 -0.4040 -0.4450
33041TIP3    H2    6   2.570   2.872   2.341 -1.2406 -0.3921 -0.3134
33042TIP3   OH2    7   7.806   0.926   0.871  0.2048 -0.3090 -0.4389
33042TIP3    H1    8   7.859   0.994   0.830  0.1467 -0.9258 -1.5572
33042TIP3    H2    9   7.729   0.973   0.905  0.2964  0.2195 -0.9430
33043TIP3   OH2   10   3.168   8.194   4.596  0.0276 -0.0389 -0.0000
33043TIP3    H1   11   3.195   8.102   4.601  0.8787  0.1265 -1.1247
33043TIP3    H2   12   3.234   8.240   4.648  0.6572  0.1119 -0.8991
33044TIP3   OH2   13   2.127   1.688   5.159  0.6276  0.0139 -0.3730
33044TIP3    H1   14   2.115   1.593   5.147  0.6618  0.0689 -0.8633
33044TIP3    H2   15   2.108   1.703   5.251  2.9627 -0.8280  0.3016
33045TIP3   OH2   16  10.475   8.956   0.469  0.0591 -0.1675 -0.1028
33045TIP3    H1   17  10.533   9.032   0.462 -2.2298  1.6920 -0.2871
33045TIP3    H2   18  10.484   8.911   0.385  1.6953 -0.3336  0.1332
33046TIP3   OH2   19   3.078   0.614   8.491  0.5185 -0.4422 -0.5771
33046TIP3    H1   20   3.113   0.555   8.425  0.2496 -1.8050  0.4615
33046TIP3    H2   21   2.999   0.570   8.523  0.1550  0.6163  0.0229
33047TIP3   OH2   22   7.015   6.160   7.797 -0.2276  0.3537  0.9686
33047TIP3    H1   23   6.923   6.175   7.775 -0.2923  1.4971  1.9298
33047TIP3    H2   24   7.028   6.066   7.783 -0.8342  0.5655 -1.6713
33048TIP3   OH2   25   8.711  10.092   5.707  0.2302 -0.6874  0.1726
33048TIP3    H1   26   8.742  10.087   5.798  0.3559  1.0131  0.2522
33048TIP3    H2   27   8.792  10.096   5.655  0.1615 -1.9125 -0.0556
33049TIP3   OH2   28   4.916   6.251   8.257 -0.0007 -0.1795 -0.3933
33049TIP3    H1   29   4.923   6.229   8.164 -1.1544  0.9989 -0.7972
33049TIP3    H2   30   4.933   6.169   8.303  0.0852 -0.8963 -1.6700
33050TIP3   OH2   31   4.950   3.602  10.778  0.4551 -0.4204  0.3434
33050TIP3    H1   32   4.899   3.683  10.778  1.5270  0.2740  0.0799
33050TIP3    H2   33   4.929   3.561  10.694  2.9056  1.5789 -1.4057
33051TIP3   OH2   34   4.451   0.026   9.439  0.3042  0.2522  0.0293
33051TIP3    H1   35   4.401   0.103   9.466 -0.9703 -0.1879 -0.9534
33051TIP3    H2   36   4.408  -0.003   9.358  1.6394 -0.6587 -0.3883
33052TIP3   OH2   37   2.534   2.696   9.172  0.0295  0.3461 -0.3265
33052TIP3    H1   38   2.587   2.738   9.104 -0.5970  1.8808  0.0741
33052TIP3    H2   39   2.505   2.769   9.227 -0.6271 -0.7113  0.7737
33053TIP3   OH2   40   9.772   2.046  10.900 -0.3415 -0.2977  0.2061
33053TIP3    H1   41   9.779   1.953  10.921  1.2588  0.0279  1.2636
33053TIP3    H2   42   9.770   2.049  10.804  1.7420 -1.3449  0.0815
33054TIP3   OH2   43   6.081   0.440   8.961  0.3124  0.1617  0.0597
33054TIP3    H1   44   6.028   0.479   9.031 -1.6168  0.4402 -1.4623
33054TIP3    H2   45   6.171   0.461   8.985 -0.1239 -1.0328  3.1996
33055TIP3   OH2   46   1.369   1.111   3.061  0.0968 -0.5302 -0.4602
33055TIP3    H1   47   1.363   1.198   3.022  2.6419  0.2724  0.6845
33055TIP3    H2   48   1.346   1.125   3.153  0.5540 -1.0390 -0.2642
33056TIP3   OH2   49   8.366   6.154   2.572  0.8829  0.5051  0.1558
33056TIP3    H1   50   8.443   6.154   2.628  1.9023 -0.6262 -1.1873
33056TIP3    H2   51   8.389   6.097   2.499 -1.5827 -0.6438  0.1838
33057TIP3   OH2   52   6.638   6.838   7.458  0.6275 -0.4594  0.6510
33057TIP3    H1   53   6.726   6.833   7.420  0.6261  2.6653 -0.0935
33057TIP3    H2   54   6.618   6.932   7.458 -2.3693 -0.9934  1.6421
33058TIP3   OH2   55   6.419   1.720   6.131  0.4621  0.7537  0.4083
33058TIP3    H1   56   6.509   1.751   6.119  0.6557 -0.4909 -1.8063
33058TIP3    H2   57   6.373   1.751   6.054 -0.4593 -0.5071  0.4308
33059TIP3   OH2   58   2.225   4.593   1.154 -0.6245  0.1508 -0.4877
33059TIP3    H1   59   2.243   4.622   1.065 -1.4185 -0.5143 -0.8747
33059TIP3    H2   60   2.183   4.507   1.144 -1.5003  0.4387  0.4737
33060TIP3   OH2   61   9.979   1.543   7.952 -0.5882 -0.0887  0.3035
33060TIP3    H1   62   9.886   1.566   7.947 -0.4740  0.6888  1.3792
33060TIP3    H2   63  10.023   1.627   7.966 -0.1592 -0.8414  4.8041
33061TIP3   OH2   64   5.410   0.974  10.201  0.1161 -0.2210 -0.6413
33061TIP3    H1   65   5.396   1.055  10.151 -1.3048  0.9056  1.4285
33061TIP3    H2   66   5.385   0.904  10.141 -2.9772  1.1497 -1.1310
33062TIP3   OH2   67   0.454   4.614   9.326  0.3476  0.2579 -0.3116
33062TIP3    H1   68   0.417   4.648   9.408 -0.4841 -0.4119 -0.4023
33062TIP3    H2   69   0.394   4.644   9.258 -0.3938 -1.3095 -0.4005
33063TIP3   OH2   70   2.641   4.730   6.804 -0.6779 -0.3877 -0.2350
33063TIP3    H1   71   2.715   4.689   6.849 -0.8210 -0.4949 -0.0945
33063TIP3    H2   72   2.662   4.722   6.711 -1.8249 -3.0062 -0.3587
33064TIP3   OH2   73   5.818   2.513   2.579 -0.1064  0.3044 -0.0107
33064TIP3    H1   74   5.898   2.534   2.531  0.0767  0.6864  0.4537
33064TIP3    H2   75   5.801   2.590   2.633 -1.0598  0.4099 -0.4584
33065TIP3   OH2   76  10.544  10.589   0.262 -0.3332 -0.4067  0.2779
33065TIP3    H1   77  10.457  10.628   0.254 -0.4494 -0.1234  2.4382
33065TIP3    H2   78  10.577  10.585   0.172 -2.3353  0.0087 -0.5184
33066TIP3   OH2   79   6.994   4.156   9.428 -0.6150  0.2720 -0.0896
33066TIP3    H1   80   7.012   4.206   9.348  1.2731  0.5149  0.4464
33066TIP3    H2   81   7.046   4.199   9.496 -1.8790 -0.1660  1.2239
33067TIP3   OH2   82   8.365  10.351   0.891  0.0196  0.9120  0.0226
33067TIP3    H1   83   8.436  10.297   0.926 -0.7070  1.6175  2.8420
33067TIP3    H2   84   8.298  10.287   0.866  1.3147  0.2798 -2.0889
33068TIP3   OH2   85   0.913   3.972   7.521  0.3563 -0.3780  0.5814
33068TIP3    H1   86   0.950   4.047   7.475 -2.5468  1.0635  0.3512
33068TIP3    H2   87   0.920   3.900   7.458  1.6384  0.0943  0.1446
33069TIP3   OH2   88   3.697   6.679   2.641 -0.2557 -0.3980 -0.8026
33069TIP3    H1   89   3.714   6.732   2.719  0.0178 -0.5526 -0.7586
33069TIP3    H2   90   3.698   6.742   2.568  4.0819 -0.8063 -1.3140
33070TIP3   OH2   91   2.038  10.776   9.249 -0.4409 -0.0151 -0.1255
33070TIP3    H1   92   1.989  10.695   9.238  1.0038 -0.9673  0.0856
33070TIP3    H2   93   1.972  10.843   9.261 -1.6883 -1.1132 -0.5907
33071TIP3   OH2   94   5.876  10.095   9.642  0.0420  0.1501  0.2794
33071TIP3    H1   95   5.853  10.153   9.715 -2.4423  1.1283 -1.1386
33071TIP3    H2   96   5.865  10.007   9.677 -1.2713  0.6016  1.0942
33072TIP3   OH2   97   0.323   5.949   2.605 -0.0425 -0.1656  0.4443
33072TIP3    H1   98   0.410   5.949   2.565 -0.0195 -0.5382  0.4906
33072TIP3    H2   99   0.304   6.041   2.622 -0.5661  0.1645 -1.5796
33073TIP3   OH2  100   7.858   3.647   5.915 -0.3864  0.2660  0.1523
33073TIP3    H1  101   7.903   3.616   5.837  1.9304  1.9980  0.7030
33073TIP3    H2  102   7.880   3.583   5.983 -1.0981 -0.3829 -0.2110
33074TIP3   OH2  103   7.129   7.179   7.685  0.5729  0.2737  0.3097
33074TIP3    H1  104   7.210   7.163   7.638  0.6603 -1.5605  0.9919
33074TIP3    H2  105   7.101   7.092   7.715 -1.2134  0.9603  0.7830
33075TIP3   OH2  106   4.710   3.017   8.544  0.5708  0.2410 -0.1682
33075TIP3    H1  107   4.725   3.026   8.638 -2.5439 -0.0480  0.4606
33075TIP3    H2  108   4.721   2.924   8.526  1.0711  0.2824 -0.0907
33076TIP3   OH2  109   4.140   5.536   0.022 -0.6977 -0.1903 -0.2209
33076TIP3    H1  110   4.171   5.562  -0.064 -1.3782  2.3453  0.2118
33076TIP3    H2  111   4.072   5.600   0.044 -0.5537 -0.7457  2.2011
33077TIP3   OH2  112   4.596   6.983   1.958  0.4405  0.0736 -0.4906
33077TIP3    H1  113   4.614   6.890   1.945 -2.3440 -0.6382  0.0195
33077TIP3    H2  114   4.528   7.004   1.894 -1.2665  0.8690  1.4715
33078TIP3   OH2  115   1.992   8.935   7.702 -0.0800  0.1337  0.4015
33078TIP3    H1  116   1.962   8.927   7.612  1.0372 -3.0698  0.1699
33078TIP3    H2  117   1.963   9.022   7.730  1.1498  2.0573 -3.5926
33079TIP3   OH2  118   0.894  10.597   0.225  0.1198  0.1511 -0.0183
33079TIP3    H1  119   0.807  10.575   0.258  0.3309  1.6436  1.6965
33079TIP3    H2  120   0.892  10.692   0.213  1.4393  0.1835 -0.1621
33080TIP3   OH2  121   1.611   8.867   4.042  0.2263  0.0300  0.4949
33080TIP3    H1  122   1.668   8.860   4.119  1.7796  0.1796 -0.6098
33080TIP3    H2  123   1.534   8.914   4.074  0.3817 -0.7770  2.1950
33081TIP3   OH2  124   0.406   6.461   5.608 -0.1378 -0.3770  0.0698
33081TIP3    H1  125   0.432   6.373   5.637 -1.7722 -0.5442  1.1866
33081TIP3    H2  126   0.339   6.446   5.542 -0.1289  0.0270 -0.0329
33082TIP3   OH2  127   0.467   3.690   5.339  0.0020  0.1561  0.1837
33082TIP3    H1  128   0.470   3.607   5.387 -0.5417  0.4380  0.7096
33082TIP3    H2  129   0.413   3.748   5.393  0.4513  0.8855 -0.1329
33083TIP3   OH2  130   6.268   6.828   6.823  0.2523 -0.1632  0.5186
33083TIP3    H1  131   6.308   6.867   6.746  1.8321 -0.0685  1.3492
33083TIP3    H2  132   6.176   6.854   6.818  0.5831  0.8777 -0.6673
33084TIP3   OH2  133  10.150   5.276   3.364  0.2139 -0.1708 -0.4123
33084TIP3    H1  134  10.124   5.208   3.302  1.8682  0.3687 -1.7799
33084TIP3    H2  135  10.136   5.236   3.450 -0.0119 -1.7838 -1.1598
33085TIP3   OH2  136   5.687  10.325   6.687  0.8517 -0.0629 -0.1534
33085TIP3    H1  137   5.603  10.358   6.654  0.4774  0.7231  1.4993
33085TIP3    H2  138   5.749  10.345   6.617  0.3871  3.0737  0.1903
33086TIP3   OH2  139   0.260   9.048   3.899 -0.2431  0.1069 -0.3372
33086TIP3    H1  140   0.209   9.063   3.979 -0.6340 -0.9202 -0.3811
33086TIP3    H2  141   0.274   8.953   3.897 -0.8157  0.0331 -1.8296
33087TIP3   OH2  142   2.803  10.220   5.197  0.7390  0.4207  0.4230
33087TIP3    H1  143   2.892  10.254   5.190  1.1069 -0.5061  0.4076
33087TIP3    H2  144   2.762  10.274   5.264  1.4019  0.6632  0.6452
33088TIP3   OH2  145   4.215   8.047   6.504 -0.9700 -0.3608  0.4139
33088TIP3    H1  146   4.260   8.077   6.583 -0.6194 -0.8975  0.4281
33088TIP3    H2  147   4.283   8.003   6.453 -0.6900  1.8188 -1.2203
33089TIP3   OH2  148   8.910   7.291   0.080 -0.0317 -0.2226  0.0790
33089TIP3    H1  149   8.894   7.211   0.030 -1.7262  0.8312 -1.2212
33089TIP3    H2  150   8.883   7.361   0.020  1.5224  1.3275  1.1218
33090TIP3   OH2  151   1.837   6.658   4.629 -0.4764  0.2507 -0.4756
33090TIP3    H1  152   1.831   6.678   4.723  1.2606 -0.4041 -0.1822
33090TIP3    H2  153   1.861   6.741   4.588 -1.3815  0.5721 -0.3792
33091TIP3   OH2  154   2.346   5.453   9.300  0.6909  0.0055 -0.1037
33091TIP3    H1  155   2.269   5.503   9.324  0.3160 -0.7120  0.2355
33091TIP3    H2  156   2.311   5.370   9.265  1.2608  0.3483 -1.5774
33092TIP3   OH2  157   5.653   3.672   8.786 -0.0136  0.1736 -0.4108
33092TIP3    H1  158   5.654   3.674   8.691 -0.1908 -1.4539 -0.4760
33092TIP3    H2  159   5.744   3.681   8.812  0.0225  0.7339 -0.7238
33093TIP3   OH2  160   6.026   3.166  10.440  0.4762  0.6206 -0.0750
33093TIP3    H1  161   5.971   3.158  10.362 -0.3525 -0.1802  0.5623
33093TIP3    H2  162   6.079   3.086  10.440  1.8040  1.4601 -0.7738
33094TIP3   OH2  163   9.221   5.760   2.713  0.2686  0.7925  0.1764
33094TIP3    H1  164   9.255   5.818   2.781  0.0541  1.7471 -0.5052
33094TIP3    H2  165   9.143   5.806   2.679  0.9031  0.8036 -1.3419
33095TIP3   OH2  166   9.070   6.616   0.843  0.0758  0.4736 -0.4291
33095TIP3    H1  167   9.078   6.711   0.850  2.3343  0.2295  2.0247
33095TIP3    H2  168   9.013   6.591   0.916  1.0048 -0.1770  0.0883
33096TIP3   OH2  169   0.842   9.488   2.649  0.1477  0.0893 -0.6632
33096TIP3    H1  170   0.904   9.548   2.608 -0.3282 -0.3358 -2.0802
33096TIP3    H2  171   0.865   9.402   2.612  0.5188 -0.5367  0.9614
33097TIP3   OH2  172   0.067   7.438   6.215 -0.3326  0.5810 -0.2850
33097TIP3    H1  173   0.017   7.399   6.286 -0.2639  2.0031  0.5904
33097TIP3    H2  174   0.060   7.533   6.230  2.3137  0.8575 -0.3081
33098TIP3   OH2  175   1.601  10.088   1.758 -0.0245  0.4562 -0.5319
33098TIP3    H1  176   1.677  10.113   1.705 -0.2977  0.9877 -0.6878
33098TIP3    H2  177   1.552  10.027   1.703  1.7671 -2.2337  0.6819
33099TIP3   OH2  178   9.562   1.481   9.929  0.0158  0.5758  0.3697
33099TIP3    H1  179   9.553   1.411   9.865  1.2859  0.5333  0.1980
33099TIP3    H2  180   9.621   1.544   9.887  0.8252  0.5729  1.4524
33100TIP3   OH2  181   7.332   7.664   0.175 -0.7092 -0.2942  0.3806
33100TIP3    H1  182   7.240   7.638   0.164 -1.5249  2.3881  0.0374
33100TIP3    H2  183   7.364   7.675   0.086 -0.6613  0.5991  0.4989
33101TIP3   OH2  184   1.633   1.336   4.754 -0.3849 -0.4107  0.2011
33101TIP3    H1  185   1.541   1.337   4.779 -0.1199 -0.5787  1.2267
33101TIP3    H2  186   1.640   1.266   4.689 -1.3351  0.9077 -1.3944
33102TIP3   OH2  187   2.262   5.590   7.359 -0.2365 -0.4488  0.9253
33102TIP3    H1  188   2.305   5.536   7.425  0.5199  0.5933  1.3080
33102TIP3    H2  189   2.305   5.567   7.277 -2.5633 -3.2701  0.3534
33103TIP3   OH2  190   3.236   6.399   8.254  0.2465  0.2092 -0.1572
33103TIP3    H1  191   3.237   6.451   8.334  0.7106 -1.8596  1.2683
33103TIP3    H2  192   3.144   6.372   8.245  0.1771  0.5168 -0.3855
33104TIP3   OH2  193   4.511   0.949   3.233  0.0195  0.4140 -0.1430
33104TIP3    H1  194   4.525   0.919   3.323  0.4511  0.0498 -0.3329
33104TIP3    H2  195   4.421   0.921   3.213  0.0108  0.2756  0.0844
33105TIP3   OH2  196   0.576   5.050   5.559  0.1973  0.2689  0.2275
33105TIP3    H1  197   0.627   5.130   5.544  0.9610 -0.1985  0.2524
33105TIP3    H2  198   0.602   5.021   5.646 -0.5214  0.3081  0.4558
33106TIP3   OH2  199   4.201   6.664   4.313 -1.0315 -0.6211 -0.1988
33106TIP3    H1  200   4.236   6.628   4.231 -1.2949 -0.3737 -0.4200
33106TIP3    H2  201   4.134   6.601   4.341  0.1056 -1.5052  0.6310
33107TIP3   OH2  202   3.143   1.568  10.018  0.0244  0.0354 -0.0830
33107TIP3    H1  203   3.122   1.532  10.104  0.1318  0.2389  0.0304
33107TIP3    H2  204   3.236   1.549  10.006  0.9658  2.9920  1.3698
33108TIP3   OH2  205  10.129   2.988   0.375  0.7121  0.2035 -0.4449
33108TIP3    H1  206  10.125   2.931   0.452  1.3611  0.8224  0.0551
33108TIP3    H2  207  10.152   3.074   0.410  0.9243  0.5142 -1.3291
33109TIP3   OH2  208   5.901   1.324   5.817  0.4909 -0.7532  0.2220
33109TIP3    H1  209   5.941   1.303   5.902  1.0261  3.2064  1.1732
33109TIP3    H2  210   5.808   1.336   5.838  0.7227  0.8511  0.4913
33110TIP3   OH2  211   3.434   0.775  10.370 -0.1948  0.2056 -0.3234
33110TIP3    H1  212   3.481   0.847  10.411  0.5027 -0.7166  0.5353
33110TIP3    H2  213   3.412   0.807  10.283 -1.1330  1.9590  0.5148
33111TIP3   OH2  214   7.996   0.308   5.462  0.1920 -0.5559 -0.4358
33111TIP3    H1  215   7.959   0.386   5.420 -0.0118 -0.6576 -0.4492
33111TIP3    H2  216   8.072   0.286   5.408 -0.2642 -0.8840 -0.9666
33112TIP3   OH2  217   6.663   7.431   1.839 -0.6435  0.2511 -0.0033
33112TIP3    H1  218   6.744   7.381   1.847 -0.6916  0.2016  0.1798
33112TIP3    H2  219   6.680   7.513   1.885 -0.3990  0.6106 -0.7254
33113TIP3   OH2  220   8.538   0.094   0.002  0.3509  0.7137 -0.8577
33113TIP3    H1  221   8.566   0.059   0.086  0.4544  1.2181 -0.6748
33113TIP3    H2  222   8.488   0.173   0.025  0.0841  0.6606 -1.2502
33114TIP3   OH2  223   2.443   2.921   0.402 -0.1460 -0.6030  0.0232
33114TIP3    H1  224   2.434   2.914   0.497  0.8312  1.4521  0.3120
33114TIP3    H2  225   2.414   3.010   0.382  0.6799 -0.6475 -1.4674
33115TIP3   OH2  226   1.871   3.596   1.181  0.0610  0.0132  0.5322
33115TIP3    H1  227   1.923   3.609   1.260 -0.2492  1.2405  0.5462
33115TIP3    H2  228   1.886   3.504   1.158  0.5541 -0.2240  1.7228
33116TIP3   OH2  229   3.267   8.533   4.349 -0.5657 -0.3833  0.4568
33116TIP3    H1  230   3.359   8.559   4.344 -0.3143 -1.1457  1.0283
33116TIP3    H2  231   3.244   8.542   4.441 -0.8874 -0.7873  0.4182
33117TIP3   OH2  232   2.812   0.561   7.171  0.4281  0.4049 -0.1319
33117TIP3    H1  233   2.873   0.569   7.098 -0.4954 -2.5583 -1.3803
33117TIP3    H2  234   2.863   0.525   7.242  0.5095 -0.5340 -0.6526
33118TIP3   OH2  235   1.660   7.570  10.119  0.0227  0.0096 -0.2201
33118TIP3    H1  236   1.571   7.599  10.097  0.0169  0.4783  0.3940
33118TIP3    H2  237   1.647   7.488  10.166 -0.1113  0.2279  0.1325
33119TIP3   OH2  238   3.083   9.813   0.297  0.3289  0.5021  0.3492
33119TIP3    H1  239   3.149   9.751   0.268 -0.1756  0.0077  0.2344
33119TIP3    H2  240   3.119   9.852   0.376  0.5847 -0.0573  0.5112
33120TIP3   OH2  241   9.358   6.482  10.506 -0.0358 -0.5121 -0.3644
33120TIP3    H1  242   9.347   6.511  10.597 -1.5405 -0.7469 -0.4484
33120TIP3    H2  243   9.269   6.462  10.477 -0.0730  2.5374 -2.9060
33121TIP3   OH2  244   8.914  10.686   1.455  0.1790 -0.2932 -0.7514
33121TIP3    H1  245   8.876  10.716   1.372  1.0818  1.1277 -0.6800
33121TIP3    H2  246   8.937  10.594   1.438 -0.3973 -0.2633 -1.8058
33122TIP3   OH2  247   5.294   2.454   1.901  0.0998  0.5515  0.0439
33122TIP3    H1  248   5.336   2.418   1.979  1.2989  4.1171  1.2207
33122TIP3    H2  249   5.339   2.411   1.827  1.4963 -0.2295  1.2964
33123TIP3   OH2  250   8.104   6.559   7.704 -0.2553  0.3392  0.0061
33123TIP3    H1  251   8.076   6.468   7.708 -0.6218  0.4955  1.8299
33123TIP3    H2  252   8.025   6.610   7.724  0.2296  0.9790  0.3528
33124TIP3   OH2  253   0.561   1.104   4.048  0.4472 -0.4082 -0.2505
33124TIP3    H1  254   0.572   1.178   4.108  0.7130 -1.1006  0.5633
33124TIP3    H2  255   0.475   1.118   4.008  1.2200  1.2984 -1.4621
33125TIP3   OH2  256   9.878   0.355   3.420 -0.4558  0.6589 -0.1479
33125TIP3    H1  257   9.943   0.306   3.472  1.0889  3.4090  0.7579
33125TIP3    H2  258   9.795   0.310   3.437  0.8203 -1.6323  0.5211
33126TIP3   OH2  259   0.097   2.497   7.195 -1.0589 -0.0544 -0.1148
33126TIP3    H1  260   0.136   2.463   7.276 -1.1115 -0.2066 -0.1531
33126TIP3    H2  261   0.172   2.523   7.141 -1.0303  0.2974  0.0904
33127TIP3   OH2  262   4.143   8.438   1.315  0.2170 -0.6062  0.7510
33127TIP3    H1  263   4.201   8.388   1.372  0.5723  1.8326  2.7177
33127TIP3    H2  264   4.200   8.472   1.246  0.6393 -0.3051  1.2398
33128TIP3   OH2  265   8.621   1.282   0.323  0.1610  0.3816 -0.1861
33128TIP3    H1  266   8.690   1.344   0.300 -1.1496  2.4545  1.1294
33128TIP3    H2  267   8.540   1.327   0.298 -0.8241 -1.0446  0.3449
33129TIP3   OH2  268   7.697   5.555   7.460 -0.0916  0.0167 -0.0790
33129TIP3    H1  269   7.718   5.545   7.367  1.3271 -0.1067  0.2300
33129TIP3    H2  270   7.624   5.616   7.461  0.3628  0.6229 -1.2468
33130TIP3   OH2  271  10.398  10.607   0.905 -0.3232 -0.6779  0.0712
33130TIP3    H1  272  10.485  10.645   0.893 -0.4380 -0.2435  0.5445
33130TIP3    H2  273  10.374  10.629   0.996 -0.8423 -0.9606  0.0108
33131TIP3   OH2  274   3.797   9.065   2.384  0.4363 -0.7250  0.0729
33131TIP3    H1  275   3.823   9.142   2.434 -0.1866 -1.4173  1.5188
33131TIP3    H2  276   3.772   9.000   2.450  1.7840 -2.5097 -1.0476
33132TIP3   OH2  277   6.201   6.260   9.917  0.4144  0.1846  0.1717
33132TIP3    H1  278   6.296   6.273   9.922  0.5022  0.2515 -1.3171
33132TIP3    H2  279   6.181   6.261   9.823 -0.7006 -2.4011  0.2941
33133TIP3   OH2  280   8.866   0.833   5.722 -0.0438 -0.2860  0.0996
33133TIP3    H1  281   8.955   0.842   5.757 -0.1949 -1.3680  0.7993
33133TIP3    H2  282   8.826   0.765   5.775 -0.7035 -1.1107 -1.3821
33134TIP3   OH2  283   8.620   6.005   2.726  0.1552  0.4572  0.0223
33134TIP3    H1  284   8.615   6.003   2.822  0.4991  0.5092  0.0413
33134TIP3    H2  285   8.632   5.914   2.700  0.5523  0.4989  0.0559
33135TIP3   OH2  286   6.204   4.492  10.549  0.1110  0.1975  0.6227
33135TIP3    H1  287   6.180   4.402  10.569 -0.9409  0.8356  2.4405
33135TIP3    H2  288   6.196   4.499  10.454  1.8784 -2.0487  0.2208
33136TIP3   OH2  289   3.748   9.986   0.047 -0.2239  0.2438  0.4981
33136TIP3    H1  290   3.773  10.075   0.023  0.1007 -0.2875 -1.3364
33136TIP3    H2  291   3.717   9.947  -0.035 -1.4171 -0.9994  1.4846
33137TIP3   OH2  292   9.227   9.552  10.890 -0.7433  0.4670  0.0400
33137TIP3    H1  293   9.161   9.614  10.920  0.3433  2.2677 -1.1316
33137TIP3    H2  294   9.295   9.606  10.850  1.6815 -1.2775  1.5598
33138TIP3   OH2  295   0.454  10.010   3.027 -0.2881 -0.0618  0.0054
33138TIP3    H1  296   0.509   9.948   2.980 -0.5941 -0.4245  0.1161
33138TIP3    H2  297   0.490  10.096   3.005 -0.1797 -0.2473 -0.5676
33139TIP3   OH2  298   6.300   3.065   0.768 -0.2135 -0.1233 -0.0150
33139TIP3    H1  299   6.392   3.060   0.740 -0.2477 -2.6659  0.0765
33139TIP3    H2  300   6.254   3.106   0.695  0.8189  0.2067 -0.4984
33140TIP3   OH2  301   7.809   0.635   1.265  0.2343  0.3186  0.0912
33140TIP3    H1  302   7.876   0.645   1.332  1.4534 -2.6348 -0.5465
33140TIP3    H2  303   7.839   0.690   1.192  1.3247 -0.0266  0.2680
33141TIP3   OH2  304   0.199   8.057   6.412  0.6122 -0.4673 -0.1967
33141TIP3    H1  305   0.280   8.024   6.451  0.6590  0.6583  0.6944
33141TIP3    H2  306   0.132   7.997   6.444  1.0953 -1.5424 -1.1201
33142TIP3   OH2  307   0.981   4.042   4.882 -0.1693 -0.4478 -0.5673
33142TIP3    H1  308   0.943   3.997   4.957  1.5178 -0.8006  0.1343
33142TIP3    H2  309   1.074   4.021   4.886  0.1439  0.4535 -2.1210
33143TIP3   OH2  310   8.147   0.249   9.052  0.0030  0.3275  0.4765
33143TIP3    H1  311   8.236   0.284   9.058  0.9818 -2.1360  2.2197
33143TIP3    H2  312   8.120   0.235   9.143 -1.6159 -0.2292 -0.0518
33144TIP3   OH2  313   9.398   5.952   8.708 -0.0599 -0.0851  0.4850
33144TIP3    H1  314   9.349   6.034   8.720  1.7457  1.1894 -0.2684
33144TIP3    H2  315   9.354   5.889   8.764 -2.8196  0.8226 -0.5175
33145TIP3   OH2  316   2.500   7.771   5.359  0.1176 -0.0125  0.5145
33145TIP3    H1  317   2.526   7.719   5.283  0.8762  3.9981 -2.2797
33145TIP3    H2  318   2.572   7.833   5.372 -1.3491  1.3931  2.5710
33146TIP3   OH2  319   9.402   6.886   9.229 -0.4716  0.3765  0.2497
33146TIP3    H1  320   9.463   6.905   9.300 -1.8981  0.1193  1.5799
33146TIP3    H2  321   9.321   6.930   9.254 -0.6841  1.3354 -1.8352
33147TIP3   OH2  322   3.990   8.843   0.976 -0.3474 -0.1580  0.7199
33147TIP3    H1  323   3.961   8.932   0.959 -1.0052 -0.8933 -2.6278
33147TIP3    H2  324   4.085   8.846   0.968 -0.4248  0.1310 -0.1472
33148TIP3   OH2  325   0.164   2.529   0.683 -0.2392  0.1126 -0.2348
33148TIP3    H1  326   0.107   2.605   0.673 -0.6143 -0.1000  0.2597
33148TIP3    H2  327   0.238   2.547   0.626  0.2505  1.3925  0.7782
33149TIP3   OH2  328   7.591   9.608   3.384 -0.0953  0.1743  0.0727
33149TIP3    H1  329   7.521   9.625   3.447 -0.2543  0.3713 -0.1599
33149TIP3    H2  330   7.547   9.592   3.301  0.1331  0.2799 -0.0716
33150TIP3   OH2  331   7.431   4.515   9.147 -0.0506  0.2169 -0.2513
33150TIP3    H1  332   7.482   4.477   9.218 -1.0591 -0.4850  0.1080
33150TIP3    H2  333   7.383   4.441   9.109 -0.1242  0.7122 -1.1613
33151TIP3   OH2  334   8.443   0.895   1.971 -0.2770  0.2367 -0.2446
33151TIP3    H1  335   8.494   0.920   2.048 -0.4978  0.1175 -0.0587
33151TIP3    H2  336   8.352   0.904   1.998 -0.3829 -1.3219  0.0164
33152TIP3   OH2  337   1.153   3.507   2.549 -0.3100 -0.3916 -0.4342
33152TIP3    H1  338   1.063   3.535   2.564 -0.2889  1.1336 -2.7028
33152TIP3    H2  339   1.205   3.563   2.606 -0.7863 -1.7922  1.4563
33153TIP3   OH2  340   1.432   5.355   6.702  0.6893 -0.0272  0.2321
33153TIP3    H1  341   1.447   5.279   6.646 -1.5421  0.2605 -0.8668
33153TIP3    H2  342   1.422   5.428   6.642 -1.3521  0.3647  0.9389
33154TIP3   OH2  343   1.562   3.361   0.706  0.2225 -0.5417  0.6607
33154TIP3    H1  344   1.625   3.432   0.704  0.2789 -0.5943  0.5519
33154TIP3    H2  345   1.595   3.297   0.642 -0.3063 -0.2567  0.0914
33155TIP3   OH2  346   9.791   7.670   1.227 -0.0411  1.1083 -0.6626
33155TIP3    H1  347   9.728   7.601   1.246  1.3520  0.0796  0.4841
33155TIP3    H2  348   9.756   7.714   1.150 -0.9198 -0.9636 -1.5274
33156TIP3   OH2  349   8.856   2.942   1.762  0.3062 -0.2507  0.1121
33156TIP3    H1  350   8.816   3.024   1.731 -0.1869 -0.5619 -0.1013
33156TIP3    H2  351   8.829   2.877   1.697 -0.6932 -0.9143  1.1426
33157TIP3   OH2  352  10.031   7.025   8.535 -0.8089  0.4472 -0.7788
33157TIP3    H1  353  10.101   7.000   8.475 -1.2487 -1.9886 -0.3724
33157TIP3    H2  354  10.055   6.984   8.619 -1.9310  0.8799 -0.2249
33158TIP3   OH2  355   8.949   4.956   2.543 -0.3436 -0.0224  0.0743
33158TIP3    H1  356   8.861   4.990   2.557 -1.5516 -1.6882 -2.7655
33158TIP3    H2  357   8.956   4.882   2.602  0.1673  1.5280  2.0816
33159TIP3   OH2  358   5.084   8.296   6.213  0.0010 -0.2513  0.5585
33159TIP3    H1  359   5.118   8.318   6.127 -1.4328 -1.1500 -0.2868
33159TIP3    H2  360   5.021   8.365   6.233 -1.9521 -1.6210 -0.5524
33160TIP3   OH2  361   8.232   4.470   6.183  0.1681  0.3599  0.1114
33160TIP3    H1  362   8.140   4.458   6.208  0.0251  0.1441 -0.4891
33160TIP3    H2  363   8.272   4.515   6.257 -0.3812  0.2859  0.4564
33161TIP3   OH2  364   1.357   8.919  10.223 -0.8157  0.1187  0.0928
33161TIP3    H1  365   1.361   8.826  10.202 -0.3550  0.3387 -0.8270
33161TIP3    H2  366   1.391   8.925  10.313  0.0632 -0.4882 -0.1914
33162TIP3   OH2  367   5.150   3.042   9.958  0.3835  0.0053  0.1969
33162TIP3    H1  368   5.182   3.127   9.927  0.4359  0.0415  0.3490
33162TIP3    H2  369   5.218   3.011  10.018 -0.4418  0.6715  1.5349
33163TIP3   OH2  370   9.164   1.311   9.265 -0.0944 -0.3528 -0.6407
33163TIP3    H1  371   9.075   1.310   9.299  0.2682 -3.4572  0.5804
33163TIP3    H2  372   9.160   1.261   9.183  0.1523  1.7333 -2.0143
33164TIP3   OH2  373   3.183   2.436   8.979 -0.1157 -0.2478  0.2672
33164TIP3    H1  374   3.168   2.511   8.921  0.2619  0.3414  0.9248
33164TIP3    H2  375   3.116   2.444   9.047 -0.6691 -1.0370 -0.1655
33165TIP3   OH2  376   8.081   3.434   4.829  0.0229  0.3986  0.0644
33165TIP3    H1  377   8.164   3.390   4.813 -0.3156 -0.2238 -0.0084
33165TIP3    H2  378   8.056   3.470   4.744  0.0745  0.3342  0.0215
33166TIP3   OH2  379   2.775   8.194   5.172 -0.1737  0.3006  0.3098
33166TIP3    H1  380   2.801   8.220   5.260 -1.0157  1.2216  0.3018
33166TIP3    H2  381   2.684   8.164   5.182  0.3244 -1.3854  0.0710
33167TIP3   OH2  382   5.648   3.906   2.428 -0.4629  0.1432  0.0143
33167TIP3    H1  383   5.574   3.953   2.467 -0.6133  1.3799 -1.6412
33167TIP3    H2  384   5.631   3.910   2.333  0.8704 -1.0353 -0.3013
33168TIP3   OH2  385   9.488   9.838   0.149 -0.4648  0.2892  0.4554
33168TIP3    H1  386   9.506   9.917   0.200 -1.7731 -0.2763  1.8639
33168TIP3    H2  387   9.409   9.859   0.099 -0.4848  0.0814  0.3971
33169TIP3   OH2  388   1.748   7.574   9.643  0.3237  0.2216  0.3298
33169TIP3    H1  389   1.730   7.492   9.597  1.8778 -0.3901  0.7501
33169TIP3    H2  390   1.662   7.606   9.668 -0.3333 -1.2110  0.0270
33170TIP3   OH2  391   7.258   5.731   0.281  0.4333 -0.4821  0.4188
33170TIP3    H1  392   7.237   5.824   0.293 -0.8763 -0.5617 -0.9759
33170TIP3    H2  393   7.179   5.686   0.312  0.6160 -1.0738  0.0129
33171TIP3   OH2  394   9.167   3.940   1.174  0.2749  0.5852 -0.0320
33171TIP3    H1  395   9.244   3.914   1.225  1.4315 -0.5531 -2.1996
33171TIP3    H2  396   9.152   3.867   1.114 -2.2024  1.0230 -0.0527
33172TIP3   OH2  397   9.397   5.615   0.404 -0.1406 -0.0663  0.0806
33172TIP3    H1  398   9.333   5.632   0.336  0.3745 -0.0887 -0.4134
33172TIP3    H2  399   9.349   5.628   0.486 -0.8117 -0.2391 -0.2833
33173TIP3   OH2  400   8.359   8.980   2.226 -0.3293  0.5329  0.3294
33173TIP3    H1  401   8.374   8.887   2.237  0.2366  0.2557 -2.2652
33173TIP3    H2  402   8.264   8.990   2.232 -0.5257 -0.4580 -0.8668
33174TIP3   OH2  403   8.464   5.268   7.021  0.1035 -0.3049 -0.1937
33174TIP3    H1  404   8.480   5.292   7.112 -0.9337 -3.4545  0.9649
33174TIP3    H2  405   8.370   5.255   7.016  0.0232  0.7540 -2.0171
33175TIP3   OH2  406   4.606   3.433   4.616  0.6314  0.2421 -0.0725
33175TIP3    H1  407   4.680   3.393   4.663  0.1286 -0.6452 -0.0051
33175TIP3    H2  408   4.560   3.484   4.683  0.0532 -0.8257  0.3702
33176TIP3   OH2  409   1.591   9.665   4.604  0.0011  0.5681  0.2109
33176TIP3    H1  410   1.672   9.618   4.589 -0.1975 -0.1555  1.3328
33176TIP3    H2  411   1.561   9.636   4.690  0.3859  3.4972  1.4517
33177TIP3   OH2  412   6.959   4.001   3.785 -0.0998  0.1159 -0.2754
33177TIP3    H1  413   6.978   3.947   3.861  1.4663  3.1689  1.7237
33177TIP3    H2  414   7.044   4.035   3.757 -0.9486  1.2499 -1.6534
33178TIP3   OH2  415   2.540   4.431   5.269  0.9609  0.0596  0.1513
33178TIP3    H1  416   2.482   4.361   5.300 -1.6003  1.5366 -1.0077
33178TIP3    H2  417   2.604   4.387   5.213  0.4076 -1.5058  0.7045
33179TIP3   OH2  418   6.661   8.414   1.983 -0.2774  0.0948  0.3190
33179TIP3    H1  419   6.730   8.478   1.999  0.2163  0.2444 -1.9979
33179TIP3    H2  420   6.708   8.333   1.962 -0.8499 -0.3742  0.8199
33180TIP3   OH2  421   5.154   7.650   1.365 -0.2108 -0.7049 -0.3573
33180TIP3    H1  422   5.121   7.731   1.405 -0.6091 -1.5763  1.1409
33180TIP3    H2  423   5.249   7.655   1.377  0.1744  1.0215 -3.1930
33181TIP3   OH2  424  10.513   8.864   3.086 -0.1253 -0.5324 -0.1064
33181TIP3    H1  425  10.458   8.786   3.079  0.6865 -1.1034 -0.3036
33181TIP3    H2  426  10.590   8.844   3.033  0.7030 -0.1406  0.9175
33182TIP3   OH2  427   6.433   7.280   1.639 -0.1145 -0.0741  0.6243
33182TIP3    H1  428   6.399   7.232   1.563 -0.7070  0.4348  0.5603
33182TIP3    H2  429   6.467   7.362   1.603  0.8329 -0.4004  0.7430
33183TIP3   OH2  430   7.432   2.008   6.214  0.3297  0.6906 -0.2162
33183TIP3    H1  431   7.472   1.980   6.296 -1.3657 -0.2318  0.3624
33183TIP3    H2  432   7.471   1.950   6.148  2.2740  1.9456 -0.2526
33184TIP3   OH2  433   9.237   8.517   2.425 -0.4568  0.1062  0.4157
33184TIP3    H1  434   9.214   8.452   2.358 -2.0958  1.4006 -0.3392
33184TIP3    H2  435   9.198   8.482   2.505 -3.0331  0.9595 -0.3450
33185TIP3   OH2  436   9.235   0.162   1.018 -0.4123  0.2074 -0.2625
33185TIP3    H1  437   9.207   0.161   1.109 -1.5580  0.7260 -0.5906
33185TIP3    H2  438   9.232   0.069   0.992 -1.3071  0.1823 -0.1162
33186TIP3   OH2  439   2.670  10.123   1.704  0.2086 -0.4102  0.2973
33186TIP3    H1  440   2.732  10.055   1.681  0.6272 -0.4123  1.4100
33186TIP3    H2  441   2.620  10.088   1.777  0.4167  0.4600  0.8772
33187TIP3   OH2  442   6.542   6.656   3.018  0.1967 -0.1881 -0.1005
33187TIP3    H1  443   6.501   6.699   3.093  0.0926 -1.0410  0.3495
33187TIP3    H2  444   6.623   6.704   3.004 -0.2067  0.5351 -0.0036
33188TIP3   OH2  445  10.899   5.345  10.345  0.1190 -0.3516 -0.3835
33188TIP3    H1  446  10.949   5.336  10.264  0.3298 -0.5892 -0.2303
33188TIP3    H2  447  10.841   5.419  10.330 -0.5039 -0.9651 -1.0901
33189TIP3   OH2  448   1.447   7.168   9.474  0.2793  0.2695  0.1660
33189TIP3    H1  449   1.472   7.240   9.531  1.6463  0.3053 -0.4507
33189TIP3    H2  450   1.352   7.177   9.465 -0.1436 -0.3109  3.1500
33190TIP3   OH2  451   6.890   7.702  10.375 -0.3207 -0.0102 -0.3430
33190TIP3    H1  452   6.829   7.730  10.306 -1.2255 -0.1954  0.3551
33190TIP3    H2  453   6.885   7.607  10.373 -0.4884 -0.0119  0.0943
33191TIP3   OH2  454   2.162   4.161   3.739  0.4537  0.2755  0.3297
33191TIP3    H1  455   2.169   4.237   3.681  0.5996  0.8735  1.1070
33191TIP3    H2  456   2.122   4.093   3.685  3.6327 -0.3224 -1.5369
33192TIP3   OH2  457   0.861   9.758   0.839  0.3255  0.3167  0.2071
33192TIP3    H1  458   0.882   9.848   0.865 -0.9260  0.4363  0.9361
33192TIP3    H2  459   0.765   9.757   0.833  0.3364 -0.9050 -0.0206
33193TIP3   OH2  460  10.747   6.785   2.837 -0.1732  0.1389 -0.0885
33193TIP3    H1  461  10.767   6.717   2.901 -2.2596 -0.3900  0.0897
33193TIP3    H2  462  10.651   6.791   2.838 -0.1889  1.1310 -2.1218
33194TIP3   OH2  463   3.859   0.104   9.458 -0.3947  0.4899 -0.0366
33194TIP3    H1  464   3.827   0.192   9.478 -1.4407  0.2573 -0.5849
33194TIP3    H2  465   3.842   0.093   9.365 -2.9695 -1.3136  0.5409
33195TIP3   OH2  466   2.174   1.325   6.982 -0.2767  0.0723  0.2531
33195TIP3    H1  467   2.110   1.328   6.912  0.9249  1.7015 -0.8707
33195TIP3    H2  468   2.132   1.370   7.055 -0.7746  0.2837 -0.1604
33196TIP3   OH2  469   6.704   3.365  10.173 -0.2263 -0.5520  0.0436
33196TIP3    H1  470   6.790   3.403  10.152 -0.7934  0.5664 -0.3242
33196TIP3    H2  471   6.689   3.300  10.105  0.0592 -0.3108 -0.2540
33197TIP3   OH2  472   6.564   5.540   5.777 -0.4499 -0.0395  0.2272
33197TIP3    H1  473   6.589   5.450   5.756  0.0275  0.3146 -0.7908
33197TIP3    H2  474   6.625   5.595   5.728 -1.1109  0.8408  0.3471
33198TIP3   OH2  475   8.261   2.273   0.812  0.6202  0.2638  0.5026
33198TIP3    H1  476   8.208   2.268   0.892 -2.0972 -0.6833 -1.2105
33198TIP3    H2  477   8.297   2.185   0.802 -0.7471 -0.2282 -0.3337
33199TIP3   OH2  478   5.888   8.240   3.803  1.0463 -0.0570  1.1382
33199TIP3    H1  479   5.806   8.289   3.813 -0.0797 -0.9850 -2.1528
33199TIP3    H2  480   5.935   8.286   3.734  1.7720 -1.3616  0.7302
33200TIP3   OH2  481   4.036   7.337   1.104  0.1748  0.3657 -0.3558
33200TIP3    H1  482   4.117   7.288   1.119 -0.1145 -0.1697 -0.5205
33200TIP3    H2  483   3.984   7.322   1.182 -0.0471  0.1365 -0.5436
33201TIP3   OH2  484   7.932   6.034   1.821 -0.0455 -0.3868 -0.3479
33201TIP3    H1  485   7.999   6.093   1.785  0.1237 -0.9070 -0.9040
33201TIP3    H2  486   7.965   6.010   1.907 -0.8117  1.4697  0.5274
33202TIP3   OH2  487   3.632   6.969   4.365  0.1860  0.0064  0.1090
33202TIP3    H1  488   3.672   6.882   4.365  2.4551  0.9681 -1.0350
33202TIP3    H2  489   3.612   6.986   4.273 -0.9063  0.4473  0.4075
33203TIP3   OH2  490   4.672   2.405   0.230  0.2875 -0.4184 -0.5090
33203TIP3    H1  491   4.665   2.310   0.224 -1.3314 -0.3703  0.3237
33203TIP3    H2  492   4.647   2.425   0.320 -0.3312  0.8759 -0.9580
33204TIP3   OH2  493   4.343   0.852   0.065 -0.1763 -0.0950 -0.1164
33204TIP3    H1  494   4.425   0.812   0.037 -0.6123 -0.6803 -0.6070
33204TIP3    H2  495   4.343   0.846   0.160  1.6158  2.4562  0.1450
33205TIP3   OH2  496   0.013   9.606   1.744  0.6043  0.1603  0.0490
33205TIP3    H1  497  -0.053   9.663   1.704  0.9326 -0.3332 -1.2554
33205TIP3    H2  498   0.054   9.561   1.670  1.5607 -0.4630  0.9240
33206TIP3   OH2  499   0.740   3.390   7.242  0.0899  0.4198 -0.2365
33206TIP3    H1  500   0.773   3.301   7.248  1.4274  0.6758 -2.7004
33206TIP3    H2  501   0.815   3.442   7.213 -1.0011  2.1155 -0.1619
33207TIP3   OH2  502   4.552   3.174   5.368  0.6283 -0.3435  0.4763
33207TIP3    H1  503   4.513   3.161   5.282  1.5144 -1.5693  0.2303
33207TIP3    H2  504   4.591   3.089   5.389  4.0155  1.0304  0.2879
33208TIP3   OH2  505  10.338  10.443   1.295 -0.7541 -0.1957  0.0484
33208TIP3    H1  506  10.314  10.403   1.379 -2.1044 -1.7018 -0.9864
33208TIP3    H2  507  10.400  10.382   1.256 -1.2475 -0.2541 -0.6636
33209TIP3   OH2  508   1.437   8.157   7.768  0.3788  0.2547  0.0048
33209TIP3    H1  509   1.381   8.136   7.843 -0.7530 -0.2136 -0.9391
33209TIP3    H2  510   1.524   8.127   7.794 -0.3206 -1.4570  0.5059
33210TIP3   OH2  511   3.293   6.609   1.620  0.3619 -0.7983 -0.2963
33210TIP3    H1  512   3.302   6.532   1.564 -1.9834 -1.4954  0.1901
33210TIP3    H2  513   3.280   6.573   1.708  0.2519  0.1803  0.0946
33211TIP3   OH2  514   7.400   3.726  10.604  0.3577 -0.2440  0.3368
33211TIP3    H1  515   7.441   3.664  10.664  1.6324 -0.7111 -0.9609
33211TIP3    H2  516   7.405   3.810  10.650  1.1592 -0.6142  0.9567
33212TIP3   OH2  517   0.743   4.572   1.748 -0.3813 -0.0920 -0.0553
33212TIP3    H1  518   0.819   4.569   1.690  1.2517  1.9555  1.8090
33212TIP3    H2  519   0.767   4.516   1.821 -0.9075  0.0923  0.2611
33213TIP3   OH2  520   5.102   3.949   2.502 -0.0530 -0.1889  0.0947
33213TIP3    H1  521   5.170   4.016   2.499  0.8261 -1.0936 -1.3790
33213TIP3    H2  522   5.117   3.903   2.584 -2.0964  2.7614  2.3388
33214TIP3   OH2  523   4.729   0.533   8.374  0.2763 -0.4615  0.0210
33214TIP3    H1  524   4.685   0.565   8.295 -0.6841 -0.9837  0.3212
33214TIP3    H2  525   4.690   0.583   8.445  1.2484  0.1138  0.1558
33215TIP3   OH2  526  10.748   7.722   7.294 -0.0812  0.6649 -0.0498
33215TIP3    H1  527  10.809   7.787   7.329  0.6996  1.1791 -2.2089
33215TIP3    H2  528  10.721   7.758   7.210  1.4401 -2.4233 -2.0061
33216TIP3   OH2  529   8.425   0.168   5.860  0.1751 -0.0873  0.7869
33216TIP3    H1  530   8.342   0.152   5.905  1.0367 -0.6261  2.2337
33216TIP3    H2  531   8.407   0.245   5.806 -0.4974  1.6431  3.2677
33217TIP3   OH2  532   9.511   2.833   4.086  0.0377  0.4982 -0.3044
33217TIP3    H1  533   9.448   2.762   4.076 -1.1240  1.3203  0.9660
33217TIP3    H2  534   9.517   2.848   4.180  0.4083  1.9531 -0.5327
33218TIP3   OH2  535   6.170   4.021   9.823  0.0217  0.0354  0.1821
33218TIP3    H1  536   6.175   3.944   9.767  3.7635 -0.1039  0.4672
33218TIP3    H2  537   6.086   4.060   9.802 -0.3030 -1.9741 -2.8697
33219TIP3   OH2  538   9.127   6.939   1.771  0.0914  0.2131 -0.4089
33219TIP3    H1  539   9.063   6.965   1.704  0.4747  0.5589 -0.6480
33219TIP3    H2  540   9.152   7.021   1.813  0.4007  0.0851 -0.3421
33220TIP3   OH2  541   8.026   9.313  10.837  0.7542  0.1428 -0.4018
33220TIP3    H1  542   8.066   9.247  10.895  1.3251 -0.3316 -1.3136
33220TIP3    H2  543   7.981   9.262  10.770  0.4665  0.6903 -0.6324
33221TIP3   OH2  544   3.041   3.362  10.373  0.3473  0.1087  0.1920
33221TIP3    H1  545   3.064   3.455  10.367 -1.6079  0.6061 -0.2828
33221TIP3    H2  546   3.008   3.340  10.286  2.2365 -1.5050 -0.1898
33222TIP3   OH2  547   9.264   1.065   3.114 -0.2447  0.1439  0.0528
33222TIP3    H1  548   9.267   1.030   3.203 -0.1394 -0.5635 -0.2215
33222TIP3    H2  549   9.261   1.160   3.126  0.3658  0.0810  0.8045
33223TIP3   OH2  550   2.514   0.658   2.062 -0.1741  0.2301 -0.4043
33223TIP3    H1  551   2.466   0.709   2.128  1.3951 -0.8458  1.7054
33223TIP3    H2  552   2.604   0.689   2.069  0.0909 -0.1678 -1.8337
33224TIP3   OH2  553   2.705   0.829   1.430 -0.1217 -0.0170 -0.4837
33224TIP3    H1  554   2.723   0.922   1.417  3.1231 -0.5450 -0.5268
33224TIP3    H2  555   2.666   0.824   1.517  1.2186  1.2362  0.2244
33225TIP3   OH2  556   4.086   0.002   7.449  0.3101  0.4677 -0.1511
33225TIP3    H1  557   4.106  -0.085   7.415  0.8995  0.6813 -0.3713
33225TIP3    H2  558   4.142   0.011   7.525  0.1643  0.6117 -0.0612
33226TIP3   OH2  559   6.055   1.622   1.232  0.6731  0.2213  0.3109
33226TIP3    H1  560   6.087   1.552   1.287 -1.1790 -0.4539  0.6005
33226TIP3    H2  561   5.965   1.597   1.211  1.1265  0.6710 -2.6303
33227TIP3   OH2  562   1.536   2.022   9.612  0.2420 -0.2505 -0.0705
33227TIP3    H1  563   1.478   1.950   9.635  0.8184 -0.5454  0.5115
33227TIP3    H2  564   1.489   2.100   9.641 -0.5538 -0.3518 -1.0512
33228TIP3   OH2  565  10.465   6.282   3.658  0.0852 -0.5023  0.0308
33228TIP3    H1  566  10.491   6.270   3.567  1.1157  1.5130 -0.0019
33228TIP3    H2  567  10.441   6.374   3.664 -2.0625 -1.0775  1.3353
33229TIP3   OH2  568   6.919   3.922   0.995  0.2287 -0.3490  0.0664
33229TIP3    H1  569   6.937   3.860   1.066  0.3751  0.3573  0.6665
33229TIP3    H2  570   6.826   3.943   1.004  0.4723  0.5258  0.7189
33230TIP3   OH2  571   7.855   8.687  10.643 -0.2476 -0.7116 -0.2317
33230TIP3    H1  572   7.839   8.654  10.732  0.3434 -0.6984 -0.1204
33230TIP3    H2  573   7.810   8.624  10.586 -2.5730  0.4712  0.1531
33231TIP3   OH2  574   3.098   2.545   1.193 -0.5162 -0.2557 -0.3054
33231TIP3    H1  575   3.162   2.488   1.236 -2.6609  0.1458  3.9474
33231TIP3    H2  576   3.020   2.490   1.184 -1.4744  0.9443  0.4609
33232TIP3   OH2  577   4.006   0.854   7.968  0.1123  0.2512 -0.1220
33232TIP3    H1  578   3.991   0.905   8.047 -0.3401 -1.3075  0.8236
33232TIP3    H2  579   4.052   0.915   7.909 -0.1102  1.6249  1.0728
33233TIP3   OH2  580   1.115   2.948   4.843  0.0728 -0.4369 -0.0304
33233TIP3    H1  581   1.059   2.934   4.766 -0.0097  0.5631 -0.1596
33233TIP3    H2  582   1.189   2.888   4.830  0.1039 -0.2145 -0.9385
33234TIP3   OH2  583   3.225   1.123   5.011 -0.5095 -0.1933 -0.0360
33234TIP3    H1  584   3.179   1.181   5.072  0.2385  0.2987  0.0701
33234TIP3    H2  585   3.159   1.099   4.946 -1.0362  0.1192  0.3770
33235TIP3   OH2  586   6.200   2.751  10.311  0.5575  0.0097 -0.2085
33235TIP3    H1  587   6.219   2.845  10.314  1.1216 -0.1074 -0.0608
33235TIP3    H2  588   6.286   2.710  10.301  0.4054 -0.5369  0.6908
33236TIP3   OH2  589   2.940   9.362  10.362 -0.1168 -0.0439 -0.0669
33236TIP3    H1  590   2.846   9.346  10.360  0.0122 -0.7579 -1.0941
33236TIP3    H2  591   2.948   9.451  10.397 -1.1791  0.0684 -0.0735
33237TIP3   OH2  592   6.445   8.582  10.139  0.1093 -0.0708  0.2641
33237TIP3    H1  593   6.402   8.648  10.193 -0.2019 -2.9963  3.9548
33237TIP3    H2  594   6.531   8.619  10.119 -0.8970  2.3591  0.1118
33238TIP3   OH2  595   2.929  10.290   1.115  0.6080 -0.0928  0.1339
33238TIP3    H1  596   2.928  10.232   1.039 -0.7202  0.1075 -0.0260
33238TIP3    H2  597   2.952  10.376   1.080  2.4967 -0.4569  0.3589
33239TIP3   OH2  598   3.541  10.364   8.562  0.1053  0.4421 -0.2695
33239TIP3    H1  599   3.618  10.360   8.618 -0.4384  0.3067  0.4705
33239TIP3    H2  600   3.492  10.284   8.581  0.5427 -0.2488 -1.8656
33240TIP3   OH2  601   7.043   2.471   5.113  0.2917  0.2371 -0.1192
33240TIP3    H1  602   7.086   2.496   5.032 -1.4222  1.1784 -0.7960
33240TIP3    H2  603   7.013   2.554   5.151 -0.8613 -0.3591  0.3285
33241TIP3   OH2  604   6.305   1.193   1.148  0.0487  0.1746 -0.1686
33241TIP3    H1  605   6.306   1.106   1.107 -1.4680 -0.6441  1.3961
33241TIP3    H2  606   6.388   1.198   1.195 -0.3487 -0.9938  0.7371
33242TIP3   OH2  607   9.480   8.556   2.905  0.2547 -0.4450 -0.4411
33242TIP3    H1  608   9.402   8.537   2.958 -1.2608  0.5837 -2.1550
33242TIP3    H2  609   9.523   8.472   2.895 -0.3258 -0.9580  0.9949
33243TIP3   OH2  610   3.000   0.258   9.924 -0.4121 -0.0401  0.4456
33243TIP3    H1  611   2.985   0.219  10.010 -1.1905  0.7475  0.6863
33243TIP3    H2  612   2.973   0.350   9.935  1.0559  0.4941 -0.1820
33244TIP3   OH2  613   4.877   0.866   0.515  0.2979  0.7291  0.1473
33244TIP3    H1  614   4.948   0.868   0.451 -1.1235  0.2447 -1.5253
33244TIP3    H2  615   4.797   0.875   0.462 -0.9622 -0.2312  1.8083
33245TIP3   OH2  616   0.234   4.747   5.025  0.1914  0.8107  0.9632
33245TIP3    H1  617   0.314   4.782   4.985  2.6240 -2.8122  2.1174
33245TIP3    H2  618   0.180   4.719   4.951  1.7100 -0.0304  0.1324
33246TIP3   OH2  619   5.683  10.496   3.655  0.5511 -0.2679 -0.0005
33246TIP3    H1  620   5.589  10.481   3.659  0.7913 -1.8737  0.2524
33246TIP3    H2  621   5.706  10.531   3.741  0.5455 -2.3477  0.9014
33247TIP3   OH2  622   3.219   9.429   0.137 -0.4141 -0.0149  0.3081
33247TIP3    H1  623   3.268   9.375   0.200  1.3934  2.8052  1.5457
33247TIP3    H2  624   3.251   9.518   0.152 -3.5092  1.5336 -1.2952
33248TIP3   OH2  625   8.755  10.421   7.065 -0.7763  0.1653 -0.4912
33248TIP3    H1  626   8.766  10.516   7.073  0.0722  0.0883 -0.6694
33248TIP3    H2  627   8.833  10.391   7.019 -1.3400 -0.5465 -1.0019
33249TIP3   OH2  628   4.013   5.851   2.692  0.2441 -0.2239  0.3114
33249TIP3    H1  629   4.004   5.916   2.622  2.6500 -1.1161 -0.9267
33249TIP3    H2  630   3.983   5.769   2.653  2.4204 -0.9035 -0.0490
33250TIP3   OH2  631   8.701   6.237   4.182 -0.3996 -0.0813 -0.5149
33250TIP3    H1  632   8.705   6.291   4.261  0.5946  1.7053 -1.7212
33250TIP3    H2  633   8.634   6.279   4.128 -1.0094 -1.2409 -0.6903
33251TIP3   OH2  634   0.525   7.571   2.682 -0.1780  0.0185 -0.3517
33251TIP3    H1  635   0.494   7.573   2.773  0.8305 -0.2758  0.0108
33251TIP3    H2  636   0.587   7.644   2.677  0.6564 -0.6803 -0.4623
33252TIP3   OH2  637   0.255   3.817   4.366 -0.8517 -0.2198 -0.3699
33252TIP3    H1  638   0.174   3.842   4.322 -0.5297  0.1973 -0.7406
33252TIP3    H2  639   0.231   3.808   4.458 -1.3606 -0.2926 -0.5088
33253TIP3   OH2  640   6.404   1.271   6.139  0.0171  0.2400 -0.0842
33253TIP3    H1  641   6.437   1.322   6.213 -0.4953  0.1286  0.2230
33253TIP3    H2  642   6.451   1.188   6.144 -1.6947 -0.6962  1.5283
33254TIP3   OH2  643   5.111   2.963   8.949 -1.0964  0.1026 -0.0524
33254TIP3    H1  644   5.131   3.034   8.889  2.0337  1.2692  2.1075
33254TIP3    H2  645   5.021   2.937   8.927 -1.2512  2.5840 -2.9625
33255TIP3   OH2  646   4.983   3.999   2.116 -0.0960 -0.5063 -0.5890
33255TIP3    H1  647   5.037   4.077   2.118 -0.2931 -0.3728 -0.1863
33255TIP3    H2  648   5.038   3.932   2.077  0.6766 -0.5972  0.6106
33256TIP3   OH2  649   8.619   0.830   1.074  0.0093 -0.3520  0.2769
33256TIP3    H1  650   8.619   0.923   1.098  2.0870 -1.2884  5.2426
33256TIP3    H2  651   8.530   0.800   1.094 -0.7456  0.5327 -1.6012
33257TIP3   OH2  652   0.007   0.275   9.764 -0.6284  0.0637  0.6918
33257TIP3    H1  653  -0.064   0.271   9.701 -0.9131  1.4282  0.8915
33257TIP3    H2  654   0.074   0.328   9.721  0.2359 -1.0966  0.5586
33258TIP3   OH2  655   1.464   7.941   3.741 -0.0806  0.3108 -0.2285
33258TIP3    H1  656   1.458   8.031   3.776 -2.1152 -0.5428  1.9356
33258TIP3    H2  657   1.376   7.922   3.709  0.0278 -1.2592  0.3251
33259TIP3   OH2  658   0.059   5.695  10.535 -0.2025 -0.3589  0.3119
33259TIP3    H1  659   0.092   5.783  10.549  0.7293 -0.9497  2.1463
33259TIP3    H2  660   0.136   5.638  10.539 -0.7859 -1.2816 -0.7685
33260TIP3   OH2  661   2.961   7.910   8.162 -0.1804  0.3105 -0.0944
33260TIP3    H1  662   2.881   7.924   8.112 -0.3776 -0.7146 -0.0887
33260TIP3    H2  663   2.941   7.835   8.219  0.6406  0.3101  0.2108
33261TIP3   OH2  664   3.235   7.936   6.154  0.0188  0.0696 -0.0166
33261TIP3    H1  665   3.227   8.031   6.165  1.8729  0.5202 -1.8719
33261TIP3    H2  666   3.255   7.924   6.062 -0.5638 -2.1934  0.0863
33262TIP3   OH2  667   6.040   7.033   1.866  0.0583  0.1492  0.5326
33262TIP3    H1  668   6.017   6.981   1.943 -0.5117 -2.6185 -1.3699
33262TIP3    H2  669   5.992   6.993   1.794  0.9557  2.3122 -1.3982
33263TIP3   OH2  670   4.693   4.759   8.544  0.3586 -0.3044 -0.0981
33263TIP3    H1  671   4.703   4.690   8.610  1.7318 -0.2561 -0.2402
33263TIP3    H2  672   4.779   4.766   8.502  0.1176  1.1905 -0.4016
33264TIP3   OH2  673   8.288  10.128   4.669  0.3105  0.2346 -0.2467
33264TIP3    H1  674   8.300  10.184   4.746 -2.1393  0.4231  0.0878
33264TIP3    H2  675   8.233  10.179   4.610  0.3028 -0.7832 -1.1538
33265TIP3   OH2  676   7.860   0.015   1.221 -0.2869  0.2472  0.0770
33265TIP3    H1  677   7.907   0.038   1.301 -1.4215  0.0988  0.8090
33265TIP3    H2  678   7.889   0.079   1.157  0.1100  0.8104  0.8065
33266TIP3   OH2  679   9.686   2.933   0.114  0.0298 -0.2162 -0.0382
33266TIP3    H1  680   9.598   2.967   0.128 -0.9942 -1.9477 -1.8447
33266TIP3    H2  681   9.717   2.909   0.202 -1.4920 -0.0637  0.5644
33267TIP3   OH2  682  10.359   7.042   4.908  0.0679 -0.4627  0.2530
33267TIP3    H1  683  10.390   6.960   4.946 -0.3182 -1.3111 -1.1923
33267TIP3    H2  684  10.279   7.018   4.860 -0.4013  0.8737  0.3185
33268TIP3   OH2  685   1.777   5.802   7.514 -0.7272  0.0005  0.2969
33268TIP3    H1  686   1.779   5.826   7.422 -1.7743  0.2591  0.3289
33268TIP3    H2  687   1.808   5.711   7.516  0.3516  0.3513 -0.1734
33269TIP3   OH2  688   9.645   7.293   6.422  0.5350  0.6095 -0.0583
33269TIP3    H1  689   9.650   7.284   6.327 -2.6111  0.1873 -0.2742
33269TIP3    H2  690   9.719   7.242   6.455  0.0683 -1.6245 -2.2172
33270TIP3   OH2  691   4.358   3.211   5.760 -0.1404  0.1785  0.4603
33270TIP3    H1  692   4.324   3.172   5.841  0.3879  0.8377  1.0084
33270TIP3    H2  693   4.302   3.287   5.746 -0.4976 -0.1720 -0.0294
33271TIP3   OH2  694   1.062   7.389   5.196 -0.5544  0.5398  0.5331
33271TIP3    H1  695   0.977   7.429   5.217 -2.1567 -2.3260  0.0278
33271TIP3    H2  696   1.075   7.324   5.264  1.2066  0.8170  0.4941
33272TIP3   OH2  697   7.403   2.581   5.206  0.1033 -0.0154  0.3044
33272TIP3    H1  698   7.371   2.666   5.176 -0.0381 -0.3997 -0.6636
33272TIP3    H2  699   7.440   2.540   5.128  1.2316 -0.3755  1.0044
33273TIP3   OH2  700   3.875   8.923   1.726 -0.2049 -0.4110 -0.3941
33273TIP3    H1  701   3.854   8.965   1.642  0.5451 -0.3657 -0.5635
33273TIP3    H2  702   3.934   8.984   1.769  2.2138 -1.9527 -1.3386
33274TIP3   OH2  703   6.410   4.451   3.835  0.0250  0.2035 -0.2783
33274TIP3    H1  704   6.386   4.404   3.915  0.3552 -0.7998 -0.7533
33274TIP3    H2  705   6.334   4.506   3.816 -1.4746 -2.0031 -1.0806
33275TIP3   OH2  706   1.650   5.747   4.358  0.1184 -0.2120  0.9265
33275TIP3    H1  707   1.679   5.656   4.367  0.8572  0.1365  2.3878
33275TIP3    H2  708   1.727   5.792   4.322 -0.6753 -0.3733 -1.0769
33276TIP3   OH2  709   5.959   9.760   7.252 -0.1453 -0.5020 -0.1002
33276TIP3    H1  710   5.929   9.681   7.207 -0.9660 -0.7495  0.8555
33276TIP3    H2  711   5.922   9.832   7.200 -1.4711 -0.7929  0.3907
33277TIP3   OH2  712   3.739   1.263   5.502  0.2645  0.6300 -0.6280
33277TIP3    H1  713   3.834   1.257   5.511  0.0902  0.7968  2.6874
33277TIP3    H2  714   3.706   1.246   5.591 -2.8045  0.6325 -1.6613
33278TIP3   OH2  715   3.576   5.970   6.420 -0.2128  0.1685 -0.0773
33278TIP3    H1  716   3.486   5.946   6.443 -0.6890 -0.1184 -2.0870
33278TIP3    H2  717   3.590   5.931   6.334  1.1806  1.8367 -0.6558
33279TIP3   OH2  718   8.437   9.850   3.522  0.3941  0.1502 -0.1330
33279TIP3    H1  719   8.472   9.833   3.609  2.0869  1.2290 -0.5529
33279TIP3    H2  720   8.488   9.792   3.464  0.4236  0.6302 -0.5921
33280TIP3   OH2  721   4.338  10.587   8.342 -0.0518 -0.2594  0.1679
33280TIP3    H1  722   4.394  10.664   8.350 -0.2582  0.1012 -1.3574
33280TIP3    H2  723   4.267  10.603   8.404  1.6398 -0.8971  2.4013
33281TIP3   OH2  724   6.482  10.136   9.114 -0.2038 -0.0320 -0.2886
33281TIP3    H1  725   6.407  10.118   9.057  0.6033 -0.0056 -1.3842
33281TIP3    H2  726   6.558  10.108   9.063  0.5077 -0.6656  1.0528
33282TIP3   OH2  727   2.565   6.551   0.267 -0.0123 -0.0444 -0.1468
33282TIP3    H1  728   2.478   6.587   0.281 -0.7388 -1.7188 -0.1567
33282TIP3    H2  729   2.616   6.584   0.342 -0.7596  0.5543  0.1215
33283TIP3   OH2  730   2.171   6.830   4.389  0.5034  0.5191 -0.4733
33283TIP3    H1  731   2.248   6.850   4.443 -0.0151  0.5055  0.2865
33283TIP3    H2  732   2.191   6.744   4.351  2.1120  1.7440 -2.6192
33284TIP3   OH2  733   4.271   0.345   7.308 -0.5347  0.3950  0.6074
33284TIP3    H1  734   4.323   0.416   7.345  1.3200 -0.9853  0.7899
33284TIP3    H2  735   4.325   0.266   7.321 -2.6054 -1.1050  0.6466
33285TIP3   OH2  736   0.560   4.795   0.013  0.3232  0.1580  0.0690
33285TIP3    H1  737   0.545   4.874   0.065  0.2372 -0.7122  1.4170
33285TIP3    H2  738   0.655   4.793   0.001  0.5092 -0.2941  1.3576
33286TIP3   OH2  739   8.475   2.974   3.089 -0.3851 -0.1301 -0.0303
33286TIP3    H1  740   8.505   3.052   3.043  1.2506  0.1000  1.3065
33286TIP3    H2  741   8.546   2.911   3.077 -1.0617 -0.9273  0.0625
33287TIP3   OH2  742   0.531   4.473   4.433  0.2253 -0.2350  0.1351
33287TIP3    H1  743   0.572   4.447   4.515  1.5166  0.1723 -0.3595
33287TIP3    H2  744   0.576   4.553   4.408  0.0266 -0.4901 -1.0901
33288TIP3   OH2  745   4.433  10.864   7.414 -0.4969  0.1564  0.1208
33288TIP3    H1  746   4.454  10.957   7.402  0.7704 -0.3133 -1.8042
33288TIP3    H2  747   4.340  10.862   7.434 -0.3252  1.8923  1.2995
33289TIP3   OH2  748   5.060   0.703   9.615  0.3949 -0.3962  0.6201
33289TIP3    H1  749   5.139   0.699   9.561  1.2107 -0.2329  1.7700
33289TIP3    H2  750   5.042   0.611   9.637 -0.6386 -0.5877 -0.8693
33290TIP3   OH2  751   3.380  10.567   8.613  0.3964 -0.5674  0.1904
33290TIP3    H1  752   3.428  10.493   8.576  0.4885  0.8237 -2.8022
33290TIP3    H2  753   3.448  10.628   8.642  0.3435 -0.6922  0.5877
33291TIP3   OH2  754   5.728   2.619  10.021 -0.3223  0.7882 -0.0212
33291TIP3    H1  755   5.718   2.525  10.005  0.9478  0.9284 -2.0395
33291TIP3    H2  756   5.822   2.634  10.014 -0.3606  2.0357  1.5997
33292TIP3   OH2  757   7.947  10.021   8.825 -0.3742  0.6043 -0.1420
33292TIP3    H1  758   7.922  10.113   8.840  2.3891  1.4916 -0.4089
33292TIP3    H2  759   7.892   9.971   8.885 -3.6694  2.1131 -1.6079
33293TIP3   OH2  760   6.516   6.823   4.884 -0.1856  0.6223 -0.1621
33293TIP3    H1  761   6.532   6.829   4.978  1.9489  1.5316 -0.5118
33293TIP3    H2  762   6.421   6.814   4.876 -0.5595  1.8116  2.0268
33294TIP3   OH2  763   9.863   7.459   1.630  0.5918 -0.2778 -0.4610
33294TIP3    H1  764   9.844   7.537   1.682 -0.1015 -0.5383 -0.3111
33294TIP3    H2  765   9.877   7.492   1.541 -0.3587 -0.0422 -0.5313
33295TIP3   OH2  766   2.351   6.386   1.973  0.5022  0.0809  0.0481
33295TIP3    H1  767   2.388   6.338   1.899 -0.2016 -0.0306 -0.2451
33295TIP3    H2  768   2.282   6.440   1.934  1.8624  2.0649  0.2146
33296TIP3   OH2  769   3.687   8.551   9.850  0.3947 -0.3090 -0.2167
33296TIP3    H1  770   3.698   8.640   9.886  0.5593 -0.9335  1.3839
33296TIP3    H2  771   3.672   8.496   9.927  0.5188 -1.7149 -1.1578
33297TIP3   OH2  772   5.307   1.641   5.847  0.1306  0.6795 -0.0215
33297TIP3    H1  773   5.339   1.587   5.775  2.1169 -1.5352  2.3002
33297TIP3    H2  774   5.211   1.632   5.843  0.2202  0.2412 -2.0563
33298TIP3   OH2  775   3.502   0.012   9.714 -0.3100  0.6058  0.0935
33298TIP3    H1  776   3.595  -0.002   9.696  0.0990 -0.3021  2.4653
33298TIP3    H2  777   3.463  -0.075   9.703 -0.8003  0.8863 -0.4152
33299TIP3   OH2  778   9.036   7.080   5.903 -0.0195  0.1978 -0.0632
33299TIP3    H1  779   9.077   7.164   5.925 -0.3307  0.3976 -0.2415
33299TIP3    H2  780   8.967   7.103   5.841  0.4305 -0.2809 -0.7626
33300TIP3   OH2  781   4.289   7.109   5.166 -0.0805 -0.6393  0.4195
33300TIP3    H1  782   4.257   7.069   5.085  1.2669 -1.5440  0.2921
33300TIP3    H2  783   4.216   7.163   5.197 -0.5601 -0.1218 -1.4821
33301TIP3   OH2  784   3.341  10.699   9.743 -0.3678  0.0140  0.6762
33301TIP3    H1  785   3.293  10.628   9.700 -0.2438  0.7629 -0.7605
33301TIP3    H2  786   3.273  10.762   9.767 -0.2596  0.5527 -0.3450
33302TIP3   OH2  787   7.950   1.243  10.549  0.4187  0.0211 -0.3173
33302TIP3    H1  788   8.000   1.182  10.602  0.5772  0.8227  0.4933
33302TIP3    H2  789   7.874   1.193  10.519  0.5766 -0.5824  0.2755
33303TIP3   OH2  790   3.235   4.351   9.947  0.3268  0.1244 -0.1394
33303TIP3    H1  791   3.311   4.401   9.917  0.9658  0.0770  1.3533
33303TIP3    H2  792   3.241   4.352  10.042 -2.3138  1.2934  0.0983
33304TIP3   OH2  793  10.784   3.946   7.392 -0.2936  0.1535  0.6463
33304TIP3    H1  794  10.838   4.007   7.341 -1.9220  1.4353  0.3700
33304TIP3    H2  795  10.741   4.001   7.457 -0.9489 -0.9119  1.1372
33305TIP3   OH2  796   6.414   7.166   7.906  0.2649  0.4135 -0.1498
33305TIP3    H1  797   6.397   7.143   7.998 -0.8819 -1.1753 -0.7071
33305TIP3    H2  798   6.496   7.214   7.909  2.0102 -2.3611  1.4215
33306TIP3   OH2  799   7.179   3.158   0.185 -0.1435  0.2431 -0.3424
33306TIP3    H1  800   7.141   3.193   0.265  1.3222 -0.1451  0.5621
33306TIP3    H2  801   7.136   3.206   0.115 -3.5015 -1.2847  0.4553
33307TIP3   OH2  802   1.263   7.238   1.254  0.6265 -0.1263 -0.2839
33307TIP3    H1  803   1.223   7.157   1.222 -0.3967  0.2786 -0.0596
33307TIP3    H2  804   1.356   7.216   1.263  0.3261 -1.3800  0.0917
33308TIP3   OH2  805   6.831   1.589   7.860 -0.0754 -0.1149 -0.3182
33308TIP3    H1  806   6.851   1.649   7.931  1.9320  1.2625 -1.9164
33308TIP3    H2  807   6.913   1.540   7.846 -0.7578 -1.1031 -1.0065
33309TIP3   OH2  808   5.623   3.061   4.900 -0.4138 -0.0120 -0.0676
33309TIP3    H1  809   5.663   3.111   4.829 -1.3644  0.3186 -0.3822
33309TIP3    H2  810   5.549   3.114   4.928  0.4142  0.2703  1.7471
33310TIP3   OH2  811   4.571  10.344   6.755 -0.3857 -0.1606 -0.0737
33310TIP3    H1  812   4.491  10.299   6.783 -0.8647  0.0513 -1.0599
33310TIP3    H2  813   4.576  10.328   6.660  1.3335 -1.0947  0.1384
33311TIP3   OH2  814   2.168   2.893  10.779  0.3421 -0.1227  0.4730
33311TIP3    H1  815   2.173   2.978  10.736 -2.3628 -0.1300 -0.0173
33311TIP3    H2  816   2.182   2.913  10.872  0.2082  0.7780  0.3132
33312TIP3   OH2  817   1.271   3.796   7.491  0.3692  0.4696 -0.0047
33312TIP3    H1  818   1.255   3.890   7.488  0.6816  0.5176 -0.2858
33312TIP3    H2  819   1.235   3.767   7.575 -0.3422  0.7226 -0.2154
33313TIP3   OH2  820   4.838   7.398  10.401  0.2877 -0.3176  0.1894
33313TIP3    H1  821   4.781   7.358  10.467  0.2249 -0.4337  0.0642
33313TIP3    H2  822   4.924   7.359  10.415 -0.0811 -1.5502 -0.8425
33314TIP3   OH2  823   6.072   4.903   8.564 -0.6296 -0.1688 -0.0259
33314TIP3    H1  824   6.153   4.950   8.543  1.7439 -3.4201  1.0958
33314TIP3    H2  825   6.059   4.918   8.658 -0.9352 -0.2148 -0.0615
33315TIP3   OH2  826  10.427   3.040   4.987 -0.1200 -0.3790 -0.1974
33315TIP3    H1  827  10.480   3.062   5.064  4.2365 -0.7786 -2.7445
33315TIP3    H2  828  10.459   3.099   4.919 -1.1029 -2.4384 -2.5925
33316TIP3   OH2  829   5.861  10.688  10.096 -0.0072 -0.5060  0.2066
33316TIP3    H1  830   5.825  10.689  10.007  2.3263 -1.1761 -0.8218
33316TIP3    H2  831   5.908  10.770  10.104 -0.1716 -0.4683  0.8259
33317TIP3   OH2  832   6.642   7.266   7.617  0.4333  0.0332 -0.7518
33317TIP3    H1  833   6.557   7.230   7.592 -0.6504  0.6823  1.7312
33317TIP3    H2  834   6.695   7.190   7.640  0.2140 -0.3185 -1.3925
33318TIP3   OH2  835   0.902   7.561   4.961  0.1520  0.0165  0.2241
33318TIP3    H1  836   0.925   7.469   4.948  0.2754  0.1528 -0.5385
33318TIP3    H2  837   0.811   7.566   4.931 -0.1919 -0.0637  1.2123
33319TIP3   OH2  838   0.898   2.140   8.566 -0.1380 -0.0540 -0.2306
33319TIP3    H1  839   0.853   2.072   8.516  0.1738 -1.5904  1.4668
33319TIP3    H2  840   0.913   2.101   8.652  0.3629  2.0628  0.7214
33320TIP3   OH2  841   0.145   9.125   5.105  0.0157  0.0386  0.3638
33320TIP3    H1  842   0.117   9.123   5.197 -0.3914  1.4592  0.3029
33320TIP3    H2  843   0.190   9.209   5.096 -2.3478  1.2438 -1.3537
33321TIP3   OH2  844   0.332   1.989   0.471 -0.5125 -0.3237 -0.4324
33321TIP3    H1  845   0.416   1.988   0.426 -0.7693  1.0828 -0.9967
33321TIP3    H2  846   0.310   1.897   0.483 -0.2225 -0.7645 -2.8153
33322TIP3   OH2  847   5.937   1.599   5.313 -0.7713 -0.3629 -0.4409
33322TIP3    H1  848   6.016   1.598   5.259 -0.6405 -1.2930 -0.2487
33322TIP3    H2  849   5.969   1.613   5.402 -0.9396  0.5838 -0.5193
33323TIP3   OH2  850   5.265   4.009   6.994 -0.5871 -0.0918 -0.2385
33323TIP3    H1  851   5.195   3.955   6.957  0.2507 -0.9934 -0.5618
33323TIP3    H2  852   5.227   4.096   7.002 -1.7808 -0.5890 -0.2920
33324TIP3   OH2  853   6.540   3.709   0.862 -0.4591 -0.4385  0.1418
33324TIP3    H1  854   6.616   3.659   0.835 -0.8609 -0.5103 -0.8977
33324TIP3    H2  855   6.571   3.800   0.868 -0.6002 -0.2475 -1.6489
33325TIP3   OH2  856   4.822   5.683   2.591  0.0486  0.0331  0.1254
33325TIP3    H1  857   4.881   5.651   2.523  0.2965 -0.0882  0.3944
33325TIP3    H2  858   4.876   5.743   2.643 -0.2359  0.3975  0.0073
33326TIP3   OH2  859   0.019   3.631   1.521  0.0714 -0.4641 -0.0959
33326TIP3    H1  860  -0.072   3.629   1.553  0.7013 -0.6451  1.8130
33326TIP3    H2  861   0.048   3.540   1.527  0.5902 -0.2956 -0.0327
33327TIP3   OH2  862   9.115   6.903   7.151 -0.7875  0.1040  0.0459
33327TIP3    H1  863   9.058   6.963   7.201 -0.4528  1.1395 -0.7717
33327TIP3    H2  864   9.067   6.886   7.070 -0.5580 -0.1691 -0.0335
33328TIP3   OH2  865   8.577   0.553   0.898 -0.3255  0.3261  0.9086
33328TIP3    H1  866   8.608   0.573   0.810 -0.7877 -0.5119  0.5447
33328TIP3    H2  867   8.648   0.582   0.956  0.9663 -1.1476  0.1386
33329TIP3   OH2  868   5.671   8.839   0.322  0.5821  0.2459  0.4227
33329TIP3    H1  869   5.751   8.851   0.374  1.3537 -1.5773 -0.2735
33329TIP3    H2  870   5.697   8.780   0.252 -1.2720  0.0377 -0.1304
33330TIP3   OH2  871   9.975   1.992   9.999  0.5014  0.1243 -0.8228
33330TIP3    H1  872   9.977   1.917  10.057 -1.3477  0.1603 -0.6309
33330TIP3    H2  873  10.040   2.052  10.034 -0.3796  0.0424  1.1055
33331TIP3   OH2  874   5.115   8.006   5.070  0.1652 -0.0418 -0.3425
33331TIP3    H1  875   5.028   8.026   5.106  0.7104  0.2638  0.8330
33331TIP3    H2  876   5.130   7.914   5.094  0.8899  0.4024  1.0372
33332TIP3   OH2  877   2.455   4.408   9.656 -0.8251 -0.3414 -0.7571
33332TIP3    H1  878   2.546   4.406   9.686 -0.9375 -0.9695 -0.4457
33332TIP3    H2  879   2.458   4.456   9.573 -0.5904  1.9914  0.5175
33333TIP3   OH2  880   5.418   4.062   1.721  0.1356 -0.0997  0.3087
33333TIP3    H1  881   5.328   4.094   1.707  0.9897  3.0633  1.1443
33333TIP3    H2  882   5.415   4.018   1.806 -0.4122  1.3086  1.0681
33334TIP3   OH2  883   0.103   3.296   1.848 -0.0996 -0.3675 -0.1284
33334TIP3    H1  884   0.069   3.380   1.819 -0.1896 -0.5880 -0.6637
33334TIP3    H2  885   0.029   3.252   1.890 -0.4591 -0.8049 -1.2000
33335TIP3   OH2  886   0.163   0.916  10.821  0.6456  0.2310 -0.4713
33335TIP3    H1  887   0.112   0.930  10.741 -0.9714  3.1887  0.9174
33335TIP3    H2  888   0.104   0.869  10.880  1.3632 -0.7649 -0.5136
33336TIP3   OH2  889   2.897   6.290   1.477  0.3574  0.0558  0.0537
33336TIP3    H1  890   2.913   6.378   1.511 -1.7791  1.4337 -2.1891
33336TIP3    H2  891   2.978   6.242   1.495  1.9129  2.7126  0.5777
33337TIP3   OH2  892   8.717  10.868   3.972 -0.3159  0.2329 -0.2281
33337TIP3    H1  893   8.789  10.809   3.950 -0.1687  0.6330 -0.8793
33337TIP3    H2  894   8.732  10.945   3.916  0.0746  1.3216  1.3139
33338TIP3   OH2  895   0.479   5.355   8.767  0.2321 -0.3174  0.1995
33338TIP3    H1  896   0.442   5.296   8.702 -3.5780 -0.7914  2.4878
33338TIP3    H2  897   0.507   5.432   8.718 -1.8980 -0.8861 -2.0566
33339TIP3   OH2  898   2.631   8.354  10.598  0.0564  0.2232 -0.1001
33339TIP3    H1  899   2.536   8.343  10.608  0.1757 -0.7314  0.1435
33339TIP3    H2  900   2.661   8.268  10.569  0.6952  0.8554 -1.3828
33340TIP3   OH2  901   4.242   2.997   3.321  0.7058  0.2442  0.4192
33340TIP3    H1  902   4.239   3.080   3.275  0.9084 -0.1422 -0.3119
33340TIP3    H2  903   4.247   2.931   3.251  2.0011 -0.3113  1.0138
33341TIP3   OH2  904   6.504   0.226   4.332  0.2642 -0.4289 -0.0520
33341TIP3    H1  905   6.539   0.250   4.246  0.6478 -2.2080 -0.4338
33341TIP3    H2  906   6.417   0.267   4.335  1.4071  2.1413 -0.0252
33342TIP3   OH2  907   0.061   3.801   4.841  0.2319 -0.5640 -0.3012
33342TIP3    H1  908  -0.032   3.823   4.830  0.1687  1.2097  2.7726
33342TIP3    H2  909   0.062   3.730   4.905  0.9880  1.0229  1.5402
33343TIP3   OH2  910   3.218   3.230   9.113  0.0329  0.3183 -0.3017
33343TIP3    H1  911   3.184   3.317   9.093  0.7526  0.8226  0.6388
33343TIP3    H2  912   3.220   3.185   9.028 -3.3616  0.0813 -0.4195
33344TIP3   OH2  913   6.910   6.044   0.389 -0.2892  0.4485 -0.2029
33344TIP3    H1  914   6.850   5.971   0.406  0.6321 -0.4790 -0.8144
33344TIP3    H2  915   6.915   6.090   0.472 -0.6504 -0.3668  0.2896
33345TIP3   OH2  916  10.334   7.981   4.808 -0.3095  0.2088  0.0384
33345TIP3    H1  917  10.276   7.921   4.854 -2.7751  0.4072 -2.5410
33345TIP3    H2  918  10.385   7.925   4.750 -1.2149  0.3896 -0.9575
33346TIP3   OH2  919   3.757   1.474   0.003 -0.4232 -0.0584 -0.4204
33346TIP3    H1  920   3.715   1.557   0.026  1.1011  0.5710  0.2315
33346TIP3    H2  921   3.721   1.452  -0.083 -1.2865  0.9779 -0.3468
33347TIP3   OH2  922  10.222  10.003   4.251  0.2603  0.4319 -0.3036
33347TIP3    H1  923  10.166   9.956   4.313  0.7780  1.1565  0.7371
33347TIP3    H2  924  10.187  10.092   4.249 -0.2406  0.2352 -1.6824
33348TIP3   OH2  925   9.546  10.250   9.174  0.5587  0.1427 -0.1393
33348TIP3    H1  926   9.631  10.226   9.210  0.5436  2.4642  1.6440
33348TIP3    H2  927   9.495  10.281   9.249 -2.9533 -3.6174 -0.5775
33349TIP3   OH2  928   4.664   9.882   8.159  0.5755  0.2795 -0.6062
33349TIP3    H1  929   4.753   9.861   8.188 -0.2324 -0.8487  1.2609
33349TIP3    H2  930   4.630   9.941   8.227 -1.1712 -1.9100  0.5702
33350TIP3   OH2  931   5.937   9.726   7.560 -0.1654  0.0799  0.1301
33350TIP3    H1  932   5.858   9.675   7.574  0.5759 -1.2443 -0.3096
33350TIP3    H2  933   5.915   9.786   7.488 -0.8586 -0.0335  0.2428
33351TIP3   OH2  934   6.962   5.122   9.579  0.2963 -0.8164 -0.0292
33351TIP3    H1  935   6.887   5.064   9.568 -0.6212  0.1447  0.9199
33351TIP3    H2  936   6.960   5.146   9.672  0.8484  0.4536 -0.3242
33352TIP3   OH2  937   1.418   2.109   0.035 -0.3505  0.5405  0.4457
33352TIP3    H1  938   1.478   2.182   0.018  0.7474 -0.8549 -2.2862
33352TIP3    H2  939   1.476   2.035   0.057 -0.9687 -0.7783 -2.0082
33353TIP3   OH2  940   9.393   6.519   3.380  0.1403  0.1345 -0.2509
33353TIP3    H1  941   9.368   6.547   3.292  1.2151  1.4390 -0.1633
33353TIP3    H2  942   9.386   6.599   3.433  2.3493  0.0628  0.2178
33354TIP3   OH2  943   6.661   1.562   9.204  0.0957 -0.3539  0.1564
33354TIP3    H1  944   6.657   1.620   9.281 -2.4056  0.6789 -0.6248
33354TIP3    H2  945   6.593   1.597   9.145  1.2318 -1.7331 -2.0879
33355TIP3   OH2  946   6.165   2.694   4.679 -0.1110  0.1235  0.4658
33355TIP3    H1  947   6.114   2.639   4.738 -0.5348  0.8951  0.8345
33355TIP3    H2  948   6.255   2.685   4.710 -0.1006 -0.7839  0.1820
33356TIP3   OH2  949   0.122   3.012   7.423 -0.3534  0.1444 -0.0906
33356TIP3    H1  950   0.201   3.047   7.382 -0.9971  2.7295  0.7039
33356TIP3    H2  951   0.050   3.062   7.384 -1.3528 -0.2445  1.1665
33357TIP3   OH2  952   0.167   8.529   4.098  0.3611  0.0720  0.6118
33357TIP3    H1  953   0.147   8.617   4.131  0.2811  0.3417 -0.1361
33357TIP3    H2  954   0.193   8.480   4.176  2.3400  1.2825  0.7911
33358TIP3   OH2  955   8.667   3.415   4.684 -0.0765  0.3879 -0.0170
33358TIP3    H1  956   8.724   3.490   4.667 -0.6656  0.8601  0.0382
33358TIP3    H2  957   8.663   3.409   4.780 -0.0332  0.2938 -0.0209
33359TIP3   OH2  958   5.840   4.534   8.372 -0.3026 -0.0691  0.2834
33359TIP3    H1  959   5.899   4.598   8.333  0.3504 -0.9423 -0.2031
33359TIP3    H2  960   5.898   4.466   8.406 -0.9541 -0.1301  1.3023
33360TIP3   OH2  961   3.008   2.936   9.661 -0.4179 -0.1295 -0.5803
33360TIP3    H1  962   3.037   2.849   9.636 -0.0232  0.1985 -1.2875
33360TIP3    H2  963   2.930   2.952   9.608 -0.6004 -0.1278 -0.3124
33361TIP3   OH2  964   5.463   2.643   6.694 -0.0017 -0.3495  0.3330
33361TIP3    H1  965   5.493   2.577   6.755 -0.1285 -1.5143 -0.8134
33361TIP3    H2  966   5.426   2.712   6.749 -0.6258 -1.5972  1.5438
33362TIP3   OH2  967   1.144   2.667  10.099 -0.2170  0.4272 -0.1958
33362TIP3    H1  968   1.129   2.592  10.157  0.5899 -0.4347 -1.0646
33362TIP3    H2  969   1.239   2.682  10.103 -0.3286  1.2399 -0.2490
33363TIP3   OH2  970   1.270   5.923  10.461  0.7264 -0.1164 -0.1133
33363TIP3    H1  971   1.188   5.935  10.414  0.8045  1.6808  0.1236
33363TIP3    H2  972   1.245   5.923  10.554  1.0286  1.3021 -0.0004
33364TIP3   OH2  973   9.346   1.160   3.560  0.1542 -0.4456 -0.1085
33364TIP3    H1  974   9.258   1.150   3.596 -0.0007 -0.0271 -0.3666
33364TIP3    H2  975   9.376   1.245   3.592  0.7604 -0.9058  0.5912
33365TIP3   OH2  976   5.959   9.600   8.407 -0.3769 -0.6505 -0.0142
33365TIP3    H1  977   5.871   9.564   8.415 -0.6094  0.1255  1.3368
33365TIP3    H2  978   5.972   9.649   8.489 -0.1886  2.5086 -1.7833
33366TIP3   OH2  979   3.354   8.280   7.287 -0.0953  0.2911 -0.8139
33366TIP3    H1  980   3.398   8.247   7.366 -0.0419  1.0087 -0.5369
33366TIP3    H2  981   3.418   8.340   7.248 -0.5195  0.7222 -0.8448
33367TIP3   OH2  982   8.800   1.201   8.141 -0.7273  0.1338 -0.3937
33367TIP3    H1  983   8.746   1.276   8.119 -1.1410 -0.1506 -0.3580
33367TIP3    H2  984   8.857   1.189   8.066 -0.7259  0.4243 -0.4381
33368TIP3   OH2  985   1.847   6.756   1.477 -0.1622 -0.4740  0.0338
33368TIP3    H1  986   1.762   6.716   1.464  0.2103 -1.4962  0.6183
33368TIP3    H2  987   1.852   6.826   1.411 -1.7616  0.1367  0.5185
33369TIP3   OH2  988   7.756   9.843   2.531  0.4270  0.3915  0.1884
33369TIP3    H1  989   7.712   9.905   2.588  0.6637 -0.1482  0.9655
33369TIP3    H2  990   7.756   9.886   2.445 -3.6431 -0.4903 -0.4368
33370TIP3   OH2  991   3.895   1.639   3.820 -0.1085  0.3108  0.0914
33370TIP3    H1  992   3.827   1.634   3.887  0.4438  1.2755  0.7520
33370TIP3    H2  993   3.873   1.569   3.759 -0.1738 -1.1475  1.7056
33371TIP3   OH2  994   5.215   7.828   5.991 -0.0378  0.0315  0.2992
33371TIP3    H1  995   5.199   7.856   6.081 -1.3238 -1.2419  0.5157
33371TIP3    H2  996   5.151   7.876   5.939  0.6681  0.7260  0.0537
33372TIP3   OH2  997  10.562   4.134   9.394  0.1946 -1.0421  0.4248
33372TIP3    H1  998  10.502   4.073   9.351 -0.3369 -1.2256  1.3920
33372TIP3    H2  999  10.636   4.080   9.421  0.4040 -0.9757 -0.0044
33373TIP3   OH2 1000   7.372   9.183   6.770 -0.4188  0.4605  0.2807
33373TIP3    H1 1001   7.435   9.208   6.703 -1.5930  1.1071 -0.6311
33373TIP3    H2 1002   7.329   9.105   6.734  1.4166 -1.4274  1.9390
33374TIP3   OH2 1003   2.481   0.167   4.779 -0.4836  0.0159  0.1313
33374TIP3    H1 1004   2.420   0.110   4.734  0.8524 -0.1248 -1.5894
33374TIP3    H2 1005   2.465   0.254   4.742  0.0228  0.0634  0.0143
33375TIP3   OH2 1006   7.886   9.707   3.232 -0.1831  0.1457  0.1494
33375TIP3    H1 1007   7.927   9.646   3.293  1.2831  1.4422  0.5108
33375TIP3    H2 1008   7.844   9.651   3.167  1.9469 -1.2697 -0.0955
33376TIP3   OH2 1009   7.428   3.932  10.037 -0.3730  0.0267 -0.0916
33376TIP3    H1 1010   7.482   3.931   9.958  0.3445 -2.6364  0.3286
33376TIP3    H2 1011   7.490   3.921  10.109 -1.2078  0.1359  0.6705
33377TIP3   OH2 1012   2.348   3.170   1.652 -0.3204  0.2478  0.2918
33377TIP3    H1 1013   2.356   3.149   1.745 -0.1518 -2.0884 -0.1781
33377TIP3    H2 1014   2.397   3.101   1.608 -0.6590  1.1232 -1.5581
33378TIP3   OH2 1015  10.694   9.953   6.383 -0.4231 -0.2519 -0.4574
33378TIP3    H1 1016  10.729   9.910   6.461 -2.2478 -1.2197 -0.1196
33378TIP3    H2 1017  10.675   9.881   6.322 -1.9480  0.1970 -0.5508
33379TIP3   OH2 1018   4.244   3.428   7.724 -0.4318 -0.1802  0.5022
33379TIP3    H1 1019   4.232   3.392   7.812 -0.0238 -0.0215  0.6234
33379TIP3    H2 1020   4.294   3.361   7.677 -1.0707 -0.4810  0.2424
33380TIP3   OH2 1021   3.452   2.704   3.421  0.2664  0.1948 -0.6703
33380TIP3    H1 1022   3.508   2.686   3.496 -0.6410  0.7578  0.1709
33380TIP3    H2 1023   3.367   2.669   3.446 -0.1516  0.7596 -1.2634
33381TIP3   OH2 1024   6.999   9.624  10.898 -0.4987  0.1043  0.0306
33381TIP3    H1 1025   6.906   9.648  10.889 -0.5446 -0.5999 -2.0243
33381TIP3    H2 1026   6.999   9.554  10.963 -0.7233  3.1813  3.7342
33382TIP3   OH2 1027   4.755   5.191   6.340 -0.1076 -0.6047  0.4893
33382TIP3    H1 1028   4.798   5.202   6.255  1.0448 -0.0520  1.1293
33382TIP3    H2 1029   4.661   5.195   6.320  0.0947 -2.2069 -0.9842
33383TIP3   OH2 1030   7.035   7.712   3.957 -0.3217  0.6250  0.0306
33383TIP3    H1 1031   7.061   7.766   4.032 -4.4190  2.5692  0.2907
33383TIP3    H2 1032   6.963   7.659   3.989  0.0502 -1.0201 -1.7113
33384TIP3   OH2 1033   2.546   6.904   3.695  0.1637 -0.3760  0.5990
33384TIP3    H1 1034   2.452   6.914   3.714  0.3398  1.5199  0.6675
33384TIP3    H2 1035   2.563   6.966   3.625  1.3340 -0.8841  0.4098
33385TIP3   OH2 1036  10.385   5.746   9.626  0.1461 -0.6357  0.4404
33385TIP3    H1 1037  10.424   5.825   9.591  0.2651 -1.1289 -0.5764
33385TIP3    H2 1038  10.361   5.768   9.716  1.8497 -0.0143  0.7790
33386TIP3   OH2 1039   4.086   3.852   9.070  0.6567 -0.1525  0.4241
33386TIP3    H1 1040   4.082   3.929   9.127 -1.9203 -0.1722  0.3905
33386TIP3    H2 1041   4.015   3.796   9.101  0.8957 -1.3866 -1.1345
33387TIP3   OH2 1042   6.069  10.373   9.435  0.2023  0.2867 -0.2483
33387TIP3    H1 1043   6.130  10.314   9.391 -1.8588 -1.5180 -0.8958
33387TIP3    H2 1044   6.020  10.415   9.365  1.9090  3.2908  0.1772
33388TIP3   OH2 1045   7.895   8.422   4.386  0.0845 -0.5710  0.2150
33388TIP3    H1 1046   7.917   8.359   4.317  3.6799 -0.2666  0.9228
33388TIP3    H2 1047   7.910   8.507   4.345 -2.1402 -0.1751  0.1004
33389TIP3   OH2 1048   4.929   8.697   1.075 -0.4361  0.2376  0.3868
33389TIP3    H1 1049   4.874   8.618   1.079  1.8599 -1.4516  0.4131
33389TIP3    H2 1050   4.938   8.725   1.166  0.4861 -0.7837  0.6297
33390TIP3   OH2 1051   9.004   0.433   0.588  0.0404 -0.0034 -0.1196
33390TIP3    H1 1052   8.926   0.448   0.534  0.0328 -1.6860 -0.6217
33390TIP3    H2 1053   9.071   0.404   0.526 -0.1836 -2.7430  0.7922
33391TIP3   OH2 1054   1.000   5.685   2.474 -0.0731  0.3939  0.2394
33391TIP3    H1 1055   1.007   5.768   2.427 -1.2294 -0.0523 -0.7716
33391TIP3    H2 1056   0.936   5.702   2.544 -0.4716  0.3065 -0.1003
33392TIP3   OH2 1057   7.258   4.803   7.566  0.0201 -0.3729  0.0453
33392TIP3    H1 1058   7.175   4.817   7.612 -0.7591 -1.1977 -1.0488
33392TIP3    H2 1059   7.298   4.729   7.611  0.3804  0.2816  0.8317
33393TIP3   OH2 1060   9.174   0.248  10.050 -0.3898 -0.2953  0.1068
33393TIP3    H1 1061   9.184   0.155  10.031  0.6602 -0.5355  1.6477
33393TIP3    H2 1062   9.212   0.292   9.973 -0.0913 -1.1387 -0.2388
33394TIP3   OH2 1063   4.333   0.163   5.735 -0.2570 -0.6475  0.6043
33394TIP3    H1 1064   4.304   0.225   5.668  1.2078 -0.1280  0.4016
33394TIP3    H2 1065   4.256   0.149   5.790 -0.7563  1.0211  0.3920
33395TIP3   OH2 1066   0.312   0.706   0.127  0.5351  1.2864 -0.2117
33395TIP3    H1 1067   0.226   0.682   0.092  1.9198 -1.5843 -2.0354
33395TIP3    H2 1068   0.342   0.777   0.069  0.2058  0.9421 -0.8148
33396TIP3   OH2 1069   1.376   1.613  10.829  0.7044  0.3909 -0.0047
33396TIP3    H1 1070   1.287   1.581  10.812  1.4684 -0.2732 -3.5660
33396TIP3    H2 1071   1.431   1.535  10.824  1.7053  1.0777  0.0659
33397TIP3   OH2 1072   4.666   0.210   5.993  0.4837  0.3912  0.1076
33397TIP3    H1 1073   4.717   0.270   5.939  1.5663 -0.1872  0.4602
33397TIP3    H2 1074   4.685   0.123   5.957 -0.5898  0.1961 -0.0185
33398TIP3   OH2 1075   7.504   0.405   2.628 -0.3779 -0.3715 -0.1804
33398TIP3    H1 1076   7.487   0.312   2.641  2.0563 -1.7423 -4.5310
33398TIP3    H2 1077   7.586   0.421   2.676  0.9615 -1.5010 -1.9337
33399TIP3   OH2 1078   7.711   3.632  10.052 -0.7050 -0.5529  0.4539
33399TIP3    H1 1079   7.693   3.587   9.970  1.0233  0.2107 -0.3996
33399TIP3    H2 1080   7.768   3.572  10.101  0.9721  0.3073 -0.3596
33400TIP3   OH2 1081   0.392   6.986   3.508  1.0919 -0.3966 -0.2774
33400TIP3    H1 1082   0.413   6.928   3.436  2.6321 -1.2514  0.8142
33400TIP3    H2 1083   0.307   6.955   3.540 -1.2061  1.8508 -3.4724
33401TIP3   OH2 1084   1.851   1.620   1.824  0.0122 -0.0739  0.0318
33401TIP3    H1 1085   1.785   1.672   1.870 -0.5980 -0.5967 -0.2351
33401TIP3    H2 1086   1.923   1.681   1.807 -0.6040  0.6249 -0.0865
33402TIP3   OH2 1087   9.349   0.675   3.582  0.1682 -0.3132 -0.5627
33402TIP3    H1 1088   9.405   0.617   3.530  2.2108  0.2960  0.8475
33402TIP3    H2 1089   9.409   0.741   3.617 -1.3714  0.0948  1.4566
33403TIP3   OH2 1090   1.476   3.955  10.852  0.0974  0.6379  0.8083
33403TIP3    H1 1091   1.542   3.898  10.891 -0.4934  0.0758  1.0056
33403TIP3    H2 1092   1.502   3.963  10.760 -0.2526 -0.6264  0.5755
33404TIP3   OH2 1093   3.703   5.495   6.487  0.1347 -0.1875  0.1836
33404TIP3    H1 1094   3.628   5.464   6.538  0.5817  0.0224  0.9738
33404TIP3    H2 1095   3.776   5.492   6.547  1.1927 -2.2333 -1.0949
33405TIP3   OH2 1096   2.801   5.365   6.849 -0.0329 -0.2478  0.1902
33405TIP3    H1 1097   2.897   5.371   6.848 -0.0803  0.8370 -0.7538
33405TIP3    H2 1098   2.779   5.320   6.768 -0.3475  0.6180 -0.2240
33406TIP3   OH2 1099   2.925   8.493   8.499  0.6046 -0.4885 -0.5951
33406TIP3    H1 1100   2.870   8.510   8.424  0.9618  0.8952 -0.5760
33406TIP3    H2 1101   2.867   8.455   8.564 -0.1111 -0.0034 -0.9379
33407TIP3   OH2 1102   1.457   2.506   1.162  0.0574  0.0412  0.1798
33407TIP3    H1 1103   1.436   2.424   1.206  1.7969  0.8963  2.8046
33407TIP3    H2 1104   1.494   2.479   1.078 -0.0493 -1.8119  0.6870
33408TIP3   OH2 1105   2.278   0.103   0.826 -0.2404 -0.8158  0.5456
33408TIP3    H1 1106   2.351   0.067   0.877  0.1196  0.2082  0.7646
33408TIP3    H2 1107   2.311   0.109   0.736 -0.9049 -2.7068  0.1268
33409TIP3   OH2 1108   9.954   8.482   1.200 -0.4502  0.6240  0.7165
33409TIP3    H1 1109   9.934   8.476   1.293  0.5172  0.2369  0.9137
33409TIP3    H2 1110  10.037   8.530   1.196 -0.0625 -0.0644  0.1259
33410TIP3   OH2 1111   2.148   7.605   1.475  0.1234  0.3222  0.0421
33410TIP3    H1 1112   2.178   7.654   1.552  0.1372  0.0653  0.2002
33410TIP3    H2 1113   2.054   7.625   1.470 -0.2329 -0.9672  1.1012
33411TIP3   OH2 1114   5.058   9.076   5.847  0.7658 -0.2814 -0.1762
33411TIP3    H1 1115   5.009   9.040   5.921  3.3995  0.1844  1.9894
33411TIP3    H2 1116   5.006   9.053   5.770 -1.4339 -2.0609  1.6794
33412TIP3   OH2 1117   7.314   7.050   0.290  0.0616 -0.0309 -0.1296
33412TIP3    H1 1118   7.334   7.105   0.366  0.1487 -1.1390  0.6754
33412TIP3    H2 1119   7.352   7.097   0.216  3.6615 -0.8920  1.0136
33413TIP3   OH2 1120   8.597   9.914   2.856  0.0182  0.1335  0.5766
33413TIP3    H1 1121   8.540   9.838   2.869 -0.2913  0.3988  0.8247
33413TIP3    H2 1122   8.542   9.989   2.881 -0.3013  0.6101 -1.4018
33414TIP3   OH2 1123   0.417   6.726   4.604  0.6933  0.0265 -0.2306
33414TIP3    H1 1124   0.345   6.663   4.613 -0.2888  1.3555  2.7567
33414TIP3    H2 1125   0.487   6.689   4.659  1.4543 -0.1300 -1.2833
33415TIP3   OH2 1126   7.779   1.025   6.762 -0.1980  1.0198 -0.3314
33415TIP3    H1 1127   7.810   1.014   6.852 -1.0700 -0.5034 -0.1953
33415TIP3    H2 1128   7.857   1.054   6.714  0.9555 -0.6546  0.4189
33416TIP3   OH2 1129   0.700   5.509   6.498 -0.6557 -0.3346  0.7754
33416TIP3    H1 1130   0.764   5.542   6.435  1.2363 -2.3252  1.5072
33416TIP3    H2 1131   0.639   5.457   6.445 -0.1855 -0.4622  0.3500
33417TIP3   OH2 1132   1.795   2.513   5.771 -0.0000 -0.0301 -0.2454
33417TIP3    H1 1133   1.870   2.542   5.718  0.4300 -2.1909 -0.9261
33417TIP3    H2 1134   1.741   2.591   5.780  1.9548  1.4212 -0.3724
33418TIP3   OH2 1135   4.404   4.887   3.753  0.4622  0.5092  0.3176
33418TIP3    H1 1136   4.378   4.905   3.663  0.1231 -0.1540  0.2761
33418TIP3    H2 1137   4.346   4.816   3.781  1.8415 -0.6412  0.4035
33419TIP3   OH2 1138   8.630   6.526   9.216 -0.4784 -0.8206  0.3524
33419TIP3    H1 1139   8.699   6.468   9.183 -0.4610  0.5455 -2.3265
33419TIP3    H2 1140   8.676   6.599   9.256 -0.2916 -0.1301 -1.0354
33420TIP3   OH2 1141   5.328   5.777   2.175  0.3158  0.3980 -0.0130
33420TIP3    H1 1142   5.424   5.772   2.168  0.2699 -0.1700 -0.2200
33420TIP3    H2 1143   5.304   5.705   2.233 -0.2400 -1.3770 -2.2901
33421TIP3   OH2 1144   6.225   7.440   9.602 -0.0902 -0.5064  0.0581
33421TIP3    H1 1145   6.191   7.351   9.598  0.2921 -0.6898  0.7088
33421TIP3    H2 1146   6.195   7.481   9.521  0.3879 -1.4590 -0.6123
33422TIP3   OH2 1147   4.898   5.779  10.144 -0.7184  0.3638 -0.0095
33422TIP3    H1 1148   4.819   5.739  10.108  0.6117 -2.1202 -0.4341
33422TIP3    H2 1149   4.945   5.813  10.068 -0.9389  1.0067  0.1387
33423TIP3   OH2 1150   0.042   4.036   2.901 -0.2056 -0.2344  0.0363
33423TIP3    H1 1151   0.110   4.099   2.925 -0.4263  0.2736 -0.6305
33423TIP3    H2 1152   0.003   4.073   2.821 -1.5550 -0.2943  0.6457
33424TIP3   OH2 1153   5.461   2.334   0.088  0.2973 -0.0339  0.1874
33424TIP3    H1 1154   5.437   2.279   0.162 -2.5100  0.0092 -0.5749
33424TIP3    H2 1155   5.513   2.277   0.032 -2.2176 -1.9439 -0.4136
33425TIP3   OH2 1156   1.502   2.257   5.305  0.1277  0.0199  0.2242
33425TIP3    H1 1157   1.564   2.204   5.255  0.3264 -0.1703  0.6659
33425TIP3    H2 1158   1.523   2.347   5.280 -2.0221 -0.1311 -2.6609
33426TIP3   OH2 1159   8.247   7.683   3.760 -0.6139 -0.1615  0.0472
33426TIP3    H1 1160   8.171   7.724   3.802 -1.5265 -0.8689 -0.8684
33426TIP3    H2 1161   8.316   7.750   3.766 -0.6113 -0.2903  2.7899
33427TIP3   OH2 1162   6.649   1.016   1.179  0.1484 -0.3939 -0.1660
33427TIP3    H1 1163   6.733   1.038   1.219  0.0649 -0.8337  0.2567
33427TIP3    H2 1164   6.636   1.083   1.112  0.2644  0.3907  0.5800
33428TIP3   OH2 1165   7.202   4.341   6.790 -0.2798  0.0086 -0.1191
33428TIP3    H1 1166   7.155   4.394   6.725 -0.9374  0.0279  0.3520
33428TIP3    H2 1167   7.250   4.404   6.842 -0.9350  0.1450  0.3394
33429TIP3   OH2 1168   8.149   6.922   9.643 -0.0078 -0.2469 -0.0546
33429TIP3    H1 1169   8.158   7.017   9.631 -1.0820 -0.3627 -2.5427
33429TIP3    H2 1170   8.195   6.885   9.568 -2.0099 -1.5436 -0.7351
33430TIP3   OH2 1171   7.206   7.719   7.369  0.4223  0.4202 -0.0061
33430TIP3    H1 1172   7.120   7.738   7.407 -0.7889 -2.1582 -1.2331
33430TIP3    H2 1173   7.267   7.731   7.441 -0.9745  1.9695  0.9930
33431TIP3   OH2 1174   7.037   4.925   0.826  0.2034  0.3908 -0.1943
33431TIP3    H1 1175   6.998   5.012   0.819  0.4010  0.8884  3.3473
33431TIP3    H2 1176   6.964   4.865   0.807 -0.5801  1.3278 -0.2369
33432TIP3   OH2 1177   9.875   1.064   8.977  0.0029 -0.6275  0.3748
33432TIP3    H1 1178   9.822   1.144   8.980 -1.1349 -1.3684  0.7828
33432TIP3    H2 1179   9.965   1.095   8.966 -0.5368  0.6648 -0.6945
33433TIP3   OH2 1180  10.544  10.199   6.427 -0.1365 -0.3133  0.1609
33433TIP3    H1 1181  10.590  10.117   6.410 -1.5242 -1.0830 -0.0077
33433TIP3    H2 1182  10.452  10.174   6.432 -0.6068  1.2807 -0.1400
33434TIP3   OH2 1183   7.941   4.958   2.205  0.5777 -0.3759 -0.1181
33434TIP3    H1 1184   7.995   4.893   2.159 -0.5512 -0.0690 -2.0002
33434TIP3    H2 1185   7.853   4.919   2.205 -0.1909  1.2347 -1.5714
33435TIP3   OH2 1186   8.178   3.342   7.205 -0.1252  0.1980  0.4735
33435TIP3    H1 1187   8.177   3.430   7.167  0.8710  0.7531  1.6631
33435TIP3    H2 1188   8.232   3.290   7.145 -0.9450  0.3051 -0.3812
33436TIP3   OH2 1189   8.271  10.144   5.558 -0.2081  0.2417 -0.1171
33436TIP3    H1 1190   8.353  10.171   5.598  0.8496 -0.8468 -1.4461
33436TIP3    H2 1191   8.227  10.226   5.536  0.6309  0.8453  0.4067
33437TIP3   OH2 1192   1.634   1.556   9.888 -0.3546 -0.0964 -0.0255
33437TIP3    H1 1193   1.580   1.483   9.858  1.7890 -1.5936 -0.4655
33437TIP3    H2 1194   1.723   1.521   9.890  0.5604  2.0984  1.1946
33438TIP3   OH2 1195   3.707   6.252   7.745  0.5092  0.3251  0.1058
33438TIP3    H1 1196   3.766   6.183   7.777 -1.8880 -1.1873  1.5663
33438TIP3    H2 1197   3.740   6.332   7.787  2.3031 -0.1869 -0.2253
33439TIP3   OH2 1198   5.098   1.084   7.534  0.1486 -0.5866 -0.0655
33439TIP3    H1 1199   5.009   1.087   7.500  0.4577 -0.4635 -0.8899
33439TIP3    H2 1200   5.134   1.171   7.517  0.1483 -0.3501  1.0691
33440TIP3   OH2 1201   6.324   0.410   8.418 -0.4878 -0.3082 -0.1310
33440TIP3    H1 1202   6.236   0.447   8.413  0.0774  1.2217  0.5900
33440TIP3    H2 1203   6.349   0.420   8.509  1.2676  1.4068 -0.7300
33441TIP3   OH2 1204   8.844   8.638   1.366 -0.6105 -0.5196 -0.0273
33441TIP3    H1 1205   8.766   8.687   1.339 -0.2610  0.9251  1.3918
33441TIP3    H2 1206   8.913   8.668   1.306 -0.7524 -0.4974 -0.1805
33442TIP3   OH2 1207   5.052   5.411   0.572 -0.2131  0.0455  0.1019
33442TIP3    H1 1208   5.058   5.412   0.667  0.9078  0.9945  0.0565
33442TIP3    H2 1209   5.120   5.472   0.543 -0.9895  0.3121 -1.2875
33443TIP3   OH2 1210   2.582   8.240   3.258 -0.4802 -0.5903 -0.1722
33443TIP3    H1 1211   2.616   8.276   3.340  1.9656 -0.3016 -1.2478
33443TIP3    H2 1212   2.656   8.243   3.197 -2.3018 -0.4732 -2.5276
33444TIP3   OH2 1213   5.614   6.979   9.502  0.0625 -0.0924  0.1277
33444TIP3    H1 1214   5.564   7.042   9.450 -0.3757  1.8169  2.6576
33444TIP3    H2 1215   5.705   7.009   9.494  0.0402 -0.0141  0.1618
33445TIP3   OH2 1216   7.207   1.271   9.176  0.4248 -0.1739 -0.2387
33445TIP3    H1 1217   7.132   1.261   9.117  0.1663 -1.9405  0.3405
33445TIP3    H2 1218   7.265   1.199   9.154  1.7969  0.9291 -0.3922
33446TIP3   OH2 1219   2.380   2.186   9.231  0.2058  0.8645 -0.2291
33446TIP3    H1 1220   2.383   2.174   9.326  1.7840  0.4933 -0.2995
33446TIP3    H2 1221   2.408   2.102   9.196 -1.3680  0.6547 -1.0821
33447TIP3   OH2 1222   7.986  10.085   7.890  0.5196  0.6956  0.0172
33447TIP3    H1 1223   7.895  10.077   7.918  0.4942  0.5893 -0.0972
33447TIP3    H2 1224   8.028  10.133   7.961  0.3943  0.6654  0.1131
33448TIP3   OH2 1225   5.704   0.927   8.467 -0.0632  0.0423 -0.1446
33448TIP3    H1 1226   5.696   1.012   8.423  2.6314  0.4587 -0.0238
33448TIP3    H2 1227   5.727   0.866   8.396  0.3526 -0.0885  0.0988
33449TIP3   OH2 1228   9.495   0.921   5.522  0.1832 -0.1813  0.8818
33449TIP3    H1 1229   9.569   0.936   5.581  1.8020 -0.1884 -1.0477
33449TIP3    H2 1230   9.459   1.008   5.506 -0.4239 -0.1999  1.9971
33450TIP3   OH2 1231   8.279   0.505   6.317 -0.1038  0.4133 -0.5954
33450TIP3    H1 1232   8.190   0.501   6.351  0.4640 -0.3081  0.8868
33450TIP3    H2 1233   8.327   0.560   6.379  0.6833  0.0703 -0.8784
33451TIP3   OH2 1234   7.974   3.090   7.118  0.0357  0.6613  0.2134
33451TIP3    H1 1235   7.992   2.996   7.115  3.3957  1.2110 -1.3166
33451TIP3    H2 1236   8.027   3.121   7.192 -1.9503  1.2712  1.4438
33452TIP3   OH2 1237   9.923   1.024   5.410  0.2164  0.7664 -0.5538
33452TIP3    H1 1238  10.003   0.971   5.407 -0.5156 -0.3369 -1.4333
33452TIP3    H2 1239   9.861   0.977   5.354 -1.5477  0.8119  1.2664
33453TIP3   OH2 1240   4.582   8.515   9.885 -0.2752 -0.1004 -0.4434
33453TIP3    H1 1241   4.625   8.550   9.807 -1.7312  0.3390 -1.0648
33453TIP3    H2 1242   4.625   8.431   9.899 -0.0877 -0.2632 -1.8134
33454TIP3   OH2 1243   3.615  10.544   4.036 -0.4268  0.0455  0.0542
33454TIP3    H1 1244   3.665  10.505   4.107 -0.1975 -2.3004 -1.2845
33454TIP3    H2 1245   3.526  10.513   4.049 -0.9749  1.7424  0.7140
33455TIP3   OH2 1246   4.998   5.331   8.236  0.7266 -0.4751  0.0093
33455TIP3    H1 1247   4.961   5.243   8.222  0.3990 -0.5670  1.2640
33455TIP3    H2 1248   5.088   5.315   8.263 -0.1433 -0.6893  3.2450
33456TIP3   OH2 1249   6.067   6.783   5.219  0.2356  0.2643  0.1704
33456TIP3    H1 1250   5.999   6.757   5.156  1.0581 -1.9526  0.1097
33456TIP3    H2 1251   6.130   6.832   5.167 -0.7296  1.3399 -0.0135
33457TIP3   OH2 1252   0.354   0.956   8.961  0.1182  0.0827 -0.2317
33457TIP3    H1 1253   0.395   0.926   8.880 -0.7407  0.6065 -0.8780
33457TIP3    H2 1254   0.422   1.009   9.003  0.3682  0.3347 -0.9243
33458TIP3   OH2 1255   7.887   9.155   0.454 -0.0435 -0.7983  0.2965
33458TIP3    H1 1256   7.879   9.156   0.358  0.4392  2.2121  0.1731
33458TIP3    H2 1257   7.809   9.108   0.484 -0.2480 -1.7354 -1.5550
33459TIP3   OH2 1258   9.797   6.873   4.089  0.3796 -0.2332 -0.5162
33459TIP3    H1 1259   9.822   6.869   4.181 -0.1139 -1.9181 -0.4154
33459TIP3    H2 1260   9.761   6.960   4.077  0.8354  0.1484  0.7790
33460TIP3   OH2 1261   6.321   5.760   7.990 -0.4576 -0.0972  0.1912
33460TIP3    H1 1262   6.399   5.783   7.940  0.8840 -0.2301  2.1085
33460TIP3    H2 1263   6.318   5.664   7.987 -0.6176 -0.0884  0.0357
33461TIP3   OH2 1264   7.230   8.018   1.684  0.4539  0.2597  0.3040
33461TIP3    H1 1265   7.177   7.944   1.715 -0.3321 -0.4584 -2.4615
33461TIP3    H2 1266   7.175   8.095   1.698  0.0199 -0.0708  0.4443
33462TIP3   OH2 1267   6.065   4.873   8.083  0.1914 -0.0351  0.5798
33462TIP3    H1 1268   6.146   4.828   8.105 -0.9535 -1.9298  1.1873
33462TIP3    H2 1269   5.998   4.805   8.089 -1.3324  1.2795 -0.7216
33463TIP3   OH2 1270   6.172   9.604   9.953  0.8149 -0.5424 -0.0822
33463TIP3    H1 1271   6.220   9.620  10.034 -2.8114  1.1711  1.9400
33463TIP3    H2 1272   6.184   9.683   9.901  0.4112 -0.2183  0.3126
33464TIP3   OH2 1273   9.048   5.125  10.330  0.8495 -0.1023  0.1366
33464TIP3    H1 1274   8.961   5.131  10.290 -0.0640 -1.1460  1.8617
33464TIP3    H2 1275   9.062   5.210  10.370 -0.0864 -0.4134  1.1750
33465TIP3   OH2 1276   6.663   1.550   3.796  0.5876  0.0797 -0.3869
33465TIP3    H1 1277   6.747   1.593   3.815 -0.2562  2.1815 -1.1202
33465TIP3    H2 1278   6.671   1.523   3.704  0.0773  1.3611 -0.8358
33466TIP3   OH2 1279   1.726   1.006   3.769 -0.6672 -0.1018  0.4060
33466TIP3    H1 1280   1.746   0.953   3.692  0.1319  1.0505 -0.2132
33466TIP3    H2 1281   1.775   1.087   3.756 -0.6521  0.1903  2.0606
33467TIP3   OH2 1282   6.080   9.838   8.097  0.2703 -0.1437 -0.2402
33467TIP3    H1 1283   6.136   9.780   8.045  2.6641 -0.9640  2.8777
33467TIP3    H2 1284   6.120   9.924   8.087  0.4749 -0.2251 -0.1413
33468TIP3   OH2 1285   3.715   1.176   8.123  0.7502 -0.1344 -0.1234
33468TIP3    H1 1286   3.775   1.135   8.185  0.4435 -0.1799  0.1411
33468TIP3    H2 1287   3.628   1.155   8.156  0.5398 -1.7134 -1.5506
33469TIP3   OH2 1288   6.897   8.982   4.080 -0.6784 -0.5422  0.2293
33469TIP3    H1 1289   6.910   9.058   4.137 -1.8032  2.0095 -2.6133
33469TIP3    H2 1290   6.882   9.020   3.993 -1.7418 -4.0438 -1.2914
33470TIP3   OH2 1291   5.235   7.007   3.107 -0.4608  0.7148  0.9808
33470TIP3    H1 1292   5.321   6.973   3.130 -0.2326  1.5074  1.3242
33470TIP3    H2 1293   5.220   6.977   3.018  0.5893  1.3611  0.5719
33471TIP3   OH2 1294   2.459  10.453  10.650  0.3274  0.9052  0.2885
33471TIP3    H1 1295   2.490  10.388  10.713 -0.5314  0.4604  0.2634
33471TIP3    H2 1296   2.533  10.465  10.590  0.5261  0.0066  0.3381
33472TIP3   OH2 1297   8.076   1.966   9.755  0.6359  0.3129 -0.5624
33472TIP3    H1 1298   8.045   2.032   9.694  3.2068 -0.0779 -2.4629
33472TIP3    H2 1299   8.112   2.016   9.829  0.6470  0.9543 -0.9950
33473TIP3   OH2 1300   3.795   2.458   8.052 -0.3307 -0.2932  0.2240
33473TIP3    H1 1301   3.754   2.373   8.059 -1.0966  0.1847  2.0854
33473TIP3    H2 1302   3.738   2.517   8.100  1.6476  0.7091  1.5082
33474TIP3   OH2 1303   1.855   6.043   1.764 -0.1401  0.3317  0.3835
33474TIP3    H1 1304   1.810   5.959   1.767  1.4867 -0.6989 -1.6566
33474TIP3    H2 1305   1.948   6.021   1.764  0.3267  2.0913 -0.7274
33475TIP3   OH2 1306   4.003  10.118   1.444  0.1058 -0.1806 -0.5731
33475TIP3    H1 1307   3.930  10.073   1.487 -0.5319  0.3706 -1.0585
33475TIP3    H2 1308   4.017  10.197   1.496  1.3754 -1.0338  0.4110
33476TIP3   OH2 1309   4.803  10.863   1.534  0.7305  0.4919 -0.3762
33476TIP3    H1 1310   4.729  10.823   1.580 -1.7737  3.0084 -1.9415
33476TIP3    H2 1311   4.867  10.880   1.603 -1.2624  0.6581  1.5348
33477TIP3   OH2 1312   8.178   9.881   5.632 -0.8798 -0.3206  0.4385
33477TIP3    H1 1313   8.269   9.871   5.661 -0.4414  0.2396 -0.6501
33477TIP3    H2 1314   8.177   9.965   5.586 -1.0286 -1.8949 -2.7091
33478TIP3   OH2 1315   5.015   1.110   8.377  0.2067  0.2643 -0.0338
33478TIP3    H1 1316   5.059   1.155   8.305  0.2053 -1.0593 -0.8794
33478TIP3    H2 1317   5.084   1.059   8.420  0.2893  1.3187  1.1649
33479TIP3   OH2 1318   5.427   8.935   0.529 -0.3203  0.1188  0.3664
33479TIP3    H1 1319   5.382   8.860   0.569  1.7030 -0.7272  1.2177
33479TIP3    H2 1320   5.422   8.919   0.435  0.2338 -1.1991  0.5432
33480TIP3   OH2 1321   3.488   7.721   5.400 -0.3528 -0.1844 -0.4653
33480TIP3    H1 1322   3.432   7.775   5.456 -1.2876 -1.2676 -0.3014
33480TIP3    H2 1323   3.461   7.742   5.311  1.6887  2.1377 -0.6314
33481TIP3   OH2 1324   9.757   0.841   6.914 -0.2395  0.2216 -0.3412
33481TIP3    H1 1325   9.847   0.872   6.923  0.7869 -2.8150  1.2695
33481TIP3    H2 1326   9.758   0.784   6.837 -0.6311 -0.2995  0.0318
33482TIP3   OH2 1327   0.383   2.688   5.529  0.6339  0.3025  0.0623
33482TIP3    H1 1328   0.410   2.702   5.438  0.3702  0.7528  0.0509
33482TIP3    H2 1329   0.430   2.609   5.556 -0.7060 -0.9294 -1.0585
33483TIP3   OH2 1330   3.116   9.748   0.647  0.4979  0.4168  0.9506
33483TIP3    H1 1331   3.161   9.814   0.595 -0.4022 -0.1106 -0.5758
33483TIP3    H2 1332   3.105   9.673   0.588 -2.9677  0.7667  0.9007
33484TIP3   OH2 1333   6.843  10.774   9.561 -0.0048 -0.2947 -0.4162
33484TIP3    H1 1334   6.912  10.712   9.540  1.2547 -0.0501  2.4723
33484TIP3    H2 1335   6.762  10.722   9.556  0.6567 -1.2848 -1.2246
33485TIP3   OH2 1336   6.193   1.880   4.664 -0.0935 -0.6957  0.4375
33485TIP3    H1 1337   6.163   1.805   4.612  1.2001 -2.0687  1.5826
33485TIP3    H2 1338   6.280   1.855   4.694  0.0604  0.9626  1.5093
33486TIP3   OH2 1339   8.052   2.451   6.208  0.3830 -0.0069  0.3479
33486TIP3    H1 1340   8.105   2.524   6.177  0.7994  0.0519  1.1659
33486TIP3    H2 1341   8.017   2.411   6.128  1.0289  0.4277 -0.1661
33487TIP3   OH2 1342   3.039  10.690   4.295  0.2860  0.5415 -0.1178
33487TIP3    H1 1343   3.043  10.602   4.257  1.1182  1.5161 -2.4212
33487TIP3    H2 1344   2.983  10.740   4.236 -1.3474  1.2837  1.9146
33488TIP3   OH2 1345   9.832   6.488   2.888  0.4911 -0.2589  0.1553
33488TIP3    H1 1346   9.853   6.581   2.895  1.9763 -0.2808 -2.7628
33488TIP3    H2 1347   9.736   6.485   2.890  0.3835  1.4729 -0.9266
33489TIP3   OH2 1348   2.686   5.101   9.937  0.5909 -0.0541  0.1829
33489TIP3    H1 1349   2.657   5.083  10.027  2.0801 -1.4842  0.4225
33489TIP3    H2 1350   2.607   5.133   9.893  0.0043  1.4459  2.1657
33490TIP3   OH2 1351   1.449   4.861   6.992  0.3798 -0.0911  0.3748
33490TIP3    H1 1352   1.456   4.887   7.084 -0.4891 -0.2641  0.5006
33490TIP3    H2 1353   1.472   4.768   6.991 -0.9602 -0.4579  0.6617
33491TIP3   OH2 1354   9.593   7.257   9.893 -0.5438  0.5124  0.1507
33491TIP3    H1 1355   9.596   7.349   9.920  1.5499  0.0574  1.7019
33491TIP3    H2 1356   9.681   7.240   9.857 -1.3140 -0.5615 -1.3139
33492TIP3   OH2 1357   6.979   6.460   7.052  0.4071 -0.0992 -0.0375
33492TIP3    H1 1358   6.973   6.519   7.127  2.5401 -0.2741  0.3314
33492TIP3    H2 1359   7.014   6.514   6.982  2.1510 -0.8094  0.2347
33493TIP3   OH2 1360   8.860   0.732   7.902  0.4671 -0.5829 -0.5155
33493TIP3    H1 1361   8.907   0.659   7.943  1.1710  0.5060  0.6594
33493TIP3    H2 1362   8.895   0.735   7.812  0.4432 -1.6676 -0.5707
33494TIP3   OH2 1363   5.545   8.778   9.581 -0.0584 -0.1659 -0.1268
33494TIP3    H1 1364   5.625   8.821   9.610  0.4752 -0.9112 -0.4393
33494TIP3    H2 1365   5.572   8.689   9.560 -0.9197 -0.3559 -0.4962
33495TIP3   OH2 1366   8.726   8.265   8.675 -0.0428 -0.1125  0.9095
33495TIP3    H1 1367   8.740   8.171   8.663 -0.0913  0.0126 -0.2546
33495TIP3    H2 1368   8.795   8.292   8.735  0.6311 -0.7015  0.4182
33496TIP3   OH2 1369   1.222   9.362   5.358 -0.4107 -0.3729 -0.9545
33496TIP3    H1 1370   1.263   9.310   5.289  0.7078 -1.5977  0.5644
33496TIP3    H2 1371   1.209   9.448   5.318  1.7969 -0.5240 -2.1740
33497TIP3   OH2 1372   1.852   9.887   1.326 -0.2298  0.1760  0.0554
33497TIP3    H1 1373   1.838   9.894   1.421 -0.1072 -1.4984  0.2318
33497TIP3    H2 1374   1.944   9.912   1.314 -0.8027  2.4863  0.0576
33498TIP3   OH2 1375   4.395  10.547   0.403  0.0952  0.4810 -0.6051
33498TIP3    H1 1376   4.447  10.607   0.349 -0.2296  1.1058 -0.2286
33498TIP3    H2 1377   4.363  10.601   0.475 -1.0211  0.0888 -0.7894
33499TIP3   OH2 1378   0.729  10.513   4.120 -0.2008  0.3019  0.0262
33499TIP3    H1 1379   0.697  10.510   4.029 -0.0639 -1.3511  0.0025
33499TIP3    H2 1380   0.702  10.430   4.157  1.2898  0.2242  0.9838
33500TIP3   OH2 1381   7.726   1.369   2.496 -0.0956  0.2807 -0.4010
33500TIP3    H1 1382   7.662   1.298   2.499  1.7424 -1.5049 -1.0204
33500TIP3    H2 1383   7.742   1.390   2.588 -0.2227 -0.5511 -0.1785
33501TIP3   OH2 1384   5.983   4.654   5.139  0.0605 -0.1389 -0.5473
33501TIP3    H1 1385   6.010   4.619   5.054  0.5714  2.9197 -1.7840
33501TIP3    H2 1386   6.015   4.744   5.139 -0.4579  0.1723  2.6836
33502TIP3   OH2 1387   2.186  10.287  10.183  0.2658 -0.3456  0.7585
33502TIP3    H1 1388   2.217  10.326  10.101 -0.9542 -0.5508  0.1786
33502TIP3    H2 1389   2.249  10.316  10.248  1.0335  0.1623 -0.1822
33503TIP3   OH2 1390   5.409   6.534   7.491  0.0992 -0.1336  0.2403
33503TIP3    H1 1391   5.357   6.464   7.452  0.9116 -1.0837  0.7970
33503TIP3    H2 1392   5.498   6.519   7.459  0.6196 -0.4337  1.7271
33504TIP3   OH2 1393   0.984   1.121   1.023  0.3729 -0.2675  0.7743
33504TIP3    H1 1394   1.039   1.094   0.950 -2.0145  0.5925 -1.4926
33504TIP3    H2 1395   1.031   1.091   1.101  3.8659  0.2293 -0.9602
33505TIP3   OH2 1396   5.115  10.590   3.779 -0.2353 -0.1750  0.3283
33505TIP3    H1 1397   5.090  10.531   3.707  0.0382 -0.8480  0.7827
33505TIP3    H2 1398   5.166  10.535   3.839  2.5832  1.1659 -0.6580
33506TIP3   OH2 1399  10.276   6.112   2.208  0.4144  0.1386 -0.0401
33506TIP3    H1 1400  10.194   6.079   2.172  1.0003  1.0886 -2.4029
33506TIP3    H2 1401  10.340   6.043   2.189  0.2171 -0.7029  1.9953
33507TIP3   OH2 1402   1.025   6.125   9.163  0.0147  0.1603 -0.5411
33507TIP3    H1 1403   0.971   6.200   9.138  2.4560  1.8349 -1.2292
33507TIP3    H2 1404   1.001   6.107   9.254 -0.9683  1.4628 -0.5180
33508TIP3   OH2 1405  10.525   9.755   6.640  0.2010  0.2617  0.3650
33508TIP3    H1 1406  10.548   9.848   6.641  0.3439  0.2272  1.2729
33508TIP3    H2 1407  10.441   9.751   6.686  0.1222 -0.0376  0.1949
33509TIP3   OH2 1408   8.883   5.715   5.119  0.2967 -0.0459 -0.3301
33509TIP3    H1 1409   8.802   5.678   5.083  0.4545  1.9434 -3.0473
33509TIP3    H2 1410   8.951   5.655   5.088  0.2033  0.4236 -1.4958
33510TIP3   OH2 1411   0.595   0.471   8.899 -0.3257  0.4245 -0.1675
33510TIP3    H1 1412   0.511   0.437   8.869  0.0574  0.9173 -1.9421
33510TIP3    H2 1413   0.603   0.441   8.990 -0.9677 -2.3546 -0.9292
33511TIP3   OH2 1414   5.476   9.840   9.165  0.7159  0.1049 -0.4732
33511TIP3    H1 1415   5.427   9.916   9.198  1.4203 -0.0566  1.0447
33511TIP3    H2 1416   5.489   9.858   9.072 -1.9226  0.2948 -0.8576
33512TIP3   OH2 1417   0.731   8.908   4.563 -0.4038 -0.1290  0.6637
33512TIP3    H1 1418   0.724   8.937   4.654 -1.4705 -0.1571  0.6082
33512TIP3    H2 1419   0.694   8.820   4.563  0.7642 -0.6417  0.4191
33513TIP3   OH2 1420   6.756   9.782   2.286  0.2774 -0.5044  0.0097
33513TIP3    H1 1421   6.718   9.754   2.369  0.7722  0.8336  0.7261
33513TIP3    H2 1422   6.684   9.824   2.238  0.7193  1.9676  1.3325
33514TIP3   OH2 1423   2.071  10.678   6.923  0.2535 -0.1236 -0.1979
33514TIP3    H1 1424   1.984  10.715   6.904  0.7501  0.2784 -1.7985
33514TIP3    H2 1425   2.082  10.608   6.859  0.1748 -1.7991  1.5048
33515TIP3   OH2 1426   3.765   9.211   8.341 -0.4356 -0.1774 -0.3158
33515TIP3    H1 1427   3.688   9.154   8.339 -0.2593 -0.4170 -0.1734
33515TIP3    H2 1428   3.777   9.233   8.433  0.7834 -1.6527 -0.0803
33516TIP3   OH2 1429  10.843   6.705   4.471 -0.1716  0.2397  0.9096
33516TIP3    H1 1430  10.851   6.800   4.482  2.4000 -0.0345  2.1260
33516TIP3    H2 1431  10.774   6.695   4.405 -0.3501  2.9442  0.5475
33517TIP3   OH2 1432   4.150   8.572   6.258  0.0291 -0.2326 -0.3729
33517TIP3    H1 1433   4.096   8.640   6.298 -2.3992 -0.8291 -2.3797
33517TIP3    H2 1434   4.206   8.541   6.329 -0.8619  1.8183  1.3359
33518TIP3   OH2 1435   5.549   3.502   8.185 -0.3058  0.3845  0.6421
33518TIP3    H1 1436   5.564   3.452   8.105  2.6710  2.9262 -0.5882
33518TIP3    H2 1437   5.627   3.488   8.238  0.5112  3.2861  0.3807
33519TIP3   OH2 1438   8.858   0.341   8.956 -0.1533 -0.3096  0.0866
33519TIP3    H1 1439   8.917   0.386   9.017 -0.5527  1.8382 -1.0251
33519TIP3    H2 1440   8.916   0.290   8.899  0.5009  0.4755  0.0375
33520TIP3   OH2 1441   8.462   9.385   4.973 -0.5527 -0.0718  0.4892
33520TIP3    H1 1442   8.508   9.324   4.915 -0.2209 -0.4004  1.0834
33520TIP3    H2 1443   8.389   9.335   5.008 -0.9602  0.2363  0.0833
33521TIP3   OH2 1444   9.399   2.862   2.133 -0.5549  1.0365  0.0688
33521TIP3    H1 1445   9.476   2.902   2.174 -0.3661  0.9307 -0.1787
33521TIP3    H2 1446   9.402   2.770   2.161  0.4541  0.5660 -1.4070
33522TIP3   OH2 1447   0.226   0.755   6.305  0.1147 -0.6149 -0.1357
33522TIP3    H1 1448   0.270   0.671   6.314  0.5837 -0.4370 -0.7102
33522TIP3    H2 1449   0.137   0.739   6.336  0.2336 -1.2941 -0.1379
33523TIP3   OH2 1450   4.205   5.566   2.306  0.3370  0.1608 -1.0351
33523TIP3    H1 1451   4.157   5.488   2.333 -1.4920  1.2798 -0.8708
33523TIP3    H2 1452   4.264   5.585   2.379 -0.6451  0.0553 -0.1903
33524TIP3   OH2 1453  10.377   7.550   4.149  0.0354  1.0833 -0.2040
33524TIP3    H1 1454  10.364   7.463   4.187  1.6974  0.4169 -1.0491
33524TIP3    H2 1455  10.418   7.601   4.219 -1.1175  1.2543  0.3552
33525TIP3   OH2 1456   8.261   2.565  10.586 -0.6181  0.0768 -0.7478
33525TIP3    H1 1457   8.313   2.505  10.533 -2.2911 -2.6035  0.4719
33525TIP3    H2 1458   8.324   2.631  10.616  1.2657 -0.9354 -2.2471
33526TIP3   OH2 1459   9.836   4.980   3.160 -0.3412 -0.0947  0.0894
33526TIP3    H1 1460   9.824   5.071   3.187  1.1904 -0.4056  2.0128
33526TIP3    H2 1461   9.854   4.984   3.066 -1.7218  1.4223 -0.1527
33527TIP3   OH2 1462  10.361   3.484   1.012 -0.1973 -0.6093  0.1910
33527TIP3    H1 1463  10.450   3.475   1.048 -0.1249  1.0814  0.5095
33527TIP3    H2 1464  10.367   3.559   0.952 -1.5440 -0.0564  0.7075
33528TIP3   OH2 1465   1.393   5.286   5.998 -0.2742 -0.4158 -0.2699
33528TIP3    H1 1466   1.379   5.356   6.061  1.3548 -0.1731 -0.1395
33528TIP3    H2 1467   1.409   5.331   5.915 -1.9857 -0.7243 -0.8102
33529TIP3   OH2 1468   6.614   8.092   7.233  0.2730 -0.6259  0.1985
33529TIP3    H1 1469   6.596   8.058   7.320  0.6025  0.3015  0.6361
33529TIP3    H2 1470   6.590   8.184   7.237  1.2213 -0.3356 -0.4072
33530TIP3   OH2 1471   3.500   9.239  10.329 -0.2017 -0.0751 -0.0273
33530TIP3    H1 1472   3.539   9.158  10.361  0.2602 -0.0929 -0.6286
33530TIP3    H2 1473   3.477   9.287  10.409 -1.5126 -1.2588  0.3547
33531TIP3   OH2 1474  10.027   9.075  10.456  0.0247 -0.1452  0.3179
33531TIP3    H1 1475   9.942   9.056  10.496  0.0121 -2.6846 -0.7440
33531TIP3    H2 1476  10.088   9.080  10.530 -0.7752  0.1146  0.9726
33532TIP3   OH2 1477   9.693   7.148   1.588 -0.4926  0.2628 -0.5940
33532TIP3    H1 1478   9.698   7.159   1.683 -0.7453  0.9486 -0.6510
33532TIP3    H2 1479   9.639   7.221   1.558 -0.0615  0.3056 -1.3086
33533TIP3   OH2 1480   0.225   8.352   3.895 -0.1349  0.3575 -0.5664
33533TIP3    H1 1481   0.163   8.281   3.907 -0.2991  0.5542 -0.2434
33533TIP3    H2 1482   0.201   8.417   3.961 -0.0224  0.7359 -0.8920
33534TIP3   OH2 1483   7.747  10.367   2.623 -0.2575 -0.8657 -0.2429
33534TIP3    H1 1484   7.815  10.300   2.624  0.5433 -0.0988 -0.8973
33534TIP3    H2 1485   7.713  10.366   2.533  0.5474  0.3396 -0.5856
33535TIP3   OH2 1486   5.467   5.349   4.399 -1.0511  0.1606  0.6111
33535TIP3    H1 1487   5.408   5.357   4.324  0.6599  2.0281 -0.6387
33535TIP3    H2 1488   5.427   5.402   4.468 -1.2326  0.7485  0.0551
33536TIP3   OH2 1489   9.905   1.705   5.839  0.1233  0.2601 -0.3550
33536TIP3    H1 1490   9.985   1.742   5.875  0.0843  0.4416 -0.4557
33536TIP3    H2 1491   9.835   1.752   5.884  0.0719 -0.0463 -0.1100
33537TIP3   OH2 1492   7.914   8.198   2.768  0.3885  0.0952 -0.0331
33537TIP3    H1 1493   7.892   8.120   2.820  0.5208  0.0773 -0.0057
33537TIP3    H2 1494   7.930   8.164   2.680 -2.2600  0.3806 -0.7081
33538TIP3   OH2 1495   1.010   8.902   1.778 -0.0907  0.2550 -0.0029
33538TIP3    H1 1496   0.963   8.909   1.861 -0.9656  0.3716 -0.4934
33538TIP3    H2 1497   1.023   8.808   1.766 -2.5133 -0.0218 -1.0813
33539TIP3   OH2 1498   4.045   6.159   5.023  0.1879  0.1465 -0.0132
33539TIP3    H1 1499   4.076   6.068   5.029  0.9052  0.2730 -1.4309
33539TIP3    H2 1500   4.123   6.209   5.000 -0.6496  0.7639 -1.6239
33540TIP3   OH2 1501   8.203   7.725  10.230  0.1465 -0.3074 -0.1484
33540TIP3    H1 1502   8.217   7.690  10.142 -1.4418 -0.6679 -0.2882
33540TIP3    H2 1503   8.137   7.794  10.217  0.4627  0.1508  0.6533
33541TIP3   OH2 1504   3.661   4.841   5.330  0.6752  0.0929 -0.1115
33541TIP3    H1 1505   3.743   4.801   5.300  0.4101 -1.8881  1.5762
33541TIP3    H2 1506   3.677   4.861   5.423 -0.4817  0.4808  0.0194
33542TIP3   OH2 1507   8.212   0.058  10.456  0.1441  0.2302 -0.1668
33542TIP3    H1 1508   8.253  -0.000  10.520 -2.3134 -1.5188 -0.0368
33542TIP3    H2 1509   8.219   0.010  10.373 -1.2019  0.0900 -0.2103
33543TIP3   OH2 1510   6.866   0.038   0.196  0.1002  0.1145  0.8994
33543TIP3    H1 1511   6.842   0.042   0.289  1.7825 -0.0305  1.3735
33543TIP3    H2 1512   6.898   0.126   0.176 -1.0861  0.4014  0.1940
33544TIP3   OH2 1513   3.527   4.332   9.255 -0.3319  0.5176 -0.0034
33544TIP3    H1 1514   3.546   4.324   9.349 -0.3735 -0.4506 -0.0713
33544TIP3    H2 1515   3.591   4.396   9.223  0.8317 -0.4249  0.3595
33545TIP3   OH2 1516   0.092  10.032   4.149  0.6916  0.0544 -0.1300
33545TIP3    H1 1517   0.031  10.017   4.077  1.7412 -2.7910 -0.5493
33545TIP3    H2 1518   0.130   9.946   4.166  3.2510  1.3787  1.3320
33546TIP3   OH2 1519   1.936   1.190   4.558  0.4408  0.5198  0.1177
33546TIP3    H1 1520   1.995   1.137   4.504  0.1935  0.2135  0.1468
33546TIP3    H2 1521   1.925   1.271   4.508 -1.3654 -0.5271 -1.2941
33547TIP3   OH2 1522   2.519  10.811   4.001 -0.7493 -0.6291 -0.6604
33547TIP3    H1 1523   2.445  10.797   3.941 -0.1458 -2.1538 -1.0913
33547TIP3    H2 1524   2.588  10.848   3.945 -0.9043  0.0222 -0.4287
33548TIP3   OH2 1525   0.329   3.214   9.266 -0.4188  0.1624  0.1516
33548TIP3    H1 1526   0.290   3.133   9.234 -2.1151  0.8718  0.2650
33548TIP3    H2 1527   0.397   3.186   9.327 -1.1140 -1.1696  0.3487
33549TIP3   OH2 1528   7.707   8.369   5.587  0.3921  0.0188 -0.0755
33549TIP3    H1 1529   7.764   8.332   5.520 -1.9954  0.2530 -2.4068
33549TIP3    H2 1530   7.728   8.462   5.588  1.1707 -0.1498  0.3229
33550TIP3   OH2 1531   1.144   9.498   3.478  0.1025  0.0027 -0.4823
33550TIP3    H1 1532   1.156   9.592   3.487 -1.3254  0.1984 -0.4906
33550TIP3    H2 1533   1.192   9.460   3.552  0.0168  0.7721 -0.0283
33551TIP3   OH2 1534   2.473   1.932   7.735  0.6111  0.5257 -0.0976
33551TIP3    H1 1535   2.433   1.874   7.799 -0.1487 -0.8804 -1.7844
33551TIP3    H2 1536   2.538   1.879   7.691  0.4273  1.1623 -1.1723
33552TIP3   OH2 1537   3.017   2.810  10.583 -0.1694  0.5009  0.1795
33552TIP3    H1 1538   3.080   2.883  10.587 -1.4383  1.6056  0.8065
33552TIP3    H2 1539   3.012   2.779  10.673 -1.4795  1.3028  0.4141
33553TIP3   OH2 1540   9.918   0.394  10.608  0.5656  0.1835 -0.1611
33553TIP3    H1 1541   9.935   0.367  10.698  2.1170  1.0746 -0.1565
33553TIP3    H2 1542   9.839   0.447  10.614  0.9029  0.6084  0.7493
33554TIP3   OH2 1543   4.709   2.463   8.253 -0.3591 -0.1695  0.1457
33554TIP3    H1 1544   4.790   2.418   8.231  1.7612  1.8681  2.9564
33554TIP3    H2 1545   4.664   2.405   8.314  0.7838  0.0846  1.2765
33555TIP3   OH2 1546   6.122  10.202   0.329 -0.2765  0.6018 -0.0473
33555TIP3    H1 1547   6.124  10.198   0.424 -0.4298  0.7056 -0.0401
33555TIP3    H2 1548   6.135  10.295   0.308 -2.7457  1.0129 -0.0612
33556TIP3   OH2 1549   3.046   2.707   3.843  0.4861  0.2333  0.1398
33556TIP3    H1 1550   3.046   2.685   3.936  1.5028  0.9444  0.3249
33556TIP3    H2 1551   3.104   2.643   3.803 -1.2461 -1.1530 -0.3257
33557TIP3   OH2 1552   8.180   1.730   0.579 -0.3304  0.0338 -0.1970
33557TIP3    H1 1553   8.147   1.651   0.623 -0.6073  0.4359  0.3191
33557TIP3    H2 1554   8.101   1.779   0.557 -0.1309  0.4285 -0.0291
33558TIP3   OH2 1555   0.105   8.456   0.325 -0.3801  0.1372 -0.4393
33558TIP3    H1 1556   0.046   8.519   0.283  0.1005 -0.3536 -1.9246
33558TIP3    H2 1557   0.138   8.403   0.253  3.6701  1.7972 -0.0969
33559TIP3   OH2 1558   8.917   2.067   3.400  0.5673  0.0635  0.4002
33559TIP3    H1 1559   9.001   2.095   3.436  2.0862 -0.1398 -2.7049
33559TIP3    H2 1560   8.877   2.015   3.471  2.3913  1.2903  2.4403
33560TIP3   OH2 1561   2.725  10.446   2.989  0.5774  0.4885 -0.6152
33560TIP3    H1 1562   2.740  10.400   3.071 -3.6233 -1.4332 -0.6524
33560TIP3    H2 1563   2.773  10.395   2.924  2.9839  1.3632  0.3611
33561TIP3   OH2 1564  10.604   3.335   8.588  0.0431  0.1063  0.3316
33561TIP3    H1 1565  10.699   3.347   8.589 -0.0389  0.7404  0.8885
33561TIP3    H2 1566  10.591   3.245   8.619  0.3950  0.5928  1.9748
33562TIP3   OH2 1567   6.554   5.557   9.109 -0.2812  0.4974 -0.0127
33562TIP3    H1 1568   6.499   5.490   9.149 -1.2644  0.8218 -0.7664
33562TIP3    H2 1569   6.632   5.511   9.081 -2.1248 -1.0425 -3.1417
33563TIP3   OH2 1570   1.078  10.639   1.508 -0.0249  0.6580  0.1062
33563TIP3    H1 1571   1.143  10.690   1.556  1.4298 -2.0580  1.2863
33563TIP3    H2 1572   1.127  10.563   1.476 -2.2909 -0.6908 -0.3781
33564TIP3   OH2 1573   5.849  10.374   2.171  0.5422 -0.1377 -0.5544
33564TIP3    H1 1574   5.783  10.407   2.233  0.5700 -0.4982 -0.3282
33564TIP3    H2 1575   5.864  10.284   2.199 -0.4543 -0.7549 -1.9349
33565TIP3   OH2 1576   4.796   1.560   1.170  0.5364  0.1932  0.4966
33565TIP3    H1 1577   4.881   1.599   1.149  0.9181 -0.9141 -0.0851
33565TIP3    H2 1578   4.772   1.509   1.092 -0.8999  0.8679  0.4607
33566TIP3   OH2 1579   0.585   4.485   5.842 -0.2596 -0.2034 -0.2779
33566TIP3    H1 1580   0.541   4.570   5.846 -0.0281 -0.0603 -0.7782
33566TIP3    H2 1581   0.639   4.483   5.921  1.6410  1.1743 -1.4575
33567TIP3   OH2 1582   5.353   0.334   2.843  0.1235  0.0307  0.0021
33567TIP3    H1 1583   5.286   0.330   2.911 -0.8947  1.4411 -0.8664
33567TIP3    H2 1584   5.411   0.261   2.862 -1.5147 -1.0846  0.9309
33568TIP3   OH2 1585   8.941   6.421   8.518 -0.2009 -0.0981 -0.0771
33568TIP3    H1 1586   8.992   6.497   8.544  0.8662  0.0586 -2.3927
33568TIP3    H2 1587   8.850   6.451   8.521  0.1260  0.9083  0.1453
33569TIP3   OH2 1588   7.419   3.656   6.665  0.1168  0.2356 -0.1017
33569TIP3    H1 1589   7.390   3.744   6.690  1.3536  0.2571  1.3995
33569TIP3    H2 1590   7.353   3.598   6.704  1.7606  0.2976  3.1343
33570TIP3   OH2 1591  10.203   0.439   3.839 -0.3961 -0.1571 -0.1389
33570TIP3    H1 1592  10.217   0.359   3.889 -0.3154  0.3011  0.5790
33570TIP3    H2 1593  10.132   0.417   3.778 -0.9905 -0.5026  0.6657
33571TIP3   OH2 1594   2.316   2.320   8.160  0.5721  0.1351 -0.4163
33571TIP3    H1 1595   2.267   2.400   8.180  0.5280 -0.0128  0.0730
33571TIP3    H2 1596   2.352   2.335   8.073  1.7077  1.2518  0.2139
33572TIP3   OH2 1597   2.397   0.084   2.920  0.0121 -0.5895 -0.2587
33572TIP3    H1 1598   2.360   0.060   2.835  1.1764 -0.7308 -0.7397
33572TIP3    H2 1599   2.374   0.176   2.931 -0.9440 -0.8062 -0.2786
33573TIP3   OH2 1600   0.644   2.177   5.961 -0.0176 -0.4020 -0.0358
33573TIP3    H1 1601   0.598   2.253   5.926  0.6372  0.0807  0.1378
33573TIP3    H2 1602   0.603   2.102   5.918 -0.5189  0.0639 -0.3739
33574TIP3   OH2 1603   0.545  10.446   8.843  0.2417  0.2856  0.2053
33574TIP3    H1 1604   0.504  10.525   8.877 -0.5505 -0.8962  2.1981
33574TIP3    H2 1605   0.639  10.463   8.850  0.2807  2.6585 -3.5184
33575TIP3   OH2 1606   0.001   6.111   2.307  0.1805 -0.6724  0.0817
33575TIP3    H1 1607  -0.028   6.180   2.367 -0.0669 -1.5486  0.9897
33575TIP3    H2 1608   0.006   6.155   2.222 -0.3299  0.3781  0.5680
33576TIP3   OH2 1609   5.051   7.118   1.735 -0.2981 -0.2056  0.5785
33576TIP3    H1 1610   5.040   7.119   1.830  1.2371 -2.6496  0.8515
33576TIP3    H2 1611   5.061   7.026   1.713 -1.5920  0.2118 -2.1235
33577TIP3   OH2 1612   2.259   6.294  10.493  0.4633  0.2930 -0.0212
33577TIP3    H1 1613   2.204   6.347  10.550  1.3018  0.5779  0.5474
33577TIP3    H2 1614   2.320   6.356  10.452 -0.0643  0.0810 -1.1726
33578TIP3   OH2 1615   1.699  10.590   2.717 -0.7251  0.1666 -0.1040
33578TIP3    H1 1616   1.666  10.573   2.629 -1.7100  2.0157 -0.1389
33578TIP3    H2 1617   1.772  10.529   2.727 -0.5337 -0.0421 -2.2353
33579TIP3   OH2 1618   8.970   8.885   9.284 -0.0961  0.1833 -0.7816
33579TIP3    H1 1619   9.052   8.900   9.332 -1.2973  0.4267  1.3260
33579TIP3    H2 1620   8.967   8.955   9.219  1.7661 -0.3544 -1.5017
33580TIP3   OH2 1621   6.688   5.086   3.114  0.2098  0.3725 -0.5353
33580TIP3    H1 1622   6.740   5.083   3.194  2.7799 -0.6840 -2.0897
33580TIP3    H2 1623   6.641   5.003   3.113 -1.4421  1.2285  0.7631
33581TIP3   OH2 1624   8.175   6.686   9.292 -0.1460  0.5361  0.9176
33581TIP3    H1 1625   8.234   6.611   9.291 -2.0439 -1.0203  0.1175
33581TIP3    H2 1626   8.107   6.663   9.356 -1.9346  0.5463 -0.8822
33582TIP3   OH2 1627   2.650   9.429   0.709  0.2059  0.2077  0.2267
33582TIP3    H1 1628   2.623   9.519   0.727  0.2750  0.2351  0.1947
33582TIP3    H2 1629   2.680   9.396   0.794 -0.7721 -0.1161  0.4583
33583TIP3   OH2 1630   9.321   6.441   4.796  0.4849  0.1523  0.0181
33583TIP3    H1 1631   9.323   6.503   4.869 -0.4608 -2.3675  2.3724
33583TIP3    H2 1632   9.376   6.368   4.826 -0.3279 -1.1773 -1.5920
33584TIP3   OH2 1633   5.322   2.529   8.897  0.3903 -0.6722 -0.0468
33584TIP3    H1 1634   5.361   2.442   8.889 -0.9162 -1.5143  2.0625
33584TIP3    H2 1635   5.257   2.520   8.966  1.0760  2.2871  1.1261
33585TIP3   OH2 1636   2.838  10.322   1.952 -0.0887  0.0143  0.1343
33585TIP3    H1 1637   2.856  10.290   1.863  0.0433  1.3306 -0.3347
33585TIP3    H2 1638   2.899  10.394   1.964 -0.3831  0.1056  1.1542
33586TIP3   OH2 1639   3.650  10.182   7.420 -0.3948 -0.2870  0.0771
33586TIP3    H1 1640   3.600  10.257   7.449  0.5419  0.2129  0.4393
33586TIP3    H2 1641   3.596  10.106   7.441 -1.8015  0.3129 -1.2053
33587TIP3   OH2 1642   4.410   0.452   3.611 -0.3618 -0.2026  0.1057
33587TIP3    H1 1643   4.480   0.506   3.574 -0.8656  0.5969  0.3104
33587TIP3    H2 1644   4.417   0.463   3.706  0.0547 -1.1688  0.2079
33588TIP3   OH2 1645   6.823  10.137   9.973 -0.2309 -0.0203  0.8112
33588TIP3    H1 1646   6.891  10.074   9.947 -0.7185  0.4974 -2.1066
33588TIP3    H2 1647   6.755  10.083  10.013  0.4859 -0.9848  0.7799
33589TIP3   OH2 1648   8.142  10.279  10.114  0.4834  0.5239  0.3538
33589TIP3    H1 1649   8.158  10.352  10.173 -0.3751  0.0720  1.1730
33589TIP3    H2 1650   8.215  10.219  10.128 -0.7857 -0.6091  2.6100
33590TIP3   OH2 1651  10.114   6.568   5.486  0.0735  0.0877 -0.0687
33590TIP3    H1 1652  10.050   6.592   5.553 -1.0176  2.7028 -1.8847
33590TIP3    H2 1653  10.199   6.580   5.530 -0.5949  1.7224  0.9079
33591TIP3   OH2 1654   9.075   2.670   1.726 -0.3813 -0.3235 -0.5845
33591TIP3    H1 1655   8.992   2.696   1.766 -0.7941 -1.5410 -0.6129
33591TIP3    H2 1656   9.110   2.603   1.785  1.1210  0.8893  0.0009
33592TIP3   OH2 1657   6.603   5.624  10.583  0.1770 -0.0571  0.2723
33592TIP3    H1 1658   6.570   5.597  10.497 -0.7934  1.1099  0.2359
33592TIP3    H2 1659   6.674   5.685  10.563 -0.2891  0.4988  0.2708
33593TIP3   OH2 1660   1.966   6.589  10.710 -0.5960 -0.5957  0.0603
33593TIP3    H1 1661   1.896   6.549  10.762 -1.5532  0.0208 -0.7131
33593TIP3    H2 1662   1.922   6.618  10.630  0.8234 -1.4968 -1.0972
33594TIP3   OH2 1663   7.307  10.172   5.902 -0.3619  0.1358 -0.1009
33594TIP3    H1 1664   7.257  10.112   5.957 -3.2146  2.5239  0.1021
33594TIP3    H2 1665   7.253  10.184   5.824  0.8355  1.3428 -0.7883
33595TIP3   OH2 1666   7.882  10.716  10.225  0.3038 -0.1192  0.7856
33595TIP3    H1 1667   7.900  10.771  10.149 -0.1341 -0.0450  0.7305
33595TIP3    H2 1668   7.945  10.744  10.291 -1.8683  2.7223  1.8952
33596TIP3   OH2 1669   6.513   0.725   0.717  0.1877  0.1025 -0.2831
33596TIP3    H1 1670   6.543   0.716   0.808 -0.5521 -1.3639 -0.1579
33596TIP3    H2 1671   6.554   0.652   0.671 -0.4954  0.0536 -0.8259
33597TIP3   OH2 1672   6.145   8.093   3.546 -0.3938 -0.0219  0.2195
33597TIP3    H1 1673   6.230   8.050   3.540 -0.9092 -0.9598 -0.6230
33597TIP3    H2 1674   6.096   8.041   3.610 -0.0167  1.1101  1.4763
33598TIP3   OH2 1675   8.222  10.147   2.172  0.3975 -0.2233 -0.3907
33598TIP3    H1 1676   8.180  10.117   2.091 -0.6860  0.2714 -0.0267
33598TIP3    H2 1677   8.252  10.066   2.214  0.1147 -0.5641 -0.8304
33599TIP3   OH2 1678   0.583   8.821   8.509  0.6583 -0.3071 -0.1409
33599TIP3    H1 1679   0.505   8.863   8.544  1.1295  0.4834 -0.0205
33599TIP3    H2 1680   0.627   8.784   8.586  0.4899 -0.6076 -0.1896
33600TIP3   OH2 1681   7.820   7.329   1.183 -0.3782 -0.8567 -0.2636
33600TIP3    H1 1682   7.770   7.381   1.245 -0.7065  0.3097 -1.4587
33600TIP3    H2 1683   7.875   7.273   1.237 -1.2945 -0.5164  1.0629
33601TIP3   OH2 1684  10.263   4.968   8.813  0.2030 -0.2755  0.3675
33601TIP3    H1 1685  10.200   4.962   8.742  2.4000  0.1545 -1.7623
33601TIP3    H2 1686  10.264   4.881   8.853  2.0448 -2.0401 -3.1014
33602TIP3   OH2 1687   5.169   4.691   9.015 -0.3147 -0.2295 -0.7543
33602TIP3    H1 1688   5.205   4.773   9.050  1.1394 -1.4026  0.7063
33602TIP3    H2 1689   5.077   4.693   9.039 -0.1684  0.7139 -0.2005
33603TIP3   OH2 1690   7.070   2.343   1.025  0.7663 -0.4228 -0.3083
33603TIP3    H1 1691   6.979   2.311   1.024  0.7831 -0.4790 -0.1748
33603TIP3    H2 1692   7.062   2.438   1.028  0.6893 -0.4442  0.9029
33604TIP3   OH2 1693   6.775   9.102  10.358  0.1574 -0.6185 -0.6511
33604TIP3    H1 1694   6.823   9.039  10.411 -0.3903 -0.2518  0.2999
33604TIP3    H2 1695   6.819   9.185  10.373  0.7214 -0.7012 -1.7043
33605TIP3   OH2 1696   8.905   0.503  10.283 -0.2659 -0.0359 -0.4617
33605TIP3    H1 1697   8.904   0.539  10.371 -0.1554  0.5238 -0.6839
33605TIP3    H2 1698   8.931   0.577  10.227 -1.2282 -0.1368 -1.0610
33606TIP3   OH2 1699   6.586   4.618   0.680  0.0304  0.5834 -0.0942
33606TIP3    H1 1700   6.598   4.597   0.588 -1.8364  0.2534 -0.3049
33606TIP3    H2 1701   6.530   4.548   0.713  0.3795  0.8941  1.2040
33607TIP3   OH2 1702   2.995   3.849   4.370  0.1164 -0.2884  0.0451
33607TIP3    H1 1703   3.049   3.777   4.336 -1.0919 -0.7639 -0.9572
33607TIP3    H2 1704   3.053   3.925   4.370  1.2088 -1.1030  0.4381
33608TIP3   OH2 1705   3.168   4.050   1.415 -0.1297 -0.3556 -0.2763
33608TIP3    H1 1706   3.241   4.071   1.472  0.0344 -0.7359 -0.3461
33608TIP3    H2 1707   3.140   3.962   1.441 -1.3158  0.2291  0.5439
33609TIP3   OH2 1708  10.876  10.332   0.249 -0.3467 -0.3014  0.0184
33609TIP3    H1 1709  10.829  10.330   0.332 -0.1837 -0.5788  0.1039
33609TIP3    H2 1710  10.956  10.381   0.267 -0.4629 -0.0843 -0.0546
33610TIP3   OH2 1711  10.153   9.191   3.030 -0.5813 -0.0578 -0.2287
33610TIP3    H1 1712  10.112   9.278   3.029 -0.9730 -0.2395 -0.4660
33610TIP3    H2 1713  10.144   9.161   3.121  1.1989  0.8986  0.3030
33611TIP3   OH2 1714   0.409  10.812  10.084  0.2822 -0.4433 -0.4587
33611TIP3    H1 1715   0.465  10.805  10.161 -1.4934 -0.2439  0.9066
33611TIP3    H2 1716   0.390  10.721  10.060 -3.4442 -0.7046  2.6841
33612TIP3   OH2 1717   0.258   4.962   1.949  0.1459 -0.6887  0.0170
33612TIP3    H1 1718   0.224   4.937   2.035  1.9299 -2.5464  0.2371
33612TIP3    H2 1719   0.344   4.921   1.943  0.3759 -0.0433 -2.4015
33613TIP3   OH2 1720   7.331   7.273   9.202 -0.4451 -0.3437 -0.1533
33613TIP3    H1 1721   7.406   7.257   9.259  1.0313  0.7344 -1.6960
33613TIP3    H2 1722   7.319   7.190   9.154  0.8501 -0.0334 -1.0655
33614TIP3   OH2 1723   2.526   7.946   2.975  0.2383  0.0876  0.1337
33614TIP3    H1 1724   2.482   7.998   3.042  0.8248  0.2640  0.3782
33614TIP3    H2 1725   2.545   7.863   3.017  0.7863  0.2700  0.2467
33615TIP3   OH2 1726   4.393   0.946   6.633  0.1973  0.5674  0.2634
33615TIP3    H1 1727   4.401   0.923   6.541  0.6522 -1.0537  0.6794
33615TIP3    H2 1728   4.341   0.875   6.671 -0.0072  1.2229  1.2543
33616TIP3   OH2 1729   0.428   6.973   3.123  0.0963  0.3719  0.6555
33616TIP3    H1 1730   0.403   6.904   3.184 -0.8934  1.4618  1.5318
33616TIP3    H2 1731   0.345   7.012   3.096  0.6415  1.3341  0.3248
33617TIP3   OH2 1732   6.767   3.822   8.669 -0.2570  0.4541 -0.0599
33617TIP3    H1 1733   6.673   3.833   8.658 -0.0291  2.1097 -0.6260
33617TIP3    H2 1734   6.806   3.890   8.615  1.2702 -0.0781  0.3144
33618TIP3   OH2 1735   0.448   4.796   3.226  0.0632  0.4056  0.1776
33618TIP3    H1 1736   0.522   4.785   3.165  0.0886  0.8960  0.1137
33618TIP3    H2 1737   0.371   4.773   3.174  0.1264  0.3595  0.1024
33619TIP3   OH2 1738   2.683  10.400   7.181 -0.8564 -0.6032  0.1561
33619TIP3    H1 1739   2.658  10.440   7.097  0.7660 -0.4261 -0.2736
33619TIP3    H2 1740   2.689  10.474   7.242  1.2927 -0.2165 -0.4312
33620TIP3   OH2 1741   5.356   4.131   4.031 -0.0573 -0.6573 -0.0959
33620TIP3    H1 1742   5.378   4.060   3.970  1.8019  0.3558 -0.6652
33620TIP3    H2 1743   5.438   4.177   4.045 -1.0016  0.7366  1.1469
33621TIP3   OH2 1744   5.904   7.280   1.632 -0.6981 -0.1465  0.2884
33621TIP3    H1 1745   5.812   7.273   1.605 -1.1987  0.6217  1.6927
33621TIP3    H2 1746   5.949   7.315   1.555 -1.7798  0.4859 -0.0782
33622TIP3   OH2 1747   8.474   0.444   8.265 -0.1186 -0.5958  0.7221
33622TIP3    H1 1748   8.557   0.413   8.301  0.8649 -0.8333 -1.5886
33622TIP3    H2 1749   8.466   0.399   8.181 -2.5575 -0.4864  0.8132
33623TIP3   OH2 1750   0.540   0.534   6.608 -0.5121  0.4256  0.7478
33623TIP3    H1 1751   0.548   0.441   6.628  0.0657  0.3165  0.0547
33623TIP3    H2 1752   0.486   0.569   6.678 -1.7049 -0.6420  0.3923
33624TIP3   OH2 1753   7.830  10.477   5.640 -0.4336  0.1266 -0.3346
33624TIP3    H1 1754   7.844  10.543   5.572  0.1343  0.4161  0.0542
33624TIP3    H2 1755   7.755  10.510   5.690  0.1244  0.7181  0.1312
33625TIP3   OH2 1756   7.525   0.573   2.376 -0.3585 -0.5724 -0.2688
33625TIP3    H1 1757   7.535   0.533   2.462 -1.0503 -1.2606 -0.4930
33625TIP3    H2 1758   7.432   0.593   2.370 -0.4473 -1.1853 -1.1281
33626TIP3   OH2 1759   6.868   6.047   9.076 -0.4912  0.5629  0.3280
33626TIP3    H1 1760   6.834   5.981   9.016  2.7194  0.4018 -1.5416
33626TIP3    H2 1761   6.795   6.108   9.089 -3.4319 -2.9143  1.7679
33627TIP3   OH2 1762   2.645   5.707   0.448  0.9117 -0.9068  0.2531
33627TIP3    H1 1763   2.699   5.688   0.372 -0.0516 -1.1418 -0.3970
33627TIP3    H2 1764   2.687   5.781   0.491  0.6207  0.2404 -1.3809
33628TIP3   OH2 1765   9.174   5.770   1.244 -0.5574  0.1125 -0.2847
33628TIP3    H1 1766   9.203   5.694   1.193 -0.1267  0.0474  0.0545
33628TIP3    H2 1767   9.117   5.734   1.311  0.6099 -0.0777  0.6461
33629TIP3   OH2 1768   6.943   3.451   6.416 -0.3397 -0.1287 -0.6235
33629TIP3    H1 1769   7.020   3.397   6.401  0.1276  0.8198 -1.7827
33629TIP3    H2 1770   6.974   3.541   6.406 -1.7380  0.2564 -2.0312
33630TIP3   OH2 1771   1.131   2.449   6.713 -0.4371  0.1111  0.5034
33630TIP3    H1 1772   1.099   2.507   6.644  2.4982 -0.4890 -1.5697
33630TIP3    H2 1773   1.173   2.508   6.776  0.2260  0.4567 -0.2426
33631TIP3   OH2 1774   5.851   8.663   0.206  0.1019 -0.2213 -0.4389
33631TIP3    H1 1775   5.831   8.570   0.206 -0.6994 -0.0592 -0.7006
33631TIP3    H2 1776   5.924   8.673   0.267 -0.5495 -0.8643  0.4666
33632TIP3   OH2 1777   2.946   9.027   7.576 -0.3137  0.6288 -0.5763
33632TIP3    H1 1778   2.855   9.048   7.555 -0.8974  1.2867  2.2144
33632TIP3    H2 1779   2.949   8.931   7.577 -0.7677  0.5971 -1.4051
33633TIP3   OH2 1780  10.412   8.236   0.068  0.2249  0.3180  0.4227
33633TIP3    H1 1781  10.328   8.266   0.033  0.7333  0.0988 -1.0762
33633TIP3    H2 1782  10.416   8.272   0.157 -1.3756  0.4525  0.4609
33634TIP3   OH2 1783   0.235   5.462   7.092 -0.0384 -0.4588  0.4131
33634TIP3    H1 1784   0.211   5.473   7.184  1.2871 -0.2203  0.7558
33634TIP3    H2 1785   0.316   5.411   7.095  1.2929  1.4917 -0.4698
33635TIP3   OH2 1786   5.584  10.388   0.280  0.1080 -0.2951  0.2410
33635TIP3    H1 1787   5.510  10.346   0.325 -0.4132  0.5287  0.1812
33635TIP3    H2 1788   5.646  10.317   0.265  0.4330 -0.5806  2.4904
33636TIP3   OH2 1789   3.527  10.339   4.753  0.2412  0.5369 -0.1441
33636TIP3    H1 1790   3.580  10.305   4.825 -1.7279  0.2528  1.2651
33636TIP3    H2 1791   3.502  10.261   4.703  0.0508  0.5090 -0.0072
33637TIP3   OH2 1792   0.964   0.176   3.788 -0.4710 -0.2899 -0.2870
33637TIP3    H1 1793   0.993   0.102   3.842  1.5833  0.9408  0.4115
33637TIP3    H2 1794   0.947   0.246   3.851 -2.5186 -0.1413 -0.9315
33638TIP3   OH2 1795   0.127   8.051   8.909  0.0588  0.3243  0.0547
33638TIP3    H1 1796   0.093   8.028   8.995 -1.1601  1.6918 -0.0327
33638TIP3    H2 1797   0.133   7.967   8.863  0.1335 -0.3467  1.2459
33639TIP3   OH2 1798   8.366   6.085   6.495  0.8742 -0.4503  0.4771
33639TIP3    H1 1799   8.323   6.014   6.448  1.5052 -0.5118 -0.0132
33639TIP3    H2 1800   8.319   6.090   6.579 -0.8652  0.2615 -0.4885
33640TIP3   OH2 1801   1.928   9.677   0.814 -0.2132  0.2332  0.1454
33640TIP3    H1 1802   1.908   9.588   0.786  1.9429 -0.2319 -0.0948
33640TIP3    H2 1803   1.989   9.710   0.748 -1.0251  1.9466  0.1907
33641TIP3   OH2 1804   7.997   6.814   7.812 -0.1784 -0.4951 -0.2716
33641TIP3    H1 1805   8.003   6.897   7.765  0.4727 -1.2737 -1.5867
33641TIP3    H2 1806   7.911   6.779   7.789 -1.1055  0.4685  1.4694
33642TIP3   OH2 1807   4.426   8.771   2.535  0.1980 -0.4520  0.0672
33642TIP3    H1 1808   4.335   8.752   2.554 -0.5807  2.2887 -0.4603
33642TIP3    H2 1809   4.450   8.709   2.465 -2.1933  0.6037 -1.8226
33643TIP3   OH2 1810   9.910   9.308   3.703  0.2396 -0.2400 -0.4548
33643TIP3    H1 1811   9.982   9.342   3.755  0.0370  0.8555 -0.8569
33643TIP3    H2 1812   9.833   9.355   3.735  0.2257  1.0487 -2.2103
33644TIP3   OH2 1813   7.797   0.030   0.871 -0.7242  0.5346  0.1902
33644TIP3    H1 1814   7.770   0.120   0.887 -2.3668  0.2352 -0.7152
33644TIP3    H2 1815   7.864   0.037   0.804  0.4435  1.1832  1.3740
33645TIP3   OH2 1816   7.665  10.892   5.468  0.0478 -0.4445  0.0883
33645TIP3    H1 1817   7.581  10.938   5.456  0.9257  1.7088  1.6807
33645TIP3    H2 1818   7.678  10.890   5.562  1.8679 -0.5571 -0.1326
33646TIP3   OH2 1819   5.547   2.055   6.648  0.3074 -0.4240 -0.2211
33646TIP3    H1 1820   5.604   2.104   6.589 -0.1853 -2.2142 -2.3169
33646TIP3    H2 1821   5.530   2.115   6.720  3.3699  0.8188 -0.3571
33647TIP3   OH2 1822   7.237   8.450   1.291  0.1773  0.3443  0.2874
33647TIP3    H1 1823   7.332   8.453   1.306 -0.1191 -0.5487  2.7826
33647TIP3    H2 1824   7.224   8.371   1.238  0.8731  0.8229 -0.6167
33648TIP3   OH2 1825   3.954   3.354  10.798  0.1971  0.5020  0.2100
33648TIP3    H1 1826   3.900   3.291  10.750  1.7330 -0.2770 -0.5609
33648TIP3    H2 1827   3.936   3.334  10.890 -1.7558  1.1126  0.0110
33649TIP3   OH2 1828   2.254   0.965   1.095 -0.1404  0.0952 -0.4250
33649TIP3    H1 1829   2.171   0.989   1.137 -0.0646  0.8795 -0.7187
33649TIP3    H2 1830   2.312   0.943   1.168 -0.1619  0.9582 -0.1365
33650TIP3   OH2 1831   0.515   9.213   4.529 -0.1160  0.0704  0.4084
33650TIP3    H1 1832   0.586   9.232   4.591  0.2072  0.0118  0.0618
33650TIP3    H2 1833   0.485   9.298   4.500  0.0162  0.0889  0.3262
33651TIP3   OH2 1834   5.287   0.475  10.209 -0.1202 -0.0078 -0.1590
33651TIP3    H1 1835   5.200   0.470  10.169  0.2844  0.9893 -1.2093
33651TIP3    H2 1836   5.347   0.479  10.135  0.7666  0.2660  0.5604
33652TIP3   OH2 1837   2.956   1.870   4.309 -0.4321 -0.0363 -0.0068
33652TIP3    H1 1838   2.908   1.926   4.249 -0.6737  1.5517  1.5807
33652TIP3    H2 1839   2.910   1.786   4.305 -0.8200  0.2161 -1.5228
33653TIP3   OH2 1840   0.041   9.896   5.394 -0.1923  0.0938 -0.0488
33653TIP3    H1 1841   0.109   9.929   5.335 -1.5467 -1.1893 -2.4860
33653TIP3    H2 1842  -0.015   9.972   5.410 -0.5440  0.1758 -1.5467
33654TIP3   OH2 1843   8.360   8.208   3.932 -0.2498 -0.5007  0.5183
33654TIP3    H1 1844   8.441   8.157   3.924 -0.2818 -0.7535  1.6134
33654TIP3    H2 1845   8.387   8.298   3.914  0.1486 -0.6637  0.2691
33655TIP3   OH2 1846   8.892   0.942  10.065  0.1837 -0.1246  0.0705
33655TIP3    H1 1847   8.855   0.906  10.145 -1.5032  2.6668  0.6644
33655TIP3    H2 1848   8.820   0.989  10.024  1.4500 -0.0513 -2.2548
33656TIP3   OH2 1849  10.874  10.837   9.748 -0.0067  0.0658  0.1637
33656TIP3    H1 1850  10.821  10.916   9.744  1.9387  1.4655  0.7273
33656TIP3    H2 1851  10.925  10.838   9.668  0.2177 -0.4915  0.2924
33657TIP3   OH2 1852   1.232   6.208   6.046  0.0572  0.2151  0.1897
33657TIP3    H1 1853   1.146   6.184   6.081  0.1773 -0.2902  0.1373
33657TIP3    H2 1854   1.291   6.140   6.078  0.0789 -0.5555 -1.3901
33658TIP3   OH2 1855   3.036   5.648   3.392 -0.4548  0.0990  0.2300
33658TIP3    H1 1856   3.119   5.603   3.382  0.7429  1.9255  1.2391
33658TIP3    H2 1857   2.994   5.642   3.306  0.4228 -1.3657 -0.1244
33659TIP3   OH2 1858   9.623   0.438   3.859 -0.1768 -0.0460 -0.3995
33659TIP3    H1 1859   9.531   0.424   3.837 -0.0114 -0.5970 -0.7407
33659TIP3    H2 1860   9.658   0.351   3.874 -0.0787  0.2367  1.2781
33660TIP3   OH2 1861   4.316   6.384   1.914  0.2722  0.4092 -0.6729
33660TIP3    H1 1862   4.341   6.293   1.927 -1.0405  0.1343  0.1006
33660TIP3    H2 1863   4.295   6.416   2.002 -0.7111  1.0103 -1.1058
33661TIP3   OH2 1864   1.606   4.531   1.624  0.3827 -0.3194 -0.7629
33661TIP3    H1 1865   1.650   4.574   1.698  2.3902  0.2111 -2.1720
33661TIP3    H2 1866   1.536   4.480   1.664 -0.7258  2.4632  1.2428
33662TIP3   OH2 1867   4.563   0.010   8.656 -0.6451  0.2522  0.0732
33662TIP3    H1 1868   4.613   0.085   8.623 -0.7431  0.6928  0.8992
33662TIP3    H2 1869   4.629  -0.057   8.674 -0.1317  1.2685  2.3713
33663TIP3   OH2 1870   9.254  10.248   6.478  0.0458  0.1847  0.2854
33663TIP3    H1 1871   9.296  10.334   6.477  0.6250 -0.0515 -2.4329
33663TIP3    H2 1872   9.323  10.187   6.450 -0.9230 -0.8589  0.1030
33664TIP3   OH2 1873   9.301   5.682   4.836 -0.5659 -0.4057 -0.2541
33664TIP3    H1 1874   9.333   5.598   4.804  0.8393 -0.3232  0.8541
33664TIP3    H2 1875   9.266   5.664   4.923 -2.2333 -0.2045 -0.8405
33665TIP3   OH2 1876   0.486   8.116   1.597 -0.2304  0.3640 -0.3243
33665TIP3    H1 1877   0.467   8.071   1.515  0.2861 -1.0510  0.3139
33665TIP3    H2 1878   0.565   8.075   1.630  0.7709  2.3357 -0.1173
33666TIP3   OH2 1879   6.959   4.420   2.102  0.3374  0.1165 -0.1624
33666TIP3    H1 1880   6.920   4.492   2.151  0.3179  0.8297 -1.1907
33666TIP3    H2 1881   7.038   4.458   2.063  0.7896 -0.6591 -0.0281
33667TIP3   OH2 1882   9.059   4.462   2.392 -0.5852  0.1394 -0.1082
33667TIP3    H1 1883   9.006   4.489   2.317 -0.0067 -1.6678 -1.2135
33667TIP3    H2 1884   8.995   4.450   2.463 -1.0797  2.3429 -0.0997
33668TIP3   OH2 1885   6.871   2.777  10.740  0.3489  0.7321 -0.2288
33668TIP3    H1 1886   6.815   2.826  10.680  2.1595  0.5671 -2.1514
33668TIP3    H2 1887   6.932   2.731  10.684  0.1495 -2.0247  1.6105
33669TIP3   OH2 1888   1.079   5.960   0.909 -0.6729  0.0339  0.7020
33669TIP3    H1 1889   1.159   5.954   0.962 -1.0395  0.2046  1.2881
33669TIP3    H2 1890   1.103   6.016   0.836 -1.0296  2.4762  2.3510
33670TIP3   OH2 1891   5.084   9.119   1.996  0.2868 -0.1627 -0.0699
33670TIP3    H1 1892   5.035   9.187   1.950 -0.5970  0.2453  1.4070
33670TIP3    H2 1893   5.117   9.062   1.926 -0.9186  0.4704 -1.2009
33671TIP3   OH2 1894   8.273   3.732   1.131 -0.1683 -0.4210  0.2047
33671TIP3    H1 1895   8.224   3.753   1.210  1.0271 -2.5339  1.6248
33671TIP3    H2 1896   8.362   3.763   1.149 -0.1714  0.3141 -0.9236
33672TIP3   OH2 1897   1.517   4.771   3.287  0.6937  0.6161  0.1697
33672TIP3    H1 1898   1.484   4.831   3.354 -0.4775  1.6428 -1.2598
33672TIP3    H2 1899   1.572   4.825   3.230 -0.5271  0.4395 -1.2534
33673TIP3   OH2 1900   4.146   6.904   0.991 -0.1096  0.2063  0.4104
33673TIP3    H1 1901   4.174   6.847   1.063 -2.0796 -1.2044  0.1266
33673TIP3    H2 1902   4.055   6.926   1.011  0.2082  2.2263 -0.1777
33674TIP3   OH2 1903   0.928  10.536   9.162  0.4328  0.0240 -0.6418
33674TIP3    H1 1904   0.998  10.600   9.149 -0.4920  1.9123  2.6096
33674TIP3    H2 1905   0.858  10.585   9.205 -1.1056 -2.7807  0.3270
33675TIP3   OH2 1906   1.355   4.054   5.493  0.0454  0.3094  0.3196
33675TIP3    H1 1907   1.384   4.082   5.406 -0.1718  0.5048  0.3109
33675TIP3    H2 1908   1.292   4.120   5.520  0.4842  0.5185  0.8427
33676TIP3   OH2 1909   4.971   2.998   2.801  0.6719 -0.1175  0.0169
33676TIP3    H1 1910   4.986   3.084   2.842 -1.4950  0.4147 -0.1947
33676TIP3    H2 1911   4.881   2.976   2.824 -0.5088 -0.0935 -3.8842
33677TIP3   OH2 1912   0.289   7.222   7.760 -0.2632 -0.3538 -0.7465
33677TIP3    H1 1913   0.360   7.285   7.771 -0.3010 -0.4179 -0.0692
33677TIP3    H2 1914   0.216   7.259   7.811  0.0708 -1.4713  0.6037
33678TIP3   OH2 1915   5.250   7.454   2.677 -0.4055 -0.0794  0.2151
33678TIP3    H1 1916   5.247   7.546   2.704  0.8520  0.4412 -1.2503
33678TIP3    H2 1917   5.311   7.453   2.602 -0.5873 -2.0644  0.0401
33679TIP3   OH2 1918  10.398   7.694  10.040 -0.2834  0.4293 -0.7159
33679TIP3    H1 1919  10.455   7.746  10.096  0.2064 -0.8016 -0.0542
33679TIP3    H2 1920  10.387   7.611  10.086 -0.7286 -0.2175 -1.9440
33680TIP3   OH2 1921   8.082   7.019  10.087  0.0300 -0.0251  0.2062
33680TIP3    H1 1922   8.049   6.974  10.165 -0.1819 -0.1653  0.0364
33680TIP3    H2 1923   8.139   6.955  10.045  0.5188  0.2175  0.4970
33681TIP3   OH2 1924   2.279   4.918  10.772  0.0378  0.0255 -0.5436
33681TIP3    H1 1925   2.196   4.940  10.730  0.3731  0.5153 -0.9601
33681TIP3    H2 1926   2.308   4.838  10.729  0.1738  0.2958 -0.9543
33682TIP3   OH2 1927   0.763   6.455   3.687  0.0578  0.3720 -0.0666
33682TIP3    H1 1928   0.673   6.446   3.719 -0.8706  0.8302 -2.3483
33682TIP3    H2 1929   0.760   6.528   3.626  1.6958 -0.4299 -1.1903
33683TIP3   OH2 1930   3.449   3.077   9.131  0.0130 -0.0045  0.4620
33683TIP3    H1 1931   3.410   2.990   9.136 -0.4778  0.2110  0.4730
33683TIP3    H2 1932   3.377   3.134   9.105  0.4456  0.3231 -0.0330
33684TIP3   OH2 1933   0.483   1.285   3.737 -0.2373 -0.2935 -0.3660
33684TIP3    H1 1934   0.566   1.314   3.775  0.6216 -1.2525 -1.4548
33684TIP3    H2 1935   0.425   1.274   3.812  1.5285 -2.5926  0.7726
33685TIP3   OH2 1936   1.710   3.792   5.077 -0.3537  0.6614  0.2125
33685TIP3    H1 1937   1.664   3.711   5.099  1.2706 -0.5052 -0.4950
33685TIP3    H2 1938   1.798   3.781   5.114  0.5251  1.2186 -1.5781
33686TIP3   OH2 1939   9.526  10.892   5.645  0.5168  0.1621 -0.2371
33686TIP3    H1 1940   9.560  10.851   5.566 -0.3946 -2.0667  0.4585
33686TIP3    H2 1941   9.560  10.839   5.717 -0.2435  0.9819  0.7697
33687TIP3   OH2 1942   8.756   0.509   0.381  0.2595  0.0121 -0.1351
33687TIP3    H1 1943   8.723   0.497   0.292 -0.9409  0.6085  0.2175
33687TIP3    H2 1944   8.813   0.586   0.376 -0.8212  0.8355 -0.1512
33688TIP3   OH2 1945   0.777   9.741   7.827  0.3075  0.4735  0.1176
33688TIP3    H1 1946   0.802   9.736   7.735  0.9628  0.9463  0.2633
33688TIP3    H2 1947   0.731   9.825   7.835  0.0227  0.3154  0.1728
33689TIP3   OH2 1948   6.798   7.684   9.455 -0.0943  0.2964  0.3309
33689TIP3    H1 1949   6.838   7.763   9.491  0.4844 -0.5875  1.7264
33689TIP3    H2 1950   6.849   7.664   9.377  2.8900 -1.2198  2.4334
33690TIP3   OH2 1951   9.349   6.556   8.246 -0.6968 -0.2173  0.0883
33690TIP3    H1 1952   9.350   6.516   8.333  0.2308  0.9930  0.6654
33690TIP3    H2 1953   9.272   6.613   8.247 -1.1421 -0.8040 -0.1820
33691TIP3   OH2 1954   2.134   8.272   9.403 -0.3669  0.0786  0.4259
33691TIP3    H1 1955   2.121   8.228   9.319 -2.9926 -1.4931  1.5302
33691TIP3    H2 1956   2.087   8.217   9.466 -3.6656  4.1912  1.9910
33692TIP3   OH2 1957   9.402   5.754   9.524 -0.5681  0.0356  0.0430
33692TIP3    H1 1958   9.364   5.816   9.462 -1.6044 -0.3068  0.2987
33692TIP3    H2 1959   9.480   5.797   9.557 -1.4866  1.4017  0.5127
33693TIP3   OH2 1960   7.274   7.188   7.219  0.1017  0.7052 -0.5683
33693TIP3    H1 1961   7.299   7.255   7.283  2.2939 -1.4686  1.0359
33693TIP3    H2 1962   7.355   7.139   7.202 -1.7684 -3.0151  0.2157
33694TIP3   OH2 1963   3.636   4.284   8.614  0.5263  0.8506  0.5058
33694TIP3    H1 1964   3.722   4.295   8.573  0.2706 -1.2163 -0.7500
33694TIP3    H2 1965   3.584   4.356   8.579  1.6759  2.0799  1.2105
33695TIP3   OH2 1966   0.782   1.781   0.259 -0.4623 -0.0960 -0.0733
33695TIP3    H1 1967   0.694   1.752   0.280 -0.1074 -2.1205 -1.1561
33695TIP3    H2 1968   0.771   1.872   0.230 -1.8354  0.4608  1.9355
33696TIP3   OH2 1969   8.010  10.466   0.399 -0.6312 -0.0966  0.0747
33696TIP3    H1 1970   8.100  10.499   0.404 -0.3216 -0.8003 -0.6703
33696TIP3    H2 1971   7.958  10.534   0.442  0.2176  0.4527  0.2745
33697TIP3   OH2 1972  10.608   9.304   4.596  0.0186  0.4523 -0.8095
33697TIP3    H1 1973  10.607   9.360   4.673  0.8119  0.5187 -0.8385
33697TIP3    H2 1974  10.618   9.364   4.522  1.3379  0.2776 -0.8120
33698TIP3   OH2 1975   6.410   2.782   8.975 -0.3577 -0.1594  0.3856
33698TIP3    H1 1976   6.395   2.753   9.065 -0.1453 -0.8023  0.2197
33698TIP3    H2 1977   6.506   2.786   8.967 -0.3857  0.9182  0.5020
33699TIP3   OH2 1978  10.321   5.112   8.123 -0.0992  0.1555  0.1408
33699TIP3    H1 1979  10.352   5.164   8.198 -0.2978  0.9161 -0.2976
33699TIP3    H2 1980  10.245   5.064   8.157 -1.1521  1.6834  0.0272
33700TIP3   OH2 1981   7.109   2.666   5.418  0.3716  0.1173  0.1249
33700TIP3    H1 1982   7.054   2.742   5.403 -0.4282 -0.6077 -0.7777
33700TIP3    H2 1983   7.196   2.702   5.438  0.0931  1.2491 -0.6175
33701TIP3   OH2 1984   5.787   7.968   5.353  0.0020 -0.2465 -0.2134
33701TIP3    H1 1985   5.699   7.968   5.392 -0.7166 -2.4963 -1.6007
33701TIP3    H2 1986   5.842   8.012   5.418 -1.9400  0.2960  1.1802
33702TIP3   OH2 1987   8.568  10.839   6.980 -0.4193  0.2435  0.5586
33702TIP3    H1 1988   8.500  10.792   6.931  1.7410 -2.2146 -0.3505
33702TIP3    H2 1989   8.529  10.924   7.000 -2.0806  0.9152 -4.1431
33703TIP3   OH2 1990   6.055   1.621   0.391 -0.0082 -0.3551  0.3515
33703TIP3    H1 1991   5.998   1.697   0.405  0.5149  0.2578 -0.7559
33703TIP3    H2 1992   6.061   1.580   0.477 -0.2034  0.9184  0.9985
33704TIP3   OH2 1993   8.747   1.984   8.994 -0.4526 -0.2262  0.1070
33704TIP3    H1 1994   8.711   2.073   8.998  0.2446  0.0208  1.6994
33704TIP3    H2 1995   8.675   1.928   9.023 -0.3616  0.0055  0.7983
33705TIP3   OH2 1996   8.729   5.308   2.517 -0.3117  0.0478  0.3251
33705TIP3    H1 1997   8.781   5.343   2.589  1.6426 -0.3325 -0.8560
33705TIP3    H2 1998   8.726   5.214   2.533  1.8673 -0.3238 -1.1012
33706TIP3   OH2 1999   8.978   0.567   3.673 -0.0502 -0.3293 -0.3988
33706TIP3    H1 2000   8.912   0.630   3.642  0.8363  0.1320 -1.4170
33706TIP3    H2 2001   8.928   0.503   3.723 -1.3202 -0.1203 -1.3315
33707TIP3   OH2 2002   9.211   4.079   1.799 -0.1529  0.8111  0.5571
33707TIP3    H1 2003   9.119   4.091   1.773 -0.2968 -0.6271  0.3646
33707TIP3    H2 2004   9.209   4.009   1.863  1.0271 -0.7571 -1.0386
33708TIP3   OH2 2005   3.575   3.947   0.953 -0.2784  0.6860  0.1402
33708TIP3    H1 2006   3.504   3.983   0.899 -0.0133 -1.3418 -1.6956
33708TIP3    H2 2007   3.653   3.958   0.899 -0.1237 -2.1038 -0.3231
33709TIP3   OH2 2008   5.613  10.347   5.868  0.2199  0.4798  0.0382
33709TIP3    H1 2009   5.602  10.425   5.813  2.6213  0.2488 -0.9067
33709TIP3    H2 2010   5.609  10.274   5.806 -1.8401 -0.1992  0.8964
33710TIP3   OH2 2011   2.228   6.554   5.036 -0.5727 -0.0312 -0.8607
33710TIP3    H1 2012   2.162   6.488   5.055  0.1043 -0.6230 -0.5030
33710TIP3    H2 2013   2.204   6.589   4.950 -1.5985  0.0882 -0.5291
33711TIP3   OH2 2014   8.899   3.466   8.924 -0.4810  0.2245  0.1550
33711TIP3    H1 2015   8.859   3.489   8.840 -0.1412  0.9295  0.1800
33711TIP3    H2 2016   8.908   3.371   8.921 -3.2300 -0.1194  0.6467
33712TIP3   OH2 2017   4.593   7.184   4.080  0.5344 -0.3964 -0.0303
33712TIP3    H1 2018   4.562   7.272   4.100 -0.0593 -0.2190 -1.5922
33712TIP3    H2 2019   4.677   7.177   4.126  0.2916  0.7413  0.6229
33713TIP3   OH2 2020   9.125   6.499   7.037  0.4818  0.2039  0.1673
33713TIP3    H1 2021   9.084   6.510   6.951  0.7017  0.5232  0.0998
33713TIP3    H2 2022   9.191   6.569   7.041  1.2042 -0.4604  0.1612
33714TIP3   OH2 2023   8.978   8.436   1.064 -0.3431 -0.0802  0.3360
33714TIP3    H1 2024   9.044   8.497   1.099 -1.3003  0.6252  0.9695
33714TIP3    H2 2025   8.908   8.493   1.032 -0.2270 -0.7862 -1.2542
33715TIP3   OH2 2026   7.064   8.555   6.692  0.0727  0.0590  0.3100
33715TIP3    H1 2027   6.999   8.510   6.746  1.1144 -1.0771  0.6435
33715TIP3    H2 2028   7.105   8.617   6.752  0.1230 -0.0690  0.4085
33716TIP3   OH2 2029   1.544   7.901  10.787 -0.3351  0.4613 -0.1139
33716TIP3    H1 2030   1.507   7.948  10.862  1.5762  1.7145  0.1187
33716TIP3    H2 2031   1.622   7.857  10.822 -1.8619 -2.7693 -0.3927
33717TIP3   OH2 2032   7.298  10.859   2.977  0.3993  0.0102 -0.1175
33717TIP3    H1 2033   7.219  10.871   2.924  1.9443 -0.4618 -2.7310
33717TIP3    H2 2034   7.267  10.818   3.058 -2.3038  2.1772  0.0935
33718TIP3   OH2 2035   4.392   1.689   5.866  0.1411 -0.0049  0.0511
33718TIP3    H1 2036   4.447   1.730   5.800 -0.6098 -0.3936 -0.8457
33718TIP3    H2 2037   4.329   1.637   5.816 -0.3044 -0.4962  1.0826
33719TIP3   OH2 2038   9.449   0.189   3.617 -0.5964 -0.3664  0.1698
33719TIP3    H1 2039   9.446   0.128   3.690  0.2205 -2.3206 -1.3311
33719TIP3    H2 2040   9.366   0.176   3.572 -0.5533 -0.1336  0.0224
33720TIP3   OH2 2041   7.629   7.065   4.983 -0.5621 -0.1816 -0.2451
33720TIP3    H1 2042   7.689   7.008   5.032 -0.0828 -1.6624 -2.4502
33720TIP3    H2 2043   7.587   7.119   5.051  0.5048 -1.6951  1.7166
33721TIP3   OH2 2044   3.921   6.029   7.643 -0.5182 -0.0799 -0.1716
33721TIP3    H1 2045   3.969   6.109   7.625  0.2228 -0.6090 -0.6127
33721TIP3    H2 2046   3.946   6.004   7.732  1.8745 -1.5639 -1.1569
33722TIP3   OH2 2047   4.353   7.674   7.969 -0.0815  0.2130  0.3113
33722TIP3    H1 2048   4.373   7.733   8.041 -0.9950 -0.2244  0.9451
33722TIP3    H2 2049   4.405   7.596   7.987 -1.2213 -0.3770  1.1957
33723TIP3   OH2 2050   7.508   6.200   9.267 -0.8501 -0.4364 -0.3969
33723TIP3    H1 2051   7.552   6.257   9.330 -1.4472  1.1272 -1.3290
33723TIP3    H2 2052   7.578   6.169   9.209 -0.5002 -0.7765  0.1973
33724TIP3   OH2 2053   3.403   9.034   6.604 -0.6414  0.0700 -0.1287
33724TIP3    H1 2054   3.468   8.986   6.654 -0.4997  0.1960 -0.1902
33724TIP3    H2 2055   3.346   8.967   6.568  0.5517 -0.1988 -1.6386
33725TIP3   OH2 2056   4.757   9.164   2.808  0.4473 -0.0284 -0.5739
33725TIP3    H1 2057   4.681   9.117   2.773  0.1497 -1.7236  2.1110
33725TIP3    H2 2058   4.735   9.183   2.899  1.3905  3.7211 -0.9501
33726TIP3   OH2 2059   8.188   8.591   4.607 -0.3763  0.0694  0.5197
33726TIP3    H1 2060   8.118   8.591   4.673 -1.1887 -1.8088 -0.2679
33726TIP3    H2 2061   8.216   8.499   4.602 -0.4446  0.1328 -1.8408
33727TIP3   OH2 2062   1.126   5.590   7.361 -0.3585 -0.1076 -0.2645
33727TIP3    H1 2063   1.144   5.663   7.420  1.4095 -1.6145  1.2163
33727TIP3    H2 2064   1.101   5.518   7.420  0.2150 -1.3261 -1.4618
33728TIP3   OH2 2065   7.747   8.535   9.771  0.0095 -0.0744 -0.4619
33728TIP3    H1 2066   7.770   8.623   9.799 -1.0712  0.4002 -0.9737
33728TIP3    H2 2067   7.652   8.537   9.760 -0.0509 -1.3289 -0.4132
33729TIP3   OH2 2068   6.539  10.375   0.546 -0.0847 -0.5321  0.4919
33729TIP3    H1 2069   6.616  10.318   0.544 -1.5641 -2.6788 -2.0235
33729TIP3    H2 2070   6.556  10.440   0.478 -0.9191 -1.7703 -0.9663
33730TIP3   OH2 2071   5.741   4.576   2.340  0.2991  0.1978 -0.1975
33730TIP3    H1 2072   5.795   4.534   2.407  0.1096 -0.0118 -0.1746
33730TIP3    H2 2073   5.751   4.521   2.263 -0.1550 -0.0360 -0.0911
33731TIP3   OH2 2074   3.685   4.990  10.112  0.0989  0.2452  0.3314
33731TIP3    H1 2075   3.772   4.963  10.142  0.5907  0.7181 -0.6384
33731TIP3    H2 2076   3.652   4.914  10.063  1.1612  1.0373 -1.7272
33732TIP3   OH2 2077   7.795  10.335   3.223  0.3787 -0.2858 -0.0337
33732TIP3    H1 2078   7.846  10.390   3.282  0.9567  0.2701 -1.0266
33732TIP3    H2 2079   7.803  10.377   3.138 -1.2140 -0.5447 -0.3532
33733TIP3   OH2 2080   4.123   8.342   7.698  0.0580 -0.2142  0.0507
33733TIP3    H1 2081   4.112   8.332   7.793  1.0280 -1.6896  0.0327
33733TIP3    H2 2082   4.145   8.435   7.687 -0.1267 -0.0084  1.2657
33734TIP3   OH2 2083   4.027   5.360   3.268  0.2638  0.2299 -0.3285
33734TIP3    H1 2084   4.037   5.265   3.277  0.8141  0.3627  0.5613
33734TIP3    H2 2085   4.033   5.393   3.358  0.1201  1.1107 -0.6392
33735TIP3   OH2 2086   6.408   4.028   7.131  0.0943  0.5553 -0.1023
33735TIP3    H1 2087   6.475   3.969   7.097 -0.9942 -0.5104 -0.4683
33735TIP3    H2 2088   6.412   4.104   7.074 -0.5301 -0.4732 -1.5981
33736TIP3   OH2 2089  10.025   3.072   8.752  0.1651  0.4895 -0.3132
33736TIP3    H1 2090   9.988   3.067   8.840  0.4357 -0.1547 -0.2295
33736TIP3    H2 2091  10.049   2.982   8.731  0.0457  0.6342 -1.0743
33737TIP3   OH2 2092   6.848   9.087   1.791  0.3305 -0.3655  0.5608
33737TIP3    H1 2093   6.887   9.003   1.815  0.3104  0.0389  2.1708
33737TIP3    H2 2094   6.797   9.112   1.868  0.2224  1.0482  0.0619
33738TIP3   OH2 2095   5.842   7.473   2.910  0.2772  0.1244 -0.0671
33738TIP3    H1 2096   5.769   7.534   2.916 -1.1981 -1.5101 -0.5886
33738TIP3    H2 2097   5.846   7.448   2.818 -0.3964 -1.9285  0.3898
33739TIP3   OH2 2098   2.506   3.471   8.986 -0.2140 -0.6520 -0.3114
33739TIP3    H1 2099   2.553   3.514   9.058  0.5677 -2.8915  0.6061
33739TIP3    H2 2100   2.415   3.498   8.998  0.3711  1.6091 -0.4837
33740TIP3   OH2 2101   3.087   3.473   9.030 -0.7644  0.7525 -0.7025
33740TIP3    H1 2102   3.026   3.401   9.017 -0.4102  0.3206  0.0130
33740TIP3    H2 2103   3.041   3.533   9.089 -1.2724  1.3938 -1.7069
33741TIP3   OH2 2104   7.728   7.603   2.482 -0.0053  0.0552  0.0411
33741TIP3    H1 2105   7.763   7.691   2.491 -0.1662 -0.0274  1.8447
33741TIP3    H2 2106   7.801   7.551   2.450  0.0772  0.8401 -1.0648
33742TIP3   OH2 2107   2.068  10.804   9.631 -0.0268  0.2475 -0.0921
33742TIP3    H1 2108   2.037  10.720   9.663 -2.1333  0.9324 -0.1842
33742TIP3    H2 2109   2.051  10.865   9.703  1.4235  0.6487 -0.0431
33743TIP3   OH2 2110   3.861   0.070   8.945  0.3555  0.5019  0.4852
33743TIP3    H1 2111   3.846   0.060   9.039  0.1977  1.1176  0.5355
33743TIP3    H2 2112   3.780   0.110   8.912  0.0368 -0.5868 -0.0831
33744TIP3   OH2 2113   7.989   6.186   4.210 -0.4381 -0.3475 -0.5169
33744TIP3    H1 2114   7.941   6.108   4.238 -0.1354 -0.6634 -0.8720
33744TIP3    H2 2115   8.080   6.169   4.237 -0.4139 -0.0077 -0.3719
33745TIP3   OH2 2116  10.443   8.367   6.643  0.3424  0.6322 -0.2108
33745TIP3    H1 2117  10.355   8.393   6.673 -0.5580  1.9465 -3.5208
33745TIP3    H2 2118  10.442   8.384   6.549  3.0688 -2.5221 -1.0127
33746TIP3   OH2 2119   9.931   4.881   7.336  0.1580  0.2182 -0.3209
33746TIP3    H1 2120   9.929   4.972   7.305  0.0511  0.4428  0.3174
33746TIP3    H2 2121   9.886   4.831   7.268 -0.5692  0.7764 -0.2617
33747TIP3   OH2 2122   6.382   3.925   4.931 -0.2785 -0.3713  0.2831
33747TIP3    H1 2123   6.368   4.009   4.888  1.4794 -0.3978 -0.4260
33747TIP3    H2 2124   6.313   3.920   4.997 -0.1657  1.8098  0.6327
33748TIP3   OH2 2125   0.962   6.368   7.067 -0.2255 -0.1422  0.3476
33748TIP3    H1 2126   1.024   6.305   7.105 -1.4063 -0.1932  2.3059
33748TIP3    H2 2127   0.944   6.430   7.137 -0.9342  0.9983 -0.8035
33749TIP3   OH2 2128   9.872   1.254   5.269 -0.5658  0.0183  0.7315
33749TIP3    H1 2129   9.921   1.179   5.302  1.3690  0.9919  0.2138
33749TIP3    H2 2130   9.801   1.215   5.217 -1.2075 -1.4512  2.6013
33750TIP3   OH2 2131   1.067   5.862   3.263 -0.1286 -0.5785  0.3689
33750TIP3    H1 2132   1.066   5.791   3.198  1.1176 -1.9954  1.8090
33750TIP3    H2 2133   1.001   5.836   3.327  0.7853 -0.8218  1.2410
33751TIP3   OH2 2134  10.809   2.042   2.255 -0.6460 -0.3097 -0.1529
33751TIP3    H1 2135  10.767   2.067   2.172  0.0295 -0.0506 -0.4189
33751TIP3    H2 2136  10.851   1.959   2.236  0.7448  0.4497 -0.4980
33752TIP3   OH2 2137   8.880   1.806   3.947  0.2779 -0.1233 -0.1450
33752TIP3    H1 2138   8.952   1.828   4.006  0.1321 -0.7825  0.2900
33752TIP3    H2 2139   8.922   1.768   3.870  0.3999 -0.7761  0.2284
33753TIP3   OH2 2140   2.140   6.803   1.271 -0.6468 -0.5416 -0.4092
33753TIP3    H1 2141   2.120   6.722   1.317  0.7831 -0.0217  1.1933
33753TIP3    H2 2142   2.230   6.824   1.295 -1.5362  2.5245  0.8204
33754TIP3   OH2 2143   0.230   3.874   9.577  0.2164  0.3468 -0.2134
33754TIP3    H1 2144   0.286   3.798   9.562  2.1983  1.3903  1.3662
33754TIP3    H2 2145   0.162   3.867   9.510  1.3577 -1.8187 -1.2673
33755TIP3   OH2 2146   3.570   5.916   5.016 -0.0201 -0.1052  0.4329
33755TIP3    H1 2147   3.540   5.983   4.955  1.6811 -1.3642 -1.9664
33755TIP3    H2 2148   3.574   5.960   5.101 -0.5499  2.3258 -0.7315
33756TIP3   OH2 2149   6.130  10.897   0.415 -0.8514  0.3973 -0.3784
33756TIP3    H1 2150   6.064  10.829   0.405  0.4120 -1.0733  0.8831
33756TIP3    H2 2151   6.090  10.960   0.475 -0.4754 -1.4258  1.9178
33757TIP3   OH2 2152   1.484  10.125   7.454 -0.0064  0.2704 -0.1985
33757TIP3    H1 2153   1.470  10.214   7.422  0.4820  0.1874 -0.6750
33757TIP3    H2 2154   1.402  10.079   7.434 -0.8292  0.9708  1.4099
33758TIP3   OH2 2155   6.723  10.836  10.447  0.2324  0.7102 -0.9955
33758TIP3    H1 2156   6.708  10.796  10.362  0.9878  3.0585 -2.3209
33758TIP3    H2 2157   6.776  10.773  10.495 -0.8369 -0.9788 -1.9607
33759TIP3   OH2 2158   1.659   6.077   8.905 -0.3967 -0.2866  0.3114
33759TIP3    H1 2159   1.601   6.122   8.844 -2.1440 -0.7959  1.4994
33759TIP3    H2 2160   1.726   6.037   8.850 -0.4484  1.3339 -1.0178
33760TIP3   OH2 2161   7.267   9.038   0.455  0.5713  0.0391  0.1044
33760TIP3    H1 2162   7.217   8.958   0.472 -1.0294  0.9495 -0.0906
33760TIP3    H2 2163   7.290   9.071   0.541 -0.7041  0.5145  0.2850
33761TIP3   OH2 2164   7.058   3.415   2.885 -0.0300 -0.2770 -0.6555
33761TIP3    H1 2165   7.135   3.379   2.840 -0.4911 -0.5875 -1.1967
33761TIP3    H2 2166   7.055   3.368   2.968  0.2276 -0.4342 -0.7351
33762TIP3   OH2 2167   5.696   3.542   2.266  0.4789  0.4122 -0.3993
33762TIP3    H1 2168   5.686   3.541   2.170  0.8541  0.4882 -0.4409
33762TIP3    H2 2169   5.611   3.514   2.299  0.0861  1.1520 -0.7434
33763TIP3   OH2 2170  10.483   3.873   8.260 -0.2564  0.5852 -0.2016
33763TIP3    H1 2171  10.407   3.930   8.274 -2.3854 -1.6259 -1.9282
33763TIP3    H2 2172  10.550   3.931   8.224 -0.2664  3.0286  3.2279
33764TIP3   OH2 2173   4.515   8.912   9.610 -0.1785 -0.9051 -0.7216
33764TIP3    H1 2174   4.511   8.925   9.705 -0.2742  1.3329 -0.9775
33764TIP3    H2 2175   4.588   8.968   9.582 -0.9104 -0.5901 -2.0873
33765TIP3   OH2 2176  10.271   3.620   8.928 -0.1280 -0.0862  0.1972
33765TIP3    H1 2177  10.189   3.571   8.915 -0.3262  0.5531 -1.1401
33765TIP3    H2 2178  10.340   3.557   8.908 -0.2272 -0.8480  2.0542
33766TIP3   OH2 2179  10.732   1.461   4.383 -0.4249  0.0753 -0.1570
33766TIP3    H1 2180  10.687   1.542   4.360  0.0369  0.3796  0.0062
33766TIP3    H2 2181  10.816   1.489   4.419 -0.7241 -0.4312  0.9618
33767TIP3   OH2 2182   1.543   4.441   1.051 -0.0833  0.3055 -0.4218
33767TIP3    H1 2183   1.503   4.511   1.103 -0.3483 -0.6105  0.6483
33767TIP3    H2 2184   1.529   4.362   1.103 -2.0073 -0.9872 -2.6988
33768TIP3   OH2 2185   0.104   2.629   6.491  0.5896  0.4429 -0.5817
33768TIP3    H1 2186   0.050   2.551   6.492 -0.2429  0.9962  0.9716
33768TIP3    H2 2187   0.159   2.621   6.569  0.1337  1.6283 -0.1191
33769TIP3   OH2 2188   7.167   3.829   3.564 -0.4155 -0.1900  0.2753
33769TIP3    H1 2189   7.207   3.862   3.645 -1.1639 -1.2281  1.0873
33769TIP3    H2 2190   7.231   3.767   3.529 -0.8288 -1.0544  1.0134
33770TIP3   OH2 2191   0.779   5.222   2.070  0.1432 -0.4183  0.1096
33770TIP3    H1 2192   0.824   5.298   2.033  0.7230 -1.3333 -1.1329
33770TIP3    H2 2193   0.734   5.256   2.148 -1.3970  1.6748 -1.5843
33771TIP3   OH2 2194   9.280   4.573   5.688  0.0529 -0.2015 -0.1268
33771TIP3    H1 2195   9.219   4.583   5.760  0.3820  0.4111  0.0731
33771TIP3    H2 2196   9.226   4.576   5.609 -0.2457 -0.3512  0.0745
33772TIP3   OH2 2197   5.067   9.574   7.615 -0.0587  0.7001  0.4848
33772TIP3    H1 2198   5.096   9.610   7.531 -1.5358  0.2370 -0.2794
33772TIP3    H2 2199   5.145   9.573   7.670  0.8595  1.3871 -0.7583
33773TIP3   OH2 2200   4.070   7.711  10.476 -0.1070  0.4321 -0.2031
33773TIP3    H1 2201   4.162   7.709  10.501 -0.6074 -0.8206  1.7552
33773TIP3    H2 2202   4.058   7.798  10.436  1.9018  0.6015 -0.5413
33774TIP3   OH2 2203   9.614   0.508   4.518  0.3582 -0.3895 -0.1642
33774TIP3    H1 2204   9.699   0.522   4.475  1.1277 -0.8914  1.1303
33774TIP3    H2 2205   9.562   0.462   4.452  0.5404  1.2875 -1.5391
33775TIP3   OH2 2206   1.585   0.100   5.013 -0.0171 -0.1423 -0.6329
33775TIP3    H1 2207   1.671   0.134   4.988  0.1008 -0.1489 -0.2354
33775TIP3    H2 2208   1.583   0.011   4.976  0.7771 -0.7414  0.6939
33776TIP3   OH2 2209   2.084   6.330   3.543 -0.6130  0.0048 -0.1256
33776TIP3    H1 2210   2.137   6.408   3.525 -0.8936 -0.0202 -1.1315
33776TIP3    H2 2211   2.005   6.365   3.585 -0.3808  0.1806  0.1640
33777TIP3   OH2 2212   7.350   2.701   2.816 -0.3018  0.5348  0.1281
33777TIP3    H1 2213   7.265   2.741   2.836  0.1766  1.5892  0.1370
33777TIP3    H2 2214   7.349   2.617   2.861 -0.9150  1.0152  1.0377
33778TIP3   OH2 2215   3.151   7.340   4.934  0.1948  0.4496  0.5128
33778TIP3    H1 2216   3.088   7.268   4.930  2.2696 -1.7584  3.2670
33778TIP3    H2 2217   3.099   7.416   4.957 -1.7359 -0.7890  0.4738
33779TIP3   OH2 2218   7.512   7.169   0.670 -0.0158 -0.1514 -0.5120
33779TIP3    H1 2219   7.448   7.167   0.740 -1.8969 -0.1787 -2.1327
33779TIP3    H2 2220   7.580   7.106   0.697 -2.2934 -2.6525 -0.1506
33780TIP3   OH2 2221   7.836   3.035   0.781  0.2916  0.1277  0.0551
33780TIP3    H1 2222   7.786   3.117   0.783  0.1300  0.0341 -0.1515
33780TIP3    H2 2223   7.913   3.055   0.728 -0.7896 -0.4428 -1.8074
33781TIP3   OH2 2224   2.525  10.500   3.358  0.3968 -0.5453 -0.3979
33781TIP3    H1 2225   2.495  10.568   3.418 -0.5006 -0.7964 -0.5433
33781TIP3    H2 2226   2.494  10.528   3.272  0.1314 -1.0634 -0.4781
33782TIP3   OH2 2227   5.846   1.218  10.542  0.1111  0.5265 -0.1248
33782TIP3    H1 2228   5.884   1.207  10.628 -0.1399  1.3639  0.1015
33782TIP3    H2 2229   5.837   1.312  10.531 -2.7344  0.3971  0.2335
33783TIP3   OH2 2230   5.327  10.073   2.745  0.1370 -0.2489 -0.2319
33783TIP3    H1 2231   5.319  10.141   2.812  0.5196  0.1952 -0.6225
33783TIP3    H2 2232   5.246  10.022   2.751 -0.8570  1.1894 -0.9684
33784TIP3   OH2 2233   2.591   6.608   2.724 -0.4335  0.4298 -0.2180
33784TIP3    H1 2234   2.546   6.669   2.664 -0.0131  1.1378  0.1686
33784TIP3    H2 2235   2.606   6.530   2.671 -0.1545  1.0027 -1.0124
33785TIP3   OH2 2236   3.607   4.727   7.284 -1.0579 -0.1391  0.2421
33785TIP3    H1 2237   3.659   4.647   7.273  0.6303  0.7293  1.4006
33785TIP3    H2 2238   3.631   4.759   7.371 -2.1713  1.2920  0.0518
33786TIP3   OH2 2239   6.538   4.031   0.648 -0.1565  0.2598 -0.3759
33786TIP3    H1 2240   6.622   4.010   0.607 -0.5816 -1.0163 -0.6247
33786TIP3    H2 2241   6.472   3.997   0.588 -0.7920 -2.8889  1.8523
33787TIP3   OH2 2242   6.301  10.352   5.243 -0.1264 -0.2098 -0.0912
33787TIP3    H1 2243   6.374  10.303   5.205  1.2032  1.9172 -0.4645
33787TIP3    H2 2244   6.336  10.440   5.257 -1.3291 -0.1422  3.6643
33788TIP3   OH2 2245   8.101   0.786   0.156  0.3446 -0.1135  0.1550
33788TIP3    H1 2246   8.138   0.774   0.243  0.2283  0.3920  0.2797
33788TIP3    H2 2247   8.023   0.731   0.155  0.9445 -0.9889 -0.0216
33789TIP3   OH2 2248   0.636   0.729  10.895  0.3389  0.1294 -0.3644
33789TIP3    H1 2249   0.676   0.765  10.974 -0.0700  1.0226 -0.5463
33789TIP3    H2 2250   0.584   0.801  10.860 -1.6490 -1.0562 -0.0018
33790TIP3   OH2 2251   5.960  10.472   6.202 -0.2293 -0.3042 -0.1708
33790TIP3    H1 2252   5.882  10.527   6.206 -1.9831 -2.7034  1.4430
33790TIP3    H2 2253   5.934  10.397   6.148  1.9054  0.0638 -1.8622
33791TIP3   OH2 2254   2.587   8.247   0.485 -0.6017  0.6166  0.5700
33791TIP3    H1 2255   2.627   8.292   0.411 -1.3207  0.8619  0.3208
33791TIP3    H2 2256   2.523   8.309   0.519 -0.3602  0.4586  1.3256
33792TIP3   OH2 2257   4.965   5.709  10.501 -0.3698  0.5103 -0.2126
33792TIP3    H1 2258   4.969   5.771  10.429  0.5966  0.6202 -0.0813
33792TIP3    H2 2259   5.050   5.665  10.500 -0.8790 -0.5289 -0.0476
33793TIP3   OH2 2260  10.500   3.755   3.369 -0.0155 -0.3001 -0.0596
33793TIP3    H1 2261  10.544   3.833   3.403 -3.4124  2.0739 -0.6227
33793TIP3    H2 2262  10.471   3.708   3.448  1.4891 -0.6874  0.2860
33794TIP3   OH2 2263   7.601  10.869   0.435  1.0077  0.2625  0.3722
33794TIP3    H1 2264   7.619  10.861   0.528  1.6124 -1.5708  0.1333
33794TIP3    H2 2265   7.606  10.963   0.418  0.9538  0.6246  2.1601
33795TIP3   OH2 2266   9.973   8.449   4.702  0.0881  0.2470 -0.4300
33795TIP3    H1 2267   9.901   8.407   4.655 -1.6992 -0.2348  2.5436
33795TIP3    H2 2268   9.936   8.530   4.737  0.9628  0.0168  1.1278
33796TIP3   OH2 2269   8.247   8.306   4.582 -0.3118  0.1877 -0.1917
33796TIP3    H1 2270   8.342   8.291   4.584  0.1800  2.7760  0.1413
33796TIP3    H2 2271   8.223   8.297   4.490  0.4119  0.2155 -0.3914
33797TIP3   OH2 2272   5.557   2.889   4.437 -0.0946  1.0426 -0.2208
33797TIP3    H1 2273   5.572   2.820   4.373 -0.5504  0.2593  0.4988
33797TIP3    H2 2274   5.557   2.970   4.385 -1.6202  0.3420 -1.4161
33798TIP3   OH2 2275  10.675   0.192   5.118  0.0843 -0.0288 -0.3103
33798TIP3    H1 2276  10.584   0.192   5.088 -0.0330  0.3531  0.0447
33798TIP3    H2 2277  10.671   0.226   5.207  0.4077 -1.3372  0.2320
33799TIP3   OH2 2278   5.027   7.173   3.574 -0.2496 -0.2121 -0.3442
33799TIP3    H1 2279   5.032   7.108   3.503 -0.4460 -0.4518 -0.1399
33799TIP3    H2 2280   5.039   7.257   3.530 -2.0810 -0.2059 -0.9358
33800TIP3   OH2 2281   5.995   0.649   8.121  0.6833  0.3414 -0.1006
33800TIP3    H1 2282   6.000   0.594   8.042  1.4826  1.7758 -1.0840
33800TIP3    H2 2283   6.071   0.622   8.173  0.8049  0.1876 -0.3547
33801TIP3   OH2 2284   8.067   8.217   0.054 -0.8367 -0.5047  0.1239
33801TIP3    H1 2285   8.012   8.295   0.040  0.1267  0.0916 -0.4576
33801TIP3    H2 2286   8.028   8.150  -0.002  0.0708  0.4455 -1.7452
33802TIP3   OH2 2287   7.929   5.385  10.873  0.7474 -0.1185 -0.0842
33802TIP3    H1 2288   7.956   5.318  10.811  0.9102  1.5538 -1.9433
33802TIP3    H2 2289   7.837   5.365  10.892  0.1632  0.2745 -2.2645
33803TIP3   OH2 2290   5.915   9.048   1.649  0.0406  0.6610  0.1294
33803TIP3    H1 2291   5.857   9.014   1.581 -0.1030 -1.5708  1.2930
33803TIP3    H2 2292   5.865   9.039   1.730  0.7395  1.9784  0.7507
33804TIP3   OH2 2293   4.601   6.956   4.942 -0.3304  0.1670  0.0750
33804TIP3    H1 2294   4.549   7.019   4.993  0.5882 -0.3792  1.7757
33804TIP3    H2 2295   4.616   6.883   5.003 -0.5201 -1.2606 -1.5251
33805TIP3   OH2 2296   1.747   0.098   6.604 -0.1683 -0.1480 -0.1184
33805TIP3    H1 2297   1.764   0.038   6.531  0.3094 -0.7675  0.4838
33805TIP3    H2 2298   1.810   0.071   6.671 -0.1712  0.8250  0.2820
33806TIP3   OH2 2299   1.791   1.082  10.792 -0.2096 -0.0633  0.1509
33806TIP3    H1 2300   1.853   1.114  10.858 -0.7697  1.7244 -0.1116
33806TIP3    H2 2301   1.824   0.996  10.767  2.4748  1.0213 -0.3676
33807TIP3   OH2 2302  10.508   9.251   3.120 -0.0715 -0.0761 -0.2153
33807TIP3    H1 2303  10.428   9.243   3.172 -0.3777 -0.0158 -0.6768
33807TIP3    H2 2304  10.570   9.295   3.178  0.4427 -2.3139  1.0577
33808TIP3   OH2 2305   9.955   3.881  10.718  0.4514  0.3476 -0.0824
33808TIP3    H1 2306   9.964   3.885  10.813  1.4000 -2.5661  0.0454
33808TIP3    H2 2307  10.039   3.911  10.684  0.1522  1.2780 -0.0168
33809TIP3   OH2 2308   4.682   3.062   6.207 -0.9251 -0.0786 -0.2952
33809TIP3    H1 2309   4.766   3.083   6.249  0.1652 -0.8318 -1.9728
33809TIP3    H2 2310   4.622   3.129   6.239  0.7839  1.6187 -0.4422
33810TIP3   OH2 2311   5.478   4.405   6.646 -0.0477 -0.3391  0.5115
33810TIP3    H1 2312   5.521   4.463   6.583 -2.2401  1.4855  0.5847
33810TIP3    H2 2313   5.536   4.405   6.722  1.0005  0.0956 -0.2586
33811TIP3   OH2 2314   1.672   7.559   6.138 -0.3028 -0.2452 -0.7349
33811TIP3    H1 2315   1.615   7.572   6.062  0.5557 -0.9362 -1.5182
33811TIP3    H2 2316   1.716   7.643   6.150  0.1000 -0.3531 -1.4541
33812TIP3   OH2 2317  10.842   8.193   6.241 -0.2127 -0.1940  0.0795
33812TIP3    H1 2318  10.816   8.285   6.249  0.0095 -0.2791  3.3754
33812TIP3    H2 2319  10.937   8.194   6.248 -0.3043 -0.7217  1.9094
33813TIP3   OH2 2320   9.956   0.344   7.625 -0.0619 -0.9104  0.0398
33813TIP3    H1 2321   9.934   0.373   7.537 -1.5466  0.3948  0.7723
33813TIP3    H2 2322  10.051   0.341   7.627  0.0095 -0.4796 -1.4548
33814TIP3   OH2 2323   3.836   7.037   3.839 -0.1828  0.0199 -0.3473
33814TIP3    H1 2324   3.847   6.976   3.766  0.3736 -0.1966 -0.0842
33814TIP3    H2 2325   3.839   7.123   3.798  3.1757  0.0571 -0.2941
33815TIP3   OH2 2326   5.344   4.310   7.227 -0.3160 -0.1306 -0.7125
33815TIP3    H1 2327   5.335   4.292   7.134 -0.1976  1.7125 -1.1089
33815TIP3    H2 2328   5.283   4.381   7.245  0.8574  0.6879  0.2421
33816TIP3   OH2 2329   5.212   5.541   6.686 -0.6064 -0.1025 -0.2787
33816TIP3    H1 2330   5.286   5.565   6.630 -0.4103  3.2714  1.1631
33816TIP3    H2 2331   5.207   5.612   6.750 -2.5685 -2.3095  2.2461
33817TIP3   OH2 2332   2.977  10.215   2.551 -0.1367  0.3655 -0.0585
33817TIP3    H1 2333   3.029  10.239   2.475 -1.5224  1.7811 -0.6184
33817TIP3    H2 2334   2.965  10.120   2.544 -0.1009  0.4569 -1.5001
33818TIP3   OH2 2335   9.112   9.690   6.441 -0.3662 -0.3230  0.0422
33818TIP3    H1 2336   9.119   9.653   6.353  0.1240 -1.5149  0.5647
33818TIP3    H2 2337   9.078   9.779   6.427  1.7236  0.3037 -1.5059
33819TIP3   OH2 2338  10.498   3.535   4.958  0.0005 -0.1498  0.2170
33819TIP3    H1 2339  10.576   3.568   5.003 -0.4964  0.5901  0.5479
33819TIP3    H2 2340  10.432   3.603   4.971 -0.3367 -0.1828 -1.1380
33820TIP3   OH2 2341   9.543  10.195   3.653 -0.0132 -0.1532  0.4224
33820TIP3    H1 2342   9.593  10.121   3.689  2.4203  1.2332  0.1183
33820TIP3    H2 2343   9.492  10.156   3.582 -0.7252 -1.9448  1.8339
33821TIP3   OH2 2344   7.385   1.047  10.079 -0.2455 -0.1859 -0.3063
33821TIP3    H1 2345   7.374   0.980  10.012  0.0998 -1.3142  0.7383
33821TIP3    H2 2346   7.393   1.129  10.030 -0.1441 -0.9616 -1.6220
33822TIP3   OH2 2347   3.772   6.362   1.786  0.0521 -0.3902 -0.4727
33822TIP3    H1 2348   3.783   6.268   1.768 -0.7391 -0.8582  1.2761
33822TIP3    H2 2349   3.858   6.390   1.817  0.4004 -0.4298 -1.3696
33823TIP3   OH2 2350   1.411   1.829   3.253  0.4452 -0.2618  0.3500
33823TIP3    H1 2351   1.391   1.781   3.333 -0.3689  0.1002  0.3825
33823TIP3    H2 2352   1.369   1.914   3.265  0.7106 -0.0369 -0.2671
33824TIP3   OH2 2353   0.859  10.370   5.644 -0.0373  0.0479  0.6235
33824TIP3    H1 2354   0.869  10.441   5.707 -1.5947  0.7891  0.0897
33824TIP3    H2 2355   0.937  10.375   5.590  0.9296 -0.0803  1.9532
33825TIP3   OH2 2356   1.548   6.097   9.520 -0.0645 -0.0128  1.2184
33825TIP3    H1 2357   1.563   6.003   9.512 -0.3139 -0.0295  0.9211
33825TIP3    H2 2358   1.631   6.137   9.495 -0.2208 -0.1314  0.4777
33826TIP3   OH2 2359   1.016   3.292   3.180  1.0555 -0.2593  0.5404
33826TIP3    H1 2360   0.929   3.331   3.187  0.7709 -0.9155  0.7038
33826TIP3    H2 2361   1.062   3.322   3.259  1.1853  0.5891  0.1478
33827TIP3   OH2 2362   6.190  10.150   1.986  0.1366 -0.0947 -0.3488
33827TIP3    H1 2363   6.115  10.189   1.941  1.3432  2.1633 -0.4932
33827TIP3    H2 2364   6.184  10.182   2.076 -0.1067 -1.4982  0.1728
33828TIP3   OH2 2365   3.225   3.405   8.303  0.2157  0.3890  0.3992
33828TIP3    H1 2366   3.167   3.389   8.228  0.4741  1.0719  0.0397
33828TIP3    H2 2367   3.174   3.463   8.360 -0.4540 -1.0832  1.3621
33829TIP3   OH2 2368   9.058   0.140   8.401  0.2600  0.1272  0.0331
33829TIP3    H1 2369   9.149   0.110   8.394  0.4655  0.4789  0.9875
33829TIP3    H2 2370   9.060   0.203   8.473 -1.1027 -1.3228  1.4255
33830TIP3   OH2 2371   9.137   8.456   9.605  0.3297 -0.3540 -0.4709
33830TIP3    H1 2372   9.134   8.370   9.564 -0.9726 -0.5790  0.0514
33830TIP3    H2 2373   9.123   8.517   9.532 -1.1268 -0.7089 -0.5128
33831TIP3   OH2 2374  10.738   3.280   3.873 -0.1369  0.1466  0.3267
33831TIP3    H1 2375  10.777   3.351   3.822  0.0404 -0.7438 -0.8229
33831TIP3    H2 2376  10.765   3.298   3.963  0.7875  0.9547 -0.0920
33832TIP3   OH2 2377   3.903   6.465   1.135  0.4271 -0.3873  0.2534
33832TIP3    H1 2378   3.875   6.550   1.100 -3.2114 -0.8024  1.7154
33832TIP3    H2 2379   3.970   6.487   1.199 -0.7305  1.4878  0.9107
33833TIP3   OH2 2380   5.960   5.395   3.885 -0.1009  0.1961 -0.0771
33833TIP3    H1 2381   6.029   5.460   3.874  0.1039 -0.3699 -3.0439
33833TIP3    H2 2382   5.881   5.447   3.903 -0.0480  1.4159 -2.8496
33834TIP3   OH2 2383   3.926   4.280  10.725  0.9933 -0.1273 -0.2198
33834TIP3    H1 2384   3.860   4.293  10.657 -0.3115  1.7050  1.2949
33834TIP3    H2 2385   3.983   4.357  10.718  1.3426 -0.3407  0.2364
33835TIP3   OH2 2386   3.195   9.691   9.399  0.0999  0.3382 -0.5997
33835TIP3    H1 2387   3.122   9.631   9.414 -0.8752  0.7982 -2.9985
33835TIP3    H2 2388   3.179   9.764   9.458 -0.6604 -0.1567 -0.1691
33836TIP3   OH2 2389   6.539   0.894   2.038  0.2274  0.4820  0.0436
33836TIP3    H1 2390   6.485   0.839   2.093  0.3930  0.2898  0.0159
33836TIP3    H2 2391   6.600   0.834   1.995  0.1341  0.6349 -0.3084
33837TIP3   OH2 2392   3.989   4.479   5.093 -0.3828  0.0265  0.7526
33837TIP3    H1 2393   4.075   4.479   5.134 -1.7946  0.5912  4.0564
33837TIP3    H2 2394   3.946   4.400   5.125 -0.8254 -0.8174 -1.6919
33838TIP3   OH2 2395   7.873   2.353   0.001 -0.0510 -0.3260 -0.3206
33838TIP3    H1 2396   7.836   2.441   0.005  1.0505  0.0900  1.5349
33838TIP3    H2 2397   7.813   2.305  -0.057 -0.7067  1.5889 -1.3118
33839TIP3   OH2 2398  10.286  10.612   7.266  0.4408 -0.0682  0.0715
33839TIP3    H1 2399  10.332  10.582   7.344  0.6862  0.0514 -0.0271
33839TIP3    H2 2400  10.200  10.571   7.272 -0.0721  1.0783  1.1634
33840TIP3   OH2 2401  10.707   7.071   8.502 -0.2601  0.2971  0.3344
33840TIP3    H1 2402  10.793   7.032   8.486 -0.6289  0.5171 -3.0766
33840TIP3    H2 2403  10.716   7.161   8.471 -1.9750 -0.0255 -1.3130
33841TIP3   OH2 2404   0.944   1.502   0.575  0.5250  0.4581 -0.3464
33841TIP3    H1 2405   1.014   1.547   0.622  1.1884 -0.1192 -0.7644
33841TIP3    H2 2406   0.975   1.411   0.568 -1.5798 -0.6041  2.1464
33842TIP3   OH2 2407   1.415   2.590  10.108 -0.2944 -0.0963  0.2657
33842TIP3    H1 2408   1.457   2.532  10.171  0.5849 -0.3840 -0.5655
33842TIP3    H2 2409   1.487   2.625  10.055 -0.6585  2.5464  1.3554
33843TIP3   OH2 2410   5.560   9.239  10.089  0.5953 -0.1311 -0.2123
33843TIP3    H1 2411   5.499   9.178  10.046  0.8203 -0.9036  0.5481
33843TIP3    H2 2412   5.634   9.185  10.114 -0.1694 -0.0575  2.5014
33844TIP3   OH2 2413   4.726   7.773   8.488 -0.2480  0.4590 -0.1078
33844TIP3    H1 2414   4.686   7.770   8.574 -0.3897  0.6704 -0.1645
33844TIP3    H2 2415   4.716   7.684   8.453  0.2162  0.2516  0.2725
33845TIP3   OH2 2416   4.134   0.024   2.438  0.9041 -0.1996  0.0585
33845TIP3    H1 2417   4.169   0.088   2.501 -1.8960  0.4583  1.0686
33845TIP3    H2 2418   4.160   0.059   2.353 -0.0361  2.0164  0.6135
33846TIP3   OH2 2419   5.287   1.693   0.115 -0.1898 -0.2719  0.1521
33846TIP3    H1 2420   5.354   1.629   0.139 -0.1676 -0.4546 -0.3788
33846TIP3    H2 2421   5.266   1.673   0.024 -0.1718  0.4872 -0.0254
33847TIP3   OH2 2422   5.052   2.829   0.298  1.1944 -0.5101  0.4363
33847TIP3    H1 2423   5.057   2.924   0.293  2.3260 -0.6098 -0.7637
33847TIP3    H2 2424   4.966   2.812   0.337  0.7610  0.9841  0.2040
33848TIP3   OH2 2425   7.773   4.701   2.328  0.2067  0.3116 -0.3287
33848TIP3    H1 2426   7.819   4.650   2.394  2.6629  1.7914 -0.7724
33848TIP3    H2 2427   7.696   4.648   2.306  0.2423 -1.0249  2.3948
33849TIP3   OH2 2428   4.542  10.491   1.689 -0.5167 -0.6115 -0.3187
33849TIP3    H1 2429   4.505  10.553   1.626  2.1665  0.0526 -1.3851
33849TIP3    H2 2430   4.565  10.414   1.637  0.9018 -0.4174 -0.0260
33850TIP3   OH2 2431   8.995   9.073   3.552 -0.2339  0.5192 -0.2645
33850TIP3    H1 2432   9.042   9.026   3.621 -2.3214 -2.6997 -0.7829
33850TIP3    H2 2433   8.937   9.133   3.598  1.3240  1.4628  0.5288
33851TIP3   OH2 2434   2.463   7.413   2.738  0.4891 -0.0151  0.0712
33851TIP3    H1 2435   2.452   7.384   2.829 -1.1487 -0.2378 -0.1667
33851TIP3    H2 2436   2.554   7.393   2.717  0.6869 -0.6368  1.4304
33852TIP3   OH2 2437   4.517   5.638   0.560 -0.2193  0.3960  0.1697
33852TIP3    H1 2438   4.603   5.640   0.603  0.2863 -0.1598 -0.7948
33852TIP3    H2 2439   4.530   5.584   0.482 -1.8681 -1.1668  0.9101
33853TIP3   OH2 2440  10.061   2.230   2.087 -0.6864 -0.1087 -0.6169
33853TIP3    H1 2441  10.098   2.308   2.046  1.3319  0.5457  2.1724
33853TIP3    H2 2442  10.019   2.262   2.167 -0.1888 -1.7949  0.3870
33854TIP3   OH2 2443   1.381   3.049   8.767  0.4610  0.5793 -0.1624
33854TIP3    H1 2444   1.465   3.092   8.752  0.7597 -0.8053 -3.2764
33854TIP3    H2 2445   1.403   2.961   8.796  0.1083  0.3652 -0.5201
33855TIP3   OH2 2446   3.276   2.444   3.041 -0.3248  0.3870 -0.2002
33855TIP3    H1 2447   3.340   2.483   3.100 -0.8190  0.4816  0.2810
33855TIP3    H2 2448   3.240   2.518   2.992  0.8454  0.1966 -1.4022
33856TIP3   OH2 2449   3.607   0.437   8.981  0.2816 -0.0457  0.0921
33856TIP3    H1 2450   3.559   0.500   8.928  0.9557  0.9799  0.6702
33856TIP3    H2 2451   3.695   0.475   8.989  0.8058 -1.2251  0.1697
33857TIP3   OH2 2452  10.801   4.230   1.975  0.4430  0.0979  0.4069
33857TIP3    H1 2453  10.838   4.159   2.028  0.7290 -1.6241 -1.9229
33857TIP3    H2 2454  10.707   4.227   1.994  0.1598 -2.1743 -0.8704
33858TIP3   OH2 2455  10.731   3.696   2.665 -0.0642  0.3224  0.3652
33858TIP3    H1 2456  10.713   3.711   2.758  0.8625 -0.4939  0.6898
33858TIP3    H2 2457  10.804   3.754   2.645  1.3216 -1.2240  0.7787
33859TIP3   OH2 2458   1.589   2.715   8.615 -0.9457  0.4243  0.1252
33859TIP3    H1 2459   1.643   2.794   8.610 -0.0588 -0.1186  0.8234
33859TIP3    H2 2460   1.559   2.700   8.525 -2.4278  2.4139  0.2326
33860TIP3   OH2 2461   3.300   4.765  10.821 -0.0750  0.6791  0.0205
33860TIP3    H1 2462   3.238   4.734  10.887 -0.4240 -1.8742 -1.3683
33860TIP3    H2 2463   3.386   4.760  10.864 -0.2509 -1.3260  0.2224
33861TIP3   OH2 2464   4.813   1.322   9.043 -0.5651 -0.4137 -0.4698
33861TIP3    H1 2465   4.763   1.244   9.067  0.3275 -0.9057 -0.1370
33861TIP3    H2 2466   4.801   1.382   9.117 -2.2862  0.3008 -1.2843
33862TIP3   OH2 2467   6.625  10.724   9.003  0.8493  0.5056 -0.9939
33862TIP3    H1 2468   6.602  10.678   8.922  1.0818 -0.6752 -0.4004
33862TIP3    H2 2469   6.720  10.723   9.005  0.8315 -0.2436 -0.2736
33863TIP3   OH2 2470   8.500   1.278   0.964 -0.1460  0.0994  0.3738
33863TIP3    H1 2471   8.426   1.247   1.018  0.0836 -1.9853 -0.3904
33863TIP3    H2 2472   8.460   1.297   0.878  0.0790 -0.3308  0.1712
33864TIP3   OH2 2473   0.268   0.975   4.042 -0.3006  0.0757 -0.7044
33864TIP3    H1 2474   0.203   0.986   4.111 -0.1005  1.2814 -0.6815
33864TIP3    H2 2475   0.331   0.913   4.078  0.4153  1.5198  0.6965
33865TIP3   OH2 2476   8.201   8.130   7.413 -1.0807  0.5176  0.1891
33865TIP3    H1 2477   8.232   8.154   7.501  1.0001 -0.2413 -0.2742
33865TIP3    H2 2478   8.141   8.056   7.428  0.0948 -0.3249  0.9361
33866TIP3   OH2 2479   2.778   9.810   3.656  0.6576  0.6035 -0.4179
33866TIP3    H1 2480   2.824   9.790   3.574  1.3026  1.7540 -0.3453
33866TIP3    H2 2481   2.840   9.786   3.725  0.4082  0.3569 -0.2778
33867TIP3   OH2 2482   2.147   2.273   5.551 -0.2134  0.0812  0.0685
33867TIP3    H1 2483   2.214   2.336   5.577  0.8472 -0.5525 -1.0343
33867TIP3    H2 2484   2.115   2.236   5.633 -0.2445  1.4138  0.6822
33868TIP3   OH2 2485   2.920   8.187   3.689 -0.0144 -0.6856  0.2486
33868TIP3    H1 2486   2.866   8.111   3.709  0.0578 -0.2464  2.2382
33868TIP3    H2 2487   3.007   8.150   3.672 -0.5730 -1.2602 -1.5707
33869TIP3   OH2 2488   5.771   7.987   9.616 -0.0784 -0.0689 -0.0714
33869TIP3    H1 2489   5.815   7.966   9.534  1.4540 -1.2942  0.9917
33869TIP3    H2 2490   5.823   7.942   9.683 -0.7132  1.6195  1.6715
33870TIP3   OH2 2491   5.575   1.828   3.918  0.3637 -0.1471  0.2356
33870TIP3    H1 2492   5.506   1.780   3.871  1.4264 -0.0510 -1.5104
33870TIP3    H2 2493   5.527   1.890   3.973 -1.0127  1.2486 -2.3011
33871TIP3   OH2 2494  10.813   1.031   5.761  0.1675 -0.0294  0.5421
33871TIP3    H1 2495  10.732   1.066   5.724  0.1367 -0.3831  0.2688
33871TIP3    H2 2496  10.806   0.936   5.749  0.3768 -0.1109  1.0155
33872TIP3   OH2 2497   8.806   6.004   7.793 -0.1888  0.3981 -0.3489
33872TIP3    H1 2498   8.868   6.076   7.804 -1.4212  1.2669  1.4915
33872TIP3    H2 2499   8.723   6.046   7.768 -1.5201 -0.0117  2.8764
33873TIP3   OH2 2500   3.417   0.534   7.407 -0.1920  0.1866 -0.0698
33873TIP3    H1 2501   3.424   0.605   7.470  0.0618  0.3859 -0.3194
33873TIP3    H2 2502   3.432   0.575   7.322  2.4280 -0.5330 -0.0512
33874TIP3   OH2 2503   9.673   3.062   0.926  0.5836 -0.8490 -0.3305
33874TIP3    H1 2504   9.589   3.087   0.965  0.0740 -0.3457 -1.6742
33874TIP3    H2 2505   9.735   3.124   0.964 -0.5966  2.5659 -3.3275
33875TIP3   OH2 2506   1.030   6.266  10.440 -0.1052  0.2613 -0.7713
33875TIP3    H1 2507   1.063   6.285  10.528  2.3826 -3.8494 -0.5677
33875TIP3    H2 2508   0.954   6.210  10.454  1.8332 -2.6157 -1.0468
33876TIP3   OH2 2509   0.465   7.361   6.101 -0.1327 -0.7713 -0.2273
33876TIP3    H1 2510   0.383   7.324   6.070 -0.7653  0.6999 -0.4227
33876TIP3    H2 2511   0.496   7.416   6.029  1.3582 -1.7568 -0.3913
33877TIP3   OH2 2512  10.209   8.368   5.712 -0.3701 -0.2582 -0.2401
33877TIP3    H1 2513  10.143   8.320   5.763  0.1541 -1.5347 -0.7083
33877TIP3    H2 2514  10.162   8.397   5.634 -0.7306  0.1047  0.1098
33878TIP3   OH2 2515   5.959   7.462   9.169  0.1047 -0.2341  0.3187
33878TIP3    H1 2516   5.945   7.373   9.201  0.5137 -0.7200 -0.7907
33878TIP3    H2 2517   5.904   7.468   9.091  1.7269 -0.2675 -0.8623
33879TIP3   OH2 2518   6.425  10.824   3.207  0.2976 -0.3616 -0.0788
33879TIP3    H1 2519   6.433  10.851   3.299 -1.6915  1.5789 -0.3882
33879TIP3    H2 2520   6.334  10.797   3.198  0.2092  0.3857 -1.6740
33880TIP3   OH2 2521   3.203   3.592  10.688  0.3250 -0.3290 -0.0835
33880TIP3    H1 2522   3.217   3.569  10.596  1.9901 -2.0770  0.5506
33880TIP3    H2 2523   3.183   3.686  10.686 -2.4115 -0.8061 -2.4270
33881TIP3   OH2 2524   6.155   6.265   4.444 -0.7584 -0.5190  0.1273
33881TIP3    H1 2525   6.150   6.172   4.466 -1.5539 -0.3494  0.7357
33881TIP3    H2 2526   6.078   6.280   4.389 -1.5187  0.0879  1.3160
33882TIP3   OH2 2527   5.224   3.957  10.293 -0.0257 -0.3152  0.3148
33882TIP3    H1 2528   5.210   3.864  10.310 -1.1962 -0.1399  0.4304
33882TIP3    H2 2529   5.173   4.001  10.361 -0.4027  0.4000 -0.4062
33883TIP3   OH2 2530   2.417   8.185   8.396  0.5746  0.2217  0.1725
33883TIP3    H1 2531   2.511   8.185   8.411  0.7246 -0.7243 -0.6808
33883TIP3    H2 2532   2.398   8.098   8.360 -0.6599  0.3054  0.5500
33884TIP3   OH2 2533   4.953   9.913   3.286 -0.4661  0.4277  0.3047
33884TIP3    H1 2534   5.036   9.936   3.328 -0.6571  0.1572  0.8394
33884TIP3    H2 2535   4.941   9.820   3.307 -0.7373  0.3809 -0.0586
33885TIP3   OH2 2536   2.277   9.033   3.985  0.0725  0.2549  0.4148
33885TIP3    H1 2537   2.314   9.121   3.976 -1.0411  0.7426  0.4298
33885TIP3    H2 2538   2.182   9.046   3.982 -0.1155 -1.1520 -1.3584
33886TIP3   OH2 2539   1.859   6.521   2.307  0.3509  0.2091 -0.3575
33886TIP3    H1 2540   1.884   6.495   2.396 -0.2203  1.1695  0.0896
33886TIP3    H2 2541   1.905   6.603   2.292 -0.6534  0.7782 -0.4132
33887TIP3   OH2 2542   2.987   9.728   3.051  0.4574 -0.2587  0.4147
33887TIP3    H1 2543   3.059   9.674   3.082  1.9685  0.4270 -1.6821
33887TIP3    H2 2544   2.922   9.724   3.121  1.2961 -3.2043  1.1523
33888TIP3   OH2 2545   2.070   2.323   1.507 -0.0346 -0.4752 -1.0159
33888TIP3    H1 2546   2.149   2.305   1.456 -0.0081 -0.8408 -0.8560
33888TIP3    H2 2547   2.034   2.236   1.526 -1.0672 -0.2819 -1.9977
33889TIP3   OH2 2548   4.545   9.560   4.857  0.1899 -0.4084 -0.0650
33889TIP3    H1 2549   4.594   9.641   4.871 -0.7658  0.5197 -1.7755
33889TIP3    H2 2550   4.482   9.582   4.788 -2.1529 -1.7469  1.5231
33890TIP3   OH2 2551   8.443   8.381   2.850 -0.1492 -0.3683 -0.0885
33890TIP3    H1 2552   8.440   8.446   2.780  0.8900  0.8221  0.9081
33890TIP3    H2 2553   8.392   8.421   2.921  0.1807 -0.8234  0.4065
33891TIP3   OH2 2554   6.237   8.392   3.282 -0.5640  0.5079  0.3534
33891TIP3    H1 2555   6.234   8.440   3.199 -1.1881 -0.2677 -0.0971
33891TIP3    H2 2556   6.176   8.319   3.269 -0.0599 -0.0868  1.2085
33892TIP3   OH2 2557   6.856   4.784   7.127 -0.4477 -0.8602  0.4528
33892TIP3    H1 2558   6.840   4.861   7.072  0.4571  0.9333  2.5366
33892TIP3    H2 2559   6.769   4.752   7.150 -0.9865  1.2870  1.7423
33893TIP3   OH2 2560   8.719   0.943   6.013 -0.2595 -0.1788 -0.8675
33893TIP3    H1 2561   8.741   0.872   6.073 -0.2874  0.1769 -0.4297
33893TIP3    H2 2562   8.801   0.962   5.967  0.3387  1.0037  0.6076
33894TIP3   OH2 2563   3.297   5.765   3.161  0.2382 -0.0134 -0.1852
33894TIP3    H1 2564   3.262   5.796   3.245  2.1828 -0.2123  0.7349
33894TIP3    H2 2565   3.389   5.748   3.178  1.0157  1.2362 -2.7358
33895TIP3   OH2 2566   1.582   2.816   2.394 -0.2287 -0.5734  0.4785
33895TIP3    H1 2567   1.554   2.895   2.440  0.6006  0.3908 -0.6008
33895TIP3    H2 2568   1.571   2.837   2.301  0.3964 -1.5791  0.1594
33896TIP3   OH2 2569   7.778   8.873   5.540  0.2724 -0.0534  0.4110
33896TIP3    H1 2570   7.859   8.855   5.491  0.1729  0.3013  0.1022
33896TIP3    H2 2571   7.762   8.966   5.523  0.9477  0.4248  2.1823
33897TIP3   OH2 2572   1.513  10.417   4.949 -0.2063  0.0303  0.7044
33897TIP3    H1 2573   1.514  10.322   4.942 -0.8915 -0.2440  3.2947
33897TIP3    H2 2574   1.460  10.435   5.028  0.3126  2.5228  0.5675
33898TIP3   OH2 2575   0.124   0.745   6.990  0.1394 -0.0080  0.2915
33898TIP3    H1 2576   0.146   0.800   7.066 -1.4080 -0.1681  0.8787
33898TIP3    H2 2577   0.121   0.656   7.025 -1.0586 -0.0303  0.1620
33899TIP3   OH2 2578   6.255   3.383   8.815 -0.8164  0.4935 -0.5298
33899TIP3    H1 2579   6.302   3.318   8.867 -2.2861  1.3909  2.0498
33899TIP3    H2 2580   6.325   3.440   8.780  0.2419 -0.4120  0.0518
33900TIP3   OH2 2581   2.166   0.858  10.621 -0.1154  0.5279  0.4005
33900TIP3    H1 2582   2.192   0.947  10.646 -1.4593  0.1680  3.4885
33900TIP3    H2 2583   2.222   0.801  10.675 -2.3455 -0.3401  1.9553
33901TIP3   OH2 2584   4.001   4.156   4.053 -0.3768  0.4596  0.7121
33901TIP3    H1 2585   3.918   4.163   4.006  0.0885 -0.1348 -0.2148
33901TIP3    H2 2586   4.064   4.204   3.999 -0.2874  1.7252  1.8838
33902TIP3   OH2 2587   7.473   7.384   4.962 -0.2574 -0.0599  0.3316
33902TIP3    H1 2588   7.432   7.360   4.879  0.0233 -0.5317  0.3292
33902TIP3    H2 2589   7.414   7.348   5.029 -0.1449 -0.2387  0.3332
33903TIP3   OH2 2590   3.278   8.144   5.117 -0.3238  0.2847 -0.0691
33903TIP3    H1 2591   3.355   8.096   5.146  1.3745  2.8041 -0.0323
33903TIP3    H2 2592   3.239   8.177   5.198  0.4362  1.6187 -0.2183
33904TIP3   OH2 2593   2.703   1.546   5.557  0.3618  0.0466  0.4790
33904TIP3    H1 2594   2.648   1.614   5.597  0.2738 -0.5576  1.4345
33904TIP3    H2 2595   2.655   1.465   5.574  1.1654 -0.4060  0.6281
33905TIP3   OH2 2596   4.432  10.317   2.913 -0.1234  0.4899 -0.5401
33905TIP3    H1 2597   4.512  10.370   2.922  1.9035 -2.0761 -2.0319
33905TIP3    H2 2598   4.425  10.301   2.819 -2.7029  0.9897 -0.4809
33906TIP3   OH2 2599   4.314   5.082   3.979 -0.3642  0.6503 -0.1113
33906TIP3    H1 2600   4.365   5.006   4.006  1.6414  2.4721  1.5729
33906TIP3    H2 2601   4.337   5.095   3.887  0.3880  0.0603 -0.0106
33907TIP3   OH2 2602   8.105   5.096  10.118 -0.0534 -0.0106 -0.5153
33907TIP3    H1 2603   8.069   5.038  10.052 -1.5213  1.9016 -1.4655
33907TIP3    H2 2604   8.175   5.144  10.073 -0.8539  1.0780 -0.6400
33908TIP3   OH2 2605  10.262   2.612   1.864  0.0276 -0.1378  0.2531
33908TIP3    H1 2606  10.329   2.593   1.929 -0.2433 -1.1527  0.2531
33908TIP3    H2 2607  10.185   2.563   1.893  0.0178 -0.9382 -1.0281
33909TIP3   OH2 2608   5.257   5.055   4.278 -0.6264 -0.0346  0.0914
33909TIP3    H1 2609   5.282   5.083   4.366 -0.4707 -0.4981  0.2025
33909TIP3    H2 2610   5.213   4.971   4.291 -2.8878  1.0643 -0.0367
33910TIP3   OH2 2611   8.980   9.694   8.627 -0.5448  0.2812 -0.2396
33910TIP3    H1 2612   9.045   9.732   8.687  1.0924 -2.0836 -0.3709
33910TIP3    H2 2613   8.910   9.760   8.622  0.8787  2.0478  1.5248
33911TIP3   OH2 2614   5.081   5.919   2.359  0.2236  0.0702  0.2923
33911TIP3    H1 2615   5.032   5.852   2.311  0.3728  0.1542  0.0215
33911TIP3    H2 2616   5.109   5.981   2.292  0.6176  0.0729  0.4588
33912TIP3   OH2 2617   0.338   6.463   3.353  0.1524  0.0735  0.2569
33912TIP3    H1 2618   0.426   6.468   3.316  0.1089 -1.6115 -0.1651
33912TIP3    H2 2619   0.298   6.387   3.310 -1.0854  0.0864  1.3158
33913TIP3   OH2 2620   4.372   3.622   4.614  0.0357 -0.0875  0.2410
33913TIP3    H1 2621   4.417   3.569   4.549 -2.0711  0.5230 -1.8354
33913TIP3    H2 2622   4.334   3.558   4.675 -0.6135 -0.8784 -0.9617
33914TIP3   OH2 2623   2.081   5.441   8.686 -0.3326  0.2511 -0.1219
33914TIP3    H1 2624   2.040   5.383   8.751  0.5215 -0.5562 -0.2937
33914TIP3    H2 2625   2.159   5.474   8.729  0.8248 -1.1299 -1.0896
33915TIP3   OH2 2626   4.875   2.075   9.280 -0.2355 -0.4701 -0.0478
33915TIP3    H1 2627   4.792   2.049   9.319  0.4788  0.2046  2.0807
33915TIP3    H2 2628   4.920   1.992   9.262 -1.3516 -0.8472 -1.3471
33916TIP3   OH2 2629   2.324   6.132   1.468  0.2623 -0.0144  0.2812
33916TIP3    H1 2630   2.368   6.204   1.422  0.1896 -0.1298  0.0333
33916TIP3    H2 2631   2.327   6.058   1.407  0.9931 -0.4432  0.8285
33917TIP3   OH2 2632   8.993  10.032   5.399 -0.2517  0.1573  0.1203
33917TIP3    H1 2633   8.983  10.125   5.422 -0.5069 -0.2729  1.9130
33917TIP3    H2 2634   8.905  10.003   5.377 -0.4999 -0.0594  1.3167
33918TIP3   OH2 2635   6.831   7.990   5.383 -0.5131 -0.0017  0.1443
33918TIP3    H1 2636   6.873   7.911   5.418 -0.4407  0.6060  1.4726
33918TIP3    H2 2637   6.866   7.997   5.294  0.6398 -0.6412  0.5209
33919TIP3   OH2 2638   7.907  10.819   1.517  0.1081  0.3314 -0.3015
33919TIP3    H1 2639   7.886  10.764   1.442 -1.4403 -0.2229  0.5109
33919TIP3    H2 2640   7.824  10.858   1.543  0.7209  0.9563  0.7869
33920TIP3   OH2 2641   8.802   3.977   4.284  0.9050 -0.1587 -0.5636
33920TIP3    H1 2642   8.734   4.009   4.224  1.6681  0.7407 -0.9820
33920TIP3    H2 2643   8.769   3.893   4.316 -1.3982  1.1762  0.8839
33921TIP3   OH2 2644   9.854   4.701   3.138  0.2946 -0.0502  0.0127
33921TIP3    H1 2645   9.869   4.796   3.140  0.9189 -0.1361 -0.2360
33921TIP3    H2 2646   9.937   4.665   3.107 -0.0386 -0.6569 -0.1868
33922TIP3   OH2 2647   5.997   2.517   9.643 -0.4252 -0.6614 -0.4899
33922TIP3    H1 2648   5.913   2.472   9.655  0.1638 -1.8146 -0.5933
33922TIP3    H2 2649   6.062   2.456   9.676  0.3202  0.6168  0.5311
33923TIP3   OH2 2650   1.165   8.527   8.783 -0.1222  0.1391 -0.0468
33923TIP3    H1 2651   1.163   8.491   8.694 -1.0648  1.7071 -0.7126
33923TIP3    H2 2652   1.076   8.513   8.815 -0.4007  1.5038 -0.1893
33924TIP3   OH2 2653  10.378   2.966   3.147  0.3698  0.2964 -0.5542
33924TIP3    H1 2654  10.466   2.949   3.180  0.1315  1.2232  0.6537
33924TIP3    H2 2655  10.330   2.885   3.164  0.4823  0.4618  0.6485
33925TIP3   OH2 2656   0.000   4.917   8.252  0.1157  0.0622  0.6943
33925TIP3    H1 2657   0.076   4.951   8.300  0.5499  0.9468 -0.5614
33925TIP3    H2 2658   0.038   4.855   8.189 -0.1183  0.8964 -0.2933
33926TIP3   OH2 2659  10.275   5.125   6.784  0.3149 -0.4660  0.2035
33926TIP3    H1 2660  10.224   5.173   6.849 -1.8686 -0.7669 -1.1845
33926TIP3    H2 2661  10.253   5.167   6.701  1.5415 -1.2937 -0.5724
33927TIP3   OH2 2662   2.509   2.003   9.817  0.0550 -0.3211  0.5992
33927TIP3    H1 2663   2.474   1.934   9.761 -1.2536  0.7323  0.0503
33927TIP3    H2 2664   2.603   2.004   9.800 -0.1960 -0.6498 -0.8784
33928TIP3   OH2 2665   5.087   6.044  10.820  0.2558 -0.3161  0.1255
33928TIP3    H1 2666   5.020   6.111  10.816 -0.4770 -0.9524  1.1066
33928TIP3    H2 2667   5.127   6.055  10.907  0.7202 -0.6020 -0.0452
33929TIP3   OH2 2668   8.576   1.197   9.300 -0.3127  0.8667  0.4619
33929TIP3    H1 2669   8.576   1.285   9.338  1.0775  1.9160 -1.7266
33929TIP3    H2 2670   8.546   1.210   9.210  2.1332 -0.4632 -0.6515
33930TIP3   OH2 2671   1.127   1.142   3.488  0.5325  0.3556  0.2411
33930TIP3    H1 2672   1.092   1.145   3.578  1.1581 -0.9509  0.5467
33930TIP3    H2 2673   1.054   1.111   3.435  0.8477 -1.2588  0.7033
33931TIP3   OH2 2674   2.053   7.999  10.404 -0.1369 -0.2956  0.4874
33931TIP3    H1 2675   1.971   8.010  10.356  0.1698  0.9265  0.1920
33931TIP3    H2 2676   2.113   8.062  10.362  0.8773 -1.0086  0.8389
33932TIP3   OH2 2677   3.137   5.299   9.676 -1.1307  0.6608  0.1889
33932TIP3    H1 2678   3.064   5.286   9.616 -1.5988  2.3125  0.3736
33932TIP3    H2 2679   3.158   5.392   9.670  0.8753  0.2681  0.2595
33933TIP3   OH2 2680   4.475   7.877   4.647 -0.1465 -0.2143  0.4748
33933TIP3    H1 2681   4.409   7.828   4.597 -1.7875  2.4108 -0.1384
33933TIP3    H2 2682   4.440   7.881   4.736 -0.1246  0.0124  0.4740
33934TIP3   OH2 2683  10.342   9.828   4.806  0.2409 -0.8193 -0.8099
33934TIP3    H1 2684  10.305   9.910   4.840  0.0638 -0.7069 -1.2721
33934TIP3    H2 2685  10.425   9.819   4.853 -0.2769 -0.9838  0.1081
33935TIP3   OH2 2686   3.271   6.115   3.937 -0.0257  0.2934  0.3947
33935TIP3    H1 2687   3.356   6.121   3.892  0.6406  1.8799  1.7696
33935TIP3    H2 2688   3.290   6.061   4.014 -0.8174 -1.1933 -0.4197
33936TIP3   OH2 2689   9.406   2.246   6.677 -0.2854  0.5239  0.2418
33936TIP3    H1 2690   9.471   2.316   6.676  0.2899  0.0279 -1.5986
33936TIP3    H2 2691   9.341   2.273   6.613  0.4619 -1.0119 -1.2629
33937TIP3   OH2 2692   5.139   1.923   1.156 -0.2956 -0.3785  1.0375
33937TIP3    H1 2693   5.094   2.008   1.163  1.2233  0.5322  0.2319
33937TIP3    H2 2694   5.232   1.945   1.152  0.2099 -2.1681  1.9245
33938TIP3   OH2 2695   2.891   1.995   6.864 -0.0133 -0.1415 -0.4075
33938TIP3    H1 2696   2.829   2.057   6.901 -0.4621 -1.3032  0.8583
33938TIP3    H2 2697   2.926   1.948   6.939 -0.2484 -1.9415 -1.3591
33939TIP3   OH2 2698   1.112   8.471   8.004  0.3488  0.3752  0.2831
33939TIP3    H1 2699   1.095   8.557   7.965  1.0687  0.1190 -0.6058
33939TIP3    H2 2700   1.203   8.452   7.983 -0.3023 -1.4434 -1.1497
33940TIP3   OH2 2701   8.732   2.728   3.338  0.5848  0.2769 -0.6744
33940TIP3    H1 2702   8.789   2.754   3.410  0.1828 -1.5733  0.3804
33940TIP3    H2 2703   8.777   2.655   3.296 -0.8928 -1.1594  0.1249
33941TIP3   OH2 2704   2.878   1.003   3.871 -0.1514 -0.2622 -0.4478
33941TIP3    H1 2705   2.896   1.025   3.780 -0.3933 -0.5866 -0.5752
33941TIP3    H2 2706   2.959   0.964   3.903 -0.5690 -1.6069 -0.9827
33942TIP3   OH2 2707   4.565   5.393   8.996 -0.0524 -0.0109 -0.5607
33942TIP3    H1 2708   4.599   5.462   9.052  0.8099 -0.3055 -0.7027
33942TIP3    H2 2709   4.604   5.313   9.031 -2.3241 -0.6812  0.6454
33943TIP3   OH2 2710  10.766   5.361   3.790  0.1559 -0.3774 -0.3287
33943TIP3    H1 2711  10.822   5.416   3.735  1.2051 -0.4145  0.6699
33943TIP3    H2 2712  10.823   5.289   3.818 -1.1449 -1.9476 -1.4860
33944TIP3   OH2 2713   9.079   3.785   0.010 -0.1305  0.4458  0.1818
33944TIP3    H1 2714   9.038   3.866   0.041 -1.5932 -0.5529  1.0021
33944TIP3    H2 2715   9.171   3.808  -0.004  0.0502  1.6476  2.7604
33945TIP3   OH2 2716   6.298   0.422   1.926  0.1867  0.0050 -0.0614
33945TIP3    H1 2717   6.249   0.404   2.006  0.2934  0.9818  0.2393
33945TIP3    H2 2718   6.285   0.345   1.871 -1.4584  0.1314  0.1139
33946TIP3   OH2 2719  10.422   0.479   4.537 -0.5594 -0.0339 -0.5872
33946TIP3    H1 2720  10.371   0.454   4.614  0.6105 -0.7483 -0.0131
33946TIP3    H2 2721  10.418   0.575   4.536  0.4253  0.0683  1.1279
33947TIP3   OH2 2722   2.142   1.826   2.437 -0.1896 -0.1199  1.0048
33947TIP3    H1 2723   2.230   1.854   2.465 -0.4112  1.2004  0.4480
33947TIP3    H2 2724   2.132   1.738   2.475  1.4396 -0.3778  0.9267
33948TIP3   OH2 2725   5.676   9.586   8.439 -0.3192  0.6255 -0.6012
33948TIP3    H1 2726   5.612   9.651   8.409 -0.7385  0.4530 -0.0802
33948TIP3    H2 2727   5.682   9.601   8.533 -1.3431 -0.9120 -0.2697
33949TIP3   OH2 2728   5.673   6.280   2.997 -0.2104 -0.4607 -0.0740
33949TIP3    H1 2729   5.627   6.258   2.916  0.3958 -0.9224 -0.3005
33949TIP3    H2 2730   5.762   6.249   2.983  0.4978  1.4475 -0.1115
33950TIP3   OH2 2731  10.783   4.479   5.569  0.1148 -0.1101 -0.1347
33950TIP3    H1 2732  10.700   4.432   5.571  0.1285 -0.4401 -2.8521
33950TIP3    H2 2733  10.792   4.507   5.478  1.1648  3.3182  0.8661
33951TIP3   OH2 2734   2.964   5.015   6.552  0.1797  0.2181 -0.4612
33951TIP3    H1 2735   3.002   4.949   6.494 -0.5228 -0.1898 -0.4646
33951TIP3    H2 2736   3.028   5.087   6.551  0.2719  0.1400 -1.5761
33952TIP3   OH2 2737   2.612   3.524   6.015 -0.4006 -0.3390 -0.0851
33952TIP3    H1 2738   2.528   3.518   5.970 -0.8035 -1.1595  0.7329
33952TIP3    H2 2739   2.661   3.588   5.965 -1.4381  0.0065 -0.7041
33953TIP3   OH2 2740   2.481   2.459   0.430 -0.2631  0.1545 -0.4692
33953TIP3    H1 2741   2.511   2.509   0.354 -0.7048 -0.5805 -1.1400
33953TIP3    H2 2742   2.549   2.393   0.444 -0.0663  0.4369 -0.0725
33954TIP3   OH2 2743   7.445   5.560   9.321  0.0342 -0.0518 -0.5629
33954TIP3    H1 2744   7.355   5.535   9.301  0.0444 -1.3828  0.8531
33954TIP3    H2 2745   7.440   5.604   9.405  0.7251 -0.3093 -0.3793
33955TIP3   OH2 2746   9.795   7.684   1.830  0.2808 -0.2305 -0.2872
33955TIP3    H1 2747   9.870   7.742   1.818 -0.6284  1.2678  0.9202
33955TIP3    H2 2748   9.722   7.729   1.786 -0.4652 -0.3459  0.7868
33956TIP3   OH2 2749   0.525   8.415   9.295  0.1763  0.0254  0.4658
33956TIP3    H1 2750   0.509   8.408   9.389 -2.3061 -0.1279  0.0963
33956TIP3    H2 2751   0.489   8.335   9.258  2.6114 -0.7126 -0.5199
33957TIP3   OH2 2752   4.216   1.753  10.333  0.2952 -0.7383 -0.2189
33957TIP3    H1 2753   4.291   1.812  10.345  1.7281 -2.5506  0.0614
33957TIP3    H2 2754   4.140   1.812  10.331  1.5999  1.0725  0.5515
33958TIP3   OH2 2755   5.226   2.048   3.397 -0.4117  0.4678 -0.0565
33958TIP3    H1 2756   5.183   2.111   3.454 -0.8631 -0.9447  1.2248
33958TIP3    H2 2757   5.260   2.100   3.324  1.6942  2.6378  2.2917
33959TIP3   OH2 2758   3.761   6.661   1.021  0.2240  0.2299 -0.5051
33959TIP3    H1 2759   3.743   6.694   1.109  1.6159 -0.3807  0.0389
33959TIP3    H2 2760   3.734   6.732   0.963 -1.2462  0.4211  0.3637
33960TIP3   OH2 2761   9.674   3.669  10.256 -0.1799 -0.2830 -0.9429
33960TIP3    H1 2762   9.627   3.587  10.272  0.6553 -0.6025  0.0296
33960TIP3    H2 2763   9.761   3.654  10.293  0.7274  0.2620 -2.7232
33961TIP3   OH2 2764   0.943   2.358   2.552  0.5151  0.0089 -0.6636
33961TIP3    H1 2765   1.028   2.329   2.586  0.8869  0.9848 -0.7454
33961TIP3    H2 2766   0.949   2.342   2.457  0.4768 -0.2209 -0.6293
33962TIP3   OH2 2767   4.086   9.165   3.968 -0.2873  0.0108 -0.7724
33962TIP3    H1 2768   4.049   9.253   3.980 -1.2182 -0.5517  0.7181
33962TIP3    H2 2769   4.179   9.181   3.955 -0.3688  1.2118 -0.0952
33963TIP3   OH2 2770   5.119   2.715   7.965 -0.1372  0.1495  0.9310
33963TIP3    H1 2771   5.153   2.632   7.998  1.6724  0.1672 -0.7182
33963TIP3    H2 2772   5.024   2.708   7.979 -0.4319 -3.3199 -1.2743
33964TIP3   OH2 2773   3.824  10.176   3.459 -0.1092 -0.6215  0.4050
33964TIP3    H1 2774   3.874  10.206   3.535  3.0450 -0.9768 -1.3487
33964TIP3    H2 2775   3.834  10.246   3.394 -0.3743 -1.4851 -0.5997
33965TIP3   OH2 2776   0.413   7.756   4.137  0.5349 -0.1007 -0.2818
33965TIP3    H1 2777   0.334   7.810   4.141  0.2585 -0.5152  0.0570
33965TIP3    H2 2778   0.477   7.809   4.091  0.3365  0.6086  0.2390
33966TIP3   OH2 2779  10.556   8.811  10.441 -0.0544  0.6894  0.1043
33966TIP3    H1 2780  10.504   8.888  10.463  1.1657  1.6065 -0.1435
33966TIP3    H2 2781  10.642   8.845  10.419  0.2103 -0.6473 -1.1097
33967TIP3   OH2 2782   1.605   2.663   2.616 -0.3713  0.0947  0.3271
33967TIP3    H1 2783   1.628   2.699   2.530  0.6067 -0.2205  0.4373
33967TIP3    H2 2784   1.510   2.651   2.613 -0.6985  2.4158  0.2042
33968TIP3   OH2 2785  10.010  10.502   8.844  0.5627  0.4873  0.1126
33968TIP3    H1 2786  10.024  10.505   8.750 -2.4585  1.1466 -0.4301
33968TIP3    H2 2787   9.940  10.565   8.860  0.5273 -0.0813  2.7248
33969TIP3   OH2 2788   6.734   9.817   9.204 -0.5736 -0.0118 -0.1006
33969TIP3    H1 2789   6.784   9.736   9.210 -0.5668  0.0512  0.9636
33969TIP3    H2 2790   6.665   9.807   9.271 -0.6628  0.7917 -0.0626
33970TIP3   OH2 2791   1.874   9.542   8.511 -0.1115 -0.1288 -0.0997
33970TIP3    H1 2792   1.884   9.446   8.507 -1.2549 -0.2799  0.4032
33970TIP3    H2 2793   1.815   9.563   8.438 -0.8965  0.0337  0.5739
33971TIP3   OH2 2794   8.071   7.354   1.545  0.1203  0.3925 -0.1718
33971TIP3    H1 2795   8.009   7.292   1.582 -0.2424 -0.3307 -1.8851
33971TIP3    H2 2796   8.034   7.441   1.564 -0.4239  0.0277  0.4578
33972TIP3   OH2 2797   3.239   6.520   5.429 -0.2917 -0.0907 -0.5489
33972TIP3    H1 2798   3.299   6.469   5.374 -0.6276  1.2326 -2.2195
33972TIP3    H2 2799   3.209   6.591   5.373 -1.5044  0.7241  1.0386
33973TIP3   OH2 2800   3.012   8.904   8.254 -0.0842  0.6309  0.4441
33973TIP3    H1 2801   2.993   8.891   8.161 -0.1957 -0.3783  0.6000
33973TIP3    H2 2802   3.072   8.833   8.276 -0.6711  0.3997  1.3310
33974TIP3   OH2 2803   4.047   0.328   7.555 -0.2780  0.6022 -0.4928
33974TIP3    H1 2804   3.957   0.304   7.533 -0.2332 -0.6574  0.5481
33974TIP3    H2 2805   4.098   0.308   7.476 -0.8048  0.6497 -0.8455
33975TIP3   OH2 2806   9.293   5.944   5.770 -0.5507 -0.5073  0.0524
33975TIP3    H1 2807   9.326   5.916   5.684 -4.7516 -2.1828 -1.2942
33975TIP3    H2 2808   9.210   5.987   5.751  0.4630  3.3360  3.0888
33976TIP3   OH2 2809   7.624   3.034   3.907 -0.1633 -0.1932 -0.3792
33976TIP3    H1 2810   7.688   2.964   3.916  1.8717  1.4583 -1.0788
33976TIP3    H2 2811   7.586   3.045   3.994  1.3051 -0.5237  0.3163
33977TIP3   OH2 2812   7.180   2.463   9.471 -0.0658  0.0302 -0.2366
33977TIP3    H1 2813   7.161   2.554   9.493  0.1764  0.1520 -0.5138
33977TIP3    H2 2814   7.098   2.429   9.435  0.0677  0.3804 -0.8909
33978TIP3   OH2 2815   2.163   1.760   3.964 -0.2758 -0.7663 -0.1114
33978TIP3    H1 2816   2.113   1.841   3.976  1.0934 -0.0084  0.8854
33978TIP3    H2 2817   2.182   1.731   4.053  3.2638  0.4662 -0.2843
33979TIP3   OH2 2818   0.908   9.135   6.851  0.0429  0.0076  0.6832
33979TIP3    H1 2819   0.859   9.196   6.905  1.1790  2.2182 -0.6562
33979TIP3    H2 2820   0.971   9.095   6.911  0.8361  1.9014  1.1720
33980TIP3   OH2 2821   9.871   3.914   8.866  0.0018  0.0524  0.1716
33980TIP3    H1 2822   9.925   3.844   8.902  4.2466  1.8001 -2.0332
33980TIP3    H2 2823   9.823   3.874   8.794  1.3925 -0.9211 -0.2598
33981TIP3   OH2 2824   6.861   6.704  10.691  0.7083 -0.3449 -0.4800
33981TIP3    H1 2825   6.819   6.663  10.766 -0.9071  1.6409 -0.2309
33981TIP3    H2 2826   6.809   6.676  10.615  0.7083 -0.2211 -0.5266
33982TIP3   OH2 2827  10.031   9.811   4.960  0.1796  0.0132  0.2611
33982TIP3    H1 2828  10.099   9.874   4.937 -0.2295  0.4700  0.2839
33982TIP3    H2 2829  10.066   9.726   4.934  1.1917  0.1184  1.2149
33983TIP3   OH2 2830   6.769   6.917   4.866  0.5658  0.0003  0.0493
33983TIP3    H1 2831   6.678   6.890   4.876  0.2535  0.3253 -1.7441
33983TIP3    H2 2832   6.766   7.012   4.860  1.3723  0.3441  3.0693
33984TIP3   OH2 2833   9.458   2.105   8.447 -0.3313  0.0915  0.5950
33984TIP3    H1 2834   9.440   2.084   8.539  0.3518  1.4318  1.0674
33984TIP3    H2 2835   9.406   2.184   8.431  0.3597  0.4650  0.1553
33985TIP3   OH2 2836   6.266   4.285   9.308  0.2263 -0.0363 -0.2600
33985TIP3    H1 2837   6.270   4.362   9.364 -2.0183  1.0973 -1.5280
33985TIP3    H2 2838   6.325   4.304   9.235  0.9799 -0.2914  0.2717
33986TIP3   OH2 2839   8.659   7.171   7.148  0.0413  0.2802  0.1616
33986TIP3    H1 2840   8.644   7.087   7.191 -0.4689  1.5117  2.6228
33986TIP3    H2 2841   8.754   7.176   7.138  0.3269  0.3478  2.2742
33987TIP3   OH2 2842   8.581   1.863   9.534  0.2774 -0.1288 -0.3953
33987TIP3    H1 2843   8.500   1.914   9.529 -0.0507 -0.6831 -0.8049
33987TIP3    H2 2844   8.648   1.928   9.553 -0.3340  0.2712  0.5073
33988TIP3   OH2 2845   4.775   3.797  10.733  0.4609  0.1761  0.3207
33988TIP3    H1 2846   4.732   3.855  10.670  0.4591 -0.8542 -0.6622
33988TIP3    H2 2847   4.740   3.824  10.818 -0.2726  0.9695 -0.2128
33989TIP3   OH2 2848   0.064   2.226   1.101 -0.1789 -0.1338 -0.9492
33989TIP3    H1 2849   0.151   2.219   1.062 -0.3267 -1.7124 -1.0607
33989TIP3    H2 2850   0.079   2.212   1.195  0.0015  2.3025 -0.5548
33990TIP3   OH2 2851   7.425   5.944   3.852 -0.5189  0.6425 -0.0821
33990TIP3    H1 2852   7.332   5.928   3.866 -0.7208  1.8230  0.0099
33990TIP3    H2 2853   7.438   5.930   3.758 -0.5442 -0.6408  0.0914
33991TIP3   OH2 2854   7.463  10.390   7.446  0.4514 -0.6882 -0.5345
33991TIP3    H1 2855   7.476  10.324   7.515  0.1888 -0.0582  0.1288
33991TIP3    H2 2856   7.372  10.418   7.456  0.7420  0.2447 -0.3873
33992TIP3   OH2 2857   1.308   3.085   7.166  0.3394  0.3203 -0.1441
33992TIP3    H1 2858   1.351   3.122   7.243  2.4598  0.6502 -1.4096
33992TIP3    H2 2859   1.379   3.044   7.116 -1.3602 -2.2705 -0.6490
33993TIP3   OH2 2860   0.932   3.882  10.547 -0.1297  0.0021 -0.5748
33993TIP3    H1 2861   0.866   3.943  10.582  0.0851  0.0183 -0.1892
33993TIP3    H2 2862   0.967   3.927  10.470 -0.4871  0.0437 -0.7154
33994TIP3   OH2 2863   6.909   9.680   4.421 -0.4458 -0.4163  0.0551
33994TIP3    H1 2864   6.942   9.632   4.344 -1.5120 -1.5109  0.2485
33994TIP3    H2 2865   6.816   9.694   4.402 -0.8980 -1.3204  1.4186
33995TIP3   OH2 2866   9.271   9.316   7.255  0.1338 -0.6216  0.0962
33995TIP3    H1 2867   9.361   9.285   7.245  0.7583  1.5204 -1.9502
33995TIP3    H2 2868   9.261   9.382   7.186 -2.4605  0.4618  1.3751
33996TIP3   OH2 2869   7.112   9.617   6.893 -0.2466  0.1732 -0.4558
33996TIP3    H1 2870   7.110   9.574   6.807 -1.8077 -0.1184 -0.2971
33996TIP3    H2 2871   7.191   9.583   6.935 -0.7638 -1.5715 -0.8296
33997TIP3   OH2 2872   3.110   2.332  10.499 -0.1392 -0.0511  0.4117
33997TIP3    H1 2873   3.185   2.328  10.558  0.6936 -0.2221 -0.6187
33997TIP3    H2 2874   3.059   2.407  10.530 -0.1737 -0.6274  1.8374
33998TIP3   OH2 2875   7.069   1.365   7.169  0.5357  0.1694  0.8631
33998TIP3    H1 2876   6.996   1.307   7.148  0.5298  0.0660  1.1749
33998TIP3    H2 2877   7.124   1.364   7.090  0.5092 -0.2119  0.8502
33999TIP3   OH2 2878   2.948   9.500   9.008 -0.1549 -0.3171 -0.2184
33999TIP3    H1 2879   2.982   9.537   9.089 -0.2712 -1.2059  0.2437
33999TIP3    H2 2880   3.026   9.467   8.962  0.1659  1.8098 -1.3667
34000TIP3   OH2 2881   0.345   0.485   6.420 -0.0793  0.0031 -0.3671
34000TIP3    H1 2882   0.407   0.529   6.479 -1.7128  3.1622 -0.7864
34000TIP3    H2 2883   0.393   0.408   6.388  2.7978  1.0927  0.9577
34001TIP3   OH2 2884   7.093   8.430   4.705  0.2901 -0.7522  0.4121
34001TIP3    H1 2885   7.143   8.415   4.624 -0.1930 -0.6517  0.0858
34001TIP3    H2 2886   7.046   8.348   4.720 -0.7994 -0.2740 -0.2631
34002TIP3   OH2 2887   3.050   1.216   2.081 -0.1944  0.4567  0.9285
34002TIP3    H1 2888   2.977   1.187   2.136  0.5276 -1.0927  1.1154
34002TIP3    H2 2889   3.117   1.245   2.143  0.4335 -0.8406  0.8996
34003TIP3   OH2 2890   0.004   3.527   1.815  0.7750 -0.1703 -0.0359
34003TIP3    H1 2891   0.047   3.565   1.739  1.2151  0.3422  0.4539
34003TIP3    H2 2892  -0.020   3.603   1.869 -2.5530 -0.2523 -1.1912
34004TIP3   OH2 2893   6.517   9.100   0.394 -0.1606  0.4412 -0.6626
34004TIP3    H1 2894   6.516   9.035   0.324 -0.7734 -0.5880  0.2759
34004TIP3    H2 2895   6.547   9.053   0.471  0.1577  1.4741 -0.1378
34005TIP3   OH2 2896   9.946   8.882   5.876 -0.4126  0.0592 -0.0865
34005TIP3    H1 2897   9.918   8.804   5.925 -1.3187  0.6235  0.3347
34005TIP3    H2 2898   9.875   8.945   5.890  0.2570  0.9244 -0.5073
34006TIP3   OH2 2899   6.643   8.651   1.434 -0.2167  0.2602 -0.4755
34006TIP3    H1 2900   6.605   8.709   1.368 -2.8381 -0.0288  0.6528
34006TIP3    H2 2901   6.576   8.583   1.447  2.0077 -2.0958 -0.5154
34007TIP3   OH2 2902   1.207   0.086   7.650  0.1943  0.1357  0.3213
34007TIP3    H1 2903   1.204   0.064   7.556  0.1114  0.1912  0.3113
34007TIP3    H2 2904   1.300   0.103   7.667 -0.0461  2.3766 -0.2695
34008TIP3   OH2 2905   6.643   2.770   3.783  0.3079 -0.1926 -0.0218
34008TIP3    H1 2906   6.647   2.846   3.725  0.0092  0.0161  0.2282
34008TIP3    H2 2907   6.733   2.757   3.812  0.2383  0.5758  0.5832
34009TIP3   OH2 2908  10.764   8.673   7.066  0.7136 -0.0511 -0.2628
34009TIP3    H1 2909  10.723   8.586   7.058  0.0702 -0.1912  3.1894
34009TIP3    H2 2910  10.843   8.667   7.012 -0.4367 -1.9835 -1.8950
34010TIP3   OH2 2911   0.033   1.927   8.211 -0.8438  0.0805 -0.1008
34010TIP3    H1 2912   0.126   1.921   8.234 -1.0286 -2.9256  0.2943
34010TIP3    H2 2913  -0.011   1.949   8.294 -0.5140  2.0793 -0.4015
34011TIP3   OH2 2914  10.212   5.819   8.151  0.7778  0.2221 -0.4836
34011TIP3    H1 2915  10.239   5.809   8.059  1.9360 -0.0592 -0.1212
34011TIP3    H2 2916  10.293   5.810   8.201  0.1792  0.5400  0.5651
34012TIP3   OH2 2917   8.812   2.083   8.503 -0.2179  0.3964 -0.1460
34012TIP3    H1 2918   8.846   2.050   8.587 -0.7234  1.4081  0.4832
34012TIP3    H2 2919   8.719   2.100   8.520 -0.4895 -0.0516 -1.1348
34013TIP3   OH2 2920   5.769  10.006   3.076 -0.1927  0.4561 -0.4991
34013TIP3    H1 2921   5.770   9.958   3.158 -1.3276 -1.2303 -1.4237
34013TIP3    H2 2922   5.850   9.980   3.031 -1.1876 -1.3303 -1.3537
34014TIP3   OH2 2923   1.657   1.963   7.979  0.0761 -0.1307  0.2897
34014TIP3    H1 2924   1.704   1.880   7.995  0.0476 -0.3673 -0.7946
34014TIP3    H2 2925   1.725   2.024   7.951  0.0544  0.1419  0.8228
34015TIP3   OH2 2926   5.870   3.315   5.601  0.0651  0.2091  0.4961
34015TIP3    H1 2927   5.802   3.333   5.536 -0.0507  0.6986  0.7505
34015TIP3    H2 2928   5.940   3.273   5.551  0.1732  0.9956 -0.0366
34016TIP3   OH2 2929   5.151   3.118   9.507  0.1586 -0.4385 -0.5560
34016TIP3    H1 2930   5.144   3.200   9.458  1.4409 -0.2385 -0.4474
34016TIP3    H2 2931   5.070   3.114   9.558  0.7186  1.5732  0.6318
34017TIP3   OH2 2932   0.282   8.236   8.264 -0.5952  0.2906  0.7728
34017TIP3    H1 2933   0.202   8.254   8.314 -0.6980 -1.0525  1.1441
34017TIP3    H2 2934   0.252   8.222   8.175 -0.9596 -1.3495  1.1171
34018TIP3   OH2 2935   9.440   8.964   2.966 -0.0242 -0.1618  0.2333
34018TIP3    H1 2936   9.423   8.894   2.902 -0.0336 -0.0955  0.1634
34018TIP3    H2 2937   9.519   8.935   3.012  1.0283  0.6479 -1.0149
34019TIP3   OH2 2938   4.408   3.863   4.418  0.3135 -0.2764 -0.4591
34019TIP3    H1 2939   4.396   3.793   4.354 -0.1767  1.3893 -2.2947
34019TIP3    H2 2940   4.376   3.826   4.500 -1.2451 -1.7561 -1.6509
34020TIP3   OH2 2941   4.280   6.811   9.541  0.4024 -0.2000  0.5288
34020TIP3    H1 2942   4.267   6.718   9.523 -1.9291  0.3834 -1.2880
34020TIP3    H2 2943   4.231   6.827   9.621  0.4009 -0.4491  0.5791
34021TIP3   OH2 2944   5.429  10.796   0.526  0.1270  0.6840  0.1251
34021TIP3    H1 2945   5.468  10.800   0.613  0.8727 -0.2656 -0.1569
34021TIP3    H2 2946   5.346  10.750   0.538  0.8954 -0.7493  0.1216
34022TIP3   OH2 2947   9.335   0.248   6.382 -0.0712  0.6640 -0.0028
34022TIP3    H1 2948   9.408   0.297   6.345  1.0874 -1.3066 -0.4647
34022TIP3    H2 2949   9.376   0.181   6.436 -1.4397 -1.2260 -1.1822
34023TIP3   OH2 2950   7.668   1.279   3.912 -0.2335  0.0128 -0.1764
34023TIP3    H1 2951   7.597   1.338   3.891 -0.4494  0.1151  0.7904
34023TIP3    H2 2952   7.742   1.336   3.933 -0.2999 -0.0563  0.2660
34024TIP3   OH2 2953   3.923   3.790   5.398  0.3320  0.7450 -0.3726
34024TIP3    H1 2954   3.869   3.711   5.391  2.0813 -0.6581  1.1337
34024TIP3    H2 2955   3.878   3.854   5.342 -0.5266 -1.6379 -2.6499
34025TIP3   OH2 2956  10.314  10.378   5.098 -0.2759 -0.6904 -0.2581
34025TIP3    H1 2957  10.243  10.442   5.106  0.2326 -0.0996 -0.4404
34025TIP3    H2 2958  10.320  10.361   5.004 -1.4758 -2.2306 -0.0932
34026TIP3   OH2 2959   0.605   9.639   3.987  0.5104  0.6929  0.1109
34026TIP3    H1 2960   0.591   9.557   3.939 -1.8516  1.6720 -1.0796
34026TIP3    H2 2961   0.666   9.689   3.932  1.0983  0.1740  0.2840
34027TIP3   OH2 2962  10.815  10.709   4.960 -0.5275  0.0479 -0.0942
34027TIP3    H1 2963  10.857  10.793   4.978  1.6362 -1.2264  1.2385
34027TIP3    H2 2964  10.837  10.691   4.869 -1.1927  0.9882 -0.4596
34028TIP3   OH2 2965   1.281   0.511   9.755  0.0436  0.0789  0.4534
34028TIP3    H1 2966   1.229   0.556   9.689  0.8403 -0.0343 -0.2626
34028TIP3    H2 2967   1.336   0.579   9.793 -0.7118  0.2279  1.3187
34029TIP3   OH2 2968   7.028   2.493   2.227  0.1653  0.2835  0.0825
34029TIP3    H1 2969   6.980   2.455   2.300 -0.2362  0.9932  0.1948
34029TIP3    H2 2970   7.087   2.557   2.267  1.3997 -0.7266 -0.0247
34030TIP3   OH2 2971   7.384   6.749   8.509 -0.3086  0.4385  0.1594
34030TIP3    H1 2972   7.449   6.689   8.547  0.5550  1.8708  1.0901
34030TIP3    H2 2973   7.358   6.708   8.427  1.5819 -0.3443 -0.1085
34031TIP3   OH2 2974   1.450   4.280   6.904  0.1575  0.6369  0.5761
34031TIP3    H1 2975   1.430   4.250   6.992 -0.4463  0.0794  0.2574
34031TIP3    H2 2976   1.396   4.358   6.892  0.7975  1.1453  0.9611
34032TIP3   OH2 2977   4.972   1.744   1.026  0.1209  0.7104 -0.6054
34032TIP3    H1 2978   5.032   1.810   1.062  0.2806  1.1261 -1.6128
34032TIP3    H2 2979   5.009   1.722   0.941 -1.7351  1.8114 -1.7757
34033TIP3   OH2 2980   1.622   3.089   9.977  0.1428 -0.4062  0.4637
34033TIP3    H1 2981   1.665   3.064  10.058 -2.4106  1.5954  2.6309
34033TIP3    H2 2982   1.645   3.020   9.915  2.4041 -1.9117  2.7755
34034TIP3   OH2 2983   5.003   1.775   6.537  0.5383 -0.5514  0.1497
34034TIP3    H1 2984   5.055   1.708   6.492  0.9387 -0.5393  0.5888
34034TIP3    H2 2985   4.989   1.843   6.472 -1.5483 -1.9080 -0.9545
34035TIP3   OH2 2986   4.446   6.797   8.375 -0.3141 -0.0290 -0.4334
34035TIP3    H1 2987   4.446   6.730   8.444  0.2420 -0.5552 -0.9353
34035TIP3    H2 2988   4.520   6.853   8.396  0.8608 -1.1396 -1.4916
34036TIP3   OH2 2989   9.371   9.282   5.951  0.2943  0.2278 -0.5814
34036TIP3    H1 2990   9.365   9.208   5.891  0.9410  0.5460 -1.0472
34036TIP3    H2 2991   9.285   9.285   5.994 -0.0098 -0.2969 -1.1355
34037TIP3   OH2 2992   3.971  10.652   7.553 -0.1067  0.2375  0.3402
34037TIP3    H1 2993   3.936  10.741   7.551 -3.6699 -1.0001 -0.6749
34037TIP3    H2 2994   3.959  10.620   7.464 -0.3125 -1.7276  1.0263
34038TIP3   OH2 2995   3.606   1.554   3.660  0.0390  0.4225 -0.5093
34038TIP3    H1 2996   3.695   1.533   3.631 -0.1301  0.7022 -1.2485
34038TIP3    H2 2997   3.558   1.572   3.580 -0.9870 -0.8431 -0.1976
34039TIP3   OH2 2998   3.707   8.659   3.595 -0.4123  0.1272 -0.2815
34039TIP3    H1 2999   3.656   8.740   3.586  0.1644  0.3812 -1.3596
34039TIP3    H2 3000   3.651   8.592   3.555 -0.7357  0.0385  0.2973
34040TIP3   OH2 3001   3.383   1.389   7.936  1.0115 -0.2211 -0.3526
34040TIP3    H1 3002   3.372   1.297   7.912  1.2988 -0.2330 -0.4345
34040TIP3    H2 3003   3.468   1.393   7.979 -0.2861 -0.5918  2.5489
34041TIP3   OH2 3004  10.170  10.143   5.498  0.0827  0.5328  0.4002
34041TIP3    H1 3005  10.095  10.194   5.529  0.6418  1.9456 -0.4649
34041TIP3    H2 3006  10.140  10.052   5.500 -1.6341  1.0544  0.1456
34042TIP3   OH2 3007   6.552   8.836   3.955 -0.6197 -0.6880 -0.5228
34042TIP3    H1 3008   6.560   8.746   3.987  1.4702 -0.6928 -0.9545
34042TIP3    H2 3009   6.566   8.890   4.033  1.0516 -0.7352 -0.7642
34043TIP3   OH2 3010   3.595   1.194   0.951 -0.3077  0.5760 -0.1420
34043TIP3    H1 3011   3.691   1.191   0.953 -0.3363 -0.3578  0.6788
34043TIP3    H2 3012   3.568   1.117   1.001 -1.4833  1.0932  0.0475
34044TIP3   OH2 3013   8.892   5.357   3.646  0.0028  0.6715 -0.5308
34044TIP3    H1 3014   8.926   5.351   3.557 -2.1622  0.1029 -1.3815
34044TIP3    H2 3015   8.828   5.429   3.643 -0.5790  0.2121  0.3863
34045TIP3   OH2 3016   5.533  10.214   3.973 -0.2066 -0.1113 -0.3944
34045TIP3    H1 3017   5.623  10.245   3.985 -0.1988  0.6254 -1.9932
34045TIP3    H2 3018   5.485  10.248   4.049  0.0145  3.1900 -1.5403
34046TIP3   OH2 3019   7.583   8.742  10.058 -0.2469  0.3482  0.3655
34046TIP3    H1 3020   7.618   8.805   9.995 -0.2791  0.6063  0.6049
34046TIP3    H2 3021   7.550   8.671  10.004 -0.0517  0.4561  0.1017
34047TIP3   OH2 3022   0.244   1.202   9.354 -0.6282  0.1831 -0.0508
34047TIP3    H1 3023   0.275   1.223   9.442 -1.6425  0.3342  0.2840
34047TIP3    H2 3024   0.184   1.129   9.366  1.5175 -1.8525 -1.0011
34048TIP3   OH2 3025   4.831   2.921   1.104 -0.0214 -0.0544 -0.2263
34048TIP3    H1 3026   4.913   2.875   1.124 -0.8650 -0.8302  1.6413
34048TIP3    H2 3027   4.857   3.011   1.088  1.2483 -0.3775 -0.1061
34049TIP3   OH2 3028  10.796   7.926   8.761 -0.5839 -0.2830  0.1753
34049TIP3    H1 3029  10.855   7.972   8.702 -1.6264 -0.3627 -0.9624
34049TIP3    H2 3030  10.781   7.987   8.833  0.6231 -0.1531  0.3394
34050TIP3   OH2 3031   9.733  10.875  10.515 -0.2397  0.0675 -0.4447
34050TIP3    H1 3032   9.750  10.819  10.439  1.5751  0.2950 -0.2473
34050TIP3    H2 3033   9.799  10.944  10.509 -1.4059  1.2943  0.2185
34051TIP3   OH2 3034   5.208   1.556   7.911  0.2106 -0.4968 -0.1851
34051TIP3    H1 3035   5.278   1.495   7.890 -0.6878 -0.6906 -3.0172
34051TIP3    H2 3036   5.130   1.518   7.870 -0.7190  1.7118 -0.6120
34052TIP3   OH2 3037   8.815   3.494   1.652  0.1827 -0.5399 -0.2875
34052TIP3    H1 3038   8.796   3.491   1.746  1.1844 -3.4641 -0.0797
34052TIP3    H2 3039   8.767   3.570   1.620 -0.4476  0.3511  2.5247
34053TIP3   OH2 3040   7.047   1.146  10.051  0.1911 -0.5490 -0.4532
34053TIP3    H1 3041   6.951   1.140  10.056  0.0634  0.0121 -1.8151
34053TIP3    H2 3042   7.078   1.070  10.101 -0.8657  0.9069  2.7012
34054TIP3   OH2 3043   5.681   4.997   3.251  0.2968  0.3437  0.4309
34054TIP3    H1 3044   5.587   4.996   3.266  0.4153  0.1744  1.1915
34054TIP3    H2 3045   5.719   4.957   3.330  1.0140  0.5422  0.1980
34055TIP3   OH2 3046  10.890   3.076   6.284  0.1985  0.3326  0.0275
34055TIP3    H1 3047  10.971   3.122   6.304  0.6032  0.2293 -1.3020
34055TIP3    H2 3048  10.882   3.082   6.189 -2.2614  1.8945  0.2237
34056TIP3   OH2 3049   7.990   1.958   5.691  0.5615  0.4962  0.1480
34056TIP3    H1 3050   8.020   1.929   5.777 -1.4820 -1.1917  0.3616
34056TIP3    H2 3051   7.987   2.053   5.698  2.6738  0.5388  1.1301
34057TIP3   OH2 3052   9.531   5.422   2.251 -0.0124  0.3658  0.7278
34057TIP3    H1 3053   9.506   5.335   2.282  0.0506  0.8276  2.1777
34057TIP3    H2 3054   9.624   5.430   2.274  0.2702  0.4229 -0.3766
34058TIP3   OH2 3055   4.545   2.826  10.236 -0.2538 -0.1163 -0.0160
34058TIP3    H1 3056   4.610   2.887  10.271 -1.6686  0.3347  2.0334
34058TIP3    H2 3057   4.499   2.793  10.313 -2.0341 -0.8950 -1.3332
34059TIP3   OH2 3058   8.055   2.905   9.770  0.7355  0.3643 -0.0938
34059TIP3    H1 3059   8.091   2.945   9.690  1.4163 -0.2859 -0.1193
34059TIP3    H2 3060   7.975   2.860   9.740  0.7701  0.4568 -0.3315
34060TIP3   OH2 3061   2.550   8.659   2.340 -0.0072  0.2345  0.9013
34060TIP3    H1 3062   2.534   8.576   2.296 -0.5854 -0.1800  1.8464
34060TIP3    H2 3063   2.497   8.654   2.420  0.2209  1.3670  1.1439
34061TIP3   OH2 3064   3.395   0.427   0.373  0.2665 -0.9950 -0.3987
34061TIP3    H1 3065   3.416   0.343   0.331 -0.4507 -1.6257  0.4597
34061TIP3    H2 3066   3.476   0.479   0.366  0.1001 -0.9704 -2.7512
34062TIP3   OH2 3067   1.325  10.878   8.049 -0.3800  0.4913  0.5899
34062TIP3    H1 3068   1.402  10.905   8.098  1.2673 -2.7618  0.0302
34062TIP3    H2 3069   1.289  10.805   8.099  0.2926 -1.7240 -1.9439
34063TIP3   OH2 3070   1.084   1.467   7.878  0.2158 -0.5485  0.1380
34063TIP3    H1 3071   1.089   1.562   7.893  1.9502 -0.8237  1.6843
34063TIP3    H2 3072   1.119   1.455   7.790  1.3618  0.1607  0.4696
34064TIP3   OH2 3073   5.005   1.602   9.800  0.0036 -0.2819 -0.2228
34064TIP3    H1 3074   5.080   1.646   9.840 -0.5461  0.1229  0.4056
34064TIP3    H2 3075   4.930   1.657   9.824 -0.5423 -0.8946 -0.4886
34065TIP3   OH2 3076   9.680   5.009   8.137  0.2168  0.0857  0.0094
34065TIP3    H1 3077   9.711   4.930   8.181 -1.7013 -0.8678 -0.2740
34065TIP3    H2 3078   9.724   5.008   8.052 -0.4687 -1.1667 -0.3482
34066TIP3   OH2 3079   9.152   1.087   2.528  0.1391  0.1491  0.2656
34066TIP3    H1 3080   9.102   1.064   2.451  0.6297  0.9542 -0.3188
34066TIP3    H2 3081   9.087   1.113   2.593 -0.3355 -1.5789  0.5123
34067TIP3   OH2 3082  10.207   2.043   7.238  0.6711 -0.1134 -0.2137
34067TIP3    H1 3083  10.123   2.061   7.281 -0.0066 -1.2900 -0.9677
34067TIP3    H2 3084  10.184   2.034   7.145  1.4089 -1.6855 -0.2699
34068TIP3   OH2 3085   9.094   1.036   2.247  0.1926  0.5080 -0.3754
34068TIP3    H1 3086   9.096   1.126   2.279 -0.8033  0.5770 -0.4744
34068TIP3    H2 3087   9.134   1.040   2.160 -2.1326  1.3485 -1.4822
34069TIP3   OH2 3088   7.869   4.148   1.324  0.0084 -0.0989  0.0849
34069TIP3    H1 3089   7.959   4.167   1.298  0.4811 -2.2820 -0.0955
34069TIP3    H2 3090   7.872   4.143   1.420 -0.0505  0.3729  0.1128
34070TIP3   OH2 3091   8.715   0.681   6.122 -0.0124 -0.4929 -0.2357
34070TIP3    H1 3092   8.682   0.594   6.141  0.7461 -0.2914  2.4446
34070TIP3    H2 3093   8.805   0.667   6.094  0.8714 -0.5714  2.3330
34071TIP3   OH2 3094   9.277   0.630   4.947 -0.2479 -0.3722 -0.7531
34071TIP3    H1 3095   9.320   0.585   4.874  0.3418  1.9503 -1.9499
34071TIP3    H2 3096   9.184   0.625   4.927 -0.1491 -0.5303 -1.1918
34072TIP3   OH2 3097   5.790   4.449   0.053 -0.7268 -0.1196 -0.2027
34072TIP3    H1 3098   5.853   4.376   0.050 -0.9987 -0.3742  0.1613
34072TIP3    H2 3099   5.836   4.522   0.011 -1.0346 -0.9208 -2.0407
34073TIP3   OH2 3100   5.136   8.454  10.460 -0.5472  0.1213  0.1656
34073TIP3    H1 3101   5.135   8.371  10.508  3.1972 -0.2698 -0.0905
34073TIP3    H2 3102   5.164   8.519  10.525  0.0762  0.4637 -0.4311
34074TIP3   OH2 3103   9.701   7.788   5.834 -0.1817 -0.1982  0.4274
34074TIP3    H1 3104   9.772   7.739   5.876 -1.1334 -2.0939 -0.0659
34074TIP3    H2 3105   9.658   7.724   5.778  0.3275  1.9333 -2.6429
34075TIP3   OH2 3106   7.038   8.771   3.949 -0.2884  0.5751 -0.5779
34075TIP3    H1 3107   6.959   8.762   3.896 -1.4429 -0.1009  1.1627
34075TIP3    H2 3108   7.020   8.846   4.006  0.4479  0.5857 -0.3546
34076TIP3   OH2 3109  10.821   8.465   5.692  0.3052 -0.0947 -0.4244
34076TIP3    H1 3110  10.762   8.465   5.768  0.2807  0.2165 -0.4422
34076TIP3    H2 3111  10.899   8.419   5.722  0.2342 -0.1082 -0.2583
34077TIP3   OH2 3112   5.785   7.056  10.667  0.4192  0.0463  0.2749
34077TIP3    H1 3113   5.790   6.967  10.702 -0.1414  0.3719  1.2492
34077TIP3    H2 3114   5.765   7.045  10.575 -1.8900 -0.8253  0.8270
34078TIP3   OH2 3115   6.956   6.656   1.492 -0.2353 -0.3557 -0.4783
34078TIP3    H1 3116   7.015   6.714   1.443 -2.1884  2.4570  0.1996
34078TIP3    H2 3117   6.890   6.630   1.428 -0.0659 -0.7912 -0.4784
34079TIP3   OH2 3118   7.369  10.692   7.462 -0.5560 -0.1260  0.1534
34079TIP3    H1 3119   7.417  10.680   7.380 -0.2740 -2.3894  0.5758
34079TIP3    H2 3120   7.305  10.761   7.443  1.4540  1.5322 -1.0237
34080TIP3   OH2 3121   1.290   4.526   4.860  0.4310 -0.2898  0.2697
34080TIP3    H1 3122   1.342   4.526   4.940  1.5774 -1.2320 -0.4591
34080TIP3    H2 3123   1.353   4.511   4.789 -0.6753 -0.3597 -0.7361
34081TIP3   OH2 3124   1.398   9.422   8.915 -0.1846  0.4168  0.3867
34081TIP3    H1 3125   1.317   9.418   8.966  0.4769  0.6129  1.4865
34081TIP3    H2 3126   1.410   9.515   8.896 -0.2429  0.3815  0.1725
34082TIP3   OH2 3127   3.473   3.806   5.023  0.1923 -0.0617 -0.0553
34082TIP3    H1 3128   3.419   3.759   4.959 -1.3793 -0.8503  1.7704
34082TIP3    H2 3129   3.516   3.874   4.971 -0.9664 -0.6908 -1.9681
34083TIP3   OH2 3130   9.122   3.366   3.412 -0.2786 -0.0579  0.8773
34083TIP3    H1 3131   9.069   3.428   3.460  1.7881 -0.3622  3.8209
34083TIP3    H2 3132   9.159   3.417   3.339 -2.3580  0.8022  0.3534
34084TIP3   OH2 3133   1.151   4.994   0.004  0.4506 -0.0371 -0.0030
34084TIP3    H1 3134   1.156   4.936  -0.072 -0.7604  1.7562 -1.5336
34084TIP3    H2 3135   1.138   5.081  -0.033 -0.7487  0.8325  2.2633
34085TIP3   OH2 3136   4.529  10.681   5.593  0.2370 -0.1966  0.2995
34085TIP3    H1 3137   4.514  10.738   5.668 -1.4680 -0.5948  0.3021
34085TIP3    H2 3138   4.608  10.715   5.552  0.3712  0.9255  1.4361
34086TIP3   OH2 3139   7.869   1.423   3.311 -0.3834  0.0549  0.3367
34086TIP3    H1 3140   7.827   1.338   3.300 -3.3319  1.2001  1.8200
34086TIP3    H2 3141   7.897   1.424   3.403 -1.0792  0.9405  0.5526
34087TIP3   OH2 3142   1.801   5.884   2.119  0.0827 -0.5590 -0.0310
34087TIP3    H1 3143   1.845   5.966   2.097  0.3260 -0.8706 -0.7357
34087TIP3    H2 3144   1.872   5.821   2.129  0.0923 -0.2392  2.7362
34088TIP3   OH2 3145   7.772   4.845   6.438 -0.3924 -0.1827 -0.4779
34088TIP3    H1 3146   7.827   4.804   6.505  1.6064  0.3384 -1.7023
34088TIP3    H2 3147   7.694   4.790   6.434  0.5077 -1.6260  0.5901
34089TIP3   OH2 3148   1.615   8.794   0.474 -0.8763 -0.3615  0.7429
34089TIP3    H1 3149   1.588   8.721   0.419 -2.1013  0.6920 -0.1040
34089TIP3    H2 3150   1.682   8.839   0.423 -0.1509 -0.8312  1.2482
34090TIP3   OH2 3151   1.073   6.036   9.410  0.2075  0.5102 -0.0380
34090TIP3    H1 3152   1.072   5.953   9.457  0.0174  1.1863  1.1802
34090TIP3    H2 3153   1.149   6.083   9.444 -1.8901  2.4897  2.3434
34091TIP3   OH2 3154   8.774   8.833   6.238  0.9943 -0.3321 -0.0959
34091TIP3    H1 3155   8.819   8.917   6.238 -2.2691  1.6442  2.8376
34091TIP3    H2 3156   8.840   8.770   6.268  2.5076  1.9302  1.6309
34092TIP3   OH2 3157   9.598   9.361   3.500  0.0164  0.4232 -0.3507
34092TIP3    H1 3158   9.515   9.389   3.460 -0.5703  0.1242  0.6189
34092TIP3    H2 3159   9.648   9.442   3.509 -0.3958  0.6946 -0.4462
34093TIP3   OH2 3160   3.644  10.366  10.604 -0.0183  0.4894  0.4185
34093TIP3    H1 3161   3.645  10.328  10.516  1.1729  0.4808  0.4222
34093TIP3    H2 3162   3.718  10.326  10.649 -2.2555 -1.7848  2.4516
34094TIP3   OH2 3163   5.385   8.372  10.689  0.3517  0.2303 -0.1596
34094TIP3    H1 3164   5.326   8.443  10.713  1.2478  0.3949  1.8314
34094TIP3    H2 3165   5.471   8.414  10.683  0.5960 -0.3582 -0.8765
34095TIP3   OH2 3166   2.550   3.228   6.303 -0.1510 -0.3232 -0.4459
34095TIP3    H1 3167   2.585   3.156   6.251  0.3512 -1.4914  1.4117
34095TIP3    H2 3168   2.456   3.214   6.306 -0.0700 -0.8226 -0.2224
34096TIP3   OH2 3169   6.511   2.582   5.735 -0.1349  0.3295  0.2888
34096TIP3    H1 3170   6.576   2.512   5.731  0.1631  0.6591 -0.6639
34096TIP3    H2 3171   6.455   2.567   5.659 -0.7663  0.4569  0.7167
34097TIP3   OH2 3172   3.964  10.613   9.979  0.0268  0.2522  0.5371
34097TIP3    H1 3173   3.994  10.587  10.066  0.4532  0.6299  0.5023
34097TIP3    H2 3174   3.869  10.622   9.988  0.2570  2.0247  1.4192
34098TIP3   OH2 3175   5.398  10.160   6.556  0.4389 -0.2173 -0.8354
34098TIP3    H1 3176   5.413  10.181   6.648 -1.0556 -0.4610 -0.5140
34098TIP3    H2 3177   5.394  10.244   6.512 -0.2430 -0.0385 -0.4374
34099TIP3   OH2 3178   2.470   9.363   0.275 -0.3928  0.4418 -0.6335
34099TIP3    H1 3179   2.457   9.450   0.313  1.8121  0.1786  0.9298
34099TIP3    H2 3180   2.528   9.379   0.200 -1.4222  0.4938 -1.4339
34100TIP3   OH2 3181   7.651   4.443   4.820  0.0771  0.0769 -0.2205
34100TIP3    H1 3182   7.609   4.357   4.824  0.7807 -0.2567  0.2639
34100TIP3    H2 3183   7.623   4.487   4.901  0.2065  0.0762 -0.1757
34101TIP3   OH2 3184   9.125   7.093   2.564 -0.0161 -0.4875  0.3998
34101TIP3    H1 3185   9.078   7.014   2.588 -0.4940  0.3497  2.3792
34101TIP3    H2 3186   9.056   7.158   2.546  0.3693 -0.1511  0.1087
34102TIP3   OH2 3187   5.308   2.852   9.093  0.3121 -0.4598 -0.0252
34102TIP3    H1 3188   5.237   2.863   9.030  0.5831 -0.4010 -0.3217
34102TIP3    H2 3189   5.268   2.872   9.178  0.5395  2.0254 -0.4203
34103TIP3   OH2 3190   1.001   3.820   0.712 -0.6132  0.4276 -0.5460
34103TIP3    H1 3191   0.919   3.808   0.758  1.6171 -0.7511  3.6722
34103TIP3    H2 3192   1.041   3.733   0.709  1.9240  1.4126  0.8606
34104TIP3   OH2 3193   3.400   0.448   3.964 -0.2815 -0.0059  0.1565
34104TIP3    H1 3194   3.386   0.358   3.992 -0.0285  0.3690  1.5781
34104TIP3    H2 3195   3.449   0.488   4.036 -0.8922  1.4188 -0.1824
34105TIP3   OH2 3196   3.589   5.697  10.257  0.4974  0.6346  0.5823
34105TIP3    H1 3197   3.567   5.684  10.164  0.2403  0.8315  0.6150
34105TIP3    H2 3198   3.567   5.789  10.274  0.1662  0.4897  0.9419
34106TIP3   OH2 3199   0.881   8.683  10.392 -0.7778  0.3825 -0.1618
34106TIP3    H1 3200   0.864   8.590  10.408  4.0529 -1.0314 -1.8102
34106TIP3    H2 3201   0.908   8.717  10.478 -0.3898 -0.3339  0.0109
34107TIP3   OH2 3202   3.741   5.932   9.271  0.4286 -0.5031  0.0420
34107TIP3    H1 3203   3.775   5.883   9.196 -0.0964 -0.2579 -0.3623
34107TIP3    H2 3204   3.803   5.914   9.341  0.3520 -1.5944 -0.1489
34108TIP3   OH2 3205   5.235   4.503   4.087  0.2329  0.8019 -0.3475
34108TIP3    H1 3206   5.301   4.502   4.156  0.0358 -0.2820 -0.1570
34108TIP3    H2 3207   5.272   4.448   4.018 -0.2719  0.5563 -0.4271
34109TIP3   OH2 3208  10.538  10.537   3.352 -0.6775 -0.0173 -0.1361
34109TIP3    H1 3209  10.512  10.453   3.390  1.2468  0.5632  2.7622
34109TIP3    H2 3210  10.616  10.517   3.301 -0.1587 -0.0279  0.6370
34110TIP3   OH2 3211   1.274   1.433   0.221  0.6864 -0.1418  0.5894
34110TIP3    H1 3212   1.298   1.343   0.240 -2.0739 -1.0125  0.4305
34110TIP3    H2 3213   1.295   1.445   0.129 -0.8698 -1.3969  0.0280
34111TIP3   OH2 3214  10.369   9.420   6.658  0.1237 -0.1351 -0.1069
34111TIP3    H1 3215  10.455   9.383   6.677 -0.0538 -0.6768 -0.3447
34111TIP3    H2 3216  10.322   9.350   6.612  0.0079  0.6049 -1.1419
34112TIP3   OH2 3217   1.901   5.890   6.109  0.2920 -0.6251 -0.3285
34112TIP3    H1 3218   1.840   5.964   6.112 -0.6670 -1.3490 -1.0782
34112TIP3    H2 3219   1.962   5.906   6.180  0.3466  1.0824 -0.7112
34113TIP3   OH2 3220   3.035   5.615   0.051  0.0546  0.4425 -0.3969
34113TIP3    H1 3221   2.986   5.623  -0.031  0.0908  1.8376 -0.3120
34113TIP3    H2 3222   3.122   5.583   0.024 -0.0875  0.4267 -0.8421
34114TIP3   OH2 3223   0.906   5.403   4.005 -0.4894  0.6104 -0.0160
34114TIP3    H1 3224   0.893   5.308   4.003 -1.6883  0.7654 -0.8239
34114TIP3    H2 3225   0.934   5.425   3.917 -1.1494  1.1253 -0.0974
34115TIP3   OH2 3226   7.270   4.266   5.996 -0.4709 -0.0851 -0.4816
34115TIP3    H1 3227   7.346   4.220   5.959  0.9541  2.8408 -1.5011
34115TIP3    H2 3228   7.264   4.233   6.086  0.0342 -2.6360 -1.3009
34116TIP3   OH2 3229   7.842   3.431   7.896  0.2635 -0.7173  0.3139
34116TIP3    H1 3230   7.769   3.423   7.957  0.4048 -1.7371  0.3676
34116TIP3    H2 3231   7.802   3.426   7.809  0.0407  0.9291  0.2896
34117TIP3   OH2 3232   5.928   8.924   0.423  0.2641  0.0680  0.3504
34117TIP3    H1 3233   5.878   8.998   0.458  1.3540  0.4755  1.1207
34117TIP3    H2 3234   6.011   8.963   0.396  0.0273 -0.5146 -1.3242
34118TIP3   OH2 3235   0.016   1.833   7.709  0.7485 -0.2659 -0.2865
34118TIP3    H1 3236   0.060   1.869   7.632 -0.6278  0.0609 -0.9571
34118TIP3    H2 3237  -0.025   1.753   7.677  0.9286 -0.6088  0.3404
34119TIP3   OH2 3238   0.598   0.892   2.677  0.1423 -0.0798 -0.3394
34119TIP3    H1 3239   0.557   0.934   2.752  0.3375  2.3436 -1.4797
34119TIP3    H2 3240   0.533   0.829   2.645  0.5268 -2.1048  2.4854
34120TIP3   OH2 3241   1.713  10.677   3.320  0.2743  0.0422 -0.2345
34120TIP3    H1 3242   1.636  10.629   3.350  0.3791 -0.8630 -1.3443
34120TIP3    H2 3243   1.772  10.610   3.286  0.8506  0.8737 -0.9283
34121TIP3   OH2 3244   0.424  10.704   2.415 -0.2698 -0.3545 -0.1282
34121TIP3    H1 3245   0.395  10.792   2.438  1.2176 -0.0406  0.7052
34121TIP3    H2 3246   0.518  10.714   2.396 -0.0098 -1.7971  0.2779
34122TIP3   OH2 3247   4.899   3.627   6.622 -0.1349 -0.4511 -0.0877
34122TIP3    H1 3248   4.944   3.610   6.704 -1.2147  0.9228  0.8456
34122TIP3    H2 3249   4.931   3.560   6.562  5.1637  1.8952 -0.3939
34123TIP3   OH2 3250   0.998   1.602   8.563 -0.1892  0.0622  0.2252
34123TIP3    H1 3251   1.073   1.604   8.505  0.2776 -0.4643  0.7909
34123TIP3    H2 3252   1.025   1.650   8.641 -0.2818 -0.4869  0.6050
34124TIP3   OH2 3253   1.216   3.405   9.664 -0.6237  0.1095 -0.0027
34124TIP3    H1 3254   1.138   3.399   9.609 -0.5018  3.1516 -0.7304
34124TIP3    H2 3255   1.190   3.464   9.735  0.9717  1.2029 -0.2754
34125TIP3   OH2 3256   4.183  10.594   8.105  0.4016  0.6402  0.0264
34125TIP3    H1 3257   4.223  10.620   8.188 -0.4209  0.4580  0.4788
34125TIP3    H2 3258   4.109  10.540   8.129  0.6187 -0.0743 -0.8529
34126TIP3   OH2 3259   8.899   3.387   3.891 -0.2001 -0.5529 -0.1595
34126TIP3    H1 3260   8.822   3.435   3.923  0.2147  0.1302 -0.1760
34126TIP3    H2 3261   8.862   3.309   3.849 -0.7965 -1.0159  1.1864
34127TIP3   OH2 3262   8.461  10.294   2.134  0.0450  0.6036 -0.3842
34127TIP3    H1 3263   8.370  10.265   2.137  0.2705 -0.0770  0.5558
34127TIP3    H2 3264   8.512  10.215   2.150  0.6764  1.4612  2.4372
34128TIP3   OH2 3265   7.812   3.725   9.688  0.1994 -0.5219  0.4148
34128TIP3    H1 3266   7.841   3.637   9.661  0.4291 -0.6086  0.9336
34128TIP3    H2 3267   7.865   3.744   9.766  0.4881  0.2750  0.0295
34129TIP3   OH2 3268   8.381   5.908   0.396  0.0205 -0.0092  0.2078
34129TIP3    H1 3269   8.393   5.994   0.356 -0.8586 -0.8995 -2.1469
34129TIP3    H2 3270   8.437   5.849   0.346 -0.2971 -1.0258  0.9988
34130TIP3   OH2 3271   3.457  10.533  10.667 -0.0952  0.0472  0.4853
34130TIP3    H1 3272   3.393  10.478  10.712  0.3870  0.6733  2.0090
34130TIP3    H2 3273   3.524  10.472  10.636 -1.0251 -0.5247 -0.4284
34131TIP3   OH2 3274  10.357   3.471   0.014 -0.5377 -0.0968 -0.6947
34131TIP3    H1 3275  10.283   3.438   0.065 -1.3346 -1.7378 -2.7847
34131TIP3    H2 3276  10.434   3.428   0.053 -0.7317  0.9197  0.9070
34132TIP3   OH2 3277   4.462   1.398   6.494 -0.0884 -0.2343  0.2352
34132TIP3    H1 3278   4.407   1.458   6.545 -0.9633  0.3677 -1.3520
34132TIP3    H2 3279   4.538   1.383   6.550 -1.0219  0.3510  1.7352
34133TIP3   OH2 3280   1.958   2.763   4.300  0.8120 -0.5085 -0.3511
34133TIP3    H1 3281   1.959   2.701   4.226  1.9936 -0.8168 -0.0993
34133TIP3    H2 3282   1.866   2.774   4.321  0.4600 -0.5243 -1.7893
34134TIP3   OH2 3283   6.683   0.662   2.944 -0.4170  0.1818 -0.5864
34134TIP3    H1 3284   6.724   0.580   2.973 -1.2893 -1.1298 -2.8539
34134TIP3    H2 3285   6.622   0.684   3.014 -0.9446 -1.7105 -0.4019
34135TIP3   OH2 3286   0.403   2.107   9.660 -0.3555 -0.9036  0.2819
34135TIP3    H1 3287   0.322   2.127   9.613 -1.0485 -1.3557  1.2529
34135TIP3    H2 3288   0.374   2.069   9.743  0.8313  0.5071  1.3859
34136TIP3   OH2 3289   0.462  10.563   5.779  0.2689  0.0765  0.0433
34136TIP3    H1 3290   0.393  10.585   5.717 -0.3036 -0.8666  0.3114
34136TIP3    H2 3291   0.497  10.479   5.748  2.3820  1.2495 -0.9707
34137TIP3   OH2 3292   8.020   3.980   1.779  0.4260 -0.3397  0.2917
34137TIP3    H1 3293   7.948   3.932   1.740  2.4568 -3.0833 -0.3428
34137TIP3    H2 3294   7.987   4.007   1.865 -2.6383  2.1179 -1.4181
34138TIP3   OH2 3295   0.252   2.050   7.151  0.3568  0.0357 -0.2606
34138TIP3    H1 3296   0.162   2.064   7.180  0.5339 -1.0015  0.8088
34138TIP3    H2 3297   0.293   2.137   7.159 -0.0603  0.1370  0.9774
34139TIP3   OH2 3298   1.453   5.653   3.217  0.1472  0.5241 -0.6137
34139TIP3    H1 3299   1.378   5.640   3.158  0.4132 -1.2243 -0.6150
34139TIP3    H2 3300   1.462   5.570   3.263  0.7425  1.4478  1.0041
34140TIP3   OH2 3301   7.788   0.273   9.007  0.2416  0.1004 -0.0113
34140TIP3    H1 3302   7.763   0.181   9.023 -0.4801  0.0648 -1.2544
34140TIP3    H2 3303   7.808   0.276   8.914  0.6506  1.1378  0.1038
34141TIP3   OH2 3304   7.687   2.714   4.549  0.5316 -0.3945 -0.1921
34141TIP3    H1 3305   7.712   2.721   4.457  1.8407 -0.5058  0.1371
34141TIP3    H2 3306   7.659   2.623   4.559 -1.7680  0.1630 -0.9563
34142TIP3   OH2 3307   2.254   1.597   9.477  0.2260  0.3510  0.1991
34142TIP3    H1 3308   2.325   1.595   9.541 -1.1531  1.3500  1.8456
34142TIP3    H2 3309   2.194   1.664   9.510 -2.8212 -2.2547  0.3440
34143TIP3   OH2 3310   7.449   3.553   6.994 -0.0409  0.2041 -0.7288
34143TIP3    H1 3311   7.356   3.565   6.977 -0.4149 -0.8918  0.4215
34143TIP3    H2 3312   7.492   3.621   6.942 -1.3881 -0.0636 -2.2653
34144TIP3   OH2 3313   7.580   0.686   4.029 -0.0449  0.2661  0.3120
34144TIP3    H1 3314   7.669   0.721   4.028  0.7484 -1.6115  0.7929
34144TIP3    H2 3315   7.556   0.680   3.936  0.3956  0.6392  0.1702
34145TIP3   OH2 3316   4.446  10.736   1.494  0.0974  0.1425 -0.1373
34145TIP3    H1 3317   4.406  10.812   1.536 -1.5303 -1.5896  1.6765
34145TIP3    H2 3318   4.371  10.685   1.461  1.1778 -0.4107 -1.8601
34146TIP3   OH2 3319   9.581   9.827   4.321  0.0476  0.5007 -0.3505
34146TIP3    H1 3320   9.640   9.864   4.387  1.7926  0.1038 -1.6269
34146TIP3    H2 3321   9.583   9.733   4.337 -1.0077  0.5436  0.1641
34147TIP3   OH2 3322   5.804   0.210  10.302 -0.0130  0.4193  0.2810
34147TIP3    H1 3323   5.875   0.179  10.246  0.9935  0.5390  1.4516
34147TIP3    H2 3324   5.731   0.227  10.242  1.0178  0.5238 -0.9767
34148TIP3   OH2 3325   2.614   6.563   5.618  0.2375 -0.4178  0.5120
34148TIP3    H1 3326   2.527   6.571   5.580 -0.1035 -0.5425  1.2593
34148TIP3    H2 3327   2.626   6.469   5.632  0.2103 -0.3365  1.0721
34149TIP3   OH2 3328   9.843   5.939   4.138  0.0525 -0.1891  0.5237
34149TIP3    H1 3329   9.862   6.031   4.119  1.4322 -0.5199  0.1839
34149TIP3    H2 3330   9.921   5.892   4.108 -0.8688 -1.5369  0.1437
34150TIP3   OH2 3331   1.707   7.708   8.258 -0.0986  0.1808  0.4311
34150TIP3    H1 3332   1.630   7.716   8.203 -0.4282 -0.9718  0.7046
34150TIP3    H2 3333   1.770   7.771   8.222 -1.0483  0.9220  0.0320
34151TIP3   OH2 3334   6.964   4.834   0.226 -0.2826  0.3433  0.0719
34151TIP3    H1 3335   6.921   4.839   0.140  0.1003 -0.0048 -0.1375
34151TIP3    H2 3336   7.057   4.832   0.206 -0.2209 -1.0245  0.4428
34152TIP3   OH2 3337   6.415   7.611  10.174  0.3639  0.6135 -0.0439
34152TIP3    H1 3338   6.458   7.665  10.240  1.8598 -0.8566  0.2607
34152TIP3    H2 3339   6.370   7.543  10.224 -1.0856  1.2507 -0.4371
34153TIP3   OH2 3340   0.126   7.231   8.979  0.1269 -0.1733  0.0533
34153TIP3    H1 3341   0.132   7.160   8.915 -1.6414 -0.1403 -0.2156
34153TIP3    H2 3342   0.034   7.231   9.005 -0.1430  2.5501 -0.5751
34154TIP3   OH2 3343   4.674   7.873   3.747 -0.0171  0.1793 -0.2818
34154TIP3    H1 3344   4.729   7.873   3.669  1.1876 -2.6194  0.4162
34154TIP3    H2 3345   4.631   7.787   3.746 -0.1234  0.1361  1.9869
34155TIP3   OH2 3346   9.818   0.279   4.261  0.5072 -0.1554  0.5110
34155TIP3    H1 3347   9.823   0.360   4.312  0.7114 -0.6061  1.2242
34155TIP3    H2 3348   9.734   0.286   4.214  0.8877  0.8135 -0.0592
34156TIP3   OH2 3349   2.857   2.661   2.550  0.2692  0.0775 -0.0582
34156TIP3    H1 3350   2.780   2.717   2.549  0.2164 -0.0024 -0.5884
34156TIP3    H2 3351   2.868   2.633   2.459 -0.4868 -1.8416  0.3989
34157TIP3   OH2 3352   1.222   0.821   8.006 -0.0831 -0.6485 -0.0010
34157TIP3    H1 3353   1.287   0.856   7.945  1.6013  0.5401  2.3130
34157TIP3    H2 3354   1.142   0.870   7.986 -0.2433 -1.7831 -2.5685
34158TIP3   OH2 3355   5.196   5.950   3.385  0.7623 -0.2221  0.0854
34158TIP3    H1 3356   5.166   5.935   3.475 -2.0672  0.4462 -0.6479
34158TIP3    H2 3357   5.235   6.038   3.388  1.2233 -0.4404  0.7589
34159TIP3   OH2 3358   7.827   2.897   3.204 -0.2437 -0.2519 -0.1712
34159TIP3    H1 3359   7.798   2.864   3.290 -2.6423 -0.1457 -0.8750
34159TIP3    H2 3360   7.821   2.821   3.146  0.0062  0.0073 -0.5407
34160TIP3   OH2 3361   1.382   1.887   5.808  0.2124  0.1979 -0.5969
34160TIP3    H1 3362   1.312   1.896   5.873 -0.2020 -1.3029 -0.7906
34160TIP3    H2 3363   1.455   1.939   5.844 -0.2082 -0.1199  0.7864
34161TIP3   OH2 3364   4.852   8.292   5.533 -0.3358 -0.2400 -0.2860
34161TIP3    H1 3365   4.885   8.218   5.584  0.3838  0.1900 -0.1158
34161TIP3    H2 3366   4.931   8.333   5.498 -0.3021  2.7543  2.7641
34162TIP3   OH2 3367   9.699   7.323   6.149 -0.1967 -1.2548 -0.2904
34162TIP3    H1 3368   9.693   7.367   6.064 -0.2284 -0.5304  0.0756
34162TIP3    H2 3369   9.784   7.280   6.148 -0.0237 -0.9140 -0.5323
34163TIP3   OH2 3370   8.834   2.176  10.034  0.0623 -0.5349  0.0546
34163TIP3    H1 3371   8.772   2.162   9.963  0.4399 -1.4838 -0.0998
34163TIP3    H2 3372   8.829   2.271  10.052 -0.2239 -0.3329 -1.0456
34164TIP3   OH2 3373   7.877   1.262   2.008 -0.3972  0.0851  0.2286
34164TIP3    H1 3374   7.798   1.314   1.990  0.2923  0.9440 -0.3458
34164TIP3    H2 3375   7.946   1.326   2.023  0.0399 -0.6516  1.5351
34165TIP3   OH2 3376   7.022   7.319   3.375  0.5244  0.1737 -0.4337
34165TIP3    H1 3377   6.959   7.330   3.304  0.2386  0.7966 -0.1000
34165TIP3    H2 3378   6.981   7.257   3.434 -0.4414  1.6141  0.4793
34166TIP3   OH2 3379   4.936   4.584   7.499  0.1899 -0.3669  0.5664
34166TIP3    H1 3380   4.880   4.636   7.442 -1.4167 -0.3531  2.0844
34166TIP3    H2 3381   4.876   4.529   7.549  1.6555 -1.5955  1.0710
34167TIP3   OH2 3382   7.220   3.790   6.085  0.7597 -0.4502 -0.0442
34167TIP3    H1 3383   7.295   3.744   6.123 -0.5019  0.1667  3.5826
34167TIP3    H2 3384   7.258   3.869   6.044  2.2230 -1.0893  0.0293
34168TIP3   OH2 3385   3.619   7.695   4.647  0.3818 -0.0633  0.5493
34168TIP3    H1 3386   3.568   7.758   4.699 -0.2294  0.1446 -0.2844
34168TIP3    H2 3387   3.700   7.741   4.627 -0.7683  1.1676 -1.5401
34169TIP3   OH2 3388   8.500   1.026   7.831 -0.2435 -0.0115  0.2067
34169TIP3    H1 3389   8.519   0.961   7.764 -2.3632 -2.3123  1.6642
34169TIP3    H2 3390   8.585   1.041   7.874  0.9714  0.8523 -2.2733
34170TIP3   OH2 3391   6.946   6.839   3.903  0.2906 -0.1094  0.2304
34170TIP3    H1 3392   6.889   6.821   3.978 -0.1792  0.9701  0.1387
34170TIP3    H2 3393   7.023   6.881   3.941  0.1043  0.3314  0.1207
34171TIP3   OH2 3394  10.817   1.306   9.033  0.2923 -0.4216 -0.4872
34171TIP3    H1 3395  10.880   1.338   8.967 -0.2300  0.8239 -0.4142
34171TIP3    H2 3396  10.739   1.359   9.018 -0.3431 -1.1584  0.1821
34172TIP3   OH2 3397   5.723   8.789  10.482  0.2120  0.4826  0.2415
34172TIP3    H1 3398   5.664   8.859  10.512  1.8534  1.8521  0.4172
34172TIP3    H2 3399   5.801   8.835  10.451  1.0437 -1.2549 -0.3731
34173TIP3   OH2 3400   2.041   7.997   2.204 -0.2314 -0.0806  0.2304
34173TIP3    H1 3401   2.034   7.907   2.171  1.2041 -0.4145  0.8047
34173TIP3    H2 3402   2.075   7.988   2.292  2.8530  1.1173 -0.7217
34174TIP3   OH2 3403   4.247   6.997   8.505 -0.0486 -0.4376 -0.1715
34174TIP3    H1 3404   4.255   6.927   8.440 -2.9233  0.3732 -1.5540
34174TIP3    H2 3405   4.207   6.955   8.581  0.0945 -0.6881 -0.2317
34175TIP3   OH2 3406   7.490   4.099   3.606  0.2273  0.1933  0.8489
34175TIP3    H1 3407   7.471   4.088   3.512  1.8251 -2.5139  0.7508
34175TIP3    H2 3408   7.528   4.187   3.612 -0.9953  0.9076 -0.8128
34176TIP3   OH2 3409   9.651   2.201   5.495 -0.3839  0.1917 -0.3552
34176TIP3    H1 3410   9.698   2.131   5.540  0.0601  1.1483  0.7229
34176TIP3    H2 3411   9.572   2.159   5.461  0.2247 -0.9812 -0.3555
34177TIP3   OH2 3412   5.242   9.383   8.511  0.3428  0.0486 -0.0649
34177TIP3    H1 3413   5.290   9.438   8.449  0.4880  1.1623  0.9758
34177TIP3    H2 3414   5.305   9.366   8.581  0.3161 -1.5413 -0.3927
34178TIP3   OH2 3415   0.176   3.818   7.342 -0.0110  0.6860  0.3951
34178TIP3    H1 3416   0.246   3.825   7.407  1.2787 -1.8532 -0.6047
34178TIP3    H2 3417   0.098   3.849   7.389  0.9100 -0.7397  3.1063
34179TIP3   OH2 3418   6.389   3.833   3.751  0.8012 -0.0187  0.4813
34179TIP3    H1 3419   6.383   3.739   3.736 -1.3524  0.2350 -0.5917
34179TIP3    H2 3420   6.396   3.842   3.847 -2.3415 -1.2335  0.9549
34180TIP3   OH2 3421   3.042   5.370   0.845  0.5010 -0.4341 -0.0335
34180TIP3    H1 3422   2.972   5.304   0.844  1.2817 -1.2742  0.0143
34180TIP3    H2 3423   2.995   5.453   0.848 -0.5033 -1.0078  1.3693
34181TIP3   OH2 3424   8.060   5.651   0.175 -0.0111 -0.2277 -0.2844
34181TIP3    H1 3425   8.109   5.655   0.257 -1.3022  0.0787  0.4911
34181TIP3    H2 3426   7.975   5.615   0.200 -0.6496  0.4835 -1.3697
34182TIP3   OH2 3427   5.618   6.122   2.772  0.2444 -0.2817 -0.2506
34182TIP3    H1 3428   5.658   6.041   2.803 -0.0614  0.1760  1.4524
34182TIP3    H2 3429   5.666   6.144   2.692  1.7566 -1.0081  0.4358
34183TIP3   OH2 3430   8.375   8.539   0.336  0.0105  0.1787  0.1606
34183TIP3    H1 3431   8.467   8.518   0.354 -0.3151 -1.8222 -0.2459
34183TIP3    H2 3432   8.326   8.471   0.383 -1.1422 -0.3767 -1.7324
34184TIP3   OH2 3433   6.803   4.702   8.573 -0.2774 -0.5038 -0.3587
34184TIP3    H1 3434   6.795   4.626   8.516 -1.1192 -0.8460  0.1905
34184TIP3    H2 3435   6.744   4.683   8.646 -0.0718  0.4269  0.0626
34185TIP3   OH2 3436   8.032   9.739   2.578 -0.0543 -0.3766 -0.6178
34185TIP3    H1 3437   7.941   9.754   2.552 -0.3944  0.3587  0.8588
34185TIP3    H2 3438   8.040   9.644   2.585 -0.5163 -0.4798 -1.3733
34186TIP3   OH2 3439   5.822   3.398   8.626  0.0459  0.4604  0.3875
34186TIP3    H1 3440   5.871   3.375   8.547 -0.2398  0.3162  0.2491
34186TIP3    H2 3441   5.786   3.485   8.608  0.4801  0.6888  0.6022
34187TIP3   OH2 3442   3.811   0.030  10.747  0.0918  0.1969  0.0229
34187TIP3    H1 3443   3.737  -0.018  10.711 -0.3540 -0.1572  1.3379
34187TIP3    H2 3444   3.858  -0.034  10.800 -0.3914  1.1093  1.6430
34188TIP3   OH2 3445   7.993   3.521   4.589  0.1363  0.0337 -0.4485
34188TIP3    H1 3446   7.947   3.603   4.607 -0.6378 -0.4909  0.0208
34188TIP3    H2 3447   8.041   3.538   4.508  0.9047  1.3193  0.2218
34189TIP3   OH2 3448   6.114   7.762   5.801 -0.5552 -0.1011 -0.2329
34189TIP3    H1 3449   6.159   7.693   5.850  0.3759  0.2886 -0.5058
34189TIP3    H2 3450   6.064   7.811   5.867  0.4457  0.2366  0.3032
34190TIP3   OH2 3451   2.699   6.800   5.785  0.5489 -0.5123  0.9103
34190TIP3    H1 3452   2.771   6.851   5.747 -0.5037  2.0878  2.1986
34190TIP3    H2 3453   2.684   6.729   5.722  1.9670  0.8626 -1.0921
34191TIP3   OH2 3454   1.925   3.174   7.489 -0.3868  0.1087 -0.3168
34191TIP3    H1 3455   1.939   3.208   7.578  1.0172 -1.9984  0.3398
34191TIP3    H2 3456   2.011   3.178   7.448 -0.2831 -1.9280 -0.4140
34192TIP3   OH2 3457   9.815   1.178  10.127  0.0916  0.1843 -0.1520
34192TIP3    H1 3458   9.763   1.258  10.136  0.0995  0.0200  1.6128
34192TIP3    H2 3459   9.759   1.119  10.076 -0.8081  0.5659  0.3731
34193TIP3   OH2 3460   1.025   7.533   6.658 -0.3178  0.2521 -0.7197
34193TIP3    H1 3461   1.101   7.586   6.635 -0.5915  1.7153  1.4870
34193TIP3    H2 3462   0.952   7.595   6.658 -1.1273 -0.6749 -0.6220
34194TIP3   OH2 3463  10.892   3.173   3.566  0.1717 -0.1677 -0.0006
34194TIP3    H1 3464  10.944   3.093   3.561  0.2852 -0.2216  1.6933
34194TIP3    H2 3465  10.956   3.243   3.558  0.4252 -0.2445  1.1625
34195TIP3   OH2 3466   9.772   7.085   2.334 -0.4993 -0.2340 -0.4489
34195TIP3    H1 3467   9.741   7.158   2.279  3.3214  1.5161 -0.6456
34195TIP3    H2 3468   9.844   7.046   2.283  1.4427 -0.2439  2.0967
34196TIP3   OH2 3469   9.726   3.021   6.516  0.1631  0.5402  0.0359
34196TIP3    H1 3470   9.791   3.084   6.484  1.6223 -1.5685 -1.3809
34196TIP3    H2 3471   9.743   3.014   6.610 -0.5157  2.7311  0.3834
34197TIP3   OH2 3472   4.076   3.833   4.318  0.2727 -0.4749  0.1318
34197TIP3    H1 3473   4.080   3.926   4.339 -0.1281 -0.5793  0.7032
34197TIP3    H2 3474   4.131   3.823   4.241 -0.2825  0.3720 -0.3939
34198TIP3   OH2 3475   9.354   3.342   0.835 -0.6776  0.1894  0.1244
34198TIP3    H1 3476   9.339   3.365   0.927  0.9831 -1.2139  0.7772
34198TIP3    H2 3477   9.266   3.343   0.797 -1.2647  2.2353  1.3358
34199TIP3   OH2 3478   4.785   3.569   9.461  0.0334  0.1344 -0.3136
34199TIP3    H1 3479   4.771   3.626   9.386  1.6168  0.7483 -0.1718
34199TIP3    H2 3480   4.801   3.628   9.535 -0.4673 -0.4766  0.3085
34200TIP3   OH2 3481   8.272  10.269   1.831  0.2614  0.1651 -0.1193
34200TIP3    H1 3482   8.364  10.243   1.837  0.3350  0.7505  4.1197
34200TIP3    H2 3483   8.223  10.192   1.860 -0.2476  1.1129  1.6621
34201TIP3   OH2 3484   2.586   5.206   2.086 -0.3290  0.2851  0.3069
34201TIP3    H1 3485   2.577   5.239   1.996 -2.1887  1.1707  0.7699
34201TIP3    H2 3486   2.506   5.235   2.130  0.1835 -0.8200  2.0483
34202TIP3   OH2 3487  10.488   6.625   2.395  0.2240 -0.5000 -0.4568
34202TIP3    H1 3488  10.432   6.675   2.336  0.3608 -0.2683 -0.3922
34202TIP3    H2 3489  10.445   6.540   2.403 -0.6788  0.0192  0.4124
34203TIP3   OH2 3490   5.883   7.484   4.106 -0.5989  0.0788 -0.3242
34203TIP3    H1 3491   5.823   7.519   4.041 -0.9537 -1.5384 -0.9119
34203TIP3    H2 3492   5.970   7.493   4.066 -0.7674 -0.4555 -0.8048
34204TIP3   OH2 3493   8.673   2.436  10.455  0.4045  0.4154  0.7365
34204TIP3    H1 3494   8.730   2.359  10.457 -1.5539 -1.1673 -0.7186
34204TIP3    H2 3495   8.727   2.505  10.417  1.3038 -1.1008 -0.8576
34205TIP3   OH2 3496   0.368   5.592   8.930  0.9314 -0.4244  0.2406
34205TIP3    H1 3497   0.434   5.647   8.972  0.7931 -0.9568  1.1807
34205TIP3    H2 3498   0.347   5.525   8.996 -0.7358 -0.1096  0.0704
34206TIP3   OH2 3499  10.752  10.257   9.704 -1.1686 -0.1488 -0.0468
34206TIP3    H1 3500  10.805  10.310   9.764 -0.9544 -0.4364  0.0253
34206TIP3    H2 3501  10.798  10.262   9.621 -0.1136 -1.6773  0.3823
34207TIP3   OH2 3502   8.698   9.561   7.581  0.3618  0.4396 -0.0928
34207TIP3    H1 3503   8.644   9.531   7.507  2.5268 -1.2410 -1.1289
34207TIP3    H2 3504   8.655   9.523   7.658 -0.7099  0.3297 -0.7168
34208TIP3   OH2 3505   2.759   4.798   8.411  0.6797 -0.0786 -0.0111
34208TIP3    H1 3506   2.677   4.779   8.365  0.7476  0.1973 -0.2516
34208TIP3    H2 3507   2.784   4.715   8.451  0.4800 -0.2595 -0.2573
34209TIP3   OH2 3508   8.103   5.010   7.292 -0.5590  0.0587 -0.3904
34209TIP3    H1 3509   8.068   5.098   7.310  0.5235  0.1051  1.8749
34209TIP3    H2 3510   8.196   5.026   7.272 -0.4630 -0.5270 -0.4065
34210TIP3   OH2 3511   1.209   7.680   7.172  0.4681  0.4235  0.2379
34210TIP3    H1 3512   1.165   7.608   7.126  2.3856 -0.1058 -0.9092
34210TIP3    H2 3513   1.206   7.753   7.110 -1.4988  1.4232  1.4115
34211TIP3   OH2 3514   2.699   1.153   7.911  0.4441 -0.0360  0.3652
34211TIP3    H1 3515   2.790   1.156   7.883  0.9349 -3.2375  1.2823
34211TIP3    H2 3516   2.666   1.069   7.878 -1.7329  0.3576  1.3501
34212TIP3   OH2 3517   8.135  10.737   2.282  0.0889  0.2648 -0.2705
34212TIP3    H1 3518   8.097  10.653   2.257 -0.2585 -0.1341  1.4740
34212TIP3    H2 3519   8.222  10.716   2.315 -0.3812  0.4406  1.1254
34213TIP3   OH2 3520   5.871   1.450   3.020  0.1387 -0.1783  0.4128
34213TIP3    H1 3521   5.965   1.472   3.024  0.8499 -2.3850 -1.7077
34213TIP3    H2 3522   5.843   1.482   2.934 -0.9793  0.0627  0.8515
34214TIP3   OH2 3523   1.491   2.016   4.977 -0.1986  0.4076 -0.6475
34214TIP3    H1 3524   1.516   2.083   4.913  3.4870  1.3388  1.4564
34214TIP3    H2 3525   1.478   2.064   5.058 -1.6223 -1.0788  0.0706
34215TIP3   OH2 3526   4.751   8.967  10.050  0.4398  0.2518  0.8245
34215TIP3    H1 3527   4.687   9.038  10.052  0.1634  0.0069  0.7690
34215TIP3    H2 3528   4.705   8.894  10.008  1.8283  1.1400 -2.6444
34216TIP3   OH2 3529   8.057   2.592   0.024  0.2543  0.4537 -0.1547
34216TIP3    H1 3530   8.045   2.502  -0.009  2.3926  0.5881 -1.5831
34216TIP3    H2 3531   8.011   2.593   0.108 -1.9483 -1.2100 -1.2164
34217TIP3   OH2 3532   2.418   6.750   1.344  0.5423 -0.2560 -0.0180
34217TIP3    H1 3533   2.413   6.700   1.425  2.9958 -2.7115 -1.2123
34217TIP3    H2 3534   2.487   6.815   1.360  0.2087  0.0467  0.2106
34218TIP3   OH2 3535   9.231   5.076   4.834  0.1448  0.0177 -0.1945
34218TIP3    H1 3536   9.222   5.146   4.899  0.8567  0.7960 -0.9097
34218TIP3    H2 3537   9.314   5.033   4.856 -0.3893 -0.7461  0.3663
34219TIP3   OH2 3538   0.174   4.335  10.670 -0.0241  0.1891 -0.4040
34219TIP3    H1 3539   0.202   4.388  10.745  0.7813 -0.1322 -0.4718
34219TIP3    H2 3540   0.124   4.396  10.615  0.9874  0.9095 -0.5412
34220TIP3   OH2 3541   4.437   9.321   2.566 -0.2480 -0.4728  0.0976
34220TIP3    H1 3542   4.428   9.289   2.656 -1.1005 -1.8872 -0.4550
34220TIP3    H2 3543   4.473   9.247   2.518  2.2720  0.9402 -0.3597
34221TIP3   OH2 3544   3.283   5.216   1.837  0.0377  0.2069  0.0294
34221TIP3    H1 3545   3.246   5.194   1.922  0.4045 -1.4955 -0.2224
34221TIP3    H2 3546   3.375   5.190   1.843  0.3033  0.9568 -0.5756
34222TIP3   OH2 3547   3.607   2.424   6.124 -0.0263  0.1018  0.0581
34222TIP3    H1 3548   3.561   2.350   6.164  1.0420 -0.5743  0.0626
34222TIP3    H2 3549   3.629   2.481   6.197  0.4192 -0.2911  0.2343
34223TIP3   OH2 3550   7.897   5.942   9.915 -0.0731 -0.4787  0.1567
34223TIP3    H1 3551   7.982   5.979   9.892 -0.0775 -0.2997  0.4210
34223TIP3    H2 3552   7.874   5.983   9.998 -0.3518 -0.6353  0.1610
34224TIP3   OH2 3553   4.070   0.475   4.863 -0.1620  0.6358  0.2825
34224TIP3    H1 3554   4.132   0.513   4.924  0.7037  1.0459 -0.8221
34224TIP3    H2 3555   4.008   0.427   4.918  1.8315 -0.8226  1.3464
34225TIP3   OH2 3556   2.198   7.938   8.935 -0.2369  0.0695  0.2331
34225TIP3    H1 3557   2.242   8.022   8.950 -2.4374  1.3080  0.2198
34225TIP3    H2 3558   2.162   7.945   8.847 -1.0569 -0.5534  0.5035
34226TIP3   OH2 3559   7.877  10.603   9.445 -0.6563 -0.6310  0.4902
34226TIP3    H1 3560   7.885  10.641   9.532  1.6306 -1.0889  0.5445
34226TIP3    H2 3561   7.961  10.621   9.402 -2.0055  0.3244 -1.9685
34227TIP3   OH2 3562   7.043   6.345   3.921  0.3846  0.2506 -0.6049
34227TIP3    H1 3563   7.126   6.329   3.967  0.4054  0.3976 -0.5899
34227TIP3    H2 3564   6.977   6.342   3.990  0.1651 -1.5626 -0.8434
34228TIP3   OH2 3565   7.471   1.994   7.850  0.0049 -0.2431  0.4719
34228TIP3    H1 3566   7.399   2.028   7.797 -0.1050 -0.3631  0.5461
34228TIP3    H2 3567   7.441   2.004   7.941 -0.0389 -0.5702  0.4922
34229TIP3   OH2 3568   3.989   4.600   6.735 -0.4228  0.0729 -0.0366
34229TIP3    H1 3569   3.935   4.618   6.812 -2.0642 -0.3424 -1.0415
34229TIP3    H2 3570   4.009   4.686   6.699 -0.7947  0.2121  0.0879
34230TIP3   OH2 3571   0.859   0.225   5.504  0.1036 -0.1569 -0.1335
34230TIP3    H1 3572   0.772   0.196   5.475  0.3012  0.4470 -1.4074
34230TIP3    H2 3573   0.842   0.290   5.571 -0.4178 -0.3391 -0.0859
34231TIP3   OH2 3574   3.911   4.309   8.477 -0.5795 -0.6253 -0.6673
34231TIP3    H1 3575   3.878   4.330   8.390  0.8800 -1.6962 -1.5234
34231TIP3    H2 3576   3.987   4.366   8.488 -0.7033 -0.5601 -0.1278
34232TIP3   OH2 3577   8.921  10.152   7.777 -0.2182 -0.1344 -0.2086
34232TIP3    H1 3578   8.995  10.126   7.723  0.2601 -1.4659  1.0531
34232TIP3    H2 3579   8.960  10.183   7.859 -0.9881  0.8519 -0.1859
34233TIP3   OH2 3580  10.440   0.495   7.244  0.3873  0.5771  0.0090
34233TIP3    H1 3581  10.458   0.527   7.332 -0.1936  0.7247  0.0823
34233TIP3    H2 3582  10.503   0.425   7.230  0.9787  1.0504  0.2543
34234TIP3   OH2 3583   4.457   0.588   6.748 -0.0266 -0.4178  0.3741
34234TIP3    H1 3584   4.455   0.602   6.654  0.5369  2.0627  0.6698
34234TIP3    H2 3585   4.368   0.606   6.777  0.6440  2.9077  0.7236
34235TIP3   OH2 3586   4.060   2.865   9.259  0.6799 -0.1072 -0.4313
34235TIP3    H1 3587   4.067   2.948   9.211  0.6766  0.3047  0.2616
34235TIP3    H2 3588   4.001   2.812   9.206 -1.2210  1.1989  0.2533
34236TIP3   OH2 3589   6.692   8.756   8.434  0.3035 -0.6470 -0.0928
34236TIP3    H1 3590   6.708   8.819   8.504 -0.2663 -0.1351 -0.4213
34236TIP3    H2 3591   6.756   8.779   8.366 -0.7445  0.4130 -0.7539
34237TIP3   OH2 3592   6.886   8.056   7.535 -0.4157  0.1718 -0.1567
34237TIP3    H1 3593   6.804   8.033   7.492  0.0626  1.0136 -1.5761
34237TIP3    H2 3594   6.928   8.118   7.475  0.4963  1.0324  1.3082
34238TIP3   OH2 3595   8.318   7.495   7.162 -0.4548  0.0943 -0.3030
34238TIP3    H1 3596   8.378   7.506   7.089 -0.7429 -0.4341 -0.6249
34238TIP3    H2 3597   8.361   7.432   7.220 -0.2142  0.5354 -0.0009
34239TIP3   OH2 3598   2.897   3.249   3.470 -0.5517 -0.0409  0.4170
34239TIP3    H1 3599   2.887   3.343   3.484 -0.7470 -0.0749  0.5151
34239TIP3    H2 3600   2.880   3.238   3.376 -1.0728 -0.0430  0.5044
34240TIP3   OH2 3601   8.140   8.230   1.268 -0.1582  0.5499  0.0968
34240TIP3    H1 3602   8.197   8.280   1.327 -0.5644 -0.4109  1.3733
34240TIP3    H2 3603   8.143   8.278   1.185  1.9557  0.9045  0.3104
34241TIP3   OH2 3604  10.155   5.151   6.449 -0.0989  0.1680  0.0341
34241TIP3    H1 3605  10.099   5.226   6.429 -1.8406 -0.5855  1.7861
34241TIP3    H2 3606  10.109   5.104   6.518  0.4972 -2.9772 -1.5056
34242TIP3   OH2 3607   9.315   5.389   1.241  0.0662 -0.4078  0.5293
34242TIP3    H1 3608   9.402   5.361   1.213 -0.0411  1.0404 -1.4845
34242TIP3    H2 3609   9.330   5.445   1.317  0.7422 -1.2607  1.0415
34243TIP3   OH2 3610   6.661   4.747   0.211  0.2827  0.5062 -1.1313
34243TIP3    H1 3611   6.658   4.673   0.150  0.8634 -1.3482  0.9549
34243TIP3    H2 3612   6.749   4.784   0.199  0.0852  0.7059 -1.9997
34244TIP3   OH2 3613   9.757   6.227   4.497  0.1825 -0.1663  0.6959
34244TIP3    H1 3614   9.747   6.321   4.512  0.8887 -0.2591  1.8590
34244TIP3    H2 3615   9.842   6.206   4.534  1.2586 -0.8030 -1.8959
34245TIP3   OH2 3616   5.180   7.079   6.553  0.2582  0.2964  0.2279
34245TIP3    H1 3617   5.167   7.107   6.644  0.0648  0.6486  0.0969
34245TIP3    H2 3618   5.188   6.984   6.557 -0.8601  0.2029  0.4948
34246TIP3   OH2 3619   6.797   4.260   1.174 -0.4275  0.6905 -0.4266
34246TIP3    H1 3620   6.748   4.181   1.155 -0.1993  0.2192  0.7978
34246TIP3    H2 3621   6.836   4.286   1.091 -0.2365 -0.6754 -0.7770
34247TIP3   OH2 3622   6.507   3.975   3.341 -0.4840 -0.4004  0.2570
34247TIP3    H1 3623   6.518   4.067   3.318 -0.6194 -0.8484 -1.8633
34247TIP3    H2 3624   6.477   3.976   3.432 -0.3193  1.6254  0.3387
34248TIP3   OH2 3625   9.537   8.891  10.585 -0.1952 -0.7554 -0.3817
34248TIP3    H1 3626   9.491   8.811  10.609 -0.2185 -0.5396  0.3409
34248TIP3    H2 3627   9.468   8.957  10.577 -0.0442 -0.4655  0.5563
34249TIP3   OH2 3628   4.055   9.434   3.920  0.1449  0.2920 -0.0127
34249TIP3    H1 3629   4.143   9.471   3.927  1.0864 -1.7757 -0.1540
34249TIP3    H2 3630   4.025   9.458   3.833  1.5229 -0.8264 -0.8482
34250TIP3   OH2 3631   5.868   5.139   8.514  0.4968  0.5544  0.2110
34250TIP3    H1 3632   5.909   5.186   8.441  0.3125 -0.2860 -0.4523
34250TIP3    H2 3633   5.931   5.070   8.536 -0.5526 -0.7778 -0.8498
34251TIP3   OH2 3634   9.737   3.506   1.774 -0.6743  0.1590  0.6352
34251TIP3    H1 3635   9.688   3.430   1.804  0.5615 -1.1132 -0.3938
34251TIP3    H2 3636   9.828   3.487   1.798 -0.4027  1.5377  0.7787
34252TIP3   OH2 3637   0.530   6.199  10.880 -0.1118 -0.0224 -0.4541
34252TIP3    H1 3638   0.563   6.235  10.962 -1.2700  1.6672 -0.6732
34252TIP3    H2 3639   0.605   6.152  10.842  0.8539  0.4166  0.8637
34253TIP3   OH2 3640   8.932   6.640  10.710 -0.0358  0.8396  0.0979
34253TIP3    H1 3641   8.906   6.668  10.798 -0.7564  0.8937 -0.1286
34253TIP3    H2 3642   8.863   6.581  10.682 -1.3961  3.0359 -1.5693
34254TIP3   OH2 3643   0.678  10.794   2.352 -0.7180  0.0301 -0.3035
34254TIP3    H1 3644   0.692  10.815   2.445 -1.0479 -1.2752  0.0550
34254TIP3    H2 3645   0.707  10.873   2.306  0.0402  0.4762  0.8689
34255TIP3   OH2 3646   3.873   6.496   8.655  0.1943 -0.1644  0.2024
34255TIP3    H1 3647   3.935   6.562   8.623  0.8494 -0.2181  1.2969
34255TIP3    H2 3648   3.805   6.546   8.699 -0.8375 -0.0754 -1.4090
34256TIP3   OH2 3649   2.007   0.226   6.040  0.0200 -0.2260  0.3434
34256TIP3    H1 3650   2.020   0.246   5.947  0.0578 -0.9092  0.1922
34256TIP3    H2 3651   1.914   0.245   6.056 -0.0207 -0.2450  0.1300
34257TIP3   OH2 3652   2.243   3.698   6.109 -0.3797 -0.5682 -0.0706
34257TIP3    H1 3653   2.249   3.604   6.093 -1.0363 -0.3020 -2.2097
34257TIP3    H2 3654   2.164   3.709   6.163  0.6825 -1.3379  1.7407
34258TIP3   OH2 3655   2.914   3.918   1.719 -0.3838 -0.1470 -0.3441
34258TIP3    H1 3656   2.871   3.854   1.776  0.2206 -0.9165 -0.7458
34258TIP3    H2 3657   2.912   4.000   1.770  1.4242 -1.1197  1.4316
34259TIP3   OH2 3658   9.976   8.400  10.643 -0.3399  0.6894  0.1211
34259TIP3    H1 3659   9.887   8.376  10.669 -1.1068  1.8819 -1.2689
34259TIP3    H2 3660   9.997   8.476  10.697  0.8976 -1.0815  2.3064
34260TIP3   OH2 3661   8.488   9.119   2.809  0.3445  0.5036  0.0926
34260TIP3    H1 3662   8.577   9.104   2.839 -0.0529 -0.5020  0.8364
34260TIP3    H2 3663   8.486   9.211   2.782  2.1384  0.0332 -1.8951
34261TIP3   OH2 3664   8.194   4.832   1.135 -0.4412  0.1723 -0.1770
34261TIP3    H1 3665   8.241   4.845   1.053 -0.5644  0.3026 -0.2275
34261TIP3    H2 3666   8.132   4.905   1.139  0.1463  0.6637  0.4355
34262TIP3   OH2 3667   6.518   2.954   8.037 -0.4194  0.2178  0.4341
34262TIP3    H1 3668   6.499   2.991   8.124 -1.1483  2.2345 -0.5096
34262TIP3    H2 3669   6.431   2.942   7.998 -0.0784  1.8255 -0.9325
34263TIP3   OH2 3670   7.604   3.861   1.909 -0.5104 -0.6099  0.7771
34263TIP3    H1 3671   7.681   3.813   1.937  0.7967 -0.1778 -1.7168
34263TIP3    H2 3672   7.592   3.929   1.976  0.2749 -1.6841  2.0451
34264TIP3   OH2 3673   9.156   5.552   3.572  0.7556  0.3151  0.9145
34264TIP3    H1 3674   9.220   5.482   3.558 -1.3614 -1.4445 -0.6779
34264TIP3    H2 3675   9.082   5.528   3.517 -1.4485  2.0293  2.9264
34265TIP3   OH2 3676   5.439   7.264   4.218 -0.1076  0.2928  0.0635
34265TIP3    H1 3677   5.437   7.358   4.236 -0.3924  0.6447 -1.6143
34265TIP3    H2 3678   5.360   7.248   4.166 -0.3005 -0.9704  0.7195
34266TIP3   OH2 3679   8.886   1.877   0.013 -0.3346 -0.3819 -0.4929
34266TIP3    H1 3680   8.979   1.856   0.024 -0.0553 -0.1021 -2.1177
34266TIP3    H2 3681   8.867   1.856  -0.078 -1.5749  0.6989 -0.5111
34267TIP3   OH2 3682   0.380   1.305   5.872 -0.4538 -0.0058  0.0837
34267TIP3    H1 3683   0.474   1.302   5.890 -0.8456  0.3281  2.5592
34267TIP3    H2 3684   0.368   1.249   5.796  1.4036 -2.2771  1.3516
34268TIP3   OH2 3685   6.817   2.922   6.506 -0.2452 -0.0934 -0.1420
34268TIP3    H1 3686   6.739   2.951   6.459  0.6414  1.7785 -0.5468
34268TIP3    H2 3687   6.799   2.942   6.598 -1.0721 -1.6887  0.0867
34269TIP3   OH2 3688   2.315   0.552   8.599  0.1624  0.2903 -0.0927
34269TIP3    H1 3689   2.263   0.512   8.669  1.0238 -1.3164 -0.3173
34269TIP3    H2 3690   2.254   0.561   8.526 -0.2124 -0.0715  0.1684
34270TIP3   OH2 3691   8.756   9.172   2.899 -0.2722 -0.3652  0.7334
34270TIP3    H1 3692   8.823   9.159   2.967 -0.6086 -1.3091  0.8980
34270TIP3    H2 3693   8.803   9.157   2.817 -0.2402 -0.8465  0.8388
34271TIP3   OH2 3694   4.322   7.873   6.863  0.1187  0.5485 -0.2264
34271TIP3    H1 3695   4.409   7.891   6.901  0.1396  0.0896 -0.0432
34271TIP3    H2 3696   4.261   7.903   6.930  0.1602 -1.7495  0.9499
34272TIP3   OH2 3697   9.236   2.012   4.718  0.1647 -1.1148  0.3651
34272TIP3    H1 3698   9.141   2.018   4.719  0.0950 -0.8402  4.0933
34272TIP3    H2 3699   9.266   2.101   4.740  1.1940 -1.5854  0.9423
34273TIP3   OH2 3700   1.261   6.315   6.440  0.0897 -0.4511 -0.2393
34273TIP3    H1 3701   1.222   6.368   6.371  0.3062  0.1012  0.0594
34273TIP3    H2 3702   1.289   6.378   6.506  2.7481 -0.6519 -1.0564
34274TIP3   OH2 3703  10.239   7.642   3.319 -0.0143 -0.0239 -0.2316
34274TIP3    H1 3704  10.150   7.607   3.326  0.3265 -0.8541  0.1116
34274TIP3    H2 3705  10.230   7.721   3.267 -0.7650 -0.8103 -1.3282
34275TIP3   OH2 3706  10.663   0.933   1.665 -0.3022 -0.2324  0.6554
34275TIP3    H1 3707  10.742   0.902   1.710 -0.7079 -1.6980  0.4082
34275TIP3    H2 3708  10.664   1.028   1.678  1.8934 -0.1083  0.0323
34276TIP3   OH2 3709   3.373   3.843   2.216 -0.0672 -0.6247  0.0918
34276TIP3    H1 3710   3.343   3.930   2.241 -1.6964 -1.4363  1.1436
34276TIP3    H2 3711   3.311   3.783   2.258  1.8227 -2.3553  0.5702
34277TIP3   OH2 3712   9.026   5.718   4.303 -0.4598  0.1520 -0.0053
34277TIP3    H1 3713   9.079   5.678   4.373  0.1402  0.7621 -0.1046
34277TIP3    H2 3714   9.089   5.751   4.240 -0.9868  0.1589 -0.5446
34278TIP3   OH2 3715   6.052   0.309  10.907 -0.1300  0.5759 -0.2869
34278TIP3    H1 3716   6.028   0.279  10.995  0.9494  0.8713  0.1323
34278TIP3    H2 3717   6.139   0.272  10.892 -0.1859  0.7607 -1.1195
34279TIP3   OH2 3718   1.053   4.596   4.663 -0.8677 -0.2602 -0.6781
34279TIP3    H1 3719   1.086   4.681   4.693 -0.8115  0.0054 -1.4639
34279TIP3    H2 3720   1.131   4.545   4.643 -0.7976 -1.4856  2.3112
34280TIP3   OH2 3721   7.279   1.345   5.132  0.3252 -0.7618  0.2274
34280TIP3    H1 3722   7.339   1.270   5.133  0.4803 -0.7566 -1.9930
34280TIP3    H2 3723   7.193   1.306   5.119  0.4043 -0.5898 -0.9186
34281TIP3   OH2 3724   4.431   0.030   3.428  0.1118  0.5311  0.3158
34281TIP3    H1 3725   4.459   0.007   3.339  1.3208 -0.4610  0.9244
34281TIP3    H2 3726   4.401  -0.052   3.466 -0.3621  0.9385  0.8454
34282TIP3   OH2 3727   0.389   6.533   9.419 -0.2982 -0.3250  0.2075
34282TIP3    H1 3728   0.322   6.481   9.374 -0.2841 -0.0243 -0.1643
34282TIP3    H2 3729   0.396   6.613   9.368  0.8486 -0.6458 -0.1853
34283TIP3   OH2 3730   0.699   3.849   7.145 -0.1437 -0.3835  0.4266
34283TIP3    H1 3731   0.684   3.883   7.057  1.0913  0.8269  0.6572
34283TIP3    H2 3732   0.650   3.908   7.202  0.9273  0.2308  0.7237
34284TIP3   OH2 3733   4.482   7.025   6.862  0.1593  0.5685  0.4939
34284TIP3    H1 3734   4.433   7.049   6.941 -1.3288  1.0306 -0.5280
34284TIP3    H2 3735   4.504   7.108   6.820  0.0833  0.3071 -0.0754
34285TIP3   OH2 3736   3.057  10.908   7.578 -0.5967  0.5490 -0.1939
34285TIP3    H1 3737   3.084  10.837   7.636  2.8145  2.1471  0.4387
34285TIP3    H2 3738   2.962  10.903   7.576 -0.6012 -2.7170  1.4317
34286TIP3   OH2 3739   2.486   2.092  10.556  0.1852  0.4508  0.4930
34286TIP3    H1 3740   2.410   2.094  10.615  0.7332 -0.4634  1.2512
34286TIP3    H2 3741   2.550   2.149  10.598 -0.2629  1.6869 -0.4392
34287TIP3   OH2 3742   2.480   5.536   5.072  0.5368  0.3511  0.0021
34287TIP3    H1 3743   2.522   5.451   5.066 -1.1189 -0.6587  1.5897
34287TIP3    H2 3744   2.495   5.577   4.986  1.8866 -1.2594 -0.5778
34288TIP3   OH2 3745   2.472   6.351   4.242  0.0213 -0.2100 -0.1451
34288TIP3    H1 3746   2.548   6.341   4.185 -1.0262  2.1180 -2.1629
34288TIP3    H2 3747   2.412   6.282   4.213  1.1139 -1.7840  1.1703
34289TIP3   OH2 3748   0.397   8.759   5.950  0.3079 -0.0822 -0.0377
34289TIP3    H1 3749   0.485   8.742   5.916  0.5317  1.6706 -0.4620
34289TIP3    H2 3750   0.409   8.834   6.009 -0.5694 -1.1967  1.6493
34290TIP3   OH2 3751   9.979   6.733   8.952 -0.0114  0.1258 -0.1239
34290TIP3    H1 3752   9.985   6.670   8.881  0.3427  1.6935 -1.5350
34290TIP3    H2 3753  10.021   6.812   8.918 -3.2166  2.2207  0.3588
34291TIP3   OH2 3754   7.354   3.313   2.220 -0.0248 -0.5274  0.3660
34291TIP3    H1 3755   7.371   3.219   2.213 -1.6969 -0.8861  0.6890
34291TIP3    H2 3756   7.356   3.330   2.314 -2.1496 -0.7757  0.5028
34292TIP3   OH2 3757   3.314   3.853   3.290  0.3997 -0.2735  0.3943
34292TIP3    H1 3758   3.300   3.920   3.223  0.1619 -0.7070  0.0047
34292TIP3    H2 3759   3.361   3.784   3.245  0.2644 -0.5551  0.6828
34293TIP3   OH2 3760  10.709  10.896   6.253  0.0449 -0.2387 -0.1468
34293TIP3    H1 3761  10.672  10.854   6.175 -0.6879  1.5080 -0.7729
34293TIP3    H2 3762  10.708  10.826   6.319 -4.2553 -0.5042 -0.1673
34294TIP3   OH2 3763   9.844   3.789   3.606  0.1575 -0.4299 -0.0468
34294TIP3    H1 3764   9.809   3.820   3.522  0.4940  0.6736  0.1994
34294TIP3    H2 3765   9.836   3.864   3.664  0.5164 -0.9875  0.7346
34295TIP3   OH2 3766   6.767   5.001   6.616  0.6916  0.1392  0.2949
34295TIP3    H1 3767   6.768   5.077   6.559 -0.5751 -0.6734 -0.8625
34295TIP3    H2 3768   6.679   4.998   6.652  0.4794 -1.1683 -0.2550
34296TIP3   OH2 3769   3.517  10.672   8.088 -0.6850  0.2435  0.2195
34296TIP3    H1 3770   3.515  10.744   8.026  0.8202  0.5372  0.4760
34296TIP3    H2 3771   3.451  10.695   8.154  0.1113  1.6442  0.5660
34297TIP3   OH2 3772   7.917   1.462   8.690  0.3594 -0.6214  0.1218
34297TIP3    H1 3773   7.909   1.496   8.780 -0.4610  1.4545 -0.6569
34297TIP3    H2 3774   7.837   1.411   8.677  1.0620 -1.9900  0.9366
34298TIP3   OH2 3775   4.577   2.420   4.846 -0.0341  0.2008  0.0179
34298TIP3    H1 3776   4.486   2.415   4.874  0.3059  0.1086  1.2120
34298TIP3    H2 3777   4.587   2.508   4.810 -0.5519  0.2821  0.0699
34299TIP3   OH2 3778   6.926   4.091   6.198 -0.3986 -0.5867  0.4516
34299TIP3    H1 3779   6.837   4.115   6.223  0.1877  0.2301  1.8205
34299TIP3    H2 3780   6.959   4.040   6.272  0.7367  0.2595  0.5431
34300TIP3   OH2 3781   5.577   0.514   3.736  0.1881  0.1489  0.3917
34300TIP3    H1 3782   5.556   0.480   3.823 -0.4971 -1.2917 -0.2926
34300TIP3    H2 3783   5.623   0.596   3.753  1.7899 -1.0172  2.1705
34301TIP3   OH2 3784   0.344   4.978   4.484 -0.1262 -0.1111 -0.4160
34301TIP3    H1 3785   0.267   4.930   4.454  0.1869 -0.5491 -0.5288
34301TIP3    H2 3786   0.418   4.924   4.458  0.1940 -0.0377  0.3170
34302TIP3   OH2 3787   8.720   2.019   5.172  0.5482  0.4757 -0.3189
34302TIP3    H1 3788   8.625   2.021   5.175  0.5112 -0.1532 -0.9541
34302TIP3    H2 3789   8.746   2.111   5.179 -0.0219  0.5447  1.6370
34303TIP3   OH2 3790  10.331   3.899   5.584  0.3671 -0.0877  0.1283
34303TIP3    H1 3791  10.368   3.880   5.670  2.9834  1.5066 -0.5521
34303TIP3    H2 3792  10.276   3.976   5.598  0.5497 -0.0072  0.4148
34304TIP3   OH2 3793   3.397   4.736   7.983  0.1123 -0.2889 -0.2947
34304TIP3    H1 3794   3.329   4.756   7.918  0.2242 -0.0617 -0.3436
34304TIP3    H2 3795   3.381   4.797   8.055  1.9726  1.7828 -1.5076
34305TIP3   OH2 3796  10.210   3.882   3.897 -0.0708 -0.2759  0.3478
34305TIP3    H1 3797  10.252   3.958   3.937  0.9320  0.2305 -1.5040
34305TIP3    H2 3798  10.117   3.895   3.912  0.1607  0.7993  0.9513
34306TIP3   OH2 3799   7.090   9.647   1.901 -0.3892 -0.5330 -0.8431
34306TIP3    H1 3800   7.092   9.679   1.992 -2.2137 -0.0852 -0.9107
34306TIP3    H2 3801   7.022   9.700   1.859 -0.9475 -2.0553 -1.9539
34307TIP3   OH2 3802   8.172   1.408   3.032  0.1235  0.2454  0.2900
34307TIP3    H1 3803   8.132   1.440   2.951  0.3741 -0.9936 -0.3463
34307TIP3    H2 3804   8.265   1.430   3.023  0.1617  0.0535  0.2167
34308TIP3   OH2 3805   5.259   0.295   9.478 -0.5417  0.6752 -0.4325
34308TIP3    H1 3806   5.315   0.239   9.424  0.2648  0.1932  0.8610
34308TIP3    H2 3807   5.195   0.331   9.416  0.5287  0.3992 -1.7586
34309TIP3   OH2 3808   8.821   1.954   1.128 -0.6149  0.3149  0.2990
34309TIP3    H1 3809   8.788   2.024   1.184 -0.3695 -0.0345  0.8940
34309TIP3    H2 3810   8.762   1.952   1.054 -0.0258  1.8544 -0.2508
34310TIP3   OH2 3811  10.259   1.042   4.493 -0.5670 -0.1428  0.0547
34310TIP3    H1 3812  10.345   1.026   4.455 -0.3342  0.0435  0.4926
34310TIP3    H2 3813  10.275   1.106   4.563 -1.2673  0.9153 -0.7226
34311TIP3   OH2 3814  10.715   2.584   1.859  0.1559  0.4344 -0.6473
34311TIP3    H1 3815  10.643   2.527   1.833  0.1327 -0.0999  0.5674
34311TIP3    H2 3816  10.717   2.579   1.954  2.6667 -0.6379 -0.6849
34312TIP3   OH2 3817   9.104   0.461   1.696 -0.2708  0.7611  0.4070
34312TIP3    H1 3818   9.060   0.461   1.781 -1.7162 -0.6019 -0.2998
34312TIP3    H2 3819   9.041   0.503   1.637 -1.1376 -2.0168 -0.8103
34313TIP3   OH2 3820   2.295   2.512   7.750  0.1272 -0.7035  0.6179
34313TIP3    H1 3821   2.323   2.436   7.801 -0.4112 -2.2375 -1.2848
34313TIP3    H2 3822   2.334   2.499   7.664 -1.0825  0.4841 -0.1375
34314TIP3   OH2 3823   9.719   1.345   7.652  0.3129 -0.3452 -0.0904
34314TIP3    H1 3824   9.747   1.256   7.672  0.0414 -0.4882 -0.3402
34314TIP3    H2 3825   9.799   1.397   7.656  0.4688 -0.5979  0.0747
34315TIP3   OH2 3826  10.712   8.490   2.857 -0.9927  0.0526  0.4832
34315TIP3    H1 3827  10.785   8.549   2.879 -0.2085 -1.6681  2.8402
34315TIP3    H2 3828  10.748   8.431   2.790 -0.8972  0.4581  0.1692
34316TIP3   OH2 3829   4.513   6.119   8.541 -0.3745  0.2100 -0.1890
34316TIP3    H1 3830   4.525   6.103   8.635 -2.0163 -0.6169 -0.0738
34316TIP3    H2 3831   4.567   6.051   8.499  1.0108  1.0880  0.1096
34317TIP3   OH2 3832   6.081  10.463   1.164  0.4150 -0.2223 -0.3911
34317TIP3    H1 3833   6.048  10.552   1.161 -0.9979 -0.7299 -1.1155
34317TIP3    H2 3834   6.167  10.467   1.122  1.5099  1.2095  1.8533
34318TIP3   OH2 3835   4.291   3.869   5.801 -0.1985 -0.6059 -0.2112
34318TIP3    H1 3836   4.209   3.917   5.787 -0.4082 -0.8374  0.2114
34318TIP3    H2 3837   4.359   3.936   5.803 -0.3043 -0.4543 -1.1038
34319TIP3   OH2 3838   0.953   8.776   8.905 -0.3173 -0.2009  0.1144
34319TIP3    H1 3839   0.899   8.725   8.967 -1.2403 -0.3391 -0.7777
34319TIP3    H2 3840   1.004   8.710   8.858  0.7949 -0.0584  1.0742
34320TIP3   OH2 3841   7.444   4.760   8.898  0.8715  0.1237  0.4032
34320TIP3    H1 3842   7.495   4.679   8.889  1.3047  0.3850  0.4749
34320TIP3    H2 3843   7.382   4.757   8.826  1.0437 -0.1646  0.2639
34321TIP3   OH2 3844   8.175   2.518   7.589  0.4082  0.2512  0.3489
34321TIP3    H1 3845   8.223   2.479   7.662  1.1655  0.0716 -0.2300
34321TIP3    H2 3846   8.235   2.583   7.553  0.4631 -0.3803 -0.7472
34322TIP3   OH2 3847   1.888   5.160   5.464 -0.4260  0.5049 -0.4570
34322TIP3    H1 3848   1.804   5.154   5.510  0.4196 -1.7363  0.9627
34322TIP3    H2 3849   1.907   5.071   5.436  2.3862  0.5066  1.0420
34323TIP3   OH2 3850   9.400   2.400   5.726 -0.1478 -0.1193  0.4115
34323TIP3    H1 3851   9.355   2.322   5.693 -0.8546  0.0567  0.9337
34323TIP3    H2 3852   9.470   2.365   5.781 -0.1253 -0.3971  0.2086
34324TIP3   OH2 3853   6.097   5.218   5.405 -0.0766 -0.3139  0.3314
34324TIP3    H1 3854   6.061   5.178   5.484  1.4859 -0.7279  0.8629
34324TIP3    H2 3855   6.145   5.147   5.362 -0.2954  0.0961 -0.6142
34325TIP3   OH2 3856  10.883  10.483   2.103  0.4521  0.6473  0.5671
34325TIP3    H1 3857  10.863  10.523   2.019 -0.3200 -0.0891  0.3819
34325TIP3    H2 3858  10.870  10.553   2.167 -2.6245  0.3713  0.4336
34326TIP3   OH2 3859  10.492   0.356  10.660  0.7129 -0.0770  0.2563
34326TIP3    H1 3860  10.450   0.309  10.589  1.6639 -0.9368  0.2485
34326TIP3    H2 3861  10.477   0.448  10.640 -2.4524 -0.2776  1.0167
34327TIP3   OH2 3862   5.847   9.958   8.295 -0.1617 -0.0027 -0.3333
34327TIP3    H1 3863   5.924   9.911   8.325 -1.4991 -1.0855  1.6152
34327TIP3    H2 3864   5.842  10.036   8.352 -0.1814  0.3810 -0.8502
34328TIP3   OH2 3865   1.882  10.140   5.896  0.5716 -0.4134 -0.2630
34328TIP3    H1 3866   1.834  10.115   5.817  1.5887  2.1991 -1.8309
34328TIP3    H2 3867   1.972  10.114   5.880  0.7834  0.1215  0.0119
34329TIP3   OH2 3868   8.886   9.915   6.699 -0.0348 -0.0904 -0.3992
34329TIP3    H1 3869   8.930   9.991   6.663  0.0430  1.0437  1.8927
34329TIP3    H2 3870   8.953   9.846   6.699  1.2703  1.0867  1.3168
34330TIP3   OH2 3871   7.912   2.080   3.541 -0.5492 -0.1346 -0.4396
34330TIP3    H1 3872   7.958   2.003   3.574 -0.1260  0.4795  0.4475
34330TIP3    H2 3873   7.980   2.135   3.505 -0.9811 -0.6710 -2.1503
34331TIP3   OH2 3874   5.417   3.656   2.649  0.2416 -0.3831 -0.3505
34331TIP3    H1 3875   5.425   3.641   2.554  2.3385 -2.6631  0.0811
34331TIP3    H2 3876   5.507   3.651   2.681 -0.4601 -0.0323  1.8391
34332TIP3   OH2 3877   3.340   2.899   7.098  0.8605  0.4935 -0.2613
34332TIP3    H1 3878   3.371   2.845   7.025 -0.0457 -1.4176  0.6813
34332TIP3    H2 3879   3.283   2.964   7.058  0.3326 -0.5607 -1.2619
34333TIP3   OH2 3880  10.256   4.588   7.165 -0.2255  0.6588  0.3257
34333TIP3    H1 3881  10.171   4.569   7.125 -0.0211  0.4683 -0.0269
34333TIP3    H2 3882  10.271   4.681   7.143  0.2239  0.3633 -0.7067
34334TIP3   OH2 3883   0.736  10.114   2.915  0.1513 -0.5671  0.1656
34334TIP3    H1 3884   0.783  10.095   2.834  0.3499  1.2807 -0.1998
34334TIP3    H2 3885   0.694  10.199   2.899  1.5905  0.7091  2.5560
34335TIP3   OH2 3886   4.374   1.364   7.690 -0.4138 -0.4945  0.1398
34335TIP3    H1 3887   4.297   1.324   7.731  0.0185 -1.1034  0.3824
34335TIP3    H2 3888   4.339   1.431   7.631 -1.2026 -1.7026 -0.8054
34336TIP3   OH2 3889   7.518   2.424   7.982 -0.5164 -0.2319 -0.0601
34336TIP3    H1 3890   7.578   2.443   7.910  1.9018  1.5708  2.2645
34336TIP3    H2 3891   7.435   2.465   7.955  0.5194  1.0254 -1.5207
34337TIP3   OH2 3892   2.662   5.326   1.355 -0.1807 -0.4135  0.0027
34337TIP3    H1 3893   2.591   5.283   1.307  1.1631 -0.7758 -1.7510
34337TIP3    H2 3894   2.742   5.296   1.313  0.9537  1.4250  0.7057
34338TIP3   OH2 3895   0.403   4.510   6.811  0.1450 -0.3808  0.1171
34338TIP3    H1 3896   0.375   4.485   6.723 -1.3223 -0.8557  0.6941
34338TIP3    H2 3897   0.332   4.564   6.845  0.1815 -1.0943  1.4014
34339TIP3   OH2 3898   7.798   0.937   4.398  0.2127  0.3707 -0.0815
34339TIP3    H1 3899   7.878   0.982   4.425  0.3033 -0.4394  1.0896
34339TIP3    H2 3900   7.728   0.995   4.429  0.3340 -0.0182  0.9788
34340TIP3   OH2 3901   5.816   4.835   6.014 -0.1418  0.4710  0.6424
34340TIP3    H1 3902   5.815   4.915   6.067 -0.3869  0.1760  1.0888
34340TIP3    H2 3903   5.907   4.827   5.984  0.0408  0.5405  1.1764
34341TIP3   OH2 3904   8.088   9.652   0.305 -0.3129  0.1999 -0.1349
34341TIP3    H1 3905   8.028   9.599   0.252 -1.4758  0.4149  0.9133
34341TIP3    H2 3906   8.056   9.741   0.295 -0.5043  0.2512  0.8406
34342TIP3   OH2 3907   8.113   7.885   3.054  0.2983  0.1585  0.0221
34342TIP3    H1 3908   8.061   7.846   3.125  0.2301 -1.0119 -0.6344
34342TIP3    H2 3909   8.160   7.810   3.017  0.6869  0.8354 -0.8627
34343TIP3   OH2 3910   9.623   7.142   6.716  0.1592  0.0090  0.4247
34343TIP3    H1 3911   9.715   7.119   6.721  0.0014 -0.5697  0.7209
34343TIP3    H2 3912   9.578   7.074   6.766 -0.4890 -0.0996 -0.2842
34344TIP3   OH2 3913   0.672   4.541   0.323 -0.1835  0.2382 -0.1199
34344TIP3    H1 3914   0.733   4.610   0.298  0.1368  0.1631  0.4383
34344TIP3    H2 3915   0.595   4.587   0.355 -0.3148  0.3346 -0.5711
34345TIP3   OH2 3916   1.908   8.813   2.931  0.0069  0.1679  0.6256
34345TIP3    H1 3917   1.826   8.825   2.978 -1.3468  1.6096 -1.9119
34345TIP3    H2 3918   1.922   8.896   2.885  1.8296 -0.7452 -0.6070
34346TIP3   OH2 3919   1.014   6.348   1.034  0.1928  0.6654  0.1270
34346TIP3    H1 3920   1.068   6.299   1.096 -0.5081 -0.1190  0.1356
34346TIP3    H2 3921   1.036   6.440   1.050  1.4131  0.3774  0.2211
34347TIP3   OH2 3922  10.071   3.376   7.747 -0.2810  0.0012 -0.3526
34347TIP3    H1 3923  10.040   3.322   7.820 -0.5198 -0.7933 -1.0352
34347TIP3    H2 3924  10.003   3.366   7.680 -0.0605  0.7264 -0.6894
34348TIP3   OH2 3925   1.385   2.271   6.924 -0.3030 -0.0300  0.5384
34348TIP3    H1 3926   1.411   2.211   6.854 -2.0591 -1.2315  0.8440
34348TIP3    H2 3927   1.391   2.358   6.885 -0.0255 -0.5779 -0.6976
34349TIP3   OH2 3928   8.360   4.698   8.214 -0.1806 -0.0923  0.4732
34349TIP3    H1 3929   8.363   4.782   8.258 -0.0746 -0.2613  0.7949
34349TIP3    H2 3930   8.298   4.710   8.142 -2.3671 -0.5273  2.1785
34350TIP3   OH2 3931   6.078  10.225   8.866 -0.3216  0.4912  0.1127
34350TIP3    H1 3932   6.158  10.174   8.851 -1.3566 -1.1783 -0.0045
34350TIP3    H2 3933   6.080  10.293   8.799  0.8349  0.2818 -0.0903
34351TIP3   OH2 3934   4.895   5.286   3.625  0.9156  1.4997 -0.0719
34351TIP3    H1 3935   4.919   5.215   3.684 -0.2308  0.0938 -1.2218
34351TIP3    H2 3936   4.977   5.313   3.585  1.1055 -1.0561 -1.6055
34352TIP3   OH2 3937   5.013   9.104   7.716 -0.3431 -0.2634 -0.3179
34352TIP3    H1 3938   4.995   9.010   7.717 -1.5318 -0.0491 -0.5032
34352TIP3    H2 3939   5.106   9.110   7.740  0.1775 -1.5670 -1.7878
34353TIP3   OH2 3940  10.698   4.400   7.855  0.0741 -0.1940 -0.8591
34353TIP3    H1 3941  10.732   4.449   7.929  0.8543 -0.3354 -1.1097
34353TIP3    H2 3942  10.615   4.365   7.885 -0.7077  1.6125 -0.8084
34354TIP3   OH2 3943   3.515   8.283   4.090  0.2515  0.1997 -0.1741
34354TIP3    H1 3944   3.532   8.211   4.152 -0.8673 -0.0047 -0.0916
34354TIP3    H2 3945   3.426   8.310   4.108  0.2254  0.7614 -1.0877
34355TIP3   OH2 3946   1.723   4.636   0.875 -0.1772 -0.5330 -0.4476
34355TIP3    H1 3947   1.735   4.551   0.917 -4.2002 -0.5209  1.2635
34355TIP3    H2 3948   1.733   4.699   0.946 -1.4995 -0.0239 -0.6728
34356TIP3   OH2 3949   3.226   8.598   5.668  0.1132 -0.0414 -0.5225
34356TIP3    H1 3950   3.217   8.532   5.599  0.3200 -0.3716 -0.2371
34356TIP3    H2 3951   3.167   8.567   5.737 -0.5275  0.5898 -0.7744
34357TIP3   OH2 3952   7.008  10.601   6.360  0.0334  0.6580  0.2258
34357TIP3    H1 3953   7.092  10.556   6.371 -1.1314 -1.6474  0.2222
34357TIP3    H2 3954   6.963  10.552   6.292 -2.4141  0.0499  2.1373
34358TIP3   OH2 3955   9.290   8.666   9.744  0.2178 -0.3398  0.0497
34358TIP3    H1 3956   9.229   8.601   9.710 -0.4089  0.4046 -0.2632
34358TIP3    H2 3957   9.364   8.615   9.776  0.2663 -1.1384 -1.2838
34359TIP3   OH2 3958   9.633   9.753   2.894  0.4982 -0.2505 -1.0029
34359TIP3    H1 3959   9.662   9.820   2.956 -0.2431  0.5146 -1.4424
34359TIP3    H2 3960   9.689   9.765   2.818 -0.5069  0.8196 -1.6147
34360TIP3   OH2 3961   3.452   6.645   8.123 -0.1443  0.4014  0.3420
34360TIP3    H1 3962   3.368   6.689   8.112 -0.7195 -0.7373  0.0453
34360TIP3    H2 3963   3.440   6.560   8.082  0.8729 -0.1115  1.0625
34361TIP3   OH2 3964   2.942   5.076   9.604  0.6054  0.3119  0.2954
34361TIP3    H1 3965   2.940   5.053   9.696 -0.4229  0.8799  0.4308
34361TIP3    H2 3966   2.882   5.151   9.596  0.9618  0.5101 -0.7606
34362TIP3   OH2 3967   7.368   1.731  10.830  0.4092  0.2765 -0.3792
34362TIP3    H1 3968   7.375   1.720  10.735 -0.3078 -2.0749 -0.2348
34362TIP3    H2 3969   7.276   1.711  10.849  0.8488 -0.6175  0.9266
34363TIP3   OH2 3970   0.759   0.213   4.464  0.3879 -0.3818 -0.0997
34363TIP3    H1 3971   0.758   0.204   4.368  1.2846  0.1426 -0.1668
34363TIP3    H2 3972   0.796   0.300   4.479 -0.3571 -0.1899  0.7147
34364TIP3   OH2 3973   5.510   6.958   6.719 -0.3459 -0.3919  0.2047
34364TIP3    H1 3974   5.600   6.931   6.739 -1.0033 -2.5033  0.5702
34364TIP3    H2 3975   5.504   7.048   6.752  2.2810  0.7107 -1.9222
34365TIP3   OH2 3976   4.429  10.609   6.812 -0.0579 -0.6192 -0.0918
34365TIP3    H1 3977   4.474  10.525   6.815 -0.6161 -0.9277 -0.1070
34365TIP3    H2 3978   4.499  10.675   6.807  0.3934 -1.0500  0.5148
34366TIP3   OH2 3979   9.441   1.288   2.056  0.2679  0.4439  0.5031
34366TIP3    H1 3980   9.494   1.256   2.129  0.6125 -0.9248 -0.3239
34366TIP3    H2 3981   9.437   1.215   1.995 -1.4209  0.9916 -0.0957
34367TIP3   OH2 3982   2.827   1.377   2.599 -0.1030  0.2699 -0.0390
34367TIP3    H1 3983   2.880   1.441   2.647 -0.6196  0.4614  0.2803
34367TIP3    H2 3984   2.784   1.326   2.667 -1.0114  0.6816 -0.2912
34368TIP3   OH2 3985   9.699   4.329   4.090 -0.1754  0.0032  0.1122
34368TIP3    H1 3986   9.672   4.416   4.119 -0.0933  0.1052 -0.1171
34368TIP3    H2 3987   9.619   4.290   4.055 -0.2084 -0.0091  0.1992
34369TIP3   OH2 3988   3.946   9.280   5.825 -0.0072 -0.2114 -0.1001
34369TIP3    H1 3989   3.959   9.186   5.816  1.7520  0.1262 -1.4755
34369TIP3    H2 3990   3.856   9.295   5.794  0.2520 -1.2457 -1.4386
34370TIP3   OH2 3991   9.193   9.814   7.558  0.1614  0.0342 -0.1709
34370TIP3    H1 3992   9.243   9.831   7.638 -1.4297 -0.1584  0.9064
34370TIP3    H2 3993   9.113   9.864   7.569  0.7728  1.7527 -2.6531
34371TIP3   OH2 3994   7.538  10.727   1.814  0.0088  0.5874  0.2352
34371TIP3    H1 3995   7.509  10.756   1.900  0.2012  0.8451  0.2125
34371TIP3    H2 3996   7.512  10.635   1.810  1.0283  0.2574  1.0136
34372TIP3   OH2 3997   1.133   5.840   3.955  0.1884 -0.4491 -0.0155
34372TIP3    H1 3998   1.183   5.767   3.917  0.1017  0.1266 -1.2752
34372TIP3    H2 3999   1.197   5.888   4.007  0.4421 -0.9324  0.1303
34373TIP3   OH2 4000   7.225   3.219   3.828  0.3263 -0.0116 -0.4821
34373TIP3    H1 4001   7.289   3.291   3.826 -0.0968  0.3897  0.0837
34373TIP3    H2 4002   7.276   3.142   3.804  1.2676  0.1425  0.8616
34374TIP3   OH2 4003   7.814   9.381   8.907  0.3324  0.0657  0.3374
34374TIP3    H1 4004   7.776   9.344   8.987 -0.8119  1.0577  0.2758
34374TIP3    H2 4005   7.773   9.466   8.898  1.7064  0.6777 -0.4189
34375TIP3   OH2 4006   2.813   8.515   3.034  0.0156 -0.2216  0.0403
34375TIP3    H1 4007   2.861   8.538   2.955 -0.4183 -1.9232 -0.7692
34375TIP3    H2 4008   2.812   8.419   3.035 -2.6737 -0.2765  0.4236
34376TIP3   OH2 4009   9.464   2.106   5.260  1.2095 -0.1524  0.2762
34376TIP3    H1 4010   9.410   2.032   5.232 -0.1528  1.1925 -0.8653
34376TIP3    H2 4011   9.554   2.080   5.240  0.7582 -1.5103 -0.0518
34377TIP3   OH2 4012   2.182   5.964   2.979 -0.4867  0.2305  0.0382
34377TIP3    H1 4013   2.256   5.912   2.946  1.1979  2.3933  0.1488
34377TIP3    H2 4014   2.180   5.947   3.073  0.8297  1.1967  0.2707
34378TIP3   OH2 4015   9.192   8.237   7.166  0.4080  0.2111 -0.6324
34378TIP3    H1 4016   9.248   8.227   7.089  1.2697  1.1027 -0.1497
34378TIP3    H2 4017   9.166   8.148   7.188  2.7891 -0.4227 -0.0612
34379TIP3   OH2 4018   5.096   5.248  10.383  0.0708 -0.1797  0.5292
34379TIP3    H1 4019   5.097   5.276  10.291  0.8729 -1.9351 -0.0242
34379TIP3    H2 4020   5.181   5.207  10.397 -0.2228 -0.3649  1.9377
34380TIP3   OH2 4021   7.173   5.034   2.132 -0.0094 -0.0144 -0.1579
34380TIP3    H1 4022   7.114   4.981   2.079  0.7306 -0.3495 -0.6576
34380TIP3    H2 4023   7.247   4.976   2.153 -0.1975  0.1602  1.1047
34381TIP3   OH2 4024   4.538   5.582   1.185 -0.0621  0.6152  0.0042
34381TIP3    H1 4025   4.594   5.517   1.143  1.3898  1.6456  0.2717
34381TIP3    H2 4026   4.559   5.576   1.278 -0.6953  0.7435  0.1605
34382TIP3   OH2 4027  10.008   0.684  10.200  0.2541  0.3699  0.3976
34382TIP3    H1 4028   9.976   0.691  10.110  1.4831 -0.9601 -0.1841
34382TIP3    H2 4029   9.938   0.638  10.247 -0.1103  0.4841 -0.0353
34383TIP3   OH2 4030   0.481   3.492   1.125  0.4579 -0.3756  0.4606
34383TIP3    H1 4031   0.407   3.546   1.099 -0.4009 -1.3677  0.7658
34383TIP3    H2 4032   0.461   3.464   1.214  0.1212 -2.3879 -0.1956
34384TIP3   OH2 4033   7.126   9.725   6.622 -0.4347  0.3416 -0.3997
34384TIP3    H1 4034   7.067   9.776   6.677  1.0864  3.3233 -1.2816
34384TIP3    H2 4035   7.079   9.644   6.603 -2.3790  0.6981  2.4143
34385TIP3   OH2 4036   5.872   9.843  10.397  0.1066 -0.1687 -0.1860
34385TIP3    H1 4037   5.799   9.813  10.341 -0.2855  0.9376 -0.2972
34385TIP3    H2 4038   5.885   9.772  10.459 -0.7075 -0.6330 -0.5223
34386TIP3   OH2 4039   3.155   8.424   8.136  0.1237 -0.0502 -0.3130
34386TIP3    H1 4040   3.195   8.507   8.112 -0.4314  0.4794  0.5200
34386TIP3    H2 4041   3.079   8.416   8.079 -1.4526  1.4228  1.4153
34387TIP3   OH2 4042   5.312   9.497   2.301 -0.1506  0.3203  0.5289
34387TIP3    H1 4043   5.330   9.471   2.391  1.5911  0.4108  0.2374
34387TIP3    H2 4044   5.272   9.420   2.261  0.2518 -0.1596  1.0374
34388TIP3   OH2 4045   9.106   5.276   7.262 -0.5209 -0.2594 -0.2153
34388TIP3    H1 4046   9.129   5.283   7.355  0.1433 -1.8914 -0.2270
34388TIP3    H2 4047   9.010   5.276   7.261 -0.5441 -1.4504  0.5994
34389TIP3   OH2 4048   9.143   9.193   4.034 -0.1962  0.4398  0.3468
34389TIP3    H1 4049   9.113   9.255   4.100  0.4502  1.2383 -0.0892
34389TIP3    H2 4050   9.228   9.227   4.006  0.0718 -0.5225 -0.0634
34390TIP3   OH2 4051   8.119   0.327   1.765  0.1706 -0.1785  0.4215
34390TIP3    H1 4052   8.151   0.303   1.852  0.9434  0.6125  0.3732
34390TIP3    H2 4053   8.153   0.259   1.707 -1.4611 -1.4598  0.8965
34391TIP3   OH2 4054   1.868   2.601   1.942  0.5664  0.2293  0.5533
34391TIP3    H1 4055   1.841   2.684   1.981 -0.3455 -0.3359  1.1801
34391TIP3    H2 4056   1.796   2.578   1.883  0.7354 -0.1872  0.5018
34392TIP3   OH2 4057   4.121   9.314   0.955  0.6327  0.2379 -0.0337
34392TIP3    H1 4058   4.130   9.345   0.866 -3.9755 -2.3213 -1.7925
34392TIP3    H2 4059   4.075   9.384   1.001  1.2773  0.7927 -0.2255
34393TIP3   OH2 4060   7.791   6.749   0.480 -0.2370 -0.9714 -0.2207
34393TIP3    H1 4061   7.862   6.685   0.482 -0.7610 -1.5503 -0.1971
34393TIP3    H2 4062   7.741   6.727   0.401 -0.5021 -0.6829 -0.1345
34394TIP3   OH2 4063   2.602   2.632   1.928  0.3426 -0.0127 -0.1268
34394TIP3    H1 4064   2.563   2.567   1.987  0.5748  0.5403  0.6536
34394TIP3    H2 4065   2.688   2.595   1.907  0.4432  0.0038  0.2491
34395TIP3   OH2 4066   2.633   4.476   7.969  0.1120  0.3105  0.0168
34395TIP3    H1 4067   2.628   4.412   8.040 -1.8310 -0.5887 -0.8690
34395TIP3    H2 4068   2.663   4.557   8.011 -0.9056 -0.2170  1.8548
34396TIP3   OH2 4069   5.726   2.100   0.942 -0.0347 -0.2435  0.1103
34396TIP3    H1 4070   5.758   2.190   0.953  0.2701 -0.5525  2.1145
34396TIP3    H2 4071   5.791   2.046   0.987 -0.8434 -1.3550 -0.0262
34397TIP3   OH2 4072   4.321   5.592   1.461  0.3187  0.3510 -0.2877
34397TIP3    H1 4073   4.297   5.586   1.554 -2.8791  0.4765 -0.9658
34397TIP3    H2 4074   4.339   5.685   1.448  0.7873  0.3343  0.1939
34398TIP3   OH2 4075   4.786   5.478   9.616 -0.4554  0.0677  0.0125
34398TIP3    H1 4076   4.727   5.553   9.626 -3.5304 -1.6681 -3.1201
34398TIP3    H2 4077   4.758   5.417   9.685  1.0426  1.0547  1.5868
34399TIP3   OH2 4078   0.120   5.539   7.361 -0.0808 -0.3046 -0.2709
34399TIP3    H1 4079   0.137   5.465   7.420 -2.0735 -0.3518  0.3209
34399TIP3    H2 4080   0.195   5.597   7.374 -0.2987 -0.4322  2.1407
34400TIP3   OH2 4081   0.549   6.663   8.096  0.2627  0.0136 -0.2555
34400TIP3    H1 4082   0.605   6.713   8.156  1.5850 -2.6793  0.9257
34400TIP3    H2 4083   0.573   6.572   8.111 -2.1320 -1.0508 -2.1771
34401TIP3   OH2 4084   9.727   8.559   7.875  0.0163 -0.2216 -0.9252
34401TIP3    H1 4085   9.744   8.635   7.820  1.7883 -0.3805 -0.6614
34401TIP3    H2 4086   9.633   8.543   7.866 -0.3737  1.9074 -1.0721
34402TIP3   OH2 4087   5.174   3.110   0.848  0.4515 -0.3555  0.5644
34402TIP3    H1 4088   5.110   3.041   0.833  0.2457  0.0522 -0.5293
34402TIP3    H2 4089   5.218   3.086   0.930 -2.5951  0.4675  2.6312
34403TIP3   OH2 4090   9.338   9.861  10.196  0.1669  0.5480  0.2729
34403TIP3    H1 4091   9.245   9.862  10.220  0.0968  2.6079  0.0823
34403TIP3    H2 4092   9.342   9.901  10.109  1.0118 -1.8591 -0.8881
34404TIP3   OH2 4093  10.207   6.285   5.683 -0.5411  0.4292 -0.0717
34404TIP3    H1 4094  10.145   6.255   5.749  0.6550  0.6955  1.2214
34404TIP3    H2 4095  10.218   6.210   5.625 -0.1359 -0.5071  1.1689
34405TIP3   OH2 4096   4.664   5.821   8.915 -0.2255 -0.4303  0.0135
34405TIP3    H1 4097   4.743   5.874   8.902 -0.7050 -0.2892 -2.8509
34405TIP3    H2 4098   4.658   5.767   8.836 -2.2001 -1.5077  0.8344
34406TIP3   OH2 4099   0.474   7.221   3.764 -0.2715  0.3733  0.2699
34406TIP3    H1 4100   0.458   7.130   3.787  0.5692  0.1445 -0.0527
34406TIP3    H2 4101   0.531   7.218   3.687 -0.8773  1.1622 -0.2381
34407TIP3   OH2 4102   6.004  10.485   5.724  0.2586 -0.1661 -0.4232
34407TIP3    H1 4103   6.088  10.484   5.678 -0.1489  1.9599 -1.3627
34407TIP3    H2 4104   5.981  10.578   5.730 -1.7131 -0.6484  0.3960
34408TIP3   OH2 4105   8.026   5.634  10.802  0.5325  0.4125 -0.4736
34408TIP3    H1 4106   8.046   5.662  10.891  0.3006  0.9363 -0.5797
34408TIP3    H2 4107   7.994   5.545  10.811  1.7254  0.0010 -0.1790
34409TIP3   OH2 4108   9.946   6.276   5.004 -0.2441 -0.3387 -0.1434
34409TIP3    H1 4109   9.860   6.298   4.969 -0.8129 -0.1169  1.3023
34409TIP3    H2 4110   9.989   6.361   5.019  0.4917 -0.4585 -1.4172
34410TIP3   OH2 4111   8.071   4.056   2.943 -0.1424 -0.2503  0.4947
34410TIP3    H1 4112   8.049   4.080   3.034 -0.8165 -1.8381  0.7789
34410TIP3    H2 4113   8.165   4.037   2.946 -0.1909 -0.4443  0.8987
34411TIP3   OH2 4114   2.912   3.249   9.434  0.3471 -0.2233 -0.5247
34411TIP3    H1 4115   2.863   3.284   9.359 -0.0123 -0.8995 -0.6123
34411TIP3    H2 4116   2.968   3.182   9.396  1.4616  0.6425 -0.4416
34412TIP3   OH2 4117   8.486   1.304   5.783  0.0006 -0.3135 -0.1396
34412TIP3    H1 4118   8.517   1.242   5.849 -0.4048 -1.1758 -0.7434
34412TIP3    H2 4119   8.554   1.371   5.779  0.2110 -0.4490  0.8793
34413TIP3   OH2 4120   3.841   8.792  10.363  0.4028  0.0162 -1.0248
34413TIP3    H1 4121   3.909   8.822  10.423 -0.9934 -0.3943  0.8639
34413TIP3    H2 4122   3.796   8.872  10.336 -1.0000  0.0173  1.1087
34414TIP3   OH2 4123  10.658   0.724   6.568 -0.6537  0.1181 -0.1036
34414TIP3    H1 4124  10.579   0.685   6.607 -0.4417 -2.3112 -1.8556
34414TIP3    H2 4125  10.630   0.811   6.540 -1.6241  0.7874  2.6167
34415TIP3   OH2 4126  10.776   8.042   3.399 -0.2214 -0.0825 -0.3240
34415TIP3    H1 4127  10.688   8.078   3.396  0.1321  0.8171 -0.4061
34415TIP3    H2 4128  10.801   8.032   3.307 -1.0608 -2.5213 -0.3582
34416TIP3   OH2 4129   8.196   9.936   3.830  0.0554  0.1603  0.0226
34416TIP3    H1 4130   8.163   9.847   3.814  0.4618  0.1172 -0.5958
34416TIP3    H2 4131   8.288   9.923   3.853 -0.2424  0.3132  1.3577
34417TIP3   OH2 4132   3.129   6.208   1.149  0.4387 -0.0141 -0.5585
34417TIP3    H1 4133   3.139   6.139   1.215 -0.7175  0.2684 -0.0614
34417TIP3    H2 4134   3.067   6.171   1.085 -2.6652  1.5784  1.2874
34418TIP3   OH2 4135   5.093   8.609   4.710 -0.2266 -0.3085  0.0147
34418TIP3    H1 4136   5.177   8.654   4.705 -0.6177  0.5527  0.9694
34418TIP3    H2 4137   5.116   8.516   4.713  0.6889 -0.0826  0.2680
34419TIP3   OH2 4138  10.042  10.726   1.094  0.3367 -0.3253 -0.0353
34419TIP3    H1 4139  10.052  10.746   1.001  0.7114  0.3998  0.1488
34419TIP3    H2 4140  10.087  10.798   1.138  1.4041 -1.4042  0.6853
34420TIP3   OH2 4141   2.089   6.437   0.386  0.2159  1.0713  0.2594
34420TIP3    H1 4142   1.997   6.444   0.411 -0.5345  0.2113 -1.9877
34420TIP3    H2 4143   2.108   6.344   0.395  1.0726  1.3292  1.2654
34421TIP3   OH2 4144   6.768   5.436   9.569 -0.3966 -0.3238 -0.5093
34421TIP3    H1 4145   6.840   5.449   9.630 -0.5158  0.8429 -0.5821
34421TIP3    H2 4146   6.691   5.471   9.614 -1.6903 -4.4779  0.9449
34422TIP3   OH2 4147   0.616   8.856   6.107  0.0153 -0.1163  0.4981
34422TIP3    H1 4148   0.700   8.809   6.105 -0.5807 -1.2159  0.5588
34422TIP3    H2 4149   0.573   8.824   6.187 -0.9298 -0.4238 -0.1220
34423TIP3   OH2 4150   1.801   5.968  10.258 -0.0411  0.4558  0.1509
34423TIP3    H1 4151   1.725   5.926  10.218 -0.3418  0.2703  0.8989
34423TIP3    H2 4152   1.845   6.012  10.185 -1.0889  0.9021 -0.2300
34424TIP3   OH2 4153   6.461   5.427   7.019 -0.1509 -0.3614  0.0352
34424TIP3    H1 4154   6.409   5.455   6.943 -0.0559  1.0808  0.4593
34424TIP3    H2 4155   6.445   5.495   7.085 -1.0478 -2.0797  1.7102
34425TIP3   OH2 4156   9.340   1.299   9.913 -0.7948 -0.0612 -0.1534
34425TIP3    H1 4157   9.268   1.259   9.963 -0.3514 -0.4880  0.1487
34425TIP3    H2 4158   9.403   1.327   9.979 -0.5582  0.0681 -0.4321
34426TIP3   OH2 4159   9.052   2.074   0.750 -0.1366 -0.1320  0.1580
34426TIP3    H1 4160   9.147   2.069   0.760 -0.1348  0.4420  0.4685
34426TIP3    H2 4161   9.026   2.146   0.807 -0.6505  0.3214 -0.6299
34427TIP3   OH2 4162   1.927  10.433  10.422  0.2238  0.4463  0.5295
34427TIP3    H1 4163   1.963  10.377  10.490  2.7327 -0.3631 -1.3029
34427TIP3    H2 4164   1.932  10.381  10.342  1.1191  2.6355 -0.9630
34428TIP3   OH2 4165   9.100   5.777  10.587  0.5299  0.0219  0.6107
34428TIP3    H1 4166   9.116   5.832  10.663  0.1859 -0.2361  0.8734
34428TIP3    H2 4167   9.173   5.795  10.528 -0.8409  2.7315 -0.4683
34429TIP3   OH2 4168   8.835   7.157   5.703  0.0728 -0.2058 -0.4648
34429TIP3    H1 4169   8.787   7.093   5.651 -0.3843 -1.7038  1.6338
34429TIP3    H2 4170   8.906   7.187   5.646 -0.3430 -1.8141 -1.8880
34430TIP3   OH2 4171   6.871   9.931   3.081 -0.8013 -0.2954  0.4063
34430TIP3    H1 4172   6.964   9.943   3.098 -0.7772 -1.2647  1.0157
34430TIP3    H2 4173   6.828   9.974   3.155 -0.8227 -0.4512  0.4837
34431TIP3   OH2 4174   5.114   0.085   8.620  0.1158 -0.3838  0.3059
34431TIP3    H1 4175   5.168   0.058   8.545 -0.0298  1.7911 -0.6649
34431TIP3    H2 4176   5.036   0.030   8.613  1.4722 -2.4468  0.7879
34432TIP3   OH2 4177   0.374   6.015   0.691 -0.8048  0.2981  0.9599
34432TIP3    H1 4178   0.319   5.944   0.660  0.9575 -1.2327  1.1667
34432TIP3    H2 4179   0.342   6.033   0.779 -1.7854  0.3556  0.6111
34433TIP3   OH2 4180   8.290   7.137   1.102  0.5657  0.1672  0.1767
34433TIP3    H1 4181   8.247   7.178   1.177  0.7424 -0.3054  0.5439
34433TIP3    H2 4182   8.220   7.127   1.037 -0.1611 -1.5792  1.1724
34434TIP3   OH2 4183   3.750   2.607   8.412  0.1289  0.2018 -0.0620
34434TIP3    H1 4184   3.749   2.570   8.500 -0.2147  2.3736  0.8976
34434TIP3    H2 4185   3.841   2.633   8.397  0.3701 -0.9227 -0.7396
34435TIP3   OH2 4186   3.300   0.007  10.386  0.2966  0.1543  0.4982
34435TIP3    H1 4187   3.297   0.036  10.295  2.4659  2.1651  0.9806
34435TIP3    H2 4188   3.246   0.070  10.433  1.6221  0.9535  0.9859
34436TIP3   OH2 4189   2.364   8.319  10.691 -0.1678 -0.3145  0.2332
34436TIP3    H1 4190   2.365   8.240  10.636 -1.2877  0.1219 -0.4608
34436TIP3    H2 4191   2.281   8.361  10.670  0.0601  0.6490  1.1830
34437TIP3   OH2 4192   5.717   9.673   4.164 -0.5326  0.4093 -0.0125
34437TIP3    H1 4193   5.665   9.683   4.084 -0.6561 -0.0383  0.0099
34437TIP3    H2 4194   5.663   9.619   4.222  0.7076 -1.7327 -0.7218
34438TIP3   OH2 4195   4.283   2.617   8.116 -0.4646  0.2521  0.3792
34438TIP3    H1 4196   4.275   2.680   8.187  0.8981 -2.3512  3.0635
34438TIP3    H2 4197   4.203   2.565   8.120  0.4707 -1.1926  1.4798
34439TIP3   OH2 4198   9.949   4.808   2.633 -0.2055 -0.6157  0.3105
34439TIP3    H1 4199  10.011   4.824   2.562  0.2540 -0.5497  0.7166
34439TIP3    H2 4200   9.880   4.755   2.594  0.0481 -0.5913 -0.1787
34440TIP3   OH2 4201  10.081   4.013   9.226  0.0430  0.0126  0.2994
34440TIP3    H1 4202  10.022   3.999   9.301 -0.8538  2.7519  0.2156
34440TIP3    H2 4203  10.127   3.929   9.216 -1.5991 -1.2421  2.3254
34441TIP3   OH2 4204   9.391   7.181  10.858 -0.5204  0.5787  0.2630
34441TIP3    H1 4205   9.384   7.086  10.849  3.6889  0.1872 -0.8445
34441TIP3    H2 4206   9.413   7.195  10.950  2.2837  0.0072 -0.2270
34442TIP3   OH2 4207  10.325   8.921  10.667 -0.1142  0.3505  0.0909
34442TIP3    H1 4208  10.330   8.895  10.759  0.5012 -0.9418 -0.2797
34442TIP3    H2 4209  10.306   9.015  10.669  0.4109  0.4442  1.5378
34443TIP3   OH2 4210  10.731   3.719   1.957 -0.0127 -0.4707 -0.0497
34443TIP3    H1 4211  10.790   3.784   1.917  0.1005 -1.0866 -0.9218
34443TIP3    H2 4212  10.782   3.681   2.028 -0.3870  0.9878  1.0315
34444TIP3   OH2 4213   8.836   0.411   5.529 -0.1560  0.6340  0.1639
34444TIP3    H1 4214   8.762   0.470   5.542 -1.3384 -0.9503  0.8524
34444TIP3    H2 4215   8.913   0.469   5.530 -1.3853  2.3640 -1.1059
34445TIP3   OH2 4216   8.033   9.976  10.140 -0.5458  0.2375 -0.1926
34445TIP3    H1 4217   8.033  10.059  10.091  2.8555 -0.7993 -2.3362
34445TIP3    H2 4218   7.978   9.918  10.087  0.1726  0.1236 -0.8368
34446TIP3   OH2 4219   4.444   0.165   1.025  0.0016  0.3135  0.2593
34446TIP3    H1 4220   4.355   0.199   1.029 -0.4255 -0.8331  0.6228
34446TIP3    H2 4221   4.466   0.144   1.116 -0.2671 -1.6771 -0.0908
34447TIP3   OH2 4222   3.198   0.128   3.442  0.3171  0.3276 -0.3794
34447TIP3    H1 4223   3.235   0.123   3.354  1.6396  0.5059  0.1476
34447TIP3    H2 4224   3.183   0.037   3.467  0.5395  0.2456 -0.5411
34448TIP3   OH2 4225   4.633   9.257   1.411  0.3482  0.7201 -0.2554
34448TIP3    H1 4226   4.619   9.337   1.361 -0.8101  0.2631 -0.7054
34448TIP3    H2 4227   4.706   9.277   1.469 -0.0323  2.1566 -0.2366
34449TIP3   OH2 4228   2.179   5.370   1.293  0.3250 -0.1423  0.0273
34449TIP3    H1 4229   2.161   5.402   1.381  0.6375 -0.2085  0.1156
34449TIP3    H2 4230   2.093   5.343   1.259  0.4025 -1.4435  0.8332
34450TIP3   OH2 4231   4.845   1.229   5.823  0.3390 -0.1758 -0.3451
34450TIP3    H1 4232   4.758   1.202   5.853  0.2251 -1.0384 -1.4193
34450TIP3    H2 4233   4.851   1.322   5.848  0.8037 -1.0784  3.5961
34451TIP3   OH2 4234   3.510   2.108   8.348 -0.2831 -0.7563 -0.1058
34451TIP3    H1 4235   3.551   2.191   8.325  0.0661 -1.4480 -2.1550
34451TIP3    H2 4236   3.435   2.133   8.401 -0.7146  0.9469 -1.4231
34452TIP3   OH2 4237   2.164   6.667   5.995 -0.1686  0.1720 -0.3810
34452TIP3    H1 4238   2.232   6.654   5.930  0.3676 -1.3904  0.4470
34452TIP3    H2 4239   2.188   6.749   6.039  0.5561  0.2032 -0.8189
34453TIP3   OH2 4240   9.488   1.001   4.304 -0.6097 -0.2209 -0.4691
34453TIP3    H1 4241   9.536   0.922   4.325 -0.2087  0.6104  2.1370
34453TIP3    H2 4242   9.396   0.974   4.303 -0.4046 -0.9196 -0.7625
34454TIP3   OH2 4243   3.027   7.706   2.153  0.1155 -0.0750 -0.4069
34454TIP3    H1 4244   3.017   7.651   2.076 -0.2910  0.7493 -0.9581
34454TIP3    H2 4245   3.018   7.646   2.227 -2.4871 -0.4847 -0.9359
34455TIP3   OH2 4246   2.841   1.303   8.344  0.1433  0.0637 -0.2829
34455TIP3    H1 4247   2.785   1.315   8.267 -0.2618 -1.1985 -0.2175
34455TIP3    H2 4248   2.917   1.255   8.310 -0.5000 -1.3826  0.2598
34456TIP3   OH2 4249  10.389   3.197   5.948  0.2981  0.4009  0.2399
34456TIP3    H1 4250  10.438   3.274   5.919 -1.9710  0.8912 -2.8333
34456TIP3    H2 4251  10.434   3.123   5.908 -0.0485  0.6085 -0.5526
34457TIP3   OH2 4252   5.912   4.476   7.443  0.4263 -0.3996 -0.3746
34457TIP3    H1 4253   5.909   4.443   7.533  0.9478  2.0569  0.6280
34457TIP3    H2 4254   5.987   4.431   7.404  1.3545 -0.1359  1.0347
34458TIP3   OH2 4255   2.915   5.159   3.744 -0.4985  0.2893 -0.1415
34458TIP3    H1 4256   3.005   5.142   3.771 -0.6738 -0.5904 -0.0847
34458TIP3    H2 4257   2.906   5.254   3.748  0.1184  0.3183  0.8532
34459TIP3   OH2 4258   6.085   4.869   6.150  0.0284  0.1329  0.6764
34459TIP3    H1 4259   6.097   4.861   6.245  1.5941 -1.3081  0.4100
34459TIP3    H2 4260   6.065   4.780   6.121 -2.4413  0.8699 -0.1563
34460TIP3   OH2 4261   4.169   4.825  10.033 -0.6738  0.3197  0.6900
34460TIP3    H1 4262   4.082   4.842   9.997 -0.4680 -0.5006 -0.2693
34460TIP3    H2 4263   4.200   4.748   9.984  2.1113  2.7470 -1.8222
34461TIP3   OH2 4264   7.318   7.967   9.572 -0.3467 -0.4614  0.1657
34461TIP3    H1 4265   7.367   7.892   9.537  0.3362 -0.4597  1.0901
34461TIP3    H2 4266   7.234   7.929   9.599  0.5258 -1.2159  1.9632
34462TIP3   OH2 4267   8.184   0.558   3.471  0.3241 -0.1413 -0.2660
34462TIP3    H1 4268   8.109   0.584   3.525  1.3815  2.3589  0.1210
34462TIP3    H2 4269   8.153   0.567   3.381  0.2127  1.2715 -0.1170
34463TIP3   OH2 4270   3.036   1.732   9.417  0.0672 -0.0427 -0.6732
34463TIP3    H1 4271   3.036   1.638   9.437  0.7497  0.3239  1.2668
34463TIP3    H2 4272   3.017   1.736   9.323  0.0786 -2.1165 -0.8228
34464TIP3   OH2 4273  10.042   8.166   2.693  0.0356  0.0716 -0.2640
34464TIP3    H1 4274  10.117   8.109   2.675  1.1548  1.5166 -0.4333
34464TIP3    H2 4275  10.066   8.212   2.774 -1.3752 -0.5355  0.5354
34465TIP3   OH2 4276   8.515   9.383   5.744 -0.4963  0.5772  0.3797
34465TIP3    H1 4277   8.489   9.473   5.764 -0.4210  1.5052 -3.0314
34465TIP3    H2 4278   8.439   9.330   5.766 -1.8686  1.9937 -0.7660
34466TIP3   OH2 4279   6.101   1.146   9.640  0.8212 -0.1960  0.2749
34466TIP3    H1 4280   6.144   1.148   9.725  1.0114 -0.3686  0.1833
34466TIP3    H2 4281   6.147   1.212   9.588  0.3301  0.3180  0.4802
34467TIP3   OH2 4282   0.466   6.085   9.731 -0.2341 -0.4363  0.1761
34467TIP3    H1 4283   0.434   6.138   9.658  1.9136 -0.6876 -1.0266
34467TIP3    H2 4284   0.407   6.010   9.733 -1.4584  0.4704 -0.0521
34468TIP3   OH2 4285   0.804   3.312   4.523  0.3979 -0.2110  0.1146
34468TIP3    H1 4286   0.888   3.276   4.495  1.3058  0.9400  1.2285
34468TIP3    H2 4287   0.741   3.280   4.458  1.8115 -0.5230 -1.1488
34469TIP3   OH2 4288   4.866   2.609   5.676  0.4076 -0.6581 -0.5083
34469TIP3    H1 4289   4.951   2.602   5.721 -0.0592 -1.6727  0.2587
34469TIP3    H2 4290   4.813   2.663   5.734 -0.0617 -1.6164 -0.0243
34470TIP3   OH2 4291   8.785   9.535   9.575  0.5967  0.2432 -0.3252
34470TIP3    H1 4292   8.751   9.458   9.530 -1.6904  1.5422 -0.9591
34470TIP3    H2 4293   8.847   9.500   9.639  0.1387 -2.0422 -1.0465
34471TIP3   OH2 4294   6.334   2.841   4.080 -0.2234 -0.1077 -0.2713
34471TIP3    H1 4295   6.327   2.829   3.986 -1.9109  2.1071 -0.4976
34471TIP3    H2 4296   6.378   2.761   4.111  2.8729  0.2540 -3.1768
34472TIP3   OH2 4297  10.067   3.575   7.587 -0.4759 -0.0736  0.3747
34472TIP3    H1 4298  10.066   3.517   7.663 -3.0329  1.3552  1.5666
34472TIP3    H2 4299  10.027   3.524   7.517  0.5902 -0.9096  0.3467
34473TIP3   OH2 4300   9.635   6.994   7.485 -0.5130  0.0896 -0.3337
34473TIP3    H1 4301   9.580   7.065   7.517 -0.0910  0.6420 -0.8029
34473TIP3    H2 4302   9.721   7.010   7.524 -0.8659 -1.2245  1.0376
34474TIP3   OH2 4303  10.632   1.518   9.488 -0.5275  0.3554 -0.1702
34474TIP3    H1 4304  10.560   1.572   9.520 -0.8125 -0.2464  0.2432
34474TIP3    H2 4305  10.711   1.561   9.520 -0.7763  0.1735  0.7299
34475TIP3   OH2 4306   1.119  10.613   1.869 -0.2562 -0.0719  0.1601
34475TIP3    H1 4307   1.139  10.678   1.802  0.6035 -0.2157  0.2705
34475TIP3    H2 4308   1.175  10.636   1.943 -0.5964 -0.4062  0.5293
34476TIP3   OH2 4309   1.395   8.601   4.150  0.0478  0.2742  0.0087
34476TIP3    H1 4310   1.477   8.622   4.195 -0.7305  1.2950  0.9895
34476TIP3    H2 4311   1.328   8.647   4.199 -1.6718 -3.4922  1.6236
34477TIP3   OH2 4312   7.651   1.911   1.778  0.1742  0.3517 -0.1951
34477TIP3    H1 4313   7.687   1.999   1.787 -0.6322  0.5845  0.9380
34477TIP3    H2 4314   7.696   1.859   1.844 -2.6589  1.0473  2.5237
34478TIP3   OH2 4315   1.571   6.183   3.871  0.5657  1.1018 -0.5952
34478TIP3    H1 4316   1.586   6.242   3.797  0.6806 -0.0341 -1.5048
34478TIP3    H2 4317   1.608   6.229   3.946  2.7355  1.1953 -1.6645
34479TIP3   OH2 4318   3.547   2.497   9.086 -0.2641  1.1556  0.1478
34479TIP3    H1 4319   3.625   2.502   9.141 -0.5623  1.0329  0.5883
34479TIP3    H2 4320   3.496   2.575   9.108 -1.4695 -0.0039  1.7321
34480TIP3   OH2 4321   5.089  10.199   4.101  0.2725  0.0245  0.1375
34480TIP3    H1 4322   5.166  10.146   4.079  1.4902  2.4657 -1.9510
34480TIP3    H2 4323   5.064  10.240   4.018 -1.8106  1.2019  1.2804
34481TIP3   OH2 4324   5.598   9.668   3.040  0.0100  0.3811 -0.4303
34481TIP3    H1 4325   5.687   9.642   3.063  0.0252 -0.7195 -1.5982
34481TIP3    H2 4326   5.604   9.691   2.947 -0.9338  0.2418 -0.5313
34482TIP3   OH2 4327   4.023   2.472   8.981  0.2082 -0.2762  0.0364
34482TIP3    H1 4328   4.042   2.527   9.057  0.1806 -2.1448  1.4622
34482TIP3    H2 4329   4.109   2.440   8.954 -0.0187 -1.9744  1.1874
34483TIP3   OH2 4330   9.501  10.560   3.385  0.4572  0.4714  0.4505
34483TIP3    H1 4331   9.534  10.620   3.318  0.2165  0.7236  0.5564
34483TIP3    H2 4332   9.472  10.483   3.337  2.0469 -0.1487  0.4184
34484TIP3   OH2 4333   4.451   5.657   7.373  0.1180 -0.4975  0.0194
34484TIP3    H1 4334   4.359   5.672   7.390 -0.1682 -0.8700 -1.1208
34484TIP3    H2 4335   4.454   5.575   7.324  0.9876 -0.1372 -0.5701
34485TIP3   OH2 4336   1.865   3.267   3.224 -0.6749 -0.1765  0.6969
34485TIP3    H1 4337   1.822   3.217   3.155  1.8547 -2.8729  0.8472
34485TIP3    H2 4338   1.952   3.288   3.188 -0.3314  0.8857  2.0509
34486TIP3   OH2 4339   1.881   3.875   4.266 -0.3863 -0.1748  0.6159
34486TIP3    H1 4340   1.836   3.845   4.187 -0.2399 -0.6844  0.7257
34486TIP3    H2 4341   1.815   3.928   4.312 -0.6442 -0.3294  0.4265
34487TIP3   OH2 4342   8.723   9.124   8.923  0.0154  0.3493 -0.1374
34487TIP3    H1 4343   8.778   9.139   8.846  0.9295 -0.3831  0.3562
34487TIP3    H2 4344   8.683   9.038   8.907 -0.3402  0.5129 -0.1200
34488TIP3   OH2 4345   8.672   2.727  10.296 -0.1366  0.5638 -0.4667
34488TIP3    H1 4346   8.683   2.737  10.202 -3.2637  0.8440 -0.9225
34488TIP3    H2 4347   8.583   2.757  10.313  0.0627 -0.1801  2.4884
34489TIP3   OH2 4348   7.171   7.700   6.014  0.4470 -0.4353 -0.1170
34489TIP3    H1 4349   7.172   7.621   5.961 -0.5092 -0.4737 -0.0777
34489TIP3    H2 4350   7.198   7.671   6.101  1.1952 -0.5140 -0.3638
34490TIP3   OH2 4351   7.907   2.790  10.234 -0.7004 -0.0711  0.3564
34490TIP3    H1 4352   7.834   2.741  10.196 -0.5850 -0.6378  0.8603
34490TIP3    H2 4353   7.900   2.877  10.195  0.8509 -1.2549 -2.8769
34491TIP3   OH2 4354   0.696  10.144   7.606 -0.1648 -0.1575  0.1372
34491TIP3    H1 4355   0.747  10.174   7.531 -2.4433  1.2145 -0.9834
34491TIP3    H2 4356   0.665  10.224   7.648 -1.7899 -0.9087  0.4439
34492TIP3   OH2 4357  10.652  10.322   2.622 -0.2439  0.1221 -0.3986
34492TIP3    H1 4358  10.722  10.353   2.564  1.6077 -0.6878  1.2784
34492TIP3    H2 4359  10.670  10.229   2.634 -1.6364 -0.1095  0.0795
34493TIP3   OH2 4360   2.520   5.857   0.854  0.0761 -0.1363 -0.1662
34493TIP3    H1 4361   2.540   5.948   0.876 -1.1409 -0.7537  4.4005
34493TIP3    H2 4362   2.578   5.805   0.910 -0.8647 -2.1682 -0.9594
34494TIP3   OH2 4363   3.899   3.634   2.881  0.3886  0.7443  0.4154
34494TIP3    H1 4364   3.876   3.564   2.820  2.0793  1.5319 -1.2526
34494TIP3    H2 4365   3.874   3.601   2.967 -1.0449 -0.9015 -0.5629
34495TIP3   OH2 4366   6.256   4.222   3.205 -0.1297 -0.0960 -0.3127
34495TIP3    H1 4367   6.292   4.154   3.148  1.3209  1.5444 -1.4474
34495TIP3    H2 4368   6.329   4.247   3.262 -0.8386  0.0595  0.5561
34496TIP3   OH2 4369   2.781   4.931   7.732 -0.4544 -0.1486 -0.5290
34496TIP3    H1 4370   2.811   4.840   7.734  0.7481  0.2396  1.1727
34496TIP3    H2 4371   2.714   4.935   7.800  1.1046  0.7126  1.0257
34497TIP3   OH2 4372  10.586   1.597   2.007  0.3177 -0.9031 -0.5445
34497TIP3    H1 4373  10.604   1.687   1.981  1.9954 -1.0020  0.1720
34497TIP3    H2 4374  10.565   1.603   2.101 -2.5562 -0.9393 -1.0772
34498TIP3   OH2 4375   5.145  10.444   9.691 -0.3521  0.3167  0.0563
34498TIP3    H1 4376   5.109  10.377   9.633  1.5992 -1.1589  0.4477
34498TIP3    H2 4377   5.209  10.490   9.636  0.3763 -0.0653  0.5608
34499TIP3   OH2 4378   8.353   1.457   3.759 -0.0261 -0.1149  0.1682
34499TIP3    H1 4379   8.372   1.504   3.840  1.1434 -0.6169  0.2080
34499TIP3    H2 4380   8.406   1.377   3.766 -0.8618 -0.7361 -0.5421
34500TIP3   OH2 4381   9.522   1.289   2.748  0.1936  0.3209  0.4587
34500TIP3    H1 4382   9.498   1.227   2.679 -0.3506 -2.5190  3.0137
34500TIP3    H2 4383   9.443   1.300   2.800  1.3843 -0.3283  2.5423
34501TIP3   OH2 4384   3.680   8.288  10.469  0.3858  0.1301 -0.7224
34501TIP3    H1 4385   3.585   8.295  10.478  0.2680 -0.8921 -1.1033
34501TIP3    H2 4386   3.694   8.267  10.376  1.0422  1.1590 -0.8763
34502TIP3   OH2 4387   5.847   6.974   8.006 -0.2291  0.3406 -0.6173
34502TIP3    H1 4388   5.819   6.973   7.915 -0.9936  1.5275 -0.4208
34502TIP3    H2 4389   5.767   6.985   8.057 -0.0674 -2.2601  0.3759
34503TIP3   OH2 4390   3.597   6.319   7.220  0.0899 -0.2411  0.3473
34503TIP3    H1 4391   3.503   6.323   7.203  0.4204  0.0275 -1.5680
34503TIP3    H2 4392   3.603   6.295   7.313 -1.8508 -0.4082  0.4707
34504TIP3   OH2 4393   2.477  10.443   8.910 -0.0906  0.2698  0.0507
34504TIP3    H1 4394   2.510  10.454   8.820  1.8968 -0.9368  0.5813
34504TIP3    H2 4395   2.491  10.529   8.951  0.8586  0.2657 -0.2345
34505TIP3   OH2 4396   9.426   4.844   6.298 -0.0610  0.0772 -0.2057
34505TIP3    H1 4397   9.398   4.874   6.212  1.2675  2.1266 -0.0016
34505TIP3    H2 4398   9.481   4.768   6.281  0.6158  0.7698 -1.2403
34506TIP3   OH2 4399   2.493   4.325   1.849 -0.6138 -0.1635  0.2112
34506TIP3    H1 4400   2.407   4.360   1.871 -0.3305  0.7131 -0.0523
34506TIP3    H2 4401   2.555   4.388   1.884 -0.0573 -0.9420  0.6728
34507TIP3   OH2 4402   0.649   3.526   4.941 -0.0474 -0.4272 -0.3557
34507TIP3    H1 4403   0.734   3.498   4.908 -0.2048 -0.1298 -1.0349
34507TIP3    H2 4404   0.622   3.456   5.000  0.0532 -1.1860 -1.1778
34508TIP3   OH2 4405   7.485   7.068  10.311  0.2355 -0.0890 -0.1787
34508TIP3    H1 4406   7.503   7.129  10.382  0.5464 -0.8651  0.4297
34508TIP3    H2 4407   7.571   7.039  10.282  0.1057  0.1398 -0.7983
34509TIP3   OH2 4408  10.822   8.655   0.795  0.8509  0.0489 -0.2398
34509TIP3    H1 4409  10.814   8.560   0.792  0.6231  0.0861 -1.2603
34509TIP3    H2 4410  10.815   8.682   0.704  2.4304  0.9271 -0.1289
34510TIP3   OH2 4411   3.106   9.590   7.119  0.1831  0.0130  0.1478
34510TIP3    H1 4412   3.111   9.519   7.184 -0.4067  0.5396  0.7886
34510TIP3    H2 4413   3.177   9.649   7.142  0.0793  0.1158  0.2021
34511TIP3   OH2 4414  10.393   7.070   3.576  0.4052  0.4501 -0.3694
34511TIP3    H1 4415  10.429   7.114   3.653  1.5888 -0.1178 -0.5814
34511TIP3    H2 4416  10.298   7.076   3.587  0.5409  2.2261  0.0648
34512TIP3   OH2 4417   5.730   3.191   4.693  0.0259  0.1654 -0.6844
34512TIP3    H1 4418   5.711   3.265   4.635  0.7857  0.6079 -0.3897
34512TIP3    H2 4419   5.728   3.115   4.635 -0.7788  0.4097 -0.9890
34513TIP3   OH2 4420   5.536   7.074   7.967 -0.3659 -0.0871  0.0390
34513TIP3    H1 4421   5.601   7.107   7.904  0.2058 -0.1265  0.6073
34513TIP3    H2 4422   5.456   7.065   7.915 -0.6534  2.5144 -0.1103
34514TIP3   OH2 4423   1.570   6.838   2.722  0.7665  0.0809 -0.0051
34514TIP3    H1 4424   1.476   6.849   2.729  0.9681  1.6045  0.4672
34514TIP3    H2 4425   1.600   6.819   2.811  0.8358 -1.1774 -0.2734
34515TIP3   OH2 4426   3.143   1.255   9.562  0.0790  0.3464 -0.5165
34515TIP3    H1 4427   3.153   1.161   9.578 -0.6617  0.0464 -1.6572
34515TIP3    H2 4428   3.224   1.281   9.520  0.0626  0.0924 -0.7075
34516TIP3   OH2 4429   3.039   3.240  10.101 -0.0743  0.1737 -0.2174
34516TIP3    H1 4430   2.983   3.177  10.146 -0.2853  1.4419  1.3950
34516TIP3    H2 4431   3.126   3.225  10.137 -0.4765  2.0815  1.7508
34517TIP3   OH2 4432   7.976   5.589   7.558  0.2054  0.5965  0.1032
34517TIP3    H1 4433   7.995   5.682   7.568 -0.4457  0.9010 -1.3175
34517TIP3    H2 4434   7.895   5.586   7.508 -0.2062 -0.7398  0.8102
34518TIP3   OH2 4435   1.555   0.383   8.097  0.4001 -0.6065 -0.3833
34518TIP3    H1 4436   1.631   0.324   8.094  0.2271 -0.9642  1.0881
34518TIP3    H2 4437   1.522   0.385   8.008  1.5607 -1.2255 -0.8491
34519TIP3   OH2 4438   9.861   7.688  10.777 -0.0964 -0.2397  0.3682
34519TIP3    H1 4439   9.893   7.674  10.866  1.4182 -0.2126 -0.1433
34519TIP3    H2 4440   9.916   7.758  10.742 -0.6884 -0.2290 -0.5913
34520TIP3   OH2 4441   3.158   9.643   8.553 -0.2770  0.5330 -0.2413
34520TIP3    H1 4442   3.116   9.662   8.470  0.9373  0.6547 -0.8510
34520TIP3    H2 4443   3.218   9.716   8.567 -0.0486  0.2201  0.4459
34521TIP3   OH2 4444   7.416   4.658  10.007 -0.3690  0.1864 -0.4770
34521TIP3    H1 4445   7.495   4.604  10.010 -0.5980 -0.1452 -0.3209
34521TIP3    H2 4446   7.445   4.745  10.035 -0.0169  0.1226 -0.6357
34522TIP3   OH2 4447  10.804   2.499   5.047  0.0530  0.1918 -0.2423
34522TIP3    H1 4448  10.729   2.532   4.998  0.2450  0.8882 -0.0713
34522TIP3    H2 4449  10.795   2.535   5.135 -0.5959 -1.5101  0.4440
34523TIP3   OH2 4450  10.790   2.125   1.969 -0.1432 -0.2937  0.0025
34523TIP3    H1 4451  10.715   2.184   1.964  1.4601  2.0384  1.3019
34523TIP3    H2 4452  10.772   2.058   1.903 -5.2993 -2.3484  2.8564
34524TIP3   OH2 4453   3.501   5.483   8.540  0.4853  0.0089  0.0131
34524TIP3    H1 4454   3.549   5.511   8.618  0.1542  2.2882 -0.5423
34524TIP3    H2 4455   3.568   5.449   8.481  0.9324 -0.2611  0.6654
34525TIP3   OH2 4456   3.462   9.663   9.927 -0.0292  0.1804 -0.3575
34525TIP3    H1 4457   3.500   9.710  10.001 -1.4773 -1.4242  1.5337
34525TIP3    H2 4458   3.389   9.614   9.965 -1.8436  0.4680 -3.1449
34526TIP3   OH2 4459   2.599   9.974   3.921 -0.1788  0.1866  0.6875
34526TIP3    H1 4460   2.583   9.925   3.840 -0.7481 -0.3219  1.0980
34526TIP3    H2 4461   2.621   9.906   3.986  1.8988  0.7007  0.5901
34527TIP3   OH2 4462   2.226   9.188   0.237  0.0305 -0.0020 -0.4968
34527TIP3    H1 4463   2.192   9.147   0.316  0.2203 -3.0163 -1.8393
34527TIP3    H2 4464   2.300   9.240   0.266 -0.0751 -0.7963  1.3258
34528TIP3   OH2 4465   1.865   5.532   5.376  0.3351  0.3772 -0.3510
34528TIP3    H1 4466   1.904   5.568   5.296  0.7941 -0.6291 -0.5893
34528TIP3    H2 4467   1.782   5.580   5.385  0.7319  1.1950 -0.8823
34529TIP3   OH2 4468  10.882   0.430   8.007  0.2631 -0.6100 -0.2406
34529TIP3    H1 4469  10.843   0.423   7.920  0.7237  2.5170 -0.7928
34529TIP3    H2 4470  10.812   0.465   8.062  0.8358  0.3239 -0.0903
34530TIP3   OH2 4471   4.445   6.969   4.214 -0.5121 -0.0503  0.0867
34530TIP3    H1 4472   4.447   6.923   4.130 -2.0261  0.2874 -0.1689
34530TIP3    H2 4473   4.497   7.048   4.199 -0.3191 -0.2606 -0.3608
34531TIP3   OH2 4474  10.739  10.658   1.941 -0.3594 -0.0513 -0.0872
34531TIP3    H1 4475  10.741  10.677   1.847  0.6490 -0.9417 -0.2567
34531TIP3    H2 4476  10.788  10.729   1.982 -2.3020  1.3415 -0.0098
34532TIP3   OH2 4477   2.708   8.741   1.409 -0.0679 -0.4591  0.5603
34532TIP3    H1 4478   2.695   8.697   1.493  0.5289 -0.5529  0.6014
34532TIP3    H2 4479   2.648   8.695   1.350 -1.2329  0.2565  1.1458
34533TIP3   OH2 4480   1.705   8.070   5.693 -0.2178  0.1030 -0.5685
34533TIP3    H1 4481   1.618   8.101   5.668 -0.6010 -0.2941  0.2319
34533TIP3    H2 4482   1.746   8.145   5.737  0.0731  0.4697 -1.4291
34534TIP3   OH2 4483   3.554   8.359   0.050 -0.2796  0.2708  0.1395
34534TIP3    H1 4484   3.496   8.432   0.071  1.2948  1.3066  1.1791
34534TIP3    H2 4485   3.638   8.401   0.030  0.3181 -1.1977 -0.5485
34535TIP3   OH2 4486   9.503   3.075   5.093 -0.6206 -0.1032 -0.2886
34535TIP3    H1 4487   9.455   2.994   5.079 -1.8155  0.5571 -0.1676
34535TIP3    H2 4488   9.445   3.144   5.059 -0.1342  0.7937  0.6216
34536TIP3   OH2 4489   8.804   8.148   7.992  0.0680 -0.2438  0.6335
34536TIP3    H1 4490   8.711   8.146   8.013 -0.1246 -0.8318 -0.2428
34536TIP3    H2 4491   8.839   8.219   8.047 -0.5930 -1.0074  2.1081
34537TIP3   OH2 4492   8.370   0.904   0.605 -0.4437 -0.3526 -0.2880
34537TIP3    H1 4493   8.335   0.971   0.546 -1.1247 -0.5496 -0.1215
34537TIP3    H2 4494   8.395   0.832   0.548  1.1933  0.3988 -0.5654
34538TIP3   OH2 4495   8.708   1.026  10.604 -0.6027  0.9984 -0.1868
34538TIP3    H1 4496   8.694   1.014  10.510 -1.0141  0.9976 -0.1285
34538TIP3    H2 4497   8.675   1.115  10.622 -1.7882  0.5007  0.1935
34539TIP3   OH2 4498  10.557   5.757   8.665 -0.1618  0.0603  0.1445
34539TIP3    H1 4499  10.580   5.722   8.751  1.9309  0.9438  0.0142
34539TIP3    H2 4500  10.477   5.808   8.679  1.2513  1.8994  2.0658
34540TIP3   OH2 4501  10.136   4.301   9.238  0.4145  0.1600  0.6916
34540TIP3    H1 4502  10.194   4.344   9.175 -2.0411  1.1167 -1.0362
34540TIP3    H2 4503  10.134   4.210   9.210 -2.6307  0.9996 -2.4286
34541TIP3   OH2 4504   7.920   1.511   0.707 -0.1254 -0.5056  0.0227
34541TIP3    H1 4505   7.856   1.448   0.674 -0.6439  0.3719 -0.7087
34541TIP3    H2 4506   7.998   1.459   0.726 -1.1430 -1.6557  1.2513
34542TIP3   OH2 4507   9.635   1.109   1.481 -0.2109 -0.0832 -0.1026
34542TIP3    H1 4508   9.545   1.125   1.454 -0.0514 -0.6927 -1.0391
34542TIP3    H2 4509   9.654   1.178   1.545 -1.1381  0.4085 -0.3480
34543TIP3   OH2 4510   0.225   2.157   8.222  0.1811  0.0421  0.5531
34543TIP3    H1 4511   0.174   2.166   8.302  0.6700 -1.0314  1.0155
34543TIP3    H2 4512   0.284   2.083   8.240 -0.0884 -0.5894 -0.9938
34544TIP3   OH2 4513   1.800   7.466   9.144 -0.1577 -0.0167  0.1362
34544TIP3    H1 4514   1.827   7.426   9.061  0.5811 -0.2221  0.4687
34544TIP3    H2 4515   1.840   7.410   9.211 -0.0172  0.6557  0.6207
34545TIP3   OH2 4516  10.835   7.935   3.160  0.1650  0.9654 -0.9227
34545TIP3    H1 4517  10.912   7.939   3.103  0.8078 -0.7911 -0.2351
34545TIP3    H2 4518  10.784   7.861   3.127 -0.2716  0.9407 -0.2143
34546TIP3   OH2 4519   1.195  10.249   0.830  0.6303  1.2241 -0.0734
34546TIP3    H1 4520   1.245  10.251   0.749  1.9959  1.4454  0.7409
34546TIP3    H2 4521   1.137  10.325   0.824  0.2147  0.8361 -1.1296
34547TIP3   OH2 4522  10.819   0.341   7.471  0.1982  0.0952  0.5642
34547TIP3    H1 4523  10.761   0.296   7.409  0.8294  0.3752 -0.2424
34547TIP3    H2 4524  10.840   0.424   7.429  2.5499 -0.6980  0.0439
34548TIP3   OH2 4525   7.126   8.726   0.245 -0.2554 -1.4365 -0.3898
34548TIP3    H1 4526   7.145   8.768   0.329  0.3580 -1.1021 -0.6953
34548TIP3    H2 4527   7.170   8.641   0.250 -1.7776 -2.2343  0.3654
34549TIP3   OH2 4528   6.991   9.942   9.174 -0.5337  0.2400  0.5996
34549TIP3    H1 4529   6.902   9.922   9.203 -1.1962  2.0387 -0.0201
34549TIP3    H2 4530   6.985   9.945   9.078 -0.1553  1.7107  0.5994
34550TIP3   OH2 4531   6.232   6.014  10.588 -0.3518  0.1796  0.1405
34550TIP3    H1 4532   6.250   6.036  10.680  1.4553 -0.1245 -0.1142
34550TIP3    H2 4533   6.257   6.093  10.540 -1.2131  0.3052 -0.1264
34551TIP3   OH2 4534   2.292   1.571   0.766 -0.0429 -0.4306  0.0172
34551TIP3    H1 4535   2.379   1.561   0.725 -0.4353 -0.4222 -0.8374
34551TIP3    H2 4536   2.294   1.511   0.840  0.5088 -0.8343 -0.3122
34552TIP3   OH2 4537   0.013   6.509   0.849  0.1669  0.0239 -0.4778
34552TIP3    H1 4538   0.072   6.571   0.807  0.0699 -0.0273 -0.6919
34552TIP3    H2 4539   0.065   6.429   0.859  0.3332  0.1813 -0.0805
34553TIP3   OH2 4540  10.392   4.388   4.214 -0.3671  0.2257  0.1101
34553TIP3    H1 4541  10.478   4.407   4.253 -1.0346  0.7782  1.3673
34553TIP3    H2 4542  10.343   4.469   4.221 -1.0266 -0.1015 -0.5494
34554TIP3   OH2 4543   0.078   1.706   3.794  0.2253 -0.1226  0.9202
34554TIP3    H1 4544   0.097   1.741   3.707  0.6381 -2.7723 -0.1487
34554TIP3    H2 4545   0.031   1.777   3.838 -0.2875  1.2106 -1.5618
34555TIP3   OH2 4546   6.912   8.713   6.255  0.1005  0.8050 -0.0620
34555TIP3    H1 4547   6.860   8.651   6.306  2.2243  0.0763  1.3542
34555TIP3    H2 4548   6.993   8.722   6.305  2.2236  0.2831 -3.1645
34556TIP3   OH2 4549   5.576   2.346   5.224  0.7622  0.0494  0.5147
34556TIP3    H1 4550   5.624   2.362   5.306  2.2683  0.9780 -0.5057
34556TIP3    H2 4551   5.568   2.251   5.220  0.3391 -0.0040  1.9015
34557TIP3   OH2 4552   2.209   4.365   6.733  0.1527 -0.4974 -0.2727
34557TIP3    H1 4553   2.266   4.340   6.660 -0.4976  1.9364 -1.7180
34557TIP3    H2 4554   2.130   4.313   6.720  0.0545 -0.1124 -1.3236
34558TIP3   OH2 4555  10.887   1.532   5.699 -0.5080  0.0204 -0.1802
34558TIP3    H1 4556  10.840   1.616   5.699  2.0574  1.6353 -2.0211
34558TIP3    H2 4557  10.954   1.543   5.766 -0.5913 -0.8483  0.0505
34559TIP3   OH2 4558  10.706  10.144   6.927 -0.3064 -0.5033  0.1470
34559TIP3    H1 4559  10.794  10.128   6.961 -0.6508 -1.2067  0.7408
34559TIP3    H2 4560  10.649  10.088   6.980 -0.9115 -1.4619 -1.4213
34560TIP3   OH2 4561   5.053   5.798   2.932  0.0672 -0.1035 -0.5702
34560TIP3    H1 4562   5.097   5.869   2.885  0.3316 -0.5021 -0.9392
34560TIP3    H2 4563   5.089   5.801   3.020  0.0277  0.2602 -0.5639
34561TIP3   OH2 4564   4.234  10.017   2.462  0.5101  0.5592  0.4557
34561TIP3    H1 4565   4.216  10.107   2.492 -1.4369  0.4103 -0.1018
34561TIP3    H2 4566   4.271  10.028   2.374  0.3865  0.8272  0.4361
34562TIP3   OH2 4567  10.303  10.461   9.914 -0.1640 -0.4202 -0.5840
34562TIP3    H1 4568  10.237  10.401   9.948  1.3916 -0.0518  3.5820
34562TIP3    H2 4569  10.384  10.410   9.915  0.7482  0.9842  0.7778
34563TIP3   OH2 4570   7.260   1.493   5.554  0.2876  0.0619 -0.1619
34563TIP3    H1 4571   7.258   1.411   5.505 -0.1217  0.4079 -0.7397
34563TIP3    H2 4572   7.223   1.471   5.639  0.6279 -0.4553 -0.1381
34564TIP3   OH2 4573  10.031   2.685   2.375 -0.1926 -0.0501  0.6987
34564TIP3    H1 4574  10.012   2.779   2.381 -2.5417 -0.3423 -0.8607
34564TIP3    H2 4575  10.125   2.679   2.391 -0.0415  2.5162  1.2504
34565TIP3   OH2 4576   9.149   6.365   9.013 -0.3983 -0.4009  0.5197
34565TIP3    H1 4577   9.135   6.376   9.107 -1.7884 -1.8998  0.5183
34565TIP3    H2 4578   9.120   6.276   8.994 -1.3615  0.2841 -1.5513
34566TIP3   OH2 4579   9.145   3.093   9.067 -0.0211  0.1445 -0.2946
34566TIP3    H1 4580   9.192   3.109   9.149 -1.6131 -1.0860  0.9460
34566TIP3    H2 4581   9.151   2.998   9.054 -1.9146 -0.0468 -0.1567
34567TIP3   OH2 4582   9.408   2.594   2.202 -0.2408 -0.1777  0.4188
34567TIP3    H1 4583   9.431   2.507   2.168  1.0842  0.3974 -0.2751
34567TIP3    H2 4584   9.435   2.592   2.294 -0.5240 -0.6086  0.4939
34568TIP3   OH2 4585   4.551   4.877   5.035 -0.3233  0.0151  0.5001
34568TIP3    H1 4586   4.570   4.818   5.108  1.4961  1.6456  1.4014
34568TIP3    H2 4587   4.609   4.951   5.047 -1.2142  1.1625 -1.6621
34569TIP3   OH2 4588   0.975   0.427   3.222  0.4741  0.2958  0.0279
34569TIP3    H1 4589   0.983   0.332   3.231 -1.0212  0.0442 -0.8845
34569TIP3    H2 4590   0.936   0.440   3.136  2.1847  1.8554 -0.5724
34570TIP3   OH2 4591   7.512  10.105   0.810 -0.0495  0.3963 -0.0315
34570TIP3    H1 4592   7.517  10.023   0.760  0.3889  0.7607 -0.5929
34570TIP3    H2 4593   7.499  10.173   0.744  2.6699  1.1527  0.0762
34571TIP3   OH2 4594   3.371   6.154   6.179 -0.7354 -0.4182 -0.3693
34571TIP3    H1 4595   3.406   6.110   6.102 -0.9294 -0.3798 -0.4798
34571TIP3    H2 4596   3.431   6.228   6.193 -0.8417 -0.2791 -0.6330
34572TIP3   OH2 4597   6.978  10.200   6.631  0.3572 -0.1503  0.3710
34572TIP3    H1 4598   7.017  10.210   6.718 -1.0501 -0.7100  1.1031
34572TIP3    H2 4599   6.931  10.117   6.636  0.5568 -0.3719 -1.0648
34573TIP3   OH2 4600   6.169   4.471   2.696 -0.1829  0.5176  0.0023
34573TIP3    H1 4601   6.177   4.410   2.770 -0.0708 -0.8473 -1.0760
34573TIP3    H2 4602   6.217   4.549   2.723  1.6678 -0.7527  0.5684
34574TIP3   OH2 4603   5.209   2.077   8.984  0.3227 -0.0775  0.0534
34574TIP3    H1 4604   5.249   2.142   8.925 -0.9631  0.6250 -0.0707
34574TIP3    H2 4605   5.280   2.016   9.004  1.2591  0.7215 -0.7507
34575TIP3   OH2 4606   9.964   9.067   0.317  0.3807  0.0169  0.3137
34575TIP3    H1 4607  10.053   9.049   0.287 -0.3203 -2.2177 -0.6107
34575TIP3    H2 4608   9.931   9.133   0.256  1.0056 -0.0144 -0.0679
34576TIP3   OH2 4609   1.528   7.227   1.294  0.0932 -0.1759 -0.0247
34576TIP3    H1 4610   1.532   7.224   1.389  1.2612 -0.4869 -0.0652
34576TIP3    H2 4611   1.586   7.300   1.270 -0.7968  0.4057 -0.4787
34577TIP3   OH2 4612   5.021   7.598   7.871  0.1344 -0.2338 -0.2041
34577TIP3    H1 4613   5.090   7.594   7.936  0.2537 -1.4634 -0.3972
34577TIP3    H2 4614   4.958   7.661   7.907  1.8071  1.7262 -0.5028
34578TIP3   OH2 4615   3.470  10.271   9.214 -0.0315 -0.0065  0.6274
34578TIP3    H1 4616   3.562  10.272   9.239  0.8140 -2.2848 -1.9616
34578TIP3    H2 4617   3.435  10.192   9.255 -0.6229  0.3793  0.8751
34579TIP3   OH2 4618   2.786   8.635   3.556 -0.3056 -0.2529 -0.3713
34579TIP3    H1 4619   2.705   8.586   3.541 -0.3684  0.4040 -2.4240
34579TIP3    H2 4620   2.815   8.661   3.469  1.2966  0.8644  0.4467
34580TIP3   OH2 4621   6.960  10.379   9.912  0.8667  0.1658  0.4462
34580TIP3    H1 4622   7.041  10.405   9.956  0.1170  1.3600  1.1733
34580TIP3    H2 4623   6.917  10.320   9.974  0.2172  1.1783  1.0001
34581TIP3   OH2 4624  10.541   1.893   1.954  0.8602  0.6777 -0.9218
34581TIP3    H1 4625  10.496   1.952   2.014  1.4440  1.1696 -0.9511
34581TIP3    H2 4626  10.474   1.864   1.893  0.6873  1.8172 -1.2924
34582TIP3   OH2 4627  10.032   5.161   6.122  0.2713  0.2289 -0.2916
34582TIP3    H1 4628  10.042   5.137   6.029  1.3159  0.3136 -0.2212
34582TIP3    H2 4629  10.063   5.084   6.170  2.0479  1.0448 -0.0527
34583TIP3   OH2 4630   4.695   0.307   0.040 -0.0593 -0.2474  0.3760
34583TIP3    H1 4631   4.619   0.258   0.072 -1.2716  2.9826  3.0900
34583TIP3    H2 4632   4.732   0.347   0.119  0.6717  3.2467 -1.5118
34584TIP3   OH2 4633   2.992   6.962   4.494  0.2239 -0.5322 -0.7579
34584TIP3    H1 4634   2.946   6.915   4.564 -0.9979  0.9450 -0.5025
34584TIP3    H2 4635   3.074   6.914   4.482  0.0640 -1.3397  1.0644
34585TIP3   OH2 4636   1.077   0.172   4.885  0.5966 -0.5609 -0.4484
34585TIP3    H1 4637   1.029   0.143   4.807 -0.0326 -1.0188  0.0971
34585TIP3    H2 4638   1.169   0.156   4.864  0.5031  0.1212 -1.4220
34586TIP3   OH2 4639   1.432   9.820   4.091 -0.7086  0.3790  0.3074
34586TIP3    H1 4640   1.357   9.871   4.123 -0.4007  1.2588 -0.3265
34586TIP3    H2 4641   1.414   9.807   3.998 -0.1164  0.5289  0.1682
34587TIP3   OH2 4642   7.021   8.207   7.999 -0.6411 -0.0648 -0.3161
34587TIP3    H1 4643   6.928   8.190   8.008 -0.5694 -0.0661  0.5748
34587TIP3    H2 4644   7.035   8.222   7.906 -1.2732 -1.5360 -0.6720
34588TIP3   OH2 4645   1.100   6.827   6.797 -0.7162 -0.1983  0.5241
34588TIP3    H1 4646   1.077   6.803   6.887 -1.9303 -0.1838  0.2304
34588TIP3    H2 4647   1.110   6.743   6.752 -1.4959 -0.2085  0.3484
34589TIP3   OH2 4648   8.632   0.938   2.154 -0.0037  0.5134 -0.1997
34589TIP3    H1 4649   8.725   0.949   2.168 -0.0698  1.3233 -0.3314
34589TIP3    H2 4650   8.591   1.007   2.206 -0.4571  0.8949 -1.0355
34590TIP3   OH2 4651  10.407   3.850   9.391  0.6223  0.4366 -0.3873
34590TIP3    H1 4652  10.316   3.822   9.390  0.8873 -0.4369 -0.8434
34590TIP3    H2 4653  10.435   3.836   9.482  0.1838  1.1423 -0.1328
34591TIP3   OH2 4654   3.767   7.554   6.075 -0.4111 -0.0177  0.1394
34591TIP3    H1 4655   3.821   7.483   6.110  1.3377  0.6686 -1.0649
34591TIP3    H2 4656   3.790   7.559   5.983 -1.3808  1.3523 -0.0519
34592TIP3   OH2 4657   0.356   6.312   3.022 -0.4590 -0.2559 -0.4315
34592TIP3    H1 4658   0.402   6.297   3.104 -1.3889 -1.2437 -0.0528
34592TIP3    H2 4659   0.353   6.225   2.980  0.1278  0.2578 -1.5861
34593TIP3   OH2 4660   4.146   1.379   2.134  0.5343 -0.3005 -0.1206
34593TIP3    H1 4661   4.134   1.471   2.154  0.0352 -0.6843  1.4410
34593TIP3    H2 4662   4.234   1.358   2.167  0.7630 -0.3304 -0.7304
34594TIP3   OH2 4663   0.446   7.930  10.352  0.7464 -0.4413 -0.3919
34594TIP3    H1 4664   0.485   7.904  10.436 -0.3177 -1.0759 -0.0780
34594TIP3    H2 4665   0.484   8.016  10.333  2.1987 -0.9790 -0.0511
34595TIP3   OH2 4666   2.819   8.950   2.817 -0.6496  0.0842  0.4297
34595TIP3    H1 4667   2.819   9.044   2.803  0.2796  0.1126  0.5421
34595TIP3    H2 4668   2.729   8.929   2.840 -0.6622  1.0947  1.3845
34596TIP3   OH2 4669   0.018   6.555   8.237  0.1687  0.1130 -0.3409
34596TIP3    H1 4670   0.042   6.464   8.219  2.6153 -0.0289  2.8587
34596TIP3    H2 4671   0.091   6.607   8.203 -0.4770  0.7711 -0.7575
34597TIP3   OH2 4672   3.861   4.384   0.824 -0.1760  0.3939 -0.3578
34597TIP3    H1 4673   3.894   4.305   0.781  0.6140  1.4767 -1.8415
34597TIP3    H2 4674   3.937   4.442   0.829 -1.0291  1.5598 -0.4783
34598TIP3   OH2 4675   5.490   1.247   7.444  0.6910 -0.2044  0.5222
34598TIP3    H1 4676   5.480   1.339   7.467 -2.1362 -0.2533 -0.1244
34598TIP3    H2 4677   5.458   1.200   7.521 -1.0275 -0.5217 -0.3365
34599TIP3   OH2 4678   8.921  10.509   1.190 -0.1827 -0.3998  0.5562
34599TIP3    H1 4679   8.935  10.431   1.136  1.0024  0.2073 -0.0524
34599TIP3    H2 4680   8.989  10.504   1.257  0.5764  0.6298 -0.1117
34600TIP3   OH2 4681   2.350   4.585   8.308  0.1715  0.6299  0.0248
34600TIP3    H1 4682   2.320   4.640   8.380 -1.0542  0.2728 -0.1837
34600TIP3    H2 4683   2.316   4.627   8.229  2.1575  1.4459 -0.4506
34601TIP3   OH2 4684   7.975   4.886   8.685  0.6052 -0.2667 -0.3228
34601TIP3    H1 4685   7.982   4.845   8.771  0.8121  1.3800  0.4738
34601TIP3    H2 4686   7.890   4.858   8.652 -0.2184  0.3945  1.1456
34602TIP3   OH2 4687   6.565   9.868   4.667 -0.4073 -0.5228  0.5009
34602TIP3    H1 4688   6.645   9.872   4.721  0.2564  1.8713 -0.5305
34602TIP3    H2 4689   6.498   9.837   4.727  0.9741 -1.1175  1.8188
34603TIP3   OH2 4690   2.378  10.630   2.720  0.2284  0.3501  0.5299
34603TIP3    H1 4691   2.401  10.537   2.726 -0.8749  0.0262  0.0233
34603TIP3    H2 4692   2.388  10.663   2.809  2.7115  0.2808  0.3433
34604TIP3   OH2 4693   1.374  10.577   4.559  0.3093  0.0401 -0.2948
34604TIP3    H1 4694   1.465  10.595   4.581 -0.1793  0.3308  1.6611
34604TIP3    H2 4695   1.323  10.626   4.624 -1.1940 -2.0566  0.2105
34605TIP3   OH2 4696   5.541  10.403   6.405  0.2836 -0.1397  0.3992
34605TIP3    H1 4697   5.574  10.476   6.352 -1.0995  0.1248 -0.1558
34605TIP3    H2 4698   5.453  10.431   6.431  0.1037 -1.2107  0.9850
34606TIP3   OH2 4699   7.138   0.566   5.385  0.0644  0.0689 -0.1604
34606TIP3    H1 4700   7.172   0.625   5.317 -2.1326 -1.0694 -2.4022
34606TIP3    H2 4701   7.202   0.572   5.456  1.9278  2.1636 -1.8640
34607TIP3   OH2 4702   9.854   8.427   7.645  0.3547  0.0850  0.5346
34607TIP3    H1 4703   9.906   8.504   7.624 -0.3188  0.4003  0.0068
34607TIP3    H2 4704   9.813   8.448   7.729 -0.1035  0.4469  0.2236
34608TIP3   OH2 4705   0.283   8.326   5.923  0.3427 -0.2328 -0.2136
34608TIP3    H1 4706   0.376   8.346   5.936  0.2259  0.6359 -0.6626
34608TIP3    H2 4707   0.244   8.338   6.009  0.6116 -0.4181 -0.0633
34609TIP3   OH2 4708   8.164   4.216  10.868 -0.3485 -0.6458  0.0261
34609TIP3    H1 4709   8.130   4.256  10.948  0.6192 -1.1542  0.7222
34609TIP3    H2 4710   8.087   4.184  10.822 -0.9465 -0.0407  0.5869
34610TIP3   OH2 4711   1.472   3.776   6.164 -0.4172  0.0328  0.0428
34610TIP3    H1 4712   1.412   3.743   6.098 -2.1369 -0.2263  1.6592
34610TIP3    H2 4713   1.449   3.729   6.244  0.9651  0.9932  1.0613
34611TIP3   OH2 4714   4.912  10.130   8.331 -0.3444 -0.2697 -0.7226
34611TIP3    H1 4715   4.894  10.131   8.425  0.4611  0.2305 -0.5639
34611TIP3    H2 4716   4.827  10.144   8.290 -0.8749 -1.5211 -0.1054
34612TIP3   OH2 4717   0.341   1.763   7.666 -0.2870 -0.1965  0.1723
34612TIP3    H1 4718   0.304   1.834   7.614 -1.2786 -0.1296  0.9471
34612TIP3    H2 4719   0.434   1.761   7.641 -0.1830  1.5315  0.3458
34613TIP3   OH2 4720   1.142   4.845   7.289 -0.6301  0.6261 -0.8583
34613TIP3    H1 4721   1.173   4.809   7.206 -0.1137 -0.7638 -0.1027
34613TIP3    H2 4722   1.201   4.919   7.306  1.7797 -1.3271  0.0214
34614TIP3   OH2 4723  10.199  10.036   2.993 -0.4004 -0.1229  0.3130
34614TIP3    H1 4724  10.201   9.952   2.947 -1.6588 -0.7929  1.4004
34614TIP3    H2 4725  10.214  10.101   2.925  2.3426 -1.2734 -0.2893
34615TIP3   OH2 4726   0.893   4.431   3.794 -0.1160 -0.3093  0.3443
34615TIP3    H1 4727   0.845   4.479   3.862 -1.1053 -0.2056 -0.4106
34615TIP3    H2 4728   0.844   4.350   3.783 -0.9234  0.3653 -1.3687
34616TIP3   OH2 4729   1.703   6.448   9.043 -0.0702  0.1259 -0.0944
34616TIP3    H1 4730   1.700   6.531   9.090  0.2387 -0.5677  1.1930
34616TIP3    H2 4731   1.796   6.434   9.025 -0.1749  0.3416 -0.8831
34617TIP3   OH2 4732   4.201   9.814   8.885 -0.3244  0.0424 -0.5732
34617TIP3    H1 4733   4.274   9.778   8.936 -0.7210  0.0356 -0.0024
34617TIP3    H2 4734   4.241   9.844   8.803  0.4225  0.5415 -0.0402
34618TIP3   OH2 4735   0.033   2.992  10.528  0.2921 -0.7088  0.2853
34618TIP3    H1 4736  -0.020   2.960  10.601  0.8978  0.2985  1.2000
34618TIP3    H2 4737  -0.032   3.017  10.461 -0.3096 -0.8613  0.7999
34619TIP3   OH2 4738  10.347   0.190   9.720 -0.2321  0.5833 -0.1802
34619TIP3    H1 4739  10.361   0.253   9.791 -1.0038  0.0232  0.4858
34619TIP3    H2 4740  10.344   0.244   9.641  2.6701  1.0316 -0.0824
34620TIP3   OH2 4741   1.522   3.896   7.417 -0.0931 -0.4439  0.1200
34620TIP3    H1 4742   1.497   3.982   7.385 -0.5781 -0.8476 -0.6001
34620TIP3    H2 4743   1.446   3.867   7.469  0.6146  0.1340  1.5379
34621TIP3   OH2 4744   5.824  10.113   5.772 -0.6298 -0.4827 -0.0121
34621TIP3    H1 4745   5.841  10.118   5.866 -0.8044 -1.3008  0.0679
34621TIP3    H2 4746   5.729  10.102   5.765 -0.5274 -1.3067 -0.2423
34622TIP3   OH2 4747   8.470   7.662   8.396 -0.0727 -0.1324  0.2356
34622TIP3    H1 4748   8.545   7.645   8.453  1.4817  2.4294 -0.9130
34622TIP3    H2 4749   8.434   7.745   8.427  0.7257  1.2751 -2.3247
34623TIP3   OH2 4750   9.451   2.306   9.434  0.1969  0.1222  0.0744
34623TIP3    H1 4751   9.400   2.387   9.427 -2.6962 -1.6490 -0.7905
34623TIP3    H2 4752   9.435   2.274   9.522  0.7883  0.1173  0.1874
34624TIP3   OH2 4753   5.743   1.804   3.499  0.2844 -0.2755  0.6922
34624TIP3    H1 4754   5.774   1.800   3.590  0.2614  0.2597  0.7255
34624TIP3    H2 4755   5.650   1.822   3.507  0.1472 -0.9383  0.5747
34625TIP3   OH2 4756   7.309  10.260   1.889  0.1858  0.0992  0.3889
34625TIP3    H1 4757   7.279  10.237   1.978 -2.0067 -0.0278 -0.3161
34625TIP3    H2 4758   7.326  10.175   1.848 -0.8765  0.0401  0.0449
34626TIP3   OH2 4759   3.259   3.116   5.878 -0.1197  0.6161  0.4674
34626TIP3    H1 4760   3.178   3.104   5.829  0.0871 -1.0944  0.4866
34626TIP3    H2 4761   3.252   3.056   5.952  0.4270  1.7233  1.4494
34627TIP3   OH2 4762   0.628  10.495   3.569  0.4101 -0.1882  0.0357
34627TIP3    H1 4763   0.700  10.552   3.544 -0.8796  0.8293 -1.5509
34627TIP3    H2 4764   0.551  10.533   3.527 -1.0099 -1.4469  1.3560
34628TIP3   OH2 4765   3.029   4.566   7.242 -0.0475  0.2686 -0.2035
34628TIP3    H1 4766   2.964   4.604   7.183 -0.4458  0.7618  0.5277
34628TIP3    H2 4767   3.038   4.630   7.312  0.0542 -0.5115  0.5206
34629TIP3   OH2 4768   8.377   6.494   9.421  0.1051  0.2568 -0.2849
34629TIP3    H1 4769   8.419   6.444   9.351 -0.8477 -0.8662 -0.0820
34629TIP3    H2 4770   8.424   6.577   9.423 -0.0504  0.4524 -2.4994
34630TIP3   OH2 4771   0.800   5.642   2.670 -0.3409  0.3747  0.3219
34630TIP3    H1 4772   0.748   5.647   2.750 -1.0765  0.5090 -0.1567
34630TIP3    H2 4773   0.772   5.561   2.628  0.0771  0.2805  0.2156
34631TIP3   OH2 4774   1.302   7.588   3.690 -0.5828  0.4975  0.1225
34631TIP3    H1 4775   1.259   7.577   3.775 -0.1161  0.8864  0.4164
34631TIP3    H2 4776   1.329   7.680   3.688  0.2316  0.2671 -0.0515
34632TIP3   OH2 4777   1.896   6.043   6.545 -0.0499 -0.3727  0.0964
34632TIP3    H1 4778   1.857   6.112   6.599  1.4563 -0.9048  1.9292
34632TIP3    H2 4779   1.959   6.089   6.489 -0.9362  0.0523 -0.5823
34633TIP3   OH2 4780   9.665   4.056   5.547 -0.1570 -0.0217 -0.4053
34633TIP3    H1 4781   9.745   4.005   5.558  0.8753  0.5838 -3.7752
34633TIP3    H2 4782   9.689   4.145   5.571 -0.5004 -0.1848  0.6139
34634TIP3   OH2 4783   5.470   6.956  10.849  0.4550  0.1642 -0.0044
34634TIP3    H1 4784   5.532   7.026  10.871 -0.2487  1.0722 -0.7862
34634TIP3    H2 4785   5.392   6.977  10.900  0.5053 -0.4981  0.3479
34635TIP3   OH2 4786   5.962   0.236   8.453  0.3478 -0.4717  0.3434
34635TIP3    H1 4787   5.996   0.147   8.440 -0.5076 -0.7422 -0.0761
34635TIP3    H2 4788   5.880   0.224   8.499  0.6125  0.1600  0.9951
34636TIP3   OH2 4789   7.733   9.025   0.793 -0.1010 -0.7799 -0.1657
34636TIP3    H1 4790   7.676   9.091   0.834  0.3791 -0.9914  0.8791
34636TIP3    H2 4791   7.721   9.039   0.699 -0.0824  0.7430  0.0208
34637TIP3   OH2 4792   4.817   7.819   2.295  0.2848 -0.1595 -0.3758
34637TIP3    H1 4793   4.868   7.838   2.216  0.4693  1.3769  0.0776
34637TIP3    H2 4794   4.726   7.818   2.266  0.3359  0.6293 -0.5825
34638TIP3   OH2 4795   3.790   5.723   5.637 -0.5776 -0.0925  0.0728
34638TIP3    H1 4796   3.797   5.815   5.611 -0.9591  0.4101  1.6318
34638TIP3    H2 4797   3.857   5.711   5.704  0.1751 -1.2558 -0.8439
34639TIP3   OH2 4798   0.747   0.886   4.147 -0.3416  0.4022  0.6269
34639TIP3    H1 4799   0.761   0.909   4.239 -2.9955 -0.1987  1.2408
34639TIP3    H2 4800   0.686   0.952   4.114 -0.0249  0.1606 -0.5061
34640TIP3   OH2 4801   5.447   7.368   7.900  0.6149  0.2859 -0.2668
34640TIP3    H1 4802   5.413   7.449   7.863 -0.1307  0.2486  0.3164
34640TIP3    H2 4803   5.390   7.300   7.864  1.3045 -0.0064 -0.8415
34641TIP3   OH2 4804   4.587   5.099   0.563  0.2300  0.2223  0.1459
34641TIP3    H1 4805   4.558   5.133   0.478 -0.4982  0.7408  0.5945
34641TIP3    H2 4806   4.662   5.155   0.586 -0.2111  0.7439  0.3196
34642TIP3   OH2 4807   6.250   5.790   1.093  0.3060  0.1078 -0.0127
34642TIP3    H1 4808   6.308   5.827   1.159  0.6801 -0.8374  0.1947
34642TIP3    H2 4809   6.308   5.745   1.032 -0.0389  0.9460 -0.9902
34643TIP3   OH2 4810   5.961   8.836   0.018  0.2929 -0.4853  0.3912
34643TIP3    H1 4811   5.919   8.772   0.075  1.3991 -2.5293 -0.9488
34643TIP3    H2 4812   6.039   8.791  -0.016  0.1375  0.8748 -2.0565
34644TIP3   OH2 4813   3.716   6.558   7.114  0.4265 -0.2356  0.5050
34644TIP3    H1 4814   3.711   6.541   7.020  2.5504 -0.1342  0.3311
34644TIP3    H2 4815   3.663   6.490   7.154 -2.5497  1.1317 -0.8316
34645TIP3   OH2 4816   9.215   9.693   3.203  0.2112  0.5897 -0.4735
34645TIP3    H1 4817   9.278   9.740   3.148  1.7249 -0.2916  0.4526
34645TIP3    H2 4818   9.211   9.605   3.165  1.5647 -0.1489  0.9667
34646TIP3   OH2 4819   5.265   5.267   9.173 -0.6121  0.2023  0.2748
34646TIP3    H1 4820   5.207   5.191   9.183  0.9410 -1.0219  0.3566
34646TIP3    H2 4821   5.232   5.331   9.236 -1.7848 -0.5030  0.4122
34647TIP3   OH2 4822   8.370   7.872  10.603 -0.6099  0.2216  0.1311
34647TIP3    H1 4823   8.303   7.936  10.582 -0.2477  1.1380  1.5641
34647TIP3    H2 4824   8.357   7.854  10.697  1.1058  0.4146  0.4399
34648TIP3   OH2 4825   9.833   4.852  10.246 -0.0470 -0.4740 -0.1291
34648TIP3    H1 4826   9.818   4.796  10.170 -0.7127  0.1112 -0.4397
34648TIP3    H2 4827   9.924   4.880  10.238  0.6916 -2.4892  0.6992
34649TIP3   OH2 4828   4.628   5.879   4.060 -0.3444  0.0609  0.7626
34649TIP3    H1 4829   4.653   5.904   3.971  0.4170  1.7128  1.3899
34649TIP3    H2 4830   4.638   5.960   4.111 -0.4396 -0.9244  2.4143
34650TIP3   OH2 4831   2.948   6.792  10.777 -0.1204 -0.0028  0.1075
34650TIP3    H1 4832   2.974   6.881  10.753 -0.9917  0.2550  0.0811
34650TIP3    H2 4833   2.982   6.737  10.707 -2.9389  0.7767 -2.0588
34651TIP3   OH2 4834   1.645   6.307   5.423 -0.1410  0.0863  0.2034
34651TIP3    H1 4835   1.662   6.223   5.466  0.3673  0.5332  0.9179
34651TIP3    H2 4836   1.571   6.344   5.471 -1.2411 -0.5256 -0.9709
34652TIP3   OH2 4837   1.031   1.412   2.790  0.0045 -0.2471 -0.1617
34652TIP3    H1 4838   0.990   1.477   2.847  0.5484 -0.2523  0.2443
34652TIP3    H2 4839   0.975   1.335   2.798 -1.3902  0.5472 -1.6548
34653TIP3   OH2 4840   8.365   3.210   7.048 -0.0302 -0.3951  0.0941
34653TIP3    H1 4841   8.395   3.158   7.123  1.7516 -0.0877 -0.3611
34653TIP3    H2 4842   8.429   3.281   7.041  0.0817 -0.6381 -1.9570
34654TIP3   OH2 4843   9.667   0.563   4.955 -0.0875 -0.5600  0.6511
34654TIP3    H1 4844   9.714   0.546   4.873 -1.0778  1.6858 -0.4902
34654TIP3    H2 4845   9.583   0.519   4.944  0.4301 -1.7144  1.2280
34655TIP3   OH2 4846  10.447   0.545   5.163 -0.2999  0.1434 -0.4325
34655TIP3    H1 4847  10.473   0.470   5.217 -1.5252  0.6894  0.9906
34655TIP3    H2 4848  10.485   0.621   5.209 -0.4863  0.5327 -0.9172
34656TIP3   OH2 4849   2.925   6.205   2.548 -0.5414 -0.0576  0.6056
34656TIP3    H1 4850   3.005   6.243   2.584 -0.3743  0.5793 -0.3811
34656TIP3    H2 4851   2.952   6.170   2.463 -1.3772  0.4967  0.1005
34657TIP3   OH2 4852   8.526   7.698   1.620  0.1654 -0.1718  0.3835
34657TIP3    H1 4853   8.501   7.652   1.701 -0.9580 -1.6017 -0.7097
34657TIP3    H2 4854   8.444   7.705   1.571  0.6502  1.5145 -0.2582
34658TIP3   OH2 4855   2.709   7.808   3.365 -0.3360 -0.2802 -0.0642
34658TIP3    H1 4856   2.619   7.813   3.398 -0.0578 -0.6790  0.7785
34658TIP3    H2 4857   2.698   7.787   3.272 -1.1243  0.4866 -0.1617
34659TIP3   OH2 4858   8.934   9.909   7.580 -0.1663  0.0396 -0.3837
34659TIP3    H1 4859   8.853   9.919   7.631  0.4802 -0.2471  0.7313
34659TIP3    H2 4860   8.991   9.979   7.613  0.5913 -0.7255 -0.0537
34660TIP3   OH2 4861   2.157   0.067   3.142 -0.6995 -0.4421 -0.3810
34660TIP3    H1 4862   2.145   0.162   3.139 -0.5030 -0.4319 -0.9179
34660TIP3    H2 4863   2.071   0.032   3.117 -0.8098 -0.4131 -0.0576
34661TIP3   OH2 4864   5.879  10.727   6.446 -0.2460  0.4060 -0.0475
34661TIP3    H1 4865   5.817  10.667   6.405 -0.7026  0.4433  0.5667
34661TIP3    H2 4866   5.863  10.717   6.540 -0.3625  1.5269  0.0646
34662TIP3   OH2 4867   4.324  10.049   2.988  0.0013 -0.0191  0.4225
34662TIP3    H1 4868   4.393  10.114   2.996  0.7092 -0.5842 -0.7559
34662TIP3    H2 4869   4.329  10.020   2.897 -0.1060 -1.8944  0.9634
34663TIP3   OH2 4870   7.312   1.640   7.632 -0.0999  0.3772 -0.1018
34663TIP3    H1 4871   7.331   1.644   7.725 -0.9374 -0.4355  0.1203
34663TIP3    H2 4872   7.217   1.628   7.627  0.0777 -0.8727 -1.0044
34664TIP3   OH2 4873   3.400   1.341   4.186  0.4834  0.4228  0.5644
34664TIP3    H1 4874   3.406   1.255   4.227  1.2370  0.2025  0.0088
34664TIP3    H2 4875   3.467   1.340   4.118  0.5605  1.4803  0.6098
34665TIP3   OH2 4876   3.871   0.687   0.726  0.0420 -0.1399 -0.0373
34665TIP3    H1 4877   3.931   0.710   0.797 -0.5743 -0.3625  0.5734
34665TIP3    H2 4878   3.852   0.771   0.684  0.4604 -0.0126  0.0211
34666TIP3   OH2 4879   1.360  10.106   6.028 -0.4089  0.5490  0.2162
34666TIP3    H1 4880   1.410  10.063   5.958  0.7784 -1.2860  2.0917
34666TIP3    H2 4881   1.331  10.188   5.989  0.3590 -0.2915 -2.3666
34667TIP3   OH2 4882   6.504   2.604   0.482  0.3674 -0.0922  0.2040
34667TIP3    H1 4883   6.577   2.568   0.432  0.3894  0.2911 -0.0496
34667TIP3    H2 4884   6.543   2.632   0.564  0.5076  0.1094  0.0692
34668TIP3   OH2 4885   6.761   9.001   8.604  0.0683 -0.1533 -0.2451
34668TIP3    H1 4886   6.693   9.048   8.557  1.5510  1.4357 -0.9338
34668TIP3    H2 4887   6.744   9.019   8.696 -0.5604  0.0087 -0.3885
34669TIP3   OH2 4888   2.310   2.609   3.853 -0.1295  0.6080  1.0384
34669TIP3    H1 4889   2.259   2.661   3.915  0.2679  2.9558 -0.4487
34669TIP3    H2 4890   2.245   2.564   3.800 -0.5839  1.2929  1.0046
34670TIP3   OH2 4891   2.915   9.280   0.522 -0.5835  0.0202 -0.2294
34670TIP3    H1 4892   2.829   9.245   0.497  1.2927 -4.5233 -1.2396
34670TIP3    H2 4893   2.906   9.299   0.615 -2.8219  0.2088 -0.4251
34671TIP3   OH2 4894  10.339   2.740   6.672 -0.0011  0.0201  0.2181
34671TIP3    H1 4895  10.382   2.702   6.749 -0.6887  0.5173  0.8634
34671TIP3    H2 4896  10.277   2.673   6.643 -1.2365  0.6268  1.3747
34672TIP3   OH2 4897   3.563   7.606   9.771  0.2335 -0.3994 -0.3180
34672TIP3    H1 4898   3.518   7.597   9.687 -2.1369 -0.8182  0.8971
34672TIP3    H2 4899   3.492   7.606   9.836  2.0411 -1.2690  1.7804
34673TIP3   OH2 4900   7.007   0.898  10.225 -0.0684  0.1126  0.2482
34673TIP3    H1 4901   7.044   0.813  10.250  1.8388  0.9774  0.5633
34673TIP3    H2 4902   6.928   0.876  10.175  1.2091 -1.9023 -1.0562
34674TIP3   OH2 4903   3.112   5.608   6.433  0.2969 -0.2722  0.2930
34674TIP3    H1 4904   3.027   5.601   6.477  0.5686 -1.5573  0.6606
34674TIP3    H2 4905   3.091   5.602   6.340  0.0669 -1.8585  0.4249
34675TIP3   OH2 4906   2.242   2.388   7.419 -0.1991 -0.2718 -0.1210
34675TIP3    H1 4907   2.170   2.426   7.368 -1.6337 -2.9507 -0.3226
34675TIP3    H2 4908   2.212   2.299   7.439  2.0287 -0.6540  2.0141
34676TIP3   OH2 4909   8.218   2.344   4.954 -0.5403 -0.0616 -0.0651
34676TIP3    H1 4910   8.257   2.270   4.906 -1.5269 -0.5826 -0.0816
34676TIP3    H2 4911   8.125   2.323   4.958 -0.5941  0.3652  1.3820
34677TIP3   OH2 4912   1.328   0.328   6.943 -0.2395  0.4023 -0.7413
34677TIP3    H1 4913   1.285   0.384   7.008 -1.0803 -1.5867  0.5237
34677TIP3    H2 4914   1.348   0.387   6.870  0.9528  2.7856  1.3661
34678TIP3   OH2 4915   7.754   2.387   8.506 -0.4933  0.2688 -0.4800
34678TIP3    H1 4916   7.784   2.468   8.464  2.1185  0.3027  1.1701
34678TIP3    H2 4917   7.818   2.321   8.479 -0.0587 -0.2105  1.5306
34679TIP3   OH2 4918   2.880   1.173   9.853 -0.0748 -0.0184  0.0079
34679TIP3    H1 4919   2.822   1.153   9.926  0.0584 -0.0319  0.1091
34679TIP3    H2 4920   2.888   1.268   9.854 -0.0263 -0.0231  0.0458
34680TIP3   OH2 4921  10.644   0.086   6.590  0.4644 -0.8924  0.1900
34680TIP3    H1 4922  10.679   0.010   6.635 -0.1441 -0.9386  0.5901
34680TIP3    H2 4923  10.581   0.124   6.651 -1.4835 -1.7850 -1.1581
34681TIP3   OH2 4924   3.321   7.932   7.923  0.4742 -0.2606 -0.3875
34681TIP3    H1 4925   3.409   7.898   7.936  0.8286 -0.1771 -2.2121
34681TIP3    H2 4926   3.276   7.918   8.006  2.5950  0.9367  1.0322
34682TIP3   OH2 4927   9.551   8.508   2.371 -0.2671  0.4170 -0.4438
34682TIP3    H1 4928   9.457   8.502   2.390 -0.5823  1.9554 -1.3754
34682TIP3    H2 4929   9.586   8.563   2.441 -0.3246  1.0036 -0.8708
34683TIP3   OH2 4930   4.953   3.606   3.818  0.4570 -0.1544  0.0526
34683TIP3    H1 4931   4.948   3.661   3.897  0.0967  0.1203 -0.1571
34683TIP3    H2 4932   4.954   3.516   3.851  0.0612 -0.0488  0.3625
34684TIP3   OH2 4933   4.215   3.477   0.721  0.6001 -0.0986 -0.0719
34684TIP3    H1 4934   4.296   3.495   0.673 -0.3390  2.0391 -1.0123
34684TIP3    H2 4935   4.193   3.560   0.762 -1.5952 -0.3376 -0.6394
34685TIP3   OH2 4936  10.285   5.362   0.438 -0.1053  0.4094  0.2514
34685TIP3    H1 4937  10.226   5.319   0.375 -0.8135 -1.6065  2.1486
34685TIP3    H2 4938  10.238   5.442   0.463 -0.1257  0.8932 -1.2177
34686TIP3   OH2 4939   9.042   1.026   9.715  0.2421 -0.1077 -0.1766
34686TIP3    H1 4940   9.099   1.028   9.639 -1.2177  1.6877 -1.3119
34686TIP3    H2 4941   8.954   1.012   9.680 -0.2178 -1.5285  1.3987
34687TIP3   OH2 4942   2.200   4.798   3.112  0.0534  0.3305 -0.5308
34687TIP3    H1 4943   2.130   4.826   3.054 -0.3609  1.0465  0.2876
34687TIP3    H2 4944   2.232   4.879   3.152  1.4876  0.0451 -1.0310
34688TIP3   OH2 4945   2.040   0.109   0.151 -0.3947  0.0771  0.1860
34688TIP3    H1 4946   1.989   0.182   0.187 -0.0672  1.1129 -1.3590
34688TIP3    H2 4947   2.026   0.114   0.056  0.6329 -1.1171 -0.0567
34689TIP3   OH2 4948   1.830   8.170   1.659 -0.4663  0.2330 -0.0951
34689TIP3    H1 4949   1.800   8.121   1.582 -0.7362  0.3106 -0.0412
34689TIP3    H2 4950   1.775   8.137   1.731 -2.6757  2.5865 -0.5445
34690TIP3   OH2 4951   9.897   0.721   9.931 -0.5071  0.3990 -0.4354
34690TIP3    H1 4952   9.905   0.771   9.849 -1.2975  0.8177 -0.2669
34690TIP3    H2 4953   9.952   0.644   9.917 -0.1807  0.7494 -1.1461
34691TIP3   OH2 4954  10.487   0.461   9.686 -0.4115  0.0767 -0.9639
34691TIP3    H1 4955  10.540   0.505   9.752 -0.7607 -1.2273  0.2389
34691TIP3    H2 4956  10.413   0.519   9.672 -1.0840 -0.2503  0.8966
34692TIP3   OH2 4957   6.669   3.724   6.605  0.8296  0.2460  0.0573
34692TIP3    H1 4958   6.730   3.659   6.640 -0.0061 -1.6645 -1.7675
34692TIP3    H2 4959   6.583   3.692   6.632  0.4852  1.9064  1.0613
34693TIP3   OH2 4960   2.241   5.762   5.632 -0.2441  0.1670  0.5664
34693TIP3    H1 4961   2.231   5.759   5.537  0.7241  2.1867  0.3521
34693TIP3    H2 4962   2.171   5.819   5.663 -0.7088 -0.6758  1.1158
34694TIP3   OH2 4963   5.248   8.124   3.496 -0.1753  0.0844 -0.2781
34694TIP3    H1 4964   5.197   8.200   3.471 -0.5224  0.3105  1.0554
34694TIP3    H2 4965   5.218   8.054   3.437 -2.0327  0.2088  0.4783
34695TIP3   OH2 4966  10.691   2.405   5.668  0.1366  0.6979 -0.0017
34695TIP3    H1 4967  10.617   2.458   5.699  0.4970  0.8847  0.5590
34695TIP3    H2 4968  10.685   2.323   5.717 -0.7622 -0.0333 -1.3000
34696TIP3   OH2 4969   1.505   2.165   7.672  0.4117 -0.4053 -1.0015
34696TIP3    H1 4970   1.536   2.200   7.588  0.0244 -0.4091 -1.1476
34696TIP3    H2 4971   1.432   2.221   7.696  1.8804  0.9864  0.4477
34697TIP3   OH2 4972  10.446   4.403   7.277  0.0414  0.0085  0.3567
34697TIP3    H1 4973  10.426   4.483   7.228 -2.5983 -0.7920 -0.0233
34697TIP3    H2 4974  10.369   4.388   7.331  2.2657  0.0432  3.7939
34698TIP3   OH2 4975   4.286   8.987   9.096  0.4868  0.3863  0.5417
34698TIP3    H1 4976   4.288   8.926   9.023  0.5858  0.8757  0.1250
34698TIP3    H2 4977   4.288   8.932   9.174 -0.9038 -0.1946  0.1924
34699TIP3   OH2 4978   7.976   8.972   6.502  0.0061 -0.4114 -0.2646
34699TIP3    H1 4979   7.990   8.937   6.414  1.6731  1.8906 -0.9948
34699TIP3    H2 4980   8.062   8.967   6.544 -0.4390 -0.1164  0.7241
34700TIP3   OH2 4981   2.260   4.905   7.826  0.0554 -0.0300 -0.2663
34700TIP3    H1 4982   2.191   4.943   7.772 -0.6395 -0.6053  0.2039
34700TIP3    H2 4983   2.276   4.819   7.787 -0.1047 -0.2478  0.1443
34701TIP3   OH2 4984   0.590   3.445   9.669 -0.1980 -0.0348  0.0721
34701TIP3    H1 4985   0.562   3.354   9.676  1.0324 -0.4229  0.3422
34701TIP3    H2 4986   0.599   3.475   9.759  0.3835  0.0112  0.0076
34702TIP3   OH2 4987   6.133   5.180   2.588 -0.3706  0.2470  0.3860
34702TIP3    H1 4988   6.061   5.232   2.624 -1.4297 -1.2043  0.4552
34702TIP3    H2 4989   6.092   5.099   2.560  1.3043 -0.7668  0.7478
34703TIP3   OH2 4990   8.562   2.468   4.009 -0.2148 -0.3271  0.6845
34703TIP3    H1 4991   8.480   2.421   4.022 -0.2990 -0.5867 -0.5939
34703TIP3    H2 4992   8.607   2.465   4.093 -0.2248 -2.7106  0.6503
34704TIP3   OH2 4993   2.968   6.260   6.790  0.6722  0.1145 -0.0512
34704TIP3    H1 4994   2.993   6.296   6.875  2.6740  0.6643 -0.8328
34704TIP3    H2 4995   2.897   6.317   6.760  1.4903  1.3250  0.2559
34705TIP3   OH2 4996   6.689   7.540   7.606  0.5058  0.1734 -0.0492
34705TIP3    H1 4997   6.753   7.553   7.676  1.1555 -0.0289 -0.6063
34705TIP3    H2 4998   6.666   7.447   7.611 -0.2135  0.3718  0.5435
34706TIP3   OH2 4999   7.292   0.963   9.578 -0.1401 -0.2305 -0.2183
34706TIP3    H1 5000   7.237   1.018   9.522  1.0530  2.3699  0.9917
34706TIP3    H2 5001   7.369   0.943   9.524  0.1360  0.6742 -0.1849
34707TIP3   OH2 5002   2.788   5.222   8.505  0.4939 -0.1389  0.0181
34707TIP3    H1 5003   2.725   5.181   8.447 -0.5935  1.6370 -0.1270
34707TIP3    H2 5004   2.744   5.300   8.538  2.0974  0.3922  1.0647
34708TIP3   OH2 5005   1.281   1.332  10.387  0.0806  0.5593  0.0109
34708TIP3    H1 5006   1.299   1.426  10.386  1.1791  0.3591 -0.9100
34708TIP3    H2 5007   1.365   1.292  10.409  0.3838 -0.3172 -2.3999
34709TIP3   OH2 5008   0.992   8.513  10.819  0.2578  0.5365 -0.2056
34709TIP3    H1 5009   1.058   8.496  10.886  0.8136 -0.1095 -0.9049
34709TIP3    H2 5010   0.987   8.609  10.814  0.6440  0.5872  0.3248
34710TIP3   OH2 5011   3.385   4.722   5.548 -0.1661 -0.1254  0.0282
34710TIP3    H1 5012   3.403   4.772   5.628  1.9713  1.3939 -1.2914
34710TIP3    H2 5013   3.327   4.778   5.497  0.3110 -0.0609 -0.4462
34711TIP3   OH2 5014   1.403   1.643   2.551 -0.4397  1.0290 -0.1587
34711TIP3    H1 5015   1.475   1.586   2.523 -0.2229  0.4608  1.4341
34711TIP3    H2 5016   1.325   1.606   2.509 -0.5665 -1.5248  2.0231
34712TIP3   OH2 5017   8.714   0.351   8.409  0.1499  0.1268 -0.2946
34712TIP3    H1 5018   8.689   0.412   8.479  1.5218  0.2955  0.0856
34712TIP3    H2 5019   8.700   0.264   8.448  0.3078  0.2186 -0.0253
34713TIP3   OH2 5020   7.737   2.794   6.174  0.3390  0.3489 -0.1621
34713TIP3    H1 5021   7.698   2.797   6.086  0.6907 -1.0188 -0.3951
34713TIP3    H2 5022   7.765   2.703   6.184  0.3173  0.4863  1.3727
34714TIP3   OH2 5023   5.835   3.821   6.902  0.0352 -0.0507 -0.2153
34714TIP3    H1 5024   5.810   3.851   6.815  1.5570  1.0730 -0.3121
34714TIP3    H2 5025   5.765   3.853   6.959  1.0797  3.0334 -0.4580
34715TIP3   OH2 5026   5.464   2.907   5.109  0.2843 -0.3188  0.8872
34715TIP3    H1 5027   5.440   2.993   5.143 -1.5040 -0.3437 -0.1867
34715TIP3    H2 5028   5.532   2.925   5.044 -1.3258  0.5514 -0.6515
34716TIP3   OH2 5029   6.583  10.420   9.984  0.0848 -0.0049 -0.3294
34716TIP3    H1 5030   6.612  10.505   9.952 -0.4627 -0.4221 -2.0443
34716TIP3    H2 5031   6.633  10.357   9.933  0.7209 -0.7490  1.1454
34717TIP3   OH2 5032  10.692   9.025   8.320 -0.1309  0.4425  0.0698
34717TIP3    H1 5033  10.698   9.103   8.375 -0.9431  0.4872  0.1076
34717TIP3    H2 5034  10.780   9.013   8.285  0.1231  1.0712  0.4834
34718TIP3   OH2 5035   2.856   0.746   5.826 -0.1042 -0.2143 -0.2636
34718TIP3    H1 5036   2.944   0.762   5.859  0.0384 -0.3923 -0.5519
34718TIP3    H2 5037   2.868   0.732   5.732 -0.6942  1.8291 -0.6778
34719TIP3   OH2 5038   4.234   0.794   6.830  0.0802 -0.0607  0.0290
34719TIP3    H1 5039   4.149   0.839   6.825  1.2418  2.7159  2.7422
34719TIP3    H2 5040   4.219   0.722   6.891 -0.2052  0.8762  1.1042
34720TIP3   OH2 5041   7.774  10.891   5.058 -0.1992  0.4461  0.5069
34720TIP3    H1 5042   7.850  10.844   5.026 -0.2987  0.0886  0.7856
34720TIP3    H2 5043   7.805  10.936   5.136  0.1146  1.5396 -0.2342
34721TIP3   OH2 5044   7.935   2.519   0.977 -0.0439 -0.1637  0.2909
34721TIP3    H1 5045   7.881   2.455   0.930 -1.2614 -0.0068  1.4041
34721TIP3    H2 5046   7.917   2.602   0.931 -0.5630 -0.1615  0.4840
34722TIP3   OH2 5047   5.528   6.007  10.810  0.4386  0.1150  0.1600
34722TIP3    H1 5048   5.508   6.098  10.829  1.5070  0.4324 -0.1696
34722TIP3    H2 5049   5.533   5.965  10.896 -2.1387 -0.1308  0.2574
34723TIP3   OH2 5050   7.328   1.615   6.134  0.2011  0.7264 -0.0751
34723TIP3    H1 5051   7.286   1.605   6.219  3.5421 -0.2297  1.6678
34723TIP3    H2 5052   7.420   1.631   6.155  1.1924  0.3500 -3.5183
34724TIP3   OH2 5053   3.308   2.103   5.384  0.3120 -0.2213 -0.0843
34724TIP3    H1 5054   3.354   2.074   5.305  1.8465  0.3401  0.5505
34724TIP3    H2 5055   3.376   2.103   5.452 -0.4825  1.2480  0.7617
34725TIP3   OH2 5056   7.349   9.469   6.885  0.8355  0.1527  0.1761
34725TIP3    H1 5057   7.407   9.513   6.823  0.9455 -0.2992 -0.0419
34725TIP3    H2 5058   7.353   9.377   6.861 -1.3098  0.2915 -0.9523
34726TIP3   OH2 5059   4.766   0.393   0.758  0.4011  0.8909 -0.0780
34726TIP3    H1 5060   4.755   0.436   0.843  2.9955 -1.5531  1.7116
34726TIP3    H2 5061   4.715   0.312   0.766 -2.0603  2.0836 -2.2714
34727TIP3   OH2 5062   2.017   1.045   2.730  0.0917 -0.3929 -0.0770
34727TIP3    H1 5063   2.024   0.987   2.654  1.6254 -1.4637  0.8212
34727TIP3    H2 5064   1.946   1.106   2.707 -0.5937 -1.6956 -1.6647
34728TIP3   OH2 5065   9.827   5.258   3.166 -0.0689  0.0616 -0.0749
34728TIP3    H1 5066   9.769   5.296   3.100  1.5034 -0.1054 -1.6343
34728TIP3    H2 5067   9.910   5.304   3.153  0.8366 -1.3594  0.4602
34729TIP3   OH2 5068   4.099   1.624   3.445 -0.3361  0.5913 -0.1478
34729TIP3    H1 5069   4.122   1.535   3.470 -2.6255 -0.2473 -0.8499
34729TIP3    H2 5070   4.180   1.660   3.408  0.4856 -1.3654 -0.3741
34730TIP3   OH2 5071   3.850   3.263   9.583 -0.1380  0.2667  0.5980
34730TIP3    H1 5072   3.939   3.241   9.555 -1.2252 -2.4491 -1.2044
34730TIP3    H2 5073   3.832   3.348   9.543  1.8298  1.2212  1.6037
34731TIP3   OH2 5074   3.139  10.250   2.333 -0.9602 -0.4682  0.8160
34731TIP3    H1 5075   3.117  10.343   2.319 -1.5386 -0.6800  0.2833
34731TIP3    H2 5076   3.231  10.251   2.359 -0.4314  0.1372 -0.9246
34732TIP3   OH2 5077   1.039   4.414   9.341 -0.6704 -0.6975  0.3485
34732TIP3    H1 5078   1.100   4.449   9.275 -1.7433  0.3725 -0.1103
34732TIP3    H2 5079   1.087   4.342   9.382  0.1767 -1.1515 -1.3408
34733TIP3   OH2 5080   1.623   7.231   2.500 -0.2435 -0.6608 -0.0820
34733TIP3    H1 5081   1.714   7.200   2.499 -0.1314 -0.3973  0.7787
34733TIP3    H2 5082   1.615   7.276   2.584 -1.1765 -0.6967 -0.1474
34734TIP3   OH2 5083   0.747   5.671   0.073 -0.0338 -0.1984 -0.2916
34734TIP3    H1 5084   0.713   5.674  -0.017  0.4178  1.3589 -0.4353
34734TIP3    H2 5085   0.674   5.701   0.127 -0.1548 -0.6914 -0.1748
34735TIP3   OH2 5086   1.066   3.036   5.566  0.8788 -0.3303  0.5915
34735TIP3    H1 5087   1.099   3.124   5.585  1.8637 -0.3861 -0.7545
34735TIP3    H2 5088   0.972   3.042   5.584  0.8395  1.1531 -0.0067
34736TIP3   OH2 5089   6.179   3.075   2.822  0.2077 -0.6190  0.0221
34736TIP3    H1 5090   6.225   3.008   2.772  2.1923  0.2916  0.5326
34736TIP3    H2 5091   6.116   3.112   2.761  1.5293 -0.5557 -1.3739
34737TIP3   OH2 5092   6.414   1.401   6.747 -0.0941 -0.0672  0.6468
34737TIP3    H1 5093   6.361   1.369   6.673  1.4155  0.0081 -0.5105
34737TIP3    H2 5094   6.504   1.395   6.716  0.5812 -0.0369  2.5187
34738TIP3   OH2 5095   8.042   9.972   6.878  0.0988  0.6738  0.2503
34738TIP3    H1 5096   8.003   9.904   6.932  1.5219  0.4458  1.0280
34738TIP3    H2 5097   8.111  10.010   6.932  1.2942  0.7313 -1.2300
34739TIP3   OH2 5098   6.278   0.080   8.415  0.5956 -0.5079 -0.3576
34739TIP3    H1 5099   6.285   0.167   8.453 -0.5378 -0.9988  1.0764
34739TIP3    H2 5100   6.365   0.061   8.380  0.9900  0.9718 -0.2241
34740TIP3   OH2 5101  10.240   9.030   0.274  0.5422 -0.1147 -0.4834
34740TIP3    H1 5102  10.285   9.114   0.285 -1.1043  0.5937  1.4604
34740TIP3    H2 5103  10.281   8.972   0.339 -2.1962  1.0102  2.5297
34741TIP3   OH2 5104   8.844   9.261  10.314 -0.6566 -0.2180 -0.0751
34741TIP3    H1 5105   8.837   9.346  10.357  0.4565  0.2306 -0.7485
34741TIP3    H2 5106   8.934   9.234  10.328 -0.9255 -1.1642 -0.1097
34742TIP3   OH2 5107   0.247   8.401  10.285 -0.0224  0.3751 -0.2729
34742TIP3    H1 5108   0.204   8.470  10.235 -1.0734  0.2919  0.4824
34742TIP3    H2 5109   0.175   8.351  10.324  0.7597  0.4586  1.3522
34743TIP3   OH2 5110   2.124   7.824   3.122  0.2439 -0.1455  0.2449
34743TIP3    H1 5111   2.060   7.841   3.053 -0.1612  0.4633  0.7550
34743TIP3    H2 5112   2.083   7.756   3.175  0.5124 -0.5452 -0.0641
34744TIP3   OH2 5113   8.854   9.959   4.664  0.3981 -0.0293 -0.1972
34744TIP3    H1 5114   8.870   9.893   4.731  0.1336  0.5246  0.4204
34744TIP3    H2 5115   8.934   9.960   4.612  0.5825 -0.5064  0.0733
34745TIP3   OH2 5116   3.902   2.589   7.263 -0.0188 -0.1043 -0.6601
34745TIP3    H1 5117   3.956   2.567   7.188  1.3237 -0.4121  0.3590
34745TIP3    H2 5118   3.864   2.505   7.290  1.1216 -0.3708  0.2021
34746TIP3   OH2 5119   1.367   4.450   5.896  0.4379 -0.0695 -0.6961
34746TIP3    H1 5120   1.459   4.471   5.881  1.2386  0.0137  3.3194
34746TIP3    H2 5121   1.360   4.358   5.869  1.6323 -0.0201 -1.2666
34747TIP3   OH2 5122   9.437   2.515   1.672  1.1305 -0.1586 -0.5760
34747TIP3    H1 5123   9.381   2.522   1.750  1.6194  1.3349 -0.3343
34747TIP3    H2 5124   9.378   2.485   1.603  0.1420  0.8432 -0.1897
34748TIP3   OH2 5125   1.673   8.058   7.874  0.1568  0.3463  0.2157
34748TIP3    H1 5126   1.726   8.133   7.847  1.4731 -0.7422 -0.3985
34748TIP3    H2 5127   1.730   8.009   7.934  0.1314 -1.1897 -0.9460
34749TIP3   OH2 5128   2.117   9.795   3.684 -0.0761  0.8369  0.2789
34749TIP3    H1 5129   2.022   9.780   3.685  0.1989 -1.4608 -1.4660
34749TIP3    H2 5130   2.131   9.859   3.614 -0.2199 -0.1269 -0.6525
34750TIP3   OH2 5131   4.477   1.863   7.384  0.2324  0.6254 -0.4938
34750TIP3    H1 5132   4.441   1.901   7.464  0.2154  0.8992 -0.6304
34750TIP3    H2 5133   4.471   1.933   7.319 -0.8578  0.0256 -1.0574
34751TIP3   OH2 5134   6.046   2.976   8.237  0.1899  0.1184 -0.1840
34751TIP3    H1 5135   5.956   3.009   8.244  0.0326 -0.3775  0.2514
34751TIP3    H2 5136   6.037   2.882   8.254  0.2141 -0.7277 -3.9576
34752TIP3   OH2 5137   7.831   4.377   1.959 -0.5266  0.2326 -0.0421
34752TIP3    H1 5138   7.795   4.463   1.981 -1.7512 -0.4105  0.5623
34752TIP3    H2 5139   7.833   4.375   1.863  0.9724  1.4923 -0.0856
34753TIP3   OH2 5140   6.186   9.404   4.275  0.3312  0.0731 -0.1346
34753TIP3    H1 5141   6.103   9.448   4.255 -0.3540  0.1971  2.6030
34753TIP3    H2 5142   6.252   9.455   4.230 -0.7047  2.4834  0.9206
34754TIP3   OH2 5143   0.680   0.123   0.888 -0.0453 -0.0929  0.0020
34754TIP3    H1 5144   0.714   0.091   0.805  1.6408  0.3343  0.4914
34754TIP3    H2 5145   0.744   0.188   0.917 -0.0162 -1.0250  2.1790
34755TIP3   OH2 5146   3.768   7.974   8.834  0.2313  0.3366  0.1324
34755TIP3    H1 5147   3.826   8.035   8.880  0.9645 -0.2879  0.0657
34755TIP3    H2 5148   3.759   7.900   8.895 -2.2457  1.3186  1.0673
34756TIP3   OH2 5149   3.789   5.227   3.445  0.1229 -0.3879 -0.1876
34756TIP3    H1 5150   3.851   5.293   3.477 -0.0717  1.4484 -3.2269
34756TIP3    H2 5151   3.721   5.223   3.512  1.3084  0.7697  1.1574
34757TIP3   OH2 5152   6.173   0.383   1.139  0.3908 -0.1719  0.0148
34757TIP3    H1 5153   6.217   0.467   1.156 -0.5369  0.3222  0.0305
34757TIP3    H2 5154   6.080   0.404   1.140  0.1652 -0.9042 -1.5069
34758TIP3   OH2 5155  10.877   8.861   4.707 -0.3549 -1.1262 -0.0123
34758TIP3    H1 5156  10.831   8.910   4.639  0.7460 -1.1816 -0.8346
34758TIP3    H2 5157  10.872   8.918   4.784 -1.0973 -0.7819 -0.3012
34759TIP3   OH2 5158   3.792   8.688   7.902  0.5511  0.0985 -0.5000
34759TIP3    H1 5159   3.744   8.754   7.852 -1.5028  0.8056  2.1692
34759TIP3    H2 5160   3.865   8.736   7.941 -1.1398  1.0112  1.7231
34760TIP3   OH2 5161   8.407   7.655   9.921 -0.0209 -0.3528 -0.5200
34760TIP3    H1 5162   8.356   7.614   9.851  0.7322 -1.4093 -0.4820
34760TIP3    H2 5163   8.442   7.581   9.971  3.3473  0.1855 -1.8014
34761TIP3   OH2 5164   8.308   5.738   6.196  0.0048 -0.2936 -0.5318
34761TIP3    H1 5165   8.299   5.645   6.217  0.3447  0.1734  2.0193
34761TIP3    H2 5166   8.402   5.754   6.197 -0.0999  0.3554  0.5729
34762TIP3   OH2 5167   4.575   9.681   2.942 -0.0641 -0.7720  0.1220
34762TIP3    H1 5168   4.516   9.616   2.903 -0.5704 -1.3801  1.7976
34762TIP3    H2 5169   4.552   9.681   3.035  1.4170  0.2444  0.5231
34763TIP3   OH2 5170   9.113   4.442   7.755  0.0911  0.4530  0.0805
34763TIP3    H1 5171   9.160   4.364   7.784  0.8747  1.3380  1.3324
34763TIP3    H2 5172   9.091   4.425   7.664  1.7387 -0.5342 -0.1744
34764TIP3   OH2 5173   6.381   0.961   1.034 -0.2500  0.7605  0.3538
34764TIP3    H1 5174   6.446   0.943   0.967 -2.8109 -1.4134 -1.8026
34764TIP3    H2 5175   6.391   0.889   1.097 -3.1427 -2.2755 -2.2980
34765TIP3   OH2 5176   9.175   8.871   0.073  0.0525  0.1857 -0.0774
34765TIP3    H1 5177   9.187   8.847   0.165  0.1118 -1.2857 -0.4455
34765TIP3    H2 5178   9.096   8.823   0.046  0.2007  0.3780 -0.8718
34766TIP3   OH2 5179  10.071   6.613   6.215 -0.4728  0.0288 -0.4089
34766TIP3    H1 5180  10.091   6.572   6.299  0.2834  1.1051 -0.0436
34766TIP3    H2 5181   9.997   6.562   6.181  0.6213 -1.8313 -0.1483
34767TIP3   OH2 5182   0.620   9.991   7.833  0.5461 -0.0919  0.5037
34767TIP3    H1 5183   0.656  10.031   7.754  0.0423  1.9468  1.2446
34767TIP3    H2 5184   0.566  10.060   7.872 -3.4209 -2.6027 -0.0002
34768TIP3   OH2 5185   1.767   4.849   5.125 -0.2888  0.4850 -0.1762
34768TIP3    H1 5186   1.838   4.788   5.147  0.1089  0.3668 -1.6415
34768TIP3    H2 5187   1.699   4.793   5.087  0.0815  0.9171 -1.5392
34769TIP3   OH2 5188  10.893   6.786   9.504 -0.1409 -0.3694  0.1162
34769TIP3    H1 5189  10.980   6.763   9.535  0.4102  2.3314  0.8552
34769TIP3    H2 5190  10.838   6.783   9.582 -0.3540 -0.5139 -0.0391
34770TIP3   OH2 5191   0.133   1.687  10.352  0.2621  0.3317  0.5093
34770TIP3    H1 5192   0.191   1.724  10.285  0.7326 -0.6921  0.3186
34770TIP3    H2 5193   0.180   1.699  10.434  0.1966  0.5780  0.5116
34771TIP3   OH2 5194   4.338   7.817   9.870 -1.3243 -0.1310 -0.0584
34771TIP3    H1 5195   4.390   7.800   9.792  2.3765  0.6094  2.0257
34771TIP3    H2 5196   4.307   7.731   9.898 -1.3081 -0.5911 -1.4214
34772TIP3   OH2 5197   6.252   3.262   4.113  0.1672 -0.2749  0.6085
34772TIP3    H1 5198   6.247   3.167   4.113  1.0253 -0.3656 -1.5211
34772TIP3    H2 5199   6.165   3.290   4.143 -1.2883 -1.7615 -1.8289
34773TIP3   OH2 5200  10.141  10.614   2.139 -0.2481  0.0651 -0.5661
34773TIP3    H1 5201  10.060  10.613   2.089 -0.0344  0.4259 -0.9306
34773TIP3    H2 5202  10.187  10.693   2.108  0.5167 -0.4633 -0.8088
34774TIP3   OH2 5203  10.029   8.685   6.934 -0.6090  0.1116  0.0373
34774TIP3    H1 5204   9.959   8.628   6.965 -0.9423  0.9775  0.9278
34774TIP3    H2 5205  10.000   8.713   6.847 -0.9872 -0.1502  0.0761
34775TIP3   OH2 5206   5.808   9.205   0.161 -0.0036  0.5048 -0.4383
34775TIP3    H1 5207   5.798   9.298   0.139 -1.1766  0.1447 -1.6259
34775TIP3    H2 5208   5.774   9.197   0.250  1.3961  1.4309  0.1976
34776TIP3   OH2 5209   6.417   3.147  10.646  0.0245 -0.9193 -0.5109
34776TIP3    H1 5210   6.339   3.201  10.637  0.0948 -0.9677 -1.4534
34776TIP3    H2 5211   6.447   3.132  10.556  0.9546 -1.1373 -0.1753
34777TIP3   OH2 5212   4.697  10.708   5.969 -0.0277 -0.4379 -0.0244
34777TIP3    H1 5213   4.622  10.749   5.927 -0.9853 -0.3147  1.6889
34777TIP3    H2 5214   4.690  10.616   5.946  0.3571 -0.1612 -1.3441
34778TIP3   OH2 5215   5.177   5.883   8.186  0.2469  0.1119  0.3239
34778TIP3    H1 5216   5.242   5.843   8.128  0.6585 -1.1512  1.6067
34778TIP3    H2 5217   5.173   5.975   8.157  0.5481 -0.4203 -1.5651
34779TIP3   OH2 5218   4.184   7.348   6.315 -0.3636  0.0947 -0.7097
34779TIP3    H1 5219   4.259   7.306   6.272  0.3754  1.8070 -1.1484
34779TIP3    H2 5220   4.223   7.414   6.372 -1.5337  0.8937 -0.8045
34780TIP3   OH2 5221   1.927   7.208   8.658 -0.2851 -0.1657  0.4458
34780TIP3    H1 5222   1.906   7.262   8.582  1.1683 -1.5148 -0.9911
34780TIP3    H2 5223   2.021   7.193   8.651 -0.3357 -1.3189  1.8384
34781TIP3   OH2 5224   1.829   7.984   9.144  0.2023  0.4696  0.3758
34781TIP3    H1 5225   1.740   8.014   9.129  0.5214  0.5864 -1.4164
34781TIP3    H2 5226   1.876   8.062   9.173 -0.4485  0.2083  2.3085
34782TIP3   OH2 5227   9.943   2.638   8.861 -0.0131  0.1358  0.5912
34782TIP3    H1 5228   9.994   2.718   8.852  0.6751 -0.4004 -0.7036
34782TIP3    H2 5229  10.004   2.575   8.899  0.6444 -0.7370 -1.6998
34783TIP3   OH2 5230   3.776   8.529   5.716  0.5973  0.1586 -0.1011
34783TIP3    H1 5231   3.796   8.453   5.771 -0.5375 -0.3075 -0.3090
34783TIP3    H2 5232   3.824   8.601   5.757 -1.9879  0.3680  2.9621
34784TIP3   OH2 5233   2.957   9.706   2.214  0.3234 -0.6714 -0.0901
34784TIP3    H1 5234   2.915   9.625   2.242 -1.5944  0.2996 -0.0023
34784TIP3    H2 5235   2.911   9.731   2.134  0.6067  0.5387  0.1059
34785TIP3   OH2 5236   3.090   5.109   8.599  0.1521  0.5510 -0.8438
34785TIP3    H1 5237   3.097   5.197   8.561  1.6317  1.2261  0.8435
34785TIP3    H2 5238   3.017   5.068   8.552  0.3009  2.1847 -2.6141
34786TIP3   OH2 5239   3.345   8.895   6.274 -0.1042 -0.3042  0.3675
34786TIP3    H1 5240   3.251   8.896   6.290 -0.5251  0.8953 -1.6852
34786TIP3    H2 5241   3.372   8.987   6.286  0.7166 -0.5537  0.5047
34787TIP3   OH2 5242   7.710   5.092  10.488 -0.2983 -0.0124  0.0672
34787TIP3    H1 5243   7.743   5.180  10.471  1.0629 -0.7408 -1.3615
34787TIP3    H2 5244   7.788   5.037  10.488 -1.2650 -1.4561 -0.7717
34788TIP3   OH2 5245   0.651   6.920  10.243  0.4183 -0.0653  0.0293
34788TIP3    H1 5246   0.727   6.959  10.287 -0.0841  1.0817 -0.0707
34788TIP3    H2 5247   0.577   6.943  10.300 -0.2549  1.4773 -1.3688
34789TIP3   OH2 5248   4.798   3.856   6.454  0.2951  0.1566  0.2219
34789TIP3    H1 5249   4.816   3.798   6.528 -1.6521 -0.2505  0.4472
34789TIP3    H2 5250   4.713   3.895   6.475  0.0109  0.5248 -1.4891
34790TIP3   OH2 5251   0.141   3.332   1.531  0.2303  0.1340  0.4649
34790TIP3    H1 5252   0.064   3.296   1.576  0.0801  0.1136  0.1958
34790TIP3    H2 5253   0.164   3.266   1.466  1.9153 -0.9630  2.0722
34791TIP3   OH2 5254   8.683   3.749   4.416 -0.1153  0.0346 -0.1096
34791TIP3    H1 5255   8.719   3.671   4.457 -2.8752 -1.5178 -0.4141
34791TIP3    H2 5256   8.684   3.816   4.485  3.1550  0.1253 -0.1148
34792TIP3   OH2 5257   2.542  10.313   4.552 -0.0452  0.7446  0.1336
34792TIP3    H1 5258   2.602  10.352   4.616 -0.8644 -0.0347  1.4237
34792TIP3    H2 5259   2.455  10.322   4.591 -0.3408 -1.7528  0.2508
34793TIP3   OH2 5260   6.599   5.577   1.973  0.6549 -0.1810 -0.2215
34793TIP3    H1 5261   6.619   5.630   2.051  0.4911  0.0119 -0.3090
34793TIP3    H2 5262   6.503   5.580   1.966  0.7803  2.2064 -2.0807
34794TIP3   OH2 5263   1.499   2.083   8.920  0.0293  0.9265 -0.3931
34794TIP3    H1 5264   1.496   2.174   8.891 -0.5056  1.1967  0.4728
34794TIP3    H2 5265   1.548   2.085   9.002  0.0088  0.4312 -0.3634
34795TIP3   OH2 5266   6.853   4.270   4.595  0.6308 -0.2146 -0.0434
34795TIP3    H1 5267   6.931   4.289   4.647  0.5887  1.5485 -0.5594
34795TIP3    H2 5268   6.846   4.344   4.534 -0.1023 -1.5091 -1.6224
34796TIP3   OH2 5269   1.784   2.004   9.577 -0.4902  0.1531 -0.6233
34796TIP3    H1 5270   1.809   2.062   9.648 -0.3516 -0.1033 -0.4598
34796TIP3    H2 5271   1.688   2.002   9.580 -0.4822 -1.6794  1.0771
34797TIP3   OH2 5272   1.707   5.418   6.047 -0.0208  0.0822  0.0610
34797TIP3    H1 5273   1.757   5.346   6.009 -1.4061 -0.5782 -0.5877
34797TIP3    H2 5274   1.727   5.493   5.990  1.2518  0.1847  0.6091
34798TIP3   OH2 5275   8.245   7.267   3.329  0.2285 -0.0702 -0.2972
34798TIP3    H1 5276   8.151   7.252   3.325  0.1030  0.9501 -2.2572
34798TIP3    H2 5277   8.283   7.179   3.327 -0.6605 -0.4590 -1.2427
34799TIP3   OH2 5278   5.441   4.111   9.952  0.0888  0.0672  0.0217
34799TIP3    H1 5279   5.516   4.120   9.893  0.3056  0.1009  0.2976
34799TIP3    H2 5280   5.375   4.067   9.900 -0.4217  1.7962 -0.8782
34800TIP3   OH2 5281   6.470   0.342   3.046 -0.4695 -0.4141 -0.1570
34800TIP3    H1 5282   6.506   0.290   2.975  0.3430  0.2347 -0.2313
34800TIP3    H2 5283   6.469   0.283   3.122  0.0813 -0.6532 -0.3329
34801TIP3   OH2 5284   0.394   2.603   8.715 -0.7955  0.1411  0.3214
34801TIP3    H1 5285   0.476   2.563   8.687 -1.3742 -1.5166  0.8514
34801TIP3    H2 5286   0.398   2.692   8.683  0.8185 -0.1792 -0.4454
34802TIP3   OH2 5287   6.103   8.847  10.097 -0.0447 -0.3497 -0.0540
34802TIP3    H1 5288   6.122   8.776  10.036 -2.2826  0.0248 -1.2713
34802TIP3    H2 5289   6.098   8.925  10.042  1.7281  0.7055  1.1712
34803TIP3   OH2 5290   5.904   6.185   9.436  0.6088 -0.0985 -0.5383
34803TIP3    H1 5291   5.847   6.152   9.367 -2.4124  1.5620  0.9603
34803TIP3    H2 5292   5.930   6.272   9.405 -0.2764  0.4098  0.0995
34804TIP3   OH2 5293   8.193   4.558   4.285 -0.3540  0.3098 -0.4674
34804TIP3    H1 5294   8.265   4.527   4.340 -0.2508  0.5611 -0.4597
34804TIP3    H2 5295   8.114   4.542   4.338 -0.3119 -0.0200 -0.5001
34805TIP3   OH2 5296   3.299   5.761   8.775  0.4022  0.1094  0.0306
34805TIP3    H1 5297   3.236   5.722   8.836  1.4590 -0.2724  0.9300
34805TIP3    H2 5298   3.263   5.744   8.688 -1.4232  1.1250  0.5341
34806TIP3   OH2 5299   8.420  10.533   6.043 -0.1881 -0.4133 -0.0544
34806TIP3    H1 5300   8.430  10.628   6.041 -0.2524 -0.4056 -0.0011
34806TIP3    H2 5301   8.328  10.518   6.022 -0.0208 -0.4928 -0.7505
34807TIP3   OH2 5302   7.541   2.170   9.506 -0.4495 -0.3949 -0.3734
34807TIP3    H1 5303   7.587   2.148   9.425 -0.8423  0.4260 -0.8347
34807TIP3    H2 5304   7.448   2.165   9.483 -0.5631  0.8122 -0.2645
34808TIP3   OH2 5305   7.337   7.047   3.595  0.3346 -0.3252  0.5193
34808TIP3    H1 5306   7.424   7.019   3.621  1.2061  1.7369 -0.0078
34808TIP3    H2 5307   7.312   7.112   3.660 -0.3308 -0.0764  0.0285
34809TIP3   OH2 5308   9.820   6.286   2.243 -0.0852  0.4104 -0.2630
34809TIP3    H1 5309   9.879   6.311   2.314 -3.2485  2.1647  2.0391
34809TIP3    H2 5310   9.866   6.217   2.196  2.7383 -0.0173  2.7650
34810TIP3   OH2 5311   5.900   4.638   9.434  0.0862 -0.2721  0.0771
34810TIP3    H1 5312   5.938   4.577   9.371 -1.4258 -1.8594  0.6151
34810TIP3    H2 5313   5.957   4.632   9.510  0.1271 -0.8002  0.0085
34811TIP3   OH2 5314   6.967   0.909   7.526 -0.3350  0.2167 -0.1762
34811TIP3    H1 5315   7.044   0.859   7.555 -0.3888 -0.2932 -0.8843
34811TIP3    H2 5316   6.999   0.999   7.517  0.0735  0.0889 -0.0361
34812TIP3   OH2 5317   5.742   5.717   6.784  0.6834  0.1165 -0.0000
34812TIP3    H1 5318   5.763   5.624   6.776 -1.8566 -0.3766 -2.0230
34812TIP3    H2 5319   5.683   5.722   6.860 -1.0703 -0.3796 -1.2649
34813TIP3   OH2 5320   9.588   4.524   8.737 -0.3422 -0.3515  0.1914
34813TIP3    H1 5321   9.526   4.577   8.787 -0.8710 -0.6074 -0.1928
34813TIP3    H2 5322   9.600   4.445   8.788  0.2318  0.0028  0.6250
34814TIP3   OH2 5323   0.130   4.288   0.196 -0.4935 -0.3107 -0.1210
34814TIP3    H1 5324   0.146   4.327   0.110  0.1300 -0.7758 -0.2238
34814TIP3    H2 5325   0.076   4.211   0.178 -1.3430  0.2344  0.0345
34815TIP3   OH2 5326   1.825   5.243   2.385  0.1733 -0.3968 -0.7586
34815TIP3    H1 5327   1.805   5.336   2.395 -1.0788 -0.6729 -0.5355
34815TIP3    H2 5328   1.909   5.231   2.429  0.4893  0.6845 -1.0528
34816TIP3   OH2 5329   7.597   0.997  10.265 -0.5814 -0.3752 -0.4927
34816TIP3    H1 5330   7.512   0.999  10.223 -2.1409 -1.0902  2.3753
34816TIP3    H2 5331   7.633   1.085  10.250 -0.9437 -0.6124 -3.2564
34817TIP3   OH2 5332   5.082   2.960   4.847  0.4737  0.1743 -0.5081
34817TIP3    H1 5333   5.165   2.950   4.802  0.6214  0.8225 -0.3858
34817TIP3    H2 5334   5.023   2.999   4.783  0.9805  2.1079  0.1371
34818TIP3   OH2 5335   0.267   4.177   5.291 -0.0219  0.3638  0.0554
34818TIP3    H1 5336   0.349   4.225   5.283 -0.5962  1.4712  0.5823
34818TIP3    H2 5337   0.273   4.108   5.225  1.3134  0.4459  0.0702
34819TIP3   OH2 5338  10.676   3.607   6.316 -0.2362 -0.4086 -0.2285
34819TIP3    H1 5339  10.588   3.568   6.319 -0.1187 -0.6192  0.8771
34819TIP3    H2 5340  10.721   3.571   6.392  0.3707  0.7247 -0.0355
34820TIP3   OH2 5341   7.995   3.123   3.290  0.0854 -0.0837  0.6276
34820TIP3    H1 5342   7.938   3.055   3.254 -0.6750 -0.3914  2.3463
34820TIP3    H2 5343   8.084   3.091   3.274 -0.2565 -1.1370  0.7601
34821TIP3   OH2 5344   7.731   7.513   9.799 -0.4382  0.1959  0.6866
34821TIP3    H1 5345   7.698   7.591   9.844 -0.0658 -0.1171  1.5269
34821TIP3    H2 5346   7.658   7.484   9.744 -0.6257  1.0497  0.4712
34822TIP3   OH2 5347   7.561   9.588   7.673  0.3531 -0.0832  1.0016
34822TIP3    H1 5348   7.601   9.656   7.728 -1.4987  0.0861  2.2625
34822TIP3    H2 5349   7.587   9.506   7.713  0.2416 -0.0034  1.2432
34823TIP3   OH2 5350   9.378  10.757   6.450 -0.6168  0.3623  0.4101
34823TIP3    H1 5351   9.366  10.697   6.524  0.4267 -0.9580 -0.4512
34823TIP3    H2 5352   9.461  10.730   6.411 -0.4866  1.9176 -0.4463
34824TIP3   OH2 5353   6.431   7.559   3.381  0.2681  0.0250  0.0019
34824TIP3    H1 5354   6.496   7.505   3.425  0.1062  0.9170  1.4133
34824TIP3    H2 5355   6.398   7.617   3.450 -2.2132 -0.5620 -0.5903
34825TIP3   OH2 5356   8.518   0.865   5.842 -0.7254 -0.0803  0.3380
34825TIP3    H1 5357   8.447   0.921   5.810  0.0740  0.3420 -0.7926
34825TIP3    H2 5358   8.562   0.918   5.908  0.0313  0.6749 -0.7306
34826TIP3   OH2 5359   2.124   8.875   7.463 -0.4594 -0.5617 -0.3089
34826TIP3    H1 5360   2.127   8.788   7.423 -1.4071 -1.4639  1.4786
34826TIP3    H2 5361   2.148   8.861   7.554 -3.7750  0.4499  0.8609
34827TIP3   OH2 5362   8.736   5.186   9.422  0.1944  0.3112  0.1029
34827TIP3    H1 5363   8.691   5.264   9.390  1.0332  0.5314 -0.6073
34827TIP3    H2 5364   8.767   5.142   9.343  0.5099 -0.2635  0.5354
34828TIP3   OH2 5365   6.445   9.051   7.711 -0.5386  0.0789 -0.2202
34828TIP3    H1 5366   6.451   9.110   7.636 -0.9810  1.4769  0.8141
34828TIP3    H2 5367   6.353   9.024   7.712 -0.3266 -0.7064 -0.7213
34829TIP3   OH2 5368   3.798  10.817   8.229  0.1275 -0.0222 -0.0938
34829TIP3    H1 5369   3.743  10.760   8.282 -0.7086  0.3216 -0.5744
34829TIP3    H2 5370   3.767  10.905   8.248 -0.0906  0.1189 -1.0381
34830TIP3   OH2 5371   3.992   9.669   2.756  0.5461  0.7662  0.6959
34830TIP3    H1 5372   3.921   9.640   2.699  0.3743 -0.3748  1.4549
34830TIP3    H2 5373   4.006   9.596   2.816  1.1501  1.6836  1.7136
34831TIP3   OH2 5374   4.223   4.449   6.813 -0.1815 -0.1947 -0.2901
34831TIP3    H1 5375   4.272   4.487   6.740  0.7446  2.7479  1.6940
34831TIP3    H2 5376   4.131   4.462   6.789  0.0718 -0.7504 -1.6245
34832TIP3   OH2 5377   3.344   3.397   5.481 -0.2625 -0.3673  0.2810
34832TIP3    H1 5378   3.279   3.453   5.523 -1.2754 -0.1816 -1.4005
34832TIP3    H2 5379   3.315   3.308   5.501 -1.0873 -0.2846 -0.4786
34833TIP3   OH2 5380   3.975  10.492   0.883  0.4655  0.2897 -0.0489
34833TIP3    H1 5381   4.049  10.450   0.839  1.2700  0.4236  1.1306
34833TIP3    H2 5382   3.984  10.467   0.975 -1.1358  0.0723  0.0792
34834TIP3   OH2 5383   5.945   3.993   0.771 -0.6820  0.2924 -0.3939
34834TIP3    H1 5384   6.001   4.037   0.707  1.3751  1.1028  1.8116
34834TIP3    H2 5385   5.902   4.063   0.820  0.1597 -0.1662  1.0775
34835TIP3   OH2 5386   0.537   1.244   0.681  0.1951 -0.0679 -0.3308
34835TIP3    H1 5387   0.490   1.265   0.601  0.7743 -1.6161 -1.1182
34835TIP3    H2 5388   0.554   1.329   0.722  0.2814  0.7897 -2.0700
34836TIP3   OH2 5389   3.152   1.084   0.484 -1.2678 -0.9847 -0.5398
34836TIP3    H1 5390   3.168   1.074   0.390  0.5623 -2.1140 -0.1532
34836TIP3    H2 5391   3.194   1.167   0.506 -0.1644 -1.5527 -0.4335
34837TIP3   OH2 5392   6.644   9.505   4.111 -0.4947 -0.6007 -0.0424
34837TIP3    H1 5393   6.690   9.574   4.158 -0.7899 -1.3537  1.4066
34837TIP3    H2 5394   6.674   9.513   4.020  2.2691 -0.9074  0.7693
34838TIP3   OH2 5395   9.452   1.498   4.825 -0.4652  0.3245 -0.1812
34838TIP3    H1 5396   9.397   1.566   4.785 -0.5073  0.4202  0.0404
34838TIP3    H2 5397   9.534   1.501   4.774  0.0337  1.4310  0.6477
34839TIP3   OH2 5398   7.230   5.500   8.303 -0.2348  0.0866 -0.3082
34839TIP3    H1 5399   7.272   5.476   8.385  0.2283 -0.0168 -0.5740
34839TIP3    H2 5400   7.205   5.592   8.315  0.3142  0.2298 -0.2542
34840TIP3   OH2 5401   9.055   0.204   2.938 -0.3985 -0.2377 -0.5557
34840TIP3    H1 5402   8.984   0.225   2.877 -0.5325 -0.3592 -0.4456
34840TIP3    H2 5403   9.045   0.109   2.954  2.1423 -1.1486 -3.5385
34841TIP3   OH2 5404   9.456  10.527   7.432 -0.4047 -0.3975  0.0266
34841TIP3    H1 5405   9.396  10.504   7.362 -0.7421 -1.1929  0.5656
34841TIP3    H2 5406   9.402  10.577   7.494 -0.5225 -1.1126  0.5109
34842TIP3   OH2 5407   2.555   9.271   3.323  0.3692  0.0594  0.2754
34842TIP3    H1 5408   2.607   9.314   3.391  0.4436  0.6842 -0.1662
34842TIP3    H2 5409   2.486   9.335   3.302 -0.3754 -0.6147  0.6077
34843TIP3   OH2 5410   6.449   1.841   4.652 -0.0210  0.6769 -0.3997
34843TIP3    H1 5411   6.483   1.752   4.661 -0.8260  0.5365  1.7329
34843TIP3    H2 5412   6.519   1.889   4.609  0.5001 -0.9312 -1.4356
34844TIP3   OH2 5413   4.710  10.108   7.986 -0.0421 -0.1329  0.4061
34844TIP3    H1 5414   4.700  10.170   8.059  1.0599 -1.8616  2.1251
34844TIP3    H2 5415   4.696  10.022   8.026 -0.0406 -1.1006 -1.5893
34845TIP3   OH2 5416   8.412   6.371   3.771 -0.2200  0.3800  0.2160
34845TIP3    H1 5417   8.372   6.354   3.686 -0.9782 -0.6672  0.7557
34845TIP3    H2 5418   8.492   6.419   3.751 -0.5527  0.4346 -1.0596
34846TIP3   OH2 5419   1.024   5.192   6.603  0.0371 -0.6567 -0.0463
34846TIP3    H1 5420   1.110   5.219   6.637  0.1684 -0.5466 -0.4531
34846TIP3    H2 5421   0.970   5.270   6.611 -0.0090 -0.7134  0.1699
34847TIP3   OH2 5422   5.277   2.414   4.419 -0.0696 -0.0374 -0.6090
34847TIP3    H1 5423   5.227   2.378   4.493  1.4647 -1.3793 -0.1926
34847TIP3    H2 5424   5.367   2.389   4.436  0.7255  1.9018 -1.6118
34848TIP3   OH2 5425   3.617   1.510   4.955  0.5803 -0.4098  0.0346
34848TIP3    H1 5426   3.561   1.432   4.955  1.8803 -1.4772 -2.7380
34848TIP3    H2 5427   3.557   1.583   4.941 -0.4106 -1.2051  0.0060
34849TIP3   OH2 5428   0.762   1.347   3.520 -0.0070 -0.3091 -0.3071
34849TIP3    H1 5429   0.730   1.437   3.527 -0.4568 -0.3091 -1.8969
34849TIP3    H2 5430   0.753   1.311   3.608 -1.7333  0.5848 -0.0777
34850TIP3   OH2 5431   2.380   1.828   4.378 -0.2479  0.1720 -0.3566
34850TIP3    H1 5432   2.408   1.821   4.469 -1.3236  0.5452  0.0065
34850TIP3    H2 5433   2.434   1.898   4.342  0.7876 -0.5422 -0.2589
34851TIP3   OH2 5434   8.249   0.878   6.589 -0.4805 -0.4607  0.0402
34851TIP3    H1 5435   8.316   0.896   6.655  0.0887  0.1915 -0.6982
34851TIP3    H2 5436   8.267   0.788   6.560 -1.5461 -1.2561  1.6761
34852TIP3   OH2 5437  10.094   5.269   0.282 -0.1499  0.1892  0.0753
34852TIP3    H1 5438  10.111   5.223   0.200  1.2269  1.5751 -0.4704
34852TIP3    H2 5439  10.021   5.328   0.263  0.0175  0.3434 -0.0911
34853TIP3   OH2 5440   2.662   5.812   2.697 -1.0086  0.0482  0.0867
34853TIP3    H1 5441   2.639   5.859   2.777 -2.0703 -1.1628  0.5338
34853TIP3    H2 5442   2.699   5.879   2.640  0.2420  0.8683  1.7491
34854TIP3   OH2 5443  10.744   4.558   5.281  0.0215 -0.5754  0.4950
34854TIP3    H1 5444  10.691   4.638   5.271 -2.0898 -1.9698 -0.1749
34854TIP3    H2 5445  10.815   4.569   5.217  0.0343  0.9323  0.7232
34855TIP3   OH2 5446   6.424   6.123   4.260 -0.1413  0.3632 -0.2041
34855TIP3    H1 5447   6.383   6.209   4.246  0.5297  0.5884 -0.9103
34855TIP3    H2 5448   6.382   6.066   4.195  0.1342  0.4165 -0.4323
34856TIP3   OH2 5449   6.872   7.128   8.319 -0.4167  0.3313  0.1247
34856TIP3    H1 5450   6.827   7.043   8.323 -2.1895  1.2375  0.6798
34856TIP3    H2 5451   6.817   7.181   8.260  0.1457  1.3700  0.5069
34857TIP3   OH2 5452   0.223   3.955   5.087 -0.8727  0.2053  0.4396
34857TIP3    H1 5453   0.216   3.860   5.094  0.0655 -0.0892 -1.7030
34857TIP3    H2 5454   0.136   3.983   5.059 -1.1477 -0.0116  1.0597
34858TIP3   OH2 5455   6.361   9.383   1.272  0.3768  0.7604  0.0477
34858TIP3    H1 5456   6.383   9.469   1.307 -1.5075  2.0886 -1.7744
34858TIP3    H2 5457   6.282   9.357   1.318  1.5827 -0.6124  1.4341
34859TIP3   OH2 5458   5.046   6.177   3.715  0.1438 -0.2429 -0.2125
34859TIP3    H1 5459   5.004   6.190   3.630  0.2219 -0.8822 -0.3548
34859TIP3    H2 5460   5.137   6.205   3.702  0.8015 -2.5292 -1.0339
34860TIP3   OH2 5461   2.385   6.712   6.591 -0.1424  0.1251  0.3281
34860TIP3    H1 5462   2.463   6.765   6.609 -0.2238  0.6040 -0.6591
34860TIP3    H2 5463   2.336   6.763   6.526 -1.2590 -0.1956  0.8810
34861TIP3   OH2 5464   8.649   8.718   3.670 -0.2509  0.4604  0.5118
34861TIP3    H1 5465   8.675   8.682   3.585 -2.3230  2.1800 -0.9635
34861TIP3    H2 5466   8.554   8.728   3.663 -1.1810 -2.8220  4.4714
34862TIP3   OH2 5467   1.750   4.363   7.636 -0.4317  0.0361  0.6525
34862TIP3    H1 5468   1.812   4.382   7.566 -1.1277 -1.0599 -0.2872
34862TIP3    H2 5469   1.668   4.406   7.609 -0.2104  1.2385  1.7500
34863TIP3   OH2 5470   3.331   7.671   0.452  0.1179 -0.0706 -0.0692
34863TIP3    H1 5471   3.367   7.584   0.472  0.4818 -0.1352 -0.9593
34863TIP3    H2 5472   3.330   7.675   0.356  2.3917  1.8446 -0.0796
34864TIP3   OH2 5473  10.481   6.421   8.507  0.0604  0.0952  0.5746
34864TIP3    H1 5474  10.526   6.384   8.431 -1.5787  1.0541 -0.9352
34864TIP3    H2 5475  10.390   6.395   8.496 -0.1616 -0.0806  2.4659
34865TIP3   OH2 5476   3.506   9.196   6.065  0.0128 -0.4119 -0.1623
34865TIP3    H1 5477   3.475   9.167   5.979  1.1888  1.6818 -1.3619
34865TIP3    H2 5478   3.426   9.217   6.113 -0.6245  0.9189 -1.7048
34866TIP3   OH2 5479   4.148   9.983   3.287  0.0163  0.0874  0.2730
34866TIP3    H1 5480   4.186  10.018   3.368  0.4525 -1.4236  0.7580
34866TIP3    H2 5481   4.204   9.909   3.265  0.8066  1.3301 -2.2720
34867TIP3   OH2 5482   4.519   6.575   3.215 -0.1417  0.6212  0.0480
34867TIP3    H1 5483   4.594   6.614   3.259 -0.0288  1.2774 -0.7205
34867TIP3    H2 5484   4.553   6.542   3.132 -0.4829 -0.0643  0.1684
34868TIP3   OH2 5485  10.000   6.550   4.910  0.1581 -0.6726 -0.1441
34868TIP3    H1 5486  10.033   6.529   4.822 -1.6826  0.3349 -1.1444
34868TIP3    H2 5487   9.914   6.590   4.894 -0.5881 -1.2241  2.1911
34869TIP3   OH2 5488   3.918   7.884   7.364  0.5193  0.0351 -0.1507
34869TIP3    H1 5489   3.937   7.958   7.306  0.3602 -0.9713 -1.5208
34869TIP3    H2 5490   3.823   7.872   7.357  0.0444  1.5339  2.3807
34870TIP3   OH2 5491   1.051   1.413   4.174 -0.1869 -0.1902 -0.6867
34870TIP3    H1 5492   1.010   1.495   4.202  0.7132 -0.0251  0.1835
34870TIP3    H2 5493   0.981   1.367   4.127 -1.0954  0.4876 -0.0504
34871TIP3   OH2 5494   8.964   0.496   5.143  0.9847  0.3404  0.2880
34871TIP3    H1 5495   8.937   0.567   5.084  0.3084  1.0339  1.4058
34871TIP3    H2 5496   9.034   0.534   5.196  1.2051 -0.1027  0.3177
34872TIP3   OH2 5497   0.257  10.706   2.179  0.3433 -0.3723  0.2612
34872TIP3    H1 5498   0.322  10.751   2.126 -1.1532  0.7097 -0.7550
34872TIP3    H2 5499   0.291  10.710   2.269  1.7491 -0.0537 -0.2660
34873TIP3   OH2 5500   1.863   3.904   8.192  0.1896 -0.6116  0.8516
34873TIP3    H1 5501   1.827   3.881   8.278 -0.9329  0.3312  0.6625
34873TIP3    H2 5502   1.877   3.998   8.197  1.6263 -0.7866  0.5204
34874TIP3   OH2 5503   5.313   9.144   9.943 -0.5725 -0.2076 -0.2458
34874TIP3    H1 5504   5.277   9.097  10.019 -1.2292 -1.3911 -1.2505
34874TIP3    H2 5505   5.237   9.161   9.887 -0.0033 -0.0062 -0.9749
34875TIP3   OH2 5506   0.831   0.885   9.438  0.3034  0.5799  0.2781
34875TIP3    H1 5507   0.791   0.925   9.361 -1.1345 -0.0849  0.6405
34875TIP3    H2 5508   0.885   0.814   9.403  1.3088  1.5669 -0.2291
34876TIP3   OH2 5509   9.285   5.976   2.873  0.1370 -0.1637 -0.8849
34876TIP3    H1 5510   9.229   6.052   2.890  0.7785  0.3893 -1.2245
34876TIP3    H2 5511   9.264   5.915   2.944  1.6812  1.5021  1.1151
34877TIP3   OH2 5512   6.947   2.628   3.537 -0.2090 -0.1619  0.3170
34877TIP3    H1 5513   6.866   2.591   3.501 -0.8772 -0.0436  1.6155
34877TIP3    H2 5514   6.945   2.720   3.508 -0.3846 -0.2395  0.0773
34878TIP3   OH2 5515   8.429  10.866   8.560  0.0881 -0.6554 -1.2223
34878TIP3    H1 5516   8.502  10.927   8.545  0.7162 -1.7845 -3.1493
34878TIP3    H2 5517   8.416  10.868   8.655  0.1587  2.3249 -1.1696
34879TIP3   OH2 5518   4.092   1.897   1.812  0.8527 -0.1833 -0.0902
34879TIP3    H1 5519   4.116   1.810   1.780  1.2892 -0.5091  1.0819
34879TIP3    H2 5520   4.141   1.908   1.893  0.3572  0.9238  0.0839
34880TIP3   OH2 5521  10.887   6.072   8.287 -0.0780 -0.0700  0.0335
34880TIP3    H1 5522  10.942   5.998   8.314 -1.3503 -1.2090 -0.4341
34880TIP3    H2 5523  10.875   6.123   8.368 -0.0319 -0.9139  0.5803
34881TIP3   OH2 5524   5.320  10.836   9.456 -0.0908 -0.0820  0.2209
34881TIP3    H1 5525   5.408  10.804   9.475 -0.2452 -0.5130  0.2163
34881TIP3    H2 5526   5.295  10.886   9.535  0.0711 -0.1381  0.3081
34882TIP3   OH2 5527  10.485   1.911   3.567  0.0888  0.4775  0.0812
34882TIP3    H1 5528  10.485   1.816   3.575  0.8031  0.4254 -0.4574
34882TIP3    H2 5529  10.457   1.942   3.653 -2.0781 -0.2408 -0.3094
34883TIP3   OH2 5530   1.499  10.636   1.743 -0.0426  0.0871  0.3668
34883TIP3    H1 5531   1.521  10.548   1.774 -2.0019  0.0766  1.9333
34883TIP3    H2 5532   1.525  10.694   1.814 -1.4623  0.4352  0.6226
34884TIP3   OH2 5533   3.759   9.581   2.643  0.7033 -0.2734  0.0841
34884TIP3    H1 5534   3.708   9.618   2.715  1.1014  0.7788 -0.1632
34884TIP3    H2 5535   3.715   9.611   2.564 -0.1759 -2.0479 -0.1454
34885TIP3   OH2 5536   0.174   7.637   1.432 -0.3244 -0.0018 -0.3750
34885TIP3    H1 5537   0.258   7.622   1.390 -0.2477  1.0604 -0.6226
34885TIP3    H2 5538   0.122   7.559   1.410  0.2971 -0.2670 -0.9355
34886TIP3   OH2 5539   3.303   3.751   3.888  0.0127 -0.1983 -0.3370
34886TIP3    H1 5540   3.351   3.680   3.931 -1.7456  0.1166  2.4447
34886TIP3    H2 5541   3.335   3.831   3.930  0.0399  0.4246 -1.4970
34887TIP3   OH2 5542   1.328   6.045   5.085  0.1112  0.0169 -0.0066
34887TIP3    H1 5543   1.368   6.062   5.170  0.0109  0.4277 -0.0428
34887TIP3    H2 5544   1.353   5.955   5.065 -0.2237 -0.2305  0.6554
34888TIP3   OH2 5545   2.139   8.931   1.686 -0.1769 -0.2794  0.3368
34888TIP3    H1 5546   2.115   9.023   1.695  1.2616 -0.0170  2.3613
34888TIP3    H2 5547   2.079   8.885   1.746  0.7042 -0.3163  1.2090
34889TIP3   OH2 5548   2.787  10.436   0.526  0.7602  0.1071 -0.2117
34889TIP3    H1 5549   2.707  10.487   0.509  0.7498  0.1311 -0.0905
34889TIP3    H2 5550   2.759  10.345   0.515  0.6491  0.1006  0.0933
34890TIP3   OH2 5551   3.316   6.441  10.078 -0.0184 -0.5820  0.2145
34890TIP3    H1 5552   3.390   6.403  10.126  0.8292 -1.0281 -1.3880
34890TIP3    H2 5553   3.350   6.523  10.043 -0.0661 -1.0782 -1.0430
34891TIP3   OH2 5554   8.865   5.947   1.675  0.0863 -0.2666 -0.3876
34891TIP3    H1 5555   8.872   6.025   1.618 -0.0271  2.0975  2.5873
34891TIP3    H2 5556   8.775   5.951   1.708  0.2806 -1.3323  0.2908
34892TIP3   OH2 5557   4.540   3.860   3.041 -0.5907  0.0750 -0.1748
34892TIP3    H1 5558   4.508   3.783   2.997 -1.7371  0.6803 -0.4263
34892TIP3    H2 5559   4.503   3.934   2.993 -0.1016  0.7793  0.4843
34893TIP3   OH2 5560   5.517   5.761   0.523 -0.1335 -0.2534 -0.2457
34893TIP3    H1 5561   5.451   5.819   0.561  2.5849  2.2202  1.1704
34893TIP3    H2 5562   5.557   5.813   0.453  1.5072 -0.9080  0.1585
34894TIP3   OH2 5563   5.442   3.888   4.364 -0.2190  0.2158 -0.2826
34894TIP3    H1 5564   5.516   3.879   4.304 -1.7654 -0.6883 -2.1999
34894TIP3    H2 5565   5.445   3.979   4.393  2.7869 -0.3012  1.3762
34895TIP3   OH2 5566  10.577   5.975   5.647 -0.2960 -0.3370  0.2048
34895TIP3    H1 5567  10.668   5.949   5.635 -0.7496 -1.3924 -1.3138
34895TIP3    H2 5568  10.542   5.912   5.709 -0.0311  0.0113  0.7159
34896TIP3   OH2 5569   9.895   5.517   8.379  0.1683  0.0501 -0.2182
34896TIP3    H1 5570   9.986   5.540   8.358  0.5493 -1.3031 -0.1017
34896TIP3    H2 5571   9.847   5.539   8.299  0.7158  0.0781 -0.5496
34897TIP3   OH2 5572   7.225   2.378   5.838 -0.1389 -0.2356  0.0618
34897TIP3    H1 5573   7.181   2.304   5.880 -0.4558  0.4697  1.0043
34897TIP3    H2 5574   7.155   2.429   5.798 -0.0244  0.0756  0.2520
34898TIP3   OH2 5575   8.184   0.062   4.475  0.5876 -0.0095 -0.3526
34898TIP3    H1 5576   8.260   0.051   4.532 -0.3399 -0.9557  0.7704
34898TIP3    H2 5577   8.151   0.149   4.496 -0.0652 -0.5562  1.0298
34899TIP3   OH2 5578   2.611   4.348   2.758 -0.3167 -0.0690  0.0510
34899TIP3    H1 5579   2.605   4.430   2.708 -1.0435 -0.5921 -0.7673
34899TIP3    H2 5580   2.535   4.351   2.816  1.9448  1.7851  3.2083
34900TIP3   OH2 5581   5.845   9.228   1.311 -0.0976 -0.2922 -0.5459
34900TIP3    H1 5582   5.818   9.243   1.221 -0.3707 -0.2835 -0.4659
34900TIP3    H2 5583   5.839   9.133   1.322 -1.2820 -0.1949 -0.1752
34901TIP3   OH2 5584   5.983   8.891   2.248  0.0101 -0.4411  0.5805
34901TIP3    H1 5585   5.904   8.939   2.221 -1.7688 -2.6505  1.4779
34901TIP3    H2 5586   5.949   8.820   2.302  2.6926 -1.3566  1.1706
34902TIP3   OH2 5587   2.911   3.357   7.855  0.5615 -0.6751  0.1263
34902TIP3    H1 5588   2.842   3.419   7.832 -0.2292 -0.8384  1.8830
34902TIP3    H2 5589   2.912   3.294   7.783  0.0838  0.2859 -0.7602
34903TIP3   OH2 5590  10.047   5.326   9.595  0.1074  0.7965 -0.2581
34903TIP3    H1 5591  10.016   5.242   9.627  0.2941  0.0368 -1.9776
34903TIP3    H2 5592   9.976   5.387   9.614 -0.0153  0.2788  1.0214
34904TIP3   OH2 5593   6.426   9.831   8.690  0.2662 -0.3840 -0.6494
34904TIP3    H1 5594   6.451   9.909   8.640 -0.3709  0.7598  0.7355
34904TIP3    H2 5595   6.508   9.784   8.704  0.9442  0.9111 -0.1203
34905TIP3   OH2 5596   5.097   8.625   8.724  0.0153 -0.5051 -0.0282
34905TIP3    H1 5597   5.061   8.540   8.697  0.9105 -1.3983  1.4903
34905TIP3    H2 5598   5.183   8.629   8.681  0.3277 -0.7457  0.5725
34906TIP3   OH2 5599   6.633   5.276   7.677  0.2406  0.2251  0.3172
34906TIP3    H1 5600   6.724   5.298   7.658  1.5491 -3.0301  2.0041
34906TIP3    H2 5601   6.600   5.351   7.727  1.8489  1.5720 -0.5391
34907TIP3   OH2 5602  10.296   6.936   5.878 -0.1448 -0.2354  0.2890
34907TIP3    H1 5603  10.329   6.851   5.908  0.8695 -0.2248 -0.7144
34907TIP3    H2 5604  10.201   6.931   5.889 -0.0624 -1.3685  0.5791
34908TIP3   OH2 5605   3.646   9.231   0.672  0.0428  0.0054  0.4857
34908TIP3    H1 5606   3.697   9.304   0.706 -0.3612  0.0196  1.0846
34908TIP3    H2 5607   3.706   9.185   0.614  0.4677  0.5057  0.5209
34909TIP3   OH2 5608   6.532  10.799   6.967  0.6447 -0.2626 -0.2472
34909TIP3    H1 5609   6.510  10.709   6.942  1.3980 -0.2069 -1.1812
34909TIP3    H2 5610   6.541  10.796   7.062 -0.4789 -0.9111 -0.1424
34910TIP3   OH2 5611   2.167   8.778   0.101  0.5175 -0.2597 -0.2945
34910TIP3    H1 5612   2.119   8.850   0.144  0.6962  0.6738 -1.6103
34910TIP3    H2 5613   2.098   8.722   0.066  0.3798 -0.2956  0.0266
34911TIP3   OH2 5614   6.164   5.462   5.503  0.2323  0.1722  0.1506
34911TIP3    H1 5615   6.132   5.376   5.475  0.3446 -0.2057  1.1416
34911TIP3    H2 5616   6.240   5.442   5.558  1.3868  0.9996 -1.1118
34912TIP3   OH2 5617   6.137   4.179  10.221 -0.3087  0.2961  0.3454
34912TIP3    H1 5618   6.140   4.257  10.166  2.0206  0.0130 -0.0298
34912TIP3    H2 5619   6.137   4.212  10.311  0.6141  0.7397  0.1871
34913TIP3   OH2 5620   6.349   4.109   7.752 -0.0858 -0.3059  0.9690
34913TIP3    H1 5621   6.351   4.205   7.751 -0.7584 -0.2836 -0.0527
34913TIP3    H2 5622   6.357   4.085   7.660 -0.1353 -1.2277  1.2006
34914TIP3   OH2 5623  10.188   7.234  10.069 -0.2846  0.4788  0.2524
34914TIP3    H1 5624  10.198   7.168  10.137 -0.2492  0.7996  0.5596
34914TIP3    H2 5625  10.169   7.315  10.116 -2.5201  0.2945 -0.2042
34915TIP3   OH2 5626   8.293   3.760   6.340 -0.0697  0.3393 -0.1641
34915TIP3    H1 5627   8.305   3.837   6.396  0.8054 -0.5832  0.9503
34915TIP3    H2 5628   8.319   3.790   6.253  1.5113  0.9720  0.4853
34916TIP3   OH2 5629   7.120  10.425   9.018  0.1123 -0.1978  0.0428
34916TIP3    H1 5630   7.079  10.389   9.097  0.9284  1.3831  1.2253
34916TIP3    H2 5631   7.139  10.516   9.040 -2.9532  1.4878 -3.2072
34917TIP3   OH2 5632   4.261   1.503   0.129  0.0739 -0.5992 -0.1999
34917TIP3    H1 5633   4.191   1.551   0.173  0.0204 -1.2799  0.4920
34917TIP3    H2 5634   4.342   1.544   0.160  0.0099 -0.5376 -0.1114
34918TIP3   OH2 5635   1.256   8.218   9.490 -0.4555 -0.0268 -0.2775
34918TIP3    H1 5636   1.189   8.250   9.429  2.0660  0.7686 -2.8714
34918TIP3    H2 5637   1.321   8.288   9.493 -0.2035 -0.2571  3.0793
34919TIP3   OH2 5638   2.886   2.102   8.904 -0.4783 -0.5249  0.6434
34919TIP3    H1 5639   2.823   2.033   8.883  0.6560 -1.0884 -1.0618
34919TIP3    H2 5640   2.841   2.183   8.879 -1.4258 -0.6888  1.7133
34920TIP3   OH2 5641   6.065   1.785  10.488 -0.3933 -0.1957  0.4615
34920TIP3    H1 5642   6.080   1.814  10.578  0.4163  0.7442  0.0460
34920TIP3    H2 5643   6.149   1.748  10.461 -1.4345 -3.3686  1.0578
34921TIP3   OH2 5644   4.779   4.014   1.043  0.2421 -0.1798 -0.5256
34921TIP3    H1 5645   4.686   4.030   1.059  0.4509  0.2197  0.3340
34921TIP3    H2 5646   4.823   4.047   1.122  0.9989 -1.6136 -0.3166
34922TIP3   OH2 5647   6.770  10.088   1.994 -0.7179  0.2865  0.3253
34922TIP3    H1 5648   6.819  10.026   2.047 -1.0112  0.9128  1.3699
34922TIP3    H2 5649   6.831  10.117   1.926 -0.3367 -0.5251  0.3161
34923TIP3   OH2 5650   7.564  10.452   5.451 -0.0622  0.2764  0.0375
34923TIP3    H1 5651   7.566  10.403   5.533 -0.6925 -0.3470 -0.3141
34923TIP3    H2 5652   7.478  10.435   5.414  0.5941 -0.3568 -1.2929
34924TIP3   OH2 5653  10.273   8.003   2.356  0.1942 -0.2107  0.1824
34924TIP3    H1 5654  10.259   8.034   2.445  0.8604  1.3144 -0.1921
34924TIP3    H2 5655  10.337   7.932   2.365  1.2941  0.8228  0.8287
34925TIP3   OH2 5656   6.157   6.385   5.974  0.3724 -0.7129 -0.5236
34925TIP3    H1 5657   6.082   6.326   5.985  0.4064 -0.9239 -1.3491
34925TIP3    H2 5658   6.123   6.472   5.998 -0.1459 -0.8020 -0.9293
34926TIP3   OH2 5659   5.447   3.020   0.667 -1.0000  0.0170  0.3680
34926TIP3    H1 5660   5.367   3.019   0.719 -1.9407 -0.4505 -1.0328
34926TIP3    H2 5661   5.422   2.983   0.583  0.5203  0.5641 -0.3714
34927TIP3   OH2 5662   5.495   2.151  10.190  0.6683 -0.0860  0.1581
34927TIP3    H1 5663   5.518   2.189  10.106  1.1939  1.5118  0.9712
34927TIP3    H2 5664   5.410   2.189  10.211  0.7429 -0.1173  0.5320
34928TIP3   OH2 5665   0.147   2.517   5.392 -0.3792 -0.0145  0.6429
34928TIP3    H1 5666   0.200   2.594   5.417 -0.7738  0.2084  0.7982
34928TIP3    H2 5667   0.163   2.507   5.298  1.2511 -0.9632  0.9821
34929TIP3   OH2 5668   9.255   8.700   7.085 -0.0170 -0.4020 -0.2313
34929TIP3    H1 5669   9.217   8.677   7.000 -0.5533 -0.4477  0.0135
34929TIP3    H2 5670   9.343   8.664   7.082  0.0529 -0.1860 -0.8629
34930TIP3   OH2 5671   0.238   1.491   1.094 -0.1326 -0.2484 -0.3915
34930TIP3    H1 5672   0.158   1.494   1.147  0.3687  1.8676  0.3345
34930TIP3    H2 5673   0.304   1.451   1.151  0.0510  0.7191  0.0821
34931TIP3   OH2 5674   0.615   0.295   7.664  0.3835 -0.2383  0.0772
34931TIP3    H1 5675   0.633   0.293   7.570 -0.4493  2.5048 -0.2372
34931TIP3    H2 5676   0.537   0.241   7.675  1.4865 -2.0365 -0.4704
34932TIP3   OH2 5677   1.961   6.176   9.693  0.1433 -0.7136  0.1853
34932TIP3    H1 5678   1.938   6.112   9.761  0.2470 -1.3995 -0.4082
34932TIP3    H2 5679   2.000   6.123   9.623 -1.6497 -0.2868 -1.2017
34933TIP3   OH2 5680   1.504   8.460   0.069  0.5316  0.3922 -0.5922
34933TIP3    H1 5681   1.438   8.415   0.017  0.1024  0.7600 -0.3742
34933TIP3    H2 5682   1.580   8.402   0.066  0.9413  0.9631 -2.6326
34934TIP3   OH2 5683   5.337   7.687   8.701  0.2715 -0.1825 -0.1059
34934TIP3    H1 5684   5.256   7.663   8.746 -0.3020  0.5037 -0.7523
34934TIP3    H2 5685   5.341   7.782   8.707  1.1314 -0.2167  0.0749
34935TIP3   OH2 5686   0.332   2.384   3.019 -0.5547 -0.5429 -0.2536
34935TIP3    H1 5687   0.311   2.351   2.932  0.7354 -2.2163  0.0241
34935TIP3    H2 5688   0.404   2.329   3.049  1.5280  2.3008  0.4045
34936TIP3   OH2 5689   5.666   1.500   8.326 -0.0936 -0.1412 -0.4842
34936TIP3    H1 5690   5.754   1.528   8.301 -0.1047  0.3578  0.0193
34936TIP3    H2 5691   5.655   1.532   8.416 -0.9699  0.2330 -0.7135
34937TIP3   OH2 5692   8.892   2.548   2.717  0.9373  0.1178 -0.0281
34937TIP3    H1 5693   8.836   2.518   2.788 -0.1677  0.9299 -0.5198
34937TIP3    H2 5694   8.965   2.592   2.761 -0.7290  2.3758  0.6469
34938TIP3   OH2 5695   3.774   7.660   4.372  0.3861  0.6768  0.5085
34938TIP3    H1 5696   3.823   7.742   4.368 -0.0916  1.0245  1.6208
34938TIP3    H2 5697   3.733   7.653   4.285  1.4310  0.9692 -0.0260
34939TIP3   OH2 5698   2.982   7.260   5.696  0.0945 -0.4055  0.2977
34939TIP3    H1 5699   3.033   7.334   5.729 -2.6299  2.2068 -0.9287
34939TIP3    H2 5700   3.041   7.217   5.634  1.6608  0.9397  0.7657
34940TIP3   OH2 5701   4.045   8.816   7.320 -0.3101 -0.7685 -0.2851
34940TIP3    H1 5702   4.124   8.867   7.335 -0.0555 -0.4678 -2.3303
34940TIP3    H2 5703   4.007   8.804   7.407  0.3745  1.6747  0.4348
34941TIP3   OH2 5704   5.216  10.385   8.400 -0.0663 -0.4799  0.0474
34941TIP3    H1 5705   5.171  10.304   8.375  1.6257 -1.3378 -0.4102
34941TIP3    H2 5706   5.181  10.451   8.341 -0.0932 -1.3137 -0.9064
34942TIP3   OH2 5707  10.622   1.749   5.456  0.1898  0.6293 -0.2619
34942TIP3    H1 5708  10.569   1.760   5.534 -0.9246 -0.2276 -0.8611
34942TIP3    H2 5709  10.712   1.761   5.486 -0.1549 -0.3577  1.2967
34943TIP3   OH2 5710   7.216   7.889   8.118  0.4270  0.5248 -0.3011
34943TIP3    H1 5711   7.242   7.977   8.089  3.0002  0.0678  0.3489
34943TIP3    H2 5712   7.245   7.885   8.209  0.8856 -1.1874 -0.5063
34944TIP3   OH2 5713   7.090   8.854   9.229  0.2967  0.6649 -0.1647
34944TIP3    H1 5714   7.128   8.871   9.316  0.3093 -0.6737  0.1094
34944TIP3    H2 5715   7.165   8.841   9.172  0.3297 -1.6374  0.3074
34945TIP3   OH2 5716   1.761   4.138   8.541  0.3025  0.6787  1.1271
34945TIP3    H1 5717   1.786   4.048   8.520 -1.5491 -0.0056  1.6909
34945TIP3    H2 5718   1.753   4.181   8.456 -0.0757 -0.0569  0.7865
34946TIP3   OH2 5719   1.982   2.553   1.370 -0.2124  0.0438  0.2051
34946TIP3    H1 5720   2.025   2.481   1.417  1.0938  0.7286  0.1092
34946TIP3    H2 5721   1.935   2.602   1.437  1.7032  1.0638  0.8834
34947TIP3   OH2 5722   9.050   2.441   9.849 -0.5206 -0.5622 -0.1681
34947TIP3    H1 5723   9.026   2.363   9.797 -0.6003  1.0099 -2.6565
34947TIP3    H2 5724   8.974   2.499   9.841 -0.0149  0.2447  0.6863
34948TIP3   OH2 5725  10.145   5.687   6.057 -0.2049  0.3705 -0.7015
34948TIP3    H1 5726  10.177   5.716   5.972  0.6968  0.4271 -0.3594
34948TIP3    H2 5727  10.157   5.592   6.057 -2.0764  0.0885 -1.3799
34949TIP3   OH2 5728   1.708   2.867  10.281 -0.2633  0.0633  0.1186
34949TIP3    H1 5729   1.673   2.778  10.279 -1.1849  0.4310 -0.9117
34949TIP3    H2 5730   1.803   2.856  10.280 -0.3092 -0.9407  2.0490
34950TIP3   OH2 5731   7.022   4.888   9.827  0.2123 -0.7392  0.3867
34950TIP3    H1 5732   6.927   4.877   9.828 -0.0412  1.2592  0.7127
34950TIP3    H2 5733   7.043   4.925   9.912  0.8863  1.5471 -0.7032
34951TIP3   OH2 5734   3.769   2.982   9.750 -0.1668  0.0878  0.7112
34951TIP3    H1 5735   3.762   3.009   9.658  4.9749  0.2793  0.0728
34951TIP3    H2 5736   3.771   3.065   9.799 -0.6057  0.0919  0.7235
34952TIP3   OH2 5737   3.462   9.995   0.005  0.8085 -0.3281 -0.2120
34952TIP3    H1 5738   3.487  10.086  -0.009 -0.3002  0.3065  1.5025
34952TIP3    H2 5739   3.509   9.946  -0.062  0.6326  1.6127 -1.8657
34953TIP3   OH2 5740   7.788   1.747  10.311  0.0907  0.3617  1.1501
34953TIP3    H1 5741   7.784   1.838  10.340  3.2210  1.1084 -0.3040
34953TIP3    H2 5742   7.819   1.699  10.389  2.3414  1.2923  0.9053
34954TIP3   OH2 5743   0.003   5.763   5.806  0.2762  0.1973 -0.2956
34954TIP3    H1 5744   0.048   5.838   5.768  0.3298 -0.2246 -1.0776
34954TIP3    H2 5745   0.056   5.738   5.882  0.6106  0.5454 -0.4188
34955TIP3   OH2 5746   7.213   2.718   6.419 -0.4675 -0.4193 -0.1968
34955TIP3    H1 5747   7.150   2.693   6.352  0.5504  0.3260 -1.4862
34955TIP3    H2 5748   7.257   2.636   6.442  1.1900 -0.3347 -2.6329
34956TIP3   OH2 5749   5.291  10.388   8.006 -0.3798  0.6368 -0.3688
34956TIP3    H1 5750   5.339  10.309   7.982 -0.4272  0.7771 -0.9425
34956TIP3    H2 5751   5.199  10.363   8.000 -0.3973  0.4792  0.3522
34957TIP3   OH2 5752   8.511   5.213  10.269 -0.1578 -0.1948 -0.2059
34957TIP3    H1 5753   8.437   5.152  10.259 -0.8391 -0.0030  2.7753
34957TIP3    H2 5754   8.478   5.296  10.235  0.1712 -0.9757 -2.6548
34958TIP3   OH2 5755   9.096   2.862   3.824  0.2384  0.0504 -0.1688
34958TIP3    H1 5756   9.166   2.803   3.797 -0.5459 -0.7804 -0.4509
34958TIP3    H2 5757   9.075   2.834   3.913 -0.0283  0.0019 -0.2457
34959TIP3   OH2 5758   2.510   6.412   0.700 -0.1214  0.1165 -0.0974
34959TIP3    H1 5759   2.423   6.372   0.700  0.1240 -0.4789  1.0405
34959TIP3    H2 5760   2.551   6.383   0.619 -1.1365  0.7881 -0.8753
34960TIP3   OH2 5761   9.499   1.471   1.501  0.5702  0.7516 -0.0556
34960TIP3    H1 5762   9.480   1.425   1.419  1.1626  0.8980 -0.2776
34960TIP3    H2 5763   9.533   1.556   1.473 -3.9496  2.9533  0.2541
34961TIP3   OH2 5764   4.621   4.026   3.576  0.1760 -0.4131 -0.6959
34961TIP3    H1 5765   4.616   3.962   3.647  0.2817  0.1138 -0.2124
34961TIP3    H2 5766   4.646   3.975   3.499  1.6962 -0.7268 -0.0175
34962TIP3   OH2 5767   5.531  10.839  10.161  0.1911  0.3093 -0.1187
34962TIP3    H1 5768   5.561  10.814  10.073  1.1157 -2.3811  0.8421
34962TIP3    H2 5769   5.437  10.821  10.159 -0.0048  1.3408 -0.8659
34963TIP3   OH2 5770   1.649   8.952   5.039  0.1145 -0.2565  0.2024
34963TIP3    H1 5771   1.607   8.920   4.959  1.4395 -0.7461 -0.3256
34963TIP3    H2 5772   1.592   8.921   5.109 -1.1115  0.2417 -0.5346
34964TIP3   OH2 5773   1.719   4.169   2.867 -0.0590 -0.4166  0.1233
34964TIP3    H1 5774   1.788   4.107   2.893  0.1652 -0.9132 -1.5423
34964TIP3    H2 5775   1.638   4.122   2.887  0.0999 -1.6096 -1.7373
34965TIP3   OH2 5776   0.571   3.299  10.743 -0.0053  0.6743 -0.2343
34965TIP3    H1 5777   0.581   3.241  10.667  1.1230  2.0730 -1.2196
34965TIP3    H2 5778   0.511   3.366  10.713  0.1880  1.0522  0.2253
34966TIP3   OH2 5779   3.600  10.503   7.411 -0.0161 -0.3216  0.5014
34966TIP3    H1 5780   3.620  10.588   7.371 -0.3823  0.5915  2.1537
34966TIP3    H2 5781   3.566  10.450   7.339  0.7122  0.7468 -0.6819
34967TIP3   OH2 5782   0.593   5.315   7.951 -0.3017 -0.4441 -0.3203
34967TIP3    H1 5783   0.681   5.292   7.921  0.1936 -1.0423  1.4515
34967TIP3    H2 5784   0.551   5.231   7.969 -0.8733 -0.1293 -0.1532
34968TIP3   OH2 5785   1.414   3.055   4.429  0.1657 -0.0658  0.0620
34968TIP3    H1 5786   1.470   3.089   4.360 -0.8615  0.9692 -0.3092
34968TIP3    H2 5787   1.382   3.133   4.474 -2.3472 -0.4626 -0.8699
34969TIP3   OH2 5788   1.374   7.100   3.927 -0.2250  0.3786 -0.2519
34969TIP3    H1 5789   1.337   7.084   3.840  0.3686 -0.1178 -0.4160
34969TIP3    H2 5790   1.378   7.014   3.968 -0.1903  0.5670  0.1473
34970TIP3   OH2 5791   1.771   6.891   2.019 -0.4973 -0.5460 -0.0317
34970TIP3    H1 5792   1.727   6.881   2.104 -1.8305 -1.0463 -0.7548
34970TIP3    H2 5793   1.704   6.929   1.962  0.1139 -1.0209 -1.0886
34971TIP3   OH2 5794   5.696   9.935  10.624 -0.6089  0.0467 -0.8970
34971TIP3    H1 5795   5.757   9.993  10.578 -1.0849  1.2326 -0.0679
34971TIP3    H2 5796   5.677   9.866  10.560  0.9161  0.1022 -1.4736
34972TIP3   OH2 5797   3.856   3.195   4.842  0.2487  0.0828 -0.4692
34972TIP3    H1 5798   3.857   3.238   4.928  0.1694 -0.0140 -0.4195
34972TIP3    H2 5799   3.883   3.104   4.861 -1.9452 -0.5625 -0.2125
34973TIP3   OH2 5800   1.427   0.330  10.566 -0.0714  0.7510 -0.0822
34973TIP3    H1 5801   1.420   0.424  10.580 -0.0528  0.7328  0.0475
34973TIP3    H2 5802   1.473   0.321  10.482  0.1609  0.8546  0.0331
34974TIP3   OH2 5803   8.275   5.022   2.071  0.1166 -0.4049 -0.0988
34974TIP3    H1 5804   8.365   5.051   2.084  0.3560 -1.5278  0.8603
34974TIP3    H2 5805   8.277   4.973   1.989  0.2726 -0.0668 -0.3022
34975TIP3   OH2 5806  10.340   2.415   4.454 -0.4493 -0.0590 -0.0129
34975TIP3    H1 5807  10.312   2.349   4.517 -1.0929 -1.0568 -1.3071
34975TIP3    H2 5808  10.422   2.381   4.418 -1.3608 -0.7801 -1.5186
34976TIP3   OH2 5809   4.523   8.989   1.380  0.0456 -0.4987  0.3507
34976TIP3    H1 5810   4.550   9.079   1.396 -0.5063  0.1652 -2.0419
34976TIP3    H2 5811   4.593   8.951   1.326 -0.9429 -0.6244 -0.8908
34977TIP3   OH2 5812   7.667   1.387   0.928  0.2977  0.0821  0.3830
34977TIP3    H1 5813   7.664   1.393   0.833 -0.5759  1.6163  0.4788
34977TIP3    H2 5814   7.666   1.292   0.946  1.4968 -0.2570 -1.1220
34978TIP3   OH2 5815   0.588   5.534  10.819 -0.3301  0.4492  1.0577
34978TIP3    H1 5816   0.646   5.489  10.758 -1.5331 -0.5859  0.6353
34978TIP3    H2 5817   0.587   5.478  10.897 -1.2792  0.0869  0.8014
34979TIP3   OH2 5818   6.929   1.026  10.497 -0.1159  0.3608 -0.5783
34979TIP3    H1 5819   6.850   1.046  10.447 -0.3206  1.9789  0.3288
34979TIP3    H2 5820   6.904   1.042  10.588  0.7515 -0.8637 -0.1047
34980TIP3   OH2 5821   4.979  10.153   0.567  0.6732 -0.8580 -0.0589
34980TIP3    H1 5822   5.017  10.143   0.480 -1.3040 -0.3964 -1.0267
34980TIP3    H2 5823   4.932  10.070   0.582  1.6940 -1.2786  0.9553
34981TIP3   OH2 5824   0.867   9.569   8.076  0.1113 -0.2379 -0.3561
34981TIP3    H1 5825   0.853   9.610   7.991  2.0674 -0.9824 -1.1008
34981TIP3    H2 5826   0.932   9.624   8.119 -2.1448  1.1690  1.4979
34982TIP3   OH2 5827   3.992   9.643   3.149  0.1912  0.0922 -0.1086
34982TIP3    H1 5828   4.007   9.592   3.070  0.2743 -0.8824  0.5108
34982TIP3    H2 5829   4.049   9.719   3.141  0.8251 -0.4299 -0.6026
34983TIP3   OH2 5830   2.428   1.153   0.168  0.1876 -0.0680 -0.1560
34983TIP3    H1 5831   2.334   1.154   0.184  0.1459 -0.3953 -0.3776
34983TIP3    H2 5832   2.440   1.091   0.095  0.8225 -2.0557  1.5313
34984TIP3   OH2 5833   2.778   5.315   3.462  0.3181  0.1286 -0.2896
34984TIP3    H1 5834   2.714   5.387   3.463 -1.1594 -1.1290  0.8024
34984TIP3    H2 5835   2.728   5.238   3.489  2.4778 -0.7889  1.4254
34985TIP3   OH2 5836   2.696   2.860   3.347  0.4111  0.4841 -0.2782
34985TIP3    H1 5837   2.713   2.767   3.334 -0.9624  0.1578  0.2007
34985TIP3    H2 5838   2.691   2.871   3.442  1.9037  1.3136 -0.2616
34986TIP3   OH2 5839   5.688   1.481   3.231  0.4138 -0.5572 -0.2540
34986TIP3    H1 5840   5.751   1.486   3.159  0.0237 -3.1165 -0.9018
34986TIP3    H2 5841   5.741   1.459   3.308  0.9649  3.1744  0.5990
34987TIP3   OH2 5842   8.851   0.969   1.896  0.3850  0.0472  0.0040
34987TIP3    H1 5843   8.915   0.907   1.934  0.9688  1.2384  1.0409
34987TIP3    H2 5844   8.827   1.026   1.969  1.1864  2.1483 -1.2773
34988TIP3   OH2 5845   0.758   1.893   6.675 -0.0827  0.3289  0.0701
34988TIP3    H1 5846   0.774   1.888   6.769 -1.3484 -1.1667  0.2377
34988TIP3    H2 5847   0.783   1.808   6.641 -0.3851  0.5848 -0.8231
34989TIP3   OH2 5848   7.730   9.333   1.464  0.2050 -0.1530  0.1873
34989TIP3    H1 5849   7.690   9.286   1.537 -0.6111 -0.5722 -0.5132
34989TIP3    H2 5850   7.669   9.321   1.391  0.5453  1.0354 -0.3170
34990TIP3   OH2 5851   6.760   7.209   1.211  0.3799 -0.1356  0.0445
34990TIP3    H1 5852   6.749   7.176   1.122 -0.0165  1.9046 -0.7244
34990TIP3    H2 5853   6.672   7.237   1.237  0.2013 -2.0758  1.6929
34991TIP3   OH2 5854   6.460   1.018   7.665 -0.0455  0.4553 -0.6749
34991TIP3    H1 5855   6.366   1.008   7.682  0.0256  0.3034 -0.3519
34991TIP3    H2 5856   6.468   1.103   7.622 -0.3499  0.3952 -0.8571
34992TIP3   OH2 5857   2.799   0.587   5.010  0.1428 -0.0584  0.0990
34992TIP3    H1 5858   2.775   0.597   4.918  2.5092 -0.6600 -0.6715
34992TIP3    H2 5859   2.718   0.601   5.058 -1.1047  0.5747 -2.0528
34993TIP3   OH2 5860   4.324   8.559   7.281  0.3967  0.2641  0.0393
34993TIP3    H1 5861   4.239   8.552   7.238  1.1642  2.0531 -1.9420
34993TIP3    H2 5862   4.336   8.653   7.296  1.4015 -0.0855  1.6584
34994TIP3   OH2 5863   5.954   5.865   5.814  0.3509 -0.1074  0.2650
34994TIP3    H1 5864   6.023   5.871   5.879  0.7476  1.3503 -0.2489
34994TIP3    H2 5865   5.968   5.941   5.757 -1.9575  0.5078  0.4307
34995TIP3   OH2 5866   3.893   3.292   9.157 -0.0985 -0.0821 -0.6311
34995TIP3    H1 5867   3.835   3.248   9.219  1.2688 -1.4245 -0.2373
34995TIP3    H2 5868   3.834   3.334   9.094 -1.4938 -0.0374  0.6516
34996TIP3   OH2 5869   7.010   6.988   1.805 -0.1432  0.3052  0.3253
34996TIP3    H1 5870   7.015   7.058   1.870 -0.2372  1.0503 -0.4488
34996TIP3    H2 5871   6.917   6.982   1.783  0.0171  0.8356 -0.5501
34997TIP3   OH2 5872   4.729   1.361   7.668  0.2392 -0.3439 -0.2026
34997TIP3    H1 5873   4.801   1.336   7.727  0.2727 -1.2979 -0.6257
34997TIP3    H2 5874   4.672   1.284   7.666 -1.0113  0.5321  0.4207
34998TIP3   OH2 5875   3.594   6.617   5.188 -0.1717  0.3266 -0.1775
34998TIP3    H1 5876   3.649   6.676   5.136  0.5954  1.7319  2.0600
34998TIP3    H2 5877   3.505   6.642   5.166  0.0848  0.1535 -1.5499
34999TIP3   OH2 5878   0.754   8.085   6.080  0.9122 -0.0420 -0.3248
34999TIP3    H1 5879   0.847   8.082   6.103  0.8466  0.0963 -0.0369
34999TIP3    H2 5880   0.725   7.994   6.084  0.4693  0.1442  1.9334
35000TIP3   OH2 5881   5.777   5.104   7.192 -0.3608 -0.9365  0.5405
35000TIP3    H1 5882   5.862   5.062   7.177 -0.3389 -0.3798 -1.1984
35000TIP3    H2 5883   5.713   5.039   7.164 -0.4477 -0.8458  0.5265
35001TIP3   OH2 5884   0.414   4.494   7.374  0.3169 -0.2842  0.0487
35001TIP3    H1 5885   0.350   4.435   7.334 -0.3913  1.2000 -1.0978
35001TIP3    H2 5886   0.400   4.484   7.468 -0.2029 -1.4535 -0.1301
35002TIP3   OH2 5887   5.132   7.791   4.519  0.0669  0.3065 -0.3013
35002TIP3    H1 5888   5.162   7.718   4.574 -1.3614 -0.3835 -0.3879
35002TIP3    H2 5889   5.165   7.770   4.432  0.1200  0.0337 -0.2197
35003TIP3   OH2 5890   6.125   4.449   9.031  0.6031  0.1677  0.2433
35003TIP3    H1 5891   6.073   4.475   9.107  0.6598 -1.0668  0.7254
35003TIP3    H2 5892   6.189   4.387   9.065  0.1730 -0.9655 -0.9311
35004TIP3   OH2 5893   0.926   6.476   6.424 -0.6050  0.2907 -0.0808
35004TIP3    H1 5894   0.980   6.460   6.346 -0.4560 -1.6662  0.3752
35004TIP3    H2 5895   0.986   6.515   6.487  0.2679 -1.5609  0.3084
35005TIP3   OH2 5896   9.650   2.662   5.342  0.5540  0.3409  0.1193
35005TIP3    H1 5897   9.615   2.602   5.407  0.1710 -2.1462 -2.1971
35005TIP3    H2 5898   9.587   2.734   5.339 -0.6794 -0.6656  0.8655
35006TIP3   OH2 5899   8.905   3.461   8.434 -0.5381  0.1162 -0.2831
35006TIP3    H1 5900   8.936   3.525   8.371 -0.8969  3.0705  2.2777
35006TIP3    H2 5901   8.985   3.422   8.470 -0.2630 -0.0347 -1.0476
35007TIP3   OH2 5902  10.430  10.535   2.607 -0.2014  0.6350 -0.1985
35007TIP3    H1 5903  10.461  10.446   2.588 -0.5571  0.8423 -1.8919
35007TIP3    H2 5904  10.500  10.592   2.575 -1.4546  1.0429 -2.4174
35008TIP3   OH2 5905  10.716   4.804   9.218 -0.5049  0.5266  0.4651
35008TIP3    H1 5906  10.801   4.845   9.201 -1.1377  1.5078 -0.3868
35008TIP3    H2 5907  10.730   4.712   9.195  0.9433  0.1713  2.4498
35009TIP3   OH2 5908   7.501   7.625   0.761  0.3223  0.1215 -0.0897
35009TIP3    H1 5909   7.576   7.661   0.809  1.4360 -1.0496 -0.8622
35009TIP3    H2 5910   7.541   7.565   0.697 -1.3014 -0.8163 -0.2732
35010TIP3   OH2 5911   6.895   5.756   0.767 -0.8280  0.1174  1.0731
35010TIP3    H1 5912   6.899   5.810   0.846  0.1296  0.2830  0.9187
35010TIP3    H2 5913   6.952   5.801   0.704  0.2357 -1.2131  1.0392
35011TIP3   OH2 5914   6.614   1.000   7.156  0.0911  0.0303 -0.6331
35011TIP3    H1 5915   6.613   1.037   7.067  0.0729  2.6961  0.3917
35011TIP3    H2 5916   6.678   1.054   7.203  0.8784 -2.0047  0.7434
35012TIP3   OH2 5917   2.291  10.130   5.431 -0.0848 -0.4108  0.5040
35012TIP3    H1 5918   2.352  10.166   5.366  0.6258 -0.9849  0.8400
35012TIP3    H2 5919   2.326  10.159   5.515 -1.6602  1.3252  0.6099
35013TIP3   OH2 5920   9.801   7.513   4.095 -0.0317 -0.2484 -0.2249
35013TIP3    H1 5921   9.806   7.445   4.162 -0.8194 -1.2435 -1.1309
35013TIP3    H2 5922   9.851   7.477   4.021 -1.2369 -0.2880 -1.0533
35014TIP3   OH2 5923   6.279   1.096   5.050  0.1055  0.9787 -0.1199
35014TIP3    H1 5924   6.259   1.179   5.008 -0.8736  1.1245  0.5990
35014TIP3    H2 5925   6.375   1.096   5.059  0.2865  1.1859 -1.7797
35015TIP3   OH2 5926   6.042   6.071   6.440 -0.4340  0.3808  0.0579
35015TIP3    H1 5927   5.953   6.096   6.466 -0.8965  1.4776 -2.3003
35015TIP3    H2 5928   6.031   6.025   6.356  1.0279 -2.0611  1.1046
35016TIP3   OH2 5929   5.552   6.300   6.036 -0.0515  0.4435 -0.4003
35016TIP3    H1 5930   5.609   6.276   5.963 -0.7111 -0.6214 -0.5882
35016TIP3    H2 5931   5.477   6.343   5.995  0.3085  1.2744 -0.2059
35017TIP3   OH2 5932   3.765   5.945   8.704 -0.3651  0.3735  0.6291
35017TIP3    H1 5933   3.688   5.960   8.758 -1.5821 -1.7017 -0.4445
35017TIP3    H2 5934   3.826   6.015   8.729 -2.9439  2.7275  0.7791
35018TIP3   OH2 5935   7.408   0.485  10.631 -0.2689 -0.3935 -0.2000
35018TIP3    H1 5936   7.445   0.505  10.545  1.1213 -2.2157 -0.0769
35018TIP3    H2 5937   7.318   0.457  10.612 -0.7991  1.5242 -0.7679
35019TIP3   OH2 5938   0.579   6.333   2.668  0.0840  0.4072 -0.2377
35019TIP3    H1 5939   0.606   6.353   2.579 -2.1166 -2.0815 -1.6002
35019TIP3    H2 5940   0.536   6.414   2.698 -1.5163  0.4892 -2.4909
35020TIP3   OH2 5941   3.543   0.647   4.887 -0.0721  0.0539  0.0813
35020TIP3    H1 5942   3.503   0.631   4.972 -0.2920 -0.2951 -0.0850
35020TIP3    H2 5943   3.619   0.701   4.905  0.0535 -0.2744  0.5312
35021TIP3   OH2 5944   2.048   1.588   2.579 -0.1236 -0.3051 -0.6512
35021TIP3    H1 5945   1.956   1.563   2.568 -0.1590  0.4184 -2.1577
35021TIP3    H2 5946   2.096   1.506   2.566 -0.4604 -0.3427 -1.7277
35022TIP3   OH2 5947   1.110   9.486   9.712 -0.1938  0.4048 -0.7674
35022TIP3    H1 5948   1.144   9.474   9.623  0.8727  1.3160 -0.4968
35022TIP3    H2 5949   1.188   9.503   9.765 -0.8505  0.1361  0.3027
35023TIP3   OH2 5950  10.214   9.434   9.211 -0.3919 -0.5053  0.1860
35023TIP3    H1 5951  10.282   9.492   9.176  0.9550 -1.2318  1.4932
35023TIP3    H2 5952  10.166   9.404   9.134 -0.8581  1.9656 -0.5878
35024TIP3   OH2 5953   0.570   0.911   3.276  0.3265 -0.2204 -0.3186
35024TIP3    H1 5954   0.478   0.890   3.292  0.1690  0.2369 -0.6177
35024TIP3    H2 5955   0.579   1.004   3.297  0.7757 -0.3188 -0.0595
35025TIP3   OH2 5956   0.578   7.248   3.266 -0.1310 -0.0012 -1.4054
35025TIP3    H1 5957   0.596   7.158   3.241  0.4331  0.0643 -1.2405
35025TIP3    H2 5958   0.653   7.298   3.233 -0.0023  0.2780 -0.7081
35026TIP3   OH2 5959  10.056   9.485   4.429  0.2450  0.7696 -0.2521
35026TIP3    H1 5960  10.007   9.508   4.508  0.0368  1.0225 -0.4550
35026TIP3    H2 5961  10.060   9.566   4.378  1.8912  1.0855  0.3009
35027TIP3   OH2 5962   9.345   7.362   5.203  0.1071  0.5416 -0.1784
35027TIP3    H1 5963   9.302   7.392   5.283  0.8123 -0.6346  0.6705
35027TIP3    H2 5964   9.275   7.319   5.153  0.1623 -1.0772  1.0500
35028TIP3   OH2 5965   5.416  10.058   3.798  0.3890  0.7092 -0.0698
35028TIP3    H1 5966   5.432  10.139   3.845 -0.7195  1.1483 -0.4072
35028TIP3    H2 5967   5.473  10.062   3.721  0.9898  0.7407  0.3686
35029TIP3   OH2 5968   6.096   2.568   3.809 -0.1537 -0.2983 -0.1235
35029TIP3    H1 5969   6.041   2.515   3.866 -1.1412 -1.6654 -2.2208
35029TIP3    H2 5970   6.086   2.529   3.722  0.6692  2.1265 -1.4219
35030TIP3   OH2 5971   5.608  10.555   5.694  0.3921  0.2645  0.2926
35030TIP3    H1 5972   5.566  10.641   5.693  1.1588  0.6460 -1.2706
35030TIP3    H2 5973   5.634  10.540   5.603 -1.4064 -2.4543  0.1312
35031TIP3   OH2 5974  10.401   9.210   1.959  0.4395  0.0152 -0.2043
35031TIP3    H1 5975  10.429   9.185   1.871  2.0603 -0.3061  0.3627
35031TIP3    H2 5976  10.397   9.128   2.008 -4.0940 -0.3739 -0.7983
35032TIP3   OH2 5977   5.434   9.537   6.843  0.1075 -0.3070  0.4105
35032TIP3    H1 5978   5.351   9.490   6.840 -1.1349  1.7500 -0.2390
35032TIP3    H2 5979   5.484   9.503   6.769 -0.3034 -1.3265  0.5943
35033TIP3   OH2 5980   6.948  10.030   7.013  0.1736 -0.4608  0.4494
35033TIP3    H1 5981   6.973  10.100   6.952  1.3510  0.6009  2.0747
35033TIP3    H2 5982   6.893  10.074   7.079  1.5868 -0.8392  1.9371
35034TIP3   OH2 5983   1.157  10.367   2.909  0.2591 -0.6835 -0.5220
35034TIP3    H1 5984   1.146  10.404   2.821  1.3930  2.0918  0.4046
35034TIP3    H2 5985   1.249  10.340   2.912  0.4026 -0.1473  0.0039
35035TIP3   OH2 5986   4.540   5.246   9.533 -0.7090  0.4492  0.4221
35035TIP3    H1 5987   4.610   5.208   9.586 -0.7859  1.4361  1.2543
35035TIP3    H2 5988   4.549   5.341   9.544 -1.2300  0.6501 -0.6906
35036TIP3   OH2 5989   2.614   0.469   9.957  0.4633 -0.6133  0.4085
35036TIP3    H1 5990   2.544   0.423  10.004  0.3041 -0.7419  0.0463
35036TIP3    H2 5991   2.593   0.457   9.864 -0.0607  0.9356  0.2990
35037TIP3   OH2 5992   7.810   3.897   0.424  0.2353 -0.2607  0.6496
35037TIP3    H1 5993   7.732   3.842   0.417 -0.4260  0.6768  0.4419
35037TIP3    H2 5994   7.826   3.902   0.518 -0.3569  0.0656  0.7428
35038TIP3   OH2 5995   2.925   6.834   6.096  0.0543 -0.1736 -0.4922
35038TIP3    H1 5996   3.003   6.781   6.077  0.2553 -0.6142  1.3267
35038TIP3    H2 5997   2.852   6.779   6.068  0.3509 -0.2687 -1.0946
35039TIP3   OH2 5998   1.472   4.588   3.941  0.3092 -0.2641  0.6345
35039TIP3    H1 5999   1.392   4.546   3.973 -0.0487 -0.3420 -0.3050
35039TIP3    H2 6000   1.449   4.617   3.852  2.1005 -2.5912 -0.7175
35040TIP3   OH2 6001   8.077   9.017   9.147  0.0125  0.5203  0.6400
35040TIP3    H1 6002   8.049   9.104   9.174 -1.5803 -0.1102  1.1519
35040TIP3    H2 6003   8.029   9.001   9.065 -0.6957 -0.3391  1.1995
35041TIP3   OH2 6004   6.186  10.407   8.689  0.3543 -0.3644  0.1482
35041TIP3    H1 6005   6.194  10.492   8.646 -2.1717  0.0734  0.3758
35041TIP3    H2 6006   6.187  10.343   8.618 -1.0922  0.1437 -0.3499
35042TIP3   OH2 6007  10.579   6.889   1.787  0.0682  0.0366  0.5838
35042TIP3    H1 6008  10.668   6.864   1.762  1.0251  0.4510  3.2441
35042TIP3    H2 6009  10.589   6.976   1.825 -1.5139  0.1197  0.8638
35043TIP3   OH2 6010   9.944  10.032   9.873 -0.0364  0.4598  0.0031
35043TIP3    H1 6011  10.038  10.019   9.880 -0.3009 -1.5698  0.2915
35043TIP3    H2 6012   9.916  10.054   9.962  0.0553  0.2849  0.0747
35044TIP3   OH2 6013   1.786   0.529   6.515  0.6427 -0.2415  0.6907
35044TIP3    H1 6014   1.722   0.457   6.513  1.2672 -0.8459 -1.7412
35044TIP3    H2 6015   1.733   0.608   6.509 -0.0014 -0.7732 -3.0347
35045TIP3   OH2 6016   5.756   8.294  10.399 -0.2141 -0.0738 -0.2880
35045TIP3    H1 6017   5.768   8.382  10.437 -0.4627 -0.0110 -0.3509
35045TIP3    H2 6018   5.842   8.253  10.407 -0.3523 -0.2019  0.6933
35046TIP3   OH2 6019  10.185   2.872   1.788 -0.5514 -0.0370 -0.2365
35046TIP3    H1 6020  10.214   2.785   1.814  0.4693  0.4788  0.4327
35046TIP3    H2 6021  10.089   2.869   1.795 -0.5518 -1.2211 -0.6523
35047TIP3   OH2 6022   7.447   5.909   3.581  0.3800 -0.3276  0.4093
35047TIP3    H1 6023   7.525   5.860   3.555  0.5923  0.1659  0.1127
35047TIP3    H2 6024   7.445   5.985   3.523  0.1354  0.0939  0.9597
35048TIP3   OH2 6025   0.805  10.227   4.714 -0.2740 -0.0701 -0.1070
35048TIP3    H1 6026   0.795  10.153   4.774  0.9546 -0.0448  0.1772
35048TIP3    H2 6027   0.717  10.246   4.682 -0.6510 -1.4081  0.1042
35049TIP3   OH2 6028  10.468   9.104   9.415  0.4208  0.1676  0.2331
35049TIP3    H1 6029  10.428   9.019   9.433  1.0833 -0.2852 -0.3597
35049TIP3    H2 6030  10.401   9.168   9.439 -1.5270 -0.5683 -2.7438
35050TIP3   OH2 6031   9.998   9.587   7.757 -0.5917 -0.5264 -0.0968
35050TIP3    H1 6032   9.940   9.656   7.726 -2.2068 -1.9739 -0.4652
35050TIP3    H2 6033   9.969   9.569   7.846  0.3214 -0.2347  0.2707
35051TIP3   OH2 6034   8.301   8.557   7.133  0.3701  0.0028 -0.0786
35051TIP3    H1 6035   8.232   8.506   7.174  1.0150  0.5642  1.7803
35051TIP3    H2 6036   8.326   8.622   7.199  3.5628 -0.9895 -0.1673
35052TIP3   OH2 6037   3.341   6.020   5.265  0.7105  0.3244 -0.0793
35052TIP3    H1 6038   3.430   6.039   5.237  0.1968 -0.8481 -2.8914
35052TIP3    H2 6039   3.289   6.093   5.231  0.4320  0.3260  0.3488
35053TIP3   OH2 6040   9.790   1.867   3.828 -0.2983 -0.2534 -0.0864
35053TIP3    H1 6041   9.744   1.908   3.902  0.1176 -0.0204  0.0457
35053TIP3    H2 6042   9.759   1.777   3.828  1.7616 -1.0648  2.1126
35054TIP3   OH2 6043  10.757   4.380   6.308  0.3569  0.1017  0.6021
35054TIP3    H1 6044  10.780   4.470   6.286  0.2272 -0.4704 -2.2816
35054TIP3    H2 6045  10.825   4.352   6.369  0.8728  1.8680  0.8880
35055TIP3   OH2 6046   7.766   6.849   8.902 -0.2625  0.1393  0.6645
35055TIP3    H1 6047   7.719   6.921   8.860  0.3300  1.0806  1.5803
35055TIP3    H2 6048   7.837   6.828   8.842 -1.0981 -0.4593 -0.1426
35056TIP3   OH2 6049  10.561   8.936   0.899 -0.1134  0.0721 -0.3480
35056TIP3    H1 6050  10.601   8.883   0.968 -0.5489 -0.2812 -0.3651
35056TIP3    H2 6051  10.595   9.025   0.915  0.2498 -0.1164 -0.0394
35057TIP3   OH2 6052   7.684   2.081   5.358  0.5651  0.0843  1.0254
35057TIP3    H1 6053   7.614   2.018   5.375  1.0812 -0.3488  1.5864
35057TIP3    H2 6054   7.744   2.035   5.299 -0.3557  0.9851 -0.7123
35058TIP3   OH2 6055   0.670   4.988   3.816  0.1465  0.0432 -0.4177
35058TIP3    H1 6056   0.602   5.055   3.821 -0.7595 -0.8886  0.1432
35058TIP3    H2 6057   0.627   4.908   3.846  1.1377 -0.8506 -1.3007
35059TIP3   OH2 6058   0.142   0.742   8.854  0.0336  0.1935  0.8302
35059TIP3    H1 6059   0.080   0.807   8.824 -1.0899 -1.1964 -0.0089
35059TIP3    H2 6060   0.220   0.755   8.800 -0.4387  0.4142  0.1886
35060TIP3   OH2 6061   7.226   4.010  10.691  0.6627  0.1157 -0.6712
35060TIP3    H1 6062   7.178   4.001  10.608  2.0089 -1.5488 -1.3143
35060TIP3    H2 6063   7.192   3.940  10.746 -2.3273  2.8867  1.3997
35061TIP3   OH2 6064   1.229   1.049   8.561  0.8655 -0.0611 -0.6021
35061TIP3    H1 6065   1.196   0.983   8.499  0.6830  0.9035 -1.5524
35061TIP3    H2 6066   1.207   1.013   8.647  0.6753 -1.1946 -1.0952
35062TIP3   OH2 6067   3.038   4.511   4.511 -0.5738  1.0234 -0.3279
35062TIP3    H1 6068   3.121   4.535   4.552 -0.3492 -0.1552 -0.0613
35062TIP3    H2 6069   2.983   4.589   4.519 -0.3805  0.9918  1.7844
35063TIP3   OH2 6070   4.301   0.088   9.681  0.1913 -0.0145  0.0666
35063TIP3    H1 6071   4.244   0.165   9.684  1.2936  0.8102  2.0981
35063TIP3    H2 6072   4.305   0.058   9.772  1.8139 -0.9353 -0.2715
35064TIP3   OH2 6073   1.809   3.345  10.023  0.1189 -0.4881 -0.0852
35064TIP3    H1 6074   1.848   3.278  10.078 -1.0982 -0.7468  0.4953
35064TIP3    H2 6075   1.724   3.309   9.998 -1.1985  1.3859  1.4146
35065TIP3   OH2 6076   3.430   4.060   1.915  0.3326  0.1054 -0.3767
35065TIP3    H1 6077   3.444   4.095   2.003  1.4801  0.8043 -0.8133
35065TIP3    H2 6078   3.439   3.965   1.925 -0.4244  0.1089  0.4039
35066TIP3   OH2 6079   6.648  10.062   6.210  0.1640  0.5295 -0.0224
35066TIP3    H1 6080   6.609   9.991   6.260 -0.5935 -0.9114 -2.5125
35066TIP3    H2 6081   6.577  10.097   6.157 -0.0001  4.5536  2.3949
35067TIP3   OH2 6082  10.283   7.631   4.532  0.8785  0.9348 -0.3829
35067TIP3    H1 6083  10.342   7.614   4.459  0.5632  0.5669 -0.5562
35067TIP3    H2 6084  10.340   7.634   4.609  0.9201 -1.6112 -0.2362
35068TIP3   OH2 6085   5.776   8.582   7.048  0.1372 -0.7808 -0.3740
35068TIP3    H1 6086   5.718   8.530   7.104 -1.3317 -0.6144 -1.6926
35068TIP3    H2 6087   5.809   8.651   7.106  0.5587 -1.9754  0.8855
35069TIP3   OH2 6088   6.558   8.280   9.350  0.3797 -0.1438  0.4467
35069TIP3    H1 6089   6.576   8.271   9.257 -0.0485 -1.3338  0.4631
35069TIP3    H2 6090   6.644   8.293   9.390  0.5193  0.9088 -0.1449
35070TIP3   OH2 6091   7.652   2.417   4.479  0.4586 -0.1887  0.1621
35070TIP3    H1 6092   7.678   2.411   4.388 -1.8789 -1.5068 -0.5038
35070TIP3    H2 6093   7.734   2.427   4.527  1.8988 -1.2272 -1.9429
35071TIP3   OH2 6094   8.480   1.850   0.642  0.5776  0.7689  0.0631
35071TIP3    H1 6095   8.567   1.812   0.624 -0.2685 -0.9266 -0.6734
35071TIP3    H2 6096   8.446   1.798   0.715  0.7708  2.4630  1.4230
35072TIP3   OH2 6097   2.543   5.264   4.622 -0.2960  0.8763  0.6525
35072TIP3    H1 6098   2.468   5.233   4.673 -1.1916  0.4304 -0.8659
35072TIP3    H2 6099   2.543   5.359   4.636 -0.2159  0.7227  1.8432
35073TIP3   OH2 6100   0.161   6.362   0.565  0.1299 -0.1625 -0.1534
35073TIP3    H1 6101   0.072   6.361   0.529  0.1372 -0.9651 -0.1691
35073TIP3    H2 6102   0.154   6.416   0.643  0.0215  1.2333 -1.0989
35074TIP3   OH2 6103   2.227  10.158   9.265 -0.2469  0.4903  0.0188
35074TIP3    H1 6104   2.257  10.114   9.185 -2.1333 -0.4069 -0.2351
35074TIP3    H2 6105   2.197  10.244   9.234 -0.2932  0.4198 -0.1352
35075TIP3   OH2 6106   2.943   3.191   7.195 -0.5945 -0.5551  0.0913
35075TIP3    H1 6107   2.985   3.276   7.204 -0.8577 -0.2859 -1.0696
35075TIP3    H2 6108   2.982   3.152   7.116 -2.3708 -0.3480 -0.9538
35076TIP3   OH2 6109  10.010   6.539  10.445  0.6215 -0.1610  0.1650
35076TIP3    H1 6110   9.965   6.456  10.462 -0.1334  0.2788  0.3427
35076TIP3    H2 6111   9.954   6.605  10.484  0.5726  0.5545 -1.0943
35077TIP3   OH2 6112   4.229   4.920   5.476 -0.3417  0.2795  0.6779
35077TIP3    H1 6113   4.219   4.890   5.385 -0.6704 -0.0149  0.8085
35077TIP3    H2 6114   4.151   4.972   5.493 -0.0557  0.7217  0.6449
35078TIP3   OH2 6115   7.397  10.056   9.993  0.6869  0.4057  0.4992
35078TIP3    H1 6116   7.358  10.139   9.966  3.2067  1.1993 -1.1350
35078TIP3    H2 6117   7.457  10.034   9.921  1.1722 -2.0877  1.5708
35079TIP3   OH2 6118   7.822   4.615   5.818  0.8472  0.1647 -0.0498
35079TIP3    H1 6119   7.742   4.587   5.773  1.2405  0.0973 -0.7225
35079TIP3    H2 6120   7.836   4.705   5.787 -0.6959  1.3943  2.4885
35080TIP3   OH2 6121   6.507   2.523   2.236 -0.0729 -0.6572 -0.4115
35080TIP3    H1 6122   6.580   2.556   2.183  0.2446 -0.4597  0.1354
35080TIP3    H2 6123   6.550   2.476   2.308 -0.3883  1.4057  1.2169
35081TIP3   OH2 6124   5.428   6.728   8.368 -0.2254 -0.2295  0.1181
35081TIP3    H1 6125   5.352   6.674   8.390 -2.8918  2.8260 -0.9363
35081TIP3    H2 6126   5.456   6.765   8.451  0.3794 -1.5762  0.5530
35082TIP3   OH2 6127   2.096   8.288   4.026 -0.0622 -0.3516 -0.2575
35082TIP3    H1 6128   2.090   8.325   4.114  0.8458  0.1970 -0.4100
35082TIP3    H2 6129   2.027   8.223   4.023  1.4345 -2.2016  1.7550
35083TIP3   OH2 6130  10.321   1.502   7.337  0.3239  0.1805  0.1606
35083TIP3    H1 6131  10.301   1.477   7.427  0.8023 -2.1982 -0.3296
35083TIP3    H2 6132  10.257   1.456   7.284  2.4205 -1.7086 -0.9272
35084TIP3   OH2 6133   4.055   4.182   0.186 -0.2482  0.7381 -0.3353
35084TIP3    H1 6134   4.005   4.264   0.186  0.5488  1.2787  1.3701
35084TIP3    H2 6135   3.992   4.115   0.211 -0.7340  0.9393 -0.9845
35085TIP3   OH2 6136   3.408   1.885   9.730 -0.6700 -0.2826  0.6140
35085TIP3    H1 6137   3.416   1.917   9.820 -0.0716 -0.4238  0.6190
35085TIP3    H2 6138   3.314   1.883   9.713 -0.7586  0.4112  0.9961
35086TIP3   OH2 6139  10.801   8.419  10.832 -0.2250  0.0479  0.2795
35086TIP3    H1 6140  10.857   8.355  10.789 -1.0780 -0.0492 -0.7233
35086TIP3    H2 6141  10.859   8.495  10.846  0.2943 -0.2387 -0.2517
35087TIP3   OH2 6142   8.504   0.484   4.896 -0.1378  0.3773 -0.3549
35087TIP3    H1 6143   8.546   0.546   4.837 -1.8766 -0.0541 -2.1588
35087TIP3    H2 6144   8.550   0.401   4.881 -0.4323  0.3213 -0.9925
35088TIP3   OH2 6145   4.013   1.616   4.969  0.2010 -0.6138  0.4735
35088TIP3    H1 6146   3.997   1.603   4.876  0.8224  0.6124  0.1659
35088TIP3    H2 6147   3.986   1.707   4.985 -0.8654 -1.1264  1.7207
35089TIP3   OH2 6148  10.632   7.150   4.699  0.1353 -0.1188  0.4514
35089TIP3    H1 6149  10.600   7.140   4.789  1.0923  4.5713  1.5374
35089TIP3    H2 6150  10.727   7.137   4.706  0.0476 -1.2896 -0.2624
35090TIP3   OH2 6151   1.494   7.367   8.677 -0.3026 -0.0187  0.2430
35090TIP3    H1 6152   1.554   7.416   8.733 -0.8640 -0.8609  1.6545
35090TIP3    H2 6153   1.492   7.279   8.716 -0.4187 -0.7612 -1.3536
35091TIP3   OH2 6154   5.661   3.163   9.921  0.2743  0.4070  0.3510
35091TIP3    H1 6155   5.653   3.168   9.826 -0.3233  0.9468  0.4185
35091TIP3    H2 6156   5.742   3.114   9.937  0.5017  0.5265 -0.4332
35092TIP3   OH2 6157   7.550   7.273   9.468  0.2588  0.3404  0.5022
35092TIP3    H1 6158   7.590   7.188   9.451  1.2089  0.6359  1.1948
35092TIP3    H2 6159   7.557   7.320   9.386 -1.5180 -0.7151 -0.3114
35093TIP3   OH2 6160   6.521   7.852   4.307 -0.4864 -0.0802  0.0252
35093TIP3    H1 6161   6.435   7.827   4.342 -0.5572  1.1006  0.7571
35093TIP3    H2 6162   6.511   7.945   4.285  0.9492  0.4063  1.2649
35094TIP3   OH2 6163   2.872   4.570   8.544  0.0845 -0.9203  0.4239
35094TIP3    H1 6164   2.889   4.482   8.511  0.3444 -0.5819 -0.3642
35094TIP3    H2 6165   2.852   4.557   8.637  1.1919 -1.6963  0.5732
35095TIP3   OH2 6166   8.735   1.793   0.566  0.5454  0.1581 -0.0249
35095TIP3    H1 6167   8.790   1.789   0.644 -0.1469  1.7111  0.5805
35095TIP3    H2 6168   8.792   1.828   0.497  0.7701  0.1379  0.1526
35096TIP3   OH2 6169   5.681   6.815   0.353  0.7525 -0.5507 -0.6167
35096TIP3    H1 6170   5.631   6.735   0.335  0.2608 -0.6491  1.0525
35096TIP3    H2 6171   5.706   6.847   0.266 -0.1035 -1.8359 -1.3770
35097TIP3   OH2 6172  10.253   8.424   8.903 -0.5239 -0.7967  0.5299
35097TIP3    H1 6173  10.161   8.447   8.890 -0.0760  0.7342 -0.1384
35097TIP3    H2 6174  10.285   8.397   8.817 -0.2189 -0.8409  0.6530
35098TIP3   OH2 6175   8.891   2.507   6.109  0.3187  0.1206  0.4837
35098TIP3    H1 6176   8.819   2.471   6.058 -1.5424  1.3808  2.1138
35098TIP3    H2 6177   8.906   2.594   6.072  0.8176 -0.0046  0.3726
35099TIP3   OH2 6178   4.814   1.709   0.688  0.2765 -0.1418  0.1444
35099TIP3    H1 6179   4.901   1.674   0.705 -0.6987 -2.0330  1.5694
35099TIP3    H2 6180   4.794   1.680   0.598  0.7285 -0.5285  0.1668
35100TIP3   OH2 6181  10.020   4.768   4.492  0.0911  0.5647 -0.2966
35100TIP3    H1 6182   9.941   4.715   4.486  0.8504 -0.4410 -3.1855
35100TIP3    H2 6183   9.995   4.853   4.457  0.2676  0.2058 -1.3371
35101TIP3   OH2 6184   3.770   9.753   7.365  0.3509 -0.1842  0.4450
35101TIP3    H1 6185   3.807   9.673   7.328  0.0850 -0.3487  0.5309
35101TIP3    H2 6186   3.681   9.757   7.330 -0.5847 -1.3316  2.4972
35102TIP3   OH2 6187   2.540   0.819   7.266  0.3500 -0.2979 -0.0559
35102TIP3    H1 6188   2.521   0.758   7.195  0.4632 -0.7528  0.3054
35102TIP3    H2 6189   2.513   0.774   7.345 -0.2693  0.4180  0.1539
35103TIP3   OH2 6190   3.288   5.612   4.471  0.1098  0.2418  0.1579
35103TIP3    H1 6191   3.281   5.529   4.517 -1.6367 -0.7581 -1.7720
35103TIP3    H2 6192   3.333   5.590   4.389  0.9573  1.5156  0.2468
35104TIP3   OH2 6193   9.946   9.101   2.245  0.0342  0.1303 -0.0062
35104TIP3    H1 6194   9.965   9.195   2.243  1.3585 -0.0763  1.0687
35104TIP3    H2 6195  10.031   9.060   2.262 -0.9750 -1.0346  2.8771
35105TIP3   OH2 6196  10.391   9.158   9.873  0.2638  0.0039 -0.7118
35105TIP3    H1 6197  10.468   9.111   9.841 -0.4091 -0.3692 -1.8312
35105TIP3    H2 6198  10.365   9.215   9.801 -0.7418 -0.1716 -0.5113
35106TIP3   OH2 6199   8.668   0.609   9.470  0.0991  0.2787 -0.1233
35106TIP3    H1 6200   8.735   0.634   9.534 -1.6770  0.6957  1.6464
35106TIP3    H2 6201   8.585   0.633   9.511 -1.1816 -0.4565 -2.1485
35107TIP3   OH2 6202   4.862  10.836   2.058 -0.1679  0.3083  0.3095
35107TIP3    H1 6203   4.824  10.749   2.046 -2.2941  0.9608  1.6448
35107TIP3    H2 6204   4.942  10.821   2.108  1.3138 -1.1063 -2.3004
35108TIP3   OH2 6205   9.537   0.237   4.111  0.2789 -0.0880 -0.3511
35108TIP3    H1 6206   9.577   0.155   4.139 -1.5841 -1.0768 -0.4152
35108TIP3    H2 6207   9.592   0.267   4.038  1.3206 -0.9653  0.0452
35109TIP3   OH2 6208   8.082   5.217   9.727 -0.5416 -0.0571 -0.0623
35109TIP3    H1 6209   8.099   5.125   9.710 -1.0475 -0.3269  0.8079
35109TIP3    H2 6210   8.000   5.218   9.777 -1.3686  0.9768 -1.3593
35110TIP3   OH2 6211  10.284   1.552   9.505  0.3615  0.0234 -0.5884
35110TIP3    H1 6212  10.198   1.579   9.537  0.1292 -1.0841 -0.2353
35110TIP3    H2 6213  10.279   1.561   9.410 -0.0363  0.2582 -0.5463
35111TIP3   OH2 6214   0.906   1.786   2.806 -0.1182  0.2770  0.3535
35111TIP3    H1 6215   0.964   1.757   2.736 -0.6805 -0.3655  0.1391
35111TIP3    H2 6216   0.852   1.709   2.826 -1.9450  1.2652 -0.5265
35112TIP3   OH2 6217   4.560   9.253   1.696  0.4350  0.0109  0.7021
35112TIP3    H1 6218   4.581   9.273   1.605  2.4812  0.5730  1.2446
35112TIP3    H2 6219   4.629   9.194   1.725 -1.0104 -1.3796  1.5031
35113TIP3   OH2 6220   6.211   1.235   2.002  0.1218  0.1301 -0.3921
35113TIP3    H1 6221   6.291   1.254   1.952  0.3825  2.0808  0.6517
35113TIP3    H2 6222   6.242   1.191   2.081  0.2558  1.2513  0.2056
35114TIP3   OH2 6223   1.164  10.173   4.057 -0.3418  0.2125 -0.0997
35114TIP3    H1 6224   1.087  10.122   4.029 -0.1597 -0.2388  0.2068
35114TIP3    H2 6225   1.194  10.129   4.137  1.0409 -0.4346 -0.9460
35115TIP3   OH2 6226   9.013   1.691   4.242  0.6853  0.9141  0.1667
35115TIP3    H1 6227   9.038   1.601   4.261 -3.1598 -0.4660 -0.3465
35115TIP3    H2 6228   8.996   1.731   4.327 -2.4659 -0.6068  0.3913
35116TIP3   OH2 6229   4.612   7.602   3.818 -0.1869 -0.3474  0.2240
35116TIP3    H1 6230   4.595   7.520   3.772  0.5415  0.2906 -1.2354
35116TIP3    H2 6231   4.540   7.609   3.881 -0.4720 -1.9088  0.1193
35117TIP3   OH2 6232   4.830   3.468   3.483  0.1697  0.3560 -0.2802
35117TIP3    H1 6233   4.903   3.421   3.444  1.5986  0.6161  1.9092
35117TIP3    H2 6234   4.799   3.411   3.554 -0.1773  1.3048  0.3524
35118TIP3   OH2 6235   7.433   4.388   2.974  0.0186  0.2938  0.2160
35118TIP3    H1 6236   7.499   4.394   2.905 -0.8135 -1.3880 -0.7871
35118TIP3    H2 6237   7.359   4.344   2.933 -1.1031  0.6196  1.7821
35119TIP3   OH2 6238   8.048   2.298   7.100 -0.1828 -0.0399  0.0712
35119TIP3    H1 6239   8.029   2.205   7.112 -0.6902 -0.1941 -1.6898
35119TIP3    H2 6240   8.117   2.317   7.164 -1.2457 -1.1923  1.6440
35120TIP3   OH2 6241   4.615   7.112   8.978 -0.1826  0.3896 -0.0065
35120TIP3    H1 6242   4.583   7.124   9.067  1.0490  0.6029  0.4218
35120TIP3    H2 6243   4.634   7.201   8.947  0.4878  0.2323 -0.0555
35121TIP3   OH2 6244   1.026   8.037   6.127 -0.0296 -0.4979  0.1352
35121TIP3    H1 6245   1.057   8.059   6.215 -0.4498 -2.9221  0.9669
35121TIP3    H2 6246   1.100   8.058   6.070  0.5835  0.2833  1.1753
35122TIP3   OH2 6247   4.139   0.833   8.736  0.4990 -0.0733  0.7882
35122TIP3    H1 6248   4.087   0.801   8.662 -0.3220 -0.6591  1.5930
35122TIP3    H2 6249   4.206   0.887   8.697 -0.0148 -0.2589 -0.3796
35123TIP3   OH2 6250   5.055   6.995   8.176  0.6485  0.3034 -0.0642
35123TIP3    H1 6251   5.138   7.029   8.143  0.9789  0.1218  0.5553
35123TIP3    H2 6252   5.021   7.066   8.230  0.3539  0.4122 -0.3903
35124TIP3   OH2 6253   5.049   0.081   8.352  0.1922 -0.6634  0.3105
35124TIP3    H1 6254   5.115   0.013   8.336  0.9545 -0.0480  0.7809
35124TIP3    H2 6255   5.098   0.163   8.354 -0.7510 -0.0623 -0.4670
35125TIP3   OH2 6256   1.329   9.327   1.500  0.0854  0.0621  0.0285
35125TIP3    H1 6257   1.352   9.371   1.582 -1.3990  1.7048 -0.4006
35125TIP3    H2 6258   1.263   9.382   1.460 -1.4131 -2.2273 -0.8689
35126TIP3   OH2 6259   8.983   5.775   3.282 -0.2633  0.4880  0.1179
35126TIP3    H1 6260   9.077   5.791   3.271 -0.3750  0.6436 -0.6512
35126TIP3    H2 6261   8.962   5.709   3.216 -0.4600 -0.4764  1.1032
35127TIP3   OH2 6262   1.229   8.337   7.601 -0.4902  0.2774 -0.4726
35127TIP3    H1 6263   1.301   8.275   7.589  1.0623  1.3835  2.1633
35127TIP3    H2 6264   1.211   8.371   7.513  2.0067 -0.2802 -1.2757
35128TIP3   OH2 6265   6.720  10.007   2.563 -0.0689 -0.2672  0.3933
35128TIP3    H1 6266   6.652  10.032   2.500  0.1956 -1.6747 -0.4956
35128TIP3    H2 6267   6.784  10.079   2.558 -0.3632 -0.0529 -0.4959
35129TIP3   OH2 6268   0.301   8.767   3.871  0.0483 -0.0924 -0.1162
35129TIP3    H1 6269   0.275   8.771   3.779 -3.3900  0.1957  0.7234
35129TIP3    H2 6270   0.356   8.688   3.877 -0.4715 -0.6804 -2.2294
35130TIP3   OH2 6271   9.233   4.454   3.177  0.2415  0.6631 -0.9104
35130TIP3    H1 6272   9.195   4.391   3.116  0.3180 -0.0246 -0.2746
35130TIP3    H2 6273   9.205   4.423   3.263  0.9825  1.0167 -0.5279
35131TIP3   OH2 6274   0.344   7.387   3.575  0.4023  0.4870 -0.4751
35131TIP3    H1 6275   0.361   7.312   3.631  1.4989 -0.3305 -1.8425
35131TIP3    H2 6276   0.254   7.412   3.594 -0.2287 -1.6029 -0.4680
35132TIP3   OH2 6277   9.965   7.923   7.958 -0.3856  0.1417  0.1192
35132TIP3    H1 6278   9.969   7.930   7.862  0.6655 -1.1846  0.0378
35132TIP3    H2 6279  10.034   7.861   7.980  0.2282  1.3821  1.8721
35133TIP3   OH2 6280   5.774   0.041   3.224 -0.5793 -0.8789  0.0492
35133TIP3    H1 6281   5.767   0.055   3.130 -1.6136  0.0523  0.2397
35133TIP3    H2 6282   5.768  -0.054   3.235 -1.3116 -0.9421 -0.7720
35134TIP3   OH2 6283   3.060   6.159   7.629  0.0733 -0.1134  0.6350
35134TIP3    H1 6284   3.131   6.098   7.614 -0.8686 -0.6814 -2.1181
35134TIP3    H2 6285   3.052   6.165   7.724  1.4582 -2.7440  0.9852
35135TIP3   OH2 6286   0.837   5.136   4.004 -0.2245 -0.0163 -0.3123
35135TIP3    H1 6287   0.790   5.065   3.959 -1.2260  0.4183  0.0310
35135TIP3    H2 6288   0.843   5.106   4.095  1.1948 -0.5827 -0.5620
35136TIP3   OH2 6289   6.571   7.704   3.868  0.1545 -0.2993  0.3275
35136TIP3    H1 6290   6.480   7.699   3.895  0.5267  0.1804  1.7206
35136TIP3    H2 6291   6.612   7.764   3.930  1.4574 -0.6247 -0.1803
35137TIP3   OH2 6292   6.081   9.656   6.821  0.1903 -0.1285 -0.1121
35137TIP3    H1 6293   6.129   9.727   6.864  0.0671  1.9068 -3.0310
35137TIP3    H2 6294   6.074   9.588   6.888 -0.8605  3.0446  3.4108
35138TIP3   OH2 6295   8.875   7.258   1.278  0.0471  0.1879 -0.4005
35138TIP3    H1 6296   8.812   7.188   1.263 -0.0785 -0.0410  1.0707
35138TIP3    H2 6297   8.825   7.326   1.323  0.6472  0.3611  0.0144
35139TIP3   OH2 6298   3.826   2.747   2.339  0.0907  0.0486  0.0847
35139TIP3    H1 6299   3.835   2.690   2.416  1.7000 -1.3294 -1.0441
35139TIP3    H2 6300   3.737   2.782   2.346  0.3690  0.4579  2.8517
35140TIP3   OH2 6301   3.185  10.413  10.756 -0.3128  0.6903  0.4291
35140TIP3    H1 6302   3.109  10.461  10.786 -1.6097 -1.0647  0.1062
35140TIP3    H2 6303   3.153  10.360  10.683  0.8434 -1.1181  1.1530
35141TIP3   OH2 6304   5.425   4.548   1.562  0.6166 -0.5022  0.5162
35141TIP3    H1 6305   5.359   4.487   1.596  0.1576  0.2402  0.9821
35141TIP3    H2 6306   5.417   4.540   1.467 -0.0100 -0.5693  0.5711
35142TIP3   OH2 6307   2.827   3.274   9.687  0.1013 -0.0282 -0.5193
35142TIP3    H1 6308   2.874   3.277   9.603  0.9596  2.1059 -0.0360
35142TIP3    H2 6309   2.785   3.360   9.693 -0.1770 -0.2563  1.1080
35143TIP3   OH2 6310   8.129   6.559   4.387 -0.1381 -0.0250  0.6961
35143TIP3    H1 6311   8.096   6.577   4.476  0.7533 -1.5577  1.3742
35143TIP3    H2 6312   8.162   6.643   4.357 -0.1626  0.4620  1.9503
35144TIP3   OH2 6313   4.920   8.317   8.359  0.4255 -0.0438  0.2035
35144TIP3    H1 6314   4.874   8.348   8.280  0.0835  0.8220  0.7335
35144TIP3    H2 6315   4.922   8.222   8.348  0.7747  0.0858 -1.0665
35145TIP3   OH2 6316   0.520   6.709   6.609 -0.1798 -0.8248  0.4840
35145TIP3    H1 6317   0.609   6.692   6.641  1.3424  1.8600 -1.8924
35145TIP3    H2 6318   0.521   6.681   6.518 -1.3247  0.5071  0.0279
35146TIP3   OH2 6319   4.664   3.127   4.463  0.2318  0.4331  0.2093
35146TIP3    H1 6320   4.737   3.174   4.503  0.8468 -0.2564 -0.0945
35146TIP3    H2 6321   4.588   3.151   4.516  0.9017  0.1476  1.3200
35147TIP3   OH2 6322   7.135   9.456   8.198  0.4242 -0.3234 -0.3635
35147TIP3    H1 6323   7.105   9.459   8.289  0.6391 -0.6106 -0.2820
35147TIP3    H2 6324   7.230   9.448   8.204  0.3969 -0.8564 -0.6084
35148TIP3   OH2 6325   3.201   0.464   8.325 -0.2822  0.4351  0.3510
35148TIP3    H1 6326   3.141   0.433   8.256  1.4883  1.0566 -1.5603
35148TIP3    H2 6327   3.262   0.391   8.338  0.6160  1.0590 -0.2506
35149TIP3   OH2 6328   1.465   8.714   7.757  0.3151 -0.0796 -0.7043
35149TIP3    H1 6329   1.434   8.685   7.671 -0.1209  1.9160 -1.2766
35149TIP3    H2 6330   1.391   8.763   7.793  1.5826  1.8549 -0.6116
35150TIP3   OH2 6331   3.031   5.122   0.512  0.8289  0.2832  0.3363
35150TIP3    H1 6332   3.100   5.085   0.457  1.4725 -0.3446  1.5378
35150TIP3    H2 6333   3.071   5.197   0.555 -0.4459  2.5042 -2.0181
35151TIP3   OH2 6334   7.240   2.447   7.112  0.0528 -0.2116  0.8499
35151TIP3    H1 6335   7.314   2.507   7.124 -0.3501  0.3922  0.4315
35151TIP3    H2 6336   7.279   2.360   7.108  0.8464  0.1795 -0.3950
35152TIP3   OH2 6337   9.411   6.592  10.254  0.7261  0.0502  0.5335
35152TIP3    H1 6338   9.438   6.519  10.199 -1.6279  0.4138 -1.2821
35152TIP3    H2 6339   9.405   6.555  10.342  3.1485 -0.9279  0.3582
35153TIP3   OH2 6340   1.338   1.012   7.391  0.0865 -0.6847  0.0468
35153TIP3    H1 6341   1.349   0.923   7.358 -0.4329 -0.4132 -0.9069
35153TIP3    H2 6342   1.284   1.002   7.470  1.2895 -1.3367  0.8179
35154TIP3   OH2 6343   1.730   6.675   3.571  0.1628 -0.2281  0.4850
35154TIP3    H1 6344   1.654   6.729   3.595 -0.5054 -0.7512 -0.4251
35154TIP3    H2 6345   1.696   6.612   3.508  1.1977 -0.9646  0.6443
35155TIP3   OH2 6346   0.111   0.699   6.632 -0.5906  0.6516  0.6819
35155TIP3    H1 6347   0.142   0.789   6.641  0.5898  0.5455 -1.5565
35155TIP3    H2 6348   0.071   0.696   6.545 -0.3981 -1.0529  0.6237
35156TIP3   OH2 6349   1.072   5.272   7.776 -0.0069  0.1258  0.2434
35156TIP3    H1 6350   1.056   5.355   7.819  0.5484  1.4836 -2.0092
35156TIP3    H2 6351   1.155   5.284   7.730  0.6685 -2.0825  0.7389
35157TIP3   OH2 6352   2.842   1.796  10.085 -0.2101  0.1727 -0.1121
35157TIP3    H1 6353   2.875   1.886  10.080 -1.5779  0.6882 -0.1574
35157TIP3    H2 6354   2.900   1.746  10.028  0.8313  0.9342  0.2412
35158TIP3   OH2 6355   6.939   9.965   4.492  0.3367 -0.4937 -0.1601
35158TIP3    H1 6356   6.899   9.889   4.536  0.1252  0.4510  1.3641
35158TIP3    H2 6357   6.865  10.011   4.452  0.0761  0.3243  1.1983
35159TIP3   OH2 6358   8.730   8.894   9.402 -0.0471 -0.5699  0.6909
35159TIP3    H1 6359   8.730   8.808   9.442  0.8711 -0.9713 -0.1403
35159TIP3    H2 6360   8.801   8.891   9.338 -0.7260  0.4254 -0.1467
35160TIP3   OH2 6361   0.470   1.187   8.583 -0.3945 -0.0976  0.2511
35160TIP3    H1 6362   0.423   1.259   8.625  0.0588  0.2408  0.1882
35160TIP3    H2 6363   0.537   1.162   8.647  0.1208  0.2354 -0.1517
35161TIP3   OH2 6364  10.020   9.895  10.578  0.3006 -0.0143  0.4127
35161TIP3    H1 6365  10.052   9.835  10.645  0.0996  0.4485  0.9258
35161TIP3    H2 6366   9.949   9.944  10.620  0.1851  0.2949 -0.1263
35162TIP3   OH2 6367   0.112   4.223   6.372  0.1805  0.1370 -0.0717
35162TIP3    H1 6368   0.041   4.175   6.329  0.9131 -0.7255 -0.3550
35162TIP3    H2 6369   0.158   4.266   6.300  0.6372 -0.2659 -0.0304
35163TIP3   OH2 6370   6.680   7.923   1.352  0.6227 -0.7693 -0.7205
35163TIP3    H1 6371   6.613   7.956   1.412  2.7602  1.1277  0.8211
35163TIP3    H2 6372   6.682   7.829   1.368  0.3271 -0.4619  1.4304
35164TIP3   OH2 6373   6.035   2.051   9.764 -0.3274 -0.7367  0.4134
35164TIP3    H1 6374   6.031   1.957   9.781 -0.1319 -0.9208 -0.4873
35164TIP3    H2 6375   5.949   2.084   9.789 -1.2243 -1.5500 -1.3978
35165TIP3   OH2 6376   4.105   7.645   3.673 -0.0521 -0.2895  0.4509
35165TIP3    H1 6377   4.148   7.562   3.652 -1.5315 -0.8172 -0.5634
35165TIP3    H2 6378   4.173   7.695   3.720  0.6236 -2.3459  1.7957
35166TIP3   OH2 6379   8.600   3.577   3.642 -0.2011  0.3416  0.5580
35166TIP3    H1 6380   8.626   3.508   3.581 -0.0705  1.2468 -0.4620
35166TIP3    H2 6381   8.520   3.545   3.683  0.6577 -1.0334  1.2090
35167TIP3   OH2 6382  10.053   0.997   2.715  0.3793  0.4059  0.3468
35167TIP3    H1 6383  10.054   0.962   2.626  0.6589  0.2912  0.3934
35167TIP3    H2 6384   9.961   1.015   2.732  0.4187  1.2372 -0.2746
35168TIP3   OH2 6385  10.818  10.111   0.470 -0.6213 -0.2775  0.5607
35168TIP3    H1 6386  10.822  10.152   0.557  1.2850  0.7243  0.0483
35168TIP3    H2 6387  10.890  10.048   0.469 -0.6531 -0.3104 -0.2871
35169TIP3   OH2 6388   1.758   7.095   1.734  0.4668 -0.2470 -0.1734
35169TIP3    H1 6389   1.849   7.111   1.761  0.3241  0.2960 -0.0029
35169TIP3    H2 6390   1.705   7.127   1.807  0.0984  0.7128 -0.8429
35170TIP3   OH2 6391  10.085   3.491   4.691 -0.1503 -0.5053  0.5389
35170TIP3    H1 6392  10.051   3.548   4.623  0.2417 -0.7714  0.1177
35170TIP3    H2 6393  10.019   3.495   4.761  0.1872  0.9567  0.7913
35171TIP3   OH2 6394   3.843   2.450   5.019 -0.9934  0.4953  0.1115
35171TIP3    H1 6395   3.879   2.470   4.932 -1.0375  0.2229  0.0276
35171TIP3    H2 6396   3.851   2.531   5.068 -0.8855  0.6264 -0.1212
35172TIP3   OH2 6397   9.863   1.310   9.181  0.0949 -0.4308  0.4956
35172TIP3    H1 6398   9.930   1.366   9.220  0.2042 -0.0130 -0.2854
35172TIP3    H2 6399   9.878   1.224   9.222  1.6381 -0.5576 -0.2595
35173TIP3   OH2 6400   5.812   4.537   0.692 -0.6623  0.0349  0.1747
35173TIP3    H1 6401   5.736   4.514   0.639 -0.8247  0.9798 -0.0345
35173TIP3    H2 6402   5.821   4.466   0.755 -1.0043 -0.6696 -0.5576
35174TIP3   OH2 6403   4.625   9.985   6.815  0.6073  0.2162 -0.1325
35174TIP3    H1 6404   4.678  10.042   6.870 -0.1201  1.2610 -0.4675
35174TIP3    H2 6405   4.598   9.914   6.873  0.5667  0.8358  0.6273
35175TIP3   OH2 6406   1.765   8.752   6.081  0.3227 -0.2522 -0.1494
35175TIP3    H1 6407   1.751   8.835   6.036  2.8274 -0.5288 -1.6790
35175TIP3    H2 6408   1.824   8.774   6.154 -4.2212  0.3205  3.8397
35176TIP3   OH2 6409   8.369   1.482   9.790  0.2558  0.0325 -0.0423
35176TIP3    H1 6410   8.463   1.499   9.802  0.4860 -1.5750  0.7618
35176TIP3    H2 6411   8.331   1.567   9.770  1.9186  0.6912 -0.5789
35177TIP3   OH2 6412   0.308   9.415   3.893  0.3307 -0.2187  0.2368
35177TIP3    H1 6413   0.302   9.504   3.860  0.1488  0.2073  1.3648
35177TIP3    H2 6414   0.218   9.391   3.915  0.4763 -0.3862  0.6699
35178TIP3   OH2 6415   1.088   3.692   2.131  0.3191  0.0867 -0.2047
35178TIP3    H1 6416   0.997   3.722   2.125  0.2121 -0.0821  0.4863
35178TIP3    H2 6417   1.138   3.761   2.088 -0.0564  0.6145  0.1822
35179TIP3   OH2 6418   8.093   5.238   5.135  0.0757 -0.1474  0.1941
35179TIP3    H1 6419   8.139   5.177   5.077  1.8897  0.2918  1.0958
35179TIP3    H2 6420   8.098   5.197   5.222  1.4027  1.2563  0.8357
35180TIP3   OH2 6421   1.335   8.439   3.936  0.1177  0.6239  0.2694
35180TIP3    H1 6422   1.292   8.496   3.872  0.4851 -0.5589 -1.0621
35180TIP3    H2 6423   1.374   8.500   3.999 -0.3594  1.8105 -0.5419
35181TIP3   OH2 6424   7.384   5.069   5.447 -0.5470 -0.1489  0.6320
35181TIP3    H1 6425   7.359   5.152   5.406  0.9193 -1.2389 -2.7723
35181TIP3    H2 6426   7.301   5.032   5.478 -2.2309 -0.0978 -3.2809
35182TIP3   OH2 6427   4.579   0.055   4.251  0.2156 -0.8402 -0.1122
35182TIP3    H1 6428   4.487   0.080   4.255  0.8024  2.0418 -1.7844
35182TIP3    H2 6429   4.601   0.055   4.158  2.0192 -0.9984  0.2693
35183TIP3   OH2 6430  10.073   9.027   8.181 -0.1401  0.3880 -0.9119
35183TIP3    H1 6431  10.133   9.031   8.106  1.1461  0.9782  0.1022
35183TIP3    H2 6432  10.102   9.099   8.238 -2.2484  1.1151 -0.6741
35184TIP3   OH2 6433   8.278   2.965   0.352 -0.8474  0.1543 -0.5350
35184TIP3    H1 6434   8.272   2.870   0.344 -1.7347  0.1710 -0.1780
35184TIP3    H2 6435   8.192   2.997   0.325 -1.7619  0.6183  2.5623
35185TIP3   OH2 6436   0.848   4.203   5.500 -0.4619  0.4970 -0.2520
35185TIP3    H1 6437   0.875   4.284   5.544  0.9548  0.6306 -1.2877
35185TIP3    H2 6438   0.795   4.233   5.426  0.7707  0.5850 -1.1432
35186TIP3   OH2 6439   8.925   6.907   8.132 -0.0061 -0.6118  0.0467
35186TIP3    H1 6440   8.993   6.974   8.126  1.1304 -1.7752 -0.6419
35186TIP3    H2 6441   8.862   6.942   8.196  0.9766  0.7150  0.3333
35187TIP3   OH2 6442   7.091   2.971   6.492  0.0567 -0.2404  0.4048
35187TIP3    H1 6443   7.141   2.895   6.463  0.2614  0.2384 -0.5301
35187TIP3    H2 6444   6.999   2.947   6.477 -0.0261 -1.1045  2.0874
35188TIP3   OH2 6445   8.463   1.621   2.898 -0.7098  0.2165  0.1958
35188TIP3    H1 6446   8.551   1.630   2.863 -0.8073 -2.2085 -0.8387
35188TIP3    H2 6447   8.406   1.619   2.821 -1.4741 -0.0598  0.7560
35189TIP3   OH2 6448   9.036   3.747   1.000 -0.2289 -0.4280  0.4571
35189TIP3    H1 6449   8.943   3.762   1.015 -0.3118 -0.8920  0.4233
35189TIP3    H2 6450   9.042   3.654   0.976  0.2907 -0.4996  0.8496
35190TIP3   OH2 6451   7.655  10.191   6.703 -0.4788 -0.3724 -0.1630
35190TIP3    H1 6452   7.688  10.121   6.646  1.6777  1.3223 -1.1575
35190TIP3    H2 6453   7.619  10.145   6.779  0.3388 -2.5844 -1.0324
35191TIP3   OH2 6454   8.646   5.334   9.859  0.3000 -0.2253 -0.2966
35191TIP3    H1 6455   8.575   5.387   9.823  0.1925 -0.4737 -0.4573
35191TIP3    H2 6456   8.716   5.396   9.879  1.1367 -0.2522 -2.7406
35192TIP3   OH2 6457   5.474   0.418   9.147  0.3066 -0.6504  0.4435
35192TIP3    H1 6458   5.548   0.445   9.092 -0.6072 -0.6312 -0.8431
35192TIP3    H2 6459   5.477   0.477   9.222  2.0266 -1.1447  0.8126
35193TIP3   OH2 6460   6.653   7.106   6.764  0.2064  0.4857  0.0394
35193TIP3    H1 6461   6.744   7.095   6.793  0.2194 -2.1058 -0.7732
35193TIP3    H2 6462   6.605   7.127   6.844  1.2399  0.0227  0.8032
35194TIP3   OH2 6463   0.048   1.511   2.474  0.4736  0.5615 -0.0154
35194TIP3    H1 6464   0.113   1.442   2.487  0.4737  0.5397 -0.1326
35194TIP3    H2 6465   0.037   1.516   2.379  0.1082  0.3818  0.0163
35195TIP3   OH2 6466   7.814   4.148   8.523 -0.6201 -0.4985 -0.1490
35195TIP3    H1 6467   7.754   4.155   8.449  0.4752  0.9312 -0.9545
35195TIP3    H2 6468   7.840   4.056   8.525 -0.8182 -0.5982 -1.4185
35196TIP3   OH2 6469   5.646   7.577   1.568 -0.0126  0.4248 -0.4186
35196TIP3    H1 6470   5.683   7.664   1.583  0.2299  0.5916 -1.8128
35196TIP3    H2 6471   5.699   7.541   1.496 -1.9341  0.3144 -1.8693
35197TIP3   OH2 6472  10.421   4.359   9.430 -0.2154  0.0057  0.0945
35197TIP3    H1 6473  10.484   4.287   9.433  1.3326  1.1518 -2.2119
35197TIP3    H2 6474  10.395   4.365   9.339 -2.3833  0.7115  0.7022
35198TIP3   OH2 6475  10.249   4.400   7.916 -0.6387  0.3945  0.5995
35198TIP3    H1 6476  10.159   4.370   7.908 -0.0393 -1.3238 -0.5291
35198TIP3    H2 6477  10.262   4.415   8.009 -2.6368  2.6787  0.5970
35199TIP3   OH2 6478   7.540   2.017   4.719 -0.2544  0.0707 -0.2742
35199TIP3    H1 6479   7.524   2.111   4.727 -0.3121 -0.0488  1.5185
35199TIP3    H2 6480   7.523   1.983   4.807  0.8769 -1.4354 -0.6043
35200TIP3   OH2 6481   9.326   2.697   8.729 -0.0473 -0.1158 -0.4747
35200TIP3    H1 6482   9.290   2.611   8.750  1.6598 -0.7363  0.1419
35200TIP3    H2 6483   9.373   2.685   8.646  2.8000 -0.6821  1.0754
35201TIP3   OH2 6484   4.012   8.118   6.315  0.5873 -0.0156  0.8789
35201TIP3    H1 6485   4.071   8.088   6.247  0.5111 -2.1212  1.6828
35201TIP3    H2 6486   4.063   8.114   6.396  0.4183  1.6439  1.1187
35202TIP3   OH2 6487   5.837  10.401   1.077 -0.2160 -0.8252  0.4215
35202TIP3    H1 6488   5.917  10.411   1.128 -0.2991 -0.8582  0.5594
35202TIP3    H2 6489   5.852  10.454   0.998 -0.0208 -0.9129  0.4000
35203TIP3   OH2 6490   2.606   9.721   6.419  0.3935 -0.0169 -0.3705
35203TIP3    H1 6491   2.687   9.725   6.470  0.5617 -0.7583 -0.5591
35203TIP3    H2 6492   2.551   9.791   6.454  0.1028 -1.1287  1.5037
35204TIP3   OH2 6493   0.345   3.025   9.956  0.5636  0.0521  0.5550
35204TIP3    H1 6494   0.250   3.037   9.966  0.6182  0.5903  0.4060
35204TIP3    H2 6495   0.354   2.971   9.877  0.4006  0.2716  0.3868
35205TIP3   OH2 6496   4.842   9.643   6.536 -0.0074  0.7288  0.3213
35205TIP3    H1 6497   4.856   9.692   6.455  1.3772  1.9204  1.2501
35205TIP3    H2 6498   4.819   9.555   6.506  0.2039  1.2139 -1.3697
35206TIP3   OH2 6499   7.719   9.952   9.022  0.4401  0.2136 -0.4620
35206TIP3    H1 6500   7.703  10.046   9.012 -1.0332  0.0273  0.0615
35206TIP3    H2 6501   7.633   9.913   9.036  1.0638 -1.1857 -0.3006
35207TIP3   OH2 6502   9.741   6.784   6.678 -0.3973 -0.2933  0.4651
35207TIP3    H1 6503   9.784   6.839   6.743 -0.0326  0.1648 -0.1589
35207TIP3    H2 6504   9.813   6.745   6.628 -0.5727 -2.3790  1.7081
35208TIP3   OH2 6505   0.405   6.788   3.328 -0.3609  0.6426 -0.2364
35208TIP3    H1 6506   0.475   6.751   3.274  0.2056 -0.1429  1.0154
35208TIP3    H2 6507   0.342   6.716   3.338 -0.1754  0.5957  0.6395
35209TIP3   OH2 6508   4.676   5.355   5.797 -0.6830  0.0891 -0.1634
35209TIP3    H1 6509   4.763   5.360   5.837 -0.9982 -0.6892  0.6590
35209TIP3    H2 6510   4.638   5.442   5.810 -0.9668 -0.2712  1.7311
35210TIP3   OH2 6511  10.820   0.398   1.840  0.3977 -0.4282 -0.0312
35210TIP3    H1 6512  10.898   0.450   1.856 -0.4262  1.0950 -0.7867
35210TIP3    H2 6513  10.754   0.434   1.899 -0.2780 -0.3678 -0.7996
35211TIP3   OH2 6514   8.165   5.443   3.025 -0.3734  0.8546 -0.0927
35211TIP3    H1 6515   8.154   5.506   3.096  1.4895 -0.6221  1.5922
35211TIP3    H2 6516   8.257   5.449   3.001 -0.1298 -1.2440  0.1728
35212TIP3   OH2 6517   4.781   9.420   8.031  0.2445 -0.0279  0.4980
35212TIP3    H1 6518   4.836   9.377   7.966 -1.0606 -0.8644 -0.0972
35212TIP3    H2 6519   4.785   9.513   8.008 -0.5524 -0.3565 -1.0881
35213TIP3   OH2 6520   5.475   7.076   1.798 -0.2481  0.1376  0.3806
35213TIP3    H1 6521   5.527   7.156   1.796  1.0240 -0.6499  1.1383
35213TIP3    H2 6522   5.520   7.019   1.860 -1.8790 -0.6770  0.8834
35214TIP3   OH2 6523   0.874   2.868   7.359  0.1316 -0.5890  0.4086
35214TIP3    H1 6524   0.955   2.861   7.308  0.0842 -0.7576  0.3565
35214TIP3    H2 6525   0.871   2.788   7.411 -0.7366 -1.2859 -0.6733
35215TIP3   OH2 6526   8.024   0.423   9.351 -0.5273  0.0186  0.1358
35215TIP3    H1 6527   8.001   0.465   9.434  1.4721  0.5061  0.4917
35215TIP3    H2 6528   7.952   0.443   9.293 -0.9631  1.5077  1.1426
35216TIP3   OH2 6529   5.875   6.789   3.714 -0.3837 -0.0256 -0.0535
35216TIP3    H1 6530   5.930   6.859   3.679 -2.3254  0.7345 -1.7767
35216TIP3    H2 6531   5.932   6.712   3.714  1.1798  1.0762 -0.0809
35217TIP3   OH2 6532   5.399   2.957   9.656 -0.3788 -0.4678  0.5961
35217TIP3    H1 6533   5.328   3.022   9.657 -0.8963 -0.9607 -0.7662
35217TIP3    H2 6534   5.433   2.961   9.567  1.9870  0.4260  1.4694
35218TIP3   OH2 6535   7.805   7.257   2.252  0.1241  0.2591 -0.2880
35218TIP3    H1 6536   7.780   7.199   2.325  0.5491 -0.0727 -0.4060
35218TIP3    H2 6537   7.835   7.337   2.295 -1.0512  0.6389 -0.1370
35219TIP3   OH2 6538   6.733   2.813   0.209 -0.2617  0.6076  0.4368
35219TIP3    H1 6539   6.744   2.720   0.228  0.4178  0.5371 -0.2539
35219TIP3    H2 6540   6.685   2.815   0.126 -0.9189  0.8856  0.8152
35220TIP3   OH2 6541   1.611   1.473   8.137  0.3479  0.2051  0.5450
35220TIP3    H1 6542   1.685   1.445   8.083  0.1607 -1.3529  1.0345
35220TIP3    H2 6543   1.543   1.409   8.117 -0.4154  0.8303  1.1124
35221TIP3   OH2 6544   3.315   6.124   2.530  0.3880 -0.8198  0.2117
35221TIP3    H1 6545   3.358   6.180   2.595  0.1630 -0.6134  0.1855
35221TIP3    H2 6546   3.320   6.036   2.566  2.7923 -1.1687 -0.7869
35222TIP3   OH2 6547  10.245   4.483   5.666  0.4484 -0.3807 -0.1905
35222TIP3    H1 6548  10.169   4.448   5.712  0.6465  0.3705  0.7442
35222TIP3    H2 6549  10.319   4.467   5.725  0.8398 -0.1369 -0.6061
35223TIP3   OH2 6550   3.852   0.480   6.596 -0.1045 -0.4529 -0.2303
35223TIP3    H1 6551   3.947   0.481   6.583 -0.3108  0.8141 -1.9655
35223TIP3    H2 6552   3.823   0.399   6.554  0.1675 -0.6772  0.0090
35224TIP3   OH2 6553   3.224   6.942   7.179  0.0409 -0.0345 -0.3399
35224TIP3    H1 6554   3.311   6.902   7.178 -0.0825 -0.3064 -0.2138
35224TIP3    H2 6555   3.240   7.036   7.166  0.5510  0.2789  2.1171
35225TIP3   OH2 6556   7.460   2.674   7.786 -0.0855  0.1982  0.4673
35225TIP3    H1 6557   7.414   2.607   7.735 -0.8268  0.5742  0.6295
35225TIP3    H2 6558   7.535   2.699   7.732 -0.5984  0.2551 -0.2181
35226TIP3   OH2 6559   0.004   5.236   5.365  0.0163 -0.0909 -0.1857
35226TIP3    H1 6560  -0.056   5.311   5.364 -0.1461 -0.2121 -1.0674
35226TIP3    H2 6561   0.046   5.240   5.450 -2.0572 -0.6451  0.9340
35227TIP3   OH2 6562   4.782   7.312   8.524 -0.2430 -0.5527  0.3199
35227TIP3    H1 6563   4.742   7.393   8.556 -0.8391 -1.1456  1.1296
35227TIP3    H2 6564   4.758   7.308   8.432  0.4273  0.5625  0.0798
35228TIP3   OH2 6565   2.616   6.949   4.998  0.2186 -0.1714 -0.0409
35228TIP3    H1 6566   2.533   6.949   4.950  0.3240  0.0394 -0.2243
35228TIP3    H2 6567   2.636   7.042   5.012  1.8954 -0.0382 -2.5929
35229TIP3   OH2 6568   1.442   0.642   2.040  0.0242 -0.0126 -0.3906
35229TIP3    H1 6569   1.508   0.593   2.089  0.1036  1.0593  0.6080
35229TIP3    H2 6570   1.490   0.714   1.999 -0.3851  0.2716 -0.3796
35230TIP3   OH2 6571   5.741   5.547  10.094  0.2890  0.1882  0.7409
35230TIP3    H1 6572   5.782   5.533  10.179  0.9230  1.6626  0.7123
35230TIP3    H2 6573   5.655   5.505  10.101  1.0159 -1.2460  1.4724
35231TIP3   OH2 6574   2.640  10.353   0.058  0.0766 -0.8186 -0.5464
35231TIP3    H1 6575   2.596  10.273   0.086 -0.4894 -1.0436 -1.9885
35231TIP3    H2 6576   2.722  10.323   0.020  0.7858 -0.5234  0.6741
35232TIP3   OH2 6577   7.838   6.445   2.982 -0.0049 -0.0051  0.1385
35232TIP3    H1 6578   7.783   6.488   2.916 -1.5192 -0.6594  0.9369
35232TIP3    H2 6579   7.863   6.516   3.041  0.8867  0.4809 -0.7863
35233TIP3   OH2 6580   6.237   5.798   4.505 -0.3923  0.0729 -0.2875
35233TIP3    H1 6581   6.311   5.858   4.494 -0.7574  1.1238  2.3027
35233TIP3    H2 6582   6.207   5.782   4.415  1.7046  1.1972 -1.2879
35234TIP3   OH2 6583   1.335   5.288   6.362 -0.0586  0.2214 -0.4627
35234TIP3    H1 6584   1.359   5.207   6.406 -0.1197  0.3335 -0.2218
35234TIP3    H2 6585   1.420   5.330   6.342 -0.0439  1.0702  1.2348
35235TIP3   OH2 6586   7.667   3.540   8.853 -0.0891 -0.1445 -0.5096
35235TIP3    H1 6587   7.577   3.530   8.884 -0.0707 -0.8405 -0.6691
35235TIP3    H2 6588   7.677   3.634   8.839  0.0533  0.2884  2.0494
35236TIP3   OH2 6589   1.173   2.651   5.683  0.3585  0.6866  0.6494
35236TIP3    H1 6590   1.230   2.612   5.750 -0.4699 -0.0600  0.9348
35236TIP3    H2 6591   1.116   2.710   5.733  0.9081  1.4915  0.3534
35237TIP3   OH2 6592  10.483   1.294   1.927 -0.1412 -0.0156 -0.3470
35237TIP3    H1 6593  10.493   1.253   2.013 -1.0523 -1.8367 -1.0601
35237TIP3    H2 6594  10.427   1.370   1.943  0.0316 -0.0932  0.7272
35238TIP3   OH2 6595   9.451   0.004   1.165  0.4268 -0.2149  0.1661
35238TIP3    H1 6596   9.360  -0.024   1.168  0.3870 -0.0194  1.8842
35238TIP3    H2 6597   9.472   0.029   1.256  2.0702  0.1036 -0.2584
35239TIP3   OH2 6598   4.874   0.229   3.796 -0.1680 -0.5653 -0.2219
35239TIP3    H1 6599   4.856   0.180   3.876  0.2682 -2.1576 -1.0500
35239TIP3    H2 6600   4.791   0.271   3.774  0.5198  3.2184  3.0692
35240TIP3   OH2 6601   7.712   2.274   1.449  0.1442 -0.0187 -0.4618
35240TIP3    H1 6602   7.649   2.317   1.392 -0.2291  1.2542  0.8518
35240TIP3    H2 6603   7.670   2.191   1.472 -0.3108  0.0758 -0.9235
35241TIP3   OH2 6604   5.179   0.488   6.146  0.4372 -0.4138  0.0193
35241TIP3    H1 6605   5.229   0.437   6.209 -0.2874  0.9355  1.7930
35241TIP3    H2 6606   5.138   0.557   6.198 -2.6610 -0.9676 -1.4015
35242TIP3   OH2 6607   8.930   4.009   3.396  0.2009  0.5764 -0.4174
35242TIP3    H1 6608   8.933   3.990   3.489  0.9162 -1.4501 -0.8059
35242TIP3    H2 6609   8.900   4.100   3.391 -1.2141  0.3007  1.7059
35243TIP3   OH2 6610   1.987   4.352   0.057  0.2123  0.1998  0.4364
35243TIP3    H1 6611   2.040   4.355  -0.023 -0.4065  0.3241  0.0141
35243TIP3    H2 6612   1.930   4.276   0.044  2.2299 -1.7229  2.1754
35244TIP3   OH2 6613   1.417   0.429   5.431 -0.3235  0.1100 -0.2848
35244TIP3    H1 6614   1.452   0.506   5.474  2.5143 -0.3241 -1.5579
35244TIP3    H2 6615   1.493   0.389   5.388 -1.8821 -2.7583 -0.6385
35245TIP3   OH2 6616   9.233   7.073  10.375 -0.2624 -0.5065 -0.4980
35245TIP3    H1 6617   9.217   7.039  10.287 -1.1224  1.8252 -1.3114
35245TIP3    H2 6618   9.289   7.149  10.362 -0.3996 -0.1167  0.9772
35246TIP3   OH2 6619   1.972   4.288   3.296 -0.3478 -0.3186  0.3230
35246TIP3    H1 6620   1.917   4.241   3.358  0.4580 -0.3237  1.0521
35246TIP3    H2 6621   2.019   4.219   3.249 -0.0123 -0.2859  0.6032
35247TIP3   OH2 6622   2.436   4.426   9.052  0.1244  0.6912 -0.3935
35247TIP3    H1 6623   2.524   4.388   9.044  0.0264  0.3878 -0.0648
35247TIP3    H2 6624   2.415   4.417   9.145 -0.7045 -0.2620 -0.6552
35248TIP3   OH2 6625   2.717   7.827   1.437 -0.0333 -0.2586 -0.1846
35248TIP3    H1 6626   2.781   7.855   1.372  0.4554  0.1455  0.4579
35248TIP3    H2 6627   2.737   7.880   1.514  0.2932 -1.7063  0.7551
35249TIP3   OH2 6628   2.872   7.691   8.297 -0.2984 -0.2928  0.1811
35249TIP3    H1 6629   2.874   7.637   8.376 -0.5103  0.8705  1.0151
35249TIP3    H2 6630   2.906   7.635   8.228  2.7504 -0.4589  1.6371
35250TIP3   OH2 6631   6.637  10.166  10.610  0.4615  0.1480 -0.3194
35250TIP3    H1 6632   6.710  10.117  10.572  0.4935 -0.8437  0.9718
35250TIP3    H2 6633   6.591  10.103  10.664  0.8335  1.6582  1.8628
35251TIP3   OH2 6634   5.117   3.234   4.534 -0.4856  0.6794 -0.0383
35251TIP3    H1 6635   5.044   3.248   4.473  0.4067  0.6577 -1.1246
35251TIP3    H2 6636   5.149   3.322   4.553 -0.3778  0.6430 -0.0559
35252TIP3   OH2 6637   4.740   6.819   1.703 -0.7417  0.4622 -0.1076
35252TIP3    H1 6638   4.725   6.760   1.630 -0.6050  2.3261 -1.7304
35252TIP3    H2 6639   4.718   6.906   1.669  3.4795  2.0607  0.6026
35253TIP3   OH2 6640   9.805   2.150   2.030 -0.8859 -0.4627  0.1723
35253TIP3    H1 6641   9.899   2.164   2.040 -1.0076 -0.0544  0.7931
35253TIP3    H2 6642   9.796   2.116   1.941 -0.1231 -0.7985  0.2128
35254TIP3   OH2 6643  10.361   3.008   1.121 -0.4112 -0.4791  0.6337
35254TIP3    H1 6644  10.365   3.066   1.045  0.8699 -0.3265  0.8025
35254TIP3    H2 6645  10.286   3.040   1.171 -0.4670  0.2504  0.0999
35255TIP3   OH2 6646   2.948   3.637   2.900 -0.1617 -0.3058 -0.5524
35255TIP3    H1 6647   3.034   3.670   2.923 -0.3299  0.9640 -1.6392
35255TIP3    H2 6648   2.923   3.582   2.975  2.6409 -2.8820 -1.3317
35256TIP3   OH2 6649   0.290   8.068   3.568  0.1222 -0.4682 -0.3490
35256TIP3    H1 6650   0.359   8.050   3.632  0.3526 -0.3277 -0.5549
35256TIP3    H2 6651   0.283   7.987   3.517 -0.7786 -0.9586  0.5013
35257TIP3   OH2 6652   8.623   4.007   5.801  0.2532 -0.3161  0.5158
35257TIP3    H1 6653   8.647   3.932   5.747 -0.6087 -2.0837  2.4372
35257TIP3    H2 6654   8.530   3.994   5.821 -0.2029  1.8236  0.1246
35258TIP3   OH2 6655   5.467   4.278  10.242 -0.0828  0.0195  0.2021
35258TIP3    H1 6656   5.503   4.224  10.313  0.1002  0.1729  0.2285
35258TIP3    H2 6657   5.471   4.223  10.165 -2.3786 -0.9885  0.7153
35259TIP3   OH2 6658   2.916   4.052   6.090 -0.1008  0.1461 -0.1549
35259TIP3    H1 6659   2.956   4.067   6.175 -0.3733 -0.7315  0.1393
35259TIP3    H2 6660   2.848   3.987   6.107 -1.9108  1.8435 -0.5697
35260TIP3   OH2 6661   6.181   9.693   3.115  0.3765  0.0547 -0.1555
35260TIP3    H1 6662   6.174   9.641   3.195  0.5861  1.3356  0.7178
35260TIP3    H2 6663   6.256   9.750   3.129  0.6106  0.0809 -1.4038
35261TIP3   OH2 6664   4.792   2.733   8.474  0.1415 -0.2687  0.0969
35261TIP3    H1 6665   4.838   2.658   8.512  0.8662  0.3631  0.4752
35261TIP3    H2 6666   4.857   2.775   8.417 -0.3165 -0.0228 -0.2546
35262TIP3   OH2 6667   2.909   6.447   4.409 -0.6024  0.1809 -0.4116
35262TIP3    H1 6668   2.840   6.513   4.411  0.2934  1.2591 -2.2748
35262TIP3    H2 6669   2.896   6.400   4.327  2.0997  1.9231 -2.0027
35263TIP3   OH2 6670   2.359   0.707  10.718 -0.0060 -0.4005 -0.1733
35263TIP3    H1 6671   2.449   0.726  10.693  0.2921 -0.9186  0.4925
35263TIP3    H2 6672   2.364   0.627  10.770 -0.9638 -1.0027 -0.9601
35264TIP3   OH2 6673   4.490   6.749   4.387  0.6729  0.1636 -0.3606
35264TIP3    H1 6674   4.412   6.694   4.386  2.3885 -2.5756 -3.0374
35264TIP3    H2 6675   4.463   6.829   4.342 -1.0700  0.1567  0.6038
35265TIP3   OH2 6676   0.784  10.517   1.472 -0.1723 -0.1143 -0.9307
35265TIP3    H1 6677   0.772  10.489   1.563 -0.8519  0.0535 -0.9682
35265TIP3    H2 6678   0.878  10.537   1.466 -0.0975 -0.2419 -0.3041
35266TIP3   OH2 6679   7.287   0.634   1.168  0.4700 -0.7953 -0.2086
35266TIP3    H1 6680   7.308   0.727   1.171  0.7111 -0.8477 -0.2684
35266TIP3    H2 6681   7.200   0.627   1.209  0.4252 -0.5375 -0.2608
35267TIP3   OH2 6682   0.056   8.614   2.915 -0.4221 -0.1479  0.1987
35267TIP3    H1 6683   0.068   8.634   2.822  0.7284 -1.6228 -0.0047
35267TIP3    H2 6684   0.145   8.612   2.951 -0.8735  0.9100  1.4759
35268TIP3   OH2 6685   5.847   8.464   9.826 -0.0193  0.6363 -0.3378
35268TIP3    H1 6686   5.837   8.388   9.768  0.3461  1.0602 -0.9572
35268TIP3    H2 6687   5.807   8.436   9.908 -0.7144  0.1013 -0.8470
35269TIP3   OH2 6688   1.802   7.827   6.086 -0.0259  0.3269  0.0372
35269TIP3    H1 6689   1.876   7.771   6.060 -0.7254  0.2876 -2.1236
35269TIP3    H2 6690   1.824   7.913   6.049 -0.7522  0.4655 -0.0929
35270TIP3   OH2 6691   2.252   3.321   0.572  0.3540 -0.4245 -0.5059
35270TIP3    H1 6692   2.286   3.411   0.577 -0.2821 -0.0719 -1.8926
35270TIP3    H2 6693   2.163   3.326   0.606  0.8459 -0.8664  0.8915
35271TIP3   OH2 6694   3.704   3.278   3.129 -0.0389 -0.6094  0.2581
35271TIP3    H1 6695   3.712   3.360   3.178 -0.3349 -0.1207 -0.4789
35271TIP3    H2 6696   3.783   3.275   3.074 -0.1663 -0.6698  0.0753
35272TIP3   OH2 6697  10.261   7.341   3.916  0.7117  0.3922  0.1230
35272TIP3    H1 6698  10.313   7.273   3.873  0.0969 -0.2508  0.3711
35272TIP3    H2 6699  10.228   7.298   3.996  3.0575  1.9711  2.0833
35273TIP3   OH2 6700   7.274   3.502   8.597 -0.0780  0.0604 -0.1729
35273TIP3    H1 6701   7.239   3.565   8.534  1.0704 -0.2447 -1.1484
35273TIP3    H2 6702   7.369   3.510   8.589  0.1299  0.8498  2.3812
35274TIP3   OH2 6703   8.223  10.302   4.464 -0.1152 -0.1503  0.1527
35274TIP3    H1 6704   8.191  10.276   4.378  0.2967 -1.8171  0.4697
35274TIP3    H2 6705   8.187  10.390   4.477 -0.9755 -0.2475 -1.2972
35275TIP3   OH2 6706   5.307   8.153   4.507 -0.3534  0.4059 -0.1629
35275TIP3    H1 6707   5.372   8.182   4.443 -0.8025 -0.9194 -1.2693
35275TIP3    H2 6708   5.348   8.079   4.551 -0.5954  0.4276  0.1014
35276TIP3   OH2 6709   4.639   1.472   3.456  0.1107  0.2781 -0.4906
35276TIP3    H1 6710   4.632   1.489   3.362 -0.5811 -0.8418 -0.6530
35276TIP3    H2 6711   4.654   1.378   3.462 -1.1508  0.1175  0.5617
35277TIP3   OH2 6712   6.918   1.641   3.617 -0.0477 -0.1301 -0.2514
35277TIP3    H1 6713   6.971   1.611   3.543 -0.8738 -0.0310 -0.8886
35277TIP3    H2 6714   6.829   1.648   3.582 -0.4265  0.0290  0.7205
35278TIP3   OH2 6715   0.425   7.253  10.174 -0.1937  0.3869 -0.1133
35278TIP3    H1 6716   0.343   7.204  10.171  1.3936 -2.7137  1.7802
35278TIP3    H2 6717   0.401   7.338  10.213 -2.4509 -0.5738  0.7729
35279TIP3   OH2 6718   2.790   5.881   9.908  0.6720  0.3189  0.2482
35279TIP3    H1 6719   2.781   5.968   9.946  0.8906  0.3568  0.2090
35279TIP3    H2 6720   2.782   5.821   9.983  3.2587  0.4456  0.7218
35280TIP3   OH2 6721   9.543   1.757  10.209  0.4671 -0.3398 -0.2400
35280TIP3    H1 6722   9.626   1.740  10.164  0.5701  0.9998 -0.5903
35280TIP3    H2 6723   9.558   1.836  10.261 -0.6817  0.1480 -0.5978
35281TIP3   OH2 6724   1.432   4.338   1.965  0.2077 -0.2412 -0.2392
35281TIP3    H1 6725   1.429   4.249   2.001  0.6662  0.7227  2.4064
35281TIP3    H2 6726   1.469   4.391   2.035 -1.8038  2.4034 -1.0001
35282TIP3   OH2 6727   6.999   1.030   0.041 -0.0048  0.4707  0.2029
35282TIP3    H1 6728   6.941   1.049   0.114  0.2546  0.0123  0.5329
35282TIP3    H2 6729   7.050   0.955   0.070  0.1406  0.3218 -0.4286
35283TIP3   OH2 6730  10.472   0.417   3.243 -0.8049  0.1718  0.1397
35283TIP3    H1 6731  10.447   0.426   3.335 -0.8821 -0.5940  0.2016
35283TIP3    H2 6732  10.495   0.506   3.216 -1.3466  0.5042  0.7322
35284TIP3   OH2 6733   4.889   6.788   0.051  0.4805 -0.5091  0.4313
35284TIP3    H1 6734   4.852   6.872   0.078  0.2867 -0.7748  1.0023
35284TIP3    H2 6735   4.868   6.728   0.123 -0.0296 -1.2294 -0.3011
35285TIP3   OH2 6736   6.303   6.748   5.420 -0.0472 -0.3004 -0.4905
35285TIP3    H1 6737   6.236   6.815   5.408 -0.8047 -0.8220  0.6958
35285TIP3    H2 6738   6.349   6.773   5.500 -0.2915 -1.1406 -0.0755
35286TIP3   OH2 6739   6.383   0.195   0.409 -0.3831 -0.4237  0.0386
35286TIP3    H1 6740   6.299   0.158   0.383 -0.2807  0.7510 -2.1403
35286TIP3    H2 6741   6.435   0.195   0.330  0.7562  1.2838  0.7325
35287TIP3   OH2 6742   1.451   0.378   8.643 -0.0046  0.1770  0.1738
35287TIP3    H1 6743   1.432   0.323   8.567 -1.4623  0.0707  0.5660
35287TIP3    H2 6744   1.544   0.365   8.660 -0.4052 -2.8755  0.7474
35288TIP3   OH2 6745   9.415   4.660   3.244  0.6100  0.2030  0.2666
35288TIP3    H1 6746   9.355   4.599   3.201  0.5233 -0.3050  1.0867
35288TIP3    H2 6747   9.495   4.656   3.192  1.0984 -1.6774  1.0713
35289TIP3   OH2 6748   5.303   4.482   8.204 -0.1505  0.0126  0.0444
35289TIP3    H1 6749   5.293   4.402   8.255 -0.1811  1.0658  1.7728
35289TIP3    H2 6750   5.267   4.461   8.118  0.0807 -1.8852  0.3716
35290TIP3   OH2 6751   9.524   2.709   1.441 -0.1041 -0.6684  0.6122
35290TIP3    H1 6752   9.601   2.654   1.427  0.8664  0.7189  0.2863
35290TIP3    H2 6753   9.449   2.649   1.432  0.9114 -1.9688  0.5700
35291TIP3   OH2 6754   6.517   2.416   8.970  0.0013 -0.0714 -0.1142
35291TIP3    H1 6755   6.440   2.440   9.022  0.7430 -1.5624  1.7979
35291TIP3    H2 6756   6.489   2.339   8.920  0.5084 -1.3398  1.4636
35292TIP3   OH2 6757   4.803   7.908   9.436 -0.2796 -0.3806  0.0329
35292TIP3    H1 6758   4.865   7.903   9.509  1.1038 -0.7862 -1.1208
35292TIP3    H2 6759   4.732   7.849   9.460  0.9627 -1.8089  0.3442
35293TIP3   OH2 6760   6.839   8.082   5.105 -0.2043  0.2940 -0.1745
35293TIP3    H1 6761   6.757   8.129   5.088 -0.4140  0.1612  0.4358
35293TIP3    H2 6762   6.908   8.146   5.084 -0.3612 -0.4379 -3.2803
35294TIP3   OH2 6763  10.371   3.018   9.245 -0.4409  0.3101 -0.1189
35294TIP3    H1 6764  10.364   3.064   9.328 -0.5243  1.3679 -0.6961
35294TIP3    H2 6765  10.344   2.928   9.265  0.1424  0.3808  1.1205
35295TIP3   OH2 6766   1.949   8.294   8.216  0.2425 -0.2517  0.0486
35295TIP3    H1 6767   2.008   8.331   8.150 -0.1370  2.3407  1.0522
35295TIP3    H2 6768   2.002   8.285   8.294 -0.3638  1.1070  0.6573
35296TIP3   OH2 6769   2.870   9.358  10.070  0.3345  0.5365 -0.3170
35296TIP3    H1 6770   2.849   9.428  10.132  2.7198  0.2959  0.8738
35296TIP3    H2 6771   2.914   9.291  10.122 -1.7580 -1.9101 -1.4360
35297TIP3   OH2 6772   4.312   3.109   4.071 -0.4085  0.0988 -0.7442
35297TIP3    H1 6773   4.236   3.081   4.122 -0.8591  0.2741 -1.2975
35297TIP3    H2 6774   4.348   3.027   4.035 -0.0182 -0.0345 -0.0566
35298TIP3   OH2 6775   0.219   5.726   4.384  0.6248  0.9661 -0.1032
35298TIP3    H1 6776   0.130   5.744   4.354  0.1004  0.5212  1.1101
35298TIP3    H2 6777   0.235   5.789   4.454  2.1181  2.5084 -1.7262
35299TIP3   OH2 6778   5.978   8.688   8.393  0.0973 -0.2638 -0.1274
35299TIP3    H1 6779   6.051   8.751   8.394 -0.4992  0.4402  0.1946
35299TIP3    H2 6780   6.017   8.606   8.422  0.6520  0.2458  0.6374
35300TIP3   OH2 6781   7.416   2.105   2.316 -0.2465 -0.7060 -0.2961
35300TIP3    H1 6782   7.472   2.172   2.278 -1.8535  1.1357  0.3963
35300TIP3    H2 6783   7.414   2.035   2.250  0.3122  0.5806 -1.7385
35301TIP3   OH2 6784   1.367  10.392   0.962  0.4643 -0.5486 -0.1362
35301TIP3    H1 6785   1.284  10.359   0.929  1.3246 -1.9007 -1.0560
35301TIP3    H2 6786   1.361  10.383   1.057 -0.4467 -0.5938 -0.1913
35302TIP3   OH2 6787   5.352   8.255   7.172  0.2602 -0.9823  0.0719
35302TIP3    H1 6788   5.325   8.235   7.261  1.0545 -1.5433  0.2013
35302TIP3    H2 6789   5.310   8.338   7.152 -0.2592 -1.0556  0.8158
35303TIP3   OH2 6790   8.371   8.338   8.023  0.2015 -0.0986  0.2549
35303TIP3    H1 6791   8.410   8.252   8.040  0.3938 -0.2361 -0.7652
35303TIP3    H2 6792   8.445   8.393   7.998  0.1552  0.5328  1.4417
35304TIP3   OH2 6793   6.360  10.269   3.073 -0.3037 -0.7683 -0.4540
35304TIP3    H1 6794   6.276  10.285   3.029 -1.5059 -3.0790  0.8282
35304TIP3    H2 6795   6.362  10.333   3.144 -1.2070 -0.9865 -0.2135
35305TIP3   OH2 6796  10.750   5.188   0.232  0.0917  0.0746 -0.5636
35305TIP3    H1 6797  10.665   5.166   0.195 -0.0469  1.0851 -0.8944
35305TIP3    H2 6798  10.810   5.122   0.196 -0.4559 -0.3337 -0.7352
35306TIP3   OH2 6799   3.863   5.229  10.394  0.0300 -0.7693 -0.6812
35306TIP3    H1 6800   3.817   5.313  10.400 -0.4653 -1.0597 -0.3465
35306TIP3    H2 6801   3.795   5.164  10.406  0.0031 -1.2915 -3.0989
35307TIP3   OH2 6802   8.412   5.432   9.703  0.1448 -0.1615  0.0545
35307TIP3    H1 6803   8.428   5.353   9.651  0.9318 -0.2900  0.4786
35307TIP3    H2 6804   8.326   5.462   9.675  0.4720 -0.3319 -1.1886
35308TIP3   OH2 6805   0.860   1.655   6.017  0.0237 -0.1977  0.8374
35308TIP3    H1 6806   0.934   1.710   5.989 -0.3891  0.5277  1.1445
35308TIP3    H2 6807   0.866   1.577   5.962 -0.3563  0.8647 -0.7762
35309TIP3   OH2 6808   0.395   5.946  10.652  0.0952  0.9845 -0.1318
35309TIP3    H1 6809   0.304   5.961  10.626 -0.4573 -0.5098  0.8081
35309TIP3    H2 6810   0.410   6.008  10.724 -0.7051  0.1680  0.7575
35310TIP3   OH2 6811   0.571   2.417   0.960 -0.0696  0.6763 -0.0208
35310TIP3    H1 6812   0.664   2.438   0.958  0.6304 -1.2189  3.8594
35310TIP3    H2 6813   0.567   2.322   0.948 -1.3506  0.5601  1.0209
35311TIP3   OH2 6814   6.146   9.867   4.151  0.1521  0.2374  0.2440
35311TIP3    H1 6815   6.168   9.889   4.241 -0.2537  0.3193  0.3234
35311TIP3    H2 6816   6.051   9.880   4.145  0.1402  0.0012 -0.1273
35312TIP3   OH2 6817  10.807   0.788   6.157 -0.3054  0.2604 -0.5900
35312TIP3    H1 6818  10.730   0.838   6.129 -0.2659  2.1920  2.3510
35312TIP3    H2 6819  10.878   0.851   6.156  0.2949 -0.3546  0.8788
35313TIP3   OH2 6820   4.001   7.737   7.565 -0.2066  0.4975  0.0169
35313TIP3    H1 6821   3.989   7.812   7.623 -1.2037  0.6830 -0.4037
35313TIP3    H2 6822   3.975   7.769   7.479  0.8788  0.1116 -0.4719
35314TIP3   OH2 6823   6.511   0.165   6.569  0.0033  0.2809  0.1204
35314TIP3    H1 6824   6.590   0.219   6.561  0.7947 -0.9427 -0.6132
35314TIP3    H2 6825   6.475   0.163   6.480  0.2637 -0.7916  0.0260
35315TIP3   OH2 6826   5.813   7.156   6.183 -0.4644  0.5413 -0.0135
35315TIP3    H1 6827   5.768   7.107   6.114 -0.1629 -0.8977  0.7628
35315TIP3    H2 6828   5.902   7.168   6.150  0.1329 -1.4867  0.6773
35316TIP3   OH2 6829   0.823  10.575   6.927  0.1919 -0.5751 -0.4311
35316TIP3    H1 6830   0.754  10.626   6.885  0.1221 -0.7645 -0.5451
35316TIP3    H2 6831   0.892  10.570   6.862 -0.0298 -1.1080 -0.6308
35317TIP3   OH2 6832   0.723   7.719   8.433  0.0141 -0.3783 -0.4621
35317TIP3    H1 6833   0.692   7.668   8.508 -0.0997 -2.1961 -1.6662
35317TIP3    H2 6834   0.816   7.697   8.426  0.6217  1.6353  0.5075
35318TIP3   OH2 6835   0.740  10.833   1.222  0.0187  0.0524 -0.1475
35318TIP3    H1 6836   0.706  10.831   1.132  0.5207  0.1817 -0.3455
35318TIP3    H2 6837   0.666  10.806   1.276 -1.0289  2.2129 -0.3639
35319TIP3   OH2 6838   8.223   0.794   7.569  0.8332 -0.3750  0.5560
35319TIP3    H1 6839   8.312   0.762   7.550  1.0366  0.1839  0.5453
35319TIP3    H2 6840   8.194   0.834   7.488 -0.5817 -3.0407 -0.3952
35320TIP3   OH2 6841   6.154   9.439   5.818 -0.0684  0.3555  0.2924
35320TIP3    H1 6842   6.173   9.358   5.866 -2.7288 -1.2039 -1.0256
35320TIP3    H2 6843   6.150   9.507   5.886  0.6578 -0.9004  1.6511
35321TIP3   OH2 6844   4.882   4.375   7.858 -0.1677 -0.0719  0.2142
35321TIP3    H1 6845   4.919   4.464   7.865 -0.1300 -0.0648 -0.0681
35321TIP3    H2 6846   4.831   4.377   7.777 -0.6793 -0.1245  0.5322
35322TIP3   OH2 6847   4.022   7.676   9.193  0.4045  0.4165 -0.1128
35322TIP3    H1 6848   3.989   7.608   9.252 -0.4374  0.7038 -0.2311
35322TIP3    H2 6849   4.017   7.637   9.106 -0.0083  0.5936 -0.1725
35323TIP3   OH2 6850   3.214   2.221   7.620  0.0380  0.5141 -0.6072
35323TIP3    H1 6851   3.134   2.196   7.666  0.3029  1.0675  0.1686
35323TIP3    H2 6852   3.189   2.298   7.569 -0.4250 -0.4755 -1.9390
35324TIP3   OH2 6853   1.691   3.463   9.190  0.2408 -0.0408 -0.6819
35324TIP3    H1 6854   1.672   3.456   9.284 -0.7353  0.7700 -0.7992
35324TIP3    H2 6855   1.609   3.438   9.147  0.4751  0.2323 -1.2970
35325TIP3   OH2 6856   1.011   8.640   4.104 -0.1914  0.0333 -0.7526
35325TIP3    H1 6857   1.056   8.682   4.177 -0.5799 -0.0048 -0.4920
35325TIP3    H2 6858   1.030   8.547   4.114  0.9329  0.1541 -1.5080
35326TIP3   OH2 6859   7.338   6.987   7.576 -0.0414 -0.0718 -0.2775
35326TIP3    H1 6860   7.325   6.961   7.667 -1.6412  2.0300  0.1570
35326TIP3    H2 6861   7.273   6.936   7.527  0.0830 -0.3906 -0.1194
35327TIP3   OH2 6862   8.229   9.496   9.738 -0.4766 -0.0518  0.5128
35327TIP3    H1 6863   8.279   9.416   9.725 -1.2524 -0.2883 -1.2247
35327TIP3    H2 6864   8.251   9.551   9.663 -3.0435 -0.3094 -0.5378
35328TIP3   OH2 6865   3.624   8.803   4.551  0.9893 -0.2575  0.0892
35328TIP3    H1 6866   3.645   8.749   4.628  1.3837  0.0644  0.2143
35328TIP3    H2 6867   3.688   8.776   4.485 -1.3397 -2.8728 -1.2900
35329TIP3   OH2 6868   8.191   9.965   8.955 -0.2440 -0.3270  0.2230
35329TIP3    H1 6869   8.170   9.941   9.045  1.1967 -1.4409  0.2961
35329TIP3    H2 6870   8.109  10.003   8.921 -0.8301  0.0856  1.9564
35330TIP3   OH2 6871   4.627   3.575   2.546  0.7664  0.3155 -0.2378
35330TIP3    H1 6872   4.563   3.626   2.596  0.7219 -0.7731  0.8464
35330TIP3    H2 6873   4.597   3.583   2.455 -0.0836  0.9968  0.0797
35331TIP3   OH2 6874   3.129   5.562   9.732  0.5460 -0.2682  0.0254
35331TIP3    H1 6875   3.134   5.526   9.821 -0.1489  0.2889  0.3087
35331TIP3    H2 6876   3.170   5.648   9.739 -0.0841  0.0434 -0.0352
35332TIP3   OH2 6877   6.614   9.872   0.171  0.0962 -0.3861 -0.3586
35332TIP3    H1 6878   6.534   9.843   0.215  1.4355 -1.1872  1.7116
35332TIP3    H2 6879   6.653   9.934   0.232  0.1690  1.4728 -2.1805
35333TIP3   OH2 6880   4.123   1.179  10.637  0.7535  0.1439  0.0874
35333TIP3    H1 6881   4.134   1.271  10.613  0.4695 -0.5881 -3.2841
35333TIP3    H2 6882   4.201   1.135  10.604  0.9937 -0.8565  1.8343
35334TIP3   OH2 6883   3.038   4.080  10.035 -0.5727  0.0413  0.4239
35334TIP3    H1 6884   3.073   4.053  10.120  0.3998  2.6818  0.9473
35334TIP3    H2 6885   3.115   4.109   9.986 -1.4372  1.2946 -0.2547
35335TIP3   OH2 6886   7.226  10.305   1.101  0.1436  0.1099  0.6728
35335TIP3    H1 6887   7.151  10.287   1.157 -0.4323  0.7746  0.1275
35335TIP3    H2 6888   7.279  10.225   1.107  0.0672  0.1476  2.0906
35336TIP3   OH2 6889   4.162   3.754   6.826 -0.7087  0.4360  0.4445
35336TIP3    H1 6890   4.168   3.699   6.905 -0.7318  1.8775  1.5033
35336TIP3    H2 6891   4.075   3.794   6.831 -0.9908 -0.0035 -0.7115
35337TIP3   OH2 6892  10.285   8.059   2.616 -0.0023  0.8428 -0.1735
35337TIP3    H1 6893  10.351   8.124   2.591  0.8477  0.0528 -0.0332
35337TIP3    H2 6894  10.325   8.010   2.688 -0.9359  0.6550  0.2325
35338TIP3   OH2 6895   0.594   9.701   0.718 -0.3038  0.1490  0.1973
35338TIP3    H1 6896   0.621   9.609   0.710 -0.3888 -0.0060  1.4274
35338TIP3    H2 6897   0.572   9.727   0.629  0.4013 -0.8099 -0.2822
35339TIP3   OH2 6898   1.063   1.699   5.797  0.2101 -0.1678 -0.5846
35339TIP3    H1 6899   1.039   1.719   5.707  1.9640  0.9205 -0.8586
35339TIP3    H2 6900   1.102   1.780   5.831  1.7210 -1.2358  0.3737
35340TIP3   OH2 6901  10.178   0.597   2.762 -0.2905  0.3289 -0.0247
35340TIP3    H1 6902  10.132   0.513   2.766  1.2556 -0.5159  1.8186
35340TIP3    H2 6903  10.214   0.601   2.674  0.4468 -1.4612  0.1572
35341TIP3   OH2 6904   8.666   0.628   0.639 -0.1497 -0.5279  0.6846
35341TIP3    H1 6905   8.742   0.625   0.581 -0.9870  2.2759 -0.7777
35341TIP3    H2 6906   8.593   0.598   0.584 -0.6491  0.3500  0.8381
35342TIP3   OH2 6907  10.328   2.644   6.311  0.1129 -0.6857 -0.1575
35342TIP3    H1 6908  10.320   2.549   6.320  1.0667 -0.7039  0.7379
35342TIP3    H2 6909  10.323   2.660   6.217 -0.7419 -1.5422 -0.2811
35343TIP3   OH2 6910  10.778   1.425   6.562 -0.1487  0.3512 -0.0984
35343TIP3    H1 6911  10.751   1.467   6.643 -2.0887  0.9844 -0.9905
35343TIP3    H2 6912  10.829   1.349   6.589 -1.3266  0.1541  1.7322
35344TIP3   OH2 6913   0.626   5.900   2.579  0.1870 -0.4263 -0.2104
35344TIP3    H1 6914   0.695   5.959   2.546  0.8584 -0.3161  1.3223
35344TIP3    H2 6915   0.651   5.883   2.669 -1.4874 -0.8971  0.1840
35345TIP3   OH2 6916   5.133   9.787   1.948  0.2051 -0.6907 -0.1901
35345TIP3    H1 6917   5.214   9.837   1.957 -0.9742  1.3674 -0.2411
35345TIP3    H2 6918   5.119   9.748   2.034  2.3969 -3.0983 -0.8030
35346TIP3   OH2 6919   2.759   3.575   2.700  0.0255 -0.1099 -0.1658
35346TIP3    H1 6920   2.828   3.601   2.760  0.9007  0.4451 -1.3700
35346TIP3    H2 6921   2.685   3.632   2.722  0.1314 -0.3208  0.7572
35347TIP3   OH2 6922  10.508   9.737   9.242  0.5360  0.0349  0.4078
35347TIP3    H1 6923  10.554   9.774   9.166  0.5658 -0.4338  0.1937
35347TIP3    H2 6924  10.536   9.646   9.245 -0.5974 -0.3440  0.0886
35348TIP3   OH2 6925   5.761   0.794   5.096  0.0022 -0.3109 -0.6939
35348TIP3    H1 6926   5.843   0.744   5.097  0.1816 -0.0317 -1.2217
35348TIP3    H2 6927   5.787   0.882   5.068 -0.4470 -0.1585 -0.6419
35349TIP3   OH2 6928   4.197   0.216   2.629  0.5296  0.2593 -0.4762
35349TIP3    H1 6929   4.272   0.274   2.616 -0.0745  0.7410 -2.1162
35349TIP3    H2 6930   4.121   0.274   2.626  0.0553 -0.2409  1.0102
35350TIP3   OH2 6931   7.357   2.798   7.009 -0.1265  0.0741 -0.2341
35350TIP3    H1 6932   7.331   2.715   6.969 -0.3395 -0.4771  1.0018
35350TIP3    H2 6933   7.295   2.862   6.974 -1.2036 -0.6593  0.2569
35351TIP3   OH2 6934   0.910  10.205   9.845  0.2977  0.0871  0.5209
35351TIP3    H1 6935   0.937  10.233   9.932  0.8538 -1.4575  0.8759
35351TIP3    H2 6936   0.879  10.116   9.856  0.2171 -0.0849 -0.8350
35352TIP3   OH2 6937   7.081   9.279   8.589  0.1326  0.4565 -0.2433
35352TIP3    H1 6938   7.025   9.285   8.512  1.8021  2.4137 -1.4224
35352TIP3    H2 6939   7.160   9.235   8.558  0.6248  0.8283  0.4426
35353TIP3   OH2 6940   3.759   0.747   7.525 -0.3064 -0.6776 -0.2000
35353TIP3    H1 6941   3.745   0.654   7.541  0.7435 -0.7286  0.5388
35353TIP3    H2 6942   3.785   0.783   7.610  1.7154 -0.2200 -0.9500
35354TIP3   OH2 6943   5.803   9.917   8.004 -1.0062  0.9034  0.4030
35354TIP3    H1 6944   5.792   9.823   8.018  1.5123  0.5333  0.3204
35354TIP3    H2 6945   5.867   9.944   8.069 -1.9396  2.6865  0.6523
35355TIP3   OH2 6946   2.110   9.054   7.949  0.2682  0.1719  0.7042
35355TIP3    H1 6947   2.132   9.146   7.933  0.8130  0.2968  2.0477
35355TIP3    H2 6948   2.120   9.012   7.864  1.6679  1.0294  0.4112
35356TIP3   OH2 6949   9.043   7.766   9.481 -0.5483  0.1799  0.3932
35356TIP3    H1 6950   8.975   7.704   9.454  0.2929 -0.2563 -0.8246
35356TIP3    H2 6951   9.009   7.852   9.455 -0.6985 -0.0258 -0.1018
35357TIP3   OH2 6952   3.165   2.692   6.030  0.3752 -0.3536 -0.3695
35357TIP3    H1 6953   3.160   2.652   6.116  0.3641  1.3925  0.4921
35357TIP3    H2 6954   3.251   2.666   5.996  0.5394 -0.7523  0.3367
35358TIP3   OH2 6955   1.887   4.272   0.418  0.2609  1.0839  0.4421
35358TIP3    H1 6956   1.975   4.253   0.448  0.6510  1.5332 -0.3931
35358TIP3    H2 6957   1.895   4.284   0.323 -0.6695  1.2354  0.3680
35359TIP3   OH2 6958   5.386  10.827   4.894  0.0975  0.8194  0.4526
35359TIP3    H1 6959   5.302  10.819   4.849 -0.0730 -0.9903  1.0423
35359TIP3    H2 6960   5.364  10.866   4.978 -0.3325 -0.5884  1.0205
35360TIP3   OH2 6961   3.665   1.255   4.496 -0.1543 -0.3958 -0.4625
35360TIP3    H1 6962   3.747   1.253   4.546  0.1556 -1.0271 -0.9706
35360TIP3    H2 6963   3.612   1.322   4.538  2.2365  3.1807 -2.6122
35361TIP3   OH2 6964   3.863   4.256   4.620 -0.5292  0.0013  0.2925
35361TIP3    H1 6965   3.817   4.333   4.654 -3.2879 -1.0225 -0.8751
35361TIP3    H2 6966   3.874   4.275   4.527  0.4573 -0.2673  0.3465
35362TIP3   OH2 6967   4.553   9.741   6.308 -0.3658 -0.3558 -0.5032
35362TIP3    H1 6968   4.634   9.786   6.284 -0.1137 -0.6669 -0.2382
35362TIP3    H2 6969   4.555   9.737   6.404 -0.7938 -0.1831 -0.4824
35363TIP3   OH2 6970   6.754   1.486  10.286 -0.1955  0.1553 -0.3031
35363TIP3    H1 6971   6.702   1.469  10.364  1.9088 -2.1555  0.7267
35363TIP3    H2 6972   6.740   1.409  10.231 -0.3052  0.9661 -1.4550
35364TIP3   OH2 6973   0.565   8.375   0.537 -0.3401 -0.5440  0.1565
35364TIP3    H1 6974   0.473   8.394   0.555 -0.0943  1.8899 -0.8239
35364TIP3    H2 6975   0.600   8.348   0.622 -1.7256 -0.6039  0.7440
35365TIP3   OH2 6976   7.512   4.030  10.669  0.2054  0.3577  0.0695
35365TIP3    H1 6977   7.420   4.054  10.685 -0.6772 -2.0895 -0.7800
35365TIP3    H2 6978   7.527   4.056  10.578  0.1580  0.2169  0.0212
35366TIP3   OH2 6979  10.381   4.078   7.868  0.3224 -0.3532 -0.2764
35366TIP3    H1 6980  10.333   4.004   7.906  0.5938  0.7674  2.4259
35366TIP3    H2 6981  10.347   4.084   7.779 -0.6679 -2.8894 -0.1669
35367TIP3   OH2 6982   8.836   0.704   0.999 -0.7222 -0.1864  0.1919
35367TIP3    H1 6983   8.768   0.771   1.012  0.5912  1.0896  0.8097
35367TIP3    H2 6984   8.911   0.752   0.964 -0.1738 -1.5908 -0.6487
35368TIP3   OH2 6985   0.585   1.335   2.218 -0.1552 -0.3263 -0.0732
35368TIP3    H1 6986   0.677   1.340   2.244 -0.8908 -0.9764  3.1133
35368TIP3    H2 6987   0.564   1.242   2.221 -0.5482 -0.4062 -2.6445
35369TIP3   OH2 6988   0.985   3.333   9.536 -0.0708 -0.0482  0.4353
35369TIP3    H1 6989   0.964   3.420   9.502 -1.5217 -0.4134  0.3251
35369TIP3    H2 6990   0.973   3.275   9.461 -1.2493 -0.5983  1.0255
35370TIP3   OH2 6991   7.829   7.278   9.501 -0.0535 -0.0429  0.1329
35370TIP3    H1 6992   7.837   7.185   9.480  1.0398  0.1807 -0.5126
35370TIP3    H2 6993   7.739   7.288   9.530  0.4051 -1.7385  2.4425
35371TIP3   OH2 6994   3.165   5.979   8.913  0.2434  0.2798  0.3434
35371TIP3    H1 6995   3.235   5.937   8.964  0.1999 -0.5860 -0.2952
35371TIP3    H2 6996   3.090   5.920   8.921  0.3981 -0.1699 -1.1585
35372TIP3   OH2 6997   9.619   7.114   9.303 -0.2498 -0.0187 -0.0694
35372TIP3    H1 6998   9.568   7.056   9.359  0.7855  0.5059  1.4599
35372TIP3    H2 6999   9.640   7.188   9.359  0.9291  0.4659 -1.1276
35373TIP3   OH2 7000   4.370  10.739   3.604 -0.0028 -0.1453 -0.6103
35373TIP3    H1 7001   4.382  10.711   3.695  0.7900  1.3967 -0.2015
35373TIP3    H2 7002   4.288  10.699   3.577 -0.2810 -0.5808  0.8068
35374TIP3   OH2 7003   1.033  10.111  10.853  0.1430 -0.5089 -0.1972
35374TIP3    H1 7004   1.065  10.180  10.911  0.5423 -1.7540  1.1269
35374TIP3    H2 7005   0.985  10.158  10.785  0.7993  1.0947  0.3854
35375TIP3   OH2 7006   5.195  10.643   0.593  0.6518  0.8763  0.2297
35375TIP3    H1 7007   5.150  10.701   0.655 -1.5077  1.7662 -2.0213
35375TIP3    H2 7008   5.128  10.580   0.566  1.1953  1.1713 -1.9447
35376TIP3   OH2 7009   9.296   4.746   2.340  0.1790  0.0034 -0.4045
35376TIP3    H1 7010   9.329   4.821   2.291 -0.8314  0.4575 -0.4273
35376TIP3    H2 7011   9.200   4.755   2.335  0.0414 -0.0049  1.5260
35377TIP3   OH2 7012   4.895   9.128  10.221 -0.0712 -0.2588  0.1308
35377TIP3    H1 7013   4.972   9.081  10.252 -0.1411 -0.5332 -0.1140
35377TIP3    H2 7014   4.859   9.074  10.151  0.4737  0.6874 -0.9243
35378TIP3   OH2 7015   1.464   6.969   1.334 -0.2798  0.1980  0.0242
35378TIP3    H1 7016   1.494   7.055   1.306 -0.0099  0.7724  1.9033
35378TIP3    H2 7017   1.484   6.966   1.428  0.6106 -2.3021 -0.1633
35379TIP3   OH2 7018   6.822   0.850   0.990  0.2890 -0.3956 -0.0554
35379TIP3    H1 7019   6.822   0.760   0.956  1.7189 -1.3891  2.3152
35379TIP3    H2 7020   6.751   0.851   1.055  0.7304 -0.0447  0.4306
35380TIP3   OH2 7021   9.878   3.640  10.437  0.4032 -0.2065  0.7660
35380TIP3    H1 7022   9.888   3.546  10.419 -1.1916 -0.3854  0.7271
35380TIP3    H2 7023   9.966   3.676  10.421  0.8541 -1.5568  0.0010
35381TIP3   OH2 7024   6.985   0.119   5.238 -0.0755 -0.0458 -0.0614
35381TIP3    H1 7025   6.997   0.081   5.325  0.7130  0.3668  0.0200
35381TIP3    H2 7026   7.055   0.082   5.186 -0.6058 -0.3660 -0.5565
35382TIP3   OH2 7027   3.877   4.447  10.333  0.2133 -0.1699  0.4110
35382TIP3    H1 7028   3.844   4.389  10.265 -2.2818  0.3521  1.0962
35382TIP3    H2 7029   3.801   4.497  10.362  2.0966  3.0155  0.3162
35383TIP3   OH2 7030   6.102   6.710   4.896 -0.6538  0.5608  0.7199
35383TIP3    H1 7031   6.155   6.631   4.910  0.1066  0.5306 -1.8375
35383TIP3    H2 7032   6.144   6.777   4.950  1.2551  0.1967 -0.2279
35384TIP3   OH2 7033   3.280   3.664   6.108 -0.3515  0.0368  0.6003
35384TIP3    H1 7034   3.237   3.614   6.038 -0.6864 -0.5199  1.1943
35384TIP3    H2 7035   3.367   3.684   6.074 -0.3348 -0.6639  0.2264
35385TIP3   OH2 7036   6.448   7.744   5.980  0.1024  0.2480 -0.3621
35385TIP3    H1 7037   6.424   7.724   6.071  1.7405 -0.7610 -0.1109
35385TIP3    H2 7038   6.395   7.821   5.958 -2.0445 -0.8480  0.6485
35386TIP3   OH2 7039   0.976   7.819   3.735 -0.1038 -0.2387  0.3130
35386TIP3    H1 7040   0.922   7.741   3.724 -0.3920 -0.0879  0.6382
35386TIP3    H2 7041   0.921   7.890   3.703  0.1524 -0.1688  0.0333
35387TIP3   OH2 7042   0.723  10.879   4.033 -0.0126  0.2514 -0.3013
35387TIP3    H1 7043   0.637  10.860   4.070  0.5189 -0.0214  0.8373
35387TIP3    H2 7044   0.757  10.951   4.086  0.8908 -0.3514 -0.0336
35388TIP3   OH2 7045   6.803  10.309   2.552  0.2330 -0.0274 -0.1586
35388TIP3    H1 7046   6.886  10.330   2.509  1.2402 -1.0856  1.2056
35388TIP3    H2 7047   6.751  10.389   2.542  0.9188  0.2520 -2.0733
35389TIP3   OH2 7048   4.978   6.858   9.387 -0.6456 -0.4965 -0.3891
35389TIP3    H1 7049   4.951   6.898   9.305  0.2840  1.5340  0.2252
35389TIP3    H2 7050   4.897   6.853   9.439 -0.9121 -0.0937 -0.7615
35390TIP3   OH2 7051   3.270   4.251   9.216 -0.2252 -0.7358  0.4591
35390TIP3    H1 7052   3.246   4.169   9.174  3.2770 -0.8559 -1.6420
35390TIP3    H2 7053   3.365   4.247   9.226 -0.0891  2.4363  1.7136
35391TIP3   OH2 7054   8.790   4.675   0.671  0.0081  0.1065  0.1524
35391TIP3    H1 7055   8.723   4.608   0.657  0.9399 -0.8731  0.2778
35391TIP3    H2 7056   8.795   4.686   0.766  0.7385 -0.5902  0.2081
35392TIP3   OH2 7057   5.710   7.859   8.711 -0.2557  0.1550  0.2282
35392TIP3    H1 7058   5.753   7.937   8.747 -0.1691 -0.6881  2.0356
35392TIP3    H2 7059   5.644   7.836   8.776 -0.3726 -1.1930 -0.3453
35393TIP3   OH2 7060   7.856   3.703   3.572 -0.1561 -0.1040  0.4453
35393TIP3    H1 7061   7.917   3.695   3.499 -0.5202  1.0638 -0.0020
35393TIP3    H2 7062   7.905   3.749   3.640 -0.4411  0.6259  0.1712
35394TIP3   OH2 7063   8.360   4.679   5.765  0.1435  0.3537  0.3942
35394TIP3    H1 7064   8.390   4.606   5.820 -0.7966 -1.0477 -0.8760
35394TIP3    H2 7065   8.433   4.741   5.767  0.2192  0.3165  3.0521
35395TIP3   OH2 7066   1.368   1.535   1.125 -0.2216 -0.6916  0.6482
35395TIP3    H1 7067   1.280   1.567   1.146 -0.3080  0.8672 -1.7021
35395TIP3    H2 7068   1.359   1.491   1.041  1.0087 -1.9018  1.1037
35396TIP3   OH2 7069   7.780   0.580   9.005  0.0251 -0.1872  0.1673
35396TIP3    H1 7070   7.848   0.520   8.974  1.4034  1.7275 -0.7844
35396TIP3    H2 7071   7.755   0.548   9.091  0.6266 -2.1392 -0.3507
35397TIP3   OH2 7072   7.699   1.873   0.110 -0.3205 -0.2867  0.0470
35397TIP3    H1 7073   7.721   1.933   0.181  2.2419 -1.5733  0.4662
35397TIP3    H2 7074   7.781   1.858   0.064 -0.5777 -3.9281  0.4056
35398TIP3   OH2 7075   7.767   5.581   3.069 -0.3485  0.3832 -0.2355
35398TIP3    H1 7076   7.694   5.582   3.131  0.0577  0.4613  0.2516
35398TIP3    H2 7077   7.819   5.658   3.092 -0.1279  0.3461 -0.5990
35399TIP3   OH2 7078   0.986   9.993   3.953  0.1360 -0.0402 -0.2672
35399TIP3    H1 7079   1.018   9.917   3.904 -0.4142  0.1585 -0.9398
35399TIP3    H2 7080   0.891   9.982   3.955  0.1616 -0.2491  1.1043
35400TIP3   OH2 7081   6.832   4.060   1.388  0.2901  0.3787 -0.1744
35400TIP3    H1 7082   6.863   4.044   1.299 -0.2191  0.5104 -0.3793
35400TIP3    H2 7083   6.887   4.130   1.421  0.0794  0.7526 -0.6077
35401TIP3   OH2 7084   5.250   5.130   1.224  0.1314  0.3936 -0.0988
35401TIP3    H1 7085   5.306   5.189   1.174 -0.6693  0.1442 -1.3460
35401TIP3    H2 7086   5.211   5.184   1.292  0.8407  0.8725 -0.0698
35402TIP3   OH2 7087   1.246   3.088  10.806  0.6442  0.0185  0.4169
35402TIP3    H1 7088   1.251   3.048  10.720  1.9544 -0.7267  0.8138
35402TIP3    H2 7089   1.315   3.155  10.806  1.0891 -0.4263  1.0946
35403TIP3   OH2 7090   3.190   8.755   8.382 -0.2797  0.6871 -0.0815
35403TIP3    H1 7091   3.276   8.794   8.393  0.4516 -0.7427 -0.4866
35403TIP3    H2 7092   3.205   8.679   8.326 -1.9868  1.0205 -1.0641
35404TIP3   OH2 7093   3.084   4.457   9.205  0.1154  0.5111  0.5800
35404TIP3    H1 7094   3.001   4.410   9.195  0.2579  0.1999  0.8737
35404TIP3    H2 7095   3.148   4.390   9.225  0.1111  0.9470  2.1280
35405TIP3   OH2 7096  10.830  10.677   2.339  0.0351  0.4877 -0.2987
35405TIP3    H1 7097  10.823  10.735   2.263 -0.8618  1.3316  0.4036
35405TIP3    H2 7098  10.773  10.717   2.405  1.0596 -0.0272  0.9483
35406TIP3   OH2 7099   3.222   5.500   6.744 -0.2857 -0.2660 -0.6458
35406TIP3    H1 7100   3.131   5.498   6.715 -0.2910  0.8244 -0.7298
35406TIP3    H2 7101   3.218   5.470   6.835 -0.6401 -0.8564 -0.8520
35407TIP3   OH2 7102  10.121   7.686   7.921 -0.2766  0.6322 -0.2751
35407TIP3    H1 7103  10.125   7.681   8.017 -2.2382  0.8861 -0.1530
35407TIP3    H2 7104  10.176   7.614   7.892  0.1784  0.4134  1.0419
35408TIP3   OH2 7105   3.674   9.855   0.296 -0.3220 -0.4111 -0.4550
35408TIP3    H1 7106   3.685   9.918   0.226  2.7319 -1.5108 -1.0756
35408TIP3    H2 7107   3.743   9.875   0.359 -0.1881 -2.2017  0.0417
35409TIP3   OH2 7108   8.215   4.523   5.087  0.0889  0.0427 -0.0358
35409TIP3    H1 7109   8.269   4.446   5.070  0.3868  0.2388  0.0073
35409TIP3    H2 7110   8.168   4.503   5.168  1.5778  0.6481  1.0248
35410TIP3   OH2 7111   9.492  10.347   3.217 -0.3407  0.2796 -0.1334
35410TIP3    H1 7112   9.490  10.428   3.166  1.5038  0.0460 -0.6407
35410TIP3    H2 7113   9.400  10.326   3.231 -0.8731  1.8610 -0.9417
35411TIP3   OH2 7114   7.136   4.608   3.270  0.2656  0.2627  0.4830
35411TIP3    H1 7115   7.198   4.626   3.199  0.7750  4.1617  1.6767
35411TIP3    H2 7116   7.188   4.617   3.350 -0.9964 -0.8000  1.4719
35412TIP3   OH2 7117  10.157   7.374   0.115 -0.1514  0.1687  0.0502
35412TIP3    H1 7118  10.173   7.438   0.184  1.2888 -0.6154  0.4743
35412TIP3    H2 7119  10.063   7.357   0.120 -0.0020 -0.3459  2.2613
35413TIP3   OH2 7120   5.089   3.008   6.622  0.0593  0.3235 -0.1428
35413TIP3    H1 7121   5.165   2.981   6.571  0.3046  0.7880 -0.0294
35413TIP3    H2 7122   5.024   3.035   6.558 -1.0096 -2.4938 -0.3965
35414TIP3   OH2 7123   9.675   7.974   2.246  0.1993  0.1101 -0.0503
35414TIP3    H1 7124   9.645   7.884   2.241  0.7588 -0.0459 -1.0417
35414TIP3    H2 7125   9.771   7.967   2.247  0.3371  0.7188 -2.5243
35415TIP3   OH2 7126   8.795   3.462   0.462  0.3540  0.0589  0.5557
35415TIP3    H1 7127   8.880   3.423   0.441  0.7520  0.9792  0.4052
35415TIP3    H2 7128   8.809   3.508   0.544 -0.9343 -2.6504  2.4395
35416TIP3   OH2 7129   5.283   8.337   0.091  0.0921  0.2166 -0.5358
35416TIP3    H1 7130   5.330   8.356   0.010  0.5300  1.0940 -0.0916
35416TIP3    H2 7131   5.330   8.263   0.129  0.8891  0.8267 -0.2992
35417TIP3   OH2 7132  10.894   4.737   6.902 -0.4488 -0.1496  0.3528
35417TIP3    H1 7133  10.967   4.789   6.937  0.3006 -0.7828 -0.2317
35417TIP3    H2 7134  10.857   4.792   6.833  0.7097 -0.6062 -0.6640
35418TIP3   OH2 7135   2.542   7.908   2.091 -0.6584 -0.3030  0.1104
35418TIP3    H1 7136   2.542   7.949   2.005  0.0534 -0.4279  0.0391
35418TIP3    H2 7137   2.525   7.815   2.073 -0.0968 -0.4000  0.0581
35419TIP3   OH2 7138   8.702   5.834   1.340  0.3530 -0.2135 -0.3507
35419TIP3    H1 7139   8.634   5.885   1.384  2.1782  2.2710 -0.1502
35419TIP3    H2 7140   8.710   5.875   1.254  1.0576 -0.9769 -0.6648
35420TIP3   OH2 7141   2.443   1.982   7.431 -0.3061 -0.0814 -0.1628
35420TIP3    H1 7142   2.388   1.904   7.439 -2.1496  1.0384 -1.3681
35420TIP3    H2 7143   2.411   2.041   7.499  0.3330  0.0769  0.0081
35421TIP3   OH2 7144   7.008   2.559  10.543 -0.1083  0.0348 -0.6553
35421TIP3    H1 7145   7.049   2.496  10.483  0.8011  0.0534 -0.0688
35421TIP3    H2 7146   6.996   2.510  10.624  0.9955  0.7172 -0.0546
35422TIP3   OH2 7147   7.905   6.133   7.841  0.4437 -0.8136  0.2877
35422TIP3    H1 7148   7.963   6.117   7.916  0.0621 -1.2325  0.4965
35422TIP3    H2 7149   7.947   6.086   7.769 -0.3444 -2.2881  0.7571
35423TIP3   OH2 7150   3.095   4.468   9.513 -0.0062  0.4218 -0.0275
35423TIP3    H1 7151   3.058   4.523   9.583  3.9542  0.7072  2.1036
35423TIP3    H2 7152   3.105   4.527   9.439 -0.5286  1.1898  0.4960
35424TIP3   OH2 7153   6.994  10.704   5.233  0.2572  0.5186  0.0453
35424TIP3    H1 7154   6.911  10.731   5.195 -1.1155 -0.6821  2.0307
35424TIP3    H2 7155   7.022  10.779   5.286 -0.4114  0.3163  0.6890
35425TIP3   OH2 7156   2.900   7.879   0.622 -0.2550 -0.1547 -0.1356
35425TIP3    H1 7157   2.831   7.929   0.579 -0.7438  1.0418  1.8812
35425TIP3    H2 7158   2.974   7.939   0.627  1.0401 -1.4406 -2.3047
35426TIP3   OH2 7159   8.838   0.214   2.207 -0.0544 -0.1485  0.0242
35426TIP3    H1 7160   8.775   0.281   2.235  0.5478  0.6004 -0.3784
35426TIP3    H2 7161   8.785   0.150   2.160 -0.3544  1.1590 -1.5166
35427TIP3   OH2 7162   3.258   5.897   2.910  0.3327 -0.2194 -0.2807
35427TIP3    H1 7163   3.234   5.832   2.977  0.9343 -1.0055 -0.8140
35427TIP3    H2 7164   3.330   5.946   2.950  0.7152 -0.7115 -0.3503
35428TIP3   OH2 7165   1.316   3.049   3.558  0.7063  0.0700 -0.2959
35428TIP3    H1 7166   1.233   3.032   3.602  0.0909  0.5975 -1.2234
35428TIP3    H2 7167   1.380   2.998   3.607 -0.2084 -0.5683  0.2627
35429TIP3   OH2 7168   6.383  10.481   7.446  0.2836 -0.1442  0.5210
35429TIP3    H1 7169   6.371  10.418   7.375  0.7499  0.3889 -0.0428
35429TIP3    H2 7170   6.301  10.530   7.449  0.2155 -0.2536  0.4316
35430TIP3   OH2 7171   1.723  10.641   1.172 -0.1530  0.3704 -0.2607
35430TIP3    H1 7172   1.761  10.686   1.096  2.0285  1.1320  1.1864
35430TIP3    H2 7173   1.798  10.620   1.227 -1.7311  0.9285  2.2664
35431TIP3   OH2 7174   2.196   5.398   6.487 -0.1266  0.1013 -0.5396
35431TIP3    H1 7175   2.135   5.468   6.509  0.4882  0.3354  0.4646
35431TIP3    H2 7176   2.142   5.331   6.444 -1.1569  0.1225  0.6776
35432TIP3   OH2 7177   7.061   1.723   0.796  0.2060 -0.7376 -0.2722
35432TIP3    H1 7178   7.151   1.715   0.766  1.1571  2.2047  1.4642
35432TIP3    H2 7179   7.061   1.683   0.883 -0.1269 -0.4934 -0.1575
35433TIP3   OH2 7180  10.400   7.039   7.090 -0.1966  0.5056  0.4411
35433TIP3    H1 7181  10.441   7.054   7.175 -2.0103  0.8434  1.3022
35433TIP3    H2 7182  10.413   7.121   7.042 -1.0580  1.1232  1.2339
35434TIP3   OH2 7183   9.752   4.896   4.755 -0.0737 -0.4056 -0.7810
35434TIP3    H1 7184   9.795   4.813   4.777  1.4720  0.8544  1.3107
35434TIP3    H2 7185   9.710   4.923   4.836  1.3810  1.9370 -0.7233
35435TIP3   OH2 7186   7.251   3.390   0.449 -0.3377 -0.4544  0.3606
35435TIP3    H1 7187   7.283   3.397   0.539 -0.1318 -2.0959  0.4358
35435TIP3    H2 7188   7.198   3.311   0.448 -0.9947 -0.0284 -0.7890
35436TIP3   OH2 7189  10.592   8.546   0.951 -0.2254 -0.4085 -0.2234
35436TIP3    H1 7190  10.672   8.598   0.962 -0.1806 -0.7086  0.9431
35436TIP3    H2 7191  10.521   8.610   0.954 -0.0373 -0.1113 -1.4944
35437TIP3   OH2 7192   5.165   8.583   0.459 -0.0919  0.2982 -0.5173
35437TIP3    H1 7193   5.156   8.678   0.461  0.2645  0.3257  0.8420
35437TIP3    H2 7194   5.185   8.562   0.368  0.3400  1.5657 -0.7257
35438TIP3   OH2 7195  10.541   9.871   9.819  0.3758  0.2824  0.2544
35438TIP3    H1 7196  10.499   9.806   9.875  0.4312 -0.3621 -0.4421
35438TIP3    H2 7197  10.577   9.935   9.880  2.5500 -1.6317  1.1078
35439TIP3   OH2 7198   9.791   0.975   4.740  0.0687  0.7487 -0.1710
35439TIP3    H1 7199   9.760   0.900   4.689  1.5882 -0.5168  0.6897
35439TIP3    H2 7200   9.711   1.014   4.776 -0.6900 -1.0681  0.1940
35440TIP3   OH2 7201   9.920   6.455   9.766  0.5016 -0.8406 -0.4381
35440TIP3    H1 7202   9.995   6.408   9.802  0.1076 -1.0189  0.1759
35440TIP3    H2 7203   9.924   6.542   9.805 -0.1975 -1.1874  0.4443
35441TIP3   OH2 7204  10.030   0.507   6.799 -0.1266  0.7474  0.3654
35441TIP3    H1 7205  10.071   0.581   6.843  0.8801  0.9894 -0.9240
35441TIP3    H2 7206  10.045   0.522   6.706  1.7407 -1.9532  0.0924
35442TIP3   OH2 7207   2.905   3.362   2.342 -0.9615  0.0605 -0.0221
35442TIP3    H1 7208   2.988   3.403   2.365 -1.1440 -0.0799  0.9346
35442TIP3    H2 7209   2.842   3.397   2.405 -1.6845  0.3302 -0.8689
35443TIP3   OH2 7210   8.542   8.171   3.285  0.2285 -0.4728  0.3682
35443TIP3    H1 7211   8.569   8.126   3.365  1.5227 -0.3979  0.0079
35443TIP3    H2 7212   8.493   8.105   3.236 -2.7042  0.1693  2.2193
35444TIP3   OH2 7213   7.902   4.153   0.627  0.2377 -0.0262 -0.6206
35444TIP3    H1 7214   7.824   4.100   0.615 -1.2698  1.8354  0.3443
35444TIP3    H2 7215   7.957   4.101   0.686 -0.9037 -0.7987 -0.1950
35445TIP3   OH2 7216  10.503   7.322   6.507 -0.6640  0.6899 -0.7494
35445TIP3    H1 7217  10.567   7.358   6.568  0.3144 -1.9533 -0.0493
35445TIP3    H2 7218  10.435   7.285   6.564 -1.3589  0.9722 -1.3858
35446TIP3   OH2 7219   0.683   2.125   5.555 -0.5566  0.3101 -0.4009
35446TIP3    H1 7220   0.727   2.209   5.566 -0.3121  0.3919 -1.7848
35446TIP3    H2 7221   0.603   2.146   5.506 -1.7174  0.0445  1.3135
35447TIP3   OH2 7222   0.251  10.261   5.949 -0.9200 -0.1895  0.2926
35447TIP3    H1 7223   0.252  10.267   5.854 -1.2779 -0.4847  0.2667
35447TIP3    H2 7224   0.303  10.184   5.970  1.4396  1.3545  0.4900
35448TIP3   OH2 7225   4.376   9.254   8.214  0.3262  0.0194 -0.2306
35448TIP3    H1 7226   4.295   9.205   8.229  0.5163  0.2445  1.7449
35448TIP3    H2 7227   4.446   9.194   8.239  0.5842  1.0790  1.7440
35449TIP3   OH2 7228   5.930   9.239   2.433 -0.1932  0.2949 -0.0950
35449TIP3    H1 7229   5.871   9.282   2.495  1.5846  0.1778  1.7883
35449TIP3    H2 7230   5.958   9.159   2.478  1.1672  0.2084 -1.0373
35450TIP3   OH2 7231   0.553   7.332   5.110  0.0851 -0.4759 -0.1485
35450TIP3    H1 7232   0.574   7.257   5.054 -0.4116 -0.7717  0.0539
35450TIP3    H2 7233   0.457   7.335   5.112  0.0763  0.9677 -1.2022
35451TIP3   OH2 7234   1.084   8.944   0.573 -0.5935  0.0317  0.0068
35451TIP3    H1 7235   1.141   8.900   0.636 -0.4931  0.4547  0.2145
35451TIP3    H2 7236   1.074   9.032   0.607 -1.2893 -0.0039 -0.0941
35452TIP3   OH2 7237   8.947   8.634   1.666 -0.2444 -0.0712 -0.0470
35452TIP3    H1 7238   8.946   8.660   1.574 -0.2618  1.4147  0.3376
35452TIP3    H2 7239   8.908   8.709   1.712  1.6638  0.1122  1.3720
35453TIP3   OH2 7240   8.156   6.703   5.645 -1.1088  0.0635 -0.3797
35453TIP3    H1 7241   8.215   6.652   5.589 -2.3741 -1.0239 -0.7835
35453TIP3    H2 7242   8.070   6.694   5.603 -1.9635 -0.2173  1.3543
35454TIP3   OH2 7243   8.442   2.040   5.155 -0.0650 -0.0072 -0.1493
35454TIP3    H1 7244   8.415   1.969   5.213 -1.3047  1.5995  1.3441
35454TIP3    H2 7245   8.406   2.016   5.069 -0.5703 -1.1097  0.3505
35455TIP3   OH2 7246   7.670   3.045   2.712 -0.0028  0.0030  0.1033
35455TIP3    H1 7247   7.608   2.988   2.759  0.0551 -1.6089 -1.6561
35455TIP3    H2 7248   7.725   3.082   2.781 -0.4593 -1.5905  1.3969
35456TIP3   OH2 7249   6.098   4.232   5.957  0.1441  0.0969 -0.1924
35456TIP3    H1 7250   6.107   4.191   5.871  1.0775 -1.5876  0.6574
35456TIP3    H2 7251   6.037   4.176   6.004  0.3088  0.5108  0.5227
35457TIP3   OH2 7252   9.284   7.147   1.889  0.0003 -0.1850 -0.4109
35457TIP3    H1 7253   9.256   7.238   1.891  0.7238  0.0312  0.0465
35457TIP3    H2 7254   9.248   7.109   1.969  1.1801  0.1547  0.3044
35458TIP3   OH2 7255   6.657   9.098   0.909 -0.5063  0.1917  0.6632
35458TIP3    H1 7256   6.630   9.133   0.994  1.5381 -0.2367  1.5461
35458TIP3    H2 7257   6.728   9.155   0.880  2.2570 -2.4587  1.6767
35459TIP3   OH2 7258   1.327   6.949   8.676 -0.2278 -0.5620  0.0329
35459TIP3    H1 7259   1.361   6.975   8.761 -1.3473 -2.7972  1.2545
35459TIP3    H2 7260   1.272   7.023   8.648  0.1712  0.2099  1.2321
35460TIP3   OH2 7261   4.968   7.400   4.872 -0.1516  0.3030  0.7700
35460TIP3    H1 7262   4.964   7.349   4.953  0.5312  1.1491  1.3497
35460TIP3    H2 7263   5.003   7.338   4.807  1.6214  0.2809  1.7000
35461TIP3   OH2 7264   8.644  10.491   7.691 -1.0258  0.2296  0.1947
35461TIP3    H1 7265   8.580  10.498   7.762 -0.0780  1.1520  0.9911
35461TIP3    H2 7266   8.673  10.581   7.676  0.4827 -0.2190  0.2472
35462TIP3   OH2 7267   9.375   1.263   8.198  0.2157  0.2551  0.2827
35462TIP3    H1 7268   9.280   1.278   8.197  0.5151  3.0329  1.9386
35462TIP3    H2 7269   9.409   1.327   8.136  1.0728  0.0306  0.5184
35463TIP3   OH2 7270   2.223   7.285   2.722 -0.0145 -0.1887 -0.2644
35463TIP3    H1 7271   2.286   7.351   2.749 -0.2007  0.2809 -0.9559
35463TIP3    H2 7272   2.275   7.207   2.703  0.1960 -0.2848  0.6459
35464TIP3   OH2 7273   4.969   1.129   0.125  0.9553  0.3934  0.6832
35464TIP3    H1 7274   4.949   1.200   0.063 -0.6167 -0.6959 -0.1270
35464TIP3    H2 7275   4.955   1.049   0.075  2.4141 -0.5270  1.6708
35465TIP3   OH2 7276   1.896   8.301   2.630  0.0051 -0.2017 -0.2381
35465TIP3    H1 7277   1.890   8.391   2.598 -0.8567 -0.5869 -1.2386
35465TIP3    H2 7278   1.957   8.257   2.570  2.0046  0.1599  1.4223
35466TIP3   OH2 7279   5.723   8.233   6.879 -0.0310  0.2256 -0.1202
35466TIP3    H1 7280   5.727   8.176   6.802 -1.0959  0.2775 -0.2268
35466TIP3    H2 7281   5.810   8.272   6.884  0.5555 -1.0229 -0.3402
35467TIP3   OH2 7282   6.315   9.169   6.789  0.2929  0.1220  0.2233
35467TIP3    H1 7283   6.260   9.217   6.727 -0.8060  0.6022  1.5304
35467TIP3    H2 7284   6.273   9.083   6.796  0.9744 -0.2828 -0.3922
35468TIP3   OH2 7285   6.388   9.401   9.427  0.4059  0.1531  0.0346
35468TIP3    H1 7286   6.465   9.367   9.474  1.5869  1.6104 -0.7410
35468TIP3    H2 7287   6.371   9.486   9.468  1.5170  1.5069 -2.0817
35469TIP3   OH2 7288   7.059   7.248   2.731 -0.6287  0.0339 -0.0907
35469TIP3    H1 7289   6.991   7.184   2.754 -2.1273  1.5691 -0.0695
35469TIP3    H2 7290   7.016   7.333   2.740  0.9303  1.0108 -1.3607
35470TIP3   OH2 7291  10.089   1.013  10.830  0.2678 -0.5112  0.3390
35470TIP3    H1 7292  10.057   1.048  10.913  0.2813 -0.9446  0.5278
35470TIP3    H2 7293  10.057   1.075  10.764  0.2784 -0.1515  0.6668
35471TIP3   OH2 7294   2.521   3.963   4.283 -0.3268 -0.3351  1.2118
35471TIP3    H1 7295   2.545   3.903   4.212  2.0174 -0.2680  1.8980
35471TIP3    H2 7296   2.500   3.905   4.357  0.1247 -0.3458  1.3317
35472TIP3   OH2 7297   4.787  10.368   9.931 -0.3878  0.3018  0.2875
35472TIP3    H1 7298   4.805  10.303   9.999 -1.3799  1.3865  1.6700
35472TIP3    H2 7299   4.852  10.351   9.863  1.8366  0.2558  2.2839
35473TIP3   OH2 7300   3.823   4.523   1.796  0.2281 -0.4244  0.5706
35473TIP3    H1 7301   3.738   4.525   1.752  0.1144  0.5282  0.8210
35473TIP3    H2 7302   3.803   4.543   1.888  0.5865 -1.3693  0.8660
35474TIP3   OH2 7303   2.533   1.455   0.756  0.2061  0.3993  0.2368
35474TIP3    H1 7304   2.584   1.501   0.689 -0.5885 -2.6718 -2.7562
35474TIP3    H2 7305   2.564   1.365   0.752 -2.7323 -0.7481  1.0865
35475TIP3   OH2 7306   2.525   1.524   6.362 -0.0335 -0.1171  0.4438
35475TIP3    H1 7307   2.612   1.520   6.321 -0.0287 -0.2215  0.4629
35475TIP3    H2 7308   2.488   1.437   6.346 -0.1664 -0.0452  0.3645
35476TIP3   OH2 7309  10.161   9.867   0.806 -0.2697  0.6335 -0.3202
35476TIP3    H1 7310  10.133   9.843   0.894  1.3220 -1.2044 -0.2257
35476TIP3    H2 7311  10.190   9.958   0.813  0.6813  0.2406  1.3042
35477TIP3   OH2 7312   2.943   8.651   1.650  0.0821  0.2200 -0.3731
35477TIP3    H1 7313   2.912   8.738   1.624  0.2286 -0.0643 -1.5550
35477TIP3    H2 7314   2.867   8.609   1.691 -0.5416  0.2210 -1.5057
35478TIP3   OH2 7315   7.611   0.351   2.887 -0.0700  0.0779 -0.7142
35478TIP3    H1 7316   7.536   0.380   2.938  0.5175 -0.5105  0.5328
35478TIP3    H2 7317   7.586   0.263   2.857 -0.1788  0.1892 -0.9545
35479TIP3   OH2 7318   1.438   9.023   7.546  0.8664 -0.1265  0.2329
35479TIP3    H1 7319   1.450   9.009   7.640  0.7428 -1.0060  0.1183
35479TIP3    H2 7320   1.377   8.955   7.518  2.4380 -1.1456 -0.8680
35480TIP3   OH2 7321   5.058   8.155   5.642 -0.2493 -0.5616  0.1862
35480TIP3    H1 7322   5.132   8.100   5.614 -0.0849 -0.9834  1.3981
35480TIP3    H2 7323   5.076   8.240   5.602 -0.2711 -1.2456 -1.3408
35481TIP3   OH2 7324   7.920   3.475   9.623 -0.5929 -0.4783 -0.0319
35481TIP3    H1 7325   7.995   3.456   9.567 -0.4065  1.3879 -0.4872
35481TIP3    H2 7326   7.911   3.398   9.679  1.3848 -0.9218 -0.2640
35482TIP3   OH2 7327   2.748  10.747   5.125 -0.2815  0.2640  0.6059
35482TIP3    H1 7328   2.760  10.659   5.092  0.3801  0.5289  0.1194
35482TIP3    H2 7329   2.836  10.785   5.125 -0.5640  0.9398  0.7630
35483TIP3   OH2 7330  10.452   5.268   5.563 -0.2373  0.2921 -0.9676
35483TIP3    H1 7331  10.440   5.322   5.486 -0.2803  0.6413 -0.7199
35483TIP3    H2 7332  10.421   5.181   5.537  0.5851  0.1822 -1.6181
35484TIP3   OH2 7333   4.459   0.563  10.289  0.9615 -0.1409 -0.0091
35484TIP3    H1 7334   4.368   0.589  10.300  1.0570  0.0823  0.2759
35484TIP3    H2 7335   4.459   0.468  10.295  0.5474 -0.2571 -1.4649
35485TIP3   OH2 7336   1.044   3.341   5.561  0.3001  0.4084  0.8778
35485TIP3    H1 7337   1.091   3.360   5.643  0.4589 -0.9015  1.1014
35485TIP3    H2 7338   1.113   3.333   5.495  0.3264 -0.5424  1.0152
35486TIP3   OH2 7339   6.550   3.952   1.544  0.1759  0.2152 -0.1578
35486TIP3    H1 7340   6.561   3.899   1.465 -2.5615 -0.4310 -0.2055
35486TIP3    H2 7341   6.602   3.907   1.610  0.2759 -0.8401 -0.9256
35487TIP3   OH2 7342   9.450   5.425   1.708  0.3029  0.4084  0.2611
35487TIP3    H1 7343   9.493   5.436   1.792  0.6102 -0.7689  0.2764
35487TIP3    H2 7344   9.521   5.420   1.644  0.1649 -0.3257  0.1449
35488TIP3   OH2 7345  10.159  10.629   5.087 -0.1056 -0.2120 -0.4798
35488TIP3    H1 7346  10.225  10.696   5.070  1.5017 -1.6140 -0.0081
35488TIP3    H2 7347  10.077  10.668   5.057  0.0002  3.5012  3.1601
35489TIP3   OH2 7348   8.927  10.470   5.966  0.0240  0.1420 -0.1587
35489TIP3    H1 7349   8.969  10.395   6.010 -1.9650 -1.3238 -0.6282
35489TIP3    H2 7350   8.839  10.473   6.002 -1.1596 -0.1122 -2.8250
35490TIP3   OH2 7351   3.029   5.788   7.633  0.0256  0.1167  0.1965
35490TIP3    H1 7352   3.053   5.708   7.678  2.3033  1.4226  1.4770
35490TIP3    H2 7353   3.016   5.852   7.703 -2.2466  0.8208 -0.7594
35491TIP3   OH2 7354   4.877   4.408   4.120  0.4194 -0.3713  0.7963
35491TIP3    H1 7355   4.802   4.404   4.060  1.2957  0.7811 -0.4462
35491TIP3    H2 7356   4.855   4.347   4.190 -1.9449  0.3774  0.8008
35492TIP3   OH2 7357   5.028   3.916  10.559  0.5945 -0.1013  0.6257
35492TIP3    H1 7358   4.954   3.855  10.562 -0.4262  1.1203  2.8060
35492TIP3    H2 7359   4.988   4.003  10.560  2.0295  0.6818 -1.9895
35493TIP3   OH2 7360   4.674   4.063   1.635 -0.5557  0.5812 -0.1454
35493TIP3    H1 7361   4.750   4.082   1.581 -0.2228  1.0285  0.4687
35493TIP3    H2 7362   4.602   4.054   1.572  0.1911 -0.9920 -0.8349
35494TIP3   OH2 7363   2.021   5.586   8.263  0.0636 -0.1573  0.2447
35494TIP3    H1 7364   2.017   5.626   8.177 -1.6671 -0.8832 -0.0453
35494TIP3    H2 7365   1.973   5.647   8.320 -1.1831 -1.0019  0.1220
35495TIP3   OH2 7366   0.147  10.713   7.782 -0.5195 -0.1462 -0.5432
35495TIP3    H1 7367   0.068  10.664   7.807 -0.7714 -0.1132 -1.2545
35495TIP3    H2 7368   0.172  10.760   7.861 -2.6983  1.9018 -0.9458
35496TIP3   OH2 7369   5.893  10.836   9.265 -0.1140  0.2900 -0.3961
35496TIP3    H1 7370   5.902  10.928   9.240 -0.3276  0.4801  0.2255
35496TIP3    H2 7371   5.916  10.788   9.185  1.2357  0.8454 -0.3815
35497TIP3   OH2 7372   9.779   7.347   5.654 -0.6948  0.1696 -0.2049
35497TIP3    H1 7373   9.818   7.426   5.693 -1.6089 -0.4645  2.1216
35497TIP3    H2 7374   9.852   7.305   5.609  0.6288  0.5745  1.4555
35498TIP3   OH2 7375   4.565   9.053   6.796  0.4107 -0.1481 -0.7270
35498TIP3    H1 7376   4.513   9.037   6.717 -1.5078  0.4234  0.3593
35498TIP3    H2 7377   4.533   8.989   6.859  2.5176 -1.1690 -0.6110
35499TIP3   OH2 7378   8.040   4.321   9.339 -0.9111 -0.1651  0.3128
35499TIP3    H1 7379   8.111   4.277   9.385 -1.5882 -0.6866  0.8814
35499TIP3    H2 7380   8.048   4.413   9.364 -1.6404 -0.5294  1.9833
35500TIP3   OH2 7381   0.374   5.898   9.417 -0.3852  0.0358  0.0201
35500TIP3    H1 7382   0.443   5.873   9.478 -1.2863  0.1269  1.0941
35500TIP3    H2 7383   0.340   5.815   9.383  1.8224 -0.0156 -2.3992
35501TIP3   OH2 7384   7.475   7.276   3.429 -0.0765 -0.7650  0.1791
35501TIP3    H1 7385   7.426   7.200   3.460  0.5358 -1.2585 -0.0544
35501TIP3    H2 7386   7.557   7.273   3.477  0.9310 -1.5892 -1.5073
35502TIP3   OH2 7387   0.265   5.133   0.884  0.2770  0.2324 -0.0837
35502TIP3    H1 7388   0.290   5.042   0.903  1.3233  0.4569 -0.3817
35502TIP3    H2 7389   0.178   5.125   0.843 -0.0672 -0.5582  0.7547
35503TIP3   OH2 7390   3.371   4.642   3.409  0.1260 -0.2297  0.0615
35503TIP3    H1 7391   3.398   4.695   3.333 -1.8984  0.4893 -0.2189
35503TIP3    H2 7392   3.452   4.599   3.437  1.3801  1.1605 -1.1682
35504TIP3   OH2 7393   3.591   9.966   8.392  0.0052  0.1482  0.5307
35504TIP3    H1 7394   3.686   9.952   8.392  0.4640  2.7678  0.7132
35504TIP3    H2 7395   3.566   9.962   8.485  0.2860  1.2518  0.6686
35505TIP3   OH2 7396   5.771   5.189   2.624 -0.0296 -0.0610  0.6739
35505TIP3    H1 7397   5.745   5.229   2.541  1.1203 -0.3085  0.1697
35505TIP3    H2 7398   5.806   5.103   2.599  0.2747 -0.1639  1.4209
35506TIP3   OH2 7399   4.672   0.960   2.091 -0.0440 -0.6269 -0.3101
35506TIP3    H1 7400   4.701   0.963   2.182 -2.2755 -2.2417  0.5563
35506TIP3    H2 7401   4.730   0.896   2.050  0.8250 -0.0648  0.0164
35507TIP3   OH2 7402   9.494   6.432   1.345 -0.2910 -0.3916 -0.4774
35507TIP3    H1 7403   9.477   6.412   1.253 -1.0745  2.8723 -1.1926
35507TIP3    H2 7404   9.434   6.504   1.365 -1.4113 -2.0710  3.1721
35508TIP3   OH2 7405   5.797   3.888   1.498  0.3433 -0.5433  0.1771
35508TIP3    H1 7406   5.834   3.915   1.583 -1.8348  0.8835  0.7473
35508TIP3    H2 7407   5.781   3.795   1.509  0.3175 -0.4347  1.2632
35509TIP3   OH2 7408   8.493  10.382   4.279  0.3088 -0.1706 -0.4502
35509TIP3    H1 7409   8.541  10.399   4.359  0.8790 -0.0416 -0.8133
35509TIP3    H2 7410   8.468  10.469   4.246 -1.1824 -0.2799  0.3319
35510TIP3   OH2 7411   0.109  10.475   4.335  0.0021  0.5188  0.0607
35510TIP3    H1 7412   0.195  10.515   4.325 -0.0117 -0.0015 -2.9998
35510TIP3    H2 7413   0.061  10.535   4.393  2.1249  1.1992  1.2058
35511TIP3   OH2 7414   5.055  10.253   8.952  0.6319  0.0085  0.0854
35511TIP3    H1 7415   5.024  10.298   9.031  1.6443 -0.0469  0.5355
35511TIP3    H2 7416   5.122  10.311   8.917  0.9000 -0.4518 -0.1619
35512TIP3   OH2 7417   7.575   2.359  10.301  0.3329  0.4419  0.0196
35512TIP3    H1 7418   7.551   2.266  10.295 -2.1835  0.9727  0.4245
35512TIP3    H2 7419   7.576   2.389  10.210 -0.4706  0.3449 -0.0323
35513TIP3   OH2 7420   0.557   3.061   6.074  0.0662 -0.1714  0.2714
35513TIP3    H1 7421   0.624   3.129   6.075 -0.8427  0.7414 -0.0911
35513TIP3    H2 7422   0.567   3.018   5.989  0.0663  0.0910  0.1382
35514TIP3   OH2 7423   1.281   2.644   4.053 -0.6636 -0.2297  0.2865
35514TIP3    H1 7424   1.269   2.549   4.054 -1.1763 -0.1749 -0.4377
35514TIP3    H2 7425   1.217   2.677   3.990  0.3196  0.4829 -0.3850
35515TIP3   OH2 7426   2.588   4.766   9.875  0.8294  0.3812 -0.0480
35515TIP3    H1 7427   2.495   4.765   9.898  0.8585 -1.6449  0.2101
35515TIP3    H2 7428   2.633   4.771   9.959  0.9238 -1.2678  0.0336
35516TIP3   OH2 7429   3.184   1.749   4.588 -0.3123 -0.2107 -0.7135
35516TIP3    H1 7430   3.119   1.744   4.518 -0.2250 -0.0839 -0.8036
35516TIP3    H2 7431   3.136   1.721   4.667 -0.0443 -1.7812 -1.0606
35517TIP3   OH2 7432   3.725   6.086   3.471  0.0519  0.2431 -0.1769
35517TIP3    H1 7433   3.689   6.001   3.499  1.2273 -0.1306  0.2608
35517TIP3    H2 7434   3.745   6.073   3.378 -1.0418  0.4979 -0.4586
35518TIP3   OH2 7435   7.106   4.855  10.886 -0.2317  0.1265 -0.0039
35518TIP3    H1 7436   7.096   4.935  10.936 -0.4452  0.0605  0.0599
35518TIP3    H2 7437   7.126   4.884  10.797  0.4691  0.2400  0.1850
35519TIP3   OH2 7438   4.027   8.094   1.796  0.7777  0.3272  0.2257
35519TIP3    H1 7439   3.977   8.012   1.803 -2.3341  1.8869 -1.3093
35519TIP3    H2 7440   3.998   8.132   1.713  1.7992  3.1556  1.0593
35520TIP3   OH2 7441   1.402   1.998   7.866 -0.7152 -0.6263 -0.2802
35520TIP3    H1 7442   1.483   1.992   7.916 -1.2022  0.5542  0.7233
35520TIP3    H2 7443   1.424   2.053   7.791 -1.1737  2.1729  1.4812
35521TIP3   OH2 7444   9.318   2.599   1.911  0.2482  0.1129  0.3790
35521TIP3    H1 7445   9.232   2.618   1.946  0.6741 -0.9064  2.0587
35521TIP3    H2 7446   9.366   2.558   1.983  2.3586  1.2175 -0.3005
35522TIP3   OH2 7447   0.897   3.691   6.130 -0.0431 -0.1645 -0.2037
35522TIP3    H1 7448   0.813   3.684   6.176  0.7790 -0.9759  1.2261
35522TIP3    H2 7449   0.905   3.609   6.082  1.4652 -1.7020  2.4445
35523TIP3   OH2 7450   3.723   2.995   3.219  0.0960  0.7774 -0.0730
35523TIP3    H1 7451   3.647   2.964   3.267  0.6916  1.0166  1.0516
35523TIP3    H2 7452   3.696   3.080   3.184 -0.5320  0.3444 -0.6548
35524TIP3   OH2 7453   5.273   4.921   1.720  0.7869 -0.1230  0.1401
35524TIP3    H1 7454   5.211   4.885   1.784  1.1375 -0.3799  0.3403
35524TIP3    H2 7455   5.255   4.872   1.640 -0.8237  1.3679 -0.4691
35525TIP3   OH2 7456   6.182   0.209   6.847  0.3808  0.2400  0.1570
35525TIP3    H1 7457   6.234   0.137   6.812 -0.8934 -0.5752 -0.1311
35525TIP3    H2 7458   6.229   0.288   6.821  2.1268 -0.4695  0.9795
35526TIP3   OH2 7459   3.757   4.651   8.099 -0.0929 -0.2076  0.2870
35526TIP3    H1 7460   3.686   4.592   8.122  0.2086 -0.5454  0.3701
35526TIP3    H2 7461   3.827   4.593   8.067 -0.1451  0.1772 -0.5567
35527TIP3   OH2 7462   1.050   3.795   8.544 -0.0984 -0.2788  1.1919
35527TIP3    H1 7463   1.003   3.821   8.622  1.1946 -0.3004  2.0131
35527TIP3    H2 7464   1.099   3.873   8.518  0.0284 -0.4776  0.8093
35528TIP3   OH2 7465   2.817   0.459   2.040 -0.4998  0.0195 -0.2445
35528TIP3    H1 7466   2.861   0.436   2.121 -0.5777  0.8044  0.0257
35528TIP3    H2 7467   2.729   0.423   2.049  0.1228 -1.8026 -0.9034
35529TIP3   OH2 7468   5.667   5.183   6.962 -0.0867  0.9026 -0.6422
35529TIP3    H1 7469   5.714   5.193   7.045  0.4623  2.5967 -1.1150
35529TIP3    H2 7470   5.575   5.191   6.985  0.0744  1.5845 -0.2279
35530TIP3   OH2 7471   4.774   6.318   7.841  0.0740  0.4208 -0.2274
35530TIP3    H1 7472   4.772   6.275   7.755 -0.4177  0.7234 -0.3676
35530TIP3    H2 7473   4.813   6.252   7.899 -2.1197 -0.8735 -0.0829
35531TIP3   OH2 7474   8.183   5.742   0.405  0.3127 -0.0666 -0.1825
35531TIP3    H1 7475   8.251   5.804   0.383  0.5469  0.2395  1.2903
35531TIP3    H2 7476   8.196   5.724   0.499 -0.9128 -0.8787 -0.1419
35532TIP3   OH2 7477   4.687   3.316   1.826  0.4912 -0.7075 -0.0126
35532TIP3    H1 7478   4.605   3.267   1.830 -0.6279  1.1169  0.0867
35532TIP3    H2 7479   4.725   3.305   1.913  0.0513 -1.0416  0.1431
35533TIP3   OH2 7480   2.689   1.581   0.553 -0.4602 -0.2739 -0.6105
35533TIP3    H1 7481   2.653   1.621   0.474 -0.0920  1.0801 -0.1300
35533TIP3    H2 7482   2.763   1.529   0.522  0.5723  1.3775 -1.0665
35534TIP3   OH2 7483   0.352   5.749   3.914 -0.0157 -0.1257 -0.2387
35534TIP3    H1 7484   0.409   5.824   3.895  0.8481 -1.0062 -1.2152
35534TIP3    H2 7485   0.314   5.726   3.829  0.7179 -1.5745 -0.1971
35535TIP3   OH2 7486   2.975   7.063  10.693  0.1450 -0.4895 -0.6040
35535TIP3    H1 7487   2.912   7.133  10.712 -0.5394 -1.1735 -0.2528
35535TIP3    H2 7488   2.986   7.066  10.598 -0.1134 -0.0971 -0.6250
35536TIP3   OH2 7489   4.877   1.099   8.825  0.3419  0.8192  0.2343
35536TIP3    H1 7490   4.918   1.161   8.885  1.0847  0.3205  0.2548
35536TIP3    H2 7491   4.928   1.107   8.744  0.5998  0.0652  0.3164
35537TIP3   OH2 7492  10.683   1.132   8.012  0.2897  0.2396  0.6313
35537TIP3    H1 7493  10.623   1.201   7.984  1.1311  0.4650 -0.7287
35537TIP3    H2 7494  10.769   1.162   7.981  0.4438 -2.2114 -1.5467
35538TIP3   OH2 7495   8.062  10.842   5.011 -0.2831  0.7498  0.4361
35538TIP3    H1 7496   8.131  10.777   5.002 -0.6453  0.1535  1.7346
35538TIP3    H2 7497   8.064  10.891   4.929  0.3614 -0.5281 -0.3384
35539TIP3   OH2 7498   4.377   1.088  10.543  0.0350 -0.0303  0.5150
35539TIP3    H1 7499   4.447   1.036  10.504 -0.2544 -1.4043  1.7369
35539TIP3    H2 7500   4.413   1.176  10.550  0.7871 -0.1890 -0.9757
35540TIP3   OH2 7501   3.453  10.732   0.333  0.4418  0.4413  0.3852
35540TIP3    H1 7502   3.462  10.652   0.385 -2.7930 -0.3949 -0.1529
35540TIP3    H2 7503   3.376  10.717   0.279  0.5466  3.4175 -0.7567
35541TIP3   OH2 7504  10.615   8.389   7.949 -0.3026 -0.5231  0.9380
35541TIP3    H1 7505  10.535   8.355   7.909  0.0151 -0.5730  0.3301
35541TIP3    H2 7506  10.618   8.481   7.922 -0.1518 -0.5216  0.9617
35542TIP3   OH2 7507   3.600  10.753   5.058 -0.0374  0.1615 -0.0853
35542TIP3    H1 7508   3.686  10.726   5.091 -0.0533 -0.5451 -0.6062
35542TIP3    H2 7509   3.538  10.694   5.102  0.0189 -1.5405 -2.0953
35543TIP3   OH2 7510   6.680   8.971   0.602  0.0676 -0.2061 -0.0620
35543TIP3    H1 7511   6.643   8.971   0.690 -0.4098 -0.9514 -0.2504
35543TIP3    H2 7512   6.762   9.020   0.610  0.7489 -1.4707  1.1005
35544TIP3   OH2 7513   2.407   0.842   2.624 -0.4191 -0.1970 -0.4706
35544TIP3    H1 7514   2.335   0.792   2.586 -0.6235  0.2101 -0.6271
35544TIP3    H2 7515   2.364   0.917   2.666 -0.4014 -1.5707  2.1772
35545TIP3   OH2 7516  10.168   2.258   7.502 -0.1760 -0.5732 -0.2046
35545TIP3    H1 7517  10.213   2.331   7.458  0.2553  0.4527  1.8386
35545TIP3    H2 7518  10.220   2.181   7.479  0.8649  0.1513 -0.3500
35546TIP3   OH2 7519   5.763   5.204   2.200 -0.5011  0.1102  0.1472
35546TIP3    H1 7520   5.706   5.228   2.127 -1.4220 -1.5866  0.2619
35546TIP3    H2 7521   5.828   5.146   2.160 -1.4225 -1.3929  0.7568
35547TIP3   OH2 7522   1.305   9.849   5.579  0.2022  0.8881  0.1201
35547TIP3    H1 7523   1.257   9.791   5.638  1.1825  0.4399  0.4899
35547TIP3    H2 7524   1.236   9.890   5.526 -0.6968  1.2946  1.5385
35548TIP3   OH2 7525   7.161   3.455   8.248 -0.4733 -0.1106 -0.1892
35548TIP3    H1 7526   7.177   3.470   8.155  1.0664  0.8635  0.1809
35548TIP3    H2 7527   7.139   3.542   8.283  1.1665 -0.0059  0.7094
35549TIP3   OH2 7528   0.456   6.522   1.312 -0.4250  0.1622 -0.4431
35549TIP3    H1 7529   0.394   6.454   1.341 -0.0066 -0.0784 -0.0893
35549TIP3    H2 7530   0.447   6.524   1.217 -0.1272 -0.7101 -0.5037
35550TIP3   OH2 7531   8.837   7.924   0.121 -0.5657 -0.0817  0.2677
35550TIP3    H1 7532   8.757   7.873   0.128 -0.0608 -0.8128  0.9011
35550TIP3    H2 7533   8.812   8.013   0.147 -1.0365 -0.4461  1.0787
35551TIP3   OH2 7534   3.336   6.856   6.191  0.0631  0.0356  0.1303
35551TIP3    H1 7535   3.339   6.841   6.096  1.6197  3.1183 -0.4370
35551TIP3    H2 7536   3.417   6.817   6.224 -1.2428 -2.5411  0.5960
35552TIP3   OH2 7537   3.607   0.324  10.395 -0.4537 -0.2289 -0.7085
35552TIP3    H1 7538   3.554   0.400  10.369 -1.2845 -0.2687  0.7627
35552TIP3    H2 7539   3.612   0.330  10.490 -1.0644 -2.3589 -0.4971
35553TIP3   OH2 7540   0.265  10.800   9.317  0.1057  0.8428 -0.0305
35553TIP3    H1 7541   0.326  10.742   9.270 -1.4357 -1.5595  0.7344
35553TIP3    H2 7542   0.207  10.835   9.249 -0.4042 -0.4409 -0.2844
35554TIP3   OH2 7543   2.347   6.941   6.990  0.4021 -0.0932 -0.4370
35554TIP3    H1 7544   2.306   6.902   7.067  0.6570 -1.9915 -1.2306
35554TIP3    H2 7545   2.309   7.029   6.985 -0.8828 -0.5449  0.8699
35555TIP3   OH2 7546   2.109   8.234   8.434 -0.2598 -0.2978 -0.0703
35555TIP3    H1 7547   2.088   8.192   8.518 -0.5350 -0.1864 -0.0823
35555TIP3    H2 7548   2.187   8.188   8.404  0.2931  0.1741  0.6131
35556TIP3   OH2 7549   7.552   1.791   6.032  0.0011  0.4001  0.0844
35556TIP3    H1 7550   7.627   1.733   6.046  0.2025  0.6428  0.0041
35556TIP3    H2 7551   7.493   1.741   5.975 -1.3022 -1.0408  2.4899
35557TIP3   OH2 7552   5.181   2.504   0.498  0.0803 -0.0325  0.7213
35557TIP3    H1 7553   5.100   2.514   0.549 -0.5475  1.4325 -0.5015
35557TIP3    H2 7554   5.167   2.425   0.447 -1.4798  1.2360 -0.9488
35558TIP3   OH2 7555   6.954   8.156   3.904  0.2290  0.4343  0.5107
35558TIP3    H1 7556   6.962   8.078   3.849  0.1663  0.1508  0.9020
35558TIP3    H2 7557   7.031   8.209   3.882  0.1288  0.3942  0.0430
35559TIP3   OH2 7558   1.870   3.883  10.584  0.1058  0.4500  0.1254
35559TIP3    H1 7559   1.903   3.872  10.495 -0.3881  2.4406 -0.3550
35559TIP3    H2 7560   1.846   3.795  10.612  0.0837 -0.1891 -1.7719
35560TIP3   OH2 7561   8.858   2.850   9.059 -0.3729  1.1181  0.4182
35560TIP3    H1 7562   8.877   2.886   9.146 -0.0841  1.8999  0.0442
35560TIP3    H2 7563   8.827   2.925   9.009 -0.7952  0.6141 -0.0809
35561TIP3   OH2 7564   5.874   8.157   6.519  0.5011  0.5590  0.4600
35561TIP3    H1 7565   5.937   8.169   6.448 -0.2533  1.8707 -0.0108
35561TIP3    H2 7566   5.924   8.177   6.599  0.5973  2.0179  0.0595
35562TIP3   OH2 7567   5.697   8.954   3.198 -0.2526 -0.3540  0.8360
35562TIP3    H1 7568   5.704   8.961   3.294 -1.4453  2.5594  0.8195
35562TIP3    H2 7569   5.603   8.956   3.181 -0.0630 -1.1663 -0.4218
35563TIP3   OH2 7570   6.418   3.641   7.206 -0.7158 -0.3032 -1.0129
35563TIP3    H1 7571   6.335   3.681   7.182  0.1898  1.3094 -1.6282
35563TIP3    H2 7572   6.473   3.650   7.128  0.8426  0.9928  0.1364
35564TIP3   OH2 7573   2.979   9.068   3.871 -0.6801  0.2677  0.1968
35564TIP3    H1 7574   3.000   8.976   3.886 -0.1257  0.6899  2.4908
35564TIP3    H2 7575   2.976   9.077   3.776 -0.5231 -2.0497 -0.0927
35565TIP3   OH2 7576   6.229   6.798   9.923  0.0878 -0.2968 -0.0060
35565TIP3    H1 7577   6.310   6.748   9.915  1.3645  0.8781  3.6495
35565TIP3    H2 7578   6.215   6.836   9.837  2.4074 -1.9720 -1.2217
35566TIP3   OH2 7579  10.865   7.855   4.538  0.3563 -0.0570 -0.1591
35566TIP3    H1 7580  10.920   7.780   4.561  0.9613  0.1707 -0.8102
35566TIP3    H2 7581  10.902   7.928   4.587  1.5635  0.3997 -1.6812
35567TIP3   OH2 7582   1.656   4.281   8.326 -0.1174 -0.0005 -0.3665
35567TIP3    H1 7583   1.621   4.337   8.395  4.8002  3.0043  0.1412
35567TIP3    H2 7584   1.612   4.311   8.246  0.5469  3.0090  0.2734
35568TIP3   OH2 7585   5.644   7.580   2.722 -0.2876 -0.8565  0.3099
35568TIP3    H1 7586   5.679   7.526   2.651  0.1111 -0.8074  0.4633
35568TIP3    H2 7587   5.674   7.669   2.701  0.9179 -1.0231  1.1854
35569TIP3   OH2 7588   2.187   7.479   7.344 -0.0888 -0.1337  0.2133
35569TIP3    H1 7589   2.130   7.470   7.420  0.5464  0.7287  0.8143
35569TIP3    H2 7590   2.259   7.535   7.374  1.4849 -1.7687 -0.3019
35570TIP3   OH2 7591   8.606   4.663   9.119 -0.5709 -0.2657 -0.5236
35570TIP3    H1 7592   8.671   4.703   9.176 -0.4268  1.0377 -1.5388
35570TIP3    H2 7593   8.590   4.576   9.156  0.3998  0.0881  0.7670
35571TIP3   OH2 7594   7.554   7.376   7.565  0.7163 -0.1817  0.3489
35571TIP3    H1 7595   7.629   7.429   7.592 -0.3556  1.3506  0.4595
35571TIP3    H2 7596   7.498   7.374   7.643  0.2409 -0.5712 -0.0001
35572TIP3   OH2 7597   3.012   5.064   2.280  0.4502  0.0790 -0.2807
35572TIP3    H1 7598   2.980   5.139   2.331  0.2267  1.4305 -2.2995
35572TIP3    H2 7599   2.938   5.040   2.225  1.0413 -0.5974 -0.7910
35573TIP3   OH2 7600   4.453   9.562  10.724  0.4240 -0.3548  0.4421
35573TIP3    H1 7601   4.508   9.492  10.760  0.7015 -1.1117 -1.3444
35573TIP3    H2 7602   4.406   9.521  10.651 -1.1874  0.7429  0.8087
35574TIP3   OH2 7603   0.381   5.992   8.949 -0.4471  0.0453 -0.2325
35574TIP3    H1 7604   0.442   6.062   8.973  0.6082 -1.3261  1.3144
35574TIP3    H2 7605   0.296   6.035   8.945  0.3159  1.6163 -0.3729
35575TIP3   OH2 7606   4.217  10.788   6.730 -0.0125 -0.5256 -0.0282
35575TIP3    H1 7607   4.257  10.874   6.725 -1.0606  0.1873  2.2247
35575TIP3    H2 7608   4.283  10.733   6.773  1.3261 -1.4102 -2.9453
35576TIP3   OH2 7609   6.606   8.289   3.607 -0.1542 -0.8396 -0.1439
35576TIP3    H1 7610   6.622   8.286   3.513  2.2338 -0.5279  0.2043
35576TIP3    H2 7611   6.511   8.300   3.615 -0.3770 -0.6637 -2.5057
35577TIP3   OH2 7612   2.620   6.117   8.177  0.0838  0.2474  0.3597
35577TIP3    H1 7613   2.656   6.205   8.172  1.3410 -0.1921  1.3168
35577TIP3    H2 7614   2.684   6.067   8.227 -1.1338 -0.9450  0.7979
35578TIP3   OH2 7615   5.191   9.054   0.029  0.0304  0.2118 -0.9524
35578TIP3    H1 7616   5.100   9.025   0.022 -0.8175  2.1417  1.1143
35578TIP3    H2 7617   5.214   9.081  -0.060 -1.8864  0.9131 -1.2801
35579TIP3   OH2 7618   6.134  10.648  10.869  0.0311  0.4108 -0.0473
35579TIP3    H1 7619   6.143  10.699  10.788 -1.6382  0.7837 -0.0290
35579TIP3    H2 7620   6.146  10.712  10.939 -2.8164  1.0457 -0.0160
35580TIP3   OH2 7621   7.664   8.453   3.865  0.2871  0.9219  0.1142
35580TIP3    H1 7622   7.595   8.519   3.858 -0.1887  0.5165  0.8406
35580TIP3    H2 7623   7.622   8.372   3.835  1.6905  1.4054 -3.7572
35581TIP3   OH2 7624   3.734   0.997   6.270 -0.4816 -0.4538  0.2098
35581TIP3    H1 7625   3.729   0.912   6.225 -2.6059  0.1328 -0.7875
35581TIP3    H2 7626   3.793   0.981   6.343 -0.3449 -2.6401 -0.2871
35582TIP3   OH2 7627   5.150   3.426   8.924 -0.6996 -0.3493  0.1757
35582TIP3    H1 7628   5.122   3.499   8.868  0.4627 -1.2719 -1.6924
35582TIP3    H2 7629   5.138   3.348   8.871  0.4693 -1.2754  1.2077
35583TIP3   OH2 7630   5.566   3.306   6.992 -0.4732  0.3080 -0.1089
35583TIP3    H1 7631   5.517   3.332   7.070  0.1460  2.4449 -0.3556
35583TIP3    H2 7632   5.550   3.212   6.982 -2.6461  0.5107  1.1023
35584TIP3   OH2 7633   2.160   9.335   7.219 -0.2048 -0.7230  0.7945
35584TIP3    H1 7634   2.096   9.263   7.222  0.1429 -1.1402 -0.6695
35584TIP3    H2 7635   2.240   9.298   7.257 -0.5085 -0.5674  1.5840
35585TIP3   OH2 7636   8.633  10.790   2.167  0.3687  0.6548 -0.9926
35585TIP3    H1 7637   8.611  10.720   2.106  0.0761 -0.8645  0.7830
35585TIP3    H2 7638   8.727  10.781   2.182  0.1999  0.1056 -0.1732
35586TIP3   OH2 7639   4.626   6.628   7.113  0.3195 -0.2615 -0.3150
35586TIP3    H1 7640   4.545   6.677   7.126  1.5588  1.9562 -0.4090
35586TIP3    H2 7641   4.636   6.622   7.018  0.3125 -0.4343 -0.3049
35587TIP3   OH2 7642   0.750   4.057   0.213 -0.0825 -0.2193  0.0773
35587TIP3    H1 7643   0.716   4.089   0.129  0.4247  2.3094  0.7377
35587TIP3    H2 7644   0.835   4.020   0.191 -1.1055 -2.1452 -0.8786
35588TIP3   OH2 7645   5.199   1.519   3.600 -0.2765 -0.4537  0.0442
35588TIP3    H1 7646   5.168   1.448   3.544  0.1461  0.5107 -1.4770
35588TIP3    H2 7647   5.143   1.593   3.576  0.6066  0.2550  0.1274
35589TIP3   OH2 7648   2.188   8.306   4.327 -0.2608  0.1247  0.2172
35589TIP3    H1 7649   2.228   8.222   4.305 -0.6310  0.1601 -0.6448
35589TIP3    H2 7650   2.120   8.284   4.391 -0.4359 -0.2598 -0.0953
35590TIP3   OH2 7651   6.899   6.325  10.733 -0.5564  0.4546  0.2245
35590TIP3    H1 7652   6.972   6.380  10.704 -0.7840  0.8739  0.4439
35590TIP3    H2 7653   6.847   6.311  10.654 -0.3476  0.3180  0.1092
35591TIP3   OH2 7654   7.731   3.536   9.436  0.1093  0.2070 -0.7278
35591TIP3    H1 7655   7.783   3.547   9.356  0.4981 -1.3984 -0.7303
35591TIP3    H2 7656   7.796   3.518   9.504 -0.3910 -1.4539 -0.6569
35592TIP3   OH2 7657   2.942   7.745  10.832  0.3397 -0.2560  0.2831
35592TIP3    H1 7658   2.970   7.654  10.815  0.0497 -0.4037  0.6013
35592TIP3    H2 7659   2.887   7.767  10.757 -1.3106 -1.0659  1.1982
35593TIP3   OH2 7660   8.677   4.235   8.839  0.5772 -0.4883  0.0763
35593TIP3    H1 7661   8.735   4.169   8.877  1.5777  1.2771  1.7876
35593TIP3    H2 7662   8.735   4.299   8.798 -0.2537  0.3051  0.0872
35594TIP3   OH2 7663   2.329   1.286   3.950  0.0798  0.8507 -0.4401
35594TIP3    H1 7664   2.297   1.364   3.905 -1.3896  0.9511  0.6755
35594TIP3    H2 7665   2.252   1.229   3.957  0.4198  0.5440  1.2499
35595TIP3   OH2 7666   7.952   7.711   4.049 -0.1951  1.1107 -0.0438
35595TIP3    H1 7667   7.859   7.709   4.028  0.2191  0.9127 -2.1190
35595TIP3    H2 7668   7.989   7.774   3.986  1.1938  0.4792  0.1058
35596TIP3   OH2 7669   3.492   5.452   5.119  0.2840  0.8465 -0.5552
35596TIP3    H1 7670   3.578   5.488   5.096  1.2691 -0.3936  0.9823
35596TIP3    H2 7671   3.441   5.459   5.039  1.4377  2.6684 -1.1978
35597TIP3   OH2 7672   7.334   6.584  10.429  0.1014  0.4345  0.6884
35597TIP3    H1 7673   7.283   6.649  10.477 -0.3844  1.9674 -1.7462
35597TIP3    H2 7674   7.293   6.501  10.451  0.2706  0.9387  3.3041
35598TIP3   OH2 7675   4.324   4.707   0.294  0.3830  0.0742 -0.2631
35598TIP3    H1 7676   4.389   4.753   0.347 -0.5007 -1.5332  2.3670
35598TIP3    H2 7677   4.373   4.639   0.248  1.1335  1.4131 -1.5507
35599TIP3   OH2 7678   6.482   3.054   9.197 -0.4007  0.2796  0.5540
35599TIP3    H1 7679   6.461   2.984   9.259 -2.3237  0.1799 -0.1433
35599TIP3    H2 7680   6.448   3.133   9.238 -2.6546  0.0667 -0.7686
35600TIP3   OH2 7681   4.277   0.644  10.629  0.1819  0.4836  0.4386
35600TIP3    H1 7682   4.363   0.605  10.646  0.7126  1.2192 -0.4314
35600TIP3    H2 7683   4.251   0.684  10.712 -0.0629 -1.0973  1.1527
35601TIP3   OH2 7684   6.409   4.466  10.741  0.3619 -0.2543 -0.2294
35601TIP3    H1 7685   6.419   4.488  10.648  2.9194  0.4337  0.1379
35601TIP3    H2 7686   6.423   4.549  10.786 -3.2147 -0.0401  0.7936
35602TIP3   OH2 7687   1.350   2.100   3.205  0.1825 -0.5077  1.2342
35602TIP3    H1 7688   1.434   2.067   3.172  0.2051 -2.2679  2.8367
35602TIP3    H2 7689   1.309   2.143   3.130  1.4583 -1.7427 -0.2437
35603TIP3   OH2 7690   1.371   4.963   0.232 -0.1488 -0.1836 -0.0033
35603TIP3    H1 7691   1.287   4.960   0.187 -0.2100 -1.1729  0.1694
35603TIP3    H2 7692   1.417   5.038   0.192 -1.3444  0.7710  0.3543
35604TIP3   OH2 7693   8.293   1.752   9.745 -0.0944 -0.5045  0.0948
35604TIP3    H1 7694   8.254   1.759   9.658 -0.3231 -1.4366  0.1112
35604TIP3    H2 7695   8.245   1.816   9.798  1.0737  1.1819 -0.7954
35605TIP3   OH2 7696   2.960   2.523   1.461 -0.3257 -0.0694 -0.0710
35605TIP3    H1 7697   3.005   2.579   1.398  1.3672  0.8835  1.8745
35605TIP3    H2 7698   2.907   2.583   1.513  0.1283 -0.4998  0.9050
35606TIP3   OH2 7699   4.886   7.232   1.529 -0.7223 -0.0559  0.6250
35606TIP3    H1 7700   4.951   7.183   1.579  1.1858 -0.8512 -2.3583
35606TIP3    H2 7701   4.920   7.321   1.527 -1.3878  0.2416  1.5708
35607TIP3   OH2 7702  10.552   6.307   0.452  0.1402 -0.0706  0.6626
35607TIP3    H1 7703  10.506   6.229   0.482 -0.4927  0.1167  0.1971
35607TIP3    H2 7704  10.493   6.346   0.387 -0.2223  1.5750  1.9123
35608TIP3   OH2 7705  10.235  10.441   8.162 -0.3686  0.2612 -0.1397
35608TIP3    H1 7706  10.258  10.406   8.076  0.0467  0.2245 -0.0195
35608TIP3    H2 7707  10.256  10.370   8.223 -0.7496  0.2521 -0.0194
35609TIP3   OH2 7708   7.173   8.803   4.679  0.3510  0.4280  0.2699
35609TIP3    H1 7709   7.085   8.822   4.646 -0.8341 -1.5829  2.0376
35609TIP3    H2 7710   7.220   8.768   4.603 -1.4132 -1.4179 -0.0529
35610TIP3   OH2 7711  10.086   7.691  10.112 -0.5478 -0.6107 -0.0635
35610TIP3    H1 7712  10.036   7.757  10.160  0.9654  1.4156 -1.1637
35610TIP3    H2 7713  10.158   7.739  10.072 -0.8312 -2.4612 -3.0937
35611TIP3   OH2 7714   2.660   6.342   4.681 -0.3717 -0.2380  0.2014
35611TIP3    H1 7715   2.719   6.290   4.625  0.5373  0.2746  0.6568
35611TIP3    H2 7716   2.710   6.356   4.761 -2.2080 -2.2122  1.7973
35612TIP3   OH2 7717   3.866   8.277   5.243  0.4066  0.2039  0.1280
35612TIP3    H1 7718   3.771   8.280   5.232  0.2622 -0.1841  1.1852
35612TIP3    H2 7719   3.882   8.325   5.324  1.3070  1.9032 -0.9828
35613TIP3   OH2 7720   3.610   0.233   4.763 -0.3349  0.2762 -0.1025
35613TIP3    H1 7721   3.615   0.314   4.712  0.4963 -0.8071 -1.8400
35613TIP3    H2 7722   3.700   0.215   4.790 -0.5507  0.0716  0.4888
35614TIP3   OH2 7723   1.837   4.140   3.467 -0.1701  0.4104 -0.7014
35614TIP3    H1 7724   1.765   4.100   3.417 -0.9515  0.4363  0.3638
35614TIP3    H2 7725   1.895   4.068   3.488  0.2227  0.4166 -1.7275
35615TIP3   OH2 7726   4.399   5.465   3.536 -0.2649  0.2503 -0.7865
35615TIP3    H1 7727   4.478   5.417   3.562 -0.5734  0.2184  0.1183
35615TIP3    H2 7728   4.413   5.486   3.443  1.5540  1.7366 -0.2312
35616TIP3   OH2 7729   2.924   3.261   8.968 -0.0475  0.0719  0.0487
35616TIP3    H1 7730   2.895   3.263   8.877 -1.4439  1.9532  0.4763
35616TIP3    H2 7731   2.880   3.185   9.006 -0.1730 -0.1935 -0.6191
35617TIP3   OH2 7732   8.702   1.846  10.302 -0.0044 -0.1472  0.5993
35617TIP3    H1 7733   8.781   1.793  10.307  0.3241  0.2071 -0.4173
35617TIP3    H2 7734   8.696   1.890  10.387  0.9299 -0.1271  0.6615
35618TIP3   OH2 7735   2.699   1.778   8.349  0.3223 -0.1110  0.1660
35618TIP3    H1 7736   2.706   1.821   8.434  1.1713 -1.0314  0.5797
35618TIP3    H2 7737   2.717   1.686   8.367 -2.9396 -0.9927 -0.4361
35619TIP3   OH2 7738   9.137   3.216   4.752 -0.0283  0.3264 -0.0568
35619TIP3    H1 7739   9.212   3.242   4.806  0.1705  0.4908 -0.4088
35619TIP3    H2 7740   9.084   3.295   4.744 -0.7435 -0.0284  0.9893
35620TIP3   OH2 7741   6.884   1.842   0.227 -0.1659 -0.2262  0.3515
35620TIP3    H1 7742   6.957   1.904   0.235 -1.3280  1.0896  1.0972
35620TIP3    H2 7743   6.912   1.766   0.277  1.5781 -0.6526 -1.1364
35621TIP3   OH2 7744  10.616   7.355   3.455 -0.2488 -0.1167  0.1438
35621TIP3    H1 7745  10.562   7.431   3.475  0.1434  0.4382 -0.8241
35621TIP3    H2 7746  10.583   7.324   3.370  0.9820  0.2795 -0.4980
35622TIP3   OH2 7747   8.445   3.846  10.800 -0.2865 -0.4779 -0.2329
35622TIP3    H1 7748   8.360   3.885  10.780  0.1250 -0.0405 -1.2124
35622TIP3    H2 7749   8.493   3.914  10.847 -0.4260 -0.6789  0.2048
35623TIP3   OH2 7750   3.839   9.474   4.087  0.4932 -0.2058  0.1576
35623TIP3    H1 7751   3.890   9.480   4.006  2.0848 -0.6135  1.0751
35623TIP3    H2 7752   3.762   9.423   4.063  1.4227 -1.1754 -0.8920
35624TIP3   OH2 7753   9.915  10.837   7.268 -0.1623  0.8240 -0.1214
35624TIP3    H1 7754   9.961  10.849   7.351 -1.7393  1.8715  0.6588
35624TIP3    H2 7755   9.841  10.780   7.290 -0.1767  0.4928 -0.9936
35625TIP3   OH2 7756   8.438   6.725   8.994 -0.0777 -0.1474  0.0042
35625TIP3    H1 7757   8.526   6.723   9.031  0.0152 -0.4643 -0.2306
35625TIP3    H2 7758   8.398   6.644   9.024 -0.5140  0.2949  0.6464
35626TIP3   OH2 7759   5.067   0.958   6.730  0.1726  0.2764  0.7623
35626TIP3    H1 7760   5.104   1.003   6.654  3.9606 -2.0607  0.9809
35626TIP3    H2 7761   5.073   1.023   6.800  0.6264  1.0927 -0.0013
35627TIP3   OH2 7762   3.361   6.492   3.302  0.0909  0.4726 -0.0225
35627TIP3    H1 7763   3.429   6.425   3.307  0.5793  0.5188 -3.5983
35627TIP3    H2 7764   3.279   6.444   3.314  0.5632 -0.2812  0.2664
35628TIP3   OH2 7765   4.912   3.647   2.284 -0.0361 -0.0127 -0.2571
35628TIP3    H1 7766   4.989   3.701   2.302 -0.6160  1.2905 -1.4388
35628TIP3    H2 7767   4.946   3.559   2.271  1.6436  0.9237 -3.1453
35629TIP3   OH2 7768   0.775   5.878   9.030  0.2621  0.5192 -0.2334
35629TIP3    H1 7769   0.827   5.841   8.959  0.3302  0.4011 -0.1220
35629TIP3    H2 7770   0.823   5.956   9.058  1.3717 -0.6108  1.1245
35630TIP3   OH2 7771   1.217   7.396   7.317 -0.5913 -0.0684 -0.0729
35630TIP3    H1 7772   1.235   7.469   7.377  0.1433 -0.3427  0.0585
35630TIP3    H2 7773   1.147   7.428   7.261 -1.9631 -0.1513  1.5282
35631TIP3   OH2 7774   0.322   9.315   7.052 -0.5357  0.1059 -0.4047
35631TIP3    H1 7775   0.286   9.385   7.106  1.1239  0.9042 -0.2619
35631TIP3    H2 7776   0.359   9.361   6.976 -0.3256 -0.7190 -0.8125
35632TIP3   OH2 7777   4.151   4.543   7.111  0.1559  0.3366 -0.3328
35632TIP3    H1 7778   4.185   4.467   7.064 -0.2500 -0.3685  0.5044
35632TIP3    H2 7779   4.058   4.523   7.125  0.1802  0.7342  0.3997
35633TIP3   OH2 7780   8.755   3.504   8.674  0.0834  0.2264 -0.2986
35633TIP3    H1 7781   8.724   3.594   8.664  0.7637  0.3202 -2.0422
35633TIP3    H2 7782   8.799   3.486   8.591  0.2111 -1.6233  0.1459
35634TIP3   OH2 7783   1.868   7.176   4.727  0.3188  0.2784  0.3787
35634TIP3    H1 7784   1.777   7.167   4.756 -0.1486 -1.3389 -1.3601
35634TIP3    H2 7785   1.913   7.216   4.801 -1.3873 -0.7985  2.0967
35635TIP3   OH2 7786  10.590   9.407   2.346 -0.2870 -0.6064  0.1665
35635TIP3    H1 7787  10.567   9.486   2.395 -2.1889 -0.8886 -0.1761
35635TIP3    H2 7788  10.579   9.336   2.409 -1.6492 -0.8642 -0.3292
35636TIP3   OH2 7789   7.768   6.265   5.588 -0.6170 -0.1906 -0.2004
35636TIP3    H1 7790   7.848   6.260   5.641 -0.5416 -4.0172 -0.3664
35636TIP3    H2 7791   7.800   6.269   5.498 -0.5251 -2.0185 -0.2828
35637TIP3   OH2 7792   0.403   2.948   0.672 -0.5346  0.1300  0.3222
35637TIP3    H1 7793   0.403   3.044   0.675  0.5087  0.3703 -2.8932
35637TIP3    H2 7794   0.462   2.922   0.742  0.0029  1.8844  0.5835
35638TIP3   OH2 7795   7.385   7.890  10.249 -0.8274 -0.1528 -0.4305
35638TIP3    H1 7796   7.364   7.913  10.159 -1.4513 -0.8838 -0.4760
35638TIP3    H2 7797   7.315   7.831  10.276 -1.7325  1.5485  1.1558
35639TIP3   OH2 7798   9.202  10.524   5.880 -0.8128 -0.2611  0.5399
35639TIP3    H1 7799   9.252  10.542   5.960 -0.4561 -1.0069  0.4935
35639TIP3    H2 7800   9.111  10.542   5.905 -0.5916  0.5502  0.7919
35640TIP3   OH2 7801   6.319   8.547   3.931 -0.0443  0.8241  0.4091
35640TIP3    H1 7802   6.265   8.623   3.912 -1.0425 -0.1094 -0.6188
35640TIP3    H2 7803   6.322   8.543   4.027 -2.6770  0.3519  0.5532
35641TIP3   OH2 7804   3.430   8.680   5.433  0.2179 -0.6419 -0.3278
35641TIP3    H1 7805   3.387   8.740   5.372 -0.1466 -1.2953 -0.7149
35641TIP3    H2 7806   3.393   8.701   5.518  0.3279 -0.1011 -0.4077
35642TIP3   OH2 7807  10.465  10.674   8.649 -0.4101  0.3066  0.2581
35642TIP3    H1 7808  10.522  10.639   8.718  0.5026  0.8751 -0.1989
35642TIP3    H2 7809  10.391  10.613   8.647  1.9309 -2.7624 -1.7153
35643TIP3   OH2 7810   1.603   4.880   7.575 -0.1845  0.2929 -0.8447
35643TIP3    H1 7811   1.603   4.964   7.620  0.6246 -0.3879  0.4941
35643TIP3    H2 7812   1.671   4.829   7.620 -1.9117 -1.7336 -0.3654
35644TIP3   OH2 7813  10.257   7.564   6.530 -0.3712  0.3261 -0.1647
35644TIP3    H1 7814  10.232   7.553   6.439 -0.1375 -0.3497 -0.1462
35644TIP3    H2 7815  10.230   7.483   6.573 -1.6093  1.1223  0.6222
35645TIP3   OH2 7816   8.953   0.217   7.926  0.4909 -0.0938  0.0809
35645TIP3    H1 7817   8.994   0.291   7.971  0.6714 -0.4645  0.5294
35645TIP3    H2 7818   8.878   0.195   7.981 -0.7742  1.0525 -1.1143
35646TIP3   OH2 7819   9.974  10.779   5.930  0.5170 -0.5363 -0.6904
35646TIP3    H1 7820  10.016  10.693   5.934  0.9006 -0.5583 -3.2999
35646TIP3    H2 7821  10.039  10.836   5.888  0.6571  1.3568  1.8556
35647TIP3   OH2 7822   6.203  10.772   7.450 -0.3312 -0.0231  0.4257
35647TIP3    H1 7823   6.251  10.824   7.386 -0.0025  1.1424  1.5692
35647TIP3    H2 7824   6.118  10.755   7.410 -0.4167  1.3588  0.0010
35648TIP3   OH2 7825  10.150   6.789   9.162  0.1887  0.3225  0.3057
35648TIP3    H1 7826  10.096   6.774   9.239  0.1442  1.0603  0.4230
35648TIP3    H2 7827  10.089   6.790   9.089  0.0842  0.8128  0.3989
35649TIP3   OH2 7828   7.740   4.455   6.379 -0.1403 -0.4557  0.3097
35649TIP3    H1 7829   7.720   4.374   6.427 -0.5725  0.0526  0.9948
35649TIP3    H2 7830   7.799   4.503   6.436 -0.6959  0.1788  0.3685
35650TIP3   OH2 7831   6.940   3.111   2.711 -0.2408 -0.0543 -0.2510
35650TIP3    H1 7832   6.917   3.201   2.689  0.5208 -0.2019 -1.8069
35650TIP3    H2 7833   6.857   3.070   2.737 -0.4261  1.3381  1.4615
35651TIP3   OH2 7834   4.581   9.879   5.888  0.4836 -0.0527  0.3867
35651TIP3    H1 7835   4.546   9.964   5.916 -0.3544 -0.8169  1.7734
35651TIP3    H2 7836   4.557   9.873   5.795 -0.4620  0.7265  0.5572
35652TIP3   OH2 7837   9.633   2.881   8.603  0.8731  0.4131 -0.0387
35652TIP3    H1 7838   9.595   2.908   8.686  0.1209 -1.1588  0.1688
35652TIP3    H2 7839   9.583   2.927   8.537 -1.3646 -1.4491  0.2311
35653TIP3   OH2 7840   4.405   6.621  10.179  0.8359  0.2606  0.3309
35653TIP3    H1 7841   4.452   6.555  10.128  2.1308  0.6756  0.9454
35653TIP3    H2 7842   4.351   6.570  10.240  1.1777 -0.2356  0.2240
35654TIP3   OH2 7843   6.669   1.730   7.203  0.1518  0.1446  0.3382
35654TIP3    H1 7844   6.701   1.712   7.115 -1.8747  1.6773 -0.7855
35654TIP3    H2 7845   6.614   1.655   7.225  0.5549 -0.1762  0.2780
35655TIP3   OH2 7846  10.868   4.983   9.940  0.7345 -0.6120 -0.3140
35655TIP3    H1 7847  10.858   4.974   9.845 -1.9011  0.1393 -0.2158
35655TIP3    H2 7848  10.889   4.895   9.971  1.1063 -0.9709 -1.5342
35656TIP3   OH2 7849   1.401   2.710   6.601 -0.0766  0.0259  0.4893
35656TIP3    H1 7850   1.437   2.635   6.553  0.1741  0.1015  0.5607
35656TIP3    H2 7851   1.477   2.751   6.642 -0.2979 -0.0841  1.0127
35657TIP3   OH2 7852   4.304   6.061  10.788 -0.5957  0.2592  0.5604
35657TIP3    H1 7853   4.312   6.117  10.711 -0.8122  0.1453  0.4526
35657TIP3    H2 7854   4.382   6.006  10.786 -0.5341  0.3493  0.4975
35658TIP3   OH2 7855  10.565   1.125   0.959  0.3818 -0.7948  0.1603
35658TIP3    H1 7856  10.486   1.170   0.931  1.0468 -0.1342 -0.7203
35658TIP3    H2 7857  10.534   1.054   1.015 -0.8323 -0.6251 -0.2688
35659TIP3   OH2 7858   3.762   0.983   7.072  0.0040 -0.5588 -0.2881
35659TIP3    H1 7859   3.765   0.920   7.144  1.1137 -2.1473 -1.6282
35659TIP3    H2 7860   3.712   0.938   7.004 -2.8162  1.7015  0.0973
35660TIP3   OH2 7861   8.805   7.017  10.281  0.6883 -0.2015  0.0338
35660TIP3    H1 7862   8.770   6.974  10.203 -2.5367 -2.1487  2.3051
35660TIP3    H2 7863   8.835   6.945  10.337  1.8329  1.0417  1.0921
35661TIP3   OH2 7864   7.702   1.801   1.158  0.1894 -0.1271  0.4492
35661TIP3    H1 7865   7.712   1.896   1.154  0.7165 -0.0452  2.8391
35661TIP3    H2 7866   7.608   1.787   1.146  0.3540  0.4558 -2.2911
35662TIP3   OH2 7867   2.062   3.843   9.456  0.2713  0.5778 -0.3881
35662TIP3    H1 7868   2.051   3.843   9.551  1.2741 -0.5500 -0.2486
35662TIP3    H2 7869   1.976   3.866   9.422 -0.5962 -0.8274  0.7500
35663TIP3   OH2 7870  10.414   1.512   1.639  0.5369  0.1698  0.4476
35663TIP3    H1 7871  10.492   1.468   1.605  0.4105 -0.7829  1.3596
35663TIP3    H2 7872  10.384   1.457   1.711 -1.3583  0.1819 -0.2765
35664TIP3   OH2 7873   3.602   5.721   5.335 -0.0770 -0.2227  0.5963
35664TIP3    H1 7874   3.610   5.787   5.266 -2.6717  0.2863  0.6750
35664TIP3    H2 7875   3.593   5.773   5.416 -0.3266 -0.7255  0.8933
35665TIP3   OH2 7876   4.386   7.223   9.673 -0.6303 -0.8594 -0.0181
35665TIP3    H1 7877   4.367   7.284   9.601 -2.1373  0.2833  1.2953
35665TIP3    H2 7878   4.342   7.260   9.749  0.7470 -2.1485  1.4889
35666TIP3   OH2 7879   3.414   9.370   0.727 -0.1137  0.4750 -0.3237
35666TIP3    H1 7880   3.385   9.307   0.793 -1.3423  0.7551 -0.5700
35666TIP3    H2 7881   3.492   9.331   0.689  0.4811  0.1955  1.1215
35667TIP3   OH2 7882   7.508   3.017   1.052 -0.1010 -0.3704  0.4657
35667TIP3    H1 7883   7.528   3.095   1.104  1.8472 -0.2973 -0.3116
35667TIP3    H2 7884   7.451   3.049   0.982 -2.2535 -0.3592  2.1079
35668TIP3   OH2 7885   0.540   7.340   8.189  0.6344 -0.1017  0.1972
35668TIP3    H1 7886   0.597   7.273   8.226  1.0627 -0.8169 -1.6968
35668TIP3    H2 7887   0.451   7.303   8.195  0.3315  0.8293  2.7294
35669TIP3   OH2 7888   8.604   8.623   9.366 -0.5698  0.4447  0.0513
35669TIP3    H1 7889   8.659   8.585   9.435 -2.6830 -3.4785 -0.1658
35669TIP3    H2 7890   8.539   8.675   9.413 -0.5829 -0.2795  0.8590
35670TIP3   OH2 7891   4.138   7.868   5.604  0.7205 -0.1551 -0.3929
35670TIP3    H1 7892   4.078   7.939   5.629 -0.4085 -1.4795  0.8660
35670TIP3    H2 7893   4.201   7.910   5.546 -2.4710  1.0171 -3.4152
35671TIP3   OH2 7894   6.393   2.342   3.794 -0.1409  0.4501  0.2822
35671TIP3    H1 7895   6.333   2.329   3.868 -1.0303 -2.4069 -0.8113
35671TIP3    H2 7896   6.350   2.407   3.739 -2.1897 -1.3678 -0.3544
35672TIP3   OH2 7897   1.004   0.222   5.908  0.6303 -0.1949 -0.6496
35672TIP3    H1 7898   1.095   0.238   5.933  0.7450  0.3138 -1.3803
35672TIP3    H2 7899   1.005   0.135   5.869  1.1039  0.4313 -2.0912
35673TIP3   OH2 7900   5.084   9.302   6.076  0.6555  0.0347 -0.0569
35673TIP3    H1 7901   5.124   9.273   5.994  0.4619 -0.0675 -0.1152
35673TIP3    H2 7902   4.996   9.330   6.052  0.7786  0.5020  0.0303
35674TIP3   OH2 7903   4.796   5.375   7.848  0.0778 -0.2715 -0.1082
35674TIP3    H1 7904   4.725   5.395   7.910  0.5557 -2.0869  1.0877
35674TIP3    H2 7905   4.863   5.441   7.867 -1.0082  1.1275 -0.8798
35675TIP3   OH2 7906   0.018   9.308   9.361  0.2534 -0.2420 -0.1720
35675TIP3    H1 7907  -0.036   9.237   9.394  1.1607 -1.3673 -1.0365
35675TIP3    H2 7908   0.107   9.283   9.382  0.5595  0.8738 -0.0802
35676TIP3   OH2 7909   9.972   1.128   1.641  0.2774  0.2226 -0.1779
35676TIP3    H1 7910  10.053   1.178   1.632 -0.0471  0.9518  0.7917
35676TIP3    H2 7911   9.903   1.195   1.642 -0.5645 -0.4730 -3.0716
35677TIP3   OH2 7912   9.880   3.149   2.698 -0.2996 -0.2978  0.5887
35677TIP3    H1 7913   9.801   3.180   2.742  0.4616  1.6529  0.6532
35677TIP3    H2 7914   9.926   3.099   2.766 -1.2958 -1.2042  0.6371
35678TIP3   OH2 7915   4.672   0.317   3.642 -0.0353  0.6321  0.0033
35678TIP3    H1 7916   4.695   0.290   3.554  1.6732  3.2013 -0.4624
35678TIP3    H2 7917   4.592   0.370   3.632  0.9159  2.0684 -0.2664
35679TIP3   OH2 7918   1.427   9.265   4.546 -0.4906 -0.0172 -0.3551
35679TIP3    H1 7919   1.508   9.216   4.536 -0.0563  0.8195 -1.0308
35679TIP3    H2 7920   1.370   9.207   4.596 -0.5213 -1.8289 -2.3489
35680TIP3   OH2 7921  10.007   3.272   6.703 -0.0770  0.6879 -0.0371
35680TIP3    H1 7922   9.971   3.217   6.772 -1.7600  0.6032 -0.9510
35680TIP3    H2 7923  10.037   3.210   6.636  0.5963  0.8121  0.1350
35681TIP3   OH2 7924   6.052   4.978   9.686 -0.3645  0.4235 -0.5592
35681TIP3    H1 7925   6.047   5.025   9.603 -1.5656 -0.6769 -1.1351
35681TIP3    H2 7926   6.098   5.038   9.745 -0.2247  1.5471 -1.7770
35682TIP3   OH2 7927   9.149   7.552   3.841  0.4862  0.8069 -0.1168
35682TIP3    H1 7928   9.192   7.490   3.901 -1.1564 -1.0608 -0.7389
35682TIP3    H2 7929   9.129   7.628   3.896 -0.4628 -0.6168  1.6295
35683TIP3   OH2 7930   4.449   1.223   3.187 -0.4774  0.1978 -0.8605
35683TIP3    H1 7931   4.504   1.230   3.109  0.7048  0.0889 -0.0762
35683TIP3    H2 7932   4.476   1.141   3.228 -2.8906 -1.0470 -1.6360
35684TIP3   OH2 7933   4.971   2.193   7.235 -0.8367 -0.1954  0.6713
35684TIP3    H1 7934   5.022   2.114   7.254  1.7263  1.6156  1.8669
35684TIP3    H2 7935   4.963   2.195   7.140  0.1585 -1.2464  0.5519
35685TIP3   OH2 7936   9.655   4.307   9.302 -0.1220  0.7432  0.0243
35685TIP3    H1 7937   9.707   4.233   9.334 -0.2958  0.3179 -0.6392
35685TIP3    H2 7938   9.681   4.381   9.357  0.3849  0.2870  0.4071
35686TIP3   OH2 7939   9.152   8.314   8.317 -0.0110 -0.6017 -0.3205
35686TIP3    H1 7940   9.132   8.363   8.237  2.1065 -1.1681 -1.2488
35686TIP3    H2 7941   9.237   8.347   8.345  0.0594 -1.6210  0.7467
35687TIP3   OH2 7942   7.305   0.621   2.659 -0.1196 -0.4962 -0.2462
35687TIP3    H1 7943   7.353   0.659   2.732 -1.0759 -1.4937  0.9277
35687TIP3    H2 7944   7.340   0.532   2.650 -0.2283 -0.4911 -0.7961
35688TIP3   OH2 7945   2.994   0.612   3.712 -0.2501 -0.5548  0.4120
35688TIP3    H1 7946   3.044   0.558   3.650  2.7576  1.1976  1.1132
35688TIP3    H2 7947   2.914   0.636   3.664 -1.2829 -4.5949 -0.2911
35689TIP3   OH2 7948   3.809   9.617   5.210  0.2184  0.2022 -0.0541
35689TIP3    H1 7949   3.739   9.669   5.250  0.5435  0.7695 -0.2174
35689TIP3    H2 7950   3.778   9.600   5.121  0.7943  1.4431 -0.5052
35690TIP3   OH2 7951   9.956   1.698   6.372 -0.4086 -0.7013  0.3821
35690TIP3    H1 7952   9.976   1.656   6.455 -0.0093  1.3577  1.4130
35690TIP3    H2 7953   9.871   1.740   6.387 -0.9808 -1.4134 -0.7279
35691TIP3   OH2 7954   4.233   5.253   0.378  0.0164  0.3957 -0.6196
35691TIP3    H1 7955   4.228   5.292   0.465  1.0451  0.0103 -0.3614
35691TIP3    H2 7956   4.183   5.172   0.385  2.0476 -0.8672  0.3724
35692TIP3   OH2 7957   8.183   9.667   3.799  0.2436  0.4788  0.9958
35692TIP3    H1 7958   8.266   9.622   3.814  0.7228  0.8535 -0.3848
35692TIP3    H2 7959   8.116   9.603   3.824  0.9285 -0.6440  0.0776
35693TIP3   OH2 7960   7.674   5.995   8.322  0.5313 -0.1129  0.1815
35693TIP3    H1 7961   7.663   5.964   8.232  2.8024 -0.1508 -0.1529
35693TIP3    H2 7962   7.587   5.988   8.361 -0.5669  0.1610 -2.0711
35694TIP3   OH2 7963   6.096  10.320   2.894  0.3227  0.1163  0.0438
35694TIP3    H1 7964   6.149  10.400   2.901  0.3172  0.2811 -1.3923
35694TIP3    H2 7965   6.032  10.326   2.965  0.2308  1.4726 -0.1363
35695TIP3   OH2 7966   1.935  10.734   4.888 -0.5252  0.3308 -0.3838
35695TIP3    H1 7967   1.919  10.802   4.823  1.3942  0.7696 -0.4589
35695TIP3    H2 7968   1.974  10.662   4.838  0.5319  0.4908  0.1903
35696TIP3   OH2 7969   1.345   6.616   6.507  0.1637 -0.3097  0.0469
35696TIP3    H1 7970   1.302   6.638   6.424  2.2665 -1.1603 -1.3362
35696TIP3    H2 7971   1.341   6.697   6.558  1.2771  1.1251 -2.0076
35697TIP3   OH2 7972  10.621   8.549   6.737  0.3052 -0.3496 -0.2629
35697TIP3    H1 7973  10.582   8.481   6.682 -1.2997 -1.3705  1.9728
35697TIP3    H2 7974  10.648   8.503   6.817  0.3211  1.4036  0.8030
35698TIP3   OH2 7975   5.558   6.986   6.037 -0.1614 -0.5627 -0.0167
35698TIP3    H1 7976   5.639   6.950   5.999  0.5937  0.5923  0.4388
35698TIP3    H2 7977   5.552   7.074   6.001 -0.8545 -0.4024  0.4796
35699TIP3   OH2 7978   5.925   7.876   9.805 -0.2913 -0.2845  1.5790
35699TIP3    H1 7979   5.934   7.897   9.898  0.2431  2.3446  1.0307
35699TIP3    H2 7980   6.005   7.912   9.765 -1.3500  0.3097 -0.1096
35700TIP3   OH2 7981  10.525   2.335   5.105  0.1765 -0.3973 -0.0523
35700TIP3    H1 7982  10.506   2.375   5.020 -0.5927 -0.1858  0.2091
35700TIP3    H2 7983  10.459   2.266   5.114  0.8741 -1.0719 -0.0581
35701TIP3   OH2 7984   0.026   5.197   6.322 -0.1514  0.0436 -0.3594
35701TIP3    H1 7985   0.117   5.224   6.335 -0.5649  0.8118  1.1176
35701TIP3    H2 7986   0.029   5.101   6.320  0.7152  0.0678 -0.6700
35702TIP3   OH2 7987   2.356   4.351  10.166  0.3016  0.0163 -0.3926
35702TIP3    H1 7988   2.422   4.392  10.222  1.6316  0.4893 -2.2210
35702TIP3    H2 7989   2.402   4.278  10.124 -0.9683 -0.9914 -0.0870
35703TIP3   OH2 7990   4.750   8.586   5.340  0.2187 -0.2119  0.2110
35703TIP3    H1 7991   4.754   8.543   5.255  0.1826 -0.3679  0.2876
35703TIP3    H2 7992   4.816   8.656   5.335 -1.0448  0.9698 -0.5961
35704TIP3   OH2 7993   5.674   2.421   3.211  0.1308 -0.0717 -0.9097
35704TIP3    H1 7994   5.650   2.342   3.162  0.5208 -0.5037 -0.4256
35704TIP3    H2 7995   5.744   2.461   3.158  1.3979 -1.1782 -0.1582
35705TIP3   OH2 7996   5.102   4.941   0.584  0.3213 -0.0832  0.1380
35705TIP3    H1 7997   5.114   4.860   0.533  1.9191 -0.2414  0.7306
35705TIP3    H2 7998   5.138   5.010   0.528  1.4784 -0.1683  0.7649
35706TIP3   OH2 7999   3.937   9.667   6.581  0.3585 -0.6343 -0.4662
35706TIP3    H1 8000   3.980   9.609   6.518  2.8085 -0.4907  0.9437
35706TIP3    H2 8001   3.955   9.755   6.549  0.0065 -0.5810 -0.5254
35707TIP3   OH2 8002   9.585   2.832   3.817  0.2840 -0.1494  0.2717
35707TIP3    H1 8003   9.517   2.881   3.770  0.2387 -0.8881 -0.4585
35707TIP3    H2 8004   9.549   2.819   3.905 -0.6153 -0.7003 -0.1685
35708TIP3   OH2 8005   5.107   6.149   7.489 -0.3055  0.2727  0.1173
35708TIP3    H1 8006   5.062   6.216   7.438 -1.9310 -0.8909 -0.0265
35708TIP3    H2 8007   5.039   6.109   7.543  0.1223 -2.6619 -1.2890
35709TIP3   OH2 8008   4.790   2.603   3.271 -0.6771 -0.1386 -0.0972
35709TIP3    H1 8009   4.861   2.635   3.216  1.2017 -1.4626  1.4052
35709TIP3    H2 8010   4.759   2.680   3.317 -0.0691  0.4359 -0.6210
35710TIP3   OH2 8011   4.217   6.818   9.027 -0.5149  0.6506 -0.2979
35710TIP3    H1 8012   4.126   6.811   9.056 -0.1068 -1.8850  0.6189
35710TIP3    H2 8013   4.247   6.728   9.020  1.9292  1.4132 -0.6391
35711TIP3   OH2 8014   3.807   6.948   6.893  0.3505  0.4090 -0.3205
35711TIP3    H1 8015   3.743   7.015   6.914 -0.4400 -1.2493  3.2265
35711TIP3    H2 8016   3.775   6.909   6.811 -1.9447  1.0965  0.1754
35712TIP3   OH2 8017  10.508   5.219   3.665  0.3047  0.1617 -0.0359
35712TIP3    H1 8018  10.496   5.250   3.576 -1.1714 -0.5393 -0.1215
35712TIP3    H2 8019  10.593   5.253   3.692  1.2686 -0.5215 -2.0770
35713TIP3   OH2 8020   7.180   5.977   1.587  0.9743  0.0925  0.1437
35713TIP3    H1 8021   7.179   6.023   1.503 -0.7269  0.8857  0.5668
35713TIP3    H2 8022   7.113   5.909   1.577 -0.4309  1.2446  1.3972
35714TIP3   OH2 8023   2.477   2.142   4.685 -0.6441  0.1149 -0.0560
35714TIP3    H1 8024   2.520   2.227   4.697 -3.1807  1.4715  0.1657
35714TIP3    H2 8025   2.426   2.152   4.605 -2.0874 -0.6574  0.7253
35715TIP3   OH2 8026   0.354   7.123   0.979  0.1030  0.1189  0.2445
35715TIP3    H1 8027   0.266   7.159   0.986 -0.5239 -1.1322 -0.8378
35715TIP3    H2 8028   0.357   7.081   0.893  2.1370  1.0948 -0.2380
35716TIP3   OH2 8029   9.428   0.816   8.327 -0.4066  0.3518  0.2332
35716TIP3    H1 8030   9.396   0.894   8.373  0.4893  0.0235  1.4864
35716TIP3    H2 8031   9.497   0.848   8.269  0.6551  0.4100  1.4723
35717TIP3   OH2 8032   4.957  10.233   1.035  0.5018 -0.3507 -0.6327
35717TIP3    H1 8033   4.863  10.219   1.031 -0.0585 -0.2386  5.0110
35717TIP3    H2 8034   4.994  10.145   1.035  0.0184 -0.5728  0.5992
35718TIP3   OH2 8035   2.658   3.983   3.933  0.1859  0.1063 -0.3713
35718TIP3    H1 8036   2.728   3.943   3.984 -0.0939 -0.8986 -0.7415
35718TIP3    H2 8037   2.698   4.061   3.894  0.4231  0.8552  1.2845
35719TIP3   OH2 8038   6.344   2.041   6.826 -0.1112 -0.1766  0.4546
35719TIP3    H1 8039   6.313   2.006   6.743  0.8418 -1.4700  0.6097
35719TIP3    H2 8040   6.438   2.056   6.812 -0.3157  1.4523  0.7049
35720TIP3   OH2 8041   5.349   8.272   8.508 -0.1623 -0.7249  0.1089
35720TIP3    H1 8042   5.426   8.223   8.534 -1.0590 -3.3191 -1.7222
35720TIP3    H2 8043   5.276   8.211   8.519 -1.7021  0.9718 -0.1129
35721TIP3   OH2 8044   5.658   7.675   3.596  0.2666 -0.0688  0.6041
35721TIP3    H1 8045   5.739   7.710   3.634 -0.4116  1.1665  0.9697
35721TIP3    H2 8046   5.683   7.646   3.508  0.7662  1.9204  0.0381
35722TIP3   OH2 8047   4.567   5.752   3.644 -0.4216  0.2368 -0.2323
35722TIP3    H1 8048   4.616   5.672   3.625  0.2005  0.0913  1.7509
35722TIP3    H2 8049   4.491   5.722   3.694 -0.6893  0.7943 -0.3021
35723TIP3   OH2 8050  10.435   0.867   6.826 -0.3875 -0.0463 -0.2148
35723TIP3    H1 8051  10.416   0.905   6.740  0.5486  0.5629 -0.1709
35723TIP3    H2 8052  10.481   0.786   6.808  2.7338  1.6013 -0.3613
35724TIP3   OH2 8053   6.359   8.537   5.365  0.7810 -0.7221  0.5446
35724TIP3    H1 8054   6.400   8.596   5.301 -0.0891 -1.0538 -0.3343
35724TIP3    H2 8055   6.431   8.479   5.392  1.4690  0.2573  0.8710
35725TIP3   OH2 8056   9.560   0.913   3.067 -0.7741 -0.0692 -0.1870
35725TIP3    H1 8057   9.621   0.861   3.119  0.5856  1.8826  0.3044
35725TIP3    H2 8058   9.556   0.869   2.983 -0.8733 -1.7718  0.6596
35726TIP3   OH2 8059   8.994   2.234   9.411 -0.5341 -0.0629 -1.0560
35726TIP3    H1 8060   8.904   2.249   9.441 -1.5615 -1.6831 -3.1263
35726TIP3    H2 8061   9.014   2.309   9.355 -1.3422 -0.6244 -2.1227
35727TIP3   OH2 8062   9.028   7.277   8.086 -0.0591  0.2250 -0.3542
35727TIP3    H1 8063   8.993   7.209   8.143 -0.1578  0.3334 -0.2854
35727TIP3    H2 8064   8.951   7.326   8.057  0.0168  0.3419 -0.3584
35728TIP3   OH2 8065   5.602   3.621  10.715 -0.2842 -0.1051 -0.4824
35728TIP3    H1 8066   5.630   3.543  10.763  0.8030  0.2730 -0.4636
35728TIP3    H2 8067   5.665   3.627  10.643 -0.1864  0.9192 -0.3170
35729TIP3   OH2 8068   0.857   1.961   0.900 -0.1203  0.0796 -0.5486
35729TIP3    H1 8069   0.896   1.924   0.821  1.5738  1.3340 -0.3532
35729TIP3    H2 8070   0.867   2.055   0.889  0.6411  0.2643  1.3674
35730TIP3   OH2 8071   1.801   0.145   6.936  0.7714  0.1871 -0.4469
35730TIP3    H1 8072   1.742   0.219   6.921  0.3064 -0.4727 -2.1014
35730TIP3    H2 8073   1.888   0.178   6.915  0.4527  0.0369 -2.0733
35731TIP3   OH2 8074   1.596   5.089   2.272  0.1582 -0.6431  0.5181
35731TIP3    H1 8075   1.664   5.124   2.329  1.8922 -0.5827 -1.4812
35731TIP3    H2 8076   1.525   5.064   2.332  1.8461 -0.5615  2.6707
35732TIP3   OH2 8077   7.649   0.360   6.850 -0.2883 -0.0562 -0.8896
35732TIP3    H1 8078   7.627   0.429   6.787 -0.1430  0.8685  0.0312
35732TIP3    H2 8079   7.744   0.367   6.860 -0.3106 -0.1828 -0.5669
35733TIP3   OH2 8080   4.992   1.661   3.435  0.2534 -0.2885  0.0651
35733TIP3    H1 8081   4.900   1.645   3.458  0.5139 -1.1806  0.5382
35733TIP3    H2 8082   5.020   1.580   3.393  0.4363  0.4978 -1.4107
35734TIP3   OH2 8083   3.010   7.828   2.920  0.4803 -0.2789  0.1294
35734TIP3    H1 8084   2.993   7.919   2.898 -1.6054 -0.9288 -1.1974
35734TIP3    H2 8085   3.091   7.806   2.873  1.8226  1.1959  1.5895
35735TIP3   OH2 8086   3.592   9.488   5.536 -0.3774 -0.1678 -0.0464
35735TIP3    H1 8087   3.498   9.504   5.537 -0.4163 -0.4044  0.0366
35735TIP3    H2 8088   3.630   9.571   5.565 -0.6850 -0.9368  2.8546
35736TIP3   OH2 8089   9.793   8.918   5.240 -0.2219  0.5055 -0.3482
35736TIP3    H1 8090   9.750   8.974   5.304  1.4954  1.7762 -0.2101
35736TIP3    H2 8091   9.834   8.849   5.292  1.2478  1.5870  0.0026
35737TIP3   OH2 8092   2.174   8.403   9.098 -0.4882  0.8577  0.1918
35737TIP3    H1 8093   2.123   8.437   9.025  0.9542 -0.1225 -1.3443
35737TIP3    H2 8094   2.230   8.476   9.125  0.5211  0.6248 -1.1681
35738TIP3   OH2 8095   6.175   1.467   2.878 -0.1765  0.0736 -0.1815
35738TIP3    H1 8096   6.173   1.526   2.802 -1.8171 -0.3514 -0.5158
35738TIP3    H2 8097   6.216   1.518   2.947 -0.1385  1.0532 -0.9095
35739TIP3   OH2 8098   6.377   7.739   2.510  0.1541 -0.3577 -0.3044
35739TIP3    H1 8099   6.332   7.655   2.501  0.4653 -0.5904  0.2540
35739TIP3    H2 8100   6.431   7.746   2.432 -0.8732 -0.0543 -1.0051
35740TIP3   OH2 8101   9.887   8.369   3.563 -0.3217  0.6540 -0.0934
35740TIP3    H1 8102   9.813   8.308   3.568 -1.2997  1.8149 -0.1339
35740TIP3    H2 8103   9.893   8.408   3.650 -0.6151  1.5275 -0.4505
35741TIP3   OH2 8104   3.541   4.989  10.372 -0.4089  0.0173  0.0969
35741TIP3    H1 8105   3.623   4.976  10.420 -0.1952  1.0655  0.0418
35741TIP3    H2 8106   3.561   5.059  10.309 -1.7066  1.2371  0.9919
35742TIP3   OH2 8107   5.397   4.487   2.259  0.1939  0.6925  0.1085
35742TIP3    H1 8108   5.482   4.461   2.295  0.4884  1.2045 -0.2132
35742TIP3    H2 8109   5.400   4.460   2.167 -1.4127 -2.6928  0.8859
35743TIP3   OH2 8110   5.650  10.614   8.634 -0.8961  0.7448 -0.3917
35743TIP3    H1 8111   5.627  10.557   8.561 -0.2865 -1.8250  1.2853
35743TIP3    H2 8112   5.743  10.635   8.620 -0.5066 -0.5595  0.1040
35744TIP3   OH2 8113   0.646   6.012   6.776  0.1444 -0.2716 -0.2389
35744TIP3    H1 8114   0.715   6.063   6.735  0.5769 -1.0015 -0.4239
35744TIP3    H2 8115   0.575   6.075   6.790  0.0353  0.0223 -1.9557
35745TIP3   OH2 8116   6.947   3.595   2.095 -0.1593 -0.3748 -0.0324
35745TIP3    H1 8117   6.926   3.509   2.131 -1.5872 -0.1862 -0.3479
35745TIP3    H2 8118   6.924   3.589   2.002  0.3072  0.1652 -0.1930
35746TIP3   OH2 8119   3.259   5.163   7.313 -0.1632  0.0155 -0.2771
35746TIP3    H1 8120   3.301   5.077   7.305  0.6801  0.2629  1.1167
35746TIP3    H2 8121   3.312   5.220   7.257 -0.3129 -0.2166 -0.6646
35747TIP3   OH2 8122   3.137   5.272   2.050  0.3075  0.4989 -0.4030
35747TIP3    H1 8123   3.067   5.261   2.115  1.4595  0.4442  0.8790
35747TIP3    H2 8124   3.158   5.365   2.053  0.2150  0.5362 -0.8716
35748TIP3   OH2 8125   8.955   5.804   8.916 -0.0247 -0.1539 -0.0115
35748TIP3    H1 8126   9.016   5.806   8.990  0.2727  0.6448 -0.2713
35748TIP3    H2 8127   8.888   5.741   8.942 -0.2120  0.5134  1.1712
35749TIP3   OH2 8128   9.325   2.562   4.719  0.1414  0.0253  0.2000
35749TIP3    H1 8129   9.361   2.620   4.652 -1.0887  1.7048  0.9460
35749TIP3    H2 8130   9.299   2.483   4.671 -1.5906  1.5525 -1.4893
35750TIP3   OH2 8131  10.841   1.683   9.577 -0.6051 -0.0955 -0.5429
35750TIP3    H1 8132  10.861   1.697   9.484 -0.1114 -1.3739 -0.6485
35750TIP3    H2 8133  10.891   1.750   9.623  0.2049 -0.2935 -1.1218
35751TIP3   OH2 8134   8.094   6.998  10.627 -0.6059  0.2522 -0.0175
35751TIP3    H1 8135   8.021   7.027  10.680  0.3522  0.4103  1.2694
35751TIP3    H2 8136   8.112   6.909  10.657  0.3596  0.5766  0.4210
35752TIP3   OH2 8137   6.909   4.360   0.946  0.4208  0.5458 -0.1976
35752TIP3    H1 8138   6.935   4.447   0.919  1.3212  0.4406  0.2773
35752TIP3    H2 8139   6.856   4.327   0.874  1.7751  0.7062 -1.3207
35753TIP3   OH2 8140   0.428   5.677   7.381 -0.1248 -0.0243  0.4271
35753TIP3    H1 8141   0.477   5.729   7.444  0.6135 -0.3602  0.1507
35753TIP3    H2 8142   0.462   5.588   7.391 -0.3247 -0.1696 -0.1187
35754TIP3   OH2 8143   8.294   5.309   4.503  0.1764 -0.2899  0.3168
35754TIP3    H1 8144   8.266   5.397   4.525 -0.2647 -1.0101  3.0266
35754TIP3    H2 8145   8.259   5.293   4.415  0.1471  2.1252 -0.1722
35755TIP3   OH2 8146   6.194   1.431   6.081  0.6775 -0.5786  0.0321
35755TIP3    H1 8147   6.277   1.384   6.079  2.4287  2.2735 -0.2943
35755TIP3    H2 8148   6.175   1.442   6.174  2.1565  1.0271  0.1964
35756TIP3   OH2 8149   7.648   3.841  10.198  1.0850  0.0626  0.4601
35756TIP3    H1 8150   7.584   3.804  10.259 -0.3330  2.0767  0.2982
35756TIP3    H2 8151   7.676   3.766  10.145 -2.9340 -0.6515 -1.0570
35757TIP3   OH2 8152   5.597  10.045   2.695 -0.0217  0.7557 -0.2280
35757TIP3    H1 8153   5.504  10.040   2.718 -0.1035  1.1467 -0.4679
35757TIP3    H2 8154   5.638  10.089   2.771 -0.0091  0.4635 -0.0643
35758TIP3   OH2 8155   3.875  10.263   2.035  0.1421 -0.3788  0.0173
35758TIP3    H1 8156   3.836  10.189   1.989  2.5793 -0.4499 -2.1804
35758TIP3    H2 8157   3.900  10.324   1.965  1.5638  0.7946  1.4755
35759TIP3   OH2 8158   4.184   3.072   0.837 -0.2845  0.1779  0.0775
35759TIP3    H1 8159   4.121   3.143   0.830 -1.6216 -1.0476 -0.8777
35759TIP3    H2 8160   4.267   3.115   0.857 -0.9323  2.0578 -1.0625
35760TIP3   OH2 8161   1.899   8.519   7.574 -0.0229  0.0416 -0.3251
35760TIP3    H1 8162   1.840   8.578   7.620 -1.8216 -0.5791 -1.6952
35760TIP3    H2 8163   1.844   8.478   7.507  1.7645 -1.2867 -1.0637
35761TIP3   OH2 8164   9.226   8.529   5.954  0.7002  0.3536  0.0670
35761TIP3    H1 8165   9.252   8.575   5.874 -0.0225  1.2948  0.3519
35761TIP3    H2 8166   9.216   8.438   5.927  2.4724  0.2879 -0.4389
35762TIP3   OH2 8167   3.752   7.906   1.740 -0.4151 -0.3539 -0.1827
35762TIP3    H1 8168   3.738   7.966   1.667  1.0386 -0.1447 -0.3238
35762TIP3    H2 8169   3.684   7.928   1.803 -0.8200  0.4249 -0.8708
35763TIP3   OH2 8170   6.987   3.968   1.634 -0.2123  0.1478 -0.0876
35763TIP3    H1 8171   6.987   3.881   1.675  0.4224 -0.4555 -1.3326
35763TIP3    H2 8172   6.942   3.955   1.551 -1.8451  1.4491  0.5486
35764TIP3   OH2 8173   7.561   2.947  10.735 -0.8829  0.7653 -0.1487
35764TIP3    H1 8174   7.648   2.936  10.775 -0.0319  2.1292 -1.4914
35764TIP3    H2 8175   7.580   2.972  10.645 -2.6151  3.0642  0.0279
35765TIP3   OH2 8176   2.974   6.558   0.072  0.6281  0.4301 -0.3857
35765TIP3    H1 8177   2.974   6.494   0.001  3.6930 -0.2513  0.0794
35765TIP3    H2 8178   3.011   6.637   0.032  1.9488  0.1781  0.2961
35766TIP3   OH2 8179   6.122   9.515   3.343 -0.5053 -0.0931 -0.5388
35766TIP3    H1 8180   6.049   9.470   3.301 -0.4003  0.1495 -0.9886
35766TIP3    H2 8181   6.155   9.453   3.407 -1.0486 -0.2403 -0.3992
35767TIP3   OH2 8182   5.624   7.465   5.919 -0.0275  0.5332  0.4415
35767TIP3    H1 8183   5.566   7.539   5.903 -0.2980  0.1075 -0.5670
35767TIP3    H2 8184   5.663   7.484   6.004 -2.4162  0.3334  1.6759
35768TIP3   OH2 8185   9.881   5.232   2.756 -0.6350  0.3835  0.2066
35768TIP3    H1 8186   9.826   5.209   2.682 -0.2923 -1.0101  0.3485
35768TIP3    H2 8187   9.820   5.240   2.830 -0.7326 -0.5573  0.2412
35769TIP3   OH2 8188   1.215   2.712   1.808 -0.5277 -0.2225  0.6488
35769TIP3    H1 8189   1.156   2.691   1.880  0.0957  0.9277  1.5411
35769TIP3    H2 8190   1.205   2.806   1.796  0.5450 -0.1315  0.3145
35770TIP3   OH2 8191   2.194   9.090   2.881 -0.1872 -0.4516 -0.1106
35770TIP3    H1 8192   2.188   9.183   2.906  0.3893 -0.0847 -1.2828
35770TIP3    H2 8193   2.108   9.071   2.843  0.2345  0.0907 -1.3967
35771TIP3   OH2 8194   8.426   8.839  10.200  0.3726  0.1337 -0.1408
35771TIP3    H1 8195   8.439   8.925  10.161  0.4624  0.5553  0.7715
35771TIP3    H2 8196   8.508   8.792  10.186  0.1871  0.0561 -0.9760
35772TIP3   OH2 8197   8.107   8.763   9.225  0.2312  0.3609 -0.3220
35772TIP3    H1 8198   8.012   8.766   9.217  0.3076  0.1501 -1.3643
35772TIP3    H2 8199   8.138   8.846   9.188  0.6019 -0.7427 -2.6739
35773TIP3   OH2 8200   3.953   5.625   5.821  0.0134  0.1603  0.2985
35773TIP3    H1 8201   4.042   5.593   5.833 -0.0310 -0.2231 -0.3346
35773TIP3    H2 8202   3.904   5.589   5.895  0.3121  0.0928  0.4627
35774TIP3   OH2 8203   7.298   2.420   9.817 -0.1511  0.1111 -0.0897
35774TIP3    H1 8204   7.360   2.368   9.766  0.9164 -0.4748  1.6958
35774TIP3    H2 8205   7.226   2.437   9.757  1.4944  0.3757 -2.0963
35775TIP3   OH2 8206   3.663  10.065   1.274 -0.0094 -0.9072  0.2665
35775TIP3    H1 8207   3.618  10.071   1.190  1.6152 -1.9944 -0.7474
35775TIP3    H2 8208   3.693   9.974   1.278 -0.8234 -1.1319  2.4772
35776TIP3   OH2 8209   0.423   1.317   6.752  0.2834 -0.3368  0.1107
35776TIP3    H1 8210   0.487   1.313   6.823 -0.1357  0.1962  0.5292
35776TIP3    H2 8211   0.395   1.226   6.741  0.1426 -0.3898  0.8322
35777TIP3   OH2 8212  10.123   6.273   7.233  0.4355  0.0948 -0.2706
35777TIP3    H1 8213  10.184   6.224   7.287  1.2559  0.3453 -0.9432
35777TIP3    H2 8214  10.119   6.224   7.151 -0.6038 -0.1488 -0.0947
35778TIP3   OH2 8215   4.499   2.949   5.661  0.1330 -0.3121 -0.4715
35778TIP3    H1 8216   4.433   2.883   5.682 -0.8434  0.6628 -0.4022
35778TIP3    H2 8217   4.455   3.033   5.674  1.3256  0.3644 -0.6283
35779TIP3   OH2 8218   0.985   5.872   5.666 -0.0259 -0.9570  0.3191
35779TIP3    H1 8219   0.918   5.805   5.655 -0.1526 -0.6070 -1.1064
35779TIP3    H2 8220   0.971   5.934   5.595  0.4172  0.3332  1.3079
35780TIP3   OH2 8221   6.877   8.132   8.322  0.4940 -0.4448 -0.4603
35780TIP3    H1 8222   6.862   8.081   8.243  1.7221 -0.1122 -0.9278
35780TIP3    H2 8223   6.857   8.223   8.297 -2.4276 -0.6778  0.5687
35781TIP3   OH2 8224   4.192   2.567   6.189  0.7096 -0.3523  0.2951
35781TIP3    H1 8225   4.208   2.657   6.159 -0.6127 -0.4432 -0.8008
35781TIP3    H2 8226   4.261   2.516   6.147  0.9022  0.0226  0.1482
35782TIP3   OH2 8227   1.154   6.413   9.663  0.6013 -0.5305 -0.1232
35782TIP3    H1 8228   1.228   6.442   9.716 -0.6896 -1.8132  2.5882
35782TIP3    H2 8229   1.183   6.329   9.627  0.9735 -0.3369 -0.2858
35783TIP3   OH2 8230   8.721   2.403   4.235 -0.4806  0.0718 -0.1732
35783TIP3    H1 8231   8.799   2.347   4.229 -1.7279 -1.7279 -0.3660
35783TIP3    H2 8232   8.756   2.492   4.241  1.5765 -0.6566 -0.5154
35784TIP3   OH2 8233   8.570   3.003   6.683  0.0614 -0.8898 -0.1782
35784TIP3    H1 8234   8.493   3.035   6.730 -0.9994 -0.9455 -1.8132
35784TIP3    H2 8235   8.574   3.056   6.604  0.5288 -2.2125 -1.0795
35785TIP3   OH2 8236   4.092   1.223   5.047 -0.1924 -0.4880  0.6716
35785TIP3    H1 8237   4.122   1.300   5.094 -1.0149 -0.5645  1.3538
35785TIP3    H2 8238   4.031   1.256   4.981  0.7467 -0.4075 -0.1756
35786TIP3   OH2 8239   0.342   8.468   5.083  0.0690 -0.1339 -0.6582
35786TIP3    H1 8240   0.393   8.549   5.091 -0.1119  0.0671 -1.4232
35786TIP3    H2 8241   0.321   8.462   4.990 -2.3567  0.4666 -0.2282
35787TIP3   OH2 8242   0.337   5.622   0.919  0.8032 -0.2857  0.2873
35787TIP3    H1 8243   0.290   5.594   0.840 -0.9929  3.2419 -0.1378
35787TIP3    H2 8244   0.404   5.683   0.887  0.1964  1.0195  1.3633
35788TIP3   OH2 8245   1.613   0.837   1.984  0.3568  0.1986  0.0482
35788TIP3    H1 8246   1.614   0.923   2.027 -1.7133 -0.1978  1.0348
35788TIP3    H2 8247   1.638   0.855   1.894  0.9877  1.6693  0.4832
35789TIP3   OH2 8248   5.364   0.798  10.014 -0.0975  0.4098  0.0441
35789TIP3    H1 8249   5.311   0.720  10.029  0.2606 -0.0054 -0.7757
35789TIP3    H2 8250   5.304   0.861   9.973  0.4821 -0.7760 -2.7860
35790TIP3   OH2 8251  10.803   1.749   8.620  0.5808 -0.3771  0.7031
35790TIP3    H1 8252  10.893   1.715   8.610  0.3007 -0.6443 -1.2511
35790TIP3    H2 8253  10.795   1.816   8.552 -1.5918 -2.3951 -1.1992
35791TIP3   OH2 8254   3.523   4.533   1.423 -0.1345  0.3182 -0.3538
35791TIP3    H1 8255   3.572   4.608   1.389  1.2636 -0.9065 -1.1558
35791TIP3    H2 8256   3.449   4.572   1.470  2.1665  2.3311  1.9295
35792TIP3   OH2 8257   7.356   7.738   7.600 -0.5530 -0.1553 -0.2158
35792TIP3    H1 8258   7.300   7.771   7.670 -0.9211 -0.2668 -0.4529
35792TIP3    H2 8259   7.438   7.713   7.644 -1.5265 -2.2314  0.5504
35793TIP3   OH2 8260   3.838   6.250   2.112 -0.0493  0.5528  0.2200
35793TIP3    H1 8261   3.905   6.285   2.053  0.1252  0.3306  0.2847
35793TIP3    H2 8262   3.785   6.326   2.136  1.6483  1.2069  2.1377
35794TIP3   OH2 8263   4.844  10.160  10.365  0.1639 -0.1132 -0.2325
35794TIP3    H1 8264   4.775  10.094  10.376  0.1109 -0.0299 -0.0688
35794TIP3    H2 8265   4.924  10.114  10.390  0.4902 -0.8724 -2.4395
35795TIP3   OH2 8266   5.624   5.130   4.406 -0.1324  0.2763 -0.2040
35795TIP3    H1 8267   5.568   5.206   4.388 -1.2004 -0.6190 -0.7172
35795TIP3    H2 8268   5.602   5.106   4.496 -0.9753 -0.3892 -0.5760
35796TIP3   OH2 8269   7.685   1.765   3.293 -0.0382 -0.2771  0.3255
35796TIP3    H1 8270   7.634   1.712   3.231 -1.0928  0.1687  0.7861
35796TIP3    H2 8271   7.650   1.854   3.282  2.6977  0.6885 -1.4994
35797TIP3   OH2 8272   2.727   2.880   9.285 -0.1901 -0.7056 -0.6023
35797TIP3    H1 8273   2.744   2.947   9.352 -1.4005  0.2732 -1.2358
35797TIP3    H2 8274   2.746   2.797   9.329 -1.8243 -0.1741  1.2928
35798TIP3   OH2 8275   4.556   1.998   5.114  0.2094 -0.1693 -0.0764
35798TIP3    H1 8276   4.550   2.057   5.189 -1.4120  0.9028 -0.9872
35798TIP3    H2 8277   4.613   2.043   5.052 -2.3668  1.3668 -1.4788
35799TIP3   OH2 8278   3.033   7.394   5.278  0.3202  0.5946  0.2381
35799TIP3    H1 8279   2.991   7.413   5.194 -1.4594  2.0588  1.3984
35799TIP3    H2 8280   3.075   7.476   5.303  1.0200  0.1049  0.6981
35800TIP3   OH2 8281   1.046   8.218   7.880 -0.1626  0.2546 -0.2340
35800TIP3    H1 8282   1.106   8.285   7.911  0.5258  0.0182 -1.0043
35800TIP3    H2 8283   0.960   8.260   7.880  0.3223  1.3011 -1.1503
35801TIP3   OH2 8284   5.448   5.499  10.087  0.3042 -0.2112 -0.2830
35801TIP3    H1 8285   5.451   5.405  10.101 -2.4688 -0.5612 -1.5078
35801TIP3    H2 8286   5.462   5.510   9.993  3.3548  0.9030  0.1739
35802TIP3   OH2 8287   3.958   7.258   9.631 -0.3530 -0.2162  0.2407
35802TIP3    H1 8288   4.017   7.187   9.605 -1.4570 -2.1675  2.7037
35802TIP3    H2 8289   3.877   7.239   9.585 -1.0900 -1.4554  1.9473
35803TIP3   OH2 8290   6.888   5.507   7.008 -0.0057 -0.2829  0.3725
35803TIP3    H1 8291   6.885   5.596   6.972  1.3775  0.2435  1.4782
35803TIP3    H2 8292   6.966   5.467   6.970 -1.4868 -1.6556 -1.3990
35804TIP3   OH2 8293   5.888   9.643   3.061  0.5670  0.2484  0.2251
35804TIP3    H1 8294   5.871   9.599   3.144  0.9349  0.2123  0.2854
35804TIP3    H2 8295   5.980   9.669   3.066  0.4816  0.6070 -0.0037
35805TIP3   OH2 8296   3.821   5.842   1.307  0.4620  0.9847  0.3994
35805TIP3    H1 8297   3.792   5.852   1.217 -0.8671 -2.2949  0.2941
35805TIP3    H2 8298   3.897   5.784   1.302 -0.4481 -0.3691  1.3887
35806TIP3   OH2 8299   0.397   1.381   4.199  0.1653  0.0493  0.0099
35806TIP3    H1 8300   0.340   1.437   4.252 -2.1565 -1.9799 -0.1437
35806TIP3    H2 8301   0.355   1.380   4.113  1.0976 -0.5865 -0.4534
35807TIP3   OH2 8302   6.177   7.133   3.996  0.1538 -0.5355 -0.5359
35807TIP3    H1 8303   6.139   7.179   4.071  1.0045  1.0521 -1.0441
35807TIP3    H2 8304   6.270   7.124   4.017  0.0988 -1.5756 -0.6861
35808TIP3   OH2 8305   3.765   0.186   1.463  0.1543 -0.2822 -0.2466
35808TIP3    H1 8306   3.676   0.162   1.439 -0.6144  1.4961  0.6453
35808TIP3    H2 8307   3.775   0.152   1.553  0.8612 -1.5726 -0.7785
35809TIP3   OH2 8308   4.871   4.057   1.314 -0.1005 -0.1453  0.6686
35809TIP3    H1 8309   4.902   4.094   1.397  0.2798 -0.3535  0.6210
35809TIP3    H2 8310   4.852   3.966   1.334 -2.0005  0.2888  1.0349
35810TIP3   OH2 8311   5.793  10.797   4.607  0.3002 -0.1826 -0.4635
35810TIP3    H1 8312   5.807  10.883   4.645  0.4435 -0.3094 -0.2253
35810TIP3    H2 8313   5.826  10.736   4.673 -1.5228 -0.5111  0.2142
35811TIP3   OH2 8314   3.006   6.528   1.600 -0.3563 -0.5340 -0.0952
35811TIP3    H1 8315   3.012   6.601   1.661  0.8716 -0.2016 -0.5886
35811TIP3    H2 8316   3.093   6.488   1.602 -0.5245 -0.9713 -1.0833
35812TIP3   OH2 8317   3.386   7.885   7.286 -0.2091  0.1209  0.1511
35812TIP3    H1 8318   3.305   7.835   7.287 -1.5368  2.1484 -0.1630
35812TIP3    H2 8319   3.389   7.928   7.371 -1.3003  2.7122 -1.0140
35813TIP3   OH2 8320   2.481   7.795   4.493  0.3434  0.4118  0.1285
35813TIP3    H1 8321   2.435   7.849   4.428 -1.5499 -2.1457 -0.8718
35813TIP3    H2 8322   2.553   7.756   4.444 -0.3399 -0.5461 -0.1520
35814TIP3   OH2 8323   4.470   8.493  10.538 -0.7447  0.5833  0.6748
35814TIP3    H1 8324   4.476   8.425  10.605 -0.2414 -0.5786 -0.5031
35814TIP3    H2 8325   4.441   8.447  10.459  1.4396  1.3339 -0.6787
35815TIP3   OH2 8326   7.494   9.330   3.578  0.1381  0.2486 -0.2317
35815TIP3    H1 8327   7.474   9.389   3.506 -0.0728  1.2362  0.6159
35815TIP3    H2 8328   7.441   9.252   3.561 -0.8397  0.9548 -0.5039
35816TIP3   OH2 8329   8.807   3.159   0.824 -0.4339 -0.1022 -0.3940
35816TIP3    H1 8330   8.744   3.087   0.828 -0.0299 -0.4249  0.7416
35816TIP3    H2 8331   8.754   3.237   0.806 -1.2735 -0.2585  1.1843
35817TIP3   OH2 8332   9.559   8.951   3.564 -0.1912  0.5030 -0.4174
35817TIP3    H1 8333   9.603   8.907   3.637  0.6606  2.0587  0.0380
35817TIP3    H2 8334   9.470   8.916   3.565  0.0722 -0.1846  0.7756
35818TIP3   OH2 8335   4.916   1.165   6.084 -0.1806 -0.3393 -0.7148
35818TIP3    H1 8336   4.988   1.207   6.037 -0.0877  0.2153 -0.0762
35818TIP3    H2 8337   4.919   1.202   6.172 -0.5102 -1.1950 -0.3351
35819TIP3   OH2 8338   2.412   6.582   1.563 -0.6969  0.2082 -0.4844
35819TIP3    H1 8339   2.383   6.501   1.607 -2.1494  1.0626  0.1992
35819TIP3    H2 8340   2.498   6.560   1.528 -0.9483 -1.5678 -0.1027
35820TIP3   OH2 8341   7.888   0.658   0.042  0.2894  0.2072  0.3044
35820TIP3    H1 8342   7.834   0.704  -0.023  1.2323  1.7814  0.5881
35820TIP3    H2 8343   7.847   0.572   0.050 -3.2752  1.8512  1.8179
35821TIP3   OH2 8344   4.247   0.408   9.985 -0.9012  0.1622 -0.0977
35821TIP3    H1 8345   4.307   0.482   9.992 -1.3560  0.5368 -0.0783
35821TIP3    H2 8346   4.215   0.395  10.074 -0.3464 -0.4647  0.0122
35822TIP3   OH2 8347   3.967   8.259   7.489  0.2601  0.1426  0.3560
35822TIP3    H1 8348   3.944   8.350   7.473 -0.0618  0.1454  0.8187
35822TIP3    H2 8349   4.045   8.263   7.545  1.7182  0.1372 -1.5278
35823TIP3   OH2 8350   3.923   0.608   0.017 -0.6488  0.1320  0.0467
35823TIP3    H1 8351   3.945   0.627   0.108  0.4264  0.1150 -0.1990
35823TIP3    H2 8352   3.978   0.667  -0.034  1.2648 -2.1090 -0.6776
35824TIP3   OH2 8353   2.824   8.739   4.127 -0.3051 -0.0980  0.0808
35824TIP3    H1 8354   2.818   8.647   4.100  2.4846  0.1185 -1.6697
35824TIP3    H2 8355   2.814   8.737   4.222  0.3554 -2.2898  0.1428
35825TIP3   OH2 8356  10.074   6.626   8.354 -0.3437 -0.0152  0.6124
35825TIP3    H1 8357  10.128   6.613   8.432 -0.9259 -0.2697  0.9758
35825TIP3    H2 8358  10.012   6.694   8.379 -0.9126 -0.5172  0.5665
35826TIP3   OH2 8359   1.046  10.089   5.873 -0.4249  0.1972 -0.2921
35826TIP3    H1 8360   1.101  10.021   5.911 -0.2088 -0.0992 -1.1102
35826TIP3    H2 8361   1.038  10.155   5.942 -0.3100 -0.4658  0.3706
35827TIP3   OH2 8362   6.637   2.019   4.521 -0.3040 -0.7261  0.0939
35827TIP3    H1 8363   6.642   2.093   4.582 -1.0813 -0.0439 -0.6464
35827TIP3    H2 8364   6.598   2.056   4.442 -2.3705 -2.3159  0.3061
35828TIP3   OH2 8365   5.426   6.845  10.038 -0.3736 -0.3120  0.0788
35828TIP3    H1 8366   5.453   6.766   9.991  2.0125  1.0255 -1.0092
35828TIP3    H2 8367   5.386   6.813  10.119 -1.1549 -2.6262 -1.1193
35829TIP3   OH2 8368   8.977  10.678   4.853 -0.2585  0.1268  0.1033
35829TIP3    H1 8369   9.040  10.698   4.784 -0.9197  0.9923 -0.2625
35829TIP3    H2 8370   8.986  10.584   4.867  1.2258  0.2510  0.1713
35830TIP3   OH2 8371   4.225   2.818   6.966 -0.0199 -0.1605 -0.3252
35830TIP3    H1 8372   4.295   2.760   6.939  0.2185  1.3085 -3.1973
35830TIP3    H2 8373   4.148   2.762   6.975  1.2231 -1.6606  2.0936
35831TIP3   OH2 8374   6.078   7.443   6.087  0.4087 -0.7314  0.0350
35831TIP3    H1 8375   6.101   7.535   6.073  3.5500 -1.5710 -1.2960
35831TIP3    H2 8376   6.078   7.405   6.000  0.2507 -2.2187  0.6601
35832TIP3   OH2 8377   9.665   4.502   3.185  0.4347  0.0480  0.0625
35832TIP3    H1 8378   9.732   4.569   3.175 -0.1383  0.4719 -1.0416
35832TIP3    H2 8379   9.635   4.512   3.276  1.9557 -0.2687  0.6292
35833TIP3   OH2 8380   8.024   0.811   3.823  0.1890 -0.1891  0.4367
35833TIP3    H1 8381   7.969   0.888   3.835 -3.7628 -2.4797 -0.9705
35833TIP3    H2 8382   8.035   0.775   3.912  1.7735  1.6371  1.0539
35834TIP3   OH2 8383   6.414   9.085   8.682 -0.4267 -0.0582  0.0863
35834TIP3    H1 8384   6.375   9.139   8.750  1.6477 -0.4340  1.6975
35834TIP3    H2 8385   6.441   9.005   8.728  0.4701 -0.5924 -1.3091
35835TIP3   OH2 8386   3.158   7.722   6.996 -0.2666 -0.8650  0.1616
35835TIP3    H1 8387   3.120   7.636   6.980 -1.3883 -0.4315  0.4503
35835TIP3    H2 8388   3.147   7.737   7.090 -3.5614  1.1495 -0.3947
35836TIP3   OH2 8389   3.190   5.259   3.951 -0.4032 -0.2309  0.0301
35836TIP3    H1 8390   3.233   5.343   3.933  1.7778 -1.4908 -1.0973
35836TIP3    H2 8391   3.259   5.204   3.987 -2.0123 -1.2999  1.6527
35837TIP3   OH2 8392  10.658   0.033   1.991 -0.2341 -0.4602  0.7061
35837TIP3    H1 8393  10.602   0.091   2.042 -0.0782 -0.1691  0.5475
35837TIP3    H2 8394  10.717  -0.006   2.056 -0.3388 -0.4382  0.8140
35838TIP3   OH2 8395   8.368   0.379   4.275 -0.7319 -0.1831 -0.2516
35838TIP3    H1 8396   8.297   0.347   4.220 -1.9319  1.5620  0.2041
35838TIP3    H2 8397   8.345   0.351   4.363 -1.0143  0.6204 -0.0644
35839TIP3   OH2 8398   0.984   7.749  10.661 -0.1574 -0.1581 -0.1372
35839TIP3    H1 8399   1.000   7.709  10.576  0.1116 -1.3977  0.4655
35839TIP3    H2 8400   1.069   7.780  10.690 -0.2694  0.3667 -0.3679
35840TIP3   OH2 8401   4.597   9.847   1.336 -0.0976  0.4295  0.2293
35840TIP3    H1 8402   4.672   9.886   1.291  0.8844 -2.2697 -0.6735
35840TIP3    H2 8403   4.623   9.847   1.429  0.7825  0.0763 -0.0054
35841TIP3   OH2 8404   5.915   3.865   5.117  0.1830  0.0046  0.1956
35841TIP3    H1 8405   5.842   3.902   5.068 -1.0763 -1.8225  0.5573
35841TIP3    H2 8406   5.960   3.808   5.054 -0.5448 -1.1929  0.7208
35842TIP3   OH2 8407   0.821   8.636   7.177 -0.3641 -0.4206 -0.4922
35842TIP3    H1 8408   0.744   8.682   7.210 -0.5964 -1.0899 -0.0775
35842TIP3    H2 8409   0.894   8.692   7.203 -0.6646 -0.1018 -0.3147
35843TIP3   OH2 8410   2.998   1.942   3.423  0.0903 -0.0791 -0.5063
35843TIP3    H1 8411   3.008   1.848   3.412  0.9972 -0.0128 -0.3466
35843TIP3    H2 8412   2.957   1.953   3.509 -0.1138 -0.3269 -0.5722
35844TIP3   OH2 8413   2.728   4.913   9.075  0.4012 -0.2622 -0.1095
35844TIP3    H1 8414   2.822   4.898   9.060  0.2197 -0.4911 -1.0898
35844TIP3    H2 8415   2.686   4.836   9.037 -0.1875 -0.1429  0.3022
35845TIP3   OH2 8416   6.118   8.657   9.899  0.4588  0.7426 -0.3199
35845TIP3    H1 8417   6.153   8.705   9.824  1.5317 -0.2580 -0.4853
35845TIP3    H2 8418   6.111   8.566   9.868 -0.4341  0.5693  0.3476
35846TIP3   OH2 8419   2.996   0.961   1.562 -0.4618  0.2773 -0.0317
35846TIP3    H1 8420   3.083   0.959   1.602  0.5199  0.3219 -1.9875
35846TIP3    H2 8421   2.972   0.868   1.552 -0.8328  0.2697  0.8595
35847TIP3   OH2 8422   1.916   5.798   0.738 -0.4634 -0.2478 -0.1330
35847TIP3    H1 8423   1.863   5.719   0.727 -1.3331  0.2693  0.2438
35847TIP3    H2 8424   1.991   5.785   0.680 -1.3881 -0.6471 -1.2650
35848TIP3   OH2 8425   4.236   8.547   8.282  0.3262 -0.0867  0.0835
35848TIP3    H1 8426   4.260   8.558   8.374  2.3457 -0.5475 -0.3561
35848TIP3    H2 8427   4.312   8.579   8.233  0.1203 -1.7299 -1.3934
35849TIP3   OH2 8428   9.920  10.821   4.798 -0.0824  0.2269 -0.0631
35849TIP3    H1 8429   9.964  10.892   4.845 -2.7536  2.5742 -0.8846
35849TIP3    H2 8430   9.886  10.862   4.718 -0.3323 -2.3912 -1.4017
35850TIP3   OH2 8431   7.095   5.314   9.996 -0.7387  0.9133  0.0509
35850TIP3    H1 8432   7.155   5.363  10.053 -1.4494 -0.4368  2.0790
35850TIP3    H2 8433   7.150   5.247   9.956 -0.3744  1.4115 -0.2976
35851TIP3   OH2 8434   7.602   3.607   3.568  0.0199  0.0763  0.2258
35851TIP3    H1 8435   7.666   3.662   3.613  0.4265  0.0701 -0.3367
35851TIP3    H2 8436   7.542   3.669   3.527 -0.5751  0.0821  1.0681
35852TIP3   OH2 8437   3.487   2.059  10.394 -0.2990  0.0708 -0.0969
35852TIP3    H1 8438   3.495   2.089  10.304 -0.2080  1.7364  0.4355
35852TIP3    H2 8439   3.577   2.042  10.422 -0.2638  0.2421 -0.1051
35853TIP3   OH2 8440   4.897   8.634   9.928  0.6860  0.0611 -0.2571
35853TIP3    H1 8441   4.961   8.692   9.887 -0.2501  0.4882 -1.1761
35853TIP3    H2 8442   4.827   8.626   9.863 -0.0338 -0.6629  0.5775
35854TIP3   OH2 8443   6.164   8.686   0.723 -0.1950  0.3022 -0.7080
35854TIP3    H1 8444   6.091   8.729   0.677  0.2666  0.5624 -1.1991
35854TIP3    H2 8445   6.243   8.721   0.682  0.2898  1.5856  1.1693
35855TIP3   OH2 8446   2.085   7.222   7.310  0.0972 -0.5119  0.1105
35855TIP3    H1 8447   2.112   7.312   7.326  0.3248 -0.3615 -1.0266
35855TIP3    H2 8448   2.154   7.169   7.350  0.5367 -0.1577 -0.1616
35856TIP3   OH2 8449   9.544   1.531   0.915  0.3274  0.1206  0.4754
35856TIP3    H1 8450   9.520   1.438   0.915  0.7752 -0.0292 -1.2486
35856TIP3    H2 8451   9.571   1.548   0.825  1.2708  1.6741  1.0271
35857TIP3   OH2 8452   4.514   9.959   8.862 -0.2629 -0.0360  0.6574
35857TIP3    H1 8453   4.561  10.006   8.793  0.7316 -1.4063  0.3578
35857TIP3    H2 8454   4.450   9.905   8.815 -0.6926  0.2347  0.9265
35858TIP3   OH2 8455  10.614   5.905   2.013  0.2172  0.1644  0.1373
35858TIP3    H1 8456  10.634   5.955   1.934  0.4053 -1.5960 -0.9762
35858TIP3    H2 8457  10.685   5.842   2.021 -0.3950 -0.4382  1.0667
35859TIP3   OH2 8458   1.854   0.375   3.056  0.5240 -0.0971  0.1970
35859TIP3    H1 8459   1.821   0.300   3.007 -2.2211  1.5355 -0.6933
35859TIP3    H2 8460   1.823   0.361   3.146  1.3142 -0.7189  0.3810
35860TIP3   OH2 8461   4.350   2.245   0.227  0.0421  0.3310  0.0792
35860TIP3    H1 8462   4.319   2.328   0.191  0.1743  0.7474  0.8895
35860TIP3    H2 8463   4.340   2.255   0.322 -1.2527 -1.1098  0.1305
35861TIP3   OH2 8464   1.483   4.255   6.642 -0.3172  0.5813  0.5825
35861TIP3    H1 8465   1.401   4.207   6.640  0.7082 -1.4274  2.4087
35861TIP3    H2 8466   1.498   4.272   6.735  2.0046 -0.4345  0.4617
35862TIP3   OH2 8467   1.985   5.432  10.461 -0.0415  0.0314  0.1437
35862TIP3    H1 8468   1.945   5.515  10.487 -0.1984 -0.0022  0.0099
35862TIP3    H2 8469   1.942   5.410  10.378 -0.9443 -0.8412  0.8230
35863TIP3   OH2 8470  10.739   0.575   7.049 -0.1570 -0.2669 -0.2604
35863TIP3    H1 8471  10.660   0.528   7.022 -0.4380  0.0489 -0.0051
35863TIP3    H2 8472  10.736   0.657   6.999  0.1210 -0.3483 -0.4085
35864TIP3   OH2 8473   1.346   4.627   7.773  0.1437 -0.2460  0.1038
35864TIP3    H1 8474   1.378   4.712   7.804 -1.9251  1.1979 -1.4210
35864TIP3    H2 8475   1.252   4.641   7.756 -0.4632 -3.0918  0.5918
35865TIP3   OH2 8476   1.326  10.535   7.143  0.1514  0.1919 -0.3087
35865TIP3    H1 8477   1.252  10.596   7.139  0.5968  0.6834 -1.9846
35865TIP3    H2 8478   1.307  10.469   7.077  0.4426 -0.6274  0.3960
35866TIP3   OH2 8479   0.811   8.391   3.975  0.2080  0.5138  0.4061
35866TIP3    H1 8480   0.768   8.468   4.013 -0.5378 -0.5264  1.7304
35866TIP3    H2 8481   0.901   8.395   4.009  0.1046  0.6675  0.6644
35867TIP3   OH2 8482   3.196   4.174   7.914 -0.5308  0.0384 -0.1391
35867TIP3    H1 8483   3.146   4.099   7.881 -0.5878  0.3600 -0.7939
35867TIP3    H2 8484   3.252   4.199   7.841  1.6683 -1.2083  1.0385
35868TIP3   OH2 8485   1.222   5.426   1.161  0.5240  0.6173  0.1808
35868TIP3    H1 8486   1.241   5.398   1.071  0.5679 -1.9340  0.8918
35868TIP3    H2 8487   1.172   5.353   1.198  1.0790  1.3097  2.4216
35869TIP3   OH2 8488   0.174   1.017   1.609  0.1022 -0.1595  0.3507
35869TIP3    H1 8489   0.240   1.008   1.540 -0.5858  1.5061 -0.5963
35869TIP3    H2 8490   0.172   1.111   1.627  0.0600 -0.5212  2.4837
35870TIP3   OH2 8491   7.843   9.446   0.309  0.5426  0.3196 -0.4707
35870TIP3    H1 8492   7.880   9.444   0.221  2.1353  2.8379  0.0339
35870TIP3    H2 8493   7.784   9.370   0.312  1.8659 -0.9526 -3.0314
35871TIP3   OH2 8494   8.989   7.393   4.618 -0.4444  0.0614 -0.1062
35871TIP3    H1 8495   9.025   7.399   4.706 -0.5231 -0.7087 -0.0175
35871TIP3    H2 8496   9.032   7.317   4.579  2.7227  2.6251 -2.2059
35872TIP3   OH2 8497   8.335   6.877   0.885  0.1076 -0.2407  0.4364
35872TIP3    H1 8498   8.368   6.812   0.947  0.6439 -1.6073 -1.2148
35872TIP3    H2 8499   8.414   6.922   0.854 -0.2394  1.0886  1.3997
35873TIP3   OH2 8500   6.895   5.468  10.116  0.1467  0.1604  0.2102
35873TIP3    H1 8501   6.879   5.558  10.089 -1.2357 -0.2812 -0.5911
35873TIP3    H2 8502   6.969   5.439  10.062  3.1108  1.8355  3.0009
35874TIP3   OH2 8503   8.121   7.935   1.961  0.2090 -0.1757  0.3258
35874TIP3    H1 8504   8.167   7.866   1.915  0.2376 -0.0792  0.2101
35874TIP3    H2 8505   8.038   7.944   1.915  0.6356  0.5882 -0.3103
35875TIP3   OH2 8506   2.632   2.378   4.394 -0.7563  0.3580  0.2147
35875TIP3    H1 8507   2.714   2.386   4.443 -0.2012  0.0848 -0.6283
35875TIP3    H2 8508   2.598   2.292   4.418  0.1767 -0.3378 -0.8043
35876TIP3   OH2 8509   3.335   2.348   6.662  0.1100  0.3032 -0.2573
35876TIP3    H1 8510   3.278   2.411   6.707 -0.1564 -0.7204  0.9163
35876TIP3    H2 8511   3.421   2.390   6.661  0.0465  0.5182  0.9411
35877TIP3   OH2 8512   9.343   0.628  10.550 -0.2159  0.1176  0.3793
35877TIP3    H1 8513   9.296   0.658  10.628 -1.2909  1.8520 -0.8647
35877TIP3    H2 8514   9.285   0.650  10.477  2.2277  1.8620 -1.1860
35878TIP3   OH2 8515  10.199   9.938   6.730 -0.7497 -0.0511  0.5847
35878TIP3    H1 8516  10.119   9.951   6.781 -1.0919  1.9360 -0.3748
35878TIP3    H2 8517  10.269   9.943   6.795 -1.1864  2.2149  0.9598
35879TIP3   OH2 8518   6.184   3.450   9.087 -0.1454  0.2699 -0.2706
35879TIP3    H1 8519   6.149   3.448   8.997  0.1846 -1.2071 -0.4043
35879TIP3    H2 8520   6.139   3.377   9.130  0.9809 -0.1281  0.2512
35880TIP3   OH2 8521   0.916   2.219   7.627 -0.2159  0.5974 -0.4043
35880TIP3    H1 8522   0.986   2.241   7.565 -0.0863  0.7184 -0.2173
35880TIP3    H2 8523   0.927   2.282   7.698  0.4426 -0.3588  0.3677
35881TIP3   OH2 8524   6.164   6.522   2.823  0.1951  0.2015  0.5645
35881TIP3    H1 8525   6.094   6.544   2.884  0.2534  0.0946  0.6695
35881TIP3    H2 8526   6.145   6.432   2.795 -1.1139  0.9894 -1.3131
35882TIP3   OH2 8527   1.684   7.430   5.461 -0.5428 -0.4046 -0.0629
35882TIP3    H1 8528   1.644   7.483   5.531  1.1090  2.2045 -0.9701
35882TIP3    H2 8529   1.610   7.404   5.406 -1.3320  2.1859 -0.3416
35883TIP3   OH2 8530   1.345   6.334   3.034 -0.4476 -0.2754  0.1936
35883TIP3    H1 8531   1.332   6.428   3.044 -0.5373 -0.4003  1.3926
35883TIP3    H2 8532   1.438   6.324   3.014 -0.7033  0.1438 -1.3452
35884TIP3   OH2 8533   5.064  10.449   4.228 -0.5336  0.6238 -0.2548
35884TIP3    H1 8534   5.066  10.368   4.177 -0.6745  0.6209 -0.2582
35884TIP3    H2 8535   5.056  10.420   4.319  1.5905  0.5713 -0.0367
35885TIP3   OH2 8536   0.450   3.243   2.263 -0.0011 -0.5491 -0.0824
35885TIP3    H1 8537   0.389   3.227   2.191  0.3197  0.1297 -0.5137
35885TIP3    H2 8538   0.459   3.338   2.266  0.0814 -0.5713  0.7819
35886TIP3   OH2 8539   2.407   3.426   0.239 -0.2439 -0.0679 -0.1653
35886TIP3    H1 8540   2.433   3.508   0.282  1.0049  1.2454 -3.1379
35886TIP3    H2 8541   2.317   3.443   0.209 -0.9555 -0.8257  1.4233
35887TIP3   OH2 8542   0.582   9.179   5.246 -0.6826  0.5702 -0.3438
35887TIP3    H1 8543   0.671   9.157   5.275 -0.7598  0.0423 -0.4979
35887TIP3    H2 8544   0.528   9.165   5.324 -0.8480 -0.5780 -0.6404
35888TIP3   OH2 8545   0.805   2.099   3.459 -0.2104  0.0396  0.2721
35888TIP3    H1 8546   0.799   2.165   3.529 -0.9845  1.6732 -1.2407
35888TIP3    H2 8547   0.893   2.108   3.425 -0.1201 -0.1471  0.4508
35889TIP3   OH2 8548   2.267   1.204   0.589 -0.2763  0.1700 -0.1204
35889TIP3    H1 8549   2.223   1.147   0.526 -1.4318  0.2032  0.6146
35889TIP3    H2 8550   2.196   1.260   0.623  0.9438  2.7740 -1.5547
35890TIP3   OH2 8551   1.316   0.314   4.763 -0.2697  0.2227  0.6897
35890TIP3    H1 8552   1.387   0.374   4.741 -0.9986  0.9663  0.2734
35890TIP3    H2 8553   1.238   0.370   4.764 -0.8091 -0.5230  1.3824
35891TIP3   OH2 8554   1.096   0.418   3.950  0.5832 -0.2280 -0.4054
35891TIP3    H1 8555   1.178   0.385   3.913  0.3614  0.0078 -1.1179
35891TIP3    H2 8556   1.057   0.470   3.880  2.0504  3.6074  1.3337
35892TIP3   OH2 8557   8.828   5.372   4.321 -0.3384  0.0988  0.3066
35892TIP3    H1 8558   8.787   5.329   4.396  2.6717  2.8612  3.9473
35892TIP3    H2 8559   8.779   5.454   4.312 -1.1316 -0.5115 -1.3910
35893TIP3   OH2 8560   2.990   3.807   5.310  0.1214  0.0986 -0.0169
35893TIP3    H1 8561   2.910   3.853   5.337 -0.5774 -1.3674  0.4921
35893TIP3    H2 8562   3.003   3.739   5.376  1.2453 -0.3172 -0.6343
35894TIP3   OH2 8563  10.271   5.814   4.218 -0.2270 -0.2727 -0.1439
35894TIP3    H1 8564  10.305   5.797   4.306  0.3864  1.6143  0.0176
35894TIP3    H2 8565  10.206   5.745   4.205  0.3205 -1.1553  1.4057
35895TIP3   OH2 8566   9.863   7.075   7.658 -0.0497 -0.6208  0.0012
35895TIP3    H1 8567   9.838   7.104   7.746 -1.7100  0.9227 -0.9145
35895TIP3    H2 8568   9.930   7.008   7.673  2.1785  1.8560  2.3762
35896TIP3   OH2 8569   2.638   6.929   8.972 -0.4783  0.0157  0.0227
35896TIP3    H1 8570   2.622   6.934   9.066  0.5702 -0.7170  0.2684
35896TIP3    H2 8571   2.552   6.916   8.933 -1.0966  1.6106  0.7525
35897TIP3   OH2 8572   2.265   7.941   2.447 -0.0935  0.1720 -0.0386
35897TIP3    H1 8573   2.352   7.903   2.459  0.0556  0.6185  0.3420
35897TIP3    H2 8574   2.281   8.024   2.402 -0.1422  1.1100  1.6069
35898TIP3   OH2 8575   5.608   3.296   6.452 -0.2237  0.0577 -0.0784
35898TIP3    H1 8576   5.532   3.293   6.510 -0.0662  0.1712  0.1348
35898TIP3    H2 8577   5.581   3.248   6.374  0.0892 -1.4399  0.7078
35899TIP3   OH2 8578   3.063   7.513   3.636 -0.7942  0.4513 -0.5022
35899TIP3    H1 8579   3.112   7.488   3.714  0.4529 -3.4346 -2.2909
35899TIP3    H2 8580   3.129   7.548   3.577 -1.4704  1.8900 -0.4433
35900TIP3   OH2 8581   2.985   0.417   8.161 -0.0062 -0.1660 -0.4535
35900TIP3    H1 8582   2.892   0.433   8.176 -0.2632  0.4179 -2.4570
35900TIP3    H2 8583   2.989   0.330   8.121  0.3358 -0.2599 -0.2256
35901TIP3   OH2 8584   6.583   1.612   4.619 -0.3514 -0.7581  0.4582
35901TIP3    H1 8585   6.646   1.562   4.672 -0.0985  0.4414  1.3419
35901TIP3    H2 8586   6.586   1.571   4.533  1.6921 -0.7378  0.4615
35902TIP3   OH2 8587   5.579   4.364   6.907  0.3597  0.2755  0.1983
35902TIP3    H1 8588   5.602   4.444   6.954 -1.6145 -0.8697  3.3781
35902TIP3    H2 8589   5.615   4.293   6.961 -3.1642 -1.1700  0.9383
35903TIP3   OH2 8590   4.049   0.192   3.617 -0.4270  0.1693 -0.0371
35903TIP3    H1 8591   4.021   0.183   3.708 -1.4711  0.8198 -0.2750
35903TIP3    H2 8592   4.144   0.191   3.621 -0.4595  0.4378  1.0861
35904TIP3   OH2 8593   9.625   1.255   9.047  0.3364  0.1510  0.0305
35904TIP3    H1 8594   9.634   1.327   8.985 -1.7470  1.5442  1.2367
35904TIP3    H2 8595   9.694   1.271   9.112  0.3731  0.6170 -0.1189
35905TIP3   OH2 8596   3.559   5.204   9.309  0.7150  0.0804 -0.3391
35905TIP3    H1 8597   3.520   5.265   9.246 -0.4641  1.4276  1.5945
35905TIP3    H2 8598   3.529   5.118   9.279 -0.4498  0.7507 -1.2165
35906TIP3   OH2 8599   9.697   6.355   0.166  0.3568  0.4483 -0.0432
35906TIP3    H1 8600   9.730   6.382   0.080  0.2089 -1.6163 -0.7888
35906TIP3    H2 8601   9.608   6.388   0.169  0.1706  0.0408 -0.9346
35907TIP3   OH2 8602   1.469   4.229   7.412  0.3184  0.6022  0.2795
35907TIP3    H1 8603   1.454   4.164   7.481 -1.8376  1.4819  0.7078
35907TIP3    H2 8604   1.476   4.312   7.458  0.7131  0.9729 -0.4379
35908TIP3   OH2 8605   3.874   1.915   7.612 -0.3993 -0.0620  0.1820
35908TIP3    H1 8606   3.839   1.928   7.700 -1.2645 -0.4836 -0.0884
35908TIP3    H2 8607   3.863   1.822   7.595 -0.0599 -0.0196 -0.2942
35909TIP3   OH2 8608   2.690   2.465   5.059 -0.4734  0.8967  0.5418
35909TIP3    H1 8609   2.677   2.558   5.043  0.0862  0.9372  0.3094
35909TIP3    H2 8610   2.700   2.457   5.154  1.8057  1.3817  0.3901
35910TIP3   OH2 8611   7.342   7.571   7.162  0.8484 -0.0325  0.4767
35910TIP3    H1 8612   7.343   7.490   7.214  0.8108  0.3668  1.1035
35910TIP3    H2 8613   7.280   7.628   7.208  0.8882  0.3619  0.0446
35911TIP3   OH2 8614   6.516   2.851   0.008  0.5458  0.7756  0.0723
35911TIP3    H1 8615   6.510   2.757  -0.006  1.2062  0.6607  0.4821
35911TIP3    H2 8616   6.435   2.887  -0.027  0.8151  0.1880 -1.1915
35912TIP3   OH2 8617   7.871   1.724  10.063  0.1157 -0.0364 -0.2579
35912TIP3    H1 8618   7.954   1.677  10.067 -0.5532 -1.4054 -1.2957
35912TIP3    H2 8619   7.833   1.714  10.150  1.4367  1.4395  0.5298
35913TIP3   OH2 8620   8.576   8.146   4.241 -0.0240 -0.4908  0.1321
35913TIP3    H1 8621   8.512   8.204   4.283 -1.2435 -0.7519 -1.2706
35913TIP3    H2 8622   8.553   8.148   4.148  1.8822 -0.8018 -0.3869
35914TIP3   OH2 8623   0.109   2.336   6.209  0.2644  0.0737  0.5017
35914TIP3    H1 8624   0.194   2.378   6.196  0.0363  0.2023 -0.6704
35914TIP3    H2 8625   0.121   2.281   6.287  1.1184  0.8475  0.9245
35915TIP3   OH2 8626   5.824   3.535   7.302  0.2755  0.5833 -0.1753
35915TIP3    H1 8627   5.868   3.598   7.245  0.3334  1.0692  0.3858
35915TIP3    H2 8628   5.732   3.541   7.279  0.5335 -0.8252 -1.7301
35916TIP3   OH2 8629   0.658   1.653   5.269  0.1961 -0.0652  0.4590
35916TIP3    H1 8630   0.703   1.735   5.289 -0.1729  0.2983 -0.1638
35916TIP3    H2 8631   0.727   1.587   5.265  0.6638  0.4565 -0.3476
35917TIP3   OH2 8632   4.409   7.861   8.162 -0.1060  0.1076  0.0488
35917TIP3    H1 8633   4.375   7.816   8.239 -0.0803 -0.7024 -0.4028
35917TIP3    H2 8634   4.486   7.908   8.194  0.0215 -0.3800  0.4753
35918TIP3   OH2 8635   2.904   4.707   5.763  0.3597 -0.2912 -0.0385
35918TIP3    H1 8636   2.907   4.802   5.752  3.6007 -0.1137  1.4623
35918TIP3    H2 8637   2.870   4.694   5.851  1.9281 -0.3677  0.5854
35919TIP3   OH2 8638   9.459   6.831   8.479  0.3974 -0.1413 -0.5663
35919TIP3    H1 8639   9.539   6.878   8.501  0.8039 -1.0452 -0.0855
35919TIP3    H2 8640   9.487   6.744   8.454 -0.1324  0.5015 -3.8083
35920TIP3   OH2 8641  10.243   9.140  10.874  0.4495  0.3025  0.3137
35920TIP3    H1 8642  10.159   9.154  10.918  0.1372  1.2563 -0.5494
35920TIP3    H2 8643  10.234   9.184  10.790  0.1250 -3.5602 -1.8982
35921TIP3   OH2 8644   0.924   4.341   8.897  0.1558  0.0003  0.1781
35921TIP3    H1 8645   0.906   4.303   8.811  0.7988 -0.0300  0.0498
35921TIP3    H2 8646   0.990   4.282   8.935 -2.0388 -1.5407  1.8018
35922TIP3   OH2 8647   8.550   0.195   0.735 -0.0232  0.0866  1.3288
35922TIP3    H1 8648   8.621   0.233   0.788  0.7617  1.3949 -0.5579
35922TIP3    H2 8649   8.570   0.221   0.646 -2.7431  0.2498  0.6749
35923TIP3   OH2 8650   5.234   2.823   8.254  0.2979  0.1843  0.3868
35923TIP3    H1 8651   5.273   2.767   8.321 -0.9709  0.6086  1.5414
35923TIP3    H2 8652   5.268   2.910   8.272  2.6580 -0.1881 -1.7101
35924TIP3   OH2 8653   1.462  10.127  10.516 -0.4438 -0.4469 -0.2341
35924TIP3    H1 8654   1.526  10.197  10.502 -0.4486 -0.3200  0.3621
35924TIP3    H2 8655   1.505  10.049  10.483 -0.0551 -0.3280 -0.0260
35925TIP3   OH2 8656   0.690   6.940   5.235  0.1898 -0.9200  0.3315
35925TIP3    H1 8657   0.756   7.009   5.244  0.7573 -1.2139 -1.3636
35925TIP3    H2 8658   0.738   6.865   5.201 -0.5770 -1.9324  1.4175
35926TIP3   OH2 8659   2.941   1.823   7.062  0.0737 -0.0802 -0.1992
35926TIP3    H1 8660   2.889   1.767   7.004 -2.2054  0.0099  1.6191
35926TIP3    H2 8661   2.886   1.835   7.139  1.3825  2.9590  0.3857
35927TIP3   OH2 8662   4.171   4.273   1.398 -0.3647 -0.7796  0.6833
35927TIP3    H1 8663   4.191   4.324   1.476  0.1084 -2.2116  1.5419
35927TIP3    H2 8664   4.202   4.327   1.325  0.3959  0.0133  1.5687
35928TIP3   OH2 8665   7.636   0.235   7.128  0.5429 -0.0307  0.2359
35928TIP3    H1 8666   7.554   0.246   7.175 -0.7326 -1.1371 -1.5703
35928TIP3    H2 8667   7.618   0.271   7.040  1.6955 -1.0565 -0.4545
35929TIP3   OH2 8668   9.845   8.710   1.090 -0.0247  0.2388  0.8063
35929TIP3    H1 8669   9.921   8.766   1.104  0.6806  0.0946 -1.8899
35929TIP3    H2 8670   9.860   8.635   1.148  0.8070  1.1553  1.8383
35930TIP3   OH2 8671   9.612   1.515   4.047 -0.4406 -0.3131  0.0213
35930TIP3    H1 8672   9.603   1.577   3.975 -4.7558 -2.1638 -1.3429
35930TIP3    H2 8673   9.565   1.556   4.120  1.8079  0.4839  1.0882
35931TIP3   OH2 8674   0.842   5.521   1.366 -0.1584 -0.2057 -0.7872
35931TIP3    H1 8675   0.841   5.601   1.419 -0.5802 -1.3039  0.9554
35931TIP3    H2 8676   0.923   5.528   1.315  0.0578  1.1134 -0.3192
35932TIP3   OH2 8677   3.063   3.891   0.511  0.4620 -0.1228 -0.0806
35932TIP3    H1 8678   2.982   3.935   0.485  1.4838  1.3195 -0.9416
35932TIP3    H2 8679   3.072   3.818   0.450  0.2499  0.2282 -0.5338
35933TIP3   OH2 8680   0.404   8.850   4.145 -0.1654  0.1636  0.7450
35933TIP3    H1 8681   0.363   8.791   4.081  1.1969 -1.0914  0.9863
35933TIP3    H2 8682   0.333   8.871   4.206 -0.9741 -0.2649 -0.0190
35934TIP3   OH2 8683   2.541   2.174   8.273  0.2313  0.7526 -0.5729
35934TIP3    H1 8684   2.450   2.198   8.253  0.9577  2.2700 -2.2763
35934TIP3    H2 8685   2.547   2.082   8.246 -0.4870  0.9929 -1.6381
35935TIP3   OH2 8686   7.510   9.733   5.741 -0.1398  1.0006 -0.0058
35935TIP3    H1 8687   7.520   9.664   5.807 -1.7677  0.8290  0.1005
35935TIP3    H2 8688   7.590   9.729   5.690 -0.7400 -1.9437 -0.9137
35936TIP3   OH2 8689   0.930   9.733   7.320  0.2139  0.0404 -0.1705
35936TIP3    H1 8690   0.908   9.714   7.228 -0.4021  0.9529 -0.2181
35936TIP3    H2 8691   0.887   9.816   7.338 -0.7487 -0.7568  1.3382
35937TIP3   OH2 8692   9.720   0.183   8.453 -0.0836  0.1683  0.1543
35937TIP3    H1 8693   9.775   0.196   8.530  2.0307 -0.8318 -1.0895
35937TIP3    H2 8694   9.716   0.269   8.411 -0.6988  0.5668  1.0074
35938TIP3   OH2 8695   7.195   4.148   0.565 -0.1406  0.2221 -0.2283
35938TIP3    H1 8696   7.245   4.069   0.583 -0.1603  0.2065 -0.2408
35938TIP3    H2 8697   7.110   4.131   0.606 -0.3904 -0.0550 -0.8402
35939TIP3   OH2 8698   9.191   2.839   8.916 -0.1134  0.5838 -0.3689
35939TIP3    H1 8699   9.104   2.805   8.897 -0.7316  2.3251 -0.8163
35939TIP3    H2 8700   9.251   2.778   8.873 -1.1366 -0.1361 -0.8093
35940TIP3   OH2 8701   1.863   1.171   1.984 -0.2766 -0.1310 -0.4394
35940TIP3    H1 8702   1.879   1.097   1.926 -0.7249  1.1117 -2.2250
35940TIP3    H2 8703   1.950   1.194   2.017 -0.0824 -1.1555 -0.1750
35941TIP3   OH2 8704   5.587   4.787  10.726  0.3127  0.2866 -0.4679
35941TIP3    H1 8705   5.676   4.821  10.726  0.7051 -0.7109 -0.4012
35941TIP3    H2 8706   5.535   4.857  10.765  1.0989  0.8014 -0.3202
35942TIP3   OH2 8707   5.185   2.014   2.972 -0.3075  0.2241  0.1633
35942TIP3    H1 8708   5.133   2.075   3.025  3.0441  1.8215  1.9372
35942TIP3    H2 8709   5.194   1.936   3.028  1.7964  1.2498  1.3953
35943TIP3   OH2 8710   7.471   3.384   4.385 -0.5139  0.6147 -0.0349
35943TIP3    H1 8711   7.471   3.393   4.290  1.2304 -1.9538 -0.3629
35943TIP3    H2 8712   7.529   3.454   4.415 -1.1124  1.4787 -0.8143
35944TIP3   OH2 8713   3.390   9.544   5.268 -0.0931 -0.1252 -0.7734
35944TIP3    H1 8714   3.302   9.578   5.281  0.3082  1.2374 -1.4941
35944TIP3    H2 8715   3.382   9.485   5.193 -0.4286 -0.1885 -0.6909
35945TIP3   OH2 8716   1.775   3.522   1.789 -0.1379 -0.5263 -0.0887
35945TIP3    H1 8717   1.795   3.449   1.732  0.6762 -2.3728  2.3696
35945TIP3    H2 8718   1.687   3.504   1.823  0.1780 -0.5617  0.7509
35946TIP3   OH2 8719   8.633   6.624   6.466 -0.6750 -0.2004  0.0644
35946TIP3    H1 8720   8.558   6.663   6.420  1.3346  0.4586 -2.9990
35946TIP3    H2 8721   8.594   6.577   6.539 -4.2305 -0.9948 -2.0657
35947TIP3   OH2 8722  10.036   0.722   5.141  0.2761 -0.0348 -0.3640
35947TIP3    H1 8723   9.989   0.774   5.076 -0.8211 -1.8461 -1.0813
35947TIP3    H2 8724  10.126   0.753   5.136 -0.0085  0.6049 -1.9854
35948TIP3   OH2 8725  10.109   5.287   1.366 -0.1268 -0.0161 -1.3673
35948TIP3    H1 8726  10.062   5.366   1.392  1.2154  0.1644  0.8116
35948TIP3    H2 8727  10.108   5.289   1.271 -3.4077  0.5795 -1.4538
35949TIP3   OH2 8728  10.839   6.434   9.685 -0.0530 -0.1587 -0.3987
35949TIP3    H1 8729  10.751   6.470   9.691  0.2079  0.8491 -2.0415
35949TIP3    H2 8730  10.853   6.421   9.591  1.5212 -0.3866 -0.1567
35950TIP3   OH2 8731   9.979   0.390   3.703  0.1235 -0.5725 -0.1252
35950TIP3    H1 8732   9.941   0.303   3.692 -0.4439 -0.2655 -0.6733
35950TIP3    H2 8733   9.911   0.450   3.672  1.2077 -0.0309 -1.5409
35951TIP3   OH2 8734   6.533   9.658   6.024  0.6800 -0.0316  0.3659
35951TIP3    H1 8735   6.449   9.703   6.026 -0.2763 -1.7240 -0.1118
35951TIP3    H2 8736   6.598   9.727   6.038 -0.7537  1.3670  0.2994
35952TIP3   OH2 8737   2.718   1.881   9.172  0.9088 -0.0060 -0.2662
35952TIP3    H1 8738   2.677   1.908   9.089 -1.1189 -1.2836  0.2353
35952TIP3    H2 8739   2.709   1.786   9.173  1.4480 -0.0691  1.1578
35953TIP3   OH2 8740   6.994   8.568   2.235 -0.4676 -0.0469 -0.3909
35953TIP3    H1 8741   7.004   8.540   2.326  1.8235  0.9424 -0.2836
35953TIP3    H2 8742   6.951   8.653   2.240  1.6254  1.0494 -0.0180
35954TIP3   OH2 8743   5.330  10.375   9.460 -0.3063  0.0859 -0.0027
35954TIP3    H1 8744   5.421  10.403   9.461 -0.8703  2.0997 -1.1029
35954TIP3    H2 8745   5.280  10.453   9.439 -2.4579 -0.6297  1.9497
35955TIP3   OH2 8746   1.155   3.145   6.469 -0.3066  0.5493 -0.0780
35955TIP3    H1 8747   1.202   3.175   6.390 -1.0284 -1.7006 -1.4429
35955TIP3    H2 8748   1.223   3.137   6.536  0.8495 -0.2733 -1.3063
35956TIP3   OH2 8749   1.880   9.000   2.230  0.2476 -0.2773 -0.3079
35956TIP3    H1 8750   1.815   8.930   2.230  2.0396 -2.0369  0.7695
35956TIP3    H2 8751   1.948   8.970   2.290  1.0990  2.4238  0.2515
35957TIP3   OH2 8752   1.479   4.512   5.579 -0.2271  0.2537 -0.2072
35957TIP3    H1 8753   1.410   4.525   5.514  0.1393  0.0973 -0.6349
35957TIP3    H2 8754   1.441   4.453   5.643  0.0136 -1.0816 -1.2476
35958TIP3   OH2 8755   6.069  10.015   5.244 -0.1598  0.0157 -0.2259
35958TIP3    H1 8756   6.131  10.037   5.175 -0.7738  1.1274 -0.4670
35958TIP3    H2 8757   6.033  10.100   5.271 -1.9612 -0.6188 -0.4761
35959TIP3   OH2 8758   8.699  10.094   7.323  0.3607  0.2642 -0.3305
35959TIP3    H1 8759   8.604  10.091   7.334  0.1032  1.8181 -1.7039
35959TIP3    H2 8760   8.729  10.151   7.394  0.7610 -2.8874  2.2435
35960TIP3   OH2 8761   6.862   9.443   7.049 -0.2121 -0.1657 -0.5353
35960TIP3    H1 8762   6.806   9.469   7.122  2.0990  0.6773  1.0544
35960TIP3    H2 8763   6.888   9.353   7.070 -1.7025 -0.9496 -1.8132
35961TIP3   OH2 8764   5.453   1.313   9.365  0.7303 -0.0054  0.4060
35961TIP3    H1 8765   5.493   1.291   9.449 -0.2480 -0.0677  0.8636
35961TIP3    H2 8766   5.439   1.407   9.369 -0.3176 -0.1642  0.7697
35962TIP3   OH2 8767   0.296   4.788   1.591 -1.2370  0.6078  0.1725
35962TIP3    H1 8768   0.378   4.799   1.639 -1.9558  2.8602  0.9924
35962TIP3    H2 8769   0.319   4.801   1.500 -0.6841  1.2486  0.4035
35963TIP3   OH2 8770   3.950   3.140   3.324  0.0854 -0.0470 -0.4275
35963TIP3    H1 8771   3.934   3.173   3.236 -0.1828  1.2174  0.0710
35963TIP3    H2 8772   3.978   3.217   3.374 -1.1224 -0.4302  0.9338
35964TIP3   OH2 8773   1.908   8.743   3.628  0.4430  0.2191  0.2166
35964TIP3    H1 8774   1.836   8.772   3.684 -0.1492 -0.5049 -0.1487
35964TIP3    H2 8775   1.870   8.737   3.540  1.4671  1.7428 -0.3687
35965TIP3   OH2 8776   2.851   4.337   6.330 -0.8867 -0.0118 -0.1360
35965TIP3    H1 8777   2.776   4.278   6.325 -1.1393  0.3237 -0.4155
35965TIP3    H2 8778   2.872   4.357   6.239 -1.3515  0.9968 -0.0352
35966TIP3   OH2 8779   5.428   7.266   9.740  0.2838  0.4590 -0.0639
35966TIP3    H1 8780   5.515   7.294   9.711  0.6569 -0.6270 -0.0278
35966TIP3    H2 8781   5.368   7.328   9.697  1.0657  1.2530 -0.0481
35967TIP3   OH2 8782   4.885   8.390   1.111  0.0604 -0.2299  0.6901
35967TIP3    H1 8783   4.847   8.354   1.191 -0.7801 -1.7126 -0.3335
35967TIP3    H2 8784   4.809   8.413   1.056  0.6161  0.9821  0.3874
35968TIP3   OH2 8785   0.013   5.324   9.617  0.1167  0.2295  0.0155
35968TIP3    H1 8786   0.008   5.374   9.536  0.2558  0.8707  0.4011
35968TIP3    H2 8787   0.105   5.326   9.641  0.2466 -0.8192 -0.3367
35969TIP3   OH2 8788  10.710   7.365   2.029 -0.3385 -0.8077  0.5217
35969TIP3    H1 8789  10.637   7.421   2.056 -0.7081 -1.1145  0.1746
35969TIP3    H2 8790  10.748   7.410   1.954  0.0611 -0.4596  0.9344
35970TIP3   OH2 8791   4.136   8.265   3.404 -0.7055 -0.0104  0.1664
35970TIP3    H1 8792   4.130   8.180   3.448  2.2580  0.5309  1.9243
35970TIP3    H2 8793   4.184   8.247   3.324  0.6511  0.0750  0.9366
35971TIP3   OH2 8794   0.031   2.290   8.367  0.0635 -0.0215  0.0724
35971TIP3    H1 8795   0.043   2.323   8.278 -0.1038  1.0938  0.4492
35971TIP3    H2 8796  -0.063   2.274   8.374  0.1211 -0.4235 -0.0538
35972TIP3   OH2 8797   7.974   7.452   5.530  0.1421 -0.1386 -0.1555
35972TIP3    H1 8798   7.895   7.411   5.568  0.1760 -1.4010 -1.3706
35972TIP3    H2 8799   7.949   7.543   5.517 -1.5125 -0.7252 -1.4648
35973TIP3   OH2 8800   3.777   4.930   5.004  0.1737 -0.2098  0.5064
35973TIP3    H1 8801   3.792   4.961   4.915 -0.1446 -1.4100  0.0185
35973TIP3    H2 8802   3.695   4.970   5.031 -0.1675 -0.5136 -0.0672
35974TIP3   OH2 8803  10.042   4.466   0.025  0.4395 -0.1707  0.1196
35974TIP3    H1 8804  10.072   4.501   0.109 -0.5983  1.0122  0.0329
35974TIP3    H2 8805   9.956   4.428   0.043  0.0423  0.4145 -0.4505
35975TIP3   OH2 8806   8.163   6.732   4.137 -0.3535  0.4027  0.4172
35975TIP3    H1 8807   8.217   6.658   4.108 -1.2167 -0.8844  1.9047
35975TIP3    H2 8808   8.115   6.759   4.059 -0.1742 -0.7589 -0.1227
35976TIP3   OH2 8809   8.779  10.747  10.085 -0.7156 -0.6574 -0.5699
35976TIP3    H1 8810   8.729  10.715  10.010 -0.1576 -1.6947 -0.5136
35976TIP3    H2 8811   8.828  10.671  10.116  0.7354  0.2657 -0.4876
35977TIP3   OH2 8812   2.490   1.422   4.146 -0.2118 -0.2443 -0.2536
35977TIP3    H1 8813   2.406   1.381   4.123  0.0088  0.2324 -2.0313
35977TIP3    H2 8814   2.507   1.483   4.074  1.2788  0.2558  0.4966
35978TIP3   OH2 8815   6.081   4.700   9.630  0.4773 -0.1600  0.0986
35978TIP3    H1 8816   6.116   4.661   9.711  3.3064  0.5679 -0.6643
35978TIP3    H2 8817   6.058   4.789   9.654 -0.1447 -0.4019  0.4264
35979TIP3   OH2 8818   8.468   4.414  10.381 -0.4641 -0.3268 -0.2995
35979TIP3    H1 8819   8.455   4.495  10.431 -1.8913 -0.5490 -0.2933
35979TIP3    H2 8820   8.451   4.344  10.444 -3.0267 -0.6164 -1.2257
35980TIP3   OH2 8821   1.319   7.619   3.017 -0.1040 -0.6283 -0.2615
35980TIP3    H1 8822   1.303   7.641   2.925 -0.8855  1.0566  0.2424
35980TIP3    H2 8823   1.412   7.638   3.030 -0.3634  0.7730 -0.3008
35981TIP3   OH2 8824   3.002   5.226   7.203  0.6318  0.0391 -0.2520
35981TIP3    H1 8825   3.088   5.191   7.227  0.8408  0.4345 -0.4063
35981TIP3    H2 8826   2.947   5.149   7.189 -0.0062 -0.2882  3.1911
35982TIP3   OH2 8827   6.586  10.165   7.214 -0.2956 -0.0369 -0.1941
35982TIP3    H1 8828   6.677  10.181   7.237 -0.9905  0.6685  2.4966
35982TIP3    H2 8829   6.576  10.070   7.215  0.5499 -0.1519 -1.2865
35983TIP3   OH2 8830   0.616   7.633   4.643 -0.0388 -0.2858 -0.4865
35983TIP3    H1 8831   0.666   7.575   4.700 -0.7060  0.1349  0.5500
35983TIP3    H2 8832   0.591   7.577   4.568 -0.0385 -1.1352  0.1351
35984TIP3   OH2 8833   6.029   6.222   1.113  0.1269  0.2530 -0.5870
35984TIP3    H1 8834   5.943   6.227   1.073  0.4827 -0.3763 -1.4571
35984TIP3    H2 8835   6.090   6.217   1.040  0.6392 -3.6340 -0.1231
35985TIP3   OH2 8836  10.709   9.699   4.233  0.0095 -0.5020  0.4336
35985TIP3    H1 8837  10.629   9.744   4.262 -0.3614 -0.3360 -0.7800
35985TIP3    H2 8838  10.779   9.761   4.253 -0.3237 -0.0535  0.2493
35986TIP3   OH2 8839   9.900   9.041   0.614  0.1243  0.1649 -0.1211
35986TIP3    H1 8840   9.915   9.025   0.521  0.8566  1.5028 -0.2587
35986TIP3    H2 8841   9.866   9.130   0.619 -1.1657 -0.3408  0.8089
35987TIP3   OH2 8842   2.402   8.932   1.002 -0.0881  0.3884  0.3535
35987TIP3    H1 8843   2.413   9.023   1.028 -0.1188  0.6372 -0.4796
35987TIP3    H2 8844   2.369   8.888   1.081 -0.1732  1.1153  0.7285
35988TIP3   OH2 8845   4.120   9.931   5.154  0.5126  0.8366  0.9092
35988TIP3    H1 8846   4.051   9.936   5.088 -0.0294  2.8733  1.5590
35988TIP3    H2 8847   4.199   9.958   5.108  0.2505  1.6642  0.9311
35989TIP3   OH2 8848   0.644  10.472   2.454  0.1851  0.5632 -0.0898
35989TIP3    H1 8849   0.626  10.522   2.375  0.4231 -0.8881 -1.1019
35989TIP3    H2 8850   0.670  10.537   2.519  2.1994  1.5959 -1.8334
35990TIP3   OH2 8851   9.761   2.061   2.709 -0.2677 -0.1138 -0.2759
35990TIP3    H1 8852   9.754   1.967   2.730 -0.8749  0.3332  1.7071
35990TIP3    H2 8853   9.825   2.064   2.637  0.7378 -1.9470  0.4653
35991TIP3   OH2 8854   9.029   3.230   9.699 -0.3515 -0.1470  0.4491
35991TIP3    H1 8855   8.944   3.243   9.742 -1.0185 -0.1035 -0.8356
35991TIP3    H2 8856   9.009   3.176   9.623  0.6100  0.7103 -0.4403
35992TIP3   OH2 8857   2.013   9.724   4.342 -0.1640  0.4434 -0.3290
35992TIP3    H1 8858   2.099   9.685   4.357  0.1631  0.6733 -1.5474
35992TIP3    H2 8859   1.951   9.652   4.356  0.0636  0.6207  2.0896
35993TIP3   OH2 8860   7.344   7.809   0.569 -0.1401  0.6523 -0.7468
35993TIP3    H1 8861   7.401   7.741   0.606  2.1579  2.0992 -1.4373
35993TIP3    H2 8862   7.358   7.885   0.625 -1.9426  0.9053 -0.5613
35994TIP3   OH2 8863   1.461   3.534   7.191  0.6045  0.6472 -0.1529
35994TIP3    H1 8864   1.488   3.446   7.167  0.2317  0.7854 -1.1248
35994TIP3    H2 8865   1.442   3.529   7.285  2.2322  0.1109  0.1791
35995TIP3   OH2 8866  10.318   1.908   3.063  0.4940 -0.4124 -0.2720
35995TIP3    H1 8867  10.326   1.833   3.121 -2.2590 -0.1295  0.6567
35995TIP3    H2 8868  10.368   1.977   3.106 -1.1990 -0.3146  1.7172
35996TIP3   OH2 8869   6.381  10.565   4.263 -0.1311  0.2946 -0.0224
35996TIP3    H1 8870   6.401  10.475   4.288  0.7285  0.3243 -0.5428
35996TIP3    H2 8871   6.290  10.578   4.289 -0.8813 -1.3347 -1.6426
35997TIP3   OH2 8872   3.055   0.267   9.374 -0.1486 -0.2260  0.1728
35997TIP3    H1 8873   3.123   0.202   9.355 -0.0728 -0.3492  0.8473
35997TIP3    H2 8874   3.061   0.281   9.468 -0.7886  0.0671  0.1732
35998TIP3   OH2 8875  10.326   8.951   4.588 -0.3071  0.6109  0.3574
35998TIP3    H1 8876  10.272   8.896   4.646  0.0666  0.5608  0.6614
35998TIP3    H2 8877  10.402   8.898   4.568  0.2129  1.1258  0.9135
35999TIP3   OH2 8878   4.050   9.010   5.772 -0.6585 -0.0229 -0.1454
35999TIP3    H1 8879   4.143   9.007   5.750 -0.9525 -0.3974 -1.4269
35999TIP3    H2 8880   4.009   8.951   5.709 -1.7378 -0.0370  0.5521
36000TIP3   OH2 8881   5.340   2.665   5.184 -0.3656 -0.2030  0.1032
36000TIP3    H1 8882   5.393   2.741   5.160 -1.4486  0.1238 -1.4055
36000TIP3    H2 8883   5.353   2.655   5.279  0.3260  1.4473  0.2130
36001TIP3   OH2 8884   2.848   2.103   5.983 -0.2998 -0.3967  0.1085
36001TIP3    H1 8885   2.890   2.072   5.903 -0.3626 -1.7690  0.5650
36001TIP3    H2 8886   2.915   2.157   6.025 -0.8047  1.6391 -1.5715
36002TIP3   OH2 8887   2.746   6.872   7.252 -0.1459  0.2694 -0.2971
36002TIP3    H1 8888   2.697   6.823   7.319 -0.7910  0.9033 -0.2816
36002TIP3    H2 8889   2.837   6.869   7.282 -0.2444 -0.5142 -0.0539
36003TIP3   OH2 8890   0.039   1.328   3.910 -0.6232  0.4988  0.0110
36003TIP3    H1 8891   0.087   1.411   3.918  1.1324 -0.3667 -1.1121
36003TIP3    H2 8892  -0.003   1.317   3.995 -0.2798  2.1619  0.4377
36004TIP3   OH2 8893   4.109   5.626   6.966 -0.3221  0.4553 -0.3066
36004TIP3    H1 8894   4.097   5.650   6.874  1.0621 -1.6359 -1.0975
36004TIP3    H2 8895   4.195   5.660   6.989  0.4135 -1.1443 -0.5772
36005TIP3   OH2 8896   7.014   5.318   7.385 -0.5661  0.2354 -0.3620
36005TIP3    H1 8897   6.941   5.332   7.325 -1.9466 -2.2094  0.5922
36005TIP3    H2 8898   7.091   5.313   7.329 -1.6381 -0.7076 -1.8147
36006TIP3   OH2 8899   9.794   4.107   0.446 -0.6351  0.0436 -0.0053
36006TIP3    H1 8900   9.889   4.099   0.455 -0.6732 -2.0404 -0.9032
36006TIP3    H2 8901   9.759   4.057   0.519 -1.0757  1.5257  0.8215
36007TIP3   OH2 8902   3.234   6.983   9.521  0.0706  0.0562  0.2633
36007TIP3    H1 8903   3.156   6.952   9.567  0.6155  1.2189  2.0379
36007TIP3    H2 8904   3.305   6.975   9.585  1.3971 -0.6912 -1.2079
36008TIP3   OH2 8905  10.214   5.406   6.036  0.4436  0.5369 -0.0924
36008TIP3    H1 8906  10.260   5.382   5.956  0.8124  1.9133 -0.3285
36008TIP3    H2 8907  10.175   5.325   6.068  3.1452 -0.7462  0.2034
36009TIP3   OH2 8908   2.387   6.116   2.593 -0.1258 -0.1566  0.4354
36009TIP3    H1 8909   2.404   6.036   2.543  1.5140 -0.6543  1.6978
36009TIP3    H2 8910   2.465   6.127   2.648 -1.3786  0.9376  2.1082
36010TIP3   OH2 8911   8.633   5.802  10.372  0.1349 -0.0203  0.0869
36010TIP3    H1 8912   8.633   5.715  10.410  1.3580 -1.0078 -1.9689
36010TIP3    H2 8913   8.699   5.851  10.421  1.5868 -1.2114 -0.5898
36011TIP3   OH2 8914   0.748   7.772   1.172 -0.3434  0.7241 -0.2819
36011TIP3    H1 8915   0.690   7.833   1.127  0.1620  0.5118 -1.2705
36011TIP3    H2 8916   0.708   7.686   1.158 -0.2540  0.6704 -0.2082
36012TIP3   OH2 8917   2.271   5.184   9.872  0.0838  0.5611 -0.3895
36012TIP3    H1 8918   2.242   5.220   9.955  0.3286 -0.6817  0.2660
36012TIP3    H2 8919   2.349   5.234   9.849 -1.5195  2.7856 -1.3120
36013TIP3   OH2 8920   0.438   0.717   2.504  0.1764  0.3758 -0.1209
36013TIP3    H1 8921   0.523   0.699   2.466  0.3446 -1.0877  0.8925
36013TIP3    H2 8922   0.381   0.732   2.428  1.1516  0.6253 -0.8276
36014TIP3   OH2 8923   4.169   6.732   8.101 -0.3199 -0.2714  0.6259
36014TIP3    H1 8924   4.223   6.657   8.126  1.1579  0.2545 -0.8513
36014TIP3    H2 8925   4.219   6.808   8.129 -0.9501  0.2096  0.4588
36015TIP3   OH2 8926   1.897   8.791   6.327  0.2317 -0.2340  0.0251
36015TIP3    H1 8927   1.825   8.853   6.337  2.6526  2.8012 -0.1312
36015TIP3    H2 8928   1.918   8.764   6.416 -0.7006 -0.7107  0.1116
36016TIP3   OH2 8929   5.942   5.318   3.117 -0.0364  0.4980 -0.3002
36016TIP3    H1 8930   5.981   5.406   3.115 -1.5081  1.2494  1.3176
36016TIP3    H2 8931   5.976   5.275   3.039  0.6105  2.5604 -1.2226
36017TIP3   OH2 8932   2.221   6.900   6.164  0.8816 -0.2836  0.4527
36017TIP3    H1 8933   2.278   6.953   6.108  0.4757 -1.8167 -1.5009
36017TIP3    H2 8934   2.280   6.867   6.232  1.5936  0.8960  0.4379
36018TIP3   OH2 8935   3.388   8.314   4.711 -0.0784  0.2646 -0.4005
36018TIP3    H1 8936   3.460   8.259   4.677  1.5327  2.1365 -0.1891
36018TIP3    H2 8937   3.416   8.337   4.799 -1.1120  0.7892 -0.2079
36019TIP3   OH2 8938   0.983   9.943   8.082  0.5863  0.4743 -0.3835
36019TIP3    H1 8939   1.027   9.997   8.017  0.6377  3.3762  1.8127
36019TIP3    H2 8940   1.002   9.986   8.166 -2.6721 -0.6873  1.1571
36020TIP3   OH2 8941   4.111   7.639   5.949  0.1755 -0.0411 -0.2012
36020TIP3    H1 8942   4.163   7.699   6.002  1.0053  0.2099 -1.2659
36020TIP3    H2 8943   4.061   7.696   5.890  1.3098 -0.3638 -1.5329
36021TIP3   OH2 8944   9.036   6.573   5.086 -0.1140 -0.4016  0.4726
36021TIP3    H1 8945   9.070   6.602   5.171 -1.2660 -0.7466  1.0737
36021TIP3    H2 8946   9.035   6.653   5.032  1.1536 -0.2957  0.5899
36022TIP3   OH2 8947   7.103   1.386  10.663 -0.6168  0.3771  0.2047
36022TIP3    H1 8948   7.189   1.354  10.691 -0.7930 -0.3200 -0.0169
36022TIP3    H2 8949   7.085   1.337  10.583 -0.8455  1.1522 -0.2231
36023TIP3   OH2 8950   5.162   5.552  10.603  0.3114  0.2579 -0.1786
36023TIP3    H1 8951   5.150   5.612  10.677 -0.2715  1.3841 -1.1435
36023TIP3    H2 8952   5.128   5.468  10.634 -2.0243  1.2425  0.1233
36024TIP3   OH2 8953   9.571   7.247   7.757  0.2986 -0.3850 -0.4677
36024TIP3    H1 8954   9.591   7.275   7.846  0.9042 -0.9362 -0.4223
36024TIP3    H2 8955   9.655   7.251   7.711  0.1825 -1.0513 -0.7477
36025TIP3   OH2 8956   2.588   5.950  10.287 -0.6108  0.3371 -0.3079
36025TIP3    H1 8957   2.672   5.925  10.324 -0.7521  0.2615 -0.0381
36025TIP3    H2 8958   2.542   5.994  10.359 -0.3089  1.5066 -0.8009
36026TIP3   OH2 8959   5.168   8.073   4.153 -0.5820  0.0919  0.4433
36026TIP3    H1 8960   5.105   8.038   4.090 -1.7688 -0.1759  1.7352
36026TIP3    H2 8961   5.235   8.004   4.160 -1.6538 -0.9079  1.1849
36027TIP3   OH2 8962   7.570   8.636   8.265 -0.0492  0.5333 -0.7735
36027TIP3    H1 8963   7.551   8.729   8.268  1.1943  0.7953 -0.2809
36027TIP3    H2 8964   7.487   8.595   8.243 -0.7123  1.7184 -0.5564
36028TIP3   OH2 8965   5.218   1.469   6.118  0.2114 -0.1191 -0.1978
36028TIP3    H1 8966   5.219   1.516   6.034  1.6133  0.8143  0.3048
36028TIP3    H2 8967   5.158   1.396   6.104 -0.5188  0.7175 -1.6247
36029TIP3   OH2 8968  10.455  10.617   6.999 -0.0760 -0.0960  0.5603
36029TIP3    H1 8969  10.502  10.538   6.973 -2.1185 -1.0135 -0.6560
36029TIP3    H2 8970  10.402  10.590   7.074  0.4012  0.5957  1.1673
36030TIP3   OH2 8971   2.825   3.046   8.322  0.0881 -0.0428 -0.8756
36030TIP3    H1 8972   2.779   3.130   8.322  0.0459 -0.0671 -1.3098
36030TIP3    H2 8973   2.904   3.063   8.373 -0.6459 -0.1413  0.3522
36031TIP3   OH2 8974   1.922   5.972   0.950  0.0581 -0.0395 -0.2056
36031TIP3    H1 8975   1.910   5.928   0.866  2.4909 -0.5106 -0.3645
36031TIP3    H2 8976   1.984   5.917   0.998  0.5649  1.4572  0.9462
36032TIP3   OH2 8977   9.997   5.773   5.194 -0.3444 -0.4657 -0.5599
36032TIP3    H1 8978  10.014   5.690   5.149 -1.2974 -0.3391 -1.1816
36032TIP3    H2 8979   9.907   5.795   5.171 -0.9657 -0.4991  1.6195
36033TIP3   OH2 8980   2.326   8.461   5.789 -0.3174  0.1170 -0.1207
36033TIP3    H1 8981   2.375   8.399   5.734 -3.0260 -3.2756  0.9314
36033TIP3    H2 8982   2.241   8.469   5.746 -0.4221  2.3356  0.3965
36034TIP3   OH2 8983   2.902   6.838   0.297 -0.4108  0.3200  0.3236
36034TIP3    H1 8984   2.824   6.834   0.353 -0.6998 -0.5128 -0.1113
36034TIP3    H2 8985   2.867   6.832   0.207  0.2248 -2.2096  0.1614
36035TIP3   OH2 8986   3.410  10.050   5.017 -0.9336 -0.5590  0.1968
36035TIP3    H1 8987   3.353  10.043   4.941 -0.6477 -0.5430 -0.0205
36035TIP3    H2 8988   3.386   9.975   5.072 -1.6961 -0.1289  0.4751
36036TIP3   OH2 8989   1.543   5.647   3.540 -0.6214 -0.3044  0.1797
36036TIP3    H1 8990   1.501   5.729   3.566  0.3808 -0.1752  1.4668
36036TIP3    H2 8991   1.635   5.669   3.528 -0.8453 -0.5787 -2.6550
36037TIP3   OH2 8992   5.199  10.353   5.273 -0.2042 -0.1202  0.2288
36037TIP3    H1 8993   5.232  10.397   5.351 -0.2151  0.2012  0.0527
36037TIP3    H2 8994   5.172  10.424   5.215  0.8819 -0.3118 -0.5419
36038TIP3   OH2 8995   8.943   5.728   1.428 -0.3426  0.5613 -0.4747
36038TIP3    H1 8996   8.876   5.756   1.365 -2.4114  1.8126  2.0730
36038TIP3    H2 8997   8.966   5.808   1.476 -0.2982 -0.6274  1.6259
36039TIP3   OH2 8998   4.922   3.315   2.319 -0.3264  0.0657  0.0215
36039TIP3    H1 8999   4.851   3.365   2.278 -0.2038 -0.6637 -1.1334
36039TIP3    H2 9000   4.912   3.227   2.283  0.5911 -0.2792  0.5835
36040TIP3   OH2 9001   9.814   3.232   7.908 -0.4720 -0.3731  0.0914
36040TIP3    H1 9002   9.719   3.234   7.920 -1.1416 -4.0668 -2.7263
36040TIP3    H2 9003   9.845   3.166   7.970  0.0344 -0.2191  0.0105
36041TIP3   OH2 9004   3.139   9.562   6.024  0.1076 -0.5201  0.6494
36041TIP3    H1 9005   3.053   9.562   6.067 -0.5391 -3.0202 -0.4320
36041TIP3    H2 9006   3.136   9.637   5.965 -1.2790 -0.4515  0.7680
36042TIP3   OH2 9007   3.424   6.619   4.231  0.1491  0.3419 -0.4336
36042TIP3    H1 9008   3.352   6.612   4.295  0.2350 -0.7135 -0.4251
36042TIP3    H2 9009   3.469   6.700   4.254 -0.1693  0.2738  0.4893
36043TIP3   OH2 9010   1.774   5.116   1.178 -0.8860 -0.3924 -0.0418
36043TIP3    H1 9011   1.728   5.121   1.261 -1.1757  1.2197 -0.2668
36043TIP3    H2 9012   1.718   5.062   1.122 -2.3487  1.1970 -0.1861
36044TIP3   OH2 9013   9.194   8.594   9.160  0.3743  0.0252 -0.2961
36044TIP3    H1 9014   9.152   8.612   9.244  0.6342 -0.1823 -0.1209
36044TIP3    H2 9015   9.154   8.656   9.100  0.9692  0.9195  0.2164
36045TIP3   OH2 9016   1.385   7.830   7.357  0.6160 -0.0984  0.5138
36045TIP3    H1 9017   1.398   7.913   7.311  1.5316 -0.2992  0.3953
36045TIP3    H2 9018   1.373   7.766   7.288 -1.0522  0.0656  0.6161
36046TIP3   OH2 9019   0.594   7.275   5.406 -0.3608 -0.0407 -0.3296
36046TIP3    H1 9020   0.549   7.196   5.375 -0.5371 -0.3566  0.7117
36046TIP3    H2 9021   0.530   7.345   5.394  0.0481  0.0900 -1.9397
36047TIP3   OH2 9022   9.916   5.137   7.209  0.3283  0.3136 -0.4829
36047TIP3    H1 9023   9.883   5.171   7.126  0.1816  0.0569 -0.5321
36047TIP3    H2 9024   9.977   5.203   7.240  0.8276  0.1347 -1.0817
36048TIP3   OH2 9025   4.701   1.140   8.122 -0.0741  0.0462 -0.1645
36048TIP3    H1 9026   4.709   1.229   8.088 -0.6271 -0.9641 -3.2774
36048TIP3    H2 9027   4.682   1.086   8.045 -2.4637 -2.4182  1.9112
36049TIP3   OH2 9028   0.959   0.924   6.088 -0.1386 -0.8832  0.1676
36049TIP3    H1 9029   0.946   1.009   6.044  1.6767  0.1518  1.5077
36049TIP3    H2 9030   0.879   0.911   6.138 -0.6516 -0.2228 -0.4499
36050TIP3   OH2 9031   6.335   6.775   7.569  0.2642 -0.0079  0.7933
36050TIP3    H1 9032   6.297   6.809   7.649 -0.6193  0.1677  0.3124
36050TIP3    H2 9033   6.425   6.807   7.569 -0.0329  0.8361  1.2081
36051TIP3   OH2 9034   9.559   5.365   9.786  0.3202  0.4095  0.3120
36051TIP3    H1 9035   9.634   5.419   9.761  2.7020 -1.8826  2.0667
36051TIP3    H2 9036   9.532   5.323   9.704  2.6049 -0.6326  0.0349
36052TIP3   OH2 9037  10.139   4.815   7.800 -0.0834 -0.6001  0.6464
36052TIP3    H1 9038  10.214   4.829   7.742  0.1190 -2.7455  0.3053
36052TIP3    H2 9039  10.063   4.827   7.743  0.0478 -0.0322  0.5902
36053TIP3   OH2 9040   7.205   5.187   7.155 -0.1390  0.2724  0.2193
36053TIP3    H1 9041   7.133   5.145   7.107  1.2977 -0.9227 -0.9629
36053TIP3    H2 9042   7.208   5.140   7.239 -0.6368  0.2483  0.2297
36054TIP3   OH2 9043   9.849   9.603   2.008 -0.1009  0.7010  0.2253
36054TIP3    H1 9044   9.793   9.662   2.058 -1.8066 -1.5098  1.0902
36054TIP3    H2 9045   9.797   9.583   1.930 -0.2658 -0.8597  0.7118
36055TIP3   OH2 9046   8.201   1.667   5.725 -0.2095 -0.0566 -0.4403
36055TIP3    H1 9047   8.158   1.718   5.794  0.0715  0.2171 -0.4664
36055TIP3    H2 9048   8.183   1.716   5.644  0.4455  0.2494 -0.4046
36056TIP3   OH2 9049   1.609   9.516   8.102 -0.1269 -0.1842 -0.1934
36056TIP3    H1 9050   1.519   9.547   8.094  0.2098  0.5731 -1.1929
36056TIP3    H2 9051   1.631   9.531   8.195 -0.4106  1.4143 -0.3471
36057TIP3   OH2 9052   1.188   5.619   8.677  0.3523  0.2257  0.2009
36057TIP3    H1 9053   1.217   5.697   8.724  0.2155  0.1462  0.4166
36057TIP3    H2 9054   1.137   5.653   8.604 -0.7757  0.3135  1.0067
36058TIP3   OH2 9055   9.941   2.088   6.098  0.1797  0.4140 -0.0244
36058TIP3    H1 9056   9.909   2.115   6.011  0.3844 -0.9400 -0.5515
36058TIP3    H2 9057   9.861   2.075   6.149 -0.0014  0.0582 -0.3875
36059TIP3   OH2 9058   4.130   8.808   2.575 -0.2986 -0.7951  0.5254
36059TIP3    H1 9059   4.165   8.823   2.663 -0.7913 -1.0341  0.7658
36059TIP3    H2 9060   4.048   8.761   2.590  0.3422 -2.1503 -0.1422
36060TIP3   OH2 9061  10.432   7.134   8.825 -0.4184 -0.5170  0.4428
36060TIP3    H1 9062  10.393   7.146   8.912  1.8571  1.4176  1.3077
36060TIP3    H2 9063  10.464   7.221   8.801 -0.7488 -1.0671 -2.2720
36061TIP3   OH2 9064   6.329   6.155   1.850 -0.2370 -0.2576  0.2782
36061TIP3    H1 9065   6.411   6.205   1.854 -0.0149 -0.6767  1.3127
36061TIP3    H2 9066   6.351   6.076   1.801 -0.2474  0.0307 -0.1964
36062TIP3   OH2 9067   9.087   6.339   0.757  0.0696  0.1623 -0.6070
36062TIP3    H1 9068   9.070   6.289   0.836 -1.0720 -0.0417 -0.9600
36062TIP3    H2 9069   9.081   6.431   0.785  1.3087  0.1137 -0.1372
36063TIP3   OH2 9070   6.737   2.703   4.595  0.0054  0.0321  0.6548
36063TIP3    H1 9071   6.725   2.634   4.530  1.0763  0.3694  0.0842
36063TIP3    H2 9072   6.699   2.666   4.675  0.6468 -1.2817  0.3906
36064TIP3   OH2 9073   9.337   8.906   4.713  0.4498 -0.6154 -0.0575
36064TIP3    H1 9074   9.388   8.960   4.773 -0.2780 -0.8435  0.7837
36064TIP3    H2 9075   9.339   8.954   4.630 -0.3434  0.8114  0.7112
36065TIP3   OH2 9076   3.049   0.734  10.322  1.1600 -0.0605 -0.1816
36065TIP3    H1 9077   3.095   0.759  10.242  0.4739  1.5941 -0.0908
36065TIP3    H2 9078   3.083   0.794  10.389  1.1772 -0.9276  0.6025
36066TIP3   OH2 9079   2.693   1.923   8.871  0.0591  0.2880  0.2483
36066TIP3    H1 9080   2.711   1.830   8.881  1.2594  0.4662 -0.0983
36066TIP3    H2 9081   2.670   1.934   8.778  1.8350  0.6052 -0.1910
36067TIP3   OH2 9082   9.837   8.798   8.992 -0.4297 -0.3238 -0.0334
36067TIP3    H1 9083   9.877   8.885   8.985  0.2717 -0.6509 -0.1313
36067TIP3    H2 9084   9.877   8.760   9.070 -1.2519 -0.2988  0.4103
36068TIP3   OH2 9085   3.081   9.793   0.911 -0.3695  0.3325  0.2084
36068TIP3    H1 9086   3.106   9.752   0.827  0.2170  0.4365  0.3269
36068TIP3    H2 9087   3.133   9.746   0.976 -0.9718  0.1173  0.5442
36069TIP3   OH2 9088   5.251   6.817   9.437 -0.3422 -0.8325  0.0999
36069TIP3    H1 9089   5.285   6.864   9.361 -0.1519 -0.6664  0.2864
36069TIP3    H2 9090   5.156   6.815   9.424 -0.3547 -0.3498  0.1213
36070TIP3   OH2 9091   1.265   3.313   9.242  0.4346 -0.0657 -0.0709
36070TIP3    H1 9092   1.334   3.248   9.248 -0.4851 -1.0752 -0.1942
36070TIP3    H2 9093   1.272   3.346   9.152  1.8898  1.1676  0.4475
36071TIP3   OH2 9094  10.256   1.815   3.433 -0.4259  0.2392 -0.2591
36071TIP3    H1 9095  10.211   1.777   3.509  0.7912 -1.7906 -0.4580
36071TIP3    H2 9096  10.325   1.869   3.471 -0.3151 -0.1423  0.0971
36072TIP3   OH2 9097   2.043   5.844   7.735 -0.5232 -0.4380  0.0518
36072TIP3    H1 9098   1.985   5.768   7.732  1.7344 -2.2361 -1.0957
36072TIP3    H2 9099   2.083   5.847   7.648  1.4176  0.4346  0.9296
36073TIP3   OH2 9100   9.578   5.885   1.001  0.3147  0.3767 -0.4556
36073TIP3    H1 9101   9.496   5.928   1.026 -0.1258  0.0778 -1.3524
36073TIP3    H2 9102   9.647   5.944   1.033 -0.2581  1.0359 -0.4209
36074TIP3   OH2 9103   3.155   7.993   7.006  0.4799  0.1308  0.0020
36074TIP3    H1 9104   3.066   7.986   6.971  0.1283  0.0942  0.8850
36074TIP3    H2 9105   3.196   7.910   6.983 -0.5147 -0.9033  1.7414
36075TIP3   OH2 9106   3.295   1.495   3.962 -0.1014 -0.0256  0.0796
36075TIP3    H1 9107   3.231   1.563   3.981 -0.2039 -0.3574  0.9647
36075TIP3    H2 9108   3.333   1.473   4.047 -0.2078 -1.2022 -0.1565
36076TIP3   OH2 9109   6.228   3.303   5.542  0.3350 -0.4480 -0.0188
36076TIP3    H1 9110   6.314   3.271   5.516  0.6843 -1.3401  2.0057
36076TIP3    H2 9111   6.170   3.228   5.528  0.0801 -0.1653 -0.4681
36077TIP3   OH2 9112   0.986   2.494   0.675  0.8484 -0.1139 -0.0189
36077TIP3    H1 9113   0.966   2.531   0.589  0.6038 -1.4890 -0.5800
36077TIP3    H2 9114   0.985   2.399   0.661  0.0277 -0.3828  1.6711
36078TIP3   OH2 9115   4.828   8.945   1.943  0.0150  0.3693  0.6150
36078TIP3    H1 9116   4.894   8.881   1.916 -0.3408 -0.3830  1.5025
36078TIP3    H2 9117   4.840   9.018   1.882  0.2966 -0.6146 -0.5521
36079TIP3   OH2 9118   3.419   8.302   8.210 -0.6710  0.2524 -0.1779
36079TIP3    H1 9119   3.337   8.350   8.202 -0.2397  1.0596  0.1061
36079TIP3    H2 9120   3.454   8.298   8.121 -0.8298  0.2491 -0.2395
36080TIP3   OH2 9121   7.868   3.360   0.254 -0.1605 -0.7087 -0.0517
36080TIP3    H1 9122   7.910   3.336   0.172 -0.6416  2.1713 -1.2494
36080TIP3    H2 9123   7.924   3.322   0.322  2.0943 -0.4627 -1.6667
36081TIP3   OH2 9124   6.831   2.030  10.691 -0.2975  0.9970 -0.8807
36081TIP3    H1 9125   6.899   1.979  10.735 -0.8214  1.4297  0.4728
36081TIP3    H2 9126   6.787   1.966  10.635  0.6216  0.5072 -1.0648
36082TIP3   OH2 9127   2.137   0.167   2.670  0.0298 -0.1814  1.0149
36082TIP3    H1 9128   2.055   0.118   2.658  0.4330 -0.8086  0.8274
36082TIP3    H2 9129   2.203   0.115   2.626  0.5784  0.2105  1.3689
36083TIP3   OH2 9130   9.886   5.414   0.161  0.1462 -0.5344 -0.1130
36083TIP3    H1 9131   9.853   5.469   0.090  0.9264  0.6709  0.4188
36083TIP3    H2 9132   9.826   5.340   0.164  0.7713 -1.2612 -2.8121
36084TIP3   OH2 9133   3.651   4.029   0.445 -0.0758  0.1272  0.1635
36084TIP3    H1 9134   3.593   3.986   0.508 -0.9072  2.8811  1.4269
36084TIP3    H2 9135   3.591   4.070   0.383  0.7176 -1.8136 -2.0390
36085TIP3   OH2 9136   6.107   5.589   5.777 -0.1080  0.3640 -0.1737
36085TIP3    H1 9137   6.198   5.600   5.748  0.1006 -1.3005 -0.2525
36085TIP3    H2 9138   6.059   5.658   5.731  1.0922  1.2295 -0.1800
36086TIP3   OH2 9139   3.546   8.028   3.551 -0.2199  0.1897 -0.1343
36086TIP3    H1 9140   3.575   7.980   3.629 -0.7973  1.3854  0.8526
36086TIP3    H2 9141   3.459   7.992   3.532 -1.2372  1.6690  1.4054
36087TIP3   OH2 9142   0.986  10.169   1.876 -0.0750  0.8007 -0.5820
36087TIP3    H1 9143   0.936  10.142   1.953 -1.0341  1.5363 -0.9275
36087TIP3    H2 9144   1.006  10.261   1.892  1.9905  0.3195 -0.0372
36088TIP3   OH2 9145   7.125   5.703   7.141  0.0904  1.0456  1.0631
36088TIP3    H1 9146   7.200   5.746   7.099 -1.0385  3.1011  1.0715
36088TIP3    H2 9147   7.053   5.715   7.080  0.0460 -2.4713  0.2066
36089TIP3   OH2 9148  10.013   5.930  10.449  0.4516  0.5542  0.6296
36089TIP3    H1 9149   9.943   5.957  10.509 -0.8673  1.5082 -1.2396
36089TIP3    H2 9150  10.026   5.837  10.468 -2.2147  0.0274  0.2091
36090TIP3   OH2 9151   0.692   8.761   9.282  0.3289  0.4770 -0.1746
36090TIP3    H1 9152   0.674   8.743   9.374  0.8244  0.6013 -0.0507
36090TIP3    H2 9153   0.678   8.856   9.273 -0.9997  0.2807 -0.5338
36091TIP3   OH2 9154   3.482   3.015   0.689  0.0209 -0.6063  0.3118
36091TIP3    H1 9155   3.538   3.071   0.743 -0.2875  0.8422 -0.8152
36091TIP3    H2 9156   3.498   2.927   0.722  0.8073  0.0886  1.8975
36092TIP3   OH2 9157   3.842   6.985   9.488 -0.2906 -0.0482  0.4424
36092TIP3    H1 9158   3.929   7.018   9.467 -0.3259 -0.5014 -0.4354
36092TIP3    H2 9159   3.851   6.949   9.577 -0.6492  3.7351  2.1980
36093TIP3   OH2 9160   0.363   9.229   1.797 -0.1995  0.5982  0.0439
36093TIP3    H1 9161   0.399   9.163   1.857 -0.0588  0.7513  0.1273
36093TIP3    H2 9162   0.420   9.304   1.807  2.4595 -0.7104 -3.4023
36094TIP3   OH2 9163   2.289   2.916   7.008  1.1961  0.0248  0.3680
36094TIP3    H1 9164   2.215   2.918   7.069  1.3302 -0.2805  0.5438
36094TIP3    H2 9165   2.358   2.870   7.056  1.4758  0.2454  0.1784
36095TIP3   OH2 9166   0.788   1.619   6.284 -0.6126  0.9318 -0.2188
36095TIP3    H1 9167   0.795   1.639   6.191  0.5555  1.6309 -0.0069
36095TIP3    H2 9168   0.730   1.687   6.319  0.4415  1.8366 -0.1414
36096TIP3   OH2 9169   3.926   1.576   7.896 -0.1019  0.1372  0.9977
36096TIP3    H1 9170   4.014   1.585   7.934 -0.1610  1.9806  0.8039
36096TIP3    H2 9171   3.922   1.646   7.830 -1.3843 -0.5409  0.3338
36097TIP3   OH2 9172   6.668   4.150   1.792  0.7683  0.3927  0.3477
36097TIP3    H1 9173   6.594   4.129   1.734 -0.6246  0.8083  1.8818
36097TIP3    H2 9174   6.728   4.200   1.737 -0.6573  1.0657 -0.6792
36098TIP3   OH2 9175   2.294   5.846   5.078 -0.1277  0.0710 -0.2527
36098TIP3    H1 9176   2.310   5.751   5.077 -2.5202 -0.3917  0.0010
36098TIP3    H2 9177   2.353   5.881   5.011  0.5405 -1.6277 -0.6085
36099TIP3   OH2 9178   0.686   7.568   4.099  0.0858  0.4554  0.7263
36099TIP3    H1 9179   0.659   7.525   4.018  1.5211  1.2391 -0.2234
36099TIP3    H2 9180   0.653   7.658   4.091 -0.3648  0.3541  1.3462
36100TIP3   OH2 9181   3.693   3.940   1.813  0.3187  0.1780 -0.3127
36100TIP3    H1 9182   3.618   3.907   1.862  1.8213 -1.7118  0.9106
36100TIP3    H2 9183   3.741   3.861   1.787  0.8410  1.2251 -2.8738
36101TIP3   OH2 9184   8.620   6.916   6.655  0.3925  0.3068 -0.3410
36101TIP3    H1 9185   8.711   6.890   6.655  0.1198 -0.6790 -0.2250
36101TIP3    H2 9186   8.588   6.898   6.567  0.0664 -0.2671 -0.1135
36102TIP3   OH2 9187  10.178   2.944   7.161  0.1262  0.2798 -0.0659
36102TIP3    H1 9188  10.252   2.931   7.101  0.2266  0.3370  0.0459
36102TIP3    H2 9189  10.130   3.018   7.123 -0.5526 -0.5155 -0.8092
36103TIP3   OH2 9190   1.221  10.644   4.877  0.0857  0.5054  0.1688
36103TIP3    H1 9191   1.312  10.623   4.898  0.4125  1.8433  0.1782
36103TIP3    H2 9192   1.226  10.724   4.826 -1.1380  1.0712  0.8967
36104TIP3   OH2 9193   5.729   0.789   4.004 -0.2662  0.2917 -0.2524
36104TIP3    H1 9194   5.697   0.778   3.914 -1.0004 -1.1862  0.1576
36104TIP3    H2 9195   5.650   0.803   4.056 -0.1170 -1.4390  0.5055
36105TIP3   OH2 9196   1.263   1.479   5.393 -0.0868 -0.2157  0.4713
36105TIP3    H1 9197   1.309   1.513   5.469  0.9621 -3.3985  1.4438
36105TIP3    H2 9198   1.322   1.498   5.319  0.5825 -0.1823  1.0074
36106TIP3   OH2 9199   9.415   6.605   2.183 -0.2952 -0.0131 -0.2861
36106TIP3    H1 9200   9.501   6.563   2.181 -0.0219  0.3333  1.7323
36106TIP3    H2 9201   9.355   6.540   2.147  0.8834  0.0426 -2.5086
36107TIP3   OH2 9202   6.379   0.557   3.841  0.0154  0.3838 -0.2047
36107TIP3    H1 9203   6.343   0.626   3.787  0.2844  1.0550  0.4546
36107TIP3    H2 9204   6.303   0.514   3.880 -0.2963 -1.1540 -2.2869
36108TIP3   OH2 9205   2.425   5.604   0.360 -0.2213 -0.5276 -0.2237
36108TIP3    H1 9206   2.486   5.673   0.386  0.8156 -1.5317  0.1066
36108TIP3    H2 9207   2.471   5.522   0.381 -1.4376 -1.3211 -0.5436
36109TIP3   OH2 9208   4.974   4.891   7.802 -0.0048  0.3553  0.2522
36109TIP3    H1 9209   5.026   4.847   7.735 -3.2967 -2.1210 -0.9041
36109TIP3    H2 9210   4.936   4.967   7.758 -0.5591 -0.1179 -0.0856
36110TIP3   OH2 9211   4.170   4.447   1.608 -0.0928  0.4375 -0.4139
36110TIP3    H1 9212   4.127   4.400   1.680  2.0280 -1.2363 -0.1160
36110TIP3    H2 9213   4.210   4.523   1.650 -2.0557  1.6041 -0.5698
36111TIP3   OH2 9214   3.169   7.292   9.046  0.0366 -0.1183 -0.4248
36111TIP3    H1 9215   3.088   7.342   9.040 -0.3188 -0.5139  0.8215
36111TIP3    H2 9216   3.233   7.353   9.081 -0.3888 -0.5018  1.0665
36112TIP3   OH2 9217   8.461   8.026   7.294 -0.0935  0.0141 -0.5844
36112TIP3    H1 9218   8.461   7.935   7.263 -1.6509  0.4299 -1.9840
36112TIP3    H2 9219   8.369   8.052   7.291  0.5410  2.4477 -2.8174
36113TIP3   OH2 9220   5.149   9.668   9.505 -0.3068  0.3109  0.0640
36113TIP3    H1 9221   5.077   9.727   9.528  0.4605  1.5459 -0.6039
36113TIP3    H2 9222   5.226   9.708   9.543 -0.0558 -1.5777  1.7330
36114TIP3   OH2 9223   7.950   0.828   1.936  0.1247 -0.4566  0.0503
36114TIP3    H1 9224   8.015   0.777   1.887 -0.8995 -1.1197 -0.6517
36114TIP3    H2 9225   7.872   0.827   1.880 -0.8560 -0.6563  1.3969
36115TIP3   OH2 9226  10.243  10.702   2.454 -0.0062 -0.1501 -0.0158
36115TIP3    H1 9227  10.257  10.671   2.364 -0.0314  1.6770 -0.6820
36115TIP3    H2 9228  10.267  10.627   2.509  0.1236 -1.2666 -1.5302
36116TIP3   OH2 9229   4.187  10.086   9.769  0.1070  0.3009 -0.3773
36116TIP3    H1 9230   4.279  10.071   9.751  0.3344 -0.0284  0.9244
36116TIP3    H2 9231   4.186  10.130   9.855 -0.8470  2.2288 -1.3010
36117TIP3   OH2 9232   8.127   0.086   2.176 -0.1040 -0.1853  0.0890
36117TIP3    H1 9233   8.042   0.129   2.178 -0.2024 -0.3409  2.6645
36117TIP3    H2 9234   8.108  -0.006   2.194  0.5198 -0.4855 -0.6825
36118TIP3   OH2 9235   8.363   1.705   9.287 -0.5809  0.0071  0.0986
36118TIP3    H1 9236   8.325   1.687   9.201 -0.8580 -0.5909  0.3406
36118TIP3    H2 9237   8.289   1.699   9.347 -0.2162 -0.5798  0.4984
36119TIP3   OH2 9238   3.613   3.685   1.055 -0.0635 -0.9194  0.4496
36119TIP3    H1 9239   3.626   3.777   1.031 -1.6047 -1.0425 -0.9835
36119TIP3    H2 9240   3.687   3.666   1.114  2.1075  0.3469 -1.6539
36120TIP3   OH2 9241   5.992   0.245   8.079  0.0402 -0.5433  0.2643
36120TIP3    H1 9242   5.957   0.331   8.055 -1.5920 -1.6464 -1.5927
36120TIP3    H2 9243   5.963   0.232   8.169  0.1814  0.7747  0.5206
36121TIP3   OH2 9244   3.339  10.296   4.350  0.9075  0.0838 -0.3542
36121TIP3    H1 9245   3.277  10.255   4.290  1.8115 -0.1542 -1.1537
36121TIP3    H2 9246   3.285  10.351   4.406 -0.1259 -0.8192 -0.4275
36122TIP3   OH2 9247   6.375   5.148   1.220  0.0933  0.3993 -0.0133
36122TIP3    H1 9248   6.380   5.188   1.133 -1.8661  0.8457  0.0328
36122TIP3    H2 9249   6.285   5.117   1.228  0.7675 -1.4733  1.1030
36123TIP3   OH2 9250   1.910  10.262   5.413 -0.0588 -0.4570  0.3334
36123TIP3    H1 9251   1.975  10.329   5.390 -1.5600  0.7376 -0.6772
36123TIP3    H2 9252   1.835  10.312   5.445 -0.5252 -1.7987  1.4269
36124TIP3   OH2 9253   4.525   4.471   1.101 -0.8212 -0.3192 -0.2983
36124TIP3    H1 9254   4.547   4.563   1.088  0.2095 -0.7120 -1.5903
36124TIP3    H2 9255   4.600   4.436   1.150 -0.4289 -0.7906 -1.2004
36125TIP3   OH2 9256   9.420   0.544   0.741 -0.1288  0.2704  0.2987
36125TIP3    H1 9257   9.382   0.475   0.795 -0.7876  1.9429  2.1066
36125TIP3    H2 9258   9.504   0.563   0.781  0.1642  0.3599 -0.3409
36126TIP3   OH2 9259   2.052   2.244   7.790  0.9500 -0.2501 -0.6103
36126TIP3    H1 9260   2.070   2.290   7.872  0.5952 -0.9451 -0.1312
36126TIP3    H2 9261   1.974   2.287   7.755 -0.3943 -1.5431  0.6884
36127TIP3   OH2 9262   8.720   8.095   5.801  0.5227 -0.1206  0.1042
36127TIP3    H1 9263   8.626   8.081   5.807  0.7072 -0.8803  3.0170
36127TIP3    H2 9264   8.732   8.187   5.826  0.5633 -0.1727  0.2827
36128TIP3   OH2 9265   0.863   5.413   8.607 -0.0396 -0.1874 -0.4658
36128TIP3    H1 9266   0.882   5.507   8.603 -1.8748  0.2201 -0.8757
36128TIP3    H2 9267   0.791   5.406   8.669 -1.0249 -1.0865 -1.6452
36129TIP3   OH2 9268   9.791   1.494   5.449 -0.0758  0.0594 -0.4765
36129TIP3    H1 9269   9.710   1.490   5.398 -1.5226  0.2046  1.6855
36129TIP3    H2 9270   9.790   1.414   5.501  1.2070  0.0475 -0.4420
36130TIP3   OH2 9271   6.983   1.563   5.636 -0.3514  0.1992  0.2416
36130TIP3    H1 9272   7.056   1.599   5.687  1.5136 -0.6851 -1.6576
36130TIP3    H2 9273   6.922   1.636   5.627 -0.4882  0.5723  3.1113
36131TIP3   OH2 9274   6.166  10.769   6.390 -0.2934 -0.3838 -1.2634
36131TIP3    H1 9275   6.074  10.777   6.416 -0.1897  0.7315 -1.1730
36131TIP3    H2 9276   6.177  10.677   6.367 -0.7559 -1.1882  1.3208
36132TIP3   OH2 9277   9.803   2.552   5.708 -0.4559 -0.5689 -0.1032
36132TIP3    H1 9278   9.834   2.575   5.621  1.0044 -0.9542  0.2959
36132TIP3    H2 9279   9.712   2.583   5.710 -0.1657  0.4288 -1.3634
36133TIP3   OH2 9280   8.850   7.864   5.862 -0.3111 -0.2891 -0.7875
36133TIP3    H1 9281   8.793   7.820   5.924 -1.6149  1.6410 -0.5297
36133TIP3    H2 9282   8.799   7.940   5.832  0.4407 -0.8490 -3.8525
36134TIP3   OH2 9283   2.103   1.767   9.606  0.2203  0.0370 -0.0297
36134TIP3    H1 9284   2.017   1.754   9.647 -0.1601  2.0001 -0.0929
36134TIP3    H2 9285   2.140   1.842   9.653  1.1632  0.2817 -1.1209
36135TIP3   OH2 9286   2.484   4.841   0.951 -0.1945  0.1165 -0.6037
36135TIP3    H1 9287   2.470   4.936   0.947 -0.5471  0.1658  1.0052
36135TIP3    H2 9288   2.399   4.803   0.928 -1.0884  0.2983  2.0501
36136TIP3   OH2 9289   6.836   2.356   5.881  0.7380 -0.0867 -0.7379
36136TIP3    H1 9290   6.796   2.397   5.805 -2.2488  1.0165  1.2731
36136TIP3    H2 9291   6.902   2.419   5.910  0.3783  0.4982 -1.1606
36137TIP3   OH2 9292   0.846   5.959  10.178  0.6229 -0.3317 -0.0067
36137TIP3    H1 9293   0.902   5.917  10.113 -0.8504 -1.3907 -0.6758
36137TIP3    H2 9294   0.779   6.004  10.127 -0.5820 -1.2018  0.7234
36138TIP3   OH2 9295   2.195   6.329   8.159 -0.0980 -0.0497  0.3246
36138TIP3    H1 9296   2.263   6.290   8.103 -0.1175  0.2971  0.0622
36138TIP3    H2 9297   2.180   6.262   8.226  0.8196  0.0524  0.6471
36139TIP3   OH2 9298   5.942  10.687   9.042 -0.1062  0.8052 -0.6490
36139TIP3    H1 9299   5.858  10.696   8.996 -1.1308  0.0511  0.9908
36139TIP3    H2 9300   6.007  10.692   8.972 -1.5355  0.6974 -2.0695
36140TIP3   OH2 9301   8.309   2.936   1.390  0.1438 -0.3666 -0.0109
36140TIP3    H1 9302   8.361   2.914   1.313 -2.5101  2.4233 -2.8683
36140TIP3    H2 9303   8.360   3.002   1.436  0.4110  0.2762 -1.1955
36141TIP3   OH2 9304   0.398   8.926   8.200 -0.3292 -0.4630 -0.5467
36141TIP3    H1 9305   0.452   8.892   8.128  0.2526  1.2839 -0.9948
36141TIP3    H2 9306   0.440   9.009   8.223 -1.2026 -0.4304  1.0355
36142TIP3   OH2 9307   8.901   9.026   0.650 -0.3765  0.2985 -0.2225
36142TIP3    H1 9308   8.968   8.968   0.612  0.7110  0.6980  1.0213
36142TIP3    H2 9309   8.910   9.108   0.602 -1.6582 -0.3657 -1.7207
36143TIP3   OH2 9310   9.977   1.389  10.826  0.0829  0.5673 -0.2581
36143TIP3    H1 9311  10.000   1.351  10.910 -0.3131 -1.0772 -0.8598
36143TIP3    H2 9312  10.058   1.388  10.775  0.3056  1.4933  0.0561
36144TIP3   OH2 9313   1.730   5.690   9.727 -0.0683 -0.1236 -0.4773
36144TIP3    H1 9314   1.726   5.700   9.822 -0.9174 -0.4482 -0.4735
36144TIP3    H2 9315   1.757   5.599   9.714  1.1546  0.2249 -0.5570
36145TIP3   OH2 9316   9.701   3.581   9.937  0.0726 -0.6104  0.1680
36145TIP3    H1 9317   9.702   3.568   9.842 -0.1834  0.4914  0.0080
36145TIP3    H2 9318   9.667   3.669   9.950  1.8970 -0.0107  1.2083
36146TIP3   OH2 9319   2.289   1.119   2.715 -0.0926  0.0173 -0.3956
36146TIP3    H1 9320   2.278   1.173   2.636 -1.0212  0.9480  0.3449
36146TIP3    H2 9321   2.201   1.113   2.752  0.4650  0.2592  1.0047
36147TIP3   OH2 9322   9.265   6.906   5.880 -0.3370 -0.3612 -0.0896
36147TIP3    H1 9323   9.313   6.957   5.815 -1.1961 -0.1763 -0.5924
36147TIP3    H2 9324   9.182   6.951   5.891  0.2695  0.3602  2.1381
36148TIP3   OH2 9325   3.702   4.822   9.437  0.0079 -0.1078 -0.4579
36148TIP3    H1 9326   3.678   4.907   9.474  0.7724 -0.1450  0.1447
36148TIP3    H2 9327   3.794   4.831   9.411  0.5512 -1.1793  0.9643
36149TIP3   OH2 9328   7.803   6.876   7.539  0.0990  0.0237 -0.2457
36149TIP3    H1 9329   7.803   6.792   7.584 -0.9668 -1.8837 -3.4761
36149TIP3    H2 9330   7.722   6.918   7.568  0.5490 -0.0780  1.2557
36150TIP3   OH2 9331   2.538   3.652   0.440  0.1257 -0.1606 -0.3514
36150TIP3    H1 9332   2.528   3.707   0.363  2.0556  0.4859 -0.1816
36150TIP3    H2 9333   2.523   3.711   0.514 -0.4179 -0.4858 -0.1932
36151TIP3   OH2 9334  10.543   4.618   2.604 -0.1113  0.2530 -0.0006
36151TIP3    H1 9335  10.489   4.571   2.668 -0.3369 -0.1275 -0.4584
36151TIP3    H2 9336  10.522   4.576   2.521  0.0296  0.8758 -0.3527
36152TIP3   OH2 9337   0.947   9.765   5.400 -0.2460 -1.3107  0.3734
36152TIP3    H1 9338   0.942   9.830   5.470  0.3731 -1.2598  0.3724
36152TIP3    H2 9339   1.038   9.735   5.401  0.2393 -0.0922 -1.5125
36153TIP3   OH2 9340   3.321   6.526   6.241  0.5398  0.6092  0.5736
36153TIP3    H1 9341   3.357   6.482   6.318  3.2132  1.6576  0.0208
36153TIP3    H2 9342   3.292   6.611   6.274  2.1878  1.2769  0.3935
36154TIP3   OH2 9343   5.709   3.411   0.226  0.2780  0.4142 -0.6190
36154TIP3    H1 9344   5.767   3.478   0.262  0.7807 -0.0486 -0.5409
36154TIP3    H2 9345   5.738   3.399   0.136  0.2475  0.2463 -0.6082
36155TIP3   OH2 9346   8.586  10.488   5.628 -0.4736 -0.1604  0.6106
36155TIP3    H1 9347   8.551  10.553   5.688  0.3311  0.3229  0.5784
36155TIP3    H2 9348   8.676  10.517   5.611 -0.2474 -1.0368  0.2450
36156TIP3   OH2 9349   6.614   2.972   9.501  0.4396  0.5556  0.0970
36156TIP3    H1 9350   6.559   3.044   9.470  0.6025  0.3728 -0.6164
36156TIP3    H2 9351   6.702   2.995   9.474  0.5702  0.3440  0.3348
36157TIP3   OH2 9352  10.646  10.260   8.745 -0.2174 -0.3619  1.0543
36157TIP3    H1 9353  10.718  10.204   8.776  1.0056  0.8376  0.5049
36157TIP3    H2 9354  10.646  10.334   8.806  0.6492  0.8500 -0.3588
36158TIP3   OH2 9355   9.879   3.767   2.723 -0.7061 -0.0088  0.5151
36158TIP3    H1 9356   9.908   3.810   2.803  2.3231 -0.2372 -0.3365
36158TIP3    H2 9357   9.902   3.675   2.736  0.0916 -0.0004 -0.6867
36159TIP3   OH2 9358   0.877   3.319   4.820  0.5290  0.0861 -0.3801
36159TIP3    H1 9359   0.858   3.268   4.742  1.5589  1.5100 -1.6085
36159TIP3    H2 9360   0.972   3.313   4.830  0.5025  0.6248  0.2631
36160TIP3   OH2 9361   4.240   1.459   9.684  0.3314 -0.1789 -0.3254
36160TIP3    H1 9362   4.245   1.394   9.613 -0.4472  0.7536 -1.2602
36160TIP3    H2 9363   4.178   1.422   9.746  0.8914 -0.9297 -0.2018
36161TIP3   OH2 9364  10.320   3.147   8.619 -0.1727 -0.7852  0.0235
36161TIP3    H1 9365  10.279   3.067   8.652 -0.4755 -0.1176  1.3508
36161TIP3    H2 9366  10.250   3.194   8.575 -0.3901 -0.5416  0.6116
36162TIP3   OH2 9367   9.080   5.099   0.016  0.2093 -0.2503 -0.1852
36162TIP3    H1 9368   9.112   5.040  -0.053 -0.7066  0.9169 -1.6904
36162TIP3    H2 9369   9.002   5.140  -0.023 -0.4237  0.3430  1.6325
36163TIP3   OH2 9370   7.604   0.371   4.736 -0.4871 -0.1561  0.1508
36163TIP3    H1 9371   7.669   0.391   4.803  1.1740  0.6350 -1.6154
36163TIP3    H2 9372   7.578   0.280   4.755  1.6144 -0.7340  0.5337
36164TIP3   OH2 9373   0.670   8.724   7.412  0.7680  0.5587  0.0242
36164TIP3    H1 9374   0.638   8.747   7.499 -0.3180  0.2585 -0.2770
36164TIP3    H2 9375   0.659   8.804   7.360  0.1024  0.3376 -0.1838
36165TIP3   OH2 9376   3.296   1.838   1.441  0.0690 -0.6737  0.4496
36165TIP3    H1 9377   3.203   1.853   1.425  0.0531  0.2522  1.3291
36165TIP3    H2 9378   3.298   1.779   1.516  0.1889  0.1285  1.0868
36166TIP3   OH2 9379   4.088   8.953   6.038 -0.5760 -1.0831 -0.2216
36166TIP3    H1 9380   4.060   9.002   5.961  0.3379 -0.0971  0.0545
36166TIP3    H2 9381   4.113   8.867   6.003  1.5055 -0.1006 -1.3645
36167TIP3   OH2 9382   6.607   9.274   7.188  0.3408  0.1124  0.1894
36167TIP3    H1 9383   6.583   9.256   7.097 -0.4255  0.6895  0.2679
36167TIP3    H2 9384   6.703   9.277   7.187  0.3194  0.7933 -0.7298
36168TIP3   OH2 9385   2.589   7.076   3.494  0.0158  0.4698 -0.2831
36168TIP3    H1 9386   2.600   7.073   3.399 -0.1080  0.8691 -0.3105
36168TIP3    H2 9387   2.593   7.169   3.516  0.3544  0.3558  0.1396
36169TIP3   OH2 9388   4.431   0.934   8.688 -0.2274  0.3507  0.3117
36169TIP3    H1 9389   4.420   1.026   8.665  0.5012  0.7059  1.2689
36169TIP3    H2 9390   4.491   0.936   8.763 -0.6026 -0.8694  0.6660
36170TIP3   OH2 9391   0.059   2.697   0.060  0.5923  0.6076 -0.2711
36170TIP3    H1 9392   0.051   2.659   0.148  1.9041 -1.5645 -1.0105
36170TIP3    H2 9393   0.151   2.723   0.053  0.0411  2.7438 -0.3173
36171TIP3   OH2 9394   3.300   9.789   9.749  0.2963  0.3556  0.2479
36171TIP3    H1 9395   3.226   9.729   9.754  0.7939 -0.6100 -2.3773
36171TIP3    H2 9396   3.372   9.742   9.791 -0.1238  0.5565  1.2141
36172TIP3   OH2 9397   4.360   5.000   0.696 -0.1991 -0.0330  0.8298
36172TIP3    H1 9398   4.324   5.086   0.673  0.0602 -0.3661 -0.9675
36172TIP3    H2 9399   4.445   4.997   0.650 -0.3025 -1.3188  0.6864
36173TIP3   OH2 9400   8.659   8.044   0.975  0.7559  0.3709  0.0480
36173TIP3    H1 9401   8.574   8.064   1.014  0.4537  0.7229 -0.7712
36173TIP3    H2 9402   8.658   7.950   0.961 -0.1211  0.5688 -1.3660
36174TIP3   OH2 9403   0.019   9.034   5.699  0.2451  0.5570 -0.5242
36174TIP3    H1 9404   0.106   9.054   5.732  0.8945 -1.1717 -1.0989
36174TIP3    H2 9405  -0.028   8.999   5.775  0.2694  0.8134 -0.3886
36175TIP3   OH2 9406   0.301   0.869   3.029  0.4245  0.0950 -0.5048
36175TIP3    H1 9407   0.354   0.912   3.095  1.1775  1.4740 -1.9490
36175TIP3    H2 9408   0.257   0.798   3.076 -1.8851  3.1061  2.3349
36176TIP3   OH2 9409  10.306  10.452   4.161  0.9947  0.3232  0.2008
36176TIP3    H1 9410  10.369  10.522   4.177  0.2574  1.0482  0.0082
36176TIP3    H2 9411  10.310  10.437   4.066 -0.2673  1.5051 -0.0647
36177TIP3   OH2 9412   8.578   5.165   1.500  0.0541 -0.3348  0.3957
36177TIP3    H1 9413   8.525   5.135   1.426  1.3935  0.7732 -1.0908
36177TIP3    H2 9414   8.593   5.087   1.553 -2.0601 -0.8952  0.2645
36178TIP3   OH2 9415   8.404   4.915   7.072  0.0039  0.6286 -0.6762
36178TIP3    H1 9416   8.444   4.855   7.009  0.0594  1.5848 -1.5782
36178TIP3    H2 9417   8.371   4.858   7.142  0.0004 -0.4503 -1.5290
36179TIP3   OH2 9418   4.464   7.416  10.556 -0.2330 -0.4303 -0.4532
36179TIP3    H1 9419   4.420   7.371  10.628  0.9965  1.3340  1.5171
36179TIP3    H2 9420   4.546   7.368  10.545 -0.7572 -1.1680 -1.2434
36180TIP3   OH2 9421   9.398   8.487   7.185 -0.2306 -0.0535 -0.3556
36180TIP3    H1 9422   9.312   8.446   7.178 -0.4700  0.4779 -0.6315
36180TIP3    H2 9423   9.434   8.455   7.268 -0.1881 -1.2132 -0.8077
36181TIP3   OH2 9424   6.814   7.758   1.814  0.0738  0.6364 -0.0948
36181TIP3    H1 9425   6.728   7.734   1.780 -0.7511  4.0336 -0.7814
36181TIP3    H2 9426   6.797   7.789   1.903  0.5422  1.3525 -0.2431
36182TIP3   OH2 9427   4.936   7.458   9.487 -0.0717 -0.2364  0.1785
36182TIP3    H1 9428   4.856   7.439   9.437  0.3704 -2.4269  0.1741
36182TIP3    H2 9429   4.908   7.460   9.578 -0.4514  1.1188  0.0449
36183TIP3   OH2 9430   7.710   9.996   1.597  0.0292  0.1030  0.4477
36183TIP3    H1 9431   7.656   9.921   1.574  0.1356 -0.2877  1.4184
36183TIP3    H2 9432   7.657  10.072   1.572  0.4191 -0.2462 -1.6927
36184TIP3   OH2 9433  10.263  10.088   2.051  0.0302  0.0857 -0.3794
36184TIP3    H1 9434  10.264  10.079   2.146  1.2375 -0.3199 -0.4081
36184TIP3    H2 9435  10.352  10.066   2.024 -0.6718 -1.2962 -1.7318
36185TIP3   OH2 9436   2.936   2.751   1.281 -0.0532  0.4535 -0.3589
36185TIP3    H1 9437   2.971   2.840   1.280  0.6499  0.2241  1.4736
36185TIP3    H2 9438   3.001   2.699   1.232  0.7206  0.5490  0.5492
36186TIP3   OH2 9439   9.308   4.956  10.779 -0.2572 -0.2566 -0.4440
36186TIP3    H1 9440   9.363   4.916  10.847 -1.2003  0.3343  0.7173
36186TIP3    H2 9441   9.232   4.897  10.773 -1.3126  0.9098  0.7653
36187TIP3   OH2 9442   7.599   7.116   4.548  0.1022  0.2684  0.5103
36187TIP3    H1 9443   7.583   7.031   4.506  0.0343 -1.0371  3.0157
36187TIP3    H2 9444   7.691   7.135   4.529  0.0545 -0.2134 -0.2736
36188TIP3   OH2 9445   2.159   0.167   9.507 -0.0477 -0.1729  0.3976
36188TIP3    H1 9446   2.173   0.177   9.413  0.4186  1.4728  0.6017
36188TIP3    H2 9447   2.126   0.078   9.518  0.7386 -0.6900 -1.2198
36189TIP3   OH2 9448   4.130   3.798   7.452 -0.2775 -0.0557 -0.1755
36189TIP3    H1 9449   4.072   3.775   7.524  0.8368 -0.1626  0.7315
36189TIP3    H2 9450   4.131   3.721   7.396 -0.1163 -0.4983  0.4195
36190TIP3   OH2 9451   6.018  10.416   8.276  0.7999  0.3190  0.2081
36190TIP3    H1 9452   6.010  10.348   8.210  0.2144 -0.1180  0.7101
36190TIP3    H2 9453   5.949  10.479   8.255  2.0767  1.4026 -0.9566
36191TIP3   OH2 9454   9.189   6.035   0.089  0.4423  0.3512 -0.1183
36191TIP3    H1 9455   9.099   6.017   0.116 -0.0844  0.2183 -1.7933
36191TIP3    H2 9456   9.183   6.041  -0.007  1.9134  1.9827 -0.1530
36192TIP3   OH2 9457   3.998   4.182   7.801 -0.5720  0.1654 -0.1656
36192TIP3    H1 9458   4.070   4.196   7.862 -1.1853 -1.0330  0.8923
36192TIP3    H2 9459   4.039   4.141   7.725  0.0444  0.6875 -0.1223
36193TIP3   OH2 9460   4.451   5.858  10.221 -0.3958  0.0775  0.1822
36193TIP3    H1 9461   4.428   5.902  10.139 -2.4050 -0.3670  0.4528
36193TIP3    H2 9462   4.468   5.767  10.197  0.4648  0.2567  0.0798
36194TIP3   OH2 9463   0.899   6.965   9.065  0.0408 -0.0863  0.3598
36194TIP3    H1 9464   0.941   6.905   9.127  1.2538  2.0851  1.7596
36194TIP3    H2 9465   0.951   6.959   8.985  1.3730  0.4923  1.1494
36195TIP3   OH2 9466   0.628   0.744   8.913  0.5277 -0.1705 -0.3025
36195TIP3    H1 9467   0.720   0.756   8.936  0.5883 -0.9269 -0.0963
36195TIP3    H2 9468   0.612   0.651   8.929 -0.5616  0.1615  0.6842
36196TIP3   OH2 9469   8.630   5.462   6.004 -0.3326 -0.3602  0.1765
36196TIP3    H1 9470   8.567   5.533   5.991  0.6686  0.6505  0.6287
36196TIP3    H2 9471   8.632   5.449   6.098  0.6984  0.1811  0.2482
36197TIP3   OH2 9472   3.381   5.342  10.198 -0.1516 -0.2307 -0.2451
36197TIP3    H1 9473   3.407   5.401  10.127  0.2552  1.4626  1.2050
36197TIP3    H2 9474   3.461   5.295  10.220 -0.4036 -1.1461 -1.2120
36198TIP3   OH2 9475   0.294   6.060   5.913 -0.0677 -0.5367 -0.1022
36198TIP3    H1 9476   0.315   6.149   5.884  0.1659 -0.5222  0.1153
36198TIP3    H2 9477   0.340   6.003   5.851 -0.5286 -0.5141 -0.4784
36199TIP3   OH2 9478   5.227   0.093  10.347  0.8227 -0.4488  0.5215
36199TIP3    H1 9479   5.162   0.025  10.366  0.0712  0.9248  3.4087
36199TIP3    H2 9480   5.311   0.054  10.369  0.6282 -1.1047  0.1166
36200TIP3   OH2 9481   9.885   3.506  10.134 -0.0232 -0.1388  0.1474
36200TIP3    H1 9482   9.836   3.441  10.185 -0.9855  1.3359  1.1616
36200TIP3    H2 9483   9.818   3.553  10.084  0.3316  1.7136  1.3233
36201TIP3   OH2 9484   1.290   6.175   7.390  0.5376  0.7934  0.0569
36201TIP3    H1 9485   1.335   6.199   7.471  1.2138  1.1881 -0.4227
36201TIP3    H2 9486   1.357   6.131   7.337 -0.4882 -1.6440  0.6403
36202TIP3   OH2 9487   9.636   4.409   7.597 -0.4400 -0.1058 -0.6011
36202TIP3    H1 9488   9.579   4.460   7.654  0.5511 -0.2728  0.5811
36202TIP3    H2 9489   9.695   4.362   7.657 -0.5330 -1.7057 -1.6809
36203TIP3   OH2 9490   6.007   0.728   7.334 -0.8047  0.1862 -0.0768
36203TIP3    H1 9491   6.022   0.813   7.293 -2.5235  0.9440  0.7638
36203TIP3    H2 9492   5.916   0.731   7.363 -0.2629 -1.0964  1.9806
36204TIP3   OH2 9493   3.108   0.476  10.621 -0.2751  0.4055  0.1433
36204TIP3    H1 9494   3.173   0.524  10.571 -0.7955  0.4146 -0.5283
36204TIP3    H2 9495   3.153   0.454  10.703  0.8107 -0.1966 -0.5862
36205TIP3   OH2 9496   1.183   1.696   3.161 -0.1274 -0.2775  0.5776
36205TIP3    H1 9497   1.141   1.752   3.097  0.3895  0.7145  1.0780
36205TIP3    H2 9498   1.253   1.750   3.198  0.6363 -1.3790  0.8071
36206TIP3   OH2 9499   1.632  10.298   0.885 -0.2083 -0.1896 -0.5689
36206TIP3    H1 9500   1.669  10.324   0.800 -1.1873 -1.0309 -1.2859
36206TIP3    H2 9501   1.540  10.325   0.880  0.0226  0.9773  0.7883
36207TIP3   OH2 9502   4.141   6.218   4.475  0.0081 -0.1133  0.1404
36207TIP3    H1 9503   4.131   6.219   4.570 -0.7902 -0.3563  0.0698
36207TIP3    H2 9504   4.225   6.174   4.460 -0.1132 -0.5506  0.7117
36208TIP3   OH2 9505   7.470  10.462   1.791  0.5733  0.1632 -0.3666
36208TIP3    H1 9506   7.543  10.410   1.759  0.6740 -0.3358  0.6421
36208TIP3    H2 9507   7.411  10.398   1.831 -0.4956  0.5382 -1.2882
36209TIP3   OH2 9508   4.512   0.875   6.391 -0.4424 -0.0980  0.4688
36209TIP3    H1 9509   4.517   0.802   6.330 -2.4353 -0.8298  1.0985
36209TIP3    H2 9510   4.517   0.953   6.336  2.7201 -0.6019 -0.1356
36210TIP3   OH2 9511   9.584   4.587   4.230  0.4774 -0.2026  0.0235
36210TIP3    H1 9512   9.534   4.508   4.249  1.4289 -0.5211  1.3231
36210TIP3    H2 9513   9.547   4.655   4.286  1.8164 -0.5806  1.4253
36211TIP3   OH2 9514   5.596   1.535  10.193  0.2501 -0.1113  0.3408
36211TIP3    H1 9515   5.600   1.509  10.285  2.2409 -1.0167  0.0603
36211TIP3    H2 9516   5.531   1.605  10.190 -0.0955 -0.2969  2.3720
36212TIP3   OH2 9517   2.513   5.313   9.836  0.2030 -0.1009  0.0247
36212TIP3    H1 9518   2.575   5.370   9.881 -1.9514  2.1566  0.3671
36212TIP3    H2 9519   2.515   5.342   9.745  1.2546 -1.6014 -0.4757
36213TIP3   OH2 9520   3.377   0.525   1.680  0.2109  0.3048 -0.3665
36213TIP3    H1 9521   3.373   0.433   1.653  0.1627  0.4995 -1.0302
36213TIP3    H2 9522   3.309   0.533   1.746  1.9270 -0.7745  1.6740
36214TIP3   OH2 9523   4.482   1.131   4.289  0.2581 -0.0273  0.4018
36214TIP3    H1 9524   4.428   1.160   4.215  0.0612 -0.5311  0.3397
36214TIP3    H2 9525   4.507   1.042   4.267 -0.8110 -0.6311  1.4828
36215TIP3   OH2 9526   4.270   1.705   0.480 -0.0281 -0.1186  0.3071
36215TIP3    H1 9527   4.341   1.680   0.539 -0.1531 -0.7169  0.2070
36215TIP3    H2 9528   4.193   1.709   0.536  0.0267  0.2556  0.3613
36216TIP3   OH2 9529   2.770   5.001   3.919  0.1755  0.3745  0.4197
36216TIP3    H1 9530   2.769   4.929   3.856 -0.3604  0.1705  0.6515
36216TIP3    H2 9531   2.832   5.064   3.883  0.4664 -0.0945  0.0897
36217TIP3   OH2 9532  10.387   3.211   0.376 -0.0321 -0.5128  0.0236
36217TIP3    H1 9533  10.395   3.117   0.391 -1.1216 -0.7648 -0.8623
36217TIP3    H2 9534  10.439   3.227   0.297  0.0954 -0.3771  0.1343
36218TIP3   OH2 9535   6.504   1.378   6.375  0.4537 -0.4861  0.6020
36218TIP3    H1 9536   6.585   1.340   6.408  1.6623  1.1506 -0.2920
36218TIP3    H2 9537   6.435   1.334   6.424  1.8424 -2.2707  1.0679
36219TIP3   OH2 9538   8.314   7.230   0.564 -0.1287  0.2945  0.2079
36219TIP3    H1 9539   8.289   7.266   0.649  1.0819  0.3673  0.5463
36219TIP3    H2 9540   8.232   7.198   0.527 -0.9030  1.5281  0.7887
36220TIP3   OH2 9541   0.275   6.651   6.162 -0.1514 -0.0809  0.1296
36220TIP3    H1 9542   0.358   6.699   6.166 -0.1945  0.3300 -2.2112
36220TIP3    H2 9543   0.285   6.580   6.226  0.7163  1.8084  2.2058
36221TIP3   OH2 9544   9.542   5.461  10.203  0.8750  0.0829 -0.7359
36221TIP3    H1 9545   9.582   5.465  10.290  0.0497  0.9585 -0.3852
36221TIP3    H2 9546   9.588   5.529  10.153  0.2214  0.7200 -0.4886
36222TIP3   OH2 9547   5.093   3.944   9.010 -0.0557 -0.2463 -0.1071
36222TIP3    H1 9548   5.054   3.960   8.924 -1.4474 -2.0841  0.1131
36222TIP3    H2 9549   5.028   3.977   9.072  1.3767  2.0079  0.3161
36223TIP3   OH2 9550   9.024   6.571   6.271 -0.1743  0.4728 -0.2215
36223TIP3    H1 9551   9.102   6.515   6.276  0.9904  2.1067  3.1570
36223TIP3    H2 9552   9.043   6.632   6.199  0.9396 -0.1485 -0.4780
36224TIP3   OH2 9553   1.169   9.612   5.550 -0.3580  0.1601 -0.0337
36224TIP3    H1 9554   1.247   9.557   5.564  0.7302  1.5492 -0.4263
36224TIP3    H2 9555   1.100   9.568   5.599  0.9890 -0.4105  1.4643
36225TIP3   OH2 9556   5.516   7.475   5.128  0.0404  0.0340  0.2373
36225TIP3    H1 9557   5.504   7.504   5.219  1.4540 -1.3868  0.9511
36225TIP3    H2 9558   5.480   7.386   5.127  2.0726 -0.8632  0.0978
36226TIP3   OH2 9559   6.675   6.639   5.745  0.0290 -0.4724 -0.2417
36226TIP3    H1 9560   6.659   6.713   5.804  1.1273 -0.1950 -0.2640
36226TIP3    H2 9561   6.732   6.674   5.677 -0.4491 -1.0359 -0.9581
36227TIP3   OH2 9562  10.857   3.174   7.262  0.0900 -0.3421 -0.2236
36227TIP3    H1 9563  10.766   3.157   7.240 -0.1803 -0.3133  0.8055
36227TIP3    H2 9564  10.905   3.164   7.180 -1.0388  1.1581 -1.1068
36228TIP3   OH2 9565   8.266   7.330   3.068  0.1933 -0.1496  0.0416
36228TIP3    H1 9566   8.264   7.323   3.163 -1.0628  1.8069  0.2122
36228TIP3    H2 9567   8.174   7.325   3.042  0.5439 -0.9907 -1.1212
36229TIP3   OH2 9568   1.721   5.827   2.403  0.4288  0.3286  0.0297
36229TIP3    H1 9569   1.746   5.829   2.311 -0.6643  0.3370 -0.2826
36229TIP3    H2 9570   1.630   5.857   2.404  1.1555  2.7868  1.3878
36230TIP3   OH2 9571   8.632   8.974   0.451  0.0090 -0.0733  0.1810
36230TIP3    H1 9572   8.657   9.042   0.389 -2.3694 -2.1694 -3.4646
36230TIP3    H2 9573   8.707   8.914   0.453  0.4403  0.4528  0.0278
36231TIP3   OH2 9574   4.614   5.131   2.135 -0.2221  0.3692 -0.4278
36231TIP3    H1 9575   4.682   5.179   2.182 -0.1859 -0.4371  0.3850
36231TIP3    H2 9576   4.610   5.046   2.179 -1.8879  0.4635 -0.3032
36232TIP3   OH2 9577   4.637   5.104   7.798 -0.0075  0.2493  1.0244
36232TIP3    H1 9578   4.639   5.199   7.802  0.3852  0.2843  0.1147
36232TIP3    H2 9579   4.558   5.083   7.750  1.3682  0.2323 -1.3617
36233TIP3   OH2 9580   7.351   5.721   0.613 -0.4188 -0.1852  0.2921
36233TIP3    H1 9581   7.329   5.803   0.568 -0.2761 -0.6488 -0.6449
36233TIP3    H2 9582   7.432   5.692   0.571  1.2381  0.7102  2.6465
36234TIP3   OH2 9583   2.921   1.630   1.983 -0.0177 -0.3529  0.2590
36234TIP3    H1 9584   2.856   1.653   2.049 -1.0171 -0.3427 -0.7011
36234TIP3    H2 9585   2.969   1.711   1.967  0.9541 -0.6085  1.7180
36235TIP3   OH2 9586   2.833   0.858  10.516  0.5648  0.1127  0.0348
36235TIP3    H1 9587   2.766   0.886  10.453  2.2982  1.7461 -1.2207
36235TIP3    H2 9588   2.909   0.837  10.462  1.5907 -0.0856  1.5013
36236TIP3   OH2 9589   1.425   0.912   7.845  0.1703 -0.6187 -0.0308
36236TIP3    H1 9590   1.452   0.975   7.911  0.3704 -0.1501 -0.5556
36236TIP3    H2 9591   1.480   0.930   7.769 -0.0137 -1.1884 -0.3109
36237TIP3   OH2 9592   2.543   6.658   1.132  0.1315  0.2151  0.1571
36237TIP3    H1 9593   2.475   6.690   1.192 -2.0154 -1.8466 -1.0078
36237TIP3    H2 9594   2.520   6.696   1.048 -0.1414 -1.1625 -0.4191
36238TIP3   OH2 9595   5.990   3.794   0.951 -0.3584 -0.2591 -0.2190
36238TIP3    H1 9596   6.077   3.756   0.941  0.0354 -0.3970  2.7378
36238TIP3    H2 9597   5.985   3.860   0.882  1.3927 -1.4143 -1.5369
36239TIP3   OH2 9598   5.972   4.543   2.509 -0.1573 -0.1024 -0.7650
36239TIP3    H1 9599   6.050   4.546   2.565  1.4535  1.1913 -2.9466
36239TIP3    H2 9600   5.989   4.473   2.447 -1.6190 -1.0651 -0.1309
36240TIP3   OH2 9601   8.087   8.004   8.056 -0.2358  0.1724 -0.3664
36240TIP3    H1 9602   8.025   7.953   8.004 -0.5344  1.1535 -0.9906
36240TIP3    H2 9603   8.099   8.085   8.008  0.5858  0.5232  0.3808
36241TIP3   OH2 9604   7.102   3.993   6.427  0.2202  0.3503 -0.4407
36241TIP3    H1 9605   7.151   4.073   6.443 -1.4450  1.0720  1.4210
36241TIP3    H2 9606   7.169   3.925   6.420  1.5801  1.6262 -0.2935
36242TIP3   OH2 9607   2.735   7.619   1.679  0.1980 -0.3543 -0.4978
36242TIP3    H1 9608   2.684   7.696   1.703  0.9932  0.0057  0.0948
36242TIP3    H2 9609   2.681   7.573   1.616 -0.5991  0.3203 -0.3219
36243TIP3   OH2 9610   7.552   0.854   6.857 -0.1875  0.3063 -0.6800
36243TIP3    H1 9611   7.641   0.857   6.823  0.3915  1.8044  0.8486
36243TIP3    H2 9612   7.526   0.946   6.862 -0.5733  0.1243  1.9865
36244TIP3   OH2 9613   0.371   5.786   6.603  0.0521  0.4065  0.1558
36244TIP3    H1 9614   0.454   5.778   6.651  0.6017  0.2622 -0.8046
36244TIP3    H2 9615   0.382   5.866   6.551 -1.1480  1.4527  1.4114
36245TIP3   OH2 9616   0.452   9.071   5.480  0.2766  0.2123  0.1712
36245TIP3    H1 9617   0.376   9.044   5.531  0.1079  0.4952  0.0733
36245TIP3    H2 9618   0.527   9.051   5.536  0.0814  0.7080  0.6145
36246TIP3   OH2 9619   4.663   6.874   7.724  0.0285  0.2438 -0.1846
36246TIP3    H1 9620   4.733   6.918   7.771  0.7035 -1.7600  0.7820
36246TIP3    H2 9621   4.585   6.889   7.777  0.2032  0.4393  0.0181
36247TIP3   OH2 9622   8.828   0.254   2.771 -0.0989 -0.0926  0.1213
36247TIP3    H1 9623   8.815   0.345   2.745  1.2157  0.5225  1.5341
36247TIP3    H2 9624   8.787   0.203   2.700 -2.8260  1.5719  0.3904
36248TIP3   OH2 9625   3.770  10.439   7.614  0.1842  0.2412 -0.3955
36248TIP3    H1 9626   3.702  10.472   7.556  0.5345 -1.1786 -1.6636
36248TIP3    H2 9627   3.807  10.518   7.654 -2.0673  1.0569  0.2193
36249TIP3   OH2 9628   3.567   2.992   7.248 -0.5309  0.3388  0.0808
36249TIP3    H1 9629   3.591   2.952   7.165  1.0920 -1.1029  1.1795
36249TIP3    H2 9630   3.482   3.033   7.231 -1.1954 -1.6086 -1.7337
36250TIP3   OH2 9631   0.441   7.421   7.872 -0.5023  0.4901  0.0872
36250TIP3    H1 9632   0.506   7.486   7.846  1.1206 -1.3255 -0.6270
36250TIP3    H2 9633   0.476   7.384   7.953  0.2293 -1.5581 -1.0897
36251TIP3   OH2 9634   6.597   8.034   6.205 -0.0880 -0.0476  0.2035
36251TIP3    H1 9635   6.634   8.108   6.158 -1.8688  0.5421 -0.3525
36251TIP3    H2 9636   6.666   7.968   6.203  2.1916  2.1017  2.1474
36252TIP3   OH2 9637   3.089   7.464   0.755  0.7088  0.0452 -0.2781
36252TIP3    H1 9638   3.072   7.370   0.761 -0.0131  0.2568  1.3052
36252TIP3    H2 9639   3.182   7.470   0.733  1.1624 -1.0321  1.2101
36253TIP3   OH2 9640   7.501   2.371   2.772  0.1909  0.1672  0.2539
36253TIP3    H1 9641   7.515   2.348   2.680 -1.8641 -2.5064  0.4931
36253TIP3    H2 9642   7.530   2.294   2.821  0.0492  1.0306  1.7523
36254TIP3   OH2 9643   9.308  10.565   2.668 -0.0597 -0.5541  0.6651
36254TIP3    H1 9644   9.398  10.531   2.671  0.5764  1.1042  1.5540
36254TIP3    H2 9645   9.262  10.505   2.608  2.4479  0.3629 -2.4558
36255TIP3   OH2 9646   8.201   0.458   6.690  0.4209 -0.0034  0.5604
36255TIP3    H1 9647   8.282   0.408   6.693  0.3830 -0.0512  0.8718
36255TIP3    H2 9648   8.134   0.397   6.720  0.1901 -0.1130 -0.1759
36256TIP3   OH2 9649   0.200   5.410   3.770 -0.1835  0.0356  0.1822
36256TIP3    H1 9650   0.142   5.484   3.752 -0.1556  0.2530  0.9666
36256TIP3    H2 9651   0.206   5.364   3.686 -0.8825  0.4363 -0.1004
36257TIP3   OH2 9652   0.116   1.033   4.334 -0.1331  0.6228  0.0255
36257TIP3    H1 9653   0.143   1.029   4.426 -1.9526  1.3016  0.6243
36257TIP3    H2 9654   0.042   1.094   4.333  0.5358  1.4903 -2.0764
36258TIP3   OH2 9655   4.468   6.059   0.435  0.5994 -0.3755 -0.1492
36258TIP3    H1 9656   4.476   6.049   0.340  1.0342  0.5842 -0.2223
36258TIP3    H2 9657   4.529   5.995   0.471  0.6818 -0.5109 -0.5193
36259TIP3   OH2 9658   5.327   7.112   5.870 -0.4331  0.1349 -0.1281
36259TIP3    H1 9659   5.295   7.200   5.889  0.3653  0.0049  1.9745
36259TIP3    H2 9660   5.356   7.077   5.954 -3.1756 -3.1789 -0.3124
36260TIP3   OH2 9661   6.449   2.695   2.967 -0.2378 -0.0460 -0.2360
36260TIP3    H1 9662   6.445   2.770   3.026 -1.1416 -0.4328  0.2219
36260TIP3    H2 9663   6.387   2.715   2.898 -0.5587 -0.4031 -0.0586
36261TIP3   OH2 9664   1.118   3.555   7.059  0.3848  0.6544 -0.3778
36261TIP3    H1 9665   1.029   3.589   7.073  0.2450  0.6053 -1.1284
36261TIP3    H2 9666   1.175   3.617   7.103  0.0246  1.0578 -0.4786
36262TIP3   OH2 9667   5.193   0.227   4.087 -0.2494 -0.2657  0.1642
36262TIP3    H1 9668   5.225   0.270   4.167 -0.8025 -1.6684  1.1764
36262TIP3    H2 9669   5.120   0.172   4.117 -0.2783 -1.0528 -1.2683
36263TIP3   OH2 9670   0.224   2.781   7.315  0.2528  0.5269  0.1624
36263TIP3    H1 9671   0.224   2.866   7.359  0.5089  0.4846  0.2477
36263TIP3    H2 9672   0.154   2.732   7.357  0.2701  0.6085  0.2860
36264TIP3   OH2 9673   6.379   8.287   7.138  0.4961  0.0803 -0.2091
36264TIP3    H1 9674   6.367   8.198   7.172  2.7320 -0.5448 -0.8484
36264TIP3    H2 9675   6.473   8.303   7.148  1.0102  0.5821 -4.1854
36265TIP3   OH2 9676   7.104   8.398   0.125  0.2565  0.1272  0.3920
36265TIP3    H1 9677   7.184   8.415   0.175 -1.0286 -0.0208  2.6468
36265TIP3    H2 9678   7.068   8.484   0.105  0.3524  0.1824  0.4604
36266TIP3   OH2 9679   9.114   8.987   0.963  0.1975 -0.2613 -0.1458
36266TIP3    H1 9680   9.133   8.911   0.907  0.5998  1.4023 -2.4200
36266TIP3    H2 9681   9.192   8.998   1.016  0.5293 -0.8514 -0.4968
36267TIP3   OH2 9682   4.878   4.778   6.061  0.0842  0.3823 -0.0064
36267TIP3    H1 9683   4.792   4.749   6.093 -0.1340 -0.9267 -1.6172
36267TIP3    H2 9684   4.921   4.813   6.138 -0.8345 -1.5342  1.4879
36268TIP3   OH2 9685   0.807   3.474   9.319 -0.2277 -0.6254  0.2004
36268TIP3    H1 9686   0.720   3.435   9.327 -0.2875 -0.8787 -1.2901
36268TIP3    H2 9687   0.809   3.543   9.385 -1.3837 -0.9282  0.5707
36269TIP3   OH2 9688   8.441   9.425  10.340  0.5823  0.3534  0.5087
36269TIP3    H1 9689   8.465   9.370  10.414 -0.1242 -2.5861 -1.2455
36269TIP3    H2 9690   8.520   9.430  10.287  0.2027 -0.5070 -0.1729
36270TIP3   OH2 9691   8.569   8.720   2.297 -0.1395 -0.1894 -0.0741
36270TIP3    H1 9692   8.604   8.655   2.358  1.7094  0.6961 -0.1254
36270TIP3    H2 9693   8.646   8.754   2.250 -1.4402 -0.6447 -2.7543
36271TIP3   OH2 9694  10.362   3.472   3.325  0.2350 -0.5015  0.3482
36271TIP3    H1 9695  10.442   3.514   3.294 -0.1972  0.9460  1.1532
36271TIP3    H2 9696  10.327   3.429   3.247  0.8390  0.3838 -0.4334
36272TIP3   OH2 9697   0.122   4.455   4.686 -0.6231 -0.3103 -0.1815
36272TIP3    H1 9698   0.183   4.457   4.760 -0.7925 -0.6146 -0.0279
36272TIP3    H2 9699   0.173   4.485   4.611 -0.3379 -0.3880 -0.0204
36273TIP3   OH2 9700   9.623   1.892   7.364 -0.6309  0.0480  0.2533
36273TIP3    H1 9701   9.569   1.962   7.400  0.2968  1.3499 -0.8206
36273TIP3    H2 9702   9.694   1.882   7.428 -0.8914 -0.0934  0.5250
36274TIP3   OH2 9703   0.070   4.719  10.901  0.8466 -0.8268 -0.0205
36274TIP3    H1 9704   0.135   4.790  10.906 -0.0889  0.2000 -1.4804
36274TIP3    H2 9705   0.045   4.717  10.808 -2.9871  0.5489  0.7951
36275TIP3   OH2 9706   5.322   8.741   1.446  0.4237 -0.1541  0.3909
36275TIP3    H1 9707   5.409   8.752   1.484  0.9818  0.1191 -0.9038
36275TIP3    H2 9708   5.301   8.826   1.408  0.2316 -0.6058 -0.5577
36276TIP3   OH2 9709  10.856   8.965   3.859  0.2230 -0.0593  0.1097
36276TIP3    H1 9710  10.927   9.002   3.805 -0.8996 -0.3620 -1.6770
36276TIP3    H2 9711  10.885   8.876   3.879  0.6025  0.0100 -0.1146
36277TIP3   OH2 9712  10.746   7.416   0.803 -0.3394  0.2246 -0.1784
36277TIP3    H1 9713  10.740   7.460   0.718  0.1015 -0.9028 -0.8122
36277TIP3    H2 9714  10.719   7.326   0.786 -0.2418 -0.0252  0.8804
36278TIP3   OH2 9715   2.225   6.851   2.566  0.8004  0.3407  0.5319
36278TIP3    H1 9716   2.159   6.916   2.587  0.7210  0.1747  0.7990
36278TIP3    H2 9717   2.181   6.767   2.580  0.6746  0.2150 -0.4838
36279TIP3   OH2 9718   5.836   7.859   4.180 -0.4682  0.2038  0.4991
36279TIP3    H1 9719   5.895   7.904   4.240 -0.9756  0.6051  0.7038
36279TIP3    H2 9720   5.893   7.817   4.116  0.1425 -0.9169  1.7295
36280TIP3   OH2 9721   5.970   5.696   1.487  0.0892  0.2032 -0.5223
36280TIP3    H1 9722   5.930   5.621   1.531  0.9168 -0.4015 -0.7613
36280TIP3    H2 9723   6.055   5.708   1.531  0.1779  0.6852 -0.8093
36281TIP3   OH2 9724   0.572   4.533   2.299 -0.1306 -0.2796  0.0522
36281TIP3    H1 9725   0.617   4.511   2.380  0.3248 -1.2662 -0.4617
36281TIP3    H2 9726   0.510   4.603   2.325 -0.1723 -0.7447  1.2896
36282TIP3   OH2 9727   9.448   5.724   6.123 -0.4306 -0.0560 -0.3635
36282TIP3    H1 9728   9.366   5.676   6.133 -0.0705 -0.6593 -0.2367
36282TIP3    H2 9729   9.507   5.662   6.080 -0.0335  0.3614 -0.4262
36283TIP3   OH2 9730   9.712   4.228   7.799  0.0744 -0.4120  0.5719
36283TIP3    H1 9731   9.622   4.207   7.773 -1.0493  1.9262  2.1210
36283TIP3    H2 9732   9.733   4.164   7.867 -0.6601 -0.6335  0.6052
36284TIP3   OH2 9733   2.485   8.595   1.238  1.0363 -0.1816 -0.1495
36284TIP3    H1 9734   2.518   8.513   1.276  1.5247 -0.9552 -2.1268
36284TIP3    H2 9735   2.538   8.608   1.160 -1.0304  0.4060 -1.5272
36285TIP3   OH2 9736   4.609   6.066  10.375 -0.2144  0.3299 -0.1049
36285TIP3    H1 9737   4.684   6.029  10.421  0.6649  0.0255 -1.7107
36285TIP3    H2 9738   4.575   5.993  10.323 -1.9910  0.3091  1.0051
36286TIP3   OH2 9739  10.202   4.854   9.710  0.2257  0.5039 -0.7222
36286TIP3    H1 9740  10.228   4.885   9.797 -2.2391 -1.3707  0.8335
36286TIP3    H2 9741  10.154   4.928   9.672  0.0609  0.8604  0.1490
36287TIP3   OH2 9742   5.147   7.861  10.543 -0.3716 -0.0635 -0.0186
36287TIP3    H1 9743   5.090   7.928  10.504 -1.4761 -0.4139  0.9441
36287TIP3    H2 9744   5.149   7.791  10.479  0.3736  0.6455 -0.8078
36288TIP3   OH2 9745   2.978   5.254   3.293 -0.4221  0.3110 -0.0431
36288TIP3    H1 9746   2.896   5.257   3.341 -1.3382 -1.3759 -1.4136
36288TIP3    H2 9747   3.022   5.176   3.326 -1.5231 -1.4709 -2.5196
36289TIP3   OH2 9748   7.268   3.837   7.484 -0.5035 -0.8335  0.3695
36289TIP3    H1 9749   7.351   3.816   7.527  0.2374  0.9585 -0.1190
36289TIP3    H2 9750   7.209   3.858   7.557  0.3421  0.7689  0.6536
36290TIP3   OH2 9751   5.909   3.711   1.190  0.0037 -0.0850 -0.5845
36290TIP3    H1 9752   5.926   3.740   1.100  0.1839 -1.8266 -1.1601
36290TIP3    H2 9753   5.985   3.740   1.240  0.1290  0.4811 -1.0914
36291TIP3   OH2 9754   4.444   8.334   5.182 -0.1859 -0.0188  0.1097
36291TIP3    H1 9755   4.466   8.396   5.112 -3.9100  3.0370  1.2931
36291TIP3    H2 9756   4.435   8.250   5.138  1.6289  0.9048 -2.2641
36292TIP3   OH2 9757   3.375   0.005   2.473  0.8810  0.3309  0.2468
36292TIP3    H1 9758   3.469  -0.003   2.491  0.9292  0.7708  0.1899
36292TIP3    H2 9759   3.367   0.083   2.419  0.2603  1.5553  2.0103
36293TIP3   OH2 9760   8.453   0.037   4.032 -1.1184 -0.1579  0.3703
36293TIP3    H1 9761   8.413   0.118   4.000  0.7202  1.9520  2.9906
36293TIP3    H2 9762   8.519   0.015   3.967 -1.6291  0.4179 -0.3544
36294TIP3   OH2 9763   1.498   0.724   4.151 -0.3363 -0.0414  0.0585
36294TIP3    H1 9764   1.531   0.688   4.233  0.7909  0.6494 -0.0781
36294TIP3    H2 9765   1.487   0.647   4.094 -1.4087 -0.5628  0.9180
36295TIP3   OH2 9766  10.879   0.983   5.414  0.1495  0.2192  0.0459
36295TIP3    H1 9767  10.941   0.976   5.486  0.5050 -0.3657 -0.3018
36295TIP3    H2 9768  10.806   0.927   5.440 -0.1042  0.6883  0.3334
36296TIP3   OH2 9769   1.303   2.771  10.411  0.0773 -0.0091  0.3217
36296TIP3    H1 9770   1.338   2.766  10.323  1.1511  0.2473  0.7193
36296TIP3    H2 9771   1.347   2.701  10.459 -0.6900 -0.3180  0.5906
36297TIP3   OH2 9772   0.913   0.907   3.853 -0.0582  0.0462 -0.7976
36297TIP3    H1 9773   0.967   0.966   3.905 -0.1927 -0.2159 -0.3501
36297TIP3    H2 9774   0.847   0.875   3.915  2.0297 -3.3045  0.0251
36298TIP3   OH2 9775   6.601   5.943  10.703 -0.1087  0.6386  0.0423
36298TIP3    H1 9776   6.533   5.903  10.758  0.4833  0.0782  0.3750
36298TIP3    H2 9777   6.647   6.003  10.762 -0.4080  1.1438 -0.2265
36299TIP3   OH2 9778   5.173  10.052   7.299 -0.2522 -0.1471 -0.3198
36299TIP3    H1 9779   5.106  10.036   7.234 -0.4845  1.1544 -0.4372
36299TIP3    H2 9780   5.126  10.087   7.375  0.1219 -0.7300  0.1949
36300TIP3   OH2 9781   0.970   4.907   0.717  0.7268 -0.2459  0.1480
36300TIP3    H1 9782   1.044   4.877   0.666  1.1368  1.0389 -0.0418
36300TIP3    H2 9783   0.936   4.827   0.759  1.4114 -1.0436 -0.7706
36301TIP3   OH2 9784  10.080   1.802   8.064 -0.0922  0.4676 -0.4590
36301TIP3    H1 9785  10.011   1.767   8.120 -0.4220  2.1709  0.2828
36301TIP3    H2 9786  10.036   1.870   8.012  0.7966  0.8543 -0.7274
36302TIP3   OH2 9787   7.280   3.030  10.630 -0.2300 -0.5476 -0.0267
36302TIP3    H1 9788   7.269   2.935  10.633 -0.4806 -0.5026  1.1819
36302TIP3    H2 9789   7.197   3.065  10.665 -0.7821  0.1791 -1.9498
36303TIP3   OH2 9790   1.139   7.714   1.365 -0.2238  0.1874  0.0488
36303TIP3    H1 9791   1.086   7.757   1.297 -0.1208  2.4453  1.3201
36303TIP3    H2 9792   1.080   7.648   1.402  0.5520 -3.1308 -3.9130
36304TIP3   OH2 9793  10.786   1.583   4.063 -0.2815 -0.0025  0.2183
36304TIP3    H1 9794  10.729   1.616   4.132 -0.9270  0.3771 -0.4758
36304TIP3    H2 9795  10.750   1.497   4.041 -1.7120  0.9553 -1.4253
36305TIP3   OH2 9796   4.078   9.288  10.266 -0.3476  1.0779 -0.9229
36305TIP3    H1 9797   4.042   9.224  10.204  0.9785 -0.8704  0.2173
36305TIP3    H2 9798   4.004   9.345  10.287 -1.1209  1.0789 -3.3632
36306TIP3   OH2 9799   8.325   9.417   0.179 -0.4649  0.1630 -0.6865
36306TIP3    H1 9800   8.399   9.467   0.214 -0.5476 -0.3083  0.1752
36306TIP3    H2 9801   8.358   9.381   0.097 -0.5320  1.9441 -1.5531
36307TIP3   OH2 9802   4.223   1.183   1.672 -0.1296  0.1059 -0.3508
36307TIP3    H1 9803   4.255   1.265   1.633 -2.6252  0.7661 -1.2099
36307TIP3    H2 9804   4.183   1.211   1.754 -0.4001 -0.3715 -0.3217
36308TIP3   OH2 9805   4.725   0.213   8.541  0.1772 -0.5873 -0.2155
36308TIP3    H1 9806   4.795   0.149   8.552  1.7539  1.0205 -0.3392
36308TIP3    H2 9807   4.722   0.229   8.446 -0.9165 -1.2139 -0.2990
36309TIP3   OH2 9808   7.642   6.496   8.919 -0.1254  0.1095 -0.3657
36309TIP3    H1 9809   7.661   6.415   8.966 -2.3491  0.3698  1.1512
36309TIP3    H2 9810   7.713   6.555   8.943  0.1149 -0.5740  0.6733
36310TIP3   OH2 9811   2.988   0.009   1.246 -0.4077  1.0420  0.4741
36310TIP3    H1 9812   3.025   0.078   1.190  0.8326  0.6186  0.7350
36310TIP3    H2 9813   3.050  -0.063   1.238 -1.3717  0.1796  0.6958
36311TIP3   OH2 9814   0.318   8.558   7.746  0.1799  0.4867 -0.1693
36311TIP3    H1 9815   0.389   8.510   7.789 -0.1584 -0.6364 -0.8390
36311TIP3    H2 9816   0.288   8.621   7.812 -0.5771 -1.4247  1.3996
36312TIP3   OH2 9817   8.864   4.909   1.703 -0.3349 -0.6009  0.4319
36312TIP3    H1 9818   8.894   4.975   1.641  0.0137 -1.5904 -0.4889
36312TIP3    H2 9819   8.839   4.834   1.648 -1.3322 -1.0033  1.4020
36313TIP3   OH2 9820   7.164   8.697   8.427 -0.2179  0.0095 -0.4147
36313TIP3    H1 9821   7.112   8.720   8.504 -0.9184 -2.7619  0.0546
36313TIP3    H2 9822   7.234   8.640   8.461 -0.3798 -1.0456 -1.7476
36314TIP3   OH2 9823   0.641   8.953   0.631  0.4240 -0.3664 -0.1429
36314TIP3    H1 9824   0.673   8.986   0.715 -1.6563  1.6990 -0.0267
36314TIP3    H2 9825   0.622   8.861   0.647 -0.5117  0.1049  1.9204
36315TIP3   OH2 9826   9.525  10.290   7.231  0.2158 -0.2729  0.7383
36315TIP3    H1 9827   9.556  10.376   7.203  0.0457 -0.1998  0.7741
36315TIP3    H2 9828   9.479  10.255   7.154 -0.1256 -0.1331  0.8768
36316TIP3   OH2 9829   6.294   1.640   8.148 -0.4481 -0.5416  0.7603
36316TIP3    H1 9830   6.212   1.596   8.124 -0.4844 -0.7275  1.2139
36316TIP3    H2 9831   6.362   1.586   8.108 -0.4762 -1.1922  1.5693
36317TIP3   OH2 9832   4.121   8.313   9.804  0.1373  0.2411 -0.2586
36317TIP3    H1 9833   4.137   8.362   9.884  0.2179 -0.7035  0.3212
36317TIP3    H2 9834   4.087   8.228   9.834  0.6342 -0.3058 -1.1902
36318TIP3   OH2 9835   0.712   7.223   2.194  0.4486  0.2791 -0.1802
36318TIP3    H1 9836   0.771   7.167   2.245  1.2869 -1.1254 -2.5464
36318TIP3    H2 9837   0.769   7.288   2.153 -0.1128  0.9562  0.0888
36319TIP3   OH2 9838   7.394   1.220   0.684  0.0575  0.1186  0.6748
36319TIP3    H1 9839   7.367   1.297   0.734  1.1335  0.2827  1.0253
36319TIP3    H2 9840   7.382   1.245   0.593 -2.0986 -0.2427  0.8101
36320TIP3   OH2 9841  10.820   5.419   2.517  0.1835  0.4030 -0.1199
36320TIP3    H1 9842  10.790   5.460   2.436  4.8233  2.8770 -0.9530
36320TIP3    H2 9843  10.876   5.347   2.487  2.2780  1.5913  0.7484
36321TIP3   OH2 9844   5.193   7.842   3.461 -0.0393 -0.0020  0.0256
36321TIP3    H1 9845   5.278   7.812   3.429 -0.0065  0.6870 -0.5469
36321TIP3    H2 9846   5.169   7.778   3.529  0.1326 -1.1910 -0.9867
36322TIP3   OH2 9847   5.196   9.304   1.481  0.0976  0.2102  0.3314
36322TIP3    H1 9848   5.220   9.269   1.567  1.1105  0.2449  0.0709
36322TIP3    H2 9849   5.277   9.342   1.447  0.0377 -0.9371 -1.1903
36323TIP3   OH2 9850   0.780  10.772   9.327 -0.5809  0.5665  0.2421
36323TIP3    H1 9851   0.743  10.839   9.385 -1.5428  0.2716 -0.0121
36323TIP3    H2 9852   0.826  10.822   9.260 -0.9764  0.9709  0.2647
36324TIP3   OH2 9853   3.905   2.216   8.931  0.0778 -0.0098 -0.0529
36324TIP3    H1 9854   3.973   2.283   8.934  0.4489 -0.2305 -2.2490
36324TIP3    H2 9855   3.823   2.263   8.946  0.4245  0.7625 -0.5574
36325TIP3   OH2 9856   9.362   7.149   3.813 -0.7560 -0.2290  0.2301
36325TIP3    H1 9857   9.323   7.230   3.779  0.1284 -0.4213 -1.3307
36325TIP3    H2 9858   9.321   7.079   3.762  0.1455 -0.5772 -0.0362
36326TIP3   OH2 9859   8.620   6.262  10.899  0.4629 -0.0706  0.1378
36326TIP3    H1 9860   8.675   6.314  10.957 -0.4942  3.1987 -1.6513
36326TIP3    H2 9861   8.540   6.246  10.949 -0.0533  2.0489  0.0664
36327TIP3   OH2 9862   2.899  10.407   4.599 -0.4491  0.4183 -0.0376
36327TIP3    H1 9863   2.855  10.387   4.517  0.8834 -0.0178 -0.6822
36327TIP3    H2 9864   2.848  10.479   4.637 -0.0299  1.9443 -2.1629
36328TIP3   OH2 9865   3.970   4.496   8.040 -0.2677 -0.1287  0.1492
36328TIP3    H1 9866   4.039   4.509   8.105 -0.7453  1.5604  0.3655
36328TIP3    H2 9867   4.013   4.515   7.956 -0.6847  2.0585  0.3744
36329TIP3   OH2 9868   9.682   0.227   6.106  0.0112 -0.0703 -0.2558
36329TIP3    H1 9869   9.601   0.275   6.088 -0.6338 -0.7984  0.6396
36329TIP3    H2 9870   9.676   0.203   6.198  1.6750  0.6476  0.0748
36330TIP3   OH2 9871   1.473   5.997   6.916  0.0560 -0.2973  0.7309
36330TIP3    H1 9872   1.386   6.007   6.878 -0.3967 -0.2420  1.7459
36330TIP3    H2 9873   1.506   6.086   6.925 -0.0289 -0.2790  0.8785
36331TIP3   OH2 9874   4.266   8.840   6.876  0.2924 -0.5051 -0.0443
36331TIP3    H1 9875   4.361   8.843   6.887  0.3463 -0.0305 -0.5986
36331TIP3    H2 9876   4.244   8.922   6.833 -0.4636 -0.2762  0.7392
36332TIP3   OH2 9877   6.486   4.540   8.812 -0.1315 -0.1673 -0.3314
36332TIP3    H1 9878   6.526   4.454   8.810  1.3459  0.5027 -1.3137
36332TIP3    H2 9879   6.555   4.598   8.844 -0.3965  0.9720 -1.7314
36333TIP3   OH2 9880  10.444   4.326   4.636 -0.1148  0.0384  0.0679
36333TIP3    H1 9881  10.502   4.386   4.683 -1.7921  1.1391  0.8255
36333TIP3    H2 9882  10.443   4.359   4.546  1.1987 -0.6113 -0.2070
36334TIP3   OH2 9883   4.605  10.776   0.650 -0.2004 -0.4677 -0.4342
36334TIP3    H1 9884   4.676  10.731   0.696 -1.2038 -1.1345  0.5009
36334TIP3    H2 9885   4.650  10.832   0.587  1.2623  0.4736  1.3335
36335TIP3   OH2 9886   3.915   7.732   3.488  0.0244  0.7308 -0.1330
36335TIP3    H1 9887   3.834   7.726   3.538 -0.7180 -0.6171 -1.4258
36335TIP3    H2 9888   3.984   7.724   3.554 -0.9179 -0.2738  0.7744
36336TIP3   OH2 9889   2.841   1.043   2.232  0.0366 -0.7587 -0.1356
36336TIP3    H1 9890   2.925   1.005   2.259  0.4678  0.2640 -0.0036
36336TIP3    H2 9891   2.776   0.979   2.261  0.6312 -0.6568  1.5450
36337TIP3   OH2 9892   8.073   2.473   1.776  0.4570  0.7234 -0.3354
36337TIP3    H1 9893   8.060   2.568   1.771  2.2113  0.9688 -0.9667
36337TIP3    H2 9894   8.063   2.453   1.869 -0.6747  1.3775 -0.2876
36338TIP3   OH2 9895  10.080   8.253   2.422 -0.5099 -0.1767 -0.1295
36338TIP3    H1 9896   9.993   8.274   2.390 -0.0816  0.5485 -0.8503
36338TIP3    H2 9897  10.065   8.190   2.493 -1.6502  0.3842  0.1501
36339TIP3   OH2 9898   1.806   1.587   3.128  0.0566 -0.0940 -0.4221
36339TIP3    H1 9899   1.728   1.539   3.100  0.8879 -2.0777  0.5030
36339TIP3    H2 9900   1.796   1.596   3.223  0.8948 -0.3105 -0.3031
36340TIP3   OH2 9901   9.916   4.249   7.167  0.0707 -0.3239  0.0265
36340TIP3    H1 9902  10.002   4.211   7.186  0.0114 -1.1312 -1.2097
36340TIP3    H2 9903   9.891   4.294   7.248  1.0757 -1.1651  0.8306
36341TIP3   OH2 9904   2.829   2.112   6.606  0.2346 -0.0639  0.9149
36341TIP3    H1 9905   2.753   2.076   6.560  1.9780 -1.3330 -1.1520
36341TIP3    H2 9906   2.844   2.053   6.679  0.8258 -1.4421 -0.2771
36342TIP3   OH2 9907   8.211   3.083   2.040 -0.0863 -0.2206  0.0687
36342TIP3    H1 9908   8.204   3.075   2.135  0.5253  0.0332  0.1460
36342TIP3    H2 9909   8.265   3.008   2.013 -1.2531 -0.9739 -0.2350
36343TIP3   OH2 9910   0.647  10.673   3.886  0.0598  0.1432  0.5583
36343TIP3    H1 9911   0.603  10.732   3.824  0.8287 -1.1964 -1.3643
36343TIP3    H2 9912   0.706  10.730   3.935  0.8942  1.0162 -1.3503
36344TIP3   OH2 9913   0.900   8.434   9.858  0.4432  0.6905 -0.1885
36344TIP3    H1 9914   0.844   8.433   9.780  0.5926  1.5385 -0.3163
36344TIP3    H2 9915   0.961   8.506   9.843  1.1573  0.1884  0.2458
36345TIP3   OH2 9916   9.077   2.354   2.037 -0.2671 -0.0942 -0.5143
36345TIP3    H1 9917   9.113   2.319   2.119 -1.7751 -0.0042  0.2226
36345TIP3    H2 9918   9.105   2.445   2.035 -1.1335  0.2112  0.4791
36346TIP3   OH2 9919   4.677   0.943   9.318  0.6182  1.1432 -0.0774
36346TIP3    H1 9920   4.644   0.875   9.377  1.1292  1.6303  0.7904
36346TIP3    H2 9921   4.605   1.004   9.308  0.5128  1.0330  0.0029
36347TIP3   OH2 9922   7.079   6.650   3.753  0.3840 -0.2860 -0.3105
36347TIP3    H1 9923   7.051   6.711   3.821  1.6817 -1.3272  1.2264
36347TIP3    H2 9924   7.172   6.669   3.741  0.3060 -0.5367 -1.3696
36348TIP3   OH2 9925   2.616   6.847   6.690  0.1665 -0.2540 -0.1935
36348TIP3    H1 9926   2.683   6.782   6.670  0.3246 -0.2689  0.3650
36348TIP3    H2 9927   2.614   6.851   6.786  1.2492  1.6493 -0.1905
36349TIP3   OH2 9928   6.171  10.515   6.376  0.2064 -0.0223 -0.0886
36349TIP3    H1 9929   6.105  10.513   6.307  0.1277 -2.9118 -0.0572
36349TIP3    H2 9930   6.148  10.442   6.434  2.0088  0.4386  1.3142
36350TIP3   OH2 9931   2.910   5.160   4.330  0.1974  0.5538  0.2445
36350TIP3    H1 9932   2.923   5.246   4.372 -3.0409  1.5139 -0.4400
36350TIP3    H2 9933   2.921   5.177   4.237  0.3576  0.0083  0.1615
36351TIP3   OH2 9934   7.191   1.025   5.081  0.4252 -0.6607 -0.0211
36351TIP3    H1 9935   7.284   1.025   5.104  0.2066 -0.2009  0.8900
36351TIP3    H2 9936   7.158   0.941   5.112  0.5912 -0.9475 -0.6061
36352TIP3   OH2 9937   7.824   9.374   2.444  1.2071  0.0033 -0.1119
36352TIP3    H1 9938   7.897   9.415   2.490  1.5712  0.6892 -1.2729
36352TIP3    H2 9939   7.836   9.398   2.353 -0.5727  0.2581 -0.3093
36353TIP3   OH2 9940   5.828   5.442   8.847 -0.7317 -0.3102 -0.0109
36353TIP3    H1 9941   5.824   5.348   8.864  0.9312 -0.4645 -0.2933
36353TIP3    H2 9942   5.907   5.453   8.794 -1.1789  1.1933 -0.4129
36354TIP3   OH2 9943   3.885   4.376   0.207  0.1542  0.2507 -0.6635
36354TIP3    H1 9944   3.805   4.421   0.180  0.2565  0.6947 -0.2516
36354TIP3    H2 9945   3.876   4.365   0.302 -0.1588 -1.1930 -0.8322
36355TIP3   OH2 9946   8.294   2.970   5.794 -0.1350 -0.3337  0.1413
36355TIP3    H1 9947   8.348   2.895   5.768  0.5432 -0.1524  0.9792
36355TIP3    H2 9948   8.357   3.036   5.823 -0.8242 -0.4554  2.0308
36356TIP3   OH2 9949   2.546   5.651   6.532 -0.2101  0.2232  0.0865
36356TIP3    H1 9950   2.504   5.658   6.447  1.3708 -2.3484 -1.0365
36356TIP3    H2 9951   2.493   5.587   6.580  0.2183 -0.1317  0.0999
36357TIP3   OH2 9952   4.545  10.811   9.954  0.2247  0.2495 -0.4327
36357TIP3    H1 9953   4.637  10.814   9.927 -0.1418  0.5195 -1.7235
36357TIP3    H2 9954   4.508  10.740   9.901 -0.9088  1.9048 -1.9663
36358TIP3   OH2 9955  10.557   2.939   1.808  0.1867  0.6830  0.0441
36358TIP3    H1 9956  10.536   2.895   1.890  1.6114  1.5446  0.9169
36358TIP3    H2 9957  10.519   3.026   1.817 -0.2932  0.5389 -0.5354
36359TIP3   OH2 9958   5.668   7.227   1.441  0.1956  0.6673  0.1400
36359TIP3    H1 9959   5.698   7.288   1.373  1.0619 -0.6060 -0.6575
36359TIP3    H2 9960   5.648   7.146   1.395  0.9567 -0.2841  1.3951
36360TIP3   OH2 9961   1.791   5.392   8.188  0.3256 -0.2217  0.3757
36360TIP3    H1 9962   1.749   5.474   8.212  1.3834 -0.0792  1.8351
36360TIP3    H2 9963   1.732   5.324   8.221 -1.1949 -0.1507 -1.9237
36361TIP3   OH2 9964   5.332   3.056   6.071  0.1128 -0.2565 -0.5093
36361TIP3    H1 9965   5.281   3.050   5.991  0.4696 -0.8751 -0.6913
36361TIP3    H2 9966   5.348   2.966   6.097  1.3464 -0.0797 -0.6063
36362TIP3   OH2 9967   6.540   0.488   4.537 -0.3540 -0.5858  0.6312
36362TIP3    H1 9968   6.521   0.526   4.623 -0.6012  1.2987 -0.1987
36362TIP3    H2 9969   6.458   0.446   4.511  0.1812 -2.5363  1.9438
36363TIP3   OH2 9970   0.130   8.834   1.493  0.3814  0.3170  0.3930
36363TIP3    H1 9971   0.114   8.911   1.548  0.2826 -0.5368  1.6147
36363TIP3    H2 9972   0.223   8.816   1.502  0.7347  1.2460 -1.2153
36364TIP3   OH2 9973   6.763   5.439   0.077 -0.0796  0.0076 -0.6693
36364TIP3    H1 9974   6.676   5.476   0.092 -0.3359 -0.6813 -0.4403
36364TIP3    H2 9975   6.758   5.349   0.109  1.1589  0.4028  0.7509
36365TIP3   OH2 9976   4.064   6.288   2.695 -0.3067 -0.1574  0.4810
36365TIP3    H1 9977   4.135   6.319   2.639 -1.1321 -0.6571 -0.9010
36365TIP3    H2 9978   4.030   6.210   2.651 -0.5695 -0.9729  2.0426
36366TIP3   OH2 9979   3.861   8.828   0.484 -0.3399 -0.1437 -0.3208
36366TIP3    H1 9980   3.937   8.775   0.463 -1.3568 -1.6537 -0.3508
36366TIP3    H2 9981   3.797   8.808   0.415 -0.5656  1.5772 -0.6687
36367TIP3   OH2 9982  10.278   5.879  10.294  0.1357  0.1080 -0.2647
36367TIP3    H1 9983  10.297   5.786  10.305 -2.4415 -0.7835 -2.4837
36367TIP3    H2 9984  10.225   5.902  10.371  0.1260 -0.4467 -0.1042
36368TIP3   OH2 9985   1.650   5.422   7.605 -0.0860 -0.1078  0.5807
36368TIP3    H1 9986   1.742   5.441   7.588  0.1156 -1.5316 -0.0227
36368TIP3    H2 9987   1.603   5.499   7.573  0.8268  0.2571  0.0880
36369TIP3   OH2 9988   3.951   7.462   8.566 -0.2350 -0.4299 -0.1291
36369TIP3    H1 9989   3.902   7.453   8.484  0.4796  2.5933 -1.0216
36369TIP3    H2 9990   3.894   7.515   8.622 -0.4985 -2.0522  1.1957
36370TIP3   OH2 9991   7.948   9.538   1.875  0.9344 -0.6230 -0.0914
36370TIP3    H1 9992   7.915   9.603   1.937  1.8650  0.5011 -0.7184
36370TIP3    H2 9993   7.870   9.494   1.842  0.2895  0.0714  0.4700
36371TIP3   OH2 9994   5.906   9.357   3.277 -0.0454  0.0222  0.4115
36371TIP3    H1 9995   5.830   9.371   3.333  0.4441  0.8444  0.8877
36371TIP3    H2 9996   5.874   9.298   3.208 -1.2007  0.6254  0.4064
36372TIP3   OH2 9997   2.004   6.954   5.501  0.5290  0.0805 -0.5248
36372TIP3    H1 9998   2.044   6.871   5.526  0.6867  0.5807  0.9425
36372TIP3    H2 9999   2.075   7.002   5.458  0.2703 -0.7597 -1.9548
36373TIP3   OH210000   9.549   2.782   1.723 -0.4169  0.1312  0.1157
36373TIP3    H110001   9.492   2.705   1.720 -0.0212 -0.1260 -0.9282
36373TIP3    H210002   9.609   2.771   1.649  0.3902  0.8680  0.6462
36374TIP3   OH210003   9.571   3.409   5.925 -0.1212 -0.1936  0.0090
36374TIP3    H110004   9.643   3.362   5.966  1.6184  0.2739 -2.3148
36374TIP3    H210005   9.515   3.435   5.998  1.4335 -1.5659  1.7962
36375TIP3   OH210006   4.365   9.918   1.509 -0.0991 -0.7965 -0.6341
36375TIP3    H110007   4.352   9.856   1.437 -0.0325 -1.6111  0.0462
36375TIP3    H210008   4.455   9.902   1.538 -0.0902 -0.3900 -0.4320
36376TIP3   OH210009   6.793   8.197  10.804 -0.0326 -0.3577 -0.1286
36376TIP3    H110010   6.868   8.251  10.778  0.5121 -1.1470 -0.2364
36376TIP3    H210011   6.787   8.210  10.899  1.6960 -2.0211  0.2789
36377TIP3   OH210012   7.501   6.437   7.161  0.1356 -0.7448  0.1647
36377TIP3    H110013   7.521   6.364   7.220 -0.5970 -0.0443  1.3162
36377TIP3    H210014   7.417   6.414   7.121  0.3573 -0.9580 -0.1810
36378TIP3   OH210015   3.370   1.636   4.857  0.1164  0.3436  0.5695
36378TIP3    H110016   3.347   1.719   4.899  1.3829  0.6092  0.7817
36378TIP3    H210017   3.286   1.592   4.842 -0.6578  2.0200 -0.3150
36379TIP3   OH210018   8.050   5.182   2.697  0.1457  0.1600 -0.1144
36379TIP3    H110019   8.005   5.169   2.613 -0.1893  2.9060 -0.4538
36379TIP3    H210020   7.989   5.235   2.749  2.0126  2.1488  0.2107
36380TIP3   OH210021   9.295   5.519   1.506  0.2956 -0.1430 -0.6299
36380TIP3    H110022   9.311   5.613   1.495 -0.6709 -0.1047 -2.0997
36380TIP3    H210023   9.353   5.492   1.577  0.8792  1.4827 -0.4528
36381TIP3   OH210024   5.654   7.412   9.251  0.6719  0.3373  0.3411
36381TIP3    H110025   5.567   7.450   9.237  0.6197  0.3420  0.6775
36381TIP3    H210026   5.699   7.475   9.308  0.4948 -0.2195  1.1163
36382TIP3   OH210027   8.373   4.189   8.961  0.7323  0.1031 -0.2374
36382TIP3    H110028   8.371   4.285   8.956  2.0580  0.1465 -0.4006
36382TIP3    H210029   8.287   4.165   8.997  0.2166  1.3165 -0.5993
36383TIP3   OH210030   9.579  10.505   2.843  0.2653  0.1616 -0.6356
36383TIP3    H110031   9.514  10.452   2.888  1.0399  0.9307  1.4862
36383TIP3    H210032   9.626  10.443   2.788  0.6012 -1.2250  1.1379
36384TIP3   OH210033   0.369   6.602   8.630  0.4469 -0.3846  0.0979
36384TIP3    H110034   0.338   6.513   8.646  1.6894 -1.0165 -0.8206
36384TIP3    H210035   0.442   6.591   8.569 -0.6636  1.4279 -1.6815
36385TIP3   OH210036   2.851   0.702   0.148  0.4703  0.0330 -0.1106
36385TIP3    H110037   2.818   0.627   0.098  2.7191  0.1411 -1.9262
36385TIP3    H210038   2.845   0.776   0.087 -1.2969  1.3079  1.5042
36386TIP3   OH210039   8.948   3.522   3.576  0.0223 -0.5203 -0.0550
36386TIP3    H110040   8.893   3.464   3.628  1.4998 -3.6010 -1.6450
36386TIP3    H210041   9.031   3.527   3.624 -0.1360  0.3874  0.1303
36387TIP3   OH210042   3.400   1.100   2.092  0.1961 -0.1991 -0.1804
36387TIP3    H110043   3.461   1.171   2.074  1.5809 -1.4992 -0.7972
36387TIP3    H210044   3.415   1.036   2.022 -1.4849 -0.8196 -0.0340
36388TIP3   OH210045   6.614   9.429   8.666 -0.1145  0.2950  0.0223
36388TIP3    H110046   6.521   9.445   8.683 -0.4128  0.6459 -1.7395
36388TIP3    H210047   6.617   9.339   8.635  0.1488  0.2632  0.1386
36389TIP3   OH210048   7.427   0.223   9.206  0.5635  0.2214  0.6317
36389TIP3    H110049   7.414   0.318   9.208  1.2554  0.4254 -1.8988
36389TIP3    H210050   7.509   0.210   9.159 -0.7208 -1.6893 -1.2595
36390TIP3   OH210051   7.395   1.148   2.108 -0.4236 -0.0822  0.0439
36390TIP3    H110052   7.388   1.116   2.198  0.1899 -0.8651 -0.1722
36390TIP3    H210053   7.348   1.232   2.109 -0.0706  0.1318  1.1905
36391TIP3   OH210054   7.094   6.896   0.420 -0.0152 -0.2674  0.1625
36391TIP3    H110055   7.073   6.853   0.337 -0.7801  0.3683  0.0182
36391TIP3    H210056   7.165   6.957   0.398  0.9865 -1.3429  0.3432
36392TIP3   OH210057  10.849   7.324   7.842  0.5400 -0.1979 -0.0435
36392TIP3    H110058  10.807   7.396   7.795  1.4729  0.4724  0.1381
36392TIP3    H210059  10.788   7.250   7.831 -0.5874  0.6817  0.0440
36393TIP3   OH210060   6.230   3.218   6.758  0.4354 -0.4743 -0.3960
36393TIP3    H110061   6.144   3.217   6.799  1.4993 -1.0903  2.0087
36393TIP3    H210062   6.245   3.127   6.731  1.7134 -1.2644  2.5516
36394TIP3   OH210063   8.844   2.721   8.171 -0.7280  0.0795 -0.0952
36394TIP3    H110064   8.910   2.696   8.235  0.0020 -0.5428 -1.0571
36394TIP3    H210065   8.762   2.685   8.206 -0.2343 -0.8316  0.1711
36395TIP3   OH210066   7.626   7.146   2.740  0.0395 -0.4646  0.0526
36395TIP3    H110067   7.558   7.181   2.798  1.0742  0.3075  0.8424
36395TIP3    H210068   7.680   7.091   2.796  1.6360  1.0571  0.1272
36396TIP3   OH210069   8.706  10.386   6.338  0.1542 -0.3998 -0.4297
36396TIP3    H110070   8.674  10.451   6.402  0.5399 -0.5825 -0.0463
36396TIP3    H210071   8.717  10.436   6.257  0.6115  0.0574 -0.0946
36397TIP3   OH210072   1.375   6.443   8.984  0.2974 -0.6440  0.0822
36397TIP3    H110073   1.336   6.367   9.027  0.2452 -0.8567 -0.3425
36397TIP3    H210074   1.456   6.459   9.032  0.2002 -0.8317  0.3099
36398TIP3   OH210075   0.818   5.915  10.629  0.3250  0.0996 -0.3947
36398TIP3    H110076   0.852   5.949  10.713 -2.0177 -0.5595  0.9000
36398TIP3    H210077   0.842   5.823  10.629 -0.2453 -0.0546 -0.1104
36399TIP3   OH210078   8.366   1.568   2.667  0.0395  0.1113 -0.4629
36399TIP3    H110079   8.427   1.513   2.618  1.5769 -0.4883  1.9338
36399TIP3    H210080   8.286   1.516   2.674 -0.3608  0.3595 -2.5181
36400TIP3   OH210081   6.600   0.235   2.823 -0.2997 -0.0076  0.9823
36400TIP3    H110082   6.681   0.284   2.810  0.1678 -0.6924  1.2331
36400TIP3    H210083   6.627   0.156   2.871 -1.0649 -0.3975  0.7933
36401TIP3   OH210084   6.387  10.430   0.036  0.2490 -0.3438  0.0231
36401TIP3    H110085   6.410  10.410  -0.055 -1.1629  1.8732 -0.9186
36401TIP3    H210086   6.333  10.356   0.064 -3.5725  1.0016 -2.7860
36402TIP3   OH210087   8.847   4.885   2.107 -0.3282  0.3520  0.3055
36402TIP3    H110088   8.798   4.876   2.026  1.6675  1.1091 -1.0661
36402TIP3    H210089   8.780   4.892   2.175 -2.0838  0.6968 -1.3751
36403TIP3   OH210090   5.114   7.587   0.365  0.0875  0.7399  0.0470
36403TIP3    H110091   5.148   7.576   0.276  3.2625  2.7248  0.8527
36403TIP3    H210092   5.110   7.681   0.378 -0.0532  0.4945  2.0950
36404TIP3   OH210093   4.045   2.425   3.860  0.1761  0.4600 -0.8148
36404TIP3    H110094   4.106   2.438   3.932 -0.7591 -0.9968  0.2982
36404TIP3    H210095   4.095   2.379   3.794  0.0638 -1.7141  0.5371
36405TIP3   OH210096  10.378   2.620   4.992  0.7092  0.3244  0.2990
36405TIP3    H110097  10.395   2.552   4.926  1.1275 -0.6961  1.4228
36405TIP3    H210098  10.283   2.627   4.996  0.5882  2.7610 -2.7115
36406TIP3   OH210099   5.785   3.401   0.819 -0.2621  0.7096 -0.0599
36406TIP3    H110100   5.712   3.393   0.757 -0.0162  0.1942 -0.2972
36406TIP3    H210101   5.754   3.461   0.886 -0.7206  0.8839 -0.4232
36407TIP3   OH210102   3.248   4.098   5.310 -0.1641  0.2675  0.0113
36407TIP3    H110103   3.246   4.049   5.392  1.1506 -0.1337 -0.1648
36407TIP3    H210104   3.271   4.188   5.337 -0.0181  0.2009  0.1136
36408TIP3   OH210105   8.678   8.617   4.198 -0.8364  0.1391 -0.6174
36408TIP3    H110106   8.762   8.577   4.220 -1.8152 -1.7525 -0.0944
36408TIP3    H210107   8.620   8.590   4.269 -2.0201  0.9486 -1.2578
36409TIP3   OH210108   3.568   8.480   5.534  0.0478  0.1209  0.6766
36409TIP3    H110109   3.522   8.544   5.479  1.5543  0.8767  0.2386
36409TIP3    H210110   3.642   8.529   5.571  1.2341 -1.3289  0.3390
36410TIP3   OH210111  10.865   6.096   4.964 -0.7822  0.1465 -0.6401
36410TIP3    H110112  10.803   6.162   4.996 -0.0063  0.5337  0.1187
36410TIP3    H210113  10.951   6.133   4.985 -0.3390 -1.6598  0.9453
36411TIP3   OH210114   5.654   6.766   5.644 -0.3642  0.2240  0.0523
36411TIP3    H110115   5.664   6.747   5.551 -1.1821  0.1744 -0.0406
36411TIP3    H210116   5.590   6.838   5.646 -0.2174  0.3409  0.5654
36412TIP3   OH210117   3.342   0.516   4.701 -1.1300  0.2777 -0.1057
36412TIP3    H110118   3.387   0.528   4.784 -1.1684 -0.1706 -0.0199
36412TIP3    H210119   3.263   0.466   4.723 -0.6609 -0.6796 -0.5469
36413TIP3   OH210120   3.507   0.181   4.024  0.0748 -0.1769  0.0675
36413TIP3    H110121   3.573   0.188   3.955 -1.4579  1.9168 -1.3359
36413TIP3    H210122   3.455   0.104   4.000 -0.3950  0.4819 -1.1345
36414TIP3   OH210123   9.146   1.714   1.314 -0.3062  0.3542  0.2827
36414TIP3    H110124   9.124   1.807   1.325 -1.3877  0.2167 -0.5246
36414TIP3    H210125   9.191   1.690   1.395  0.2782  1.6636  0.3627
36415TIP3   OH210126   7.922  10.484  10.323 -0.0228  0.3656 -0.1078
36415TIP3    H110127   8.015  10.507  10.329 -0.0382  0.1236  1.8782
36415TIP3    H210128   7.881  10.561  10.283  0.9794  0.5722 -0.7802
36416TIP3   OH210129   2.258   3.003   4.826 -0.5334  0.0280  0.1049
36416TIP3    H110130   2.174   2.968   4.795 -0.3949  0.0255 -0.2707
36416TIP3    H210131   2.324   2.958   4.773 -0.2418 -0.5909  0.9824
36417TIP3   OH210132   0.007   9.031   3.265 -0.7656 -0.3140 -0.3786
36417TIP3    H110133  -0.001   9.074   3.350 -1.6935 -1.4221  0.1216
36417TIP3    H210134  -0.017   9.098   3.202 -2.0287 -0.0394  0.3702
36418TIP3   OH210135   4.838   6.290   1.081 -0.0499 -0.3472 -0.5089
36418TIP3    H110136   4.795   6.279   0.996 -1.0637  2.9375 -0.5706
36418TIP3    H210137   4.771   6.266   1.145  0.6575 -2.6495 -0.5362
36419TIP3   OH210138   3.692   4.974   1.005 -0.1120  0.2809 -0.1201
36419TIP3    H110139   3.653   5.000   1.089 -1.5678 -1.7055 -0.1054
36419TIP3    H210140   3.782   4.951   1.027 -0.5354 -0.4372  0.9782
36420TIP3   OH210141   0.569   6.481   4.468 -0.3379  0.0654  1.1172
36420TIP3    H110142   0.563   6.501   4.562  2.1661  0.6391  1.2268
36420TIP3    H210143   0.602   6.392   4.465 -0.2495  0.1118  0.7742
36421TIP3   OH210144   8.660  10.428  10.245 -0.8154 -0.0481 -0.3082
36421TIP3    H110145   8.751  10.438  10.275 -0.9923 -0.8780  0.5472
36421TIP3    H210146   8.664  10.358  10.180 -1.1276 -1.5606  1.2371
36422TIP3   OH210147   6.228   1.655   5.116  0.0882 -0.0984 -0.2025
36422TIP3    H110148   6.221   1.561   5.132 -1.5489 -0.2397 -1.5644
36422TIP3    H210149   6.180   1.670   5.035 -1.2048  2.1498  0.8616
36423TIP3   OH210150   2.767   6.903   0.053  0.8958 -0.1778  0.0821
36423TIP3    H110151   2.833   6.856   0.002  1.9210 -0.8205  1.9072
36423TIP3    H210152   2.703   6.932  -0.012  2.8258  0.2623 -1.7287
36424TIP3   OH210153   0.357   7.820  10.648  0.6336 -0.4948 -0.2716
36424TIP3    H110154   0.331   7.754  10.713 -1.0412  0.6435  0.2953
36424TIP3    H210155   0.330   7.782  10.564  0.4588 -0.8862 -0.0438
36425TIP3   OH210156   7.813   8.753   5.816 -0.5984  0.2910 -0.1333
36425TIP3    H110157   7.796   8.791   5.729 -1.6431 -0.5183 -0.3041
36425TIP3    H210158   7.851   8.825   5.866 -1.6899  1.3292 -0.7281
36426TIP3   OH210159   0.585   4.419   4.945  0.2086 -0.1021 -0.1172
36426TIP3    H110160   0.599   4.329   4.975  0.4198  0.7480  2.5840
36426TIP3    H210161   0.659   4.437   4.887 -0.5552 -2.0473 -1.8339
36427TIP3   OH210162   3.473   0.552   5.158  0.3644  0.0136  0.5100
36427TIP3    H110163   3.445   0.482   5.098  2.9696  0.1276 -0.9672
36427TIP3    H210164   3.563   0.529   5.182  0.9983  2.4100  0.6488
36428TIP3   OH210165   8.030   8.759   5.424 -0.2793 -0.0392  0.5542
36428TIP3    H110166   8.034   8.666   5.403 -0.4269 -0.0190  0.4388
36428TIP3    H210167   8.105   8.773   5.482 -0.9707 -0.4964  1.5875
36429TIP3   OH210168   5.149   0.807   0.387  0.4496 -0.1572  0.5517
36429TIP3    H110169   5.211   0.797   0.314 -0.9128  1.2265 -0.8672
36429TIP3    H210170   5.159   0.899   0.414  0.0295 -0.3191  1.2718
36430TIP3   OH210171   6.924   9.245   7.653 -0.0445 -0.0466 -0.2041
36430TIP3    H110172   6.991   9.295   7.700 -0.8906  0.0025  0.9986
36430TIP3    H210173   6.845   9.298   7.661 -0.1047  0.2213 -2.1809
36431TIP3   OH210174   0.347   8.031   6.071  0.2023  0.1653 -0.1162
36431TIP3    H110175   0.389   8.116   6.086  0.4985  0.0865 -0.4783
36431TIP3    H210176   0.402   7.989   6.004  0.6183 -0.6961  0.7328
36432TIP3   OH210177   2.973   4.458   9.951 -0.4426 -0.0109 -0.4837
36432TIP3    H110178   2.954   4.461  10.044  0.1550  0.1607 -0.3626
36432TIP3    H210179   3.057   4.413   9.945  0.0065  0.8488 -0.8550
36433TIP3   OH210180   8.084   0.966   1.518 -0.4146 -0.7043  0.1939
36433TIP3    H110181   8.089   0.981   1.613 -1.4966  1.7039 -0.0502
36433TIP3    H210182   8.175   0.964   1.489 -0.0532  1.7906  0.9193
36434TIP3   OH210183   3.625   3.906   2.892 -0.5223 -0.7034 -0.0164
36434TIP3    H110184   3.714   3.911   2.859  0.3909  1.3308  2.4613
36434TIP3    H210185   3.588   3.993   2.876 -1.7084 -1.1941 -0.0732
36435TIP3   OH210186   8.549   9.615   1.200 -0.7922  0.6207 -0.2531
36435TIP3    H110187   8.565   9.646   1.111 -0.0330 -1.5472 -0.9538
36435TIP3    H210188   8.614   9.661   1.254 -0.7413  1.3734 -0.9397
36436TIP3   OH210189   8.056   9.302   4.248  0.3182  0.2974  0.2701
36436TIP3    H110190   8.111   9.364   4.200 -0.3214  0.6242 -0.0700
36436TIP3    H210191   8.055   9.335   4.338 -1.6467  2.0095 -0.3009
36437TIP3   OH210192   7.258   9.594  10.291 -0.2262  0.4844  0.4916
36437TIP3    H110193   7.273   9.511  10.336 -1.0887  0.5771  0.9883
36437TIP3    H210194   7.322   9.654  10.329 -1.2536  0.6867  1.9882
36438TIP3   OH210195   6.019   5.252   8.312 -0.0236  0.1056 -0.2884
36438TIP3    H110196   5.954   5.261   8.243 -0.3202  0.3015  0.0150
36438TIP3    H210197   6.076   5.328   8.303  0.3054 -0.1797 -0.6945
36439TIP3   OH210198   9.159   9.512  10.350 -0.5663  0.2730 -0.3683
36439TIP3    H110199   9.174   9.439  10.289  2.0992  0.0698  0.3952
36439TIP3    H210200   9.239   9.564  10.345 -2.3230  3.1175 -0.7408
36440TIP3   OH210201   7.629   0.059   9.112  0.0758 -0.3310 -0.6331
36440TIP3    H110202   7.693  -0.008   9.138  0.3248 -0.4382 -1.4843
36440TIP3    H210203   7.548   0.010   9.098  0.4544 -0.6239 -2.0562
36441TIP3   OH210204   3.535   1.153   8.770  0.2385  0.3099 -0.0597
36441TIP3    H110205   3.537   1.240   8.809  1.0527 -0.8984  2.8654
36441TIP3    H210206   3.442   1.128   8.773 -0.0511  1.1784 -1.2546
36442TIP3   OH210207   2.626   2.054   3.812 -0.3844  0.2294 -0.2749
36442TIP3    H110208   2.556   2.061   3.877  0.6714  2.0605  0.7607
36442TIP3    H210209   2.580   2.035   3.730 -1.7135 -2.7098  0.9913
36443TIP3   OH210210   6.839   6.317   2.192  0.3488 -0.0657 -0.0852
36443TIP3    H110211   6.806   6.235   2.228  0.0146  0.1578  0.1235
36443TIP3    H210212   6.855   6.298   2.099  2.7078 -1.1017  0.4608
36444TIP3   OH210213   1.049   7.618   4.138  0.1242 -0.1455  0.1844
36444TIP3    H110214   0.963   7.587   4.167 -0.0789  1.5729  1.5693
36444TIP3    H210215   1.110   7.585   4.203 -0.1243  2.3714  1.8096
36445TIP3   OH210216   3.690   5.459   7.479 -0.5494 -0.1839 -0.1063
36445TIP3    H110217   3.658   5.457   7.569 -0.0246 -0.1081  0.0885
36445TIP3    H210218   3.701   5.552   7.460  2.3881 -0.2269  0.8875
36446TIP3   OH210219  10.431  10.434   9.123  0.1810  0.5781 -0.6340
36446TIP3    H110220  10.522  10.461   9.125  0.7491 -1.1825  0.3227
36446TIP3    H210221  10.384  10.502   9.172  1.1385  0.9923 -0.2790
36447TIP3   OH210222   8.012   6.926   4.751  0.4867 -0.4709 -0.2782
36447TIP3    H110223   7.974   6.855   4.802 -2.0224 -0.0010 -1.3425
36447TIP3    H210224   8.054   6.982   4.815  2.3269 -2.7122  0.6210
36448TIP3   OH210225   7.679   3.470   2.673  0.0836  0.1675  0.6181
36448TIP3    H110226   7.769   3.436   2.672  0.1189  0.2457  0.9573
36448TIP3    H210227   7.687   3.559   2.706  0.1711  1.0899 -1.7478
36449TIP3   OH210228   1.066   8.729   5.130  0.0428  0.1107 -0.0518
36449TIP3    H110229   1.052   8.651   5.076 -0.8803 -0.1723  0.5663
36449TIP3    H210230   1.084   8.695   5.218 -2.6877  0.5613  0.7699
36450TIP3   OH210231   5.247   3.345   1.453 -0.4804  0.0360 -0.1305
36450TIP3    H110232   5.199   3.285   1.510  0.8567 -1.5216 -0.5700
36450TIP3    H210233   5.326   3.367   1.503 -0.2967  0.3067 -0.5377
36451TIP3   OH210234   8.952   0.848   0.666 -0.2663  0.2162 -0.4133
36451TIP3    H110235   9.017   0.778   0.663 -0.3676  0.1452 -2.7291
36451TIP3    H210236   8.877   0.809   0.711  0.0679 -0.8186 -0.7175
36452TIP3   OH210237   9.298   3.602   3.215  0.1493  0.1053 -0.1086
36452TIP3    H110238   9.305   3.538   3.145 -0.2379 -1.4436  1.2098
36452TIP3    H210239   9.384   3.600   3.258 -0.0716 -0.0423  0.3394
36453TIP3   OH210240   8.415   9.486   9.461 -0.1822  0.3910 -0.3235
36453TIP3    H110241   8.499   9.462   9.421 -0.2490  1.6190 -1.2701
36453TIP3    H210242   8.349   9.452   9.401 -0.2740  3.6250 -2.2671
36454TIP3   OH210243   4.198   8.411   6.050 -0.0965  0.1237  0.4771
36454TIP3    H110244   4.152   8.460   6.119 -1.0634  0.4222 -0.3534
36454TIP3    H210245   4.289   8.407   6.080 -0.7653 -1.1195  2.5482
36455TIP3   OH210246   6.491   8.279   1.313 -0.1172 -0.2927 -0.6408
36455TIP3    H110247   6.458   8.208   1.258 -1.5159  0.7605 -1.2264
36455TIP3    H210248   6.568   8.312   1.266 -0.7565 -0.0079 -1.5135
36456TIP3   OH210249   4.082   0.960   5.158 -0.1287 -0.0982  0.3943
36456TIP3    H110250   4.040   1.042   5.132  1.0029  0.4808  0.3601
36456TIP3    H210251   4.135   0.983   5.234  0.9171 -0.5855 -0.1700
36457TIP3   OH210252   2.242  10.337   0.573 -0.0107 -0.2325 -0.1983
36457TIP3    H110253   2.206  10.320   0.660  0.4201 -1.5643 -0.2518
36457TIP3    H210254   2.292  10.418   0.582  2.0814 -1.5818  1.4710
36458TIP3   OH210255   8.908   5.587   3.030 -0.2549  0.7838  0.1858
36458TIP3    H110256   8.910   5.622   2.941  2.8575  1.7698  0.5178
36458TIP3    H210257   8.829   5.625   3.069 -1.6476  0.3887 -2.0577
36459TIP3   OH210258   7.222   2.322   3.687  1.2949  0.0960 -0.4505
36459TIP3    H110259   7.173   2.352   3.763  0.8299 -1.2218 -0.2092
36459TIP3    H210260   7.308   2.298   3.722  0.3980 -2.5958  0.1230
36460TIP3   OH210261   2.574   9.637  10.825 -0.2025  0.3086 -0.3022
36460TIP3    H110262   2.633   9.683  10.765  0.3033 -0.5122 -0.4466
36460TIP3    H210263   2.495   9.620  10.773  0.1447 -0.1964 -0.6756
36461TIP3   OH210264   4.332  10.290   8.133  0.1627  0.0240  0.0711
36461TIP3    H110265   4.259  10.326   8.082 -1.3133 -0.6716  1.5555
36461TIP3    H210266   4.326  10.195   8.119  1.0475 -0.0114 -0.1019
36462TIP3   OH210267  10.597   8.183   1.982 -0.6515  0.2018 -0.4480
36462TIP3    H110268  10.536   8.162   2.053 -0.7271  0.0569 -0.5564
36462TIP3    H210269  10.631   8.270   2.005  0.2861 -0.3607  0.4368
36463TIP3   OH210270   8.611   2.641   8.307  0.3694 -0.0192  0.5819
36463TIP3    H110271   8.566   2.710   8.356 -2.3475 -1.8725  0.9133
36463TIP3    H210272   8.549   2.617   8.238  1.4797 -1.7298  0.1295
36464TIP3   OH210273   1.913   3.807  10.328 -0.6065 -0.3483  0.2416
36464TIP3    H110274   1.964   3.733  10.360  0.8964  1.2792  1.8261
36464TIP3    H210275   1.971   3.849  10.264 -0.8125  0.2974  0.4739
36465TIP3   OH210276  10.499   3.773  10.503  1.1737 -0.0068  0.1875
36465TIP3    H110277  10.572   3.793  10.445  0.1012  0.0858 -1.1842
36465TIP3    H210278  10.515   3.684  10.533  2.3006  0.3315  0.6355
36466TIP3   OH210279   4.675   6.458   3.666 -0.2686  0.3770  0.4793
36466TIP3    H110280   4.626   6.377   3.677  1.0846 -0.4590  0.5863
36466TIP3    H210281   4.700   6.460   3.574 -0.0575  0.5194  0.5364
36467TIP3   OH210282   4.701   3.870   0.092  0.2027 -0.8452 -0.5552
36467TIP3    H110283   4.609   3.880   0.116  0.7267 -0.3369  1.4607
36467TIP3    H210284   4.736   3.960   0.095  0.6514 -0.9457 -1.9345
36468TIP3   OH210285   7.323   3.123   6.040 -0.2056  0.4473 -0.2536
36468TIP3    H110286   7.339   3.046   6.093 -1.6698  1.0493  1.1454
36468TIP3    H210287   7.298   3.191   6.103 -0.3222  1.6755 -1.5631
36469TIP3   OH210288   6.519   3.282   7.639 -0.2617  0.3619  0.5747
36469TIP3    H110289   6.435   3.325   7.623 -0.8193 -1.2793 -1.3450
36469TIP3    H210290   6.567   3.343   7.695 -1.2233  3.1812 -1.4459
36470TIP3   OH210291   6.338   4.000   2.634  0.1154  0.1993 -0.2067
36470TIP3    H110292   6.381   3.920   2.662  2.0729  1.3380  0.2616
36470TIP3    H210293   6.409   4.053   2.597 -1.2345  1.4663 -1.1032
36471TIP3   OH210294   7.221   9.799   5.799 -0.2902  0.5097 -0.1663
36471TIP3    H110295   7.200   9.858   5.871 -0.2091 -1.1589  1.2807
36471TIP3    H210296   7.314   9.778   5.810 -0.1436  0.6446 -1.0689
36472TIP3   OH210297   0.183   3.756   9.969  0.1203 -0.0227 -0.0473
36472TIP3    H110298   0.206   3.744  10.061  2.6392  2.0791 -0.2940
36472TIP3    H210299   0.088   3.763   9.969  0.1631  2.3016  2.7639
36473TIP3   OH210300   8.362   8.798   1.441 -0.6823  0.3977  0.2757
36473TIP3    H110301   8.298   8.861   1.408 -1.1200 -0.2297 -0.0805
36473TIP3    H210302   8.312   8.742   1.500 -0.3786  0.1336  0.2850
36474TIP3   OH210303  10.655   2.081   9.892 -0.5659  0.7733 -0.1351
36474TIP3    H110304  10.737   2.083   9.942 -1.1126  0.3009  0.8085
36474TIP3    H210305  10.641   1.988   9.872 -0.9502  0.8315 -0.1522
36475TIP3   OH210306  10.000   0.054   9.884 -0.6082 -0.0408 -0.5690
36475TIP3    H110307   9.984   0.136   9.838  1.8230  1.9197  1.7413
36475TIP3    H210308   9.981   0.075   9.976  0.6076 -1.8957  0.1480
36476TIP3   OH210309   6.722   0.437   3.124 -0.3250  0.3285 -0.4833
36476TIP3    H110310   6.767   0.356   3.150  0.5998  1.8468  3.4360
36476TIP3    H210311   6.632   0.410   3.107  0.4772 -1.8231 -1.6610
36477TIP3   OH210312   8.705   7.440   1.384 -0.1871  0.2266 -0.0331
36477TIP3    H110313   8.716   7.495   1.461 -1.0048 -0.7606  0.8221
36477TIP3    H210314   8.621   7.397   1.398  0.2823 -0.9883 -0.8379
36478TIP3   OH210315   3.113   3.990   0.834 -0.1800 -0.3952 -0.5491
36478TIP3    H110316   3.163   3.917   0.798  1.3412 -0.3703  1.3519
36478TIP3    H210317   3.128   4.063   0.774  1.5613 -0.5723 -0.3540
36479TIP3   OH210318   6.926   4.756  10.679 -0.4196 -0.3057 -0.0149
36479TIP3    H110319   6.957   4.665  10.672 -1.2731 -0.4663 -2.9543
36479TIP3    H210320   7.006   4.808  10.678  0.0253 -0.9515 -1.3384
36480TIP3   OH210321   4.942  10.547   1.714  0.2513 -0.5307  0.1703
36480TIP3    H110322   4.985  10.461   1.713  1.5821  0.0893 -1.7929
36480TIP3    H210323   4.925  10.566   1.622  1.9104  2.2071  0.3251
36481TIP3   OH210324   5.660   2.827   2.298 -0.2185 -0.1176  0.1831
36481TIP3    H110325   5.693   2.859   2.382 -1.0043 -1.6680  1.1322
36481TIP3    H210326   5.577   2.785   2.319 -0.6084 -0.2344 -1.4426
36482TIP3   OH210327  10.431   5.220   3.075 -0.3659  0.0353 -0.3321
36482TIP3    H110328  10.459   5.308   3.049  0.0640  0.0396  0.1303
36482TIP3    H210329  10.419   5.173   2.993  1.6127 -0.1582 -0.5505
36483TIP3   OH210330   0.571   5.769   7.596 -0.3758  0.1548  0.1148
36483TIP3    H110331   0.552   5.817   7.677 -0.4870 -2.9043  2.0667
36483TIP3    H210332   0.665   5.754   7.598 -0.5458 -0.9439  0.3218
36484TIP3   OH210333   1.878   3.457   5.683  0.0166 -0.1168  0.1316
36484TIP3    H110334   1.833   3.409   5.614 -0.9050  2.4319 -1.2130
36484TIP3    H210335   1.840   3.545   5.679  1.0399  0.5730  2.8983
36485TIP3   OH210336   6.257   5.586   1.373 -0.4762 -0.2281 -0.5324
36485TIP3    H110337   6.262   5.676   1.404 -1.4345 -0.5264  0.5570
36485TIP3    H210338   6.273   5.592   1.279 -1.3987  1.1825 -0.6270
36486TIP3   OH210339   1.892   7.036   7.606  0.1020 -0.0340 -0.4151
36486TIP3    H110340   1.857   7.052   7.518 -0.2695 -3.0090 -0.9133
36486TIP3    H210341   1.816   7.049   7.664 -0.0910  0.2236 -0.7188
36487TIP3   OH210342   2.359   9.350   1.747 -0.0323  0.1041  0.6745
36487TIP3    H110343   2.415   9.319   1.676 -1.4464 -0.8881 -0.0768
36487TIP3    H210344   2.384   9.297   1.822 -0.2688 -0.6748  0.2176
36488TIP3   OH210345   5.160   4.950   3.015 -0.2063  0.2585 -0.4286
36488TIP3    H110346   5.194   4.943   2.926 -0.4957 -1.3761 -0.4232
36488TIP3    H210347   5.070   4.918   3.010  0.4367 -1.9634  0.8124
36489TIP3   OH210348   4.278   7.727   6.647  0.0029 -0.4717 -0.8597
36489TIP3    H110349   4.325   7.650   6.678  0.1355 -0.8987 -2.0618
36489TIP3    H210350   4.291   7.792   6.715  1.0290 -1.0758 -0.4551
36490TIP3   OH210351   5.715   6.607   8.751 -0.0573  0.2289 -0.4405
36490TIP3    H110352   5.635   6.616   8.699 -0.6469  0.3832  0.4717
36490TIP3    H210353   5.688   6.559   8.829  0.7632  0.1963 -0.1641
36491TIP3   OH210354  10.344   4.288   0.882 -0.0732 -0.0134 -0.1131
36491TIP3    H110355  10.399   4.282   0.960 -1.1200 -1.8471  0.5365
36491TIP3    H210356  10.309   4.377   0.885  1.5909  0.6773  0.2849
36492TIP3   OH210357   5.357  10.899   5.160  0.6523 -0.5014 -0.1806
36492TIP3    H110358   5.269  10.879   5.189  0.2905  2.6711  1.3816
36492TIP3    H210359   5.410  10.895   5.240  1.0500  1.5276 -0.2863
36493TIP3   OH210360   5.143   9.867   5.410 -0.1596  0.3188  0.0917
36493TIP3    H110361   5.130   9.951   5.453 -0.4301  0.2641  0.1254
36493TIP3    H210362   5.173   9.809   5.480 -2.5964 -0.3024  0.7286
36494TIP3   OH210363   8.850   4.893  10.313 -0.1981 -0.5906  0.6300
36494TIP3    H110364   8.924   4.864  10.366  1.1810 -0.7615 -1.3024
36494TIP3    H210365   8.841   4.986  10.333  2.0801  0.0067 -0.8035
36495TIP3   OH210366  10.095   0.902   7.760 -0.0194 -0.2060  0.3631
36495TIP3    H110367  10.173   0.922   7.812  0.3566 -0.4235 -0.1038
36495TIP3    H210368  10.125   0.839   7.694 -0.4332  0.2009 -0.2351
36496TIP3   OH210369   3.253   4.128   7.420  0.6243 -0.4778 -0.3712
36496TIP3    H110370   3.162   4.135   7.390  0.8101 -0.4609 -0.9357
36496TIP3    H210371   3.302   4.183   7.360  1.1874 -1.4744 -0.8396
36497TIP3   OH210372   9.207   6.238   8.332  0.0375 -0.4196 -0.4830
36497TIP3    H110373   9.119   6.210   8.356  0.3192  0.3622  1.7575
36497TIP3    H210374   9.264   6.166   8.362  0.1965 -1.0339 -2.1355
36498TIP3   OH210375   9.897   9.036   9.072 -0.1494  0.1129 -0.0543
36498TIP3    H110376   9.955   9.042   9.147 -0.6258 -1.6579  0.5092
36498TIP3    H210377   9.815   9.075   9.102 -0.2626 -0.3752  0.2933
36499TIP3   OH210378   0.311   4.560   8.645  0.0734  0.4907 -0.6213
36499TIP3    H110379   0.242   4.572   8.711 -1.1179  2.1576 -2.0820
36499TIP3    H210380   0.296   4.472   8.611 -2.3909  1.3448 -1.9807
36500TIP3   OH210381   8.476   2.176   3.517 -0.3978 -0.0192 -0.3331
36500TIP3    H110382   8.493   2.195   3.610 -0.8555  0.5163 -0.3567
36500TIP3    H210383   8.400   2.117   3.519  1.0731 -2.0341 -0.2518
36501TIP3   OH210384   6.051   6.192   1.401  0.3327  0.2792 -0.4026
36501TIP3    H110385   6.018   6.103   1.412  2.0511 -0.5806 -1.7505
36501TIP3    H210386   6.022   6.218   1.313 -1.1729  1.5631  0.4183
36502TIP3   OH210387   9.863   4.547   1.210 -0.0832 -0.0294 -0.9993
36502TIP3    H110388   9.923   4.520   1.280 -0.2298 -0.4558 -1.0334
36502TIP3    H210389   9.799   4.603   1.254 -1.0120 -1.4393 -0.4908
36503TIP3   OH210390   7.712  10.628  10.006 -0.4638 -0.4182  0.3121
36503TIP3    H110391   7.767  10.550  10.008 -0.2556 -0.2591  2.1251
36503TIP3    H210392   7.773  10.701  10.017 -0.6002  0.0955 -1.7994
36504TIP3   OH210393   7.674   1.401   1.878  0.1095 -0.2323  0.0101
36504TIP3    H110394   7.666   1.461   1.804 -0.2119 -0.0487  0.1910
36504TIP3    H210395   7.624   1.443   1.949 -0.7586 -1.0591 -0.0832
36505TIP3   OH210396   6.987   5.109   0.036  0.1179 -0.1335 -0.3791
36505TIP3    H110397   6.921   5.040   0.043 -1.1991  1.0170 -1.0436
36505TIP3    H210398   6.956   5.178   0.094  1.7289 -0.2810  0.7390
36506TIP3   OH210399   8.901   7.212   6.825  0.2564 -0.2017  0.0901
36506TIP3    H110400   8.910   7.170   6.911  2.6436 -0.5668 -0.2627
36506TIP3    H210401   8.936   7.148   6.763 -1.1079  0.1987 -1.1451
36507TIP3   OH210402   8.745   6.943   0.157  0.7169  0.6323  0.2682
36507TIP3    H110403   8.651   6.941   0.138  0.3798 -1.1025  1.7659
36507TIP3    H210404   8.772   7.033   0.138 -1.0236  0.9185 -1.1071
36508TIP3   OH210405   5.668   1.874   1.842 -0.4788 -0.1054 -0.1506
36508TIP3    H110406   5.653   1.864   1.748  2.2388 -1.0164 -0.5591
36508TIP3    H210407   5.623   1.800   1.882  1.3144 -1.8026 -1.1352
36509TIP3   OH210408  10.674   5.314   9.778  0.0519 -0.3056 -0.9807
36509TIP3    H110409  10.759   5.291   9.740 -0.2081 -0.7607 -1.2921
36509TIP3    H210410  10.656   5.244   9.841 -0.0930 -0.2094 -0.9142
36510TIP3   OH210411   7.209   9.098  10.882  0.1268  0.1877 -0.0141
36510TIP3    H110412   7.265   9.173  10.901  0.7270  0.1145 -1.3068
36510TIP3    H210413   7.251   9.057  10.805 -0.8149 -0.8062 -0.0165
36511TIP3   OH210414   1.604   3.757   0.756  0.3420 -0.1882 -0.3624
36511TIP3    H110415   1.538   3.819   0.726  1.4994  0.4499 -1.6978
36511TIP3    H210416   1.556   3.695   0.812 -1.2144  0.6882 -0.6883
36512TIP3   OH210417   0.809   6.416   8.532  0.1394 -0.3941 -0.2371
36512TIP3    H110418   0.778   6.325   8.525  1.5322 -0.9509  0.4144
36512TIP3    H210419   0.904   6.409   8.523  0.4246  0.8096  1.4378
36513TIP3   OH210420  10.500   2.130   0.932  0.1005  0.2071  0.3414
36513TIP3    H110421  10.483   2.057   0.872 -1.0956  0.4996  0.2948
36513TIP3    H210422  10.595   2.133   0.940  0.1942 -2.6873  1.9507
36514TIP3   OH210423   7.484   1.642   3.142 -0.2357 -0.1966 -0.2099
36514TIP3    H110424   7.437   1.669   3.064 -1.5294 -0.8965  0.3064
36514TIP3    H210425   7.426   1.580   3.186  1.2387 -1.2562  0.3495
36515TIP3   OH210426   1.389   1.755   4.495  0.6749  0.5339 -0.5642
36515TIP3    H110427   1.383   1.688   4.426 -0.1815 -0.2760  0.2632
36515TIP3    H210428   1.400   1.837   4.448  1.7065 -0.1639 -1.6220
36516TIP3   OH210429   5.498   9.645   9.781  0.0196 -0.5197 -0.3822
36516TIP3    H110430   5.529   9.617   9.694  1.7661  2.8286 -1.0105
36516TIP3    H210431   5.545   9.590   9.842  2.9415  0.5094 -1.5269
36517TIP3   OH210432   4.843   9.400   2.130  0.0051 -0.1407  0.6397
36517TIP3    H110433   4.751   9.387   2.153 -0.5065  0.5703 -0.8744
36517TIP3    H210434   4.872   9.470   2.189 -1.2170  1.5157 -0.6225
36518TIP3   OH210435   7.002   6.397   7.922  0.3602  0.2061  0.4265
36518TIP3    H110436   6.971   6.356   8.002 -3.7436 -1.5160 -1.7234
36518TIP3    H210437   7.031   6.325   7.867 -1.6998  0.6479 -1.3831
36519TIP3   OH210438   7.562   7.110   5.485  0.0951 -0.0153 -0.2450
36519TIP3    H110439   7.628   7.169   5.448 -0.5992  1.3577  0.5865
36519TIP3    H210440   7.580   7.025   5.446  2.1621  0.3837 -0.2746
36520TIP3   OH210441   3.772   5.584   1.162 -0.4100 -0.3187 -0.1136
36520TIP3    H110442   3.784   5.490   1.171  0.8036 -0.0885  0.9649
36520TIP3    H210443   3.851   5.614   1.117 -1.1250  0.1089 -1.1226
36521TIP3   OH210444   1.655   9.602   0.909 -0.0338 -0.4627  0.3245
36521TIP3    H110445   1.704   9.637   0.983  1.1286 -0.9105 -0.2055
36521TIP3    H210446   1.666   9.667   0.840 -0.0584 -0.6426  0.1523
36522TIP3   OH210447   0.312   1.829   5.060  0.0439 -0.3746 -0.4714
36522TIP3    H110448   0.323   1.916   5.020 -1.4827  0.2769  0.4384
36522TIP3    H210449   0.252   1.784   5.000 -0.0137 -0.4157 -0.3815
36523TIP3   OH210450   2.792   4.380   9.782  0.1606  0.6081  0.2113
36523TIP3    H110451   2.802   4.464   9.739  0.9516  0.3146 -0.1964
36523TIP3    H210452   2.859   4.380   9.851 -0.0597  0.4450  0.4302
36524TIP3   OH210453   3.755   9.283   8.046 -0.3456 -0.6083  0.1560
36524TIP3    H110454   3.785   9.373   8.034 -2.6418  0.0576 -1.1706
36524TIP3    H210455   3.741   9.276   8.141 -1.4600  0.9525  0.1599
36525TIP3   OH210456   8.815   4.177   6.909 -0.5720  0.1426  0.0465
36525TIP3    H110457   8.788   4.234   6.982 -2.0275 -0.6295  0.1390
36525TIP3    H210458   8.877   4.231   6.859  0.7118  0.6002  1.9788
36526TIP3   OH210459  10.155   6.364  10.291 -0.3005 -0.3486 -0.6092
36526TIP3    H110460  10.115   6.423  10.355 -0.8374 -0.1244 -1.1516
36526TIP3    H210461  10.083   6.307  10.262  0.5603 -2.6276  1.3614
36527TIP3   OH210462   1.033   1.754   5.534 -0.9441  0.0410 -0.4544
36527TIP3    H110463   1.111   1.810   5.533 -1.9937  1.6746  1.5364
36527TIP3    H210464   0.979   1.788   5.462 -0.7589  0.3430 -0.4518
36528TIP3   OH210465  10.362   4.373  10.364  0.3645 -1.3832  0.4551
36528TIP3    H110466  10.391   4.425  10.440  1.5775 -2.6189  0.8745
36528TIP3    H210467  10.308   4.304  10.402 -0.7529 -0.8279 -0.0504
36529TIP3   OH210468   2.874  10.338   9.397 -0.3255  0.1008  0.2457
36529TIP3    H110469   2.918  10.418   9.367 -1.4585  0.6178 -0.1116
36529TIP3    H210470   2.873  10.345   9.493 -1.4295  1.1200  0.1937
36530TIP3   OH210471  10.226   2.366   6.278 -0.3271  0.3211  0.2557
36530TIP3    H110472  10.167   2.408   6.215 -0.5965  0.4036  0.5602
36530TIP3    H210473  10.215   2.272   6.263 -3.0010  0.1545  2.4552
36531TIP3   OH210474   1.487   3.261   3.531  0.4623  0.3293 -0.1342
36531TIP3    H110475   1.458   3.170   3.538  2.1216 -0.3576 -1.5478
36531TIP3    H210476   1.410   3.312   3.557 -0.7528 -1.4432 -0.0435
36532TIP3   OH210477  10.706   0.203   1.415 -0.2117  0.1887 -0.0238
36532TIP3    H110478  10.643   0.222   1.484 -1.4785  1.7747 -1.5203
36532TIP3    H210479  10.785   0.250   1.441 -0.3077 -0.1069  0.8436
36533TIP3   OH210480   0.367   3.141   6.276  0.4088 -0.0816  0.3713
36533TIP3    H110481   0.284   3.141   6.228  0.5930  1.7274 -0.0257
36533TIP3    H210482   0.432   3.109   6.214  0.0171 -1.6956  0.7429
36534TIP3   OH210483   6.637   6.602   4.258  0.0469  0.0664 -0.8287
36534TIP3    H110484   6.665   6.531   4.315  1.3488  1.5699  0.4953
36534TIP3    H210485   6.541   6.599   4.262 -0.0009 -2.5483 -2.0954
36535TIP3   OH210486   7.508  10.836   1.335 -0.4448  0.3368 -0.5115
36535TIP3    H110487   7.529  10.803   1.248  1.7691 -0.8360  0.3871
36535TIP3    H210488   7.413  10.829   1.342 -0.6726  0.5192 -2.8257
36536TIP3   OH210489   1.271   6.623   6.061  0.2481 -0.0469  0.7127
36536TIP3    H110490   1.320   6.683   6.005 -0.9878  1.9206  1.6183
36536TIP3    H210491   1.328   6.547   6.071  2.3849  1.4310  0.3933
36537TIP3   OH210492   2.593   8.094   1.591  0.1389  0.1687  0.1641
36537TIP3    H110493   2.551   8.030   1.534  1.3498  0.8876 -1.6526
36537TIP3    H210494   2.685   8.091   1.566  0.5309  1.2622  1.3852
36538TIP3   OH210495   1.905   9.738   2.809 -0.0624  0.3486  0.1584
36538TIP3    H110496   1.870   9.733   2.898  1.0448  1.8181  0.7216
36538TIP3    H210497   1.998   9.759   2.821  0.3322 -0.3920 -1.3384
36539TIP3   OH210498   8.382   5.129   1.328  0.1069 -0.1806 -0.3300
36539TIP3    H110499   8.349   5.082   1.251 -2.0182 -0.0455  0.4366
36539TIP3    H210500   8.315   5.195   1.346  0.0842 -0.7691  2.1331
36540TIP3   OH210501   2.474   4.570   7.584  0.5726 -0.3323  0.3408
36540TIP3    H110502   2.531   4.633   7.541 -0.5461  0.9515  0.6542
36540TIP3    H210503   2.386   4.591   7.553  0.3551 -3.3380 -1.4388
36541TIP3   OH210504   9.370   3.234   1.950  0.7040  0.2922 -0.2257
36541TIP3    H110505   9.466   3.233   1.942  0.6910  0.0432 -0.3573
36541TIP3    H210506   9.339   3.191   1.871  0.3741  3.0399 -1.7147
36542TIP3   OH210507  10.705   7.318   8.364  0.0776 -0.2175 -0.0731
36542TIP3    H110508  10.633   7.379   8.377 -0.4973 -0.5610 -1.4634
36542TIP3    H210509  10.712   7.309   8.269  0.8969 -1.4353  0.0818
36543TIP3   OH210510   9.632   0.228   4.833  0.0163  0.3391  0.0822
36543TIP3    H110511   9.581   0.294   4.787  1.1188  1.5220  0.5161
36543TIP3    H210512   9.575   0.199   4.904 -1.0601 -0.3191 -1.0045
36544TIP3   OH210513   0.633   2.848   0.907  0.1288 -0.3389  0.1800
36544TIP3    H110514   0.652   2.940   0.888 -0.9095 -0.1899 -0.2190
36544TIP3    H210515   0.713   2.815   0.947  0.8566  0.4843 -0.5427
36545TIP3   OH210516   8.875   2.915   4.236  0.5061  0.2988 -0.1240
36545TIP3    H110517   8.970   2.917   4.243  0.8358 -3.0359 -1.8109
36545TIP3    H210518   8.853   2.995   4.188  2.4853  0.9202 -0.0909
36546TIP3   OH210519  10.526   5.986   2.280 -0.0967 -0.3984 -0.8610
36546TIP3    H110520  10.516   5.901   2.324 -0.2035  0.0806  0.0670
36546TIP3    H210521  10.576   5.966   2.201 -1.9041 -1.6780 -1.7752
36547TIP3   OH210522   1.244   1.741   8.413 -0.2141  0.6037 -0.1094
36547TIP3    H110523   1.266   1.825   8.453  0.4024  0.1265  0.5936
36547TIP3    H210524   1.327   1.705   8.384 -0.5161  0.3884 -0.7250
36548TIP3   OH210525   1.392   3.668   3.146  0.1250  0.0376 -0.5396
36548TIP3    H110526   1.325   3.637   3.085 -0.8683  0.1354  0.4601
36548TIP3    H210527   1.374   3.761   3.157  0.1488 -0.0240  0.0581
36549TIP3   OH210528   1.112   1.202   6.326 -0.0546  0.0736 -0.2820
36549TIP3    H110529   1.078   1.276   6.276 -0.5637 -1.4636 -2.3470
36549TIP3    H210530   1.035   1.167   6.372  0.3597  1.3109  1.4770
36550TIP3   OH210531   7.638   4.306   7.396 -0.4883 -0.1722  0.3956
36550TIP3    H110532   7.601   4.303   7.485 -1.6549 -0.2300 -0.0714
36550TIP3    H210533   7.672   4.218   7.382 -0.4575 -0.2159  0.7261
36551TIP3   OH210534   3.747   1.299   2.866  0.1850 -0.0045  0.4584
36551TIP3    H110535   3.657   1.277   2.890  0.0444  1.4257  1.3271
36551TIP3    H210536   3.794   1.215   2.872 -0.7721 -0.5022  1.4400
36552TIP3   OH210537  10.793   3.629   4.443  0.1120 -0.5547  0.1163
36552TIP3    H110538  10.796   3.560   4.509  0.0377 -1.4802 -0.8198
36552TIP3    H210539  10.702   3.659   4.444  0.4567  0.5165  1.4904
36553TIP3   OH210540   9.378   2.867  10.219 -0.4103 -0.2931  0.1573
36553TIP3    H110541   9.470   2.864  10.194 -0.3633  0.5510  0.1834
36553TIP3    H210542   9.332   2.817  10.152 -0.1833  1.1476 -1.1164
36554TIP3   OH210543   7.771  10.015   8.212 -0.2573  0.0232 -0.6841
36554TIP3    H110544   7.734   9.933   8.180 -0.1026 -0.0228 -0.7414
36554TIP3    H210545   7.860   9.994   8.238 -0.9981 -0.4604  1.7882
36555TIP3   OH210546   5.848   7.707   6.649  0.3574 -0.6227  0.2786
36555TIP3    H110547   5.830   7.639   6.584 -0.2184  0.7016 -1.0133
36555TIP3    H210548   5.764   7.720   6.693 -0.8221  2.0966 -2.3735
36556TIP3   OH210549   5.357   3.733   7.892 -0.3023  0.3706  0.0013
36556TIP3    H110550   5.294   3.767   7.828 -1.0773 -0.1838  0.4390
36556TIP3    H210551   5.386   3.811   7.940  0.2615  0.7834 -0.9860
36557TIP3   OH210552   7.832   9.458   3.424 -0.8321 -0.8786  0.4502
36557TIP3    H110553   7.899   9.438   3.360  0.7090  1.0251  1.3596
36557TIP3    H210554   7.760   9.497   3.374  0.8457  1.7399 -0.0890
36558TIP3   OH210555   2.111   2.443   7.976 -0.0727  0.5907 -0.0909
36558TIP3    H110556   2.133   2.510   7.912  0.8771 -0.3474 -0.7791
36558TIP3    H210557   2.115   2.488   8.061  0.1121  1.4972 -0.5682
36559TIP3   OH210558   7.835   3.479   8.591 -0.0067  0.6833 -0.3884
36559TIP3    H110559   7.823   3.570   8.562  0.2870  0.7564 -0.2864
36559TIP3    H210560   7.911   3.483   8.649 -0.8281  0.6228  0.7368
36560TIP3   OH210561   9.938   3.632   3.250 -0.0224  0.2080 -0.3822
36560TIP3    H110562   9.950   3.548   3.294 -1.0160  0.0299 -0.4308
36560TIP3    H210563  10.024   3.653   3.215  0.0550 -1.2185 -1.1329
36561TIP3   OH210564   0.810   0.175   4.188  0.2361 -0.1113 -0.1603
36561TIP3    H110565   0.765   0.236   4.129 -2.2408 -2.2599 -0.6401
36561TIP3    H210566   0.893   0.219   4.208  0.2363  1.7191 -3.4553
36562TIP3   OH210567   4.565   0.913  10.395 -0.0031 -0.3348 -0.1534
36562TIP3    H110568   4.533   0.932  10.306 -1.8055 -3.3042 -0.2754
36562TIP3    H210569   4.585   0.819  10.393  0.3350 -0.3766  2.4953
36563TIP3   OH210570   6.028   4.305   7.811 -0.7151  0.3701 -0.0559
36563TIP3    H110571   6.005   4.293   7.903 -0.9063 -0.7213 -0.2232
36563TIP3    H210572   5.954   4.267   7.763  0.2332 -0.8583 -0.6206
36564TIP3   OH210573   8.096   2.388   0.552 -0.6875 -0.0502  0.1139
36564TIP3    H110574   8.165   2.382   0.619  0.2046  0.2516 -0.7511
36564TIP3    H210575   8.121   2.323   0.486 -0.0473  1.5121 -1.2368
36565TIP3   OH210576   5.988   5.673   7.683 -0.5376  0.1730 -0.1789
36565TIP3    H110577   6.000   5.615   7.759 -0.9267  1.4149  0.8640
36565TIP3    H210578   6.022   5.622   7.609 -1.3809 -1.5977  0.5936
36566TIP3   OH210579   7.550   0.366   5.689 -0.4787 -0.2240  0.3309
36566TIP3    H110580   7.454   0.359   5.687 -0.6045  0.8955  1.2172
36566TIP3    H210581   7.576   0.369   5.597 -1.3649  0.1689  0.0805
36567TIP3   OH210582   4.253   7.604  10.080  0.0093  0.0363 -0.0252
36567TIP3    H110583   4.277   7.549  10.154 -1.6045 -0.6345  0.0538
36567TIP3    H210584   4.218   7.684  10.119 -1.2475 -0.4928 -0.0061
36568TIP3   OH210585   9.921   4.944   1.745  0.1222 -0.3438 -0.0168
36568TIP3    H110586   9.898   4.904   1.661  1.3467 -1.1653  0.0187
36568TIP3    H210587   9.976   4.879   1.789  2.2604  1.3548  0.0029
36569TIP3   OH210588   3.470   7.322   5.931  0.4111  0.3359  0.2597
36569TIP3    H110589   3.452   7.361   5.846  2.1019 -0.7277 -0.6471
36569TIP3    H210590   3.388   7.332   5.981 -0.0613  2.5205 -0.8505
36570TIP3   OH210591   5.855   6.505   0.954 -0.4153 -0.3229 -0.4714
36570TIP3    H110592   5.842   6.524   1.047  1.8178  0.0421 -0.1923
36570TIP3    H210593   5.766   6.499   0.918 -1.3538 -1.2470  1.8132
36571TIP3   OH210594   9.142   2.992   1.342  0.5552 -0.3986  0.0091
36571TIP3    H110595   9.230   2.992   1.378  0.7518  0.2396 -0.4543
36571TIP3    H210596   9.090   2.940   1.404  0.8039  0.9192  1.3706
36572TIP3   OH210597   8.658   1.359   7.597 -0.0864  0.0898 -0.4300
36572TIP3    H110598   8.698   1.275   7.577 -2.5768 -0.8746 -1.7713
36572TIP3    H210599   8.677   1.413   7.520 -0.8928 -0.2164 -0.8576
36573TIP3   OH210600   7.234   9.690  10.624  0.1661  0.4332 -0.1359
36573TIP3    H110601   7.214   9.778  10.592 -2.3021 -0.4686 -1.2788
36573TIP3    H210602   7.329   9.683  10.616  0.4832  3.1063  0.3851
36574TIP3   OH210603   6.532   5.639   1.520  0.1515  0.1153  0.6276
36574TIP3    H110604   6.501   5.588   1.594  3.3022  0.7751  2.6093
36574TIP3    H210605   6.573   5.574   1.462  1.6851  0.0189  1.7678
36575TIP3   OH210606   9.827   7.443   4.706 -0.0982 -0.3082  0.4849
36575TIP3    H110607   9.795   7.497   4.778 -0.9443 -0.9933  0.6397
36575TIP3    H210608   9.749   7.425   4.654  0.3696 -0.4864 -0.1618
36576TIP3   OH210609   2.714   4.886  10.585  0.4022 -0.5317  0.2611
36576TIP3    H110610   2.730   4.813  10.644  1.0822 -0.1965  0.4994
36576TIP3    H210611   2.621   4.879  10.562  0.6020 -1.8669 -0.2547
36577TIP3   OH210612   3.322   2.001   0.862  0.2706  0.2896 -0.3165
36577TIP3    H110613   3.366   2.017   0.778  1.2007  1.8139  0.4210
36577TIP3    H210614   3.286   2.087   0.886 -0.9359 -0.3757  0.3320
36578TIP3   OH210615   8.383   5.296   6.606  0.5182  0.1617  0.0552
36578TIP3    H110616   8.350   5.207   6.591  0.5437 -0.2457  2.1095
36578TIP3    H210617   8.308   5.344   6.640  1.3321 -0.1191  2.4584
36579TIP3   OH210618   7.303   5.487   7.483 -0.5397 -0.4018 -0.3537
36579TIP3    H110619   7.237   5.427   7.517 -0.2692 -1.0017 -0.8551
36579TIP3    H210620   7.300   5.473   7.388  1.4533 -1.6848 -0.2796
36580TIP3   OH210621   6.324   4.067   8.015 -0.0202 -0.1565 -0.0088
36580TIP3    H110622   6.322   4.093   7.923 -2.0831  0.5806  0.1863
36580TIP3    H210623   6.303   4.147   8.063  2.5262 -0.1526  1.2602
36581TIP3   OH210624   8.424   7.511   4.884  0.2899  0.3450  0.9278
36581TIP3    H110625   8.406   7.525   4.792  1.3013 -1.2043  0.4455
36581TIP3    H210626   8.498   7.450   4.885  1.1762  1.3616  2.7618
36582TIP3   OH210627   8.411   9.313   8.797 -0.0343  0.3573 -0.1159
36582TIP3    H110628   8.384   9.316   8.888 -1.1086 -0.7794 -0.3645
36582TIP3    H210629   8.493   9.361   8.794 -0.6609  1.5577  1.1969
36583TIP3   OH210630  10.547   8.177   3.685 -0.1466  0.0963 -0.9437
36583TIP3    H110631  10.516   8.183   3.775 -0.2701  0.4587 -1.0072
36583TIP3    H210632  10.624   8.120   3.689 -0.4797 -0.3413 -0.6956
36584TIP3   OH210633   9.196   6.355   5.962 -0.1365  0.1802 -0.2583
36584TIP3    H110634   9.243   6.300   5.900 -0.5938  0.2092 -0.6386
36584TIP3    H210635   9.225   6.444   5.942 -0.0703  0.1626 -0.2414
36585TIP3   OH210636   0.319   7.494   6.304 -0.0263  0.1354  0.1149
36585TIP3    H110637   0.395   7.453   6.262 -0.0602 -0.9154  1.0369
36585TIP3    H210638   0.243   7.449   6.266 -0.0461 -1.0770  1.5082
36586TIP3   OH210639   5.630  10.147   6.346  0.4691 -0.5580  0.0561
36586TIP3    H110640   5.579  10.090   6.404 -0.6712 -1.2353 -1.5334
36586TIP3    H210641   5.613  10.236   6.378 -0.0921 -0.9255  0.7919
36587TIP3   OH210642  10.267   0.332   6.850 -0.3050 -0.2186 -0.4146
36587TIP3    H110643  10.221   0.256   6.815 -0.8787 -0.1238  0.0993
36587TIP3    H210644  10.223   0.407   6.810  0.0058 -0.1478 -0.6245
36588TIP3   OH210645   0.281   1.895   4.180 -0.0445  0.5150  0.0007
36588TIP3    H110646   0.259   1.805   4.205 -0.0097  0.6053  0.3562
36588TIP3    H210647   0.303   1.889   4.087 -1.5190  0.4178 -0.3536
36589TIP3   OH210648   8.867   3.619  10.181  0.4021 -0.5957  0.2736
36589TIP3    H110649   8.900   3.585  10.098 -0.4583  2.5860 -1.5087
36589TIP3    H210650   8.902   3.707  10.187 -0.0207 -0.5173  3.0736
36590TIP3   OH210651   2.505   7.853   2.650 -0.1714  0.2522 -0.0235
36590TIP3    H110652   2.569   7.783   2.665  0.5371  1.0125  0.6064
36590TIP3    H210653   2.475   7.877   2.737 -2.3712 -0.9882 -0.3535
36591TIP3   OH210654   3.622   3.374   0.388 -0.1978  0.4587 -0.6363
36591TIP3    H110655   3.574   3.453   0.415 -0.3857  0.1794 -0.1325
36591TIP3    H210656   3.636   3.385   0.294 -0.6675  0.8561 -0.6643
36592TIP3   OH210657   7.720   0.620   2.689 -0.3230 -0.2662 -0.5637
36592TIP3    H110658   7.764   0.595   2.770 -1.2431  1.9403  0.7226
36592TIP3    H210659   7.789   0.620   2.623  0.6780 -1.1053  0.4494
36593TIP3   OH210660   5.012   1.598   7.517  0.4976  0.3689 -0.0289
36593TIP3    H110661   4.973   1.526   7.467  0.6520  0.1397  0.1767
36593TIP3    H210662   4.938   1.645   7.555  0.3552  0.8072 -0.8251
36594TIP3   OH210663   7.046   8.843   5.781  0.1353 -0.4406 -0.5428
36594TIP3    H110664   6.985   8.909   5.815 -1.6272 -0.8113 -2.6920
36594TIP3    H210665   7.045   8.774   5.846 -0.5266  0.2648  0.2250
36595TIP3   OH210666  10.184   3.124   8.201  0.4901 -0.3262  0.1230
36595TIP3    H110667  10.226   3.154   8.121 -0.1989 -2.0164 -0.9249
36595TIP3    H210668  10.251   3.136   8.269  1.1614  0.9226 -0.7205
36596TIP3   OH210669   3.604   0.262   3.304  0.5258  0.5491 -0.3344
36596TIP3    H110670   3.589   0.169   3.286 -0.6343  0.6297  0.1334
36596TIP3    H210671   3.653   0.263   3.386 -0.9177  0.3616  0.5694
36597TIP3   OH210672   6.793   5.805   5.578 -0.1917 -0.2631  0.2762
36597TIP3    H110673   6.838   5.849   5.650  1.7381 -1.1544 -0.3196
36597TIP3    H210674   6.835   5.720   5.571 -0.3372 -0.2140 -1.8848
36598TIP3   OH210675   2.846   4.472   6.800 -0.4791  0.2370 -0.5716
36598TIP3    H110676   2.928   4.495   6.844 -0.3379  1.5424 -1.4859
36598TIP3    H210677   2.805   4.408   6.859  1.2637 -0.5861 -0.1858
36599TIP3   OH210678   9.287   2.709   9.729 -0.1698 -0.9130 -0.1227
36599TIP3    H110679   9.335   2.763   9.666  0.3156 -2.8290 -1.4739
36599TIP3    H210680   9.354   2.660   9.775 -0.6951 -1.9303 -0.4207
36600TIP3   OH210681   2.221   2.189   8.452  0.3698 -0.0612 -0.5550
36600TIP3    H110682   2.145   2.231   8.412  0.7300  1.0114 -0.1584
36600TIP3    H210683   2.184   2.130   8.518 -0.1805 -1.0511 -1.7124
36601TIP3   OH210684   4.327   0.101   7.115  0.1818 -0.6339  0.2281
36601TIP3    H110685   4.245   0.070   7.075  0.8393 -0.5632 -1.2149
36601TIP3    H210686   4.361   0.166   7.054  2.4805 -2.2844 -0.3761
36602TIP3   OH210687   6.160   9.470   9.120  0.5569 -0.0168 -0.3608
36602TIP3    H110688   6.150   9.512   9.205  0.3805 -0.0430 -0.3667
36602TIP3    H210689   6.213   9.531   9.069  0.8420 -0.1011 -0.1643
36603TIP3   OH210690   1.758   2.327   6.317  0.0065  0.2832 -0.6922
36603TIP3    H110691   1.852   2.310   6.320 -0.2058 -0.9886 -0.3907
36603TIP3    H210692   1.726   2.299   6.403 -0.6187  0.9422 -0.6976
36604TIP3   OH210693   4.163   7.207   3.554 -0.3830 -0.1915  0.3538
36604TIP3    H110694   4.174   7.188   3.647  0.6402  0.6518  0.4196
36604TIP3    H210695   4.068   7.217   3.543 -0.8203 -2.9656  0.7306
36605TIP3   OH210696   8.939   7.372  10.238 -0.0232  0.1867 -0.6927
36605TIP3    H110697   8.955   7.285  10.201 -0.7712 -0.0840 -0.3991
36605TIP3    H210698   8.912   7.426  10.163  0.8581  0.2884 -0.9503
36606TIP3   OH210699  10.734   1.602   2.597  0.0617 -0.1163  0.2328
36606TIP3    H110700  10.710   1.514   2.569  0.1794  0.1188 -0.6329
36606TIP3    H210701  10.823   1.615   2.564  1.5254 -1.0072  3.4509
36607TIP3   OH210702  10.677   4.051   8.113 -0.0211  0.1141 -0.0601
36607TIP3    H110703  10.609   4.117   8.098 -1.7418 -1.6806 -0.5077
36607TIP3    H210704  10.750   4.101   8.151 -1.3454  2.2079 -0.0701
36608TIP3   OH210705   0.761   0.116   2.760  0.0826  0.6515 -0.0277
36608TIP3    H110706   0.766   0.190   2.819 -0.0830 -0.6293  1.6711
36608TIP3    H210707   0.702   0.145   2.690  1.1096  2.5647 -0.1520
36609TIP3   OH210708   6.494   6.995   0.587  0.2948  0.1475 -0.0742
36609TIP3    H110709   6.482   6.915   0.536 -2.2689  0.6275 -0.3855
36609TIP3    H210710   6.407   7.012   0.624  1.4717  1.2213  2.3786
36610TIP3   OH210711   1.680   0.325   5.753  0.1942 -0.0147 -0.0326
36610TIP3    H110712   1.746   0.383   5.789  0.3919  0.9136 -1.7560
36610TIP3    H210713   1.688   0.335   5.658 -1.0775 -1.4016 -0.3373
36611TIP3   OH210714   0.178   4.800   8.544 -0.0170  0.1180 -0.2456
36611TIP3    H110715   0.211   4.715   8.573  0.5239  0.4420  0.1117
36611TIP3    H210716   0.090   4.806   8.581  0.4203  0.2490  0.8335
36612TIP3   OH210717   4.369   3.121   0.490  0.0872  0.0833 -0.1340
36612TIP3    H110718   4.338   3.040   0.529  1.2519 -1.5410 -2.3109
36612TIP3    H210719   4.461   3.127   0.518  0.6346 -0.5690 -1.6456
36613TIP3   OH210720   6.402   8.948   0.167 -0.3912  0.2848 -0.2508
36613TIP3    H110721   6.311   8.960   0.194 -1.1953 -1.6769 -1.7956
36613TIP3    H210722   6.428   8.864   0.205 -0.4881 -0.9395 -2.6989
36614TIP3   OH210723   5.313   2.072   6.495  0.3967 -0.2754 -0.0663
36614TIP3    H110724   5.345   2.155   6.460  0.3355 -0.2504 -0.0618
36614TIP3    H210725   5.390   2.032   6.536  0.3148 -0.0021  0.3536
36615TIP3   OH210726   6.524   2.355   9.443 -0.1085  0.0499  0.1466
36615TIP3    H110727   6.452   2.414   9.422  0.4762  0.1264 -1.7957
36615TIP3    H210728   6.603   2.405   9.421  0.4756 -0.7173  0.4391
36616TIP3   OH210729   7.924   4.045   4.751 -0.3361 -0.6766  0.1121
36616TIP3    H110730   7.987   4.037   4.822 -0.0071 -0.9312 -0.2025
36616TIP3    H210731   7.929   4.137   4.724  0.1149 -0.7576 -0.0979
36617TIP3   OH210732   8.544   0.193   2.875 -0.0592 -0.2650  0.1542
36617TIP3    H110733   8.549   0.184   2.970 -1.3589 -0.4521  0.2283
36617TIP3    H210734   8.576   0.282   2.857  2.8610 -1.1489  0.4516
36618TIP3   OH210735   8.507   1.727   7.895 -0.5592 -0.1567 -0.4807
36618TIP3    H110736   8.498   1.737   7.800  0.3817  1.4364 -0.4449
36618TIP3    H210737   8.538   1.638   7.907 -0.1657 -0.2051 -1.7068
36619TIP3   OH210738   2.129   8.047   0.995 -0.5390  0.7331  0.1494
36619TIP3    H110739   2.116   8.045   0.900 -0.4162 -0.1959  0.1456
36619TIP3    H210740   2.193   8.118   1.008  0.2876  0.1477 -0.5808
36620TIP3   OH210741   6.982   5.728   8.827  0.3514 -0.1278  0.0515
36620TIP3    H110742   6.932   5.651   8.854 -0.0092  0.2675  0.5406
36620TIP3    H210743   7.052   5.694   8.772  0.3172 -0.8224  0.4339
36621TIP3   OH210744   7.434   3.377   7.416  0.1215  0.1218 -0.1591
36621TIP3    H110745   7.438   3.350   7.508 -1.9631  0.1602 -0.0275
36621TIP3    H210746   7.480   3.461   7.414  3.3275 -1.4434  0.1256
36622TIP3   OH210747   4.421   0.560   1.342 -0.1550 -0.1687 -0.1073
36622TIP3    H110748   4.378   0.550   1.257 -0.8095  2.1531 -0.1199
36622TIP3    H210749   4.359   0.523   1.404  0.0496 -1.3031 -0.5473
36623TIP3   OH210750   6.401   6.643   2.779 -0.4476  0.0649  0.1348
36623TIP3    H110751   6.320   6.602   2.809 -0.4952  0.4778  0.5802
36623TIP3    H210752   6.455   6.650   2.858  0.3321 -0.9045 -0.2886
36624TIP3   OH210753  10.652   6.606   6.575  0.0688  0.5235  0.2853
36624TIP3    H110754  10.692   6.581   6.658 -0.6224 -1.4544  0.0650
36624TIP3    H210755  10.706   6.679   6.543  1.8247 -0.2802  1.2813
36625TIP3   OH210756   1.506   9.410   0.665 -0.2073 -0.4649 -0.8660
36625TIP3    H110757   1.569   9.389   0.597 -0.9959 -1.5923 -1.2795
36625TIP3    H210758   1.477   9.325   0.698  0.3336  0.0458  1.0610
36626TIP3   OH210759   0.247   0.902   4.646 -0.2166 -0.0287 -0.2287
36626TIP3    H110760   0.238   0.986   4.691 -2.1714 -1.3056  2.0504
36626TIP3    H210761   0.338   0.876   4.661 -0.5271  0.0702  2.3377
36627TIP3   OH210762   3.262   5.316   2.659  0.6468  0.0528 -0.0457
36627TIP3    H110763   3.290   5.345   2.746  0.2894  1.1128 -0.2620
36627TIP3    H210764   3.251   5.397   2.610 -0.5544 -0.4495 -0.6535
36628TIP3   OH210765   3.579   6.293   8.203 -0.1235  0.0716  0.7956
36628TIP3    H110766   3.540   6.347   8.135 -0.3780 -0.0197  0.8690
36628TIP3    H210767   3.512   6.228   8.224  0.1539 -0.2272  0.7606
36629TIP3   OH210768   9.435   9.981   9.988 -0.5377 -0.4191 -0.0189
36629TIP3    H110769   9.500  10.045   9.962  0.1217  0.3068  2.9867
36629TIP3    H210770   9.477   9.896   9.974 -0.8494 -0.2262 -2.5916
36630TIP3   OH210771   9.300   7.833   2.711  0.4092  0.0906 -0.1608
36630TIP3    H110772   9.383   7.879   2.724 -0.4730  1.4392  0.9362
36630TIP3    H210773   9.265   7.870   2.629  0.4696  0.1701 -0.1510
36631TIP3   OH210774   4.656  10.121   9.461 -0.0717 -0.0522  0.2399
36631TIP3    H110775   4.579  10.125   9.517 -1.1702  0.8353 -1.2470
36631TIP3    H210776   4.621  10.127   9.372  1.6750 -0.2406 -0.5005
36632TIP3   OH210777  10.735   7.697   6.674 -0.0511 -0.2883  0.0788
36632TIP3    H110778  10.722   7.602   6.674 -0.3298 -0.3111 -2.2423
36632TIP3    H210779  10.651   7.732   6.704 -0.3263 -0.7613 -0.1309
36633TIP3   OH210780   9.286   2.939   4.430 -0.3995 -0.4875 -0.1848
36633TIP3    H110781   9.352   2.873   4.451 -0.5368 -0.2112  1.1754
36633TIP3    H210782   9.329   3.023   4.448  0.0852 -0.0843 -2.7339
36634TIP3   OH210783   9.699   2.545   3.210  0.0281  0.1456 -0.2091
36634TIP3    H110784   9.632   2.529   3.143  0.1036  0.2588 -0.3145
36634TIP3    H210785   9.757   2.469   3.204 -0.9451 -0.7144  0.9406
36635TIP3   OH210786   6.149   8.881   8.305 -0.0409 -0.2177  0.4088
36635TIP3    H110787   6.219   8.921   8.356 -1.2408 -0.7900  2.6044
36635TIP3    H210788   6.167   8.908   8.215  2.1852  0.7907  1.0881
36636TIP3   OH210789   5.208  10.895   1.047 -0.4288 -0.6126  0.7095
36636TIP3    H110790   5.236  10.819   1.099 -0.1101 -0.5067  0.6912
36636TIP3    H210791   5.113  10.899   1.061 -0.0508  1.2662  3.8167
36637TIP3   OH210792   3.406   8.730   1.544  0.2409 -0.0433  0.6388
36637TIP3    H110793   3.330   8.685   1.583 -0.2793 -0.3593 -0.6821
36637TIP3    H210794   3.370   8.777   1.469  1.2299  0.4921  0.4838
36638TIP3   OH210795   1.278   5.791   4.935  0.2105 -0.3749 -0.3195
36638TIP3    H110796   1.248   5.827   4.852  0.4389  0.0915 -0.2026
36638TIP3    H210797   1.348   5.730   4.912  0.2771 -0.2416 -0.4626
36639TIP3   OH210798   2.181   0.480  10.657 -0.5237  0.5454  0.6581
36639TIP3    H110799   2.203   0.532  10.580 -1.5281  0.6853  0.4467
36639TIP3    H210800   2.264   0.469  10.703  0.1664  0.0909 -0.6532
36640TIP3   OH210801   4.509   2.855   6.203  0.1880 -0.0337 -0.2651
36640TIP3    H110802   4.515   2.791   6.133 -1.1748  0.3707 -0.7831
36640TIP3    H210803   4.593   2.901   6.202  0.8367 -1.1914 -0.4675
36641TIP3   OH210804   0.719   7.809   0.231 -0.2639 -0.1287 -0.5065
36641TIP3    H110805   0.728   7.878   0.298  0.3897 -0.3132 -0.3991
36641TIP3    H210806   0.753   7.849   0.151 -0.1880 -0.2217 -0.5198
36642TIP3   OH210807   4.668   0.436   2.135  0.1341 -0.1025 -0.2418
36642TIP3    H110808   4.729   0.401   2.070  0.8092  1.1441 -0.2980
36642TIP3    H210809   4.605   0.486   2.083 -0.5059 -0.7509 -0.1082
36643TIP3   OH210810   3.099   0.306   5.763 -0.3626 -0.4645  0.6863
36643TIP3    H110811   3.174   0.275   5.814 -0.2681 -1.1410  0.1531
36643TIP3    H210812   3.132   0.309   5.673 -1.2943 -1.9077  0.2586
36644TIP3   OH210813   5.899   7.914  10.067  0.0722 -0.0400 -0.2206
36644TIP3    H110814   5.929   7.889  10.155 -2.2063  1.6340  1.1235
36644TIP3    H210815   5.920   8.007  10.061 -0.4449  0.0178 -1.1619
36645TIP3   OH210816   7.138   0.485   0.692  0.6975 -0.1754 -0.1395
36645TIP3    H110817   7.234   0.483   0.684  0.7524  0.7983  0.2089
36645TIP3    H210818   7.121   0.550   0.760 -0.2427  0.1282 -0.6568
36646TIP3   OH210819   4.835   3.821   8.580 -0.7257 -0.0591  0.4185
36646TIP3    H110820   4.855   3.788   8.493 -0.5286  0.8351  0.1248
36646TIP3    H210821   4.763   3.765   8.610 -0.0262 -1.1297  0.1650
36647TIP3   OH210822   6.070   8.237   7.842  0.2602 -0.1578 -0.3740
36647TIP3    H110823   6.046   8.145   7.841 -1.2073  0.2011 -1.3608
36647TIP3    H210824   6.046   8.268   7.929 -0.3176 -0.4556 -0.4222
36648TIP3   OH210825   8.777   9.818   9.825  0.3454  0.0291  0.4986
36648TIP3    H110826   8.754   9.727   9.839 -1.0704  0.2559 -0.2257
36648TIP3    H210827   8.854   9.815   9.769 -0.4463 -0.7217 -0.5761
36649TIP3   OH210828   5.690   2.005   6.262  0.7786  0.2357 -0.1292
36649TIP3    H110829   5.753   1.938   6.235 -0.1690 -1.1352  0.9235
36649TIP3    H210830   5.622   1.957   6.309 -1.4915  1.5546 -1.8711
36650TIP3   OH210831  10.393   5.102   2.815 -0.2762  0.2253 -0.5663
36650TIP3    H110832  10.315   5.152   2.789 -0.0027  1.2919  0.5750
36650TIP3    H210833  10.367   5.010   2.804 -1.2611  0.5794 -1.3876
36651TIP3   OH210834   6.093   5.777   0.616  0.2914 -0.1438  0.0014
36651TIP3    H110835   6.087   5.800   0.709  2.5292 -0.5611  0.3034
36651TIP3    H210836   6.033   5.704   0.605  0.2955 -0.3473  1.2208
36652TIP3   OH210837   6.657   7.401   0.511 -0.1165 -0.6612  0.0502
36652TIP3    H110838   6.692   7.364   0.430  2.0862  0.2386  0.5412
36652TIP3    H210839   6.664   7.330   0.575  0.5776 -0.5733  0.0767
36653TIP3   OH210840   8.412   2.833  10.207  0.4030  0.1838 -0.2656
36653TIP3    H110841   8.339   2.775  10.230 -0.1841  0.7783 -0.5901
36653TIP3    H210842   8.370   2.912  10.173  1.2125  0.2516 -1.1537
36654TIP3   OH210843   5.757   3.116   0.699  0.1342  0.0287 -0.4511
36654TIP3    H110844   5.784   3.153   0.615 -0.3321  0.4030 -0.4412
36654TIP3    H210845   5.661   3.111   0.694  0.0702  0.4076  0.1994
36655TIP3   OH210846   7.865   1.908   7.933  0.0922 -1.2357 -0.0500
36655TIP3    H110847   7.832   1.997   7.938 -1.8743 -1.9938  2.3307
36655TIP3    H210848   7.910   1.894   8.017  2.6439 -1.7426 -1.3842
36656TIP3   OH210849   4.907   4.207   1.555  0.7649  0.3165  0.1931
36656TIP3    H110850   4.838   4.264   1.589  0.1834  1.3435 -2.4551
36656TIP3    H210851   4.978   4.216   1.618 -1.0610  0.1453  2.3838
36657TIP3   OH210852   1.608   5.365   1.287  0.1889  0.2794 -0.7435
36657TIP3    H110853   1.614   5.269   1.290  1.5746  0.3542  1.6558
36657TIP3    H210854   1.536   5.386   1.346 -0.2585  0.7348 -1.4398
36658TIP3   OH210855   0.634   9.646   4.952 -0.2683 -0.0398 -0.9938
36658TIP3    H110856   0.661   9.609   5.036  0.3411  0.3849 -0.9946
36658TIP3    H210857   0.695   9.609   4.888 -0.9263 -0.6121 -1.3104
36659TIP3   OH210858   3.824   9.468   3.744  0.3775 -0.5158  0.3654
36659TIP3    H110859   3.750   9.469   3.684 -0.6535 -0.4132  1.6036
36659TIP3    H210860   3.869   9.386   3.726 -1.0326 -1.4077  0.7611
36660TIP3   OH210861   1.150   3.988   1.749  0.1791  0.3249 -0.1447
36660TIP3    H110862   1.159   3.958   1.658 -2.2778  1.4605 -0.8429
36660TIP3    H210863   1.203   4.067   1.753  0.7387 -0.0263 -0.4251
36661TIP3   OH210864   8.578   9.849   4.119 -0.8347  0.5409 -0.3873
36661TIP3    H110865   8.566   9.761   4.156 -1.3470  0.4271 -0.8086
36661TIP3    H210866   8.545   9.908   4.186  2.8697  0.7178  1.5507
36662TIP3   OH210867   8.051   4.291  10.551 -0.3830 -0.4341 -0.1255
36662TIP3    H110868   8.055   4.291  10.455  2.2903 -0.0409 -0.1058
36662TIP3    H210869   8.109   4.219  10.576 -0.7519 -0.2837  1.2061
36663TIP3   OH210870   6.482  10.538   3.199 -0.5318  0.5322  0.2238
36663TIP3    H110871   6.460  10.630   3.212 -0.4802  0.7373 -0.9657
36663TIP3    H210872   6.449  10.493   3.277 -0.2982  1.5931  0.9488
36664TIP3   OH210873   7.952   7.741   0.211 -0.6062 -0.1361  0.2898
36664TIP3    H110874   7.985   7.822   0.173  0.7359  0.1511  1.9299
36664TIP3    H210875   8.007   7.727   0.289 -1.3099 -2.2103  0.4735
36665TIP3   OH210876   7.920   7.598   3.717 -0.6439  0.0565 -0.0407
36665TIP3    H110877   7.973   7.568   3.643 -0.3100  0.2637  0.1115
36665TIP3    H210878   7.960   7.556   3.793  1.3157  2.6641  0.4891
36666TIP3   OH210879   4.589   2.036   4.020  0.5211  0.3165  0.0536
36666TIP3    H110880   4.550   2.053   3.935 -0.5377 -0.8879  0.2814
36666TIP3    H210881   4.562   1.947   4.043  0.8046  0.6004  1.6373
36667TIP3   OH210882   7.902   8.260   2.460 -0.0732 -0.0637 -0.5090
36667TIP3    H110883   7.956   8.181   2.450  1.6834  0.9609  0.5537
36667TIP3    H210884   7.960   8.324   2.499 -1.9890  1.2255  0.3326
36668TIP3   OH210885   3.231   2.752   2.138 -0.3488  0.5350 -1.2732
36668TIP3    H110886   3.138   2.737   2.156 -0.3500  0.3030 -1.4607
36668TIP3    H210887   3.272   2.667   2.151  0.5372  1.3596  2.7862
36669TIP3   OH210888   2.191   5.476   3.155 -0.0667 -0.3432 -0.4615
36669TIP3    H110889   2.126   5.408   3.171  0.0830 -0.4992 -0.5143
36669TIP3    H210890   2.270   5.446   3.201 -0.4066  0.4673  0.6994
36670TIP3   OH210891   4.241   9.074   5.477 -0.3388  0.2747  0.0806
36670TIP3    H110892   4.308   9.099   5.412 -2.4349  2.4388 -1.4055
36670TIP3    H210893   4.219   8.983   5.454  1.9972 -0.5222  0.6381
36671TIP3   OH210894   8.958   3.971   4.026 -0.0521  0.3544  0.2724
36671TIP3    H110895   8.879   3.989   4.077 -1.1629  1.9850 -1.8275
36671TIP3    H210896   8.947   3.881   3.996 -0.9346  0.4184  0.3714
36672TIP3   OH210897   6.347   7.883   8.388 -0.5745  0.2059  0.4109
36672TIP3    H110898   6.321   7.970   8.418  0.1832  0.1407  1.3301
36672TIP3    H210899   6.270   7.828   8.404 -0.1004  0.0867  2.7452
36673TIP3   OH210900   6.939   5.844   7.995  0.0986  0.1072 -0.7443
36673TIP3    H110901   6.870   5.910   7.993 -0.6820 -0.7053 -1.6007
36673TIP3    H210902   6.916   5.787   8.068  0.6407  0.6163 -0.1585
36674TIP3   OH210903   3.643   4.737   3.361 -0.2163  0.2760  0.1051
36674TIP3    H110904   3.683   4.652   3.344 -0.9811 -0.1467  0.4093
36674TIP3    H210905   3.684   4.795   3.296  0.4297 -0.2757  0.0028
36675TIP3   OH210906   8.120   1.836   0.238  0.5331 -0.0676  0.0237
36675TIP3    H110907   8.161   1.788   0.310  0.7652 -0.9371 -0.6855
36675TIP3    H210908   8.088   1.769   0.179 -0.4282  0.6295 -0.2719
36676TIP3   OH210909   9.071   6.001   1.179  0.2686  0.4517 -0.1394
36676TIP3    H110910   8.983   5.979   1.151  0.9733  0.8252 -2.9409
36676TIP3    H210911   9.110   5.918   1.206 -0.4506  0.0348 -0.3745
36677TIP3   OH210912   4.073   1.872  10.043  0.1840  0.2203  0.0289
36677TIP3    H110913   4.134   1.799  10.034 -1.4401 -1.1499 -0.3839
36677TIP3    H210914   4.126   1.944  10.076  2.1799 -0.6753 -1.0561
36678TIP3   OH210915  10.437   1.878   7.221  0.0592 -0.3470 -0.5928
36678TIP3    H110916  10.361   1.910   7.269  0.7095  0.8299 -0.3047
36678TIP3    H210917  10.511   1.928   7.258  0.5390  0.8909 -3.0451
36679TIP3   OH210918   6.447   3.035   7.483 -0.1292 -0.4376  0.1632
36679TIP3    H110919   6.353   3.025   7.469  0.0953 -0.2812 -1.7838
36679TIP3    H210920   6.457   3.126   7.512 -0.5404 -0.3195 -0.0483
36680TIP3   OH210921   3.613   8.275   2.512 -0.5993 -0.4416 -0.0737
36680TIP3    H110922   3.555   8.280   2.588  0.0466 -0.6264  0.4420
36680TIP3    H210923   3.699   8.297   2.547 -0.0092 -2.0991 -0.4248
36681TIP3   OH210924   8.548   8.269   6.846  0.1376  0.3309  0.2215
36681TIP3    H110925   8.614   8.316   6.897  0.6611  0.1920 -0.3130
36681TIP3    H210926   8.597   8.204   6.797 -0.2868  0.7473 -0.7980
36682TIP3   OH210927   7.495   1.514   6.662  0.0746  0.1270 -0.4133
36682TIP3    H110928   7.461   1.490   6.748 -1.7657  0.6197 -0.9579
36682TIP3    H210929   7.538   1.435   6.630  0.8162 -0.0545  0.9399
36683TIP3   OH210930   7.679   8.922   9.430  0.0006  0.1296  0.4243
36683TIP3    H110931   7.605   8.926   9.490 -1.9090 -0.1814 -1.7680
36683TIP3    H210932   7.640   8.902   9.345  2.7506 -1.3960 -0.6056
36684TIP3   OH210933   7.951   8.019   1.063 -0.3154  0.3235  0.6631
36684TIP3    H110934   7.918   7.930   1.054  0.8311 -0.2371  1.6588
36684TIP3    H210935   7.921   8.047   1.149 -0.4943  0.8273  0.4400
36685TIP3   OH210936   2.208   0.655   1.064 -0.8409 -0.6754 -0.4821
36685TIP3    H110937   2.195   0.749   1.051  1.0051 -0.4650 -0.9737
36685TIP3    H210938   2.122   0.624   1.093 -2.3660  0.6073 -3.2158
36686TIP3   OH210939   0.755   1.268   0.967 -0.0181  0.0034 -0.2106
36686TIP3    H110940   0.714   1.293   1.050  0.3051 -0.1209 -0.0121
36686TIP3    H210941   0.837   1.226   0.992  0.5988  0.9245 -0.6268
36687TIP3   OH210942   4.171   9.842   6.206 -0.7816 -0.0178  0.1398
36687TIP3    H110943   4.209   9.756   6.224 -3.9345 -1.7256 -0.4785
36687TIP3    H210944   4.190   9.859   6.114 -1.4016 -0.8416 -0.1569
36688TIP3   OH210945   7.572   9.271   2.608  0.0534  0.3054 -0.5210
36688TIP3    H110946   7.653   9.298   2.564 -0.6069  1.3131 -1.1603
36688TIP3    H210947   7.532   9.353   2.636 -0.4753 -0.2211  0.3003
36689TIP3   OH210948   4.069   5.363   7.246  0.0086 -0.3708 -0.4950
36689TIP3    H110949   4.125   5.341   7.321  1.3022  0.5232 -1.1749
36689TIP3    H210950   4.020   5.282   7.230  1.8277 -1.5543 -0.4924
36690TIP3   OH210951   4.975   8.812   7.330 -0.4823  0.1487 -0.2827
36690TIP3    H110952   4.885   8.840   7.342 -0.3172 -0.3375  2.7474
36690TIP3    H210953   4.971   8.716   7.333  0.3498  0.1175  2.7782
36691TIP3   OH210954   4.334   9.780  10.651  0.9219 -0.5054 -0.3928
36691TIP3    H110955   4.285   9.725  10.589  0.0240 -2.3555  1.8363
36691TIP3    H210956   4.407   9.726  10.679  1.4282  0.3736  0.0225
36692TIP3   OH210957   5.181  10.475   1.193  0.1707 -0.4090 -0.0388
36692TIP3    H110958   5.090  10.502   1.185  0.0002 -0.5594  1.3195
36692TIP3    H210959   5.178  10.379   1.203  0.3795 -0.2931  1.2840
36693TIP3   OH210960   3.717   2.136   1.545 -0.3228 -0.1288 -0.3300
36693TIP3    H110961   3.634   2.092   1.529 -0.8184  0.6577  0.0679
36693TIP3    H210962   3.750   2.097   1.627 -0.9839  0.5600  0.2708
36694TIP3   OH210963   2.232   4.938   6.429 -0.2659  0.0729  0.2142
36694TIP3    H110964   2.258   4.910   6.517  0.4087  0.6561  0.2131
36694TIP3    H210965   2.261   5.029   6.423 -1.0038  0.2847 -0.3384
36695TIP3   OH210966   2.157   3.823   7.616 -0.3229 -0.3011 -0.2170
36695TIP3    H110967   2.149   3.894   7.552  2.7721  1.2305  0.9186
36695TIP3    H210968   2.122   3.859   7.697  0.8485 -0.2137  0.2594
36696TIP3   OH210969   3.134   5.496   9.252  0.2927  0.2908 -0.5314
36696TIP3    H110970   3.054   5.524   9.207 -0.0863  0.0262 -0.0366
36696TIP3    H210971   3.160   5.416   9.207  0.9890  1.0428 -1.5009
36697TIP3   OH210972   1.590   6.864   0.678  0.7212 -0.2997  0.3769
36697TIP3    H110973   1.661   6.819   0.723  1.0424  0.3770  0.5439
36697TIP3    H210974   1.575   6.943   0.729  0.1309 -0.2299  0.1003
36698TIP3   OH210975   3.958   3.581   4.342  0.5533 -0.3780 -0.3573
36698TIP3    H110976   3.973   3.663   4.295  0.4075 -0.0514  0.1580
36698TIP3    H210977   3.885   3.540   4.295  0.0795  0.1797 -0.1296
36699TIP3   OH210978   1.507   6.672   0.490 -0.8618 -0.1854  0.3116
36699TIP3    H110979   1.531   6.747   0.545  1.1446  0.8223 -1.7722
36699TIP3    H210980   1.496   6.600   0.552  2.2628  0.6377  2.0338
36700TIP3   OH210981   6.739   6.874   4.559  0.3036  0.0364  0.2367
36700TIP3    H110982   6.816   6.835   4.518  0.7425  0.4786  0.6354
36700TIP3    H210983   6.721   6.818   4.634 -1.6170 -1.9017 -1.5021
36701TIP3   OH210984  10.876   9.937   4.948  0.2468 -0.0526  0.1345
36701TIP3    H110985  10.846   9.970   5.032 -1.0494 -0.7559 -0.0251
36701TIP3    H210986  10.904  10.014   4.899  0.5558  0.4064  1.0182
36702TIP3   OH210987   4.625   4.640   2.965 -0.5014 -0.0148  0.4089
36702TIP3    H110988   4.710   4.620   2.925 -0.2630 -0.4616  1.1209
36702TIP3    H210989   4.639   4.627   3.059 -1.2393  0.3494  0.5792
36703TIP3   OH210990   1.150   4.186   5.095 -0.0761  0.1820  0.2543
36703TIP3    H110991   1.060   4.214   5.077  0.4684  1.0887 -1.1894
36703TIP3    H210992   1.188   4.259   5.144 -0.0158 -0.0331  0.5254
36704TIP3   OH210993   2.635   9.277  10.010 -0.4674  0.1110  0.4379
36704TIP3    H110994   2.593   9.201  10.051  2.4177 -0.7943  1.9713
36704TIP3    H210995   2.707   9.300  10.069  0.3024  2.4868 -1.2643
36705TIP3   OH210996  10.519   7.617   7.947  0.2156  0.1715 -0.3201
36705TIP3    H110997  10.515   7.536   7.896 -1.2292 -0.3128  0.4835
36705TIP3    H210998  10.588   7.601   8.012  0.0800 -0.3510 -0.2990
36706TIP3   OH210999   7.179   5.474   9.269  0.5726 -0.2981  0.0848
36706TIP3    H111000   7.151   5.441   9.354 -0.3525  1.0074  0.3123
36706TIP3    H211001   7.158   5.568   9.271 -0.4004 -0.4152 -1.9355
36707TIP3   OH211002   7.594   1.707   0.405 -0.3370  0.4966 -0.6612
36707TIP3    H111003   7.554   1.793   0.394 -0.0602  0.7512  0.2209
36707TIP3    H211004   7.652   1.717   0.481  1.2278  0.0727 -1.7505
36708TIP3   OH211005   8.943   8.860   3.365  0.5574  0.5131 -0.3234
36708TIP3    H111006   9.016   8.875   3.305  0.5956  1.6967 -0.0034
36708TIP3    H211007   8.948   8.932   3.428 -1.0939  0.8312 -0.5101
36709TIP3   OH211008   7.631   7.629   4.921 -0.2865 -0.1216  0.0456
36709TIP3    H111009   7.537   7.621   4.936 -0.6892  2.4682 -0.5272
36709TIP3    H211010   7.671   7.558   4.972 -2.3080  0.8734  3.2940
36710TIP3   OH211011   4.825   1.320   4.724  0.4201  0.0978 -0.5302
36710TIP3    H111012   4.803   1.229   4.744 -0.7092  0.4787  0.0386
36710TIP3    H211013   4.776   1.339   4.644 -0.7129  0.6925  0.2716
36711TIP3   OH211014   8.446   2.136   7.150  0.5596 -0.3396 -0.4836
36711TIP3    H111015   8.415   2.225   7.167 -0.9980 -0.8425 -0.5565
36711TIP3    H211016   8.450   2.131   7.054  1.1316 -0.2007 -0.4703
36712TIP3   OH211017  10.238   0.480   0.322 -0.1020 -0.1902  0.5448
36712TIP3    H111018  10.231   0.388   0.348 -0.3855 -1.1582 -2.5904
36712TIP3    H211019  10.148   0.508   0.305  0.1205  0.0600 -0.2913
36713TIP3   OH211020   3.493   0.201   0.242  0.1067  0.6457 -0.4937
36713TIP3    H111021   3.502   0.206   0.147  1.4739 -0.5246 -0.4755
36713TIP3    H211022   3.554   0.131   0.267 -0.4313  0.7562  1.2126
36714TIP3   OH211023   2.671  10.885   2.687 -0.0508 -0.2690 -0.5748
36714TIP3    H111024   2.635  10.882   2.776 -1.4337  0.2224 -1.0801
36714TIP3    H211025   2.734  10.814   2.684  0.1746 -0.1688  0.8581
36715TIP3   OH211026   6.168   6.998  10.542 -0.2771  0.4620  0.1922
36715TIP3    H111027   6.176   6.990  10.447 -1.1460  0.9495  0.0603
36715TIP3    H211028   6.202   7.085  10.562 -3.2840  1.8498 -0.1654
36716TIP3   OH211029   9.569   1.253   5.826 -0.4499 -0.1374  0.3624
36716TIP3    H111030   9.609   1.218   5.906 -1.5744 -2.0676  0.1518
36716TIP3    H211031   9.478   1.224   5.830 -0.2335 -1.5193 -2.2262
36717TIP3   OH211032   1.250   6.430   0.111 -0.6459  0.1336 -0.5195
36717TIP3    H111033   1.246   6.346   0.065  4.6047 -0.8015  0.1687
36717TIP3    H211034   1.253   6.407   0.203  0.8083  1.0056 -0.3145
36718TIP3   OH211035  10.066   1.212   2.413 -0.3156 -0.0889 -0.0342
36718TIP3    H111036  10.147   1.232   2.460 -0.1747 -0.6534 -0.0303
36718TIP3    H211037  10.055   1.117   2.423  1.7785 -1.0303 -4.2727
36719TIP3   OH211038   5.120   2.163   7.789 -0.8694 -0.0450 -0.7734
36719TIP3    H111039   5.035   2.132   7.821 -0.2453  0.2686  1.2923
36719TIP3    H211040   5.137   2.109   7.711 -1.3959 -2.5574  0.7418
36720TIP3   OH211041   8.697   8.080   5.517  0.1013 -0.0115 -0.3511
36720TIP3    H111042   8.628   8.014   5.521  2.5251 -2.7694 -0.2852
36720TIP3    H211043   8.721   8.095   5.609  1.4778 -1.3661 -0.4380
36721TIP3   OH211044   7.193   6.442   7.674 -0.2238 -0.5132  0.0655
36721TIP3    H111045   7.194   6.373   7.609  0.7700  0.3627 -0.8956
36721TIP3    H211046   7.104   6.477   7.671 -0.6057 -1.4457  0.2504
36722TIP3   OH211047   3.795   4.372   8.239  0.0354 -1.4509 -0.3241
36722TIP3    H111048   3.723   4.434   8.229  1.3463  0.7041  2.3055
36722TIP3    H211049   3.860   4.399   8.174  0.3395 -0.4195  0.3913
36723TIP3   OH211050   0.902   2.008   3.045  0.0690  0.3058  0.7160
36723TIP3    H111051   0.873   2.097   3.023  0.5240  0.4659  0.7491
36723TIP3    H211052   0.854   1.951   2.985 -1.8717  0.3705  2.1201
36724TIP3   OH211053   7.932   7.336   0.458  0.0114  0.5765  0.2328
36724TIP3    H111054   7.975   7.264   0.506 -0.4619  0.1409  0.0077
36724TIP3    H211055   7.853   7.354   0.509 -0.9174 -0.4347 -0.8093
36725TIP3   OH211056   0.685   6.383   6.495 -0.1980 -0.6035  0.6316
36725TIP3    H111057   0.670   6.426   6.411 -0.7524 -0.6131  0.7255
36725TIP3    H211058   0.779   6.396   6.511 -0.1189 -0.4574  0.0957
36726TIP3   OH211059   5.280   4.836   4.831  0.4948  0.4821  0.1696
36726TIP3    H111060   5.234   4.754   4.814  2.2290 -0.7680  1.2715
36726TIP3    H211061   5.245   4.866   4.915  0.1826  0.6734 -0.0226
36727TIP3   OH211062   8.955   6.200  10.301 -0.1854  0.0422 -0.2009
36727TIP3    H111063   8.931   6.275  10.356  0.4921 -0.2324  0.4957
36727TIP3    H211064   8.872   6.154  10.286 -0.4007  0.1566  0.5709
36728TIP3   OH211065   2.652   8.566   8.414  0.0646  0.7012  0.1500
36728TIP3    H111066   2.653   8.523   8.329 -0.8009  0.2442  0.3592
36728TIP3    H211067   2.595   8.642   8.403 -0.4322  0.3777  0.4363
36729TIP3   OH211068   8.249   6.567   5.424 -0.1328  0.1004 -0.1202
36729TIP3    H111069   8.203   6.484   5.434  0.7234 -0.4077 -0.2600
36729TIP3    H211070   8.246   6.586   5.330  0.9662 -0.5584 -0.3077
36730TIP3   OH211071   2.284   4.630   3.303 -0.1005  0.4327  0.1059
36730TIP3    H111072   2.218   4.640   3.373  0.3704  0.6470  0.5267
36730TIP3    H211073   2.256   4.692   3.236 -0.1442  0.7721  0.4304
36731TIP3   OH211074  10.720   0.262   4.743  0.5832 -0.2081  0.1775
36731TIP3    H111075  10.689   0.176   4.715  2.1583 -0.4047 -1.0681
36731TIP3    H211076  10.804   0.245   4.785  0.4125  0.6264  0.8949
36732TIP3   OH211077   5.393  10.356   0.943  0.1200 -0.2241 -0.5084
36732TIP3    H111078   5.344  10.394   0.870  1.1381  1.9433 -0.1482
36732TIP3    H211079   5.466  10.417   0.957 -1.0228  0.5512  3.4836
36733TIP3   OH211080   4.987   9.733   3.719 -0.2252  0.3062  0.7631
36733TIP3    H111081   4.992   9.828   3.727  1.7923  0.7566 -3.1749
36733TIP3    H211082   5.068   9.701   3.760  0.6551  0.6705 -0.6238
36734TIP3   OH211083   9.312   6.710   6.973  0.0295  0.1774  0.0731
36734TIP3    H111084   9.263   6.776   6.924  0.0185  0.5785  0.6082
36734TIP3    H211085   9.404   6.727   6.951  0.0511  0.5761  0.4340
36735TIP3   OH211086   2.967   1.635   2.560  0.4562  0.2339  0.2936
36735TIP3    H111087   3.010   1.583   2.492  1.4093  1.6771 -0.2574
36735TIP3    H211088   3.031   1.637   2.632  1.8207  3.0548 -0.8291
36736TIP3   OH211089   3.977   6.339   3.945 -0.6165 -0.1104 -0.4657
36736TIP3    H111090   4.035   6.350   4.021 -0.0707 -2.2497 -0.5109
36736TIP3    H211091   4.019   6.270   3.893 -1.9567  0.0100 -1.7672
36737TIP3   OH211092   8.521   6.336   6.478  0.5013 -0.2084  0.4191
36737TIP3    H111093   8.534   6.332   6.573 -2.1443  0.7863  0.9127
36737TIP3    H211094   8.451   6.273   6.461  0.1340  0.4699 -0.6661
36738TIP3   OH211095   5.266  10.636  10.209  0.1553  0.8625 -0.1630
36738TIP3    H111096   5.313  10.664  10.287  1.6578 -0.1831 -0.6470
36738TIP3    H211097   5.195  10.582  10.242  2.0286 -1.3834  0.4946
36739TIP3   OH211098   2.350   1.217   9.512  0.6114  0.2909 -0.2218
36739TIP3    H111099   2.318   1.145   9.567 -1.3548  0.9745 -0.3930
36739TIP3    H211100   2.385   1.174   9.434 -2.1189 -0.5224 -1.1278
36740TIP3   OH211101   3.991   0.495   4.173  0.6602  0.4479  0.2106
36740TIP3    H111102   4.057   0.464   4.111 -0.0690  0.8219 -0.7859
36740TIP3    H211103   4.029   0.479   4.259  1.7568  0.0380 -0.3325
36741TIP3   OH211104   7.011   0.927   7.145 -0.8057  0.5513  0.4940
36741TIP3    H111105   6.988   0.834   7.137 -0.4386  0.2181  2.6290
36741TIP3    H211106   6.953   0.960   7.213 -0.8714  1.8988 -0.1898
36742TIP3   OH211107   7.453   6.583   5.313  0.0832  0.2211 -0.0930
36742TIP3    H111108   7.451   6.571   5.408 -0.0474  0.6915 -0.0306
36742TIP3    H211109   7.363   6.572   5.285  0.4196 -1.9873 -0.4536
36743TIP3   OH211110   0.415   8.180   4.524  0.2698 -0.0145  0.1738
36743TIP3    H111111   0.389   8.261   4.481  1.2021 -0.3325 -1.0425
36743TIP3    H211112   0.471   8.207   4.597  0.2801  0.4386 -0.0053
36744TIP3   OH211113   7.032   2.603   6.691  0.3088  0.2471 -0.3703
36744TIP3    H111114   7.071   2.680   6.649  0.4881  1.0188  1.1435
36744TIP3    H211115   7.067   2.604   6.780 -1.8057 -0.0142  0.5314
36745TIP3   OH211116   8.769  10.274   7.561  0.4426  0.4653  0.2991
36745TIP3    H111117   8.840  10.260   7.623 -0.9823  1.9077  2.3782
36745TIP3    H211118   8.724  10.352   7.593 -0.6306  1.0349 -2.3480
36746TIP3   OH211119   2.307   3.979   5.626  0.0574 -0.6252  0.2074
36746TIP3    H111120   2.231   3.924   5.645 -1.5245  1.9456  1.9717
36746TIP3    H211121   2.325   4.024   5.709  0.9205  1.8299 -1.2108
36747TIP3   OH211122   7.846   8.602   2.188  0.0036  0.1176 -0.0917
36747TIP3    H111123   7.850   8.664   2.116 -1.2992 -1.3724 -1.5248
36747TIP3    H211124   7.881   8.520   2.152 -2.2203 -1.1166  0.3913
36748TIP3   OH211125   0.457   7.977   8.992 -0.3613 -0.3405 -0.5788
36748TIP3    H111126   0.484   7.936   8.910  1.8801  1.3739 -0.8225
36748TIP3    H211127   0.373   8.018   8.973  0.4816  0.6936 -2.3070
36749TIP3   OH211128   0.758   0.822   5.445  0.0236  0.2745  0.5533
36749TIP3    H111129   0.789   0.783   5.363 -0.6862  0.4551  0.1794
36749TIP3    H211130   0.835   0.828   5.500  0.5769  0.4206 -0.2209
36750TIP3   OH211131   8.343  10.849   6.781  0.1446 -0.7784  0.5419
36750TIP3    H111132   8.349  10.768   6.730 -1.2752 -0.9052  0.5486
36750TIP3    H211133   8.253  10.852   6.811  1.0141 -0.9633  3.4910
36751TIP3   OH211134   1.983   7.091   9.899  0.2951  0.3666 -0.2100
36751TIP3    H111135   2.032   7.061   9.976 -0.3394 -0.7100 -0.2167
36751TIP3    H211136   2.028   7.171   9.872  3.3905 -1.6159 -1.4578
36752TIP3   OH211137   7.140  10.146   0.024 -0.0717  0.3224 -0.2802
36752TIP3    H111138   7.201  10.081  -0.012 -2.4129 -1.4812 -1.2529
36752TIP3    H211139   7.104  10.103   0.102 -3.5357 -0.8638 -2.2941
36753TIP3   OH211140   4.707  10.362   8.575  0.0051  0.1084  0.4372
36753TIP3    H111141   4.743  10.382   8.662  0.0207 -1.5713  0.8409
36753TIP3    H211142   4.783  10.363   8.517  0.5825 -2.1423  1.0648
36754TIP3   OH211143   0.172   5.169  10.128 -0.2815 -0.4745  0.3045
36754TIP3    H111144   0.105   5.130  10.072 -0.3151 -0.9703  0.6822
36754TIP3    H211145   0.226   5.221  10.069 -0.9299 -0.1600 -0.0207
36755TIP3   OH211146  10.658   8.583   9.493 -0.1166  0.0385 -0.4425
36755TIP3    H111147  10.639   8.579   9.586 -0.8469  0.6353 -0.5483
36755TIP3    H211148  10.714   8.507   9.476  0.3998  0.1792  0.5564
36756TIP3   OH211149   2.660   7.991   2.363  0.0544 -0.7244 -0.2822
36756TIP3    H111150   2.589   7.976   2.301  0.1004 -0.0359 -0.5049
36756TIP3    H211151   2.687   7.903   2.390 -0.0488 -1.0290 -1.1404
36757TIP3   OH211152   7.222   8.618   0.729 -0.2572 -0.0883  0.7053
36757TIP3    H111153   7.211   8.691   0.791 -2.1658 -0.6728  1.1299
36757TIP3    H211154   7.174   8.546   0.769 -0.4522 -0.8574 -0.8503
36758TIP3   OH211155   6.137  10.494   5.421  0.0610 -0.0012 -0.6282
36758TIP3    H111156   6.159  10.418   5.366 -0.7489  0.7662 -2.0657
36758TIP3    H211157   6.063  10.535   5.377  1.8014  2.8785 -1.1515
36759TIP3   OH211158   6.351   8.092   6.669 -0.0721  0.2434  0.5855
36759TIP3    H111159   6.422   8.153   6.688 -0.4600  0.9121 -0.0939
36759TIP3    H211160   6.377   8.048   6.588 -0.1391  0.0289  0.6790
36760TIP3   OH211161   9.308   5.466   8.693 -0.0359 -0.4027  0.3684
36760TIP3    H111162   9.348   5.551   8.711  0.5823 -0.1492 -1.9350
36760TIP3    H211163   9.382   5.406   8.686 -0.5191 -1.6504  3.8404
36761TIP3   OH211164   3.918   8.435   3.395 -0.9400 -0.2825 -0.3474
36761TIP3    H111165   4.000   8.385   3.401 -0.9963 -0.3617 -0.2202
36761TIP3    H211166   3.854   8.381   3.442 -0.6571  0.6059  1.1502
36762TIP3   OH211167   4.081  10.403   1.829  0.0811 -0.4070 -0.7001
36762TIP3    H111168   4.088  10.310   1.804  1.6260 -0.7745  0.9316
36762TIP3    H211169   4.171  10.430   1.845 -0.5031  0.8745  0.5909
36763TIP3   OH211170   7.387   8.477   1.706  0.1418 -0.4383 -0.0475
36763TIP3    H111171   7.426   8.392   1.686  0.2909 -0.2477 -0.5776
36763TIP3    H211172   7.435   8.507   1.784 -0.1560 -0.9919  0.3539
36764TIP3   OH211173   1.708  10.022  10.635  0.2021 -0.5868 -0.0234
36764TIP3    H111174   1.672   9.955  10.694 -0.2565 -0.9486 -0.7073
36764TIP3    H211175   1.794  10.043  10.672 -0.2387 -0.5250  0.9980
36765TIP3   OH211176   8.500   4.358   7.812 -0.4746 -0.1033 -0.0161
36765TIP3    H111177   8.587   4.395   7.827 -0.2591 -0.5888 -0.0650
36765TIP3    H211178   8.515   4.286   7.751 -0.8569 -0.4559  0.3098
36766TIP3   OH211179   9.129   1.710   1.805 -0.1589  0.3797 -0.2299
36766TIP3    H111180   9.218   1.677   1.817 -1.0933 -1.4850  2.6141
36766TIP3    H211181   9.088   1.648   1.745 -0.6431 -1.2836  1.7060
36767TIP3   OH211182   8.500   3.694   2.600 -0.8640  0.2484 -0.2972
36767TIP3    H111183   8.485   3.787   2.579 -1.2311  0.0977 -0.7084
36767TIP3    H211184   8.593   3.690   2.624 -0.5465  0.5278 -1.3928
36768TIP3   OH211185   5.174   6.664  10.461  0.0643 -0.2742 -0.0435
36768TIP3    H111186   5.245   6.665  10.526  0.4123 -1.3363 -0.3815
36768TIP3    H211187   5.106   6.611  10.502 -1.2402  2.0122  0.9471
36769TIP3   OH211188   2.490   8.534   6.885 -0.4304  0.3585 -0.0473
36769TIP3    H111189   2.398   8.550   6.907 -0.1548 -0.0417  1.5171
36769TIP3    H211190   2.496   8.556   6.792 -1.0893  4.6896  0.7491
36770TIP3   OH211191   2.984   5.434   6.651  0.0891  0.0006 -0.6485
36770TIP3    H111192   2.902   5.481   6.636 -1.1806 -1.8736  0.0227
36770TIP3    H211193   2.966   5.344   6.622  2.0463 -0.3775 -0.8438
36771TIP3   OH211194   7.261   0.325   6.242  0.0159 -0.7951 -0.4190
36771TIP3    H111195   7.240   0.241   6.284  0.7016 -0.7726 -0.0236
36771TIP3    H211196   7.349   0.313   6.207  0.1344 -0.2253 -0.3270
36772TIP3   OH211197   9.689   1.530   3.554  0.4989  0.4285  0.1211
36772TIP3    H111198   9.677   1.604   3.494 -0.8134  0.6699  0.6391
36772TIP3    H211199   9.772   1.491   3.528  0.9144  1.7104 -0.5740
36773TIP3   OH211200   1.053   3.820   6.509 -0.3970  0.1780  0.1443
36773TIP3    H111201   1.068   3.856   6.422  0.1478 -0.0531  0.1426
36773TIP3    H211202   0.964   3.785   6.505 -0.4974  0.4687 -0.2135
36774TIP3   OH211203   8.659   6.700   7.417 -0.7807  0.1866  0.1736
36774TIP3    H111204   8.647   6.681   7.510 -1.2477  0.4900  0.1815
36774TIP3    H211205   8.744   6.742   7.412  0.1503 -1.6008  0.1928
36775TIP3   OH211206   2.617   2.755   5.007 -0.5759  0.5789 -0.2133
36775TIP3    H111207   2.712   2.744   5.010 -0.6811 -0.5681 -0.4317
36775TIP3    H211208   2.602   2.813   4.932 -0.0839  0.1603 -0.6468
36776TIP3   OH211209   1.978   1.294   3.380 -0.3225  0.3593  0.3617
36776TIP3    H111210   1.954   1.345   3.303 -0.3665  1.3165  0.9867
36776TIP3    H211211   2.036   1.226   3.347  2.7442  2.9447 -0.1030
36777TIP3   OH211212   7.930   0.644   2.887  0.0121 -0.2254 -0.3131
36777TIP3    H111213   7.964   0.616   2.802 -1.4648  0.1630 -1.0687
36777TIP3    H211214   7.975   0.587   2.950  1.3948 -0.2828 -1.3035
36778TIP3   OH211215  10.875   7.706   8.948 -0.0527  0.2744 -0.6940
36778TIP3    H111216  10.873   7.755   8.866  3.8342  2.9793  0.5210
36778TIP3    H211217  10.874   7.773   9.016  1.0642 -1.5822  1.2815
36779TIP3   OH211218   6.570   2.372   4.597  0.6692 -0.6450  0.9017
36779TIP3    H111219   6.632   2.309   4.633  0.5332 -1.0859  0.3922
36779TIP3    H211220   6.484   2.335   4.619  0.5878 -0.7464  0.4372
36780TIP3   OH211221   4.253   0.058   0.463  0.8616 -0.0602 -0.1002
36780TIP3    H111222   4.279   0.048   0.554  1.5494 -0.1173 -0.3011
36780TIP3    H211223   4.334   0.050   0.413  0.4152 -0.5659 -0.7575
36781TIP3   OH211224   2.370   8.169   2.347  0.1006  0.3017  0.3451
36781TIP3    H111225   2.366   8.250   2.399 -0.8635  0.0440  0.6918
36781TIP3    H211226   2.439   8.186   2.283  0.5514  1.0510  0.9975
36782TIP3   OH211227   2.753  10.175   8.071 -0.0265  0.1886 -0.3387
36782TIP3    H111228   2.691  10.103   8.064 -1.0230  0.8649  0.9704
36782TIP3    H211229   2.773  10.180   8.165  1.0170  0.8005 -0.5794
36783TIP3   OH211230   6.571   8.643   0.568  0.5875 -0.1095 -0.4746
36783TIP3    H111231   6.576   8.608   0.657 -0.2606 -0.5615 -0.5941
36783TIP3    H211232   6.522   8.577   0.519  0.9098  0.2115 -1.2406
36784TIP3   OH211233  10.677   4.686   7.866  0.5766 -0.0802  0.2133
36784TIP3    H111234  10.680   4.776   7.834 -0.6560 -0.5936 -1.5113
36784TIP3    H211235  10.584   4.669   7.880  0.7894 -1.1125  0.4191
36785TIP3   OH211236   7.520   6.785   1.532  0.1966  0.4728 -0.6744
36785TIP3    H111237   7.586   6.716   1.524  1.4039  1.6668 -1.6364
36785TIP3    H211238   7.436   6.739   1.525  0.9538 -0.9429 -0.8317
36786TIP3   OH211239   5.588   7.834   7.729  0.7256 -0.2902 -0.6076
36786TIP3    H111240   5.654   7.896   7.701  0.4896  0.5067  0.5327
36786TIP3    H211241   5.542   7.809   7.649 -0.3353  2.3535 -0.9306
36787TIP3   OH211242   2.377   8.065   0.252 -0.0268 -0.3241  0.3632
36787TIP3    H111243   2.447   8.117   0.292  0.8919 -2.2413  1.4081
36787TIP3    H211244   2.347   8.117   0.178  1.8755  0.9837  0.4388
36788TIP3   OH211245   0.789   7.432   5.295  0.1390  0.3754  0.5064
36788TIP3    H111246   0.714   7.430   5.235  0.4477 -0.6424  0.1351
36788TIP3    H211247   0.772   7.361   5.357  0.5192  0.5061  0.7619
36789TIP3   OH211248   1.476   9.495   8.639 -0.5388  0.2659  0.3098
36789TIP3    H111249   1.518   9.447   8.710  0.6169 -0.0911 -0.5781
36789TIP3    H211250   1.418   9.558   8.682  0.8721  0.7269  1.5743
36790TIP3   OH211251  10.735  10.022   3.309  0.0466 -0.8356  0.2529
36790TIP3    H111252  10.695   9.935   3.321 -0.3095 -0.6347  0.5283
36790TIP3    H211253  10.827  10.003   3.293 -0.4766 -1.4301 -2.4987
36791TIP3   OH211254   9.864   8.559   7.121  0.4669  0.1411  0.1836
36791TIP3    H111255   9.893   8.469   7.131 -1.1883 -0.5325 -0.7895
36791TIP3    H211256   9.835   8.585   7.209  0.4717 -0.4267  0.3562
36792TIP3   OH211257   0.713   2.019  10.564  0.5044  0.6584  0.2853
36792TIP3    H111258   0.739   1.938  10.609 -2.2667 -0.3938  0.2255
36792TIP3    H211259   0.764   2.020  10.484  2.5746  0.4366  1.5365
36793TIP3   OH211260   2.690   6.481   7.671  0.2153  0.0498 -0.3763
36793TIP3    H111261   2.741   6.436   7.603  0.0649 -2.7777  1.1975
36793TIP3    H211262   2.600   6.476   7.640  0.4004  1.0363 -1.1031
36794TIP3   OH211263   0.998   2.563   1.217  0.2486 -0.5387  0.7755
36794TIP3    H111264   0.928   2.525   1.270 -0.5654 -0.7362 -0.4114
36794TIP3    H211265   1.034   2.489   1.168  0.4729 -0.2306  0.4655
36795TIP3   OH211266  10.661   6.447  10.557 -0.0359 -0.2505  0.2538
36795TIP3    H111267  10.603   6.414  10.487 -0.1138  0.3645  0.0181
36795TIP3    H211268  10.684   6.536  10.529  2.0509 -0.9043 -0.2940
36796TIP3   OH211269   9.324   5.030   3.525 -0.0159 -0.1446 -0.1269
36796TIP3    H111270   9.383   4.979   3.581 -0.4585 -0.4513  0.0618
36796TIP3    H211271   9.283   5.093   3.584 -0.4418 -0.4310 -0.1126
36797TIP3   OH211272   0.059   4.123   7.290  0.3110  0.4478 -0.6526
36797TIP3    H111273   0.137   4.075   7.319  0.0761  0.2874 -0.2828
36797TIP3    H211274   0.085   4.163   7.207  1.0079  0.9591 -0.2021
36798TIP3   OH211275   4.527   1.884   4.703  0.0710 -0.3350 -0.5787
36798TIP3    H111276   4.591   1.947   4.735 -0.5430  0.5885 -1.1146
36798TIP3    H211277   4.493   1.842   4.782  0.4331  0.0610 -0.2059
36799TIP3   OH211278   5.080   4.792   2.748  0.2291 -0.2828 -0.4176
36799TIP3    H111279   5.045   4.880   2.736 -1.1442 -0.3817  2.2019
36799TIP3    H211280   5.173   4.807   2.767  0.3213  0.4594 -1.3306
36800TIP3   OH211281   7.623   4.931  10.851  0.1841  0.3721  0.0521
36800TIP3    H111282   7.698   4.988  10.834 -1.2225  2.4768  0.6615
36800TIP3    H211283   7.568   4.980  10.911 -0.5726 -2.1232  1.5271
36801TIP3   OH211284   7.124   7.116   6.870 -0.1315  0.0483 -0.0175
36801TIP3    H111285   7.213   7.121   6.833 -0.5188 -2.5257 -1.5427
36801TIP3    H211286   7.068   7.095   6.795 -1.8768  0.5517  1.1000
36802TIP3   OH211287   5.545  10.639   2.988  0.2897 -0.2357 -0.1616
36802TIP3    H111288   5.625  10.646   2.935  1.6005  0.9646  1.8359
36802TIP3    H211289   5.563  10.570   3.051 -0.0864  0.2750  0.5265
36803TIP3   OH211290  10.674   1.449   0.923  0.0323 -0.0170 -0.3468
36803TIP3    H111291  10.627   1.373   0.891 -0.6083  0.6242 -0.9590
36803TIP3    H211292  10.615   1.523   0.908  0.4244  0.5393  0.7117
36804TIP3   OH211293   0.269   3.764   2.088 -0.7212  0.2028 -0.2790
36804TIP3    H111294   0.231   3.827   2.149 -2.8876  0.4071 -1.7368
36804TIP3    H211295   0.210   3.689   2.091 -0.1365 -0.3146 -1.1799
36805TIP3   OH211296   4.623   4.300   8.860 -0.0623  0.0189  0.6371
36805TIP3    H111297   4.645   4.393   8.854  1.5854 -0.3888 -0.2032
36805TIP3    H211298   4.555   4.296   8.928 -2.0934  2.1341 -1.0757
36806TIP3   OH211299   8.071   4.814   7.115 -0.2577 -0.6043  0.4481
36806TIP3    H111300   8.038   4.730   7.147  0.9610 -0.6464  1.7015
36806TIP3    H211301   8.074   4.869   7.194 -1.1011  0.6599 -0.3622
36807TIP3   OH211302   3.788   6.468   7.903  0.0355 -0.4435  0.1151
36807TIP3    H111303   3.790   6.548   7.851  0.0123 -1.8984 -2.2423
36807TIP3    H211304   3.871   6.468   7.949 -0.4421  1.4723  1.0994
36808TIP3   OH211305   8.247   8.751   5.640  0.0565  0.7153  0.2442
36808TIP3    H111306   8.179   8.692   5.674 -0.3599  0.3158 -1.1666
36808TIP3    H211307   8.271   8.806   5.714  1.7539 -2.3672  2.1814
36809TIP3   OH211308   3.618   3.521   4.931 -0.0745  0.4246  0.0663
36809TIP3    H111309   3.665   3.585   4.983 -1.6856  2.7260 -1.1425
36809TIP3    H211310   3.662   3.523   4.845 -0.1020 -0.1694  0.0300
36810TIP3   OH211311  10.423   1.728   4.437 -0.1459 -0.3989 -0.2230
36810TIP3    H111312  10.356   1.795   4.425 -1.6351 -2.0545 -1.7802
36810TIP3    H211313  10.427   1.715   4.531 -0.1164  1.5355  0.0827
36811TIP3   OH211314   7.845   0.776   5.213 -0.2883  0.4906 -0.0616
36811TIP3    H111315   7.853   0.863   5.173 -1.7422  0.2823 -0.8819
36811TIP3    H211316   7.753   0.770   5.238 -0.5553 -1.3617 -1.3471
36812TIP3   OH211317   4.975   6.517   0.447 -0.0604 -0.2109  0.4229
36812TIP3    H111318   4.976   6.446   0.382  1.1512  0.5795 -0.4786
36812TIP3    H211319   4.882   6.538   0.458 -0.2884 -0.0729 -1.4224
36813TIP3   OH211320   7.697   1.137   0.489 -0.3062 -0.7905 -0.2896
36813TIP3    H111321   7.644   1.067   0.529 -0.0146 -0.0432  1.4801
36813TIP3    H211322   7.773   1.092   0.454 -0.4781 -1.4678  0.1771
36814TIP3   OH211323   3.134   0.857   9.584 -0.1343  0.2869  0.1694
36814TIP3    H111324   3.143   0.852   9.680  0.8860  0.9563  0.1158
36814TIP3    H211325   3.077   0.933   9.570  0.8624  1.0656  0.2095
36815TIP3   OH211326   3.706   9.140   1.335  0.2654 -0.9366 -0.2511
36815TIP3    H111327   3.636   9.155   1.271  1.2034  1.1698 -0.8642
36815TIP3    H211328   3.667   9.161   1.419  0.1750  0.4031 -0.6074
36816TIP3   OH211329   1.273   8.984  10.516 -0.1441 -0.1649  0.3348
36816TIP3    H111330   1.273   9.058  10.577 -0.2508 -0.4026  0.6277
36816TIP3    H211331   1.192   8.995  10.466  1.0534  1.3584 -1.4276
36817TIP3   OH211332   4.755   0.760   1.162  0.5004 -0.5744 -0.4495
36817TIP3    H111333   4.754   0.831   1.226 -2.1657 -0.1750 -0.8139
36817TIP3    H211334   4.730   0.682   1.211 -0.0206 -0.5652 -0.6903
36818TIP3   OH211335   3.614   2.164   2.888  0.0909  0.1472 -0.2678
36818TIP3    H111336   3.539   2.215   2.855 -0.3868 -0.2759  0.1569
36818TIP3    H211337   3.630   2.099   2.820  1.2014  1.3182 -1.1879
36819TIP3   OH211338   2.443   9.857   9.090  0.1766 -0.3498 -0.4564
36819TIP3    H111339   2.394   9.936   9.066 -1.8148 -1.6093 -0.6700
36819TIP3    H211340   2.377   9.789   9.101  1.8176 -1.9480  0.0189
36820TIP3   OH211341   5.542   9.200   5.700  0.0228  0.0101 -0.1091
36820TIP3    H111342   5.608   9.192   5.631  0.0459 -0.0111 -0.0841
36820TIP3    H211343   5.487   9.122   5.691  0.2166 -0.1508  0.0985
36821TIP3   OH211344   4.676   8.359   4.051 -0.8132 -0.2286  0.2733
36821TIP3    H111345   4.713   8.438   4.012 -1.1237  0.4803  1.3950
36821TIP3    H211346   4.740   8.290   4.030  0.8677  0.8406  1.5909
36822TIP3   OH211347   5.418   6.699   9.611  0.2680  0.2749  0.0492
36822TIP3    H111348   5.369   6.622   9.639 -0.8157  0.6345 -0.8050
36822TIP3    H211349   5.359   6.746   9.552  1.5784  0.7942 -0.9198
36823TIP3   OH211350   6.411   2.328   9.784  0.5378  0.5348  0.4912
36823TIP3    H111351   6.488   2.275   9.806 -0.6305 -1.1611  0.7224
36823TIP3    H211352   6.431   2.415   9.818  1.7725 -0.2092  1.8053
36824TIP3   OH211353   0.863   1.122   4.319 -0.4084 -0.1435  0.2402
36824TIP3    H111354   0.948   1.156   4.345  0.5918 -2.9603  1.0322
36824TIP3    H211355   0.803   1.196   4.331  1.8131  1.8220  0.0170
36825TIP3   OH211356   9.462   2.369   5.224  0.0048 -0.0407  0.5816
36825TIP3    H111357   9.410   2.431   5.275 -0.2378  0.1028  0.1626
36825TIP3    H211358   9.447   2.285   5.266 -0.3232  0.0496  0.6495
36826TIP3   OH211359   5.091  10.700   8.448  0.0707 -0.8803 -0.0513
36826TIP3    H111360   5.062  10.680   8.536 -0.4222 -0.5153 -0.1281
36826TIP3    H211361   5.068  10.623   8.396 -1.2869 -0.3910 -0.2253
36827TIP3   OH211362   0.426  10.597   1.101  0.6543  0.0176 -0.1613
36827TIP3    H111363   0.499  10.658   1.105 -0.4816  1.4241 -0.3320
36827TIP3    H211364   0.386  10.602   1.188  0.6239 -0.5756 -0.1373
36828TIP3   OH211365   0.099   4.387   5.360 -0.1216 -0.1807 -0.1240
36828TIP3    H111366   0.143   4.302   5.354  0.1298 -0.0728  0.1685
36828TIP3    H211367   0.127   4.434   5.281  1.8163  0.5963  0.9401
36829TIP3   OH211368   6.261   7.143   0.684  0.1000 -0.2460 -0.5427
36829TIP3    H111369   6.198   7.119   0.616 -0.3123  0.4705 -0.4257
36829TIP3    H211370   6.310   7.216   0.647 -0.2017  0.2226 -0.0394
36830TIP3   OH211371   0.123   4.198   5.612  0.3228  0.3068  0.4121
36830TIP3    H111372   0.132   4.104   5.625  0.4312  0.3794  0.8957
36830TIP3    H211373   0.050   4.207   5.550  0.3906 -0.0965  0.2719
36831TIP3   OH211374   4.087   7.753   4.075 -0.4828 -0.3478  0.3064
36831TIP3    H111375   4.107   7.840   4.110 -2.1562 -0.4921  1.7303
36831TIP3    H211376   4.036   7.771   3.996  0.6134 -0.0500 -0.3562
36832TIP3   OH211377   4.218   5.202   7.436 -0.2799  0.1552 -0.0002
36832TIP3    H111378   4.142   5.144   7.435 -1.1230  1.2229 -1.7984
36832TIP3    H211379   4.273   5.168   7.508 -1.2848 -2.1156 -0.2158
36833TIP3   OH211380  10.247   9.905   8.985 -0.4299 -0.0415  0.2176
36833TIP3    H111381  10.328   9.945   8.954 -0.3022  0.3762  1.0811
36833TIP3    H211382  10.198   9.977   9.024 -0.8613 -0.4507  0.4399
36834TIP3   OH211383   6.191   5.434  10.787  0.5486  0.1334 -0.3236
36834TIP3    H111384   6.162   5.357  10.738  3.3725 -1.4167  0.2149
36834TIP3    H211385   6.246   5.482  10.725  0.0972  0.8752 -0.1590
36835TIP3   OH211386   6.427   3.493   6.343  0.0987 -0.4837  0.0110
36835TIP3    H111387   6.503   3.496   6.400  0.5488 -0.0250 -0.6019
36835TIP3    H211388   6.375   3.420   6.377  0.2940 -0.1523  1.0651
36836TIP3   OH211389   0.533   7.744   8.800 -0.1775 -0.5279  0.2558
36836TIP3    H111390   0.627   7.755   8.807  0.0294 -1.6946 -0.4818
36836TIP3    H211391   0.521   7.674   8.736 -1.5902  0.8901 -1.1442
36837TIP3   OH211392   5.652   7.138   3.571 -0.4189 -0.3216  0.4259
36837TIP3    H111393   5.610   7.119   3.654  2.1979  3.2643  2.8842
36837TIP3    H211394   5.726   7.077   3.567 -1.3302 -1.4286 -0.0416
36838TIP3   OH211395   9.896   3.568   2.049  0.5440 -0.2590 -0.8252
36838TIP3    H111396   9.851   3.488   2.023 -1.4763  1.2394 -2.1842
36838TIP3    H211397   9.837   3.610   2.111  1.3273  0.4737 -0.5474
36839TIP3   OH211398   3.696   3.012   4.132 -0.3123 -0.3305  0.0372
36839TIP3    H111399   3.712   3.035   4.041  0.0458 -0.7048  0.0001
36839TIP3    H211400   3.739   2.927   4.143  0.1722 -0.0095  0.7073
36840TIP3   OH211401   6.763   7.188   4.759 -0.1522  0.2734 -0.8478
36840TIP3    H111402   6.714   7.265   4.731  1.1444  0.7024 -2.0644
36840TIP3    H211403   6.804   7.155   4.679  1.3953 -0.1643  0.0909
36841TIP3   OH211404   5.400   7.157   3.409  0.1192 -0.4455  0.0839
36841TIP3    H111405   5.484   7.163   3.363  1.1635  2.0400  2.0651
36841TIP3    H211406   5.412   7.087   3.473  0.3377 -0.7464 -0.2867
36842TIP3   OH211407   2.097   5.924   7.246 -0.0238  0.1425 -0.5105
36842TIP3    H111408   2.138   5.850   7.202  0.9185 -1.4555  2.7357
36842TIP3    H211409   2.147   6.000   7.216  2.0537 -1.1374 -0.4845
36843TIP3   OH211410   5.304   2.885   5.580  0.0722 -0.0770 -0.0418
36843TIP3    H111411   5.336   2.821   5.517  0.5996 -0.8278  0.9465
36843TIP3    H211412   5.224   2.920   5.541  0.2213 -0.7416 -0.9756
36844TIP3   OH211413  10.399   3.828   3.129  0.2907 -0.6686 -0.3146
36844TIP3    H111414  10.411   3.923   3.128  0.8925 -0.7064 -2.5783
36844TIP3    H211415  10.427   3.801   3.216 -0.1314  1.2434  0.4603
36845TIP3   OH211416   9.208   8.593   5.338 -0.5489 -0.1444 -0.0913
36845TIP3    H111417   9.221   8.535   5.413 -0.6877  1.0644  0.8968
36845TIP3    H211418   9.294   8.598   5.296  0.0201  0.6426  1.1051
36846TIP3   OH211419   1.236   9.027   2.037 -0.4125 -0.3871 -0.1063
36846TIP3    H111420   1.230   9.110   2.085  1.5003 -0.4294  0.3055
36846TIP3    H211421   1.319   9.034   1.989  0.5319 -2.6337  1.0711
36847TIP3   OH211422   3.537   7.600   1.208 -0.1642 -0.6511 -0.4416
36847TIP3    H111423   3.631   7.616   1.196  0.0208 -1.8653 -0.7591
36847TIP3    H211424   3.495   7.656   1.143  0.3854 -0.6217 -0.7760
36848TIP3   OH211425   2.821  10.330   7.459  0.0397  0.2971  0.3039
36848TIP3    H111426   2.740  10.364   7.421  0.5965  0.5821 -0.6595
36848TIP3    H211427   2.852  10.400   7.516  0.6656  1.0477 -0.9141
36849TIP3   OH211428   3.930   3.164   5.118  0.0452  0.4661 -0.4348
36849TIP3    H111429   3.968   3.159   5.206  1.0711 -0.8863 -0.9305
36849TIP3    H211430   3.836   3.172   5.134  0.2796  1.1004  0.7880
36850TIP3   OH211431   8.554   5.998   7.488 -0.3229 -0.0805  0.2812
36850TIP3    H111432   8.576   6.065   7.423 -3.3058  1.4760  0.6922
36850TIP3    H211433   8.598   6.027   7.568 -1.2242  1.2300  0.3402
36851TIP3   OH211434   2.002   4.509   4.751  0.5687  0.4358  0.0748
36851TIP3    H111435   1.948   4.587   4.736 -1.1750 -0.5792  0.7055
36851TIP3    H211436   2.051   4.497   4.670  0.5192  1.9003 -0.2018
36852TIP3   OH211437   4.500   1.624   9.494 -0.7008  0.2222 -0.4976
36852TIP3    H111438   4.556   1.693   9.458 -3.5415  2.0783 -1.7057
36852TIP3    H211439   4.439   1.670   9.551  0.1689 -2.0013  2.4716
36853TIP3   OH211440   6.993   6.622   5.199 -0.7662  0.2904 -0.4979
36853TIP3    H111441   7.071   6.675   5.216 -1.3682  1.1957 -0.5193
36853TIP3    H211442   6.948   6.618   5.283 -0.0731 -1.3126 -0.1586
36854TIP3   OH211443   1.881   9.716   6.262  0.1052  0.0779 -0.3531
36854TIP3    H111444   1.962   9.695   6.216  0.5896  3.0503 -1.0603
36854TIP3    H211445   1.882   9.812   6.270 -2.4822  0.0679  1.2433
36855TIP3   OH211446   6.741   9.252   4.767  0.3279  0.1733 -0.1753
36855TIP3    H111447   6.785   9.179   4.810 -0.8487 -0.2441  0.3545
36855TIP3    H211448   6.812   9.304   4.729  1.1955 -1.1509 -0.4188
36856TIP3   OH211449   4.445   2.043   2.723  0.0796 -0.2773 -0.3424
36856TIP3    H111450   4.532   2.015   2.751  0.2580  1.2780  0.8029
36856TIP3    H211451   4.405   2.081   2.802 -1.1202  0.2349 -1.1588
36857TIP3   OH211452   4.184   7.096   1.886 -0.3502 -0.0408 -0.2570
36857TIP3    H111453   4.251   7.036   1.853 -0.3092 -0.6061  0.7932
36857TIP3    H211454   4.230   7.178   1.902  0.1660 -0.4938  0.6773
36858TIP3   OH211455   6.630  10.660   1.200 -0.5686  0.0317 -0.0204
36858TIP3    H111456   6.582  10.645   1.119  0.5311 -0.2005 -0.6614
36858TIP3    H211457   6.656  10.753   1.196 -2.1555  0.5516  1.0116
36859TIP3   OH211458  10.752   7.412   6.637  0.3979  0.2531  0.1090
36859TIP3    H111459  10.765   7.338   6.696  1.0016  0.8477  0.7354
36859TIP3    H211460  10.839   7.450   6.626  0.1896  0.5329 -0.6666
36860TIP3   OH211461   9.046   7.139  10.590 -0.0946  0.0820  0.3168
36860TIP3    H111462   9.067   7.112  10.500 -1.6324  0.6672 -0.2561
36860TIP3    H211463   8.956   7.171  10.585 -0.9995 -1.8689  2.5056
36861TIP3   OH211464   7.226   1.843   0.567 -0.2605 -1.2499 -0.1808
36861TIP3    H111465   7.205   1.750   0.553  1.3364 -1.4737 -1.3445
36861TIP3    H211466   7.307   1.842   0.619  0.4682 -0.5523 -1.2655
36862TIP3   OH211467   9.825   5.543   9.318 -0.0654  0.3159 -0.6626
36862TIP3    H111468   9.828   5.621   9.374 -1.6551 -2.0905  3.1970
36862TIP3    H211469   9.915   5.511   9.318  0.0030  0.4423  0.5111
36863TIP3   OH211470  10.722  10.344   1.330 -0.3828 -0.0745 -0.1836
36863TIP3    H111471  10.634  10.317   1.305 -1.0132 -0.1701  1.9747
36863TIP3    H211472  10.750  10.279   1.395  0.3092  1.2602  0.9167
36864TIP3   OH211473   5.962   9.004   6.221 -0.3577  0.3999 -0.4074
36864TIP3    H111474   5.993   8.963   6.140 -0.8488 -0.2685 -0.2677
36864TIP3    H211475   5.998   8.949   6.291 -1.5559 -0.2018 -0.2388
36865TIP3   OH211476   3.371   6.006   4.451 -0.3127  0.1210  0.6193
36865TIP3    H111477   3.286   5.992   4.408 -0.5572 -0.0672  1.1609
36865TIP3    H211478   3.430   6.031   4.379 -1.2181  1.9720  0.4434
36866TIP3   OH211479   0.013   4.298   7.486  0.0115  0.2277  0.0877
36866TIP3    H111480   0.048   4.254   7.409 -1.0618  0.0482 -0.3117
36866TIP3    H211481  -0.076   4.323   7.462  0.2711  1.8165  0.6282
36867TIP3   OH211482   4.592   3.766   9.903  0.1765  0.0116  0.5927
36867TIP3    H111483   4.540   3.736   9.829  0.1584  0.1954  0.5299
36867TIP3    H211484   4.603   3.689   9.958  0.9102 -0.3337 -0.0213
36868TIP3   OH211485  10.770   5.988   6.506 -0.1057 -0.1968  0.2588
36868TIP3    H111486  10.798   5.931   6.434 -2.1309 -0.1934 -0.6017
36868TIP3    H211487  10.821   5.958   6.581  1.6018 -0.6315 -0.9990
36869TIP3   OH211488   1.924  10.016  10.851  0.2768 -0.0320 -0.1178
36869TIP3    H111489   1.904   9.957  10.924 -1.1017  1.0688  0.4396
36869TIP3    H211490   1.880  10.098  10.874  0.4917  0.5912 -1.8118
36870TIP3   OH211491   8.091   1.973   1.431 -0.9481  0.2689  0.1117
36870TIP3    H111492   8.091   1.982   1.526  1.7581  2.2246  0.0325
36870TIP3    H211493   8.140   1.893   1.414 -1.6007 -0.1857  0.3332
36871TIP3   OH211494   7.737   5.110  10.173 -1.1158  0.4919  0.0391
36871TIP3    H111495   7.802   5.164  10.217 -2.1676  3.2395 -1.4894
36871TIP3    H211496   7.770   5.021  10.180  3.1727  1.7605 -1.1771
36872TIP3   OH211497   1.395   9.458  10.572  0.4608  0.2032 -0.5235
36872TIP3    H111498   1.416   9.547  10.602 -1.1760  0.6359 -0.5510
36872TIP3    H211499   1.388   9.467  10.477 -0.8038  0.3070 -0.4291
36873TIP3   OH211500   1.754   9.227   5.065  0.0393  0.6147 -0.1294
36873TIP3    H111501   1.715   9.141   5.048  1.7726 -0.0264 -1.1631
36873TIP3    H211502   1.769   9.264   4.978  0.5276  1.3984  0.2736
36874TIP3   OH211503   7.255   5.969   6.542 -0.2043  0.2260  0.0905
36874TIP3    H111504   7.281   5.964   6.634 -1.2525  0.2248  0.4065
36874TIP3    H211505   7.210   5.886   6.525 -1.1548  0.7512 -0.0392
36875TIP3   OH211506  10.562   0.051   9.026 -0.4369 -0.2293  0.0039
36875TIP3    H111507  10.576   0.080   9.116 -1.5749 -2.0574  0.8441
36875TIP3    H211508  10.579  -0.043   9.028 -1.4551 -0.4855 -1.4455
36876TIP3   OH211509   4.250   7.621   8.262 -0.1178  0.2294 -0.5061
36876TIP3    H111510   4.169   7.598   8.216  1.2741 -0.2953 -2.8441
36876TIP3    H211511   4.221   7.678   8.334 -2.5113  0.3912 -1.5069
36877TIP3   OH211512   2.593   6.177   8.973 -0.3433 -0.4729  0.1098
36877TIP3    H111513   2.515   6.232   8.974 -0.8427 -1.1637  1.4657
36877TIP3    H211514   2.575   6.109   9.037 -0.1941 -2.8803 -2.2217
36878TIP3   OH211515  10.258  10.888   9.040 -0.5484 -0.4931  0.2820
36878TIP3    H111516  10.342  10.928   9.016 -0.1859 -1.7503 -0.6131
36878TIP3    H211517  10.203  10.901   8.963 -0.4634 -1.5817  0.0244
36879TIP3   OH211518   8.738   7.878   7.110 -0.3382 -0.1095 -0.5721
36879TIP3    H111519   8.799   7.854   7.180 -0.3343  0.0466 -0.5214
36879TIP3    H211520   8.707   7.795   7.075 -0.9431 -0.1823  0.1358
36880TIP3   OH211521   1.441   3.993   9.381 -0.2882  0.0699  0.5638
36880TIP3    H111522   1.429   3.927   9.450  3.1090 -1.4312 -0.0854
36880TIP3    H211523   1.483   4.066   9.426  1.4400 -0.6969  0.2680
36881TIP3   OH211524   4.826  10.398   8.101  0.4794  1.2383  0.1000
36881TIP3    H111525   4.750  10.433   8.054 -0.5319  1.2792  1.6650
36881TIP3    H211526   4.830  10.450   8.182  0.6806 -0.3617  1.1689
36882TIP3   OH211527   3.776  10.703   9.024  0.3672  0.1294 -0.0953
36882TIP3    H111528   3.805  10.783   8.980 -0.8587  1.3922  1.2602
36882TIP3    H211529   3.778  10.725   9.117 -0.4175 -1.2736  0.2844
36883TIP3   OH211530   9.052   0.466   7.754 -0.1023  0.2801 -0.3045
36883TIP3    H111531   9.053   0.479   7.849  0.2224 -0.1729 -0.2448
36883TIP3    H211532   9.128   0.411   7.736 -0.9219 -0.7799 -0.6629
36884TIP3   OH211533   9.183  10.300   1.152  0.2694  0.3456 -0.1969
36884TIP3    H111534   9.225  10.214   1.148 -0.2967  0.0861 -0.7715
36884TIP3    H211535   9.089  10.281   1.148  0.0846  0.9196  0.9936
36885TIP3   OH211536   7.689   3.587   0.502 -1.1402  0.1472 -0.2178
36885TIP3    H111537   7.692   3.600   0.407  0.7840 -0.5290 -0.2910
36885TIP3    H211538   7.657   3.497   0.513 -0.4100 -0.1222 -0.2712
36886TIP3   OH211539   5.515  10.644   2.496 -0.1972 -0.2529 -0.3453
36886TIP3    H111540   5.508  10.718   2.556  0.4939 -1.6126  1.5341
36886TIP3    H211541   5.592  10.595   2.526 -0.4140 -1.5442 -1.7284
36887TIP3   OH211542   2.236   6.691   4.058  0.2056 -0.1305 -0.5144
36887TIP3    H111543   2.180   6.768   4.073  0.4752  0.3025 -1.6546
36887TIP3    H211544   2.205   6.627   4.122 -0.0406  0.9097  0.4454
36888TIP3   OH211545  10.789   2.187   0.886 -0.3754  0.4266  0.5737
36888TIP3    H111546  10.845   2.192   0.964  0.4508  0.3786  0.0024
36888TIP3    H211547  10.814   2.264   0.835 -1.4801  0.8923  0.7204
36889TIP3   OH211548   5.578   9.836   8.369  0.0562 -0.3579 -0.1263
36889TIP3    H111549   5.554   9.905   8.431 -1.1950 -0.5128 -0.4111
36889TIP3    H211550   5.623   9.883   8.298 -1.0311  0.2232 -0.4527
36890TIP3   OH211551   9.878   8.385   1.468 -0.1286  0.5274 -0.2642
36890TIP3    H111552   9.970   8.410   1.477  0.3961 -1.5152  0.6186
36890TIP3    H211553   9.847   8.376   1.558  0.7109 -4.9509 -0.1940
36891TIP3   OH211554   6.399   0.333   9.325  0.6685  0.0607  0.8456
36891TIP3    H111555   6.307   0.322   9.301  0.7101  1.2339  0.0639
36891TIP3    H211556   6.427   0.246   9.355 -0.6120 -0.3697  0.8399
36892TIP3   OH211557   5.879   0.292   9.457  0.5541  0.1980  0.3940
36892TIP3    H111558   5.816   0.228   9.427 -0.8630  1.1337  1.2425
36892TIP3    H211559   5.833   0.341   9.525  0.5393  3.9222 -2.0199
36893TIP3   OH211560   3.547   7.667   2.877  0.1009 -0.0919  0.1201
36893TIP3    H111561   3.553   7.743   2.934  0.6197 -1.2800  1.7114
36893TIP3    H211562   3.558   7.702   2.789 -0.2965  1.7350  0.7650
36894TIP3   OH211563  10.799   2.298   2.365  0.0275 -0.1089 -0.1032
36894TIP3    H111564  10.840   2.212   2.352  0.6463  0.1207  0.2966
36894TIP3    H211565  10.823   2.348   2.288  0.1086 -0.1210 -0.0854
36895TIP3   OH211566   3.395   6.960   5.532  0.4780  0.0556  0.2635
36895TIP3    H111567   3.377   6.875   5.493 -1.7465  0.1517  0.9358
36895TIP3    H211568   3.473   6.992   5.487 -1.2298 -0.3435 -3.3056
36896TIP3   OH211569   7.557  10.288   5.110 -0.2616 -0.7097 -0.4655
36896TIP3    H111570   7.642  10.330   5.122  0.2691 -0.1700 -4.5914
36896TIP3    H211571   7.496  10.361   5.099 -0.7629 -1.0962 -0.2748
36897TIP3   OH211572   3.876   4.357  10.069  0.1069 -0.0538 -0.4261
36897TIP3    H111573   3.797   4.302  10.060 -0.2014  0.4490 -0.8436
36897TIP3    H211574   3.907   4.369   9.979 -0.3103  1.1424 -0.4260
36898TIP3   OH211575   8.189   9.027   1.468  0.1333 -0.1017 -0.3913
36898TIP3    H111576   8.273   9.060   1.500  0.4065 -0.1339 -1.0529
36898TIP3    H211577   8.152   9.101   1.420  0.2988 -0.4452 -1.0508
36899TIP3   OH211578   3.786   4.526   1.122 -0.0908 -0.4658 -0.1257
36899TIP3    H111579   3.868   4.515   1.170  0.0983 -1.7133 -0.7110
36899TIP3    H211580   3.741   4.442   1.131 -0.4804 -0.4070 -1.3230
36900TIP3   OH211581   5.864   8.210   4.083 -0.0444 -0.2953  0.1064
36900TIP3    H111582   5.853   8.188   3.990  0.0182  1.9150 -0.4805
36900TIP3    H211583   5.781   8.184   4.123 -0.9760  0.8042 -1.0283
36901TIP3   OH211584   6.566   2.250   7.034 -0.1225  0.2368  0.8870
36901TIP3    H111585   6.610   2.302   7.102  0.5917 -0.9628  1.3823
36901TIP3    H211586   6.577   2.159   7.063 -0.7652 -0.2329 -0.2823
36902TIP3   OH211587   9.248   0.528   8.550 -0.0493  0.0994  0.6128
36902TIP3    H111588   9.246   0.455   8.612 -2.4953 -0.2621  0.1779
36902TIP3    H211589   9.235   0.606   8.603  1.2031  0.1212  0.9140
36903TIP3   OH211590   6.783   6.222   2.816 -0.2235  0.1823  0.0356
36903TIP3    H111591   6.751   6.294   2.870 -1.9383 -0.9254  0.6120
36903TIP3    H211592   6.859   6.188   2.864  0.3910  1.3526 -0.0731
36904TIP3   OH211593   0.612   3.763   8.804 -0.4801 -0.2573  0.0831
36904TIP3    H111594   0.581   3.767   8.713  0.3318 -1.3432 -0.2668
36904TIP3    H211595   0.569   3.686   8.841 -1.8909  0.9475  1.0840
36905TIP3   OH211596  10.148   2.692   5.650 -0.4426 -0.5023  0.3656
36905TIP3    H111597  10.176   2.717   5.563  1.1577  0.4796  1.1359
36905TIP3    H211598  10.087   2.761   5.677 -0.5716 -0.5583  0.2199
36906TIP3   OH211599   1.355   3.878   0.359 -0.2416  0.3145  0.5575
36906TIP3    H111600   1.338   3.918   0.444  0.8163  1.2379  0.3557
36906TIP3    H211601   1.402   3.797   0.380 -0.5813  0.1959  0.8740
36907TIP3   OH211602   1.686   3.085   7.351 -0.4183 -0.4820  0.2330
36907TIP3    H111603   1.642   3.113   7.430  0.3606 -1.4686  1.0402
36907TIP3    H211604   1.775   3.120   7.359 -1.3781  3.1100 -2.2255
36908TIP3   OH211605   8.423   1.649   0.795  0.2807 -0.0748 -0.4127
36908TIP3    H111606   8.341   1.624   0.837  0.6565  0.2650  0.5722
36908TIP3    H211607   8.442   1.578   0.735 -0.9231  0.0254 -0.9395
36909TIP3   OH211608   9.045   7.726   5.262  0.0528  0.0097  0.3406
36909TIP3    H111609   9.076   7.766   5.343  0.0275 -1.7199  1.2525
36909TIP3    H211610   9.104   7.652   5.246 -1.2534 -1.0236  0.0275
36910TIP3   OH211611   9.547   9.173   9.624 -0.3638 -0.0850  0.1198
36910TIP3    H111612   9.612   9.190   9.692 -0.9666  0.7767  0.4972
36910TIP3    H211613   9.477   9.124   9.668  0.1947 -1.3917 -0.3838
36911TIP3   OH211614   3.914  10.818   0.312 -0.0994  0.3209  0.5839
36911TIP3    H111615   3.827  10.858   0.323 -0.3153  0.2581 -0.7429
36911TIP3    H211616   3.969  10.888   0.279 -0.2932 -0.2274 -1.0161
36912TIP3   OH211617   1.548   9.180   6.085  0.0702  0.1639 -0.1675
36912TIP3    H111618   1.540   9.140   6.172  0.1020  0.5117 -0.0029
36912TIP3    H211619   1.642   9.180   6.068 -0.0742 -2.1268 -1.2557
36913TIP3   OH211620   8.342   2.874   1.920 -0.5374  0.3800 -0.4439
36913TIP3    H111621   8.405   2.847   1.853  0.2791  1.2023 -0.0354
36913TIP3    H211622   8.315   2.793   1.963 -1.6235 -0.2507 -2.2106
36914TIP3   OH211623   8.308   3.254   0.729  0.6396 -0.3571  0.1669
36914TIP3    H111624   8.398   3.251   0.695  1.3808 -1.9090  2.0400
36914TIP3    H211625   8.288   3.163   0.751 -1.2802  0.0159  0.1569
36915TIP3   OH211626   8.113   2.112   7.486  0.5143 -1.0139 -0.1438
36915TIP3    H111627   8.142   2.172   7.417  0.3676 -0.4973  0.2368
36915TIP3    H211628   8.048   2.162   7.535  1.2166 -1.0832  0.8764
36916TIP3   OH211629  10.744   5.392   5.042  0.1787 -0.0850  0.7231
36916TIP3    H111630  10.648   5.393   5.038  0.1808  2.3383 -2.4013
36916TIP3    H211631  10.769   5.313   4.994 -0.1374 -1.6513  2.9664
36917TIP3   OH211632   6.274   5.858   7.038  0.1324  0.3342  0.0117
36917TIP3    H111633   6.281   5.828   7.129 -0.7461  0.1898  0.0414
36917TIP3    H211634   6.294   5.951   7.042 -1.4273  0.6730  0.6095
36918TIP3   OH211635   1.167   7.874   9.314 -0.0319 -0.1599 -0.4882
36918TIP3    H111636   1.206   7.893   9.228  0.3449  0.3873 -0.2038
36918TIP3    H211637   1.075   7.896   9.304 -0.2563 -1.3139 -1.1250
36919TIP3   OH211638   9.583   4.522   1.845  0.0793  0.2532 -0.0613
36919TIP3    H111639   9.493   4.553   1.843 -0.2463 -0.5904  0.6909
36919TIP3    H211640   9.623   4.567   1.919 -0.2557 -0.7166  0.7291
36920TIP3   OH211641   0.891   5.411   6.683  0.3007 -0.5640  0.1947
36920TIP3    H111642   0.947   5.474   6.729 -0.8800 -0.1819  1.1694
36920TIP3    H211643   0.841   5.464   6.621 -0.4419 -0.5765  0.7692
36921TIP3   OH211644   8.671  10.621   8.752 -0.3799 -0.3220 -0.2572
36921TIP3    H111645   8.615  10.594   8.680 -1.5747  0.0422  0.5051
36921TIP3    H211646   8.611  10.642   8.823  0.6571  1.4041  0.1705
36922TIP3   OH211647   7.425   1.185   2.823  0.0871 -0.0486 -0.0032
36922TIP3    H111648   7.429   1.279   2.839  2.6888  0.2132 -1.6721
36922TIP3    H211649   7.345   1.156   2.868 -1.9281  3.2441 -1.1659
36923TIP3   OH211650   0.302   6.697  10.595 -0.0692 -0.0426  0.1938
36923TIP3    H111651   0.306   6.669  10.504 -1.0947 -0.1204  0.1619
36923TIP3    H211652   0.235   6.765  10.596 -1.4446 -1.3569  1.2112
36924TIP3   OH211653   6.856   5.897  10.592  0.1543 -0.6050  0.4198
36924TIP3    H111654   6.773   5.938  10.618  1.6355  1.8055  1.7045
36924TIP3    H211655   6.858   5.815  10.640 -1.3984 -0.6516  0.4684
36925TIP3   OH211656   1.140  10.630   0.902  0.5023 -0.6121 -0.3831
36925TIP3    H111657   1.194  10.594   0.832  1.4218 -0.4491  0.2288
36925TIP3    H211658   1.194  10.623   0.981 -0.7974 -1.5062  0.4722
36926TIP3   OH211659   8.170   1.626   4.948  0.4046  0.3398 -0.1840
36926TIP3    H111660   8.130   1.606   5.033  0.2631 -0.8657 -0.5179
36926TIP3    H211661   8.181   1.722   4.948  1.8067  0.2408  1.8267
36927TIP3   OH211662   4.104   1.085   9.578  0.5926  0.4745 -0.2729
36927TIP3    H111663   4.141   1.086   9.666  0.5360  0.4708 -0.2489
36927TIP3    H211664   4.151   1.154   9.531  0.5508  0.5464 -0.2096
36928TIP3   OH211665   5.855   3.657   0.323  0.5946  0.3566 -0.2992
36928TIP3    H111666   5.929   3.620   0.275 -1.8410 -0.3639 -3.8497
36928TIP3    H211667   5.832   3.736   0.274 -1.6575 -0.0610 -0.0035
36929TIP3   OH211668   4.519   5.193   0.302 -0.1614  0.7674 -0.6941
36929TIP3    H111669   4.508   5.105   0.268 -2.6277 -0.2729  2.2781
36929TIP3    H211670   4.459   5.246   0.249 -0.7733  0.0723 -0.7166
36930TIP3   OH211671   7.022   0.337   3.422  0.2689  0.0234 -0.2718
36930TIP3    H111672   7.012   0.428   3.451  1.0539  0.8937 -2.5612
36930TIP3    H211673   7.099   0.306   3.470 -0.4565  0.2680  1.1186
36931TIP3   OH211674   8.338   4.044   2.652  0.4299  0.3095 -0.5023
36931TIP3    H111675   8.343   4.137   2.630  0.9723  0.6039  0.7951
36931TIP3    H211676   8.367   4.039   2.743  0.9276 -1.2028 -0.7174
36932TIP3   OH211677   2.814   0.813   1.174  0.3933  0.2365 -0.5011
36932TIP3    H111678   2.907   0.823   1.194  0.2666 -0.8828  0.7729
36932TIP3    H211679   2.773   0.798   1.259 -0.7885 -0.4019 -1.1731
36933TIP3   OH211680   9.076   4.340   8.349 -0.0469  0.3802  0.1891
36933TIP3    H111681   9.081   4.244   8.348 -0.5679  0.3311  1.3900
36933TIP3    H211682   9.056   4.363   8.258  1.4360 -0.5477 -0.4103
36934TIP3   OH211683   5.917   4.911   7.427 -0.5362 -0.8894  0.0556
36934TIP3    H111684   5.999   4.895   7.474 -0.7423 -0.2884  0.6275
36934TIP3    H211685   5.919   4.849   7.354  0.9029 -0.1992 -0.5239
36935TIP3   OH211686   4.836   8.899   6.930 -0.1154  0.0380 -0.0962
36935TIP3    H111687   4.843   8.903   6.834  1.4342 -0.0712 -0.0170
36935TIP3    H211688   4.927   8.905   6.960 -0.2308 -3.3113  1.2643
36936TIP3   OH211689   8.233   1.330   9.359  0.0473 -0.2972 -0.4811
36936TIP3    H111690   8.200   1.242   9.376 -0.1016 -0.1247  0.1706
36936TIP3    H211691   8.302   1.343   9.425  0.3582 -0.0819 -0.8431
36937TIP3   OH211692   6.251   3.385   1.890  0.3623  0.5245  1.0141
36937TIP3    H111693   6.170   3.435   1.880 -0.0862 -0.3857 -0.1528
36937TIP3    H211694   6.302   3.407   1.813 -0.7485 -2.3483 -0.7182
36938TIP3   OH211695   0.245   9.866   9.649  0.2324  0.8426  0.1122
36938TIP3    H111696   0.245   9.811   9.728  0.2039 -0.2688 -0.6425
36938TIP3    H211697   0.333   9.858   9.614 -0.1485  0.1962 -0.7274
36939TIP3   OH211698   8.946  10.582  10.210 -0.4698  0.2512  0.5991
36939TIP3    H111699   9.032  10.561  10.173 -0.8134  0.1170 -0.1305
36939TIP3    H211700   8.965  10.605  10.302  0.3509  0.3038  0.4275
36940TIP3   OH211701   7.257  10.894   9.753  0.1174  0.3802 -0.1950
36940TIP3    H111702   7.173  10.931   9.779  1.1071  0.0095  4.2320
36940TIP3    H211703   7.241  10.800   9.748  0.3758  0.2000  1.6421
36941TIP3   OH211704   8.935   3.308   8.140 -0.0077  0.8308 -0.1993
36941TIP3    H111705   8.991   3.251   8.193 -0.3430  0.7398  0.0613
36941TIP3    H211706   8.939   3.270   8.052 -1.1397 -0.3094  0.2032
36942TIP3   OH211707   6.627   6.371   3.802  0.4113  0.3202  0.3154
36942TIP3    H111708   6.689   6.407   3.740  1.3393 -0.0995  0.9744
36942TIP3    H211709   6.629   6.432   3.876 -0.5204  0.7006  0.0403
36943TIP3   OH211710   2.320   8.957   0.690 -0.1855 -0.9447  0.2221
36943TIP3    H111711   2.241   8.918   0.652  0.9139 -1.9219 -1.2341
36943TIP3    H211712   2.340   8.902   0.765 -1.9643  0.5410  1.8927
36944TIP3   OH211713   3.054   3.846   0.124 -0.1260  0.1162  0.2976
36944TIP3    H111714   2.998   3.835   0.201  0.3259 -0.1759  0.5876
36944TIP3    H211715   3.120   3.909   0.151 -0.1346  0.2272  0.0566
36945TIP3   OH211716   6.806   4.247   7.648  0.0093  0.9338 -0.3730
36945TIP3    H111717   6.768   4.328   7.680  0.3544  0.1328  2.3297
36945TIP3    H211718   6.895   4.247   7.682 -0.5201 -1.3113  1.2231
36946TIP3   OH211719  10.900   8.587   7.964 -0.3123 -1.0167 -0.0185
36946TIP3    H111720  10.857   8.621   8.043 -1.6761  1.0707 -1.5602
36946TIP3    H211721  10.833   8.594   7.896  1.1655 -1.7620 -1.6015
36947TIP3   OH211722   1.341   6.860   6.579 -0.0506 -0.3168 -0.2329
36947TIP3    H111723   1.281   6.921   6.619  0.6250  0.1792  0.0446
36947TIP3    H211724   1.420   6.912   6.560  0.1502 -0.8583 -0.9304
36948TIP3   OH211725   7.198   1.110   3.066  0.4090 -0.2468 -0.5447
36948TIP3    H111726   7.118   1.105   3.118  0.0706  1.2556 -0.8724
36948TIP3    H211727   7.266   1.135   3.129  0.3439 -0.1661 -0.5062
36949TIP3   OH211728   6.517   4.580  10.474 -0.4408  0.2871 -0.0867
36949TIP3    H111729   6.557   4.636  10.407  0.6507 -1.1288 -0.6677
36949TIP3    H211730   6.554   4.611  10.556 -0.0059  0.5584 -0.3791
36950TIP3   OH211731   1.097   4.053  10.402 -0.1630 -0.1464  0.1776
36950TIP3    H111732   1.132   4.118  10.463 -1.6322  0.1933  0.7010
36950TIP3    H211733   1.115   4.089  10.315  0.6107  0.0919  0.4278
36951TIP3   OH211734   1.371   2.893   3.831 -0.6309  0.0823  0.2840
36951TIP3    H111735   1.276   2.894   3.825 -0.5271  0.5282 -1.9081
36951TIP3    H211736   1.396   2.805   3.802 -0.3238  0.2840 -0.0580
36952TIP3   OH211737   8.769  10.666   7.158 -0.1981  0.4268  0.4369
36952TIP3    H111738   8.846  10.706   7.198 -0.4485  0.3362  1.0156
36952TIP3    H211739   8.742  10.727   7.090 -0.6988  1.3625  1.4395
36953TIP3   OH211740   4.717   2.340   3.350 -0.6089  0.3517  0.1818
36953TIP3    H111741   4.751   2.425   3.323 -1.1567  1.1579  1.9205
36953TIP3    H211742   4.738   2.334   3.443  0.7528 -2.0840 -0.1793
36954TIP3   OH211743   5.285   7.441   6.513 -0.6983 -0.1832  0.5443
36954TIP3    H111744   5.375   7.457   6.541 -0.1184 -1.0282 -0.7041
36954TIP3    H211745   5.273   7.498   6.437 -1.5222  0.5566  1.2180
36955TIP3   OH211746   2.566   2.584   3.198 -0.3680  0.0209 -0.2256
36955TIP3    H111747   2.511   2.626   3.264 -2.0836 -0.0469 -1.5307
36955TIP3    H211748   2.653   2.581   3.237 -1.3692 -0.3327  2.1692
36956TIP3   OH211749   1.682   5.862   9.519 -0.4954  0.0633  0.0819
36956TIP3    H111750   1.712   5.795   9.457 -0.1524  1.0457 -0.8405
36956TIP3    H211751   1.736   5.848   9.597  1.7298  1.1366 -1.1729
36957TIP3   OH211752   2.383   0.911   1.321  0.3611 -0.0236  0.3777
36957TIP3    H111753   2.432   0.972   1.377  0.8425 -0.3522  0.3239
36957TIP3    H211754   2.439   0.833   1.316  0.9394  0.4669 -1.6193
36958TIP3   OH211755   9.321   5.416   3.294  0.4107  0.1839 -0.0860
36958TIP3    H111756   9.281   5.440   3.210 -0.9641  0.9755  0.7403
36958TIP3    H211757   9.296   5.325   3.307 -0.2302  0.3454 -0.1039
36959TIP3   OH211758   7.292   8.743   1.966 -0.2223 -0.1742 -0.1189
36959TIP3    H111759   7.250   8.817   2.009 -1.0441  1.5385 -3.5018
36959TIP3    H211760   7.377   8.776   1.937  0.1131 -1.0909 -0.2341
36960TIP3   OH211761  10.580   5.058   8.037 -0.4082  0.2875  0.3817
36960TIP3    H111762  10.487   5.070   8.054 -0.5586 -1.1051  0.6536
36960TIP3    H211763  10.598   4.967   8.062  0.8691  0.3132 -0.3499
36961TIP3   OH211764   9.058  10.693   8.964 -0.3893  0.4706 -0.3562
36961TIP3    H111765   9.014  10.701   8.880  1.6586  0.5683 -1.5035
36961TIP3    H211766   9.071  10.783   8.993 -1.7636  0.4233  0.4803
36962TIP3   OH211767   3.217   0.294   7.850 -0.1343  0.4027 -0.1310
36962TIP3    H111768   3.213   0.362   7.783 -0.9605  0.9281  0.4366
36962TIP3    H211769   3.249   0.217   7.804 -2.6887  0.1589 -1.6334
36963TIP3   OH211770   9.145   6.510   9.617  0.2589 -0.0408  0.0056
36963TIP3    H111771   9.234   6.489   9.590  1.2456 -0.1807  3.0438
36963TIP3    H211772   9.151   6.600   9.651 -1.4019  0.9751 -2.1158
36964TIP3   OH211773   6.224   7.365   2.673 -0.2227 -0.8087 -0.6386
36964TIP3    H111774   6.201   7.274   2.651 -2.6464 -0.0833 -1.3802
36964TIP3    H211775   6.244   7.363   2.767  2.3972 -2.5266 -1.1199
36965TIP3   OH211776   4.343   0.133   8.789 -0.0692 -0.6961 -0.1692
36965TIP3    H111777   4.256   0.092   8.790 -0.3957 -0.0259  0.6638
36965TIP3    H211778   4.396   0.076   8.734 -0.2042 -2.8915  1.8222
36966TIP3   OH211779   7.216   6.937  10.670  0.1104  0.3975 -0.4716
36966TIP3    H111780   7.160   6.895  10.605 -0.1914  1.4548 -0.9038
36966TIP3    H211781   7.304   6.904  10.650  0.2423  1.7605 -2.3065
36967TIP3   OH211782   2.013   1.029   7.384 -0.1306 -0.3730  0.3021
36967TIP3    H111783   2.070   0.965   7.342  1.5363  0.6695  0.8969
36967TIP3    H211784   2.039   1.113   7.348 -1.2506  0.1500  0.6487
36968TIP3   OH211785   3.751   3.731   0.345 -0.3654 -0.5144  0.4351
36968TIP3    H111786   3.741   3.744   0.439 -1.0537  0.4307  0.2535
36968TIP3    H211787   3.663   3.745   0.309  0.1705  0.7628 -0.4961
36969TIP3   OH211788   4.159   6.905   3.719  0.0833  0.0134 -0.2015
36969TIP3    H111789   4.183   6.996   3.737  0.5047 -0.3848  1.4491
36969TIP3    H211790   4.243   6.858   3.720 -0.3674 -0.8900  2.3797
36970TIP3   OH211791   9.002   4.230   8.788  1.2546 -0.6118 -0.2237
36970TIP3    H111792   8.985   4.322   8.771  0.1176 -0.6047  0.8222
36970TIP3    H211793   9.057   4.229   8.866  0.7550 -0.8196  0.1350
36971TIP3   OH211794   7.289   6.206   4.561  0.0369 -0.4915 -0.5564
36971TIP3    H111795   7.345   6.135   4.592 -1.6482 -1.7926 -0.3341
36971TIP3    H211796   7.220   6.162   4.511 -1.5821  0.8810  0.3743
36972TIP3   OH211797   5.577   7.618   7.225  0.6303  0.1850  0.3619
36972TIP3    H111798   5.590   7.566   7.304 -1.3285  0.2373  0.7809
36972TIP3    H211799   5.630   7.575   7.158  0.1935 -1.5096  1.0443
36973TIP3   OH211800   7.486   5.425   1.852  0.2986  0.1657 -0.4633
36973TIP3    H111801   7.446   5.385   1.930  0.5671  0.7591 -0.0154
36973TIP3    H211802   7.567   5.375   1.839  0.4314  0.2949 -0.1479
36974TIP3   OH211803   6.827   6.725   3.648 -0.6803 -0.0945 -0.0788
36974TIP3    H111804   6.852   6.786   3.717 -1.5688  0.0205  0.1537
36974TIP3    H211805   6.886   6.650   3.660 -0.7263 -0.0137  0.7112
36975TIP3   OH211806   7.111   7.002   6.206 -0.2476 -0.5168 -0.3154
36975TIP3    H111807   7.110   6.989   6.111  1.1768 -0.6629 -0.3186
36975TIP3    H211808   7.193   6.962   6.235 -0.7861 -0.6993  1.0145
36976TIP3   OH211809  10.505  10.555   7.969  0.2424  0.0479 -0.2130
36976TIP3    H111810  10.531  10.610   8.043 -2.0833 -0.1419  0.8310
36976TIP3    H211811  10.576  10.491   7.961  1.3948  1.1515  0.6837
36977TIP3   OH211812   6.579   7.179   4.443 -0.0158  0.0381 -0.3960
36977TIP3    H111813   6.671   7.161   4.425  0.5077 -0.0491  2.0338
36977TIP3    H211814   6.580   7.257   4.498 -1.3961  0.0253 -0.3096
36978TIP3   OH211815   7.460   4.835   7.142  0.5784 -0.2405  0.3776
36978TIP3    H111816   7.517   4.825   7.066  0.1000  0.7018 -0.1175
36978TIP3    H211817   7.502   4.902   7.195 -0.3718  0.9379 -0.3103
36979TIP3   OH211818   8.918   0.396   7.341  0.2369 -0.1144 -0.4062
36979TIP3    H111819   8.916   0.476   7.289  0.9324 -2.1256 -3.9142
36979TIP3    H211820   8.839   0.349   7.314 -1.2436  0.0785  3.0693
36980TIP3   OH211821   7.764   2.825   5.225 -0.4408 -0.0995 -0.3250
36980TIP3    H111822   7.678   2.863   5.207  0.4002  1.8703 -0.4170
36980TIP3    H211823   7.762   2.804   5.318 -1.6715 -1.9268 -0.7104
36981TIP3   OH211824   7.056   2.505   5.654  0.6451 -0.7722 -0.0126
36981TIP3    H111825   7.062   2.556   5.573 -2.6991 -1.6750 -1.0143
36981TIP3    H211826   7.076   2.415   5.626  1.7482 -0.7784  0.7200
36982TIP3   OH211827   4.078   5.859   6.137 -0.2852 -0.0839 -0.0941
36982TIP3    H111828   4.091   5.774   6.181 -0.3789  0.8983  1.9387
36982TIP3    H211829   4.161   5.874   6.091 -0.0914 -1.0670 -0.0923
36983TIP3   OH211830   5.420   5.018  10.755  0.4938  0.3715  0.2101
36983TIP3    H111831   5.405   5.112  10.754 -1.9946  0.0505 -0.7434
36983TIP3    H211832   5.333   4.980  10.766  1.3863 -1.8406  0.2407
36984TIP3   OH211833   5.071   1.744   0.246  0.2147 -0.1402 -0.2951
36984TIP3    H111834   5.007   1.699   0.191  0.5656 -0.2415 -0.6234
36984TIP3    H211835   5.156   1.716   0.212  0.4352  0.4905 -0.2806
36985TIP3   OH211836   4.102   0.694   1.456 -0.5023  0.1703 -0.0773
36985TIP3    H111837   4.112   0.604   1.487  0.6828  0.6515  0.9981
36985TIP3    H211838   4.065   0.742   1.531 -1.3055  0.5551 -0.6989
36986TIP3   OH211839   6.844   7.560   4.659  0.3732 -0.1591 -0.0794
36986TIP3    H111840   6.810   7.543   4.571 -0.4342 -2.2518  0.5915
36986TIP3    H211841   6.775   7.532   4.718  0.9056  1.2078  1.2590
36987TIP3   OH211842   5.268   1.281   1.972  0.5351 -0.2171  0.0471
36987TIP3    H111843   5.221   1.212   1.924  1.4824 -1.0680  0.3063
36987TIP3    H211844   5.360   1.269   1.946  0.7169  0.9269  0.1360
36988TIP3   OH211845   0.770   1.602  10.826  0.3254 -0.1037  0.1092
36988TIP3    H111846   0.773   1.588  10.921  1.9310 -1.0436 -0.0348
36988TIP3    H211847   0.741   1.519  10.790  0.4021  0.0246 -0.2520
36989TIP3   OH211848   1.109   8.416   1.874 -0.3391  0.0986 -0.2002
36989TIP3    H111849   1.144   8.361   1.944 -0.6254 -0.0433 -0.1674
36989TIP3    H211850   1.087   8.355   1.803 -2.6872 -0.1305  0.6341
36990TIP3   OH211851   9.909   9.647   5.834  0.7558 -0.2164 -0.3105
36990TIP3    H111852   9.867   9.724   5.795 -1.2220 -1.1419 -0.1287
36990TIP3    H211853   9.953   9.603   5.762  1.2954  0.6956 -0.5460
36991TIP3   OH211854   2.912   4.212   8.032  0.2069 -0.3079  0.0437
36991TIP3    H111855   2.934   4.302   8.055 -0.7119 -0.2629  0.8057
36991TIP3    H211856   2.993   4.176   7.996  0.6083  0.7911 -0.1948
36992TIP3   OH211857   8.022   6.522   0.557 -0.0427  0.0449 -0.6011
36992TIP3    H111858   8.089   6.504   0.491 -0.7758  0.4600 -1.4872
36992TIP3    H211859   8.070   6.562   0.629  0.9458 -1.4455 -0.3890
36993TIP3   OH211860   9.998   0.934   4.537 -0.5922 -0.3511  0.2865
36993TIP3    H111861   9.963   0.962   4.621  0.7917 -2.3818  1.6196
36993TIP3    H211862  10.080   0.983   4.528  0.3967 -1.7638  1.2549
36994TIP3   OH211863   7.258   0.922   4.802 -0.7696  0.4406  0.1495
36994TIP3    H111864   7.238   1.007   4.840  1.4910  1.1070  0.0484
36994TIP3    H211865   7.243   0.934   4.708 -3.0307 -0.1411  0.3989
36995TIP3   OH211866  10.364   4.985   5.276 -0.1936 -0.4894 -0.3350
36995TIP3    H111867  10.345   4.972   5.183 -0.8175 -0.4582 -0.2139
36995TIP3    H211868  10.347   5.077   5.292 -0.7461 -0.6421 -0.0366
36996TIP3   OH211869   9.075   3.174   7.609 -0.1197 -0.0727  0.2478
36996TIP3    H111870   9.069   3.258   7.563  1.8544 -0.6737 -1.2635
36996TIP3    H211871   9.034   3.111   7.550  1.2516 -0.6356 -0.1628
36997TIP3   OH211872   8.039   6.925  10.343  0.5514 -0.1295  0.3323
36997TIP3    H111873   8.031   6.970  10.427  2.9217  1.4408 -0.1833
36997TIP3    H211874   8.120   6.875  10.350  0.6354 -0.1985 -0.9080
36998TIP3   OH211875   4.181   9.029   9.739 -0.0583 -0.0072 -0.6126
36998TIP3    H111876   4.180   9.076   9.656 -1.9221 -1.8636 -1.7395
36998TIP3    H211877   4.139   9.090   9.801  2.2414  1.7853 -0.6972
36999TIP3   OH211878   4.879   9.778   6.304 -0.1891 -0.1866  0.1934
36999TIP3    H111879   4.850   9.848   6.245 -0.5559  0.0061  0.5931
36999TIP3    H211880   4.899   9.705   6.246  0.0295  0.1910 -0.2157
37000TIP3   OH211881   8.892   7.077  10.810 -0.2044 -0.0515 -0.1286
37000TIP3    H111882   8.821   7.028  10.770  0.7770 -2.3934  0.8590
37000TIP3    H211883   8.953   7.095  10.738 -1.9901  2.6224 -1.1445
37001TIP3   OH211884   6.721   0.306   9.084 -0.3971 -0.0133  0.0412
37001TIP3    H111885   6.775   0.381   9.109  1.6085 -1.0842 -0.8424
37001TIP3    H211886   6.784   0.240   9.054 -2.2454 -1.0490 -1.8353
37002TIP3   OH211887   7.616   5.567   4.494 -0.6025  0.2795 -0.0346
37002TIP3    H111888   7.521   5.571   4.495 -0.7152 -0.9487  2.1848
37002TIP3    H211889   7.644   5.650   4.532 -0.8650  0.0903  0.5830
37003TIP3   OH211890   2.474   4.819   8.971  0.2831 -0.0600  0.1599
37003TIP3    H111891   2.387   4.780   8.981  0.3837 -0.1236  0.7922
37003TIP3    H211892   2.480   4.884   9.041 -0.9353  3.1127 -2.4267
37004TIP3   OH211893   9.412   3.333   3.616 -0.5973 -0.2366  0.4215
37004TIP3    H111894   9.356   3.267   3.575  0.5173 -0.6816 -0.4386
37004TIP3    H211895   9.476   3.282   3.666 -0.2755  0.2173  0.4743
37005TIP3   OH211896   4.615   3.348   1.134  0.0255  0.3624 -0.2912
37005TIP3    H111897   4.700   3.390   1.124  0.0924  0.2065 -0.3947
37005TIP3    H211898   4.636   3.255   1.146 -0.1326  0.3110 -0.4023
37006TIP3   OH211899   8.181  10.165   3.269 -0.1609 -0.4093  0.1354
37006TIP3    H111900   8.103  10.110   3.283 -0.1867 -0.1019  1.3386
37006TIP3    H211901   8.253  10.103   3.258 -0.2667 -0.6974  1.0158
37007TIP3   OH211902   6.544   4.172   9.280  0.4867  0.1354 -0.1972
37007TIP3    H111903   6.488   4.212   9.213  0.8475 -0.6842 -1.0150
37007TIP3    H211904   6.499   4.090   9.302  0.4734  0.3069  0.4180
37008TIP3   OH211905   5.405   6.350   0.426  0.0130 -0.0863 -0.7428
37008TIP3    H111906   5.469   6.376   0.491  0.0739 -3.3542  0.7307
37008TIP3    H211907   5.323   6.391   0.454  0.7093  1.2699 -0.6211
37009TIP3   OH211908  10.117   8.497   1.729  0.3198  0.1563  0.5112
37009TIP3    H111909  10.209   8.501   1.703  0.4614  1.5042  1.0981
37009TIP3    H211910  10.096   8.587   1.756 -1.1981 -0.1077  0.3021
37010TIP3   OH211911   7.297   0.738   9.743  0.1166 -0.5589  0.1060
37010TIP3    H111912   7.303   0.817   9.689 -2.3567  0.6910  1.4956
37010TIP3    H211913   7.304   0.666   9.680  2.6031  0.6634 -1.1826
37011TIP3   OH211914   5.212  10.788   5.572  0.2096  0.1146  0.6669
37011TIP3    H111915   5.131  10.793   5.623  0.3027 -2.3236  1.1651
37011TIP3    H211916   5.186  10.819   5.485 -1.2966 -0.6819  0.7900
37012TIP3   OH211917   6.220   3.944   5.166  0.2479 -0.3122 -0.1224
37012TIP3    H111918   6.154   4.004   5.200 -1.0414 -1.7578  0.0501
37012TIP3    H211919   6.269   3.915   5.244 -0.8637 -1.4741  0.1705
37013TIP3   OH211920   5.328   0.459   3.353  0.2573  0.0560 -0.3362
37013TIP3    H111921   5.312   0.457   3.447 -0.6939 -1.3094 -0.5019
37013TIP3    H211922   5.423   0.469   3.345  0.3762 -0.0415  0.7697
37014TIP3   OH211923   8.450   0.193   7.231 -0.0130  0.0347 -0.2430
37014TIP3    H111924   8.426   0.103   7.255 -2.5984 -0.4924 -3.9315
37014TIP3    H211925   8.396   0.248   7.289  1.4825 -0.6869  1.9454
37015TIP3   OH211926   9.611   1.958   7.101 -0.5804 -0.3609  0.1293
37015TIP3    H111927   9.607   1.925   7.191 -0.1391 -1.5623 -0.2867
37015TIP3    H211928   9.520   1.954   7.071 -0.5842 -0.8591  0.2002
37016TIP3   OH211929   2.901   4.447   1.795  0.3862  0.3375 -0.2924
37016TIP3    H111930   2.968   4.493   1.845  0.6617  1.7644 -1.8925
37016TIP3    H211931   2.818   4.480   1.829  0.5445  0.6412 -0.2016
37017TIP3   OH211932   6.590   4.568   9.124 -0.6621  0.3768 -0.7498
37017TIP3    H111933   6.636   4.530   9.198 -0.9455  1.5132  0.0360
37017TIP3    H211934   6.654   4.624   9.081 -0.0600 -1.3649 -2.2721
37018TIP3   OH211935   9.215   0.493   4.645 -0.0332 -0.0479  0.2088
37018TIP3    H111936   9.138   0.548   4.659  0.7238  0.9059  0.7986
37018TIP3    H211937   9.190   0.434   4.574 -0.7602  1.3299 -0.7368
37019TIP3   OH211938   0.847   6.810   3.704 -0.1189  0.2574  0.5651
37019TIP3    H111939   0.836   6.770   3.618  1.1490 -0.9132  0.9131
37019TIP3    H211940   0.937   6.791   3.729 -0.3049  1.0045  1.9491
37020TIP3   OH211941   8.071   1.664   7.507  0.3871  0.0580  0.5234
37020TIP3    H111942   8.018   1.659   7.587 -0.2343 -1.1258  0.0517
37020TIP3    H211943   8.089   1.573   7.485  0.2395  0.3635 -0.9069
37021TIP3   OH211944   8.145   8.558   6.468 -0.2993 -0.8141 -0.0419
37021TIP3    H111945   8.055   8.589   6.461  0.3739  1.4168  0.4192
37021TIP3    H211946   8.146   8.505   6.548 -1.1027 -0.5150  0.1721
37022TIP3   OH211947   0.554   9.183   0.524 -0.0056  0.1654  0.7363
37022TIP3    H111948   0.629   9.229   0.486 -0.4579  0.3325  0.0387
37022TIP3    H211949   0.593   9.110   0.572  0.5969  0.1757  0.2759
37023TIP3   OH211950   2.344   9.163   0.520 -0.0757 -0.5598  0.3994
37023TIP3    H111951   2.331   9.088   0.578 -0.6192 -0.5084  0.3463
37023TIP3    H211952   2.262   9.212   0.524 -0.3820 -0.9188 -0.9243
37024TIP3   OH211953   8.408   2.882   2.767 -0.9266 -0.2012  0.4533
37024TIP3    H111954   8.355   2.841   2.698  0.1247 -0.8753  0.0293
37024TIP3    H211955   8.394   2.976   2.754  0.3953 -0.2348 -1.6597
37025TIP3   OH211956   3.436   3.761   4.538 -0.3081  0.1214 -0.2748
37025TIP3    H111957   3.475   3.686   4.494 -0.5863  0.2334 -0.7150
37025TIP3    H211958   3.474   3.837   4.493 -0.6460  0.2351 -0.3718
37026TIP3   OH211959   0.020   8.345   7.446  0.4037 -0.0184  0.1101
37026TIP3    H111960   0.006   8.359   7.540  0.8087  0.2754  0.1269
37026TIP3    H211961   0.090   8.280   7.441  1.1747  0.7981  0.0130
37027TIP3   OH211962   2.490  10.609   8.644  0.1160  0.4090  0.4625
37027TIP3    H111963   2.399  10.598   8.617 -0.2215  0.6831  1.4578
37027TIP3    H211964   2.539  10.551   8.586 -0.5179  1.3251 -1.0387
37028TIP3   OH211965   6.667   9.466   2.808 -0.4937  0.3230 -0.5062
37028TIP3    H111966   6.628   9.432   2.727 -1.0685 -0.6193  0.1385
37028TIP3    H211967   6.592   9.490   2.862 -0.1142  0.9336 -0.2478
37029TIP3   OH211968   9.509   0.267   0.292 -0.2277 -0.3633 -1.1495
37029TIP3    H111969   9.535   0.234   0.206 -0.3800  0.2572 -1.4352
37029TIP3    H211970   9.592   0.279   0.339 -0.1561 -0.9074 -1.1320
37030TIP3   OH211971   0.062   1.572   8.898 -0.2772  0.2710  0.2092
37030TIP3    H111972   0.068   1.564   8.803 -0.2916  0.7076  0.1685
37030TIP3    H211973   0.152   1.556   8.929 -0.3753 -0.3893  0.1667
37031TIP3   OH211974   7.811  10.653   2.142  0.3953 -0.1574 -0.3640
37031TIP3    H111975   7.750  10.726   2.156 -0.3987 -0.6475 -1.2061
37031TIP3    H211976   7.868  10.682   2.071  1.8360  0.7003  1.0542
37032TIP3   OH211977   3.928  10.447   9.333  0.2053  0.0997  0.0820
37032TIP3    H111978   3.980  10.367   9.323  0.7708  0.2275  1.7906
37032TIP3    H211979   3.980  10.503   9.389  0.1351  2.0136 -1.6471
37033TIP3   OH211980   7.958   9.943   5.970  0.0962  0.4530  0.1378
37033TIP3    H111981   8.034   9.964   6.023  0.5902 -1.4788  0.2597
37033TIP3    H211982   7.995   9.909   5.888 -0.6002 -0.4475  0.1785
37034TIP3   OH211983   2.950   0.123   0.467  0.1468 -0.1998 -0.7557
37034TIP3    H111984   2.872   0.142   0.414 -0.8561 -1.9220  0.0102
37034TIP3    H211985   2.923   0.144   0.556  0.4252 -1.1950 -0.4338
37035TIP3   OH211986   5.061   5.193   1.737  0.0275  0.2925 -0.3772
37035TIP3    H111987   5.140   5.140   1.748 -0.0820  0.1687 -0.1814
37035TIP3    H211988   5.019   5.192   1.823 -0.1611  0.3993 -0.4673
37036TIP3   OH211989   5.734   7.988   5.852 -0.1120 -0.5237 -0.1723
37036TIP3    H111990   5.711   7.970   5.943  0.1005  1.4207  0.3099
37036TIP3    H211991   5.674   8.057   5.825  0.7456 -0.0956 -1.0450
37037TIP3   OH211992   9.600   6.735   6.979 -0.9085 -0.3342 -0.1584
37037TIP3    H111993   9.649   6.668   7.027 -0.4125 -0.5043 -0.8883
37037TIP3    H211994   9.599   6.703   6.889  1.5252  1.8339 -1.0831
37038TIP3   OH211995   2.856   0.092   4.687  0.3211  0.1494 -0.1719
37038TIP3    H111996   2.941   0.048   4.690  1.5278  2.3748  0.2146
37038TIP3    H211997   2.842   0.124   4.776 -0.5987  0.4031 -0.3982
37039TIP3   OH211998  10.215   8.109   8.485 -0.1552 -0.6749  0.2810
37039TIP3    H111999  10.166   8.027   8.481 -0.4356 -0.4451 -1.7388
37039TIP3    H212000  10.301   8.088   8.448 -0.4237  0.0549 -0.8012
37040TIP3   OH212001   5.141  10.576   4.965  0.3530 -0.2533  0.3053
37040TIP3    H112002   5.104  10.560   4.878  0.2369 -0.1978  0.3448
37040TIP3    H212003   5.097  10.655   4.996 -2.0379 -2.0251  1.7693
37041TIP3   OH212004   6.352   2.826   0.389 -0.2613 -0.3527  0.0065
37041TIP3    H112005   6.278   2.779   0.428  0.7528 -1.0290  1.2089
37041TIP3    H212006   6.425   2.764   0.394  1.1805  1.3764  1.8181
37042TIP3   OH212007   3.175   6.105   0.813  0.6553  0.5118  0.4976
37042TIP3    H112008   3.231   6.043   0.767  1.0272  1.1711  0.0567
37042TIP3    H212009   3.225   6.186   0.816 -0.8787  1.6004 -1.3089
37043TIP3   OH212010   3.394   7.891   2.657 -0.5072  0.1386 -0.4840
37043TIP3    H112011   3.477   7.864   2.617 -0.5066 -0.8478  0.1438
37043TIP3    H212012   3.345   7.932   2.586 -0.1973 -0.8709 -1.3053
37044TIP3   OH212013   8.311  10.477   9.479  0.4602 -0.4135 -1.1106
37044TIP3    H112014   8.358  10.454   9.399  1.3911  0.8373 -0.9554
37044TIP3    H212015   8.333  10.569   9.493 -0.6913 -0.2831 -0.0913
37045TIP3   OH212016   5.182   9.784   7.381  0.6339  0.3135  0.0230
37045TIP3    H112017   5.142   9.744   7.304 -1.7565  2.3949  0.0783
37045TIP3    H212018   5.196   9.875   7.357  0.8677  0.7434  1.6748
37046TIP3   OH212019   3.133  10.529   9.669  0.0997  0.3864 -0.3338
37046TIP3    H112020   3.131  10.433   9.667  1.4861  0.3001  0.5725
37046TIP3    H212021   3.050  10.556   9.631 -0.1397 -1.1716 -1.0080
37047TIP3   OH212022  10.150   5.192   2.667  0.2582  0.6397  0.2211
37047TIP3    H112023  10.141   5.128   2.596 -1.3211 -0.2917  1.2332
37047TIP3    H212024  10.063   5.198   2.706  0.6101  2.6783  0.8010
37048TIP3   OH212025   3.209   8.611  10.509 -0.0710  0.0808  0.2115
37048TIP3    H112026   3.298   8.645  10.502 -0.9582  2.4501 -0.8200
37048TIP3    H212027   3.194   8.603  10.603  0.8714  0.7693  0.4457
37049TIP3   OH212028   6.794   4.415   4.295  0.2173 -0.2525  0.0316
37049TIP3    H112029   6.815   4.426   4.203 -0.2462  4.4353  0.2755
37049TIP3    H212030   6.855   4.472   4.341 -1.0809 -0.6639  2.4397
37050TIP3   OH212031   0.061   9.887   7.977  0.6377 -0.3135  0.1190
37050TIP3    H112032   0.053   9.966   7.923  2.9125  0.1405  0.3389
37050TIP3    H212033  -0.024   9.879   8.020 -0.2263  1.0263 -1.2176
37051TIP3   OH212034   1.246   9.782   7.199  0.2301 -0.0836 -0.3182
37051TIP3    H112035   1.339   9.800   7.180 -0.1559  0.5384 -1.7672
37051TIP3    H212036   1.198   9.835   7.135 -1.2118  1.2609  1.7685
37052TIP3   OH212037   6.891   9.653   5.979 -0.0097  0.1717  0.1975
37052TIP3    H112038   6.834   9.730   5.973  1.3031  1.1338 -0.4394
37052TIP3    H212039   6.924   9.654   6.069  1.4181  1.4589 -0.2862
37053TIP3   OH212040   0.082   7.189   5.632 -0.4267  0.3302  0.1083
37053TIP3    H112041   0.152   7.125   5.624 -1.5224 -0.8842 -0.0692
37053TIP3    H212042   0.003   7.137   5.646 -1.4072  1.6142 -0.4212
37054TIP3   OH212043  10.152   0.982  10.130 -0.1733  0.3162 -0.2922
37054TIP3    H112044  10.227   1.041  10.124 -3.1510  4.4555 -0.7059
37054TIP3    H212045  10.136   0.953  10.041 -0.0895  0.8850 -0.4960
37055TIP3   OH212046   1.593   3.951   4.703  0.0660 -0.1126 -0.5153
37055TIP3    H112047   1.678   3.961   4.745  0.0670 -0.1588 -0.5063
37055TIP3    H212048   1.541   3.900   4.765  0.3257 -0.8965 -0.9277
37056TIP3   OH212049   4.637  10.814   6.758  0.7414  0.0805  0.3108
37056TIP3    H112050   4.729  10.831   6.734  2.1787 -2.9851  2.9457
37056TIP3    H212051   4.634  10.829   6.853 -1.5282  0.1371  0.2792
37057TIP3   OH212052   1.496  10.598   0.765  0.1424 -0.0043  0.5818
37057TIP3    H112053   1.489  10.534   0.836  1.5200 -2.0244 -0.9812
37057TIP3    H212054   1.504  10.545   0.686 -1.1496  2.1585 -1.1068
37058TIP3   OH212055   4.393   0.950   1.543  0.2291 -0.6327  0.8096
37058TIP3    H112056   4.318   0.936   1.601 -0.0719  2.7536  1.4675
37058TIP3    H212057   4.461   0.985   1.601  1.0518 -0.2576 -0.3393
37059TIP3   OH212058   0.814   9.986   3.703 -0.3033 -0.4875  0.0162
37059TIP3    H112059   0.765   9.905   3.691 -2.2019  0.2211  2.3259
37059TIP3    H212060   0.772  10.049   3.643 -0.7607 -0.4691  0.3524
37060TIP3   OH212061   7.754  10.881   8.571  0.5822 -0.0426  0.2743
37060TIP3    H112062   7.729  10.953   8.512  0.5748 -0.9635 -0.8855
37060TIP3    H212063   7.694  10.888   8.644 -1.8116 -0.9357 -1.4618
37061TIP3   OH212064  10.114  10.452   3.690 -0.1369 -0.3656 -0.1685
37061TIP3    H112065  10.095  10.359   3.679  0.3638 -0.5750  0.6189
37061TIP3    H212066  10.184  10.470   3.627  1.4515 -1.1143  1.2928
37062TIP3   OH212067   1.376   2.249   1.216  0.7120 -0.3945  0.6194
37062TIP3    H112068   1.352   2.301   1.293  0.5422  0.6841 -0.1386
37062TIP3    H212069   1.462   2.214   1.237  0.6067 -0.2358  1.3540
37063TIP3   OH212070   6.825   6.145   0.952 -0.6619  0.4087 -0.9796
37063TIP3    H112071   6.748   6.131   0.897 -1.3663  0.2882  0.0122
37063TIP3    H212072   6.830   6.066   1.006  0.1041  0.4626 -0.9571
37064TIP3   OH212073   8.037   8.602   7.040  0.0122  0.4219 -0.2571
37064TIP3    H112074   8.131   8.601   7.022 -0.0919 -0.9851 -0.8450
37064TIP3    H212075   8.007   8.514   7.017 -0.8095 -0.4558  3.4517
37065TIP3   OH212076   5.900   6.857   9.543 -0.0131  0.7122  0.0963
37065TIP3    H112077   5.975   6.888   9.595 -0.7376  1.0181  0.9924
37065TIP3    H212078   5.843   6.815   9.607 -1.5344  2.1959 -0.2154
37066TIP3   OH212079   9.142   6.061   3.271  0.0106  0.0346 -0.3804
37066TIP3    H112080   9.132   6.043   3.364 -1.9164  1.3509 -0.2773
37066TIP3    H212081   9.234   6.089   3.262 -0.2823  1.8318  1.5079
37067TIP3   OH212082   4.297   8.729   8.623  0.2059 -0.2861  0.0014
37067TIP3    H112083   4.269   8.809   8.667  0.1128 -1.0188  1.3620
37067TIP3    H212084   4.291   8.662   8.691 -0.5413 -1.6207 -1.3188
37068TIP3   OH212085   0.713   3.817   7.889 -1.1534 -0.5627  0.6610
37068TIP3    H112086   0.658   3.743   7.864 -3.0860  1.4357 -1.5393
37068TIP3    H212087   0.696   3.883   7.822  0.5260  1.8534  2.4460
37069TIP3   OH212088   6.777  10.004   0.379  0.1550  0.5017 -0.7668
37069TIP3    H112089   6.758  10.097   0.390 -0.0440  0.2687  1.1434
37069TIP3    H212090   6.789   9.971   0.468 -0.1027 -1.3698 -1.3831
37070TIP3   OH212091   6.424   4.159   4.753 -0.4714  0.2638  0.2433
37070TIP3    H112092   6.471   4.124   4.677  0.1856  0.0677  0.7363
37070TIP3    H212093   6.488   4.212   4.799  0.0465 -1.9595  2.2615
37071TIP3   OH212094   6.862   1.992   4.059 -0.1078  0.3709 -0.1611
37071TIP3    H112095   6.871   1.976   4.153  1.4218  0.6124 -0.2440
37071TIP3    H212096   6.936   2.047   4.037 -1.3376  1.6643 -1.2342
37072TIP3   OH212097   7.645   9.783   7.908  0.0710  0.0049 -0.4910
37072TIP3    H112098   7.704   9.723   7.953 -0.5301  0.3327  0.7879
37072TIP3    H212099   7.582   9.810   7.975  0.6041  2.4487 -0.8543
37073TIP3   OH212100   0.819   7.397   6.810  0.2772  0.6711  0.0551
37073TIP3    H112101   0.887   7.448   6.766  0.4950 -0.3265 -0.8186
37073TIP3    H212102   0.743   7.403   6.753  0.5985 -0.7371 -0.5654
37074TIP3   OH212103   0.184   4.601   8.233  0.1299  0.6476  0.5259
37074TIP3    H112104   0.200   4.540   8.162  2.3002  0.2179  1.2985
37074TIP3    H212105   0.169   4.685   8.190  3.5760  0.8757 -0.5382
37075TIP3   OH212106   7.689   6.609   5.154 -0.0702  0.5909  0.3178
37075TIP3    H112107   7.610   6.562   5.180  0.4952 -2.4584 -2.8360
37075TIP3    H212108   7.657   6.685   5.104 -1.0981 -0.8547 -1.3235
37076TIP3   OH212109   1.540   2.879   5.526  0.4874 -0.4808  0.0982
37076TIP3    H112110   1.458   2.874   5.477  0.7189 -1.8308 -0.1941
37076TIP3    H212111   1.609   2.875   5.460  0.7982 -0.6992  0.4289
37077TIP3   OH212112   7.542   9.703   8.442  0.0480  0.7894 -0.5217
37077TIP3    H112113   7.576   9.680   8.528 -1.9796  0.1975  0.1715
37077TIP3    H212114   7.460   9.749   8.460 -0.5894  0.3667 -2.1360
37078TIP3   OH212115   9.995   2.779   6.206  0.4994 -0.2481 -0.3488
37078TIP3    H112116  10.083   2.777   6.169  0.9401  4.0150 -0.0860
37078TIP3    H212117  10.008   2.808   6.296 -1.1619  0.2771 -0.2441
37079TIP3   OH212118   4.189   6.426   7.087  0.8732 -0.7120  0.0449
37079TIP3    H112119   4.208   6.381   7.169 -1.3857 -0.8833  0.5211
37079TIP3    H212120   4.185   6.519   7.111  0.4905 -0.7367  0.0824
37080TIP3   OH212121   9.794   6.266  10.433 -0.1136 -0.2646  0.6960
37080TIP3    H112122   9.759   6.178  10.440 -0.5162 -0.2767 -0.9777
37080TIP3    H212123   9.727   6.322  10.472 -0.2570 -0.6106  0.9514
37081TIP3   OH212124   9.910   6.173   4.049  0.7239  0.6059  0.3145
37081TIP3    H112125   9.888   6.266   4.039  0.1702  0.4802  0.3107
37081TIP3    H212126   9.992   6.163   4.001 -0.7022  0.5029 -2.3384
37082TIP3   OH212127  10.383   7.846   2.787 -0.0528 -0.4732  0.5895
37082TIP3    H112128  10.325   7.817   2.717  0.6254  1.9138 -1.0898
37082TIP3    H212129  10.388   7.771   2.847 -1.4157 -2.2768 -1.4082
37083TIP3   OH212130   1.656   2.318   8.421  0.0831 -0.2439  0.4944
37083TIP3    H112131   1.594   2.371   8.371 -1.4965 -0.5446  2.0491
37083TIP3    H212132   1.672   2.241   8.366 -0.9067 -0.1574  0.0700
37084TIP3   OH212133   9.236   8.364   2.186 -0.0639 -0.7260  0.4713
37084TIP3    H112134   9.330   8.365   2.165  0.0100 -1.5802  0.7089
37084TIP3    H212135   9.193   8.362   2.100  0.0723  1.1971  0.3148
37085TIP3   OH212136   3.156   7.821   3.158 -0.0575  0.3919 -0.5444
37085TIP3    H112137   3.082   7.844   3.103 -0.0973  1.3205 -0.1218
37085TIP3    H212138   3.127   7.840   3.247  0.3928 -0.0419 -0.2993
37086TIP3   OH212139   1.834   9.085   9.275  0.1557  0.1402 -0.1461
37086TIP3    H112140   1.828   9.125   9.362  1.6102  0.1021 -0.0125
37086TIP3    H212141   1.927   9.068   9.263  0.3966  2.5588 -2.7636
37087TIP3   OH212142   3.496  10.853   9.139  0.3051 -0.0714  0.1486
37087TIP3    H112143   3.542  10.915   9.082  0.6013 -0.5631 -0.1470
37087TIP3    H212144   3.442  10.909   9.196 -0.2964  0.4139 -0.8667
37088TIP3   OH212145   6.012   3.887   3.380  0.0986 -0.3992  0.0914
37088TIP3    H112146   5.950   3.819   3.354 -0.3594 -0.5856  1.5895
37088TIP3    H212147   6.058   3.851   3.456  0.3197  0.6915  0.4952
37089TIP3   OH212148   1.951   9.207   1.995  0.3974  0.1228  0.1776
37089TIP3    H112149   1.929   9.136   2.056 -0.9079  0.3587  0.0059
37089TIP3    H212150   1.885   9.274   2.012  1.3206  1.1013 -0.0148
37090TIP3   OH212151   4.997   7.657   2.906 -0.1022 -0.4267 -0.7744
37090TIP3    H112152   4.978   7.566   2.929  0.5694 -0.3885 -0.0022
37090TIP3    H212153   4.911   7.696   2.891 -0.5141 -0.7744  0.5369
37091TIP3   OH212154   7.832   6.925   7.268 -0.1620  0.2259 -0.0020
37091TIP3    H112155   7.825   6.882   7.353 -1.7531  0.2879 -0.0660
37091TIP3    H212156   7.820   7.018   7.286 -0.0819  0.2871 -0.2540
37092TIP3   OH212157   0.040   2.954   8.836  0.0875 -0.1715  0.1451
37092TIP3    H112158   0.127   2.978   8.867  0.0195  1.5389 -0.8779
37092TIP3    H212159   0.031   2.998   8.752 -1.4808 -0.9611 -0.1408
37093TIP3   OH212160   9.806  10.871   1.745 -0.1499  0.1429 -0.0836
37093TIP3    H112161   9.799  10.824   1.661  2.7050 -1.0844  0.2556
37093TIP3    H212162   9.776  10.807   1.810  1.3317 -0.3690  0.1378
37094TIP3   OH212163   1.922   6.278   3.875 -0.4390  0.2250  0.6135
37094TIP3    H112164   1.907   6.189   3.842  1.4697 -0.1851  0.7170
37094TIP3    H212165   1.905   6.335   3.800  0.0296 -0.3876  0.0292
37095TIP3   OH212166   8.341   2.636  10.875 -0.3188 -0.4927  0.3134
37095TIP3    H112167   8.254   2.598  10.883 -0.2059 -0.9196 -0.3613
37095TIP3    H212168   8.333   2.723  10.914 -0.4611 -1.3554  2.3464
37096TIP3   OH212169   6.842  10.511   1.095 -0.3518  0.0406 -0.4463
37096TIP3    H112170   6.786  10.579   1.132 -1.0648  0.5219 -2.2930
37096TIP3    H212171   6.928  10.553   1.087 -0.0105 -0.2883  1.2152
37097TIP3   OH212172   5.175   5.588   1.999 -0.7947  0.6711  0.5001
37097TIP3    H112173   5.227   5.668   1.995 -0.5299  0.5540  1.4475
37097TIP3    H212174   5.204   5.537   1.923  0.2224  0.7547  0.8176
37098TIP3   OH212175   0.665   3.987   9.265  0.5956 -0.2478  0.0691
37098TIP3    H112176   0.621   3.988   9.349 -1.6069  0.1004 -1.0201
37098TIP3    H212177   0.718   4.067   9.264 -0.4473  0.4688  0.6019
37099TIP3   OH212178  10.331   3.163   4.413  0.2101  0.7289 -0.1454
37099TIP3    H112179  10.289   3.195   4.493 -0.5757 -0.1119 -0.2015
37099TIP3    H212180  10.294   3.075   4.400 -1.7194  1.7884 -2.8289
37100TIP3   OH212181   5.755   3.444   1.478  0.5836  0.3047 -0.4218
37100TIP3    H112182   5.746   3.477   1.389 -0.5559  0.2462 -0.3418
37100TIP3    H212183   5.673   3.399   1.496  0.1771  1.5732  1.1604
37101TIP3   OH212184   9.356   3.143   9.273  0.0547  0.1505 -0.0340
37101TIP3    H112185   9.425   3.091   9.314 -0.8242  0.1813  1.5783
37101TIP3    H212186   9.315   3.190   9.345 -0.7153  1.2679 -1.1495
37102TIP3   OH212187   4.403   3.612   2.369  0.6196 -0.0300 -0.4116
37102TIP3    H112188   4.335   3.546   2.376  0.4591  0.2202  0.5422
37102TIP3    H212189   4.395   3.646   2.280 -0.2297 -0.2970 -0.4410
37103TIP3   OH212190   2.080   1.425   6.308 -0.0743 -0.2786 -0.7447
37103TIP3    H112191   2.125   1.363   6.251 -1.0559 -0.5957 -1.1931
37103TIP3    H212192   2.012   1.373   6.351  1.1289 -0.2228  1.3254
37104TIP3   OH212193   7.266   6.731   8.810  0.0954  0.2968 -0.2005
37104TIP3    H112194   7.326   6.800   8.782 -0.5381  0.9770  0.0622
37104TIP3    H212195   7.292   6.654   8.760 -0.0739  1.0937 -1.5635
37105TIP3   OH212196   6.944   7.168   5.587 -0.3022  0.0470  0.2653
37105TIP3    H112197   6.955   7.219   5.507 -1.2147 -1.7457 -1.0755
37105TIP3    H212198   6.875   7.105   5.567  1.6111 -2.5965  1.3219
37106TIP3   OH212199   2.979   0.701   5.301  0.5201 -0.0528 -0.0130
37106TIP3    H112200   2.994   0.652   5.220 -0.1452  0.8115 -0.6869
37106TIP3    H212201   3.059   0.752   5.313  2.0450 -2.6241  1.7415
37107TIP3   OH212202   8.759   7.915   7.503 -0.3611 -0.2065  0.2194
37107TIP3    H112203   8.727   7.849   7.565  1.1491  0.5926  1.9392
37107TIP3    H212204   8.704   7.992   7.519 -1.2805 -0.5839 -0.9015
37108TIP3   OH212205   0.197   6.390   9.763  0.4341 -0.7291  0.2867
37108TIP3    H112206   0.102   6.402   9.764  0.5855  0.6336  0.3690
37108TIP3    H212207   0.230   6.452   9.828  1.3705 -1.3207  0.3893
37109TIP3   OH212208   6.186   0.830   1.278  0.4375  0.3134  0.2735
37109TIP3    H112209   6.147   0.778   1.208  0.0716 -0.1285  0.7942
37109TIP3    H212210   6.192   0.769   1.352  0.4766  0.8716  0.7343
37110TIP3   OH212211  10.182   1.622   5.674 -0.2169  0.3571  0.3095
37110TIP3    H112212  10.244   1.591   5.739  0.1179  0.5409  0.0803
37110TIP3    H212213  10.214   1.588   5.591  0.5419  1.8350 -0.0471
37111TIP3   OH212214  10.138   1.024   9.432 -0.1185 -0.1104 -0.6141
37111TIP3    H112215  10.202   1.084   9.467  0.7642  0.3803 -2.8815
37111TIP3    H212216  10.057   1.075   9.426  0.3570  0.5474 -1.5548
37112TIP3   OH212217   0.401   0.518   9.436 -0.3942  0.0204 -0.2377
37112TIP3    H112218   0.466   0.584   9.412  0.1649 -0.7472 -0.8620
37112TIP3    H212219   0.335   0.567   9.485  1.0574  0.6809  1.1544
37113TIP3   OH212220   9.967   9.852   4.382  0.5670  0.5895 -0.6035
37113TIP3    H112221   9.887   9.885   4.422  0.9764  1.1226 -0.2113
37113TIP3    H212222  10.028   9.844   4.455  0.7858 -0.0889 -0.8536
37114TIP3   OH212223  10.169   0.441   4.412 -0.4542  0.1474 -0.1998
37114TIP3    H112224  10.143   0.533   4.402 -0.1260  0.1735 -0.9354
37114TIP3    H212225  10.265   0.444   4.415 -0.4503 -0.1528 -0.0188
37115TIP3   OH212226   8.412   4.751  10.800  0.6810 -0.2770 -0.6792
37115TIP3    H112227   8.387   4.760  10.891  0.1814  0.1694 -0.8540
37115TIP3    H212228   8.507   4.744  10.802  0.5148 -3.5204  0.1106
37116TIP3   OH212229   7.014  10.717   7.861  0.3849  0.1098 -0.5599
37116TIP3    H112230   6.949  10.679   7.920 -0.2184 -0.2517 -1.4456
37116TIP3    H212231   7.098  10.693   7.900  0.0047 -1.0613 -0.4331
37117TIP3   OH212232   8.574   7.517   8.935  0.3740 -0.0381  0.3658
37117TIP3    H112233   8.620   7.453   8.990 -0.2722 -1.2771 -0.4828
37117TIP3    H212234   8.488   7.477   8.920 -0.5629  1.6537  0.9012
37118TIP3   OH212235   3.339   0.695   9.588 -0.0137 -0.2699  0.0962
37118TIP3    H112236   3.339   0.633   9.514  1.3523  0.2394 -0.3680
37118TIP3    H212237   3.250   0.729   9.591 -0.0667 -0.2073 -1.4114
37119TIP3   OH212238   8.948  10.748   0.229  0.6593 -0.0344  0.4029
37119TIP3    H112239   8.876  10.696   0.263 -0.1248  0.4010 -0.5545
37119TIP3    H212240   9.019  10.685   0.216 -0.1727 -0.8104 -0.4421
37120TIP3   OH212241   0.733   0.762   6.485  0.7277  0.0261 -0.3046
37120TIP3    H112242   0.658   0.741   6.541 -0.2975  0.3432 -1.5097
37120TIP3    H212243   0.810   0.736   6.536 -0.2060 -0.4080  0.9160
37121TIP3   OH212244   3.075   8.113   2.966 -0.0330  0.0298 -0.5591
37121TIP3    H112245   3.084   8.138   3.059 -1.8138 -0.3162 -0.2490
37121TIP3    H212246   3.144   8.050   2.951 -0.1495 -0.4470  0.7564
37122TIP3   OH212247   5.811   2.198   7.428 -0.2147  0.1750  0.8450
37122TIP3    H112248   5.743   2.265   7.443  0.8416  1.5814 -0.3492
37122TIP3    H212249   5.765   2.129   7.381 -0.9122  0.9545  0.3362
37123TIP3   OH212250   3.490   6.817   7.221  0.3356 -0.5626  0.0939
37123TIP3    H112251   3.511   6.868   7.299  1.3048  0.9612 -1.0913
37123TIP3    H212252   3.576   6.795   7.183 -0.0292  1.4705 -2.1906
37124TIP3   OH212253   6.497  10.229   8.788  0.1501 -0.2456 -0.0827
37124TIP3    H112254   6.506  10.294   8.718  0.1874  0.0858  0.2247
37124TIP3    H212255   6.579  10.236   8.838 -0.0369 -0.2073  0.2206
37125TIP3   OH212256   4.469   8.634   7.648 -0.3466 -0.5333  0.2355
37125TIP3    H112257   4.458   8.643   7.743 -1.3945 -0.7969  0.1521
37125TIP3    H212258   4.517   8.712   7.622 -1.4403  0.3400  0.7700
37126TIP3   OH212259   0.595   7.612   8.176  0.8326 -0.0155  0.3488
37126TIP3    H112260   0.576   7.519   8.160  0.6371  0.0879 -0.0492
37126TIP3    H212261   0.656   7.612   8.249 -1.7071 -0.3194  2.6621
37127TIP3   OH212262  10.774   4.901   5.552  0.1495  0.3501  0.3696
37127TIP3    H112263  10.722   4.860   5.483  1.9086  0.6214 -1.2049
37127TIP3    H212264  10.865   4.884   5.526  0.8782  2.0121  1.6686
37128TIP3   OH212265   4.782   9.830   4.385  0.3709  0.0503 -0.4222
37128TIP3    H112266   4.852   9.805   4.446  0.5145 -1.3891 -1.1360
37128TIP3    H212267   4.701   9.816   4.434  0.5361  1.4919  0.3255
37129TIP3   OH212268   2.239   8.351   6.623  0.5254 -0.2942 -0.4162
37129TIP3    H112269   2.191   8.278   6.584 -1.1458  0.4640  0.1372
37129TIP3    H212270   2.314   8.310   6.666 -0.0377 -1.6154 -0.6468
37130TIP3   OH212271   6.840   1.378   1.910 -0.2642  0.7119 -0.2440
37130TIP3    H112272   6.904   1.316   1.875 -0.2609  0.1690  0.6940
37130TIP3    H212273   6.850   1.372   2.005 -0.9175  1.4624 -0.1177
37131TIP3   OH212274   7.205  10.386   0.698  0.4347 -0.8581 -0.3299
37131TIP3    H112275   7.274  10.372   0.632  0.0425 -0.9646 -0.7188
37131TIP3    H212276   7.148  10.310   0.690 -0.6534  0.0137 -1.1465
37132TIP3   OH212277   9.520   1.200   4.515 -0.1257  0.4204  0.1177
37132TIP3    H112278   9.613   1.210   4.496  0.3075 -0.8970  1.3726
37132TIP3    H212279   9.491   1.131   4.455 -0.3780  1.0277 -0.4718
37133TIP3   OH212280   0.595   7.253   6.370  0.3778  0.5279 -0.1706
37133TIP3    H112281   0.584   7.305   6.291  1.4775 -0.9686 -1.3709
37133TIP3    H212282   0.594   7.162   6.340 -0.4347 -0.1402  1.7048
37134TIP3   OH212283  10.794   8.658   6.483 -0.3955  0.4158 -0.3517
37134TIP3    H112284  10.872   8.630   6.530 -0.9438 -0.7094 -0.0770
37134TIP3    H212285  10.750   8.718   6.544  0.0414  0.7393 -0.3493
37135TIP3   OH212286   2.171   3.887   3.331 -0.1995  0.2937 -0.7146
37135TIP3    H112287   2.131   3.968   3.299  1.3008  0.4934 -2.1762
37135TIP3    H212288   2.099   3.824   3.330 -0.9621  1.1391 -1.2934
37136TIP3   OH212289   3.620   8.195   4.604  0.3084 -0.4399  0.7862
37136TIP3    H112290   3.641   8.156   4.689 -1.5402 -1.5644  0.7781
37136TIP3    H212291   3.565   8.130   4.561  1.1833  0.1185 -1.2989
37137TIP3   OH212292   4.480   6.326   3.460  0.5291  0.3083  0.1445
37137TIP3    H112293   4.520   6.255   3.408 -0.3178 -0.5368  0.6124
37137TIP3    H212294   4.423   6.371   3.398 -0.0394 -0.3398  0.1872
37138TIP3   OH212295   8.227   1.502   4.189  0.5579 -0.9050  0.4725
37138TIP3    H112296   8.186   1.573   4.239  0.2496 -0.1324 -0.8362
37138TIP3    H212297   8.282   1.457   4.253  0.3366  0.1767  1.4641
37139TIP3   OH212298   5.836  10.682   6.930  0.2879 -0.0218 -0.0950
37139TIP3    H112299   5.755  10.650   6.892 -0.0250  0.0206  0.5195
37139TIP3    H212300   5.854  10.764   6.884 -0.1894  0.1281 -0.0139
37140TIP3   OH212301   7.267   6.244   4.156  0.4022 -0.0319 -0.1330
37140TIP3    H112302   7.258   6.149   4.166  1.9659 -0.2283 -0.3080
37140TIP3    H212303   7.316   6.272   4.233  1.7178  0.3000 -1.0539
37141TIP3   OH212304  10.502   2.837   4.778 -0.2235  0.1318 -0.1888
37141TIP3    H112305  10.493   2.915   4.724 -1.1015  1.5330  1.8358
37141TIP3    H212306  10.440   2.851   4.850  0.5748 -1.8234  0.9577
37142TIP3   OH212307  10.487   0.892   3.079 -0.3754 -0.2045  0.1590
37142TIP3    H112308  10.471   0.943   2.999 -0.2350  1.7190  1.2872
37142TIP3    H212309  10.400   0.865   3.108 -0.6567  0.9848  0.4979
37143TIP3   OH212310   8.357   9.864   5.297 -0.0421 -0.2107 -0.2368
37143TIP3    H112311   8.354   9.874   5.202 -1.0445 -0.4433 -0.2347
37143TIP3    H212312   8.285   9.805   5.318 -1.3831  1.6848  0.8894
37144TIP3   OH212313   7.625   4.343   7.689  0.4550 -0.4627 -0.0008
37144TIP3    H112314   7.576   4.356   7.769  1.3853  0.7303  0.4033
37144TIP3    H212315   7.662   4.429   7.668 -2.5395  0.1885 -3.6315
37145TIP3   OH212316   2.517   6.355   6.727  0.6041  0.0741  0.1547
37145TIP3    H112317   2.609   6.355   6.700  0.3721  0.5183 -0.6545
37145TIP3    H212318   2.469   6.376   6.647 -0.1093  1.3610  0.9019
37146TIP3   OH212319   0.840   5.285   5.298  0.4059 -0.3222  0.2249
37146TIP3    H112320   0.831   5.253   5.208  0.6066 -0.5302  0.2797
37146TIP3    H212321   0.892   5.365   5.290  2.2209 -1.4461  0.3734
37147TIP3   OH212322   8.696   3.438   7.884 -0.7347  0.1219  0.3573
37147TIP3    H112323   8.735   3.378   7.948 -0.2679 -0.0339 -0.0707
37147TIP3    H212324   8.624   3.479   7.931 -0.2332  0.2050  1.0744
37148TIP3   OH212325   5.582   6.943   7.293 -0.2068 -0.0332  0.3180
37148TIP3    H112326   5.518   6.980   7.232 -0.0503 -0.8200 -0.3355
37148TIP3    H212327   5.591   7.010   7.361 -1.2757  0.3477  0.1113
37149TIP3   OH212328   0.739   0.436   0.995 -0.1166 -0.4224 -0.3648
37149TIP3    H112329   0.662   0.492   0.988  0.2087  0.0652 -0.0783
37149TIP3    H212330   0.752   0.402   0.906 -0.2307  0.0680 -0.5722
37150TIP3   OH212331   2.389   0.264   8.420 -0.2811 -0.1731 -0.8022
37150TIP3    H112332   2.345   0.262   8.505 -0.7871  0.7751 -1.0301
37150TIP3    H212333   2.388   0.173   8.390 -1.8350 -0.2242 -0.6706
37151TIP3   OH212334   6.171   1.839  10.760 -0.2569 -0.2401  0.5938
37151TIP3    H112335   6.126   1.804  10.836  1.6730 -1.1097  1.4191
37151TIP3    H212336   6.241   1.894  10.796 -0.2243  0.5453 -0.5934
37152TIP3   OH212337   8.738   0.324   3.182 -0.5647 -0.0514 -0.3726
37152TIP3    H112338   8.718   0.409   3.142 -1.3150  0.4424  0.9956
37152TIP3    H212339   8.833   0.326   3.195 -0.7423  1.2261  0.9968
37153TIP3   OH212340   1.680   6.695   9.159  0.1043  0.9534  0.0258
37153TIP3    H112341   1.651   6.763   9.220  1.0075  1.1374  0.2659
37153TIP3    H212342   1.702   6.744   9.079 -2.8547  0.5349 -1.1671
37154TIP3   OH212343   3.603   3.096   5.965 -0.4514 -0.2353  0.2845
37154TIP3    H112344   3.638   3.010   5.987 -0.0626 -0.9358 -2.6208
37154TIP3    H212345   3.524   3.077   5.915 -0.8670  1.1398  0.3897
37155TIP3   OH212346   1.745   3.358   4.207  0.2714  0.2163 -0.0210
37155TIP3    H112347   1.704   3.415   4.273  0.1245 -0.2276  0.2792
37155TIP3    H212348   1.784   3.288   4.258 -0.7949 -0.7383 -0.4659
37156TIP3   OH212349   6.341   0.065   2.814  0.0980  0.1066  0.2664
37156TIP3    H112350   6.296   0.135   2.766 -0.4944  1.4569  2.5885
37156TIP3    H212351   6.430   0.097   2.825  0.4795 -0.6023 -0.6324
37157TIP3   OH212352   4.937   8.264   0.781  0.2467 -0.5773 -0.2868
37157TIP3    H112353   5.007   8.327   0.763  0.3802 -0.8917 -0.9041
37157TIP3    H212354   4.981   8.180   0.785 -0.2361 -0.9649 -2.0170
37158TIP3   OH212355   3.032   1.568   2.963  0.3614 -0.6463 -0.8312
37158TIP3    H112356   3.078   1.493   2.926  0.0433 -1.0472 -0.4160
37158TIP3    H212357   3.087   1.643   2.939  0.4366 -0.9481 -1.6551
37159TIP3   OH212358   7.404   5.850   5.713 -0.2923 -0.6245 -0.2155
37159TIP3    H112359   7.370   5.937   5.733 -0.2091 -0.2094 -1.7749
37159TIP3    H212360   7.498   5.858   5.725 -0.1916 -0.2450 -1.1695
37160TIP3   OH212361  10.535  10.253   4.092  0.0516 -0.2107 -0.0930
37160TIP3    H112362  10.548  10.161   4.071 -0.6087  0.3091 -3.4256
37160TIP3    H212363  10.444  10.271   4.069  0.2093  1.3127  0.3162
37161TIP3   OH212364   0.210   3.368   7.033  0.1527  0.5614 -0.2591
37161TIP3    H112365   0.217   3.347   6.940 -1.1938  3.4654 -1.1469
37161TIP3    H212366   0.260   3.449   7.043  1.6123 -0.5161  1.9699
37162TIP3   OH212367   3.555   0.966   8.573  0.3167  0.0280  0.1809
37162TIP3    H112368   3.520   0.877   8.580  1.2739 -0.4056 -0.2781
37162TIP3    H212369   3.527   1.009   8.653  0.5636 -0.9611  0.8217
37163TIP3   OH212370   5.187   0.978   9.238 -0.0391  0.4364 -0.0966
37163TIP3    H112371   5.109   0.945   9.194 -0.2563  1.0913 -0.2072
37163TIP3    H212372   5.188   0.933   9.323 -1.1707  1.2742  0.3851
37164TIP3   OH212373   4.753   9.335   4.110  0.1765  0.2418 -0.6653
37164TIP3    H112374   4.764   9.289   4.027 -2.1110  0.5934 -1.2208
37164TIP3    H212375   4.805   9.415   4.100  2.6734 -1.2221 -0.3919
37165TIP3   OH212376   5.339   6.282   7.406  0.2132  0.3339  0.2132
37165TIP3    H112377   5.402   6.282   7.478  0.9679  0.4116 -0.4331
37165TIP3    H212378   5.280   6.209   7.426 -0.6748  1.4152  1.8068
37166TIP3   OH212379   1.485   1.594   8.680  0.4028 -0.8022  0.2299
37166TIP3    H112380   1.438   1.664   8.635  2.8580  0.6892 -0.2219
37166TIP3    H212381   1.520   1.635   8.759  0.3726 -2.0288  0.9008
37167TIP3   OH212382   2.355   0.519   6.292 -0.1348  0.4882  0.0423
37167TIP3    H112383   2.299   0.460   6.241 -0.8924  0.2966  1.0619
37167TIP3    H212384   2.298   0.553   6.361  0.6544  1.3674  0.2815
37168TIP3   OH212385   6.622   8.408   0.991  0.2615 -0.1217  0.8353
37168TIP3    H112386   6.637   8.321   0.954  0.1456  0.1551  0.1287
37168TIP3    H212387   6.670   8.407   1.074  0.4488 -0.7796  0.7245
37169TIP3   OH212388   7.752  10.587   0.450  0.4992  0.1077  0.4659
37169TIP3    H112389   7.794  10.610   0.368 -1.9781 -1.5190 -1.4241
37169TIP3    H212390   7.721  10.670   0.486  3.4610  1.1085  0.9956
37170TIP3   OH212391   9.280   5.774   8.892 -0.2152  0.1694 -0.4436
37170TIP3    H112392   9.196   5.733   8.913  0.0250 -0.1406 -0.0857
37170TIP3    H212393   9.322   5.788   8.977  0.8009 -1.1701 -0.6805
37171TIP3   OH212394   2.952   9.208   2.156  0.0547  0.2387  0.1026
37171TIP3    H112395   3.002   9.187   2.077  1.7058  1.4172  0.7689
37171TIP3    H212396   2.864   9.175   2.139  0.1179  1.2575 -2.6187
37172TIP3   OH212397   9.383   6.808   8.186  0.3960  0.3511  0.4822
37172TIP3    H112398   9.349   6.774   8.269  0.4668 -0.6936  0.1052
37172TIP3    H212399   9.478   6.799   8.194  0.3299 -2.0368 -0.5951
37173TIP3   OH212400   3.096   8.758   9.853 -0.1451 -0.0307  0.2275
37173TIP3    H112401   3.190   8.750   9.839 -0.2367 -1.8336  0.3462
37173TIP3    H212402   3.058   8.694   9.792 -1.1231 -1.0678  1.8530
37174TIP3   OH212403   7.140   9.344   7.791 -0.9808  0.2670  0.3791
37174TIP3    H112404   7.190   9.265   7.768 -1.3107  0.2320 -0.2518
37174TIP3    H212405   7.201   9.416   7.773 -0.7859  0.1709  0.6549
37175TIP3   OH212406   5.975   5.820  10.839  0.0578  0.2534  0.3099
37175TIP3    H112407   6.061   5.785  10.862 -0.0520 -0.9786 -1.0019
37175TIP3    H212408   5.993   5.895  10.782  0.2679  1.5835  2.0424
37176TIP3   OH212409   6.409   2.727   9.256 -0.2494  0.1978 -0.2309
37176TIP3    H112410   6.483   2.727   9.316 -1.0673 -0.6856  0.8219
37176TIP3    H212411   6.350   2.660   9.290 -1.7338  1.1478 -0.7928
37177TIP3   OH212412   8.763   1.000   7.947 -0.3900 -0.8008 -0.1106
37177TIP3    H112413   8.761   0.905   7.945 -1.1505 -0.8210  0.9602
37177TIP3    H212414   8.855   1.021   7.965 -0.4531 -1.3785  0.9643
37178TIP3   OH212415   6.928   7.071   6.659  0.0303 -0.1296 -0.0421
37178TIP3    H112416   6.902   6.979   6.654  1.6494 -0.6078  0.0223
37178TIP3    H212417   6.976   7.086   6.577  0.2755  0.4966  0.2170
37179TIP3   OH212418   4.520   9.529   2.411  0.3102 -0.6637 -0.0773
37179TIP3    H112419   4.508   9.462   2.478  2.7318 -0.0325  1.0869
37179TIP3    H212420   4.468   9.603   2.442 -0.8783 -1.3165 -0.4270
37180TIP3   OH212421   3.049   8.671   0.220  0.0881 -0.1592  0.3690
37180TIP3    H112422   2.991   8.721   0.276  1.0486  0.6704  0.6410
37180TIP3    H212423   3.054   8.721   0.139  0.8710  0.0861  0.5568
37181TIP3   OH212424   3.234   5.483   3.093  0.4320  0.0690 -0.6367
37181TIP3    H112425   3.234   5.495   3.188  2.5510 -2.2653 -0.2329
37181TIP3    H212426   3.239   5.572   3.057  0.9381  0.9543  1.4807
37182TIP3   OH212427   3.918   9.877   4.376 -0.1629 -0.2465  0.3802
37182TIP3    H112428   3.901   9.815   4.305 -0.4527 -0.4116  0.5895
37182TIP3    H212429   4.012   9.892   4.373 -0.0214 -1.0493  0.6136
37183TIP3   OH212430   2.327   6.981   5.234  0.2785 -0.2463  0.2247
37183TIP3    H112431   2.273   7.045   5.281  1.1336  0.6514  0.0301
37183TIP3    H212432   2.281   6.898   5.245  0.1495  0.0295  2.1874
37184TIP3   OH212433   2.120   9.665   4.677 -0.2457  0.0180 -0.0927
37184TIP3    H112434   2.117   9.668   4.581  0.8436  2.0662 -0.1196
37184TIP3    H212435   2.203   9.621   4.697  0.1762  0.7946 -0.1162
37185TIP3   OH212436   6.307   8.321   8.997 -0.2623 -0.6183 -0.1515
37185TIP3    H112437   6.325   8.356   8.910  1.4870  1.1828  0.8447
37185TIP3    H212438   6.333   8.229   8.993  0.1239 -0.4679 -1.4297
37186TIP3   OH212439   8.360   5.508   5.902  0.0606 -0.2596  0.3498
37186TIP3    H112440   8.294   5.519   5.971  0.1880 -1.5537  0.6917
37186TIP3    H212441   8.340   5.424   5.862  1.0981 -0.3571  0.0000
37187TIP3   OH212442   1.467   5.116   6.548  0.6332  0.1862 -0.1408
37187TIP3    H112443   1.525   5.062   6.495 -1.3239 -0.5130 -1.6909
37187TIP3    H212444   1.419   5.053   6.603  0.6694  0.6629  0.4537
37188TIP3   OH212445   2.283   9.346   4.508  0.1256  0.1212 -0.4184
37188TIP3    H112446   2.355   9.331   4.446 -1.1137  0.0020 -1.8641
37188TIP3    H212447   2.244   9.260   4.521  0.8616 -0.0080  1.2042
37189TIP3   OH212448   1.075   7.241   4.962  0.1030  0.1492 -0.5838
37189TIP3    H112449   1.165   7.210   4.955  0.6268  1.2720  0.7023
37189TIP3    H212450   1.075   7.298   5.039 -2.0402 -0.9146  0.2930
37190TIP3   OH212451   1.984   3.581   0.895  0.1283 -0.1113  0.4260
37190TIP3    H112452   2.067   3.626   0.884 -0.7967  1.6128  0.1200
37190TIP3    H212453   1.949   3.614   0.978  0.1876 -1.6081  1.0867
37191TIP3   OH212454   3.331   5.195   1.432 -0.3156 -0.2010  0.6665
37191TIP3    H112455   3.349   5.287   1.411  0.1807  0.0089  1.9259
37191TIP3    H212456   3.247   5.197   1.479 -0.5205 -0.4480  0.3166
37192TIP3   OH212457   1.060   4.089   8.017 -0.1825  0.3501  0.0637
37192TIP3    H112458   1.115   4.078   8.095 -1.0967 -0.6287  0.5813
37192TIP3    H212459   1.060   4.003   7.975 -3.1483 -0.3889  1.3204
37193TIP3   OH212460   8.502   9.797   2.466 -0.0076 -0.7061 -0.6537
37193TIP3    H112461   8.591   9.803   2.502 -0.7210 -0.1611  1.1127
37193TIP3    H212462   8.509   9.730   2.398  1.3616 -2.0544  0.7244
37194TIP3   OH212463   1.042   4.556   7.056  0.1736  0.1543 -0.8730
37194TIP3    H112464   1.001   4.591   7.135  0.2779 -1.6342  0.0341
37194TIP3    H212465   1.108   4.621   7.032  0.7902  0.3119  1.0866
37195TIP3   OH212466   1.144  10.324   7.468 -0.2326  0.2995  0.3012
37195TIP3    H112467   1.076  10.303   7.532 -0.2516  0.8556  0.4739
37195TIP3    H212468   1.108  10.397   7.418  0.0288  0.2652  0.0605
37196TIP3   OH212469  10.380   8.874   3.616 -0.1021  0.5619 -0.0619
37196TIP3    H112470  10.329   8.941   3.570 -2.2026 -0.1591  1.0871
37196TIP3    H212471  10.338   8.791   3.592  0.5053 -0.0708  0.9646
37197TIP3   OH212472   7.680   1.701   9.629 -0.5130 -0.3590 -0.2223
37197TIP3    H112473   7.602   1.749   9.652  0.3440  0.4788  1.0213
37197TIP3    H212474   7.738   1.709   9.705  0.5271 -1.5096 -0.8396
37198TIP3   OH212475   8.968   0.889  10.555 -0.1431  0.0249 -0.2119
37198TIP3    H112476   9.007   0.949  10.492  0.4405  1.3759  1.3621
37198TIP3    H212477   8.886   0.931  10.580 -0.0923 -0.2077  0.3560
37199TIP3   OH212478   4.106   7.869   9.707  0.2059 -0.3104 -0.2963
37199TIP3    H112479   4.122   7.805   9.637  0.1245 -2.2053  1.3106
37199TIP3    H212480   4.156   7.836   9.782 -1.6614  0.2296  1.2783
37200TIP3   OH212481   3.335   1.927   9.076 -0.9376  0.0317  0.0931
37200TIP3    H112482   3.292   2.013   9.077 -1.1377 -0.0598 -0.2124
37200TIP3    H212483   3.378   1.920   9.161  1.0155  1.4056 -0.6953
37201TIP3   OH212484  10.662   8.680  10.693  0.1011 -0.2584 -0.5175
37201TIP3    H112485  10.687   8.590  10.670 -0.9667 -0.4390 -1.0774
37201TIP3    H212486  10.643   8.721  10.609 -0.1225  0.2755 -0.2094
37202TIP3   OH212487   8.837   5.221   9.691 -0.1364  0.9625  0.0596
37202TIP3    H112488   8.776   5.235   9.763 -0.4393 -1.9936  0.4931
37202TIP3    H212489   8.786   5.173   9.625  1.0001  0.7646 -0.7028
37203TIP3   OH212490   7.651  10.587   7.401  0.4308  0.2757 -0.3168
37203TIP3    H112491   7.714  10.532   7.354  1.2678  1.8340 -1.0911
37203TIP3    H212492   7.576  10.530   7.416  2.0681 -1.7102  0.8124
37204TIP3   OH212493   6.596   7.579   8.315 -0.3609  0.5330 -0.3773
37204TIP3    H112494   6.612   7.644   8.383 -0.7934  0.5161 -0.2566
37204TIP3    H212495   6.684   7.550   8.289 -0.1391 -1.5785  2.2033
37205TIP3   OH212496  10.873   0.968  10.637 -0.0675  0.3654 -0.0412
37205TIP3    H112497  10.827   0.883  10.638  1.4558 -0.4878  0.8057
37205TIP3    H212498  10.836   1.014  10.561 -1.4667 -0.7350 -0.0851
37206TIP3   OH212499   2.003   9.786   8.525  0.6531 -0.0501  0.5087
37206TIP3    H112500   1.953   9.719   8.571  1.7993  0.1055  2.0462
37206TIP3    H212501   2.003   9.758   8.433  0.0338 -1.4503  0.9130
37207TIP3   OH212502   6.815   3.403   6.671  0.4719  0.9055 -0.2603
37207TIP3    H112503   6.880   3.390   6.603 -1.1160  1.1201 -1.9016
37207TIP3    H212504   6.833   3.491   6.706  0.5151  1.3419 -1.3446
37208TIP3   OH212505   9.926   4.463   9.356  0.1989 -0.5710 -0.2368
37208TIP3    H112506   9.981   4.385   9.346 -0.0726 -0.6706 -1.0342
37208TIP3    H212507   9.910   4.492   9.266  1.5429  1.3058  0.0895
37209TIP3   OH212508   8.347   2.238   7.923  0.1674 -0.6413 -0.4968
37209TIP3    H112509   8.328   2.168   7.860  0.1420 -0.4061 -0.7474
37209TIP3    H212510   8.320   2.201   8.008 -1.8964 -0.1489 -0.8756
37210TIP3   OH212511   6.507   6.547   3.339  0.7829 -0.1828  0.4443
37210TIP3    H112512   6.494   6.458   3.304  0.7505  0.7679 -2.1842
37210TIP3    H212513   6.601   6.563   3.329  0.9395 -0.2003  1.7353
37211TIP3   OH212514   1.753   4.162   2.039  0.2312 -0.4892 -0.2562
37211TIP3    H112515   1.814   4.107   1.991  0.0071 -1.3959  0.4788
37211TIP3    H212516   1.805   4.240   2.062  0.6409 -0.5313 -1.0005
37212TIP3   OH212517   8.263   9.456   3.978 -0.1301  0.5590 -0.4815
37212TIP3    H112518   8.332   9.392   3.994 -2.1536 -1.4581  0.7273
37212TIP3    H212519   8.208   9.417   3.910 -2.6028 -0.1268  1.7507
37213TIP3   OH212520   6.624   2.920   2.482 -0.2239  0.5737 -0.2180
37213TIP3    H112521   6.624   2.837   2.530  0.8699  1.1272  0.7977
37213TIP3    H212522   6.609   2.895   2.391 -1.5736 -0.5701  0.2932
37214TIP3   OH212523   6.530   0.301   8.892  0.0271  0.1379  0.4785
37214TIP3    H112524   6.523   0.209   8.867  0.4799 -0.0448  0.9916
37214TIP3    H212525   6.591   0.301   8.966 -0.6286  0.7531  1.0263
37215TIP3   OH212526   4.345   6.460   4.632  0.4827  0.4576  0.4808
37215TIP3    H112527   4.250   6.473   4.625  0.7764  1.9042 -1.9082
37215TIP3    H212528   4.360   6.448   4.726 -2.1656 -1.0182  0.8308
37216TIP3   OH212529   5.215   5.848   5.420  0.6990  0.1700  0.4076
37216TIP3    H112530   5.153   5.919   5.439  1.2427  0.6128  0.5505
37216TIP3    H212531   5.296   5.892   5.394  0.6630 -0.4058 -0.7756
37217TIP3   OH212532   0.450   7.589   2.345  0.2332  0.2247 -0.1491
37217TIP3    H112533   0.431   7.496   2.333 -0.6193  0.0858  1.9892
37217TIP3    H212534   0.531   7.603   2.295  0.4772 -1.6949 -0.3556
37218TIP3   OH212535   1.088   5.590   6.889 -0.1858 -0.0472 -0.0682
37218TIP3    H112536   1.103   5.680   6.861 -2.0984  1.3141  2.7706
37218TIP3    H212537   1.175   5.553   6.898  0.6266  1.1779 -2.1579
37219TIP3   OH212538   2.943   9.464   5.754 -0.0703  0.0799 -0.8754
37219TIP3    H112539   2.955   9.387   5.697 -0.2754 -0.8535  0.3028
37219TIP3    H212540   2.861   9.503   5.724 -0.2002 -0.4219 -1.1952
37220TIP3   OH212541  10.303   2.124   1.751  0.4164 -0.0153 -0.6282
37220TIP3    H112542  10.236   2.095   1.813 -0.5208  1.5388 -0.8355
37220TIP3    H212543  10.254   2.141   1.670  1.6127 -2.0216 -1.8407
37221TIP3   OH212544   4.227   9.609  10.473  0.5959  0.3166  0.3226
37221TIP3    H112545   4.214   9.518  10.500  0.1140  0.0239 -0.8190
37221TIP3    H212546   4.177   9.617  10.392  2.0994  1.0868 -0.5739
37222TIP3   OH212547   4.022   6.097   1.515 -0.1127  0.1938  0.2799
37222TIP3    H112548   4.099   6.047   1.490  0.1848  1.2395 -0.9967
37222TIP3    H212549   3.965   6.033   1.558 -0.0881 -1.4623 -1.9705
37223TIP3   OH212550   3.146   1.424   3.573 -0.5572 -0.2434 -0.2277
37223TIP3    H112551   3.234   1.387   3.583 -0.6439 -0.3682  0.0727
37223TIP3    H212552   3.147   1.503   3.627 -0.6506 -0.2755 -0.1799
37224TIP3   OH212553   4.164   0.883   6.436 -0.7367 -0.6636 -0.2609
37224TIP3    H112554   4.097   0.828   6.478 -0.6736 -0.1968  0.4675
37224TIP3    H212555   4.157   0.968   6.481  0.9159 -0.8506  0.4150
37225TIP3   OH212556   0.747   6.679   8.804  0.0186  0.0217 -0.3844
37225TIP3    H112557   0.801   6.601   8.810 -0.3627 -0.2582 -0.5725
37225TIP3    H212558   0.698   6.669   8.722 -1.7046 -0.6218  0.6685
37226TIP3   OH212559   9.154   2.466   7.852  0.0128 -0.0681 -0.7036
37226TIP3    H112560   9.090   2.479   7.922  0.8387 -1.6127  0.3998
37226TIP3    H212561   9.186   2.554   7.832 -0.3457  0.4149  0.7597
37227TIP3   OH212562   5.879  10.104   4.914  0.0107 -0.1721 -0.3699
37227TIP3    H112563   5.844  10.041   4.977  0.4110  0.8515  0.8880
37227TIP3    H212564   5.801  10.140   4.871 -0.3541  0.1162  0.5080
37228TIP3   OH212565  10.409   8.708   4.142  0.3366 -0.1634 -0.2365
37228TIP3    H112566  10.388   8.779   4.204 -0.6835  0.5979 -1.4126
37228TIP3    H212567  10.490   8.736   4.100 -0.2825  0.5341 -0.9947
37229TIP3   OH212568   3.329   4.110   3.169  0.7010  0.0038  0.4109
37229TIP3    H112569   3.285   4.189   3.202  0.5535 -0.4180  1.2573
37229TIP3    H212570   3.273   4.079   3.098  1.5590  1.5008 -0.9828
37230TIP3   OH212571   4.602   5.929   4.801 -0.3792  0.0304 -0.1429
37230TIP3    H112572   4.527   5.906   4.856  0.7352  1.2984  2.0503
37230TIP3    H212573   4.647   5.846   4.785 -0.1335 -0.2529  1.8344
37231TIP3   OH212574   7.091  10.252   5.225 -0.3648  0.5494  0.0925
37231TIP3    H112575   7.047  10.258   5.309  2.5653  2.0204  1.6665
37231TIP3    H212576   7.057  10.327   5.175 -1.8781 -0.1497  0.0204
37232TIP3   OH212577   6.385  10.556   1.882  0.0383 -0.5945 -0.2619
37232TIP3    H112578   6.421  10.578   1.796 -1.8891 -0.5611 -1.0961
37232TIP3    H212579   6.411  10.630   1.938  0.0407  0.1156 -1.1801
37233TIP3   OH212580   8.231   2.352   1.296  0.0151  0.2784  0.1836
37233TIP3    H112581   8.196   2.350   1.385 -2.3835  2.3189 -0.5987
37233TIP3    H212582   8.169   2.407   1.247  2.2088  0.6976 -2.3366
37234TIP3   OH212583   6.896   1.697  10.216  0.5976 -0.2334  0.2457
37234TIP3    H112584   6.865   1.614  10.253 -1.0783  0.2853  0.0501
37234TIP3    H212585   6.820   1.754  10.216  1.5130  1.0438 -0.4445
37235TIP3   OH212586   0.831   4.892   4.232  0.1082  0.2003 -0.5411
37235TIP3    H112587   0.862   4.961   4.290 -3.6033 -0.0992  2.1454
37235TIP3    H212588   0.849   4.811   4.280 -2.0939 -0.1179 -0.1492
37236TIP3   OH212589   3.348   0.802   6.269 -0.2466  0.0326  0.9075
37236TIP3    H112590   3.337   0.743   6.195  0.2478  1.4385 -0.3381
37236TIP3    H212591   3.413   0.760   6.324  0.3794 -0.4201 -0.1479
37237TIP3   OH212592   8.910   0.553   3.363 -0.3557 -0.6714  0.1309
37237TIP3    H112593   8.860   0.476   3.390 -0.4396 -0.2146  1.3469
37237TIP3    H212594   8.899   0.557   3.268 -2.5002 -0.6991  0.3177
37238TIP3   OH212595   3.984   8.664   0.000  0.3066  0.5271  0.1100
37238TIP3    H112596   4.074   8.629  -0.003 -0.0623 -0.3972 -2.7921
37238TIP3    H212597   3.992   8.753  -0.033  0.2584  0.8313  0.8829
37239TIP3   OH212598   1.053   3.894   3.862  0.0186  0.3629  0.5187
37239TIP3    H112599   1.121   3.933   3.806 -0.6733  0.2920 -0.3862
37239TIP3    H212600   1.011   3.970   3.903  1.0154  0.3863  1.5618
37240TIP3   OH212601   5.266   2.846   1.765  0.3574  0.3133  0.2561
37240TIP3    H112602   5.215   2.774   1.801  0.9994 -0.4066 -0.2364
37240TIP3    H212603   5.206   2.890   1.705  0.3124 -0.5376 -0.3380
37241TIP3   OH212604   4.475   3.930   7.649  0.3373  0.1516  0.0416
37241TIP3    H112605   4.464   3.923   7.554 -0.1175  1.6087 -0.0293
37241TIP3    H212606   4.500   3.841   7.676  0.2275 -0.3507 -1.3959
37242TIP3   OH212607   7.125   6.652   6.052 -0.4645  0.4858 -0.2313
37242TIP3    H112608   7.107   6.572   6.101 -1.1412  0.8842  0.1993
37242TIP3    H212609   7.198   6.693   6.099  0.4116 -0.2582 -0.9215
37243TIP3   OH212610   7.013   0.914   2.269  0.2838  0.2853 -0.2919
37243TIP3    H112611   6.958   0.931   2.346  0.3555 -0.0088 -0.1763
37243TIP3    H212612   6.954   0.925   2.195  0.2543  0.7441 -0.2067
37244TIP3   OH212613   8.292   6.967   3.284 -0.1765  0.0872  0.1222
37244TIP3    H112614   8.372   6.980   3.234  0.4333  0.3967  1.1635
37244TIP3    H212615   8.222   6.983   3.221  0.5228  3.6969  0.0680
37245TIP3   OH212616   5.028  10.298   5.902  0.3017 -0.1793  0.2730
37245TIP3    H112617   4.953  10.355   5.920 -1.0384 -0.9777 -2.2026
37245TIP3    H212618   5.102  10.341   5.944 -1.2227  1.6080  1.2986
37246TIP3   OH212619   1.014   9.460  10.560  0.3925 -0.5988  0.2813
37246TIP3    H112620   0.924   9.488  10.549  0.2550 -0.9139  0.5901
37246TIP3    H212621   1.056   9.531  10.609  0.4901 -0.1411 -0.4396
37247TIP3   OH212622   4.897   7.687   0.651  0.1906  0.0846  0.0902
37247TIP3    H112623   4.814   7.724   0.681 -0.3661  0.4878 -1.7953
37247TIP3    H212624   4.956   7.696   0.726 -0.8203  1.9236  0.7401
37248TIP3   OH212625   6.568   2.956   6.386  0.4100 -0.6938 -0.4124
37248TIP3    H112626   6.571   2.957   6.290 -0.4925 -0.9592 -0.4583
37248TIP3    H212627   6.490   3.007   6.408  0.2524 -1.1655  0.1541
37249TIP3   OH212628   0.364   8.768   0.367  0.1152 -0.4833 -0.3427
37249TIP3    H112629   0.332   8.845   0.415  0.9810 -0.0100 -0.5021
37249TIP3    H212630   0.325   8.694   0.413 -1.3980  0.0679 -0.6921
37250TIP3   OH212631   0.593   7.293   9.415 -0.0343  0.9202 -0.5346
37250TIP3    H112632   0.541   7.231   9.466  1.5169 -0.2011 -0.2573
37250TIP3    H212633   0.536   7.370   9.406 -1.1479  0.3363  1.0688
37251TIP3   OH212634   2.988   4.773   9.894  0.0569 -0.1319  0.0606
37251TIP3    H112635   3.077   4.758   9.862  0.2494  1.9776 -0.5117
37251TIP3    H212636   2.944   4.689   9.878  0.7886 -0.0220 -3.6664
37252TIP3   OH212637   2.614   0.319   2.258  0.3932  0.4852 -0.5852
37252TIP3    H112638   2.604   0.394   2.317  0.1266 -0.2578  0.3253
37252TIP3    H212639   2.671   0.259   2.305 -1.5842 -1.1105 -0.0703
37253TIP3   OH212640  10.580   0.383  10.233  0.0272 -0.2870  0.4521
37253TIP3    H112641  10.638   0.418  10.166 -1.7155  2.1284  0.0817
37253TIP3    H212642  10.534   0.459  10.268 -1.1567 -1.8006  2.4311
37254TIP3   OH212643   8.437   9.763   1.444  0.1415  0.1109  0.0118
37254TIP3    H112644   8.494   9.838   1.461 -0.3824  0.7243 -0.8702
37254TIP3    H212645   8.364   9.799   1.393  0.0078 -1.0397 -0.6518
37255TIP3   OH212646   9.692   5.679   5.131  0.1432  0.6367  0.6087
37255TIP3    H112647   9.609   5.720   5.154 -1.1113 -1.7539  0.6674
37255TIP3    H212648   9.687   5.668   5.036 -1.3418 -2.7507  0.9476
37256TIP3   OH212649   4.916   2.431   6.722  0.2498  0.4687 -0.1511
37256TIP3    H112650   4.924   2.373   6.646 -0.7344 -0.0039  0.0898
37256TIP3    H212651   5.007   2.452   6.746  0.5701  0.7503 -1.5371
37257TIP3   OH212652   0.402  10.517  10.076 -0.2222 -0.2661 -0.0219
37257TIP3    H112653   0.405  10.470  10.160  0.5326 -0.2966 -0.0649
37257TIP3    H212654   0.373  10.451  10.013  1.6970 -0.9430 -0.2492
37258TIP3   OH212655   7.701   7.619  10.886 -0.6204  0.3924  0.6260
37258TIP3    H112656   7.789   7.641  10.855 -0.5710 -0.1295  0.3922
37258TIP3    H212657   7.715   7.562  10.962 -0.7585  0.1071  0.4387
37259TIP3   OH212658   9.249   0.073   8.822  0.1424  0.0863 -0.1987
37259TIP3    H112659   9.241  -0.001   8.763  0.5360  0.4003 -0.6628
37259TIP3    H212660   9.344   0.084   8.834  0.0605 -0.4777  1.1500
37260TIP3   OH212661   2.750   5.246   8.988  0.0073  0.1952  0.4159
37260TIP3    H112662   2.704   5.212   8.911 -1.8043 -1.2577  2.0466
37260TIP3    H212663   2.842   5.224   8.973  0.0945  1.8912 -2.2838
37261TIP3   OH212664   7.178  10.902   1.170  0.5811 -0.1997  0.7928
37261TIP3    H112665   7.153  10.833   1.232 -0.3678 -0.0826  0.5581
37261TIP3    H212666   7.132  10.980   1.202  0.5813  0.0064  0.2910
37262TIP3   OH212667   8.872   6.663   9.852  0.3395  0.3947 -0.2970
37262TIP3    H112668   8.909   6.672   9.940  1.2020 -0.4334 -0.5605
37262TIP3    H212669   8.903   6.741   9.805  1.3661 -0.0497 -0.3732
37263TIP3   OH212670   1.613   3.054   9.592  0.0800 -0.7131 -0.2077
37263TIP3    H112671   1.700   3.095   9.590 -0.1885  0.0794  1.8772
37263TIP3    H212672   1.553   3.126   9.611 -1.0147 -1.3166 -1.2730
37264TIP3   OH212673   9.342   7.376   4.695  0.5343 -0.2234 -0.2689
37264TIP3    H112674   9.383   7.294   4.720 -0.0417 -0.0242  1.4861
37264TIP3    H212675   9.275   7.352   4.631 -0.5504 -1.3278  1.2316
37265TIP3   OH212676   8.761   4.421   3.673 -0.0474  0.3453 -0.6693
37265TIP3    H112677   8.710   4.394   3.749  0.6386 -2.6197 -1.1417
37265TIP3    H212678   8.696   4.444   3.606 -0.6835  0.2580 -0.0842
37266TIP3   OH212679   9.691  10.755   5.813  0.0253  0.0856 -0.7315
37266TIP3    H112680   9.709  10.705   5.893  1.4749  0.5708 -0.7160
37266TIP3    H212681   9.767  10.813   5.804  0.0799 -0.2221 -2.6658
37267TIP3   OH212682   3.790   3.544   1.220  0.3402  0.7890  0.4875
37267TIP3    H112683   3.866   3.583   1.263  1.4733  0.2846 -0.9412
37267TIP3    H212684   3.776   3.461   1.266  1.4377  0.3246  0.0387
37268TIP3   OH212685   6.166   6.302   5.622  0.0058 -1.0304 -0.4369
37268TIP3    H112686   6.233   6.235   5.613  0.5731 -0.6680  0.8352
37268TIP3    H212687   6.138   6.296   5.714  0.8171  1.1312  0.0158
37269TIP3   OH212688   5.372   6.689   4.826 -0.8994 -0.3434 -0.3174
37269TIP3    H112689   5.312   6.692   4.901  0.9632  1.0293  1.2017
37269TIP3    H212690   5.335   6.751   4.763 -2.3743 -1.3561 -0.5041
37270TIP3   OH212691   9.071   1.763   8.692  0.2792 -0.0366  0.5907
37270TIP3    H112692   9.017   1.708   8.749 -0.0187 -0.0965  0.2556
37270TIP3    H212693   9.155   1.717   8.687  0.1334 -0.3020  0.5620
37271TIP3   OH212694   8.470   5.388   7.809  0.1284  0.6310 -0.0136
37271TIP3    H112695   8.430   5.353   7.889 -1.8251  0.4254 -1.0326
37271TIP3    H212696   8.449   5.482   7.811  1.7560  1.0197  0.6338
37272TIP3   OH212697   3.302   1.012   8.777  0.2543  0.4057 -0.1761
37272TIP3    H112698   3.263   0.960   8.707  1.7527 -1.1173  0.0397
37272TIP3    H212699   3.237   1.080   8.797 -1.0562 -0.3689 -1.6232
37273TIP3   OH212700   1.682   5.262   2.073  0.4841  0.0834 -0.1677
37273TIP3    H112701   1.759   5.238   2.021  0.2363 -1.1386 -0.0010
37273TIP3    H212702   1.647   5.178   2.104 -0.6353  0.6566  0.1636
37274TIP3   OH212703   8.055   1.713   4.597 -0.2242 -0.0253  0.0193
37274TIP3    H112704   8.014   1.735   4.681  0.9823  2.5208  0.0408
37274TIP3    H212705   8.144   1.686   4.620 -0.1837 -0.2320 -0.3776
37275TIP3   OH212706   9.163   3.045  10.270 -1.1126 -0.5627  0.6506
37275TIP3    H112707   9.179   3.115  10.207 -2.0911 -0.9601 -0.0666
37275TIP3    H212708   9.234   2.983  10.257 -1.4761 -0.7943 -0.2980
37276TIP3   OH212709   8.274   1.155   8.485  0.3135 -0.6113  0.0362
37276TIP3    H112710   8.243   1.142   8.574 -1.9699 -0.8543 -0.7408
37276TIP3    H212711   8.246   1.076   8.438  1.0467 -0.2680 -1.0108
37277TIP3   OH212712   6.850   1.061   4.344 -0.4385 -0.1741 -0.2621
37277TIP3    H112713   6.842   1.080   4.438 -0.4821  0.2628 -0.3515
37277TIP3    H212714   6.760   1.050   4.314 -0.3800 -1.4786 -0.0279
37278TIP3   OH212715   0.149   8.276   0.123 -0.0775  0.0690 -0.5014
37278TIP3    H112716   0.126   8.320   0.042 -0.3221 -1.0257 -1.0388
37278TIP3    H212717   0.200   8.199   0.096 -2.1547 -1.6349  0.1713
37279TIP3   OH212718   8.943   0.339   0.164  0.0804  0.2372  0.0749
37279TIP3    H112719   8.897   0.271   0.214 -1.2511  0.9615 -0.1346
37279TIP3    H212720   9.008   0.374   0.226  2.4698 -2.7306 -0.4770
37280TIP3   OH212721  10.824   2.153   5.517  0.3680  0.1882  0.6097
37280TIP3    H112722  10.784   2.221   5.464  0.4492  0.0550  0.3752
37280TIP3    H212723  10.788   2.167   5.605 -1.2777 -0.7734  0.1413
37281TIP3   OH212724   1.900   6.468   2.567  0.2155 -0.1896 -0.0606
37281TIP3    H112725   1.818   6.508   2.595  0.7502  0.9257 -0.0389
37281TIP3    H212726   1.890   6.375   2.587 -1.2367 -0.1473 -0.5462
37282TIP3   OH212727  10.034   9.152   1.111 -0.1795 -0.0366 -0.2454
37282TIP3    H112728   9.944   9.178   1.130 -0.8311 -2.0106 -0.4409
37282TIP3    H212729  10.040   9.062   1.142  1.4731 -0.2208 -1.0263
37283TIP3   OH212730   4.588   4.316   7.435 -0.0933  0.0958  0.5003
37283TIP3    H112731   4.648   4.336   7.363  0.0940 -0.1653  0.5830
37283TIP3    H212732   4.510   4.368   7.416  0.5343  1.2118  0.9172
37284TIP3   OH212733   3.713   5.262   6.920  0.6633  0.7415 -0.3519
37284TIP3    H112734   3.673   5.296   7.000 -2.1443 -1.5955 -0.5924
37284TIP3    H212735   3.798   5.305   6.915  0.7591  1.3046  3.6229
37285TIP3   OH212736   8.553  10.402   3.899  0.4150  0.2062  0.1307
37285TIP3    H112737   8.553  10.378   3.806 -0.4416  1.0962 -0.1167
37285TIP3    H212738   8.636  10.369   3.932  2.0499  2.3169 -1.6020
37286TIP3   OH212739   4.231   1.887   6.000  0.5995  0.0795 -0.0400
37286TIP3    H112740   4.275   1.952   5.945  2.4869  0.1942  1.4764
37286TIP3    H212741   4.275   1.805   5.981  1.0199  0.0515  0.9659
37287TIP3   OH212742   0.234   3.985   0.056 -0.4744  0.0871 -0.7157
37287TIP3    H112743   0.274   3.938  -0.017  2.1389  1.8027 -0.4985
37287TIP3    H212744   0.302   3.989   0.123 -1.1755  2.5999 -0.0422
37288TIP3   OH212745   2.570   2.378   6.964  0.3891 -0.2130  0.0316
37288TIP3    H112746   2.541   2.371   6.873  1.8804 -0.3473 -0.4556
37288TIP3    H212747   2.619   2.297   6.980  1.5222  0.5385  0.4384
37289TIP3   OH212748   3.679   4.728   4.707 -0.2309 -0.1781  0.0940
37289TIP3    H112749   3.751   4.714   4.768 -1.0238 -0.2300  1.0410
37289TIP3    H212750   3.608   4.764   4.761 -1.6880 -2.2432 -0.3180
37290TIP3   OH212751   6.658   1.040   4.788  0.1421  0.6881 -0.5439
37290TIP3    H112752   6.641   0.951   4.818  3.6581 -0.3235 -1.0777
37290TIP3    H212753   6.618   1.096   4.854 -1.4128 -1.2570  0.2752
37291TIP3   OH212754   9.454   2.781   2.998 -0.0680 -0.2317 -0.1816
37291TIP3    H112755   9.544   2.804   3.020 -0.3696  0.7944  0.0277
37291TIP3    H212756   9.458   2.752   2.907  0.4990 -0.3508 -0.1192
37292TIP3   OH212757   6.156   9.356   6.986 -1.2995 -0.7546  0.0668
37292TIP3    H112758   6.135   9.267   6.955  0.5231 -0.6610 -1.6393
37292TIP3    H212759   6.230   9.344   7.045 -0.0065 -0.2745 -1.4015
37293TIP3   OH212760   1.921   7.065   2.772  0.0154 -0.0546 -0.1531
37293TIP3    H112761   1.990   7.011   2.810  0.2997  0.8964  0.7521
37293TIP3    H212762   1.897   7.021   2.691  0.9132 -0.9973  0.0769
37294TIP3   OH212763   9.121   6.154   3.010  0.2990 -0.1796  0.0344
37294TIP3    H112764   9.153   6.243   2.994  1.3807 -0.7823 -1.3823
37294TIP3    H212765   9.112   6.148   3.105 -1.2716  1.9109  0.0815
37295TIP3   OH212766   9.460   0.770   7.738 -0.6844  0.3821 -0.2699
37295TIP3    H112767   9.550   0.784   7.709 -0.6667  0.2823 -0.2630
37295TIP3    H212768   9.429   0.697   7.684 -0.3766 -0.3787  0.5637
37296TIP3   OH212769   0.955   4.165   3.112 -0.3562 -0.2207  0.4427
37296TIP3    H112770   0.982   4.156   3.021  0.6440  2.9000  0.2977
37296TIP3    H212771   0.927   4.256   3.120  0.3988 -0.1369  3.4448
37297TIP3   OH212772   0.740   0.521   1.281  0.1101 -0.4448 -0.6758
37297TIP3    H112773   0.747   0.457   1.211  0.4506 -2.0412  0.7430
37297TIP3    H212774   0.651   0.556   1.274  0.0038 -0.8946 -1.6161
37298TIP3   OH212775   2.777   1.894   4.597 -0.5768 -0.1178 -0.2032
37298TIP3    H112776   2.767   1.858   4.685 -0.1765  1.0342  0.3317
37298TIP3    H212777   2.864   1.864   4.569 -0.7086 -0.4914 -0.2246
37299TIP3   OH212778   1.490   7.997   8.248 -0.4685  0.1885 -0.0057
37299TIP3    H112779   1.566   7.994   8.306 -2.1872 -0.4486  2.3873
37299TIP3    H212780   1.454   8.085   8.259  1.2341  1.4191 -3.1141
37300TIP3   OH212781   3.997   2.831   9.800 -0.1065  0.4620 -0.0411
37300TIP3    H112782   3.923   2.892   9.802  0.0453  0.6754 -0.7055
37300TIP3    H212783   3.989   2.781   9.881 -0.2045  1.4120  0.5605
37301TIP3   OH212784   3.096   0.670   6.866 -0.4273  0.4995  0.2038
37301TIP3    H112785   3.033   0.645   6.799  0.5487 -0.4674 -0.3862
37301TIP3    H212786   3.164   0.719   6.819  0.8794 -1.2085  0.2117
37302TIP3   OH212787   4.783   7.730   1.692 -0.5951  0.3392 -0.7819
37302TIP3    H112788   4.699   7.764   1.662 -1.3222 -0.6942 -0.0096
37302TIP3    H212789   4.769   7.636   1.700 -0.1096  0.3998  1.5962
37303TIP3   OH212790   9.924   6.394   6.793  0.6118 -0.0950  0.1471
37303TIP3    H112791   9.932   6.484   6.826 -0.1658  0.7081 -1.6916
37303TIP3    H212792  10.005   6.381   6.743 -0.3251  0.5505 -1.6380
37304TIP3   OH212793   3.104   3.609  10.325 -0.1477 -0.6077 -0.1095
37304TIP3    H112794   3.067   3.689  10.364 -1.1126 -0.7705 -0.6500
37304TIP3    H212795   3.112   3.630  10.232  0.6567 -0.7670 -0.0817
37305TIP3   OH212796   1.943   8.538   1.063  0.0999 -0.4652  0.0308
37305TIP3    H112797   1.964   8.527   1.156  2.7891  1.1980 -0.2820
37305TIP3    H212798   1.916   8.450   1.035 -0.9387 -0.9889  2.3703
37306TIP3   OH212799   2.252   1.119   7.154 -0.1071 -0.4827  0.3798
37306TIP3    H112800   2.220   1.204   7.184 -1.4679 -1.8215  3.2184
37306TIP3    H212801   2.183   1.087   7.096  0.3490  0.2569 -0.5942
37307TIP3   OH212802   8.940  10.702   5.808 -0.1862  0.1113 -0.8763
37307TIP3    H112803   8.955  10.777   5.865 -2.0866 -0.2784  0.2425
37307TIP3    H212804   8.932  10.628   5.869  1.0128 -0.8974 -1.9063
37308TIP3   OH212805   3.010   8.384   7.275 -0.1754 -0.2262  0.0207
37308TIP3    H112806   3.054   8.304   7.248  1.8053  0.5855  0.6886
37308TIP3    H212807   3.031   8.448   7.207 -2.0562 -0.3054 -0.7076
37309TIP3   OH212808   3.514   2.843   5.234 -0.0408 -0.2600  0.1942
37309TIP3    H112809   3.547   2.894   5.307  0.7048  0.4611 -0.6133
37309TIP3    H212810   3.422   2.868   5.226  0.2023  0.6467  0.0855
37310TIP3   OH212811   8.620   4.319   9.112  0.7609  0.8950 -0.4490
37310TIP3    H112812   8.636   4.225   9.102 -0.8973  0.2536  1.9334
37310TIP3    H212813   8.540   4.336   9.062  0.9605  0.9994 -0.7325
37311TIP3   OH212814   3.866   1.269   0.926  0.3644 -0.1891 -0.5227
37311TIP3    H112815   3.910   1.208   0.867  0.8238 -0.3244 -0.0455
37311TIP3    H212816   3.915   1.350   0.917 -0.9303  0.4714 -2.0110
37312TIP3   OH212817   5.076   0.877   1.857 -0.1469  0.1875 -0.4924
37312TIP3    H112818   4.984   0.858   1.877  0.3491 -0.3964  1.4262
37312TIP3    H212819   5.123   0.854   1.937  1.8014 -0.4537 -1.7575
37313TIP3   OH212820   0.821   7.896  10.883 -0.4004  0.3188  0.0247
37313TIP3    H112821   0.868   7.974  10.853 -0.6591  0.8034  0.8387
37313TIP3    H212822   0.880   7.823  10.862  0.7042  0.9045  0.9310
37314TIP3   OH212823  10.499   5.477   5.798  0.4671  0.4078  0.0399
37314TIP3    H112824  10.517   5.448   5.709  1.3098 -0.3294  0.4332
37314TIP3    H212825  10.521   5.571   5.797  1.7606  0.1274 -0.2101
37315TIP3   OH212826   8.849   2.868   0.853  0.1389 -0.6651  0.3878
37315TIP3    H112827   8.899   2.790   0.833  0.1685 -0.5184 -0.1168
37315TIP3    H212828   8.914   2.939   0.856 -0.2606 -0.0869 -2.4201
37316TIP3   OH212829   7.890   3.343   8.900 -0.4518 -0.1390 -0.2865
37316TIP3    H112830   7.952   3.403   8.857  0.1135 -1.1512 -0.9256
37316TIP3    H212831   7.804   3.382   8.883 -0.0544  0.8709 -0.0646
37317TIP3   OH212832   7.928   2.611   7.585  0.4782  0.2092  0.8644
37317TIP3    H112833   8.019   2.584   7.577  0.5223 -0.4876  3.1036
37317TIP3    H212834   7.877   2.532   7.566  0.3888  0.2002  1.1386
37318TIP3   OH212835   9.456   9.525   9.485 -0.4404  0.2941  0.0309
37318TIP3    H112836   9.364   9.499   9.492 -0.3862  0.3203  1.1140
37318TIP3    H212837   9.454   9.610   9.442 -0.8386 -0.1654 -0.8783
37319TIP3   OH212838   7.759   6.319   7.999 -0.3095  0.6293 -0.4915
37319TIP3    H112839   7.666   6.321   7.974 -0.7162 -1.9703  0.4407
37319TIP3    H212840   7.790   6.235   7.963  1.0534  0.3799  1.1826
37320TIP3   OH212841   3.002   9.733   6.799 -0.5155  0.5502  0.2805
37320TIP3    H112842   3.002   9.754   6.892  1.4259 -2.7233  1.1871
37320TIP3    H212843   2.911   9.712   6.778 -0.6899 -0.6483  2.0254
37321TIP3   OH212844   3.977   2.063   3.764 -0.0222 -0.2462  0.6274
37321TIP3    H112845   3.971   2.122   3.689  0.3645  1.0446  1.5759
37321TIP3    H212846   3.937   1.981   3.733 -0.3777  0.4238 -0.7914
37322TIP3   OH212847   6.201   1.518   1.621 -0.4998  0.0074  0.1629
37322TIP3    H112848   6.157   1.456   1.563  2.4453  0.3654 -2.7296
37322TIP3    H212849   6.142   1.593   1.624 -2.5413 -1.5299  0.9779
37323TIP3   OH212850   0.664   5.618   1.760 -0.5913  0.3021  0.0028
37323TIP3    H112851   0.607   5.694   1.773 -1.1323  0.2013 -1.5953
37323TIP3    H212852   0.603   5.545   1.744 -0.0455 -0.1502 -0.0568
37324TIP3   OH212853   6.587   7.052   8.432 -0.4337  0.2054  0.9757
37324TIP3    H112854   6.588   6.967   8.388  1.8902 -0.1551  1.5569
37324TIP3    H212855   6.528   7.106   8.380  0.7843 -0.7251 -1.5235
37325TIP3   OH212856   7.832   6.568   4.146  0.0960 -0.0701 -0.4614
37325TIP3    H112857   7.836   6.664   4.145 -1.6752  0.0347 -0.8638
37325TIP3    H212858   7.815   6.547   4.238  2.6428 -0.1766  0.0589
37326TIP3   OH212859   0.798   3.104   6.280 -0.5549  0.0089 -0.4651
37326TIP3    H112860   0.794   3.185   6.229 -1.1430  0.1482 -0.2112
37326TIP3    H212861   0.843   3.042   6.224 -2.3777 -0.2498 -1.7184
37327TIP3   OH212862  10.138   8.228   3.697  0.2589  0.2274  0.1897
37327TIP3    H112863  10.212   8.288   3.688  0.9344 -0.2681  1.9186
37327TIP3    H212864  10.074   8.276   3.749 -1.4438  1.2727 -2.6385
37328TIP3   OH212865  10.012   9.291   9.743  0.5499 -0.0314  0.3633
37328TIP3    H112866   9.968   9.254   9.666 -0.8322  0.4418  0.9059
37328TIP3    H212867   9.977   9.380   9.750  2.0416  0.5662  0.4831
37329TIP3   OH212868   7.073   9.788   7.621 -0.5881  0.1499 -0.4077
37329TIP3    H112869   7.025   9.869   7.636 -0.9745 -0.2101  0.3965
37329TIP3    H212870   7.163   9.816   7.603 -0.6135  0.7449  0.3263
37330TIP3   OH212871   9.643   5.805   0.079 -0.1874  0.3175 -0.3007
37330TIP3    H112872   9.659   5.718   0.116 -0.5508  0.5072  0.3247
37330TIP3    H212873   9.548   5.810   0.071 -0.2611  1.1516  0.9134
37331TIP3   OH212874   3.519   3.681   3.436  0.1624 -0.3262  0.1426
37331TIP3    H112875   3.515   3.777   3.445  1.4411 -0.1954 -0.5779
37331TIP3    H212876   3.556   3.651   3.519  0.0894 -0.1809  0.2301
37332TIP3   OH212877  10.449   5.904   1.565 -0.3968 -0.8535  0.3056
37332TIP3    H112878  10.541   5.882   1.550 -0.0811  1.1887 -1.4632
37332TIP3    H212879  10.422   5.850   1.638  2.6580 -0.4430  1.8995
37333TIP3   OH212880   5.535  10.030   1.861  0.4658 -0.4979  0.1687
37333TIP3    H112881   5.551  10.088   1.786 -1.5999 -2.2180 -1.7405
37333TIP3    H212882   5.552  10.085   1.937  1.3798  1.7494 -1.5363
37334TIP3   OH212883   2.566   2.842   8.505 -0.2914 -0.3523  0.2421
37334TIP3    H112884   2.589   2.922   8.553 -0.5869  0.2730 -0.6263
37334TIP3    H212885   2.508   2.795   8.564 -0.5993  0.3743  0.5343
37335TIP3   OH212886   4.655   7.840   3.421  0.5735 -0.0290 -0.2460
37335TIP3    H112887   4.664   7.810   3.330 -1.1085 -1.6604  0.0581
37335TIP3    H212888   4.742   7.828   3.459  0.5926 -2.2395 -0.8600
37336TIP3   OH212889   4.317   0.835   0.322  0.2115 -0.5909 -0.0187
37336TIP3    H112890   4.375   0.783   0.377  1.1510  0.9870  0.5563
37336TIP3    H212891   4.232   0.831   0.366 -0.2614 -3.1075 -0.9889
37337TIP3   OH212892   9.356   8.810   5.491 -0.0252  0.5787  0.2175
37337TIP3    H112893   9.304   8.765   5.424  1.5956 -0.5852 -0.3262
37337TIP3    H212894   9.327   8.901   5.486 -1.1747  0.1909 -0.8565
37338TIP3   OH212895   4.338  10.686   5.932  0.2577 -0.1009 -0.1609
37338TIP3    H112896   4.244  10.695   5.914  0.3146 -0.7921 -0.8557
37338TIP3    H212897   4.346  10.602   5.976  0.3461  0.7821  1.5928
37339TIP3   OH212898   3.537   9.605   2.430  0.6598 -0.4037  0.4375
37339TIP3    H112899   3.528   9.694   2.394 -1.4696 -0.0906  1.5601
37339TIP3    H212900   3.604   9.564   2.375  0.8947  1.5256 -0.8412
37340TIP3   OH212901   8.868   8.636  10.368 -0.3836 -0.5731 -0.3475
37340TIP3    H112902   8.863   8.705  10.434 -0.6312  0.8820 -1.8157
37340TIP3    H212903   8.961   8.629  10.348 -0.3102 -1.0004  0.1312
37341TIP3   OH212904   2.953   5.948   3.162  0.1232  0.0088 -0.4621
37341TIP3    H112905   2.867   5.989   3.175 -0.3244  0.4998 -3.8965
37341TIP3    H212906   2.936   5.854   3.166 -0.5166  0.1071 -0.6589
37342TIP3   OH212907   0.291   4.745   6.945 -0.3753 -0.2999  0.4494
37342TIP3    H112908   0.226   4.725   7.013  0.5465 -0.0604  1.4207
37342TIP3    H212909   0.286   4.840   6.935  0.2483 -0.2001  0.9869
37343TIP3   OH212910   6.126  10.781   6.780 -0.0532 -0.0690  0.8687
37343TIP3    H112911   6.082  10.841   6.841  0.6163 -0.1350  1.4326
37343TIP3    H212912   6.215  10.815   6.774  0.6539 -1.6035  2.0471
37344TIP3   OH212913   6.148   3.571   6.771 -0.1508 -0.0246  0.2830
37344TIP3    H112914   6.056   3.582   6.795 -0.2933  0.4052 -0.4382
37344TIP3    H212915   6.146   3.525   6.687  0.3294 -0.9738  0.7719
37345TIP3   OH212916  10.428   9.374   8.288  0.1631 -0.3911 -0.1264
37345TIP3    H112917  10.476   9.383   8.369  0.1598 -0.3374 -0.1304
37345TIP3    H212918  10.474   9.430   8.226 -1.8773  2.4635  0.7378
37346TIP3   OH212919   7.601   5.050   1.327 -0.0806 -0.0602 -0.5133
37346TIP3    H112920   7.563   5.136   1.340  0.5442 -0.0139  1.2624
37346TIP3    H212921   7.693   5.061   1.348 -0.2730 -1.4573  1.2761
37347TIP3   OH212922   4.274   8.615   0.290 -0.0334 -0.1175  0.0139
37347TIP3    H112923   4.236   8.702   0.273  1.1630  0.3787 -0.1797
37347TIP3    H212924   4.318   8.624   0.374  0.0288 -0.5615  0.0293
37348TIP3   OH212925   3.480   3.334   4.756 -0.1746  0.0131 -0.1494
37348TIP3    H112926   3.403   3.291   4.791 -0.6432  1.4188  0.6258
37348TIP3    H212927   3.521   3.376   4.831  1.6578 -1.0977 -0.4528
37349TIP3   OH212928   2.573   9.710   2.760 -0.4618 -0.3033  0.1811
37349TIP3    H112929   2.625   9.638   2.795 -0.5328 -0.4061  0.0791
37349TIP3    H212930   2.537   9.676   2.678  1.1232  0.4997 -0.9200
37350TIP3   OH212931   3.167   3.616   1.377  0.5344  0.1778 -0.2022
37350TIP3    H112932   3.252   3.633   1.338  1.0671  2.5665  1.7455
37350TIP3    H212933   3.104   3.650   1.313  1.2755  1.8288 -0.1112
37351TIP3   OH212934   0.356   5.114   1.478  0.1742 -0.3633 -0.1375
37351TIP3    H112935   0.367   5.174   1.404 -1.2351  2.2006  1.5764
37351TIP3    H212936   0.446   5.091   1.503  0.9193  2.3844  0.0881
37352TIP3   OH212937   3.842   3.969   3.753  0.6861 -0.3365  0.0930
37352TIP3    H112938   3.768   3.910   3.743  1.7826 -1.7082 -0.3757
37352TIP3    H212939   3.816   4.030   3.822 -0.5050 -1.3489  0.5735
37353TIP3   OH212940   3.000   0.316   2.345  0.3205  0.0796 -0.1511
37353TIP3    H112941   2.981   0.239   2.292 -0.1186  0.6806 -0.8831
37353TIP3    H212942   3.084   0.348   2.312  0.9914 -0.6320  0.8116
37354TIP3   OH212943   8.749   4.294   9.514  0.5662 -0.0156 -0.4498
37354TIP3    H112944   8.803   4.253   9.446  3.4663  1.1070  1.0250
37354TIP3    H212945   8.737   4.225   9.580  2.9272  0.4967  0.6345
37355TIP3   OH212946   2.243   1.343   8.759  0.3886  0.6390 -0.0565
37355TIP3    H112947   2.299   1.345   8.837  0.2183 -0.9901  0.1325
37355TIP3    H212948   2.277   1.270   8.707 -0.2712  0.9425 -0.9390
37356TIP3   OH212949   7.871   9.619   8.111  0.2955 -0.4178 -0.1772
37356TIP3    H112950   7.937   9.566   8.155  1.7264  1.0296 -0.4580
37356TIP3    H212951   7.878   9.594   8.018  0.3702 -0.3443 -0.1914
37357TIP3   OH212952   3.457   8.514   6.677  0.3149  0.8373  0.0980
37357TIP3    H112953   3.504   8.595   6.658  0.6555  0.8933  1.0795
37357TIP3    H212954   3.473   8.499   6.771  0.2251 -0.3411 -0.0596
37358TIP3   OH212955   1.141   9.161   0.213  0.0459  0.5901 -0.4858
37358TIP3    H112956   1.165   9.150   0.305 -1.7025 -3.2816 -0.2797
37358TIP3    H212957   1.045   9.157   0.213  0.0467 -0.9205 -2.5264
37359TIP3   OH212958   6.936   8.485   9.228  0.1441 -0.2516 -0.1928
37359TIP3    H112959   7.020   8.498   9.273  0.7688  3.0727 -2.0214
37359TIP3    H212960   6.939   8.394   9.198  2.8665 -0.4089  0.2655
37360TIP3   OH212961   7.547   0.626   4.642  0.6972  0.0102 -0.0472
37360TIP3    H112962   7.575   0.542   4.678  0.4605 -0.7782 -1.6211
37360TIP3    H212963   7.582   0.691   4.702 -0.6699 -1.2531  2.2808
37361TIP3   OH212964   6.967  10.870   7.240  0.5018  0.3382 -0.1206
37361TIP3    H112965   6.930  10.782   7.243 -1.7741  1.0934 -2.5389
37361TIP3    H212966   7.062  10.856   7.245  0.2469 -2.2924 -1.1396
37362TIP3   OH212967   3.156   0.837   8.637  0.5742 -0.4929  0.2386
37362TIP3    H112968   3.125   0.824   8.726  1.1653 -0.5300  0.4434
37362TIP3    H212969   3.132   0.757   8.591  0.3163 -0.4957  0.3779
37363TIP3   OH212970   9.979   7.294   8.707 -0.2659  0.3334  0.0541
37363TIP3    H112971  10.063   7.256   8.681 -0.9892 -0.2262 -1.5618
37363TIP3    H212972   9.975   7.280   8.802  1.7591  0.9970  0.3056
37364TIP3   OH212973   7.775   6.094   7.421 -0.3927 -0.2121  0.2025
37364TIP3    H112974   7.749   6.018   7.370  2.3916 -0.2731 -1.3484
37364TIP3    H212975   7.870   6.098   7.411 -0.3144  2.9198  1.0229
37365TIP3   OH212976   6.525   9.400  10.387  0.2584 -0.0884  0.6819
37365TIP3    H112977   6.535   9.368  10.477  0.8898  0.3592  0.7791
37365TIP3    H212978   6.439   9.369  10.360  0.3723 -0.8723  1.1779
37366TIP3   OH212979   1.865   1.187   7.007 -0.0134  0.4134  0.2031
37366TIP3    H112980   1.881   1.266   6.955  0.5122  0.9950  1.2029
37366TIP3    H212981   1.771   1.173   7.001 -0.0260  0.7513 -0.4965
37367TIP3   OH212982   1.212   2.727   1.184  0.0348  0.2525 -0.2713
37367TIP3    H112983   1.250   2.706   1.269  0.5306 -0.6214 -0.6891
37367TIP3    H212984   1.124   2.689   1.187  0.3821 -0.6028 -0.4667
37368TIP3   OH212985   1.137   9.333   7.466  0.1226 -0.2593 -0.5260
37368TIP3    H112986   1.060   9.307   7.416 -0.2067 -0.7707  0.2225
37368TIP3    H212987   1.131   9.428   7.472  0.3858 -0.1456 -1.7825
37369TIP3   OH212988   0.177   0.938  10.425  0.0284  0.4879 -0.0601
37369TIP3    H112989   0.127   0.937  10.507 -0.2777 -0.0560 -0.2512
37369TIP3    H212990   0.139   0.868  10.373  2.3399 -1.3680  0.5933
37370TIP3   OH212991   1.340   6.012   6.209 -0.3212  0.1877 -0.0345
37370TIP3    H112992   1.429   6.011   6.246 -1.0371  3.0346  2.1102
37370TIP3    H212993   1.303   5.927   6.233  1.1684 -0.2776  0.7554
37371TIP3   OH212994   9.055  10.485   7.648 -0.2494  0.5024 -0.3392
37371TIP3    H112995   8.979  10.542   7.644  0.5480  1.5763 -0.6386
37371TIP3    H212996   9.077  10.480   7.741 -0.7133  0.1283 -0.2445
37372TIP3   OH212997   7.516   2.969   6.641  0.4461 -0.4018 -0.5317
37372TIP3    H112998   7.564   2.994   6.720 -1.3255 -3.3888  1.7315
37372TIP3    H212999   7.521   2.873   6.640 -2.2940 -0.6227 -2.2699
37373TIP3   OH213000   0.278   6.223   1.967  0.2011  0.2613  0.3339
37373TIP3    H113001   0.354   6.169   1.990  0.7496  0.7090 -0.3999
37373TIP3    H213002   0.272   6.287   2.037  1.7045  1.4523 -0.5563
37374TIP3   OH213003   5.158  10.221  10.383 -0.0076  0.1720 -0.3367
37374TIP3    H113004   5.191  10.211  10.294  0.0189 -0.7837 -0.2395
37374TIP3    H213005   5.121  10.309  10.386  2.7120  1.4126 -0.3781
37375TIP3   OH213006   0.837   9.585   8.461  0.2911  0.6345 -0.1199
37375TIP3    H113007   0.775   9.533   8.410 -0.8232  1.9101 -0.1236
37375TIP3    H213008   0.889   9.521   8.509 -0.1574 -0.5127 -1.1262
37376TIP3   OH213009   3.571   1.975   5.503  1.0720 -0.5548 -0.4822
37376TIP3    H113010   3.594   1.993   5.594 -0.0957 -1.5235  0.0225
37376TIP3    H213011   3.581   2.060   5.459 -2.9676  1.2418  1.5255
37377TIP3   OH213012   3.073   7.613   9.231  0.0257  0.6564 -0.2379
37377TIP3    H113013   3.102   7.702   9.247  0.8840  0.2745  0.4209
37377TIP3    H213014   2.980   7.613   9.256  0.2227  1.1753  0.5263
37378TIP3   OH213015   3.370   7.727   7.583 -0.2098  0.8400  0.6383
37378TIP3    H113016   3.282   7.698   7.607 -0.2465  1.2875  1.0389
37378TIP3    H213017   3.428   7.677   7.641 -0.2311  1.0120  0.8055
37379TIP3   OH213018   9.803   6.463   6.190  0.4061  0.2373 -0.1615
37379TIP3    H113019   9.728   6.453   6.132  1.1917  0.9587 -1.3340
37379TIP3    H213020   9.849   6.379   6.185  1.1715  0.7144 -1.6234
37380TIP3   OH213021   1.799   4.739   8.012 -0.0280 -0.1394  0.0708
37380TIP3    H113022   1.720   4.775   8.053  0.6586  0.0803  1.2502
37380TIP3    H213023   1.778   4.647   7.997 -0.6094 -0.0172  0.0838
37381TIP3   OH213024   3.024   9.836   6.548 -0.0739 -0.6217 -0.4690
37381TIP3    H113025   2.962   9.908   6.535  1.8578  0.9148 -1.9097
37381TIP3    H213026   3.000   9.797   6.632 -1.9268  0.9440 -0.2140
37382TIP3   OH213027  10.273   1.789   9.889 -0.1493 -0.0792  0.2468
37382TIP3    H113028  10.202   1.761   9.947 -1.7722 -0.0152 -1.5931
37382TIP3    H213029  10.353   1.765   9.935 -1.3875 -1.7201  1.6603
37383TIP3   OH213030   7.717   9.953   8.517 -0.0661 -0.0693 -0.2961
37383TIP3    H113031   7.654  10.003   8.465 -1.0413 -1.3532 -0.4107
37383TIP3    H213032   7.709   9.863   8.484  2.5939 -0.1359 -1.0405
37384TIP3   OH213033   9.464   5.668   3.779  0.1957  0.1674 -0.2724
37384TIP3    H113034   9.392   5.613   3.811 -0.0024  0.0678 -0.8856
37384TIP3    H213035   9.425   5.720   3.709  0.4486  0.9100  0.1289
37385TIP3   OH213036   8.846   9.864   7.319 -0.1988 -0.6523  0.2505
37385TIP3    H113037   8.776   9.928   7.328  0.9736  0.9339 -1.2131
37385TIP3    H213038   8.898   9.873   7.399  0.0438  0.3837 -0.0084
37386TIP3   OH213039   5.232   6.416   0.634 -0.7304  0.1494  0.2307
37386TIP3    H113040   5.267   6.388   0.719 -1.1993 -1.0861  0.0364
37386TIP3    H213041   5.161   6.476   0.657 -0.3593  0.4268  0.6884
37387TIP3   OH213042   1.740  10.758   4.039  0.3009  0.1520  0.3640
37387TIP3    H113043   1.772  10.671   4.013 -3.3289 -1.0699 -0.6450
37387TIP3    H213044   1.701  10.744   4.126  0.0549  0.8589  0.3753
37388TIP3   OH213045   5.160   9.701   2.215  0.2198  0.0053 -0.3829
37388TIP3    H113046   5.213   9.770   2.254 -1.3235  0.4368  1.0791
37388TIP3    H213047   5.199   9.620   2.249 -0.3928  0.3375  1.2388
37389TIP3   OH213048   2.245   5.212   9.598 -0.3693 -0.3867 -0.2761
37389TIP3    H113049   2.272   5.198   9.688  1.3642 -0.0407 -0.7073
37389TIP3    H213050   2.168   5.269   9.604  1.0928  1.5796  0.9197
37390TIP3   OH213051   0.480   5.153   3.362  0.4521 -0.3457  0.0255
37390TIP3    H113052   0.502   5.094   3.290  1.2595  0.2925 -0.2694
37390TIP3    H213053   0.393   5.125   3.390 -0.2491 -0.1228 -1.7406
37391TIP3   OH213054   3.354   8.350   9.496  1.1032  0.1253  0.4373
37391TIP3    H113055   3.405   8.280   9.536 -1.0585 -0.5104  2.2684
37391TIP3    H213056   3.388   8.430   9.535  1.6587 -0.1332  0.5010
37392TIP3   OH213057   7.474   7.285  10.117 -0.1605 -0.5164 -0.0183
37392TIP3    H113058   7.507   7.228  10.187  1.0240  0.6834  0.4456
37392TIP3    H213059   7.542   7.281  10.050  0.5725  1.3161  0.5726
37393TIP3   OH213060   6.102   4.777   6.413  0.0549 -0.4797 -0.4041
37393TIP3    H113061   6.050   4.839   6.464  0.6610 -0.6827  0.4864
37393TIP3    H213062   6.078   4.691   6.448  0.2040 -0.6502 -0.7157
37394TIP3   OH213063   0.681   2.675   8.972 -0.5847  0.4576 -0.7099
37394TIP3    H113064   0.697   2.581   8.968  0.7677  0.6294  0.1499
37394TIP3    H213065   0.708   2.708   8.886 -0.2621  0.1804 -0.7142
37395TIP3   OH213066   6.761   4.810  10.354 -0.0898 -0.5510  0.2467
37395TIP3    H113067   6.734   4.885  10.408  0.4304 -0.2796  0.1390
37395TIP3    H213068   6.856   4.806  10.365 -0.0095 -0.6470 -0.4521
37396TIP3   OH213069   3.906   4.242   1.183  0.3139  0.6107  0.0325
37396TIP3    H113070   3.977   4.298   1.152 -1.7839  2.7344 -1.2571
37396TIP3    H213071   3.867   4.291   1.255  1.0561 -1.2681  1.8063
37397TIP3   OH213072   9.080   9.089   4.442  0.3394  0.4838  0.0063
37397TIP3    H113073   9.022   9.019   4.412  0.2684  0.7176 -0.4025
37397TIP3    H213074   9.125   9.052   4.518  1.9339 -0.7981 -1.4848
37398TIP3   OH213075   9.302   0.067   3.845  0.1472 -0.0455  0.6455
37398TIP3    H113076   9.218   0.054   3.801  0.6768 -0.0705 -0.4078
37398TIP3    H213077   9.298   0.012   3.923  0.0696 -1.9242 -0.6108
37399TIP3   OH213078   7.082   3.975   9.757  0.5559 -0.2202  0.1472
37399TIP3    H113079   7.176   3.995   9.758  0.4934  0.2047  2.7214
37399TIP3    H213080   7.040   4.057   9.733  0.7293  0.6436  2.5348
37400TIP3   OH213081   5.797   9.487   0.072  0.2886  0.1951 -0.2234
37400TIP3    H113082   5.829   9.570   0.106 -0.1530  0.1032  0.4437
37400TIP3    H213083   5.853   9.468  -0.003  1.6028  0.1683  0.7453
37401TIP3   OH213084   6.849   0.532   3.978 -0.2929  0.5969 -0.9951
37401TIP3    H113085   6.789   0.599   4.011 -1.3165 -0.2946 -1.0144
37401TIP3    H213086   6.921   0.531   4.041 -0.7135  1.0790 -0.5039
37402TIP3   OH213087   9.287  10.863   9.450  0.2210  0.2155 -0.0569
37402TIP3    H113088   9.299  10.782   9.401 -3.2809 -2.9683  3.5646
37402TIP3    H213089   9.210  10.904   9.411  0.4778  0.4135 -0.3518
37403TIP3   OH213090   2.349   8.569   3.920 -0.4913 -0.6587 -0.1005
37403TIP3    H113091   2.349   8.586   4.014  1.0653 -0.6337 -0.0784
37403TIP3    H213092   2.407   8.494   3.909  0.6625  0.3427 -1.1854
37404TIP3   OH213093   3.125   8.015   4.209  0.0358 -0.1952 -0.1195
37404TIP3    H113094   3.083   8.002   4.294 -0.4125 -0.4586 -0.3738
37404TIP3    H213095   3.176   8.095   4.219 -1.4192  0.7720 -0.1098
37405TIP3   OH213096   0.973   0.231   6.229 -0.1321 -0.4277  0.4743
37405TIP3    H113097   0.958   0.226   6.323  0.4676  0.0230  0.6030
37405TIP3    H213098   0.914   0.300   6.199 -0.0983 -0.3535  0.5761
37406TIP3   OH213099   6.001   3.566   1.829 -0.5244  0.4748 -0.8801
37406TIP3    H113100   5.923   3.621   1.831 -1.7582 -1.1208 -2.1895
37406TIP3    H213101   5.970   3.483   1.793  1.6784 -0.3929 -0.8830
37407TIP3   OH213102   8.304   4.182   4.757 -0.3301  0.0047 -0.1931
37407TIP3    H113103   8.248   4.126   4.810 -1.3640  0.8503 -0.3488
37407TIP3    H213104   8.343   4.243   4.820  0.2546 -0.4439 -0.1141
37408TIP3   OH213105   3.164  10.548   7.429  0.1689  0.7915 -0.0034
37408TIP3    H113106   3.192  10.475   7.485 -0.8871  0.0407 -0.4261
37408TIP3    H213107   3.070  10.557   7.447 -0.7650 -0.9830 -3.2696
37409TIP3   OH213108   6.384   0.525   1.280  0.6085 -0.0324  0.4600
37409TIP3    H113109   6.457   0.464   1.271  0.4534 -0.2549  0.6929
37409TIP3    H213110   6.424   0.612   1.274  0.6601 -0.1398 -1.2503
37410TIP3   OH213111   6.411   0.200   1.148  0.0536 -0.2743  0.0020
37410TIP3    H113112   6.430   0.246   1.066 -2.6379 -0.7092 -0.9766
37410TIP3    H213113   6.348   0.257   1.193 -1.3114 -1.7080 -0.0070
37411TIP3   OH213114   9.551   3.091   5.943  0.0990  0.5558 -0.4122
37411TIP3    H113115   9.539   3.186   5.952  0.6609  0.6936 -1.1266
37411TIP3    H213116   9.611   3.068   6.014 -0.1929  0.6917 -0.1129
37412TIP3   OH213117  10.427   9.303   8.989 -0.5689  0.2667  0.3411
37412TIP3    H113118  10.426   9.229   9.051 -0.9171 -0.2441 -0.2556
37412TIP3    H213119  10.334   9.317   8.969 -0.4237 -0.0015 -0.5530
37413TIP3   OH213120   2.383   6.531  10.382 -0.2245  0.3439 -0.2983
37413TIP3    H113121   2.379   6.624  10.359  0.1453  0.1543 -1.1483
37413TIP3    H213122   2.420   6.488  10.305  3.1065 -0.0575  1.3590
37414TIP3   OH213123   3.090   6.669   5.977  0.3139  0.2386 -0.2104
37414TIP3    H113124   3.115   6.580   6.000 -1.2051 -0.0736  0.2956
37414TIP3    H213125   3.090   6.670   5.881 -2.8132 -1.3032 -0.3482
37415TIP3   OH213126  10.274   9.297   9.667 -0.0394 -0.3314  0.3849
37415TIP3    H113127  10.185   9.282   9.700 -0.2172 -0.6772 -0.2240
37415TIP3    H213128  10.288   9.391   9.678 -0.6610 -0.1904  0.0724
37416TIP3   OH213129   1.544   1.274  10.486  0.2730  0.1699  0.4222
37416TIP3    H113130   1.549   1.222  10.566 -0.8014 -1.3785 -0.4659
37416TIP3    H213131   1.605   1.346  10.501 -0.0015  0.0195  2.6840
37417TIP3   OH213132   9.767   2.515   5.122 -0.0170  0.1794 -0.1080
37417TIP3    H113133   9.742   2.427   5.149  1.0375 -0.1409 -0.1345
37417TIP3    H213134   9.760   2.568   5.201  1.9410 -0.5135  0.5881
37418TIP3   OH213135   5.195   7.893   1.836  0.3440  0.4199  0.2455
37418TIP3    H113136   5.153   7.807   1.846  0.3794  0.6573  3.3245
37418TIP3    H213137   5.269   7.876   1.778  0.0725 -1.5389  0.3797
37419TIP3   OH213138   4.386   9.902   0.549 -0.3311 -0.1382  0.2528
37419TIP3    H113139   4.459   9.841   0.533  0.3356  0.5119  0.7203
37419TIP3    H213140   4.356   9.928   0.463 -1.4347 -2.0456  0.0032
37420TIP3   OH213141   3.556  10.820   3.075 -0.5416 -0.3278 -0.4655
37420TIP3    H113142   3.527  10.794   2.988 -0.1770 -1.2145 -0.3358
37420TIP3    H213143   3.486  10.790   3.133 -0.8362  0.3595 -0.4553
37421TIP3   OH213144  10.076   2.067   0.001 -0.3066  0.4420 -0.0792
37421TIP3    H113145  10.165   2.089   0.030  0.2251 -0.0782 -1.2572
37421TIP3    H213146  10.020   2.094   0.073  0.7206  1.6920  0.2861
37422TIP3   OH213147  10.807   5.340   1.579  0.0598  0.0263 -0.0733
37422TIP3    H113148  10.896   5.310   1.561  0.4708  2.0286 -1.8587
37422TIP3    H213149  10.775   5.283   1.650  2.6524 -0.8911  0.4472
37423TIP3   OH213150   5.369   7.683  10.376  0.0027  0.0617 -0.4104
37423TIP3    H113151   5.346   7.757  10.320  1.0011  1.0027  0.4052
37423TIP3    H213152   5.440   7.715  10.431  0.1789 -1.3794  0.2392
37424TIP3   OH213153   0.035   8.415   7.707  0.3319  0.1694 -0.0851
37424TIP3    H113154   0.127   8.414   7.735  0.6279 -1.6920 -0.9769
37424TIP3    H213155   0.002   8.327   7.728 -0.7434  0.2372 -1.3298
37425TIP3   OH213156   2.411   8.547   9.965  0.0752 -0.3688 -0.0797
37425TIP3    H113157   2.365   8.589  10.038  0.3563 -1.7241  0.9140
37425TIP3    H213158   2.468   8.616   9.930 -0.7742  0.5759  0.3469
37426TIP3   OH213159   3.130   2.703   6.862 -0.2966 -0.1203  0.2938
37426TIP3    H113160   3.094   2.747   6.939  0.6654  1.7161 -0.2670
37426TIP3    H213161   3.146   2.773   6.800 -0.2211 -1.4728 -1.2733
37427TIP3   OH213162  10.772   1.957   3.083  0.3005  0.3750 -0.1097
37427TIP3    H113163  10.752   2.003   3.002  2.3243  0.3411 -0.6871
37427TIP3    H213164  10.867   1.953   3.086  0.2887 -3.0687  0.2960
37428TIP3   OH213165  10.722   0.796   2.248 -0.7754  0.0859  0.2150
37428TIP3    H113166  10.810   0.777   2.279 -0.4587  0.4839 -0.4000
37428TIP3    H213167  10.731   0.878   2.199 -1.0356 -0.9563 -1.6996
37429TIP3   OH213168   9.076   1.117   4.744  0.1582 -0.3054  0.1969
37429TIP3    H113169   9.134   1.162   4.683  2.3066 -2.8319  0.2230
37429TIP3    H213170   9.097   1.156   4.829 -1.3888  1.7804 -0.2731
37430TIP3   OH213171   1.798  10.599   1.952 -0.3017 -0.3005  0.0286
37430TIP3    H113172   1.879  10.648   1.968 -0.6733 -0.2645  2.1203
37430TIP3    H213173   1.811  10.559   1.866  1.6149  0.3273 -0.0277
37431TIP3   OH213174   5.225   5.933   9.987 -0.4352  0.0548  0.0799
37431TIP3    H113175   5.272   5.850   9.988 -2.3542 -1.1257 -0.7432
37431TIP3    H213176   5.209   5.953  10.079  0.0228 -0.5165  0.2866
37432TIP3   OH213177   5.432   6.586   9.915 -0.1953 -0.3763 -0.1581
37432TIP3    H113178   5.348   6.558   9.951  0.5738 -0.7029  1.4611
37432TIP3    H213179   5.473   6.506   9.883 -0.3665 -0.2551 -0.7001
37433TIP3   OH213180   8.684   7.275   9.430  0.7861 -0.2503 -0.3951
37433TIP3    H113181   8.713   7.216   9.499  1.3131 -1.0410 -1.2730
37433TIP3    H213182   8.726   7.358   9.451  2.2036 -0.8784 -0.5974
37434TIP3   OH213183   7.818   0.114   2.133 -0.1460 -0.2743  0.0404
37434TIP3    H113184   7.781   0.036   2.092 -0.9040  0.5051 -0.8116
37434TIP3    H213185   7.743   0.173   2.145 -0.0401 -0.5549  2.8753
37435TIP3   OH213186   0.827   4.333   0.418 -0.3590 -0.2324  0.1785
37435TIP3    H113187   0.890   4.399   0.449  0.0793  0.1276 -1.4144
37435TIP3    H213188   0.744   4.379   0.414 -0.5442 -0.4317  1.2926
37436TIP3   OH213189   6.078   9.697   9.325  0.4610  0.5738 -0.7055
37436TIP3    H113190   6.046   9.785   9.308  0.3674  0.5163 -0.8300
37436TIP3    H213191   6.031   9.669   9.403  2.4924  1.6630  0.9978
37437TIP3   OH213192   9.307   7.153   6.244 -0.0937 -0.4316  0.5015
37437TIP3    H113193   9.282   7.089   6.178  0.6652 -0.6564  0.4166
37437TIP3    H213194   9.308   7.104   6.326 -1.7176  0.0056  0.8165
37438TIP3   OH213195   1.786   2.411   3.940  0.0484  0.2287 -0.1936
37438TIP3    H113196   1.844   2.384   3.868  1.0564  1.8917 -0.0615
37438TIP3    H213197   1.783   2.335   3.998 -0.2456 -0.9054 -1.6414
37439TIP3   OH213198   8.449   5.365   8.352 -0.3348  0.2320 -0.1312
37439TIP3    H113199   8.360   5.329   8.357 -0.4507  0.5008 -0.2174
37439TIP3    H213200   8.494   5.331   8.429  0.1738 -1.7614 -1.2144
37440TIP3   OH213201   4.193   0.615   8.021 -0.0105 -0.0353  0.1964
37440TIP3    H113202   4.131   0.687   8.016 -0.3253 -0.3478 -0.5973
37440TIP3    H213203   4.169   0.557   7.948  0.0988 -1.0462  0.9349
37441TIP3   OH213204   4.742   4.550   6.505 -0.5003  0.0927  0.3634
37441TIP3    H113205   4.738   4.642   6.478 -1.5305 -0.1226 -0.2439
37441TIP3    H213206   4.824   4.544   6.554 -0.0701  1.1786 -0.1777
37442TIP3   OH213207  10.095   0.738  10.822 -0.0468  0.2303  0.1960
37442TIP3    H113208  10.093   0.694  10.737  2.1949 -0.6962  0.5477
37442TIP3    H213209  10.081   0.831  10.801  0.4927  0.0248 -1.2040
37443TIP3   OH213210   2.725   7.794   7.654 -0.2350  0.7756 -0.1673
37443TIP3    H113211   2.753   7.856   7.721 -2.1256  1.1369  0.3718
37443TIP3    H213212   2.635   7.820   7.634 -1.1186 -1.7618  0.0897
37444TIP3   OH213213   3.478  10.327   3.178 -0.0504 -0.5522 -0.3918
37444TIP3    H113214   3.411  10.304   3.114  2.5349 -1.5032 -2.9487
37444TIP3    H213215   3.543  10.376   3.128  0.4257  1.8531  2.3517
37445TIP3   OH213216   9.605   9.536   4.852 -0.3163 -0.1501  0.3941
37445TIP3    H113217   9.526   9.582   4.824 -0.6481 -0.8128  0.2121
37445TIP3    H213218   9.674   9.602   4.848 -0.7047  0.2323 -0.2249
37446TIP3   OH213219   2.573   7.640   2.964 -0.3416 -0.1265  0.1964
37446TIP3    H113220   2.588   7.546   2.957 -1.4126 -0.2039 -1.3463
37446TIP3    H213221   2.508   7.649   3.034  0.1978 -0.4530  0.7573
37447TIP3   OH213222   0.858   4.207   1.787 -0.5483  0.2960 -0.0950
37447TIP3    H113223   0.952   4.225   1.780 -0.0885 -0.8822  2.1416
37447TIP3    H213224   0.851   4.112   1.783 -1.9148  0.4126 -2.1798
37448TIP3   OH213225   2.060   0.755   6.264  0.0821 -0.0108  0.2382
37448TIP3    H113226   2.027   0.684   6.209 -0.7579 -0.3109  1.1124
37448TIP3    H213227   2.120   0.712   6.325 -0.0394  0.1107  0.4433
37449TIP3   OH213228   2.117   6.333   7.109 -0.3049  0.5200 -0.3811
37449TIP3    H113229   2.196   6.387   7.102 -0.3207  0.5513 -0.3206
37449TIP3    H213230   2.150   6.244   7.122 -0.2685  0.3346 -1.7002
37450TIP3   OH213231   3.858   5.949  10.311 -0.1672  0.3352 -0.4218
37450TIP3    H113232   3.848   6.038  10.346 -1.6905  0.3393 -0.7849
37450TIP3    H213233   3.770   5.925  10.281  0.2295 -1.2768 -0.4011
37451TIP3   OH213234   0.402   5.327   9.029 -0.7514 -0.1667  0.5423
37451TIP3    H113235   0.414   5.329   8.934 -1.3765 -1.5674  0.4089
37451TIP3    H213236   0.488   5.347   9.064 -0.7787  1.5996 -0.2936
37452TIP3   OH213237   2.934   3.133   1.020 -0.2141 -0.3226  0.1524
37452TIP3    H113238   2.997   3.061   1.017 -0.8429 -0.8765  0.1013
37452TIP3    H213239   2.958   3.183   1.097 -2.0183 -2.6906  2.4420
37453TIP3   OH213240   6.625   7.653   2.657  0.4468 -0.5314 -0.0274
37453TIP3    H113241   6.634   7.558   2.653 -3.7469 -1.1596  0.7874
37453TIP3    H213242   6.539   7.670   2.619  1.1109  3.0164 -0.2661
37454TIP3   OH213243  10.712   2.573   6.383 -0.3187 -0.1574 -0.5219
37454TIP3    H113244  10.644   2.640   6.375 -0.6752 -0.1641  1.6650
37454TIP3    H213245  10.795   2.622   6.382 -0.6029  0.4650  1.7225
37455TIP3   OH213246   7.122   8.724   3.661 -0.5121 -0.0040 -0.5929
37455TIP3    H113247   7.044   8.675   3.633 -1.0458  0.3021  0.3021
37455TIP3    H213248   7.100   8.755   3.749  0.2022  1.0131 -0.7570
37456TIP3   OH213249   8.644   2.532   5.449 -0.0276 -0.1915  0.1722
37456TIP3    H113250   8.639   2.442   5.481 -1.3808  0.0648  0.7485
37456TIP3    H213251   8.735   2.542   5.422  0.5156 -1.2789  1.4442
37457TIP3   OH213252   9.016   5.528   0.371  0.0407 -0.0212 -0.1937
37457TIP3    H113253   9.018   5.610   0.420 -0.8685  0.1360 -0.4079
37457TIP3    H213254   9.019   5.460   0.439 -0.8770  0.1982  0.0805
37458TIP3   OH213255   3.506   9.403   3.814 -0.2350 -0.7859 -0.1240
37458TIP3    H113256   3.550   9.391   3.899  1.5700 -0.3654 -0.9522
37458TIP3    H213257   3.444   9.474   3.829 -0.9053 -1.5849  1.1596
37459TIP3   OH213258   4.682   8.125   6.754  0.6499 -0.2594  0.0466
37459TIP3    H113259   4.768   8.134   6.712 -0.1914  2.3935 -1.3707
37459TIP3    H213260   4.674   8.202   6.810 -0.2633 -1.2051  1.2789
37460TIP3   OH213261   1.205   1.885  10.331 -0.3390 -0.1196  0.0189
37460TIP3    H113262   1.194   1.833  10.411  0.5113 -0.0764  0.1730
37460TIP3    H213263   1.199   1.976  10.361 -1.0546 -0.1181 -0.1293
37461TIP3   OH213264   2.102   2.934   4.448 -0.0778  0.7482 -0.0818
37461TIP3    H113265   2.165   2.991   4.403  0.0476  1.6884  1.2218
37461TIP3    H213266   2.069   2.876   4.379  1.7200  0.6623 -0.9352
37462TIP3   OH213267   4.200   4.282   5.269 -0.2052  0.0193  0.4923
37462TIP3    H113268   4.198   4.262   5.362 -0.9148  1.4715  0.8283
37462TIP3    H213269   4.145   4.216   5.228  0.7194 -1.0816  0.9880
37463TIP3   OH213270   7.257   2.125   6.745 -0.0578 -0.1990 -0.3186
37463TIP3    H113271   7.213   2.139   6.829 -0.3724 -1.2974 -0.2850
37463TIP3    H213272   7.242   2.033   6.725  0.0294  0.0378 -1.5817
37464TIP3   OH213273   7.947   0.490   0.681 -0.2207 -0.7499 -0.2808
37464TIP3    H113274   7.882   0.560   0.681 -0.3139 -0.8353 -0.1978
37464TIP3    H213275   8.029   0.533   0.658 -0.4474 -0.7794 -1.1740
37465TIP3   OH213276   7.977   8.969  10.898  0.4802 -0.1441  0.1345
37465TIP3    H113277   8.028   8.936  10.824 -0.4485  0.8557 -1.0014
37465TIP3    H213278   8.043   9.007  10.957  1.2644 -1.2637  0.0106
37466TIP3   OH213279   3.412   8.905   0.888  0.1047  0.8693 -0.9208
37466TIP3    H113280   3.412   8.810   0.899  1.2860  0.3958 -3.8270
37466TIP3    H213281   3.503   8.931   0.904 -0.1124  1.4463 -0.6001
37467TIP3   OH213282   1.146   4.206   9.040  0.3105  0.2187 -0.2268
37467TIP3    H113283   1.098   4.131   9.074 -0.3167  1.7458  2.5579
37467TIP3    H213284   1.236   4.193   9.072  0.1742  0.6783  0.3604
37468TIP3   OH213285   6.816   4.185  10.237 -0.2305  0.1074  0.2397
37468TIP3    H113286   6.852   4.272  10.220  0.9036 -0.4534 -0.3175
37468TIP3    H213287   6.840   4.134  10.160  0.6678 -1.1670  1.3317
37469TIP3   OH213288   7.417   0.849   8.309 -0.1858  0.8866 -0.8754
37469TIP3    H113289   7.462   0.771   8.275  0.0812  0.7928 -0.3211
37469TIP3    H213290   7.328   0.841   8.277 -1.3004 -1.7158  2.3430
37470TIP3   OH213291   6.497   0.408   6.215  0.2751  0.1037 -0.1615
37470TIP3    H113292   6.464   0.491   6.181  1.0234  0.7326  0.6041
37470TIP3    H213293   6.507   0.422   6.309 -0.6563 -1.2314  0.1807
37471TIP3   OH213294   7.979   0.028   9.234  0.1546  0.4886 -0.3211
37471TIP3    H113295   7.912  -0.037   9.250  2.2059 -2.0114 -1.1185
37471TIP3    H213296   8.017   0.002   9.149  0.9304  2.8764 -0.7794
37472TIP3   OH213297   8.959   4.788   8.571  0.1095 -0.7926  0.6413
37472TIP3    H113298   8.991   4.700   8.555  1.3971 -0.0611 -1.1456
37472TIP3    H213299   9.037   4.844   8.563 -0.7837  0.5739  1.0526
37473TIP3   OH213300   8.690   3.227   3.241  0.7113 -0.1177  0.6640
37473TIP3    H113301   8.665   3.203   3.152  0.4451 -1.1366  1.0059
37473TIP3    H213302   8.781   3.200   3.249  1.1644  1.1987  0.2825
37474TIP3   OH213303   3.348   8.573   3.902 -0.3936  0.3010 -0.6766
37474TIP3    H113304   3.436   8.560   3.935 -0.4737 -0.4976 -0.7530
37474TIP3    H213305   3.295   8.588   3.980  0.1712  3.2994 -0.7525
37475TIP3   OH213306   6.633   9.933   9.885 -0.1964  0.7341 -0.4208
37475TIP3    H113307   6.672   9.896   9.964 -0.5696  1.4979  0.1442
37475TIP3    H213308   6.619   9.859   9.827 -1.1137 -0.0416  0.7454
37476TIP3   OH213309   7.122   1.255   8.535  0.1793  0.0674 -0.2543
37476TIP3    H113310   7.168   1.335   8.509 -0.8851 -0.1029 -3.0551
37476TIP3    H213311   7.137   1.194   8.462  0.2415 -2.0138  1.4071
37477TIP3   OH213312   5.222   2.048   9.339  0.3647  0.4616 -0.4786
37477TIP3    H113313   5.155   2.113   9.316  1.8506  1.9877 -0.6625
37477TIP3    H213314   5.259   2.021   9.255  0.8497  0.5696 -0.2989
37478TIP3   OH213315   1.515   5.683  10.165 -0.0963  0.4252 -0.0753
37478TIP3    H113316   1.431   5.721  10.141 -1.3549 -1.2857  1.3436
37478TIP3    H213317   1.521   5.696  10.260  0.5482 -0.7279  0.0624
37479TIP3   OH213318  10.172   6.760   3.267  0.2118 -0.3420  0.5996
37479TIP3    H113319  10.085   6.738   3.232  0.5798  0.1787 -0.6883
37479TIP3    H213320  10.233   6.717   3.208  0.8861 -2.9278  2.9650
37480TIP3   OH213321   9.748   6.497   0.418 -0.3852  0.0854 -0.1301
37480TIP3    H113322   9.731   6.506   0.324 -0.0845  0.8860 -0.1206
37480TIP3    H213323   9.707   6.414   0.442 -1.9294  0.6655 -0.6302
37481TIP3   OH213324   1.113   5.081   8.036  0.4190 -0.1492 -0.2644
37481TIP3    H113325   1.145   5.002   8.079 -1.1629  0.0919  1.4519
37481TIP3    H213326   1.148   5.075   7.947  2.0964 -1.6899  0.4334
37482TIP3   OH213327   0.714   7.630  10.100 -0.3223 -0.5325  0.1369
37482TIP3    H113328   0.676   7.549  10.133  1.3265 -1.6688 -0.6392
37482TIP3    H213329   0.789   7.603  10.048  1.4462  1.5734  1.4073
37483TIP3   OH213330   4.758   8.405   3.262 -0.5732  0.0557  0.3476
37483TIP3    H113331   4.723   8.420   3.350 -1.6493  0.1084 -0.0753
37483TIP3    H213332   4.705   8.460   3.205  0.4860  0.4658 -0.2866
37484TIP3   OH213333   8.150   5.726   2.152  0.1853  0.5622  0.1524
37484TIP3    H113334   8.242   5.710   2.128  0.4753  1.8297  0.3390
37484TIP3    H213335   8.107   5.642   2.137  1.1912  0.1840 -0.8161
37485TIP3   OH213336   0.289   7.248   1.778 -0.8479  0.3980 -0.4692
37485TIP3    H113337   0.220   7.229   1.841 -2.0470  1.5907 -1.3684
37485TIP3    H213338   0.348   7.308   1.825 -0.4123 -0.5842  0.2798
37486TIP3   OH213339   6.941   5.979   3.660  0.5383  0.2438  0.0269
37486TIP3    H113340   6.911   5.989   3.570 -2.7244 -0.0685  0.9598
37486TIP3    H213341   6.861   5.981   3.712  2.0781 -1.8797  2.7369
37487TIP3   OH213342   5.820   6.931   7.111 -0.2021  0.4339 -0.3946
37487TIP3    H113343   5.859   6.931   7.198  0.0670 -1.5270 -0.4711
37487TIP3    H213344   5.732   6.968   7.124  1.3893  4.8157 -0.2005
37488TIP3   OH213345   1.170   6.359   1.772 -0.2092  0.6379  0.8667
37488TIP3    H113346   1.247   6.415   1.774  0.4195 -0.2250  0.9207
37488TIP3    H213347   1.141   6.363   1.681  0.6286 -0.0135  0.5640
37489TIP3   OH213348   8.994   5.162   3.801  0.0995 -0.0698  0.3676
37489TIP3    H113349   8.964   5.237   3.750  0.4022 -0.3573 -0.2454
37489TIP3    H213350   9.084   5.147   3.770  0.3203 -0.1955  1.0470
37490TIP3   OH213351   5.511   4.419   2.031 -0.3157  0.5122  0.1270
37490TIP3    H113352   5.599   4.453   2.050  0.3778 -2.4417  3.3181
37490TIP3    H213353   5.526   4.353   1.963 -0.0078 -0.0611  0.7399
37491TIP3   OH213354   9.309   7.323   3.480  0.5004  0.2080 -0.7798
37491TIP3    H113355   9.239   7.290   3.537 -1.0277  0.5611 -2.3586
37491TIP3    H213356   9.324   7.252   3.418  0.4033  0.7320 -1.4131
37492TIP3   OH213357  10.089   3.380   5.546  0.0884  0.0240 -0.5098
37492TIP3    H113358  10.176   3.346   5.526 -0.4180 -0.9568 -1.1750
37492TIP3    H213359  10.099   3.475   5.549  1.2119 -0.0947 -0.3620
37493TIP3   OH213360   7.038   0.301   2.165  0.6862  0.5580 -0.9361
37493TIP3    H113361   7.037   0.395   2.183  1.7357  0.1601  1.6918
37493TIP3    H213362   7.059   0.261   2.250 -1.8707 -2.1891 -1.4520
37494TIP3   OH213363   2.658   8.889   3.741  0.6825 -0.3246  0.7587
37494TIP3    H113364   2.700   8.914   3.822  1.1214 -2.3415  1.2060
37494TIP3    H213365   2.565   8.881   3.763  0.7402 -0.4597  0.9471
37495TIP3   OH213366   0.483   2.916   8.720 -0.4510  0.4184 -0.0539
37495TIP3    H113367   0.571   2.907   8.758 -1.1827 -0.6742  1.4946
37495TIP3    H213368   0.499   2.930   8.627  1.4228  2.3032  0.4616
37496TIP3   OH213369   1.967   4.132   7.602 -0.1444 -0.0633 -0.3729
37496TIP3    H113370   1.896   4.172   7.551  0.3482  1.4523  0.0488
37496TIP3    H213371   2.025   4.094   7.536 -0.4476  0.2708 -0.8397
37497TIP3   OH213372   9.545   2.064  10.084  0.0125 -0.1706 -0.7879
37497TIP3    H113373   9.494   2.048  10.163  1.2190  2.5305  0.6493
37497TIP3    H213374   9.617   2.001  10.088  1.0199  1.0093  1.2510
37498TIP3   OH213375   2.485   3.311   0.897  0.4278  0.4557  0.2042
37498TIP3    H113376   2.422   3.331   0.966 -1.1150  0.3282 -1.0874
37498TIP3    H213377   2.569   3.344   0.929 -0.2044  0.2581  2.1737
37499TIP3   OH213378   6.872   2.861   3.404 -0.0605  0.2710  0.4075
37499TIP3    H113379   6.888   2.828   3.316  0.4428 -0.1146  0.6388
37499TIP3    H213380   6.911   2.948   3.404  0.1826  0.1618  0.3336
37500TIP3   OH213381   5.548   5.331   3.944 -0.1585 -0.3369 -0.1867
37500TIP3    H113382   5.487   5.398   3.974 -1.6243 -1.5254 -0.3779
37500TIP3    H213383   5.592   5.370   3.868 -1.5594  0.1493 -0.7865
37501TIP3   OH213384   3.305   6.586   5.759 -0.3194 -0.1065 -0.1833
37501TIP3    H113385   3.392   6.566   5.795 -0.0164  0.0670 -0.7981
37501TIP3    H213386   3.273   6.503   5.726  0.8390  0.2938 -2.5292
37502TIP3   OH213387   6.996   5.068   3.065  0.6902  0.0972 -0.0830
37502TIP3    H113388   7.060   5.062   3.136  2.8049 -0.0238 -1.8810
37502TIP3    H213389   6.911   5.071   3.109  1.8499 -0.7828  2.3925
37503TIP3   OH213390   1.316   3.857   1.397  0.1256 -0.5370 -0.0977
37503TIP3    H113391   1.377   3.919   1.356 -1.2049  0.8989 -0.0233
37503TIP3    H213392   1.252   3.837   1.328  0.0486 -1.1557  0.1458
37504TIP3   OH213393   3.992   7.785   1.817  0.3133 -0.3107  0.3293
37504TIP3    H113394   3.974   7.786   1.911  1.3918 -0.5554  0.5471
37504TIP3    H213395   3.913   7.822   1.777 -0.6167 -1.2544  1.2410
37505TIP3   OH213396   8.053   6.236   3.280 -0.0227  0.2077 -0.0977
37505TIP3    H113397   8.038   6.246   3.186 -1.0301 -1.2740 -0.1317
37505TIP3    H213398   8.050   6.325   3.315 -0.5476  0.6980 -1.3436
37506TIP3   OH213399   9.679  10.130   5.294 -0.2611 -0.0872  0.1955
37506TIP3    H113400   9.774  10.140   5.301 -0.4481  0.3273  4.0073
37506TIP3    H213401   9.655  10.185   5.220  2.4835 -0.7781 -1.3620
37507TIP3   OH213402  10.153   8.233   6.242 -0.6297 -0.0690 -0.3072
37507TIP3    H113403  10.196   8.147   6.243  0.9235  0.6690 -0.7493
37507TIP3    H213404  10.198   8.281   6.173 -0.3186  1.6757  1.0533
37508TIP3   OH213405   7.322   4.042   8.265 -0.2058 -0.2895  0.3871
37508TIP3    H113406   7.236   4.021   8.230 -1.0859  1.2763  1.4820
37508TIP3    H213407   7.354   4.113   8.210 -0.3475  0.2458  0.9830
37509TIP3   OH213408   2.275   5.235   7.688 -0.2949 -0.4288  0.4957
37509TIP3    H113409   2.340   5.193   7.745 -1.1130 -1.4784  0.6962
37509TIP3    H213410   2.210   5.166   7.672 -0.3765  0.0108 -1.2585
37510TIP3   OH213411   7.562   5.707   1.229 -0.6501 -0.0909  0.0319
37510TIP3    H113412   7.593   5.714   1.320 -1.8901 -0.5024  0.5151
37510TIP3    H213413   7.642   5.708   1.176  0.0513  3.7378  0.8327
37511TIP3   OH213414   7.587   5.547   6.609  0.3064 -0.4908  0.3160
37511TIP3    H113415   7.563   5.630   6.569 -2.8379 -0.7679  1.3198
37511TIP3    H213416   7.591   5.485   6.536  1.3118  0.2360 -0.2719
37512TIP3   OH213417   9.446   5.709   4.304 -0.4038 -0.2128 -0.1332
37512TIP3    H113418   9.368   5.696   4.357  0.1287 -1.4529  0.3809
37512TIP3    H213419   9.464   5.623   4.266  0.8514 -0.0067 -0.0399
37513TIP3   OH213420   5.383   8.866   8.111 -0.1750 -0.3449 -0.0712
37513TIP3    H113421   5.400   8.779   8.074 -1.0359 -0.6931  0.3290
37513TIP3    H213422   5.420   8.862   8.199  0.9382  0.1345 -0.5046
37514TIP3   OH213423   3.379   9.830   6.149  0.0904  0.5869  0.2412
37514TIP3    H113424   3.366   9.806   6.240 -0.6781  1.1918  0.3013
37514TIP3    H213425   3.472   9.853   6.143 -0.0672  1.4991  1.1021
37515TIP3   OH213426   7.760   6.503   6.520 -0.0154 -0.0529  0.0094
37515TIP3    H113427   7.830   6.481   6.582 -0.1408 -0.4847  0.0008
37515TIP3    H213428   7.696   6.550   6.573  0.5860  0.9581 -0.1259
37516TIP3   OH213429   5.009   9.996   5.935  0.1307  0.0040  0.0871
37516TIP3    H113430   5.001  10.087   5.907 -3.0469 -0.4790 -0.9120
37516TIP3    H213431   5.082   9.961   5.884  0.7260  1.6691 -0.2714
37517TIP3   OH213432  10.327   5.562   1.983  0.1156 -0.6344  0.0616
37517TIP3    H113433  10.345   5.471   2.003 -0.5787 -0.7435  0.2076
37517TIP3    H213434  10.305   5.602   2.067  0.4751 -0.3136  0.0101
37518TIP3   OH213435  10.002   6.295   4.289  0.7538 -0.4861  0.4901
37518TIP3    H113436  10.059   6.272   4.215 -0.3546 -0.3155 -0.4468
37518TIP3    H213437  10.029   6.236   4.359  1.6724 -0.8142 -0.1158
37519TIP3   OH213438   9.810   9.339   2.878 -0.3678  0.3231  0.2662
37519TIP3    H113439   9.818   9.257   2.829  1.0349  1.5865 -1.7888
37519TIP3    H213440   9.733   9.382   2.840 -1.2937 -0.1180  1.5609
37520TIP3   OH213441   4.893   3.405   6.821  0.3415  0.6969  0.4906
37520TIP3    H113442   4.837   3.353   6.878  2.1453 -1.1305  0.7265
37520TIP3    H213443   4.915   3.346   6.749  3.0246  0.8135  1.1114
37521TIP3   OH213444   7.014   4.785   2.811  0.6421 -0.3945  0.3018
37521TIP3    H113445   7.001   4.786   2.906 -0.2797 -1.4762  0.2083
37521TIP3    H213446   6.932   4.822   2.776  0.2394 -1.6289 -0.1131
37522TIP3   OH213447   2.392   1.165   1.002  0.0801 -0.3307 -0.2307
37522TIP3    H113448   2.415   1.129   0.917 -1.2770 -2.2995  0.1376
37522TIP3    H213449   2.342   1.094   1.045 -1.9627  1.6795  0.9648
37523TIP3   OH213450  10.329   5.245   4.395 -0.8087 -0.3610  0.2449
37523TIP3    H113451  10.341   5.327   4.347 -3.6594 -0.4729 -0.8584
37523TIP3    H213452  10.406   5.193   4.373  2.1349  2.5963  2.5500
37524TIP3   OH213453   9.759   7.298   7.070 -0.0201  0.2446  0.1059
37524TIP3    H113454   9.713   7.344   7.000  0.9695  1.1101 -0.0019
37524TIP3    H213455   9.736   7.206   7.058 -0.6355  0.5017 -0.7533
37525TIP3   OH213456   9.711   2.147   1.006  0.1134 -0.5788 -0.2462
37525TIP3    H113457   9.791   2.189   1.038  0.0443  0.2610 -1.1652
37525TIP3    H213458   9.657   2.137   1.085  1.2718 -1.5666  0.4752
37526TIP3   OH213459   2.759   4.271   5.195 -0.2747 -0.4282  0.4108
37526TIP3    H113460   2.807   4.188   5.187  2.0940  0.9317 -0.3598
37526TIP3    H213461   2.806   4.319   5.264 -1.4652  0.3871  0.6793
37527TIP3   OH213462   1.419   8.170   7.411  0.4699 -0.6362 -0.6933
37527TIP3    H113463   1.498   8.116   7.406  2.0643  1.0819  2.4822
37527TIP3    H213464   1.448   8.256   7.380 -0.0661  0.0627  0.6967
37528TIP3   OH213465   9.235   2.452   1.483  0.4698  0.2756  0.3763
37528TIP3    H113466   9.213   2.367   1.443  1.3155 -0.1756  0.8327
37528TIP3    H213467   9.277   2.501   1.413  1.8003 -0.4526  0.6212
37529TIP3   OH213468   4.770   7.739   0.051  0.8871  0.3052  0.4250
37529TIP3    H113469   4.767   7.716   0.144 -1.7983 -1.8151 -0.0492
37529TIP3    H213470   4.695   7.796   0.037 -1.3658 -2.7096 -1.0364
37530TIP3   OH213471   5.060   1.743   0.511 -1.2087  0.5194 -0.2218
37530TIP3    H113472   5.146   1.786   0.520 -2.0631  2.1558  0.5851
37530TIP3    H213473   5.060   1.709   0.422  0.6407 -0.3720  0.0582
37531TIP3   OH213474   9.602   4.800   8.811 -0.2842 -0.4169 -0.0293
37531TIP3    H113475   9.543   4.866   8.847 -0.7757 -0.4979 -0.6673
37531TIP3    H213476   9.634   4.838   8.729 -0.6949 -1.0146 -0.4852
37532TIP3   OH213477   9.834   0.216   7.278  0.5490  0.1415 -0.0519
37532TIP3    H113478   9.929   0.217   7.291  0.4532 -1.6364  1.1846
37532TIP3    H213479   9.811   0.123   7.280 -1.4950  0.6037  1.9308
37533TIP3   OH213480   7.795   1.009   6.271  0.6205 -0.3805  0.2308
37533TIP3    H113481   7.840   1.091   6.250  0.8956 -0.5553  0.1268
37533TIP3    H213482   7.854   0.965   6.332  0.3629 -0.3982  0.4690
37534TIP3   OH213483   0.445   4.042   6.452  0.6003 -0.2298 -0.5558
37534TIP3    H113484   0.482   4.025   6.366  0.9543 -2.2159 -0.0712
37534TIP3    H213485   0.434   4.137   6.456  1.2894 -0.0315 -2.4743
37535TIP3   OH213486   4.312   5.499   9.164 -0.3142 -0.9041  0.6842
37535TIP3    H113487   4.303   5.408   9.192 -0.0973 -1.1365  0.0222
37535TIP3    H213488   4.377   5.496   9.094 -0.1686 -0.2104  0.7805
37536TIP3   OH213489   4.045   0.971  10.443  0.0682 -0.2443  0.0073
37536TIP3    H113490   4.060   1.049  10.496  0.1963  0.9139 -1.6536
37536TIP3    H213491   4.132   0.939  10.423  0.0728  0.2127 -0.7395
37537TIP3   OH213492   2.715   4.982   2.176 -0.2115 -0.0159 -0.6568
37537TIP3    H113493   2.685   4.916   2.114  0.4109 -0.1911 -0.7733
37537TIP3    H213494   2.690   5.066   2.137 -2.2099 -0.1983  0.1142
37538TIP3   OH213495  10.491   1.680   0.942  0.2589 -0.5943  0.1223
37538TIP3    H113496  10.414   1.630   0.971  0.7908 -0.8703  1.0863
37538TIP3    H213497  10.457   1.737   0.872 -1.1848  0.4783  1.6268
37539TIP3   OH213498  10.579   1.184   0.185  0.0434 -0.1711  0.3439
37539TIP3    H113499  10.608   1.204   0.273  0.3650 -0.0574  0.2137
37539TIP3    H213500  10.604   1.092   0.172 -0.2236 -0.2622  0.4558
37540TIP3   OH213501   1.213   4.292   5.514 -0.3445  0.1292  0.4630
37540TIP3    H113502   1.208   4.301   5.609 -2.5517  1.1456  0.3326
37540TIP3    H213503   1.137   4.341   5.482  0.9769  0.7951 -1.8975
37541TIP3   OH213504   6.536   5.578   0.138  0.1998 -0.6080  0.2777
37541TIP3    H113505   6.526   5.541   0.050 -2.8489  1.0109 -0.1606
37541TIP3    H213506   6.539   5.672   0.125  0.8464 -0.3785  1.8624
37542TIP3   OH213507   7.398   6.429   1.320  0.9748  0.5478  0.1933
37542TIP3    H113508   7.432   6.501   1.266  0.4578 -0.1666 -1.1358
37542TIP3    H213509   7.446   6.352   1.290 -0.3814 -0.1218 -0.3091
37543TIP3   OH213510   4.045   2.690   8.786 -0.6388  0.1768  0.4923
37543TIP3    H113511   3.956   2.715   8.759  0.0052  0.8201 -1.2293
37543TIP3    H213512   4.037   2.600   8.815 -1.7913  0.0813 -0.0576
37544TIP3   OH213513   2.892   4.464   8.800  0.1771  0.4012  0.5104
37544TIP3    H113514   2.880   4.516   8.880 -0.6020 -0.6146  1.0747
37544TIP3    H213515   2.898   4.374   8.831 -4.0131 -0.5059 -0.7323
37545TIP3   OH213516   4.095   5.732   9.139 -0.6489  0.0117  0.1440
37545TIP3    H113517   4.149   5.656   9.119 -1.4715 -0.3846 -0.6358
37545TIP3    H213518   4.154   5.793   9.183  0.2145 -0.7501  0.0614
37546TIP3   OH213519   7.326   4.659   5.719  0.5143 -0.7886 -0.6015
37546TIP3    H113520   7.241   4.705   5.716  0.4552 -0.9272 -2.4884
37546TIP3    H213521   7.390   4.730   5.725  0.2973 -0.6578  0.3104
37547TIP3   OH213522   7.414   6.475   3.333  0.3362  0.0809 -0.1253
37547TIP3    H113523   7.490   6.532   3.324  0.6658 -0.4481 -0.8359
37547TIP3    H213524   7.450   6.393   3.367 -0.1021  0.2205  0.6946
37548TIP3   OH213525   1.289   4.477   9.213  0.4066  0.4022 -0.6135
37548TIP3    H113526   1.308   4.491   9.120  0.7407  1.9717 -0.3391
37548TIP3    H213527   1.324   4.390   9.232  1.6698  0.6642 -1.6173
37549TIP3   OH213528   2.612   1.557   9.579 -0.2621  0.1938 -0.7941
37549TIP3    H113529   2.595   1.620   9.649  0.6883 -0.3509 -0.0504
37549TIP3    H213530   2.701   1.525   9.596 -0.6456 -1.1869 -1.2764
37550TIP3   OH213531   1.080   8.215   1.689  0.2213 -0.0301  0.0841
37550TIP3    H113532   1.005   8.230   1.631  1.0695 -1.7456 -1.5793
37550TIP3    H213533   1.089   8.120   1.693  1.4131  0.1035  1.4459
37551TIP3   OH213534   2.574   0.276   4.059  0.1524 -0.1121  1.0052
37551TIP3    H113535   2.572   0.353   4.116  0.4306 -0.8249  2.0188
37551TIP3    H213536   2.490   0.233   4.073  0.4748 -0.6382  1.3993
37552TIP3   OH213537   0.032   4.489   2.167 -0.1464 -0.2144 -0.1024
37552TIP3    H113538  -0.062   4.471   2.162 -0.3602  0.5506  0.7994
37552TIP3    H213539   0.066   4.468   2.080 -1.4456  1.1858 -0.9786
37553TIP3   OH213540   8.542   4.663   0.946 -0.1633  0.4719 -0.3295
37553TIP3    H113541   8.513   4.633   1.032  0.7578  2.1543  0.6319
37553TIP3    H213542   8.631   4.695   0.960 -0.0248  0.8731 -1.8913
37554TIP3   OH213543   3.637   0.366   2.619 -0.3012 -0.5845  0.0910
37554TIP3    H113544   3.717   0.331   2.581 -0.5999 -1.1324 -0.0482
37554TIP3    H213545   3.658   0.379   2.711  0.4383  0.7830 -0.2538
37555TIP3   OH213546   1.285  10.256   0.542  0.0620  0.2058  0.3906
37555TIP3    H113547   1.292  10.161   0.537  1.0264  0.2319  0.8637
37555TIP3    H213548   1.218  10.280   0.478  1.8835 -0.5532 -1.9642
37556TIP3   OH213549   4.679   3.233   2.816 -0.1458 -0.3678 -0.3779
37556TIP3    H113550   4.768   3.261   2.837 -0.5503  0.5948  0.0991
37556TIP3    H213551   4.666   3.258   2.725  0.9071 -2.7400 -1.2682
37557TIP3   OH213552   6.002   8.237   4.516  0.4941 -0.6603 -0.6649
37557TIP3    H113553   6.009   8.331   4.504  0.4936 -0.6251 -0.3922
37557TIP3    H213554   5.911   8.221   4.539  0.0198 -0.9420 -2.5952
37558TIP3   OH213555   3.922   1.856   5.028  0.6387  0.0784 -0.1603
37558TIP3    H113556   3.860   1.911   5.076  0.1086 -0.2545 -0.4544
37558TIP3    H213557   3.948   1.911   4.954 -0.2872 -0.2394 -0.7416
37559TIP3   OH213558   0.665   5.815   5.027  0.2954 -0.2290 -0.3377
37559TIP3    H113559   0.740   5.863   4.995  0.4944 -1.0578 -1.1592
37559TIP3    H213560   0.590   5.851   4.980  0.3424 -0.2048 -0.3931
37560TIP3   OH213561   0.039   4.732   1.996 -0.2553  0.0985 -0.5020
37560TIP3    H113562   0.113   4.707   2.052 -0.3004  1.3112  0.1404
37560TIP3    H213563   0.025   4.657   1.939  1.0875 -0.3916 -0.2184
37561TIP3   OH213564   6.328   8.470   4.404  0.4527  0.0003  0.2971
37561TIP3    H113565   6.325   8.376   4.388 -0.4254  0.2035 -0.8152
37561TIP3    H213566   6.238   8.494   4.427  1.0060  0.2916  2.4435
37562TIP3   OH213567   6.314   1.957   6.008  0.3165  0.3362 -0.0935
37562TIP3    H113568   6.266   1.932   5.929 -0.2225  0.5621  0.1554
37562TIP3    H213569   6.287   2.047   6.026 -0.4321 -0.0629  0.9551
37563TIP3   OH213570   0.154   2.944   4.391  0.2061 -0.1469  0.5006
37563TIP3    H113571   0.128   2.925   4.481  0.5903 -0.2978  0.5824
37563TIP3    H213572   0.072   2.943   4.342  0.1788 -1.7810  0.5414
37564TIP3   OH213573   6.963   2.194   5.107 -0.3430  0.1856 -0.0406
37564TIP3    H113574   6.868   2.206   5.102 -0.3918 -0.5922 -1.8756
37564TIP3    H213575   6.999   2.283   5.106 -1.0355  0.4725  0.1792
37565TIP3   OH213576   8.675   1.009   9.858 -0.2117  0.3203  0.1225
37565TIP3    H113577   8.661   0.930   9.805  0.3241  0.1935  0.1629
37565TIP3    H213578   8.641   1.080   9.804 -0.7407  0.0583  0.1043
37566TIP3   OH213579   5.654   1.038  10.226  0.2616 -0.9285  0.3257
37566TIP3    H113580   5.686   1.001  10.144 -0.3494 -1.2952  0.2446
37566TIP3    H213581   5.562   1.009  10.231  0.2541 -0.7968  1.0694
37567TIP3   OH213582   7.822  10.645   7.643 -0.0976  0.7876  0.4069
37567TIP3    H113583   7.758  10.623   7.575  1.1708  1.5337 -1.0789
37567TIP3    H213584   7.898  10.678   7.595  2.5641 -2.5854  1.8480
37568TIP3   OH213585   3.646   8.071   8.162 -0.1100  0.0855  0.0147
37568TIP3    H113586   3.706   8.128   8.210 -0.4582  2.1568 -1.8575
37568TIP3    H213587   3.562   8.118   8.162 -0.4031 -0.3704 -1.6186
37569TIP3   OH213588   9.402   7.145   4.837  0.2544 -0.2414  0.1803
37569TIP3    H113589   9.437   7.087   4.905 -0.0145  0.2989  0.7836
37569TIP3    H213590   9.477   7.166   4.782  0.8291  0.6960  1.3067
37570TIP3   OH213591   7.057   0.519   2.521  0.3897 -0.0936  0.2952
37570TIP3    H113592   6.980   0.506   2.577  0.0419  0.8392  0.0453
37570TIP3    H213593   7.127   0.543   2.582  0.4746 -0.8501  0.5118
37571TIP3   OH213594   2.206   4.704   7.628  0.4223  0.1455  0.1963
37571TIP3    H113595   2.153   4.634   7.666  0.1538 -0.8134 -1.7609
37571TIP3    H213596   2.188   4.698   7.534  2.5142  1.0740 -0.3152
37572TIP3   OH213597   9.751   4.537   8.099  0.3308 -0.1390 -0.1065
37572TIP3    H113598   9.756   4.607   8.164  0.1538  0.8596 -1.1372
37572TIP3    H213599   9.772   4.580   8.016 -0.3713 -1.1791 -0.8470
37573TIP3   OH213600   6.543   4.867   6.838 -0.5316 -0.4321 -0.5529
37573TIP3    H113601   6.458   4.825   6.853  0.0011 -1.2742  0.1912
37573TIP3    H213602   6.580   4.818   6.764  0.1434 -1.3863  0.3946
37574TIP3   OH213603   4.299   3.481   0.089  0.4298 -0.2116  0.2569
37574TIP3    H113604   4.394   3.485   0.100  0.4339  1.1920 -0.0242
37574TIP3    H213605   4.265   3.548   0.148 -0.1897  0.9690 -1.3455
37575TIP3   OH213606   9.298  10.383   5.293 -0.1178  0.1530  0.1483
37575TIP3    H113607   9.279  10.426   5.376  0.8702 -0.0099  0.4717
37575TIP3    H213608   9.216  10.388   5.244 -0.8317 -0.1082  1.2824
37576TIP3   OH213609   8.720   6.063  10.215  0.3323 -0.1774  0.1455
37576TIP3    H113610   8.712   5.980  10.261  0.0354  0.5613  1.4795
37576TIP3    H213611   8.632   6.101  10.217  0.3198 -0.0979 -1.0186
37577TIP3   OH213612   6.922   4.708   3.091 -0.0119  0.2983 -0.1466
37577TIP3    H113613   6.887   4.786   3.134  0.1937  1.0681 -1.3007
37577TIP3    H213614   6.976   4.665   3.158 -0.0570  1.2021  0.4861
37578TIP3   OH213615   4.993   2.310   9.438  0.1603  0.1593 -0.7646
37578TIP3    H113616   5.022   2.331   9.349  2.2650 -1.7458 -0.6351
37578TIP3    H213617   4.921   2.249   9.426 -0.9455  1.5063 -1.1286
37579TIP3   OH213618   0.322   8.025   5.242  0.6035  0.2145  0.3657
37579TIP3    H113619   0.296   8.104   5.194 -1.1385 -1.7514 -2.1898
37579TIP3    H213620   0.267   8.024   5.319 -0.3306  0.8303 -0.2756
37580TIP3   OH213621   3.938   9.365   6.516  0.0211 -0.3133 -0.0952
37580TIP3    H113622   4.029   9.337   6.521  0.5743  1.1804 -1.2272
37580TIP3    H213623   3.904   9.324   6.436  0.2375  0.5536 -0.6426
37581TIP3   OH213624   4.682   6.252   1.914  0.6634  0.6217  0.4118
37581TIP3    H113625   4.764   6.202   1.911  0.6513  0.5538  0.9640
37581TIP3    H213626   4.614   6.186   1.926  0.6932  0.7887  1.6425
37582TIP3   OH213627   0.550   1.289   2.907  0.3731  0.2677 -0.2124
37582TIP3    H113628   0.547   1.285   3.002  1.2579 -0.7796 -0.2009
37582TIP3    H213629   0.576   1.379   2.887  1.6625  0.1143  0.6121
37583TIP3   OH213630   3.651   3.121   3.776 -0.1314  0.0782 -0.4353
37583TIP3    H113631   3.586   3.191   3.789 -1.7792 -1.4804  0.1932
37583TIP3    H213632   3.657   3.111   3.681  1.3175  2.0637 -0.6195
37584TIP3   OH213633   2.660   1.343   4.631  0.0479 -0.3647 -0.6220
37584TIP3    H113634   2.627   1.421   4.674  0.5387 -0.4517 -0.0745
37584TIP3    H213635   2.657   1.364   4.537  0.3664  0.3794 -0.4719
37585TIP3   OH213636   1.437   2.081   9.360  0.0691  0.6227  0.0503
37585TIP3    H113637   1.358   2.039   9.326  1.0442 -1.2639 -0.0322
37585TIP3    H213638   1.448   2.044   9.448  0.4387  1.4876  0.3809
37586TIP3   OH213639   2.787   0.001   7.560  0.1470  0.9551 -0.4513
37586TIP3    H113640   2.727  -0.073   7.549  2.5813 -1.3986  0.8119
37586TIP3    H213641   2.744   0.057   7.625 -1.1737 -0.0560 -0.3968
37587TIP3   OH213642   2.071   8.100   6.864  0.4781 -0.5599  0.2504
37587TIP3    H113643   2.142   8.129   6.921  0.0801  0.5471  0.2069
37587TIP3    H213644   2.102   8.116   6.775 -0.4223  1.4930  0.2549
37588TIP3   OH213645   5.333   4.268   9.145 -0.3082 -0.8783 -0.2724
37588TIP3    H113646   5.404   4.332   9.140 -0.6484 -0.5644 -1.4954
37588TIP3    H213647   5.346   4.224   9.228  0.5803  0.0369  0.0922
37589TIP3   OH213648   4.971   7.445   2.657 -0.4947  0.0894 -0.4780
37589TIP3    H113649   5.067   7.442   2.656 -0.4364  1.3228 -0.4473
37589TIP3    H213650   4.948   7.491   2.576 -1.1653 -1.7507 -1.3935
37590TIP3   OH213651   8.806   3.914   0.595 -0.5785 -0.3810 -0.2022
37590TIP3    H113652   8.834   3.833   0.637 -0.4560 -0.3521 -0.2256
37590TIP3    H213653   8.733   3.945   0.647 -1.0218 -0.8257 -0.5542
37591TIP3   OH213654   3.249   0.610   4.459 -0.3397 -0.1354  0.0797
37591TIP3    H113655   3.296   0.595   4.541  1.7056 -1.0096 -1.1620
37591TIP3    H213656   3.237   0.523   4.422 -2.1556  0.1657 -0.1055
37592TIP3   OH213657   3.528   2.468   0.660  0.0952  0.2531 -0.2238
37592TIP3    H113658   3.474   2.506   0.729 -0.5593 -0.3642 -0.3808
37592TIP3    H213659   3.614   2.458   0.700  0.2873  1.8359 -0.1681
37593TIP3   OH213660   3.960   2.817  10.115 -0.0194 -0.4891  0.1401
37593TIP3    H113661   3.951   2.908  10.086  2.2144 -0.7559 -1.7294
37593TIP3    H213662   3.872   2.780  10.107 -0.5409  0.9432 -1.2924
37594TIP3   OH213663   6.016   6.040  10.416 -0.1145 -0.3765  0.0067
37594TIP3    H113664   5.964   6.120  10.414 -0.7050 -0.7647 -1.0142
37594TIP3    H213665   6.069   6.047  10.495  0.0573  1.1567 -0.2252
37595TIP3   OH213666   9.601   3.892   8.570 -0.4883  0.3414 -0.6310
37595TIP3    H113667   9.544   3.962   8.537 -0.8775 -0.2960 -1.3509
37595TIP3    H213668   9.684   3.907   8.525  0.3957  2.0841  1.4346
37596TIP3   OH213669   3.370   8.805   2.324  0.1319 -0.2747  0.1009
37596TIP3    H113670   3.394   8.712   2.333  0.4155 -0.2431 -0.2642
37596TIP3    H213671   3.427   8.836   2.253 -0.2648  0.0709 -0.0634
37597TIP3   OH213672   4.022   0.103   7.180  0.5636  0.3835 -0.1125
37597TIP3    H113673   4.065   0.058   7.252  0.8749 -1.2421 -1.2468
37597TIP3    H213674   4.056   0.192   7.183  2.6114 -0.3523  0.1653
37598TIP3   OH213675   5.585   9.873   2.236 -0.4059  0.1295 -0.0034
37598TIP3    H113676   5.564   9.798   2.291  0.7982 -0.3557 -0.1678
37598TIP3    H213677   5.665   9.908   2.273  0.4002 -0.1710 -1.3785
37599TIP3   OH213678   1.183   5.147   9.345 -0.8563  0.1227 -0.2934
37599TIP3    H113679   1.223   5.232   9.360  3.1724 -1.2606 -1.7756
37599TIP3    H213680   1.101   5.166   9.300 -0.2247  3.1841 -0.3335
37600TIP3   OH213681   5.204   6.116   3.057 -0.4194 -0.0054  0.2016
37600TIP3    H113682   5.245   6.116   3.144 -0.0646  0.2032  0.0363
37600TIP3    H213683   5.250   6.185   3.009 -1.3357  0.6163  0.1881
37601TIP3   OH213684   4.854   9.397   6.873 -0.0020  0.4922 -0.0915
37601TIP3    H113685   4.782   9.350   6.914  0.6845 -1.7022 -1.2496
37601TIP3    H213686   4.812   9.459   6.813 -0.9078  0.4361  0.4701
37602TIP3   OH213687   8.455   5.656   2.186  0.3039  0.1561  0.8373
37602TIP3    H113688   8.438   5.607   2.266 -1.5594  1.4942  1.3414
37602TIP3    H213689   8.550   5.663   2.181  0.4596 -0.0887  2.8569
37603TIP3   OH213690   8.217   3.346   4.375  0.7379 -0.3012 -0.3498
37603TIP3    H113691   8.165   3.301   4.442  2.1207 -0.2807  0.7808
37603TIP3    H213692   8.302   3.361   4.416  1.5927 -0.1548 -2.0744
37604TIP3   OH213693   2.701   7.661   6.945  0.3793  0.6328  0.0245
37604TIP3    H113694   2.651   7.601   7.000  1.8632 -0.2785  0.4176
37604TIP3    H213695   2.662   7.747   6.961  0.5951  0.3555  2.2835
37605TIP3   OH213696   8.786   8.817   5.369  0.3890 -0.1096  0.8423
37605TIP3    H113697   8.822   8.865   5.295 -1.9446  0.3222 -0.1101
37605TIP3    H213698   8.809   8.725   5.353 -1.1544 -0.2077 -1.1728
37606TIP3   OH213699   3.089   2.610   0.912 -0.0951 -0.2087  0.3088
37606TIP3    H113700   3.131   2.554   0.847 -0.9662 -0.6074  0.0772
37606TIP3    H213701   3.115   2.573   0.996  1.1263  0.3746  0.2000
37607TIP3   OH213702   4.660   7.971   8.936 -0.9216  0.1634  0.5063
37607TIP3    H113703   4.655   8.031   8.861  1.3647 -1.4202 -1.0196
37607TIP3    H213704   4.694   8.026   9.008 -2.5480  1.5501  0.2873
37608TIP3   OH213705   5.994  10.256   7.287  0.9881  0.6956 -0.4157
37608TIP3    H113706   5.911  10.210   7.278  0.8269  1.0636 -0.8331
37608TIP3    H213707   6.022  10.273   7.197 -0.0268  3.3353 -0.2927
37609TIP3   OH213708  10.418   5.988   4.074 -0.4093  0.3733  0.4786
37609TIP3    H113709  10.353   5.949   4.132  1.0042 -0.9658  1.2402
37609TIP3    H213710  10.427   5.925   4.002 -0.1588  0.6773  0.2412
37610TIP3   OH213711   9.274   4.318   8.599 -0.1977 -0.3314  0.0764
37610TIP3    H113712   9.310   4.265   8.670 -0.2688 -2.4602 -1.3618
37610TIP3    H213713   9.203   4.264   8.564 -0.1887  0.6748 -1.5687
37611TIP3   OH213714   1.525   1.801   3.983  0.2173  0.3952 -0.2227
37611TIP3    H113715   1.598   1.777   3.926  0.4868 -0.8725  0.6119
37611TIP3    H213716   1.473   1.721   3.990 -0.4019  0.8408  0.4441
37612TIP3   OH213717   6.378   4.109   5.541  0.7166  0.2870 -0.0235
37612TIP3    H113718   6.387   4.016   5.518 -0.4164  0.7695 -2.7852
37612TIP3    H213719   6.467   4.143   5.539  1.1322 -0.6647  0.9134
37613TIP3   OH213720   8.166   3.480   3.415 -0.1158 -0.5405 -0.6129
37613TIP3    H113721   8.250   3.451   3.378  0.3576  1.1713 -0.9443
37613TIP3    H213722   8.108   3.486   3.340  0.2033  0.7470 -0.7684
37614TIP3   OH213723   7.187   6.284   2.406  0.0536 -0.0180 -0.1428
37614TIP3    H113724   7.188   6.230   2.326  0.8830  0.0182 -0.1707
37614TIP3    H213725   7.131   6.358   2.384 -0.8167 -0.6802 -0.2285
37615TIP3   OH213726   1.000   1.138   5.572  0.4648 -0.0299 -0.3520
37615TIP3    H113727   0.956   1.220   5.591  1.0396  0.4123 -0.8852
37615TIP3    H213728   0.999   1.131   5.476  0.8723 -0.3870 -0.3353
37616TIP3   OH213729   4.303   2.423   9.860  0.4152 -0.4848 -0.1936
37616TIP3    H113730   4.324   2.453   9.771 -0.4372  0.2026 -0.1737
37616TIP3    H213731   4.207   2.429   9.865  0.5669  1.9702  1.6108
37617TIP3   OH213732   2.884   2.248   2.809 -0.4008  0.3075  0.2217
37617TIP3    H113733   2.942   2.237   2.884  2.1299 -1.1143 -1.7991
37617TIP3    H213734   2.927   2.314   2.755 -0.1732 -1.3186 -1.6838
37618TIP3   OH213735   3.893   6.336   3.417 -0.9400  0.4686 -0.1140
37618TIP3    H113736   3.890   6.254   3.465  1.8575  0.8504  0.9460
37618TIP3    H213737   3.879   6.312   3.326  0.9054 -1.4136  0.0224
37619TIP3   OH213738   3.766   2.802   3.759  0.4678  0.2620 -0.1346
37619TIP3    H113739   3.862   2.802   3.765  0.5310  0.3629 -1.0379
37619TIP3    H213740   3.742   2.894   3.748  0.2176  0.2974  0.6176
37620TIP3   OH213741   9.975   4.378   7.920  0.0104 -0.6753 -0.1749
37620TIP3    H113742   9.964   4.283   7.914 -0.2143 -0.6029 -1.0043
37620TIP3    H213743   9.913   4.405   7.988 -0.1090 -1.0855 -0.1161
37621TIP3   OH213744   7.011   6.100   1.771 -0.2479 -0.0940  0.3624
37621TIP3    H113745   7.081   6.164   1.786 -0.4772  1.5130 -3.9586
37621TIP3    H213746   7.051   6.034   1.716 -0.9855 -1.8376  1.8268
37622TIP3   OH213747   8.935   1.923   2.754  0.1223  0.4538 -0.4942
37622TIP3    H113748   8.940   2.006   2.802 -1.2687  0.4045 -0.2249
37622TIP3    H213749   8.918   1.950   2.663  2.0562  0.5216 -0.8734
37623TIP3   OH213750   2.361   0.787   2.228  0.4270 -0.2836 -0.5659
37623TIP3    H113751   2.270   0.764   2.247  0.3686  0.8181  0.6645
37623TIP3    H213752   2.360   0.881   2.215  1.3772 -0.2674 -0.6193
37624TIP3   OH213753  10.828   6.506   7.271 -0.1786  0.0679 -0.0527
37624TIP3    H113754  10.742   6.512   7.313 -0.7150  1.5195 -1.2495
37624TIP3    H213755  10.877   6.580   7.308  0.3511 -0.3624  0.1285
37625TIP3   OH213756   4.022   7.912   7.804  0.7277  0.4235 -0.1593
37625TIP3    H113757   3.960   7.982   7.786  0.4197  0.1721 -0.0797
37625TIP3    H213758   4.073   7.944   7.879  0.1121  0.2683  0.3394
37626TIP3   OH213759   1.713   8.726   1.202  0.7822  0.3041 -0.1393
37626TIP3    H113760   1.732   8.730   1.296  0.6576 -0.2644 -0.0841
37626TIP3    H213761   1.799   8.721   1.161  0.8460  0.8326 -0.0729
37627TIP3   OH213762   0.323   2.528   9.839 -0.1127  0.1488 -0.2399
37627TIP3    H113763   0.237   2.487   9.836  0.3889 -0.9504  0.0151
37627TIP3    H213764   0.315   2.596   9.906 -0.3411 -1.0225  0.9713
37628TIP3   OH213765   0.260   1.795  10.153  0.3058  0.3453  0.6302
37628TIP3    H113766   0.299   1.745  10.081 -0.1486 -0.3941  0.8818
37628TIP3    H213767   0.272   1.887  10.128  0.6736  0.1044 -0.1057
37629TIP3   OH213768   8.276   2.642   2.028 -0.1404 -0.1246  0.2889
37629TIP3    H113769   8.254   2.555   1.995 -0.2716  0.1206 -0.2882
37629TIP3    H213770   8.308   2.627   2.116 -1.4707 -0.6251  0.7154
37630TIP3   OH213771   8.087   5.205   5.660  0.1970 -0.2280  0.5118
37630TIP3    H113772   8.159   5.194   5.722  0.7745 -0.6309 -0.2122
37630TIP3    H213773   8.063   5.297   5.666  1.7464  0.2523 -0.2584
37631TIP3   OH213774   7.746  10.169   4.761 -0.3979 -0.2475 -0.0099
37631TIP3    H113775   7.832  10.167   4.801  0.1010  0.4671 -0.9895
37631TIP3    H213776   7.694  10.104   4.809  1.1653 -1.9377 -0.4904
37632TIP3   OH213777  10.382   4.374   9.123 -0.0952  0.3469 -0.2018
37632TIP3    H113778  10.389   4.429   9.045  1.4283  0.8457  0.2627
37632TIP3    H213779  10.400   4.286   9.092 -1.7291  0.1916 -0.8005
37633TIP3   OH213780  10.292   9.642   6.791 -0.1739 -0.0300  0.6103
37633TIP3    H113781  10.198   9.631   6.777 -0.1764  0.7456 -0.0142
37633TIP3    H213782  10.332   9.571   6.741 -0.4691 -1.1330  1.8938
37634TIP3   OH213783   6.701   7.434   2.944 -0.4918  0.1633 -0.0364
37634TIP3    H113784   6.661   7.384   3.016  0.1754 -2.2765 -1.2374
37634TIP3    H213785   6.663   7.396   2.865  2.0412 -0.3411 -1.1223
37635TIP3   OH213786   4.535   2.946   5.087 -0.2298  0.3778  0.5745
37635TIP3    H113787   4.489   2.879   5.037 -0.3258 -0.8169  2.1631
37635TIP3    H213788   4.613   2.967   5.036 -0.2041 -0.9578  0.0430
37636TIP3   OH213789   9.356   0.754   5.346 -0.2819  0.0243 -0.6880
37636TIP3    H113790   9.413   0.776   5.421 -0.3585 -0.6780 -0.4215
37636TIP3    H213791   9.382   0.666   5.321 -0.0396  0.3718 -1.7047
37637TIP3   OH213792   2.411   4.127   0.617 -0.0609 -0.4772  0.1156
37637TIP3    H113793   2.413   4.071   0.694  1.5986 -1.2883 -0.4566
37637TIP3    H213794   2.454   4.208   0.645  1.4736 -1.1477 -0.1682
37638TIP3   OH213795   1.185   3.732   3.365 -0.5249  0.3948 -0.1682
37638TIP3    H113796   1.103   3.684   3.379 -0.7644  0.5068 -1.0972
37638TIP3    H213797   1.159   3.808   3.312  0.1440  0.5420 -0.2855
37639TIP3   OH213798  10.347   9.286   0.274 -0.1953  0.0781 -0.2351
37639TIP3    H113799  10.336   9.367   0.325 -2.3869 -0.5271  0.3586
37639TIP3    H213800  10.284   9.294   0.203  1.0903 -0.2050 -1.4473
37640TIP3   OH213801   1.749   5.598  10.414  0.2794  0.2611 -0.4218
37640TIP3    H113802   1.693   5.644  10.477 -0.8420  0.1967 -1.3332
37640TIP3    H213803   1.720   5.507  10.419 -0.2814  0.3659 -1.4782
37641TIP3   OH213804   8.215   3.237   1.600  0.1421  0.1500 -0.4166
37641TIP3    H113805   8.270   3.249   1.677 -0.2292 -2.4150  0.3630
37641TIP3    H213806   8.144   3.180   1.631 -0.4242 -0.3227 -2.4568
37642TIP3   OH213807   4.893   3.498   2.919  0.0125 -0.1234  0.1221
37642TIP3    H113808   4.879   3.524   3.010 -0.6426  0.9920 -0.2885
37642TIP3    H213809   4.880   3.578   2.868 -1.2725 -1.0645 -1.1050
37643TIP3   OH213810   5.227   6.212   3.327 -0.0078 -0.0555 -0.2048
37643TIP3    H113811   5.146   6.236   3.281 -1.4892  0.1649  2.3164
37643TIP3    H213812   5.256   6.293   3.367  1.2056 -0.2590 -0.6356
37644TIP3   OH213813   4.255   0.898   3.255  0.0769 -0.0217  0.0491
37644TIP3    H113814   4.228   0.988   3.275 -0.9161 -0.4193  0.5432
37644TIP3    H213815   4.192   0.843   3.301 -0.2951 -0.9793 -1.5327
37645TIP3   OH213816   3.697   0.843   1.164  0.5894 -0.2900 -0.5794
37645TIP3    H113817   3.792   0.845   1.148  1.1020 -0.1517  2.0593
37645TIP3    H213818   3.687   0.874   1.254 -2.1056  0.8485 -1.1748
37646TIP3   OH213819  10.242   6.739   5.204  0.3638  0.1435 -0.3223
37646TIP3    H113820  10.305   6.767   5.138  0.4768 -0.9067 -0.6785
37646TIP3    H213821  10.246   6.644   5.202  1.0021  0.0569  1.7819
37647TIP3   OH213822  10.142   1.800   9.231  0.4161  0.1698  0.6157
37647TIP3    H113823  10.085   1.838   9.298 -1.7464  0.0067 -1.0077
37647TIP3    H213824  10.170   1.875   9.178 -0.7326 -0.0180 -0.3096
37648TIP3   OH213825   7.218   8.489   4.357 -0.5719  0.6371  0.1105
37648TIP3    H113826   7.179   8.554   4.299  1.9482 -0.9287 -3.8118
37648TIP3    H213827   7.291   8.535   4.399  0.9454  0.6355 -2.3205
37649TIP3   OH213828   9.719  10.342   3.388 -0.7608  0.5896  0.3086
37649TIP3    H113829   9.660  10.290   3.441 -1.1626 -0.6921 -1.3079
37649TIP3    H213830   9.676  10.346   3.302 -0.0180  2.3483 -0.0266
37650TIP3   OH213831   6.640   0.477   9.459  0.4790  0.5506 -0.1872
37650TIP3    H113832   6.630   0.572   9.463  2.8700  0.9862 -1.9629
37650TIP3    H213833   6.581   0.449   9.389 -0.6731  0.5969  0.7359
37651TIP3   OH213834   9.645   6.186  10.739  0.5146  0.0698 -0.2093
37651TIP3    H113835   9.658   6.139  10.821 -0.9622  0.3884  0.2238
37651TIP3    H213836   9.685   6.271  10.754 -1.0296  0.6605  0.7292
37652TIP3   OH213837   4.553   0.537  10.638 -0.2686 -0.0963 -0.2164
37652TIP3    H113838   4.614   0.529  10.712 -2.7665 -1.0857  1.9085
37652TIP3    H213839   4.608   0.559  10.564  2.9520 -2.7541  1.1238
37653TIP3   OH213840   4.044   6.414   4.302  0.2973 -0.2082  0.3695
37653TIP3    H113841   4.075   6.368   4.224  0.3103 -0.7737  0.7052
37653TIP3    H213842   4.075   6.361   4.375  3.4872  2.1589  0.9548
37654TIP3   OH213843   8.274   3.852   8.995  0.2803  0.0127  0.3579
37654TIP3    H113844   8.343   3.791   9.022 -0.4926 -0.3166  1.6847
37654TIP3    H213845   8.290   3.931   9.047 -1.0208 -0.5025  1.6037
37655TIP3   OH213846   6.988   7.687   4.277  0.1976  0.6476 -0.1742
37655TIP3    H113847   7.026   7.774   4.290 -0.0072  0.4741  1.9110
37655TIP3    H213848   6.899   7.694   4.313 -0.0134 -0.2854 -0.4735
37656TIP3   OH213849   9.360   8.341   1.131 -0.1896 -0.5170 -0.3171
37656TIP3    H113850   9.352   8.262   1.076  0.0138 -0.8322  0.1029
37656TIP3    H213851   9.409   8.312   1.207 -1.1746 -0.2886  0.4311
37657TIP3   OH213852   3.425   8.871   8.469 -0.2352  0.1598 -0.0205
37657TIP3    H113853   3.412   8.964   8.489 -1.4104  0.0292 -0.0870
37657TIP3    H213854   3.440   8.830   8.554  1.4562  0.5527 -0.0878
37658TIP3   OH213855   5.063   1.398   1.052  0.2230 -0.3650 -0.7708
37658TIP3    H113856   5.032   1.307   1.045 -1.0041 -0.2036  1.6579
37658TIP3    H213857   4.996   1.450   1.007  1.1942 -0.6343 -2.6384
37659TIP3   OH213858   3.310   6.548   8.482 -0.1096 -0.6455 -0.1293
37659TIP3    H113859   3.387   6.594   8.514  1.3794 -2.5604 -0.7593
37659TIP3    H213860   3.329   6.455   8.497 -2.2750 -1.1865 -0.3736
37660TIP3   OH213861   7.110   8.253   1.968  0.5069  0.1159 -0.0587
37660TIP3    H113862   7.186   8.304   1.996  2.2488 -1.9911 -0.6665
37660TIP3    H213863   7.107   8.263   1.873 -2.4172  3.2438  0.1486
37661TIP3   OH213864   4.007   8.673   1.670  0.0026 -0.2550 -0.4630
37661TIP3    H113865   3.977   8.762   1.692  2.1848  0.1443  1.1810
37661TIP3    H213866   4.099   8.683   1.647  0.8523 -2.2765  1.6046
37662TIP3   OH213867   6.656   8.372   7.140  0.4100  1.2703 -0.1010
37662TIP3    H113868   6.679   8.318   7.065 -0.6304  0.0134  0.4505
37662TIP3    H213869   6.739   8.391   7.183  0.8404  0.5817 -0.6145
37663TIP3   OH213870   7.215   5.351   2.964  0.1486  0.0319 -0.1561
37663TIP3    H113871   7.237   5.327   3.054  0.0169  0.5932  0.0304
37663TIP3    H213872   7.149   5.286   2.938  1.9039 -1.6260 -0.7052
37664TIP3   OH213873   2.159  10.769   5.280 -0.2078 -0.0490 -0.1682
37664TIP3    H113874   2.124  10.826   5.348 -2.6117 -2.5150  0.8330
37664TIP3    H213875   2.083  10.745   5.228  1.2375 -0.0056 -2.4450
37665TIP3   OH213876   9.345   2.377   4.152 -0.4057  0.5384 -0.1236
37665TIP3    H113877   9.377   2.424   4.075  1.5734 -1.9471 -0.9893
37665TIP3    H213878   9.352   2.284   4.127  1.1200 -0.4112  3.2971
37666TIP3   OH213879   0.981  10.280   2.517  0.4583  0.6512  0.3133
37666TIP3    H113880   1.057  10.225   2.538  0.6596  0.4361 -0.9331
37666TIP3    H213881   0.985  10.292   2.422 -1.3412  0.2204  0.1490
37667TIP3   OH213882   0.545   0.703   2.982 -0.5906  0.1398 -0.0241
37667TIP3    H113883   0.625   0.702   3.035 -0.7205 -1.0177  0.1686
37667TIP3    H213884   0.530   0.796   2.964  0.0272  0.4741  1.0860
37668TIP3   OH213885   1.135   3.394   7.539  0.1573  0.7170 -0.9899
37668TIP3    H113886   1.099   3.464   7.485 -1.1107  0.4508 -0.5256
37668TIP3    H213887   1.083   3.317   7.516  0.0881  0.4307  0.0633
37669TIP3   OH213888   1.063   2.053   3.297  0.1140  0.1064  0.2035
37669TIP3    H113889   1.146   2.082   3.260  0.5539 -1.1170  0.1771
37669TIP3    H213890   1.005   2.043   3.221 -0.5322  2.3084  0.3459
37670TIP3   OH213891   5.755   6.202   1.050 -0.4219 -0.6319  0.2800
37670TIP3    H113892   5.713   6.245   1.124 -0.0810 -0.5934  0.4547
37670TIP3    H213893   5.698   6.219   0.976  0.4768  1.4655 -0.0066
37671TIP3   OH213894   7.138   6.627   2.185 -0.2162 -0.1473 -0.5455
37671TIP3    H113895   7.082   6.599   2.258 -1.3972  0.8019 -1.0540
37671TIP3    H213896   7.083   6.685   2.133  0.8057 -0.3120 -1.8720
37672TIP3   OH213897   8.508   7.336   4.165 -0.0607  0.2440 -0.1936
37672TIP3    H113898   8.443   7.362   4.100 -2.2055 -0.5789  1.4964
37672TIP3    H213899   8.558   7.416   4.182 -0.1228  0.7280 -2.0379
37673TIP3   OH213900   6.678   3.597   3.595 -0.4604 -0.0705  0.4569
37673TIP3    H113901   6.741   3.665   3.570 -1.2158  0.3093 -0.4880
37673TIP3    H213902   6.731   3.519   3.610  0.4224  0.7179  1.5774
37674TIP3   OH213903   4.177   2.947   8.197 -0.0970  0.2976 -0.0725
37674TIP3    H113904   4.113   3.017   8.211 -1.1797 -1.0396  2.4578
37674TIP3    H213905   4.140   2.894   8.126 -0.7661  0.6827 -0.0215
37675TIP3   OH213906   2.913   7.447   4.325 -0.5506  0.3715  0.1930
37675TIP3    H113907   2.909   7.392   4.403 -1.6192  0.2528  0.0683
37675TIP3    H213908   2.982   7.509   4.343  0.6876 -0.9967  0.3445
37676TIP3   OH213909   0.611   4.882   1.416  0.5335 -0.2428  0.0755
37676TIP3    H113910   0.627   4.974   1.439  0.3632 -0.0808 -0.4251
37676TIP3    H213911   0.694   4.838   1.433  1.6870  0.6322 -2.7248
37677TIP3   OH213912   0.306   8.120   0.780 -0.4263 -0.0385 -0.3800
37677TIP3    H113913   0.211   8.130   0.773 -0.4769  0.2918  0.6511
37677TIP3    H213914   0.324   8.125   0.873  0.7716  1.6442 -0.6411
37678TIP3   OH213915  10.855   4.409   8.815 -0.3350  0.5267  0.1508
37678TIP3    H113916  10.895   4.325   8.839 -1.8516 -0.4284 -0.5169
37678TIP3    H213917  10.761   4.393   8.819 -0.7093  2.5952  1.3265
37679TIP3   OH213918   2.820   6.193   4.526 -0.2528 -0.1319  0.1396
37679TIP3    H113919   2.826   6.205   4.431 -0.2271  2.8934  0.4160
37679TIP3    H213920   2.907   6.164   4.552  0.6823  1.9016 -0.5023
37680TIP3   OH213921   8.525   7.418   6.185 -0.5258  0.3452 -0.0806
37680TIP3    H113922   8.598   7.358   6.165 -0.3609  1.3423 -2.8427
37680TIP3    H213923   8.446   7.367   6.164 -0.4064  0.8245 -1.8145
37681TIP3   OH213924   6.916   1.091   0.890 -0.2381  0.4706  0.3811
37681TIP3    H113925   6.875   1.016   0.932  0.5186  0.6898  1.5861
37681TIP3    H213926   6.898   1.164   0.949  0.5661  0.8647  0.1551
37682TIP3   OH213927   9.583   1.239   9.804 -0.2194  0.0634  0.3346
37682TIP3    H113928   9.495   1.235   9.841 -0.2843  0.5598  0.2405
37682TIP3    H213929   9.633   1.175   9.854 -0.3921  0.4822  1.0548
37683TIP3   OH213930   1.620   0.071   9.140 -0.0607 -0.1784  0.0056
37683TIP3    H113931   1.600   0.060   9.046  0.0301  0.3904 -0.0854
37683TIP3    H213932   1.618  -0.018   9.175 -0.3091 -0.3804 -0.4949
37684TIP3   OH213933   0.789   6.062   0.243  0.2608  0.2275  0.1174
37684TIP3    H113934   0.703   6.103   0.249 -0.0608 -0.2055 -1.2388
37684TIP3    H213935   0.770   5.968   0.241  0.9786 -0.1013  3.2096
37685TIP3   OH213936   3.744   4.804   8.359 -0.5860 -0.3852 -0.0987
37685TIP3    H113937   3.705   4.885   8.329  0.5661  0.3637  0.3580
37685TIP3    H213938   3.787   4.767   8.282  0.6112  0.4855  0.1297
37686TIP3   OH213939   9.091   6.465  10.549 -0.3187 -0.1468  0.5548
37686TIP3    H113940   9.071   6.486  10.458  0.1810  0.9064  0.6735
37686TIP3    H213941   9.054   6.537  10.600  0.0521 -0.3460  1.1180
37687TIP3   OH213942  10.201   5.211   3.646 -0.5297 -0.4686 -0.0709
37687TIP3    H113943  10.239   5.284   3.695  0.4054 -1.1982  0.3203
37687TIP3    H213944  10.275   5.154   3.626 -0.7435  0.1853 -3.0997
37688TIP3   OH213945   7.670   2.445   9.136 -0.3861  0.1885 -0.7561
37688TIP3    H113946   7.610   2.505   9.180  0.1230 -0.7120  1.2826
37688TIP3    H213947   7.751   2.452   9.187 -0.1442 -1.8017 -0.8137
37689TIP3   OH213948   2.415   5.297   1.164  0.3355 -0.0934  0.2633
37689TIP3    H113949   2.413   5.218   1.218  1.7210  0.1896  0.7783
37689TIP3    H213950   2.336   5.345   1.189 -0.0151 -0.8509  0.6490
37690TIP3   OH213951   2.565   5.060   7.572  0.4653  0.2242 -0.0322
37690TIP3    H113952   2.582   5.061   7.477 -0.6785  1.0294 -0.2428
37690TIP3    H213953   2.652   5.066   7.611  0.8856  1.1237 -1.0459
37691TIP3   OH213954   0.694   1.090   5.136 -0.5822  0.3473 -0.0370
37691TIP3    H113955   0.673   1.122   5.049 -0.8870 -0.2470 -0.1862
37691TIP3    H213956   0.647   1.148   5.195 -0.7227  0.4856 -0.2840
37692TIP3   OH213957   9.162   3.679   0.577 -0.0360  0.5401  0.5025
37692TIP3    H113958   9.140   3.674   0.484  0.2750  0.0137  0.4513
37692TIP3    H213959   9.258   3.678   0.579 -0.0364  1.0517  0.8028
37693TIP3   OH213960   4.613  10.210   2.132  0.0049 -0.1351 -0.4569
37693TIP3    H113961   4.575  10.286   2.088 -0.8349 -1.0302 -1.2928
37693TIP3    H213962   4.690  10.246   2.177  0.1698  1.0289 -1.6025
37694TIP3   OH213963   1.805   7.501   5.188  0.0322  0.5931 -0.6098
37694TIP3    H113964   1.818   7.420   5.237 -1.2242  1.6839  1.7042
37694TIP3    H213965   1.722   7.489   5.142 -0.8185  0.9969  0.7727
37695TIP3   OH213966   0.394   8.746   4.801  0.8661 -0.2614 -0.3007
37695TIP3    H113967   0.303   8.722   4.785  0.6926 -0.4218  0.8774
37695TIP3    H213968   0.399   8.838   4.777  0.2705 -0.1209  0.0889
37696TIP3   OH213969   8.443   3.863   6.088 -0.5463 -0.0192 -0.5473
37696TIP3    H113970   8.530   3.894   6.113 -1.1150  0.8655  0.4424
37696TIP3    H213971   8.400   3.940   6.051 -1.4801  0.0216  0.5621
37697TIP3   OH213972  10.201   6.195  10.886  0.1526 -0.9180 -0.3961
37697TIP3    H113973  10.280   6.141  10.881 -0.0669 -1.4288  1.1875
37697TIP3    H213974  10.133   6.142  10.847  0.5750 -0.4472 -1.8380
37698TIP3   OH213975   5.568   9.801   6.687  0.1744 -0.0287  0.3624
37698TIP3    H113976   5.529   9.715   6.672  3.4733 -1.2587 -2.5786
37698TIP3    H213977   5.629   9.788   6.760 -1.6309  0.7993  2.1176
37699TIP3   OH213978   9.656   1.037   9.372 -0.1810 -0.1258  0.2949
37699TIP3    H113979   9.643   0.975   9.444  0.9979  0.0639  0.7007
37699TIP3    H213980   9.628   0.989   9.294 -0.1368 -0.8506  0.7097
37700TIP3   OH213981   2.031   9.146   4.358 -0.9363 -0.2395  0.6755
37700TIP3    H113982   2.118   9.110   4.375 -0.5596  0.1094 -0.4669
37700TIP3    H213983   1.993   9.087   4.294 -0.7890  0.6797 -0.2733
37701TIP3   OH213984   3.996   7.062   9.888 -0.3183 -0.0601 -0.2716
37701TIP3    H113985   3.956   7.131   9.834 -2.9130 -0.2067  1.3104
37701TIP3    H213986   4.059   7.109   9.943 -0.8068  0.7880 -0.4105
37702TIP3   OH213987   0.520   4.053   5.985 -0.3349 -0.3667  0.6336
37702TIP3    H113988   0.498   4.113   5.913  0.6963 -0.1096  0.5169
37702TIP3    H213989   0.563   3.979   5.942 -0.1438 -0.4375  0.9458
37703TIP3   OH213990   9.751   5.009   8.595 -0.3924 -0.4315 -0.3988
37703TIP3    H113991   9.761   5.044   8.507  0.2364  0.7660  0.1247
37703TIP3    H213992   9.683   5.064   8.634  2.0240  1.7002  1.1158
37704TIP3   OH213993   0.960   1.415   6.249  0.1811 -0.7240  0.1697
37704TIP3    H113994   0.904   1.493   6.256 -1.5008 -1.9502  1.4069
37704TIP3    H213995   0.979   1.407   6.156 -2.4762 -0.7039 -0.4595
37705TIP3   OH213996   8.431   4.293   8.683  0.4553  0.2357  0.3096
37705TIP3    H113997   8.399   4.378   8.711  0.9885  0.6191 -0.2211
37705TIP3    H213998   8.502   4.273   8.745  0.4751  0.2845  0.3026
37706TIP3   OH213999  10.798   6.527   2.946 -0.1694  0.2423  0.1395
37706TIP3    H114000  10.740   6.481   2.885  0.0997  0.7180 -0.4794
37706TIP3    H214001  10.868   6.464   2.964  0.4428  0.5597 -1.0631
37707TIP3   OH214002   6.767   7.080   5.247  0.6691 -0.7966  0.1195
37707TIP3    H114003   6.679   7.118   5.238  0.7825 -0.9128 -1.7406
37707TIP3    H214004   6.820   7.152   5.283  0.5267  0.3791 -1.8687
37708TIP3   OH214005   8.027   2.903   1.341 -0.5668  0.1325  0.1463
37708TIP3    H114006   8.029   2.892   1.246 -0.4172  0.0832  0.1554
37708TIP3    H214007   8.119   2.903   1.368 -0.6293 -0.4808  0.3661
37709TIP3   OH214008   6.127   9.325   3.542 -0.1690  0.6201  0.5590
37709TIP3    H114009   6.140   9.256   3.606  0.1271  0.4138  0.2817
37709TIP3    H214010   6.033   9.327   3.527 -0.1210 -0.1939  0.0646
37710TIP3   OH214011   0.283   8.511   9.717 -0.5116  0.5691 -0.1657
37710TIP3    H114012   0.188   8.526   9.724 -0.6531  0.2012 -1.1118
37710TIP3    H214013   0.318   8.597   9.695 -0.6651  0.6421 -0.1300
37711TIP3   OH214014   3.289   6.499   1.870 -0.2995 -0.0084  0.0792
37711TIP3    H114015   3.278   6.428   1.808  1.4700  1.7442 -2.4540
37711TIP3    H214016   3.372   6.481   1.914  0.0383  0.3210 -0.4050
37712TIP3   OH214017   7.250   8.732   1.529  0.1452  0.4787 -0.7697
37712TIP3    H114018   7.280   8.795   1.464  0.5320  1.5209  0.3864
37712TIP3    H214019   7.286   8.648   1.499  1.4411  1.1558 -1.1789
37713TIP3   OH214020   7.695   8.143   4.136  0.1313 -0.4382  0.6347
37713TIP3    H114021   7.788   8.140   4.112 -0.3613  0.3521 -1.5901
37713TIP3    H214022   7.659   8.062   4.102  0.0108 -0.8505  1.6944
37714TIP3   OH214023   5.483   1.724   6.410  0.1136  0.7890  0.5631
37714TIP3    H114024   5.417   1.703   6.477 -0.8032 -0.3524 -0.6645
37714TIP3    H214025   5.436   1.776   6.345  1.0541  2.0723  0.8677
37715TIP3   OH214026   1.115   3.076   2.710 -0.0402  0.2181 -0.1415
37715TIP3    H114027   1.096   3.092   2.803  0.7491 -0.9649  0.2438
37715TIP3    H214028   1.090   2.985   2.696  1.6336 -0.2169 -0.5790
37716TIP3   OH214029   1.028   3.838   1.517  0.3292 -0.1705 -0.5679
37716TIP3    H114030   1.077   3.756   1.524  0.2801 -0.1417  0.2052
37716TIP3    H214031   0.997   3.840   1.427  0.3547 -0.9958 -0.6031
37717TIP3   OH214032   2.779   3.264  10.783 -0.1369  0.2042  0.2798
37717TIP3    H114033   2.823   3.287  10.865  0.4367 -2.3983  0.8101
37717TIP3    H214034   2.850   3.261  10.718 -0.2046  0.0821  0.2099
37718TIP3   OH214035   0.576   0.737   3.746 -0.5441 -0.1731  0.0093
37718TIP3    H114036   0.584   0.833   3.749 -0.4342 -0.2135  2.2879
37718TIP3    H214037   0.529   0.720   3.665  1.5184  1.6263 -1.7013
37719TIP3   OH214038  10.653   9.538   2.125  0.4628  0.3394 -0.0373
37719TIP3    H114039  10.594   9.517   2.053  1.3625  1.0545 -1.0296
37719TIP3    H214040  10.622   9.486   2.199 -0.2691 -0.6880 -1.0423
37720TIP3   OH214041   4.780   4.758  10.602  0.5670  0.1538  0.2711
37720TIP3    H114042   4.771   4.685  10.664  1.2315  0.5865  0.8872
37720TIP3    H214043   4.872   4.759  10.579  0.5790  0.8433  0.3237
37721TIP3   OH214044   4.311   1.013   6.990 -0.4058  0.0907 -0.6122
37721TIP3    H114045   4.311   0.927   6.946  4.2681 -0.0806 -0.7682
37721TIP3    H214046   4.292   0.993   7.081 -1.3461 -0.7605 -0.9657
37722TIP3   OH214047  10.231   3.292   9.709 -0.5115 -0.3024  0.3792
37722TIP3    H114048  10.286   3.353   9.759 -1.5769  1.4807 -0.5024
37722TIP3    H214049  10.215   3.220   9.769  2.1401 -0.5452  0.9183
37723TIP3   OH214050   2.127   9.928   4.774 -0.4257  0.2440 -0.5855
37723TIP3    H114051   2.098   9.843   4.740  2.1675 -0.8322 -0.3569
37723TIP3    H214052   2.093   9.931   4.863 -2.1458  0.3437 -1.2109
37724TIP3   OH214053   5.200   5.129   0.393  0.6932 -0.2748 -0.2328
37724TIP3    H114054   5.138   5.197   0.367  0.9553  0.5095  1.0773
37724TIP3    H214055   5.229   5.089   0.311 -0.3080  0.4460 -0.9523
37725TIP3   OH214056   8.552  10.858   9.953 -0.8346  0.3626 -0.0043
37725TIP3    H114057   8.525  10.878  10.043  0.7352 -0.6357  0.7279
37725TIP3    H214058   8.542  10.763   9.947  1.1032  0.1399 -0.1506
37726TIP3   OH214059   6.939   2.085   2.312 -0.1028  0.2588 -0.1264
37726TIP3    H114060   6.859   2.070   2.261 -1.3199  1.4318  1.3350
37726TIP3    H214061   6.938   2.179   2.329  0.3548 -0.0611  1.8736
37727TIP3   OH214062   5.414   8.723   4.358 -0.5360 -0.8350 -0.3860
37727TIP3    H114063   5.494   8.772   4.379 -1.1652  0.3464 -0.6572
37727TIP3    H214064   5.428   8.637   4.397  1.2002 -0.9201 -1.1059
37728TIP3   OH214065   2.106   0.190   8.440 -0.4532  0.5953 -0.1757
37728TIP3    H114066   2.115   0.188   8.344  1.5058  0.4435 -0.0222
37728TIP3    H214067   2.117   0.098   8.466 -3.1932  0.2660  0.0779
37729TIP3   OH214068   0.119   3.113   8.628 -0.1359  0.1001  0.9304
37729TIP3    H114069   0.059   3.187   8.636 -1.9200 -1.1946  0.1460
37729TIP3    H214070   0.206   3.153   8.624 -1.0685  2.1825 -0.0113
37730TIP3   OH214071   4.606   2.100   7.343  0.0545 -0.3762  0.5602
37730TIP3    H114072   4.537   2.164   7.325  1.0833  0.2680 -1.3183
37730TIP3    H214073   4.685   2.152   7.354  0.3561 -1.1333  2.4171
37731TIP3   OH214074   3.059   7.261   8.323 -0.0660  0.0691 -0.3809
37731TIP3    H114075   2.964   7.263   8.321 -0.1088 -1.1713 -0.3056
37731TIP3    H214076   3.085   7.235   8.235  0.1548 -0.5962 -0.1277
37732TIP3   OH214077   8.270   8.168   4.830  0.2727  0.3656  0.1479
37732TIP3    H114078   8.254   8.214   4.748 -0.6194  0.2945  0.2703
37732TIP3    H214079   8.195   8.190   4.885 -0.7679 -2.0731 -0.1731
37733TIP3   OH214080   3.380   6.991   2.872  0.8215 -0.5542  0.1276
37733TIP3    H114081   3.360   7.076   2.911 -0.9012 -0.1685 -1.4613
37733TIP3    H214082   3.391   7.009   2.779  1.5430 -1.9210 -0.0767
37734TIP3   OH214083   2.551   5.461   6.909 -0.3060 -0.3045 -1.2450
37734TIP3    H114084   2.629   5.411   6.881  0.0881 -0.5936  0.2492
37734TIP3    H214085   2.587   5.542   6.945 -0.5213 -1.0949  0.8876
37735TIP3   OH214086   5.647   7.648   4.219  0.1116 -0.6581 -0.4011
37735TIP3    H114087   5.616   7.640   4.129  0.2725  0.6474 -0.5911
37735TIP3    H214088   5.719   7.712   4.214  0.4539 -0.9453  0.5743
37736TIP3   OH214089   9.945   7.923   8.417 -0.0110  0.0135 -0.2117
37736TIP3    H114090  10.028   7.883   8.390 -1.5904 -2.0271 -2.3759
37736TIP3    H214091   9.934   7.998   8.358 -0.4517 -0.6765 -1.0171
37737TIP3   OH214092   5.490   1.193   1.830 -0.5463  0.0787  0.2188
37737TIP3    H114093   5.559   1.190   1.764 -0.6167 -1.3570  0.1584
37737TIP3    H214094   5.420   1.138   1.793 -0.8691 -0.1765  1.1797
37738TIP3   OH214095   4.664   1.356   2.455 -0.1042  0.2516 -0.1587
37738TIP3    H114096   4.600   1.295   2.491  1.9514 -1.4531  0.8499
37738TIP3    H214097   4.675   1.328   2.364 -0.5347  0.3472 -0.2432
37739TIP3   OH214098   3.679   8.444   1.932 -0.2437  0.3176  0.0450
37739TIP3    H114099   3.733   8.374   1.968 -0.3409 -0.2663 -0.9189
37739TIP3    H214100   3.634   8.481   2.009 -1.5053 -1.8028  0.4096
37740TIP3   OH214101   4.015   0.179   3.943  0.3291 -0.5990  0.0677
37740TIP3    H114102   4.038   0.145   4.029 -0.4876 -0.5647  0.3008
37740TIP3    H214103   3.926   0.150   3.928  1.0213 -2.0690 -1.5153
37741TIP3   OH214104   3.294   6.427   1.426 -0.7770  0.0889 -0.5960
37741TIP3    H114105   3.241   6.422   1.346  0.1104 -2.0519 -1.1165
37741TIP3    H214106   3.374   6.378   1.405 -0.1617  0.1776  1.3513
37742TIP3   OH214107   4.635   8.524   2.219 -0.2983 -0.0172 -0.2951
37742TIP3    H114108   4.727   8.504   2.203 -0.2485  1.0809 -1.5170
37742TIP3    H214109   4.625   8.614   2.189 -2.3140 -0.8590 -2.4394
37743TIP3   OH214110   8.935   2.594   9.028  0.1904  0.0252 -0.5706
37743TIP3    H114111   8.917   2.687   9.042  0.2969  0.0917 -0.8694
37743TIP3    H214112   8.939   2.585   8.933  0.9002 -0.1542 -0.5225
37744TIP3   OH214113   0.715   2.857   0.092  0.0588  0.7199 -0.2243
37744TIP3    H114114   0.784   2.846   0.158 -1.4502  1.6556  1.5998
37744TIP3    H214115   0.720   2.778   0.038  1.0577 -0.3044  1.2961
37745TIP3   OH214116   0.559   1.424   3.273  0.0263 -0.0282  0.3768
37745TIP3    H114117   0.559   1.348   3.332  1.0868 -0.4749 -0.1728
37745TIP3    H214118   0.627   1.405   3.209 -1.0892  0.4662 -0.9964
37746TIP3   OH214119   5.709   2.463   0.201  0.4694  0.1262  0.0284
37746TIP3    H114120   5.622   2.426   0.183 -0.2502  1.6866  0.0857
37746TIP3    H214121   5.724   2.523   0.128 -0.4211  3.0464  2.0470
37747TIP3   OH214122   2.390  10.489   5.933  0.2379 -0.1651  0.0721
37747TIP3    H114123   2.469  10.489   5.880  0.3545 -2.7531  0.1369
37747TIP3    H214124   2.318  10.496   5.869  0.4505  1.5472 -0.0268
37748TIP3   OH214125   1.627   9.582   8.375 -0.3532 -0.1884  0.2078
37748TIP3    H114126   1.613   9.675   8.394  1.1441  0.0695  0.1564
37748TIP3    H214127   1.564   9.537   8.431 -1.4482  0.8546 -0.1237
37749TIP3   OH214128   8.958   1.494   3.269 -0.0644  0.0452  0.7775
37749TIP3    H114129   8.938   1.545   3.348 -3.1593  1.0270 -0.5022
37749TIP3    H214130   8.886   1.432   3.262  0.9701 -1.0716 -0.4991
37750TIP3   OH214131   1.410   6.024   0.762  0.3710  0.0821 -0.1087
37750TIP3    H114132   1.480   6.023   0.827  0.6478  1.6951 -0.3324
37750TIP3    H214133   1.381   5.933   0.756 -1.3220  0.1401  3.9991
37751TIP3   OH214134   8.922  10.709   5.264  0.2438 -0.2674 -0.1347
37751TIP3    H114135   8.863  10.753   5.326 -0.3557 -0.9349 -0.2125
37751TIP3    H214136   8.965  10.780   5.217 -0.9483  0.2435 -0.4870
37752TIP3   OH214137   0.369   6.288   9.580  0.7189  0.4680 -0.2255
37752TIP3    H114138   0.302   6.332   9.633 -1.0011 -0.2093 -1.7184
37752TIP3    H214139   0.433   6.356   9.561  0.9055  0.9634  1.8774
37753TIP3   OH214140   6.636   0.272   5.642  0.0405 -0.2880 -0.4726
37753TIP3    H114141   6.669   0.226   5.565  1.0240  0.5508 -0.5734
37753TIP3    H214142   6.704   0.260   5.708 -1.3069 -1.9736  0.6738
37754TIP3   OH214143   9.379   7.182   8.280 -0.7475  0.0884  0.2440
37754TIP3    H114144   9.344   7.139   8.358  2.1261  0.1827  1.7521
37754TIP3    H214145   9.353   7.273   8.289 -1.4196 -0.1225  0.4691
37755TIP3   OH214146   1.275   8.143   7.109 -0.0792  0.1488 -0.0535
37755TIP3    H114147   1.331   8.205   7.155  0.3424  0.3913 -0.8809
37755TIP3    H214148   1.214   8.198   7.060  2.0282  0.0761 -3.0280
37756TIP3   OH214149   3.729   6.191   6.441  0.2016  0.2465 -0.3553
37756TIP3    H114150   3.674   6.113   6.441  0.7451 -0.1406 -0.0720
37756TIP3    H214151   3.804   6.168   6.387 -1.0718  1.6402 -2.9118
37757TIP3   OH214152  10.487   9.337  10.685  0.2270  0.1356  0.2223
37757TIP3    H114153  10.541   9.322  10.608  1.0753 -3.1770  1.3006
37757TIP3    H214154  10.543   9.312  10.759 -1.0832  1.6766  1.8297
37758TIP3   OH214155   9.600   5.558   9.529 -0.2961  0.0467  0.1434
37758TIP3    H114156   9.618   5.533   9.438 -0.3880 -0.0239  0.1457
37758TIP3    H214157   9.521   5.612   9.523 -2.5046 -2.8951  0.5797
37759TIP3   OH214158   7.721   3.318   4.678  0.1305  0.3613 -0.4605
37759TIP3    H114159   7.788   3.340   4.743 -0.7649 -0.4802  0.7942
37759TIP3    H214160   7.651   3.382   4.694 -1.1389 -1.3184  1.1040
37760TIP3   OH214161   5.402   5.771   9.279  0.5612 -0.2687  0.0448
37760TIP3    H114162   5.393   5.814   9.194 -1.8250 -2.0669 -0.7626
37760TIP3    H214163   5.412   5.678   9.258 -0.6435 -0.8298  1.7002
37761TIP3   OH214164   1.065   0.856   6.490  0.3233 -0.3636  0.5607
37761TIP3    H114165   1.013   0.914   6.433 -0.1429 -0.3672  0.9732
37761TIP3    H214166   1.116   0.803   6.429 -0.2871 -0.4755  0.1280
37762TIP3   OH214167   3.755   3.680  10.839  0.4582  0.8261  0.2746
37762TIP3    H114168   3.846   3.670  10.868  0.3186 -0.8997  0.2029
37762TIP3    H214169   3.729   3.766  10.873  1.7553  0.8612  1.2852
37763TIP3   OH214170   3.149   2.707   1.741  0.4114  0.0694  0.0266
37763TIP3    H114171   3.054   2.715   1.732  0.4528  1.5491  0.5616
37763TIP3    H214172   3.181   2.691   1.653 -0.3540 -0.8550 -0.1013
37764TIP3   OH214173  10.187   2.159   3.985  1.2441 -0.2646 -0.1529
37764TIP3    H114174  10.097   2.133   4.005  1.6859 -0.3652  1.9596
37764TIP3    H214175  10.211   2.107   3.908  0.2802 -2.0521  0.6844
37765TIP3   OH214176   3.114   4.024   4.033  0.0734 -0.1034  0.0537
37765TIP3    H114177   3.209   4.039   4.037  0.2576 -1.3270  0.5334
37765TIP3    H214178   3.094   4.024   3.940  0.5028  0.3957 -0.0465
37766TIP3   OH214179   2.262   6.841   3.106  0.1858 -0.3497  0.0576
37766TIP3    H114180   2.353   6.869   3.094  0.3128 -1.4205 -1.9088
37766TIP3    H214181   2.237   6.876   3.192  2.0335  1.0438  0.0909
37767TIP3   OH214182   4.105   9.314   2.301  0.2330  0.4564  0.4187
37767TIP3    H114183   4.155   9.274   2.372  2.1901  0.5344 -0.8404
37767TIP3    H214184   4.057   9.241   2.262  0.4056  0.1207  0.8214
37768TIP3   OH214185   2.203   2.928   5.573  0.2554  0.0480  0.3405
37768TIP3    H114186   2.197   2.925   5.478 -0.7378 -0.0790  0.3947
37768TIP3    H214187   2.213   3.021   5.594 -1.7435  0.3311  0.2015
37769TIP3   OH214188   1.915   0.005   7.697  0.0953  0.0115  0.5902
37769TIP3    H114189   1.903   0.080   7.754 -2.0297  0.4682 -0.3561
37769TIP3    H214190   2.009  -0.014   7.701  0.5793  2.3001  1.3307
37770TIP3   OH214191   0.695   6.849   4.460  0.2560  0.5521 -0.0360
37770TIP3    H114192   0.747   6.880   4.386  1.3588 -2.2612 -0.5572
37770TIP3    H214193   0.625   6.797   4.421 -1.1776  1.7712  0.8078
37771TIP3   OH214194   6.700   9.507   8.373 -0.5750  0.5144  0.0660
37771TIP3    H114195   6.720   9.596   8.345  0.0122  0.0064 -1.1825
37771TIP3    H214196   6.616   9.514   8.418 -1.5289  1.3970 -1.7600
37772TIP3   OH214197   1.207   0.144   7.132 -0.2497  0.4371  0.4828
37772TIP3    H114198   1.273   0.186   7.075 -0.8633  0.8169  0.0341
37772TIP3    H214199   1.189   0.210   7.199  1.3619 -0.4632  1.8705
37773TIP3   OH214200   2.490   1.087   4.153 -0.1932 -0.2975  0.2277
37773TIP3    H114201   2.469   1.115   4.243 -1.7671 -0.6396  0.0085
37773TIP3    H214202   2.518   1.167   4.109 -2.1997  0.4937  0.2818
37774TIP3   OH214203   8.340   1.620   2.166 -0.0691  0.0221  0.0192
37774TIP3    H114204   8.409   1.685   2.151 -1.1199  0.7879 -1.7931
37774TIP3    H214205   8.376   1.538   2.131  0.9056 -0.2268  1.4931
37775TIP3   OH214206   7.263   6.788   6.291  0.1547  0.3549 -1.2790
37775TIP3    H114207   7.347   6.749   6.316 -0.1263  0.5076  0.0042
37775TIP3    H214208   7.199   6.720   6.309 -0.2522  1.0842  0.2349
37776TIP3   OH214209   3.399   2.941   7.824 -0.3045  0.3301 -0.1385
37776TIP3    H114210   3.311   2.950   7.787 -0.4865  1.8207  0.5992
37776TIP3    H214211   3.427   2.853   7.798 -2.0477 -0.2058 -0.3046
37777TIP3   OH214212   1.694   4.388   7.083  0.2686  0.1146 -0.0559
37777TIP3    H114213   1.624   4.440   7.043  0.8935  0.5968 -0.5261
37777TIP3    H214214   1.677   4.299   7.054  1.2663  0.5813 -2.2465
37778TIP3   OH214215   6.569   9.775   5.291 -0.4846 -0.0573 -0.2761
37778TIP3    H114216   6.480   9.745   5.272 -1.1451  1.6111 -0.0159
37778TIP3    H214217   6.575   9.773   5.386 -0.3698  0.1620 -0.2780
37779TIP3   OH214218  10.161   1.265   1.259 -0.1371 -0.5149 -0.5995
37779TIP3    H114219  10.245   1.236   1.296  0.1232  0.0634 -0.7257
37779TIP3    H214220  10.141   1.200   1.191  0.4224 -0.4219 -0.8579
37780TIP3   OH214221   8.651   7.039   2.478  0.3096  0.2628 -0.5573
37780TIP3    H114222   8.704   6.960   2.486  1.6842  1.2444  0.4933
37780TIP3    H214223   8.621   7.038   2.387 -2.3283 -3.0200  0.1351
37781TIP3   OH214224  10.614  10.556   3.980 -0.7160 -0.2581 -0.1619
37781TIP3    H114225  10.567  10.476   3.958  2.1775 -1.3975 -3.1116
37781TIP3    H214226  10.685  10.528   4.038  0.1105  0.1754 -0.9341
37782TIP3   OH214227   8.693   9.836   7.714 -0.3816 -0.0508 -0.1621
37782TIP3    H114228   8.600   9.827   7.733  0.5012 -4.7447  3.8983
37782TIP3    H214229   8.712   9.765   7.652  0.7005 -0.2848  0.4051
37783TIP3   OH214230   6.538  10.814   4.460  0.3527 -0.9473  0.3540
37783TIP3    H114231   6.445  10.798   4.446  0.5414 -0.9466 -1.0963
37783TIP3    H214232   6.542  10.899   4.503 -0.2484  0.5147 -2.2729
37784TIP3   OH214233   1.796   0.455   0.107 -0.2018  0.3865  0.2234
37784TIP3    H114234   1.757   0.543   0.114  0.4880  0.5460  3.8253
37784TIP3    H214235   1.863   0.464   0.040 -1.6692  1.9604 -1.1237
37785TIP3   OH214236   8.658   9.815   1.986 -0.2766  0.0660  0.1169
37785TIP3    H114237   8.582   9.816   1.927  1.0580 -0.3431 -1.6902
37785TIP3    H214238   8.690   9.905   1.986 -0.2912  0.0711  0.2588
37786TIP3   OH214239   6.881  10.307   8.076 -0.3607  0.2015 -0.5937
37786TIP3    H114240   6.809  10.287   8.017  0.5122 -3.4561 -0.6722
37786TIP3    H214241   6.857  10.264   8.158  0.1775  1.9773  0.5548
37787TIP3   OH214242   3.990  10.203   9.011  0.5879 -0.3541 -0.5082
37787TIP3    H114243   3.991  10.179   8.918  0.7199  1.9008 -1.1316
37787TIP3    H214244   3.964  10.295   9.013  1.2679 -0.1360  1.6486
37788TIP3   OH214245   2.463   4.612  10.483 -0.5665  0.4205 -0.3869
37788TIP3    H114246   2.512   4.693  10.497 -0.4161  0.4818 -1.2116
37788TIP3    H214247   2.371   4.638  10.487 -0.5536  0.3523  0.8879
37789TIP3   OH214248   3.950   7.405   6.430 -0.0607 -0.0375 -0.2611
37789TIP3    H114249   4.037   7.368   6.415 -0.2814 -0.8670  0.4269
37789TIP3    H214250   3.963   7.468   6.500 -0.1868 -0.9443  0.6009
37790TIP3   OH214251   2.139   8.458   5.592 -0.1426  0.1603 -0.8022
37790TIP3    H114252   2.147   8.510   5.513 -0.4966 -0.7023 -1.4227
37790TIP3    H214253   2.061   8.404   5.579 -1.0838  1.0672  0.7819
37791TIP3   OH214254  10.064   2.523   2.148  0.0239  0.3127 -0.3818
37791TIP3    H114255  10.040   2.575   2.225 -0.6285  0.0549 -0.4060
37791TIP3    H214256   9.983   2.480   2.122  0.3491  0.0243 -0.9326
37792TIP3   OH214257   5.971   9.121  10.665 -0.0599  0.1579 -0.5175
37792TIP3    H114258   6.035   9.060  10.629  0.5419  0.0455  0.7058
37792TIP3    H214259   5.982   9.115  10.760 -3.3416 -1.5008 -0.0865
37793TIP3   OH214260   0.012  10.737   4.473 -0.1165  0.0336 -0.6076
37793TIP3    H114261   0.034  10.786   4.394 -2.0455  0.0219 -1.2072
37793TIP3    H214262  -0.082  10.748   4.482 -0.1228 -1.0359  0.9824
37794TIP3   OH214263   2.798   6.356   0.147  0.3191  0.1374 -0.0852
37794TIP3    H114264   2.849   6.409   0.209 -1.9869  1.1926  1.0391
37794TIP3    H214265   2.768   6.419   0.081 -1.0569 -0.0403  0.3307
37795TIP3   OH214266   8.969   5.515   1.655  0.3529 -0.9208 -0.2198
37795TIP3    H114267   8.904   5.545   1.719  0.7207 -0.3082 -0.1206
37795TIP3    H214268   8.922   5.510   1.572  0.5130  0.9978 -0.4643
37796TIP3   OH214269   4.924   2.032  10.499 -0.3000  0.1340  0.3601
37796TIP3    H114270   4.987   2.025  10.570 -0.5767  0.0558  0.5981
37796TIP3    H214271   4.971   2.080  10.430 -0.6777  1.9668  1.3286
37797TIP3   OH214272   1.478   7.612   1.071 -0.5955  0.1207 -0.0350
37797TIP3    H114273   1.511   7.672   1.138  2.2450 -0.8111 -0.4570
37797TIP3    H214274   1.405   7.566   1.113 -0.7026  1.5343  1.4034
37798TIP3   OH214275   5.450   1.850   3.361  0.1991 -0.6587  0.1046
37798TIP3    H114276   5.519   1.913   3.379  0.5248 -1.1092  0.4403
37798TIP3    H214277   5.369   1.894   3.389  0.4991 -0.6554  0.9818
37799TIP3   OH214278  10.068   2.317   6.578 -0.2844  0.6430 -0.1231
37799TIP3    H114279  10.049   2.238   6.527  0.7153  0.8688 -0.8677
37799TIP3    H214280  10.039   2.296   6.666 -0.7773 -0.2619 -0.4868
37800TIP3   OH214281  10.483   7.327   6.840  0.0645  0.2642 -0.1115
37800TIP3    H114282  10.461   7.298   6.928  0.7074 -0.5892 -0.2182
37800TIP3    H214283  10.466   7.421   6.841  0.3948  0.3288  1.0239
37801TIP3   OH214284   9.431   6.904   4.514 -0.0531 -0.4624 -0.2053
37801TIP3    H114285   9.410   6.844   4.585 -0.8570  0.8891  0.7313
37801TIP3    H214286   9.350   6.953   4.499  1.0906  1.7031  0.3681
37802TIP3   OH214287   5.322   5.164   3.820  0.1029 -0.4645 -0.3615
37802TIP3    H114288   5.414   5.139   3.834  0.4053  0.7493 -0.0135
37802TIP3    H214289   5.283   5.089   3.777  0.9779 -1.4716  0.5287
37803TIP3   OH214290   4.784   9.143   2.125  0.5530  0.1046  0.3077
37803TIP3    H114291   4.816   9.074   2.066  0.8520  0.0837  0.4919
37803TIP3    H214292   4.861   9.199   2.139  0.6107 -0.1485  1.0464
37804TIP3   OH214293   0.466   3.871   5.721 -0.1745 -0.5523  0.0322
37804TIP3    H114294   0.375   3.888   5.697 -0.0074  0.8263  0.2786
37804TIP3    H214295   0.518   3.913   5.653  0.2758  0.4994  0.9927
37805TIP3   OH214296  10.848   1.039   9.038 -0.1103  0.3452 -0.5318
37805TIP3    H114297  10.810   1.127   9.029 -0.1968  0.0933 -3.4074
37805TIP3    H214298  10.864   1.010   8.949  1.3349 -2.0020  0.3880
37806TIP3   OH214299   9.483   3.184  10.192 -0.0459  0.1696 -0.4437
37806TIP3    H114300   9.513   3.252  10.131  0.2301 -0.9584 -1.6090
37806TIP3    H214301   9.508   3.102  10.150 -2.0251 -0.7312  0.0517
37807TIP3   OH214302   6.056   4.491   1.057  0.1694  0.5507 -0.4538
37807TIP3    H114303   6.099   4.444   1.129 -1.8716  0.0437  0.5088
37807TIP3    H214304   6.093   4.579   1.060 -0.5144  0.8189  1.8324
37808TIP3   OH214305   5.147   9.777  10.163  0.3012 -0.2208 -0.8648
37808TIP3    H114306   5.200   9.719  10.218 -0.6558 -2.1002 -1.8535
37808TIP3    H214307   5.188   9.773  10.077  0.1932  0.5697 -0.9645
37809TIP3   OH214308   4.560   6.801   8.065  0.0780  0.3180  0.5413
37809TIP3    H114309   4.504   6.724   8.077 -0.1900  0.3687 -0.3423
37809TIP3    H214310   4.647   6.765   8.045  0.1162  0.2516  0.8117
37810TIP3   OH214311   6.799   2.412   9.345 -0.2597 -0.2254 -0.3573
37810TIP3    H114312   6.791   2.467   9.267 -0.4017  0.0200 -0.1733
37810TIP3    H214313   6.774   2.324   9.315 -2.4489  0.2595 -0.1239
37811TIP3   OH214314   0.790   5.032   1.128 -0.0319 -0.5409 -0.4502
37811TIP3    H114315   0.705   5.047   1.169  0.8140 -1.8751  1.9517
37811TIP3    H214316   0.821   5.119   1.104 -0.2250  0.4448  2.5487
37812TIP3   OH214317   9.380   3.319   8.135  0.3898 -0.7229 -0.6304
37812TIP3    H114318   9.324   3.242   8.140  0.1099 -0.5244 -0.6448
37812TIP3    H214319   9.431   3.308   8.054  0.3801 -0.9112 -0.6097
37813TIP3   OH214320   6.046   8.809   5.272 -0.4865  0.2054 -0.1815
37813TIP3    H114321   5.983   8.809   5.201  1.1728 -0.0010 -1.7252
37813TIP3    H214322   6.003   8.760   5.342 -1.4540 -1.2960 -1.7468
37814TIP3   OH214323   3.907   4.695   0.956  0.2341 -0.2079 -0.1109
37814TIP3    H114324   3.855   4.637   1.011  1.6230 -0.2424  1.2533
37814TIP3    H214325   3.991   4.650   0.947 -0.1601 -0.5703 -2.9668
37815TIP3   OH214326   0.883   2.864   1.702  0.3588  0.1040  0.1860
37815TIP3    H114327   0.901   2.831   1.614  0.9982  0.0623  0.3269
37815TIP3    H214328   0.827   2.798   1.742 -0.6877  0.5606 -0.4985
37816TIP3   OH214329   0.738   8.253   4.962  0.0882  0.4046  0.2772
37816TIP3    H114330   0.760   8.342   4.991  1.0932 -0.0158  0.8569
37816TIP3    H214331   0.710   8.208   5.042  1.3333 -0.3048  0.3416
37817TIP3   OH214332   7.928   9.314   2.827 -0.3323 -0.2391 -0.4851
37817TIP3    H114333   7.843   9.270   2.824 -0.2174 -0.4676 -0.4632
37817TIP3    H214334   7.986   9.257   2.776 -0.1490 -0.1831 -0.3409
37818TIP3   OH214335   7.191   4.274   0.888  0.8876 -0.6408  0.6067
37818TIP3    H114336   7.146   4.358   0.877  3.1445  0.8279  1.8361
37818TIP3    H214337   7.120   4.209   0.888 -0.9405  1.2091 -0.4468
37819TIP3   OH214338   9.035   5.055   2.876  0.2590 -0.4098  0.9993
37819TIP3    H114339   8.983   5.078   2.952 -0.8079 -0.3512  0.2786
37819TIP3    H214340   9.126   5.058   2.906 -0.1548 -0.5644  2.2968
37820TIP3   OH214341   2.574   1.141  10.610 -0.1819  0.5320 -0.4426
37820TIP3    H114342   2.582   1.101  10.523 -0.4127  0.4890 -0.4440
37820TIP3    H214343   2.660   1.127  10.650 -0.6002 -1.0020 -0.0074
37821TIP3   OH214344   6.955   8.424  10.713 -0.1980  0.7014 -0.4485
37821TIP3    H114345   6.979   8.468  10.631 -0.1357  0.2244 -0.6973
37821TIP3    H214346   6.932   8.494  10.773 -0.2037  1.0617 -0.8668
37822TIP3   OH214347   0.335   6.466   0.342  0.3347  0.7722  0.6615
37822TIP3    H114348   0.377   6.390   0.302 -0.4743  0.4181  0.4511
37822TIP3    H214349   0.263   6.429   0.393 -0.4070  1.4309  0.1112
37823TIP3   OH214350   4.699   5.346  10.166  0.4485 -0.1288  0.2938
37823TIP3    H114351   4.774   5.392  10.202  2.6496 -0.8456 -2.9413
37823TIP3    H214352   4.683   5.274  10.229  2.7138 -0.1721  0.9114
37824TIP3   OH214353   0.214   0.946   7.212 -0.3930 -0.4404 -0.4754
37824TIP3    H114354   0.162   1.022   7.187 -0.7592 -0.6136 -0.2427
37824TIP3    H214355   0.156   0.895   7.269  0.3016 -0.2294  0.4490
37825TIP3   OH214356  10.476   2.119   2.838  0.2845  0.3113 -0.1041
37825TIP3    H114357  10.434   2.195   2.879 -0.7944  0.0283 -0.6576
37825TIP3    H214358  10.478   2.141   2.745  0.9501  0.1104 -0.1409
37826TIP3   OH214359   9.379   2.404   8.090 -0.2334 -0.4099  0.1755
37826TIP3    H114360   9.368   2.382   7.997 -1.7706 -1.4273  0.5622
37826TIP3    H214361   9.353   2.495   8.097 -0.1125 -0.3293 -0.3958
37827TIP3   OH214362   5.973   9.569   4.211  0.1420  0.5856 -0.3791
37827TIP3    H114363   5.896   9.626   4.202  0.0424  0.4909 -0.1398
37827TIP3    H214364   6.048   9.628   4.207 -0.0002  0.8970  1.1627
37828TIP3   OH214365   7.905   4.263   5.019 -0.0259 -0.1560 -0.8420
37828TIP3    H114366   7.959   4.327   4.973 -0.3018  0.6712 -0.0445
37828TIP3    H214367   7.852   4.223   4.951  0.2710  0.3432 -1.3752
37829TIP3   OH214368   7.418   8.687   1.123  0.0643 -0.4182 -0.2383
37829TIP3    H114369   7.457   8.638   1.196  1.2110 -1.2588 -1.3598
37829TIP3    H214370   7.420   8.626   1.049 -3.7230 -0.6117 -0.3415
37830TIP3   OH214371   5.538   1.584   4.666 -0.1054 -0.3045  0.5760
37830TIP3    H114372   5.541   1.488   4.673  0.2521 -0.2641  0.9954
37830TIP3    H214373   5.552   1.615   4.755 -1.5987  0.1162  0.6953
37831TIP3   OH214374   1.742   5.730   3.148  0.0145 -0.0680  0.3575
37831TIP3    H114375   1.657   5.687   3.157  0.5215 -0.9663  1.0277
37831TIP3    H214376   1.762   5.725   3.055 -0.9222  0.6766  0.1043
37832TIP3   OH214377   9.424  10.152   5.541 -0.4149  0.1224 -0.4057
37832TIP3    H114378   9.486  10.114   5.478 -2.0267  0.9365 -2.6122
37832TIP3    H214379   9.421  10.245   5.519 -1.1553  0.4009  0.7777
37833TIP3   OH214380   6.275   5.298   0.101 -0.2321  0.3729 -0.1838
37833TIP3    H114381   6.278   5.203   0.091  2.3232  0.4873 -1.6178
37833TIP3    H214382   6.255   5.330   0.013 -3.1196  1.1913  0.6972
37834TIP3   OH214383  10.730   7.657   5.517  0.0551 -0.6090 -0.1518
37834TIP3    H114384  10.721   7.743   5.475  1.0076 -0.5912 -0.3239
37834TIP3    H214385  10.818   7.658   5.554 -0.4767 -0.9302  1.1677
37835TIP3   OH214386   9.254   0.400   8.794  0.0903  0.0088 -0.1529
37835TIP3    H114387   9.344   0.381   8.817  0.7572  1.1556 -1.6591
37835TIP3    H214388   9.240   0.491   8.822 -0.6680 -0.2214  0.2473
37836TIP3   OH214389   5.035   1.292  10.089  0.7390 -0.0144  0.0172
37836TIP3    H114390   4.960   1.233  10.098  1.2206 -1.1789 -2.5666
37836TIP3    H214391   5.008   1.354  10.021  1.1748  1.2184  0.9466
37837TIP3   OH214392   5.436   6.864   6.337 -0.0245 -0.2656  0.3802
37837TIP3    H114393   5.515   6.902   6.299  0.2013  0.2157  1.2837
37837TIP3    H214394   5.370   6.873   6.269  0.2284  1.0527  0.2639
37838TIP3   OH214395   0.380   4.154   4.754  0.5573  0.1010 -0.1915
37838TIP3    H114396   0.345   4.103   4.680  0.5382 -0.5646  0.2764
37838TIP3    H214397   0.356   4.104   4.831 -3.3279  2.8457  0.7069
37839TIP3   OH214398   1.552   9.791   0.476  0.2013  0.2598  0.1281
37839TIP3    H114399   1.493   9.770   0.404  1.6195 -0.1169 -0.9424
37839TIP3    H214400   1.502   9.767   0.555 -0.3618 -1.8473 -0.8145
37840TIP3   OH214401   4.793   5.908   3.280  0.8094 -0.0872 -0.0645
37840TIP3    H114402   4.746   5.825   3.280 -0.9772  0.8604  0.5885
37840TIP3    H214403   4.831   5.914   3.368  0.1654  0.1744  0.2037
37841TIP3   OH214404   9.833   1.055   0.572 -0.0869  0.8394  0.2620
37841TIP3    H114405   9.870   0.988   0.629 -0.9214  0.1722  0.0292
37841TIP3    H214406   9.759   1.090   0.621  0.3352  1.5996  0.3775
37842TIP3   OH214407   6.127  10.393   4.335 -0.1059 -0.0616 -0.1741
37842TIP3    H114408   6.106  10.456   4.266 -0.7994 -1.7588 -1.5650
37842TIP3    H214409   6.046  10.387   4.387  1.1936  3.3230  2.7181
37843TIP3   OH214410   5.402   5.919   6.423  0.8270 -0.5952  0.3895
37843TIP3    H114411   5.468   5.972   6.468  0.7223  1.3553 -1.6270
37843TIP3    H214412   5.413   5.939   6.330 -1.2952 -1.7503 -0.1830
37844TIP3   OH214413   5.312  10.583   3.323 -1.3040  0.3713 -0.4620
37844TIP3    H114414   5.347  10.501   3.358 -0.0152  0.3912 -1.6468
37844TIP3    H214415   5.277  10.628   3.400  0.0320 -0.2886  0.5786
37845TIP3   OH214416   8.575   0.613   5.412 -0.2997  0.5276  0.5428
37845TIP3    H114417   8.586   0.622   5.507 -0.8972  1.3081  0.5510
37845TIP3    H214418   8.481   0.619   5.398 -0.3154 -0.7107 -0.0096
37846TIP3   OH214419   3.475   7.766  10.601 -0.0823 -0.0557 -0.0901
37846TIP3    H114420   3.406   7.701  10.617 -0.7219  0.0328 -2.1964
37846TIP3    H214421   3.554   7.726  10.636 -1.1265 -0.2728  2.1553
37847TIP3   OH214422   0.372   0.614   3.886  0.1029 -0.1697  0.0894
37847TIP3    H114423   0.310   0.639   3.818 -0.0410  1.3928  0.7600
37847TIP3    H214424   0.450   0.667   3.869  0.0203  0.3269  1.2064
37848TIP3   OH214425   6.704   2.351   0.732  0.3061  0.0230 -0.3915
37848TIP3    H114426   6.777   2.310   0.779  0.9986  0.6597 -0.8830
37848TIP3    H214427   6.627   2.328   0.782  0.7378 -1.4452 -0.3743
37849TIP3   OH214428   5.494   3.179   0.363  0.2046  0.3081 -0.3873
37849TIP3    H114429   5.430   3.115   0.331  0.3748  0.3317 -0.7795
37849TIP3    H214430   5.454   3.264   0.346 -0.7401  0.3195  1.5925
37850TIP3   OH214431   0.160   9.467   2.504 -1.1402 -0.4345 -0.6640
37850TIP3    H114432   0.150   9.487   2.411 -0.4144 -1.0739 -0.8887
37850TIP3    H214433   0.188   9.375   2.506  0.6259  0.0770  0.0896
37851TIP3   OH214434   6.508   0.722   3.419 -0.1590 -0.1909 -0.3360
37851TIP3    H114435   6.575   0.658   3.397 -0.8781 -0.8162 -0.7497
37851TIP3    H214436   6.500   0.716   3.514  0.7166  0.2580 -0.2186
37852TIP3   OH214437   2.838  10.173   9.952  0.4527 -0.6650 -0.3552
37852TIP3    H114438   2.883  10.253   9.925  0.0539 -0.6916 -1.1440
37852TIP3    H214439   2.908  10.115   9.982  0.8138 -0.2614 -0.4013
37853TIP3   OH214440   0.529   8.258   4.075 -0.3053  0.7405 -0.4676
37853TIP3    H114441   0.524   8.335   4.132 -0.6741  0.0709  0.4475
37853TIP3    H214442   0.507   8.185   4.133 -1.3693  0.0984 -1.6402
37854TIP3   OH214443   0.430   0.317   8.431  0.1934 -0.2415  0.1925
37854TIP3    H114444   0.500   0.372   8.466 -0.2732 -0.3710  1.3662
37854TIP3    H214445   0.349   0.363   8.453 -0.1150  0.0079 -1.3288
37855TIP3   OH214446   5.007   6.537   2.141  0.4491 -0.2785 -0.2116
37855TIP3    H114447   4.925   6.527   2.092  0.9943 -0.3559 -1.1319
37855TIP3    H214448   4.988   6.499   2.227 -1.1256  1.6175  0.3422
37856TIP3   OH214449  10.488   2.237   0.370  0.1180  0.2524 -0.1894
37856TIP3    H114450  10.503   2.148   0.339 -1.2748 -0.0795  0.0444
37856TIP3    H214451  10.517   2.236   0.461 -0.9590 -0.2922  0.1625
37857TIP3   OH214452   0.910  10.401   7.628  0.0571 -0.4080 -0.5579
37857TIP3    H114453   0.964  10.474   7.600  0.0646 -0.4492 -0.6494
37857TIP3    H214454   0.852  10.383   7.553 -1.4256  0.8906  0.2143
37858TIP3   OH214455   1.947   7.754   0.582  0.1019  0.4752  0.0436
37858TIP3    H114456   1.860   7.737   0.618 -1.0342  1.1933 -2.1749
37858TIP3    H214457   2.005   7.695   0.630 -1.6906 -0.4558  1.1677
37859TIP3   OH214458   4.261   6.122   2.939  0.9939  0.2070  0.2278
37859TIP3    H114459   4.247   6.208   2.979 -1.9665 -0.3068  0.4778
37859TIP3    H214460   4.325   6.079   2.996  1.5935  1.7478  0.7817
37860TIP3   OH214461   2.985   6.454   9.594 -0.0034 -0.5239  0.4168
37860TIP3    H114462   2.960   6.504   9.517  0.0418  1.1350  1.4151
37860TIP3    H214463   2.902   6.429   9.635 -0.0396 -2.0977 -0.5527
37861TIP3   OH214464   7.027   3.075  10.716  0.1041 -0.3833  0.2643
37861TIP3    H114465   6.986   3.023  10.785 -0.9671 -0.0238 -0.0921
37861TIP3    H214466   7.010   3.166  10.741 -1.2529 -0.2566 -1.0311
37862TIP3   OH214467   4.526   1.577   4.765  0.3130  0.6677  0.4129
37862TIP3    H114468   4.438   1.614   4.765  0.1896  0.3819  1.0817
37862TIP3    H214469   4.519   1.500   4.708  0.0478  0.4523  0.7359
37863TIP3   OH214470   6.298   2.421   7.159  0.6425 -0.1736  0.2055
37863TIP3    H114471   6.223   2.436   7.101  0.6247 -0.6534  0.0988
37863TIP3    H214472   6.357   2.494   7.141  0.0638  0.3899  0.5185
37864TIP3   OH214473   8.780   5.668   1.844  0.3339 -0.1657 -0.2333
37864TIP3    H114474   8.804   5.761   1.849  1.1965 -0.1775 -2.7968
37864TIP3    H214475   8.782   5.638   1.935 -0.3486  2.3989  0.7038
37865TIP3   OH214476   9.186  10.556  10.449  0.3806 -0.2029 -0.0636
37865TIP3    H114477   9.161  10.589  10.535 -0.5822 -1.1793  0.0470
37865TIP3    H214478   9.177  10.632  10.391  0.1026  0.2213  0.5282
37866TIP3   OH214479   1.285  10.488  10.091  0.0805 -0.8618 -0.2190
37866TIP3    H114480   1.346  10.436  10.142  2.3522  2.4116  0.7127
37866TIP3    H214481   1.281  10.572  10.136 -2.2127  0.3512 -2.3917
37867TIP3   OH214482   9.112   7.747   7.182 -0.5468 -0.0357  0.4103
37867TIP3    H114483   9.090   7.799   7.105 -0.8091  0.4526  0.8049
37867TIP3    H214484   9.027   7.716   7.215 -0.2877 -3.2158 -1.4649
37868TIP3   OH214485   3.402   3.725   1.246 -0.0195  0.7137 -0.0077
37868TIP3    H114486   3.462   3.696   1.177  1.4852  1.6791  0.8391
37868TIP3    H214487   3.347   3.790   1.203 -1.0766 -0.7839 -1.0117
37869TIP3   OH214488   1.218   3.085   5.850 -0.3471  0.4753  0.3435
37869TIP3    H114489   1.298   3.062   5.804 -1.2504 -0.0576 -1.0402
37869TIP3    H214490   1.244   3.153   5.912  1.4637 -0.8448  1.0879
37870TIP3   OH214491   4.951   2.389   2.198  0.4152  0.1587  0.1700
37870TIP3    H114492   4.944   2.482   2.177  0.3236  0.1370  0.1006
37870TIP3    H214493   4.880   2.373   2.260  1.0627  0.3501  0.9667
37871TIP3   OH214494   2.787   7.469   0.220  0.0219 -0.0494 -0.1900
37871TIP3    H114495   2.863   7.472   0.278  0.9452  0.8882 -1.3895
37871TIP3    H214496   2.795   7.385   0.174  0.6311  0.2649 -0.6735
37872TIP3   OH214497   0.681   8.601  10.004 -0.2741  0.2278  0.5026
37872TIP3    H114498   0.753   8.555   9.961  0.3673  1.8708 -0.2470
37872TIP3    H214499   0.635   8.533  10.053  0.2041 -1.3312 -1.1241
37873TIP3   OH214500   6.417   4.350   9.084 -0.3740  0.2503 -0.2342
37873TIP3    H114501   6.417   4.329   8.991 -1.0711  0.1684 -0.2144
37873TIP3    H214502   6.477   4.425   9.091  1.3468 -1.0499 -0.4353
37874TIP3   OH214503   3.995   0.362   8.374 -0.0796 -0.5327 -0.3273
37874TIP3    H114504   3.963   0.436   8.322  1.9020  0.9714  0.5002
37874TIP3    H214505   4.076   0.393   8.412 -0.1390 -2.5275  1.5689
37875TIP3   OH214506   5.933   3.832   2.886 -0.3059  0.4214  0.3236
37875TIP3    H114507   5.891   3.915   2.909  1.2102  1.3479 -0.1066
37875TIP3    H214508   5.973   3.848   2.801 -0.8301 -1.0977 -0.2437
37876TIP3   OH214509   8.623   8.652   8.175 -0.7903  0.0189 -0.1144
37876TIP3    H114510   8.658   8.726   8.225 -0.1216 -0.2565 -0.1623
37876TIP3    H214511   8.591   8.692   8.094 -0.3212  0.2457 -0.1923
37877TIP3   OH214512   4.581   6.319   8.774  0.3513  0.3326 -0.3585
37877TIP3    H114513   4.627   6.358   8.700  0.1478  2.1289  0.4044
37877TIP3    H214514   4.647   6.313   8.842  0.6510 -1.7348 -0.7866
37878TIP3   OH214515   8.507   9.895   5.773 -0.6137  0.1646 -0.1903
37878TIP3    H114516   8.586   9.866   5.819 -0.8263  0.2623  0.2481
37878TIP3    H214517   8.535   9.975   5.727 -0.0208 -0.7335 -1.4388
37879TIP3   OH214518   2.828   3.568   4.970  0.3940  0.1558  0.5981
37879TIP3    H114519   2.789   3.519   4.897 -0.6892  0.4256  0.9832
37879TIP3    H214520   2.921   3.573   4.948  0.0571  0.4370 -0.8979
37880TIP3   OH214521   1.732   3.856   9.916  0.4795  0.2447 -0.2503
37880TIP3    H114522   1.646   3.844   9.956  0.9373 -0.7921  0.4753
37880TIP3    H214523   1.775   3.771   9.926  1.1813  0.4124 -1.6002
37881TIP3   OH214524   0.843   9.835   6.488  0.0995 -0.5608  0.1766
37881TIP3    H114525   0.759   9.864   6.524 -0.6121 -1.4705 -0.7115
37881TIP3    H214526   0.894   9.811   6.566 -0.6052 -0.3988  0.7060
37882TIP3   OH214527   7.924   1.662   0.941  0.5146  0.5425  0.1694
37882TIP3    H114528   7.869   1.740   0.931  1.0923  1.0108  0.5688
37882TIP3    H214529   7.886   1.598   0.881  0.1216  1.1843 -0.2775
37883TIP3   OH214530  10.473   3.688   5.417  0.1917 -0.0608 -0.0203
37883TIP3    H114531  10.397   3.647   5.376 -0.6319  1.4595 -0.0869
37883TIP3    H214532  10.437   3.754   5.475  1.4528  0.1005  0.6237
37884TIP3   OH214533   6.896   3.395   5.794  0.2304  0.1827  0.0391
37884TIP3    H114534   6.959   3.395   5.866 -0.1075 -0.4367  0.3419
37884TIP3    H214535   6.928   3.463   5.735  0.5022  0.7189  0.7817
37885TIP3   OH214536   9.993   2.678   1.685  0.2112 -0.0191  0.2560
37885TIP3    H114537   9.946   2.658   1.766 -0.7351  0.1467 -0.2304
37885TIP3    H214538  10.067   2.618   1.684  0.9224  0.7861  1.8210
37886TIP3   OH214539   5.112   8.056   0.764 -0.1295 -0.2255  0.2814
37886TIP3    H114540   5.184   8.117   0.749 -0.4385  0.0853  0.0400
37886TIP3    H214541   5.098   8.015   0.679  0.8636 -1.5180  0.7096
37887TIP3   OH214542   8.353   6.788   6.702  0.2314  0.0576  0.2399
37887TIP3    H114543   8.269   6.777   6.746  0.0473 -1.1507 -0.3618
37887TIP3    H214544   8.386   6.872   6.732 -0.9460  0.2953  0.8999
37888TIP3   OH214545   9.487   9.870  10.579 -0.1542 -0.2441 -0.4262
37888TIP3    H114546   9.393   9.869  10.563  0.2191  0.8461 -3.6345
37888TIP3    H214547   9.516   9.781  10.558 -0.5316 -0.8775  1.5800
37889TIP3   OH214548   7.608   2.521   5.407 -0.0237  0.6708 -0.1172
37889TIP3    H114549   7.542   2.556   5.347  0.5259 -0.4768 -1.4266
37889TIP3    H214550   7.557   2.488   5.481 -0.7207  2.0040  0.0440
37890TIP3   OH214551   9.675   0.304   8.719  0.2951  0.5502  0.0324
37890TIP3    H114552   9.607   0.331   8.780 -0.2036 -0.8776  0.1369
37890TIP3    H214553   9.709   0.386   8.682 -2.0143  1.2673 -0.6340
37891TIP3   OH214554   4.829  10.265   5.021 -0.3102  0.1245 -0.4918
37891TIP3    H114555   4.890  10.234   5.088 -0.2528 -0.0093 -0.6038
37891TIP3    H214556   4.847  10.358   5.013  1.3892 -0.2910 -2.0489
37892TIP3   OH214557   5.825  10.339   8.978 -0.3602  0.0249  0.5619
37892TIP3    H114558   5.779  10.256   8.992  0.5330 -1.0524 -2.1722
37892TIP3    H214559   5.916  10.313   8.961 -0.1379  1.5183 -0.7125
37893TIP3   OH214560   6.232   1.037   8.366  0.7815 -0.0521 -0.0562
37893TIP3    H114561   6.231   0.949   8.330  0.8198  0.5720 -1.6684
37893TIP3    H214562   6.140   1.058   8.382  0.6481  0.0819 -0.9307
37894TIP3   OH214563   1.254   6.055  10.086 -0.0015 -0.5101 -0.3483
37894TIP3    H114564   1.286   6.130  10.137 -0.8439 -1.2345  1.3079
37894TIP3    H214565   1.188   6.093  10.028 -1.0336 -0.0704  1.0682
37895TIP3   OH214566   6.750   8.683   2.631  0.4692 -0.0486  0.0940
37895TIP3    H114567   6.843   8.704   2.645  0.8832 -2.5804  1.7571
37895TIP3    H214568   6.751   8.620   2.559  0.0077  0.0629 -0.0092
37896TIP3   OH214569   9.987   1.620   1.044  0.0717 -0.0990  0.0749
37896TIP3    H114570  10.075   1.588   1.027 -0.4441 -1.2637 -0.4747
37896TIP3    H214571   9.959   1.660   0.962  0.2474  0.6888  0.3880
37897TIP3   OH214572   1.618   8.346   0.493  0.0858 -0.1516 -0.1954
37897TIP3    H114573   1.535   8.302   0.472 -0.8578  0.7909  1.3825
37897TIP3    H214574   1.671   8.278   0.535 -0.1579 -0.5774 -0.5664
37898TIP3   OH214575   2.509  10.407   2.811  0.1462 -0.0993 -0.1321
37898TIP3    H114576   2.565  10.442   2.880  1.0875  0.2457 -1.0407
37898TIP3    H214577   2.500  10.314   2.832  0.5452 -0.0270  0.3682
37899TIP3   OH214578   2.880   2.728   4.736 -0.0478  0.0336  0.3362
37899TIP3    H114579   2.933   2.733   4.656 -1.5185  0.2186 -0.6604
37899TIP3    H214580   2.843   2.815   4.746 -0.6168 -0.2411  0.6851
37900TIP3   OH214581   6.444  10.419   4.622  0.4417  0.1009 -0.1660
37900TIP3    H114582   6.498  10.481   4.572  1.7053 -0.0799  0.9187
37900TIP3    H214583   6.493  10.337   4.620 -1.5116 -1.1275 -2.1083
37901TIP3   OH214584  10.334   4.454   3.396  0.6655  0.4614 -0.0493
37901TIP3    H114585  10.303   4.484   3.311  0.6928  0.9429  0.1085
37901TIP3    H214586  10.417   4.410   3.377  0.4024  0.0885 -0.3370
37902TIP3   OH214587   4.828  10.142   6.230  0.0569 -0.6400 -0.4201
37902TIP3    H114588   4.792  10.083   6.164 -0.4279 -0.9751  0.1365
37902TIP3    H214589   4.768  10.134   6.305 -0.0372  0.5949 -0.3531
37903TIP3   OH214590   0.689   6.732   2.623 -0.4536 -0.1685  0.0643
37903TIP3    H114591   0.711   6.816   2.663  0.8051 -0.2121 -0.4767
37903TIP3    H214592   0.594   6.733   2.615 -0.5905  0.5159  1.5355
37904TIP3   OH214593   2.431   5.151   5.548 -0.0646 -0.7847 -0.5756
37904TIP3    H114594   2.422   5.113   5.636  1.3618  1.8918  0.8715
37904TIP3    H214595   2.395   5.085   5.489 -1.8124 -2.3946  2.0727
37905TIP3   OH214596   0.935   1.100   8.831 -0.0165  0.0346 -0.3920
37905TIP3    H114597   0.968   1.184   8.797  0.3723 -0.2130 -0.6282
37905TIP3    H214598   1.008   1.040   8.820  0.0893 -0.0752  0.8127
37906TIP3   OH214599   4.827   3.505   4.739  0.2931  0.4493 -0.4657
37906TIP3    H114600   4.804   3.534   4.651 -0.7398  0.7308 -0.1218
37906TIP3    H214601   4.822   3.584   4.792 -2.1531 -0.1891  0.4057
37907TIP3   OH214602   7.926   9.482   7.902  0.1594 -0.8938  0.2185
37907TIP3    H114603   8.020   9.473   7.890  0.5385  0.0621  2.0728
37907TIP3    H214604   7.893   9.392   7.902  1.3214 -1.3434  1.2467
37908TIP3   OH214605   3.654   0.503   0.396 -0.5428 -0.2947  0.1791
37908TIP3    H114606   3.664   0.597   0.380 -0.6198 -0.1676  0.8697
37908TIP3    H214607   3.712   0.462   0.332 -0.2989  0.2312  0.0534
37909TIP3   OH214608   3.224   0.101   0.484 -0.3733  0.1783  0.2741
37909TIP3    H114609   3.131   0.095   0.463 -0.4953  0.1153  0.8219
37909TIP3    H214610   3.266   0.119   0.400 -0.7234 -1.2284 -0.2402
37910TIP3   OH214611  10.226   4.269   2.932  0.2926 -0.0436  0.1727
37910TIP3    H114612  10.156   4.222   2.978  2.1350 -2.6636  0.5360
37910TIP3    H214613  10.203   4.261   2.840 -0.6893  0.5750  0.3454
37911TIP3   OH214614   9.302   8.981  10.371 -0.1439 -0.0026  0.3380
37911TIP3    H114615   9.380   8.936  10.340 -0.0817 -0.5817  1.2719
37911TIP3    H214616   9.229   8.929  10.336 -0.2699  1.9100 -2.6434
37912TIP3   OH214617   0.570   9.516   7.231  0.1074  0.0963  0.0358
37912TIP3    H114618   0.478   9.504   7.205  0.6917 -2.2023 -1.2974
37912TIP3    H214619   0.586   9.445   7.293  1.2956 -0.2953 -0.6919
37913TIP3   OH214620   0.365   0.160   7.668  0.1505 -0.1250 -0.6512
37913TIP3    H114621   0.399   0.071   7.674 -0.4785 -0.3133  0.3425
37913TIP3    H214622   0.275   0.149   7.636  0.2667  0.2064 -1.1076
37914TIP3   OH214623   2.036   6.067  10.530 -0.2639  0.0672  0.2159
37914TIP3    H114624   2.115   6.122  10.523  1.0023 -1.5167  1.2732
37914TIP3    H214625   2.070   5.978  10.537 -2.2325 -0.8312 -0.8527
37915TIP3   OH214626  10.363   5.909   9.872 -0.3377  0.4823  0.4517
37915TIP3    H114627  10.421   5.879   9.942 -2.1633 -0.4983  1.6264
37915TIP3    H214628  10.411   5.979   9.829  1.3523  0.2699  1.8920
37916TIP3   OH214629   5.365   7.568   7.504  0.3492 -0.6812  0.5490
37916TIP3    H114630   5.459   7.568   7.486  0.5309  1.0151  1.3248
37916TIP3    H214631   5.358   7.547   7.597 -0.0793 -1.0396  0.4451
37917TIP3   OH214632   9.253   9.273  10.617 -0.1170  0.8544  0.8075
37917TIP3    H114633   9.272   9.199  10.675 -0.7498  0.8254  0.9961
37917TIP3    H214634   9.325   9.334  10.631 -0.0204  0.6377  1.2838
37918TIP3   OH214635   4.737   2.649   2.374  0.1953  0.0005  0.1688
37918TIP3    H114636   4.726   2.555   2.389 -0.2738  0.1209  0.5884
37918TIP3    H214637   4.648   2.682   2.363  0.4413 -0.0439 -2.8070
37919TIP3   OH214638   3.816   4.601   2.893  0.0488 -0.1713  0.3043
37919TIP3    H114639   3.727   4.620   2.865  0.2463  1.5226  0.6864
37919TIP3    H214640   3.867   4.597   2.813 -0.4529 -1.9068  0.0213
37920TIP3   OH214641  10.541   5.746   2.399 -0.0244  0.1317 -0.4110
37920TIP3    H114642  10.506   5.795   2.473 -0.7549  0.5359 -1.0113
37920TIP3    H214643  10.467   5.694   2.368  0.4899 -0.6383 -0.3735
37921TIP3   OH214644   5.137   5.510   5.693 -0.7515  0.2732 -0.3412
37921TIP3    H114645   5.188   5.439   5.654  1.0683  1.8549 -1.0363
37921TIP3    H214646   5.164   5.511   5.785 -1.0833 -0.1689 -0.2354
37922TIP3   OH214647  10.026   1.325   7.806 -0.2760  0.6799 -0.5072
37922TIP3    H114648  10.069   1.271   7.873  0.1355 -0.2397 -1.4855
37922TIP3    H214649   9.998   1.403   7.853 -2.1104 -0.9371  1.2870
37923TIP3   OH214650   9.942   9.523   3.346  0.1817  0.2198 -0.5434
37923TIP3    H114651   9.902   9.440   3.320  2.8098 -1.0436 -0.8860
37923TIP3    H214652  10.035   9.502   3.358  0.3693  2.2924  2.9889
37924TIP3   OH214653   0.120   9.404   1.948 -0.4067 -0.0719  0.6720
37924TIP3    H114654   0.158   9.445   2.026  0.8123  1.0972 -0.4728
37924TIP3    H214655   0.072   9.475   1.906 -2.1388 -1.0123  0.9732
37925TIP3   OH214656   7.964  10.084   8.548 -0.2173  0.0281 -0.2436
37925TIP3    H114657   7.990  10.065   8.638  0.0541 -0.3897 -0.4129
37925TIP3    H214658   7.876  10.046   8.540 -0.2082 -0.0057 -0.1850
37926TIP3   OH214659   4.841   6.217   0.444  0.0646 -0.0124 -0.2776
37926TIP3    H114660   4.776   6.245   0.508 -0.3657  0.8316 -1.0584
37926TIP3    H214661   4.900   6.160   0.493  0.2108  1.2427  1.0799
37927TIP3   OH214662   3.642   1.007   4.358 -0.5592  0.1017  1.0258
37927TIP3    H114663   3.698   1.021   4.282 -3.2504 -1.3072 -1.4034
37927TIP3    H214664   3.628   1.095   4.394  1.7949  0.6484  0.7216
37928TIP3   OH214665   0.338  10.335  10.288  0.7266 -0.4490  0.1278
37928TIP3    H114666   0.304  10.249  10.310 -0.1258  0.1751  1.3254
37928TIP3    H214667   0.268  10.378  10.238  0.6911 -0.0426  0.5177
37929TIP3   OH214668   0.523   3.338   3.111  0.0869 -0.1276 -0.6111
37929TIP3    H114669   0.613   3.315   3.088  0.6979  1.1479  0.4000
37929TIP3    H214670   0.475   3.335   3.028  1.5487  1.3069 -1.5474
37930TIP3   OH214671   1.566   2.665   8.120 -0.2184  0.1802  0.4280
37930TIP3    H114672   1.475   2.657   8.148 -0.5915  0.0813 -0.7512
37930TIP3    H214673   1.604   2.579   8.138 -0.0721  0.5260  1.8542
37931TIP3   OH214674   3.057   9.196   5.356 -0.1655 -1.0625  0.3610
37931TIP3    H114675   3.081   9.204   5.264 -0.2750 -0.8226  0.3524
37931TIP3    H214676   3.015   9.279   5.377  2.6416  0.2287  1.4421
37932TIP3   OH214677   8.503   6.339   1.527 -0.2595 -0.5800 -0.6215
37932TIP3    H114678   8.492   6.432   1.511  1.3547 -0.3782 -0.6586
37932TIP3    H214679   8.528   6.333   1.619  1.9301 -0.7448 -1.1809
37933TIP3   OH214680   4.545   8.801   7.345  0.0382  0.5155 -0.2954
37933TIP3    H114681   4.456   8.834   7.342  0.0248  0.8038  1.9090
37933TIP3    H214682   4.594   8.858   7.286 -1.4246 -0.5265 -2.6957
37934TIP3   OH214683   4.945   3.073   7.266 -0.2731  0.5992 -0.3641
37934TIP3    H114684   4.857   3.095   7.295 -1.1349  0.4351 -2.6091
37934TIP3    H214685   4.959   2.984   7.296 -0.7623  0.7153  0.2266
37935TIP3   OH214686   9.956   9.181  10.850  0.2015 -0.7145 -0.4714
37935TIP3    H114687   9.926   9.141  10.769 -0.0222 -2.1197  0.2732
37935TIP3    H214688   9.933   9.273  10.842 -3.5676 -1.4792 -0.3596
37936TIP3   OH214689   1.201  10.463   8.489  0.3183 -0.0639  0.0996
37936TIP3    H114690   1.231  10.384   8.534 -0.7843 -0.7777 -0.3769
37936TIP3    H214691   1.274  10.488   8.432  1.2148  0.0828  1.2776
37937TIP3   OH214692   2.538   3.594  10.343  0.6292  0.3661 -1.0926
37937TIP3    H114693   2.473   3.610  10.412  0.9576  1.3317 -0.9888
37937TIP3    H214694   2.622   3.610  10.385  0.7943  2.0356 -1.9547
37938TIP3   OH214695   1.382   0.505   1.803  0.2473  0.5375  0.0760
37938TIP3    H114696   1.411   0.527   1.892  0.7948  0.3066 -0.0390
37938TIP3    H214697   1.318   0.435   1.815  1.6523 -0.7821  0.2038
37939TIP3   OH214698   6.082   3.174   9.175  0.4109 -0.1253  0.1935
37939TIP3    H114699   6.091   3.081   9.199 -1.9163  0.2050  3.0528
37939TIP3    H214700   6.004   3.176   9.118  0.9110  0.0115 -0.4924
37940TIP3   OH214701   3.148   6.902   6.392 -0.2596 -0.3239  0.2732
37940TIP3    H114702   3.117   6.822   6.433 -0.8221 -0.9768 -1.3420
37940TIP3    H214703   3.223   6.875   6.339  0.4620  0.4941  0.8456
37941TIP3   OH214704   0.359   8.608   1.243 -0.0890 -0.0599  0.2355
37941TIP3    H114705   0.381   8.518   1.268 -0.4227 -0.3173 -0.3659
37941TIP3    H214706   0.429   8.661   1.281  1.3887 -0.8110 -1.2985
37942TIP3   OH214707   9.927   2.260   9.889 -0.2314 -0.2758 -0.4588
37942TIP3    H114708   9.866   2.261   9.815  0.3497 -0.1301 -0.9470
37942TIP3    H214709   9.912   2.176   9.932  0.7293 -1.2162 -1.8699
37943TIP3   OH214710   3.313   2.375   1.529 -0.0483  0.2271  0.1210
37943TIP3    H114711   3.306   2.368   1.624  1.3358 -2.4725  0.0981
37943TIP3    H214712   3.301   2.469   1.511  0.0897  0.8690  2.9647
37944TIP3   OH214713   6.021   4.442   9.287  0.2952 -0.2884 -0.5306
37944TIP3    H114714   6.103   4.396   9.305  1.3268  1.6386  0.0095
37944TIP3    H214715   5.960   4.374   9.258  1.6451 -1.9952  0.4761
37945TIP3   OH214716   1.571   8.371   5.424 -0.3101 -0.6469 -0.1901
37945TIP3    H114717   1.564   8.300   5.488  0.6523  0.1523  0.8468
37945TIP3    H214718   1.574   8.326   5.340 -4.4532 -1.6532 -0.0366
37946TIP3   OH214719   4.004   6.049   9.283  0.1312  0.2205  0.3083
37946TIP3    H114720   3.995   6.003   9.366  1.7693  1.6160  1.3245
37946TIP3    H214721   3.927   6.105   9.278 -0.2122 -0.2124  0.6391
37947TIP3   OH214722   5.730   6.510   9.880 -0.8146  0.1411  0.0397
37947TIP3    H114723   5.654   6.451   9.883 -2.7232  2.2732 -1.8886
37947TIP3    H214724   5.792   6.466   9.821 -2.9396  0.6414 -2.8068
37948TIP3   OH214725   4.925   2.610   0.828  0.0108  0.3923 -0.2665
37948TIP3    H114726   4.880   2.550   0.769 -0.2207  0.1776  0.1199
37948TIP3    H214727   4.924   2.565   0.913 -0.9005  1.2879  0.2233
37949TIP3   OH214728   0.130   7.846   3.675  0.2278 -0.4475  0.2129
37949TIP3    H114729   0.110   7.871   3.585 -1.6647 -1.1481  0.3810
37949TIP3    H214730   0.193   7.774   3.666 -0.2520 -0.7908 -0.5875
37950TIP3   OH214731   7.658   4.164   8.787  0.1859 -0.1362  0.5246
37950TIP3    H114732   7.563   4.159   8.775  0.1270  0.9557  0.3971
37950TIP3    H214733   7.680   4.254   8.762  1.1987 -0.2579  0.9381
37951TIP3   OH214734   9.567   4.598   9.753  0.4516 -0.4617 -0.4839
37951TIP3    H114735   9.620   4.607   9.674 -0.1789 -0.6014 -0.9363
37951TIP3    H214736   9.562   4.686   9.789  1.4554 -0.5448 -0.1201
37952TIP3   OH214737   5.497   4.099   5.151  0.1593 -0.2079 -0.1946
37952TIP3    H114738   5.591   4.096   5.165  0.3282 -1.2953 -1.3735
37952TIP3    H214739   5.487   4.109   5.056 -0.9027 -0.6263 -0.1440
37953TIP3   OH214740   1.615   2.160   0.581  0.0417 -0.7847  0.0867
37953TIP3    H114741   1.532   2.142   0.623  0.1383 -0.2796  0.5003
37953TIP3    H214742   1.593   2.211   0.503  0.0385  0.2676  0.7607
37954TIP3   OH214743   3.367   1.996   6.362  0.5576 -0.3697  0.1341
37954TIP3    H114744   3.432   1.993   6.291  0.8509  2.1809  0.1701
37954TIP3    H214745   3.309   2.069   6.337 -2.1222 -2.2918  0.2966
37955TIP3   OH214746   7.232   2.596   4.543 -0.4896  0.3614  0.2310
37955TIP3    H114747   7.154   2.572   4.593  0.6055  2.0819  3.0264
37955TIP3    H214748   7.221   2.690   4.525  0.6476  0.4883  0.1316
37956TIP3   OH214749   7.997   6.226   1.094  0.3485 -0.2143 -0.0122
37956TIP3    H114750   8.062   6.159   1.073 -0.8696 -1.3583 -0.2640
37956TIP3    H214751   7.920   6.203   1.041 -0.4725  0.7443  0.7086
37957TIP3   OH214752   2.736   3.858   0.605  0.6232 -0.0275 -0.0418
37957TIP3    H114753   2.642   3.838   0.606  0.0680  2.3201  1.2353
37957TIP3    H214754   2.741   3.952   0.620  3.2372 -0.2915  1.3591
37958TIP3   OH214755   7.482   9.891   2.696 -0.3600 -0.2885  0.3135
37958TIP3    H114756   7.510   9.828   2.763  0.9429 -0.0062  0.0461
37958TIP3    H214757   7.526   9.972   2.719  0.5786 -0.3409 -1.2129
37959TIP3   OH214758   1.362   1.784   3.709 -0.2778 -0.2910  0.0002
37959TIP3    H114759   1.271   1.761   3.728  0.5155 -3.1350  0.8470
37959TIP3    H214760   1.404   1.789   3.795  1.0917 -2.6750 -0.4471
37960TIP3   OH214761   1.780   9.474   4.540 -0.1209  0.2237  0.1979
37960TIP3    H114762   1.722   9.441   4.472  0.3783  1.0384 -0.6468
37960TIP3    H214763   1.868   9.470   4.501  0.1196  1.1055  0.6306
37961TIP3   OH214764   1.768   4.622   3.246 -0.3771 -0.1973 -0.0851
37961TIP3    H114765   1.773   4.537   3.290 -2.1895  0.3812  1.3589
37961TIP3    H214766   1.675   4.643   3.245 -0.0898  1.2312 -1.5396
37962TIP3   OH214767   2.406  10.094   7.593 -0.1355  0.0663  0.0818
37962TIP3    H114768   2.334  10.083   7.531  0.5022  1.1666 -0.9098
37962TIP3    H214769   2.448  10.008   7.597 -0.8094 -0.2798 -0.2268
37963TIP3   OH214770   7.419   4.748   0.061 -0.4388  0.5532 -0.0642
37963TIP3    H114771   7.431   4.770  -0.031 -0.1206  0.4240 -0.0544
37963TIP3    H214772   7.507   4.753   0.099 -0.4737  0.0270  0.1036
37964TIP3   OH214773   1.535   1.313   2.660 -0.0514 -0.2317 -0.6696
37964TIP3    H114774   1.489   1.330   2.742 -0.6116  1.8783 -1.3506
37964TIP3    H214775   1.466   1.287   2.599  0.4987 -2.8557 -0.2658
37965TIP3   OH214776   2.068   5.065   7.691  0.1515 -0.1743 -0.0156
37965TIP3    H114777   2.005   5.082   7.761 -1.4763 -2.8384 -0.7196
37965TIP3    H214778   2.015   5.053   7.612  1.4302 -2.7904 -0.5941
37966TIP3   OH214779   0.492   0.138   0.495 -0.6323 -0.2612  0.9327
37966TIP3    H114780   0.584   0.154   0.474 -0.1398 -2.3716  1.2077
37966TIP3    H214781   0.461   0.219   0.534  0.1002  1.7507 -2.2624
37967TIP3   OH214782   3.525   4.977   6.467 -0.4618 -0.1639  0.0462
37967TIP3    H114783   3.456   4.929   6.512  1.8024 -0.7912  3.2028
37967TIP3    H214784   3.596   4.913   6.457  0.9862  1.3219  0.2905
37968TIP3   OH214785   3.928   8.311   4.709 -0.1708 -0.0295 -0.2589
37968TIP3    H114786   3.942   8.360   4.628 -1.9745  2.8780  1.0487
37968TIP3    H214787   4.009   8.323   4.759  1.0236 -1.9868 -1.5878
37969TIP3   OH214788   6.524   2.846   5.806 -0.3699  0.0739 -0.0627
37969TIP3    H114789   6.513   2.753   5.788  0.0749 -0.2980  1.3959
37969TIP3    H214790   6.605   2.870   5.761 -1.0370  0.0178 -1.3022
37970TIP3   OH214791   0.845   8.213   5.718 -0.3254 -0.6238 -0.1535
37970TIP3    H114792   0.875   8.135   5.764  0.5782  0.5245  1.2885
37970TIP3    H214793   0.754   8.195   5.697 -0.6267 -1.4006  1.6681
37971TIP3   OH214794   1.255   9.148   7.253 -0.5786 -0.3542 -0.0395
37971TIP3    H114795   1.249   9.240   7.278  1.9796 -0.6386  2.1683
37971TIP3    H214796   1.216   9.101   7.327 -0.5160 -1.0752 -0.4640
37972TIP3   OH214797   2.760   2.627   9.402 -0.2675 -0.1004  0.1782
37972TIP3    H114798   2.700   2.587   9.465  0.4916  0.5915  1.3714
37972TIP3    H214799   2.774   2.559   9.336 -2.3104 -0.2943 -0.1260
37973TIP3   OH214800  10.495  10.413   5.972  0.7284  0.2885 -0.0702
37973TIP3    H114801  10.513  10.349   5.903  0.7491  1.8586 -1.5791
37973TIP3    H214802  10.581  10.447   5.995  0.8069 -0.7893  1.3435
37974TIP3   OH214803   8.016   0.586   5.870  0.1774 -0.1610 -0.2301
37974TIP3    H114804   8.087   0.620   5.817 -0.3614 -0.4348 -1.1555
37974TIP3    H214805   8.056   0.519   5.925  0.4194 -1.2253 -1.6537
37975TIP3   OH214806   9.513   4.957   3.743  0.1768  0.2339  0.3155
37975TIP3    H114807   9.549   5.044   3.761 -0.3199  1.1719 -2.6836
37975TIP3    H214808   9.585   4.911   3.700 -0.1408 -0.2223  0.2728
37976TIP3   OH214809   7.680   1.913   6.807  0.1347  0.0930 -0.0134
37976TIP3    H114810   7.695   1.998   6.765  0.7363  0.5208  1.0436
37976TIP3    H214811   7.685   1.850   6.735  0.0668  0.9049 -0.7501
37977TIP3   OH214812   9.669   4.904   5.022 -0.4702 -0.1877 -0.4516
37977TIP3    H114813   9.580   4.913   5.055 -0.1367  0.4965  0.2925
37977TIP3    H214814   9.718   4.861   5.092 -0.2308 -0.6632 -0.8971
37978TIP3   OH214815   3.759  10.516   8.181  0.5169  0.0429 -0.3783
37978TIP3    H114816   3.824  10.584   8.197  0.4489 -0.2627  1.4455
37978TIP3    H214817   3.692  10.558   8.126 -0.5044  2.1278  2.2297
37979TIP3   OH214818   1.310   1.351   1.482  0.0425  0.3121 -0.4835
37979TIP3    H114819   1.340   1.382   1.396  2.2229 -1.0551 -0.3029
37979TIP3    H214820   1.312   1.428   1.538 -1.4158  1.2290 -1.6081
37980TIP3   OH214821   4.141   3.523   3.652  0.2133  0.4393 -0.0617
37980TIP3    H114822   4.093   3.511   3.733 -0.4173  1.0868 -0.3224
37980TIP3    H214823   4.175   3.436   3.630  1.6619  0.5218  1.6505
37981TIP3   OH214824   2.378   6.913   6.390  0.3913 -0.1884  0.4602
37981TIP3    H114825   2.336   6.999   6.394  0.4387 -0.1005 -0.7154
37981TIP3    H214826   2.472   6.932   6.383  0.3749 -0.3238 -0.1690
37982TIP3   OH214827   6.382   1.514   3.816  0.3521 -0.0386 -0.4042
37982TIP3    H114828   6.468   1.547   3.792  1.0592 -2.7069 -2.0446
37982TIP3    H214829   6.322   1.557   3.755  1.0045 -0.5011 -1.3980
37983TIP3   OH214830   7.902   4.932   2.738 -0.5928 -0.2775  0.3831
37983TIP3    H114831   7.962   5.001   2.768 -0.6106 -0.6947  1.4251
37983TIP3    H214832   7.836   4.925   2.807  1.7340 -4.2335  2.6323
37984TIP3   OH214833   2.738   9.027   5.041 -0.0775 -0.4264 -0.0304
37984TIP3    H114834   2.718   8.938   5.010  1.1592 -0.5931 -0.4293
37984TIP3    H214835   2.670   9.046   5.106 -1.4516 -0.9389 -1.2566
37985TIP3   OH214836   3.179  10.457   5.408 -0.6409 -0.5239 -0.3605
37985TIP3    H114837   3.154  10.500   5.326  0.6909 -0.2913 -0.6824
37985TIP3    H214838   3.167  10.524   5.475  3.2941  1.2294 -1.1017
37986TIP3   OH214839   2.653   8.743   6.046 -0.2171 -0.0409  0.5354
37986TIP3    H114840   2.583   8.806   6.029  2.5132  2.7506 -1.4690
37986TIP3    H214841   2.673   8.752   6.139 -0.9875  0.8060  0.6251
37987TIP3   OH214842   3.941   8.117   7.251  0.0631  0.0023 -0.1012
37987TIP3    H114843   3.880   8.178   7.210  0.0262  0.6162  0.8423
37987TIP3    H214844   3.954   8.151   7.339  2.1324  0.1532 -0.4054
37988TIP3   OH214845   8.915   6.140   2.806  0.2737  0.1447  0.0708
37988TIP3    H114846   8.829   6.147   2.846  0.5820  1.6984  0.5426
37988TIP3    H214847   8.976   6.153   2.879  0.8596  1.9188 -0.6947
37989TIP3   OH214848   4.052   9.166   7.429  0.6587  0.2183  0.0554
37989TIP3    H114849   4.009   9.250   7.446  1.1184  0.2516  1.0942
37989TIP3    H214850   3.980   9.102   7.428  0.6013  0.1314  2.7258
37990TIP3   OH214851   7.771   7.783   4.731 -0.0954  0.3538 -0.1942
37990TIP3    H114852   7.731   7.729   4.799  0.1765 -0.5977 -0.7608
37990TIP3    H214853   7.706   7.784   4.660  0.3308 -0.1200 -0.6023
37991TIP3   OH214854   5.424   0.628   2.995  0.2410  0.1822 -0.0904
37991TIP3    H114855   5.457   0.707   2.951 -2.3039  1.2577 -0.2468
37991TIP3    H214856   5.440   0.557   2.932 -0.5673  1.1799 -1.4864
37992TIP3   OH214857   4.126   3.295   4.583  0.0881  0.4854  0.2804
37992TIP3    H114858   4.050   3.239   4.597  1.0217 -1.2888 -1.2489
37992TIP3    H214859   4.095   3.384   4.602 -2.1394 -0.2622  0.3843
37993TIP3   OH214860   0.250   3.165   2.684  0.0705 -0.1428 -0.3432
37993TIP3    H114861   0.193   3.102   2.640  1.1763 -0.6672 -1.0684
37993TIP3    H214862   0.333   3.159   2.638  0.2256  1.8656 -0.4409
37994TIP3   OH214863   9.872  10.890   3.958  0.2583 -0.1996 -0.5042
37994TIP3    H114864   9.887  10.814   3.901  0.1547 -2.1455  1.8727
37994TIP3    H214865   9.952  10.941   3.952  0.7104 -0.9824 -1.4729
37995TIP3   OH214866   6.231   1.749   7.686 -0.3963 -0.0434 -0.1912
37995TIP3    H114867   6.254   1.817   7.750  0.1091 -0.9425  0.5983
37995TIP3    H214868   6.296   1.758   7.617 -1.6151  1.6941 -1.2200
37996TIP3   OH214869   7.004   1.217   7.776  0.2725  0.2078 -0.1836
37996TIP3    H114870   7.027   1.154   7.708 -0.2113 -0.2652  0.0810
37996TIP3    H214871   7.010   1.168   7.858  1.1301  0.8501  0.1532
37997TIP3   OH214872   3.775   3.693   0.615  0.1842  0.0001 -0.4590
37997TIP3    H114873   3.768   3.768   0.674  0.1781  0.6840 -1.3122
37997TIP3    H214874   3.761   3.617   0.672 -0.2465  0.6587  0.3445
37998TIP3   OH214875   0.633   0.512   2.778 -0.6720 -0.4079  0.1426
37998TIP3    H114876   0.612   0.591   2.827  1.1972  0.1367  0.1513
37998TIP3    H214877   0.650   0.446   2.845  1.1427  0.1377  0.2753
37999TIP3   OH214878   6.832   1.764   3.209  0.6049  0.3717  0.5040
37999TIP3    H114879   6.772   1.781   3.137  1.2877 -1.2454 -0.4981
37999TIP3    H214880   6.786   1.796   3.287 -0.8056  0.7215 -0.4411
38000TIP3   OH214881   1.573   1.592   6.790  0.0882 -0.0938 -0.0569
38000TIP3    H114882   1.634   1.631   6.727 -0.7219 -2.3644 -2.4118
38000TIP3    H214883   1.499   1.563   6.737 -0.1219 -3.2086  1.7122
38001TIP3   OH214884   8.572   4.920   9.664 -0.7386 -0.0312 -0.1526
38001TIP3    H114885   8.521   4.873   9.598 -0.9863  0.6792 -0.4763
38001TIP3    H214886   8.618   4.851   9.712 -2.9467 -0.8055  0.9748
38002TIP3   OH214887   6.314   5.473   6.776  0.2080  0.0347 -0.4898
38002TIP3    H114888   6.324   5.453   6.683 -0.3910  1.8638 -0.9805
38002TIP3    H214889   6.224   5.447   6.796 -0.3768  1.5237 -0.9873
38003TIP3   OH214890   9.272   2.358   7.167  0.5677 -0.4631 -0.4324
38003TIP3    H114891   9.316   2.325   7.089  1.8076 -0.7534  0.3618
38003TIP3    H214892   9.190   2.309   7.171  0.1794  0.0060 -1.8778
38004TIP3   OH214893   5.973   3.282   6.028  0.0379  0.0464  0.0834
38004TIP3    H114894   5.903   3.298   5.965  0.2437 -0.6277 -0.3269
38004TIP3    H214895   6.043   3.243   5.976  0.1443 -0.6829  0.7593
38005TIP3   OH214896   2.487   9.554   7.454 -0.7954 -0.0947 -0.4379
38005TIP3    H114897   2.545   9.618   7.496 -2.7037  0.5478  1.3589
38005TIP3    H214898   2.443   9.603   7.385 -0.8649  0.0235 -0.3096
38006TIP3   OH214899   8.389   4.498   0.155 -0.2171 -0.1334 -0.3320
38006TIP3    H114900   8.362   4.590   0.153  1.8955  0.5576 -1.8388
38006TIP3    H214901   8.479   4.500   0.186 -0.6980 -1.9355  1.3742
38007TIP3   OH214902   3.817   1.103   3.732 -0.0176  0.4656  0.2397
38007TIP3    H114903   3.810   1.176   3.795  0.8846  0.2392  0.6186
38007TIP3    H214904   3.752   1.040   3.762 -1.2730  1.3659 -0.4702
38008TIP3   OH214905   1.123   0.129   3.566 -0.3113 -0.2531 -0.0146
38008TIP3    H114906   1.050   0.168   3.615  0.0584  0.5952 -0.1196
38008TIP3    H214907   1.111   0.034   3.576 -1.8166 -0.1436 -0.6136
38009TIP3   OH214908   1.431   4.405   7.893 -0.0959 -0.2881 -0.2751
38009TIP3    H114909   1.420   4.497   7.868  1.6830  0.0609  0.0774
38009TIP3    H214910   1.342   4.369   7.895 -0.7461  1.1801 -1.3212
38010TIP3   OH214911   0.643   2.723   9.498 -0.3476 -0.3499  0.0692
38010TIP3    H114912   0.685   2.723   9.413  0.8004 -0.0861  0.6143
38010TIP3    H214913   0.701   2.671   9.554 -1.0792 -0.5245  0.6935
38011TIP3   OH214914  10.770   5.668   8.510  0.2883 -0.1370  0.2272
38011TIP3    H114915  10.701   5.713   8.558  0.5644  0.6589 -0.0962
38011TIP3    H214916  10.724   5.624   8.438  0.0708  0.0709  0.2364
38012TIP3   OH214917   2.228   5.122   0.054 -0.6393 -0.1148 -0.0992
38012TIP3    H114918   2.276   5.203   0.036 -0.9122  0.4202  1.3942
38012TIP3    H214919   2.268   5.057  -0.003  1.0579  0.5926  0.2163
38013TIP3   OH214920   0.014   3.261   8.967 -0.0880  0.2030  0.0864
38013TIP3    H114921  -0.022   3.176   8.940 -1.3172  0.8010 -0.2319
38013TIP3    H214922   0.055   3.244   9.052 -0.1233 -0.7490 -0.0749
38014TIP3   OH214923   1.778   5.661   9.379 -0.1267  0.0664  0.0280
38014TIP3    H114924   1.729   5.583   9.405 -0.6530  0.7449  1.2003
38014TIP3    H214925   1.865   5.649   9.417 -0.5301  0.5055  1.1351
38015TIP3   OH214926   5.248   1.841   7.813 -0.0708  0.4344 -0.2267
38015TIP3    H114927   5.211   1.764   7.856  1.3306 -1.2738 -1.9437
38015TIP3    H214928   5.333   1.853   7.854 -0.3041  1.1221  0.0694
38016TIP3   OH214929   6.626   1.490   3.528 -0.0877  0.1506  0.4898
38016TIP3    H114930   6.653   1.409   3.484  0.2013 -0.0357  1.0011
38016TIP3    H214931   6.589   1.544   3.458  0.9993  0.1436 -0.1122
38017TIP3   OH214932   3.152   3.707   1.902 -0.0357  0.4265  0.7065
38017TIP3    H114933   3.068   3.728   1.942 -0.4381  0.4918 -0.1416
38017TIP3    H214934   3.170   3.617   1.929 -2.1749 -0.9452 -1.9776
38018TIP3   OH214935   5.532   3.806   6.136 -0.7063  0.1584 -0.5389
38018TIP3    H114936   5.472   3.859   6.084 -0.4269 -0.7375 -1.8289
38018TIP3    H214937   5.617   3.816   6.093 -0.0816  0.7679  0.7870
38019TIP3   OH214938   4.799   4.834   0.260 -0.2274  0.7443 -0.1012
38019TIP3    H114939   4.814   4.926   0.282 -2.3981  1.1821 -0.2209
38019TIP3    H214940   4.782   4.835   0.165  0.6141  0.0740 -0.2707
38020TIP3   OH214941   5.531  10.017   9.736 -0.0513  0.1637 -0.5405
38020TIP3    H114942   5.542  10.053   9.648 -0.2629 -1.7039 -1.3724
38020TIP3    H214943   5.478  10.082   9.782  2.2432  2.4692 -0.9153
38021TIP3   OH214944   9.218   7.848   3.639 -0.2018  0.1177  0.0737
38021TIP3    H114945   9.230   7.905   3.563 -0.6436 -0.4371 -0.4229
38021TIP3    H214946   9.262   7.766   3.614 -0.8772 -0.2766  0.1707
38022TIP3   OH214947   0.094   9.613   5.392 -0.3845 -0.3272  0.3261
38022TIP3    H114948   0.158   9.619   5.321 -0.5585 -1.9425  0.0175
38022TIP3    H214949   0.069   9.705   5.408  3.8077  0.6977  2.1707
38023TIP3   OH214950   1.258   5.955   0.206 -0.4296 -0.1743  0.1163
38023TIP3    H114951   1.196   5.985   0.272  1.2989  1.1108  1.2407
38023TIP3    H214952   1.303   5.881   0.247 -0.9051 -0.8444 -0.5374
38024TIP3   OH214953   9.173   6.180   5.406 -0.3658 -0.3226 -0.1578
38024TIP3    H114954   9.266   6.182   5.381 -0.2518 -0.1849  0.2746
38024TIP3    H214955   9.130   6.233   5.338 -0.1435 -0.4667 -0.4174
38025TIP3   OH214956   6.136   3.859   2.166 -0.1885 -0.0964 -0.2677
38025TIP3    H114957   6.184   3.794   2.217 -1.5536  0.3541  1.7145
38025TIP3    H214958   6.146   3.940   2.216 -0.5965  0.6635 -1.3698
38026TIP3   OH214959   0.949   2.679   0.471 -0.2802  0.6009 -0.0316
38026TIP3    H114960   0.901   2.747   0.517 -1.2921  1.8244 -2.7131
38026TIP3    H214961   0.981   2.721   0.392 -0.4723 -1.8947 -1.5350
38027TIP3   OH214962   8.172   4.260   1.780 -0.1695 -0.2364 -0.4571
38027TIP3    H114963   8.114   4.184   1.783 -1.3810  0.6921  1.7360
38027TIP3    H214964   8.151   4.303   1.697 -1.3541 -0.8855 -0.5185
38028TIP3   OH214965   2.227   3.510   8.793 -0.1530 -0.1360  0.1513
38028TIP3    H114966   2.310   3.556   8.799  0.5031 -1.4316  1.6995
38028TIP3    H214967   2.161   3.579   8.802  0.7825  0.6523  1.3351
38029TIP3   OH214968   5.238   7.373   0.728 -0.0380 -0.0897 -0.4399
38029TIP3    H114969   5.283   7.387   0.812 -1.4180 -0.7881  0.4488
38029TIP3    H214970   5.304   7.396   0.662  1.0970  0.4456  0.8197
38030TIP3   OH214971   0.110   0.325   2.608  0.4618  0.4932  0.0930
38030TIP3    H114972   0.200   0.349   2.630  0.7988  0.1749 -0.8679
38030TIP3    H214973   0.107   0.230   2.613  0.9751  0.2566 -2.5330
38031TIP3   OH214974   2.651   3.274   8.329 -0.4319  0.0696  0.4216
38031TIP3    H114975   2.662   3.345   8.392 -0.8166 -1.5870  2.4589
38031TIP3    H214976   2.590   3.213   8.371 -0.3339 -1.3488 -1.3616
38032TIP3   OH214977   2.772   1.699   3.537  0.7269  0.1411 -0.7096
38032TIP3    H114978   2.788   1.653   3.455 -0.1636  0.3910 -1.0338
38032TIP3    H214979   2.707   1.645   3.583  0.8670  0.2483 -0.3822
38033TIP3   OH214980   2.440   4.159  10.866 -0.3038  0.2171 -0.0405
38033TIP3    H114981   2.504   4.185  10.933  1.0836  0.7613 -1.5011
38033TIP3    H214982   2.435   4.063  10.874 -0.5470  0.3162  1.1490
38034TIP3   OH214983   7.748   0.022   7.367  0.9706  0.1783 -0.5251
38034TIP3    H114984   7.713  -0.016   7.287  0.0166 -1.4183  0.5798
38034TIP3    H214985   7.779  -0.054   7.418 -0.6427  0.8592  1.6078
38035TIP3   OH214986   2.887   4.467   1.202 -0.5946  0.3956 -0.1594
38035TIP3    H114987   2.815   4.457   1.264 -1.1936  0.4075 -0.8341
38035TIP3    H214988   2.950   4.399   1.226 -1.3817 -0.3969 -0.2955
38036TIP3   OH214989   4.221   8.824   2.859 -0.1931  0.5752  0.2228
38036TIP3    H114990   4.162   8.786   2.925 -1.5725  1.8852 -0.1965
38036TIP3    H214991   4.203   8.918   2.863 -0.1605  0.7019 -1.8950
38037TIP3   OH214992   7.881   1.636   6.498 -0.3216  0.1507  0.1445
38037TIP3    H114993   7.933   1.715   6.515 -1.1820  0.7310  0.1493
38037TIP3    H214994   7.803   1.646   6.553 -0.5739 -0.5647 -0.0693
38038TIP3   OH214995   4.849  10.879   8.648 -0.3567 -0.3836  0.1806
38038TIP3    H114996   4.885  10.875   8.736 -1.5440 -0.9870  0.6522
38038TIP3    H214997   4.840  10.787   8.621 -1.2920 -0.2439 -0.0171
38039TIP3   OH214998   3.229   9.360   7.259 -0.8107  0.3693 -0.0254
38039TIP3    H114999   3.242   9.366   7.164 -0.2654 -0.5058 -0.0122
38039TIP3    H215000   3.145   9.314   7.268  0.2930 -1.7269 -0.0926
38040TIP3   OH215001   4.456   6.723   1.831  0.4869 -0.2782 -0.5280
38040TIP3    H115002   4.487   6.636   1.808  1.8079 -0.0242  0.1912
38040TIP3    H215003   4.371   6.708   1.873  1.4552 -1.3896  1.1202
38041TIP3   OH215004   2.326   0.990   5.483  0.6370  0.6855 -0.1163
38041TIP3    H115005   2.264   0.969   5.413 -0.1720 -0.9507  1.0277
38041TIP3    H215006   2.402   0.935   5.467  0.1553 -0.2297  0.6637
38042TIP3   OH215007   1.485   7.683   8.098  0.0866 -0.7277 -0.5750
38042TIP3    H115008   1.421   7.710   8.163 -1.5606 -3.3522 -0.9517
38042TIP3    H215009   1.464   7.735   8.020 -1.7236 -1.6308 -0.7291
38043TIP3   OH215010   9.312  10.412   7.987 -0.1380  0.0649 -0.3874
38043TIP3    H115011   9.249  10.462   8.040 -1.4277 -1.3411 -0.5422
38043TIP3    H215012   9.391  10.466   7.987 -1.3330  1.9078 -0.1943
38044TIP3   OH215013   7.149   9.541   4.349  0.1802 -0.1501 -0.0157
38044TIP3    H115014   7.082   9.507   4.408  0.5028 -1.1649 -0.1984
38044TIP3    H215015   7.209   9.589   4.406 -0.6060  0.6161  0.1697
38045TIP3   OH215016   2.616   8.376  10.229 -0.1449 -0.0241  1.1074
38045TIP3    H115017   2.597   8.464  10.260  1.3374  0.6539  0.2144
38045TIP3    H215018   2.700   8.353  10.269 -1.4796 -1.9633  3.0678
38046TIP3   OH215019   0.736  10.846  10.579 -0.4693 -0.4980  0.0601
38046TIP3    H115020   0.692  10.927  10.605 -0.3861 -0.6340  0.6315
38046TIP3    H215021   0.828  10.872  10.569 -0.7061 -0.1401 -1.4528
38047TIP3   OH215022  10.182   9.505   8.082  0.6023  0.2731 -0.4051
38047TIP3    H115023  10.187   9.531   8.174  0.3993  0.9530 -0.5827
38047TIP3    H215024  10.101   9.544   8.050  0.9196  0.4586 -0.9980
38048TIP3   OH215025   1.241   3.232   2.543  0.0992  0.2823 -0.5193
38048TIP3    H115026   1.189   3.312   2.540  1.6813  1.4889  1.6413
38048TIP3    H215027   1.207   3.184   2.619  2.1173  1.1706  1.0327
38049TIP3   OH215028   0.851   6.677   6.032  0.6337 -0.3664 -0.3532
38049TIP3    H115029   0.938   6.702   6.064  1.2252 -0.4913 -1.7820
38049TIP3    H215030   0.805   6.761   6.024  0.8703 -0.2280 -0.2982
38050TIP3   OH215031   7.367  10.712   0.049 -0.4624 -0.3402  0.1577
38050TIP3    H115032   7.394  10.716  -0.043  1.1516  0.6871  0.6298
38050TIP3    H215033   7.426  10.648   0.089  1.2873  1.7665  1.1580
38051TIP3   OH215034   0.469   6.685   0.194 -0.3057 -0.4278 -0.3270
38051TIP3    H115035   0.445   6.652   0.281 -1.8983  1.9761  0.2496
38051TIP3    H215036   0.431   6.622   0.133  1.0623 -2.3050  0.6630
38052TIP3   OH215037   5.079   0.099   3.602  0.4825  0.4109  0.4671
38052TIP3    H115038   5.027   0.173   3.634 -0.8820 -0.1270 -0.4371
38052TIP3    H215039   5.109   0.054   3.682 -0.6987  0.5681  1.0138
38053TIP3   OH215040   2.562   5.057   4.080  0.1600 -0.1046 -0.1999
38053TIP3    H115041   2.641   5.054   4.025  0.5731 -0.5250  0.3946
38053TIP3    H215042   2.590   5.103   4.159 -0.4885  0.6914 -0.4191
38054TIP3   OH215043   9.743   9.273   1.162  0.4534  0.1480 -0.3145
38054TIP3    H115044   9.709   9.257   1.250 -0.4990  2.2270 -0.2427
38054TIP3    H215045   9.696   9.211   1.106  0.9830 -1.1102  0.5953
38055TIP3   OH215046  10.067   6.402   1.662 -0.1874 -0.4380 -0.5298
38055TIP3    H115047  10.037   6.438   1.578 -1.5489  0.6022  0.3520
38055TIP3    H215048  10.154   6.439   1.674 -0.3945  0.2321 -1.0218
38056TIP3   OH215049   5.030   2.242   8.790 -0.2088 -0.8829  0.8718
38056TIP3    H115050   4.983   2.296   8.853 -2.3191 -1.3463 -0.1882
38056TIP3    H215051   5.068   2.171   8.842  0.0468 -0.0175  1.8849
38057TIP3   OH215052   8.492   4.926   6.668 -0.1006  0.1648  0.0052
38057TIP3    H115053   8.446   4.963   6.592 -0.1230 -0.7971 -0.4751
38057TIP3    H215054   8.577   4.901   6.634  0.4342  1.0363  0.6613
38058TIP3   OH215055   6.082   1.655   0.686  0.0684 -0.0694  0.0019
38058TIP3    H115056   6.106   1.643   0.779 -0.4382 -1.2129  0.0014
38058TIP3    H215057   6.149   1.715   0.652 -0.1487  0.9311  1.2743
38059TIP3   OH215058  10.534   9.976   8.901  0.1757 -0.2593 -0.1712
38059TIP3    H115059  10.538   9.979   8.805 -0.7335 -1.3362 -0.2621
38059TIP3    H215060  10.600   9.911   8.925  0.8568  0.4782 -0.0112
38060TIP3   OH215061   1.406   2.737   3.441  0.0798 -0.2248  0.1299
38060TIP3    H115062   1.423   2.667   3.378 -2.8968 -1.5766  0.6433
38060TIP3    H215063   1.393   2.816   3.388  0.8260 -0.6272 -0.6663
38061TIP3   OH215064   0.716   1.463   0.430  0.5412  0.4516 -0.2979
38061TIP3    H115065   0.802   1.487   0.464  0.2725 -0.2678  0.9275
38061TIP3    H215066   0.655   1.521   0.475  0.1679 -0.6072  0.5872
38062TIP3   OH215067   3.585   8.916   3.564 -0.3067  0.6967 -0.0379
38062TIP3    H115068   3.602   8.989   3.625  1.3737  0.4075 -0.1054
38062TIP3    H215069   3.507   8.943   3.516 -0.9404  1.5054  1.3682
38063TIP3   OH215070   4.734   0.126   4.036 -0.2617 -0.4383 -0.1953
38063TIP3    H115071   4.726   0.036   4.005 -0.4400 -1.0447  1.4712
38063TIP3    H215072   4.812   0.126   4.092 -0.1699  0.4864 -0.2988
38064TIP3   OH215073   2.127   3.434   5.390  0.2364  0.1163  0.0992
38064TIP3    H115074   2.170   3.515   5.416 -0.1556  0.6717 -0.9182
38064TIP3    H215075   2.197   3.382   5.350  0.0683  0.8958 -1.2816
38065TIP3   OH215076   2.230   0.014   2.031  0.1214  0.2378 -0.1284
38065TIP3    H115077   2.311  -0.010   2.076  0.9360 -1.4159 -2.2951
38065TIP3    H215078   2.234   0.109   2.022  0.4624  0.4996  2.1477
38066TIP3   OH215079   7.728   7.080  10.184 -0.6707  0.2897 -0.3829
38066TIP3    H115080   7.746   7.134  10.107 -2.9090  0.8869 -0.5543
38066TIP3    H215081   7.765   6.994  10.162 -0.5201  0.6758 -1.7558
38067TIP3   OH215082  10.186   7.466   1.328 -0.1373 -0.6651  0.7665
38067TIP3    H115083  10.114   7.418   1.286 -0.3775  0.1107  0.2531
38067TIP3    H215084  10.262   7.448   1.272 -0.6846  1.2351 -0.7052
38068TIP3   OH215085   5.764   4.209   3.301 -0.4208  0.2476 -0.2134
38068TIP3    H115086   5.854   4.206   3.332 -0.4097  2.2077  0.0620
38068TIP3    H215087   5.769   4.182   3.209  0.5946  1.2954 -0.4745
38069TIP3   OH215088   6.104  10.036   5.546 -0.0465 -0.1226  0.1365
38069TIP3    H115089   6.184  10.027   5.495  0.0546 -1.0254  0.4327
38069TIP3    H215090   6.036  10.052   5.481  0.1198 -1.0251 -0.2844
38070TIP3   OH215091   6.711   7.561  10.599 -0.6500 -0.7475 -0.0965
38070TIP3    H115092   6.682   7.615  10.672  1.7901 -0.0999  0.4715
38070TIP3    H215093   6.781   7.506  10.635  0.6428 -0.4041 -1.8958
38071TIP3   OH215094   7.896   4.597   8.580  0.0325  0.0871 -0.2905
38071TIP3    H115095   7.841   4.651   8.522  0.0376 -0.1536 -0.5265
38071TIP3    H215096   7.916   4.519   8.527 -1.5643 -1.0498  0.6957
38072TIP3   OH215097   7.175   0.742   5.152  0.4355 -0.0944  0.1908
38072TIP3    H115098   7.246   0.756   5.089  0.6246  2.6371  0.8772
38072TIP3    H215099   7.122   0.672   5.113  2.2183 -0.6481 -1.4414
38073TIP3   OH215100   4.013   2.112   5.856  0.4848 -0.6653 -0.4924
38073TIP3    H115101   3.961   2.140   5.781  0.5647 -0.4017 -0.4525
38073TIP3    H215102   4.033   2.194   5.903  0.8880 -0.7660 -0.4830
38074TIP3   OH215103   9.075   8.323   4.025 -0.0700 -0.3868  0.1188
38074TIP3    H115104   9.026   8.404   4.035  1.8693  0.7964  0.6846
38074TIP3    H215105   9.057   8.295   3.935 -0.0612  1.1962 -0.4062
38075TIP3   OH215106   2.360   4.441   0.563  0.3313  0.0799  0.2688
38075TIP3    H115107   2.279   4.389   0.562  0.3084  0.1086  0.6130
38075TIP3    H215108   2.338   4.521   0.516 -0.1378  0.5279  1.2139
38076TIP3   OH215109   8.753   1.030   9.029  0.2491 -0.6125  0.0366
38076TIP3    H115110   8.756   0.941   9.064 -1.1259 -0.6073  0.1936
38076TIP3    H215111   8.672   1.067   9.062  0.6511  0.6078 -0.2822
38077TIP3   OH215112  10.451   8.891   5.448 -0.2901  0.3512  0.1258
38077TIP3    H115113  10.397   8.811   5.449 -0.5788  0.5505  0.5805
38077TIP3    H215114  10.464   8.913   5.540  1.8866 -0.5668  0.1147
38078TIP3   OH215115   4.176   8.246   2.886 -0.2009 -0.6005  0.4050
38078TIP3    H115116   4.203   8.335   2.908  2.0291 -0.8956 -0.7948
38078TIP3    H215117   4.201   8.194   2.963  0.4080 -0.4788  0.2969
38079TIP3   OH215118   4.252   4.624   3.617  0.4586 -0.0026  0.4484
38079TIP3    H115119   4.213   4.651   3.700 -0.2593  0.1324  0.0793
38079TIP3    H215120   4.177   4.604   3.561  0.8893  0.9700 -0.5155
38080TIP3   OH215121   8.183   9.588   7.807  0.0931 -0.5960  0.0426
38080TIP3    H115122   8.251   9.543   7.857 -0.4359 -0.7806  0.6121
38080TIP3    H215123   8.147   9.652   7.868  0.4736  0.2418 -0.5935
38081TIP3   OH215124   7.782   5.845   0.697 -0.0726  0.6187  0.6202
38081TIP3    H115125   7.836   5.832   0.619 -1.5557  0.6479 -0.4685
38081TIP3    H215126   7.806   5.932   0.729  0.8995  0.4036  0.4968
38082TIP3   OH215127   6.404   9.012   3.392  0.2689 -0.2051 -0.6471
38082TIP3    H115128   6.389   9.106   3.407  0.6247 -0.1154 -0.8488
38082TIP3    H215129   6.375   8.997   3.302  1.2226 -0.0583 -0.9957
38083TIP3   OH215130   0.487   7.380   5.676 -0.0300  0.2701  0.1400
38083TIP3    H115131   0.488   7.412   5.586  0.3145  0.1231  0.0890
38083TIP3    H215132   0.512   7.288   5.669  0.3314  0.3451  0.4162
38084TIP3   OH215133   2.969  10.768   0.372  0.6413 -0.1061 -0.1893
38084TIP3    H115134   2.877  10.742   0.371  0.5439  0.2673 -0.8494
38084TIP3    H215135   2.980  10.810   0.458  0.5932 -1.5197  0.5453
38085TIP3   OH215136   8.556   3.344   8.731 -0.0591 -0.3208  0.2677
38085TIP3    H115137   8.484   3.392   8.689  0.5406 -2.3681 -3.5621
38085TIP3    H215138   8.633   3.397   8.715 -0.1670  0.0579  0.9831
38086TIP3   OH215139   9.054   9.932   0.618 -0.6991 -0.0420  0.6977
38086TIP3    H115140   8.969   9.890   0.628 -1.7688  1.5308 -1.0892
38086TIP3    H215141   9.055  10.003   0.682 -1.1115  0.4595  0.1600
38087TIP3   OH215142   7.471  10.246  10.495 -0.3698 -0.0536 -0.1650
38087TIP3    H115143   7.418  10.313  10.452 -1.2662 -0.1602  0.7436
38087TIP3    H215144   7.514  10.200  10.423 -2.5874 -0.8789 -1.0662
38088TIP3   OH215145   8.325  10.519   9.886  0.3202  0.5492 -0.1656
38088TIP3    H115146   8.252  10.461   9.866  1.4295 -1.0414  0.1439
38088TIP3    H215147   8.285  10.603   9.906 -1.2090  0.5539 -2.8882
38089TIP3   OH215148  10.267  10.495   2.986 -0.0560 -0.1901  0.5519
38089TIP3    H115149  10.266  10.591   2.984  1.4356 -0.0664  2.5037
38089TIP3    H215150  10.177  10.471   3.008 -0.9502  0.6040 -1.8703
38090TIP3   OH215151   1.977  10.163   2.400  0.3698  0.3710  0.3515
38090TIP3    H115152   1.910  10.205   2.453  0.6356  1.4618 -0.1511
38090TIP3    H215153   2.019  10.235   2.353 -0.4213 -0.5727 -1.9951
38091TIP3   OH215154   0.376   3.922   5.440  0.0912  0.5666 -0.1702
38091TIP3    H115155   0.284   3.900   5.454 -0.1307  0.1885 -2.0853
38091TIP3    H215156   0.374   4.009   5.399  0.5334  0.1400 -1.1148
38092TIP3   OH215157   9.212   7.978   8.755  0.6006  0.5864 -0.0325
38092TIP3    H115158   9.307   7.965   8.755  0.5407  0.0817 -0.7231
38092TIP3    H215159   9.188   7.981   8.662 -0.2874 -1.1739  0.0876
38093TIP3   OH215160   8.442   8.705   5.438 -0.2999 -0.4656  0.2645
38093TIP3    H115161   8.365   8.712   5.495 -0.9834  0.1634 -0.7020
38093TIP3    H215162   8.421   8.760   5.363  0.1120 -2.0968 -1.1021
38094TIP3   OH215163  10.863   2.396   8.099 -0.3937 -0.5766 -0.3538
38094TIP3    H115164  10.920   2.471   8.113  1.8856 -1.9463 -1.6847
38094TIP3    H215165  10.777   2.434   8.081  0.1629  1.5868  1.1846
38095TIP3   OH215166   1.244   2.492   4.421  0.3985  0.1021 -0.1633
38095TIP3    H115167   1.274   2.581   4.436  0.5076  0.2422 -1.1401
38095TIP3    H215168   1.316   2.450   4.373 -0.0303 -0.2345 -0.5262
38096TIP3   OH215169   0.630   6.820   3.964 -0.5599 -0.4565  0.0507
38096TIP3    H115170   0.711   6.841   3.917 -0.1843 -0.2089  0.7936
38096TIP3    H215171   0.561   6.834   3.900 -0.0538 -0.1016 -0.4263
38097TIP3   OH215172   0.351   2.195   0.738  0.2884  0.4853  0.5213
38097TIP3    H115173   0.308   2.111   0.723  0.6179 -0.1834  2.8094
38097TIP3    H215174   0.382   2.222   0.652  1.3190 -2.3737 -0.1200
38098TIP3   OH215175   7.921   3.857   5.737  0.0977 -0.1199  0.2835
38098TIP3    H115176   7.936   3.947   5.765 -2.0617  0.1060  0.8800
38098TIP3    H215177   7.920   3.807   5.819 -0.6284 -0.3624  0.1358
38099TIP3   OH215178   0.447   7.801   9.241 -0.0478  0.0363 -0.1661
38099TIP3    H115179   0.416   7.815   9.151 -0.3312 -3.8696 -0.8622
38099TIP3    H215180   0.375   7.753   9.283  1.0538 -0.3335  1.3647
38100TIP3   OH215181   9.598   6.695   4.699 -0.0809 -0.1340  0.3847
38100TIP3    H115182   9.587   6.656   4.786  0.2828 -0.9534  0.0752
38100TIP3    H215183   9.517   6.672   4.653 -0.8750  1.4659  0.9202
38101TIP3   OH215184   5.439   6.498   9.388  0.3779 -0.1495  0.4331
38101TIP3    H115185   5.480   6.583   9.374  0.2231 -0.1768 -0.2097
38101TIP3    H215186   5.400   6.504   9.475 -1.4492  1.1867 -0.4136
38102TIP3   OH215187   2.385   9.577   6.055 -0.8954  0.2006  0.2845
38102TIP3    H115188   2.421   9.488   6.054 -2.4824 -0.4676  0.7069
38102TIP3    H215189   2.318   9.575   6.123 -2.0642  1.2699 -0.8079
38103TIP3   OH215190   2.729   4.136   0.929 -0.4077  0.3920 -0.0350
38103TIP3    H115191   2.676   4.200   0.976  0.0434  1.4698 -0.9240
38103TIP3    H215192   2.815   4.142   0.971 -0.1840  0.8701 -0.5548
38104TIP3   OH215193   0.812   2.873   5.976 -0.2520  0.0038 -0.3203
38104TIP3    H115194   0.850   2.904   6.059 -2.3414  0.2263  0.5964
38104TIP3    H215195   0.878   2.812   5.942 -1.0437 -3.5024  3.6412
38105TIP3   OH215196   2.201   6.680   8.023 -0.0116 -0.1125 -0.4246
38105TIP3    H115197   2.155   6.640   7.949  0.7942 -0.3068 -0.8283
38105TIP3    H215198   2.170   6.770   8.024 -0.7467 -0.3534 -0.4013
38106TIP3   OH215199   3.790   0.330   7.500  0.4667 -0.0426  0.4520
38106TIP3    H115200   3.748   0.369   7.577 -1.8286 -1.4905  0.0299
38106TIP3    H215201   3.719   0.286   7.453  2.1831 -1.1140 -1.3150
38107TIP3   OH215202   3.832   4.710   9.867 -0.0480 -0.1631  0.6245
38107TIP3    H115203   3.883   4.787   9.893  0.2480 -0.5976  1.3443
38107TIP3    H215204   3.742   4.733   9.889  0.2515 -0.7498  2.6788
38108TIP3   OH215205   3.109   0.263   7.447  0.5294 -0.1843 -0.1177
38108TIP3    H115206   3.144   0.189   7.498  1.0289  1.4365  2.0633
38108TIP3    H215207   3.017   0.242   7.434  1.0519 -2.0118 -1.1705
38109TIP3   OH215208   6.102   8.826   4.911  0.0898 -0.0142 -0.5886
38109TIP3    H115209   6.163   8.753   4.902 -0.0350 -0.2149  0.0782
38109TIP3    H215210   6.020   8.786   4.938  0.5060  0.4921  1.6621
38110TIP3   OH215211   1.613   5.061   5.135  0.2583 -0.1171  0.0427
38110TIP3    H115212   1.666   4.982   5.126  1.3619  0.6093 -0.0811
38110TIP3    H215213   1.563   5.047   5.215 -0.5544 -1.4793 -0.6642
38111TIP3   OH215214   9.932   7.592   5.728  0.0422  0.0795  0.1777
38111TIP3    H115215  10.010   7.618   5.679  0.1252  1.1839  0.8580
38111TIP3    H215216   9.929   7.652   5.802 -1.4793  0.0862  0.1475
38112TIP3   OH215217   2.948   6.322   9.952 -0.4855  0.7296  0.0262
38112TIP3    H115218   2.946   6.403   9.900  1.1270  0.7870 -0.0031
38112TIP3    H215219   2.979   6.349  10.038 -1.8800  0.4298  0.6389
38113TIP3   OH215220   0.034   3.223   2.331 -0.0617 -0.2178  0.0409
38113TIP3    H115221  -0.051   3.232   2.288 -0.6872 -0.9800  1.0929
38113TIP3    H215222   0.095   3.207   2.259 -0.7567  0.5675 -0.7459
38114TIP3   OH215223   4.562   4.343   5.616 -0.2615  0.2227 -0.7851
38114TIP3    H115224   4.652   4.326   5.589 -0.5444 -0.7129 -1.2129
38114TIP3    H215225   4.550   4.437   5.605  0.0638  0.0800 -2.6689
38115TIP3   OH215226   2.084   8.362   3.401  0.0687  0.4419 -0.3928
38115TIP3    H115227   2.161   8.418   3.408 -0.1222  0.6145  0.4648
38115TIP3    H215228   2.103   8.304   3.327 -0.1821  2.2975 -1.9785
38116TIP3   OH215229   6.424  10.028   0.826 -0.0568 -0.2625 -0.0355
38116TIP3    H115230   6.443   9.978   0.747 -3.7174 -0.0098 -1.2644
38116TIP3    H215231   6.365   9.972   0.876 -1.8337  1.5291  0.0076
38117TIP3   OH215232  10.901   4.863   5.138  0.3777  0.0370 -0.5274
38117TIP3    H115233  10.949   4.887   5.218 -0.6346 -1.4117  0.5701
38117TIP3    H215234  10.969   4.834   5.077  1.0012 -1.7674  0.9210
38118TIP3   OH215235   1.257   1.154   0.435  0.2206 -0.1449  0.7199
38118TIP3    H115236   1.240   1.064   0.463  1.4646 -0.5171  0.3298
38118TIP3    H215237   1.176   1.201   0.457 -1.4014 -1.8320 -1.1788
38119TIP3   OH215238  10.630   4.892   5.784 -0.1028  0.0202 -0.6844
38119TIP3    H115239  10.685   4.909   5.708  0.7010  0.0093 -0.1190
38119TIP3    H215240  10.668   4.813   5.823 -0.1230  0.3816  0.0762
38120TIP3   OH215241   6.468   6.042   1.443  0.1608 -0.6798  0.1944
38120TIP3    H115242   6.537   6.085   1.392 -0.9183  0.0151 -0.7215
38120TIP3    H215243   6.432   6.111   1.499 -0.5996 -0.7270 -0.2223
38121TIP3   OH215244   7.910   4.020   9.887  0.0248 -0.2982 -0.0139
38121TIP3    H115245   7.822   4.023   9.925 -0.2148  1.3574 -0.6017
38121TIP3    H215246   7.941   4.110   9.892  2.2179 -1.0494  1.3221
38122TIP3   OH215247   2.734   2.387   7.683  0.2529 -0.0170  0.7030
38122TIP3    H115248   2.802   2.392   7.750 -0.4866 -2.3223  1.7248
38122TIP3    H215249   2.671   2.455   7.707  1.0913  0.6484  1.0401
38123TIP3   OH215250   7.629   2.137   9.240  0.2847 -0.9911  0.1207
38123TIP3    H115251   7.644   2.229   9.218 -1.0551 -0.4202  1.4524
38123TIP3    H215252   7.602   2.097   9.157  1.0998 -0.2664 -0.5243
38124TIP3   OH215253   0.663   5.577   5.395  0.4986 -0.1209  0.3248
38124TIP3    H115254   0.673   5.588   5.301  0.3335 -0.4018  0.2711
38124TIP3    H215255   0.671   5.482   5.409  1.7233  0.0214  0.7379
38125TIP3   OH215256   3.115   6.201   6.322 -0.0886 -0.1040 -0.1145
38125TIP3    H115257   3.191   6.154   6.287  0.1125 -0.1433  0.3605
38125TIP3    H215258   3.100   6.162   6.408  0.2729  0.8943  0.4287
38126TIP3   OH215259   6.079   2.176   4.790 -0.2406  0.0186  0.5367
38126TIP3    H115260   6.048   2.085   4.781  0.7691 -0.6040  2.6496
38126TIP3    H215261   6.004   2.223   4.828  0.0847 -0.6161  2.0551
38127TIP3   OH215262   5.133   0.535  10.837 -0.0547  0.4085 -0.2728
38127TIP3    H115263   5.090   0.451  10.821 -0.7361  0.7654 -0.3599
38127TIP3    H215264   5.159   0.531  10.929  2.1308 -0.8627 -0.8739
38128TIP3   OH215265   7.448   2.958   3.712  0.4535  0.7516  0.5245
38128TIP3    H115266   7.521   2.974   3.771  0.7712 -2.2992  1.1434
38128TIP3    H215267   7.486   2.960   3.624  0.7866  1.4934  0.6828
38129TIP3   OH215268   1.678   7.002   0.281 -0.3256 -0.3402  0.3175
38129TIP3    H115269   1.677   7.090   0.318  1.5771 -0.1255 -0.0599
38129TIP3    H215270   1.770   6.985   0.262 -0.8473 -1.7795 -1.1213
38130TIP3   OH215271   4.914   7.150  10.003 -0.2659  0.3476  0.2058
38130TIP3    H115272   4.854   7.161   9.929 -0.6896  1.0598  0.6330
38130TIP3    H215273   4.955   7.065   9.989 -0.9097  0.1311 -0.4396
38131TIP3   OH215274   2.531   2.598   3.566  0.1947 -0.3442 -0.1561
38131TIP3    H115275   2.605   2.538   3.576  0.6282  0.2550  0.2342
38131TIP3    H215276   2.567   2.685   3.581 -0.7930 -0.1144  1.0671
38132TIP3   OH215277   4.885   3.621  10.443 -0.0142 -0.0938 -0.3203
38132TIP3    H115278   4.874   3.583  10.356 -2.1401  1.8060 -0.9632
38132TIP3    H215279   4.885   3.545  10.502 -0.5361 -1.2899 -1.7916
38133TIP3   OH215280   1.179   8.705   8.497  0.4387 -0.5164  0.2161
38133TIP3    H115281   1.163   8.632   8.437  1.3536 -0.1888 -0.4440
38133TIP3    H215282   1.093   8.744   8.511  0.1560 -0.8342 -0.5797
38134TIP3   OH215283   6.215   2.302   5.729 -0.0756  0.1264 -0.1037
38134TIP3    H115284   6.170   2.312   5.646 -1.1098 -0.4484  0.3671
38134TIP3    H215285   6.287   2.242   5.710  0.3693  0.8626 -0.8118
38135TIP3   OH215286   0.329   9.023  10.051  0.9700 -0.3075 -0.1780
38135TIP3    H115287   0.398   8.961  10.030  0.4291 -0.5557 -1.2391
38135TIP3    H215288   0.288   8.987  10.130  1.7869 -0.3564  0.2395
38136TIP3   OH215289   9.812   2.150   7.618 -0.9305 -0.1002  0.0186
38136TIP3    H115290   9.889   2.181   7.666 -1.1487 -0.0388  0.3334
38136TIP3    H215291   9.753   2.116   7.685 -1.2867  0.0843 -0.1933
38137TIP3   OH215292   2.002   6.520   5.477 -0.4681  0.0068 -0.3160
38137TIP3    H115293   2.096   6.513   5.493 -0.9451 -0.5252  3.0384
38137TIP3    H215294   1.981   6.447   5.419  1.0782 -0.1445 -0.7206
38138TIP3   OH215295   3.450   9.540   9.478  0.0436 -1.2796  0.6985
38138TIP3    H115296   3.380   9.599   9.448  1.1105 -0.5848 -0.5681
38138TIP3    H215297   3.504   9.527   9.400  2.1531 -0.6062  1.9671
38139TIP3   OH215298   7.535   8.454   9.448 -0.2081 -0.2214 -0.6011
38139TIP3    H115299   7.505   8.504   9.525  1.4914  0.8517 -0.5841
38139TIP3    H215300   7.548   8.365   9.482  3.5793  0.8523  1.3294
38140TIP3   OH215301   9.798   1.220   4.522  0.6374  0.2123  0.0044
38140TIP3    H115302   9.838   1.220   4.609  1.6839  1.3305 -0.4415
38140TIP3    H215303   9.816   1.307   4.488  0.9820 -0.4649 -1.6513
38141TIP3   OH215304   7.140   7.122   9.393  0.4350  0.7836  0.6376
38141TIP3    H115305   7.163   7.193   9.333 -1.1872  0.6864 -0.1367
38141TIP3    H215306   7.151   7.043   9.340 -0.9631  0.6947  0.4627
38142TIP3   OH215307   5.349   9.947   1.204  0.6774 -0.0403  0.0301
38142TIP3    H115308   5.365   9.971   1.113  1.0206 -0.8839 -0.1408
38142TIP3    H215309   5.253   9.944   1.211  0.6321  1.0439 -0.0201
38143TIP3   OH215310   2.607   5.120  10.192 -0.1345 -0.1325  0.2458
38143TIP3    H115311   2.642   5.055  10.252  1.1178  0.0304 -0.2922
38143TIP3    H215312   2.572   5.189  10.249 -0.7686 -0.8849  0.7989
38144TIP3   OH215313   4.692   2.806   5.781  0.8280  0.2729 -0.2557
38144TIP3    H115314   4.685   2.882   5.838 -1.3570  1.0193 -1.3887
38144TIP3    H215315   4.636   2.827   5.707 -1.2877 -3.0849  0.1816
38145TIP3   OH215316   4.639   6.704   6.832  0.1873 -0.2145  0.1761
38145TIP3    H115317   4.698   6.670   6.764 -0.5035 -0.6210 -0.2292
38145TIP3    H215318   4.573   6.754   6.784  1.2627  1.8938  0.7703
38146TIP3   OH215319   2.634   4.860   5.314  0.1120  0.2329 -0.5796
38146TIP3    H115320   2.625   4.856   5.409 -0.5288  0.9615 -0.6085
38146TIP3    H215321   2.675   4.945   5.297  1.4428 -0.4328 -0.8807
38147TIP3   OH215322   3.472   2.602   3.902 -0.2159  0.9160 -0.3367
38147TIP3    H115323   3.427   2.677   3.863  1.0992  1.2098 -1.3310
38147TIP3    H215324   3.551   2.590   3.849  1.7089  1.3730  2.2029
38148TIP3   OH215325   1.562   9.205   4.060 -0.0634  0.2157  0.2228
38148TIP3    H115326   1.530   9.250   4.138 -0.4520 -0.5873  0.5458
38148TIP3    H215327   1.513   9.123   4.059 -0.2141  0.3063 -0.9843
38149TIP3   OH215328   4.211   1.279   8.908  0.7736  0.0943  0.0131
38149TIP3    H115329   4.292   1.326   8.929  0.4915  0.6692 -0.1569
38149TIP3    H215330   4.218   1.261   8.814  0.4838  0.5897 -0.1072
38150TIP3   OH215331   2.500  10.410   6.336  0.4247 -0.0497 -0.2886
38150TIP3    H115332   2.424  10.465   6.318 -0.3031 -1.1874 -0.7806
38150TIP3    H215333   2.493  10.390   6.430  0.7347  0.7469 -0.0917
38151TIP3   OH215334   4.856   6.173   9.494 -0.2202  0.2324  0.7625
38151TIP3    H115335   4.798   6.099   9.473 -0.7835  0.9761 -0.3997
38151TIP3    H215336   4.895   6.197   9.410  1.1298  0.3023  1.3916
38152TIP3   OH215337   5.631   0.192   5.589 -0.6881 -0.1067  0.4373
38152TIP3    H115338   5.695   0.239   5.642  0.0350 -0.7659  0.1673
38152TIP3    H215339   5.565   0.161   5.652  0.0268 -0.6698  0.9277
38153TIP3   OH215340   8.102   4.955   3.822  0.5313 -0.0402 -0.3617
38153TIP3    H115341   8.074   4.885   3.881  0.3053  0.4537  0.1279
38153TIP3    H215342   8.162   4.913   3.761 -2.1179 -1.4706 -2.2126
38154TIP3   OH215343   9.377   6.190  10.689 -0.2711  0.5034  0.6194
38154TIP3    H115344   9.363   6.284  10.705  0.0428  0.3930  1.5635
38154TIP3    H215345   9.467   6.174  10.716 -0.4366 -0.1495  0.7858
38155TIP3   OH215346   4.517   8.612   9.272  0.4308 -0.9305  0.1018
38155TIP3    H115347   4.453   8.646   9.335 -0.2563 -1.0541 -0.5142
38155TIP3    H215348   4.472   8.540   9.229  0.7986 -0.6879 -0.7067
38156TIP3   OH215349   0.257   4.689   5.302  0.0149 -0.1455  0.0205
38156TIP3    H115350   0.248   4.675   5.208 -0.4252  0.9029 -0.1120
38156TIP3    H215351   0.220   4.777   5.316 -2.6795 -1.4168  1.6111
38157TIP3   OH215352   5.008   7.416   6.536 -0.2608 -0.4972 -0.5347
38157TIP3    H115353   5.096   7.393   6.506  0.1671 -0.0418  0.3228
38157TIP3    H215354   4.979   7.485   6.477 -0.5757 -1.5295 -1.6183
38158TIP3   OH215355   0.218  10.701   1.666  0.3664  0.4511 -0.3298
38158TIP3    H115356   0.128  10.734   1.664  0.2943  0.2320 -2.3953
38158TIP3    H215357   0.211  10.611   1.698  0.1784  1.2355  1.9759
38159TIP3   OH215358   4.855  10.446  10.679 -0.1171 -0.6858  0.6843
38159TIP3    H115359   4.834  10.461  10.587  0.2842 -0.2703  0.6554
38159TIP3    H215360   4.879  10.533  10.712  1.2318 -1.0777  0.7964
38160TIP3   OH215361   5.395   9.351   6.048 -0.8365  0.0836  0.1114
38160TIP3    H115362   5.339   9.334   5.971 -1.4514  2.2977  0.0027
38160TIP3    H215363   5.372   9.440   6.075  1.3380  0.3665  1.2202
38161TIP3   OH215364   0.499   8.978  10.777  0.9667  0.0283  0.6939
38161TIP3    H115365   0.509   8.957  10.870 -1.8211 -0.9584  0.8699
38161TIP3    H215366   0.444   9.056  10.777 -0.9756 -1.2794 -0.0790
38162TIP3   OH215367   1.270   9.649   5.310 -0.9343  0.3307  0.1782
38162TIP3    H115368   1.357   9.612   5.324 -0.2614  0.6687 -2.5334
38162TIP3    H215369   1.225   9.638   5.394  0.9089 -2.0255  0.9631
38163TIP3   OH215370   4.225   9.422   4.309 -0.3225 -0.3707  0.1867
38163TIP3    H115371   4.256   9.414   4.219 -1.5593  0.5966 -0.3510
38163TIP3    H215372   4.299   9.392   4.362  0.7480 -0.1237 -1.1090
38164TIP3   OH215373   8.168   3.991   2.315 -0.2508  0.4594  0.7326
38164TIP3    H115374   8.144   3.938   2.391 -0.1635  0.8787  1.0526
38164TIP3    H215375   8.091   4.045   2.298 -0.0895  0.7186  0.8257
38165TIP3   OH215376   9.435   5.477   4.487 -0.2049  0.0203 -0.4700
38165TIP3    H115377   9.469   5.553   4.534 -1.6551  1.1801 -1.2123
38165TIP3    H215378   9.511   5.441   4.441  0.7052  0.4117  0.6846
38166TIP3   OH215379   1.951   3.177   5.316 -0.0021  0.5312 -0.5454
38166TIP3    H115380   1.941   3.211   5.227 -1.9023 -0.0185 -0.5814
38166TIP3    H215381   2.003   3.097   5.305 -2.7352 -1.2592 -1.6700
38167TIP3   OH215382  10.537   6.618   9.942 -0.1510  0.2206 -0.8308
38167TIP3    H115383  10.584   6.575   9.871 -0.9560 -0.6151 -0.8659
38167TIP3    H215384  10.445   6.610   9.919 -0.5094 -1.0460  0.8225
38168TIP3   OH215385   8.406   1.920   1.044 -0.0308  0.0366  0.5355
38168TIP3    H115386   8.374   1.947   1.130  0.5723  2.4882  0.0430
38168TIP3    H215387   8.328   1.922   0.988  0.0063  0.8627  0.4999
38169TIP3   OH215388   6.845   0.866   5.013  0.2272 -0.5691  0.0172
38169TIP3    H115389   6.832   0.805   5.086  1.4002 -0.5675  0.2557
38169TIP3    H215390   6.826   0.814   4.935 -0.8528 -0.6271  0.2962
38170TIP3   OH215391   7.513   1.658   2.516 -0.5169 -0.5925 -0.2033
38170TIP3    H115392   7.521   1.564   2.530  0.0270 -0.3052  1.6825
38170TIP3    H215393   7.428   1.669   2.475 -2.4966 -1.6074  3.2421
38171TIP3   OH215394   1.088   2.500   6.354  0.4129 -0.0302  0.6170
38171TIP3    H115395   1.142   2.579   6.350  0.1317  0.1053 -1.0767
38171TIP3    H215396   0.998   2.533   6.361  0.3872 -0.2383  1.4071
38172TIP3   OH215397   0.630   0.719   8.419  0.1077  0.4583  0.0198
38172TIP3    H115398   0.568   0.656   8.380 -0.0918  0.9830 -0.5368
38172TIP3    H215399   0.615   0.800   8.370 -0.1209  1.1406  1.1792
38173TIP3   OH215400   0.916   7.953   3.430  0.1435  0.0319  0.1658
38173TIP3    H115401   0.958   7.896   3.364  0.3593  1.3743 -0.9056
38173TIP3    H215402   0.836   7.983   3.388 -1.3795 -1.5600  1.7574
38174TIP3   OH215403   8.238   7.616   3.322 -0.6555 -0.0334  0.5133
38174TIP3    H115404   8.310   7.555   3.309 -0.3519  0.3054  0.5782
38174TIP3    H215405   8.281   7.700   3.340 -1.0443  0.5811 -1.2259
38175TIP3   OH215406   6.349   0.111   6.371 -0.9268  0.3098  0.4283
38175TIP3    H115407   6.307   0.031   6.403  2.6028 -2.2009 -0.5633
38175TIP3    H215408   6.323   0.117   6.279 -0.9625  0.1073  0.4250
38176TIP3   OH215409   5.324   2.332   6.394 -0.1277  0.4614 -0.3272
38176TIP3    H115410   5.276   2.406   6.432 -0.1833  0.8040 -1.0625
38176TIP3    H215411   5.416   2.358   6.397 -0.1258  0.4591 -0.3745
38177TIP3   OH215412   7.592   2.449   6.323 -0.0451 -0.4860  0.0485
38177TIP3    H115413   7.593   2.370   6.377  1.0897 -2.1922 -2.2698
38177TIP3    H215414   7.608   2.520   6.384 -0.1313 -2.1435  2.1113
38178TIP3   OH215415   4.367   5.384   7.682 -0.1943  0.0871 -0.1187
38178TIP3    H115416   4.353   5.313   7.744  0.3755  0.7389  0.7916
38178TIP3    H215417   4.279   5.410   7.654 -0.5812  0.7101  1.5248
38179TIP3   OH215418   5.038   7.458   1.539 -0.5256 -0.5639 -0.1201
38179TIP3    H115419   5.106   7.391   1.544 -1.5251 -1.5339  2.3961
38179TIP3    H215420   5.077   7.529   1.488  1.7852 -1.6973 -0.0531
38180TIP3   OH215421   8.930   1.566   5.239 -0.0692  0.0297 -0.3142
38180TIP3    H115422   8.938   1.542   5.147 -0.6028  1.0878 -0.6639
38180TIP3    H215423   8.858   1.630   5.240 -0.3222 -0.2482  0.8916
38181TIP3   OH215424   8.049   2.760   1.709  0.1961 -0.3577 -0.4637
38181TIP3    H115425   8.047   2.766   1.613  0.6081 -1.4701 -0.5604
38181TIP3    H215426   7.957   2.748   1.734  0.2459 -1.9187 -0.8920
38182TIP3   OH215427   5.259   8.194   5.950 -0.2834  0.1270  0.6603
38182TIP3    H115428   5.292   8.147   6.027  2.1317 -1.7569 -1.3359
38182TIP3    H215429   5.173   8.156   5.934  0.2321 -1.2938  1.0464
38183TIP3   OH215430   4.769   6.916   9.548  0.3186 -0.2134  0.6422
38183TIP3    H115431   4.680   6.923   9.582  0.7672 -0.5380  1.9778
38183TIP3    H215432   4.808   7.002   9.566  0.1427  0.0847 -0.3690
38184TIP3   OH215433   8.481   6.435   7.029  0.0538  0.3909  0.5753
38184TIP3    H115434   8.573   6.416   7.010  0.1437  1.1500  0.2058
38184TIP3    H215435   8.435   6.355   7.005  0.6767 -0.2230  1.3443
38185TIP3   OH215436   2.371  10.620   5.666  0.2355 -0.0073  0.7301
38185TIP3    H115437   2.463  10.608   5.643  0.5640  1.0819  1.4236
38185TIP3    H215438   2.328  10.540   5.634  0.8968  0.7095 -2.2334
38186TIP3   OH215439   7.542   5.215   6.858 -0.0044 -0.9760 -0.4060
38186TIP3    H115440   7.636   5.209   6.842  0.1333 -0.4717  0.1882
38186TIP3    H215441   7.532   5.196   6.951 -0.3283  0.3290 -0.1466
38187TIP3   OH215442   1.337   6.641  10.242  0.0099  0.3959 -0.2113
38187TIP3    H115443   1.257   6.605  10.280  0.4951 -1.1850 -0.6269
38187TIP3    H215444   1.404   6.574  10.257  0.9887  1.1859 -0.8805
38188TIP3   OH215445   2.081   0.586   3.314 -0.1033 -0.0757 -0.2197
38188TIP3    H115446   2.031   0.655   3.356 -2.3342 -0.1179 -2.6088
38188TIP3    H215447   2.167   0.626   3.297 -0.3988  1.1236  0.9126
38189TIP3   OH215448   1.114   6.250   4.678  0.8161 -0.4323 -0.5667
38189TIP3    H115449   1.039   6.193   4.661  0.7259  0.3914 -3.3631
38189TIP3    H215450   1.083   6.338   4.656  2.1281  0.1348 -0.2225
38190TIP3   OH215451   5.955   6.578   8.291  0.4983  0.2357 -0.0019
38190TIP3    H115452   5.951   6.495   8.338  0.3577 -0.9061 -1.9513
38190TIP3    H215453   5.865   6.610   8.289  0.7210  1.1462  1.8551
38191TIP3   OH215454   2.846   4.060   6.862  0.3198  0.5319  0.1249
38191TIP3    H115455   2.918   4.007   6.827 -0.4828 -1.0119  0.7116
38191TIP3    H215456   2.773   4.000   6.867 -1.1698  2.1735 -0.8593
38192TIP3   OH215457   0.503   9.828   1.387  0.1055  0.1361 -0.5257
38192TIP3    H115458   0.540   9.885   1.455  0.2126 -0.4650 -0.0692
38192TIP3    H215459   0.461   9.888   1.325 -1.1402  0.6428  0.7537
38193TIP3   OH215460   8.837   6.506   1.694  0.2486  0.4128 -0.0582
38193TIP3    H115461   8.921   6.460   1.704  0.0399 -0.1265 -0.6981
38193TIP3    H215462   8.827   6.517   1.600 -1.4609 -1.6068 -0.2063
38194TIP3   OH215463   6.955   1.431   1.562 -0.0075  0.7496 -0.4194
38194TIP3    H115464   6.905   1.446   1.642  0.9698  0.8788  0.1873
38194TIP3    H215465   6.921   1.495   1.499 -1.2029  0.2375 -0.3078
38195TIP3   OH215466   6.332  10.459   1.054  0.2084 -0.3199  0.3475
38195TIP3    H115467   6.327  10.401   0.978 -0.6997 -1.1908  1.0395
38195TIP3    H215468   6.373  10.539   1.021 -1.1759 -0.2474 -1.3164
38196TIP3   OH215469   3.580   6.193   3.050 -0.1633 -0.1306 -0.3846
38196TIP3    H115470   3.557   6.262   2.988  2.5533 -0.1998 -1.6004
38196TIP3    H215471   3.595   6.116   2.996 -1.7958 -1.3821  0.8327
38197TIP3   OH215472   7.127   3.460   7.241  0.6057 -0.6462 -0.2300
38197TIP3    H115473   7.152   3.474   7.332  0.6606  2.4569 -0.6139
38197TIP3    H215474   7.180   3.523   7.192 -0.7390 -0.9658 -2.1952
38198TIP3   OH215475   5.585   8.578  10.646  0.4017 -0.1027 -0.5793
38198TIP3    H115476   5.631   8.633  10.582 -1.2023  2.2602  0.2032
38198TIP3    H215477   5.566   8.636  10.719 -0.7603 -1.8986  0.6308
38199TIP3   OH215478   6.917   5.466   3.170 -0.4725  0.2340  0.0832
38199TIP3    H115479   6.987   5.532   3.174  0.5120 -0.7179 -0.6618
38199TIP3    H215480   6.923   5.420   3.253 -1.2182  1.1221  0.6408
38200TIP3   OH215481   6.016   7.897   1.630  0.0407  0.2536  0.6043
38200TIP3    H115482   5.998   7.991   1.627  0.7322  0.4083  1.0896
38200TIP3    H215483   6.090   7.888   1.690  0.3046 -0.5538  0.1820
38201TIP3   OH215484   0.397   8.940   9.337  0.1606 -0.3703  0.1350
38201TIP3    H115485   0.462   8.932   9.407  1.3223  1.5345 -0.6519
38201TIP3    H215486   0.380   8.850   9.310 -1.7503 -1.4193  4.0283
38202TIP3   OH215487   2.556   3.162   2.892  0.1052 -0.1284  0.2108
38202TIP3    H115488   2.496   3.106   2.942 -1.1680  1.6454  0.7494
38202TIP3    H215489   2.588   3.225   2.956  0.7497  0.3790 -0.5960
38203TIP3   OH215490   7.397   8.554   3.324  0.3188  0.2714  0.8658
38203TIP3    H115491   7.464   8.618   3.299  0.7667 -0.7287 -0.6241
38203TIP3    H215492   7.336   8.603   3.379  1.0676  1.7649  0.4185
38204TIP3   OH215493  10.714   1.454  10.111  0.6544  0.1513  0.0330
38204TIP3    H115494  10.705   1.378  10.054  1.2284  1.3304 -1.6860
38204TIP3    H215495  10.639   1.448  10.171 -0.6885 -0.4559 -1.6507
38205TIP3   OH215496   4.425  10.839   5.065 -0.3363 -0.0660 -0.2197
38205TIP3    H115497   4.379  10.789   5.132  1.5792 -0.6473  0.7391
38205TIP3    H215498   4.370  10.833   4.987 -1.8435 -0.7022  0.8656
38206TIP3   OH215499   1.390   9.545   0.978  0.6230 -0.4742 -0.2724
38206TIP3    H115500   1.478   9.554   0.940  0.9055  0.4333  0.5365
38206TIP3    H215501   1.404   9.561   1.072 -0.5958  0.9234 -0.3050
38207TIP3   OH215502   1.020   9.079  10.430 -0.3264  0.6865  0.0618
38207TIP3    H115503   0.929   9.086  10.461 -0.1454  0.2348  0.7165
38207TIP3    H215504   1.045   9.168  10.408 -0.7447  0.8919  0.4180
38208TIP3   OH215505   6.540   0.954   5.080  0.1236 -0.6707  0.1463
38208TIP3    H115506   6.628   0.917   5.092  0.8642 -0.0757 -2.8681
38208TIP3    H215507   6.482   0.888   5.120  1.8435 -1.2486  1.8875
38209TIP3   OH215508   5.743  10.408   7.765  0.1421  0.2781  0.4308
38209TIP3    H115509   5.691  10.467   7.710  1.6053  0.8305 -0.4295
38209TIP3    H215510   5.736  10.445   7.853 -1.1993  0.1212  0.4108
38210TIP3   OH215511   7.405   8.890   4.785  0.2256  0.2191  0.2262
38210TIP3    H115512   7.384   8.887   4.878  1.3047  2.0742  0.5768
38210TIP3    H215513   7.320   8.882   4.742 -0.2419 -1.1197  1.3315
38211TIP3   OH215514   8.247   1.424   0.073  0.1643  1.0875  0.5246
38211TIP3    H115515   8.270   1.421  -0.020  0.3661 -0.4071  0.6045
38211TIP3    H215516   8.184   1.496   0.080 -1.4149 -0.0513 -1.1359
38212TIP3   OH215517   1.918   5.089   3.829 -0.3522  0.2365  0.2300
38212TIP3    H115518   1.860   5.148   3.780 -1.4674 -3.0728 -2.8555
38212TIP3    H215519   1.864   5.058   3.902 -1.2584 -0.0558 -0.5380
38213TIP3   OH215520   7.321   5.387   8.073 -0.1197  0.8946  0.4075
38213TIP3    H115521   7.415   5.406   8.067  0.4092 -1.1807  1.2753
38213TIP3    H215522   7.292   5.436   8.150  0.5686  0.4305  0.9671
38214TIP3   OH215523   6.644   2.331   2.008 -0.1159 -0.3228 -0.4411
38214TIP3    H115524   6.578   2.398   2.028 -1.5243 -2.0904  1.2337
38214TIP3    H215525   6.593   2.256   1.978  0.9497 -2.1329  1.9498
38215TIP3   OH215526  10.661  10.622   9.476 -0.1475 -0.0643 -0.0670
38215TIP3    H115527  10.625  10.536   9.497 -0.5524 -0.0143 -0.5398
38215TIP3    H215528  10.728  10.605   9.409  0.0214 -0.0490  0.0981
38216TIP3   OH215529  10.763   4.334   9.519  0.1889 -0.3245  0.1006
38216TIP3    H115530  10.855   4.307   9.517 -0.0730 -1.3117  0.6024
38216TIP3    H215531  10.722   4.286   9.447  0.0924  0.2313 -0.2189
38217TIP3   OH215532   0.772   5.952   4.741  0.6569  0.2314 -0.2154
38217TIP3    H115533   0.697   5.893   4.751 -0.4374  1.7275  0.7604
38217TIP3    H215534   0.841   5.896   4.706 -1.3655 -0.8462 -2.8376
38218TIP3   OH215535   7.023   3.519   5.521 -0.1301 -0.1751 -0.3033
38218TIP3    H115536   7.083   3.557   5.585  0.5626 -1.3741 -0.2008
38218TIP3    H215537   6.978   3.594   5.482 -0.0369  0.6152  1.0671
38219TIP3   OH215538  10.252  10.417   3.448  0.1239  0.4118 -0.0577
38219TIP3    H115539  10.313  10.359   3.402 -2.2019 -1.8441 -0.5327
38219TIP3    H215540  10.178  10.427   3.388 -1.9593 -0.6642  2.1509
38220TIP3   OH215541   8.425   9.167   8.558  0.7747  0.5189  0.0093
38220TIP3    H115542   8.334   9.138   8.569  0.3491  1.7513 -0.1074
38220TIP3    H215543   8.433   9.242   8.618  1.8783  0.0899  0.4218
38221TIP3   OH215544   0.499   6.084   2.882 -0.0616  0.4710 -0.0904
38221TIP3    H115545   0.562   6.014   2.900  0.7128  1.1805  0.0285
38221TIP3    H215546   0.548   6.146   2.827 -1.1079  0.3384 -1.2081
38222TIP3   OH215547   1.284  10.732   2.109  0.4126  0.1514 -0.1827
38222TIP3    H115548   1.271  10.793   2.181  0.5657 -0.5510  0.4519
38222TIP3    H215549   1.366  10.686   2.130  1.1794  0.8653 -1.4868
38223TIP3   OH215550   1.328  10.288   2.189  0.4401 -0.3205 -0.1369
38223TIP3    H115551   1.420  10.266   2.199  0.5843  0.2699 -0.1429
38223TIP3    H215552   1.307  10.261   2.099  0.7607  0.0871 -0.3340
38224TIP3   OH215553   8.279   3.934   0.882 -0.1261  0.2877 -0.0671
38224TIP3    H115554   8.233   3.850   0.872  0.5625 -0.1100  0.0477
38224TIP3    H215555   8.246   3.988   0.810  0.9139 -0.7638 -1.3912
38225TIP3   OH215556   9.788   3.762   5.547 -0.1268  0.1245  0.2608
38225TIP3    H115557   9.786   3.704   5.471 -0.6514  1.4608 -0.7861
38225TIP3    H215558   9.727   3.723   5.609 -1.9860  0.5732 -1.2067
38226TIP3   OH215559   1.871  10.368   7.112  0.1802 -0.0095 -0.4485
38226TIP3    H115560   1.855  10.454   7.151  1.8379 -0.2333  0.8501
38226TIP3    H215561   1.794  10.317   7.135 -0.3217  0.8195 -0.2562
38227TIP3   OH215562   6.752   7.941   8.120 -0.1077 -0.0793 -0.3749
38227TIP3    H115563   6.812   7.866   8.122 -1.0962 -0.9236 -1.1750
38227TIP3    H215564   6.740   7.959   8.027 -1.0657  0.0889 -0.2250
38228TIP3   OH215565   9.824   7.914   4.596 -0.2258 -0.5511  0.2634
38228TIP3    H115566   9.911   7.947   4.618  0.3117 -1.7925  0.1221
38228TIP3    H215567   9.841   7.828   4.558 -1.3741 -0.0228 -1.5760
38229TIP3   OH215568   7.748   8.882   8.203  0.2098  0.4985 -0.1449
38229TIP3    H115569   7.721   8.916   8.288 -0.8183 -0.2682 -0.1565
38229TIP3    H215570   7.840   8.858   8.215 -0.6435 -2.3554  1.6680
38230TIP3   OH215571   4.353   1.216   4.054  0.1642 -0.3205 -0.4232
38230TIP3    H115572   4.439   1.209   4.012  0.1911  0.3346 -0.4816
38230TIP3    H215573   4.304   1.278   4.000 -0.6306 -1.2764 -0.8406
38231TIP3   OH215574  10.350   9.615   8.985  0.3339  0.3643  0.3932
38231TIP3    H115575  10.355   9.632   8.891 -2.7066 -0.3868 -0.0113
38231TIP3    H215576  10.301   9.690   9.019 -0.6246 -0.4963  0.9549
38232TIP3   OH215577   7.471   8.855   3.068  0.0359 -0.0516  0.2047
38232TIP3    H115578   7.551   8.906   3.063  0.7405 -1.1629 -0.4015
38232TIP3    H215579   7.495   8.778   3.119 -1.2253  0.5897  1.8393
38233TIP3   OH215580   5.239   7.389   3.954 -0.0153  0.3605 -0.0482
38233TIP3    H115581   5.257   7.482   3.966 -0.2571  0.2082  1.9317
38233TIP3    H215582   5.153   7.386   3.911  0.2327  1.0340 -0.6095
38234TIP3   OH215583   5.566   2.844   4.689  0.3054  0.1276  0.6729
38234TIP3    H115584   5.551   2.878   4.601  1.1806 -1.0345  0.0478
38234TIP3    H215585   5.661   2.829   4.693  0.0598 -1.4465  1.1995
38235TIP3   OH215586   0.136   9.604   9.400 -0.2689 -0.3294 -0.0001
38235TIP3    H115587   0.135   9.510   9.419  1.8068 -0.0222  2.1656
38235TIP3    H215588   0.214   9.636   9.446 -1.8899  2.7423  0.8517
38236TIP3   OH215589   2.544   4.131   0.368  0.0788 -0.1779  0.1179
38236TIP3    H115590   2.535   4.226   0.368  1.2557 -0.0342  1.2645
38236TIP3    H215591   2.487   4.101   0.439  0.3987 -0.2401  0.3510
38237TIP3   OH215592   2.901   1.995   1.688 -0.8578 -0.2845  0.4276
38237TIP3    H115593   2.888   1.918   1.743 -0.9841  0.2053  1.0826
38237TIP3    H215594   2.840   2.060   1.721 -0.1589  0.3881  0.4241
38238TIP3   OH215595   0.490  10.484  10.478 -0.0515  0.3732 -0.2935
38238TIP3    H115596   0.576  10.467  10.439 -0.3602 -2.0565 -0.0531
38238TIP3    H215597   0.428  10.445  10.417 -0.7623 -0.6681  1.0439
38239TIP3   OH215598   2.973   3.543   3.221  0.3604  0.2297 -0.0423
38239TIP3    H115599   3.050   3.564   3.274  0.3395  1.1678 -0.3787
38239TIP3    H215600   2.988   3.452   3.193  0.5314 -0.1754  1.2689
38240TIP3   OH215601   9.025   1.063   8.947 -0.0606 -0.6807  0.0674
38240TIP3    H115602   8.935   1.066   8.978  0.0600 -0.6754  0.4163
38240TIP3    H215603   9.052   1.154   8.942  0.4572 -0.7287  1.5268
38241TIP3   OH215604   8.430   1.940   2.124 -0.2991  0.0763  0.4484
38241TIP3    H115605   8.343   1.946   2.164 -0.1473  1.1884  0.6477
38241TIP3    H215606   8.485   1.995   2.179 -0.2756  2.4768 -1.7869
38242TIP3   OH215607   3.673  10.886   0.339 -0.3750  0.2129 -0.0809
38242TIP3    H115608   3.670  10.904   0.433  1.1102 -1.9284  0.4490
38242TIP3    H215609   3.608  10.817   0.325 -0.1841  0.1163 -0.5215
38243TIP3   OH215610   0.891   7.899   1.518  0.0672 -0.0459  0.0326
38243TIP3    H115611   0.974   7.892   1.565  0.2800 -0.1679 -0.3542
38243TIP3    H215612   0.881   7.993   1.500  0.9711 -0.1791 -1.3921
38244TIP3   OH215613   8.376   3.768   4.497 -0.1374  0.0321  0.2253
38244TIP3    H115614   8.383   3.859   4.524 -0.7048 -0.3525  1.7889
38244TIP3    H215615   8.462   3.746   4.462  0.1904  0.9997  0.4090
38245TIP3   OH215616   7.982  10.369   1.956 -0.0556 -0.0525 -0.1758
38245TIP3    H115617   8.054  10.366   1.892 -0.1360 -0.2936 -0.2566
38245TIP3    H215618   7.972  10.462   1.976 -0.0053  0.0224 -0.4894
38246TIP3   OH215619   8.341   1.743   8.112  0.1917  0.2328 -0.2212
38246TIP3    H115620   8.356   1.740   8.017 -1.4112  0.0523 -0.5052
38246TIP3    H215621   8.284   1.668   8.129 -1.5801  1.6656  0.4538
38247TIP3   OH215622   5.890   7.953   7.460 -0.5678 -0.1018  0.1504
38247TIP3    H115623   5.940   7.879   7.494  0.2334  0.6208  0.5877
38247TIP3    H215624   5.840   7.917   7.386 -0.6552 -1.1983  0.7281
38248TIP3   OH215625   6.156   6.463   9.611 -0.1124  0.3220 -0.0208
38248TIP3    H115626   6.158   6.507   9.525  0.1503  0.8518  0.2509
38248TIP3    H215627   6.231   6.404   9.609  0.1441  0.6410 -0.0013
38249TIP3   OH215628  10.145   4.325   3.864  0.5241 -0.5825  0.5833
38249TIP3    H115629  10.198   4.315   3.784  0.1388 -0.4958  0.3125
38249TIP3    H215630  10.166   4.412   3.896  1.8031 -1.1719  1.4095
38250TIP3   OH215631   0.710   2.293   0.698 -0.1191  0.2031 -0.3268
38250TIP3    H115632   0.780   2.228   0.704 -0.5819 -0.1867  1.6979
38250TIP3    H215633   0.752   2.375   0.726 -1.0498 -0.6282  4.3752
38251TIP3   OH215634   9.218   1.884   3.563 -0.2205 -0.3194  0.5486
38251TIP3    H115635   9.300   1.842   3.590 -0.5219  0.1537  2.2890
38251TIP3    H215636   9.243   1.973   3.540 -0.1141 -0.4418  0.1809
38252TIP3   OH215637   3.456   3.589   0.438 -0.7148 -0.2080 -0.1157
38252TIP3    H115638   3.469   3.625   0.526 -1.7118 -0.0778 -0.0049
38252TIP3    H215639   3.384   3.640   0.401 -1.4462 -1.3626 -0.3586
38253TIP3   OH215640   8.860   6.469   9.662  0.4180  0.1715  0.1251
38253TIP3    H115641   8.944   6.454   9.620  0.7396 -1.4955  1.2517
38253TIP3    H215642   8.876   6.539   9.725  0.7968  0.2970 -0.1111
38254TIP3   OH215643   2.777   6.555   8.792  0.1779  0.2058 -0.2570
38254TIP3    H115644   2.825   6.544   8.710  0.6629 -0.0983  0.0606
38254TIP3    H215645   2.822   6.626   8.837  0.0979  0.1757 -0.1274
38255TIP3   OH215646   5.811   7.832   8.320 -0.3456 -0.1891 -0.0618
38255TIP3    H115647   5.729   7.841   8.368  0.3117  2.7771  0.7207
38255TIP3    H215648   5.879   7.850   8.385  0.8835 -1.1125 -1.0329
38256TIP3   OH215649   0.464   1.748   8.028  0.2961 -0.1190 -0.1548
38256TIP3    H115650   0.391   1.687   8.017  1.0581 -0.8517 -1.3740
38256TIP3    H215651   0.535   1.693   8.062  0.3449  0.5500  0.8431
38257TIP3   OH215652   5.591   7.006   4.892  0.0408  0.0353 -0.2038
38257TIP3    H115653   5.570   6.970   4.806  1.0221 -0.2243 -0.3406
38257TIP3    H215654   5.571   7.099   4.885  0.7679  0.1396 -0.9241
38258TIP3   OH215655   5.241   1.036   4.910  0.4415 -0.0894 -0.1380
38258TIP3    H115656   5.280   1.124   4.912  0.4702 -0.1124  0.8155
38258TIP3    H215657   5.149   1.051   4.887 -0.0066  0.3891  1.8323
38259TIP3   OH215658   0.037   8.216   7.125 -0.0354 -0.3170  0.0447
38259TIP3    H115659   0.117   8.265   7.143 -0.7785  0.6205  0.8898
38259TIP3    H215660   0.060   8.160   7.050  1.6453 -0.6998  0.8019
38260TIP3   OH215661   8.121   9.430   7.571  0.3326 -0.0686 -0.8145
38260TIP3    H115662   8.133   9.475   7.654 -0.8471  0.0387 -0.6861
38260TIP3    H215663   8.198   9.373   7.563  0.2284 -0.4487  0.5829
38261TIP3   OH215664   4.999   3.197   8.828 -0.2678 -0.4593  0.2516
38261TIP3    H115665   4.954   3.141   8.765 -0.7262  0.3242 -0.1300
38261TIP3    H215666   4.935   3.209   8.898 -0.2341 -0.2531  0.2452
38262TIP3   OH215667   6.644  10.627  10.273 -0.2896 -0.3944  0.5870
38262TIP3    H115668   6.612  10.545  10.236 -0.0733  0.3309 -1.3204
38262TIP3    H215669   6.739  10.616  10.276 -0.3208 -0.5148  1.0754
38263TIP3   OH215670  10.404   0.337   9.939  0.2713  0.2926  0.1367
38263TIP3    H115671  10.493   0.303   9.950 -0.3055 -1.0687  0.8250
38263TIP3    H215672  10.394   0.399  10.011  0.0910 -0.8684  1.1527
38264TIP3   OH215673   6.974   5.477   8.215  0.2384  0.1675  0.1474
38264TIP3    H115674   7.061   5.481   8.255 -0.2705 -0.0446  1.3251
38264TIP3    H215675   6.931   5.403   8.259 -0.5030  0.2038 -0.4956
38265TIP3   OH215676   1.291   0.770   6.653 -0.1885  0.5027  0.2314
38265TIP3    H115677   1.218   0.765   6.591 -0.9798 -1.3161  1.2453
38265TIP3    H215678   1.364   0.803   6.601 -0.6645 -1.5026 -1.8389
38266TIP3   OH215679   0.252   0.195   0.722  0.6889  0.0192 -0.2403
38266TIP3    H115680   0.163   0.231   0.721  0.9820  0.7800 -2.1868
38266TIP3    H215681   0.245   0.112   0.674  1.0669  0.2087 -0.6276
38267TIP3   OH215682  10.133   9.811   5.533 -0.5165 -0.2458 -0.3548
38267TIP3    H115683  10.210   9.774   5.490 -1.0529  0.0441 -1.6088
38267TIP3    H215684  10.061   9.754   5.506 -0.8323 -0.1962  0.3609
38268TIP3   OH215685   8.488   9.854   3.842 -0.0999  0.1937 -0.6364
38268TIP3    H115686   8.533   9.835   3.924  1.1092 -1.6285 -1.6507
38268TIP3    H215687   8.492   9.772   3.793 -5.0617 -0.3380 -0.6554
38269TIP3   OH215688   7.465   8.587   9.034 -0.0057 -0.1297  0.0945
38269TIP3    H115689   7.443   8.559   8.945  3.4963 -2.6832 -0.1499
38269TIP3    H215690   7.435   8.515   9.090  0.3994  0.1401  0.6686
38270TIP3   OH215691   4.283   2.925   5.334  0.1356  0.4743 -0.4128
38270TIP3    H115692   4.348   2.943   5.266 -0.0437 -0.1202 -0.7489
38270TIP3    H215693   4.332   2.929   5.416  0.6786 -0.3358 -0.6888
38271TIP3   OH215694  10.127   3.526   1.189  0.1565 -0.5272  0.1810
38271TIP3    H115695  10.206   3.521   1.134  1.2447 -0.0340  1.6378
38271TIP3    H215696  10.152   3.482   1.270 -1.0779 -0.3344  0.6852
38272TIP3   OH215697   1.492  10.432   0.558 -0.4558  0.3899 -0.0291
38272TIP3    H115698   1.434  10.355   0.558 -1.7164  1.2761 -1.2058
38272TIP3    H215699   1.481  10.469   0.471  1.7804  0.7246 -0.2025
38273TIP3   OH215700   0.759   3.256   0.043 -0.4892 -0.3301  0.1900
38273TIP3    H115701   0.686   3.266  -0.018  0.5661 -2.2048 -1.4970
38273TIP3    H215702   0.720   3.271   0.130 -2.3390  0.9869 -0.8030
38274TIP3   OH215703   7.807   8.906   7.503  0.0715 -0.0198  0.0832
38274TIP3    H115704   7.780   8.924   7.413 -0.2784  0.4865  0.2849
38274TIP3    H215705   7.878   8.969   7.519 -0.1810  0.2099  0.3133
38275TIP3   OH215706   0.153   3.720   1.138 -0.3667 -0.1128 -0.1197
38275TIP3    H115707   0.190   3.727   1.226 -0.4714 -1.8417  0.0844
38275TIP3    H215708   0.084   3.787   1.136  0.7908  1.1449  0.4883
38276TIP3   OH215709   6.779   2.695   2.145 -0.0447 -0.2738  0.2425
38276TIP3    H115710   6.771   2.656   2.058  0.7690 -1.5896  0.7161
38276TIP3    H215711   6.867   2.733   2.146 -1.3027  3.0337 -0.7116
38277TIP3   OH215712   2.391   2.894   8.153 -0.7567  0.2227  0.1560
38277TIP3    H115713   2.442   2.832   8.205  0.0732  1.2863  0.6375
38277TIP3    H215714   2.342   2.839   8.092 -1.0594 -0.9934  1.4480
38278TIP3   OH215715   4.689   4.784   6.721  1.0836 -0.1339 -0.4958
38278TIP3    H115716   4.670   4.843   6.648  1.5101  0.6086 -0.0099
38278TIP3    H215717   4.784   4.788   6.732  1.0814 -0.6663 -0.2478
38279TIP3   OH215718   6.370   5.268   9.506  0.1742  0.5502 -0.0956
38279TIP3    H115719   6.380   5.194   9.566  0.9915 -0.2902 -1.2312
38279TIP3    H215720   6.448   5.266   9.451 -0.1673  1.7935 -0.6751
38280TIP3   OH215721   1.173  10.340   9.689  0.4765 -0.3801 -0.2376
38280TIP3    H115722   1.162  10.403   9.761 -0.4634 -0.8624  0.0532
38280TIP3    H215723   1.263  10.354   9.660  0.3188  1.0550 -0.1424
38281TIP3   OH215724   9.858   2.072   8.219  0.1089 -0.6440 -0.4741
38281TIP3    H115725   9.916   2.012   8.265  1.3996  0.5540 -0.4772
38281TIP3    H215726   9.779   2.021   8.203  0.6543 -1.9222  0.6817
38282TIP3   OH215727   2.911   5.263   2.845  0.8810  0.0811 -0.2504
38282TIP3    H115728   2.886   5.347   2.806  1.2547  0.9559  1.3341
38282TIP3    H215729   2.924   5.282   2.938 -1.0136 -2.1358  0.5840
38283TIP3   OH215730   3.467   0.692   8.553  0.2935 -0.0229  0.4476
38283TIP3    H115731   3.472   0.676   8.647  0.4670  2.1387  0.8761
38283TIP3    H215732   3.374   0.683   8.532 -0.3085  2.5781  1.5576
38284TIP3   OH215733  10.081   8.450   3.189  0.2969  0.5028  0.0144
38284TIP3    H115734  10.088   8.431   3.282  0.2882 -0.4243 -0.1677
38284TIP3    H215735  10.150   8.396   3.148  1.0060  1.6904 -0.4141
38285TIP3   OH215736   9.344   6.885  10.846  0.9232 -0.4727 -0.2403
38285TIP3    H115737   9.389   6.872  10.763  1.2742  2.3801 -0.6062
38285TIP3    H215738   9.251   6.874  10.825  1.1416 -2.8187 -0.2584
38286TIP3   OH215739   1.691  10.626   8.024  0.4915 -0.4326  0.6770
38286TIP3    H115740   1.709  10.668   8.108  1.0334  1.0514 -0.1525
38286TIP3    H215741   1.607  10.581   8.038  0.6422 -0.3355  2.0429
38287TIP3   OH215742   2.283   5.546   8.842 -0.1960 -0.0458  0.1258
38287TIP3    H115743   2.248   5.515   8.926 -0.0241  0.3933  0.3628
38287TIP3    H215744   2.353   5.606   8.866 -1.5904  1.8484 -0.2860
38288TIP3   OH215745   6.472   5.544   9.787 -0.7531  0.5710 -0.3216
38288TIP3    H115746   6.382   5.525   9.763 -0.6601 -0.2311 -0.0574
38288TIP3    H215747   6.481   5.513   9.877  0.4760 -1.7676 -1.1668
38289TIP3   OH215748   1.452   2.283   1.800 -0.1047  0.2352  0.3216
38289TIP3    H115749   1.384   2.249   1.858 -0.0829  0.3772  0.4312
38289TIP3    H215750   1.414   2.362   1.761 -0.0648  0.2225  0.2561
38290TIP3   OH215751  10.441   0.173  10.339 -0.0919 -0.5023 -0.2609
38290TIP3    H115752  10.494   0.096  10.317 -1.7613 -1.4701 -1.0423
38290TIP3    H215753  10.506   0.243  10.350  1.4879 -2.0076  0.6107
38291TIP3   OH215754   6.040   4.318   8.573  0.9593  0.0130 -0.7920
38291TIP3    H115755   6.044   4.392   8.635  0.8736  0.6191 -1.4937
38291TIP3    H215756   6.016   4.243   8.627  0.6075  0.5876 -0.1291
38292TIP3   OH215757   6.981  10.027   7.967  0.1932 -0.0950 -0.1961
38292TIP3    H115758   6.997  10.075   8.048 -1.3719 -0.0819  0.1357
38292TIP3    H215759   7.064  10.031   7.920  0.9001  0.5599  1.0588
38293TIP3   OH215760   8.789  10.907   0.586  0.0758  0.0699  0.4398
38293TIP3    H115761   8.822  10.959   0.513  1.4335 -1.8518 -0.4139
38293TIP3    H215762   8.803  10.962   0.663 -2.3029  2.5522 -0.7633
38294TIP3   OH215763   8.110   8.715  10.537 -0.2404 -0.2901 -0.5766
38294TIP3    H115764   8.044   8.763  10.486  1.7000  2.5264 -0.6543
38294TIP3    H215765   8.123   8.769  10.616  0.9636 -1.5308  0.1139
38295TIP3   OH215766   3.279   5.030  10.445  0.8499 -0.2423  0.2798
38295TIP3    H115767   3.273   5.072  10.531 -0.3436  1.5600 -0.6180
38295TIP3    H215768   3.373   5.017  10.432  1.2754  1.8063  0.8175
38296TIP3   OH215769   9.896   8.215   6.475 -0.2087 -0.1797 -0.0571
38296TIP3    H115770   9.984   8.229   6.441  0.6034 -2.0508  1.1156
38296TIP3    H215771   9.850   8.171   6.404  0.3453 -0.7283 -0.0860
38297TIP3   OH215772   1.014   2.916   6.540 -0.1090  0.6561  0.2903
38297TIP3    H115773   1.079   2.984   6.523  0.2749  0.3151  0.3733
38297TIP3    H215774   0.963   2.949   6.614 -0.5605  1.2927 -0.2971
38298TIP3   OH215775   3.766   3.191   0.064  0.3761  0.3359  0.0256
38298TIP3    H115776   3.742   3.283   0.076  2.2458  1.0740 -1.2738
38298TIP3    H215777   3.821   3.170   0.139  0.1306  0.3647  0.2116
38299TIP3   OH215778   7.709   5.415   4.285 -0.5522 -0.1836  0.2904
38299TIP3    H115779   7.620   5.383   4.280 -0.6096 -0.0137  0.2292
38299TIP3    H215780   7.710   5.470   4.363 -0.2593 -0.9384  0.8342
38300TIP3   OH215781   0.100   0.009   0.569 -0.4370  0.3097 -0.2749
38300TIP3    H115782   0.048  -0.033   0.500 -1.1279  1.6887 -0.6353
38300TIP3    H215783   0.123  -0.062   0.628 -0.1480 -0.8586 -1.7163
38301TIP3   OH215784   6.601   5.143   9.118 -0.1053 -0.2303  0.2138
38301TIP3    H115785   6.525   5.201   9.117 -1.3128 -1.7027 -2.0269
38301TIP3    H215786   6.672   5.196   9.082 -0.3263  0.8127  1.2578
38302TIP3   OH215787   8.015   7.088   5.102 -0.2000  0.1430  1.0174
38302TIP3    H115788   8.018   7.176   5.140 -0.9180  0.2741  0.7835
38302TIP3    H215789   8.083   7.089   5.034 -2.1947  1.5555 -1.1385
38303TIP3   OH215790   3.197   4.447   6.885 -0.6006  0.3971 -0.3221
38303TIP3    H115791   3.202   4.390   6.808  0.5007  1.9695 -1.4861
38303TIP3    H215792   3.285   4.442   6.924 -1.0524 -0.1184  0.6605
38304TIP3   OH215793   5.529   2.387   5.564  0.2540  0.3756  0.0820
38304TIP3    H115794   5.601   2.334   5.531  1.9339  1.9872  1.0164
38304TIP3    H215795   5.482   2.328   5.624  0.6018 -0.7665 -0.7365
38305TIP3   OH215796   8.907   2.958  10.370  0.0880 -0.2154  0.3283
38305TIP3    H115797   8.861   2.878  10.344 -1.6127  0.8911 -0.2001
38305TIP3    H215798   8.972   2.972  10.301  0.3010 -1.0332  0.3498
38306TIP3   OH215799   6.075   9.933   0.259  0.0367  0.1358 -0.0368
38306TIP3    H115800   6.085  10.024   0.286 -1.0364  0.3534 -0.3256
38306TIP3    H215801   6.072   9.883   0.341 -2.5823  0.7214  0.3252
38307TIP3   OH215802   9.452   9.717   7.997  0.0349  0.2726  0.0152
38307TIP3    H115803   9.545   9.735   7.985 -0.1394 -0.1455 -2.5571
38307TIP3    H215804   9.446   9.622   8.001 -0.3420  0.2421 -0.9296
38308TIP3   OH215805   2.517   2.972   1.542 -0.3833  0.2887  0.1375
38308TIP3    H115806   2.469   3.030   1.482  0.9829  0.8932 -0.4018
38308TIP3    H215807   2.602   2.959   1.501  0.2936  0.0359  1.5411
38309TIP3   OH215808  10.343   6.632  10.357 -0.2773 -0.9674  0.5539
38309TIP3    H115809  10.378   6.550  10.389  1.0850  0.0429  1.8023
38309TIP3    H215810  10.286   6.664  10.427  0.1640 -0.2822  0.6134
38310TIP3   OH215811   9.850   4.839   9.038  0.0400  0.6935  0.4092
38310TIP3    H115812   9.774   4.895   9.054 -0.0830  0.8442 -0.6716
38310TIP3    H215813   9.874   4.856   8.947  0.2308 -0.7396  0.1714
38311TIP3   OH215814  10.883   7.242   6.794  0.6739  0.3038  0.4562
38311TIP3    H115815  10.918   7.265   6.880 -1.7456  0.4287  1.4757
38311TIP3    H215816  10.880   7.146   6.795  3.5163  0.1003 -0.7800
38312TIP3   OH215817  10.582   5.820   7.983  0.1816 -0.3911  0.6213
38312TIP3    H115818  10.578   5.724   7.991 -1.2957 -0.3192  1.1811
38312TIP3    H215819  10.631   5.835   7.903  0.1983 -1.6390  0.3701
38313TIP3   OH215820   3.712   8.108  10.245 -0.4238 -0.4808 -0.5088
38313TIP3    H115821   3.800   8.072  10.241 -0.4159 -0.3443 -2.4453
38313TIP3    H215822   3.705   8.164  10.168 -2.3311 -0.8162 -0.6307
38314TIP3   OH215823   3.254   5.778   1.066 -0.0374 -0.5019 -0.1740
38314TIP3    H115824   3.228   5.756   0.976  0.4062 -0.6884 -0.2628
38314TIP3    H215825   3.307   5.704   1.094  1.7317  0.5543 -0.5813
38315TIP3   OH215826   8.161   4.076   6.076 -0.1763  0.2928  0.1490
38315TIP3    H115827   8.179   4.059   6.168  0.3333  0.1529  0.0278
38315TIP3    H215828   8.156   4.171   6.069  0.2219  0.3228  0.2445
38316TIP3   OH215829   8.169   0.710   1.835 -0.8158 -0.2462 -0.2247
38316TIP3    H115830   8.233   0.683   1.902 -1.0230 -0.3029 -0.0472
38316TIP3    H215831   8.202   0.673   1.754 -0.9417 -0.7967 -0.0308
38317TIP3   OH215832   4.033   5.465   6.273 -0.3395 -0.3408 -0.3347
38317TIP3    H115833   4.001   5.546   6.313 -0.6510 -0.8985  0.5929
38317TIP3    H215834   4.117   5.449   6.315 -0.2806 -0.5052 -0.5129
38318TIP3   OH215835   8.905  10.811   2.199  0.2461  0.3550 -1.0363
38318TIP3    H115836   8.919  10.896   2.239 -0.3237  0.1404 -0.3578
38318TIP3    H215837   8.992  10.771   2.194  0.3176  0.3473  0.0860
38319TIP3   OH215838   1.858   1.976   3.763 -0.1440  0.6413 -0.3710
38319TIP3    H115839   1.864   2.008   3.853 -1.2973 -0.9773  0.3314
38319TIP3    H215840   1.801   2.040   3.720 -1.3095  0.3296  0.6383
38320TIP3   OH215841   5.904  10.193   8.122 -0.3425  0.3902  0.4193
38320TIP3    H115842   5.861  10.129   8.180 -0.7579  0.2495 -0.0346
38320TIP3    H215843   5.993  10.160   8.111 -0.0813  0.7143  1.4206
38321TIP3   OH215844   5.217   0.419   1.365  0.4249 -0.5799  0.1812
38321TIP3    H115845   5.299   0.405   1.317 -0.0550 -1.5709 -0.3716
38321TIP3    H215846   5.181   0.332   1.377 -0.4455 -0.1677  0.6315
38322TIP3   OH215847   8.517   3.085   9.998  0.5028 -0.0520  0.9117
38322TIP3    H115848   8.536   3.134  10.078 -2.0084  2.3478  0.2324
38322TIP3    H215849   8.469   3.148   9.943 -0.5846 -2.5371 -1.1893
38323TIP3   OH215850  10.835   7.634   9.991  0.6425 -0.2182 -0.1201
38323TIP3    H115851  10.764   7.577  10.020  0.2890 -0.9638 -2.2656
38323TIP3    H215852  10.792   7.717   9.969  0.9916  0.5481  1.8768
38324TIP3   OH215853   6.811   9.212   0.649  0.2230 -0.5765 -0.5481
38324TIP3    H115854   6.854   9.236   0.566  1.0178 -2.5502 -0.7503
38324TIP3    H215855   6.726   9.257   0.645  1.1461  1.2190 -1.3680
38325TIP3   OH215856  10.607   4.417   8.652  0.5612 -0.0700  0.1072
38325TIP3    H115857  10.592   4.346   8.715  3.4730  0.4242  1.4934
38325TIP3    H215858  10.619   4.372   8.568  0.3452 -1.0356  0.5742
38326TIP3   OH215859   2.569   0.344   0.870 -0.0946 -0.1630  0.1017
38326TIP3    H115860   2.599   0.383   0.952 -1.1635  1.3442 -0.1831
38326TIP3    H215861   2.552   0.252   0.891  0.2426  0.0584  1.3944
38327TIP3   OH215862   5.326   9.284   9.186 -0.8444 -0.3652  0.1403
38327TIP3    H115863   5.324   9.350   9.255  3.2843  0.5315 -0.2936
38327TIP3    H215864   5.364   9.207   9.228  1.9743  0.2765 -0.9570
38328TIP3   OH215865   3.996   1.164  10.112 -0.1620  0.0383  0.1528
38328TIP3    H115866   3.904   1.138  10.115  0.3109 -1.7437  3.0882
38328TIP3    H215867   4.044   1.083  10.128  1.7801  1.3349  1.3260
38329TIP3   OH215868   3.896   4.451   9.804 -0.2494 -0.0164  0.4605
38329TIP3    H115869   3.875   4.447   9.711  3.0614  1.1739 -0.4852
38329TIP3    H215870   3.861   4.535   9.833  0.1093  0.3601 -0.1670
38330TIP3   OH215871   4.404  10.458   9.084 -0.2078  0.0186  0.2008
38330TIP3    H115872   4.358  10.428   9.006 -2.3443  0.4453  1.2488
38330TIP3    H215873   4.408  10.553   9.075  1.6085 -0.0776 -0.4462
38331TIP3   OH215874   0.313   4.703   2.767 -0.1523 -0.2324  0.1840
38331TIP3    H115875   0.354   4.789   2.780 -0.0648 -0.0639 -1.0096
38331TIP3    H215876   0.327   4.656   2.849 -0.2847  0.9268  0.8898
38332TIP3   OH215877   6.748   2.034   7.784  0.6278  0.4101  0.4194
38332TIP3    H115878   6.735   2.005   7.874  1.1827 -1.0368  0.0571
38332TIP3    H215879   6.835   2.002   7.760 -0.2459 -0.9338 -1.2444
38333TIP3   OH215880   7.051  10.377   7.129  0.7552  0.3185 -0.8074
38333TIP3    H115881   7.138  10.393   7.166 -0.7061  0.7783  2.8724
38333TIP3    H215882   7.023  10.463   7.098  1.0960  0.4640 -0.7205
38334TIP3   OH215883   0.197   3.009   6.588  0.1564 -0.2415  0.3049
38334TIP3    H115884   0.246   3.090   6.574  0.1171 -0.0129  1.4271
38334TIP3    H215885   0.195   2.998   6.683 -0.8672 -0.9304  0.2179
38335TIP3   OH215886   9.928   1.112   7.665  0.0824  0.2574  0.2758
38335TIP3    H115887   9.970   1.193   7.694 -1.1817  1.4647 -1.1211
38335TIP3    H215888   9.978   1.043   7.708  0.7865  1.7831  2.0365
38336TIP3   OH215889   7.572   2.463  10.012 -0.6168 -0.1073 -0.1510
38336TIP3    H115890   7.633   2.530  10.042  1.6571 -1.2953 -1.7437
38336TIP3    H215891   7.498   2.511   9.975  0.0366  1.4495  0.5018
38337TIP3   OH215892   6.340   0.442   9.046  0.0685 -0.4789  0.2445
38337TIP3    H115893   6.383   0.389   8.979  0.0549 -2.2054  1.5329
38337TIP3    H215894   6.366   0.402   9.128 -1.3198  0.5040  1.2087
38338TIP3   OH215895   2.260   1.816   0.951 -0.0250  0.0386  0.6283
38338TIP3    H115896   2.218   1.747   1.003 -1.1778 -0.6063 -1.0601
38338TIP3    H215897   2.189   1.853   0.899  0.9419  1.1924  0.0858
38339TIP3   OH215898   9.729   7.221   1.875  0.4442  0.3263 -0.5147
38339TIP3    H115899   9.694   7.299   1.919 -0.6232  0.4901 -1.5983
38339TIP3    H215900   9.713   7.149   1.937  0.7130  0.8346  0.1551
38340TIP3   OH215901  10.871   2.414   4.510 -0.2677  0.4199 -0.4391
38340TIP3    H115902  10.796   2.415   4.451 -1.5517 -0.3919  1.0816
38340TIP3    H215903  10.835   2.382   4.593  2.0915 -1.6704 -0.1021
38341TIP3   OH215904   6.746   6.240   7.700  0.2153 -0.4717 -0.3051
38341TIP3    H115905   6.675   6.295   7.734  0.0424 -0.4480 -0.6993
38341TIP3    H215906   6.769   6.280   7.616 -1.1172 -2.0160 -1.4639
38342TIP3   OH215907   3.231   4.518   4.212  0.1598 -0.1410  0.3632
38342TIP3    H115908   3.221   4.612   4.231 -0.3622  0.3735 -2.1084
38342TIP3    H215909   3.141   4.486   4.206  0.3365 -0.7324  0.8680
38343TIP3   OH215910   2.069   5.452   9.036 -0.2707  0.4525 -0.2147
38343TIP3    H115911   2.067   5.548   9.045  0.4236  0.5097 -0.5881
38343TIP3    H215912   1.980   5.429   9.009 -1.5627  0.5818  3.3882
38344TIP3   OH215913   4.453   4.758   4.627 -0.1969  0.3381 -0.3512
38344TIP3    H115914   4.543   4.788   4.639 -0.3503  0.8863 -0.5437
38344TIP3    H215915   4.402   4.838   4.611 -0.4801 -0.0864 -1.6998
38345TIP3   OH215916  10.399   6.278  10.611 -0.4773 -0.7339  0.1521
38345TIP3    H115917  10.429   6.274  10.520 -0.5335 -1.3957  0.1594
38345TIP3    H215918  10.325   6.216  10.615 -0.8136 -0.3168  0.5201
38346TIP3   OH215919   2.421   4.260   8.456 -0.0774 -0.1205  0.0814
38346TIP3    H115920   2.365   4.182   8.451  1.2892 -1.0930 -0.7582
38346TIP3    H215921   2.366   4.326   8.497 -1.8636 -1.0026 -0.7879
38347TIP3   OH215922   9.746   2.195   6.241  0.0149 -0.1052 -0.6108
38347TIP3    H115923   9.694   2.241   6.175 -1.1750 -0.4608  0.0442
38347TIP3    H215924   9.795   2.263   6.286  0.3764  0.2051 -1.4599
38348TIP3   OH215925   2.504   4.334   4.206  0.3134 -0.1444 -0.3058
38348TIP3    H115926   2.470   4.267   4.146  0.7256 -1.6931  1.1180
38348TIP3    H215927   2.584   4.366   4.163  0.1045 -0.5481 -1.0117
38349TIP3   OH215928   1.224  10.661   8.214  0.6024  0.1072 -0.0697
38349TIP3    H115929   1.290  10.597   8.240  0.3750  0.1218  0.5553
38349TIP3    H215930   1.192  10.630   8.130  0.7400 -0.4119  0.0698
38350TIP3   OH215931   4.304   7.408   7.818 -0.0446 -0.8012 -0.8986
38350TIP3    H115932   4.283   7.484   7.872  1.6128 -0.0991 -1.1717
38350TIP3    H215933   4.223   7.358   7.813 -0.7357  0.1162  0.6309
38351TIP3   OH215934   0.528   9.548   2.295 -0.7605  0.0686  0.0232
38351TIP3    H115935   0.490   9.550   2.383 -1.0112  0.9108 -0.0967
38351TIP3    H215936   0.620   9.528   2.309 -1.0716 -1.2047  0.3720
38352TIP3   OH215937   7.731   1.520   2.739 -0.6930 -0.0134  0.0225
38352TIP3    H115938   7.796   1.568   2.688  0.7290 -2.2110 -0.3325
38352TIP3    H215939   7.648   1.563   2.716  0.2426  0.9324 -1.8888
38353TIP3   OH215940   3.301  10.325   5.862  0.0403 -0.2730  0.0859
38353TIP3    H115941   3.333  10.333   5.772 -0.2556  0.2945  0.0259
38353TIP3    H215942   3.362  10.264   5.904  0.0696 -0.6883 -0.5503
38354TIP3   OH215943   4.636   4.581   9.530 -0.3585  0.6418 -0.7577
38354TIP3    H115944   4.589   4.537   9.459 -4.3584 -0.1763  2.1048
38354TIP3    H215945   4.670   4.509   9.584  1.1163  1.2659 -0.7935
38355TIP3   OH215946   5.413   8.928   3.095 -0.3124  0.0314  0.3599
38355TIP3    H115947   5.399   8.923   3.001  0.8110  0.9220  0.1250
38355TIP3    H215948   5.326   8.936   3.133 -0.6896  1.4518 -0.7416
38356TIP3   OH215949   8.026  10.538   8.718 -0.0695 -0.8484 -0.3206
38356TIP3    H115950   8.083  10.583   8.655 -1.8184  0.2712 -1.2010
38356TIP3    H215951   8.045  10.580   8.802 -1.2531  1.2320 -1.0227
38357TIP3   OH215952   8.858   0.002   4.631 -0.5458 -0.3648  0.4912
38357TIP3    H115953   8.930  -0.060   4.640 -1.6227 -2.1349 -1.9287
38357TIP3    H215954   8.814  -0.001   4.716  0.1958 -1.9422  0.8670
38358TIP3   OH215955   8.728   1.659   9.454  0.1891 -0.2542 -0.4438
38358TIP3    H115956   8.672   1.732   9.478  0.7331 -0.2600  1.0101
38358TIP3    H215957   8.811   1.678   9.498  0.8026 -1.0372 -1.2268
38359TIP3   OH215958   7.777   3.796   8.991  0.5032 -0.2850 -0.9266
38359TIP3    H115959   7.869   3.771   8.999  0.6843  0.2404 -1.3449
38359TIP3    H215960   7.772   3.848   8.911  0.2739  1.6423  0.2753
38360TIP3   OH215961   3.149   8.436   0.352 -0.5854 -0.1564  0.1015
38360TIP3    H115962   3.147   8.517   0.302  3.3378 -0.0147 -0.1842
38360TIP3    H215963   3.128   8.368   0.288 -0.5121  0.4119 -0.5396
38361TIP3   OH215964   9.262   1.829   2.740  0.2444  0.6947  0.1841
38361TIP3    H115965   9.180   1.780   2.748 -0.0422  1.3232  1.2371
38361TIP3    H215966   9.235   1.919   2.724  0.7695  0.5110 -2.1457
38362TIP3   OH215967   6.963   1.022   3.175  0.1317 -0.0572 -0.1496
38362TIP3    H115968   6.930   1.111   3.185 -1.0038 -0.1390 -2.3525
38362TIP3    H215969   6.891   0.966   3.205  0.9904 -0.2735  1.6063
38363TIP3   OH215970   9.097   4.600   0.964 -0.4230 -0.3107 -0.0713
38363TIP3    H115971   9.072   4.691   0.982  0.8046 -0.0691  0.5126
38363TIP3    H215972   9.127   4.567   1.049  1.1840 -0.5854 -0.7309
38364TIP3   OH215973   1.161   9.208   8.419  0.3216 -0.0752  0.4455
38364TIP3    H115974   1.080   9.165   8.389  0.5555  0.5634 -1.2014
38364TIP3    H215975   1.194   9.152   8.488 -0.1751 -1.7509 -0.6272
38365TIP3   OH215976  10.169  10.481  10.830 -0.0513  0.5193  0.3726
38365TIP3    H115977  10.237  10.473  10.763 -0.6927 -2.2864 -0.0529
38365TIP3    H215978  10.092  10.511  10.781 -0.6136 -1.8507 -0.3414
38366TIP3   OH215979  10.827   7.670   3.841  0.3660 -0.4646  0.9244
38366TIP3    H115980  10.885   7.698   3.770  1.6340 -1.6273  1.4661
38366TIP3    H215981  10.739   7.690   3.808  0.9962  0.4632 -0.3087
38367TIP3   OH215982   1.456   8.138   1.300 -0.4242  0.3732 -0.4405
38367TIP3    H115983   1.488   8.077   1.233  0.6021  0.2288  0.1630
38367TIP3    H215984   1.489   8.223   1.272  1.7387  0.0436  0.8781
38368TIP3   OH215985   4.822   2.161   9.766 -0.3288 -0.1109 -0.0189
38368TIP3    H115986   4.837   2.197   9.854 -1.6163 -0.4170  0.3488
38368TIP3    H215987   4.780   2.233   9.718 -1.5557 -0.5988  0.2741
38369TIP3   OH215988   5.256   9.361   5.176  0.2113 -0.0145 -0.0308
38369TIP3    H115989   5.294   9.338   5.260 -0.1894  0.5760  0.3236
38369TIP3    H215990   5.229   9.452   5.186 -0.9019 -0.2812 -0.4039
38370TIP3   OH215991   9.573   9.500   1.980 -0.5376 -0.3756 -0.4350
38370TIP3    H115992   9.609   9.534   2.062 -0.5438  0.9125 -0.9350
38370TIP3    H215993   9.591   9.406   1.983  0.5364 -0.1672  0.5031
38371TIP3   OH215994   3.190   8.089   3.636  0.8191 -0.0352 -0.2258
38371TIP3    H115995   3.263   8.051   3.685  0.2208  2.0208  2.4393
38371TIP3    H215996   3.190   8.181   3.659 -2.2629  0.1615 -0.5692
38372TIP3   OH215997  10.048   8.846   8.598 -0.6094  0.3819 -0.0160
38372TIP3    H115998  10.077   8.810   8.514 -1.6399  1.5285 -0.9004
38372TIP3    H215999  10.129   8.854   8.650  0.0141 -0.5232 -0.8065
38373TIP3   OH216000   9.539   0.620   3.237 -0.1327  0.6982 -0.1311
38373TIP3    H116001   9.528   0.557   3.308 -1.3569 -0.0084 -0.9072
38373TIP3    H216002   9.532   0.706   3.279  0.0456  0.3025  0.7197
38374TIP3   OH216003   7.208   8.483   9.188  0.0936 -0.3310  0.8734
38374TIP3    H116004   7.165   8.458   9.106  0.2687  0.2840  0.5861
38374TIP3    H216005   7.214   8.401   9.238 -2.1340 -0.3138  1.2765
38375TIP3   OH216006   1.128   4.517   6.345 -0.5212  0.6422  0.2573
38375TIP3    H116007   1.126   4.452   6.415  0.5672  0.0405 -0.2575
38375TIP3    H216008   1.186   4.480   6.279 -0.5485  1.7645 -0.4160
38376TIP3   OH216009   0.816   4.993   8.156 -0.1206  0.1578 -0.0706
38376TIP3    H116010   0.825   4.898   8.144  0.9544  0.2401 -0.0037
38376TIP3    H216011   0.882   5.015   8.221  0.1625  1.0717 -0.6535
38377TIP3   OH216012   9.555   8.757   7.163 -0.1125 -0.2929  0.0648
38377TIP3    H116013   9.512   8.788   7.243 -0.0072  0.9596 -0.3400
38377TIP3    H216014   9.559   8.662   7.173 -0.0012 -0.1553  1.6031
38378TIP3   OH216015   7.248   3.819   0.061 -0.1000 -0.1448 -0.2203
38378TIP3    H116016   7.343   3.830   0.055  0.0214 -1.5533 -1.4372
38378TIP3    H216017   7.232   3.729   0.032 -1.7206 -0.3209  1.0556
38379TIP3   OH216018   3.530   9.129   3.714  0.1074  0.1824  0.2083
38379TIP3    H116019   3.524   9.176   3.631 -1.0602  1.4557  0.9853
38379TIP3    H216020   3.518   9.195   3.781 -0.2419 -1.0223  1.3825
38380TIP3   OH216021   4.077   6.979   5.688 -0.0171  0.2158 -0.0219
38380TIP3    H116022   4.083   6.946   5.778  0.2544  0.5551  0.0863
38380TIP3    H216023   4.144   6.932   5.640 -0.3113 -0.1266 -0.0946
38381TIP3   OH216024  10.368   0.010   6.203  0.4750 -0.4129 -0.1258
38381TIP3    H116025  10.388  -0.070   6.155  0.4565  0.4490 -1.6404
38381TIP3    H216026  10.369   0.079   6.136  3.1621  1.3051  1.4878
38382TIP3   OH216027   3.448   8.519   1.353 -0.0441 -0.1326 -0.2342
38382TIP3    H116028   3.435   8.585   1.421 -1.0156 -0.0941 -0.4535
38382TIP3    H216029   3.497   8.566   1.285  0.2125  0.0558  0.0752
38383TIP3   OH216030  10.898   2.953   9.680  0.5574 -0.1213  0.3275
38383TIP3    H116031  10.846   2.895   9.735  1.6105 -0.1826  1.2939
38383TIP3    H216032  10.989   2.936   9.706  0.8995  2.0076  0.7212
38384TIP3   OH216033   5.004   0.371   5.839 -0.6669 -0.5268 -0.5135
38384TIP3    H116034   5.075   0.375   5.905 -0.4174  0.0050 -0.8061
38384TIP3    H216035   5.040   0.318   5.769 -0.3229  0.2375 -0.9283
38385TIP3   OH216036   1.828   9.763   9.282  0.0418  0.4601  0.3008
38385TIP3    H116037   1.833   9.667   9.281 -1.4968  0.3629  0.4192
38385TIP3    H216038   1.830   9.786   9.375  4.7408  0.8988  0.3609
38386TIP3   OH216039   7.477   2.990   9.214 -0.4033 -0.5570  0.1928
38386TIP3    H116040   7.512   2.909   9.249  1.2368 -0.3761 -0.9074
38386TIP3    H216041   7.420   2.963   9.141  1.2952 -0.7165 -1.1315
38387TIP3   OH216042   9.605   2.111   7.804 -0.3757  1.2280  0.2276
38387TIP3    H116043   9.624   2.032   7.855 -0.5243  0.5980 -0.6806
38387TIP3    H216044   9.514   2.100   7.775  0.5653  0.1477 -2.6381
38388TIP3   OH216045   9.424   3.975   3.152  0.2741 -0.5384 -0.2191
38388TIP3    H116046   9.443   3.913   3.082 -1.8462 -0.4404 -0.9553
38388TIP3    H216047   9.343   4.018   3.124 -0.2666 -0.0174  1.9921
38389TIP3   OH216048   2.797   9.229   6.777  0.5248  0.7561 -0.2145
38389TIP3    H116049   2.716   9.193   6.812  0.9308 -0.8681 -0.8559
38389TIP3    H216050   2.838   9.273   6.851 -0.0902  0.0587  0.5584
38390TIP3   OH216051   8.388   0.900   8.847  0.5322  0.0680 -0.3955
38390TIP3    H116052   8.393   0.991   8.874  0.5735  0.1492 -0.6725
38390TIP3    H216053   8.436   0.897   8.764 -3.6981  0.8435 -3.1687
38391TIP3   OH216054   4.663   9.454   8.284  0.3540 -0.7768  0.5086
38391TIP3    H116055   4.701   9.412   8.207  0.9090  0.4707  0.0730
38391TIP3    H216056   4.729   9.517   8.312 -0.2894 -0.4592  1.3740
38392TIP3   OH216057   1.888   5.661  10.698 -0.4932  0.6322  0.0621
38392TIP3    H116058   1.795   5.644  10.706 -0.0217 -1.3621  2.6681
38392TIP3    H216059   1.917   5.678  10.788  2.1566 -2.0480 -0.1424
38393TIP3   OH216060   6.810   6.759   2.999 -0.0961  0.0963  0.3972
38393TIP3    H116061   6.852   6.677   2.976  0.4061  0.7573 -1.1645
38393TIP3    H216062   6.868   6.798   3.065  0.7530  0.1057 -0.3325
38394TIP3   OH216063   6.688   1.229   3.410 -0.0175 -0.1336 -0.4357
38394TIP3    H116064   6.713   1.168   3.480 -0.5749  0.9318  0.7422
38394TIP3    H216065   6.630   1.179   3.354  1.1658 -1.2911 -0.6805
38395TIP3   OH216066   3.390   0.342   4.360 -0.4138 -0.5391 -0.0306
38395TIP3    H116067   3.304   0.328   4.319 -0.7006 -0.5182  0.5442
38395TIP3    H216068   3.411   0.257   4.398  0.1396 -0.7303 -0.7414
38396TIP3   OH216069   0.312   4.113   2.149  0.3893  0.0774 -0.5730
38396TIP3    H116070   0.326   4.198   2.107  0.4600  0.0953 -0.5120
38396TIP3    H216071   0.396   4.069   2.141  0.3314 -0.0164 -0.6717
38397TIP3   OH216072   7.228   8.159   0.615  0.2959 -0.1303 -0.0861
38397TIP3    H116073   7.253   8.247   0.587 -0.2105 -0.4013 -1.4929
38397TIP3    H216074   7.281   8.101   0.561  1.6563 -0.7390  1.7906
38398TIP3   OH216075   2.309   2.242   4.282  0.5627 -0.3148  0.2204
38398TIP3    H116076   2.272   2.168   4.331 -2.0748 -0.0686 -1.2327
38398TIP3    H216077   2.332   2.306   4.349 -0.4516 -1.0330  1.2923
38399TIP3   OH216078   2.679   3.903   4.738  0.2096  0.8836  0.2536
38399TIP3    H116079   2.736   3.922   4.812  1.5520 -0.1513 -0.4796
38399TIP3    H216080   2.713   3.957   4.667  1.9992 -1.6213 -0.9172
38400TIP3   OH216081   0.505  10.157   3.307  0.4137 -0.0092 -0.8912
38400TIP3    H116082   0.513  10.246   3.272 -2.5931  0.1211 -1.4971
38400TIP3    H216083   0.486  10.103   3.231 -0.2198 -0.7542 -0.2186
38401TIP3   OH216084   3.814   0.984   2.437  0.1423 -0.3586  0.0335
38401TIP3    H116085   3.769   0.963   2.519  1.3313 -3.2666  0.0803
38401TIP3    H216086   3.748   1.030   2.385 -0.7986  1.1401  2.3778
38402TIP3   OH216087   3.127   1.524   9.001  0.3199  0.7810 -0.3471
38402TIP3    H116088   3.086   1.574   9.071  2.5051  2.1841  0.0328
38402TIP3    H216089   3.059   1.463   8.972 -0.9282  0.7303  2.3720
38403TIP3   OH216090   9.004   6.641   3.000  0.1438 -0.0374 -0.2050
38403TIP3    H116091   9.014   6.736   2.991 -0.2353 -0.0810 -1.1786
38403TIP3    H216092   8.955   6.629   3.081  0.5896  0.5703  0.1623
38404TIP3   OH216093   3.097   3.934   4.864  0.5391 -0.1552 -0.3222
38404TIP3    H116094   3.170   3.912   4.922  1.7735  2.0967 -0.8778
38404TIP3    H216095   3.133   3.921   4.776  0.1238  0.4883 -0.5952
38405TIP3   OH216096   0.000   1.925   9.367  0.2285  0.4202 -0.0975
38405TIP3    H116097   0.058   1.850   9.354 -0.4775 -0.0794 -0.4373
38405TIP3    H216098   0.046   1.999   9.328  1.3522  0.3662  1.0474
38406TIP3   OH216099   7.028   8.222   1.415 -0.1424 -0.1937  0.0360
38406TIP3    H116100   7.015   8.127   1.414  1.4081 -0.4399  0.9627
38406TIP3    H216101   7.028   8.247   1.323  0.1100 -1.1918 -0.2472
38407TIP3   OH216102   8.809   5.569   0.990 -0.6309 -0.7060  0.1258
38407TIP3    H116103   8.861   5.544   0.914  0.9595 -0.6651  1.1561
38407TIP3    H216104   8.742   5.501   0.997 -0.8115 -0.7104 -1.2918
38408TIP3   OH216105   2.969   2.525   8.131 -0.4148 -0.0778  0.8429
38408TIP3    H116106   3.052   2.571   8.146 -0.3740 -0.5444  2.1419
38408TIP3    H216107   2.907   2.595   8.110  0.5095  0.1917 -1.2699
38409TIP3   OH216108   8.904   1.482   9.125 -0.2481 -0.4783 -0.5377
38409TIP3    H116109   8.956   1.515   9.199  1.6568 -0.9984 -1.5777
38409TIP3    H216110   8.847   1.416   9.165  0.1036 -0.1246  0.6088
38410TIP3   OH216111   0.500   9.590   3.115 -0.0600 -0.4036  0.0607
38410TIP3    H116112   0.452   9.512   3.144 -0.3631 -0.4589 -0.5821
38410TIP3    H216113   0.592   9.563   3.114  0.0546 -0.1771  1.7026
38411TIP3   OH216114   8.907   2.985  10.046  0.1588  0.5149 -0.3390
38411TIP3    H116115   8.901   3.019   9.957  0.6651 -0.8263 -0.9144
38411TIP3    H216116   8.914   3.063  10.101 -2.7405  1.4999 -1.1866
38412TIP3   OH216117   4.512   8.317   0.798  0.0667  0.3814 -0.1741
38412TIP3    H116118   4.538   8.370   0.723 -0.8068  2.1550  0.7263
38412TIP3    H216119   4.447   8.256   0.762 -1.3764  2.1122 -0.6814
38413TIP3   OH216120   7.238   4.816   0.252  0.3353 -0.0714 -0.5698
38413TIP3    H116121   7.233   4.906   0.283  1.0284 -0.1088 -0.3512
38413TIP3    H216122   7.300   4.819   0.179  1.2875 -0.5685  0.1900
38414TIP3   OH216123   2.882   3.904   4.104 -0.3296  0.0844 -0.3703
38414TIP3    H116124   2.860   3.922   4.195 -0.1873  1.1276 -0.5259
38414TIP3    H216125   2.971   3.938   4.094 -0.7718  1.0688 -1.1885
38415TIP3   OH216126  10.030   0.823   7.377 -0.2908 -0.2979 -0.5372
38415TIP3    H116127  10.025   0.771   7.297  2.4235  0.8781 -1.5828
38415TIP3    H216128   9.953   0.880   7.373 -0.6873 -0.8772 -1.8338
38416TIP3   OH216129   9.735   2.495   9.397  0.2089 -0.1297  0.3210
38416TIP3    H116130   9.672   2.497   9.469 -0.8028  0.1633 -0.5667
38416TIP3    H216131   9.691   2.447   9.327  1.6236 -1.4583  0.2644
38417TIP3   OH216132   6.159   4.042   0.023 -0.9264 -0.1035 -0.4254
38417TIP3    H116133   6.117   4.011  -0.058 -0.5428 -2.7827  0.3047
38417TIP3    H216134   6.236   4.090  -0.008 -0.7496 -1.1223 -1.6777
38418TIP3   OH216135   3.442   0.325   5.006  0.0186 -0.6238  0.0649
38418TIP3    H116136   3.499   0.297   4.935  0.5466  0.3259  0.1031
38418TIP3    H216137   3.451   0.256   5.072  0.9098 -0.6203 -0.0414
38419TIP3   OH216138   8.299   3.397   2.798 -0.2545 -0.4158 -0.1248
38419TIP3    H116139   8.363   3.329   2.820  0.4372 -0.0461 -0.9303
38419TIP3    H216140   8.339   3.478   2.831 -0.8162 -0.3143  0.3280
38420TIP3   OH216141   2.326   9.719  10.043 -0.4969 -0.4312 -0.4985
38420TIP3    H116142   2.361   9.763   9.965 -0.1213 -1.1286 -0.7282
38420TIP3    H216143   2.260   9.779  10.076  2.2201  1.9551  1.1229
38421TIP3   OH216144   1.451   1.807   5.326 -0.1418 -0.3439 -0.6228
38421TIP3    H116145   1.503   1.799   5.406  0.3262 -0.4029 -0.9316
38421TIP3    H216146   1.494   1.749   5.263  0.5427  1.0134 -1.4564
38422TIP3   OH216147   2.600   1.502   1.368 -0.0019  0.7324 -0.4267
38422TIP3    H116148   2.600   1.594   1.397  1.4252  1.2596 -1.9490
38422TIP3    H216149   2.561   1.504   1.281  1.6480  0.1894 -1.2135
38423TIP3   OH216150   2.131   3.903   8.997 -0.1901  0.1086  0.2160
38423TIP3    H116151   2.183   3.914   9.077 -1.8058  0.9817  1.2086
38423TIP3    H216152   2.045   3.937   9.020 -0.6986  0.4259 -1.9363
38424TIP3   OH216153   6.204   7.556   9.853 -0.2348 -0.5738  0.6098
38424TIP3    H116154   6.296   7.557   9.881  0.3081 -2.2006 -0.9864
38424TIP3    H216155   6.208   7.552   9.758 -1.9388 -1.9028  0.5584
38425TIP3   OH216156   9.237   6.398   7.356 -0.0482 -0.5580 -0.0473
38425TIP3    H116157   9.153   6.374   7.317  0.4920 -2.6595 -0.0919
38425TIP3    H216158   9.248   6.491   7.338 -1.0785 -0.8510 -2.5211
38426TIP3   OH216159   6.240   5.043   3.677 -0.9752  0.2580  0.2523
38426TIP3    H116160   6.336   5.048   3.680 -1.0484  1.7228  0.8590
38426TIP3    H216161   6.214   5.121   3.628 -1.7869 -1.3752 -2.0951
38427TIP3   OH216162   5.329   9.889   2.370  0.0123 -0.0367  0.6643
38427TIP3    H116163   5.409   9.839   2.352  0.2002  0.8053 -1.0529
38427TIP3    H216164   5.357   9.981   2.366 -0.5216  0.2733  2.8024
38428TIP3   OH216165   2.525   7.857   0.759 -0.3855 -0.4957 -0.0360
38428TIP3    H116166   2.507   7.830   0.669  0.7912  1.6754 -0.9885
38428TIP3    H216167   2.486   7.944   0.767 -0.6056 -0.7045  1.6396
38429TIP3   OH216168   6.360   4.246   6.049  0.1929 -0.0443  0.5472
38429TIP3    H116169   6.266   4.255   6.062 -0.0222  0.4983 -1.1555
38429TIP3    H216170   6.370   4.169   5.993  0.6818  0.4056 -0.0032
38430TIP3   OH216171   0.391   7.637   4.890 -0.0036  0.4152  0.3462
38430TIP3    H116172   0.479   7.601   4.903 -1.1944 -2.5021  0.9231
38430TIP3    H216173   0.396   7.725   4.927  2.7306  0.4778  0.0482
38431TIP3   OH216174   9.661   3.031   4.576 -0.5697 -0.5582 -0.1712
38431TIP3    H116175   9.737   3.089   4.565 -1.5698  0.9913  0.7467
38431TIP3    H216176   9.699   2.944   4.589  0.9782 -0.1597 -1.6679
38432TIP3   OH216177   0.841   4.756   3.191 -0.4278  0.6316 -0.1525
38432TIP3    H116178   0.849   4.834   3.247 -0.7372  0.3210  0.3335
38432TIP3    H216179   0.897   4.691   3.234 -0.1180  0.6048 -0.5932
38433TIP3   OH216180   3.866  10.525   1.297  0.1232  0.3008 -0.6627
38433TIP3    H116181   3.879  10.561   1.384 -2.3784  2.6708 -1.1449
38433TIP3    H216182   3.781  10.482   1.301  1.0805 -1.7821 -1.3303
38434TIP3   OH216183   7.790   5.880   1.317 -0.3008  0.2295  0.0093
38434TIP3    H116184   7.786   5.820   1.391  3.9142 -1.4460 -0.8593
38434TIP3    H216185   7.832   5.958   1.352  0.5340 -0.0649 -0.3265
38435TIP3   OH216186   6.281  10.750  10.662  0.5685 -0.1158  0.5978
38435TIP3    H116187   6.347  10.680  10.658  0.2273 -0.5235  1.7118
38435TIP3    H216188   6.331  10.831  10.663  0.9456 -0.1711 -2.7993
38436TIP3   OH216189   4.226   5.277   2.731 -0.2936  0.5775  0.2496
38436TIP3    H116190   4.138   5.247   2.756  0.2975 -1.0950  0.4869
38436TIP3    H216191   4.238   5.243   2.642 -0.7282  2.7928 -0.7231
38437TIP3   OH216192   3.920   1.530   8.714  0.3880  0.0770  0.4105
38437TIP3    H116193   3.875   1.543   8.631 -0.2711 -0.1563  0.7264
38437TIP3    H216194   3.998   1.479   8.692  0.0619 -0.2374 -0.0198
38438TIP3   OH216195   9.460   3.725   1.984 -0.2421 -0.3933 -0.3967
38438TIP3    H116196   9.401   3.769   2.045 -0.6598 -1.4152 -0.0438
38438TIP3    H216197   9.407   3.708   1.907  0.8791  3.0314 -2.1232
38439TIP3   OH216198   1.919   9.415   0.334 -0.5145 -0.1929  0.4192
38439TIP3    H116199   1.970   9.338   0.363 -0.1803 -0.2421 -0.2789
38439TIP3    H216200   1.976   9.489   0.355 -0.5894 -0.1750  0.5596
38440TIP3   OH216201   5.831   5.578   8.058 -0.1431 -0.0144 -0.6201
38440TIP3    H116202   5.814   5.591   7.965 -0.1218 -0.9196 -0.7546
38440TIP3    H216203   5.759   5.524   8.089  0.6955 -1.0931 -0.4772
38441TIP3   OH216204   5.816   9.869   5.387  0.5191 -0.2375  0.3199
38441TIP3    H116205   5.819   9.838   5.296  0.3374  0.4282  0.0839
38441TIP3    H216206   5.723   9.882   5.405  0.6331  0.9134  0.1540
38442TIP3   OH216207   0.930   0.908   4.791  0.2551  0.0798  0.4497
38442TIP3    H116208   0.835   0.902   4.805 -0.0240  0.4064 -1.1609
38442TIP3    H216209   0.954   0.995   4.825 -0.2210  0.4475 -0.1387
38443TIP3   OH216210   8.201   9.766   8.102  0.0950  0.0076  0.0595
38443TIP3    H116211   8.274   9.732   8.153  0.5815  0.9228 -0.0075
38443TIP3    H216212   8.124   9.722   8.139  0.6527 -0.8824  0.1989
38444TIP3   OH216213   2.704   3.771   9.385  0.4603  0.2790  0.2793
38444TIP3    H116214   2.682   3.678   9.390 -1.6405  0.6952 -0.0227
38444TIP3    H216215   2.799   3.775   9.394  0.5331 -1.8467  0.7948
38445TIP3   OH216216  10.747   5.869   6.092 -0.1201  0.0572  0.3934
38445TIP3    H116217  10.834   5.903   6.073  0.3963 -1.0127  0.7491
38445TIP3    H216218  10.690   5.946   6.092  1.1123  1.0452  1.9260
38446TIP3   OH216219   2.322   9.706   2.981 -0.4554 -0.6152  0.1253
38446TIP3    H116220   2.412   9.677   2.996  0.7227  2.6984  0.2722
38446TIP3    H216221   2.288   9.728   3.068  0.8854  3.8065 -0.2097
38447TIP3   OH216222   5.990   0.928   0.012  0.4518  0.0103  0.4274
38447TIP3    H116223   5.929   0.857   0.032 -2.0182  1.2512 -2.0117
38447TIP3    H216224   6.013   0.965   0.097  0.2203 -2.3861  1.6195
38448TIP3   OH216225   2.317   0.746   1.676  0.0911  0.4200  0.2780
38448TIP3    H116226   2.376   0.821   1.667  0.0085  0.3883 -0.6442
38448TIP3    H216227   2.245   0.765   1.616 -0.0192 -0.3057  0.1662
38449TIP3   OH216228   4.078   2.842  10.362  0.3994  0.3791 -0.2344
38449TIP3    H116229   4.129   2.762  10.352  0.9384  0.5342  1.1236
38449TIP3    H216230   4.057   2.868  10.272  0.1771 -1.2889 -0.6880
38450TIP3   OH216231   1.440   2.459   8.341 -0.0826 -0.9914  0.5915
38450TIP3    H116232   1.428   2.391   8.275 -3.0049  2.3817 -2.9097
38450TIP3    H216233   1.367   2.447   8.402  0.2888 -1.8006  0.8881
38451TIP3   OH216234  10.574   2.694   0.183 -0.0104 -0.2082  0.2385
38451TIP3    H116235  10.537   2.643   0.255 -2.4171  0.5430 -0.3521
38451TIP3    H216236  10.517   2.676   0.109  1.8519 -0.2302 -1.2661
38452TIP3   OH216237   1.433   6.578   3.072 -0.2415 -0.3065  0.3129
38452TIP3    H116238   1.485   6.637   3.018  1.1318 -1.0334  0.7923
38452TIP3    H216239   1.444   6.610   3.161  2.7616 -2.7055  0.9858
38453TIP3   OH216240   9.943   2.295   4.789  0.5405  0.1731 -0.5113
38453TIP3    H116241   9.893   2.216   4.813  1.2690 -0.6151 -1.5176
38453TIP3    H216242   9.970   2.332   4.873  1.4863 -1.5214 -0.0158
38454TIP3   OH216243   2.959   1.352   4.713 -0.4819 -0.1215 -0.1258
38454TIP3    H116244   2.965   1.291   4.640 -0.5075 -0.0278 -0.2052
38454TIP3    H216245   2.872   1.337   4.750 -0.3285 -0.4352  0.1183
38455TIP3   OH216246   2.572   1.870  10.072  0.7252  0.2811 -0.4787
38455TIP3    H116247   2.667   1.861  10.060  0.8004  1.6664 -1.1524
38455TIP3    H216248   2.544   1.926   9.999 -0.4348  0.7865  0.3250
38456TIP3   OH216249   4.118   5.234   4.782 -0.0775 -0.3935 -0.3108
38456TIP3    H116250   4.102   5.142   4.761 -0.7280 -0.3672  0.0485
38456TIP3    H216251   4.060   5.282   4.724 -0.4458 -0.2489  0.1711
38457TIP3   OH216252   1.765   6.695   9.762 -0.1140 -0.4497 -0.0187
38457TIP3    H116253   1.779   6.600   9.763  0.8233 -0.3171  0.8110
38457TIP3    H216254   1.743   6.715   9.671 -0.4814 -1.4753 -0.1711
38458TIP3   OH216255   3.059  10.474   0.601  0.2593  0.6997 -0.0103
38458TIP3    H116256   3.083  10.567   0.609 -0.0314  1.0247 -2.3402
38458TIP3    H216257   2.982  10.473   0.544 -0.0076 -0.9537  0.3254
38459TIP3   OH216258   8.684   1.771   2.752  0.3751 -0.5712  0.0345
38459TIP3    H116259   8.739   1.830   2.804 -0.2757 -0.5328  0.6887
38459TIP3    H216260   8.659   1.824   2.675  0.7946 -0.4083  0.0065
38460TIP3   OH216261   5.412  10.064   0.724 -0.0474  0.5622 -0.3390
38460TIP3    H116262   5.370   9.979   0.715  1.2566 -0.1536  0.0184
38460TIP3    H216263   5.341  10.123   0.750 -0.8552 -0.5445  0.0537
38461TIP3   OH216264   9.256   3.591   6.703 -0.1259 -0.3658  0.6446
38461TIP3    H116265   9.209   3.552   6.777 -0.1726  0.3210  0.9876
38461TIP3    H216266   9.317   3.653   6.744 -2.5998  2.7274  0.0358
38462TIP3   OH216267  10.347   2.445   0.270 -0.1555  0.1828 -0.6462
38462TIP3    H116268  10.380   2.504   0.339 -1.1299  0.2541 -0.2216
38462TIP3    H216269  10.392   2.362   0.286 -1.4289 -0.2511  1.0214
38463TIP3   OH216270   1.147   6.047   0.644  0.2096 -0.0201  0.3017
38463TIP3    H116271   1.240   6.055   0.664 -0.4133  1.4813  3.3002
38463TIP3    H216272   1.136   6.096   0.562  1.7398  2.0026  1.2057
38464TIP3   OH216273  10.667   6.313   1.740 -0.1506 -0.3964  0.4276
38464TIP3    H116274  10.596   6.274   1.689  0.3075 -0.7325  0.0347
38464TIP3    H216275  10.647   6.406   1.742 -0.4374 -0.4497  0.0494
38465TIP3   OH216276   9.222  10.591   3.878 -0.3676 -0.3233 -0.2316
38465TIP3    H116277   9.296  10.543   3.913 -0.0378  0.1486 -0.2725
38465TIP3    H216278   9.247  10.613   3.788 -0.4610  0.0328 -0.1718
38466TIP3   OH216279   5.762   2.373   5.430 -0.0421 -0.1083  0.7386
38466TIP3    H116280   5.856   2.370   5.445 -0.3208 -2.4552  2.5992
38466TIP3    H216281   5.732   2.449   5.481  0.7118  0.0524  0.9468
38467TIP3   OH216282   2.631   8.824   8.842 -0.0861 -0.0306 -0.2071
38467TIP3    H116283   2.726   8.814   8.834  0.0056 -1.0007  1.5994
38467TIP3    H216284   2.609   8.780   8.924 -2.4355 -1.9018 -1.7181
38468TIP3   OH216285   8.870   9.213   2.485  0.4263  0.6301  0.3383
38468TIP3    H116286   8.958   9.243   2.464  0.1604  1.3889  0.2674
38468TIP3    H216287   8.826   9.207   2.400  0.0421  1.4779  0.4621
38469TIP3   OH216288   3.243   9.089   2.219 -0.4238 -0.0517 -0.1644
38469TIP3    H116289   3.163   9.056   2.260 -0.7696 -1.5023 -1.8737
38469TIP3    H216290   3.300   9.012   2.211  0.3301  0.5458 -0.7761
38470TIP3   OH216291   6.266   7.943   4.179  0.5404  0.7049  0.2138
38470TIP3    H116292   6.202   8.007   4.209  2.0651  1.9218  1.0104
38470TIP3    H216293   6.338   7.996   4.145  1.8301 -0.5959  0.8496
38471TIP3   OH216294   6.932   4.819   6.819 -0.5707  0.2908 -0.0391
38471TIP3    H116295   6.854   4.866   6.849  0.5419  0.9874  1.9647
38471TIP3    H216296   6.977   4.880   6.760 -0.5635  0.6383  0.3283
38472TIP3   OH216297   0.982   0.662   9.318  0.4054 -0.2529  0.4122
38472TIP3    H116298   0.976   0.577   9.362  1.2408 -0.1553  0.7233
38472TIP3    H216299   0.984   0.640   9.224 -0.3235 -0.5184  0.4552
38473TIP3   OH216300   8.953   3.171   7.201  0.0410 -0.2089  0.5150
38473TIP3    H116301   9.047   3.158   7.206  0.4800  1.1554 -2.2785
38473TIP3    H216302   8.923   3.110   7.134 -0.9722 -0.2011  0.9341
38474TIP3   OH216303  10.572   3.383   9.279  0.2622  0.3364  0.5723
38474TIP3    H116304  10.638   3.416   9.340  0.4632  1.4171 -0.2096
38474TIP3    H216305  10.612   3.304   9.241  1.9660  1.9602 -1.2648
38475TIP3   OH216306   7.246   3.949   0.295 -0.0236 -0.1571 -0.0432
38475TIP3    H116307   7.250   3.917   0.205  0.7815  0.6252 -0.3068
38475TIP3    H216308   7.184   4.023   0.291 -0.0356 -0.1617  0.0592
38476TIP3   OH216309   9.335   7.813   5.707  0.3169  0.3292  0.2989
38476TIP3    H116310   9.249   7.856   5.714  1.2539  2.1716  1.3019
38476TIP3    H216311   9.369   7.843   5.623  0.5985  0.8717  0.5985
38477TIP3   OH216312  10.351   8.561   0.158 -0.1146 -0.2647  0.3938
38477TIP3    H116313  10.298   8.483   0.143  1.3110 -1.7188  2.3639
38477TIP3    H216314  10.427   8.550   0.100 -0.8502  0.7396 -0.8251
38478TIP3   OH216315   0.140   6.737   5.122 -0.1845 -0.1706  0.6050
38478TIP3    H116316   0.093   6.653   5.127 -2.4801  0.9486 -0.5196
38478TIP3    H216317   0.165   6.755   5.213  0.2489 -1.9840  0.8864
38479TIP3   OH216318   0.409   1.974   0.189 -0.4877 -0.1022 -0.4813
38479TIP3    H116319   0.504   1.959   0.188 -0.8882 -3.1807 -1.4031
38479TIP3    H216320   0.372   1.891   0.217 -2.9604  0.9367 -0.4531
38480TIP3   OH216321   6.898   4.295   8.606  0.0797  0.3218 -0.3508
38480TIP3    H116322   6.943   4.287   8.522  1.2204  1.8653  0.0729
38480TIP3    H216323   6.929   4.221   8.658  0.5450  0.2277 -0.7639
38481TIP3   OH216324   3.965   3.909   6.092  0.6224  0.3450  0.2340
38481TIP3    H116325   3.995   3.947   6.009 -0.9288  1.6100  0.1790
38481TIP3    H216326   3.906   3.976   6.128  0.2140 -0.7538  1.6965
38482TIP3   OH216327   8.466  10.775   0.873 -0.4126 -0.1928  0.4224
38482TIP3    H116328   8.453  10.685   0.899 -1.7390  0.0895  0.7704
38482TIP3    H216329   8.521  10.813   0.942  0.7834 -0.9074 -0.1097
38483TIP3   OH216330   1.093   7.201   9.472 -0.3104  0.4847 -0.1065
38483TIP3    H116331   1.003   7.187   9.443 -0.7298  0.3457  1.1790
38483TIP3    H216332   1.096   7.163   9.560  0.8009  1.1339  0.1613
38484TIP3   OH216333   5.389   3.189   4.904  0.3684 -0.2339 -0.1456
38484TIP3    H116334   5.415   3.275   4.939  0.1699  0.2962 -1.2599
38484TIP3    H216335   5.304   3.172   4.945  0.5272 -0.0285  0.2809
38485TIP3   OH216336   6.267  10.521   0.561  0.0642  0.3886  0.1223
38485TIP3    H116337   6.183  10.564   0.580 -0.3273 -0.2897 -0.0356
38485TIP3    H216338   6.246  10.428   0.561  0.7563  0.2296 -0.2499
38486TIP3   OH216339   0.725   0.286   9.342 -0.0976 -0.4977 -0.3356
38486TIP3    H116340   0.646   0.256   9.386  0.8319 -2.1250  0.3101
38486TIP3    H216341   0.723   0.242   9.257 -0.9120  1.1252 -1.2024
38487TIP3   OH216342   8.723  10.241  10.547 -0.4678 -0.2275  0.3096
38487TIP3    H116343   8.817  10.255  10.559 -0.4131 -0.3896  0.0689
38487TIP3    H216344   8.687  10.330  10.539 -0.3191 -0.1705  0.2735
38488TIP3   OH216345   1.964   1.003   1.811  0.1116  0.2809  0.1954
38488TIP3    H116346   2.034   1.068   1.810  0.6213 -0.1830  1.9099
38488TIP3    H216347   2.010   0.919   1.818 -0.5730 -0.2217 -0.9733
38489TIP3   OH216348   3.148   4.501   1.022  0.2071 -0.2646 -0.9748
38489TIP3    H116349   3.155   4.526   1.114 -0.1849 -0.6740 -0.8338
38489TIP3    H216350   3.059   4.526   0.997 -0.2839 -1.7370 -0.7607
38490TIP3   OH216351   3.801   3.662   5.125 -0.2658 -0.4544  0.4673
38490TIP3    H116352   3.767   3.751   5.133 -0.1198 -0.2912 -0.5850
38490TIP3    H216353   3.826   3.638   5.214  1.4011  1.2415  0.5136
38491TIP3   OH216354   1.256   0.713   6.359 -0.5378  0.5982  0.3237
38491TIP3    H116355   1.293   0.633   6.321  0.2163  0.8538  0.4936
38491TIP3    H216356   1.265   0.779   6.290 -0.9525  0.5986  0.2648
38492TIP3   OH216357  10.363   6.623   6.626  0.6864 -0.0192 -1.0577
38492TIP3    H116358  10.456   6.629   6.607  1.3351 -2.0620  0.9850
38492TIP3    H216359  10.358   6.626   6.722 -1.2703 -0.7278 -1.0861
38493TIP3   OH216360   3.780   3.281   0.833 -0.0643 -0.1817  0.1284
38493TIP3    H116361   3.758   3.373   0.853  1.1807  0.3802 -0.9547
38493TIP3    H216362   3.696   3.236   0.834 -1.3093  1.7267 -3.1568
38494TIP3   OH216363   5.143   4.315   7.973 -0.2952 -0.1622  0.0987
38494TIP3    H116364   5.139   4.222   7.954 -1.7087 -0.3824  1.3481
38494TIP3    H216365   5.078   4.355   7.915 -2.4734 -0.4714  2.2162
38495TIP3   OH216366  10.793  10.211   9.306 -0.1167 -0.7010 -0.2713
38495TIP3    H116367  10.831  10.131   9.341 -1.7511 -1.0200  0.9120
38495TIP3    H216368  10.755  10.185   9.222  0.3604 -0.8811 -0.4344
38496TIP3   OH216369  10.808   8.102  10.520  0.2177  0.3501 -0.1088
38496TIP3    H116370  10.843   8.026  10.568  0.5936 -0.4087 -1.4977
38496TIP3    H216371  10.837   8.178  10.570  0.0158 -0.4165  1.2084
38497TIP3   OH216372  10.685   6.801   6.165  0.1389 -0.1755 -0.0829
38497TIP3    H116373  10.608   6.782   6.219 -0.0270  1.7271  0.4104
38497TIP3    H216374  10.753   6.825   6.227 -0.0132  1.9053 -0.6588
38498TIP3   OH216375  10.878  10.129   0.758  0.2138 -0.4233  0.1598
38498TIP3    H116376  10.872  10.161   0.847  1.3432 -0.4778  0.2740
38498TIP3    H216377  10.943  10.059   0.762  0.0463 -0.6423 -0.6469
38499TIP3   OH216378  10.209   1.865   0.875 -0.0731 -0.2314 -0.5538
38499TIP3    H116379  10.148   1.923   0.920 -2.0755 -0.6650 -2.5017
38499TIP3    H216380  10.154   1.793   0.843  1.9438 -2.0608 -0.1656
38500TIP3   OH216381   6.720   1.092   2.080 -0.0076 -0.6882 -0.7275
38500TIP3    H116382   6.682   1.178   2.099 -0.0634 -0.5659 -1.3663
38500TIP3    H216383   6.647   1.031   2.089 -0.2002 -0.5409 -1.2574
38501TIP3   OH216384   8.824   8.527   7.637  0.6895  0.1841 -0.1053
38501TIP3    H116385   8.792   8.501   7.551 -0.2780  2.2033 -0.4243
38501TIP3    H216386   8.818   8.623   7.637  0.2227  0.2273  2.3664
38502TIP3   OH216387   3.834   2.902   4.903 -0.2005  0.2220 -0.3037
38502TIP3    H116388   3.782   2.836   4.950  0.3030 -0.0394 -0.1054
38502TIP3    H216389   3.924   2.870   4.908  0.1137  1.1329  0.1653
38503TIP3   OH216390  10.094   8.325   8.355  0.0760 -0.3946 -0.7419
38503TIP3    H116391  10.143   8.259   8.404  0.0614 -0.8909 -1.3938
38503TIP3    H216392  10.048   8.375   8.423  1.9050  0.4707 -0.0561
38504TIP3   OH216393   9.885   0.368   1.312  0.2090 -0.0107  0.1775
38504TIP3    H116394   9.846   0.451   1.339  1.6325 -0.0207  2.5131
38504TIP3    H216395   9.849   0.303   1.373  0.5661 -0.7788 -0.3993
38505TIP3   OH216396   7.373   5.728   8.578 -0.6103  0.0021  0.0660
38505TIP3    H116397   7.364   5.823   8.575 -0.0053  0.0422 -0.7548
38505TIP3    H216398   7.459   5.713   8.617 -0.3661 -0.1885 -0.5376
38506TIP3   OH216399   7.544   3.686   2.893 -0.1849 -0.2416 -0.2682
38506TIP3    H116400   7.520   3.754   2.831 -0.1161 -0.9509 -1.0933
38506TIP3    H216401   7.481   3.616   2.879  1.3121 -1.4529 -1.3299
38507TIP3   OH216402   2.743   5.971   0.525 -0.4088  0.2510 -0.4833
38507TIP3    H116403   2.816   5.996   0.469 -0.3615  1.5460  0.1333
38507TIP3    H216404   2.677   6.038   0.510 -0.5109  0.4547  0.7752
38508TIP3   OH216405   1.062   4.541   8.752  0.6511 -0.7853 -0.0971
38508TIP3    H116406   1.048   4.615   8.811 -0.1555 -1.0896  0.1087
38508TIP3    H216407   1.013   4.469   8.791  0.0257 -0.9731 -1.1731
38509TIP3   OH216408   8.255   6.183   5.849 -0.0860  0.0633  0.0195
38509TIP3    H116409   8.252   6.096   5.811  2.7936  0.4994 -1.4491
38509TIP3    H216410   8.301   6.172   5.932  2.7910  0.4344 -1.4076
38510TIP3   OH216411   7.430   0.902   5.422 -0.6371 -0.0871  0.9496
38510TIP3    H116412   7.502   0.909   5.485  0.0741  0.0098  0.1450
38510TIP3    H216413   7.390   0.817   5.441 -0.7275  0.1485  1.8328
38511TIP3   OH216414   8.564   5.765   6.194 -0.4016 -0.0815  0.2746
38511TIP3    H116415   8.622   5.780   6.269  0.4398  1.1573 -0.5849
38511TIP3    H216416   8.620   5.722   6.129 -0.2852  1.4792 -0.7120
38512TIP3   OH216417   8.550   3.380   7.128 -0.0296  0.3666  0.2463
38512TIP3    H116418   8.644   3.364   7.128 -0.1725 -0.5794  1.0714
38512TIP3    H216419   8.535   3.439   7.202 -0.1355  0.1758  0.3774
38513TIP3   OH216420   5.932   2.644   7.185  0.2265  0.5581  0.4525
38513TIP3    H116421   5.895   2.557   7.174  0.2399  0.7783 -1.7520
38513TIP3    H216422   6.013   2.643   7.134  0.3250  1.7938  0.5425
38514TIP3   OH216423   4.608   9.462   0.357 -0.7335 -0.2239  0.3259
38514TIP3    H116424   4.541   9.416   0.408 -1.0550 -0.1774 -0.0500
38514TIP3    H216425   4.646   9.394   0.301  0.2641 -0.4716  1.2749
38515TIP3   OH216426   2.043   0.516   8.784 -0.2387 -0.5951  0.1760
38515TIP3    H116427   2.079   0.601   8.810  2.4389 -1.7897  0.6785
38515TIP3    H216428   2.008   0.530   8.696 -0.8955  1.2583  0.6916
38516TIP3   OH216429   6.749   2.030   2.123 -0.4544 -0.0665  0.8721
38516TIP3    H116430   6.731   2.002   2.034 -1.5255  0.2965  0.9689
38516TIP3    H216431   6.717   2.120   2.128 -0.5003 -0.1153  1.6501
38517TIP3   OH216432   8.521   4.682   8.508  0.1199 -0.2209 -0.3424
38517TIP3    H116433   8.457   4.752   8.522  0.0169 -0.4671  0.4468
38517TIP3    H216434   8.473   4.612   8.464  0.2308  0.2012 -1.1695
38518TIP3   OH216435   7.833   4.241   6.725 -0.4149 -0.2918 -0.5751
38518TIP3    H116436   7.855   4.247   6.632 -0.5872 -0.5417 -0.6323
38518TIP3    H216437   7.867   4.323   6.762  1.7653 -1.2023 -0.4195
38519TIP3   OH216438   1.948   2.990   7.684 -0.2894 -0.1981 -0.4502
38519TIP3    H116439   1.917   3.037   7.607  1.9360 -0.4227 -1.5603
38519TIP3    H216440   1.998   2.916   7.649  0.7563 -0.3172  1.2029
38520TIP3   OH216441   7.341   8.261   4.211 -0.3536 -0.3318  0.0800
38520TIP3    H116442   7.423   8.255   4.261  0.4440  0.5247 -1.0691
38520TIP3    H216443   7.298   8.340   4.244  0.3823  0.4807 -0.8402
38521TIP3   OH216444   5.623   4.823   5.836 -0.1319  0.0792  0.6185
38521TIP3    H116445   5.551   4.806   5.896 -0.3897 -0.5095  0.1448
38521TIP3    H216446   5.701   4.824   5.892 -0.3935 -0.2438  0.9888
38522TIP3   OH216447  10.476   1.058   2.508 -0.7324 -0.3388  0.0652
38522TIP3    H116448  10.425   1.063   2.427 -1.9412 -0.1052  0.8087
38522TIP3    H216449  10.564   1.037   2.480 -0.8615  0.8949 -1.4109
38523TIP3   OH216450   4.568   1.576   1.954 -0.7562 -0.1854  0.0406
38523TIP3    H116451   4.575   1.663   1.993 -0.1310 -0.5200  0.6840
38523TIP3    H216452   4.474   1.555   1.959 -0.7113 -0.1650  1.2391
38524TIP3   OH216453   6.698   9.996   5.175 -0.1370  0.1911 -0.3624
38524TIP3    H116454   6.659   9.914   5.207  0.7681  0.2700  1.0213
38524TIP3    H216455   6.736   9.972   5.090  0.2237 -0.8679  0.0784
38525TIP3   OH216456   4.241   1.647  10.007 -0.5597 -0.3143 -0.1034
38525TIP3    H116457   4.222   1.577  10.068  0.0306 -0.7125 -0.3649
38525TIP3    H216458   4.334   1.637   9.986 -0.6139  0.1624 -0.6207
38526TIP3   OH216459  10.607  10.596   6.715  0.1162  0.3628 -0.3414
38526TIP3    H116460  10.648  10.653   6.780 -1.4962  0.1107  0.9658
38526TIP3    H216461  10.641  10.509   6.734  1.8016  0.6819 -1.6890
38527TIP3   OH216462   6.703   2.752   1.380  0.4119  0.4653 -0.2795
38527TIP3    H116463   6.638   2.690   1.412  1.0095 -0.0867 -0.1257
38527TIP3    H216464   6.652   2.820   1.337 -0.2022 -0.6775 -1.4173
38528TIP3   OH216465   5.146   3.789   2.021  0.3804  0.4140 -0.1782
38528TIP3    H116466   5.175   3.700   1.999 -0.3907  0.2117 -0.4382
38528TIP3    H216467   5.060   3.796   1.978 -0.0044  0.9319  0.6629
38529TIP3   OH216468   1.645   1.094   3.264 -0.4973 -0.0250 -0.6157
38529TIP3    H116469   1.554   1.123   3.269  0.0692  1.7817 -0.1284
38529TIP3    H216470   1.673   1.118   3.176 -0.3163 -0.0105 -0.5553
38530TIP3   OH216471   2.815   8.770   0.350  0.2802 -0.0633 -0.1429
38530TIP3    H116472   2.736   8.813   0.384  0.8627 -0.3514  1.7264
38530TIP3    H216473   2.809   8.681   0.383  0.6159 -0.5444 -1.3471
38531TIP3   OH216474   6.783   6.602   3.318  0.1911 -0.3016 -0.0854
38531TIP3    H116475   6.825   6.517   3.303 -1.2661 -1.0641 -0.1072
38531TIP3    H216476   6.853   6.658   3.351  1.0813 -1.6653  0.4636
38532TIP3   OH216477   8.214   1.887   5.028 -0.1170  0.3161  0.9970
38532TIP3    H116478   8.152   1.936   4.974  1.4954  0.6657 -0.6201
38532TIP3    H216479   8.210   1.929   5.114 -0.7619  1.4952  0.4057
38533TIP3   OH216480  10.202   2.551   9.164 -0.3306 -0.0502 -0.0352
38533TIP3    H116481  10.284   2.564   9.212  0.0874  0.2605 -0.8264
38533TIP3    H216482  10.170   2.639   9.147  0.8493 -0.0317 -2.5718
38534TIP3   OH216483   6.364  10.307   0.831  0.5584  0.6560 -0.6314
38534TIP3    H116484   6.380  10.213   0.839  0.1554  0.3388 -2.8697
38534TIP3    H216485   6.439  10.340   0.782 -0.1301  1.1818 -1.3476
38535TIP3   OH216486   5.255   3.534   9.412 -0.2207  0.6200 -0.1823
38535TIP3    H116487   5.309   3.496   9.344  0.8389 -2.6174  2.1868
38535TIP3    H216488   5.169   3.493   9.400 -0.4223  1.0848 -0.3513
38536TIP3   OH216489   2.778   8.797   9.532  0.3554 -0.3589  0.3692
38536TIP3    H116490   2.852   8.834   9.579  1.3254 -0.4906 -0.9909
38536TIP3    H216491   2.781   8.837   9.445 -0.9695 -0.6337  0.1645
38537TIP3   OH216492   3.698   1.163  10.166  0.1140 -0.2597 -0.0584
38537TIP3    H116493   3.718   1.099  10.235  0.7353  1.2375  1.2394
38537TIP3    H216494   3.651   1.233  10.212 -0.3339  0.3267 -1.3740
38538TIP3   OH216495   1.872   6.950   1.280 -0.4836  0.2622 -0.1742
38538TIP3    H116496   1.855   7.032   1.326  0.2192 -0.3096  1.1631
38538TIP3    H216497   1.967   6.937   1.289 -0.6053 -0.7566 -0.2649
38539TIP3   OH216498   9.789   2.436   2.575 -0.0302 -0.0374 -0.2798
38539TIP3    H116499   9.813   2.523   2.608  0.8926  0.0934 -1.2236
38539TIP3    H216500   9.797   2.379   2.651  1.4157  0.3588 -0.1043
38540TIP3   OH216501   2.862   1.902   7.351 -0.2978  0.1956  0.3051
38540TIP3    H116502   2.934   1.851   7.387  0.7688  1.3743 -0.0815
38540TIP3    H216503   2.784   1.868   7.395  0.3304 -1.8554 -0.0731
38541TIP3   OH216504   3.287   7.424   0.050  0.1859 -0.8821  0.2034
38541TIP3    H116505   3.200   7.388   0.068  0.2887 -0.1986  2.4057
38541TIP3    H216506   3.345   7.347   0.048 -0.2036 -1.1950  0.6502
38542TIP3   OH216507   5.894   2.146   2.943 -0.2207  0.4171  0.0019
38542TIP3    H116508   5.807   2.174   2.971 -0.3037  2.0079 -1.6543
38542TIP3    H216509   5.878   2.088   2.869  0.0764 -1.9515  1.6727
38543TIP3   OH216510   0.268   6.140   8.414 -0.0762 -0.0516 -0.4516
38543TIP3    H116511   0.180   6.134   8.450 -0.2335  0.9937 -0.6214
38543TIP3    H216512   0.286   6.234   8.411  0.9413 -0.2401 -0.6683
38544TIP3   OH216513   1.043   6.564   9.084 -0.5556  0.0028  0.2166
38544TIP3    H116514   1.118   6.610   9.124  0.0448 -0.6833 -0.0963
38544TIP3    H216515   0.991   6.634   9.045 -0.2513  0.5275  0.7204
38545TIP3   OH216516   6.339   8.711   3.482 -0.2296  0.3524 -0.5613
38545TIP3    H116517   6.266   8.678   3.430 -0.7719  0.4553  0.1225
38545TIP3    H216518   6.342   8.805   3.462 -1.3023  0.6597  0.5957
38546TIP3   OH216519   1.500  10.491   5.837  0.1263 -0.1397  0.6954
38546TIP3    H116520   1.455  10.500   5.753  2.1126  1.4038 -0.2903
38546TIP3    H216521   1.437  10.522   5.902 -0.7209  0.6186 -0.4535
38547TIP3   OH216522   0.869   7.352   2.843  0.4979 -0.2392  0.7663
38547TIP3    H116523   0.915   7.270   2.826  1.3411  0.5254 -0.9531
38547TIP3    H216524   0.790   7.347   2.790  2.1285  1.3047 -2.0863
38548TIP3   OH216525   8.560   9.353   1.302 -0.6016 -0.3698  0.6070
38548TIP3    H116526   8.524   9.442   1.303  0.0236 -0.1095  0.4548
38548TIP3    H216527   8.586   9.338   1.211  1.6173  0.2645  1.0785
38549TIP3   OH216528   7.596   6.619   6.705 -0.3393  0.4890  0.2247
38549TIP3    H116529   7.627   6.708   6.689  0.2513  0.3604  0.6398
38549TIP3    H216530   7.514   6.630   6.753 -1.7504  0.8651 -2.1165
38550TIP3   OH216531   0.346   6.928   1.804 -0.2944  0.3270 -0.1685
38550TIP3    H116532   0.288   6.999   1.829 -0.2565  0.0393  0.7446
38550TIP3    H216533   0.371   6.948   1.713 -0.8757  1.0698 -0.1648
38551TIP3   OH216534   7.178   2.641   0.639  0.3135  0.1884  0.3786
38551TIP3    H116535   7.091   2.600   0.642  1.1234 -1.7968 -0.7704
38551TIP3    H216536   7.172   2.707   0.570 -0.4647  0.5465  0.7868
38552TIP3   OH216537   0.961   2.065   1.437 -0.0384 -0.2071  0.3400
38552TIP3    H116538   0.875   2.084   1.473 -0.1422 -2.5698  1.5001
38552TIP3    H216539   0.956   2.094   1.345 -2.4210 -1.2498  0.0909
38553TIP3   OH216540   6.504   9.534   4.788 -0.3290 -0.1877  0.4049
38553TIP3    H116541   6.594   9.510   4.807  0.2205  0.8335 -0.7917
38553TIP3    H216542   6.486   9.608   4.845 -0.2914 -0.1688  0.3918
38554TIP3   OH216543  10.867   9.205   3.079 -0.3300  0.2991  0.0723
38554TIP3    H116544  10.936   9.257   3.039  0.2045 -0.1391  0.4235
38554TIP3    H216545  10.786   9.238   3.038  0.0390  1.0729 -0.0527
38555TIP3   OH216546   9.751   9.239   1.521  0.2020 -0.1627 -0.0504
38555TIP3    H116547   9.812   9.291   1.469 -2.1190  0.7293 -2.1045
38555TIP3    H216548   9.720   9.298   1.589 -0.4369  0.3010 -0.7351
38556TIP3   OH216549   7.484   7.460   8.196 -0.1327  0.3037 -0.0298
38556TIP3    H116550   7.429   7.484   8.270 -1.6352  0.7065 -1.2264
38556TIP3    H216551   7.482   7.364   8.194 -0.5088  0.3076  0.1405
38557TIP3   OH216552   7.788   4.903   9.185 -0.3519  0.3892 -0.3804
38557TIP3    H116553   7.715   4.841   9.187 -0.3830  0.4070  1.9083
38557TIP3    H216554   7.810   4.917   9.277  3.2665 -0.4583 -0.9603
38558TIP3   OH216555  10.176   4.102   1.142 -0.5192 -0.2187 -0.7328
38558TIP3    H116556  10.251   4.085   1.199  1.0627 -0.6905 -2.8541
38558TIP3    H216557  10.119   4.159   1.194  0.8487 -0.5998  1.2828
38559TIP3   OH216558  10.783   2.450   6.104  0.3420 -0.2437  0.2155
38559TIP3    H116559  10.762   2.520   6.165  0.0918 -0.6952  0.6588
38559TIP3    H216560  10.862   2.409   6.141  1.1053  0.4545 -0.5996
38560TIP3   OH216561   0.276   7.201  10.603 -0.1819  0.2176  0.2339
38560TIP3    H116562   0.317   7.284  10.626  0.0398 -0.0468  0.8143
38560TIP3    H216563   0.193   7.226  10.562  0.8361  0.7728 -1.6048
38561TIP3   OH216564   9.512   8.360   2.103 -0.1151 -0.0375 -0.3650
38561TIP3    H116565   9.581   8.364   2.169 -1.2536  0.1832  0.8478
38561TIP3    H216566   9.497   8.451   2.078 -0.7792  0.0329  0.2614
38562TIP3   OH216567  10.384   7.911   4.509 -0.0417  0.4789  0.2649
38562TIP3    H116568  10.468   7.868   4.523 -0.2172 -0.4679 -1.2763
38562TIP3    H216569  10.328   7.841   4.473 -1.0107  1.4611 -0.1876
38563TIP3   OH216570   0.056   6.695   1.442 -0.5077 -0.1744  0.0955
38563TIP3    H116571  -0.004   6.715   1.370 -1.7263  0.1745  1.1504
38563TIP3    H216572   0.044   6.601   1.458 -0.0822 -0.2942 -0.2883
38564TIP3   OH216573   8.480   6.372   4.724  0.0270 -0.4116  0.0202
38564TIP3    H116574   8.523   6.297   4.765  2.5538  0.8365 -0.1978
38564TIP3    H216575   8.524   6.448   4.760 -0.9277  0.9139 -1.4721
38565TIP3   OH216576   4.714   0.542   9.650  0.5580 -0.0198  0.5286
38565TIP3    H116577   4.623   0.518   9.671 -0.4220  1.2584 -1.8215
38565TIP3    H216578   4.753   0.462   9.616 -0.1152 -0.2723  0.3287
38566TIP3   OH216579   7.089   0.601   4.756 -0.5355  0.7023  0.0240
38566TIP3    H116580   7.064   0.674   4.700  0.4302 -0.3218 -1.8396
38566TIP3    H216581   7.071   0.632   4.845  0.6196  3.5162 -0.6050
38567TIP3   OH216582   0.819   3.744   0.445 -0.4948  0.3110  0.5869
38567TIP3    H116583   0.822   3.691   0.525 -0.4820  0.3154  0.5895
38567TIP3    H216584   0.897   3.799   0.451  0.7670 -1.2541 -0.5148
38568TIP3   OH216585   3.815   6.261   9.300  0.4066 -0.1635  0.1639
38568TIP3    H116586   3.733   6.259   9.250  1.3286 -2.8216 -1.4013
38568TIP3    H216587   3.787   6.286   9.389 -2.0018 -0.3454 -0.4607
38569TIP3   OH216588   6.493   4.232   2.029  0.3247  0.0736  0.1312
38569TIP3    H116589   6.425   4.165   2.023  1.1375 -0.9520  1.7232
38569TIP3    H216590   6.548   4.218   1.951  0.1405 -0.7141  0.1418
38570TIP3   OH216591   7.971   4.367   6.243  0.8670 -0.6823 -0.0542
38570TIP3    H116592   7.894   4.421   6.262  1.3764 -0.2418  0.8030
38570TIP3    H216593   7.941   4.277   6.257  0.9584 -0.4366  2.0086
38571TIP3   OH216594   6.339  10.297   6.716  0.5880  0.5971 -0.0365
38571TIP3    H116595   6.428  10.323   6.692  1.4086 -0.8152  1.2918
38571TIP3    H216596   6.295  10.380   6.737  0.7971  1.5686 -2.9588
38572TIP3   OH216597   0.159  10.213   3.666  0.2287 -0.2582  0.0350
38572TIP3    H116598   0.185  10.163   3.743  1.8549 -0.3473 -0.5253
38572TIP3    H216599   0.170  10.153   3.593  0.1377  0.2662 -0.4221
38573TIP3   OH216600   0.363   8.651   9.354  0.0507 -0.6141 -0.1192
38573TIP3    H116601   0.457   8.654   9.335 -0.1271  0.8627 -0.8925
38573TIP3    H216602   0.346   8.559   9.376  1.5778 -0.9982 -0.4177
38574TIP3   OH216603   8.894   6.643   4.264 -0.1640  0.4663  0.5002
38574TIP3    H116604   8.874   6.592   4.185  0.5430  1.1253 -0.1319
38574TIP3    H216605   8.842   6.723   4.255 -0.3736  0.3753  0.8986
38575TIP3   OH216606   9.876   6.774   2.878 -0.0461 -0.3884 -0.2889
38575TIP3    H116607   9.843   6.850   2.925 -1.3574 -1.0029 -0.1814
38575TIP3    H216608   9.957   6.805   2.838 -0.4939  1.0297 -0.1659
38576TIP3   OH216609   2.268   3.415   6.082  0.6143  0.0796  0.1324
38576TIP3    H116610   2.209   3.406   6.007  0.4985  0.7210  0.1356
38576TIP3    H216611   2.349   3.374   6.054  0.6527  0.5404 -0.4466
38577TIP3   OH216612   7.199   2.124   5.645  0.1618  0.0647  0.4095
38577TIP3    H116613   7.147   2.168   5.578  0.6759 -1.4251 -1.0194
38577TIP3    H216614   7.148   2.134   5.725 -2.3622 -1.2972 -0.8969
38578TIP3   OH216615   3.561   3.582   3.676  0.1136  0.3875  0.1097
38578TIP3    H116616   3.593   3.567   3.765 -0.4011  0.1281  0.2516
38578TIP3    H216617   3.496   3.514   3.662  0.4012  0.2452 -0.5759
38579TIP3   OH216618  10.395   6.770   8.291  0.5836 -0.3544 -0.1156
38579TIP3    H116619  10.490   6.759   8.299  0.4096 -1.5728  0.5454
38579TIP3    H216620  10.359   6.717   8.362 -0.6636 -1.9993 -1.8795
38580TIP3   OH216621   8.101   0.548  10.499 -0.5206 -0.4195  0.4547
38580TIP3    H116622   8.131   0.498  10.424  0.6161  0.2990  0.4045
38580TIP3    H216623   8.058   0.484  10.556 -0.9231 -1.0579 -0.5495
38581TIP3   OH216624   3.671   3.460   6.649 -0.0297  0.1614 -0.4315
38581TIP3    H116625   3.759   3.438   6.678 -0.0625  0.1102 -0.3700
38581TIP3    H216626   3.622   3.475   6.730 -0.5164 -1.4987 -0.3884
38582TIP3   OH216627   7.860  10.358   7.722 -0.3021  1.1813  0.1728
38582TIP3    H116628   7.919  10.313   7.783  0.1379  2.4117  0.6988
38582TIP3    H216629   7.878  10.318   7.637  0.6662  0.9369  0.4817
38583TIP3   OH216630   9.104  10.323   4.040  0.5757  0.1395  0.2348
38583TIP3    H116631   9.076  10.399   4.091  0.1633  0.3452 -0.2782
38583TIP3    H216632   9.182  10.352   3.993  1.7645 -0.4759  1.7674
38584TIP3   OH216633   8.326   6.685   1.398 -0.3595 -0.5935  0.0502
38584TIP3    H116634   8.377   6.743   1.456 -0.3952 -0.7002  0.1884
38584TIP3    H216635   8.249   6.736   1.375  0.5552  0.1979 -1.4476
38585TIP3   OH216636   6.402   0.489   2.603 -0.3802  0.2056  0.1100
38585TIP3    H116637   6.363   0.540   2.532 -0.5612 -0.3711 -0.2097
38585TIP3    H216638   6.496   0.508   2.598 -0.0333 -1.6551 -1.8250
38586TIP3   OH216639   1.123   8.076   4.185  0.6412  0.5624 -0.2592
38586TIP3    H116640   1.176   8.039   4.114  1.0700  0.8051 -0.0714
38586TIP3    H216641   1.069   8.003   4.216  0.3962  0.4760 -0.8859
38587TIP3   OH216642   1.267   5.836   4.236  0.5901  0.3306  0.1896
38587TIP3    H116643   1.242   5.926   4.256  0.9770  0.5640 -0.3491
38587TIP3    H216644   1.355   5.844   4.198  2.1814 -0.5421  3.2617
38588TIP3   OH216645   3.797   9.182   3.339 -0.4536 -0.3656  0.4137
38588TIP3    H116646   3.728   9.127   3.304 -1.3814  0.8292  0.3117
38588TIP3    H216647   3.786   9.266   3.294  2.7839 -0.8835 -1.7468
38589TIP3   OH216648   8.911   8.092  10.368  0.1523  0.2987 -0.6626
38589TIP3    H116649   8.900   8.070  10.276 -1.1924  0.5982 -0.5887
38589TIP3    H216650   8.921   8.187  10.370  2.7720  0.0934 -0.6955
38590TIP3   OH216651  10.327   3.830   8.752 -0.2123 -0.2750  0.1753
38590TIP3    H116652  10.295   3.751   8.796 -1.8950 -0.9238 -1.9948
38590TIP3    H216653  10.300   3.902   8.809 -0.5289 -1.1602  1.1701
38591TIP3   OH216654   6.976   8.302   3.377 -0.1806 -0.3108  0.2832
38591TIP3    H116655   6.975   8.266   3.466 -1.2099 -0.2373  0.3213
38591TIP3    H216656   6.905   8.255   3.332  0.4164 -0.4458 -0.5464
38592TIP3   OH216657   7.162   9.907  10.418  0.5165  0.4463 -0.0181
38592TIP3    H116658   7.094   9.886  10.354  1.3589 -0.8560 -0.5466
38592TIP3    H216659   7.236   9.937  10.365  0.4141  1.7116  0.5364
38593TIP3   OH216660   1.908   7.135   1.455 -0.4655  0.7091  0.0905
38593TIP3    H116661   1.866   7.220   1.447 -0.3746  0.7366 -0.0736
38593TIP3    H216662   1.955   7.139   1.538 -0.2930  0.8890 -0.0159
38594TIP3   OH216663   5.660   1.921   1.214 -0.4646  0.4830 -0.2271
38594TIP3    H116664   5.726   1.884   1.156  0.3249 -0.6437  1.3084
38594TIP3    H216665   5.695   2.006   1.241  0.1240  0.1223  0.1623
38595TIP3   OH216666   4.942   8.431   6.665  0.0815  0.4420  0.0345
38595TIP3    H116667   4.961   8.493   6.595  1.4488 -0.9746 -0.9120
38595TIP3    H216668   4.897   8.483   6.732 -0.4517  2.0229 -1.4886
38596TIP3   OH216669   0.789   8.978   7.496  0.1516  0.8800 -0.5717
38596TIP3    H116670   0.825   9.054   7.542 -1.3070  1.1575  0.1717
38596TIP3    H216671   0.837   8.904   7.533 -0.5722  1.1620  1.0159
38597TIP3   OH216672   9.168   1.540   8.454 -0.1694 -0.3839 -0.2043
38597TIP3    H116673   9.078   1.510   8.448 -0.7630  1.4378 -1.2426
38597TIP3    H216674   9.198   1.545   8.363  0.8767 -0.6579  0.1108
38598TIP3   OH216675   0.922   8.371   9.092  0.1617 -0.4630  0.5685
38598TIP3    H116676   0.916   8.464   9.113  2.8882 -0.5860  2.3195
38598TIP3    H216677   0.916   8.326   9.177 -0.0399 -1.8239 -0.1331
38599TIP3   OH216678   9.533   6.541   2.842 -0.8978 -0.2366 -0.6214
38599TIP3    H116679   9.510   6.513   2.753 -2.0388  0.5950 -0.6174
38599TIP3    H216680   9.510   6.634   2.843  1.2735  0.3513 -0.1604
38600TIP3   OH216681   8.835   8.447   1.820 -0.5270  0.0569  0.4421
38600TIP3    H116682   8.767   8.447   1.752 -0.1536 -1.4132  0.0250
38600TIP3    H216683   8.897   8.514   1.793 -0.5824 -0.2464 -0.4675
38601TIP3   OH216684   2.912   9.242   4.100 -0.1049  0.7488 -0.0631
38601TIP3    H116685   2.949   9.199   4.023 -2.0650 -1.1246 -0.0186
38601TIP3    H216686   2.819   9.254   4.080 -0.4538  1.1578  1.6078
38602TIP3   OH216687   4.638   4.899   5.709  0.3380 -0.4674 -0.0628
38602TIP3    H116688   4.579   4.975   5.709 -0.2994 -0.9480  0.5413
38602TIP3    H216689   4.582   4.826   5.735  1.3515 -0.8126  1.2384
38603TIP3   OH216690   3.848   8.463   7.739 -0.1215 -0.8696  0.0082
38603TIP3    H116691   3.816   8.542   7.781  0.3396 -0.8685  0.3658
38603TIP3    H216692   3.910   8.426   7.801 -1.5078 -2.3836  0.5609
38604TIP3   OH216693   7.662   4.944   2.901 -0.5131 -0.6216  0.5624
38604TIP3    H116694   7.640   4.941   2.808  0.6119 -3.0586  0.3044
38604TIP3    H216695   7.581   4.918   2.945 -0.4296 -1.6626  0.1198
38605TIP3   OH216696   2.257   3.625   4.196  0.4039 -0.0145  0.3916
38605TIP3    H116697   2.235   3.696   4.135 -0.4475  0.8895  1.7029
38605TIP3    H216698   2.334   3.656   4.242  0.9197 -0.6044 -0.0607
38606TIP3   OH216699  10.642   5.247   7.328  0.5184 -0.2626 -0.3755
38606TIP3    H116700  10.582   5.255   7.402  0.2987 -2.3392 -0.2730
38606TIP3    H216701  10.661   5.337   7.303 -0.5419  0.4694  1.2793
38607TIP3   OH216702   4.927   6.227   8.614 -0.5046  0.7361  0.0521
38607TIP3    H116703   4.938   6.134   8.596  0.2813  0.8614 -0.1866
38607TIP3    H216704   4.856   6.255   8.557 -0.9536  0.2209  0.3487
38608TIP3   OH216705   7.299   3.019   7.909 -0.6041 -0.1693  0.2390
38608TIP3    H116706   7.355   3.034   7.985  0.3633 -0.9107 -0.2973
38608TIP3    H216707   7.360   2.996   7.838 -1.6052 -1.7114 -0.1871
38609TIP3   OH216708   2.661   3.364   0.715  0.0551 -0.3795  0.1701
38609TIP3    H116709   2.651   3.459   0.725  0.3999 -0.2137 -0.9439
38609TIP3    H216710   2.572   3.332   0.703 -0.0014 -0.1156 -0.1170
38610TIP3   OH216711   4.279   8.041   9.544 -0.1751  0.3101 -0.4685
38610TIP3    H116712   4.202   8.005   9.589  0.4211  0.2627  0.5495
38610TIP3    H216713   4.332   8.078   9.615  1.1407 -0.4265 -1.0491
38611TIP3   OH216714   8.551  10.539   0.499  0.5347  0.4886 -0.8800
38611TIP3    H116715   8.525  10.625   0.531 -0.8978  0.0991 -0.9114
38611TIP3    H216716   8.592  10.555   0.415 -0.0642  1.1222 -1.0618
38612TIP3   OH216717   4.579   5.305   8.339  0.2583 -0.2320 -0.0423
38612TIP3    H116718   4.569   5.214   8.369  0.9277 -0.6890 -1.1219
38612TIP3    H216719   4.536   5.357   8.406 -1.1136 -1.4239  0.0598
38613TIP3   OH216720   4.722   5.738   6.883 -0.1866  0.3176  0.2398
38613TIP3    H116721   4.725   5.683   6.961  0.4271  1.0931  0.7818
38613TIP3    H216722   4.651   5.801   6.901  0.6910  1.2036  0.6762
38614TIP3   OH216723   3.032   1.972   4.856 -0.2558 -0.0341 -0.5450
38614TIP3    H116724   2.950   1.948   4.898 -0.6425  0.3816 -1.0508
38614TIP3    H216725   3.078   1.889   4.845 -0.6210 -0.2748 -0.2878
38615TIP3   OH216726   5.033   8.979   1.666 -0.2205  0.9423 -0.3582
38615TIP3    H116727   5.103   8.958   1.726 -0.6255  0.9221  0.1121
38615TIP3    H216728   4.991   8.895   1.646 -1.7050  1.2189  1.3580
38616TIP3   OH216729   7.996   5.997   2.073  0.2973  0.3392 -0.4689
38616TIP3    H116730   8.044   5.929   2.121  1.2636  1.1400 -0.2635
38616TIP3    H216731   7.977   6.064   2.140 -1.2478 -0.0093 -0.5125
38617TIP3   OH216732   2.901   5.452   0.437  0.2576 -0.3767  0.0132
38617TIP3    H116733   2.995   5.467   0.431 -0.0246  1.7284  0.1562
38617TIP3    H216734   2.892   5.361   0.466  2.2345 -0.5403  0.1885
38618TIP3   OH216735   6.841   3.082   5.992 -0.0936 -0.1390  0.5802
38618TIP3    H116736   6.891   3.097   5.912 -3.4832 -2.0398 -2.1740
38618TIP3    H216737   6.777   3.154   5.993  0.5380  0.4490  2.2576
38619TIP3   OH216738   0.955   2.171   4.482  0.0867 -0.4369  0.1606
38619TIP3    H116739   0.937   2.261   4.455  1.5309 -0.3564 -0.5984
38619TIP3    H216740   0.870   2.128   4.477 -0.1831  0.2029 -2.1680
38620TIP3   OH216741   4.370   9.034   8.772  0.0311  0.2017 -0.6014
38620TIP3    H116742   4.331   9.060   8.689 -0.0410  0.9441 -0.3372
38620TIP3    H216743   4.391   9.116   8.816  1.1457 -0.1833 -0.3843
38621TIP3   OH216744   2.631   6.129  10.755 -0.2366 -0.2802  0.0336
38621TIP3    H116745   2.714   6.116  10.801 -0.4615  0.4421  0.6502
38621TIP3    H216746   2.657   6.158  10.668  0.1668 -0.7529 -0.0128
38622TIP3   OH216747   8.720   8.235   0.415  0.2879  1.0337  0.3940
38622TIP3    H116748   8.692   8.208   0.328 -0.9848 -0.6689  1.2679
38622TIP3    H216749   8.639   8.234   0.467  0.9733  2.2751  1.5385
38623TIP3   OH216750   6.331   6.932   1.145 -0.4439  0.2904  0.3719
38623TIP3    H116751   6.235   6.935   1.144 -0.4704  1.0214 -2.1056
38623TIP3    H216752   6.352   6.854   1.094  0.3303 -0.4958  1.8325
38624TIP3   OH216753   3.646   4.364   6.532 -0.1049  0.0130 -0.1907
38624TIP3    H116754   3.695   4.328   6.606  0.7853  0.4806 -0.5391
38624TIP3    H216755   3.685   4.322   6.455 -1.3886 -0.8935 -0.3811
38625TIP3   OH216756   9.376   7.786   9.162 -0.3486 -0.1102  0.2090
38625TIP3    H116757   9.370   7.692   9.147  0.0530  0.0114 -0.8710
38625TIP3    H216758   9.470   7.804   9.162 -0.4125  0.5623 -1.7718
38626TIP3   OH216759   9.463   9.652   6.542  0.2717 -0.2775  0.4147
38626TIP3    H116760   9.428   9.741   6.542  0.3918 -0.2123  1.7057
38626TIP3    H216761   9.387   9.597   6.522  0.2385  0.1082 -0.6041
38627TIP3   OH216762   8.241   9.493   6.600  0.0879 -0.6900  0.1657
38627TIP3    H116763   8.208   9.582   6.611  2.1476  0.1792 -0.2239
38627TIP3    H216764   8.167   9.437   6.624 -0.9459  1.1025  1.4227
38628TIP3   OH216765   7.004   6.148   2.925  0.3694  0.5489 -0.5813
38628TIP3    H116766   7.082   6.105   2.959 -0.0464 -0.2150 -0.5710
38628TIP3    H216767   7.032   6.238   2.907  1.0646  0.4702  0.0627
38629TIP3   OH216768   1.456   1.174   7.672  0.3084  0.3239  0.2848
38629TIP3    H116769   1.416   1.245   7.624 -0.1161  0.7479  1.2375
38629TIP3    H216770   1.473   1.107   7.606 -1.8101  0.1883 -0.1990
38630TIP3   OH216771   1.497   9.418   7.157  0.3781  0.0759  0.1070
38630TIP3    H116772   1.533   9.350   7.101  1.5474  0.3461  0.4976
38630TIP3    H216773   1.501   9.382   7.245 -1.9866 -0.5692  0.0017
38631TIP3   OH216774   1.045   8.526   8.306 -0.6189 -0.2192 -0.1326
38631TIP3    H116775   1.068   8.485   8.223 -1.1863  0.7636 -0.7951
38631TIP3    H216776   0.952   8.508   8.316 -0.4201 -0.8982  0.6387
38632TIP3   OH216777   1.826  10.743   5.611  0.0712  0.0598 -0.0584
38632TIP3    H116778   1.830  10.670   5.549 -2.8154 -1.8176  1.7402
38632TIP3    H216779   1.841  10.703   5.697  1.1669  2.1231  0.7944
38633TIP3   OH216780  10.843   9.259   2.747  0.2176 -0.3432 -0.0034
38633TIP3    H116781  10.773   9.199   2.772  1.1177 -1.6156 -0.4401
38633TIP3    H216782  10.799   9.331   2.701 -0.7074 -1.7426 -1.4032
38634TIP3   OH216783   6.911   0.647   7.169 -0.4993  0.1007  0.1478
38634TIP3    H116784   6.974   0.578   7.190 -1.2417 -1.4914 -2.4424
38634TIP3    H216785   6.889   0.633   7.077  0.3878  4.7263 -1.0210
38635TIP3   OH216786   1.184   0.487   8.262 -0.6740 -0.3671 -0.2107
38635TIP3    H116787   1.117   0.554   8.269 -0.6604 -0.2282 -1.2354
38635TIP3    H216788   1.231   0.490   8.346 -0.3613  1.2472 -0.4203
38636TIP3   OH216789  10.088   2.401   3.870 -0.0265 -0.1913 -0.1680
38636TIP3    H116790  10.123   2.323   3.912 -0.9881 -0.5013  0.0579
38636TIP3    H216791  10.016   2.370   3.815 -0.7248  0.5886  0.2905
38637TIP3   OH216792   3.697   8.203   2.239  0.1663  0.0266 -0.2150
38637TIP3    H116793   3.622   8.178   2.185 -0.0073  1.1147 -0.4991
38637TIP3    H216794   3.659   8.242   2.317  0.4149 -1.7309  0.8245
38638TIP3   OH216795   9.278   2.351   9.151 -0.1907  0.7649  0.1713
38638TIP3    H116796   9.293   2.260   9.178 -1.1595 -0.0076 -1.6908
38638TIP3    H216797   9.366   2.388   9.140  0.2157  0.0140  0.7967
38639TIP3   OH216798   3.194   9.836   5.940 -0.6036  0.2653  0.1260
38639TIP3    H116799   3.238   9.839   6.025 -1.6905  1.8878  0.7005
38639TIP3    H216800   3.172   9.928   5.921  0.8402  0.1536 -2.6150
38640TIP3   OH216801   8.644   1.552   7.350  0.1951 -0.1947  0.6912
38640TIP3    H116802   8.560   1.591   7.377  0.1279 -1.0594  1.8184
38640TIP3    H216803   8.632   1.530   7.258 -0.0451  1.6697  0.2264
38641TIP3   OH216804   6.524   4.488   8.089 -0.2459 -0.4311  0.2304
38641TIP3    H116805   6.532   4.415   8.027 -0.5289 -0.1181 -0.1813
38641TIP3    H216806   6.449   4.465   8.143  0.0585 -0.7505  0.5236
38642TIP3   OH216807   0.801   9.950   6.869 -0.4912  0.2807 -0.0220
38642TIP3    H116808   0.768  10.023   6.816 -1.1533 -0.2397 -0.3446
38642TIP3    H216809   0.723   9.916   6.913 -0.2625 -0.5021 -0.2110
38643TIP3   OH216810   3.496   1.437   2.238  0.2546  0.0721 -0.2839
38643TIP3    H116811   3.541   1.476   2.312  1.2071  1.5316 -1.5713
38643TIP3    H216812   3.434   1.504   2.209 -1.8446 -1.3732  0.5830
38644TIP3   OH216813   6.473   9.852   6.339  0.3097  0.0331  0.2194
38644TIP3    H116814   6.465   9.757   6.331  1.6559  0.0333 -1.7759
38644TIP3    H216815   6.382   9.883   6.338 -0.1238 -1.1287 -1.2858
38645TIP3   OH216816   0.780   5.390   4.259 -0.3686  0.0156  0.4092
38645TIP3    H116817   0.840   5.405   4.186 -1.2432  1.1849 -0.1136
38645TIP3    H216818   0.693   5.398   4.219 -0.9014 -1.9132  1.0826
38646TIP3   OH216819   6.951  10.216   4.090 -0.0468  0.3264 -0.1280
38646TIP3    H116820   7.003  10.238   4.167 -0.7688 -1.9535  1.1000
38646TIP3    H216821   7.013  10.173   4.030 -0.0488 -0.4100  0.3906
38647TIP3   OH216822   7.815   3.179   5.170 -0.0208 -0.1960  0.3485
38647TIP3    H116823   7.862   3.258   5.142 -1.2162 -0.4224 -2.6384
38647TIP3    H216824   7.745   3.169   5.105 -2.6622 -1.2753  3.1309
38648TIP3   OH216825   8.515   0.046   8.838  0.4056  0.2297 -0.1083
38648TIP3    H116826   8.589   0.043   8.899  2.2978 -0.3894 -2.3151
38648TIP3    H216827   8.467  -0.035   8.855  1.8588 -0.7448 -0.5493
38649TIP3   OH216828  10.497   5.925   5.287 -0.7071 -0.5570 -0.3745
38649TIP3    H116829  10.505   5.860   5.357 -1.0941 -0.1317  0.0727
38649TIP3    H216830  10.453   5.999   5.328  0.3077  0.2561 -0.6996
38650TIP3   OH216831   1.876   4.090   4.720  0.4138 -0.4573  0.1806
38650TIP3    H116832   1.947   4.090   4.656  0.2536  0.8302 -0.0291
38650TIP3    H216833   1.890   4.010   4.771  0.5903 -1.4740 -1.3872
38651TIP3   OH216834   5.278  10.085   5.795 -0.2205  0.4429  0.3343
38651TIP3    H116835   5.284  10.137   5.876 -0.3022  0.2494  0.4653
38651TIP3    H216836   5.255   9.997   5.825  1.4175 -0.0426  0.2278
38652TIP3   OH216837   4.905   3.714   7.988 -1.0109 -0.7485 -0.3587
38652TIP3    H116838   4.866   3.691   7.903 -0.0740  1.8029 -1.5744
38652TIP3    H216839   4.997   3.690   7.979 -0.8164 -0.0530 -0.2440
38653TIP3   OH216840  10.431   5.767   1.788 -0.1644  0.1922 -0.3237
38653TIP3    H116841  10.433   5.737   1.879  0.3366  0.2011 -0.3310
38653TIP3    H216842  10.457   5.690   1.737  2.6972  1.0054 -0.2432
38654TIP3   OH216843   4.700   4.383   1.658 -0.5057  0.0384 -0.7720
38654TIP3    H116844   4.682   4.290   1.669 -0.0332  0.1168  0.9721
38654TIP3    H216845   4.617   4.421   1.630 -1.0600 -0.7199 -0.1907
38655TIP3   OH216846  10.558   1.519   4.652  0.0553 -0.6402 -0.4482
38655TIP3    H116847  10.486   1.559   4.701 -0.5610 -0.7476 -1.2352
38655TIP3    H216848  10.636   1.541   4.702 -0.3733  0.6983 -0.3121
38656TIP3   OH216849   0.708   0.146   9.104  0.0404  0.1949  0.3287
38656TIP3    H116850   0.789   0.144   9.052  0.3378 -2.2207  0.7676
38656TIP3    H216851   0.642   0.105   9.048  0.7990 -4.2881  2.2870
38657TIP3   OH216852   5.704   6.677   6.983 -0.4853 -0.1666  0.5534
38657TIP3    H116853   5.742   6.755   7.023  0.0821 -0.1005 -0.0987
38657TIP3    H216854   5.621   6.665   7.028 -0.9914  1.3305  0.0454
38658TIP3   OH216855   4.345   9.806   3.264 -0.3926  0.0039 -0.4240
38658TIP3    H116856   4.381   9.723   3.233  0.0349  0.0561 -0.0820
38658TIP3    H216857   4.412   9.871   3.242  0.3460 -0.0846  1.3787
38659TIP3   OH216858   4.738   6.450   4.504  0.2257  0.3053  0.7102
38659TIP3    H116859   4.796   6.382   4.469 -0.1923  1.1925 -1.9129
38659TIP3    H216860   4.694   6.408   4.578  1.3968 -1.6259  0.3727
38660TIP3   OH216861   3.928   6.396   9.898 -0.4559 -0.1719  0.0030
38660TIP3    H116862   3.921   6.481   9.941 -2.8312 -0.8558  1.1858
38660TIP3    H216863   4.022   6.385   9.881  0.5757  0.6907  4.0217
38661TIP3   OH216864   1.339   4.920   0.882  0.2555 -0.3705 -0.1945
38661TIP3    H116865   1.422   4.873   0.878  1.5861  1.7480  0.4451
38661TIP3    H216866   1.285   4.881   0.813  1.6376 -2.0507 -0.3728
38662TIP3   OH216867   2.581  10.560   4.748  0.0018 -0.7326 -0.4706
38662TIP3    H116868   2.589  10.653   4.770 -0.7061 -0.3158 -1.8831
38662TIP3    H216869   2.651  10.518   4.797  1.0478  0.7071 -0.6660
38663TIP3   OH216870  10.231   1.696   6.374 -0.1756  0.2155  0.0992
38663TIP3    H116871  10.261   1.733   6.457 -0.0256  0.3335 -0.0072
38663TIP3    H216872  10.137   1.717   6.371 -0.2789 -0.1793  0.4441
38664TIP3   OH216873   3.050   7.438   6.255 -0.1243 -0.2735  0.3015
38664TIP3    H116874   2.963   7.438   6.294  0.9209  0.3853  2.8289
38664TIP3    H216875   3.104   7.488   6.316  1.5257  1.6400 -2.4596
38665TIP3   OH216876   0.741   8.931   0.191 -0.2375  0.3166 -0.1544
38665TIP3    H116877   0.748   8.843   0.155 -0.5183 -0.6463  1.9575
38665TIP3    H216878   0.769   8.922   0.283  1.3243  2.7679 -0.2835
38666TIP3   OH216879   3.176   4.704   2.203 -0.2491  0.0145 -0.1003
38666TIP3    H116880   3.262   4.744   2.190 -0.0103  0.6717  2.7857
38666TIP3    H216881   3.146   4.681   2.115  1.5788  2.4254 -1.4666
38667TIP3   OH216882   9.212   4.706   7.763 -0.0746 -0.3557 -0.3063
38667TIP3    H116883   9.161   4.771   7.811  0.5692 -0.6275  0.7994
38667TIP3    H216884   9.175   4.622   7.789  0.2076 -0.5061 -0.3832
38668TIP3   OH216885   8.527  10.309   8.195 -0.4176 -0.4640 -0.5429
38668TIP3    H116886   8.519  10.217   8.219 -1.3941 -0.6400 -1.4710
38668TIP3    H216887   8.484  10.356   8.266 -1.8319 -0.8708 -1.1026
38669TIP3   OH216888   8.404  10.368   3.392 -0.1546  0.0133  0.3898
38669TIP3    H116889   8.432  10.277   3.392  1.3505  0.4022 -1.4552
38669TIP3    H216890   8.404  10.393   3.299 -0.7455  1.8317  0.8289
38670TIP3   OH216891   1.606   0.186   9.429 -0.1531  0.3737 -0.2562
38670TIP3    H116892   1.621   0.150   9.342 -2.6218  0.1200 -0.6430
38670TIP3    H216893   1.525   0.235   9.421 -0.5706  0.1526  1.9560
38671TIP3   OH216894   2.213   3.006   8.378  0.4201  0.2294  0.0544
38671TIP3    H116895   2.260   2.966   8.305  0.1810  0.1665 -0.0659
38671TIP3    H216896   2.210   2.938   8.445  2.5900  0.9931  1.0064
38672TIP3   OH216897   0.982   6.433   7.542  0.3118  0.2646  0.2334
38672TIP3    H116898   0.904   6.383   7.518  0.4579  0.3427 -0.4273
38672TIP3    H216899   0.972   6.451   7.635 -0.5089  0.3662  0.1297
38673TIP3   OH216900   1.472  10.555   7.646  0.2086  0.3101 -0.4299
38673TIP3    H116901   1.411  10.562   7.720  2.3147 -0.4031  1.5023
38673TIP3    H216902   1.556  10.583   7.682  1.2884  0.1105 -2.6437
38674TIP3   OH216903   3.343   8.059   3.316 -0.2461 -0.5357  0.1049
38674TIP3    H116904   3.295   8.086   3.237  0.4274 -1.4088 -0.6206
38674TIP3    H216905   3.432   8.091   3.302  0.0335 -1.2462  0.2138
38675TIP3   OH216906   9.134   7.377   9.332  0.1508  0.3813 -0.2739
38675TIP3    H116907   9.198   7.310   9.305  1.8154  1.8890 -0.2630
38675TIP3    H216908   9.061   7.367   9.272  0.3672 -1.4165 -0.2830
38676TIP3   OH216909   3.158   7.224   4.202  0.1969  0.0742  0.3123
38676TIP3    H116910   3.208   7.170   4.142  0.6646 -0.4887  1.1809
38676TIP3    H216911   3.187   7.197   4.289 -0.8751  0.4550  0.8148
38677TIP3   OH216912   0.795   0.776   3.094  0.0169  0.1687  0.2324
38677TIP3    H116913   0.784   0.788   3.188  1.7921  0.2354  0.4700
38677TIP3    H216914   0.835   0.690   3.085  0.6713  0.5248 -0.3826
38678TIP3   OH216915   0.015   7.930  10.013  0.0674 -0.4772  0.2683
38678TIP3    H116916  -0.064   7.937  10.067  0.1804  1.3822  0.2699
38678TIP3    H216917   0.084   7.908  10.075  0.1067  1.1721  0.8619
38679TIP3   OH216918   8.856   3.176   2.315  0.1131  0.5733  0.3336
38679TIP3    H116919   8.858   3.082   2.332  0.5641  0.5919  0.3900
38679TIP3    H216920   8.927   3.191   2.253 -1.3514  0.5509 -1.4348
38680TIP3   OH216921   4.577   1.005   2.979 -0.0996 -0.1421 -0.0764
38680TIP3    H116922   4.592   0.978   3.070  0.1748 -0.9303 -0.3487
38680TIP3    H216923   4.621   1.089   2.971  1.7060 -1.0402 -0.0508
38681TIP3   OH216924   9.670   2.512   4.139 -0.4896 -0.2560 -0.1353
38681TIP3    H116925   9.724   2.590   4.124 -0.6994  0.0425  0.6162
38681TIP3    H216926   9.582   2.538   4.109 -1.3299  0.9488  2.9634
38682TIP3   OH216927   0.086  10.838   6.249  0.6157 -0.5178 -0.3598
38682TIP3    H116928   0.017  10.855   6.313  0.1949 -1.0287 -0.6586
38682TIP3    H216929   0.083  10.913   6.190  0.2397 -0.5823 -0.4276
38683TIP3   OH216930   9.393   1.190   6.557  0.3682  0.6680  0.1635
38683TIP3    H116931   9.408   1.210   6.649  0.6191  0.7390  0.1073
38683TIP3    H216932   9.325   1.251   6.530 -0.5429 -0.1266  0.6055
38684TIP3   OH216933   3.419  10.179   0.450 -0.4928  0.0219 -0.2962
38684TIP3    H116934   3.352  10.224   0.501 -0.3969  0.4593 -0.5538
38684TIP3    H216935   3.502  10.214   0.483 -0.4557  1.4274 -1.7532
38685TIP3   OH216936   2.405  10.722   9.783 -0.2458 -0.1861 -0.0288
38685TIP3    H116937   2.379  10.791   9.844 -1.0889 -0.4706 -0.0566
38685TIP3    H216938   2.385  10.641   9.829  0.4164 -0.4146 -0.1366
38686TIP3   OH216939   2.002   8.407   2.134  0.5586  0.1885  0.2608
38686TIP3    H116940   2.027   8.421   2.225 -0.7783 -2.5162  1.1503
38686TIP3    H216941   2.041   8.323   2.111 -1.6335 -0.6757 -0.5971
38687TIP3   OH216942  10.597   7.943   1.149 -0.2673  0.1998  0.4200
38687TIP3    H116943  10.669   7.898   1.193  0.4216  2.4138  1.7219
38687TIP3    H216944  10.520   7.922   1.201 -0.6259 -2.0240 -0.8676
38688TIP3   OH216945   9.433   6.456   7.001  0.7702 -0.3028  0.0827
38688TIP3    H116946   9.387   6.537   7.026  0.4308 -0.1848 -0.8791
38688TIP3    H216947   9.433   6.458   6.906  0.5146 -1.5852  0.0494
38689TIP3   OH216948   4.035   8.822  10.570  0.5860  0.1153  0.4302
38689TIP3    H116949   4.118   8.867  10.556  0.3559  0.5423  0.4271
38689TIP3    H216950   3.973   8.892  10.590  0.4193 -0.2776  1.3338
38690TIP3   OH216951   9.946   3.564   3.709 -0.4855 -0.3667  0.1241
38690TIP3    H116952   9.918   3.650   3.677 -0.4978  0.9257  3.2642
38690TIP3    H216953  10.041   3.565   3.700 -0.1272  1.3587  2.9044
38691TIP3   OH216954   5.189   7.776   3.083 -0.6967  0.0443 -0.1122
38691TIP3    H116955   5.127   7.825   3.030  1.2420 -0.9159 -3.5661
38691TIP3    H216956   5.180   7.685   3.053  1.6832 -0.2705 -0.0966
38692TIP3   OH216957   8.051   8.481   3.137  0.2841 -0.0495  0.0417
38692TIP3    H116958   8.122   8.439   3.186 -0.8724 -0.8338  1.1079
38692TIP3    H216959   8.056   8.441   3.050  1.0947 -0.1380  0.1160
38693TIP3   OH216960  10.619   7.386   0.223 -0.4206 -0.2051  0.8512
38693TIP3    H116961  10.526   7.391   0.201 -0.8125 -1.0725  2.1703
38693TIP3    H216962  10.649   7.305   0.181 -0.5624 -0.5537  1.4133
38694TIP3   OH216963   9.911   3.830   7.728  0.0528  0.3481 -0.3663
38694TIP3    H116964   9.892   3.743   7.693  1.5848  0.5335 -1.7408
38694TIP3    H216965   9.904   3.888   7.653  1.4801  1.0471  0.0126
38695TIP3   OH216966   5.853   8.969   5.059 -0.1657 -0.1995  0.0760
38695TIP3    H116967   5.886   9.051   5.095 -0.0031  0.4150 -1.4023
38695TIP3    H216968   5.905   8.954   4.980 -0.1823 -1.7471  0.3249
38696TIP3   OH216969   6.222   0.789   5.931  0.0482 -0.4410  0.0520
38696TIP3    H116970   6.172   0.804   6.011  0.8808  2.0595  0.1830
38696TIP3    H216971   6.161   0.810   5.860  0.6876  2.2722  0.2050
38697TIP3   OH216972   6.169   9.071   5.365  0.3546  0.5903 -0.4110
38697TIP3    H116973   6.177   8.976   5.359  0.9368  0.4812  1.5988
38697TIP3    H216974   6.254   9.104   5.334 -0.4688  0.6013 -2.8737
38698TIP3   OH216975   1.403   2.858   9.917  0.0199  0.2928  0.5970
38698TIP3    H116976   1.358   2.779   9.888  0.2292  0.3010  0.2464
38698TIP3    H216977   1.479   2.865   9.859 -2.0874  2.9495 -2.1908
38699TIP3   OH216978   9.080   1.410   4.033 -0.1937  0.4360 -0.3345
38699TIP3    H116979   9.157   1.409   3.976 -0.0248  1.2059 -0.1255
38699TIP3    H216980   9.075   1.320   4.067  0.6098  0.3747 -0.3523
38700TIP3   OH216981   8.220   8.845   3.801  0.2543  0.2811  0.4696
38700TIP3    H116982   8.207   8.924   3.748  1.3252 -0.5458 -1.0888
38700TIP3    H216983   8.137   8.834   3.848  0.4911  3.0291  1.7536
38701TIP3   OH216984   4.265   7.872   1.567  0.5651 -0.6752  0.3512
38701TIP3    H116985   4.291   7.920   1.489  0.8032  0.7648  1.2874
38701TIP3    H216986   4.193   7.923   1.605 -1.1779 -2.5981 -0.1574
38702TIP3   OH216987  10.010   6.167   0.921 -0.0413 -0.3988 -0.2800
38702TIP3    H116988   9.941   6.125   0.971  0.7880 -0.0749  1.1736
38702TIP3    H216989  10.089   6.159   0.975  0.7901  0.3608 -1.3170
38703TIP3   OH216990   5.069   5.876   9.199 -0.1905  0.0939 -0.1307
38703TIP3    H116991   4.989   5.824   9.191 -0.8509  1.1622 -0.5471
38703TIP3    H216992   5.104   5.852   9.285 -0.4571 -1.0558 -0.3246
38704TIP3   OH216993   4.000   9.651   6.986  0.0710 -0.3226  0.5047
38704TIP3    H116994   3.922   9.676   6.936  2.5254  0.9721 -3.0716
38704TIP3    H216995   3.987   9.691   7.072 -2.7665  0.6275 -0.2592
38705TIP3   OH216996  10.409  10.315   4.824 -0.4934  0.4731 -0.1800
38705TIP3    H116997  10.428  10.250   4.757 -0.3690  1.4076 -1.0903
38705TIP3    H216998  10.493  10.357   4.842 -0.7254  0.9968 -0.2895
38706TIP3   OH216999   4.566   6.143   6.026  0.4156  0.1384  0.3637
38706TIP3    H117000   4.530   6.183   5.946  0.5721  0.3261  0.3884
38706TIP3    H217001   4.586   6.217   6.083 -1.9546 -0.0343  1.5744
38707TIP3   OH217002   0.370  10.075  10.906 -0.5361 -0.0081 -0.0714
38707TIP3    H117003   0.407  10.124  10.979  0.2282  0.6097 -0.8451
38707TIP3    H217004   0.282  10.110  10.894 -0.9297 -0.6069  0.9878
38708TIP3   OH217005  10.864  10.032   7.321  0.1405 -0.3253 -0.3548
38708TIP3    H117006  10.840   9.945   7.291 -1.1181 -0.3004  0.4652
38708TIP3    H217007  10.780  10.074   7.341  0.7920  0.4785  0.8504
38709TIP3   OH217008   4.525   2.067   1.305  0.1394 -0.0250 -0.3102
38709TIP3    H117009   4.588   2.022   1.362 -0.2017  0.8147  0.7749
38709TIP3    H217010   4.460   2.001   1.283 -0.0511 -0.2203  0.7976
38710TIP3   OH217011   3.783   4.428   5.849  0.1572 -0.5704 -0.0679
38710TIP3    H117012   3.693   4.406   5.874  0.3309 -0.0089  1.1144
38710TIP3    H217013   3.774   4.469   5.763 -0.7843 -0.0204  0.2704
38711TIP3   OH217014  10.852   6.185   4.512 -0.5685  0.2132 -0.0216
38711TIP3    H117015  10.855   6.112   4.574 -2.0622  0.4487  0.3757
38711TIP3    H217016  10.830   6.261   4.565  1.2708  1.0521 -0.3870
38712TIP3   OH217017   8.854   2.698   7.841  0.0778 -0.2936  0.7558
38712TIP3    H117018   8.787   2.633   7.820 -1.9028  1.5427  1.0939
38712TIP3    H217019   8.923   2.648   7.885 -1.0074 -2.2666  0.3120
38713TIP3   OH217020  10.517   3.160   3.342 -0.6896 -0.1671  0.0818
38713TIP3    H117021  10.579   3.218   3.297 -0.7269  0.4040  0.7364
38713TIP3    H217022  10.534   3.073   3.306  0.9907 -0.1564  0.7505
38714TIP3   OH217023   5.885   6.409   1.853  0.2125 -0.3672  0.1664
38714TIP3    H117024   5.850   6.335   1.904  1.7197 -0.7680  0.6829
38714TIP3    H217025   5.963   6.373   1.810 -0.4092  0.2791 -1.5545
38715TIP3   OH217026   9.769   4.872   5.278 -0.4281 -0.3204  0.5262
38715TIP3    H117027   9.739   4.820   5.353 -0.8554  1.3258  1.5705
38715TIP3    H217028   9.725   4.957   5.290  2.0032  1.0677  0.2196
38716TIP3   OH217029   2.278   9.844   5.684 -0.1510 -0.3074  0.1858
38716TIP3    H117030   2.253   9.805   5.600  1.0338  0.4888 -0.5627
38716TIP3    H217031   2.359   9.799   5.708 -0.3807 -0.3929  0.8122
38717TIP3   OH217032   9.270   6.911  10.137  0.3367 -0.1917  0.1599
38717TIP3    H117033   9.336   6.888  10.202 -0.9741  2.0674  2.4596
38717TIP3    H217034   9.313   6.975  10.080  1.2895 -1.7123 -0.9101
38718TIP3   OH217035   2.949   0.529   9.660 -0.3372 -0.1917 -0.4984
38718TIP3    H117036   2.925   0.561   9.573 -0.9862 -0.4565 -0.4211
38718TIP3    H217037   2.989   0.444   9.644  0.3253  0.1314 -0.6039
38719TIP3   OH217038   9.032   7.521   1.560 -0.0184  0.4557  0.2295
38719TIP3    H117039   8.943   7.550   1.542  0.5527  1.4871 -1.2259
38719TIP3    H217040   9.040   7.522   1.655 -1.9124 -0.8745  0.4455
38720TIP3   OH217041   3.404   4.173   4.488  0.3897 -0.2090  0.5456
38720TIP3    H117042   3.411   4.266   4.467 -0.3704 -0.4523 -0.9223
38720TIP3    H217043   3.495   4.142   4.490  0.6021 -0.0860 -2.3428
38721TIP3   OH217044   0.689   4.780  10.588 -0.0237 -0.2737 -0.4613
38721TIP3    H117045   0.722   4.821  10.508  0.4080  0.3927  0.0434
38721TIP3    H217046   0.643   4.851  10.634 -0.4129 -0.6914 -0.1959
38722TIP3   OH217047   7.713   3.102   4.882 -0.0196 -0.1361  0.1561
38722TIP3    H117048   7.658   3.174   4.853 -0.7024  0.0829  1.8941
38722TIP3    H217049   7.712   3.040   4.809 -1.8920  0.2507 -0.1787
38723TIP3   OH217050  10.149   6.884   6.219 -0.4969  0.4269  0.1349
38723TIP3    H117051  10.111   6.797   6.232 -1.9681  1.1063  0.5861
38723TIP3    H217052  10.190   6.879   6.133 -0.1136 -0.8629  0.3704
38724TIP3   OH217053   3.573   0.110   6.946 -0.0341  0.0030  0.6856
38724TIP3    H117054   3.527   0.193   6.939  1.1477  0.5650 -1.5189
38724TIP3    H217055   3.633   0.121   7.020  0.2237  1.2059  0.3156
38725TIP3   OH217056   7.585   6.056   5.529  0.5368 -0.4138  0.5154
38725TIP3    H117057   7.611   5.984   5.586  2.1425 -0.8511 -0.6776
38725TIP3    H217058   7.634   6.131   5.563  2.1583 -0.8562 -0.6935
38726TIP3   OH217059   7.303   9.112   7.755 -0.0169 -0.3741 -0.0520
38726TIP3    H117060   7.271   9.030   7.793 -1.1433 -0.1634 -0.4882
38726TIP3    H217061   7.391   9.092   7.724  0.1010 -1.1384  0.7499
38727TIP3   OH217062   8.014   8.454  10.374 -0.0094  0.0306  0.1407
38727TIP3    H117063   7.999   8.523  10.438  0.1303  0.9226 -0.7733
38727TIP3    H217064   8.055   8.498  10.299  0.3227 -1.0826 -0.3544
38728TIP3   OH217065   7.310   8.040  10.640  0.2907  0.4799  0.2282
38728TIP3    H117066   7.264   8.090  10.708 -3.0403 -2.6290  0.5138
38728TIP3    H217067   7.263   8.060  10.559  1.1297  0.4116 -0.2868
38729TIP3   OH217068   8.244   0.647   4.647  0.7007  0.7947  0.1576
38729TIP3    H117069   8.176   0.638   4.714 -0.6868  1.3893 -1.1157
38729TIP3    H217070   8.294   0.566   4.652  0.4534  0.7109  1.6993
38730TIP3   OH217071   1.288   8.007   0.935 -0.0070 -0.0481  0.1520
38730TIP3    H117072   1.232   8.036   0.864  0.6820  0.1154 -0.3285
38730TIP3    H217073   1.227   7.980   1.004 -0.6814 -0.4488 -0.5879
38731TIP3   OH217074   8.731  10.317   3.419 -0.3413  0.5054 -0.0543
38731TIP3    H117075   8.644  10.295   3.386 -0.8482 -0.8341  1.9556
38731TIP3    H217076   8.735  10.275   3.505  2.8657 -0.8104 -0.7013
38732TIP3   OH217077   7.833   7.419   6.550  0.6396 -0.3409 -0.2329
38732TIP3    H117078   7.879   7.340   6.521 -0.5146 -0.8153 -0.8318
38732TIP3    H217079   7.786   7.450   6.473 -1.0085 -0.5756  0.6114
38733TIP3   OH217080  10.658  10.831   4.446 -0.4740  0.0525 -0.8473
38733TIP3    H117081  10.658  10.924   4.419  1.3957  0.6887  1.0806
38733TIP3    H217082  10.585  10.823   4.506  1.0286  1.0836  1.2314
38734TIP3   OH217083   3.666   0.287   8.158 -0.3248  0.7173  0.3843
38734TIP3    H117084   3.591   0.312   8.105 -1.0822  0.9800  1.5484
38734TIP3    H217085   3.668   0.350   8.230  0.8421  0.5407  0.5353
38735TIP3   OH217086   4.875   1.998   0.655 -0.3816  0.3135  0.1975
38735TIP3    H117087   4.863   1.905   0.676 -2.0153  0.3779 -0.2967
38735TIP3    H217088   4.834   2.008   0.570  0.7220  1.2972 -0.2361
38736TIP3   OH217089   5.136   6.827   9.066  0.4957  0.2901  0.6894
38736TIP3    H117090   5.131   6.759   8.998  1.3974 -0.5373  1.4307
38736TIP3    H217091   5.101   6.905   9.023 -0.0146 -0.4873 -0.3709
38737TIP3   OH217092   8.069   1.117   2.166  0.1088 -0.4813 -0.4870
38737TIP3    H117093   8.007   1.148   2.100  0.8438  0.8778 -0.5872
38737TIP3    H217094   8.031   1.143   2.250  0.1194 -0.4213 -0.5006
38738TIP3   OH217095   5.821   5.408   9.688  0.8697 -0.3911  0.5407
38738TIP3    H117096   5.828   5.373   9.600  2.3343 -0.4609  0.6576
38738TIP3    H217097   5.786   5.496   9.676 -2.2865 -1.5550  0.2016
38739TIP3   OH217098   0.252  10.469   9.429 -0.2774  0.0481  0.2101
38739TIP3    H117099   0.214  10.478   9.342 -1.6434 -3.1388  0.3575
38739TIP3    H217100   0.341  10.437   9.414 -0.3208  0.0231  0.0081
38740TIP3   OH217101   6.085   4.600   6.121 -1.1571  0.5431  0.0165
38740TIP3    H117102   6.028   4.523   6.132  0.1190 -0.3663  0.4708
38740TIP3    H217103   6.126   4.587   6.035 -1.5892  1.1875 -0.2995
38741TIP3   OH217104   2.169   2.738   9.743 -0.0618  0.3673  0.4741
38741TIP3    H117105   2.205   2.652   9.720 -0.3771 -0.1116  1.6691
38741TIP3    H217106   2.245   2.794   9.753  0.1177  0.4248 -0.9690
38742TIP3   OH217107   6.061   9.968   9.991  0.3747  0.1539 -0.2493
38742TIP3    H117108   6.152   9.986   9.968  0.5836  1.0099  1.1256
38742TIP3    H217109   6.018  10.054   9.989 -0.0784 -0.0466  0.4034
38743TIP3   OH217110   8.595   9.160   4.808  0.4252 -0.4184 -0.1912
38743TIP3    H117111   8.630   9.224   4.746 -0.6249  0.8391  0.4741
38743TIP3    H217112   8.668   9.139   4.866  0.8660 -0.0673 -0.6159
38744TIP3   OH217113   3.647   4.715   7.786  0.0417 -0.0605  0.2025
38744TIP3    H117114   3.705   4.639   7.791  3.4497  2.2518 -0.5765
38744TIP3    H217115   3.592   4.709   7.864  1.8512 -2.0396  1.4350
38745TIP3   OH217116   0.285  10.866   3.859 -0.3492 -0.0222 -0.4145
38745TIP3    H117117   0.355  10.877   3.795  0.3458 -1.1138  0.1307
38745TIP3    H217118   0.253  10.955   3.874  1.8534  0.7143  0.3591
38746TIP3   OH217119   5.345   5.774   7.969  0.0962  0.2092  0.2756
38746TIP3    H117120   5.412   5.735   8.024 -0.8953 -1.8951  0.0952
38746TIP3    H217121   5.371   5.751   7.880 -0.8148 -0.6333  0.2046
38747TIP3   OH217122   0.509   4.642   7.139  0.1384  0.2135  0.2589
38747TIP3    H117123   0.485   4.577   7.205  1.2887  0.5495  1.0284
38747TIP3    H217124   0.425   4.674   7.106 -0.5524 -3.4088 -1.9654
38748TIP3   OH217125   8.274   6.555   3.938  0.5485  0.1750  0.3795
38748TIP3    H117126   8.188   6.521   3.962  0.9521 -0.8050  0.4841
38748TIP3    H217127   8.316   6.483   3.891  0.9556  0.9801 -0.5297
38749TIP3   OH217128   8.348   3.154   6.770 -0.0810 -0.1999 -0.2028
38749TIP3    H117129   8.316   3.144   6.860 -1.4620 -1.8822 -0.8186
38749TIP3    H217130   8.329   3.245   6.748  0.3489  0.2685  1.2078
38750TIP3   OH217131   8.762   2.327   2.091  0.6654 -0.6494 -0.1272
38750TIP3    H117132   8.845   2.301   2.050  0.0896 -1.2014 -0.9598
38750TIP3    H217133   8.789   2.367   2.174  1.9552  1.8498 -1.6390
38751TIP3   OH217134   5.395   7.068   7.121 -0.0984  0.7364 -0.1603
38751TIP3    H117135   5.304   7.098   7.112  0.6478  2.9161 -1.3632
38751TIP3    H217136   5.439   7.139   7.167  1.1942  0.1449 -0.4364
38752TIP3   OH217137   2.560   0.299   1.747 -0.3135 -0.2447 -0.1383
38752TIP3    H117138   2.495   0.241   1.707 -0.3741 -0.1465 -0.1815
38752TIP3    H217139   2.509   0.374   1.779 -0.1087  0.2833 -1.0114
38753TIP3   OH217140   6.960   9.925   2.164  0.0673  0.4942  0.1881
38753TIP3    H117141   6.925   9.837   2.178  2.6529 -0.2828  2.6069
38753TIP3    H217142   6.903   9.982   2.216 -1.0158  0.1870 -0.6010
38754TIP3   OH217143   1.344   3.322   3.808  0.2381  0.8143  0.3347
38754TIP3    H117144   1.318   3.339   3.899 -1.2077 -1.2849  0.3854
38754TIP3    H217145   1.262   3.311   3.761  0.9812  1.0288 -1.0797
38755TIP3   OH217146   1.896   8.408   9.717  0.2733  0.1820  0.2717
38755TIP3    H117147   1.933   8.322   9.697  1.6608  0.3976  1.7183
38755TIP3    H217148   1.912   8.419   9.811 -0.9925  1.5145  0.3672
38756TIP3   OH217149   1.245   9.244   9.955 -0.0170  0.7094  0.1417
38756TIP3    H117150   1.151   9.237   9.970  0.0970  0.7662  0.9249
38756TIP3    H217151   1.256   9.231   9.861 -0.7884  0.5105  0.0774
38757TIP3   OH217152  10.565  10.297   2.197 -0.1884 -0.1326  0.1923
38757TIP3    H117153  10.538  10.261   2.113 -1.4229  1.0896  0.0180
38757TIP3    H217154  10.483  10.329   2.237  0.7968  2.6305  0.2114
38758TIP3   OH217155   4.952   7.068   1.311  0.0263  0.5373 -0.1869
38758TIP3    H117156   4.907   7.113   1.382 -0.1660 -1.7213  1.2299
38758TIP3    H217157   4.929   6.975   1.323  3.3813 -0.4941 -0.6086
38759TIP3   OH217158   3.876   7.197   5.888  0.2692  0.4216 -0.4277
38759TIP3    H117159   3.922   7.213   5.970  1.3780 -0.5252 -0.8399
38759TIP3    H217160   3.945   7.191   5.822 -0.5979  1.1793 -1.4565
38760TIP3   OH217161   3.443   7.914   5.142 -0.1383 -0.8373 -0.1623
38760TIP3    H117162   3.531   7.878   5.128  0.2252  0.5021 -1.6205
38760TIP3    H217163   3.388   7.868   5.079  0.0215 -0.0487 -0.9142
38761TIP3   OH217164   8.406   7.442   5.378 -0.0128  0.9028  0.0402
38761TIP3    H117165   8.413   7.483   5.292 -0.3723  1.1884  0.1425
38761TIP3    H217166   8.338   7.492   5.423  0.0720  0.6669  0.4404
38762TIP3   OH217167   8.221  10.218   2.996 -0.0994  0.4544 -0.1569
38762TIP3    H117168   8.195  10.182   3.081  0.1219  3.2545  1.2174
38762TIP3    H217169   8.146  10.203   2.939 -1.0192  0.2169  1.0869
38763TIP3   OH217170  10.445   1.874   9.375 -0.3520  0.2118 -0.2496
38763TIP3    H117171  10.405   1.823   9.304  2.6211  0.0354 -2.0026
38763TIP3    H217172  10.383   1.868   9.447 -1.9023 -2.7090 -1.6248
38764TIP3   OH217173   9.712   4.310   1.130  0.3590  0.0678 -0.1299
38764TIP3    H117174   9.657   4.324   1.053 -2.8565  0.0723  2.0006
38764TIP3    H217175   9.750   4.395   1.148 -1.1757  0.7781 -0.1032
38765TIP3   OH217176   4.937   6.842   2.083  0.0740  0.0148  0.3110
38765TIP3    H117177   4.863   6.859   2.142  0.8693  0.6829  1.1430
38765TIP3    H217178   4.940   6.747   2.075 -0.7820 -0.0300  0.3742
38766TIP3   OH217179   9.244   9.172   8.206 -0.2848 -0.1713  0.2845
38766TIP3    H117180   9.334   9.199   8.188  0.3051 -1.7337  0.6909
38766TIP3    H217181   9.247   9.076   8.207 -1.5856 -0.2555  2.0446
38767TIP3   OH217182  10.536   1.982   5.925  0.4765  0.6703  0.0914
38767TIP3    H117183  10.499   2.070   5.916  0.6827  0.8574  0.9840
38767TIP3    H217184  10.472   1.934   5.977  0.9266  0.6578  0.6502
38768TIP3   OH217185   2.378   3.933   8.855  0.3686  0.2636 -0.8139
38768TIP3    H117186   2.435   3.866   8.893  0.2968 -0.2475 -1.6003
38768TIP3    H217187   2.305   3.939   8.917  0.6301 -0.0101 -0.4720
38769TIP3   OH217188   6.506   8.975   5.580  0.1967  0.0462  0.2680
38769TIP3    H117189   6.507   9.031   5.503 -1.3906  1.1837  1.0256
38769TIP3    H217190   6.482   9.033   5.652  2.0509 -0.8848  1.7301
38770TIP3   OH217191   5.565   3.356   7.537  0.3169  0.1233 -0.4643
38770TIP3    H117192   5.567   3.267   7.502 -1.7595 -1.1768  2.3558
38770TIP3    H217193   5.479   3.390   7.513  0.7648  1.0802 -0.7854
38771TIP3   OH217194   7.515   1.967   3.205  0.1084 -0.4911  0.3460
38771TIP3    H117195   7.547   2.042   3.257  1.2814 -2.1630  2.2000
38771TIP3    H217196   7.445   1.929   3.258 -1.3051 -0.0596 -1.1445
38772TIP3   OH217197   7.202   1.292   9.652 -0.3861 -0.6194  1.1040
38772TIP3    H117198   7.195   1.287   9.557  0.8368  1.7064  0.8263
38772TIP3    H217199   7.124   1.340   9.680  1.5100  3.0494  0.6529
38773TIP3   OH217200   5.135   3.127   6.871  0.2281  0.1951  0.5486
38773TIP3    H117201   5.105   3.119   6.781  0.7292  2.3468  0.1265
38773TIP3    H217202   5.059   3.102   6.924 -0.1190 -0.9367 -0.4460
38774TIP3   OH217203   1.659   9.936   5.959 -0.3110 -0.3505 -0.5144
38774TIP3    H117204   1.693   9.876   5.894 -1.9875 -1.1927 -0.6622
38774TIP3    H217205   1.736   9.986   5.988  0.8913 -1.6639 -1.3116
38775TIP3   OH217206   0.809  10.074   5.653  0.0285 -0.0606 -0.3654
38775TIP3    H117207   0.718  10.070   5.680  0.3568  0.8377  0.9392
38775TIP3    H217208   0.828  10.167   5.643  0.8853 -0.2200 -0.3198
38776TIP3   OH217209   9.850   1.590   6.835  0.4621 -0.2561 -0.1714
38776TIP3    H117210   9.792   1.648   6.884  0.0078 -0.1262 -0.8496
38776TIP3    H217211   9.857   1.511   6.889  0.6096  0.1884  0.4742
38777TIP3   OH217212   3.525   5.284   6.345 -0.0811  0.0355  0.4731
38777TIP3    H117213   3.486   5.210   6.392  1.1655  0.4996  2.3320
38777TIP3    H217214   3.493   5.362   6.390  1.6660  0.4694  1.0383
38778TIP3   OH217215   6.284   8.644   9.347  0.6089  0.0025 -0.3601
38778TIP3    H117216   6.352   8.593   9.303 -0.1413  0.6068 -2.3573
38778TIP3    H217217   6.330   8.687   9.419  2.0941 -0.5217 -0.9344
38779TIP3   OH217218   2.173   0.520  10.361 -0.0245  0.1196  0.2850
38779TIP3    H117219   2.163   0.614  10.373 -1.0627  0.1823 -0.8628
38779TIP3    H217220   2.128   0.501  10.278 -1.6414 -1.6746  1.4629
38780TIP3   OH217221   8.088   3.133   2.732 -0.3261 -0.0498 -0.1560
38780TIP3    H117222   8.014   3.192   2.750  0.7198  1.0890  0.6042
38780TIP3    H217223   8.093   3.077   2.808  0.2781  0.6376  0.3236
38781TIP3   OH217224   5.842   9.371   8.038 -0.5462  0.4493 -0.1709
38781TIP3    H117225   5.802   9.326   7.964 -1.3852  0.4913  0.2444
38781TIP3    H217226   5.923   9.323   8.055 -1.0650 -0.4602 -0.1961
38782TIP3   OH217227   4.520   6.310   9.465 -0.1632 -0.5014 -0.1386
38782TIP3    H117228   4.443   6.255   9.479 -0.9855  0.9644  1.3793
38782TIP3    H217229   4.507   6.346   9.377 -0.3206 -1.6005 -0.5845
38783TIP3   OH217230   7.209   9.894   3.521  0.5024 -0.2187 -0.5730
38783TIP3    H117231   7.297   9.882   3.558  1.6261 -0.3168 -3.0851
38783TIP3    H217232   7.179   9.977   3.557  1.6050 -0.1825  0.3319
38784TIP3   OH217233   1.643   2.838   0.721  0.2870  0.3234 -0.1479
38784TIP3    H117234   1.623   2.862   0.631  0.6432  1.2873  0.0191
38784TIP3    H217235   1.694   2.912   0.755 -0.2916  0.2144  1.0059
38785TIP3   OH217236   0.121   1.852   4.729 -0.7336  0.1362  0.4824
38785TIP3    H117237   0.044   1.851   4.786 -1.0483 -0.1625  0.0619
38785TIP3    H217238   0.164   1.935   4.747 -0.7695 -0.0060  1.2348
38786TIP3   OH217239  10.078   3.621   8.225 -0.3080  0.1926  0.6549
38786TIP3    H117240  10.020   3.570   8.169  1.6182  0.6412 -1.9717
38786TIP3    H217241  10.058   3.592   8.314 -2.8643 -1.3049 -0.3068
38787TIP3   OH217242   7.100   7.630   0.793  0.2037  0.1944  0.0835
38787TIP3    H117243   7.081   7.710   0.841  2.2964  0.7109  0.1413
38787TIP3    H217244   7.169   7.587   0.843  0.5503 -0.6190 -1.0363
38788TIP3   OH217245   4.701  10.503   3.430  0.2549 -0.1994  0.3604
38788TIP3    H117246   4.667  10.486   3.342 -1.4856 -0.9971  1.1396
38788TIP3    H217247   4.647  10.450   3.487  0.4506  1.3306  2.0676
38789TIP3   OH217248   1.475   4.182   8.640  0.0385  0.0482  0.0677
38789TIP3    H117249   1.556   4.145   8.603  0.0361 -0.4329  0.5303
38789TIP3    H217250   1.476   4.154   8.732  0.3061  1.6438  0.5894
38790TIP3   OH217251   4.316   2.060   6.934  0.3605  0.3442 -0.4741
38790TIP3    H117252   4.407   2.069   6.963  0.2149 -1.8032  0.8788
38790TIP3    H217253   4.269   2.030   7.012 -0.8774 -1.6929 -1.9298
38791TIP3   OH217254  10.424   8.561   7.161  0.0980 -0.0644  0.6592
38791TIP3    H117255  10.394   8.607   7.083  1.1756 -0.3081  0.0823
38791TIP3    H217256  10.451   8.474   7.130  0.7522 -0.0850  1.2486
38792TIP3   OH217257   4.013   7.485   2.954  0.2196 -0.1775 -1.2678
38792TIP3    H117258   4.076   7.476   3.025 -1.2033  0.6097  0.1381
38792TIP3    H217259   4.050   7.553   2.897 -0.3651  1.9961  0.7707
38793TIP3   OH217260  10.514   4.938   1.727  0.6083 -0.4794  0.6780
38793TIP3    H117261  10.579   4.873   1.700 -0.0431 -2.1636  2.8281
38793TIP3    H217262  10.440   4.924   1.668  0.5668 -1.5750  0.9643
38794TIP3   OH217263   0.841  10.636   8.899  0.5430 -0.0331 -0.3604
38794TIP3    H117264   0.906  10.617   8.831  0.9271 -0.6195  0.1532
38794TIP3    H217265   0.877  10.595   8.978 -0.0716  0.3244  0.1124
38795TIP3   OH217266   6.262   0.525   3.144 -0.2382  0.1112 -0.2970
38795TIP3    H117267   6.330   0.482   3.092 -0.1525 -0.8185  0.5425
38795TIP3    H217268   6.205   0.453   3.172 -0.4949  0.6389  0.5644
38796TIP3   OH217269   7.381   9.877   7.093  0.1642 -0.0411 -0.0103
38796TIP3    H117270   7.311   9.869   7.029  0.2673  2.6394 -0.6001
38796TIP3    H217271   7.336   9.887   7.177 -0.2405  1.7646 -0.3975
38797TIP3   OH217272   7.605   4.021   2.740  0.3337  0.0280 -0.1519
38797TIP3    H117273   7.678   3.969   2.707  0.2254  0.5302 -1.2187
38797TIP3    H217274   7.613   4.016   2.836  0.9026 -1.1137 -0.2357
38798TIP3   OH217275   9.982   4.886   0.311  0.0078 -0.3787 -0.4266
38798TIP3    H117276   9.990   4.970   0.266 -0.8072  0.0776  0.2593
38798TIP3    H217277   9.923   4.835   0.256  2.5619 -1.5540 -2.3014
38799TIP3   OH217278   2.111   1.371   2.798  0.2792  0.2350 -0.5567
38799TIP3    H117279   2.133   1.331   2.882 -0.2633 -3.8735 -2.1233
38799TIP3    H217280   2.022   1.405   2.810  0.9742  1.6361  1.0308
38800TIP3   OH217281  10.084   7.379   4.755 -0.3706  0.3320  0.5377
38800TIP3    H117282  10.069   7.349   4.845 -1.7401 -0.2481  0.1487
38800TIP3    H217283   9.998   7.409   4.726  0.4346  2.2891  0.0377
38801TIP3   OH217284   0.250   4.966   2.535  0.0264 -0.1155 -0.0452
38801TIP3    H117285   0.280   4.998   2.620  0.1025  1.6535 -0.6924
38801TIP3    H217286   0.160   4.996   2.528  0.8683  2.3989 -1.7297
38802TIP3   OH217287   5.266   9.029   5.243 -0.3871  0.3871 -0.6739
38802TIP3    H117288   5.346   9.060   5.286 -1.1710  2.9860 -0.8972
38802TIP3    H217289   5.286   9.035   5.149 -0.0001 -1.5544 -0.7678
38803TIP3   OH217290   3.526   6.732   0.656  0.1041  0.3210  0.1435
38803TIP3    H117291   3.482   6.760   0.575  0.4130 -1.0061 -0.5015
38803TIP3    H217292   3.599   6.678   0.626 -0.4631 -1.1540  1.3239
38804TIP3   OH217293   7.536   8.751   0.451 -0.1590 -1.0565  0.1401
38804TIP3    H117294   7.481   8.687   0.497 -0.1664 -1.5887 -0.5823
38804TIP3    H217295   7.526   8.728   0.358 -0.2720  0.0921 -0.1441
38805TIP3   OH217296   9.889   5.124   6.509 -0.4637  0.7448  0.0742
38805TIP3    H117297   9.822   5.061   6.533  0.1125  0.6648  1.5847
38805TIP3    H217298   9.848   5.179   6.442 -1.0881 -0.9791 -1.0264
38806TIP3   OH217299   8.024   0.241   6.655  0.0385 -0.1655  0.5608
38806TIP3    H117300   8.068   0.227   6.572  0.2897  1.1049  0.4704
38806TIP3    H217301   7.956   0.173   6.658  1.1313 -1.3042  0.1179
38807TIP3   OH217302   3.158   6.708   9.040 -0.1244  0.7124 -0.2534
38807TIP3    H117303   3.207   6.627   9.026  0.5614  0.7463  1.6820
38807TIP3    H217304   3.066   6.680   9.045  0.0481  0.1488 -0.2039
38808TIP3   OH217305   7.016   6.675   8.504  0.2747  0.5576  0.2139
38808TIP3    H117306   7.047   6.746   8.561  2.7345 -0.9701  0.9461
38808TIP3    H217307   7.073   6.601   8.526 -1.9121 -1.5489 -0.7957
38809TIP3   OH217308   8.910  10.864   4.265  0.0619 -0.3528  0.1883
38809TIP3    H117309   8.916  10.945   4.316 -1.3610  0.5511 -0.9539
38809TIP3    H217310   8.817  10.842   4.267  0.2587 -1.3068 -0.4978
38810TIP3   OH217311   5.816   7.507  10.257 -0.2128 -0.5390 -0.2989
38810TIP3    H117312   5.849   7.475  10.341 -2.8166  0.6413  1.2808
38810TIP3    H217313   5.721   7.502  10.265 -0.5666 -1.1799 -3.5555
38811TIP3   OH217314   5.914   4.624  10.775 -0.2418 -0.4840 -0.0719
38811TIP3    H117315   5.930   4.599  10.684  0.0056  1.3888 -0.5901
38811TIP3    H217316   5.996   4.665  10.803 -1.0261  0.8821  0.2798
38812TIP3   OH217317  10.250   3.233   4.657 -0.2336 -0.0996 -0.2286
38812TIP3    H117318  10.326   3.223   4.714 -0.6310 -0.4713  0.2487
38812TIP3    H217319  10.195   3.297   4.701 -0.4568 -0.2493 -0.2869
38813TIP3   OH217320   6.520   3.116  10.301  0.3502  0.4952  0.3370
38813TIP3    H117321   6.533   3.142  10.210  0.2069  1.7466  0.6560
38813TIP3    H217322   6.608   3.096  10.333  0.3350 -0.5978 -0.2359
38814TIP3   OH217323   9.357   9.694   4.815  0.6088  0.1275 -0.0058
38814TIP3    H117324   9.347   9.698   4.719  0.2267  1.5568  0.0727
38814TIP3    H217325   9.277   9.736   4.848  0.5468 -0.7316  0.9577
38815TIP3   OH217326   2.625   3.853   1.729  0.6538 -0.9156  0.4303
38815TIP3    H117327   2.617   3.904   1.810 -0.6640 -0.1616 -0.1449
38815TIP3    H217328   2.564   3.781   1.741 -0.1242 -0.3730 -0.1877
38816TIP3   OH217329   5.921   2.547   6.050 -0.3437 -0.1035  0.6635
38816TIP3    H117330   5.952   2.472   6.100  2.1986 -0.8631 -1.7772
38816TIP3    H217331   5.991   2.612   6.057  0.2592 -0.3406 -1.8980
38817TIP3   OH217332   9.830   2.478   1.907  0.7578  0.0441 -0.5712
38817TIP3    H117333   9.837   2.574   1.911  0.8649  0.2515 -3.3916
38817TIP3    H217334   9.791   2.461   1.821 -1.2350 -2.4181  0.6998
38818TIP3   OH217335   4.893  10.490   1.190 -0.0568 -0.7005  0.2604
38818TIP3    H117336   4.879  10.397   1.211 -0.0198 -1.1644 -1.6365
38818TIP3    H217337   4.818  10.515   1.137 -1.2854  1.0678  2.6474
38819TIP3   OH217338   0.848   9.401   5.366  0.1707  0.2719  0.0967
38819TIP3    H117339   0.766   9.365   5.397 -0.2399  0.3371 -0.8785
38819TIP3    H217340   0.863   9.478   5.421 -0.1042 -0.0828  0.6755
38820TIP3   OH217341   2.760   7.949   3.752 -0.2832  0.4053 -0.0163
38820TIP3    H117342   2.778   7.958   3.845 -1.1867 -0.5453  0.2671
38820TIP3    H217343   2.790   7.860   3.730  1.1988  1.0872 -0.9592
38821TIP3   OH217344   1.871   1.011   4.019  0.3186  0.2211 -0.3223
38821TIP3    H117345   1.799   0.989   3.960  1.3787 -0.2325 -1.4762
38821TIP3    H217346   1.903   0.926   4.049  0.4837  0.4197  0.0753
38822TIP3   OH217347   6.099   6.567   7.769  0.7676 -0.2373 -0.2813
38822TIP3    H117348   6.113   6.654   7.808 -1.3833 -0.3156  0.7973
38822TIP3    H217349   6.050   6.585   7.689  0.5563 -0.4399 -0.1962
38823TIP3   OH217350   3.108   0.722   9.995  0.1604 -0.2675 -0.4651
38823TIP3    H117351   3.078   0.782   9.927 -1.0728 -1.1714 -0.7345
38823TIP3    H217352   3.199   0.703   9.971  0.1860  0.5424 -1.0484
38824TIP3   OH217353   5.141   3.160   5.272 -0.2509 -0.2326 -0.3022
38824TIP3    H117354   5.103   3.080   5.309 -0.7391  0.1925  0.1435
38824TIP3    H217355   5.138   3.147   5.178 -0.0349 -0.8687 -0.2294
38825TIP3   OH217356   1.553   2.351   0.051  0.2655 -0.0209 -0.3324
38825TIP3    H117357   1.619   2.420   0.043  0.3000  0.2931  1.8906
38825TIP3    H217358   1.473   2.389   0.015 -0.0688  1.7870  2.0904
38826TIP3   OH217359   9.204   1.903   9.332  0.1754  0.2523 -0.0151
38826TIP3    H117360   9.192   1.947   9.248  0.9130  0.8675  0.1914
38826TIP3    H217361   9.239   1.971   9.390 -0.1185 -0.2188  0.7327
38827TIP3   OH217362   1.976   7.632   2.346 -0.3099 -1.0215 -0.3634
38827TIP3    H117363   1.954   7.682   2.425  2.5121 -1.3019  0.7085
38827TIP3    H217364   1.971   7.541   2.374 -0.6618 -1.1691 -0.9107
38828TIP3   OH217365   1.074   0.238   4.293 -0.0489  0.6603 -0.1610
38828TIP3    H117366   1.160   0.279   4.284  0.3586 -0.1929 -0.2481
38828TIP3    H217367   1.088   0.164   4.352 -1.1721  1.7694  1.5857
38829TIP3   OH217368   7.123   3.723   9.065  0.6929  0.4050  0.6001
38829TIP3    H117369   7.185   3.760   9.002 -1.2631  2.2083 -0.3946
38829TIP3    H217370   7.114   3.791   9.132 -0.4972  0.3592  0.5026
38830TIP3   OH217371   5.075   3.614   6.867  0.1720 -0.1774  0.0549
38830TIP3    H117372   5.025   3.532   6.872 -1.4428  0.7500 -0.1879
38830TIP3    H217373   5.166   3.587   6.879 -0.3344 -1.9824  0.1742
38831TIP3   OH217374   8.521   9.279   8.166  0.0561  0.5298  0.4473
38831TIP3    H117375   8.589   9.340   8.194  0.1472  0.1497  1.0613
38831TIP3    H217376   8.569   9.201   8.138  0.0557  1.3235 -1.9596
38832TIP3   OH217377   9.137   5.353  10.079  0.0214 -0.0645 -0.1885
38832TIP3    H117378   9.201   5.366  10.010 -1.6738 -1.0109 -2.0548
38832TIP3    H217379   9.100   5.266  10.062 -2.5555  0.8921  0.0639
38833TIP3   OH217380   4.029   9.117   4.327  0.0657  0.0998 -0.0088
38833TIP3    H117381   3.992   9.058   4.262 -0.8503  1.2357 -0.5576
38833TIP3    H217382   4.124   9.111   4.314  0.0060 -1.3436  0.0624
38834TIP3   OH217383   4.320  10.634   7.861  0.9288 -0.0737  0.1078
38834TIP3    H117384   4.256  10.571   7.828 -0.6670  1.5505 -0.0971
38834TIP3    H217385   4.292  10.653   7.950 -0.2458  2.2189 -0.6643
38835TIP3   OH217386   6.039   1.403   1.894 -1.2031  0.7232 -0.4398
38835TIP3    H117387   6.091   1.343   1.948  0.5516  3.0276  0.6334
38835TIP3    H217388   6.064   1.381   1.804  0.5003  0.7404 -0.0062
38836TIP3   OH217389   2.542  10.210   9.117  0.1866  0.8374 -0.6389
38836TIP3    H117390   2.562  10.298   9.084 -0.7711  1.0888 -0.5753
38836TIP3    H217391   2.501  10.225   9.202 -1.4252  0.4276 -1.3121
38837TIP3   OH217392   6.032   7.575   7.907  0.0275  0.2325 -0.3767
38837TIP3    H117393   5.963   7.629   7.945 -0.4614 -0.6824  0.0677
38837TIP3    H217394   6.069   7.527   7.982 -0.6735 -1.2854 -0.9568
38838TIP3   OH217395  10.781   3.716   7.048 -0.4764 -0.2641 -0.0714
38838TIP3    H117396  10.867   3.684   7.077 -0.2435  1.4103  1.2930
38838TIP3    H217397  10.731   3.725   7.129 -1.4855  0.0397 -0.7114
38839TIP3   OH217398  10.229  10.875   7.337 -0.3905  0.1591  0.0993
38839TIP3    H117399  10.240  10.785   7.307  0.0996  0.2144  0.1092
38839TIP3    H217400  10.207  10.867   7.430  0.6371  0.0826  0.3485
38840TIP3   OH217401   2.577  10.801   4.892  0.3091 -0.6298 -0.2968
38840TIP3    H117402   2.614  10.889   4.883 -0.4144 -0.1866  0.7560
38840TIP3    H217403   2.619  10.766   4.971  1.0373 -1.4826 -1.0380
38841TIP3   OH217404   0.836   4.706   8.843  0.0166  0.5555  0.4991
38841TIP3    H117405   0.798   4.627   8.805 -2.8002  1.8972  0.2459
38841TIP3    H217406   0.847   4.766   8.769  0.6169  0.9680  0.9096
38842TIP3   OH217407   1.872  10.175   2.077 -0.5534 -0.2121  0.1088
38842TIP3    H117408   1.935  10.218   2.019  0.7204 -0.2721  1.3672
38842TIP3    H217409   1.870  10.084   2.048 -2.1293  0.3070 -1.6182
38843TIP3   OH217410   4.531   1.868   5.682  0.4157  0.9526 -0.3455
38843TIP3    H117411   4.497   1.879   5.593 -1.3153 -1.5441 -0.0890
38843TIP3    H217412   4.511   1.951   5.726 -4.4613  0.1834 -0.5888
38844TIP3   OH217413   6.151   2.784   9.568  0.1730  0.0887  0.4543
38844TIP3    H117414   6.114   2.696   9.567 -1.6489  0.8132  0.3846
38844TIP3    H217415   6.216   2.782   9.639 -0.1784 -1.1842  0.7590
38845TIP3   OH217416   7.861  10.426   1.101  0.5848 -0.3390  1.0001
38845TIP3    H117417   7.906  10.500   1.061 -1.5275 -0.2312 -1.3800
38845TIP3    H217418   7.834  10.372   1.028  0.3912 -2.5299  2.5859
38846TIP3   OH217419   3.087   5.974  10.670  0.2654 -0.0755 -0.0755
38846TIP3    H117420   3.037   5.901  10.632  0.6390 -1.6743  2.2849
38846TIP3    H217421   3.171   5.971  10.623  0.5299 -1.6556  0.4420
38847TIP3   OH217422   2.889   0.440   4.146 -0.0257 -0.3101  0.7510
38847TIP3    H117423   2.939   0.499   4.089 -1.6327  0.3785 -0.0188
38847TIP3    H217424   2.859   0.496   4.218  0.7678 -0.8418  1.5059
38848TIP3   OH217425   1.617   9.961   9.148  0.0762  0.5628  0.7209
38848TIP3    H117426   1.527   9.946   9.178 -0.6169 -1.9450 -2.1004
38848TIP3    H217427   1.670   9.899   9.198 -0.3324 -0.2856  0.1347
38849TIP3   OH217428   9.451   4.707   5.928 -0.4370  0.3445 -0.3887
38849TIP3    H117429   9.539   4.690   5.961 -0.3561 -1.1940 -1.3205
38849TIP3    H217430   9.404   4.625   5.944 -1.1594  0.5051 -1.6313
38850TIP3   OH217431   4.133   3.273   4.962  0.1695 -0.1553 -0.0009
38850TIP3    H117432   4.102   3.350   4.914 -0.8841 -2.0171 -2.5867
38850TIP3    H217433   4.056   3.241   5.008  0.4436 -0.0462  0.5415
38851TIP3   OH217434   0.881   9.855   8.441  0.5163  0.1311 -0.1448
38851TIP3    H117435   0.894   9.853   8.536 -1.5690  0.1107  0.1931
38851TIP3    H217436   0.875   9.762   8.417  1.9584  0.1081 -0.4637
38852TIP3   OH217437   7.841   9.818   1.348  0.3060  0.0961 -0.2320
38852TIP3    H117438   7.865   9.902   1.387 -0.9028  0.7030 -0.7199
38852TIP3    H217439   7.824   9.839   1.256  0.5820 -0.8016 -0.4911
38853TIP3   OH217440   9.129   2.929   4.203 -0.0079 -0.4412 -0.3445
38853TIP3    H117441   9.166   2.860   4.146  2.2436 -1.7650  2.4229
38853TIP3    H217442   9.184   2.925   4.281 -1.1012  3.2437  0.7597
38854TIP3   OH217443   2.282   8.275   7.066  0.3588  0.2922 -0.2635
38854TIP3    H117444   2.219   8.245   7.132 -0.3414 -0.3944 -1.2157
38854TIP3    H217445   2.366   8.239   7.094  0.1861  0.5137  0.5657
38855TIP3   OH217446   5.455   0.378   1.164 -0.2772 -0.2169 -0.1407
38855TIP3    H117447   5.402   0.448   1.125  0.7836  0.0982 -1.0877
38855TIP3    H217448   5.545   0.398   1.136  0.2132 -1.2511  0.6387
38856TIP3   OH217449   0.635   0.871   0.540 -0.3074 -0.3520  0.3311
38856TIP3    H117450   0.550   0.860   0.497  0.3722 -0.6796 -0.9923
38856TIP3    H217451   0.645   0.793   0.594  0.7323 -2.2807 -2.4136
38857TIP3   OH217452   5.544   9.480   1.175  0.2742  0.0967 -0.7831
38857TIP3    H117453   5.571   9.390   1.156 -0.4541 -0.0179 -1.3291
38857TIP3    H217454   5.569   9.529   1.096  1.7491  0.6283 -0.0247
38858TIP3   OH217455   3.930   7.486   0.143 -0.1618  0.1256 -0.2113
38858TIP3    H117456   3.853   7.434   0.123  0.5395 -1.0643  0.0913
38858TIP3    H217457   3.910   7.530   0.226 -0.0029 -1.2661  0.5903
38859TIP3   OH217458   0.429   8.625   8.918 -0.1214 -0.5382 -0.7997
38859TIP3    H117459   0.430   8.599   8.826  1.2729  1.9868 -1.6093
38859TIP3    H217460   0.489   8.565   8.961  1.6948  0.1874 -2.2123
38860TIP3   OH217461   3.875   5.394   9.090  0.5082  0.0818 -0.1606
38860TIP3    H117462   3.879   5.311   9.136  0.0865 -0.0021 -0.2702
38860TIP3    H217463   3.784   5.400   9.059  0.5042  0.6370 -0.0472
38861TIP3   OH217464   6.607   9.055   3.740  0.3386 -0.1905  0.2521
38861TIP3    H117465   6.593   8.985   3.676 -0.1687  0.1100  0.0247
38861TIP3    H217466   6.535   9.044   3.803  1.8563 -1.6271  1.8451
38862TIP3   OH217467   8.362   3.833   1.974  0.5102  0.4227 -0.4215
38862TIP3    H117468   8.368   3.738   1.980  0.7701  0.4419 -0.3720
38862TIP3    H217469   8.448   3.864   2.002  0.5737  0.6531 -0.8743
38863TIP3   OH217470   7.484   9.216   9.427 -0.2618  0.0759 -0.2524
38863TIP3    H117471   7.480   9.174   9.513 -0.5560 -0.5471 -0.5640
38863TIP3    H217472   7.574   9.248   9.420 -0.6776  1.6476  0.9856
38864TIP3   OH217473   2.424   1.757   8.672 -0.0761 -0.3180  0.3851
38864TIP3    H117474   2.429   1.851   8.656 -0.8549 -0.5498 -1.3610
38864TIP3    H217475   2.476   1.718   8.602  0.9822 -1.1848  1.5954
38865TIP3   OH217476   2.937   3.912   3.048  0.0589  0.4488  0.3494
38865TIP3    H117477   2.870   3.934   3.112 -0.0881 -1.7216  1.0062
38865TIP3    H217478   2.929   3.818   3.035  1.9524  0.3822 -0.7544
38866TIP3   OH217479   6.388   1.166   9.309  0.5474 -0.1502  0.2288
38866TIP3    H117480   6.437   1.104   9.364 -0.0134 -0.6232  0.2046
38866TIP3    H217481   6.445   1.184   9.235  0.0590 -1.9686 -0.6471
38867TIP3   OH217482   1.020   0.262   7.547  0.1698 -0.4609  0.0881
38867TIP3    H117483   1.045   0.180   7.590  1.8597  0.3128  0.6784
38867TIP3    H217484   1.020   0.327   7.618  0.4481  0.3483 -0.6338
38868TIP3   OH217485   3.960   6.825   9.096 -0.4111  0.3441  0.8762
38868TIP3    H117486   3.877   6.817   9.143 -0.9511  1.0324  0.0749
38868TIP3    H217487   3.953   6.908   9.049  1.1236  0.8626  1.5242
38869TIP3   OH217488   9.720   2.062   0.733 -0.2401  0.3752  0.6393
38869TIP3    H117489   9.647   2.097   0.683 -1.0769 -2.5560 -0.3893
38869TIP3    H217490   9.717   2.110   0.816 -3.3166  0.3818  0.6285
38870TIP3   OH217491   7.253   1.836   5.689  0.2577 -0.2748 -0.3061
38870TIP3    H117492   7.265   1.900   5.759  1.8798 -0.6819 -0.1542
38870TIP3    H217493   7.238   1.888   5.610 -0.9315  0.2039  0.2202
38871TIP3   OH217494   1.060  10.253   7.999 -0.0214  0.0412 -0.4520
38871TIP3    H117495   1.070  10.274   7.906  1.5641  1.7062  0.0531
38871TIP3    H217496   1.148  10.254   8.034 -0.3171 -2.9427  0.6719
38872TIP3   OH217497   5.974   5.420   6.623 -0.5548  0.6404  0.0983
38872TIP3    H117498   6.000   5.464   6.705  1.6067 -1.5975  0.7552
38872TIP3    H217499   5.972   5.327   6.646 -0.3160 -0.0119 -2.2849
38873TIP3   OH217500   1.794   2.492   7.215 -0.0256  0.1637 -0.2901
38873TIP3    H117501   1.827   2.515   7.128 -1.3302  2.7109 -0.1986
38873TIP3    H217502   1.719   2.436   7.198  0.5361 -0.4686 -0.7314
38874TIP3   OH217503   9.665   3.399   8.187  0.2546 -0.2049  0.0500
38874TIP3    H117504   9.616   3.336   8.134 -0.2644 -0.3261  0.6637
38874TIP3    H217505   9.661   3.481   8.137  0.4139 -0.5056 -0.4576
38875TIP3   OH217506  10.427   7.800   8.126  0.1529 -0.4772  0.0544
38875TIP3    H117507  10.367   7.733   8.157 -1.5461  1.3994  1.0238
38875TIP3    H217508  10.495   7.752   8.079 -1.6361 -2.7478 -0.3402
38876TIP3   OH217509   6.367   5.422   2.243 -0.5030 -1.0621  0.4716
38876TIP3    H117510   6.288   5.374   2.267 -1.8724  1.3979  1.1710
38876TIP3    H217511   6.357   5.442   2.150 -0.8446 -0.5341  0.6186
38877TIP3   OH217512   5.511  10.846   0.075 -0.3148 -0.2118  0.1258
38877TIP3    H117513   5.516  10.858  -0.019 -1.1055 -0.7851  0.0032
38877TIP3    H217514   5.555  10.762   0.091 -1.4853 -0.8592  0.0763
38878TIP3   OH217515   6.091   8.589   0.324  0.0046 -0.6039 -0.2682
38878TIP3    H117516   6.146   8.575   0.247 -1.8616 -0.7955 -1.6207
38878TIP3    H217517   6.081   8.502   0.363 -0.7849 -0.8857 -1.0661
38879TIP3   OH217518   4.818   4.430   8.590 -0.0772  0.3731 -0.3226
38879TIP3    H117519   4.883   4.468   8.531  0.6564  1.1637  0.9537
38879TIP3    H217520   4.867   4.409   8.670 -1.1514 -0.1396  0.2234
38880TIP3   OH217521   7.286   8.026   0.360 -0.1267  0.4735 -0.2292
38880TIP3    H117522   7.333   7.944   0.377  1.0140  1.2383  0.5262
38880TIP3    H217523   7.322   8.057   0.277 -1.0305 -0.0890 -0.8490
38881TIP3   OH217524   7.443   8.218   6.659 -0.2156 -0.2448  0.1675
38881TIP3    H117525   7.463   8.140   6.607 -1.0911 -0.6685  0.4511
38881TIP3    H217526   7.375   8.263   6.610 -0.8793 -0.5234  0.8214
38882TIP3   OH217527  10.173   3.070   3.985 -0.0627  0.1793  0.2229
38882TIP3    H117528  10.228   3.045   3.911 -0.2755 -0.3593  0.2430
38882TIP3    H217529  10.232   3.117   4.045 -0.2807  2.3285 -1.1239
38883TIP3   OH217530   9.440   5.506   5.344  0.1401  0.2032  0.6118
38883TIP3    H117531   9.419   5.522   5.436 -0.1258 -2.0392  1.0199
38883TIP3    H217532   9.425   5.412   5.333  0.1785  0.4166 -1.7345
38884TIP3   OH217533   8.214  10.805   9.346  0.0468  0.5144 -0.7482
38884TIP3    H117534   8.125  10.782   9.318 -0.7502  1.2929  0.9795
38884TIP3    H217535   8.220  10.899   9.330  0.7013  0.4031 -1.1776
38885TIP3   OH217536  10.279   2.550   5.263 -0.1417 -0.6268 -0.4461
38885TIP3    H117537  10.360   2.524   5.219  1.6507  3.2582  0.1799
38885TIP3    H217538  10.210   2.526   5.200  1.6826 -1.7186 -2.1614
38886TIP3   OH217539  10.423  10.209   5.573 -0.1712  0.6179  0.6636
38886TIP3    H117540  10.330  10.186   5.572 -0.1359  0.4160 -0.9752
38886TIP3    H217541  10.425  10.301   5.547  0.0506  0.8145  1.3682
38887TIP3   OH217542   2.000   8.677   7.107 -0.4428  0.0989 -0.1316
38887TIP3    H117543   1.945   8.753   7.089 -2.6987 -1.6765 -1.3895
38887TIP3    H217544   1.949   8.602   7.076  2.3571 -1.8191 -0.5999
38888TIP3   OH217545   0.672   3.249   5.550 -0.8336 -0.3556  0.3784
38888TIP3    H117546   0.719   3.174   5.585  0.0993  0.5105  1.0414
38888TIP3    H217547   0.684   3.243   5.455 -1.6893 -1.6164  0.3211
38889TIP3   OH217548  10.842   0.432   7.747  0.0875 -0.0593  0.6344
38889TIP3    H117549  10.937   0.435   7.759  0.2028 -2.1842  0.6855
38889TIP3    H217550  10.831   0.391   7.661 -0.7913  0.0068  0.7137
38890TIP3   OH217551   3.773   0.726   6.175  0.3468 -0.0130 -0.1500
38890TIP3    H117552   3.702   0.712   6.237 -0.4355 -0.1486 -1.0648
38890TIP3    H217553   3.843   0.669   6.205  0.5174  0.9541  1.4277
38891TIP3   OH217554   5.050   0.276   8.839  0.4601  0.1771 -0.0057
38891TIP3    H117555   5.049   0.220   8.916  1.9875  1.9048  1.3814
38891TIP3    H217556   5.033   0.217   8.765  0.1173 -1.7251  1.5148
38892TIP3   OH217557   1.508   1.974   6.249 -0.2300  0.1915  0.0814
38892TIP3    H117558   1.416   1.945   6.254 -0.2318 -0.2751 -1.8515
38892TIP3    H217559   1.503   2.069   6.262 -0.6070 -0.1162  2.9448
38893TIP3   OH217560   7.944   2.914  10.487  0.3044  0.0485  0.2094
38893TIP3    H117561   7.989   2.873  10.561 -0.8776 -0.3485  0.7374
38893TIP3    H217562   7.936   2.844  10.423  0.5988  0.1644  0.0482
38894TIP3   OH217563   4.635   2.286   9.169  0.5440 -0.1400  0.2427
38894TIP3    H117564   4.613   2.203   9.127  1.0657 -0.3622  0.4040
38894TIP3    H217565   4.643   2.265   9.262  2.6662 -0.3487  0.0620
38895TIP3   OH217566   0.072   8.437   6.561 -0.4366 -0.4232  0.3418
38895TIP3    H117567   0.119   8.463   6.482  1.2085 -0.0090  1.4018
38895TIP3    H217568   0.030   8.354   6.539  1.4466 -1.2062 -0.4444
38896TIP3   OH217569   3.880   7.000   1.063  0.1942 -0.0881  0.1385
38896TIP3    H117570   3.787   6.997   1.081  0.2104 -0.0514  0.2276
38896TIP3    H217571   3.904   7.091   1.078  0.6376 -0.4785  2.0334
38897TIP3   OH217572   3.524   3.629  10.245 -0.6788 -0.0562  0.3360
38897TIP3    H117573   3.543   3.627  10.339  1.2844 -1.0285 -0.0495
38897TIP3    H217574   3.439   3.586  10.237 -2.2934  2.5603  1.9105
38898TIP3   OH217575   4.766   8.100   0.990 -0.0096  0.1036  0.4403
38898TIP3    H117576   4.832   8.032   0.983  0.2044  0.4864 -2.3222
38898TIP3    H217577   4.787   8.162   0.920 -2.1045  1.3104  0.7745
38899TIP3   OH217578   0.025   7.852   7.460 -0.3970  0.1350  0.3202
38899TIP3    H117579   0.045   7.936   7.418 -1.2837  0.3894  0.3649
38899TIP3    H217580   0.105   7.801   7.453  1.0506  1.9297  2.6209
38900TIP3   OH217581   1.288   8.957   8.334  0.3265 -0.4581  0.6734
38900TIP3    H117582   1.197   8.979   8.355 -0.5423 -0.5440 -2.4437
38900TIP3    H217583   1.301   8.871   8.374 -1.2087 -0.7587  0.6131
38901TIP3   OH217584  10.313   8.896   4.995 -0.2367  0.0690  0.1893
38901TIP3    H117585  10.227   8.913   5.034  0.7256  2.7870  1.4013
38901TIP3    H217586  10.372   8.888   5.070  0.8434  0.0314 -0.6411
38902TIP3   OH217587   9.948   2.095   7.350 -0.3464 -0.3111  1.2699
38902TIP3    H117588   9.903   2.104   7.435 -1.0584  0.3971  0.8319
38902TIP3    H217589  10.004   2.173   7.344  1.2422 -1.3505  1.9611
38903TIP3   OH217590   6.931   1.838   4.888 -0.3544  0.6931 -0.1465
38903TIP3    H117591   6.876   1.916   4.897  0.3031  1.2570 -0.8779
38903TIP3    H217592   6.870   1.768   4.865 -0.9421  1.0044  0.4267
38904TIP3   OH217593   1.410   4.545   7.224 -0.9720  0.4692  0.2230
38904TIP3    H117594   1.408   4.637   7.252 -0.8053  0.1741  1.2265
38904TIP3    H217595   1.475   4.543   7.154  1.1123  0.6154  2.0560
38905TIP3   OH217596   8.890   5.459   9.508 -0.1250  0.2343 -0.0622
38905TIP3    H117597   8.865   5.379   9.554  0.0857 -0.3369 -0.9032
38905TIP3    H217598   8.980   5.476   9.538 -0.0906  0.0247 -0.0410
38906TIP3   OH217599   5.034   3.905   6.905  0.6352 -0.1887 -0.2030
38906TIP3    H117600   5.024   3.810   6.896  0.7321 -0.1213 -1.1233
38906TIP3    H217601   4.949   3.940   6.879  0.9002  0.0147 -0.8294
38907TIP3   OH217602   8.565   7.810   8.127 -0.6605 -0.1912 -0.1654
38907TIP3    H117603   8.516   7.752   8.185 -0.5079  1.1564  1.3835
38907TIP3    H217604   8.636   7.844   8.181 -1.1808  1.9995 -0.7504
38908TIP3   OH217605   2.292   7.959   1.901 -0.7058  0.2659 -0.2477
38908TIP3    H117606   2.263   7.875   1.935 -0.8431  0.2201 -0.4719
38908TIP3    H217607   2.210   8.007   1.883 -0.6371  0.2973 -0.4846
38909TIP3   OH217608   6.081   2.472   2.253 -0.4752  0.5313 -0.2806
38909TIP3    H117609   6.084   2.542   2.187 -0.7164  0.3575 -0.4743
38909TIP3    H217610   6.044   2.514   2.331  0.5435  0.9449 -0.0004
38910TIP3   OH217611   3.786   6.754   6.472 -0.0074  0.1761 -0.2067
38910TIP3    H117612   3.836   6.673   6.460  1.3713  0.7460  1.3288
38910TIP3    H217613   3.832   6.818   6.418  0.7559  0.6171  0.9311
38911TIP3   OH217614   7.034  10.480   1.573  0.1246 -0.0481 -0.4240
38911TIP3    H117615   6.954  10.529   1.593  0.7226  0.4545  0.8913
38911TIP3    H217616   7.074  10.464   1.659  0.9439 -1.1377 -0.9864
38912TIP3   OH217617   7.214   2.806   9.766 -0.3229  0.3864 -0.1993
38912TIP3    H117618   7.284   2.748   9.736  0.9715  1.4619  0.5975
38912TIP3    H217619   7.148   2.801   9.697 -0.1829 -1.8376 -0.2588
38913TIP3   OH217620   0.753   6.252   3.228  0.0502  0.3456  0.2418
38913TIP3    H117621   0.777   6.301   3.149 -1.9570  0.3717 -0.3935
38913TIP3    H217622   0.834   6.207   3.254  0.9722  1.0506 -1.3028
38914TIP3   OH217623   5.662   4.856   7.343 -0.0276  0.0531 -0.4199
38914TIP3    H117624   5.705   4.771   7.331 -1.2992 -1.1369  2.5349
38914TIP3    H217625   5.733   4.914   7.371  0.2808 -0.9892  1.0478
38915TIP3   OH217626   2.255   2.172  10.399  0.1455  0.2886 -0.1377
38915TIP3    H117627   2.198   2.105  10.436  0.0179  1.3797  1.8235
38915TIP3    H217628   2.342   2.132  10.395 -0.3590 -0.7392 -1.2817
38916TIP3   OH217629   2.175   0.090  10.448 -0.0872 -0.0957  0.5377
38916TIP3    H117630   2.250   0.113  10.502 -0.6493  0.8645  0.9342
38916TIP3    H217631   2.104   0.147  10.479 -0.5399  0.1845 -0.9212
38917TIP3   OH217632   3.713  10.038   9.378 -0.0311 -0.2801 -0.4972
38917TIP3    H117633   3.730  10.127   9.409 -0.4099 -0.0208 -1.0311
38917TIP3    H217634   3.710   9.985   9.458 -1.2326  0.4251 -0.0582
38918TIP3   OH217635   5.881   9.883   4.188  0.0917 -0.2053 -0.3559
38918TIP3    H117636   5.837   9.876   4.273 -0.4145  1.1787 -0.4689
38918TIP3    H217637   5.815   9.854   4.125  0.0829 -0.1997 -0.3492
38919TIP3   OH217638   5.360   6.124   9.017 -0.1815 -0.0184 -0.2204
38919TIP3    H117639   5.316   6.174   8.948 -0.7033 -0.3141 -0.1158
38919TIP3    H217640   5.355   6.033   8.987 -1.5713 -0.3141  0.7835
38920TIP3   OH217641   8.378   2.704   5.416  0.4138 -0.3015  0.8088
38920TIP3    H117642   8.398   2.614   5.389  0.1260 -0.5543  1.4211
38920TIP3    H217643   8.388   2.703   5.511 -1.7078 -0.2603  1.0780
38921TIP3   OH217644   7.627   5.112   1.955 -0.2744 -0.1578  0.0464
38921TIP3    H117645   7.604   5.048   2.023  3.4617 -2.5097 -0.6085
38921TIP3    H217646   7.568   5.093   1.883 -0.9049 -1.1872  0.8045
38922TIP3   OH217647   5.952   3.510   7.974  0.1817 -0.3273 -0.3123
38922TIP3    H117648   5.869   3.486   7.931  0.6158 -0.8692 -0.8572
38922TIP3    H217649   6.019   3.495   7.908  0.6716  0.6816 -0.0733
38923TIP3   OH217650   4.480   4.154  10.326  1.1043  0.0724 -0.0725
38923TIP3    H117651   4.456   4.062  10.340 -1.0787  0.3176 -1.6640
38923TIP3    H217652   4.569   4.161  10.361  1.2376 -2.5713  0.3392
38924TIP3   OH217653   3.886   7.909   1.194  0.0256  0.4128 -0.1149
38924TIP3    H117654   3.799   7.950   1.194  0.0668  0.7340  2.6460
38924TIP3    H217655   3.946   7.980   1.215  0.9987  0.1621 -1.8427
38925TIP3   OH217656   1.352   4.966   1.170  0.1149  0.4030  0.1051
38925TIP3    H117657   1.308   4.961   1.085 -0.5837 -1.5046  0.5357
38925TIP3    H217658   1.440   4.995   1.150  0.3972 -1.3687 -1.4631
38926TIP3   OH217659   1.015   9.831   6.705  0.3601  0.0810 -0.2533
38926TIP3    H117660   0.969   9.897   6.758 -0.8984 -0.8364 -0.1599
38926TIP3    H217661   1.039   9.763   6.767 -0.8474 -0.8556 -0.7680
38927TIP3   OH217662   7.098   2.329   2.984 -0.1930 -0.2267  0.0270
38927TIP3    H117663   7.139   2.247   3.011  0.4408 -0.1810 -0.7663
38927TIP3    H217664   7.144   2.353   2.904 -0.5928  0.7405  0.0819
38928TIP3   OH217665   4.393   8.167   9.776  0.5168  0.4346 -0.0561
38928TIP3    H117666   4.430   8.105   9.839 -0.0777 -0.1353 -0.2499
38928TIP3    H217667   4.317   8.204   9.821 -0.4141 -0.5941 -0.7075
38929TIP3   OH217668   9.006   3.846  10.076 -0.1148  0.3459  0.4317
38929TIP3    H117669   9.064   3.790  10.024  0.0156  0.7857  0.0956
38929TIP3    H217670   9.064   3.886  10.141 -0.4712 -1.0826  1.6812
38930TIP3   OH217671   9.249   0.367   3.278 -0.1588  0.5047  0.2661
38930TIP3    H117672   9.261   0.370   3.373  3.0427  1.8204 -0.0788
38930TIP3    H217673   9.284   0.282   3.253  0.8968  0.9830  0.0847
38931TIP3   OH217674   8.522   5.157   4.285 -0.4093 -0.0618 -0.1699
38931TIP3    H117675   8.467   5.207   4.225 -1.4166 -0.8766  0.0562
38931TIP3    H217676   8.494   5.066   4.274  0.9729 -0.5220 -0.1247
38932TIP3   OH217677   1.981   0.553   1.155  0.2072  0.0246 -0.2757
38932TIP3    H117678   1.971   0.597   1.239  0.2673  0.8761 -0.6902
38932TIP3    H217679   1.934   0.471   1.164  0.1844  0.1269  0.5749
38933TIP3   OH217680   2.112   4.386  10.043 -0.4122  0.4937 -0.2013
38933TIP3    H117681   2.099   4.466  10.094 -1.0505  0.8740 -0.9273
38933TIP3    H217682   2.196   4.352  10.072 -0.8067  0.6374  1.1700
38934TIP3   OH217683   1.032   2.837   8.281  0.3538  0.3586  0.0944
38934TIP3    H117684   0.943   2.871   8.291 -0.4274 -1.0270 -1.5569
38934TIP3    H217685   1.075   2.902   8.226 -0.8903 -0.7547 -2.3758
38935TIP3   OH217686   7.951   4.489   6.590  0.4511 -0.0965 -0.3613
38935TIP3    H117687   8.031   4.538   6.572 -0.7565  2.0952 -0.2085
38935TIP3    H217688   7.928   4.512   6.680 -0.9146  0.2548 -0.7634
38936TIP3   OH217689   8.448   7.032  10.026 -0.1629 -0.4290  0.2096
38936TIP3    H117690   8.393   6.968   9.981 -1.0559  0.6227 -0.2306
38936TIP3    H217691   8.397   7.058  10.103  0.5326 -0.8005  0.8117
38937TIP3   OH217692   3.447   1.163   5.342 -0.3608  0.7443  0.0536
38937TIP3    H117693   3.437   1.256   5.364 -0.7776  0.7752 -0.2611
38937TIP3    H217694   3.534   1.157   5.302 -0.7057  1.1657 -0.7899
38938TIP3   OH217695  10.008   6.161  10.205 -0.5866 -0.3818  0.0406
38938TIP3    H117696   9.924   6.129  10.239 -1.9323  2.7421  0.0157
38938TIP3    H217697  10.032   6.098  10.137 -2.8819 -1.4293  0.1089
38939TIP3   OH217698   0.339   0.533   9.834 -0.3562  0.6061  0.0214
38939TIP3    H117699   0.433   0.548   9.820 -0.0145  0.0489  1.5454
38939TIP3    H217700   0.330   0.438   9.837 -0.3261  0.5992  3.4938
38940TIP3   OH217701   0.811   5.592   7.760  0.6293 -0.4594 -0.0175
38940TIP3    H117702   0.823   5.663   7.696  2.7849 -2.1500 -1.6171
38940TIP3    H217703   0.772   5.521   7.710  1.3419 -1.4554  0.7971
38941TIP3   OH217704   6.132   2.759   0.087 -0.0030 -0.3507 -0.2093
38941TIP3    H117705   6.163   2.850   0.094 -0.2178 -0.3885  3.5552
38941TIP3    H217706   6.212   2.707   0.085  0.1871 -0.1328  0.7970
38942TIP3   OH217707   7.365   6.579   1.865  0.5495 -0.1019  0.3054
38942TIP3    H117708   7.288   6.585   1.808  0.0204  0.3667  1.0512
38942TIP3    H217709   7.408   6.497   1.838 -1.3065 -1.4535  1.2040
38943TIP3   OH217710   5.641   1.151   5.917 -0.3392 -0.1050 -0.2175
38943TIP3    H117711   5.712   1.124   5.975 -0.4326  0.8615  0.3785
38943TIP3    H217712   5.621   1.073   5.865  0.4523 -0.6880  0.3251
38944TIP3   OH217713   8.999   7.600   4.959 -0.0423  0.3241 -0.0205
38944TIP3    H117714   9.057   7.644   4.897  0.6387 -1.9920 -1.1294
38944TIP3    H217715   8.920   7.655   4.962  0.2190  0.9108 -2.3761
38945TIP3   OH217716   1.175   4.867   8.188  0.2396 -0.4148  0.1216
38945TIP3    H117717   1.146   4.861   8.279 -0.6679  1.3981  0.0029
38945TIP3    H217718   1.244   4.802   8.180  2.3132  1.2157  2.9107
38946TIP3   OH217719   4.786   4.326   5.871 -0.0215 -0.1915 -0.5261
38946TIP3    H117720   4.795   4.411   5.826 -0.9497  0.2493  0.0919
38946TIP3    H217721   4.876   4.301   5.891  0.3387  0.1631 -1.5877
38947TIP3   OH217722   6.840   8.808   5.192 -0.6346 -0.0172  0.3132
38947TIP3    H117723   6.888   8.890   5.178  0.2773 -0.3787  1.1663
38947TIP3    H217724   6.769   8.832   5.252  1.1493 -0.2868  2.6645
38948TIP3   OH217725   8.070   7.471   6.017 -0.1658 -0.1270  0.1008
38948TIP3    H117726   8.047   7.393   5.965 -0.1490 -0.7152  0.9573
38948TIP3    H217727   8.157   7.496   5.985  0.3807 -1.2243  0.6862
38949TIP3   OH217728   8.465   2.123   0.029  0.0918  0.3355  0.0594
38949TIP3    H117729   8.379   2.089   0.001 -1.0211  0.6830  2.7724
38949TIP3    H217730   8.454   2.218   0.031  0.2614  0.3430  1.1836
38950TIP3   OH217731   8.541  10.286   6.928  0.3474 -0.6676  0.5120
38950TIP3    H117732   8.575  10.199   6.908  0.8704 -0.4040  0.2208
38950TIP3    H217733   8.612  10.329   6.976  0.3569 -0.1735  0.0710
38951TIP3   OH217734   7.184   6.283   5.363  0.1272  0.2692  0.6938
38951TIP3    H117735   7.266   6.234   5.368  0.2112  0.5049  1.6598
38951TIP3    H217736   7.191   6.331   5.280 -0.6275 -2.4965 -1.1159
38952TIP3   OH217737   1.898   3.839   1.289 -0.4798  0.2978 -0.1420
38952TIP3    H117738   1.842   3.777   1.243 -0.4550  0.7402 -0.7772
38952TIP3    H217739   1.949   3.785   1.350 -0.1496 -0.3538 -0.9842
38953TIP3   OH217740   6.062   2.363   2.922  0.2184  0.1024  0.4750
38953TIP3    H117741   6.147   2.359   2.879 -0.0993  0.9610 -0.2517
38953TIP3    H217742   6.025   2.275   2.911  0.6200 -0.0067 -0.0171
38954TIP3   OH217743   8.483   4.998   8.648  0.1100  0.5208  0.2930
38954TIP3    H117744   8.529   4.968   8.726 -0.1207  0.9118  0.5823
38954TIP3    H217745   8.392   4.971   8.662 -0.1818  1.6987  0.7456
38955TIP3   OH217746   0.317   1.364   8.716  0.1154  0.4710 -0.4047
38955TIP3    H117747   0.234   1.412   8.704  0.4842  0.9638 -1.0649
38955TIP3    H217748   0.345   1.387   8.804 -0.1530  0.7856 -0.3969
38956TIP3   OH217749   7.305   5.132   1.198  0.1594  0.1287  0.1436
38956TIP3    H117750   7.313   5.072   1.124  1.4984  1.5996 -0.9771
38956TIP3    H217751   7.358   5.091   1.267 -0.2786 -0.7694 -0.0430
38957TIP3   OH217752   5.996   5.639   1.970  0.2908 -0.1050  0.3999
38957TIP3    H117753   6.002   5.580   1.895  1.3469 -0.1971  0.5401
38957TIP3    H217754   6.004   5.582   2.046  1.1921  0.1852  0.5382
38958TIP3   OH217755   3.697   1.272   3.210  0.9166 -0.0418  0.1832
38958TIP3    H117756   3.737   1.192   3.174 -0.2095  0.1506 -1.6131
38958TIP3    H217757   3.603   1.261   3.195  0.7447  1.6188 -0.1550
38959TIP3   OH217758   7.919   8.437   0.031 -0.5227 -0.5287  0.4451
38959TIP3    H117759   7.963   8.522   0.025 -0.8167 -0.4455 -0.9659
38959TIP3    H217760   7.852   8.439  -0.038 -2.8801 -0.6012  2.5671
38960TIP3   OH217761   5.728   6.056   9.241  0.4915  0.4832 -0.2007
38960TIP3    H117762   5.714   6.072   9.148 -0.5334  0.1665 -0.1076
38960TIP3    H217763   5.670   6.118   9.286 -0.4865 -0.6827  0.1974
38961TIP3   OH217764   4.912   3.307   4.371 -0.6508  0.2723 -0.5887
38961TIP3    H117765   4.819   3.319   4.350 -1.3163  1.3942  2.4542
38961TIP3    H217766   4.956   3.381   4.330 -1.6989  1.7647  0.8631
38962TIP3   OH217767   8.775   8.980   8.331  0.0728 -0.5178 -0.2510
38962TIP3    H117768   8.841   9.002   8.266  0.9566 -2.9809 -0.2947
38962TIP3    H217769   8.825   8.942   8.403 -1.0606  0.4510  1.1076
38963TIP3   OH217770  10.440   3.914   7.392  0.1964 -0.0305 -0.2650
38963TIP3    H117771  10.504   3.964   7.442  0.5883 -0.5827 -0.1964
38963TIP3    H217772  10.426   3.834   7.443  0.0377 -0.2625 -0.6609
38964TIP3   OH217773   7.492   5.161   3.444 -0.1473  0.2892 -0.3300
38964TIP3    H117774   7.588   5.163   3.446 -0.1500  1.0092 -0.4951
38964TIP3    H217775   7.470   5.068   3.442  0.5834  0.1167 -1.3885
38965TIP3   OH217776   9.984   6.901   5.192 -0.4722  0.1573  0.2005
38965TIP3    H117777   9.916   6.876   5.129 -1.1758  0.8162  0.6916
38965TIP3    H217778  10.059   6.846   5.168 -0.2985  1.2312 -2.0251
38966TIP3   OH217779   4.042   6.927  10.742  0.3191  0.5681  0.6511
38966TIP3    H117780   4.037   7.016  10.777  0.3646  1.7494 -2.1284
38966TIP3    H217781   4.101   6.933  10.667 -2.5026 -0.9346 -1.9132
38967TIP3   OH217782  10.557   0.690   9.097  0.4783 -0.1215  0.0343
38967TIP3    H117783  10.531   0.746   9.025 -0.4750  1.2911  1.4150
38967TIP3    H217784  10.652   0.702   9.104  0.3541  0.9373 -0.0052
38968TIP3   OH217785   9.143  10.041   3.311 -0.0089 -0.2637  0.4288
38968TIP3    H117786   9.087  10.105   3.355 -1.9342 -0.8726 -1.0274
38968TIP3    H217787   9.085   9.993   3.252  1.6850 -2.2647  0.2466
38969TIP3   OH217788   6.372   5.125   1.750 -0.0558  0.3427  0.3001
38969TIP3    H117789   6.370   5.144   1.656  0.9241  1.2385  0.4458
38969TIP3    H217790   6.299   5.065   1.763 -0.1871  0.1672 -1.0425
38970TIP3   OH217791  10.512   6.502   2.952  0.6840  0.1114 -0.0136
38970TIP3    H117792  10.600   6.536   2.968  1.2135 -0.9123 -0.6365
38970TIP3    H217793  10.505   6.425   3.009 -0.4505  1.1139  1.2787
38971TIP3   OH217794   9.109   7.312   6.041 -0.0476 -0.0920  0.5473
38971TIP3    H117795   9.202   7.302   6.024 -0.1602 -0.3716  0.0885
38971TIP3    H217796   9.090   7.404   6.019 -0.5388 -0.8287 -2.6526
38972TIP3   OH217797   2.074   4.428   6.098 -0.3927  0.4027 -0.9240
38972TIP3    H117798   2.164   4.439   6.066  0.1960 -2.4833 -0.5128
38972TIP3    H217799   2.038   4.356   6.047 -2.4891  1.4158 -0.9935
38973TIP3   OH217800   6.151   9.183   8.384  0.2542 -0.1513 -0.2453
38973TIP3    H117801   6.120   9.256   8.329  0.5780 -0.6311 -1.0817
38973TIP3    H217802   6.071   9.143   8.418  0.0549  0.2682 -0.2145
38974TIP3   OH217803   9.485   5.706   6.684  0.2882 -0.6803 -0.3520
38974TIP3    H117804   9.473   5.675   6.594  0.4472 -0.3572 -0.4868
38974TIP3    H217805   9.433   5.646   6.737  0.7049 -1.2724 -0.5931
38975TIP3   OH217806   5.917   9.395  10.674 -0.2432  0.6179 -0.1243
38975TIP3    H117807   5.913   9.311  10.628 -0.0452  1.1468 -1.1418
38975TIP3    H217808   6.008   9.401  10.704  0.0609  0.9689 -1.0626
38976TIP3   OH217809   3.532   5.924   9.071 -0.0075  0.1458 -0.3296
38976TIP3    H117810   3.599   5.980   9.111  2.3589 -1.4310 -1.8076
38976TIP3    H217811   3.526   5.956   8.981 -1.2431  0.2295 -0.2251
38977TIP3   OH217812   2.170   7.160   9.359  0.2421 -0.7049 -0.4431
38977TIP3    H117813   2.213   7.228   9.308 -0.6909  0.6867  0.5609
38977TIP3    H217814   2.194   7.078   9.315  1.8942  0.2013 -1.3108
38978TIP3   OH217815   1.380   3.218   4.851  0.3125 -0.2133  0.0443
38978TIP3    H117816   1.347   3.276   4.920 -0.1456  0.5721 -0.8192
38978TIP3    H217817   1.305   3.202   4.795  0.9297  0.0268 -0.8724
38979TIP3   OH217818   3.819  10.873   5.381 -0.3600  0.2238 -0.4999
38979TIP3    H117819   3.881  10.893   5.451 -0.7995  1.3015 -0.4004
38979TIP3    H217820   3.737  10.853   5.427 -0.4575  0.2104 -0.6791
38980TIP3   OH217821   2.661   8.939  10.448 -0.7245  0.0721 -0.6405
38980TIP3    H117822   2.732   8.911  10.390 -1.2970 -0.0761 -1.2922
38980TIP3    H217823   2.674   9.033  10.457 -1.0545  0.2312 -1.6393
38981TIP3   OH217824   5.114   9.925   2.778 -0.2381 -0.2641 -0.5086
38981TIP3    H117825   5.163   9.887   2.850 -0.3692 -0.6796 -0.6359
38981TIP3    H217826   5.041   9.971   2.819  0.5093  0.7472 -0.2885
38982TIP3   OH217827   9.943   9.534   9.639 -0.7559  0.1052 -0.2266
38982TIP3    H117828   9.960   9.622   9.673  1.2761  0.2001 -1.3543
38982TIP3    H217829   9.983   9.533   9.552 -0.6980 -1.9442 -0.2290
38983TIP3   OH217830   6.242   0.158  10.633  0.0048  0.0618  0.2193
38983TIP3    H117831   6.216   0.148  10.725  0.1364 -0.6173  0.1892
38983TIP3    H217832   6.336   0.140  10.632 -0.2971 -1.7881 -0.2985
38984TIP3   OH217833   7.759   2.177   7.934 -0.7959  0.2000 -0.1816
38984TIP3    H117834   7.827   2.244   7.936 -1.2661  0.7116  2.1989
38984TIP3    H217835   7.726   2.178   7.844 -0.4433  2.8225 -0.3449
38985TIP3   OH217836  10.547   4.888   8.719  0.0735 -0.1963  0.8199
38985TIP3    H117837  10.552   4.795   8.739 -2.2757 -0.5224  0.1479
38985TIP3    H217838  10.466   4.918   8.760  0.0276  1.2160 -0.2175
38986TIP3   OH217839   8.277   6.915   5.992  0.1978  0.1512 -0.0204
38986TIP3    H117840   8.253   6.826   5.967 -0.1270  0.1052  0.4385
38986TIP3    H217841   8.202   6.946   6.044 -0.1412  1.0585 -1.0238
38987TIP3   OH217842   0.300  10.304   1.212 -0.5805  0.2652 -0.2767
38987TIP3    H117843   0.297  10.317   1.117  0.4757  0.0171 -0.3606
38987TIP3    H217844   0.323  10.390   1.247  1.4635 -0.1500 -0.4571
38988TIP3   OH217845   2.740   3.459   8.512 -0.4179 -0.2180  0.1625
38988TIP3    H117846   2.689   3.534   8.481  0.2562 -0.0699 -0.6316
38988TIP3    H217847   2.739   3.466   8.607  0.9879  1.7446  0.0909
38989TIP3   OH217848   3.088   6.678   7.962 -0.2207 -0.3348  0.3259
38989TIP3    H117849   3.034   6.617   8.012  1.4701 -2.3564 -0.1395
38989TIP3    H217850   3.134   6.729   8.029 -2.0283  0.8429  0.7220
38990TIP3   OH217851  10.523   7.955   6.934 -0.0327 -0.4111  0.7297
38990TIP3    H117852  10.472   7.932   7.011 -0.2714 -2.1707  0.0956
38990TIP3    H217853  10.614   7.942   6.961 -0.0447  0.2405  1.0936
38991TIP3   OH217854  10.899   0.238   3.452 -0.5412  0.4568 -0.5631
38991TIP3    H117855  10.868   0.254   3.542  0.6027  1.0251 -0.2481
38991TIP3    H217856  10.858   0.156   3.427  0.8548 -0.9222  1.3366
38992TIP3   OH217857  10.554   6.270   2.278  0.8664 -0.0950  0.7254
38992TIP3    H117858  10.608   6.284   2.356 -0.3738 -0.6493  1.7235
38992TIP3    H217859  10.551   6.175   2.268  2.2444 -0.0263 -0.9454
38993TIP3   OH217860   8.943   5.212   3.123 -0.1001 -0.4839 -0.5265
38993TIP3    H117861   8.904   5.298   3.140 -1.0953 -0.6743 -1.6993
38993TIP3    H217862   8.872   5.150   3.139  0.5817 -1.1048  0.2046
38994TIP3   OH217863   5.154   3.847  10.003  0.2516  0.2486  0.2241
38994TIP3    H117864   5.189   3.758  10.012  0.6704  0.3523 -0.2605
38994TIP3    H217865   5.144   3.879  10.092 -0.3976 -0.4697  0.4175
38995TIP3   OH217866   1.425   7.884   2.507 -0.2492 -0.2107 -0.3296
38995TIP3    H117867   1.424   7.827   2.430 -2.9493  1.0877 -1.4198
38995TIP3    H217868   1.336   7.880   2.541  0.1263  1.4423  1.0077
38996TIP3   OH217869  10.670   7.861   7.573  0.1846  0.3360  0.4507
38996TIP3    H117870  10.673   7.878   7.667  0.6502  1.3278  0.2646
38996TIP3    H217871  10.757   7.885   7.541 -0.7142  2.4219 -0.6162
38997TIP3   OH217872   3.958  10.642   4.571  0.3154  0.2836 -0.3414
38997TIP3    H117873   4.053  10.643   4.581  0.1580  0.2265  1.6409
38997TIP3    H217874   3.936  10.549   4.562  0.3638  0.1474  0.7422
38998TIP3   OH217875   4.703   6.402   4.852  0.4119  0.0701 -0.0372
38998TIP3    H117876   4.794   6.374   4.861  0.0736 -1.4149 -0.7534
38998TIP3    H217877   4.705   6.496   4.866  2.2644  0.2854 -1.3490
38999TIP3   OH217878  10.300   8.193   9.331  0.3959 -0.7186  0.0102
38999TIP3    H117879  10.335   8.213   9.244 -0.2286 -3.4022 -0.9690
38999TIP3    H217880  10.378   8.173   9.384  0.8942  2.2082  0.5692
39000TIP3   OH217881  10.120   7.792   6.560  0.2282  0.1177  0.4545
39000TIP3    H117882  10.068   7.773   6.638  0.0099  0.9968  0.5259
39000TIP3    H217883  10.178   7.716   6.552  0.5763  0.2154  1.7413
39001TIP3   OH217884   8.911   7.092   4.313  0.3655 -0.5343 -0.0443
39001TIP3    H117885   8.909   7.084   4.409  2.0356 -1.1177 -0.0338
39001TIP3    H217886   8.819   7.086   4.287 -0.2034  0.5082  1.5755
39002TIP3   OH217887   6.327   4.829  10.183 -0.3143 -0.5575 -0.1537
39002TIP3    H117888   6.299   4.867  10.266  0.0491  0.0236 -0.2867
39002TIP3    H217889   6.276   4.749  10.174 -1.2078 -0.0185  0.0644
39003TIP3   OH217890   4.639   5.700  10.047 -0.0369  0.2676  0.4854
39003TIP3    H117891   4.590   5.640  10.103 -0.1518 -1.8137 -1.6698
39003TIP3    H217892   4.574   5.736   9.987  0.6175 -0.5475 -0.7587
39004TIP3   OH217893   9.405   8.089   9.226 -0.2691 -0.7607  0.4775
39004TIP3    H117894   9.455   8.015   9.193  2.2250  1.3674 -0.8893
39004TIP3    H217895   9.368   8.130   9.147 -2.5734 -1.0727  1.2936
39005TIP3   OH217896   3.713   6.765  10.269 -0.0017 -0.1671 -0.1068
39005TIP3    H117897   3.652   6.799  10.334 -0.8035  0.1984 -1.0277
39005TIP3    H217898   3.657   6.733  10.198  0.8808  0.7622 -1.2580
39006TIP3   OH217899   3.301  10.435   9.998 -0.4344  0.3186 -0.2371
39006TIP3    H117900   3.261  10.505  10.051  0.9002  1.1759 -0.3259
39006TIP3    H217901   3.376  10.477   9.956  0.5132 -1.2376 -0.1400
39007TIP3   OH217902   8.523   2.237   5.750 -0.2931 -0.3456 -0.4727
39007TIP3    H117903   8.546   2.238   5.657  1.5120 -0.2582 -0.0778
39007TIP3    H217904   8.429   2.223   5.752 -0.2586 -1.0924 -2.2964
39008TIP3   OH217905   0.205   3.500  10.823 -0.0818 -0.0939  0.0786
39008TIP3    H117906   0.215   3.435  10.754  0.5514  0.1376 -0.0539
39008TIP3    H217907   0.144   3.460  10.885  1.4831 -1.4976  0.7785
39009TIP3   OH217908   7.463   1.958   4.986 -0.1693 -0.5227 -0.2113
39009TIP3    H117909   7.495   2.039   5.026  1.7435 -0.9063 -0.8758
39009TIP3    H217910   7.380   1.940   5.032 -0.8157  1.9481 -0.2800
39010TIP3   OH217911   9.393   1.138   4.971 -0.1493  0.1823 -0.1002
39010TIP3    H117912   9.301   1.156   4.952 -0.6232 -2.8972 -1.1748
39010TIP3    H217913   9.391   1.059   5.025  1.8643  0.6576  0.7505
39011TIP3   OH217914   9.111   0.895   1.020  0.1436 -0.1538  0.3012
39011TIP3    H117915   9.058   0.953   0.964 -0.0403  1.2586  1.8615
39011TIP3    H217916   9.182   0.866   0.963 -1.4577 -0.8991 -1.4182
39012TIP3   OH217917   6.707   7.651   1.379  0.9945 -0.2412  0.3706
39012TIP3    H117918   6.798   7.634   1.402  1.0543 -2.2386 -1.0954
39012TIP3    H217919   6.658   7.582   1.423  0.5249 -0.8212 -1.0090
39013TIP3   OH217920   6.810   4.884  10.899  0.1765  0.4815  0.1612
39013TIP3    H117921   6.733   4.926  10.860 -1.6737 -1.5367  1.3853
39013TIP3    H217922   6.852   4.839  10.826 -0.5327  0.5677 -0.3085
39014TIP3   OH217923   4.306   8.446   6.469 -0.5738 -0.1632 -0.5500
39014TIP3    H117924   4.354   8.439   6.551 -0.4270 -0.0708 -0.6278
39014TIP3    H217925   4.334   8.370   6.418 -0.7383 -0.2730 -0.4774
39015TIP3   OH217926   2.112   4.297   7.093  0.0586 -0.6627 -0.2111
39015TIP3    H117927   2.053   4.246   7.036  2.8420 -1.3168 -2.7949
39015TIP3    H217928   2.086   4.388   7.079 -1.9349 -1.0405  0.7506
39016TIP3   OH217929   6.104   4.286   7.415  0.0165 -0.3992 -0.2980
39016TIP3    H117930   6.136   4.206   7.459  0.2668 -1.1251 -1.7423
39016TIP3    H217931   6.120   4.270   7.322  1.2894  1.8764 -0.5556
39017TIP3   OH217932   9.505   0.441   6.051  0.4834 -0.2887  0.1698
39017TIP3    H117933   9.461   0.382   5.989  1.5389 -0.5551 -0.3449
39017TIP3    H217934   9.551   0.504   5.996  0.8335 -0.0806  0.6968
39018TIP3   OH217935   2.606   5.979   4.534  0.2046  0.0589  0.3496
39018TIP3    H117936   2.537   6.044   4.522  0.2367  0.3183  1.4694
39018TIP3    H217937   2.667   6.019   4.595  1.4332 -0.1245 -0.7278
39019TIP3   OH217938  10.804   8.614   1.350  0.1685  0.4224 -0.3917
39019TIP3    H117939  10.873   8.612   1.284  0.2289 -1.7781 -0.3326
39019TIP3    H217940  10.851   8.630   1.433  0.2073  2.0872 -0.6955
39020TIP3   OH217941  10.500   7.782   5.890 -0.4237  0.4181  0.1079
39020TIP3    H117942  10.534   7.740   5.969 -1.0215 -0.4596 -0.0864
39020TIP3    H217943  10.522   7.874   5.901 -1.7329  0.5600  1.9696
39021TIP3   OH217944   6.408   0.162   5.393 -0.7929 -0.4086 -0.2078
39021TIP3    H117945   6.377   0.181   5.482 -0.0076  0.1426 -0.0403
39021TIP3    H217946   6.452   0.242   5.366  0.8320 -1.2762 -0.2713
39022TIP3   OH217947   6.166   3.551   5.433 -0.4454  0.3484 -0.1105
39022TIP3    H117948   6.183   3.458   5.443  1.0992  0.5132 -0.8450
39022TIP3    H217949   6.123   3.559   5.347  0.2158  0.3804 -0.4455
39023TIP3   OH217950   4.574   7.138   3.818  0.5159  0.8261  0.5978
39023TIP3    H117951   4.661   7.107   3.795  0.3751  1.1162 -0.3688
39023TIP3    H217952   4.576   7.146   3.913  1.9151  1.9112  0.5033
39024TIP3   OH217953   8.430   6.250   8.689 -0.8674  0.0772  0.0940
39024TIP3    H117954   8.425   6.189   8.763  0.6476  1.3789  1.3360
39024TIP3    H217955   8.467   6.330   8.726 -0.4887  0.9305 -1.9945
39025TIP3   OH217956   2.223   1.321   2.334  0.4201 -0.5339  0.1755
39025TIP3    H117957   2.280   1.385   2.376 -0.9113  0.7063  0.2061
39025TIP3    H217958   2.156   1.302   2.400 -0.5526 -0.0987 -0.6529
39026TIP3   OH217959   4.574   5.531  10.752 -0.1420 -0.3081 -0.1268
39026TIP3    H117960   4.570   5.549  10.658 -2.9872 -0.1403 -0.0525
39026TIP3    H217961   4.527   5.449  10.764  2.0303 -1.4872  0.9788
39027TIP3   OH217962   0.256   0.019   8.349 -0.2369  0.0782  0.1420
39027TIP3    H117963   0.228   0.108   8.374  0.5506  0.2928  0.2771
39027TIP3    H217964   0.342   0.010   8.388  0.4045 -0.1294 -1.2840
39028TIP3   OH217965   2.507   5.685   0.084  0.0471 -0.2248  0.2861
39028TIP3    H117966   2.539   5.774   0.102  2.6281 -0.8300 -0.8924
39028TIP3    H217967   2.444   5.668   0.155 -0.2620  2.3733  0.7544
39029TIP3   OH217968   8.200   9.095   0.901 -0.2091 -0.1266 -0.0878
39029TIP3    H117969   8.136   9.166   0.891 -0.2315 -0.1835 -0.3749
39029TIP3    H217970   8.212   9.086   0.995  0.3942  0.7972 -0.0593
39030TIP3   OH217971   5.370   5.856   3.032  0.0493  0.2422 -0.1265
39030TIP3    H117972   5.315   5.826   3.104 -1.7301 -1.5599 -2.0921
39030TIP3    H217973   5.310   5.906   2.976  0.9921  0.2764 -1.1296
39031TIP3   OH217974   4.267   0.685   4.003 -0.3647  0.2671  0.6477
39031TIP3    H117975   4.328   0.705   3.932 -0.0227  2.8735  1.5612
39031TIP3    H217976   4.313   0.619   4.056  0.3525 -0.0115 -0.3023
39032TIP3   OH217977   7.216   3.662   2.025 -0.0853 -0.0176 -1.2040
39032TIP3    H117978   7.252   3.750   2.038  0.3946 -0.1256 -1.7301
39032TIP3    H217979   7.130   3.664   2.065  1.1641 -0.2725  1.7357
39033TIP3   OH217980   6.520   9.903   8.223  0.5978 -0.4154  0.1484
39033TIP3    H117981   6.558   9.913   8.311  1.0564  0.5952 -0.1547
39033TIP3    H217982   6.594   9.913   8.163 -0.0275  0.9886 -0.4250
39034TIP3   OH217983   1.268   2.078   1.006 -0.1469 -0.1173  0.3010
39034TIP3    H117984   1.306   2.012   1.064 -2.5580  0.8809  3.2693
39034TIP3    H217985   1.305   2.161   1.037 -1.7965  0.4768  0.8003
39035TIP3   OH217986   0.418   0.242   5.281  0.1088  0.0023  0.0554
39035TIP3    H117987   0.480   0.270   5.214  1.0676 -1.5875  0.2126
39035TIP3    H217988   0.358   0.184   5.235 -2.3021  2.6824 -0.4300
39036TIP3   OH217989   2.946   7.434   2.999 -0.1148  0.5460  0.4149
39036TIP3    H117990   2.941   7.473   3.087  2.1796 -2.3334  2.0180
39036TIP3    H217991   3.023   7.474   2.959 -1.0247  1.6867 -0.2332
39037TIP3   OH217992   4.344   9.530   2.850  0.6131 -0.1095 -0.5032
39037TIP3    H117993   4.261   9.523   2.897  1.6958 -0.7265  1.4070
39037TIP3    H217994   4.335   9.610   2.798 -1.7276 -0.9584 -1.5643
39038TIP3   OH217995   5.182   9.978   9.807  0.0001 -0.9356 -0.0146
39038TIP3    H117996   5.134   9.979   9.724 -0.7812  1.1460  0.4230
39038TIP3    H217997   5.244  10.051   9.800 -0.4292 -0.4009  1.4221
39039TIP3   OH217998   1.862   8.888   9.666  0.8280 -0.1585  0.1260
39039TIP3    H117999   1.894   8.941   9.739  1.7110 -1.3614  0.6445
39039TIP3    H218000   1.931   8.824   9.651 -0.3203 -1.3456 -0.2871
39040TIP3   OH218001   8.619   0.922   5.533 -0.3126 -0.2632 -0.1283
39040TIP3    H118002   8.527   0.908   5.555 -0.3436  1.6002  1.1065
39040TIP3    H218003   8.667   0.881   5.605 -0.2341  0.3217  0.1550
39041TIP3   OH218004   8.780   2.734  10.028  0.0715 -0.9067  0.0619
39041TIP3    H118005   8.826   2.807  10.070  1.7318 -2.3763  0.9507
39041TIP3    H218006   8.795   2.747   9.935 -1.3578  0.9369  0.0391
39042TIP3   OH218007   8.112   2.621   1.196 -0.4976 -0.3579  0.3010
39042TIP3    H118008   8.034   2.620   1.140 -0.3316 -1.3349  0.0576
39042TIP3    H218009   8.184   2.603   1.136 -0.1119  0.2627  0.5698
39043TIP3   OH218010   0.311   7.019   5.661  0.0579  0.1071  0.0631
39043TIP3    H118011   0.371   6.944   5.669 -0.9521 -0.7461 -0.0335
39043TIP3    H218012   0.355   7.079   5.602  0.2161 -1.1490 -1.1689
39044TIP3   OH218013   9.390   5.179   6.676 -0.2039  0.5317 -0.0460
39044TIP3    H118014   9.355   5.249   6.621  1.5274 -0.1965 -2.1981
39044TIP3    H218015   9.406   5.106   6.616  4.9235  0.7764  0.5939
39045TIP3   OH218016   5.451   0.724   6.959 -0.5585  0.6980 -0.4185
39045TIP3    H118017   5.465   0.645   7.011 -0.6255  0.5969 -0.5536
39045TIP3    H218018   5.462   0.796   7.021  1.9603  0.7053 -0.7805
39046TIP3   OH218019   2.360   4.470   2.457  0.7176  0.0426 -0.5336
39046TIP3    H118020   2.423   4.445   2.390 -1.5692 -0.0961 -2.7603
39046TIP3    H218021   2.366   4.566   2.462  0.8676  0.0549 -0.9690
39047TIP3   OH218022   8.227  10.157   1.204  0.5752  0.8954  0.2771
39047TIP3    H118023   8.214  10.194   1.116  1.0463 -0.0137 -0.1914
39047TIP3    H218024   8.154  10.190   1.255  0.1319  1.2089 -0.5393
39048TIP3   OH218025   6.340   2.287   0.417  0.0157  0.8968  0.4092
39048TIP3    H118026   6.380   2.228   0.481 -0.1197  0.5032  0.1350
39048TIP3    H218027   6.414   2.335   0.379  0.5626 -1.4357 -1.7477
39049TIP3   OH218028   9.233   5.792   8.453 -0.1056 -0.3178  0.5915
39049TIP3    H118029   9.171   5.803   8.525 -0.4418  1.0064  0.1283
39049TIP3    H218030   9.270   5.880   8.439  0.4368 -0.6866 -0.4137
39050TIP3   OH218031   4.074   7.041   2.374 -0.1515  0.2832  0.1809
39050TIP3    H118032   3.990   7.069   2.410 -0.3356  0.0486 -0.0561
39050TIP3    H218033   4.121   7.122   2.354 -0.7664  0.4370 -0.7191
39051TIP3   OH218034   8.690   0.735   4.839  0.0485 -0.7274 -0.6681
39051TIP3    H118035   8.600   0.766   4.851  1.0946  2.4468 -0.2594
39051TIP3    H218036   8.699   0.723   4.745 -0.8804 -1.4252 -0.6822
39052TIP3   OH218037   4.559   7.507   9.784  0.2576 -0.0717  0.2857
39052TIP3    H118038   4.564   7.542   9.873 -0.8523  2.0690 -0.4281
39052TIP3    H218039   4.648   7.476   9.766  0.1881 -2.0050  2.6159
39053TIP3   OH218040   6.955   2.353   2.455  0.0840  0.0569  0.2365
39053TIP3    H118041   6.883   2.367   2.517  0.3187  2.4021  0.0704
39053TIP3    H218042   7.026   2.317   2.509 -0.1895  0.7185  1.0689
39054TIP3   OH218043   6.855   1.827   0.650 -0.1898  0.5115 -0.3820
39054TIP3    H118044   6.934   1.782   0.680  0.0862  1.0907 -0.2168
39054TIP3    H218045   6.857   1.911   0.697 -0.2654  1.0339 -1.2944
39055TIP3   OH218046   9.358   7.128   9.956 -0.1372  0.0700 -0.0864
39055TIP3    H118047   9.442   7.171   9.940  0.2357 -0.9180 -0.8665
39055TIP3    H218048   9.293   7.195   9.938  0.4746  0.9524  0.8523
39056TIP3   OH218049   0.088   8.715   8.770 -0.0992  0.3836  0.1672
39056TIP3    H118050  -0.005   8.737   8.783 -0.6616 -0.2314 -2.3308
39056TIP3    H218051   0.087   8.624   8.741  1.1504  0.7756 -1.2059
39057TIP3   OH218052   6.441   5.807   1.330 -0.2224 -0.2682  0.1274
39057TIP3    H118053   6.466   5.740   1.393  1.6038 -1.2310 -1.5067
39057TIP3    H218054   6.445   5.889   1.379 -0.5572 -1.1311  1.6568
39058TIP3   OH218055   9.774   8.818   2.085  0.3992 -0.5516  0.2522
39058TIP3    H118056   9.745   8.728   2.100 -0.8862  0.0054  1.2954
39058TIP3    H218057   9.693   8.868   2.072  0.9934  0.6988  1.1515
39059TIP3   OH218058   0.996   2.104   9.274  0.1180 -0.0664  0.2563
39059TIP3    H118059   0.949   2.083   9.193 -0.8523  2.4790  0.0627
39059TIP3    H218060   1.033   2.191   9.257  0.4981  0.2069  2.2976
39060TIP3   OH218061   7.161   9.447  10.729  0.1678  0.5333  0.5725
39060TIP3    H118062   7.245   9.405  10.713 -0.2736 -0.2966  0.4060
39060TIP3    H218063   7.177   9.540  10.711  0.8087  0.2480 -0.3676
39061TIP3   OH218064  10.062   5.515   5.606  0.8673 -0.3484 -0.3553
39061TIP3    H118065  10.013   5.597   5.605 -0.3528 -1.0522 -0.3978
39061TIP3    H218066  10.098   5.506   5.518  2.5566  1.0147  0.1499
39062TIP3   OH218067   6.597   6.513   9.397  0.4013 -0.0217  0.3378
39062TIP3    H118068   6.564   6.602   9.409 -0.2502 -0.1185 -0.6139
39062TIP3    H218069   6.520   6.458   9.402  0.5577 -0.3679 -0.7239
39063TIP3   OH218070   8.466   2.827   9.913  0.0203 -0.2967 -0.0894
39063TIP3    H118071   8.481   2.921   9.907  0.2608 -0.3431 -0.2391
39063TIP3    H218072   8.514   2.800   9.991  0.0978 -0.3224 -0.1454
39064TIP3   OH218073   3.253   9.768   7.626 -0.4518 -0.5925  0.6663
39064TIP3    H118074   3.197   9.765   7.703 -0.4593 -0.8488  0.6497
39064TIP3    H218075   3.206   9.719   7.559 -0.3637 -0.5216  0.5509
39065TIP3   OH218076   0.221   2.609   2.182 -0.7360  0.5568 -0.6803
39065TIP3    H118077   0.261   2.551   2.247  1.1247  3.3182  0.8969
39065TIP3    H218078   0.256   2.580   2.098 -0.6125 -1.1274 -0.0702
39066TIP3   OH218079   6.701   4.282   8.242 -0.0160 -0.5449  0.7507
39066TIP3    H118080   6.633   4.287   8.309 -0.2410 -1.0648  0.5670
39066TIP3    H218081   6.666   4.332   8.168 -0.2612 -0.9165  0.6095
39067TIP3   OH218082   5.923   3.360   4.859  0.5994 -0.5700 -0.1322
39067TIP3    H118083   5.967   3.365   4.774 -0.1404 -0.3690 -0.5107
39067TIP3    H218084   5.910   3.266   4.873  1.4986 -0.6580  0.1737
39068TIP3   OH218085   5.649   3.315   1.745  0.4787  0.2664 -0.1083
39068TIP3    H118086   5.742   3.316   1.719  0.8917  2.4885  1.1531
39068TIP3    H218087   5.650   3.285   1.836 -0.2022 -0.9105 -0.4745
39069TIP3   OH218088   6.358   8.676   4.196  0.0471  0.2356  0.0532
39069TIP3    H118089   6.358   8.766   4.228 -3.1697  0.0501  0.8522
39069TIP3    H218090   6.350   8.622   4.274  0.6513 -0.7101 -0.5068
39070TIP3   OH218091   2.335   9.543  10.719  0.4097 -0.3492 -0.5508
39070TIP3    H118092   2.287   9.552  10.637  0.4687 -0.7312 -0.6304
39070TIP3    H218093   2.313   9.454  10.750 -1.8982  0.7208  1.2790
39071TIP3   OH218094   8.812   7.496   7.650  0.1053  0.1544  0.2380
39071TIP3    H118095   8.730   7.493   7.601  0.3138 -1.6192 -0.0827
39071TIP3    H218096   8.797   7.558   7.720 -1.0388  0.8927 -0.6364
39072TIP3   OH218097   1.244   4.332   7.231 -0.0162  0.3985 -0.0546
39072TIP3    H118098   1.329   4.323   7.273  0.1218  0.8187 -0.2380
39072TIP3    H218099   1.250   4.414   7.182 -0.3776  0.2165 -0.4103
39073TIP3   OH218100   4.589   6.381  10.725 -0.3842  0.5279  0.4613
39073TIP3    H118101   4.597   6.375  10.820  1.2358  0.3088  0.3403
39073TIP3    H218102   4.574   6.474  10.708  1.3304  0.9177  0.8519
39074TIP3   OH218103   9.523   2.722   6.324  0.2000 -0.4559 -0.0972
39074TIP3    H118104   9.470   2.643   6.340  1.1187 -0.8036  1.4145
39074TIP3    H218105   9.613   2.691   6.327  0.5844  0.6976  0.8818
39075TIP3   OH218106   2.242   8.618   1.997  0.0631  1.2633  0.5477
39075TIP3    H118107   2.200   8.581   1.920  0.5642  1.2465  0.2780
39075TIP3    H218108   2.172   8.623   2.062  0.0766 -0.6491  0.7790
39076TIP3   OH218109   6.679   8.532   7.853 -0.4905  0.0125 -0.1808
39076TIP3    H118110   6.670   8.461   7.790  1.4332 -1.5364  1.1673
39076TIP3    H218111   6.746   8.589   7.815  1.3857 -1.4277  0.7466
39077TIP3   OH218112   6.507   4.588   0.947 -0.1214  0.3487  0.1726
39077TIP3    H118113   6.601   4.598   0.959  0.7550 -3.2094 -2.1682
39077TIP3    H218114   6.479   4.531   1.018 -0.4596  0.9531  0.5409
39078TIP3   OH218115   5.915   1.873   4.764  0.2539  0.0840 -0.0003
39078TIP3    H118116   5.959   1.823   4.694  0.1566  2.2116 -1.6874
39078TIP3    H218117   5.830   1.897   4.727 -0.8380 -0.7612  1.8112
39079TIP3   OH218118   1.506   4.495   7.510 -0.2099 -0.6888 -0.0100
39079TIP3    H118119   1.473   4.542   7.434 -1.8031 -3.3492 -1.0989
39079TIP3    H218120   1.471   4.541   7.585  0.6281  1.4473 -0.8601
39080TIP3   OH218121   4.758   9.833   3.906 -0.0199 -0.1830  0.0138
39080TIP3    H118122   4.765   9.784   3.824  1.3912  1.2944 -0.8100
39080TIP3    H218123   4.724   9.770   3.969  1.5611 -2.1952 -1.0276
39081TIP3   OH218124   7.879   8.599   0.642 -0.4853  0.8201 -0.0192
39081TIP3    H118125   7.911   8.680   0.602  0.3278  1.0207  0.9818
39081TIP3    H218126   7.814   8.627   0.706  0.4973  0.8077  1.0340
39082TIP3   OH218127   6.640   3.656   4.638  0.0180 -1.0037  0.4240
39082TIP3    H118128   6.676   3.570   4.657 -1.0248 -1.1769  1.7049
39082TIP3    H218129   6.569   3.668   4.701 -0.6060  0.3192 -0.4722
39083TIP3   OH218130   4.199   3.607   5.916 -0.1577 -0.4396 -0.0452
39083TIP3    H118131   4.221   3.648   6.000  0.1630 -0.6171 -0.0417
39083TIP3    H218132   4.197   3.679   5.854  0.0095 -0.3625  0.0375
39084TIP3   OH218133   7.009   1.161   7.002 -0.3001 -0.0310  0.8764
39084TIP3    H118134   7.098   1.155   6.968 -1.4408  0.1938 -2.5634
39084TIP3    H218135   6.991   1.076   7.040  0.6157 -0.9369 -0.6214
39085TIP3   OH218136   4.996   9.380   4.566  0.2241  0.1606 -0.2246
39085TIP3    H118137   4.902   9.398   4.559  0.2513  0.7724  0.7227
39085TIP3    H218138   5.000   9.291   4.601  0.0272 -0.3081 -1.3514
39086TIP3   OH218139   7.060   5.874   6.182  0.2197 -0.5487 -0.1778
39086TIP3    H118140   7.031   5.944   6.123  3.8105  0.0662 -1.5094
39086TIP3    H218141   7.003   5.880   6.258 -1.8582  1.4733 -1.7809
39087TIP3   OH218142   6.142   8.964   9.548  0.2250  0.0277  0.3187
39087TIP3    H118143   6.057   8.985   9.508 -0.2802  0.3449  1.5348
39087TIP3    H218144   6.156   9.032   9.613  2.7073  1.5765 -1.6184
39088TIP3   OH218145   0.279   3.787   6.160 -0.5113 -0.0621 -0.3668
39088TIP3    H118146   0.246   3.705   6.198 -1.0055  0.5352  0.5294
39088TIP3    H218147   0.208   3.850   6.172  0.7594  1.1635  1.2942
39089TIP3   OH218148   4.443   9.314   6.431  0.4314  0.2214 -0.6755
39089TIP3    H118149   4.482   9.227   6.434  0.7496  0.3214 -1.5292
39089TIP3    H218150   4.501   9.364   6.372 -0.5068  0.6171 -1.2829
39090TIP3   OH218151   2.955   5.311   6.365 -0.0291 -0.2930  0.2581
39090TIP3    H118152   3.028   5.358   6.404  0.6187 -2.4255  1.8274
39090TIP3    H218153   2.996   5.248   6.306 -0.8164  0.5565 -1.2391
39091TIP3   OH218154  10.684   8.331   8.659 -0.5107  0.3540  0.2238
39091TIP3    H118155  10.674   8.381   8.740  0.1133  0.9640 -0.0664
39091TIP3    H218156  10.741   8.385   8.604 -2.1176  0.6481 -1.2067
39092TIP3   OH218157   9.167   2.028   2.166  0.0030 -0.5053 -0.6359
39092TIP3    H118158   9.216   1.978   2.232  0.1697 -1.0219 -1.1385
39092TIP3    H218159   9.168   2.118   2.197  1.6081 -0.4352 -0.8206
39093TIP3   OH218160   5.085   9.608   3.490  0.8252  0.1155 -0.5785
39093TIP3    H118161   5.051   9.663   3.419  1.5428 -0.0799 -1.0760
39093TIP3    H218162   5.036   9.638   3.568 -0.4869 -0.1657 -1.2626
39094TIP3   OH218163   7.795   2.376   5.225  0.2273 -0.1594 -0.2956
39094TIP3    H118164   7.796   2.285   5.254 -4.0488 -0.8651 -1.5944
39094TIP3    H218165   7.759   2.424   5.299 -0.9821 -0.2025 -0.8383
39095TIP3   OH218166   1.017   2.541   3.629 -0.1709  0.0216  0.0755
39095TIP3    H118167   0.972   2.601   3.687 -0.4409  0.2494 -0.3623
39095TIP3    H218168   1.035   2.593   3.550 -0.2829 -0.4281 -0.2516
39096TIP3   OH218169   0.997   2.852   1.957  0.1795 -0.2145 -0.4636
39096TIP3    H118170   0.926   2.879   2.015  0.4713 -0.7999  0.1821
39096TIP3    H218171   0.969   2.879   1.870 -0.6585 -0.1051 -0.1668
39097TIP3   OH218172   6.654   3.200   1.316 -0.1439  0.3488  0.1015
39097TIP3    H118173   6.697   3.206   1.231 -0.9812  1.9344 -0.2487
39097TIP3    H218174   6.628   3.290   1.337  0.2358  0.0308  2.1549
39098TIP3   OH218175   3.259   8.705   9.410  0.2863 -0.2768 -0.2704
39098TIP3    H118176   3.258   8.667   9.498 -1.1692  0.5300  0.0848
39098TIP3    H218177   3.172   8.687   9.375  1.2306 -1.6806 -2.0692
39099TIP3   OH218178   8.835   6.557   1.427 -0.1808  0.1879 -0.1595
39099TIP3    H118179   8.782   6.519   1.357 -1.5204  2.5267 -0.5021
39099TIP3    H218180   8.867   6.640   1.392 -0.6014  1.2754  1.8399
39100TIP3   OH218181   8.713   5.417   4.993  0.6802 -0.0626 -0.0552
39100TIP3    H118182   8.676   5.504   4.975  2.7921  0.3805 -2.8902
39100TIP3    H218183   8.689   5.365   4.916 -0.9025 -2.2085  1.7824
39101TIP3   OH218184   1.660   5.689   0.378 -0.5650 -0.1157 -0.2086
39101TIP3    H118185   1.644   5.775   0.416  1.2479 -0.4155  1.4022
39101TIP3    H218186   1.751   5.669   0.403 -0.3015 -1.6758 -2.1748
39102TIP3   OH218187   6.062   7.939   4.961 -0.1223  0.0370  0.0817
39102TIP3    H118188   6.145   7.979   4.987  0.8028  0.2443 -2.8689
39102TIP3    H218189   6.000   8.012   4.957  0.6248  0.6209 -1.6323
39103TIP3   OH218190   4.444   3.131   0.854 -0.2999  0.1875  0.2986
39103TIP3    H118191   4.477   3.206   0.806  1.3716 -1.2176 -0.8903
39103TIP3    H218192   4.505   3.121   0.928 -0.9555  0.4369  0.8801
39104TIP3   OH218193   2.800   9.294   9.182 -0.0743  0.3878  0.1674
39104TIP3    H118194   2.867   9.229   9.161  0.6553  0.7017  1.4130
39104TIP3    H218195   2.809   9.362   9.115  1.2375  0.6976  0.6315
39105TIP3   OH218196   3.248   2.471   7.478 -0.0105  0.7332 -0.2209
39105TIP3    H118197   3.269   2.441   7.389  0.5872 -0.1494  0.2040
39105TIP3    H218198   3.277   2.563   7.479  2.2763  0.0920 -0.2394
39106TIP3   OH218199   8.673   9.955  10.270  0.2550  0.3754 -0.1714
39106TIP3    H118200   8.638   9.949  10.359  0.3636 -0.2710 -0.1653
39106TIP3    H218201   8.610  10.009  10.223 -0.5462 -0.4372 -0.0586
39107TIP3   OH218202   1.125   4.844   4.831 -0.2883  0.1190  1.0928
39107TIP3    H118203   1.131   4.822   4.924  1.6575 -1.0922  0.7260
39107TIP3    H218204   1.211   4.880   4.809 -0.9598  1.0859 -0.0946
39108TIP3   OH218205   1.323   9.957   8.896  0.5131 -0.2310  0.5636
39108TIP3    H118206   1.412   9.987   8.876  0.5493 -0.8572 -0.2940
39108TIP3    H218207   1.300  10.001   8.978  2.1221 -1.0806  1.5307
39109TIP3   OH218208   2.767   9.645   9.470  0.0336 -0.0107  0.2494
39109TIP3    H118209   2.820   9.724   9.464  0.2255 -0.1654 -0.1543
39109TIP3    H218210   2.688   9.666   9.420 -0.5982  0.4624  1.4260
39110TIP3   OH218211   2.725   1.893   5.087  0.3883 -0.2051 -0.1347
39110TIP3    H118212   2.643   1.941   5.093  0.6449  0.2726 -0.4134
39110TIP3    H218213   2.782   1.935   5.151  0.4515 -0.4624 -0.0221
39111TIP3   OH218214   5.465   7.379   2.478  0.1521  0.0734  0.0180
39111TIP3    H118215   5.468   7.474   2.464 -2.0997  0.0891 -0.8582
39111TIP3    H218216   5.457   7.342   2.390 -0.1456 -0.8456  0.4153
39112TIP3   OH218217   2.177   7.384   4.699  0.0410  0.1514 -0.6930
39112TIP3    H118218   2.241   7.364   4.768  0.4591  1.3221 -0.7049
39112TIP3    H218219   2.094   7.351   4.733  0.3682  0.0908  0.0703
39113TIP3   OH218220   9.165   3.241  10.046  0.6817  0.5890 -0.1734
39113TIP3    H118221   9.073   3.258  10.028  1.1698  2.2195 -1.3756
39113TIP3    H218222   9.191   3.311  10.107  0.9771 -0.2862  0.7441
39114TIP3   OH218223   6.348   4.916   2.879  0.1374 -0.8401 -0.5129
39114TIP3    H118224   6.259   4.949   2.892  0.0481 -1.0069 -0.6916
39114TIP3    H218225   6.386   4.916   2.967  0.9748  2.0405 -0.7735
39115TIP3   OH218226   8.538   8.159  10.292 -0.0157  0.1127 -0.3727
39115TIP3    H118227   8.502   8.246  10.309 -1.7628 -0.1424 -2.4161
39115TIP3    H218228   8.510   8.138  10.204  0.7997 -2.3490 -0.1167
39116TIP3   OH218229   7.308   8.645   7.088  0.8181 -0.1260  0.3266
39116TIP3    H118230   7.361   8.721   7.062  1.1863 -1.1142 -2.0683
39116TIP3    H218231   7.325   8.580   7.020 -1.0412 -1.6399  1.2253
39117TIP3   OH218232   2.220   2.190   2.906  0.3535 -0.6180 -0.2960
39117TIP3    H118233   2.307   2.229   2.918 -0.2324  0.4106  0.8043
39117TIP3    H218234   2.236   2.096   2.909  1.2971 -0.4471  1.1464
39118TIP3   OH218235  10.522   9.013   3.356 -0.2671  0.2042 -0.4074
39118TIP3    H118236  10.523   8.950   3.284  0.0476  0.4759 -0.6388
39118TIP3    H218237  10.470   9.086   3.324 -1.1665 -0.1981  0.0889
39119TIP3   OH218238   7.370  10.421  10.282  0.6548 -0.3570 -0.4164
39119TIP3    H118239   7.381  10.363  10.207  0.8460  1.4259 -1.8276
39119TIP3    H218240   7.445  10.480  10.279  0.3493  0.1378  0.8303
39120TIP3   OH218241   5.171   2.479   3.473 -0.2688 -0.2462 -0.2560
39120TIP3    H118242   5.260   2.451   3.451  0.2853  0.4750  0.9585
39120TIP3    H218243   5.155   2.553   3.415 -0.1760 -0.5478 -0.6678
39121TIP3   OH218244   2.455   6.549   3.246  0.3877 -0.4689 -0.4999
39121TIP3    H118245   2.444   6.467   3.295 -0.7693  0.0607  0.1727
39121TIP3    H218246   2.510   6.604   3.303  0.0462 -0.2920 -0.3402
39122TIP3   OH218247   6.070   8.165   8.411 -0.0390  0.0885  0.0425
39122TIP3    H118248   6.158   8.184   8.380 -0.5805 -1.1685 -2.5632
39122TIP3    H218249   6.032   8.109   8.343 -1.7117 -2.2160  2.6508
39123TIP3   OH218250  10.590   1.685   4.995 -0.2756  0.2655  0.0135
39123TIP3    H118251  10.666   1.637   4.963 -1.1026 -1.2161  0.1251
39123TIP3    H218252  10.620   1.728   5.075  0.8534  1.0368 -0.8047
39124TIP3   OH218253   9.595   8.490   8.659 -0.2865  0.2150  0.3701
39124TIP3    H118254   9.637   8.536   8.588  0.5746 -1.7039 -0.4299
39124TIP3    H218255   9.659   8.489   8.730 -0.9294  1.6213  1.0196
39125TIP3   OH218256   3.512   6.714   6.402 -0.6815 -0.0329  0.0130
39125TIP3    H118257   3.600   6.744   6.426 -1.1437  1.9634 -0.5723
39125TIP3    H218258   3.465   6.710   6.485 -0.6454  1.1647  0.1219
39126TIP3   OH218259   7.396   7.192   9.821  0.7971  0.5419 -0.4551
39126TIP3    H118260   7.421   7.268   9.768  1.7889  0.4384 -0.1660
39126TIP3    H218261   7.479   7.147   9.838  0.2278 -0.5317 -0.5054
39127TIP3   OH218262   0.557   6.856  10.564 -0.0392 -0.1093  0.1242
39127TIP3    H118263   0.551   6.769  10.526  0.3611 -0.3442  0.5959
39127TIP3    H218264   0.492   6.907  10.516  1.4910  0.0116 -1.9261
39128TIP3   OH218265   2.224   5.442   4.361 -0.1498  0.0398 -0.1362
39128TIP3    H118266   2.225   5.351   4.388  0.8611 -0.0423 -0.4085
39128TIP3    H218267   2.134   5.459   4.335 -0.7105 -0.4263  1.3847
39129TIP3   OH218268   9.629   0.224   3.144 -0.6522  0.1367 -0.1306
39129TIP3    H118269   9.548   0.189   3.181  0.2679 -1.7178  0.2190
39129TIP3    H218270   9.641   0.175   3.063 -0.0841  0.6832 -0.3791
39130TIP3   OH218271   1.213   2.071   4.928 -0.0402  0.2864 -0.2296
39130TIP3    H118272   1.237   2.163   4.924  1.0224  0.0304 -0.0904
39130TIP3    H218273   1.293   2.024   4.907 -0.4475 -0.6141  0.1586
39131TIP3   OH218274   2.130   7.952   0.080  0.1402 -0.3787  0.2039
39131TIP3    H118275   2.178   7.997   0.011  1.7222 -1.5232  0.4778
39131TIP3    H218276   2.191   7.884   0.111 -1.5091 -1.6235  0.9045
39132TIP3   OH218277   4.031   7.871   8.948 -0.3653 -0.3853 -0.1029
39132TIP3    H118278   4.119   7.834   8.942  0.0279  0.3420  0.8987
39132TIP3    H218279   3.992   7.828   9.024 -0.4244  0.2125  0.2037
39133TIP3   OH218280  10.585   9.307   4.203 -0.2829  0.1755 -0.8464
39133TIP3    H118281  10.519   9.270   4.262  1.2938  0.7974  1.4503
39133TIP3    H218282  10.566   9.401   4.202 -0.7410  0.0896 -1.9885
39134TIP3   OH218283   7.614   9.666   0.635 -0.4499  0.1896 -0.5463
39134TIP3    H118284   7.703   9.653   0.603  0.4979  0.4923  1.7181
39134TIP3    H218285   7.574   9.579   0.631 -0.0873  0.0563 -1.6166
39135TIP3   OH218286   8.892   0.262   5.062 -0.0905 -0.4115 -0.2843
39135TIP3    H118287   8.940   0.268   4.979  2.0239 -1.7563  0.7684
39135TIP3    H218288   8.910   0.345   5.106 -0.4086 -0.0914 -0.7511
39136TIP3   OH218289  10.804   0.963   3.688  0.3011 -0.5120 -0.2268
39136TIP3    H118290  10.717   0.961   3.648  0.0024 -2.2124  0.4146
39136TIP3    H218291  10.852   1.030   3.638 -1.1257 -0.0738 -1.0770
39137TIP3   OH218292   4.152   7.580   4.271 -0.2286 -0.1519 -0.1161
39137TIP3    H118293   4.137   7.646   4.205  3.1245 -0.1976 -1.1289
39137TIP3    H218294   4.096   7.507   4.247  0.9156 -0.1841 -3.0440
39138TIP3   OH218295   7.957   9.398   7.034 -0.3500 -0.7969  0.4001
39138TIP3    H118296   7.899   9.329   7.063  0.7709 -1.0890  2.0798
39138TIP3    H218297   8.010   9.420   7.111  0.2651  0.9717 -0.4563
39139TIP3   OH218298   4.638   1.619  10.849 -0.4645  0.1460  0.7245
39139TIP3    H118299   4.690   1.623  10.929  0.7835 -1.0376  0.0170
39139TIP3    H218300   4.602   1.530  10.848  1.4326 -0.6871 -1.1115
39140TIP3   OH218301   0.064   0.184   5.293  0.5326 -0.7741  0.1463
39140TIP3    H118302  -0.022   0.215   5.265  0.1403 -2.6449 -0.8692
39140TIP3    H218303   0.125   0.248   5.255 -0.1890 -1.6249 -2.6565
39141TIP3   OH218304   5.868   7.738   2.624  0.1730 -1.0059 -0.0217
39141TIP3    H118305   5.938   7.678   2.598 -0.7175 -2.9530  1.7943
39141TIP3    H218306   5.884   7.756   2.716 -1.4919 -1.2173  0.3452
39142TIP3   OH218307   5.064   8.816   7.649 -0.1912 -0.4122 -0.0133
39142TIP3    H118308   5.056   8.724   7.622  0.5368 -0.1640 -1.1646
39142TIP3    H218309   5.103   8.859   7.573 -3.2256  1.4317 -0.6805
39143TIP3   OH218310   2.015   4.012   1.092  0.8513 -0.1844 -0.2752
39143TIP3    H118311   1.957   3.976   1.159  1.1800  0.1796  0.2085
39143TIP3    H218312   2.103   3.997   1.126  1.0281  3.5308  1.3218
39144TIP3   OH218313   5.651   1.423   5.898 -0.1743 -0.6679  0.0405
39144TIP3    H118314   5.632   1.330   5.909 -2.2310 -0.2375  0.5517
39144TIP3    H218315   5.570   1.467   5.923  1.4808  1.3946  2.2444
39145TIP3   OH218316   7.911   5.354   4.509 -0.2785  0.3630  0.4344
39145TIP3    H118317   7.840   5.311   4.461 -0.9020  0.9458  0.8110
39145TIP3    H218318   7.990   5.327   4.463 -0.6745 -0.9024  0.4485
39146TIP3   OH218319   1.766   7.260   4.462 -0.1247  0.6413  0.7486
39146TIP3    H118320   1.794   7.228   4.547 -0.2879 -0.8297  0.2793
39146TIP3    H218321   1.672   7.242   4.459  0.2777 -1.7192 -0.6724
39147TIP3   OH218322   4.032   6.943   0.392  0.0081  0.0153  0.2384
39147TIP3    H118323   4.094   6.983   0.332 -0.2713  0.2947  0.1358
39147TIP3    H218324   3.948   6.983   0.371  0.1108  1.0003  1.5964
39148TIP3   OH218325   0.648   3.686   6.305 -0.0630 -0.0109 -0.4845
39148TIP3    H118326   0.622   3.779   6.310  0.1843  0.0223  0.3214
39148TIP3    H218327   0.579   3.640   6.351  1.5713  0.1467  2.3404
39149TIP3   OH218328   8.324   2.857   9.298 -0.0782 -0.1218 -0.0799
39149TIP3    H118329   8.340   2.870   9.205  0.3207  1.0074  0.1227
39149TIP3    H218330   8.328   2.762   9.311  0.4820 -0.2494 -1.1044
39150TIP3   OH218331   6.221   0.237   2.415  0.3836  0.1328  0.4220
39150TIP3    H118332   6.291   0.239   2.480 -0.4255  0.9603  1.2886
39150TIP3    H218333   6.202   0.144   2.403  1.8114 -0.1279 -0.0502
39151TIP3   OH218334   1.489   4.938   0.479 -0.0563 -0.6562  0.0357
39151TIP3    H118335   1.453   5.007   0.536  0.7461 -0.6921  0.5981
39151TIP3    H218336   1.434   4.941   0.400 -2.5466 -1.9811  1.5922
39152TIP3   OH218337   5.008   2.717  10.363  0.3323  0.2942 -0.1238
39152TIP3    H118338   4.933   2.761  10.403  0.1339  0.8307 -1.0746
39152TIP3    H218339   5.026   2.644  10.423 -1.2456 -0.1425 -0.1150
39153TIP3   OH218340   7.412   9.332   1.543  0.6667  0.3527  0.6219
39153TIP3    H118341   7.466   9.383   1.483  0.8235 -0.2624  0.2341
39153TIP3    H218342   7.472   9.269   1.581  0.1172 -0.7351 -0.2582
39154TIP3   OH218343   7.573   5.985  10.907 -0.1918  0.2405 -0.0573
39154TIP3    H118344   7.488   5.986  10.951 -0.8959 -0.0149 -1.3535
39154TIP3    H218345   7.635   5.962  10.976 -1.3345 -0.8333  0.6764
39155TIP3   OH218346   4.294   8.035   4.505  0.1570 -0.4673  0.4812
39155TIP3    H118347   4.351   7.979   4.558  0.5809  0.2283  0.7816
39155TIP3    H218348   4.337   8.039   4.419 -0.5374 -1.6070  0.0625
39156TIP3   OH218349   3.467   2.750  10.506 -0.0368 -0.2810  0.2181
39156TIP3    H118350   3.463   2.843  10.482 -0.1548 -0.0461  1.1119
39156TIP3    H218351   3.458   2.750  10.602  2.0735 -1.0586  0.4703
39157TIP3   OH218352   5.867   4.578   3.716  0.3509  0.4354 -0.2969
39157TIP3    H118353   5.813   4.500   3.711  0.8408  0.1344 -1.0279
39157TIP3    H218354   5.873   4.597   3.810 -1.3453  0.7245 -0.2149
39158TIP3   OH218355   0.935   1.162   5.301 -0.0652  0.1699 -0.4154
39158TIP3    H118356   0.974   1.186   5.216 -0.8682  0.5205 -0.6927
39158TIP3    H218357   0.849   1.127   5.278  0.1456 -0.7659  0.1807
39159TIP3   OH218358   5.455   9.547   0.805  0.1010  0.9908 -0.0285
39159TIP3    H118359   5.484   9.560   0.895 -1.3064  1.1866  0.4099
39159TIP3    H218360   5.397   9.471   0.809 -0.1671  1.1525 -0.7290
39160TIP3   OH218361   7.568   9.227   0.909  0.7093 -0.0565  0.4935
39160TIP3    H118362   7.601   9.296   0.852 -0.0010  1.4935  1.8700
39160TIP3    H218363   7.538   9.273   0.987 -3.0278 -1.5151  0.0969
39161TIP3   OH218364   5.710   2.492   1.943  0.0137  0.4864  0.4549
39161TIP3    H118365   5.711   2.402   1.911  0.5083  0.5580  0.2628
39161TIP3    H218366   5.784   2.534   1.900 -0.9221  1.3227 -0.4032
39162TIP3   OH218367   9.712   7.415   3.295 -0.0804  0.2144  0.7823
39162TIP3    H118368   9.700   7.321   3.288  0.0290  0.1922  0.8745
39162TIP3    H218369   9.667   7.440   3.375 -0.1723  0.2511  0.7190
39163TIP3   OH218370   5.001   7.177   1.061 -0.1188 -0.0397 -0.2786
39163TIP3    H118371   5.007   7.112   1.130 -0.4063 -0.2876 -0.4819
39163TIP3    H218372   5.018   7.261   1.104  0.0575 -0.2306  0.0197
39164TIP3   OH218373   5.277  10.050   7.664  0.2412 -0.6743 -0.3550
39164TIP3    H118374   5.196  10.062   7.615 -0.1468 -0.2565  0.3801
39164TIP3    H218375   5.281   9.955   7.680 -0.5716 -0.5868  0.3942
39165TIP3   OH218376   2.437   4.910  10.463 -0.1640 -0.1694  0.5152
39165TIP3    H118377   2.391   4.830  10.436  0.4153 -0.8876  1.5829
39165TIP3    H218378   2.385   4.981  10.425 -1.1059 -1.0213  0.1475
39166TIP3   OH218379   2.434   7.583   7.598  0.3159  0.0984 -0.0366
39166TIP3    H118380   2.371   7.524   7.639 -2.1616  2.3654 -0.3137
39166TIP3    H218381   2.511   7.528   7.581 -1.7682 -3.0078 -0.2333
39167TIP3   OH218382   6.976   3.527   8.926  0.2026  0.3585  0.4204
39167TIP3    H118383   6.907   3.463   8.942  1.4802 -1.3767 -0.5907
39167TIP3    H218384   6.990   3.570   9.010 -1.1102 -0.2680  0.9788
39168TIP3   OH218385   3.183   4.730   0.788  0.6558  0.4612 -0.1798
39168TIP3    H118386   3.205   4.640   0.766  0.8465  0.2398  0.8920
39168TIP3    H218387   3.220   4.744   0.875 -0.5549  1.1361  0.2508
39169TIP3   OH218388   8.044  10.149   3.780  0.5966  0.2750 -0.3037
39169TIP3    H118389   8.072  10.057   3.787 -0.4999 -0.0285  0.5644
39169TIP3    H218390   8.118  10.194   3.741  1.5453 -0.8098  0.1776
39170TIP3   OH218391   7.095   7.932   6.589 -0.0034  0.2633 -0.3644
39170TIP3    H118392   7.149   7.885   6.652  3.7145  3.0384 -1.1399
39170TIP3    H218393   7.072   8.014   6.634  0.0221  0.9244 -1.5221
39171TIP3   OH218394   3.163   4.053   5.547  0.5994  0.1327 -0.5403
39171TIP3    H118395   3.095   3.987   5.556 -0.6188  1.4313  0.0505
39171TIP3    H218396   3.116   4.133   5.525  1.8569  1.2306  0.6323
39172TIP3   OH218397   0.322   0.822   3.364  0.4645  0.0201 -0.0851
39172TIP3    H118398   0.310   0.891   3.429 -0.4200  0.8344 -1.0856
39172TIP3    H218399   0.248   0.831   3.305  0.6299 -1.4484 -0.5644
39173TIP3   OH218400   4.948   6.273  10.803 -0.1587 -0.2484 -0.1251
39173TIP3    H118401   4.925   6.288  10.895  1.0393  0.3939  0.1045
39173TIP3    H218402   4.885   6.324  10.753  0.6089  1.3361  0.4608
39174TIP3   OH218403   3.036  10.269   0.351 -0.0470 -0.3003 -0.0128
39174TIP3    H118404   3.108  10.297   0.408 -0.6178 -0.5744  0.8757
39174TIP3    H218405   3.000  10.350   0.315  0.3296 -0.1212  0.0137
39175TIP3   OH218406  10.091   7.148  10.696  0.0226  0.2920  0.2104
39175TIP3    H118407  10.060   7.167  10.784 -3.7397 -0.0239 -0.8869
39175TIP3    H218408  10.151   7.074  10.707  1.6738  1.8339  2.6601
39176TIP3   OH218409   8.335   2.839   4.667  0.2378  0.1495  0.0337
39176TIP3    H118410   8.405   2.808   4.725 -0.7469 -0.0420  1.1427
39176TIP3    H218411   8.268   2.873   4.726 -0.2429  1.1540 -1.0439
39177TIP3   OH218412   1.258   5.653   2.529  0.1112  0.2252  0.5999
39177TIP3    H118413   1.262   5.617   2.440  0.5910 -0.5643  0.9310
39177TIP3    H218414   1.167   5.680   2.540  0.1438  0.7352 -0.2804
39178TIP3   OH218415   0.083  10.230   6.815 -0.1424  0.5511 -0.5954
39178TIP3    H118416   0.087  10.216   6.909  0.5791 -0.2234 -0.7259
39178TIP3    H218417   0.031  10.156   6.781 -1.3307  1.4109 -0.7035
39179TIP3   OH218418   5.703   1.526   3.633  0.1351 -0.9963 -0.3165
39179TIP3    H118419   5.779   1.582   3.649  0.1631 -0.9564 -0.5798
39179TIP3    H218420   5.740   1.450   3.586 -0.1019 -0.6312 -1.1024
39180TIP3   OH218421   6.253   2.784   8.723  0.5361  0.3299  0.1210
39180TIP3    H118422   6.282   2.864   8.679 -0.2939  0.7957  0.4019
39180TIP3    H218423   6.307   2.780   8.803 -0.5337  1.5118  0.9436
39181TIP3   OH218424  10.572   7.045   0.482  0.2740  0.2883 -0.1342
39181TIP3    H118425  10.493   6.991   0.486  0.2637  0.2383 -0.8951
39181TIP3    H218426  10.644   6.984   0.496  0.2160  0.2218 -0.1275
39182TIP3   OH218427   9.352   9.428   3.361 -0.0216 -0.2516  0.0408
39182TIP3    H118428   9.386   9.407   3.274 -0.6619 -0.0781 -0.2570
39182TIP3    H218429   9.283   9.364   3.376  0.7563 -0.9398  0.8675
39183TIP3   OH218430   6.160   8.214  10.886 -0.5889 -0.6875 -0.5926
39183TIP3    H118431   6.070   8.192  10.861 -0.1646 -1.1277 -1.8072
39183TIP3    H218432   6.213   8.187  10.811  0.4361  0.5991 -0.3661
39184TIP3   OH218433   5.375   2.230   5.725 -0.0069  0.3049  0.0173
39184TIP3    H118434   5.375   2.144   5.769 -0.7963  0.7587  0.9259
39184TIP3    H218435   5.385   2.293   5.796  0.0313  1.0042 -0.5970
39185TIP3   OH218436  10.524   4.175   2.334  0.2058  0.4915  0.4402
39185TIP3    H118437  10.531   4.159   2.240  0.5969  2.0321  0.1766
39185TIP3    H218438  10.494   4.092   2.370 -2.9009  0.6305 -1.4002
39186TIP3   OH218439   4.467   0.348   2.599 -0.6019 -0.1527  0.5984
39186TIP3    H118440   4.552   0.325   2.563 -0.9744  0.1269 -0.5186
39186TIP3    H218441   4.480   0.351   2.693  0.6105 -0.1531  0.4401
39187TIP3   OH218442   2.303   6.892   5.627 -0.2267  0.6451  0.0038
39187TIP3    H118443   2.218   6.849   5.625 -0.2711  0.5767  1.7576
39187TIP3    H218444   2.341   6.867   5.711  0.3527  2.8527  0.4776
39188TIP3   OH218445   8.672   3.317   2.041  0.7127 -0.3675  0.4341
39188TIP3    H118446   8.605   3.258   2.006  0.7657  0.0344 -0.3593
39188TIP3    H218447   8.711   3.268   2.113 -1.0853 -0.2296  1.5718
39189TIP3   OH218448   2.931   5.019   3.455  0.0479  0.6174 -0.4729
39189TIP3    H118449   2.879   4.940   3.461  0.7566  0.1476 -0.4140
39189TIP3    H218450   2.928   5.057   3.544  1.5318 -0.5369  0.1120
39190TIP3   OH218451   4.288   2.772   7.696  0.3715  0.1066  0.2529
39190TIP3    H118452   4.260   2.749   7.607 -0.6095 -0.3861  0.6741
39190TIP3    H218453   4.325   2.860   7.688 -0.7414  0.5256 -0.4560
39191TIP3   OH218454   2.910   4.193   1.512  0.5254 -0.1124  0.1765
39191TIP3    H118455   2.889   4.153   1.597 -0.3290  0.4956  0.2603
39191TIP3    H218456   2.975   4.134   1.474  0.8450 -0.4546  1.2067
39192TIP3   OH218457   5.989   9.650   5.178 -0.2563 -0.0361 -0.2705
39192TIP3    H118458   6.009   9.679   5.267  3.8525 -0.0441 -0.9647
39192TIP3    H218459   6.012   9.557   5.177  2.2180  0.4927 -1.8106
39193TIP3   OH218460   9.597  10.311  10.359  0.2341 -0.2911  0.2236
39193TIP3    H118461   9.647  10.275  10.433 -0.7728  0.9163  1.5429
39193TIP3    H218462   9.531  10.244  10.341 -1.5730  0.7312  2.6096
39194TIP3   OH218463   1.424   2.319   6.327 -0.0960 -0.8120  0.0127
39194TIP3    H118464   1.340   2.344   6.290 -1.3013 -2.4525  1.4962
39194TIP3    H218465   1.450   2.394   6.381 -1.0632 -0.6349  0.2505
39195TIP3   OH218466   5.210   8.831   7.216  0.3854  0.2056 -0.0229
39195TIP3    H118467   5.271   8.778   7.268  1.1727  1.6593  0.5882
39195TIP3    H218468   5.125   8.818   7.258  0.1942 -1.9481 -0.9628
39196TIP3   OH218469   2.622   1.552  10.463 -0.5512 -1.0900 -0.1295
39196TIP3    H118470   2.529   1.544  10.484 -0.2964  0.0466  1.6228
39196TIP3    H218471   2.626   1.625  10.400 -0.8926 -1.6154 -0.7757
39197TIP3   OH218472   7.172   0.117   7.621  0.2162  0.0436  0.3763
39197TIP3    H118473   7.190   0.146   7.711  0.8300  0.8701  0.0045
39197TIP3    H218474   7.084   0.080   7.625  0.8759 -1.5585  1.6945
39198TIP3   OH218475   1.774   2.881   3.475  0.1539  0.1523  0.7204
39198TIP3    H118476   1.704   2.900   3.538  1.1301  1.1675  1.5394
39198TIP3    H218477   1.730   2.879   3.390 -0.8247  1.1843  1.1770
39199TIP3   OH218478   9.073   0.190   9.446  0.8021  0.3055 -0.1959
39199TIP3    H118479   8.989   0.229   9.424  0.9650  0.2339 -0.9771
39199TIP3    H218480   9.105   0.243   9.520  0.6627  1.1647 -0.7296
39200TIP3   OH218481   2.483   5.609   2.638  0.4647  0.0275 -0.0742
39200TIP3    H118482   2.547   5.680   2.643 -0.7379  1.1295  0.4203
39200TIP3    H218483   2.458   5.593   2.729 -0.4353  0.0878 -0.3012
39201TIP3   OH218484   0.279  10.054   7.254  0.0143  0.1640  0.1206
39201TIP3    H118485   0.254   9.964   7.232 -0.4639 -0.0366  1.3697
39201TIP3    H218486   0.218  10.079   7.324  1.2752  0.8187  1.0192
39202TIP3   OH218487   2.040   8.963   0.359  0.0780 -0.2488  0.5235
39202TIP3    H118488   2.005   9.024   0.424 -3.0970 -3.2175  1.9592
39202TIP3    H218489   1.979   8.969   0.285  1.6867  0.6261 -0.8000
39203TIP3   OH218490   9.669   9.528   7.179  0.4780  0.2361  0.1613
39203TIP3    H118491   9.728   9.459   7.208  2.2263  1.8229  0.6454
39203TIP3    H218492   9.679   9.530   7.084  1.4581  0.6699  0.2621
39204TIP3   OH218493   9.754   6.237   8.792  0.2438  0.1415  0.3730
39204TIP3    H118494   9.738   6.155   8.840  0.5621 -0.8111 -1.0712
39204TIP3    H218495   9.681   6.294   8.817 -1.4542 -1.5043 -0.5309
39205TIP3   OH218496   8.200   8.398  10.615 -0.8361 -0.5114  0.3209
39205TIP3    H118497   8.203   8.493  10.618  1.0032 -0.5382  0.5354
39205TIP3    H218498   8.199   8.377  10.521 -1.9590 -0.2999  0.2697
39206TIP3   OH218499   3.866   1.520   4.702  0.7988  0.0454  0.0605
39206TIP3    H118500   3.841   1.479   4.785 -0.8115  1.0492  0.1070
39206TIP3    H218501   3.869   1.447   4.639  0.2649 -0.4672  0.6178
39207TIP3   OH218502   5.077   0.106   7.496  0.0986  0.6638  0.0786
39207TIP3    H118503   5.048   0.059   7.574 -0.6922  0.3984 -0.3710
39207TIP3    H218504   5.024   0.071   7.425  1.5234  0.1525 -0.7836
39208TIP3   OH218505  10.380   2.986   2.852 -0.2983  0.7111  0.0016
39208TIP3    H118506  10.374   2.981   2.948  2.1170  1.6359  0.2771
39208TIP3    H218507  10.448   2.922   2.829 -1.3645 -0.0382 -1.2203
39209TIP3   OH218508   1.706   7.820   5.819 -0.1070  0.2670  0.0992
39209TIP3    H118509   1.703   7.909   5.784 -1.3018  0.7217  1.2783
39209TIP3    H218510   1.718   7.832   5.913 -1.1350 -0.7830  0.3775
39210TIP3   OH218511   8.737   5.628   8.192 -0.0274  0.4189  0.4568
39210TIP3    H118512   8.812   5.569   8.206 -0.3275 -0.2232 -0.5172
39210TIP3    H218513   8.765   5.684   8.120 -0.9930 -0.7699 -0.8941
39211TIP3   OH218514   1.892   8.177   8.832  0.0635 -0.7900 -0.3510
39211TIP3    H118515   1.935   8.135   8.906 -0.2172  0.0357  0.2954
39211TIP3    H218516   1.822   8.229   8.871  0.3171  0.1747 -1.1282
39212TIP3   OH218517   7.349   1.724   0.268 -0.2321 -0.2774  0.5807
39212TIP3    H118518   7.409   1.725   0.343 -2.1943 -0.2041  2.2735
39212TIP3    H218519   7.401   1.691   0.195  2.1970  1.0460  1.5836
39213TIP3   OH218520   5.760   6.327   4.038  0.1507  0.3620 -0.5948
39213TIP3    H118521   5.777   6.418   4.063  0.1331 -0.3932  2.5494
39213TIP3    H218522   5.673   6.329   3.998  0.0637  1.7142 -0.3826
39214TIP3   OH218523   0.488   3.929   0.730  0.0981 -0.0362 -0.0104
39214TIP3    H118524   0.575   3.947   0.764 -0.0099  0.2846  0.0949
39214TIP3    H218525   0.473   3.997   0.664 -0.0641 -0.1019 -0.0432
39215TIP3   OH218526   1.200   1.626   5.016 -0.3892  0.0985 -0.3611
39215TIP3    H118527   1.190   1.672   5.099 -0.6244 -0.7124  0.0678
39215TIP3    H218528   1.278   1.665   4.976 -1.0939  1.4948 -0.4391
39216TIP3   OH218529   2.534   0.638   5.020 -0.7979  0.3285  0.3488
39216TIP3    H118530   2.537   0.635   4.924 -0.4670  1.0889  0.3312
39216TIP3    H218531   2.441   0.627   5.041 -0.7211 -1.1806  0.0042
39217TIP3   OH218532   0.082   8.102   2.477  0.2975  0.2733 -0.0790
39217TIP3    H118533  -0.013   8.094   2.481  0.4091 -0.8354  1.9124
39217TIP3    H218534   0.098   8.192   2.451 -1.3230  1.0044  1.2824
39218TIP3   OH218535   9.067   5.108   1.862  0.0491  0.3867 -0.1728
39218TIP3    H118536   9.111   5.028   1.890  0.6184  0.5896 -0.4562
39218TIP3    H218537   9.010   5.081   1.790 -1.6438 -0.1869  1.3080
39219TIP3   OH218538   4.214   3.172   7.419  0.4115 -0.2241  0.7140
39219TIP3    H118539   4.234   3.195   7.509  1.9210  2.1566 -0.1177
39219TIP3    H218540   4.122   3.147   7.420 -0.3613  2.2900  2.5252
39220TIP3   OH218541   0.312   9.631  10.151  0.0618 -0.2636 -0.1203
39220TIP3    H118542   0.343   9.561  10.094 -2.2505 -0.9901 -0.6304
39220TIP3    H218543   0.323   9.597  10.240  0.8899 -0.3786 -0.2610
39221TIP3   OH218544   7.742   2.340   4.242  0.2741  0.2176 -0.5060
39221TIP3    H118545   7.823   2.334   4.190  0.6927  1.0664  0.0159
39221TIP3    H218546   7.674   2.307   4.184  1.4168 -4.0110  0.1958
39222TIP3   OH218547   3.932   7.496   4.515  0.2988 -0.4276 -0.6351
39222TIP3    H118548   3.908   7.546   4.437  0.7826 -0.4917 -0.8304
39222TIP3    H218549   4.025   7.475   4.503  0.8101  0.8805  0.6691
39223TIP3   OH218550   6.128   4.439   0.740  0.1093 -0.2928  0.3812
39223TIP3    H118551   6.052   4.408   0.789  0.9855 -3.4191  0.0114
39223TIP3    H218552   6.199   4.440   0.805  0.1287  0.9347  0.3509
39224TIP3   OH218553   6.718   8.696   8.886  0.1196 -0.2334  0.0467
39224TIP3    H118554   6.731   8.648   8.805 -1.6298 -2.9529  1.2243
39224TIP3    H218555   6.802   8.693   8.931  0.5485 -0.4756 -0.7613
39225TIP3   OH218556   0.685   6.377   2.386  0.2211  0.6120 -0.3444
39225TIP3    H118557   0.734   6.457   2.368  0.0333  0.9562  0.6476
39225TIP3    H218558   0.610   6.381   2.327  0.2695  1.1125 -0.3744
39226TIP3   OH218559   1.731   2.968   8.275  0.8322  0.3957 -0.0277
39226TIP3    H118560   1.710   2.953   8.183  1.3655  1.7372 -0.3851
39226TIP3    H218561   1.825   2.985   8.276  1.2365 -1.5641  1.0436
39227TIP3   OH218562   6.972   8.935   8.892 -0.6276  0.4488 -0.6774
39227TIP3    H118563   6.965   8.860   8.951 -0.3432 -0.5457 -1.8644
39227TIP3    H218564   6.884   8.974   8.894 -0.4064  0.9497  1.0134
39228TIP3   OH218565   7.507   5.285   6.151  0.8936 -0.6138 -0.1078
39228TIP3    H118566   7.453   5.307   6.075  0.9289  1.9757  0.5193
39228TIP3    H218567   7.462   5.324   6.225  2.6965  0.1016  0.6748
39229TIP3   OH218568   1.466   5.811   9.756 -0.2135 -0.0214  0.8306
39229TIP3    H118569   1.548   5.763   9.739  1.3259  1.9613  2.1548
39229TIP3    H218570   1.420   5.810   9.672  1.6762 -0.2979 -0.2645
39230TIP3   OH218571   2.650   0.134   6.137 -0.1023 -0.2377 -0.1123
39230TIP3    H118572   2.643   0.120   6.043  0.8003  0.8123 -0.3518
39230TIP3    H218573   2.603   0.216   6.153  0.0263 -0.2417  0.2996
39231TIP3   OH218574   1.202   3.839   4.809 -0.1759  0.0435 -0.2980
39231TIP3    H118575   1.274   3.818   4.869 -0.5076  1.8208  0.7869
39231TIP3    H218576   1.132   3.779   4.834 -0.1858  0.5249  0.8714
39232TIP3   OH218577   1.103   3.964   3.576 -0.6133 -0.6821 -0.6185
39232TIP3    H118578   1.138   4.052   3.589  0.6218 -1.3270  0.6794
39232TIP3    H218579   1.122   3.943   3.485  0.6984 -0.2785 -0.4539
39233TIP3   OH218580   4.973   6.023   8.400  0.0926 -0.8109  0.6420
39233TIP3    H118581   5.045   6.047   8.458  0.0935 -1.6438  0.9948
39233TIP3    H218582   4.965   5.928   8.408 -1.2706 -0.7020  0.8825
39234TIP3   OH218583   9.567   9.653   8.513  0.3014 -0.2288 -0.3821
39234TIP3    H118584   9.578   9.569   8.468 -0.8603  0.0355 -1.2074
39234TIP3    H218585   9.577   9.718   8.444 -1.4396  0.1886 -0.2690
39235TIP3   OH218586   3.855   1.434  10.452 -0.3084  0.1383  0.6332
39235TIP3    H118587   3.863   1.526  10.474  0.0107  0.2694  0.0007
39235TIP3    H218588   3.934   1.393  10.486  0.5851  0.4842 -0.9194
39236TIP3   OH218589   7.707   8.550   4.130  0.2173  0.4605  0.1226
39236TIP3    H118590   7.696   8.463   4.093 -1.8256  0.5951  0.2567
39236TIP3    H218591   7.717   8.607   4.054 -1.5410  0.4353 -0.1902
39237TIP3   OH218592   1.482   4.973   5.370  0.4172 -0.1453 -0.0819
39237TIP3    H118593   1.531   5.015   5.441  0.7240 -0.8838  0.1555
39237TIP3    H218594   1.417   4.918   5.414  2.6389 -3.1441 -0.1689
39238TIP3   OH218595   9.268   0.013   1.717 -0.3762 -0.0952 -0.1328
39238TIP3    H118596   9.218  -0.008   1.796 -0.8649 -0.7319 -0.6026
39238TIP3    H218597   9.357   0.028   1.748 -0.1761 -2.0310  0.3445
39239TIP3   OH218598   9.036   5.157   8.715 -0.3607 -0.5334 -0.4479
39239TIP3    H118599   9.094   5.172   8.790 -0.8498  0.5464 -0.2714
39239TIP3    H218600   8.950   5.143   8.755 -0.6997  0.4302 -0.8114
39240TIP3   OH218601   9.246   9.728  10.632  0.4398  0.2782 -0.1614
39240TIP3    H118602   9.300   9.658  10.594  0.1261  1.5110 -3.1797
39240TIP3    H218603   9.157   9.709  10.602  0.1053  1.1746  0.2246
39241TIP3   OH218604   3.974   6.733   8.551 -0.1644 -0.0402  0.2196
39241TIP3    H118605   4.041   6.772   8.608 -0.6822  0.2808  0.6194
39241TIP3    H218606   3.905   6.800   8.546 -0.8930 -0.7523  0.5933
39242TIP3   OH218607   7.895  10.216   9.303 -0.3983 -0.1658  0.3762
39242TIP3    H118608   7.885  10.125   9.273  0.7771 -0.0700 -0.3398
39242TIP3    H218609   7.963  10.253   9.247 -1.0925  1.2691  0.4419
39243TIP3   OH218610   6.550   7.053   0.311  0.9331  0.0173 -0.4987
39243TIP3    H118611   6.498   7.123   0.273  1.7017  1.7277  1.4281
39243TIP3    H218612   6.507   7.032   0.394  2.6918  0.8151  0.6837
39244TIP3   OH218613   6.895   8.026   4.155  0.0014  0.0818 -0.2485
39244TIP3    H118614   6.902   8.073   4.072  1.7507  1.7430  0.7767
39244TIP3    H218615   6.870   8.092   4.219  1.7428 -0.4827  1.1023
39245TIP3   OH218616   2.180   6.606   3.798  0.2406 -0.7305  0.2301
39245TIP3    H118617   2.127   6.682   3.775  0.0564 -0.6851  0.7653
39245TIP3    H218618   2.221   6.630   3.882  5.5188  1.4821 -2.5130
39246TIP3   OH218619   5.106   0.026   5.335  0.0144  0.0512  0.2305
39246TIP3    H118620   5.089   0.052   5.245 -1.5039 -1.8562 -0.0976
39246TIP3    H218621   5.157   0.098   5.371  2.2514  0.1032 -2.6434
39247TIP3   OH218622   1.891   4.788   7.015  0.6627  0.2667  0.2663
39247TIP3    H118623   1.966   4.847   7.023 -1.4297  2.9031  2.8532
39247TIP3    H218624   1.844   4.819   6.938  0.3460  1.0754  0.7719
39248TIP3   OH218625   9.860   3.277   0.535  0.2939  0.6798  0.4346
39248TIP3    H118626   9.909   3.325   0.602 -1.3914  1.4196  1.1960
39248TIP3    H218627   9.823   3.345   0.479  3.1570  0.0778 -2.5008
39249TIP3   OH218628   6.136   8.430   9.487  0.0251  0.3371  0.0687
39249TIP3    H118629   6.136   8.470   9.400 -0.0506 -0.7054 -0.4310
39249TIP3    H218630   6.226   8.443   9.519  1.2363 -2.4972 -1.7630
39250TIP3   OH218631   5.546   2.812  10.059 -0.3949 -0.3556  0.1373
39250TIP3    H118632   5.525   2.819  10.152 -0.4035  1.2522  0.0430
39250TIP3    H218633   5.600   2.733  10.052 -0.1755 -0.3463  1.5522
39251TIP3   OH218634   6.630  10.720   8.257 -0.2514  0.0830 -0.4994
39251TIP3    H118635   6.560  10.724   8.192  0.1007  1.0409 -0.8316
39251TIP3    H218636   6.640  10.626   8.276 -0.8079 -0.1524 -1.3324
39252TIP3   OH218637   9.154   7.367   0.416  0.8446  0.0632 -0.2843
39252TIP3    H118638   9.179   7.449   0.460 -0.9553  0.1718  0.6480
39252TIP3    H218639   9.065   7.383   0.386  0.7853 -1.2768 -0.8554
39253TIP3   OH218640   9.695   6.660   7.927  0.4203  0.4625  0.0556
39253TIP3    H118641   9.605   6.682   7.903 -0.8516 -1.7664  2.3142
39253TIP3    H218642   9.732   6.743   7.958 -1.3144  1.1819  0.3235
39254TIP3   OH218643   6.857   4.340   6.022 -0.2619 -0.2912 -0.0864
39254TIP3    H118644   6.890   4.282   6.091  0.0993  0.1137  0.0887
39254TIP3    H218645   6.799   4.401   6.069  0.4158  0.3335 -0.0404
39255TIP3   OH218646   7.135   8.934   2.167 -0.3828 -0.3284  0.6532
39255TIP3    H118647   7.105   8.871   2.232  0.2961 -1.3007  0.0432
39255TIP3    H218648   7.060   8.993   2.155 -0.5116 -0.1022  2.3130
39256TIP3   OH218649   9.960  10.385   5.497 -0.0311 -0.2675  0.2469
39256TIP3    H118650  10.006  10.465   5.519  0.9908 -0.5074 -0.8898
39256TIP3    H218651   9.895  10.412   5.432  1.3916 -0.5638 -1.3679
39257TIP3   OH218652   6.556   4.294   0.333  0.0527 -0.5238  0.0921
39257TIP3    H118653   6.483   4.296   0.271  0.6714  0.2882 -0.6356
39257TIP3    H218654   6.575   4.201   0.345 -1.1232 -0.7533  0.3409
39258TIP3   OH218655  10.867   1.316   2.158  0.1056  0.5669 -0.2921
39258TIP3    H118656  10.898   1.269   2.081 -0.2844  1.5955 -1.1009
39258TIP3    H218657  10.944   1.361   2.191  0.3501 -0.1455  0.1445
39259TIP3   OH218658   1.710   4.342   5.055 -0.3658  0.7420 -0.3925
39259TIP3    H118659   1.718   4.330   4.961 -2.3582  1.3340 -0.6994
39259TIP3    H218660   1.708   4.253   5.091 -1.0386  0.4709 -1.0749
39260TIP3   OH218661   1.890   6.771   4.329 -0.6866 -0.6399  0.0856
39260TIP3    H118662   1.968   6.777   4.384 -1.2392  0.2825  0.7933
39260TIP3    H218663   1.914   6.818   4.249  0.3593 -2.5781 -0.7962
39261TIP3   OH218664   3.028   2.305   6.579 -0.2254 -0.8955 -0.0645
39261TIP3    H118665   2.963   2.235   6.577 -0.4915 -0.7076  1.0759
39261TIP3    H218666   2.981   2.381   6.614  0.0444 -0.1126 -1.3382
39262TIP3   OH218667   4.510   6.265   2.983 -0.0099 -0.4667  0.0912
39262TIP3    H118668   4.496   6.336   2.920 -0.3426 -0.7664 -0.1724
39262TIP3    H218669   4.576   6.300   3.043 -0.5601  0.2731  0.2838
39263TIP3   OH218670   0.762   4.247   4.402  0.3606 -0.0736  0.4822
39263TIP3    H118671   0.672   4.245   4.436  0.3802  1.5406  0.6818
39263TIP3    H218672   0.793   4.157   4.412 -1.8072 -1.1041 -1.2040
39264TIP3   OH218673   0.468   3.967   0.211 -0.6827 -0.1813  0.0929
39264TIP3    H118674   0.503   3.964   0.122 -0.4238  0.9491  0.1353
39264TIP3    H218675   0.531   4.021   0.260 -0.8728 -0.7011  0.9402
39265TIP3   OH218676  10.137   2.056   6.954  0.1672  0.0593 -0.0789
39265TIP3    H118677  10.185   2.099   6.883  1.5816 -1.4854 -0.1114
39265TIP3    H218678  10.167   1.965   6.951 -0.8875 -0.3696  1.5446
39266TIP3   OH218679   0.903   0.603   6.696  0.2707  0.2020 -0.5853
39266TIP3    H118680   0.992   0.574   6.717  0.4684  1.5700  0.5366
39266TIP3    H218681   0.847   0.552   6.754  0.4415  0.4169 -0.2303
39267TIP3   OH218682   9.888   1.114   9.511  0.4762 -0.8779 -0.3353
39267TIP3    H118683   9.810   1.076   9.471 -1.0041  1.6500 -0.1486
39267TIP3    H218684   9.854   1.187   9.564  2.9801  0.3623 -0.2741
39268TIP3   OH218685   1.087   0.888   3.087 -0.8266 -0.8698 -0.2737
39268TIP3    H118686   1.034   0.882   3.167 -0.7413 -0.2893 -0.1734
39268TIP3    H218687   1.047   0.824   3.028 -1.4008 -0.7182 -0.0569
39269TIP3   OH218688   6.731   7.022   7.709  0.5430  0.3924 -0.0674
39269TIP3    H118689   6.797   6.954   7.722 -1.2305 -1.1548  1.4787
39269TIP3    H218690   6.651   6.974   7.692 -0.5529  2.1504 -0.0857
39270TIP3   OH218691   4.314   6.504   6.468 -0.2990 -0.2409 -0.0624
39270TIP3    H118692   4.231   6.542   6.498 -0.8511  0.7772 -2.5983
39270TIP3    H218693   4.327   6.428   6.524 -1.5379  1.0948  2.1922
39271TIP3   OH218694   4.358   7.737  10.756  0.2714  0.1022 -0.3656
39271TIP3    H118695   4.339   7.728  10.663 -0.9933 -0.0904 -0.1133
39271TIP3    H218696   4.404   7.657  10.779 -1.9134 -1.2236 -0.2677
39272TIP3   OH218697   8.051   1.725   2.959 -0.0174 -0.2082  0.1052
39272TIP3    H118698   8.006   1.747   2.877  0.5718 -0.2283 -0.2378
39272TIP3    H218699   7.993   1.663   3.003 -0.3155 -0.2439 -0.3302
39273TIP3   OH218700  10.265   6.952   3.919 -0.9047  0.9892  0.4406
39273TIP3    H118701  10.360   6.948   3.921 -0.8594  1.6331 -0.3173
39273TIP3    H218702  10.242   7.019   3.984 -0.7578  1.9792 -0.5137
39274TIP3   OH218703   2.537   8.582   3.197 -0.1865  0.1842  0.0039
39274TIP3    H118704   2.527   8.677   3.205 -0.2842  0.1670  0.1055
39274TIP3    H218705   2.622   8.570   3.157  0.7307  0.2640  1.8301
39275TIP3   OH218706   0.272   7.294   8.139  0.3720  0.6679 -0.2905
39275TIP3    H118707   0.214   7.346   8.083 -1.2205 -0.9277 -0.2379
39275TIP3    H218708   0.219   7.278   8.218  0.3728 -1.8444 -0.7310
39276TIP3   OH218709   2.231  10.537   2.047  0.0859 -0.3170 -0.3021
39276TIP3    H118710   2.163  10.604   2.047  1.6480  1.4195  1.3902
39276TIP3    H218711   2.270  10.541   1.960 -2.0842 -1.5534 -1.3937
39277TIP3   OH218712   8.112   7.342   0.120 -0.7126  0.1696  0.3618
39277TIP3    H118713   8.131   7.377   0.207  0.7120 -1.7137  0.8763
39277TIP3    H218714   8.158   7.400   0.060  0.9383 -0.2774  1.1343
39278TIP3   OH218715   6.502   2.889   3.150  0.0809 -0.2228 -0.1121
39278TIP3    H118716   6.478   2.909   3.240  0.6214  2.2361 -0.4500
39278TIP3    H218717   6.590   2.926   3.139  0.0823 -0.5861 -1.6040
39279TIP3   OH218718   0.869   8.026   6.940 -0.1183 -0.0608  0.1728
39279TIP3    H118719   0.898   7.963   7.005 -0.7456  2.0430  2.6375
39279TIP3    H218720   0.908   8.109   6.967 -3.7415  1.7664  0.4400
39280TIP3   OH218721   7.541   9.026  10.073 -0.1568 -0.1498  0.5862
39280TIP3    H118722   7.450   9.006  10.050 -0.8164  2.8339  0.2416
39280TIP3    H218723   7.536   9.107  10.123  2.3298  0.0312  0.6625
39281TIP3   OH218724   8.486   5.659   3.367  0.2320  0.0393 -0.2282
39281TIP3    H118725   8.488   5.670   3.462 -0.1248 -1.1477 -0.0712
39281TIP3    H218726   8.464   5.567   3.353 -0.3671  0.3443 -1.4713
39282TIP3   OH218727   5.931   3.329   4.327 -0.0412 -0.1566 -0.7697
39282TIP3    H118728   5.867   3.366   4.267 -0.1188  0.1497 -0.5043
39282TIP3    H218729   6.016   3.352   4.290 -0.0886  0.4444 -0.5181
39283TIP3   OH218730   1.374   8.681   1.810 -0.1553  0.0973 -0.2233
39283TIP3    H118731   1.377   8.645   1.899 -1.2941 -0.7111 -0.4955
39283TIP3    H218732   1.381   8.605   1.753 -1.4025  0.4003 -0.8121
39284TIP3   OH218733   8.214   2.340   7.356  0.6334  0.1386  0.2068
39284TIP3    H118734   8.218   2.388   7.439 -0.3504 -0.5072  0.6357
39284TIP3    H218735   8.289   2.373   7.307  0.7966  1.0883  1.0484
39285TIP3   OH218736   6.600   8.893   3.516 -0.2032  0.4354  0.2603
39285TIP3    H118737   6.521   8.918   3.469 -0.0057 -0.1878 -0.4106
39285TIP3    H218738   6.663   8.962   3.494 -0.5361  0.9197  0.7786
39286TIP3   OH218739   0.911   0.077   8.913  0.2768  0.0567  0.4039
39286TIP3    H118740   0.964   0.126   8.851  0.5322 -0.4280  0.2356
39286TIP3    H218741   0.837   0.044   8.861 -0.5487  1.2624  0.7665
39287TIP3   OH218742  10.608   9.380   7.439 -0.3139 -0.6497  0.1002
39287TIP3    H118743  10.519   9.392   7.474 -0.2753 -0.5757  0.1741
39287TIP3    H218744  10.597   9.319   7.366 -0.4356 -0.5860  0.0655
39288TIP3   OH218745  10.614  10.104   6.016  0.2413 -0.1449 -0.5231
39288TIP3    H118746  10.612  10.139   5.927 -0.6615 -0.8765 -0.8198
39288TIP3    H218747  10.579  10.015   6.007 -2.4313  0.6398  0.8996
39289TIP3   OH218748   7.479   6.890   6.874 -0.5396  0.1621 -0.4035
39289TIP3    H118749   7.430   6.850   6.946  0.2069 -0.3818 -0.1765
39289TIP3    H218750   7.568   6.856   6.884  0.0038  1.4914 -0.5237
39290TIP3   OH218751   9.657   3.085   9.366  0.4461  0.1278 -0.0707
39290TIP3    H118752   9.741   3.094   9.412  0.4520  1.3703 -0.2991
39290TIP3    H218753   9.654   2.993   9.340  1.9571  0.1573 -0.4660
39291TIP3   OH218754   2.355   6.964   4.886  0.0019 -0.6840 -0.6156
39291TIP3    H118755   2.326   6.902   4.953 -1.4208  1.6152  1.0570
39291TIP3    H218756   2.295   7.038   4.895  0.4658  0.2285 -3.7397
39292TIP3   OH218757   8.599  10.468   8.540  0.2321 -0.1175  0.1549
39292TIP3    H118758   8.646  10.392   8.575 -0.9303 -0.0114  2.1061
39292TIP3    H218759   8.515  10.432   8.510  0.5074  0.0928 -0.9140
39293TIP3   OH218760   4.116  10.496   5.442 -0.3481 -0.3321  0.0003
39293TIP3    H118761   4.043  10.530   5.391 -0.4749  0.1480  0.4864
39293TIP3    H218762   4.162  10.575   5.472  1.0015 -0.6266 -1.1864
39294TIP3   OH218763   2.450   5.207   8.963 -0.7565 -0.0712 -0.1281
39294TIP3    H118764   2.502   5.128   8.951 -0.9831 -0.1413 -0.6503
39294TIP3    H218765   2.413   5.226   8.877 -0.7588  0.5678  0.0081
39295TIP3   OH218766   9.436   9.070   8.923  0.3128 -0.1036 -0.0978
39295TIP3    H118767   9.499   9.057   8.852  1.5288  0.9970  0.7173
39295TIP3    H218768   9.385   9.146   8.896  0.8940  0.4257  0.2531
39296TIP3   OH218769   8.720   8.099   3.007 -0.5975  0.9829 -0.7593
39296TIP3    H118770   8.805   8.131   3.038 -0.6825  0.0579  0.5192
39296TIP3    H218771   8.656   8.141   3.064 -0.8642  0.3387 -0.5703
39297TIP3   OH218772  10.434   5.104   8.398 -0.0682 -0.6698 -0.6450
39297TIP3    H118773  10.441   5.010   8.380 -0.8931 -0.8390 -0.1509
39297TIP3    H218774  10.522   5.138   8.383  0.7455 -1.8622  1.0891
39298TIP3   OH218775   8.917   7.242   7.659 -0.0089 -0.1129  0.6378
39298TIP3    H118776   8.867   7.321   7.681 -0.6313 -0.6501  1.1643
39298TIP3    H218777   8.979   7.233   7.730  2.7219  2.0251 -1.2417
39299TIP3   OH218778   9.191   5.675  10.851 -0.2803  0.1464  0.0139
39299TIP3    H118779   9.191   5.627  10.768 -0.6257 -0.4777  0.3645
39299TIP3    H218780   9.110   5.726  10.850  0.5844  1.5670 -0.8158
39300TIP3   OH218781   7.365   6.575   7.840  0.1994 -0.1760 -0.9260
39300TIP3    H118782   7.330   6.567   7.928 -1.2842  3.3332 -1.0538
39300TIP3    H218783   7.296   6.540   7.783  0.1691 -0.2986 -0.8134
39301TIP3   OH218784   0.620   9.322  10.591  0.3495 -0.0091 -0.6465
39301TIP3    H118785   0.605   9.357  10.679  0.6133 -1.2675 -0.0682
39301TIP3    H218786   0.539   9.274  10.571 -0.0240  0.9165 -1.4377
39302TIP3   OH218787  10.851   5.109   8.608 -0.1428 -0.4651 -0.1142
39302TIP3    H118788  10.898   5.180   8.652 -0.2681 -0.6053  0.2529
39302TIP3    H218789  10.918   5.041   8.595 -0.4858 -1.1665  1.5165
39303TIP3   OH218790   1.858   6.696   8.167 -0.3102 -0.6356 -0.2135
39303TIP3    H118791   1.844   6.786   8.196 -0.7517 -0.7402 -0.0790
39303TIP3    H218792   1.942   6.671   8.206 -1.3793 -1.1323  1.9644
39304TIP3   OH218793   7.344   5.931   9.167 -0.3366  0.9493 -0.1202
39304TIP3    H118794   7.356   5.972   9.252  0.5288 -1.3507  0.9571
39304TIP3    H218795   7.433   5.917   9.134 -0.3986 -2.1369  0.7062
39305TIP3   OH218796   5.962   3.505   7.568 -0.2389  0.2095  0.0431
39305TIP3    H118797   5.916   3.498   7.484 -0.4395  0.1440  0.1593
39305TIP3    H218798   5.901   3.470   7.632  0.3741 -0.8404  0.0669
39306TIP3   OH218799   3.645   7.744   1.461 -0.3934 -0.5820  0.4418
39306TIP3    H118800   3.693   7.824   1.481  0.4021 -0.9793  0.1598
39306TIP3    H218801   3.606   7.761   1.375 -0.8590 -0.2195  0.7184
39307TIP3   OH218802   7.722   8.118   8.999 -0.9612 -0.1434  0.6148
39307TIP3    H118803   7.802   8.066   8.991 -1.0134 -0.1460  0.0869
39307TIP3    H218804   7.751   8.209   8.991 -1.2621 -0.1989 -1.9983
39308TIP3   OH218805   7.574   5.551   9.841  0.0602  0.0735  0.2645
39308TIP3    H118806   7.591   5.459   9.863  0.3475  0.5649  2.2607
39308TIP3    H218807   7.636   5.600   9.895  0.0534  1.4503 -0.9342
39309TIP3   OH218808   2.225   0.641   2.567  0.2817  0.2163  0.1296
39309TIP3    H118809   2.177   0.693   2.631  0.8865  0.7457  0.1630
39309TIP3    H218810   2.235   0.555   2.609 -2.2378 -0.5348 -0.6255
39310TIP3   OH218811   3.857   5.154   9.194 -0.1820  0.4871 -0.4823
39310TIP3    H118812   3.913   5.077   9.204 -0.9939 -0.0436  0.1422
39310TIP3    H218813   3.769   5.121   9.211 -0.6723  1.3371 -1.3052
39311TIP3   OH218814   3.333   8.061   8.744 -0.1827 -0.0433 -0.0997
39311TIP3    H118815   3.411   8.113   8.759 -1.0752  1.1061  0.6790
39311TIP3    H218816   3.274   8.118   8.695 -0.8895 -0.5741  0.1037
39312TIP3   OH218817   4.945   8.198   7.394 -0.4832 -0.0769  0.1615
39312TIP3    H118818   4.871   8.256   7.383  0.1468  1.4268  2.8190
39312TIP3    H218819   4.997   8.209   7.315 -3.4583 -1.9797 -2.2670
39313TIP3   OH218820   8.594   8.563   5.607 -0.3079 -0.4910  0.0123
39313TIP3    H118821   8.535   8.611   5.550 -0.1968 -0.9926 -0.5439
39313TIP3    H218822   8.658   8.523   5.547  0.6075  0.0612  0.6013
39314TIP3   OH218823   5.367   1.915   7.332 -0.1467 -0.0881 -0.3628
39314TIP3    H118824   5.446   1.863   7.317  0.7068  1.2927 -0.7673
39314TIP3    H218825   5.315   1.861   7.392  0.9200 -1.1854 -0.3752
39315TIP3   OH218826   7.653   6.800   1.010 -0.3885  0.3904 -0.4352
39315TIP3    H118827   7.681   6.789   0.919 -1.1531 -2.1193 -0.4576
39315TIP3    H218828   7.635   6.893   1.018  1.9795  1.1216 -2.1381
39316TIP3   OH218829   4.100   7.105   9.474 -0.0537 -0.7170  0.0032
39316TIP3    H118830   4.172   7.055   9.435  1.1713  0.4990  0.6258
39316TIP3    H218831   4.096   7.186   9.423 -0.5137 -0.4655  0.4295
39317TIP3   OH218832   9.218   2.464   8.914 -0.4985  0.0334  0.4263
39317TIP3    H118833   9.236   2.429   9.001 -3.0133  0.9308  1.4033
39317TIP3    H218834   9.177   2.392   8.867 -0.9091  0.1163  0.6552
39318TIP3   OH218835  10.753   4.448   6.032  0.3976  0.2519 -0.1305
39318TIP3    H118836  10.807   4.422   5.957  0.5766  1.6677 -0.5318
39318TIP3    H218837  10.739   4.367   6.081  1.8717 -0.3696 -0.6674
39319TIP3   OH218838   1.238   8.278   8.846 -0.3565 -0.0565 -0.8327
39319TIP3    H118839   1.246   8.372   8.829 -0.4753 -0.0554 -0.8848
39319TIP3    H218840   1.305   8.238   8.791 -0.3291 -0.0052 -0.8371
39320TIP3   OH218841  10.091   4.595   3.086 -0.0494 -0.1995 -0.3757
39320TIP3    H118842  10.081   4.586   2.991 -0.2029  0.6285 -0.4438
39320TIP3    H218843  10.167   4.540   3.107  1.0244  0.9181 -1.2331
39321TIP3   OH218844   8.589   3.696   9.663 -0.1946  0.3311 -0.4970
39321TIP3    H118845   8.678   3.664   9.680 -0.2055  0.0055 -1.0268
39321TIP3    H218846   8.595   3.791   9.674 -0.6613  0.0991  3.5168
39322TIP3   OH218847   1.345   1.767   7.722 -0.4631  0.0614  0.5297
39322TIP3    H118848   1.410   1.703   7.750  1.5511  1.1653 -1.3655
39322TIP3    H218849   1.364   1.845   7.776 -0.1125  0.4241 -0.1085
39323TIP3   OH218850   8.195   6.981   5.660 -0.3350 -0.1788  0.5880
39323TIP3    H118851   8.101   6.999   5.657 -0.5668 -1.0023 -3.7474
39323TIP3    H218852   8.201   6.886   5.657  0.4418 -0.1424 -2.7863
39324TIP3   OH218853   2.317   1.431   1.009 -0.5671  0.2916 -0.1741
39324TIP3    H118854   2.274   1.417   1.093 -2.1381  0.6670 -0.8753
39324TIP3    H218855   2.344   1.343   0.980 -0.2283  0.1353  0.5825
39325TIP3   OH218856   0.308   3.019   8.922  0.4339 -0.4102  0.0091
39325TIP3    H118857   0.355   2.994   9.001 -0.5075 -1.3275  0.2969
39325TIP3    H218858   0.355   2.975   8.851  0.4346 -0.7396  0.2160
39326TIP3   OH218859   0.955   4.140   1.512  0.0149  0.2510 -0.2731
39326TIP3    H118860   0.965   4.054   1.471 -0.1288 -0.9392  2.0506
39326TIP3    H218861   0.904   4.191   1.449 -1.8155 -2.0655 -0.8020
39327TIP3   OH218862   4.383   3.647   5.658  0.3320 -0.0608 -0.3818
39327TIP3    H118863   4.357   3.728   5.703  0.1385  0.3229 -1.1705
39327TIP3    H218864   4.440   3.602   5.721  1.8712  1.5159 -0.5599
39328TIP3   OH218865   1.931  10.551   9.651  0.0505 -0.7140  0.0269
39328TIP3    H118866   1.875  10.577   9.724  1.3236  1.0278  0.4612
39328TIP3    H218867   1.873  10.548   9.575 -0.4279  2.6334  0.1432
39329TIP3   OH218868   2.680   4.452   4.026  0.9548  0.4335  0.1785
39329TIP3    H118869   2.680   4.534   4.075  1.4776 -0.2782  1.4415
39329TIP3    H218870   2.766   4.449   3.985  0.2984  1.3077 -1.3083
39330TIP3   OH218871   7.467   4.205   1.789 -0.0810  0.1781 -0.4635
39330TIP3    H118872   7.462   4.152   1.868 -1.0340  2.0443  0.8019
39330TIP3    H218873   7.473   4.296   1.820  1.4247  0.8742 -2.5217
39331TIP3   OH218874   7.866   4.630  10.498  0.0280 -0.0683  0.3268
39331TIP3    H118875   7.799   4.649  10.564  0.9723  0.6652  1.1010
39331TIP3    H218876   7.946   4.618  10.548  0.4217 -1.3140 -0.5578
39332TIP3   OH218877   6.005   3.844   8.573 -0.1106 -0.0306 -1.0831
39332TIP3    H118878   6.089   3.890   8.576 -0.3571  0.3762  0.9502
39332TIP3    H218879   5.967   3.869   8.488  1.6079  0.0945 -1.8636
39333TIP3   OH218880   0.042   9.255   3.469  0.0022 -0.1062 -0.4552
39333TIP3    H118881   0.102   9.239   3.542 -0.8138 -2.1820 -0.1360
39333TIP3    H218882   0.039   9.350   3.460  1.3930  0.1386  1.1405
39334TIP3   OH218883   7.193   2.777  10.078  0.1804 -0.0039  0.1930
39334TIP3    H118884   7.231   2.785   9.991  1.4775  1.3457  0.8277
39334TIP3    H218885   7.132   2.851  10.084 -0.9667 -0.9069 -0.0439
39335TIP3   OH218886   7.427   6.845   2.724 -0.1827 -0.2979 -0.3491
39335TIP3    H118887   7.388   6.763   2.751 -0.7019 -1.0694 -3.1420
39335TIP3    H218888   7.366   6.912   2.753  0.1197 -0.8597  1.7239
39336TIP3   OH218889   7.051   4.694   1.789  0.0625 -0.1203  0.4153
39336TIP3    H118890   7.112   4.750   1.742  0.4437 -0.8200  0.0550
39336TIP3    H218891   6.971   4.695   1.736  0.5004 -0.9267 -0.2756
39337TIP3   OH218892  10.508   1.856   9.074 -0.2282  0.1869 -0.3469
39337TIP3    H118893  10.574   1.827   9.011 -0.7941  0.8104 -1.2599
39337TIP3    H218894  10.549   1.928   9.121  0.2819 -0.4321  0.1805
39338TIP3   OH218895  10.592   2.144   9.120 -0.9041  0.4776  0.3722
39338TIP3    H118896  10.639   2.223   9.094  2.2693 -0.3101  2.9756
39338TIP3    H218897  10.516   2.176   9.168 -0.0518  1.9975  0.7832
39339TIP3   OH218898   7.273   8.468   7.780 -0.1543 -0.6877  0.1758
39339TIP3    H118899   7.190   8.485   7.736  0.1065  0.9703  0.2628
39339TIP3    H218900   7.317   8.403   7.725 -0.9244 -0.5603 -0.6088
39340TIP3   OH218901   8.710   0.318   9.446  0.1382 -0.4615  0.1887
39340TIP3    H118902   8.742   0.405   9.422 -1.4976  0.5397  1.4300
39340TIP3    H218903   8.707   0.270   9.363  1.5935  0.4433 -0.4433
39341TIP3   OH218904   9.673   9.778   5.309  0.2527 -0.4730  0.2031
39341TIP3    H118905   9.630   9.735   5.235 -0.2755 -0.4360  0.4805
39341TIP3    H218906   9.756   9.809   5.274  0.5613 -1.5492 -0.0505
39342TIP3   OH218907   9.084   3.236   0.843 -0.3776 -0.7457  0.4333
39342TIP3    H118908   8.993   3.207   0.837 -0.3908 -1.0890  1.8811
39342TIP3    H218909   9.107   3.224   0.935  0.8951  0.0681  0.2493
39343TIP3   OH218910   5.065   6.216   8.862 -0.3469 -0.2361  0.0734
39343TIP3    H118911   5.121   6.291   8.841 -1.7064  0.8030  0.0056
39343TIP3    H218912   5.016   6.200   8.781 -1.7696  0.3524  0.7895
39344TIP3   OH218913   0.107   9.164   8.881  0.7172  0.6541  0.1489
39344TIP3    H118914   0.047   9.197   8.948  0.7454  0.8963  0.0551
39344TIP3    H218915   0.100   9.069   8.887  2.2165  0.5865  1.8875
39345TIP3   OH218916   2.478   8.390   4.475  0.3575 -0.1399  0.4884
39345TIP3    H118917   2.462   8.313   4.530  3.8978 -0.4560  1.3033
39345TIP3    H218918   2.513   8.354   4.393 -0.2870  0.5378 -0.0989
39346TIP3   OH218919   4.066   0.404   5.620 -0.4235 -0.0915  1.0205
39346TIP3    H118920   4.157   0.430   5.607 -0.0290 -0.7800  2.3421
39346TIP3    H218921   4.062   0.370   5.709 -1.4457 -2.3464  0.1869
39347TIP3   OH218922   3.061   5.696   5.330 -0.4073 -0.1754 -0.0527
39347TIP3    H118923   3.118   5.742   5.391 -1.3118  0.3220  0.4432
39347TIP3    H218924   3.104   5.611   5.316 -0.0980 -0.2322  1.1493
39348TIP3   OH218925   7.883   9.513   3.676  0.1217  0.5328  0.0663
39348TIP3    H118926   7.869   9.608   3.671 -3.4945  0.1676  0.5196
39348TIP3    H218927   7.867   9.482   3.587 -0.4272  0.2087  0.2731
39349TIP3   OH218928   1.855   9.532   0.050 -0.3425 -0.4664  0.1190
39349TIP3    H118929   1.787   9.558   0.112  0.6059  0.6694  0.7240
39349TIP3    H218930   1.919   9.485   0.103  0.6938  0.8919  0.1252
39350TIP3   OH218931   4.506   2.036   1.696 -0.3653 -0.0184 -0.2526
39350TIP3    H118932   4.432   2.062   1.750 -0.5950 -1.0418 -0.0395
39350TIP3    H218933   4.467   1.981   1.628  0.4557 -3.4828  1.7975
39351TIP3   OH218934   4.274   9.337   0.359 -0.1509  0.4276 -0.4771
39351TIP3    H118935   4.267   9.431   0.341 -0.7077  0.9684  2.1206
39351TIP3    H218936   4.361   9.327   0.398  0.6306 -0.4986 -2.3392
39352TIP3   OH218937   5.956   0.634   0.779  0.4044 -0.5893 -0.1830
39352TIP3    H118938   6.025   0.570   0.759 -0.1002 -1.2316  0.1124
39352TIP3    H218939   5.938   0.676   0.695  1.0099 -0.5556 -0.3034
39353TIP3   OH218940   3.776   6.548   2.872 -0.6746  0.0916 -0.4363
39353TIP3    H118941   3.818   6.621   2.918 -2.1945 -0.0925  1.3985
39353TIP3    H218942   3.773   6.576   2.781 -0.3612  1.9073  0.0569
39354TIP3   OH218943   2.664   0.531   1.386 -0.3286 -0.1029  0.5867
39354TIP3    H118944   2.686   0.618   1.418  0.4094  0.1082 -0.4300
39354TIP3    H218945   2.724   0.472   1.431  1.1951  0.2715 -0.8652
39355TIP3   OH218946   2.849   5.299   7.566  0.1108 -0.8216  0.0749
39355TIP3    H118947   2.779   5.295   7.501 -0.0408  0.9119  0.0902
39355TIP3    H218948   2.929   5.285   7.515  0.0980  1.6143 -0.7705
39356TIP3   OH218949   2.058   6.570   8.271  0.7259 -0.1479 -0.2317
39356TIP3    H118950   2.095   6.558   8.359 -2.2069 -1.4755  0.9697
39356TIP3    H218951   2.128   6.542   8.212  2.9248  1.1185  1.6110
39357TIP3   OH218952  10.118   0.014   5.713  0.1601  0.6038  0.2068
39357TIP3    H118953  10.041   0.018   5.656 -1.2277 -1.7945  1.7598
39357TIP3    H218954  10.192   0.018   5.653 -1.0249  3.8899 -1.3051
39358TIP3   OH218955   3.001   9.479   9.289 -0.2109 -0.4176 -0.7133
39358TIP3    H118956   3.070   9.416   9.269  0.0016 -0.4402  0.0585
39358TIP3    H218957   2.920   9.431   9.270 -0.2756 -2.4087  3.3677
39359TIP3   OH218958   8.749   1.113   5.745  0.2066 -0.0041 -0.7231
39359TIP3    H118959   8.707   1.072   5.670 -1.2931 -0.4415  0.2913
39359TIP3    H218960   8.817   1.052   5.772 -0.1770 -0.5174 -0.9034
39360TIP3   OH218961   8.928   5.658   2.597 -0.1746 -0.8993 -0.4329
39360TIP3    H118962   8.980   5.587   2.634  0.5619 -0.5283 -0.7510
39360TIP3    H218963   8.915   5.719   2.670  0.2762 -0.7417 -0.4832
39361TIP3   OH218964  10.452   2.457   6.686 -0.0580  0.4515 -0.5160
39361TIP3    H118965  10.491   2.520   6.626 -0.0028  0.7794 -0.1394
39361TIP3    H218966  10.405   2.395   6.630  2.0753 -0.7412 -1.1110
39362TIP3   OH218967   8.160   7.243   3.647 -0.3540 -0.0954 -0.7052
39362TIP3    H118968   8.217   7.312   3.613  0.4032 -1.1965 -1.8000
39362TIP3    H218969   8.210   7.162   3.631 -0.7998 -0.8284  1.3725
39363TIP3   OH218970   7.708   3.992   1.171 -0.2589 -0.3290 -0.8065
39363TIP3    H118971   7.772   4.045   1.217 -0.2726 -0.7365 -0.3094
39363TIP3    H218972   7.733   3.902   1.190 -0.5151 -0.4992 -1.2548
39364TIP3   OH218973   8.912   8.160   8.300  0.1634 -0.5648  0.1777
39364TIP3    H118974   9.007   8.169   8.312  0.2207 -1.5757  0.5593
39364TIP3    H218975   8.889   8.231   8.240  1.3505 -1.0332 -0.8677
39365TIP3   OH218976   9.635   3.251   7.452  0.2634 -0.5558  0.5027
39365TIP3    H118977   9.687   3.329   7.473 -1.4280  0.4590  1.1641
39365TIP3    H218978   9.681   3.210   7.379  1.1210  1.1681  0.0220
39366TIP3   OH218979   2.572   1.390   9.896  0.1052  0.8273  0.8433
39366TIP3    H118980   2.560   1.390   9.991  1.2886 -0.4223  1.0290
39366TIP3    H218981   2.484   1.399   9.860 -0.5609 -0.3597  2.0741
39367TIP3   OH218982   1.198   0.476   2.049  0.1907 -0.0504  0.0392
39367TIP3    H118983   1.156   0.508   1.969 -1.5517 -1.0589  0.4941
39367TIP3    H218984   1.277   0.529   2.058 -0.0911  0.7564 -1.8071
39368TIP3   OH218985   4.786   1.081   4.852 -0.2500  0.4320  0.2089
39368TIP3    H118986   4.822   1.127   4.928 -0.8450  0.4497  0.4917
39368TIP3    H218987   4.847   1.009   4.836  1.5148  2.1485 -1.1708
39369TIP3   OH218988   3.529   2.514   4.996  0.0484 -0.0281  0.0144
39369TIP3    H118989   3.572   2.435   5.031  0.8466  0.9023  1.2486
39369TIP3    H218990   3.437   2.503   5.019  0.3354 -0.0985  1.2478
39370TIP3   OH218991   5.510   7.708   5.672  0.6080  0.4418  0.7950
39370TIP3    H118992   5.508   7.720   5.767 -0.6393 -0.2743  0.8855
39370TIP3    H218993   5.565   7.631   5.659  2.4451  1.7069  0.7598
39371TIP3   OH218994   0.069   4.189   8.913  0.5437  0.1174  0.5153
39371TIP3    H118995   0.066   4.254   8.983 -0.8705 -0.5125  1.0776
39371TIP3    H218996   0.008   4.121   8.940 -0.6188  0.1939 -1.6413
39372TIP3   OH218997   7.742   7.307   5.435 -0.0574  0.3272 -0.1878
39372TIP3    H118998   7.660   7.351   5.412  0.1807  1.0645  0.3326
39372TIP3    H218999   7.810   7.357   5.390  0.0069 -1.2072 -1.8847
39373TIP3   OH219000   8.958   9.395   6.051 -0.2926  0.2637 -0.2254
39373TIP3    H119001   8.913   9.430   6.128  0.8964 -1.1282  1.1630
39373TIP3    H219002   8.887   9.369   5.992 -1.2561  0.2325  0.9010
39374TIP3   OH219003   1.469   6.840   7.710 -0.5278  0.1846 -0.4405
39374TIP3    H119004   1.507   6.767   7.759  0.2064 -0.9606 -2.6047
39374TIP3    H219005   1.544   6.884   7.669 -0.9960  1.9277  0.4388
39375TIP3   OH219006  10.631   8.023   9.699 -0.3756 -0.3846 -0.2402
39375TIP3    H119007  10.708   8.069   9.732 -1.6241  1.1425  0.6942
39375TIP3    H219008  10.633   7.938   9.743 -0.7702  0.7542  2.1061
39376TIP3   OH219009   3.150   9.383   0.956 -0.4244  0.6305  0.8832
39376TIP3    H119010   3.197   9.409   1.035 -1.6902  0.1672  1.8326
39376TIP3    H219011   3.187   9.298   0.933  1.2097  1.5753 -0.1132
39377TIP3   OH219012   2.148   7.500   8.436  0.0042  0.3475 -0.0028
39377TIP3    H119013   2.073   7.515   8.495 -0.8199  0.9133 -1.1606
39377TIP3    H219014   2.216   7.465   8.493 -0.4191  1.8487  1.5009
39378TIP3   OH219015   5.710   8.004   6.695  0.0743  0.3221  0.1889
39378TIP3    H119016   5.634   7.954   6.665 -0.2852  1.1333 -0.2865
39378TIP3    H219017   5.759   8.023   6.615  1.2526 -0.9331  0.5852
39379TIP3   OH219018   1.219   0.973   6.206 -0.2459  0.1274 -0.1988
39379TIP3    H119019   1.143   0.943   6.155 -2.0608 -0.2822  2.5389
39379TIP3    H219020   1.198   1.063   6.230 -0.3178 -0.2485  1.2551
39380TIP3   OH219021   5.427   2.113   6.139 -0.4604  0.4181  0.6408
39380TIP3    H119022   5.411   2.204   6.113 -0.7048  0.1763 -0.0755
39380TIP3    H219023   5.521   2.110   6.161 -1.0466  1.6022  3.8694
39381TIP3   OH219024   1.712   0.043   9.705  0.2197  0.0929 -0.4538
39381TIP3    H119025   1.651   0.037   9.779  0.5546 -1.0129 -0.2440
39381TIP3    H219026   1.687   0.123   9.660  1.9061  2.5174  2.5447
39382TIP3   OH219027   4.243   0.416   8.836 -0.5194 -0.3602  0.1769
39382TIP3    H119028   4.193   0.468   8.773  0.4094 -1.0343 -1.1540
39382TIP3    H219029   4.220   0.326   8.817 -1.4218 -0.5485  1.8846
39383TIP3   OH219030   9.479   8.649   5.202  0.6742  0.2811  0.1898
39383TIP3    H119031   9.525   8.614   5.126 -1.0656  0.9637 -1.2587
39383TIP3    H219032   9.538   8.632   5.275  2.1473 -0.9789 -1.1916
39384TIP3   OH219033   9.395  10.422   2.205 -0.1169  0.1301  0.0989
39384TIP3    H119034   9.421  10.350   2.147 -1.6836  1.0227 -1.8503
39384TIP3    H219035   9.416  10.501   2.155 -3.5359  0.9135 -0.3149
39385TIP3   OH219036   3.643   5.721   7.469 -0.3404  0.5222 -0.4192
39385TIP3    H119037   3.620   5.785   7.535 -1.8687 -1.0272  0.6414
39385TIP3    H219038   3.621   5.763   7.386 -2.4421  1.0141  0.3079
39386TIP3   OH219039   2.747  10.596   7.345  0.4472  0.1035  0.0047
39386TIP3    H119040   2.675  10.625   7.401  0.2095  0.7794 -0.6236
39386TIP3    H219041   2.783  10.678   7.310 -1.2474 -0.3214 -3.1087
39387TIP3   OH219042   9.565  10.815   9.159 -0.2084  0.0643 -0.1855
39387TIP3    H119043   9.568  10.899   9.206  2.4113  0.0207 -0.1040
39387TIP3    H219044   9.498  10.764   9.205 -0.7919  1.5796  0.7159
39388TIP3   OH219045   9.227   6.468   8.779  0.3485  0.0746 -0.1111
39388TIP3    H119046   9.267   6.555   8.780  0.5868 -0.0274 -0.7014
39388TIP3    H219047   9.194   6.457   8.868 -1.6277  1.6707 -0.5617
39389TIP3   OH219048   2.916  10.681   9.488 -0.2879  0.0907  0.1071
39389TIP3    H119049   2.824  10.657   9.494 -0.9493  2.4086  0.1221
39389TIP3    H219050   2.937  10.674   9.395 -0.8276  0.6677 -0.0665
39390TIP3   OH219051   5.708   5.254   5.428  0.2108  0.4454  0.1751
39390TIP3    H119052   5.770   5.211   5.487  1.2740  1.8967  0.1740
39390TIP3    H219053   5.623   5.221   5.455  0.9505 -1.5316  0.2377
39391TIP3   OH219054   5.821   9.902   3.416 -0.4659  0.3632  0.0265
39391TIP3    H119055   5.871   9.901   3.335 -0.4776  0.3156  0.0196
39391TIP3    H219056   5.776   9.817   3.417 -0.7358  0.5034 -0.0854
39392TIP3   OH219057   7.342   4.015   3.343  0.1809  0.1329  0.5251
39392TIP3    H119058   7.332   4.104   3.310  1.4658  0.2659  0.4320
39392TIP3    H219059   7.255   3.976   3.337  0.3840 -0.0482 -3.5515
39393TIP3   OH219060   8.564   2.618   0.451 -0.0221 -0.1023 -0.3665
39393TIP3    H119061   8.587   2.530   0.421 -0.4536 -0.6566  0.8741
39393TIP3    H219062   8.643   2.650   0.495  0.0263  0.0170 -0.5357
39394TIP3   OH219063   4.540   9.370   2.193 -0.4729  0.3017  0.3428
39394TIP3    H119064   4.449   9.379   2.165 -0.4508  0.5277  0.3422
39394TIP3    H219065   4.549   9.430   2.267  0.1803  1.7693 -0.8632
39395TIP3   OH219066   7.074   4.311   4.736  0.0325 -0.0822 -0.6623
39395TIP3    H119067   7.164   4.343   4.737 -0.9090  2.7997 -0.1040
39395TIP3    H219068   7.028   4.364   4.800 -2.6117  0.2829 -2.6652
39396TIP3   OH219069   1.962   6.784   3.804  0.1830  0.0867  0.2218
39396TIP3    H119070   1.956   6.869   3.848  1.8975  0.6638 -0.5642
39396TIP3    H219071   1.983   6.806   3.713  0.6710 -1.1805  0.0121
39397TIP3   OH219072   6.038   2.096   6.421 -0.3973 -0.3144  0.0669
39397TIP3    H119073   6.023   2.190   6.411 -0.5942 -0.5528 -2.2768
39397TIP3    H219074   6.131   2.088   6.442 -0.6335  0.4402  1.5148
39398TIP3   OH219075   8.223   0.731   9.487  0.1367 -0.4796 -0.2365
39398TIP3    H119076   8.144   0.684   9.513  0.2039 -0.0747  0.7735
39398TIP3    H219077   8.255   0.685   9.410 -1.9262  0.2721 -1.6342
39399TIP3   OH219078   7.498   0.168   3.487 -0.3671 -0.3741  0.5057
39399TIP3    H119079   7.590   0.175   3.461 -1.1113 -2.0227 -3.2997
39399TIP3    H219080   7.484   0.074   3.500 -1.4431 -0.0951  1.5628
39400TIP3   OH219081   3.854  10.474   8.497  0.2254  0.7995 -0.2721
39400TIP3    H119082   3.907  10.403   8.462  0.8187  0.4136  1.3299
39400TIP3    H219083   3.846  10.455   8.590 -1.1870  1.8481 -0.1386
39401TIP3   OH219084   3.572   5.076   0.078  0.4567 -0.1847  0.5362
39401TIP3    H119085   3.640   5.143   0.087  0.4730 -0.2154  0.6394
39401TIP3    H219086   3.508   5.098   0.145  2.2297 -2.4265  3.1622
39402TIP3   OH219087   2.784   7.867   0.885 -0.6009 -0.2188  0.4214
39402TIP3    H119088   2.814   7.848   0.796 -1.9074  0.1220 -0.1197
39402TIP3    H219089   2.694   7.833   0.887 -0.5734 -0.2653  1.6320
39403TIP3   OH219090   0.040  10.725   6.975 -0.8407 -0.1738  0.3703
39403TIP3    H119091   0.106  10.715   7.045 -0.6675 -0.8106  0.1302
39403TIP3    H219092   0.009  10.635   6.960  0.2794 -0.2913 -1.4708
39404TIP3   OH219093   8.977   3.970   7.839  0.0539  0.0233 -0.2563
39404TIP3    H119094   8.961   3.980   7.933 -0.5008 -1.4748 -0.1598
39404TIP3    H219095   8.895   3.994   7.798 -0.1373 -0.6358 -0.2623
39405TIP3   OH219096  10.270   7.890   9.667 -0.2678  0.3428  0.1546
39405TIP3    H119097  10.192   7.945   9.664 -0.4644  0.0779 -2.5391
39405TIP3    H219098  10.278   7.855   9.578  1.6279 -1.4899  0.9520
39406TIP3   OH219099   0.815   1.904   5.314 -0.2194 -0.2857  0.1060
39406TIP3    H119100   0.831   1.929   5.222 -2.0825 -1.2546 -0.5265
39406TIP3    H219101   0.760   1.973   5.348 -1.2231 -0.9477 -0.1407
39407TIP3   OH219102   9.397   8.900   9.249  0.0609  0.1215 -0.1777
39407TIP3    H119103   9.431   8.843   9.318 -1.1007 -0.8201 -0.3388
39407TIP3    H219104   9.417   8.852   9.168 -1.2052 -0.2286 -0.2955
39408TIP3   OH219105   8.602   5.250   3.504  0.3698 -0.6176  0.4972
39408TIP3    H119106   8.677   5.222   3.557  0.8066 -1.0577 -0.3378
39408TIP3    H219107   8.621   5.219   3.416 -0.6158 -0.3890  0.1845
39409TIP3   OH219108   4.698   1.032   8.409  0.1617  0.0116  0.1471
39409TIP3    H119109   4.687   1.118   8.450  2.3412 -0.1349  1.1405
39409TIP3    H219110   4.783   1.036   8.365  0.7908 -1.9482  1.0661
39410TIP3   OH219111   1.349  10.028   8.331  0.6822 -0.4990 -0.8479
39410TIP3    H119112   1.254  10.039   8.326  0.6324 -1.0566 -1.2227
39410TIP3    H219113   1.384  10.098   8.277  0.4472 -0.8642 -1.4850
39411TIP3   OH219114   3.667   5.721   1.486 -0.1892  0.0009 -0.2457
39411TIP3    H119115   3.727   5.753   1.418  0.7091  0.1925  0.6127
39411TIP3    H219116   3.676   5.626   1.483  1.0943  0.0622  0.6629
39412TIP3   OH219117   2.040   2.345   6.327 -0.5203 -0.2056 -0.1452
39412TIP3    H119118   2.102   2.384   6.389  2.3124 -3.4631 -0.6146
39412TIP3    H219119   2.075   2.366   6.241 -2.0403  0.6863 -0.5894
39413TIP3   OH219120   7.802   0.567   2.072  0.0705  0.7971  0.4684
39413TIP3    H119121   7.875   0.506   2.080  2.3019  3.3158  0.5759
39413TIP3    H219122   7.772   0.556   1.981  0.3955 -0.4657  0.5029
39414TIP3   OH219123  10.654   1.490   6.332 -0.0062  0.4467 -0.1483
39414TIP3    H119124  10.608   1.573   6.331  2.2926  1.8183 -0.5645
39414TIP3    H219125  10.694   1.486   6.419  0.9059  0.4123 -0.5557
39415TIP3   OH219126   0.281   5.683   9.325 -0.1433  0.0772  0.2287
39415TIP3    H119127   0.275   5.728   9.241  1.8925 -1.1736 -0.6812
39415TIP3    H219128   0.193   5.650   9.341 -0.7315  0.9181 -1.0826
39416TIP3   OH219129   6.527   7.386   6.517 -0.2077  0.5242  0.4489
39416TIP3    H119130   6.611   7.341   6.515  1.3551  3.2135  0.4863
39416TIP3    H219131   6.466   7.326   6.475  2.1780 -0.6619 -1.5507
39417TIP3   OH219132   1.704   0.547   1.767  0.6541 -0.2276 -0.0828
39417TIP3    H119133   1.642   0.517   1.701 -0.8967  0.2609  1.1019
39417TIP3    H219134   1.716   0.640   1.749  0.9240 -0.2832 -0.2027
39418TIP3   OH219135   8.500   5.889   9.078  0.2749  0.6327 -0.0041
39418TIP3    H119136   8.456   5.828   9.137 -0.7378 -1.3335 -2.5738
39418TIP3    H219137   8.557   5.940   9.135  1.9179 -3.2929  2.3127
39419TIP3   OH219138   3.654   8.503   8.054 -0.4288  0.8658 -0.0587
39419TIP3    H119139   3.595   8.449   8.000  1.1918 -0.5400 -0.4979
39419TIP3    H219140   3.699   8.559   7.991  0.7187 -0.0474 -0.0667
39420TIP3   OH219141   0.675   5.145   8.544  0.2150 -0.1017  0.0140
39420TIP3    H119142   0.620   5.153   8.465 -1.6270 -0.5035  1.1862
39420TIP3    H219143   0.662   5.227   8.591 -0.2422 -0.5976  0.7930
39421TIP3   OH219144   8.682   3.896   4.625  0.2678 -0.3109  0.1949
39421TIP3    H119145   8.755   3.927   4.679  0.3136 -1.4330  0.7995
39421TIP3    H219146   8.606   3.944   4.659  0.3390 -0.8262  1.1208
39422TIP3   OH219147   0.451   4.260   5.791 -0.0081  0.2397 -0.0247
39422TIP3    H119148   0.375   4.281   5.846 -1.9242  0.3978 -2.5402
39422TIP3    H219149   0.514   4.330   5.810 -0.5177  0.1834  2.0372
39423TIP3   OH219150   8.268  10.567   0.386 -0.0606  0.2107  0.1759
39423TIP3    H119151   8.349  10.537   0.428 -0.3115  0.1639  0.6308
39423TIP3    H219152   8.276  10.662   0.382  1.4020  0.0669 -2.6070
39424TIP3   OH219153   2.195   4.260   2.184  0.3186 -0.4705  0.4250
39424TIP3    H119154   2.286   4.259   2.213 -0.3081 -0.3952  2.6366
39424TIP3    H219155   2.158   4.178   2.217 -0.1613 -1.0600 -1.4650
39425TIP3   OH219156   6.784   5.199   4.497  0.4899 -0.1480 -0.6057
39425TIP3    H119157   6.733   5.274   4.527  1.7358  0.7514 -0.6466
39425TIP3    H219158   6.864   5.237   4.460  1.2957 -1.4961 -0.3435
39426TIP3   OH219159   3.205   4.185   2.714  0.0703 -0.1461  0.4022
39426TIP3    H119160   3.135   4.135   2.673  1.1125 -0.6013 -0.9174
39426TIP3    H219161   3.207   4.268   2.667  1.9033 -1.0429 -1.2565
39427TIP3   OH219162   3.077   5.534   7.775 -0.2222  0.5299  0.2339
39427TIP3    H119163   3.009   5.476   7.742 -1.8529  1.3907  1.8846
39427TIP3    H219164   3.111   5.490   7.852  1.6998 -0.2465 -0.9893
39428TIP3   OH219165   4.140   2.777   7.451  0.4564  0.1658  0.4240
39428TIP3    H119166   4.111   2.848   7.393 -0.0040 -0.5163 -0.2113
39428TIP3    H219167   4.166   2.707   7.391 -1.5297 -1.1626  1.0119
39429TIP3   OH219168   6.068   7.379   8.099  0.4525 -0.0657 -0.0663
39429TIP3    H119169   6.090   7.373   8.192 -0.7340  0.3476  0.2669
39429TIP3    H219170   6.073   7.288   8.067  2.3998 -0.0157 -0.0040
39430TIP3   OH219171   6.791   5.195   6.135  0.0655  0.1770  0.4637
39430TIP3    H119172   6.770   5.102   6.123 -0.0573  0.1592  0.8197
39430TIP3    H219173   6.758   5.237   6.055  0.6589 -0.1650  0.0280
39431TIP3   OH219174  10.512   1.243   6.435 -0.8596  0.1575 -0.6200
39431TIP3    H119175  10.550   1.321   6.396 -1.0935  0.1612 -0.8393
39431TIP3    H219176  10.439   1.275   6.488  0.4812  0.3411  1.2059
39432TIP3   OH219177   4.862   5.903   5.111 -0.0437 -0.1351 -0.2755
39432TIP3    H119178   4.879   5.997   5.112  0.9100 -0.2784  1.9065
39432TIP3    H219179   4.767   5.896   5.097 -0.4057  1.2519  1.1953
39433TIP3   OH219180   2.130   8.074   7.771  0.0978 -0.0333 -0.1729
39433TIP3    H119181   2.057   8.131   7.749 -0.8672 -1.0437  0.3279
39433TIP3    H219182   2.091   7.987   7.781  1.2626 -0.4799  0.7242
39434TIP3   OH219183   8.788   1.022   8.738 -0.2330 -0.0885 -0.0748
39434TIP3    H119184   8.824   0.943   8.700 -0.4072  0.5700 -1.7062
39434TIP3    H219185   8.765   0.998   8.828  0.9119 -1.4944 -0.1314
39435TIP3   OH219186   0.444   5.644   1.530  0.3862  0.1721  0.8012
39435TIP3    H119187   0.469   5.555   1.557  0.1592 -0.1205  0.0782
39435TIP3    H219188   0.350   5.639   1.515  0.5934  0.1104 -0.7213
39436TIP3   OH219189  10.891   8.137   8.627 -0.4021 -0.0911  0.5887
39436TIP3    H119190  10.874   8.218   8.674 -0.4478 -0.3028  0.9415
39436TIP3    H219191  10.986   8.132   8.620 -0.2788 -0.9183  2.2211
39437TIP3   OH219192   1.355  10.851   5.742  0.2494  0.1735 -0.2512
39437TIP3    H119193   1.375  10.803   5.662 -1.4517  2.1656 -2.0285
39437TIP3    H219194   1.420  10.922   5.744  0.0981  0.3095 -0.0590
39438TIP3   OH219195   3.014   8.498   7.538  0.2380 -0.4189  0.0528
39438TIP3    H119196   2.989   8.459   7.454  1.9495 -0.6938 -0.3766
39438TIP3    H219197   3.101   8.463   7.556  0.9774  1.5590  0.6833
39439TIP3   OH219198   5.805   0.837   6.225 -0.8015 -0.4097  0.1528
39439TIP3    H119199   5.892   0.800   6.209 -0.2634 -0.3425  2.6028
39439TIP3    H219200   5.744   0.768   6.201  0.0399 -1.4577  0.9603
39440TIP3   OH219201  10.512   9.869   4.601 -0.3808 -0.2694  0.4520
39440TIP3    H119202  10.590   9.827   4.635 -0.1616  0.2695  0.6110
39440TIP3    H219203  10.468   9.905   4.678 -0.8518 -0.6686  0.3801
39441TIP3   OH219204   5.597   6.593   4.699  0.2670 -0.0380 -0.1056
39441TIP3    H119205   5.656   6.589   4.774  1.1253  1.7082 -0.6474
39441TIP3    H219206   5.516   6.630   4.735  0.0177 -0.9390  0.3061
39442TIP3   OH219207   0.415   4.440   9.664  0.2730  0.0993 -0.1900
39442TIP3    H119208   0.325   4.449   9.634 -0.7391  1.0399  2.7713
39442TIP3    H219209   0.458   4.521   9.635 -0.2871  0.3642 -0.2894
39443TIP3   OH219210   2.588   8.111   6.895  0.1148 -0.3743  0.0420
39443TIP3    H119211   2.632   8.166   6.959  0.2753 -1.3727  0.8121
39443TIP3    H219212   2.655   8.092   6.830  0.2823 -0.3154  0.1977
39444TIP3   OH219213   7.623  10.078  10.314 -0.2667 -0.3355  0.2503
39444TIP3    H119214   7.708  10.100  10.276 -0.6825  1.3930  0.2226
39444TIP3    H219215   7.634   9.990  10.348  0.8962 -0.9790 -1.6215
39445TIP3   OH219216   7.598   9.082  10.575  0.1978  0.4114 -0.7140
39445TIP3    H119217   7.587   9.000  10.526 -0.4028  0.9776 -1.5632
39445TIP3    H219218   7.640   9.141  10.513 -1.5309  1.4800 -0.9517
39446TIP3   OH219219  10.310   1.848  10.799 -0.1169 -0.0627  0.6174
39446TIP3    H119220  10.401   1.848  10.829  0.5495  0.7148 -1.2687
39446TIP3    H219221  10.310   1.906  10.723 -1.3340 -3.0138 -1.8619
39447TIP3   OH219222   2.629   5.161   4.357 -0.6743 -0.2258 -0.5344
39447TIP3    H119223   2.605   5.218   4.430 -0.7211  0.0483 -0.7621
39447TIP3    H219224   2.725   5.162   4.356 -0.6807  0.3022 -0.8898
39448TIP3   OH219225  10.084   9.978  10.869 -0.6455 -0.3104  0.0648
39448TIP3    H119226  10.055  10.069  10.860 -1.9512 -0.7542 -0.4456
39448TIP3    H219227  10.145   9.980  10.943  2.0236  1.5677 -1.9840
39449TIP3   OH219228   7.746   8.400   7.156  0.0988 -0.3857 -0.4009
39449TIP3    H119229   7.789   8.314   7.160  0.4645 -0.2323 -0.9488
39449TIP3    H219230   7.688   8.395   7.081  0.0489 -0.1842 -0.3767
39450TIP3   OH219231   3.328   8.328   1.192  0.2254 -0.1146 -0.2694
39450TIP3    H119232   3.377   8.394   1.241 -0.4771 -0.3714  0.8173
39450TIP3    H219233   3.292   8.376   1.117  0.1278  0.6362  0.2424
39451TIP3   OH219234   2.978   1.467   9.540 -0.0757  0.3382 -0.4972
39451TIP3    H119235   3.044   1.399   9.553 -0.0976  0.2629 -0.7607
39451TIP3    H219236   2.943   1.484   9.627  0.1952  0.2811 -0.3752
39452TIP3   OH219237   2.346   9.026   1.467  0.0331 -0.3054 -0.4430
39452TIP3    H119238   2.360   8.983   1.551  1.5503  0.5996 -0.1942
39452TIP3    H219239   2.252   9.024   1.454 -0.4479  1.3298  2.2280
39453TIP3   OH219240   0.271   0.584   4.762 -0.2186  0.2912  0.0713
39453TIP3    H119241   0.302   0.567   4.673 -1.3742 -2.4642  0.0672
39453TIP3    H219242   0.176   0.595   4.752 -0.4160 -0.4510  0.9809
39454TIP3   OH219243   5.535   4.964   7.136 -0.2686  0.1759  0.5001
39454TIP3    H119244   5.569   4.916   7.211  1.3448  2.2237  1.1771
39454TIP3    H219245   5.505   4.896   7.075 -2.2742 -1.5575  3.1918
39455TIP3   OH219246   9.824   8.474   0.864 -0.5792  0.4387 -0.0715
39455TIP3    H119247   9.794   8.562   0.886  0.5074  0.9614 -0.6204
39455TIP3    H219248   9.839   8.432   0.948 -0.3411  1.0468  0.1916
39456TIP3   OH219249   9.160   2.075   7.562 -0.4632  0.4310  0.0428
39456TIP3    H119250   9.166   2.158   7.514 -0.5969  0.5380  0.2070
39456TIP3    H219251   9.085   2.087   7.620  0.0920  0.5585  0.7548
39457TIP3   OH219252   9.836   5.600   4.310 -0.4579 -0.4968 -0.5197
39457TIP3    H119253   9.821   5.512   4.277 -1.1201  0.2361 -2.3152
39457TIP3    H219254   9.750   5.641   4.311 -0.2165  0.0404  0.6547
39458TIP3   OH219255   6.973   5.082   8.243 -0.3591 -0.1436  0.4237
39458TIP3    H119256   6.898   5.061   8.188 -1.0880  0.4702  1.1643
39458TIP3    H219257   6.983   5.008   8.302 -1.1038  0.2615  1.0784
39459TIP3   OH219258   1.215   7.658   7.979  0.3255  0.5981 -0.3439
39459TIP3    H119259   1.254   7.719   8.041  3.2759  0.6281 -2.0393
39459TIP3    H219260   1.143   7.707   7.938  0.9666  1.9951  0.1676
39460TIP3   OH219261   7.103   4.123   1.190 -0.3117 -0.4375 -0.0935
39460TIP3    H119262   7.052   4.149   1.114 -0.0172  1.3643  0.2862
39460TIP3    H219263   7.194   4.135   1.163 -0.2062  0.2291  0.5238
39461TIP3   OH219264   8.600   0.521   8.587  0.0917  0.1560  0.1588
39461TIP3    H119265   8.516   0.566   8.589 -0.5531 -1.0296  1.1001
39461TIP3    H219266   8.627   0.516   8.678  1.2341  0.5961 -0.1418
39462TIP3   OH219267   8.633   8.952   6.826  0.2281  0.0193  0.0001
39462TIP3    H119268   8.607   8.930   6.916  1.6812 -1.1490  0.1712
39462TIP3    H219269   8.716   8.907   6.814 -0.0065  0.0574 -1.9861
39463TIP3   OH219270   9.105   2.113   8.417  0.8575  0.4488  0.4543
39463TIP3    H119271   9.113   2.120   8.322  0.6180 -2.4020  0.1423
39463TIP3    H219272   9.011   2.120   8.433  0.9183  1.1832  0.5488
39464TIP3   OH219273   4.580   3.150   9.778 -0.1759 -0.5565  0.0223
39464TIP3    H119274   4.539   3.072   9.739  0.5308 -0.1623 -1.5760
39464TIP3    H219275   4.571   3.218   9.711 -2.5845  1.4043  2.1358
39465TIP3   OH219276   8.306   8.056   8.808 -0.2485 -0.3970  0.3330
39465TIP3    H119277   8.307   8.062   8.903  1.7816 -2.3603  0.5078
39465TIP3    H219278   8.399   8.059   8.783 -0.6576 -1.3531 -1.4456
39466TIP3   OH219279   4.084   5.389   9.952  0.2548 -0.1334 -0.0817
39466TIP3    H119280   4.075   5.298   9.979  3.0304  0.2649  2.8130
39466TIP3    H219281   4.011   5.434   9.995 -0.8969 -0.8719 -1.2002
39467TIP3   OH219282   6.540   5.896   5.544  0.2183  0.2840  0.5106
39467TIP3    H119283   6.568   5.986   5.558  1.1817  0.1679 -0.5530
39467TIP3    H219284   6.621   5.846   5.534 -0.3179 -0.5531  0.2143
39468TIP3   OH219285  10.835   3.803  10.514 -0.1654  0.2642 -0.0007
39468TIP3    H119286  10.910   3.757  10.552 -1.1329 -2.0343 -0.6697
39468TIP3    H219287  10.844   3.789  10.420 -0.2316  1.9637 -0.2896
39469TIP3   OH219288  10.761   5.880  10.882  0.0470 -0.2660  0.3991
39469TIP3    H119289  10.724   5.958  10.924  0.4545 -0.2258  0.6965
39469TIP3    H219290  10.685   5.834  10.846 -0.4736 -0.8459  2.0910
39470TIP3   OH219291   0.855   5.276   4.998  0.0035 -0.2361 -0.1919
39470TIP3    H119292   0.861   5.208   4.931  2.5923 -1.8562  1.5082
39470TIP3    H219293   0.877   5.357   4.952  0.0285 -1.0225 -1.6186
39471TIP3   OH219294   8.917  10.237  10.887 -0.1638 -0.1247 -0.4834
39471TIP3    H119295   8.828  10.245  10.921  0.6506  1.5715  1.4211
39471TIP3    H219296   8.973  10.240  10.964  1.6622  1.0981 -1.7686
39472TIP3   OH219297   2.559   9.779   8.809  0.1342  0.1952  0.5214
39472TIP3    H119298   2.610   9.700   8.827  1.2511  0.3896 -1.4601
39472TIP3    H219299   2.469   9.747   8.797  0.5415 -0.7884 -0.1217
39473TIP3   OH219300   7.820   0.163   5.776  0.0495 -0.0756 -0.4081
39473TIP3    H119301   7.773   0.247   5.783  0.9524  0.4466 -0.5188
39473TIP3    H219302   7.752   0.101   5.749 -0.4269  0.8347 -1.3874
39474TIP3   OH219303   9.868   0.528   7.841 -0.3984 -0.0087 -0.1213
39474TIP3    H119304   9.926   0.474   7.788  1.8397  1.7289  0.4075
39474TIP3    H219305   9.864   0.612   7.795  1.4676  1.4891  2.2452
39475TIP3   OH219306   5.088   1.367   1.359 -0.9184  0.3290  0.5715
39475TIP3    H119307   5.102   1.368   1.264  1.0559 -0.8528  0.8034
39475TIP3    H219308   4.994   1.386   1.369 -1.5364 -1.0811 -1.6910
39476TIP3   OH219309   2.045   4.984  10.666 -0.1798  0.3503  0.3615
39476TIP3    H119310   2.050   5.047  10.594 -2.5289 -0.7829 -0.8952
39476TIP3    H219311   2.000   5.031  10.736 -0.5882  0.5458 -0.0228
39477TIP3   OH219312   2.779  10.681   6.840  0.1761  0.4215 -0.1773
39477TIP3    H119313   2.792  10.774   6.860  0.0184  0.3042  0.4971
39477TIP3    H219314   2.690  10.662   6.872  0.0326  0.1463 -0.7211
39478TIP3   OH219315   2.039   6.035   2.370 -0.0798  0.1098 -0.1729
39478TIP3    H119316   2.128   6.068   2.356 -0.5990  2.4794  1.5519
39478TIP3    H219317   1.994   6.052   2.287  0.4150  1.3760 -0.2063
39479TIP3   OH219318   7.703   9.727   6.880  0.1056 -0.1216  0.3543
39479TIP3    H119319   7.770   9.662   6.859 -0.3924 -0.7605  0.7151
39479TIP3    H219320   7.746   9.787   6.941  0.6052 -0.0351 -0.0758
39480TIP3   OH219321   2.372   0.716   6.647 -0.9547 -0.0244  0.2073
39480TIP3    H119322   2.457   0.754   6.623 -1.9089  1.6212 -0.7205
39480TIP3    H219323   2.393   0.626   6.674  1.3617  0.9866  2.1674
39481TIP3   OH219324   4.540   6.801   0.932 -0.2685  0.2328  0.4969
39481TIP3    H119325   4.537   6.859   1.009  1.1302  0.4152  0.4383
39481TIP3    H219326   4.551   6.714   0.969  0.7977  0.3615  0.5151
39482TIP3   OH219327   0.158   7.413   2.080  0.1240  0.8285  0.2081
39482TIP3    H119328   0.113   7.488   2.120  0.5970  1.1890  0.0748
39482TIP3    H219329   0.179   7.355   2.153  1.0474  1.5180  0.5137
39483TIP3   OH219330   0.712   0.566   2.519 -0.1373 -0.1559  0.7669
39483TIP3    H119331   0.695   0.529   2.605 -2.7221 -0.1945  0.3132
39483TIP3    H219332   0.673   0.503   2.458 -0.9982  1.2865 -0.2297
39484TIP3   OH219333   7.460   6.326   5.768 -0.0117 -0.2465  0.0807
39484TIP3    H119334   7.432   6.236   5.785  0.6047 -0.5293 -0.3654
39484TIP3    H219335   7.533   6.340   5.829  1.4321 -0.8603 -1.4352
39485TIP3   OH219336   0.302   7.827   6.304  0.0529  0.1093  0.5159
39485TIP3    H119337   0.374   7.764   6.310  0.5319  0.7030  1.2125
39485TIP3    H219338   0.333   7.893   6.241  0.1125  0.3488  0.7923
39486TIP3   OH219339   9.462   1.399   3.634  0.5485 -0.3878  0.1748
39486TIP3    H119340   9.549   1.435   3.617 -0.1535  1.2086 -0.2269
39486TIP3    H219341   9.405   1.444   3.572 -0.4890 -1.8499  0.0133
39487TIP3   OH219342   9.673   1.500   4.686  0.5719  0.0422  0.1104
39487TIP3    H119343   9.659   1.502   4.591  1.2593 -0.7646 -0.0162
39487TIP3    H219344   9.748   1.557   4.700  0.7179 -0.1502  0.1190
39488TIP3   OH219345   1.554   7.402   0.196  0.1824  0.0172 -0.1899
39488TIP3    H119346   1.558   7.413   0.291  1.3621 -1.4623 -0.0281
39488TIP3    H219347   1.464   7.374   0.179  0.0191  0.0873  0.5245
39489TIP3   OH219348   1.058  10.367   1.115  0.5289  0.1232  0.4385
39489TIP3    H119349   1.028  10.456   1.135  0.8974  0.0429  1.4387
39489TIP3    H219350   1.059  10.323   1.200 -1.3335 -1.3804 -0.2695
39490TIP3   OH219351   4.927   9.474   5.400  0.2435  0.0858 -0.2734
39490TIP3    H119352   5.016   9.449   5.377  0.4424  1.3955 -1.0309
39490TIP3    H219353   4.884   9.491   5.316 -0.1504  1.2713  0.1453
39491TIP3   OH219354   4.221   4.969   2.984  0.4847  0.1783  0.1758
39491TIP3    H119355   4.251   4.883   3.013  1.1084 -0.1731 -1.3958
39491TIP3    H219356   4.171   4.952   2.905 -1.3567  1.0721  1.0790
39492TIP3   OH219357   0.726   5.571   6.118 -0.2881  0.5242 -0.0074
39492TIP3    H119358   0.771   5.598   6.038 -2.1303  0.0722 -1.2787
39492TIP3    H219359   0.791   5.579   6.187  1.4978  0.5571 -1.6173
39493TIP3   OH219360   0.751   5.275   7.358 -0.1154  0.0806  0.1070
39493TIP3    H119361   0.783   5.361   7.331  0.5969 -0.4427 -0.7394
39493TIP3    H219362   0.680   5.295   7.420  0.4341  1.2682  0.3891
39494TIP3   OH219363   5.774   1.236   2.578 -0.1264 -0.4345  0.0455
39494TIP3    H119364   5.864   1.232   2.611 -0.2285  0.6744  0.4855
39494TIP3    H219365   5.756   1.329   2.566 -0.6816 -0.7112 -1.5814
39495TIP3   OH219366   1.709  10.749   1.593  0.3283 -0.8953 -0.1140
39495TIP3    H119367   1.684  10.825   1.539 -0.2645 -1.5309 -0.7416
39495TIP3    H219368   1.627  10.712   1.622  0.6346 -0.9809  0.6633
39496TIP3   OH219369   8.427   0.860   0.165  0.5474 -0.2692 -0.0172
39496TIP3    H119370   8.377   0.937   0.138 -0.5215 -1.1771 -0.6585
39496TIP3    H219371   8.395   0.840   0.253  0.0768 -0.6022 -0.2635
39497TIP3   OH219372   6.040   2.155   6.122 -0.2726  0.0680  0.2516
39497TIP3    H119373   6.016   2.241   6.155 -2.8364 -0.6694  0.5284
39497TIP3    H219374   6.020   2.158   6.028 -0.4853 -0.2578  0.2839
39498TIP3   OH219375   7.968   2.903   5.505 -0.6702 -0.0030  0.6685
39498TIP3    H119376   7.903   2.971   5.486 -1.6250 -0.8856  0.6879
39498TIP3    H219377   7.917   2.822   5.509  0.7223 -1.1308 -1.8351
39499TIP3   OH219378  10.527   6.444   7.328 -0.0101  0.2822 -0.3572
39499TIP3    H119379  10.478   6.408   7.254  0.2291 -0.4485 -0.1750
39499TIP3    H219380  10.573   6.368   7.365  0.7684  0.8371 -0.1502
39500TIP3   OH219381   3.005   8.864   2.980 -0.2773 -0.1588  0.4159
39500TIP3    H119382   2.941   8.895   2.916  1.7314  1.7080 -0.8177
39500TIP3    H219383   2.956   8.857   3.062 -1.8918  2.0553 -0.2593
39501TIP3   OH219384   9.714   7.847   8.103  0.4009  0.2082 -0.4759
39501TIP3    H119385   9.738   7.761   8.137 -0.7558  0.2167  0.4547
39501TIP3    H219386   9.796   7.896   8.101  1.1178 -0.9680 -1.2509
39502TIP3   OH219387  10.901   5.741   6.459  0.4310  0.3206 -0.4935
39502TIP3    H119388  10.922   5.696   6.377  1.2049  2.0118 -1.2893
39502TIP3    H219389  10.829   5.691   6.496  2.3209 -2.5681 -0.3888
39503TIP3   OH219390   7.891   9.622   0.501  0.1591 -0.4002 -0.5304
39503TIP3    H119391   7.867   9.566   0.427 -0.1821 -0.9870  0.0226
39503TIP3    H219392   7.956   9.683   0.464 -1.9097  1.0792 -1.9927
39504TIP3   OH219393   0.573   9.791   2.925 -0.2203 -0.3879  0.5358
39504TIP3    H119394   0.580   9.741   3.006  0.4790  1.1575  1.4733
39504TIP3    H219395   0.650   9.766   2.874  0.1821 -0.2092  1.0448
39505TIP3   OH219396   4.219   6.883   4.465  0.0000 -0.3098  0.1653
39505TIP3    H119397   4.171   6.845   4.539 -0.9986 -1.4682 -1.0403
39505TIP3    H219398   4.226   6.811   4.402 -0.4607  1.0453 -1.4813
39506TIP3   OH219399   8.566   7.380   6.970 -0.2329  0.1846 -0.2979
39506TIP3    H119400   8.607   7.303   7.009  0.9747  0.0379 -1.7596
39506TIP3    H219401   8.516   7.347   6.896 -1.0452  0.6428  0.0323
39507TIP3   OH219402   2.040   4.767   9.192  0.4026 -0.1966 -0.3351
39507TIP3    H119403   2.111   4.742   9.251 -0.2449  0.8604  0.9195
39507TIP3    H219404   2.080   4.828   9.130 -0.0490  3.4055  2.5886
39508TIP3   OH219405   5.124   4.674   9.412  0.0810 -0.5028 -0.1317
39508TIP3    H119406   5.059   4.649   9.346 -0.0985 -1.3115  0.3369
39508TIP3    H219407   5.174   4.594   9.427  1.5747  0.2581 -0.8983
39509TIP3   OH219408   6.237   5.382   6.384 -0.0810  0.2337  0.7585
39509TIP3    H119409   6.205   5.406   6.298 -1.5755 -0.3751  1.1110
39509TIP3    H219410   6.191   5.301   6.405  1.2321 -0.3421  1.5909
39510TIP3   OH219411   1.916  10.885   2.632 -0.5728  0.2413  0.2315
39510TIP3    H119412   1.932  10.791   2.637 -0.4477  0.1781 -0.9444
39510TIP3    H219413   1.917  10.904   2.538 -0.7359  1.3926  0.4485
39511TIP3   OH219414   4.549   3.242  10.017 -0.0541 -0.5046  0.2437
39511TIP3    H119415   4.525   3.212   9.929  0.3200  0.3141 -0.1467
39511TIP3    H219416   4.617   3.181  10.046  1.4839  0.5312 -0.9820
39512TIP3   OH219417  10.723   0.499   2.284  0.6749  0.5462 -0.1522
39512TIP3    H119418  10.678   0.584   2.283 -0.0146  0.2167  0.9726
39512TIP3    H219419  10.708   0.465   2.372  0.4634 -0.9852 -0.7402
39513TIP3   OH219420   7.502   6.432   6.165 -0.1469 -0.3775 -0.2650
39513TIP3    H119421   7.486   6.526   6.158  2.6146  0.3147  1.1842
39513TIP3    H219422   7.568   6.414   6.098  0.7918 -0.8591  0.7713
39514TIP3   OH219423   2.158   1.702   3.569  0.1097  0.2580  0.2057
39514TIP3    H119424   2.209   1.703   3.650 -0.8663  1.4066  0.8311
39514TIP3    H219425   2.144   1.794   3.547 -2.4527  0.0471  0.5897
39515TIP3   OH219426   1.615   9.969   4.261  0.0597 -0.2032  0.2961
39515TIP3    H119427   1.545   9.909   4.236  0.3393 -0.1155 -0.7641
39515TIP3    H219428   1.648  10.003   4.178  2.3797 -1.4086  0.6261
39516TIP3   OH219429   0.554   0.676   3.477  0.5334 -0.3265 -0.9574
39516TIP3    H119430   0.633   0.638   3.438  0.8076  1.0243 -1.7880
39516TIP3    H219431   0.534   0.752   3.421 -0.4183  0.3049  0.1953
39517TIP3   OH219432   8.511   5.675   0.281 -0.5184  0.4659 -0.2200
39517TIP3    H119433   8.596   5.639   0.254  1.0561  1.8954  2.4278
39517TIP3    H219434   8.463   5.600   0.315  0.8188  0.0543  0.8396
39518TIP3   OH219435   8.554   3.808   9.358 -0.2180  0.2518 -0.2603
39518TIP3    H119436   8.647   3.796   9.339 -0.5901 -1.8349 -0.9855
39518TIP3    H219437   8.532   3.737   9.418 -1.2372  1.0432  0.3288
39519TIP3   OH219438   4.420   5.975   2.409  0.0310  1.0156  0.3208
39519TIP3    H119439   4.465   5.899   2.447 -2.4457 -0.5989  0.2407
39519TIP3    H219440   4.351   5.996   2.473 -0.3652  2.1342 -0.4509
39520TIP3   OH219441   6.178   5.994  10.193 -0.4027  0.0311 -0.6245
39520TIP3    H119442   6.129   6.017  10.272  0.3828 -0.4317  0.0014
39520TIP3    H219443   6.258   6.047  10.197  0.4313 -1.2250 -0.2398
39521TIP3   OH219444  10.816  10.330   5.134 -0.1074  0.4477 -0.1732
39521TIP3    H119445  10.783  10.350   5.047  0.4982  1.0725 -0.2603
39521TIP3    H219446  10.849  10.413   5.168  1.4216 -0.1410 -0.1083
39522TIP3   OH219447   0.274   2.423   8.555 -0.4818  0.0837  0.3775
39522TIP3    H119448   0.346   2.462   8.605 -0.2428  0.0871  0.0374
39522TIP3    H219449   0.229   2.367   8.618 -0.2622  0.1875  0.6296
39523TIP3   OH219450   3.359  10.049   8.266  0.1407  0.2983 -0.2936
39523TIP3    H119451   3.441  10.007   8.292 -0.4533 -1.0198 -0.4936
39523TIP3    H219452   3.387  10.129   8.221  1.2938  0.2478  0.2978
39524TIP3   OH219453   9.629   7.241   2.540 -0.4718 -0.1745  0.4906
39524TIP3    H119454   9.689   7.238   2.466 -1.0795  1.5075 -0.1050
39524TIP3    H219455   9.542   7.235   2.501 -0.7589 -1.1731  1.2369
39525TIP3   OH219456   8.207   8.438   1.945 -0.0992  0.0134 -0.0579
39525TIP3    H119457   8.139   8.409   2.006 -2.0248  1.1849 -1.5228
39525TIP3    H219458   8.184   8.396   1.862  1.4287 -0.1485 -0.4281
39526TIP3   OH219459   3.054   3.113   2.265  0.2381  0.5938 -0.2792
39526TIP3    H119460   3.009   3.061   2.332  0.1837 -0.8615 -1.3976
39526TIP3    H219461   3.040   3.204   2.292  1.7121  0.0871  2.6633
39527TIP3   OH219462   0.530   9.488  10.816 -0.1750 -0.2450 -0.3174
39527TIP3    H119463   0.537   9.547  10.741 -0.5241  0.4083  0.1550
39527TIP3    H219464   0.469   9.531  10.875  1.6272  0.2867  1.2746
39528TIP3   OH219465   8.744   2.474   1.686 -0.3893  0.3553  0.2746
39528TIP3    H119466   8.745   2.495   1.780 -0.6604  1.3886  0.0574
39528TIP3    H219467   8.834   2.492   1.657 -0.4756  0.6770  0.2041
39529TIP3   OH219468  10.180   8.589   0.443 -0.0919  0.0500  0.5536
39529TIP3    H119469  10.272   8.603   0.421  0.1934 -0.6695  1.2560
39529TIP3    H219470  10.134   8.595   0.359  0.8206 -1.4667 -0.0925
39530TIP3   OH219471   8.649   3.005   7.058  0.0940  0.0627  0.3048
39530TIP3    H119472   8.592   3.070   7.099 -0.6866  0.7352 -1.7224
39530TIP3    H219473   8.695   3.053   6.990  2.1333 -0.7848  1.0278
39531TIP3   OH219474   0.812   1.196   9.681  0.3184  0.5470  0.0391
39531TIP3    H119475   0.736   1.253   9.669 -0.3821  0.4131  3.0304
39531TIP3    H219476   0.886   1.246   9.648 -0.7103  1.8273 -0.3907
39532TIP3   OH219477   0.167   4.106   0.683 -0.4941  0.5974 -0.2502
39532TIP3    H119478   0.222   4.120   0.759  1.4520  0.7844 -1.6148
39532TIP3    H219479   0.225   4.122   0.608 -1.8799 -1.1248 -1.7915
39533TIP3   OH219480   3.510   6.415   4.950  0.0653  0.2068  0.1361
39533TIP3    H119481   3.595   6.440   4.913 -0.0778  0.4802 -0.0137
39533TIP3    H219482   3.502   6.469   5.029 -0.1625  0.5037 -0.0879
39534TIP3   OH219483  10.846   6.932   4.035  0.0972  0.3309 -0.1233
39534TIP3    H119484  10.827   6.961   4.124  1.6574  2.0711 -0.3183
39534TIP3    H219485  10.870   6.839   4.045 -0.4340  0.3088  1.1506
39535TIP3   OH219486   2.208   0.955   6.533  0.0530 -0.2301 -0.8371
39535TIP3    H119487   2.176   0.889   6.472  1.2835  0.0095 -1.7877
39535TIP3    H219488   2.208   0.912   6.619  1.5821 -1.7658 -1.5466
39536TIP3   OH219489   4.836   9.029   7.503  0.0930 -0.4948  0.3631
39536TIP3    H119490   4.868   9.055   7.589  1.7694 -1.1839  0.0002
39536TIP3    H219491   4.889   9.081   7.442 -0.6339 -0.4698 -0.2562
39537TIP3   OH219492   2.756   6.710   5.418 -0.4033 -0.0442  0.5762
39537TIP3    H119493   2.766   6.667   5.503  0.1294  3.3265  2.3873
39537TIP3    H219494   2.666   6.741   5.418 -0.3498  0.1111  0.0141
39538TIP3   OH219495   6.703  10.895   3.615  0.6277  0.0816  0.0409
39538TIP3    H119496   6.712  10.971   3.674 -1.8893  0.5114  0.0182
39538TIP3    H219497   6.718  10.819   3.672 -0.8680  0.5237  1.1121
39539TIP3   OH219498   1.650   3.388   6.359  0.6635 -0.7010  0.0608
39539TIP3    H119499   1.685   3.335   6.430  0.2039  0.2279  1.0050
39539TIP3    H219500   1.678   3.477   6.379 -0.6108 -0.2247 -0.1877
39540TIP3   OH219501   8.575   6.786   1.734  0.0372 -0.0838 -0.0841
39540TIP3    H119502   8.569   6.695   1.706 -0.4031 -0.2266  0.4688
39540TIP3    H219503   8.524   6.790   1.815  1.1015  0.3874  0.5729
39541TIP3   OH219504   5.656   9.019   6.365  0.9137 -0.6068 -0.0685
39541TIP3    H119505   5.600   9.098   6.362 -1.5640 -2.2549 -0.3464
39541TIP3    H219506   5.726   9.037   6.304 -1.5392  0.0971 -2.9132
39542TIP3   OH219507   8.458   2.447   9.641  0.2238  0.1580  0.0197
39542TIP3    H119508   8.518   2.443   9.716 -1.2412  0.9722  1.3057
39542TIP3    H219509   8.449   2.541   9.624 -1.5758  0.1285  0.6381
39543TIP3   OH219510   0.016   4.115   4.107  0.2223  0.1553  0.1148
39543TIP3    H119511  -0.009   4.185   4.168  0.5897 -0.1972  0.6806
39543TIP3    H219512  -0.054   4.051   4.113 -0.9813  1.2078 -1.6555
39544TIP3   OH219513   4.554   1.290   1.178  0.0084 -0.2468  0.1410
39544TIP3    H119514   4.573   1.201   1.146 -0.9948 -0.5445  0.3225
39544TIP3    H219515   4.529   1.339   1.100  2.9529  0.6260 -0.3906
39545TIP3   OH219516   1.133   1.758  10.565  0.0097  0.0526 -0.2508
39545TIP3    H119517   1.132   1.664  10.586  0.4509  0.2992  0.9135
39545TIP3    H219518   1.046   1.789  10.592 -0.6511 -0.2636 -1.8941
39546TIP3   OH219519  10.415   1.212   1.396 -0.4654 -0.0155  0.2756
39546TIP3    H119520  10.448   1.186   1.482 -1.2943  2.1509  1.3143
39546TIP3    H219521  10.481   1.271   1.361 -0.4534 -0.3534 -0.2819
39547TIP3   OH219522   8.216   9.508   4.806 -0.0163 -0.2704  0.6770
39547TIP3    H119523   8.127   9.476   4.795  0.2191 -1.3991  1.7950
39547TIP3    H219524   8.270   9.429   4.806  0.7284  0.2004  2.3012
39548TIP3   OH219525  10.175   3.316   3.800  0.2312  0.3064 -0.3580
39548TIP3    H119526  10.268   3.312   3.778  0.2646  0.4588 -0.2446
39548TIP3    H219527  10.172   3.297   3.893 -0.1522 -3.2908 -0.9823
39549TIP3   OH219528   6.174   8.618   9.076 -0.0552 -0.0695 -0.0803
39549TIP3    H119529   6.211   8.618   9.164 -1.0306 -0.8558  0.3432
39549TIP3    H219530   6.243   8.582   9.021  1.2140  2.0246  0.0427
39550TIP3   OH219531   8.065   1.754   4.308 -0.4432  0.4305  0.1848
39550TIP3    H119532   8.097   1.754   4.398  2.2346  1.8948 -0.6766
39550TIP3    H219533   8.005   1.828   4.303 -0.8633  0.1424  0.8092
39551TIP3   OH219534   6.101   8.924   9.198  0.1386  0.2759  0.2047
39551TIP3    H119535   6.107   8.965   9.112 -0.7611  0.8789  0.4115
39551TIP3    H219536   6.062   8.838   9.180 -0.9295  0.7590  0.0825
39552TIP3   OH219537   7.075   3.103   0.731  0.7856  0.6938  0.0461
39552TIP3    H119538   7.080   3.016   0.770 -0.9593 -0.3845 -1.9081
39552TIP3    H219539   7.117   3.161   0.795 -1.5911 -0.9308  3.3585
39553TIP3   OH219540   9.612   9.467   2.685  0.0506  0.4558 -0.2152
39553TIP3    H119541   9.562   9.548   2.668  0.7716  0.6623 -1.4719
39553TIP3    H219542   9.629   9.431   2.598  0.7041 -0.4621  0.2803
39554TIP3   OH219543  10.394   6.190   5.332 -0.4452  0.1767 -0.3728
39554TIP3    H119544  10.298   6.193   5.337 -0.5037 -0.4968 -0.8995
39554TIP3    H219545  10.420   6.279   5.306 -0.7314  1.1003  2.2515
39555TIP3   OH219546   2.397   4.279   6.381 -0.2452  0.8784  0.0537
39555TIP3    H119547   2.457   4.311   6.314  0.7541 -0.6930  0.1484
39555TIP3    H219548   2.350   4.357   6.410  0.7488  1.9228 -1.0199
39556TIP3   OH219549   0.730   5.928   8.702 -0.5141  0.2390  0.6160
39556TIP3    H119550   0.645   5.885   8.711 -0.1391 -0.5207  0.6647
39556TIP3    H219551   0.717   6.015   8.740 -1.4438  0.3802  0.0092
39557TIP3   OH219552   1.288   3.500   3.522 -1.0600  0.6635  0.3144
39557TIP3    H119553   1.252   3.571   3.469 -0.1713  1.5142  0.8216
39557TIP3    H219554   1.285   3.533   3.611  1.4519  1.0022  0.3256
39558TIP3   OH219555   1.841   5.454   3.364 -0.0921 -0.5014  0.5602
39558TIP3    H119556   1.830   5.521   3.431 -0.8975 -0.1051  0.0496
39558TIP3    H219557   1.752   5.436   3.333  0.2148 -1.0758 -0.0204
39559TIP3   OH219558   5.193   9.269   2.200  0.1847 -0.3435 -0.0061
39559TIP3    H119559   5.252   9.213   2.250 -0.9841 -0.0224  1.8505
39559TIP3    H219560   5.123   9.211   2.171 -0.3802 -0.1152  0.8482
39560TIP3   OH219561   7.776   0.480   0.452  0.1853  0.2025  0.5527
39560TIP3    H119562   7.742   0.521   0.532  0.5270 -1.9748  1.8818
39560TIP3    H219563   7.780   0.552   0.389 -4.2541  1.2472  1.0613
39561TIP3   OH219564   0.795   7.228   1.023 -0.0939  0.3599  0.3208
39561TIP3    H119565   0.705   7.232   0.990 -0.5661  0.4396  1.5649
39561TIP3    H219566   0.812   7.134   1.035 -1.0659  0.4047  2.7301
39562TIP3   OH219567   2.402  10.538   4.996 -0.0174  0.4623 -0.4680
39562TIP3    H119568   2.431  10.452   5.026  1.2859  1.3873  1.0900
39562TIP3    H219569   2.440  10.547   4.909 -0.2273 -0.5516 -0.6784
39563TIP3   OH219570   8.592  10.489  10.524 -0.4570  0.5903 -0.0388
39563TIP3    H119571   8.594  10.460  10.433 -1.6599 -0.5362  0.2555
39563TIP3    H219572   8.654  10.562  10.528  1.1471 -0.6308 -1.2994
39564TIP3   OH219573   2.212   6.272   4.293  0.6421 -1.0203  0.7020
39564TIP3    H119574   2.154   6.334   4.249  1.6071 -0.7923 -0.2829
39564TIP3    H219575   2.191   6.187   4.256  0.9426 -0.9358  0.3360
39565TIP3   OH219576   7.862   7.825   5.762 -0.2921  0.1505  0.4527
39565TIP3    H119577   7.833   7.794   5.677 -0.9522 -1.0423  1.0824
39565TIP3    H219578   7.950   7.858   5.747 -0.7155  0.7336 -0.8448
39566TIP3   OH219579   6.339   3.051   1.757 -0.3730  0.1222 -0.1312
39566TIP3    H119580   6.319   2.958   1.756 -2.4539  0.5186 -0.7129
39566TIP3    H219581   6.272   3.091   1.701  0.6177  1.9375 -0.1064
39567TIP3   OH219582   1.898   9.055   2.779  0.3864  0.1671 -0.6942
39567TIP3    H119583   1.918   9.145   2.757 -0.5804  0.3603 -0.7968
39567TIP3    H219584   1.816   9.035   2.734 -0.2874 -0.2297  0.6259
39568TIP3   OH219585   2.503   0.116   2.101  0.3676  0.8158 -0.5756
39568TIP3    H119586   2.470   0.173   2.032 -0.5298 -0.4453 -1.2250
39568TIP3    H219587   2.532   0.176   2.170 -1.8854  2.0601 -0.6193
39569TIP3   OH219588   5.069   4.710   8.650 -0.7351  0.7213  0.4806
39569TIP3    H119589   5.133   4.748   8.710 -2.1834  0.6118  2.1720
39569TIP3    H219590   5.007   4.781   8.633 -0.0094  0.9577 -1.4775
39570TIP3   OH219591   7.852   5.891   4.597  0.4682 -0.2143 -0.3802
39570TIP3    H119592   7.759   5.894   4.574  0.4524  1.0064 -0.1825
39570TIP3    H219593   7.897   5.910   4.515  0.4248  3.3927  0.2699
39571TIP3   OH219594   5.312   5.341   4.173  0.1699 -0.7607 -0.8409
39571TIP3    H119595   5.284   5.417   4.122 -1.3275  0.0560  1.0443
39571TIP3    H219596   5.288   5.266   4.119  1.2530  0.0433 -2.5425
39572TIP3   OH219597   7.323   3.595   3.152 -0.2749  0.2193 -0.5595
39572TIP3    H119598   7.231   3.592   3.127 -0.7715  0.7558  1.1024
39572TIP3    H219599   7.354   3.505   3.142 -1.1090 -0.0632 -0.6291
39573TIP3   OH219600   3.433   0.370   8.026 -0.0656  0.1369 -0.1029
39573TIP3    H119601   3.400   0.456   8.054  0.0711  0.6967 -1.5842
39573TIP3    H219602   3.374   0.343   7.957  0.4153 -0.5713 -0.2483
39574TIP3   OH219603   3.475   9.216   2.417  0.0012 -0.1337  0.3507
39574TIP3    H119604   3.511   9.281   2.356  1.9830 -1.8083 -0.3934
39574TIP3    H219605   3.482   9.133   2.369 -0.7772 -1.1546  1.9412
39575TIP3   OH219606   9.252   2.472   6.748 -0.0189  0.0131 -0.2802
39575TIP3    H119607   9.217   2.426   6.672 -0.7721 -1.4268  0.8848
39575TIP3    H219608   9.176   2.519   6.784  0.5701  1.5858 -1.0075
39576TIP3   OH219609   0.246  10.217   7.511  0.2469 -0.3930  0.0250
39576TIP3    H119610   0.200  10.291   7.552 -0.5143 -0.9511  0.1980
39576TIP3    H219611   0.337  10.230   7.534  0.2242  0.8501 -0.4814
39577TIP3   OH219612   5.508   7.384   1.214 -0.0709 -0.3456  0.5021
39577TIP3    H119613   5.445   7.442   1.257 -1.0666 -1.0666  0.0544
39577TIP3    H219614   5.593   7.426   1.227 -0.7137  0.9534  0.5971
39578TIP3   OH219615   7.942   6.895   9.375 -0.0994  0.0856 -0.1742
39578TIP3    H119616   8.005   6.941   9.430  0.5939  0.6270 -1.3877
39578TIP3    H219617   7.972   6.911   9.285 -0.1052 -2.3181 -0.6714
39579TIP3   OH219618   6.835   1.955   8.966 -0.2208 -0.3455 -0.7716
39579TIP3    H119619   6.753   1.944   9.014  0.4561 -1.3881  0.1940
39579TIP3    H219620   6.867   2.041   8.991  0.3926 -1.0799  1.1445
39580TIP3   OH219621   3.757   8.350   4.420 -0.2615  0.1513 -0.2004
39580TIP3    H119622   3.850   8.354   4.442 -0.0785  0.1122 -0.9494
39580TIP3    H219623   3.719   8.293   4.487 -0.0345  1.3902  1.0373
39581TIP3   OH219624   0.715   9.192   4.762  0.1955 -0.3180 -0.0277
39581TIP3    H119625   0.721   9.247   4.684 -0.9418  0.4271  0.3750
39581TIP3    H219626   0.662   9.244   4.823  1.2014 -0.8140  1.3061
39582TIP3   OH219627   1.000   5.847   5.951 -0.0481  0.5179 -0.1062
39582TIP3    H119628   0.982   5.818   5.861  1.4997  0.2561 -0.3602
39582TIP3    H219629   0.982   5.770   6.004  1.7678 -0.2467 -0.5275
39583TIP3   OH219630   4.362   9.201   9.373  0.1314  0.3931  0.1752
39583TIP3    H119631   4.377   9.223   9.281  0.4372  1.2731  0.4233
39583TIP3    H219632   4.449   9.181   9.407 -0.1604 -1.5944 -0.1123
39584TIP3   OH219633  10.120   4.642   6.847  0.4797 -0.2172  0.0817
39584TIP3    H119634  10.035   4.649   6.805 -0.4801 -0.6376  1.8536
39584TIP3    H219635  10.177   4.702   6.798 -1.5275  2.1995  0.5193
39585TIP3   OH219636   5.627   8.202   0.837  0.0695  0.2471  0.0152
39585TIP3    H119637   5.723   8.198   0.837  0.2024  2.1876  1.0025
39585TIP3    H219638   5.607   8.294   0.852 -1.9643 -0.2740  0.8341
39586TIP3   OH219639   3.015   5.845   6.638  0.0064 -0.1291  0.0497
39586TIP3    H119640   2.957   5.797   6.697  1.5401 -3.6253 -1.0149
39586TIP3    H219641   3.094   5.790   6.632  1.2049  1.6683 -2.7521
39587TIP3   OH219642   9.657   0.394   7.952 -0.2156  0.3586 -0.1005
39587TIP3    H119643   9.725   0.441   7.904 -0.6548  1.1066 -0.0052
39587TIP3    H219644   9.592   0.461   7.973  0.3325  0.2439  2.2187
39588TIP3   OH219645   8.848   8.190   7.710 -0.0837  0.1676  0.1606
39588TIP3    H119646   8.869   8.163   7.800  1.2939 -0.4859 -0.3241
39588TIP3    H219647   8.759   8.222   7.715  0.2707  1.0070  1.9604
39589TIP3   OH219648   5.266  10.560   9.153  0.1647 -0.1561  0.2115
39589TIP3    H119649   5.223  10.565   9.239  0.8003  0.7113  0.4912
39589TIP3    H219650   5.312  10.477   9.155  1.5126  0.5755  1.3769
39590TIP3   OH219651   7.136   7.934   4.264  0.3253  0.0737 -0.1623
39590TIP3    H119652   7.067   7.959   4.202 -0.7503 -1.2160  0.4544
39590TIP3    H219653   7.204   8.000   4.252 -1.1023  1.5344 -0.6507
39591TIP3   OH219654   3.251   8.336   3.754 -0.1906 -0.2045  0.3342
39591TIP3    H119655   3.267   8.427   3.779  0.3490  0.1722 -1.2625
39591TIP3    H219656   3.225   8.293   3.836  0.5325  1.1496  1.3215
39592TIP3   OH219657   0.223   0.381   9.613  0.1164 -0.1316  0.0673
39592TIP3    H119658   0.272   0.320   9.669  0.3603  0.0334  0.0360
39592TIP3    H219659   0.270   0.379   9.529 -0.4046 -0.5786 -0.2223
39593TIP3   OH219660   0.585   6.548   3.211  0.3205 -0.4810  0.3008
39593TIP3    H119661   0.628   6.464   3.229  0.5880 -0.6557 -1.0495
39593TIP3    H219662   0.646   6.594   3.153 -0.4356  0.0762 -0.0688
39594TIP3   OH219663   7.829   6.253   4.898  0.6505  0.3373 -0.0608
39594TIP3    H119664   7.772   6.234   4.823  1.0554  0.8802 -0.5110
39594TIP3    H219665   7.890   6.179   4.901  2.8433  1.9000 -2.4009
39595TIP3   OH219666   3.149   7.247   8.052  0.1073  0.3499  0.3561
39595TIP3    H119667   3.158   7.209   7.965 -0.3056  2.0859 -0.4995
39595TIP3    H219668   3.238   7.272   8.077  0.1463  0.4463  0.1281
39596TIP3   OH219669   3.812   1.732   6.676  0.3612 -0.4389  0.5788
39596TIP3    H119670   3.763   1.811   6.653  1.5398 -0.2709 -1.6707
39596TIP3    H219671   3.859   1.756   6.756  0.7083  1.1682 -0.0693
39597TIP3   OH219672   5.524  10.825   6.498 -0.1866 -0.5618 -0.7318
39597TIP3    H119673   5.592  10.887   6.524  0.9162 -2.7086  2.0318
39597TIP3    H219674   5.449  10.880   6.474  0.7630  1.8510  1.4042
39598TIP3   OH219675   8.334  10.574   6.293  0.1687  1.0364 -0.0540
39598TIP3    H119676   8.389  10.551   6.218 -0.5284  2.9436 -1.2359
39598TIP3    H219677   8.339  10.499   6.352  1.2269 -0.2665 -1.7426
39599TIP3   OH219678   3.243  10.045   7.621 -0.6883 -0.3134 -0.0413
39599TIP3    H119679   3.229   9.951   7.635 -0.7793 -0.2696  0.1529
39599TIP3    H219680   3.172  10.071   7.562 -0.3195 -0.4904 -0.5812
39600TIP3   OH219681  10.755   5.006   3.024  0.6063  0.5469 -0.4447
39600TIP3    H119682  10.680   5.062   3.046  0.9613  0.6189  0.6424
39600TIP3    H219683  10.825   5.066   3.001  0.5692  0.5033 -0.6733
39601TIP3   OH219684   6.853   8.518   8.550 -0.3828  0.6891 -0.2587
39601TIP3    H119685   6.888   8.537   8.637  0.2334  0.3301 -0.4209
39601TIP3    H219686   6.931   8.506   8.495 -0.7660  0.2948 -0.7253
39602TIP3   OH219687   0.235   6.554   7.098  0.4223  0.8314 -0.0401
39602TIP3    H119688   0.232   6.634   7.150 -2.8036  0.7982  0.0240
39602TIP3    H219689   0.309   6.566   7.038  1.1403  3.0114  1.1935
39603TIP3   OH219690   2.882   5.391   9.671 -0.0373  0.4781 -0.2792
39603TIP3    H119691   2.880   5.326   9.741  0.2881  0.8751  0.1099
39603TIP3    H219692   2.962   5.441   9.688  0.5522 -0.0247 -1.4880
39604TIP3   OH219693   9.683   3.153  10.776  0.2281  0.0774 -0.3428
39604TIP3    H119694   9.681   3.186  10.866 -0.6529  0.7645 -0.6137
39604TIP3    H219695   9.712   3.227  10.724 -0.1642 -0.0516 -0.7446
39605TIP3   OH219696   5.909   7.462   5.591  0.0522  0.0047  0.2093
39605TIP3    H119697   5.933   7.485   5.681 -1.3153  0.6369  0.4277
39605TIP3    H219698   5.814   7.451   5.593 -0.0485  0.4002 -1.2355
39606TIP3   OH219699   0.969   5.815   0.062 -0.0147  0.3081 -0.1904
39606TIP3    H119700   0.886   5.769   0.055 -0.3351  0.5103  1.7784
39606TIP3    H219701   1.025   5.758   0.115  0.6606  0.7498 -0.3983
39607TIP3   OH219702  10.213   9.595   3.639 -0.1576  0.6184 -0.8788
39607TIP3    H119703  10.157   9.531   3.683  0.6634  0.7150  0.3502
39607TIP3    H219704  10.195   9.678   3.683  0.3146  0.8245 -1.0623
39608TIP3   OH219705   4.128   3.685   4.070 -0.1549  0.0675  0.0436
39608TIP3    H119706   4.128   3.601   4.025  0.7431 -0.3733  0.8404
39608TIP3    H219707   4.102   3.748   4.003 -1.2407 -0.8869 -0.4619
39609TIP3   OH219708   9.574   7.657   9.758  0.4737 -0.5474 -0.3168
39609TIP3    H119709   9.558   7.640   9.851  1.4767 -2.2360 -0.4098
39609TIP3    H219710   9.503   7.611   9.713 -0.6037  1.1055 -0.4051
39610TIP3   OH219711   3.862   0.219   1.796 -0.1915  0.3475  0.2490
39610TIP3    H119712   3.942   0.270   1.778  0.7929 -1.4629 -0.7572
39610TIP3    H219713   3.878   0.181   1.882  1.4086 -2.3073 -1.0857
39611TIP3   OH219714   8.798   4.646   3.285 -0.2730  0.6358  0.5823
39611TIP3    H119715   8.861   4.612   3.349  0.8394 -1.2889 -1.4364
39611TIP3    H219716   8.803   4.741   3.297  3.1209  0.6052  0.4772
39612TIP3   OH219717   0.743   0.021   3.692  0.5127 -0.1968 -0.6845
39612TIP3    H119718   0.711   0.102   3.652 -2.1355 -0.8928 -0.1683
39612TIP3    H219719   0.781   0.049   3.775  0.1120  0.5956 -0.7535
39613TIP3   OH219720   9.659   0.330   5.666 -0.3119 -0.4094  0.2423
39613TIP3    H119721   9.588   0.289   5.617  0.1101  2.0183 -2.6899
39613TIP3    H219722   9.616   0.387   5.729 -1.1121  1.5532 -1.9491
39614TIP3   OH219723   4.205   1.186   6.200  0.7676 -0.4288  0.3861
39614TIP3    H119724   4.275   1.167   6.262 -0.1818 -0.4109  1.5141
39614TIP3    H219725   4.249   1.219   6.122  1.9330  0.9925  1.5808
39615TIP3   OH219726   8.149   7.653   7.967 -0.0881 -0.7109  0.3687
39615TIP3    H119727   8.135   7.666   8.061  1.3563 -2.1131  0.8155
39615TIP3    H219728   8.244   7.651   7.957 -0.0939  2.2129 -1.5678
39616TIP3   OH219729   8.731   1.631   8.236  0.0549 -0.0440 -0.6601
39616TIP3    H119730   8.664   1.563   8.250  0.0789 -0.2235 -1.3757
39616TIP3    H219731   8.683   1.713   8.246  0.0117 -0.1554  0.1573
39617TIP3   OH219732   4.740   7.966   8.009  0.1025 -0.1498  0.0649
39617TIP3    H119733   4.820   8.017   7.999  0.8898 -0.9659  1.7495
39617TIP3    H219734   4.669   8.028   7.993  1.0589  0.9614  0.0698
39618TIP3   OH219735  10.734   0.385   5.809 -0.0317 -0.1927  0.5290
39618TIP3    H119736  10.776   0.458   5.852 -0.6728 -0.0113  0.8635
39618TIP3    H219737  10.777   0.379   5.724 -0.3030  0.8878  0.3012
39619TIP3   OH219738   4.323   8.294   4.578  0.0451  0.6918 -0.2135
39619TIP3    H119739   4.268   8.343   4.517 -1.0329  0.2595  0.3856
39619TIP3    H219740   4.303   8.202   4.559  1.2746  0.4958 -0.6271
39620TIP3   OH219741   0.917   5.720   8.822 -0.0760  0.3837  0.0881
39620TIP3    H119742   0.888   5.792   8.766 -1.3058 -0.6083 -0.5824
39620TIP3    H219743   1.010   5.708   8.799 -0.8095 -0.7727 -2.6654
39621TIP3   OH219744   3.425   9.870   4.225 -0.0185  0.3712  0.2044
39621TIP3    H119745   3.460   9.942   4.277  0.8367 -0.0194  0.1903
39621TIP3    H219746   3.464   9.880   4.139 -1.0442  0.7261 -0.2326
39622TIP3   OH219747   6.799   1.599   6.979 -0.3256  0.1116  0.0429
39622TIP3    H119748   6.855   1.540   6.929 -1.2096 -0.8171  0.1080
39622TIP3    H219749   6.717   1.551   6.989 -0.9965  1.2627  0.3011
39623TIP3   OH219750   8.277   3.640   0.739 -0.3535 -0.1026  0.3709
39623TIP3    H119751   8.272   3.614   0.831  0.9780  1.3643  0.9100
39623TIP3    H219752   8.370   3.633   0.718 -0.7143 -0.9666 -1.0666
39624TIP3   OH219753   1.817   3.989   9.691 -0.1223  0.4469 -0.3201
39624TIP3    H119754   1.890   4.051   9.682 -0.7393  0.9482 -2.2744
39624TIP3    H219755   1.842   3.933   9.765  2.2857  0.5405 -0.9888
39625TIP3   OH219756   8.169   9.468   2.306 -0.6284  0.1264 -0.8430
39625TIP3    H119757   8.202   9.533   2.244 -2.0999  0.4691 -1.3269
39625TIP3    H219758   8.160   9.388   2.255 -2.3658  0.5522 -1.2600
39626TIP3   OH219759   4.560   7.511   8.026 -0.1340 -0.1207  0.1295
39626TIP3    H119760   4.540   7.485   8.116  2.0467 -2.9488 -0.0391
39626TIP3    H219761   4.571   7.428   7.980 -1.2182  1.2619 -2.8153
39627TIP3   OH219762   4.332   9.117   3.694 -0.4919 -0.3919 -0.3174
39627TIP3    H119763   4.306   9.028   3.669  0.6412 -0.2838 -2.0477
39627TIP3    H219764   4.348   9.162   3.611  0.0946  1.0925  0.5551
39628TIP3   OH219765   9.975   5.055  10.558  0.3488 -0.1950 -0.5140
39628TIP3    H119766  10.054   5.004  10.539  0.2982 -0.6256  0.4181
39628TIP3    H219767   9.985   5.134  10.505 -0.1829 -1.6800 -2.9990
39629TIP3   OH219768   5.907   5.834   9.690 -0.2943 -0.4302 -0.0041
39629TIP3    H119769   5.934   5.796   9.773  2.3065  0.1751 -0.4842
39629TIP3    H219770   5.918   5.929   9.703  0.3397 -0.3440 -1.0795
39630TIP3   OH219771   3.287   5.217   5.227 -0.8079  0.4969 -0.5982
39630TIP3    H119772   3.228   5.146   5.202  0.6229 -0.0243 -2.7216
39630TIP3    H219773   3.352   5.176   5.284 -1.8380  0.8584  0.8966
39631TIP3   OH219774   0.438  10.488   3.778 -0.0742 -0.4821  0.3661
39631TIP3    H119775   0.472  10.572   3.809  0.9414 -0.6045 -0.3625
39631TIP3    H219776   0.510  10.450   3.727 -1.3100 -0.7723 -1.2462
39632TIP3   OH219777   0.873   3.844   2.068 -0.3443  0.4186 -0.6755
39632TIP3    H119778   0.890   3.937   2.079  1.0693  0.0668  0.4231
39632TIP3    H219779   0.878   3.829   1.974 -0.2937  1.3996 -0.8324
39633TIP3   OH219780   1.828   8.133   2.140  0.2615 -0.4600  0.3073
39633TIP3    H119781   1.906   8.077   2.138 -0.7052 -1.9619  1.8223
39633TIP3    H219782   1.812   8.149   2.233  0.4558  2.3819 -0.0653
39634TIP3   OH219783   4.609   4.214   6.033 -0.1607  0.1449 -0.2099
39634TIP3    H119784   4.677   4.246   5.972  0.6365  0.2660  0.7167
39634TIP3    H219785   4.641   4.129   6.062 -0.2783  0.3182  0.4353
39635TIP3   OH219786   0.290   3.402  10.538 -0.0833 -0.2744  0.2074
39635TIP3    H119787   0.365   3.370  10.488  0.1785  0.5252  0.0694
39635TIP3    H219788   0.214   3.380  10.484 -0.0735 -2.0554  0.8363
39636TIP3   OH219789   2.597  10.455   8.436  0.4628  0.1488 -0.2166
39636TIP3    H119790   2.577  10.383   8.376  1.1294 -0.0979 -0.1512
39636TIP3    H219791   2.678  10.493   8.401 -0.5986  1.7349 -1.0424
39637TIP3   OH219792   1.851   6.032   3.706 -0.2217 -0.0867 -0.2855
39637TIP3    H119793   1.756   6.046   3.705 -0.2607 -0.3769 -0.8307
39637TIP3    H219794   1.877   6.033   3.614  0.0524 -1.6748 -0.2534
39638TIP3   OH219795   1.939   4.615   9.777  0.4056  0.0914  0.1469
39638TIP3    H119796   1.888   4.536   9.796  0.6554 -0.3612 -1.0311
39638TIP3    H219797   1.999   4.589   9.707  2.7772  0.4028  1.9231
39639TIP3   OH219798   8.393  10.405  10.680 -0.2921 -0.1551 -0.0347
39639TIP3    H119799   8.420  10.417  10.772 -1.6006  0.6682  0.2700
39639TIP3    H219800   8.462  10.448  10.630 -0.9726  1.9647  0.7277
39640TIP3   OH219801   7.138   4.500  10.442  0.1930 -0.1905  0.2866
39640TIP3    H119802   7.112   4.442  10.514  0.2339 -1.0591 -0.3823
39640TIP3    H219803   7.068   4.565  10.438  0.9944  0.8577  2.1465
39641TIP3   OH219804   9.058  10.179   3.568  0.0018 -0.2860 -0.2857
39641TIP3    H119805   8.997  10.167   3.641 -0.7743  0.0909 -0.8641
39641TIP3    H219806   9.107  10.258   3.591  1.9725 -1.8853  1.3360
39642TIP3   OH219807   3.614   1.405   8.057  0.1014 -0.0867  0.2209
39642TIP3    H119808   3.659   1.323   8.038  0.3125  0.2949 -1.0343
39642TIP3    H219809   3.683   1.463   8.091  0.1160 -0.1779  0.3470
39643TIP3   OH219810   2.150   7.706   1.782 -0.0670 -0.9027  0.4225
39643TIP3    H119811   2.071   7.748   1.747  0.3829 -1.5717 -1.4776
39643TIP3    H219812   2.221   7.765   1.758  0.0686 -0.3336  2.0733
39644TIP3   OH219813  10.308   9.146   0.970  0.2646  0.2060  0.4250
39644TIP3    H119814  10.223   9.158   1.012 -0.7406  0.3354 -1.5213
39644TIP3    H219815  10.308   9.054   0.944  0.6692  0.2400  0.3041
39645TIP3   OH219816   3.146   3.451   1.982 -0.1371 -0.0794 -1.1359
39645TIP3    H119817   3.190   3.370   1.959  0.0782  0.4389 -2.7483
39645TIP3    H219818   3.057   3.440   1.948 -0.1341  0.2987 -1.2771
39646TIP3   OH219819   9.316   4.633   1.844  0.1243 -0.0285 -0.2055
39646TIP3    H119820   9.240   4.576   1.829  0.8954 -0.9748 -0.6377
39646TIP3    H219821   9.289   4.719   1.812 -0.9319 -0.2337  0.0896
39647TIP3   OH219822   5.006   8.322   5.194  0.3579 -0.9529  0.2458
39647TIP3    H119823   4.926   8.371   5.175  1.1759  0.2756 -0.1643
39647TIP3    H219824   4.976   8.242   5.236 -1.0295 -0.0994  0.9380
39648TIP3   OH219825   2.184  10.321   0.842 -0.5010  0.6214 -0.1372
39648TIP3    H119826   2.273  10.292   0.861 -0.7113 -1.1101 -1.5292
39648TIP3    H219827   2.139  10.316   0.927  0.0374 -1.2752  0.0918
39649TIP3   OH219828  10.327   9.006   2.895 -0.1374  0.8834  0.4400
39649TIP3    H119829  10.241   9.022   2.935 -0.3459  1.3995 -0.1865
39649TIP3    H219830  10.387   8.999   2.969 -0.6572  0.9197  0.8759
39650TIP3   OH219831   0.397   8.986   0.870 -0.9271  0.0479  0.2531
39650TIP3    H119832   0.364   8.976   0.959 -0.3422  1.5937  0.6659
39650TIP3    H219833   0.355   8.915   0.821  2.5918 -4.3269  2.7501
39651TIP3   OH219834   2.950   6.439   0.949 -0.4157 -0.0594  0.3643
39651TIP3    H119835   2.896   6.509   0.987 -0.5294  0.6553 -1.0512
39651TIP3    H219836   2.968   6.469   0.860  0.0642 -1.5552 -0.0587
39652TIP3   OH219837  10.605   0.788   5.197  0.2027 -0.0134  0.2027
39652TIP3    H119838  10.631   0.858   5.137  0.7937  0.6985  1.2637
39652TIP3    H219839  10.664   0.797   5.272  0.0104 -1.3859  0.5538
39653TIP3   OH219840   3.470   5.630   7.894  0.5010  0.6002  0.9333
39653TIP3    H119841   3.448   5.721   7.913 -1.3179  0.4394 -0.1485
39653TIP3    H219842   3.388   5.582   7.911  0.8482 -0.5276 -0.3817
39654TIP3   OH219843   7.935  10.612   4.914 -0.2988 -0.6229 -0.0447
39654TIP3    H119844   7.973  10.524   4.913 -0.8820 -0.8732 -0.5758
39654TIP3    H219845   7.971  10.654   4.836  0.1639 -0.3061  0.3351
39655TIP3   OH219846   9.346   9.584   5.960 -0.1972 -0.2034  0.7063
39655TIP3    H119847   9.360   9.492   5.983  0.7720 -0.2881 -0.1196
39655TIP3    H219848   9.273   9.583   5.898  0.1168 -0.4792  0.3349
39656TIP3   OH219849   3.422   6.189   6.903  0.4985 -0.6271 -0.6474
39656TIP3    H119850   3.450   6.238   6.826  0.9814 -1.8417 -1.2623
39656TIP3    H219851   3.423   6.097   6.876 -3.1752 -0.8789 -0.4262
39657TIP3   OH219852   0.441   5.942   1.864 -0.0353  0.0781  0.6173
39657TIP3    H119853   0.432   5.939   1.959 -0.0163 -1.1633  0.5989
39657TIP3    H219854   0.530   5.910   1.847 -0.1098  0.0998  0.1780
39658TIP3   OH219855   8.092   6.308   3.015  0.5068 -0.0573 -0.3775
39658TIP3    H119856   8.129   6.261   2.940 -0.9839 -0.2844 -0.9987
39658TIP3    H219857   8.006   6.337   2.985  0.8241  1.9049  0.4578
39659TIP3   OH219858   9.813   8.554   5.674  0.2333  0.4691  0.3276
39659TIP3    H119859   9.775   8.477   5.632  1.1157 -1.4840  2.8413
39659TIP3    H219860   9.741   8.591   5.726  0.4449 -0.2687  1.1738
39660TIP3   OH219861  10.782   3.358   0.311  0.6837  0.0915 -0.2454
39660TIP3    H119862  10.767   3.374   0.404  0.7781  0.7122 -0.3365
39660TIP3    H219863  10.735   3.276   0.293  0.3795  0.1488  0.2719
39661TIP3   OH219864   8.196   1.509   8.166 -0.4902 -0.0408 -0.1319
39661TIP3    H119865   8.192   1.529   8.260 -2.1253 -0.0725 -0.1688
39661TIP3    H219866   8.218   1.416   8.162 -1.1589 -0.2186  0.2468
39662TIP3   OH219867   1.560   4.377   2.492  1.0459  0.4258 -0.3868
39662TIP3    H119868   1.575   4.461   2.536  2.4288 -0.3219  0.6479
39662TIP3    H219869   1.471   4.352   2.517  0.9466  1.1621  0.0149
39663TIP3   OH219870   8.982   7.737  10.042 -0.1320 -0.0407  0.0189
39663TIP3    H119871   9.061   7.683  10.045 -0.3106 -0.2346  1.6832
39663TIP3    H219872   8.928   7.707  10.114  0.0105  2.7205  1.4260
39664TIP3   OH219873   4.959  10.497   0.521  0.5814 -0.4914 -0.5589
39664TIP3    H119874   4.973  10.414   0.476  2.5453 -0.7416  0.4265
39664TIP3    H219875   4.896  10.544   0.465 -0.2750 -2.4482 -1.3241
39665TIP3   OH219876   9.680   0.740  10.188 -0.5999 -0.2527  0.2693
39665TIP3    H119877   9.727   0.665  10.225  0.6367  0.8402  0.9660
39665TIP3    H219878   9.658   0.794  10.263 -0.1377  0.8401 -0.3646
39666TIP3   OH219879   7.193   0.500   6.487 -0.1139 -0.2949  0.0695
39666TIP3    H119880   7.202   0.443   6.563  2.3949  1.5023  1.2651
39666TIP3    H219881   7.232   0.451   6.415  0.6590 -0.6801  0.7414
39667TIP3   OH219882   0.600   7.639   1.890  0.0465 -0.3751  0.0580
39667TIP3    H119883   0.532   7.572   1.893 -0.0426 -0.2709  0.3500
39667TIP3    H219884   0.680   7.591   1.869 -0.3084 -0.3543 -1.4742
39668TIP3   OH219885   8.428   8.559   1.204 -0.1287 -0.1331  0.0799
39668TIP3    H119886   8.462   8.479   1.164 -2.1719 -1.2926  0.4894
39668TIP3    H219887   8.406   8.616   1.129  1.0814 -0.0289 -0.2201
39669TIP3   OH219888   6.230   4.042   7.466  0.9510 -0.9374  0.7809
39669TIP3    H119889   6.283   3.997   7.400  0.0606  1.0618 -1.4316
39669TIP3    H219890   6.171   3.974   7.500  0.5837 -1.7804 -1.3941
39670TIP3   OH219891   3.789   3.521  10.604 -0.1070  0.0320 -0.1654
39670TIP3    H119892   3.838   3.444  10.633 -1.3275 -0.9760 -0.6889
39670TIP3    H219893   3.785   3.577  10.681  0.4694 -0.6012  0.3401
39671TIP3   OH219894   8.671   5.557   7.352 -0.8404 -0.1444 -0.1775
39671TIP3    H119895   8.650   5.608   7.274  0.2854 -0.0199 -0.4191
39671TIP3    H219896   8.681   5.623   7.421 -0.2491 -0.1046 -0.2953
39672TIP3   OH219897   4.952  10.511   3.547  0.2198  0.6904  0.0017
39672TIP3    H119898   4.975  10.597   3.512  1.0800 -0.4217 -2.3240
39672TIP3    H219899   4.866  10.491   3.510 -0.2689  0.7814  1.0416
39673TIP3   OH219900   8.305   3.644   8.278 -0.0724 -0.4258 -0.8167
39673TIP3    H119901   8.377   3.593   8.316 -0.4436 -2.5951 -2.8138
39673TIP3    H219902   8.348   3.721   8.239  0.5955  0.5058  1.5651
39674TIP3   OH219903   3.707   5.501   9.670  0.3032 -0.0207  0.7300
39674TIP3    H119904   3.671   5.479   9.585  3.1273 -0.9993 -0.3121
39674TIP3    H219905   3.701   5.597   9.674 -0.8383 -0.0381 -0.0610
39675TIP3   OH219906   2.066   2.385   4.514 -0.1466  0.8245  0.1293
39675TIP3    H119907   2.102   2.306   4.554  3.9466  1.6166 -1.4861
39675TIP3    H219908   2.026   2.354   4.432  0.6937  0.3016 -0.0926
39676TIP3   OH219909   9.765   1.865   0.392 -0.2427 -0.2817 -0.2144
39676TIP3    H119910   9.766   1.794   0.456  1.0155  0.0024  0.1160
39676TIP3    H219911   9.833   1.841   0.328  0.5278  0.8144  0.1513
39677TIP3   OH219912   6.478   7.774   8.158 -0.1374 -0.3241 -0.0266
39677TIP3    H119913   6.413   7.817   8.214  1.0786  1.0155  0.4127
39677TIP3    H219914   6.529   7.719   8.217 -0.7911 -1.3037 -0.3558
39678TIP3   OH219915   8.174   6.174   1.698 -0.6208  0.1617  0.2499
39678TIP3    H119916   8.243   6.233   1.726 -0.1344  0.2585 -1.0968
39678TIP3    H219917   8.213   6.087   1.701 -0.4248  0.2235 -0.5757
39679TIP3   OH219918   4.512   5.921   7.994 -0.4229 -0.4933  0.0227
39679TIP3    H119919   4.434   5.977   7.989 -1.0597 -1.2683  0.8977
39679TIP3    H219920   4.485   5.848   8.050  0.7128 -1.1493 -0.2631
39680TIP3   OH219921   7.968   0.411   3.346  0.1817  0.2956 -0.0591
39680TIP3    H119922   7.874   0.405   3.333  0.1358  2.1777 -0.9612
39680TIP3    H219923   7.995   0.485   3.290  1.8375  1.2390  1.8693
39681TIP3   OH219924   1.014   6.102   8.019 -0.3638  0.5587  0.2857
39681TIP3    H119925   1.076   6.120   8.090  1.6570  0.9286 -1.4753
39681TIP3    H219926   0.931   6.140   8.049  0.8897  2.3790  1.6600
39682TIP3   OH219927  10.733   4.333   1.648 -0.0416  0.2154  0.4282
39682TIP3    H119928  10.774   4.266   1.703 -0.2159  0.1449  0.4749
39682TIP3    H219929  10.670   4.285   1.594  2.0618 -0.1646 -1.8689
39683TIP3   OH219930   3.532   9.654   1.269  0.3554 -0.0997 -0.2683
39683TIP3    H119931   3.601   9.694   1.216  1.2619 -0.0843  0.8895
39683TIP3    H219932   3.514   9.718   1.338  0.0183 -0.6158  0.1268
39684TIP3   OH219933   8.233   7.443   4.099 -0.6209 -0.0472  0.4803
39684TIP3    H119934   8.247   7.481   4.186 -0.0576 -0.9901  0.8146
39684TIP3    H219935   8.208   7.352   4.117  1.7085 -0.9192 -0.3880
39685TIP3   OH219936   9.236   8.003   7.599  0.4081 -0.6162  0.2569
39685TIP3    H119937   9.160   8.059   7.581  1.8218  1.4976  0.5049
39685TIP3    H219938   9.282   7.998   7.516 -0.1357 -2.2095  0.0095
39686TIP3   OH219939   3.507   3.815   1.966  0.6298  0.1262 -0.6214
39686TIP3    H119940   3.466   3.754   1.905  0.7000 -0.2387 -0.3102
39686TIP3    H219941   3.457   3.804   2.047  0.7082  0.4077 -0.5335
39687TIP3   OH219942   6.433   6.392   5.898  0.1575 -0.3552  0.1118
39687TIP3    H119943   6.339   6.397   5.913  0.1191 -0.3555 -0.1226
39687TIP3    H219944   6.442   6.390   5.802  0.3663 -0.9034  0.1391
39688TIP3   OH219945   3.692  10.892   1.675 -0.1872  0.2181 -0.2297
39688TIP3    H119946   3.663  10.872   1.764 -1.3024 -0.3674 -0.7080
39688TIP3    H219947   3.629  10.847   1.619  0.0368  1.2358 -1.3242
39689TIP3   OH219948  10.322   9.884   6.976 -0.0707 -1.0141  0.2957
39689TIP3    H119949  10.315   9.789   6.974  1.5856 -1.2087  1.7256
39689TIP3    H219950  10.410   9.902   7.009  0.1358  1.0402 -1.1112
39690TIP3   OH219951   7.223   6.354  10.524  0.0882  0.3364  0.3914
39690TIP3    H119952   7.222   6.415  10.598 -0.4134  0.2984  0.4225
39690TIP3    H219953   7.179   6.276  10.556 -0.5326  0.4804 -0.0727
39691TIP3   OH219954   5.639   3.660   7.906 -0.1866  0.6298  0.3679
39691TIP3    H119955   5.588   3.595   7.954  1.2528 -0.0263  1.0806
39691TIP3    H219956   5.578   3.733   7.891 -1.3597 -0.1951  0.9979
39692TIP3   OH219957   8.530   0.448  10.275 -0.9867 -0.0701 -0.6821
39692TIP3    H119958   8.501   0.427  10.186  2.3784 -2.8418 -1.3481
39692TIP3    H219959   8.486   0.383  10.330  0.0441 -1.0438 -0.9745
39693TIP3   OH219960   8.342   2.872   9.019  0.6537  0.2718 -0.5695
39693TIP3    H119961   8.325   2.958   8.982 -1.5713  0.4701  0.7077
39693TIP3    H219962   8.269   2.818   8.989  1.0090 -0.6452  0.1577
39694TIP3   OH219963   7.499   1.900   5.407 -0.4265 -0.1372  0.2060
39694TIP3    H119964   7.429   1.963   5.388  1.0630  1.3563 -0.5605
39694TIP3    H219965   7.461   1.814   5.388 -2.0745  0.6268 -0.0647
39695TIP3   OH219966   9.088   7.710   9.750 -0.2083  0.6560  0.2603
39695TIP3    H119967   8.996   7.713   9.777 -0.4446  0.8464 -0.5452
39695TIP3    H219968   9.086   7.729   9.656  0.4934 -1.0383 -0.1307
39696TIP3   OH219969   5.585   4.407   0.587 -0.3546 -0.7453 -0.2581
39696TIP3    H119970   5.516   4.465   0.621  0.7190 -0.2730  1.2344
39696TIP3    H219971   5.588   4.426   0.493 -2.5076 -1.0909 -0.4615
39697TIP3   OH219972   8.720  10.299   3.692 -0.3229 -0.5150  0.5269
39697TIP3    H119973   8.738  10.390   3.669  1.4925 -1.4882 -2.5396
39697TIP3    H219974   8.792  10.274   3.751  0.0180 -0.3266  0.1983
39698TIP3   OH219975   9.339   7.665   5.205 -0.0679  0.0398 -0.0769
39698TIP3    H119976   9.355   7.610   5.128  3.2395 -0.8585  1.0752
39698TIP3    H219977   9.274   7.730   5.175 -0.5290 -1.5406 -2.9207
39699TIP3   OH219978   0.060   9.795   3.277 -0.1098 -0.0798 -0.0013
39699TIP3    H119979   0.079   9.742   3.200 -0.5380 -0.9230  0.4540
39699TIP3    H219980  -0.029   9.770   3.302  0.2337 -0.2894  1.1176
39700TIP3   OH219981   6.327   1.036  10.195 -0.1781 -0.0120 -0.4129
39700TIP3    H119982   6.347   1.021  10.103 -0.5514  0.1825 -0.5286
39700TIP3    H219983   6.235   1.065  10.196 -0.3973 -0.6723  0.0728
39701TIP3   OH219984  10.332   9.570   9.707  0.0812  0.1879 -0.5609
39701TIP3    H119985  10.306   9.626   9.780 -1.3568 -1.4104  0.2160
39701TIP3    H219986  10.304   9.618   9.629  0.7128  1.4480 -0.0440
39702TIP3   OH219987   5.913   6.505  10.790  0.0451  0.0959  0.1229
39702TIP3    H119988   5.880   6.489  10.702  1.0346  0.7092 -0.3737
39702TIP3    H219989   6.008   6.513  10.779  0.1200  0.8305  1.1440
39703TIP3   OH219990   4.029   4.896   3.375  0.0875 -0.3332 -0.2646
39703TIP3    H119991   4.026   4.916   3.469  0.0331 -0.2876 -0.2754
39703TIP3    H219992   4.022   4.801   3.370  1.2691 -0.4330 -0.1697
39704TIP3   OH219993   7.774   0.256   3.511  0.9013  0.1233 -0.1880
39704TIP3    H119994   7.855   0.221   3.473  0.7418  0.2162 -0.6221
39704TIP3    H219995   7.770   0.218   3.599  0.4562 -1.4142 -0.8416
39705TIP3   OH219996   9.068  10.803  10.713 -0.2022  0.2658  0.5377
39705TIP3    H119997   9.144  10.845  10.672 -0.4966 -0.6335 -1.0130
39705TIP3    H219998   9.070  10.833  10.804  2.4532 -0.3542  0.7594
39706TIP3   OH219999   0.238   7.100   5.146  0.2200 -0.2002  0.0511
39706TIP3    H120000   0.172   7.031   5.153 -0.2630  0.3287  1.0898
39706TIP3    H220001   0.217   7.146   5.065 -1.0600  0.2881  0.6195
39707TIP3   OH220002   5.072  10.829   0.788 -0.2275  0.2816 -0.1734
39707TIP3    H120003   4.979  10.811   0.801  0.4869 -2.7288  1.7529
39707TIP3    H220004   5.104  10.850   0.875  1.3487 -1.4492 -0.2827
39708TIP3   OH220005  10.127   6.219   3.207 -0.1769  0.0435  0.2246
39708TIP3    H120006  10.070   6.216   3.130 -0.5673  0.5833  0.4887
39708TIP3    H220007  10.189   6.290   3.188 -0.5352  0.4614  0.5777
39709TIP3   OH220008   4.699   0.632   3.250  0.5897 -0.3601  0.2515
39709TIP3    H120009   4.724   0.713   3.205  2.3802 -0.8257  0.3360
39709TIP3    H220010   4.773   0.573   3.237  0.6451 -0.9518  2.7381
39710TIP3   OH220011   5.680  10.581   7.149  0.1786  0.0615  0.4932
39710TIP3    H120012   5.756  10.560   7.095  0.3485  0.2944  0.6372
39710TIP3    H220013   5.686  10.521   7.224  0.0586 -0.1183  0.3580
39711TIP3   OH220014   9.934   0.988  10.305  0.1242  0.0901  0.3085
39711TIP3    H120015  10.009   0.972  10.248  0.2191  0.7974  0.2320
39711TIP3    H220016   9.875   1.043  10.254  0.1540  0.6255  0.8395
39712TIP3   OH220017   3.146   5.079   5.700  0.5697 -0.2426  0.1153
39712TIP3    H120018   3.117   5.008   5.757  2.2024 -0.8924  0.1688
39712TIP3    H220019   3.181   5.146   5.759 -0.7814  0.5659  0.0527
39713TIP3   OH220020   5.526  10.215   0.522 -0.1138 -0.4662 -0.2654
39713TIP3    H120021   5.488  10.153   0.585  0.2566 -0.4028  0.0295
39713TIP3    H220022   5.489  10.300   0.546 -0.2434 -0.4971 -0.3565
39714TIP3   OH220023   2.903   7.546   1.396 -0.3430 -0.5018  0.4373
39714TIP3    H120024   2.902   7.579   1.306 -0.2261 -1.6986 -0.0263
39714TIP3    H220025   2.994   7.557   1.424 -0.0930 -1.2598 -0.0445
39715TIP3   OH220026   7.644   6.917   2.578 -0.3017  0.2579 -0.2627
39715TIP3    H120027   7.637   6.832   2.534  1.3320  0.0004 -0.1018
39715TIP3    H220028   7.565   6.922   2.633 -0.6965 -0.9064 -0.6831
39716TIP3   OH220029   9.150   6.392   2.909 -0.4595 -0.1248  0.2375
39716TIP3    H120030   9.113   6.397   2.821  1.8028 -1.0227 -0.8332
39716TIP3    H220031   9.110   6.466   2.956 -1.0354  0.9370 -1.8007
39717TIP3   OH220032   6.899   5.768   9.614  0.7962  0.3284 -0.0297
39717TIP3    H120033   6.874   5.753   9.522  2.2318  1.6462 -0.6680
39717TIP3    H220034   6.822   5.741   9.664  0.7871 -2.6752 -1.4375
39718TIP3   OH220035   8.096  10.851   4.259  0.0755 -0.0092  0.5120
39718TIP3    H120036   8.001  10.858   4.245  0.3195  0.4766 -1.1436
39718TIP3    H220037   8.113  10.911   4.332 -0.5999  1.8982 -0.7949
39719TIP3   OH220038   1.975  10.234   4.256 -0.0280 -0.5591  0.2474
39719TIP3    H120039   1.962  10.140   4.247  0.4997 -0.7687  1.5414
39719TIP3    H220040   1.957  10.253   4.348 -2.0237  0.9394 -0.3640
39720TIP3   OH220041   7.740   4.915   2.504 -0.6745 -0.6062 -0.2608
39720TIP3    H120042   7.809   4.903   2.569  0.5352  1.5659 -1.0102
39720TIP3    H220043   7.766   4.858   2.431  0.2552  0.0468 -0.4571
39721TIP3   OH220044   4.828   7.766   6.198  0.2393  0.0500  0.4544
39721TIP3    H120045   4.863   7.766   6.109  0.1025  1.1291  0.3952
39721TIP3    H220046   4.733   7.768   6.187  0.1773 -1.1659  0.6282
39722TIP3   OH220047   1.350  10.064   7.131 -0.0118  0.0313 -0.1620
39722TIP3    H120048   1.307  10.039   7.213 -0.5896 -0.2391 -0.5395
39722TIP3    H220049   1.322  10.154   7.116  0.9351  0.4434  0.4693
39723TIP3   OH220050   6.229   8.400   9.812  0.1255  0.3397 -0.6132
39723TIP3    H120051   6.316   8.424   9.781  0.3280 -0.0101 -0.3193
39723TIP3    H220052   6.194   8.342   9.744  0.5242 -0.3352 -0.2520
39724TIP3   OH220053   1.539   9.885  10.389 -0.1398  0.2694 -0.2326
39724TIP3    H120054   1.597   9.818  10.424 -1.4907 -0.5717  0.4780
39724TIP3    H220055   1.588   9.924  10.317  1.2777 -0.4300  0.3192
39725TIP3   OH220056   9.467   7.917   8.087 -0.0662 -0.0168  0.2993
39725TIP3    H120057   9.474   7.884   7.997  1.6555 -0.3352  0.5063
39725TIP3    H220058   9.553   7.900   8.125 -0.7766  0.1017  2.0308
39726TIP3   OH220059   0.133  10.843   4.185  0.0391 -0.0909 -0.0928
39726TIP3    H120060   0.108  10.922   4.233  0.8224  0.2849 -0.2844
39726TIP3    H220061   0.057  10.822   4.131  0.4156  1.5229 -1.3262
39727TIP3   OH220062   3.435   9.664   3.899  0.0817  0.9903 -0.4848
39727TIP3    H120063   3.462   9.648   3.990  0.3994 -1.4318 -0.9281
39727TIP3    H220064   3.516   9.691   3.855  0.5870 -0.6168 -0.6033
39728TIP3   OH220065   9.413   3.570   9.805  0.4502  0.2890 -0.1341
39728TIP3    H120066   9.496   3.538   9.769  0.8571 -0.2072  1.1499
39728TIP3    H220067   9.365   3.490   9.827 -0.1446  0.5755 -0.3910
39729TIP3   OH220068   2.151   6.831   8.820 -0.3929  0.2137 -0.1523
39729TIP3    H120069   2.088   6.897   8.793 -0.5520  0.5959  1.1280
39729TIP3    H220070   2.200   6.811   8.740 -2.1773 -0.1691 -1.2012
39730TIP3   OH220071   2.441   3.683   8.704 -0.2004  0.5437  0.7592
39730TIP3    H120072   2.405   3.770   8.684  0.7013  0.9635  0.8765
39730TIP3    H220073   2.487   3.659   8.623 -0.3679  0.2148  0.7628
39731TIP3   OH220074   3.044   7.322   0.151  0.0991 -0.6427 -0.1191
39731TIP3    H120075   3.019   7.340   0.241  1.9537 -1.2462  0.5629
39731TIP3    H220076   2.981   7.257   0.120  0.1246 -1.2682  1.1170
39732TIP3   OH220077   7.909   6.571   7.384 -0.1790 -0.5657  0.0755
39732TIP3    H120078   7.924   6.482   7.417 -1.1495  0.2659  2.9979
39732TIP3    H220079   7.852   6.612   7.449  0.5513  2.3475 -0.9785
39733TIP3   OH220080   3.004   5.836   7.934 -0.2355 -0.0005 -0.1333
39733TIP3    H120081   3.063   5.768   7.965  0.6178  1.5532  1.8438
39733TIP3    H220082   2.916   5.798   7.941 -0.0118 -0.1085  3.3574
39734TIP3   OH220083   2.618   2.789   0.980 -0.1389  0.7767  0.3630
39734TIP3    H120084   2.646   2.699   0.997 -2.2394 -0.3061 -1.4674
39734TIP3    H220085   2.688   2.826   0.925 -0.5821 -0.7255 -1.2830
39735TIP3   OH220086   8.674  10.232   9.011  0.2267  0.3763  0.0546
39735TIP3    H120087   8.753  10.282   8.988 -1.0779  1.6573 -1.9519
39735TIP3    H220088   8.658  10.254   9.103  0.8424  2.0442 -0.2014
39736TIP3   OH220089   3.626   1.921   7.160 -0.4908  0.2827  0.1445
39736TIP3    H120090   3.602   1.900   7.070  1.8322 -2.5489  0.0504
39736TIP3    H220091   3.717   1.892   7.168  0.2941  2.9888  2.6730
39737TIP3   OH220092   7.087  10.152   0.691 -0.3243 -0.4433 -1.1162
39737TIP3    H120093   7.088  10.094   0.616  2.3386 -1.7861 -0.1342
39737TIP3    H220094   7.073  10.095   0.767 -0.6585  0.5854 -0.3666
39738TIP3   OH220095   1.013   8.294   0.951 -0.6333  0.0243 -0.0640
39738TIP3    H120096   1.011   8.320   0.859 -1.6951  0.5836  0.1098
39738TIP3    H220097   0.977   8.369   0.998  1.0093  0.2439  0.9452
39739TIP3   OH220098   2.844   0.417  10.659  0.1535 -0.6507  0.1289
39739TIP3    H120099   2.869   0.349  10.722 -1.5705 -0.3032  1.2694
39739TIP3    H220100   2.927   0.448  10.623  1.0433 -2.6025  0.3644
39740TIP3   OH220101   2.705   1.973   6.195  0.2075 -0.0693 -0.4628
39740TIP3    H120102   2.698   2.009   6.106  0.9146  0.3292 -0.3599
39740TIP3    H220103   2.795   1.992   6.222  0.0139 -0.2427  0.3209
39741TIP3   OH220104   2.502   4.871   3.391  0.1285  0.1000  0.0726
39741TIP3    H120105   2.471   4.790   3.351 -0.8740 -0.0945  1.1969
39741TIP3    H220106   2.431   4.897   3.450  0.7598  1.3930  0.2948
39742TIP3   OH220107  10.194   3.398   0.211  0.4212  0.5204 -0.2032
39742TIP3    H120108  10.253   3.350   0.269  0.5277  1.7270  0.7332
39742TIP3    H220109  10.124   3.336   0.191 -0.2706  0.4165  2.2236
39743TIP3   OH220110  10.156   8.399  10.194 -0.8248  0.7255 -0.1313
39743TIP3    H120111  10.131   8.450  10.117 -1.6070 -0.6474 -0.8058
39743TIP3    H220112  10.110   8.442  10.267 -4.0948 -0.8044 -1.1098
39744TIP3   OH220113   2.819   0.080   1.437 -0.3124  0.8548  0.2727
39744TIP3    H120114   2.881   0.031   1.382 -0.9256  0.7926 -0.3742
39744TIP3    H220115   2.856   0.074   1.525  1.1794  1.7189 -0.2480
39745TIP3   OH220116   4.366   6.222   0.093  0.8907 -0.5383 -0.2686
39745TIP3    H120117   4.324   6.167   0.027  0.1866 -0.1869 -0.1334
39745TIP3    H220118   4.396   6.161   0.160  2.3948 -0.9782 -1.3095
39746TIP3   OH220119   5.760   0.498   6.512 -0.4074 -0.7805  0.1450
39746TIP3    H120120   5.781   0.408   6.538 -0.8346 -0.9213  0.0193
39746TIP3    H220121   5.706   0.531   6.584  0.1422 -0.4616  0.4137
39747TIP3   OH220122   9.282   1.233  10.341 -0.0669  0.0333  0.0018
39747TIP3    H120123   9.266   1.327  10.331  1.9111  0.7385  2.3128
39747TIP3    H220124   9.356   1.228  10.402 -1.0242 -3.0701  1.0867
39748TIP3   OH220125   4.577   0.183   1.553  0.3953 -0.2921  0.2422
39748TIP3    H120126   4.636   0.107   1.557 -1.7352 -2.1907 -1.5452
39748TIP3    H220127   4.587   0.226   1.638  2.6597 -1.8001  0.8339
39749TIP3   OH220128   5.287   8.981   6.296  0.0041  0.1959  0.1386
39749TIP3    H120129   5.296   8.947   6.207 -1.6965 -0.8028  0.3144
39749TIP3    H220130   5.333   9.064   6.294 -0.1276  0.2715 -1.7174
39750TIP3   OH220131   1.619   6.829   4.689  0.5326 -0.4276  0.4122
39750TIP3    H120132   1.706   6.807   4.721  2.0509  0.3239 -2.8112
39750TIP3    H220133   1.585   6.747   4.653  0.8590 -0.2885 -0.2394
39751TIP3   OH220134   8.002   1.028   5.680 -0.2073 -0.7089 -0.1486
39751TIP3    H120135   7.931   1.093   5.680  0.4460  0.0170  0.5487
39751TIP3    H220136   7.984   0.974   5.756  0.6020  0.1844  0.7048
39752TIP3   OH220137   4.705   8.852   8.542  0.4070 -0.1183  0.3682
39752TIP3    H120138   4.733   8.774   8.496  0.5587 -0.2364  0.6655
39752TIP3    H220139   4.609   8.846   8.542  0.4084 -0.1705  0.1674
39753TIP3   OH220140   2.734   0.918   5.441 -0.2451  0.0642 -0.2781
39753TIP3    H120141   2.674   0.885   5.508 -2.4050 -0.3581 -2.2818
39753TIP3    H220142   2.725   1.014   5.447 -0.2070  0.0393  0.2095
39754TIP3   OH220143   0.827   3.846   1.317 -0.6423  0.5625  0.6816
39754TIP3    H120144   0.759   3.860   1.382 -3.2637  0.6343 -1.8432
39754TIP3    H220145   0.807   3.910   1.248 -0.8358 -2.3482 -2.1967
39755TIP3   OH220146   1.766  10.634   0.487 -0.3647  0.3050  0.0130
39755TIP3    H120147   1.727  10.563   0.437  0.7032  0.6420 -1.3636
39755TIP3    H220148   1.746  10.713   0.437 -0.9714  0.9112  1.1763
39756TIP3   OH220149   0.447  10.151   7.945  0.2220 -0.3120 -0.1348
39756TIP3    H120150   0.431  10.234   7.989 -0.6653 -0.7707  0.4305
39756TIP3    H220151   0.379  10.092   7.978  1.0742 -1.3840 -0.2140
39757TIP3   OH220152   1.853   4.535  10.672 -0.7508 -0.2290  0.1376
39757TIP3    H120153   1.933   4.536  10.725  0.3586  0.7643 -1.4778
39757TIP3    H220154   1.879   4.491  10.591 -1.3132  1.6601 -1.1343
39758TIP3   OH220155   4.293   9.695   0.718  0.5323  0.2921  0.3135
39758TIP3    H120156   4.306   9.728   0.807 -1.8135 -0.1158  0.8760
39758TIP3    H220157   4.303   9.771   0.662  2.4538  0.4764  0.8400
39759TIP3   OH220158   8.083   4.819   6.174 -0.7475  0.6173  0.3658
39759TIP3    H120159   8.018   4.750   6.189 -0.7277  0.7413  1.0543
39759TIP3    H220160   8.076   4.838   6.080  1.3118 -2.4044 -0.5524
39760TIP3   OH220161   1.319   6.620   8.798 -0.0854 -0.1102  0.0198
39760TIP3    H120162   1.343   6.556   8.865  0.3735  0.4668  0.4188
39760TIP3    H220163   1.349   6.704   8.833  0.3101  0.1808 -0.9873
39761TIP3   OH220164   9.786  10.886   6.125 -0.0029  0.1981 -0.0505
39761TIP3    H120165   9.866  10.850   6.086  0.9511  0.5612  1.4961
39761TIP3    H220166   9.784  10.977   6.097  0.5965  0.4170  0.6048
39762TIP3   OH220167   4.727   0.496   2.872 -0.5956  0.5081 -0.3947
39762TIP3    H120168   4.788   0.546   2.926 -0.9276 -0.8085  1.2683
39762TIP3    H220169   4.781   0.433   2.825 -0.3878  1.2019 -1.1146
39763TIP3   OH220170   7.047   4.105   9.025 -0.5936  0.5313  0.1991
39763TIP3    H120171   7.087   4.171   9.082 -1.5430 -0.0760  1.6253
39763TIP3    H220172   7.121   4.067   8.977 -0.0097  2.4622 -0.5074
39764TIP3   OH220173   2.701   6.047   2.008 -0.9568 -0.1713 -0.2994
39764TIP3    H120174   2.774   6.101   1.977 -0.9492  0.3117  0.5434
39764TIP3    H220175   2.728   5.957   1.988  0.7892 -0.1765  1.7849
39765TIP3   OH220176  10.254   8.566   9.488  0.1543  0.0650 -0.8366
39765TIP3    H120177  10.162   8.569   9.514  0.3222 -0.5417 -0.1318
39765TIP3    H220178  10.302   8.580   9.570  0.7197  3.1394 -1.5673
39766TIP3   OH220179   1.336   5.635   7.646 -0.1275 -0.2836  0.9547
39766TIP3    H120180   1.421   5.634   7.689 -0.4322 -1.8084  1.5871
39766TIP3    H220181   1.353   5.674   7.560  0.8758  0.9066  1.6598
39767TIP3   OH220182   3.630   6.875   9.927 -0.1135  0.2508  0.3500
39767TIP3    H120183   3.692   6.858   9.856  0.1737 -1.3021  0.9512
39767TIP3    H220184   3.628   6.971   9.934 -1.4207  0.5755 -2.8655
39768TIP3   OH220185   9.288   9.466   8.627  0.0918 -0.1715 -0.5224
39768TIP3    H120186   9.246   9.449   8.542 -0.7408 -1.9113  0.1903
39768TIP3    H220187   9.367   9.412   8.626  1.8172  2.1839 -1.3714
39769TIP3   OH220188   7.167   5.299   7.654  0.0323 -0.3844 -0.0127
39769TIP3    H120189   7.141   5.281   7.744  0.6353 -2.7393 -0.2352
39769TIP3    H220190   7.260   5.321   7.659  0.1543 -0.8684 -0.0740
39770TIP3   OH220191   3.524   2.831   2.362  0.1225 -0.0862  0.6723
39770TIP3    H120192   3.487   2.853   2.276 -3.5486  2.0535  2.5510
39770TIP3    H220193   3.499   2.739   2.376 -2.6975  0.5934  0.8363
39771TIP3   OH220194   9.797   8.914   8.572 -0.1757  0.4084  0.0647
39771TIP3    H120195   9.787   8.908   8.477  0.2400  0.9829 -0.0225
39771TIP3    H220196   9.890   8.897   8.588  0.0991  1.8659  0.2044
39772TIP3   OH220197   3.192   3.765   1.605 -0.3655  0.2723 -0.0073
39772TIP3    H120198   3.144   3.747   1.685  0.8147 -2.1319  0.2551
39772TIP3    H220199   3.161   3.698   1.543  1.6124 -0.5029 -0.2295
39773TIP3   OH220200   6.806   7.751   1.122  0.6162 -0.3690 -0.0293
39773TIP3    H120201   6.764   7.817   1.178  2.3310  0.4182  0.3949
39773TIP3    H220202   6.784   7.667   1.163 -1.6363 -0.1311 -0.5967
39774TIP3   OH220203   1.978   3.943   3.882 -0.8835 -0.5001 -0.3265
39774TIP3    H120204   1.956   3.935   3.789 -2.5074  1.7477 -0.2343
39774TIP3    H220205   2.066   3.981   3.882 -0.1612 -2.1054 -0.8836
39775TIP3   OH220206   5.285   0.682   9.450 -0.2338 -0.0910  0.2155
39775TIP3    H120207   5.246   0.641   9.373  0.5053 -1.3336  0.4706
39775TIP3    H220208   5.379   0.668   9.440  0.1059  2.0114  0.0880
39776TIP3   OH220209  10.228   7.924   0.237 -0.2446  0.2566 -0.7576
39776TIP3    H120210  10.310   7.947   0.280 -0.3493  1.1138 -0.9831
39776TIP3    H220211  10.172   8.001   0.250 -0.9820 -0.2814 -0.6797
39777TIP3   OH220212   4.364  10.498  10.599  0.2428  0.3468  0.6848
39777TIP3    H120213   4.298  10.541  10.546  0.2883 -2.1474 -1.6200
39777TIP3    H220214   4.314  10.455  10.669 -0.0670  1.7412  1.3603
39778TIP3   OH220215   6.618   3.453   1.438 -0.2412 -0.4802 -0.0564
39778TIP3    H120216   6.549   3.514   1.465  1.2184  0.0833  2.7749
39778TIP3    H220217   6.699   3.504   1.442  0.6021 -1.5753 -1.6477
39779TIP3   OH220218   3.787   7.081   2.217  0.0211 -0.1176 -0.0937
39779TIP3    H120219   3.706   7.033   2.200  0.0189 -0.2047  0.1603
39779TIP3    H220220   3.856   7.025   2.180 -0.0306 -0.0540 -0.2900
39780TIP3   OH220221   2.912  10.664   8.045  0.1310 -0.1722 -0.2617
39780TIP3    H120222   2.839  10.673   7.985  0.2039 -0.7032 -0.4268
39780TIP3    H220223   2.979  10.723   8.011 -0.5129  0.9486  0.3483
39781TIP3   OH220224   5.279   7.129   9.486 -0.7890  0.0681  0.3139
39781TIP3    H120225   5.315   7.208   9.527  1.2920 -0.5889 -0.1158
39781TIP3    H220226   5.349   7.098   9.428 -1.8869 -1.6047 -0.1922
39782TIP3   OH220227   5.648   0.934   5.335 -0.4958  0.1153 -0.4712
39782TIP3    H120228   5.583   0.864   5.337  0.6721 -1.0542 -1.3520
39782TIP3    H220229   5.622   0.993   5.405 -2.4546 -0.3329 -0.7645
39783TIP3   OH220230   6.036   0.528   1.543 -0.1410 -0.4956 -0.4538
39783TIP3    H120231   6.026   0.545   1.449 -1.0397  1.9854  0.0032
39783TIP3    H220232   5.947   0.523   1.577  0.1703 -1.4479  0.2818
39784TIP3   OH220233   1.149   0.937  10.739  0.0148  0.6873  0.3618
39784TIP3    H120234   1.155   1.026  10.704 -1.4309  0.4306 -0.6368
39784TIP3    H220235   1.055   0.925  10.758  0.2504 -0.4843  0.8650
39785TIP3   OH220236   3.605   0.026   7.555 -0.6497  0.6199 -0.1510
39785TIP3    H120237   3.515   0.038   7.526 -0.6094  0.1949 -0.4507
39785TIP3    H220238   3.658   0.062   7.483 -0.5233 -1.2828 -1.0717
39786TIP3   OH220239  10.110   4.592  10.499  0.2777  0.1888  0.4528
39786TIP3    H120240  10.082   4.555  10.415 -0.4585 -0.9794  1.1900
39786TIP3    H220241  10.197   4.555  10.513 -0.8721 -2.2555  1.6964
39787TIP3   OH220242   7.468   4.730   7.967 -0.2772  0.1685 -0.0402
39787TIP3    H120243   7.393   4.761   8.018  0.0381  0.9187 -0.0218
39787TIP3    H220244   7.505   4.810   7.928  0.5300 -0.1897 -0.0230
39788TIP3   OH220245   0.017   5.454   1.952  0.0946  0.2302  0.0207
39788TIP3    H120246   0.101   5.491   1.978  0.2318  0.4265 -0.6620
39788TIP3    H220247   0.040   5.372   1.908 -0.1446 -0.2183  0.7214
39789TIP3   OH220248   8.929  10.654   0.607 -0.2391  0.4744 -0.4652
39789TIP3    H120249   8.896  10.739   0.577  0.7411  0.8080 -0.6353
39789TIP3    H220250   9.005  10.675   0.661 -0.2573 -0.2796 -0.1251
39790TIP3   OH220251   6.790   1.076   3.642 -0.6323  0.2311 -0.7559
39790TIP3    H120252   6.736   1.010   3.686 -0.8893  0.3182 -0.9395
39790TIP3    H220253   6.847   1.025   3.585 -0.9638  0.1743 -1.0441
39791TIP3   OH220254   4.167   2.158   4.116 -0.0156  0.1425  0.0627
39791TIP3    H120255   4.204   2.108   4.190  0.3156  1.1106  0.5701
39791TIP3    H220256   4.082   2.117   4.100  0.8946 -1.5965 -0.5740
39792TIP3   OH220257   7.173   7.037   1.541 -0.7136 -0.5362 -0.5244
39792TIP3    H120258   7.235   6.972   1.507  0.5533  0.7927 -0.8537
39792TIP3    H220259   7.150   7.004   1.628  1.4919 -0.4654  0.1709
39793TIP3   OH220260   3.123   8.053   0.600  0.0394  0.4619  0.1501
39793TIP3    H120261   3.153   8.012   0.519  0.4554  1.1044 -0.0310
39793TIP3    H220262   3.151   8.144   0.592 -2.1444  1.1769 -0.1431
39794TIP3   OH220263   6.857   2.965   9.377  0.2604  0.2017 -0.0536
39794TIP3    H120264   6.891   2.977   9.465  0.2048  0.1488 -0.0248
39794TIP3    H220265   6.894   3.037   9.327  1.9204 -0.8795 -0.4749
39795TIP3   OH220266   5.704   1.139   5.179  0.4885 -0.6117 -0.3849
39795TIP3    H120267   5.676   1.108   5.093 -1.7118 -1.2664  0.4872
39795TIP3    H220268   5.692   1.063   5.236  0.3852  0.2505  0.7719
39796TIP3   OH220269   2.676  10.030   9.737 -0.1203  0.0587 -0.0328
39796TIP3    H120270   2.716  10.064   9.817 -1.1017  1.8756 -0.2510
39796TIP3    H220271   2.583  10.026   9.758 -0.1161 -2.0717 -0.2282
39797TIP3   OH220272   9.168   0.870   4.691  0.1981 -0.0950  0.0979
39797TIP3    H120273   9.137   0.957   4.714 -1.7591 -0.4171 -1.0932
39797TIP3    H220274   9.104   0.810   4.729  0.2081 -0.8808 -1.0505
39798TIP3   OH220275   0.961   7.076  10.747 -0.0507 -1.2189 -0.5829
39798TIP3    H120276   0.972   6.997  10.800 -2.3500  1.0828  3.8655
39798TIP3    H220277   0.876   7.112  10.775  1.0177  3.0091 -2.0369
39799TIP3   OH220278   4.177   8.896   3.564 -0.5758 -0.2003  0.0384
39799TIP3    H120279   4.113   8.905   3.634 -0.9972 -1.0820 -0.2056
39799TIP3    H220280   4.136   8.938   3.488 -0.5045 -0.0322  0.0927
39800TIP3   OH220281   8.897  10.607   7.984  0.2921 -0.0647 -0.2258
39800TIP3    H120282   8.954  10.682   7.996  0.9478 -0.3832 -1.2217
39800TIP3    H220283   8.896  10.592   7.889  1.2163 -2.0741  0.0323
39801TIP3   OH220284   9.249   8.340   9.009  0.2631  0.1704 -0.0602
39801TIP3    H120285   9.230   8.395   9.084  1.1922  1.9673 -1.0888
39801TIP3    H220286   9.269   8.401   8.938  1.4429 -1.4777 -1.2255
39802TIP3   OH220287   1.848   6.732   3.096  0.7781 -0.1877 -0.1838
39802TIP3    H120288   1.870   6.674   3.168  1.1990 -0.3892 -0.4717
39802TIP3    H220289   1.910   6.710   3.027  0.7864  0.4348 -0.3862
39803TIP3   OH220290   3.271   8.453   9.919 -0.0152  0.0357  0.2437
39803TIP3    H120291   3.183   8.416   9.923 -0.5271  0.6731 -2.6661
39803TIP3    H220292   3.324   8.394   9.973 -1.7569 -1.9276 -0.0373
39804TIP3   OH220293   9.748   4.614   7.403 -0.6527  0.1468  0.5059
39804TIP3    H120294   9.709   4.648   7.483  0.3579  2.8628 -0.0466
39804TIP3    H220295   9.683   4.631   7.335 -0.6898 -0.3329  0.4146
39805TIP3   OH220296   8.653   1.524   4.539 -0.4633  0.3516  0.1925
39805TIP3    H120297   8.638   1.503   4.447  1.0419  0.1918 -0.0412
39805TIP3    H220298   8.709   1.453   4.571  1.0134  1.6096  0.5653
39806TIP3   OH220299   9.404   6.200   5.834 -0.2224  0.4023 -0.2035
39806TIP3    H120300   9.404   6.128   5.896  1.2898  0.3864 -0.1962
39806TIP3    H220301   9.435   6.162   5.752  1.0122  1.0985 -0.0886
39807TIP3   OH220302   5.990   1.201   3.824 -0.2849 -0.0691  0.2898
39807TIP3    H120303   6.006   1.292   3.851  1.7960 -0.6257  1.1719
39807TIP3    H220304   6.032   1.194   3.738 -2.6333  0.4026 -0.9719
39808TIP3   OH220305   3.061   7.205   1.384  0.0366 -0.2694 -0.2789
39808TIP3    H120306   3.017   7.263   1.447 -0.7369 -0.6559 -0.4480
39808TIP3    H220307   2.993   7.185   1.319  0.4052 -1.0686 -0.4243
39809TIP3   OH220308   6.828   0.319   1.992 -0.0525 -0.2006 -0.1287
39809TIP3    H120309   6.896   0.300   2.057 -0.6872 -2.8906 -0.1686
39809TIP3    H220310   6.827   0.415   1.987  2.0241 -0.0005  1.6580
39810TIP3   OH220311   7.885   2.431   4.623  1.0541 -0.1350  0.1074
39810TIP3    H120312   7.885   2.492   4.697  0.8641  1.7942 -1.3706
39810TIP3    H220313   7.977   2.422   4.599  0.9687  1.4102 -1.0024
39811TIP3   OH220314   8.432   1.697   6.310 -0.4625 -0.6660 -0.6049
39811TIP3    H120315   8.340   1.682   6.330 -0.3242 -1.3450 -0.4317
39811TIP3    H220316   8.453   1.630   6.244  0.3307 -1.6430  0.5844
39812TIP3   OH220317   3.438   3.602   1.680  0.7943  0.0539 -0.6068
39812TIP3    H120318   3.352   3.643   1.670  1.1843  1.5456  1.4839
39812TIP3    H220319   3.496   3.653   1.623  0.5182 -0.2975 -1.2177
39813TIP3   OH220320   3.783   1.234   7.271 -0.4227  0.1942  0.1296
39813TIP3    H120321   3.708   1.283   7.304 -1.8895 -1.0802 -1.1219
39813TIP3    H220322   3.803   1.276   7.187  0.3955  0.6278  0.5305
39814TIP3   OH220323   7.233  10.040   7.842  0.1237 -1.0254  0.1753
39814TIP3    H120324   7.325  10.053   7.820 -0.0775 -2.2893 -1.6438
39814TIP3    H220325   7.220   9.946   7.837 -1.3873 -0.8284 -0.1826
39815TIP3   OH220326  10.464   8.724   6.335 -0.0175  0.6886 -0.1538
39815TIP3    H120327  10.406   8.790   6.375  2.3948  1.5635  2.1999
39815TIP3    H220328  10.543   8.772   6.313  1.6291 -1.2763  1.1294
39816TIP3   OH220329  10.100   1.246   8.988 -0.0267  0.1704 -0.2469
39816TIP3    H120330  10.044   1.322   8.976  0.4948  0.3495 -1.7630
39816TIP3    H220331  10.155   1.268   9.063 -3.7173 -1.1371  3.2244
39817TIP3   OH220332   0.473   3.932   7.783  0.0718  0.7027 -0.0435
39817TIP3    H120333   0.500   4.023   7.771  0.0642  0.6082 -0.8183
39817TIP3    H220334   0.459   3.923   7.877  1.4647  1.1122  0.2149
39818TIP3   OH220335  10.021   3.524   0.702  0.0710  0.3989  0.3592
39818TIP3    H120336   9.983   3.531   0.789  1.0462 -1.5634  0.9838
39818TIP3    H220337  10.116   3.521   0.717  0.2682  0.3482 -0.8025
39819TIP3   OH220338   4.243   9.727   2.688  0.1975  0.6170 -0.5782
39819TIP3    H120339   4.148   9.716   2.686  0.3254 -0.5658 -1.2524
39819TIP3    H220340   4.271   9.708   2.598  0.9321  2.4115 -0.7542
39820TIP3   OH220341   9.699   4.812   3.359 -0.5123 -0.0668 -0.1164
39820TIP3    H120342   9.637   4.880   3.332 -0.6069 -0.4616 -0.9303
39820TIP3    H220343   9.781   4.837   3.315 -0.4784 -0.3263 -0.2047
39821TIP3   OH220344   0.514   5.068   7.943  0.0172 -0.1343  0.6704
39821TIP3    H120345   0.548   4.987   7.905  0.9022  0.1060  0.9269
39821TIP3    H220346   0.448   5.039   8.006 -2.3942 -0.5136 -1.8222
39822TIP3   OH220347   1.280   8.765   3.132 -0.7916 -0.0015 -0.2865
39822TIP3    H120348   1.201   8.786   3.183  0.4527  2.7577  0.7487
39822TIP3    H220349   1.292   8.671   3.143 -3.1016 -0.2333  0.7578
39823TIP3   OH220350   2.435   8.433   6.414  0.7220 -0.3035  0.0487
39823TIP3    H120351   2.504   8.375   6.385  0.0732 -0.7784 -0.5695
39823TIP3    H220352   2.375   8.377   6.464 -0.4707 -0.4293 -1.4462
39824TIP3   OH220353   0.887   3.401   6.886 -0.7610 -0.4276  0.2071
39824TIP3    H120354   0.875   3.324   6.942 -1.6097 -0.1087  0.4854
39824TIP3    H220355   0.899   3.473   6.948  1.7560 -0.5438 -0.0386
39825TIP3   OH220356   4.865   9.227   9.692  0.4126 -0.5427  1.1400
39825TIP3    H120357   4.805   9.297   9.717 -0.3302 -1.3120  1.5678
39825TIP3    H220358   4.936   9.232   9.756  1.1135  0.7175  0.3042
39826TIP3   OH220359   6.190   4.679  10.749  0.1646  0.3210  0.4609
39826TIP3    H120360   6.258   4.669  10.816 -0.6527 -1.3065  1.0958
39826TIP3    H220361   6.193   4.597  10.700 -0.8646  0.5244  0.0440
39827TIP3   OH220362   0.491   7.333   6.901  0.1734 -0.3542  1.0924
39827TIP3    H120363   0.437   7.328   6.979  0.0678  1.4952  1.1970
39827TIP3    H220364   0.487   7.426   6.875  0.5687 -0.8230 -0.8351
39828TIP3   OH220365  10.722   9.540   4.018  0.0440  0.5318  0.2007
39828TIP3    H120366  10.752   9.453   4.046 -2.7755 -0.2792  1.0227
39828TIP3    H220367  10.720   9.592   4.099 -0.4511  0.6425  0.1218
39829TIP3   OH220368   6.031   3.195   9.829  0.5799 -0.0252 -0.3607
39829TIP3    H120369   6.086   3.172   9.754  1.6358 -0.0820  0.3979
39829TIP3    H220370   6.011   3.111   9.871  0.0330  0.0086 -0.5533
39830TIP3   OH220371   8.364   1.311   2.121 -0.1380 -0.3694 -0.1269
39830TIP3    H120372   8.399   1.257   2.192  3.7308  1.4400 -0.4260
39830TIP3    H220373   8.402   1.273   2.042  0.7969  1.3193 -0.5371
39831TIP3   OH220374   3.428   1.032   5.618 -0.1473  0.2042  0.3704
39831TIP3    H120375   3.503   1.088   5.640 -1.1563  1.8395 -0.1613
39831TIP3    H220376   3.421   1.038   5.523 -0.7620 -0.1757  0.3869
39832TIP3   OH220377   1.718   5.852   8.704 -0.1250  0.4316  0.2014
39832TIP3    H120378   1.711   5.943   8.675 -1.9186 -0.2835 -1.9626
39832TIP3    H220379   1.809   5.828   8.687 -0.1324  1.2657 -1.1503
39833TIP3   OH220380   9.537   0.912   6.052 -0.6024 -0.1109  0.0892
39833TIP3    H120381   9.516   0.937   5.962 -2.2964  0.5530  0.6438
39833TIP3    H220382   9.483   0.835   6.068  0.1806 -0.6200  0.3516
39834TIP3   OH220383   8.282   8.143   5.651 -0.0285  0.1895 -0.1468
39834TIP3    H120384   8.319   8.113   5.568  1.0226  0.4679  0.1966
39834TIP3    H220385   8.286   8.239   5.646  0.0078  0.2087  0.2065
39835TIP3   OH220386   8.096  10.358   5.495 -0.0583 -0.1657 -0.2684
39835TIP3    H120387   8.002  10.355   5.514  0.4363  0.1210  2.7266
39835TIP3    H220388   8.115  10.451   5.481 -0.5556 -0.4340 -3.5982
39836TIP3   OH220389   9.674  10.793   4.416 -0.7616 -0.3920  0.2122
39836TIP3    H120390   9.729  10.715   4.423  1.0458  0.8588  0.6726
39836TIP3    H220391   9.657  10.818   4.507 -0.9918 -0.0281  0.0708
39837TIP3   OH220392   9.934   0.315   6.083  0.1950  0.4490  0.1638
39837TIP3    H120393   9.986   0.272   6.015  1.1821  0.7954  0.6684
39837TIP3    H220394   9.845   0.283   6.070  0.8844 -1.7919  0.5539
39838TIP3   OH220395   1.903   5.672   7.992  0.3190 -0.0296  0.1822
39838TIP3    H120396   1.810   5.649   7.990  0.1682  0.5988 -1.1161
39838TIP3    H220397   1.938   5.636   7.910  1.1406  0.0762  0.4782
39839TIP3   OH220398   0.153   1.730   6.375 -0.1980 -0.5025  0.1266
39839TIP3    H120399   0.134   1.823   6.365  2.5234  0.3460  1.7441
39839TIP3    H220400   0.131   1.711   6.466  0.5177 -1.0799  0.1870
39840TIP3   OH220401   4.269   1.608   7.170  0.3763  0.3245 -0.2179
39840TIP3    H120402   4.291   1.598   7.078 -1.8651  0.3546 -0.8304
39840TIP3    H220403   4.351   1.592   7.217  1.1548 -1.7441 -2.0884
39841TIP3   OH220404   5.519   8.579  10.251 -0.0891 -0.0275  0.2454
39841TIP3    H120405   5.448   8.532  10.208 -1.0595  0.6276  1.0769
39841TIP3    H220406   5.482   8.607  10.335  1.4384 -0.4325  1.1003
39842TIP3   OH220407   5.440   5.206   1.052 -0.0177 -0.0099  0.6330
39842TIP3    H120408   5.468   5.123   1.012  0.2260  0.3553  0.0392
39842TIP3    H220409   5.521   5.253   1.068 -0.2188  0.6251 -0.1578
39843TIP3   OH220410  10.897   9.771   9.244 -0.4821 -0.3193 -0.0078
39843TIP3    H120411  10.958   9.718   9.295 -1.3487 -0.2871  1.0924
39843TIP3    H220412  10.884   9.850   9.296 -1.6987 -0.4676 -0.0595
39844TIP3   OH220413   8.322   6.037   9.439 -0.1635  0.1745  0.4478
39844TIP3    H120414   8.291   6.018   9.351  1.3106 -0.2862  0.0089
39844TIP3    H220415   8.392   5.974   9.455  0.6003  1.2016  1.3808
39845TIP3   OH220416   5.134  10.167  10.694  1.0794 -0.1540  1.0754
39845TIP3    H120417   5.166  10.207  10.613  0.6849  0.0321  1.0070
39845TIP3    H220418   5.116  10.076  10.671  1.1382 -0.1454  0.9990
39846TIP3   OH220419   0.130   3.509   7.961  0.0524 -0.1190 -0.0979
39846TIP3    H120420   0.158   3.426   8.001  0.3071 -0.0768 -0.1833
39846TIP3    H220421   0.036   3.499   7.947  0.1007 -0.4308 -0.1960
39847TIP3   OH220422   8.912   5.165   6.870 -0.4586 -0.1168 -0.1855
39847TIP3    H120423   8.851   5.183   6.800 -0.7416 -3.9548 -1.1604
39847TIP3    H220424   8.857   5.146   6.946 -0.2093  1.8250  0.5401
39848TIP3   OH220425   1.691   3.383   2.084  0.7540 -1.0254 -0.2460
39848TIP3    H120426   1.737   3.366   2.002  0.2486 -0.2398 -0.7144
39848TIP3    H220427   1.610   3.427   2.057  1.2361  0.5622  0.7479
39849TIP3   OH220428  10.479   0.680   8.570  0.9716  0.0569  0.4718
39849TIP3    H120429  10.548   0.619   8.542  1.7891  1.7901 -1.6194
39849TIP3    H220430  10.444   0.715   8.488 -0.5434  1.2317  1.5667
39850TIP3   OH220431   1.821   9.840   4.061  0.1057  0.7147  0.0145
39850TIP3    H120432   1.908   9.811   4.035  0.1757 -0.3702  1.3382
39850TIP3    H220433   1.834   9.928   4.097  0.5369  0.8303 -0.4186
39851TIP3   OH220434   0.841   3.990   3.653 -0.7536 -0.0667  1.0272
39851TIP3    H120435   0.845   3.977   3.747 -0.9530 -0.2813  1.0070
39851TIP3    H220436   0.930   3.972   3.622 -0.5718  0.4545  1.2287
39852TIP3   OH220437   5.532   4.957   9.998 -0.0919 -0.3987  0.2567
39852TIP3    H120438   5.592   4.919   9.935 -0.3065  0.8506 -0.7563
39852TIP3    H220439   5.447   4.920   9.976  0.0368 -0.9679  0.6836
39853TIP3   OH220440   1.712   1.465   5.245  0.2426  0.3325 -0.3322
39853TIP3    H120441   1.747   1.510   5.322 -0.1084 -0.4041  0.2723
39853TIP3    H220442   1.681   1.381   5.279 -0.4270  0.2270 -1.1836
39854TIP3   OH220443   1.541  10.773   5.501  0.3281  0.6694  0.0098
39854TIP3    H120444   1.565  10.757   5.410 -0.9972 -0.0565 -0.2498
39854TIP3    H220445   1.621  10.803   5.543  0.8399  1.4945 -1.5073
39855TIP3   OH220446   3.058   7.516   3.917  0.2248  0.4587 -0.6120
39855TIP3    H120447   2.975   7.485   3.951 -0.3929  1.4037 -1.2021
39855TIP3    H220448   3.115   7.522   3.993 -0.7083  1.2363  0.0448
39856TIP3   OH220449   5.916   9.001   9.415  0.3217 -0.1170 -0.0464
39856TIP3    H120450   5.918   8.908   9.392 -1.9098 -0.7796  1.9572
39856TIP3    H220451   5.898   9.046   9.332 -2.5237 -1.8930 -0.5583
39857TIP3   OH220452   4.251   2.559   7.863 -0.0412  0.2648  0.0710
39857TIP3    H120453   4.284   2.634   7.814 -2.3045  0.9444 -0.5309
39857TIP3    H220454   4.275   2.577   7.954 -0.2551  1.5679 -0.1121
39858TIP3   OH220455   2.761   1.492   7.220 -0.4453  0.6674 -0.4074
39858TIP3    H120456   2.742   1.410   7.175 -0.8281 -1.3910  3.1812
39858TIP3    H220457   2.854   1.487   7.242 -0.3168  1.5384 -0.6953
39859TIP3   OH220458  10.378  10.530   4.583  0.1181 -0.2604 -0.5495
39859TIP3    H120459  10.424  10.446   4.580 -0.2241 -0.4264 -1.2979
39859TIP3    H220460  10.404  10.568   4.667 -0.5916 -1.6184  0.3247
39860TIP3   OH220461   9.112   8.455   8.043 -0.5267  0.0439  0.3077
39860TIP3    H120462   9.151   8.539   8.020 -1.1769  0.0386 -0.8912
39860TIP3    H220463   9.162   8.391   7.992 -0.9295 -0.1417  0.1434
39861TIP3   OH220464   5.983   5.572  10.301  0.1535  0.5159 -0.0175
39861TIP3    H120465   6.050   5.626  10.259 -0.7207  1.7934  0.1973
39861TIP3    H220466   6.018   5.483  10.294 -0.1255  0.5219 -3.8927
39862TIP3   OH220467   0.227   2.026  10.466  0.0494 -0.2963  0.0966
39862TIP3    H120468   0.217   2.117  10.438 -0.5404 -0.2873  0.3148
39862TIP3    H220469   0.224   2.031  10.562 -0.2614 -0.5712  0.1033
39863TIP3   OH220470   5.231   0.814   3.472  0.8363  0.0927  0.4707
39863TIP3    H120471   5.222   0.769   3.388  0.4223 -0.4355  0.7957
39863TIP3    H220472   5.310   0.868   3.461  1.0703 -0.3477 -0.0853
39864TIP3   OH220473   3.260   1.469   4.570 -0.1173  0.5775  0.5641
39864TIP3    H120474   3.265   1.377   4.596 -1.4040  0.1633 -0.5472
39864TIP3    H220475   3.216   1.512   4.643 -0.3966  0.1321  0.6603
39865TIP3   OH220476   1.160   8.929   7.456 -0.2701  0.0216 -0.1909
39865TIP3    H120477   1.161   8.853   7.398 -1.6330 -1.7173  1.9274
39865TIP3    H220478   1.150   8.892   7.544 -1.4101  2.6701  0.8947
39866TIP3   OH220479   6.619   4.361   2.465  0.2542 -0.5674  0.1164
39866TIP3    H120480   6.634   4.370   2.371 -0.0314 -0.5709  0.0672
39866TIP3    H220481   6.528   4.390   2.477  0.8904  1.3818  0.6748
39867TIP3   OH220482   5.041   3.104   0.202 -0.0859 -0.6408  0.0164
39867TIP3    H120483   5.012   3.139   0.118  1.6858  0.6297 -0.1149
39867TIP3    H220484   5.045   3.180   0.260  3.4382 -0.5432 -0.1613
39868TIP3   OH220485   3.606   4.166   4.759  0.2521  0.7260 -0.0521
39868TIP3    H120486   3.650   4.182   4.675  0.8266  0.3030  0.1638
39868TIP3    H220487   3.569   4.251   4.783 -0.5657  0.6854 -1.1016
39869TIP3   OH220488   9.785   4.584   9.969 -0.9443 -0.1541 -0.0244
39869TIP3    H120489   9.709   4.621   9.924 -0.4233 -0.9770 -1.6828
39869TIP3    H220490   9.858   4.638   9.940 -0.6655 -0.4161  0.1922
39870TIP3   OH220491   6.216   4.889   7.421  0.0428  0.0920 -0.5194
39870TIP3    H120492   6.223   4.982   7.441  1.1297  0.3211 -1.8264
39870TIP3    H220493   6.296   4.851   7.457 -0.3094 -0.3118 -0.1557
39871TIP3   OH220494   2.199   7.702   0.702  0.1860 -0.2514 -0.2117
39871TIP3    H120495   2.184   7.661   0.787 -0.6271  1.5617  0.5728
39871TIP3    H220496   2.239   7.633   0.649 -0.4192 -1.8022  1.2458
39872TIP3   OH220497   1.554   0.590   4.372 -0.3009 -0.0271 -0.5682
39872TIP3    H120498   1.579   0.497   4.372  0.5260  0.1455  1.5628
39872TIP3    H220499   1.497   0.600   4.448 -0.6897  1.1518 -0.9921
39873TIP3   OH220500   9.251   7.222   1.311  0.7498 -0.8279 -0.3395
39873TIP3    H120501   9.253   7.156   1.381  2.0775 -0.4270  0.0144
39873TIP3    H220502   9.273   7.304   1.355 -1.5025  0.0242 -0.6487
39874TIP3   OH220503   5.954   8.168   5.001 -0.2193 -0.4421  0.0770
39874TIP3    H120504   5.880   8.207   5.048  0.6616  0.1229  1.0435
39874TIP3    H220505   6.006   8.243   4.972 -0.6142 -0.7892 -1.6268
39875TIP3   OH220506   9.577   3.320   5.417  0.4218  0.5925 -0.6402
39875TIP3    H120507   9.630   3.398   5.399 -0.6349  1.9366  1.5789
39875TIP3    H220508   9.578   3.312   5.513 -0.1758 -1.6748 -0.7711
39876TIP3   OH220509   3.288   6.194   5.596 -0.3118  0.1300 -0.1407
39876TIP3    H120510   3.238   6.156   5.668  1.0836 -1.0945  0.2486
39876TIP3    H220511   3.225   6.246   5.546 -1.7303 -0.6118  0.8284
39877TIP3   OH220512   4.522   8.079   2.764  0.4846 -0.0978 -0.7311
39877TIP3    H120513   4.614   8.094   2.746 -0.0470  1.9785 -1.9846
39877TIP3    H220514   4.502   7.997   2.718  1.8057 -0.9175  0.0899
39878TIP3   OH220515   5.377   2.097   1.789 -0.2103  0.0311 -0.2443
39878TIP3    H120516   5.411   2.178   1.750  0.8049  0.6154  1.7061
39878TIP3    H220517   5.302   2.125   1.841 -0.3659 -0.4295 -0.2147
39879TIP3   OH220518   2.599   9.528   7.136  0.2607 -0.1282  0.1947
39879TIP3    H120519   2.587   9.536   7.042  2.9126  0.2376 -0.1658
39879TIP3    H220520   2.653   9.449   7.147  1.1747  0.6186  1.2734
39880TIP3   OH220521  10.404   0.874   0.875  1.0914 -0.2260 -0.2327
39880TIP3    H120522  10.428   0.850   0.964  0.8081 -0.5377 -0.2375
39880TIP3    H220523  10.334   0.939   0.886  1.6870  0.4272 -0.2224
39881TIP3   OH220524  10.024   6.359   9.513  0.4837  0.4300  0.0594
39881TIP3    H120525  10.079   6.436   9.524 -1.4545  1.6623  1.7608
39881TIP3    H220526   9.965   6.360   9.588 -0.7581 -1.7658 -0.7841
39882TIP3   OH220527   0.046   4.461   1.907 -0.8848  0.0790 -0.4524
39882TIP3    H120528  -0.021   4.397   1.930 -0.3521 -0.5372 -0.6004
39882TIP3    H220529   0.101   4.417   1.843 -0.2503  0.5283 -0.2286
39883TIP3   OH220530   1.210   5.073   5.904 -0.2065 -0.4400 -0.1330
39883TIP3    H120531   1.263   5.128   5.962 -0.2800 -0.7281  0.2077
39883TIP3    H220532   1.226   5.109   5.816  0.2611 -0.2926  0.0098
39884TIP3   OH220533   6.385   7.753   6.264  0.3815 -0.6364  0.2156
39884TIP3    H120534   6.298   7.734   6.300 -0.7914  2.5654 -0.5347
39884TIP3    H220535   6.426   7.810   6.329 -0.2152  2.0051 -1.5330
39885TIP3   OH220536   7.682   4.180   4.173  0.4206 -0.4071 -0.0022
39885TIP3    H120537   7.692   4.164   4.267 -1.1431  0.5895  0.3703
39885TIP3    H220538   7.752   4.242   4.152 -0.7874  1.4457  1.1212
39886TIP3   OH220539   3.377   1.519   0.422  0.4471 -0.2582 -0.1741
39886TIP3    H120540   3.325   1.458   0.474 -0.2959  1.4784  1.2550
39886TIP3    H220541   3.440   1.464   0.376  1.0782 -1.9583  2.5044
39887TIP3   OH220542   4.945   1.432   6.899  0.5453 -0.0511 -0.5719
39887TIP3    H120543   4.932   1.496   6.829  1.8013  1.6532  0.6817
39887TIP3    H220544   4.875   1.451   6.962  1.6884  0.9903  0.4154
39888TIP3   OH220545   9.864   1.819   7.487 -0.1863  0.0996  0.4972
39888TIP3    H120546   9.909   1.890   7.441  2.0435 -1.9381 -0.7349
39888TIP3    H220547   9.909   1.814   7.572 -0.4348  0.2414  0.6374
39889TIP3   OH220548   1.150   5.218   6.885 -0.3505 -0.2680 -0.0615
39889TIP3    H120549   1.111   5.135   6.857 -0.5776 -0.5493  1.0458
39889TIP3    H220550   1.075   5.278   6.891 -0.3832 -0.3618  0.4784
39890TIP3   OH220551   2.052   6.543   6.293  0.7055 -0.5039 -0.1725
39890TIP3    H120552   2.045   6.580   6.205 -2.2113 -0.2411  0.0830
39890TIP3    H220553   2.063   6.620   6.350 -1.3733 -0.2467 -0.0196
39891TIP3   OH220554   4.901   8.346  10.799 -0.0516 -0.4616 -0.5729
39891TIP3    H120555   4.886   8.432  10.759  0.0188  0.0246  0.4184
39891TIP3    H220556   4.992   8.326  10.777 -0.1285 -0.3785 -0.9767
39892TIP3   OH220557   2.776   2.100  10.443 -0.4098  0.1625  0.5808
39892TIP3    H120558   2.742   2.161  10.509  1.8964 -0.2905  2.3481
39892TIP3    H220559   2.742   2.015  10.468 -2.1267  0.3881 -0.7967
39893TIP3   OH220560   6.864   5.628   1.363  0.1116  0.5187  0.1748
39893TIP3    H120561   6.804   5.589   1.300  0.9314  0.6261 -0.6855
39893TIP3    H220562   6.852   5.577   1.443 -0.0340 -0.4161 -0.4386
39894TIP3   OH220563   7.384   6.112   4.943 -0.1997  0.0752 -0.4555
39894TIP3    H120564   7.350   6.103   5.032 -3.2442 -1.7768 -1.6588
39894TIP3    H220565   7.337   6.187   4.906 -1.2991 -1.0498 -1.4108
39895TIP3   OH220566   8.257   5.671  10.068 -0.3442  0.5753 -0.1004
39895TIP3    H120567   8.199   5.717  10.129  0.0581  1.5648 -0.4433
39895TIP3    H220568   8.337   5.724  10.066  0.5388 -0.6939  0.2625
39896TIP3   OH220569   5.304   0.220   5.377 -0.3910 -0.7333 -0.2185
39896TIP3    H120570   5.286   0.301   5.424  1.1805 -0.7327  0.4660
39896TIP3    H220571   5.354   0.246   5.300  0.1885 -1.0321  0.0440
39897TIP3   OH220572  10.802   8.329   2.672 -0.0689 -0.0930 -0.4752
39897TIP3    H120573  10.866   8.326   2.601 -0.3321  0.9960 -0.7850
39897TIP3    H220574  10.727   8.376   2.634 -0.0147  0.9764  0.6787
39898TIP3   OH220575   4.717   0.977  10.637  0.0305 -0.3660  0.2224
39898TIP3    H120576   4.804   0.949  10.610  0.3298  0.2329  0.5621
39898TIP3    H220577   4.676   1.008  10.556  0.4735  0.2348  0.2267
39899TIP3   OH220578   8.312   2.357   1.890 -0.1696 -0.0907 -0.3692
39899TIP3    H120579   8.266   2.377   1.809  0.7920 -2.0805 -1.4670
39899TIP3    H220580   8.378   2.292   1.865  0.9310  0.1148  1.7911
39900TIP3   OH220581   2.305   5.978   1.258 -0.1155 -0.3626 -0.3517
39900TIP3    H120582   2.377   5.967   1.196 -0.1428 -4.2675  0.0455
39900TIP3    H220583   2.232   6.007   1.204  0.9600  0.6948 -1.3020
39901TIP3   OH220584   4.988   7.722  10.103  0.4453  0.4768  0.3210
39901TIP3    H120585   5.009   7.643  10.154 -0.5613  1.0736  1.7125
39901TIP3    H220586   5.064   7.734  10.045  1.0430 -0.9558  0.7601
39902TIP3   OH220587   2.561   4.348   0.710  0.5358  0.2781 -0.1648
39902TIP3    H120588   2.492   4.396   0.663  0.1996  0.9884  0.9956
39902TIP3    H220589   2.634   4.409   0.714  0.3007  0.5175  0.8437
39903TIP3   OH220590   6.829   7.053  10.162 -0.6238  0.4770  0.6285
39903TIP3    H120591   6.799   6.971  10.121 -2.3538  0.6768  1.4186
39903TIP3    H220592   6.872   7.100  10.090 -1.7718 -0.0663 -0.4575
39904TIP3   OH220593   5.927   9.211   5.330  0.1713 -0.2181 -0.1603
39904TIP3    H120594   5.965   9.277   5.272  0.6383  1.0105  1.4567
39904TIP3    H220595   6.000   9.152   5.349  0.6402  0.6252  0.8318
39905TIP3   OH220596   9.825   3.268  10.303  0.4653 -0.3038 -0.5850
39905TIP3    H120597   9.824   3.185  10.254 -0.4426 -0.3024 -0.5835
39905TIP3    H220598   9.746   3.264  10.357  0.2616  0.6983 -0.8035
39906TIP3   OH220599   5.508   9.052   0.264 -0.3577 -0.0272 -0.4347
39906TIP3    H120600   5.459   8.970   0.249  0.1497 -0.3387 -0.4161
39906TIP3    H220601   5.597   9.023   0.282 -0.5469  0.4247  1.4018
39907TIP3   OH220602   2.588   5.089   0.247  0.2813 -0.1949  0.8449
39907TIP3    H120603   2.590   5.018   0.312 -1.8187  1.2198  2.5860
39907TIP3    H220604   2.557   5.047   0.167  3.2077 -2.0534  0.5196
39908TIP3   OH220605   8.224   6.036   6.770 -0.4814 -0.2376 -0.1141
39908TIP3    H120606   8.207   6.021   6.863 -0.7460 -0.9033 -0.2629
39908TIP3    H220607   8.146   6.003   6.726  0.6818 -2.3689 -0.7424
39909TIP3   OH220608   9.286   5.184   3.776 -0.4209 -0.8104 -0.2879
39909TIP3    H120609   9.346   5.244   3.733 -1.3725 -0.1856 -0.7763
39909TIP3    H220610   9.331   5.159   3.857  0.0632  0.4275 -0.1501
39910TIP3   OH220611   4.776   8.047   6.393  0.1072  0.0789 -0.1446
39910TIP3    H120612   4.773   7.953   6.413 -1.6855 -0.1832 -1.2966
39910TIP3    H220613   4.824   8.086   6.465 -0.3341 -1.5593  1.0998
39911TIP3   OH220614   5.433   8.216   5.375 -0.6429 -0.0129 -0.0383
39911TIP3    H120615   5.520   8.191   5.406 -1.0710 -1.2746  0.2030
39911TIP3    H220616   5.404   8.282   5.438 -0.4005 -0.5592  0.6580
39912TIP3   OH220617   1.704   3.795   0.353 -0.2019  0.0608  0.1924
39912TIP3    H120618   1.799   3.794   0.368 -0.2541  1.0187  0.6336
39912TIP3    H220619   1.684   3.886   0.334 -1.1943  0.0698  1.1841
39913TIP3   OH220620   3.448   6.122  10.023  0.2676 -0.6611 -0.2596
39913TIP3    H120621   3.363   6.108   9.982  0.6381 -1.6982 -0.7078
39913TIP3    H220622   3.498   6.172   9.958  0.3594 -1.0092 -0.4605
39914TIP3   OH220623  10.470   6.006   1.289 -0.0484  0.1892 -0.6062
39914TIP3    H120624  10.470   6.099   1.312 -0.8561 -0.3256  1.7704
39914TIP3    H220625  10.464   5.961   1.373  0.0710 -2.0198 -1.7210
39915TIP3   OH220626   8.208   3.991   4.932  0.2876  0.0820  0.7107
39915TIP3    H120627   8.169   4.027   5.012  0.8731  1.0542  0.5661
39915TIP3    H220628   8.220   3.898   4.952  0.2637  0.2728  1.6878
39916TIP3   OH220629   0.442  10.683   7.241 -0.2328 -0.1450  0.2652
39916TIP3    H120630   0.411  10.633   7.166  0.4883 -1.0339  0.5257
39916TIP3    H220631   0.453  10.617   7.310 -0.7531  0.6331  1.1112
39917TIP3   OH220632   5.274   7.524   2.037  0.0246 -0.1746 -0.3383
39917TIP3    H120633   5.360   7.488   2.015 -0.0470  1.0669 -3.1460
39917TIP3    H220634   5.212   7.468   1.991 -0.5297  0.0624  0.1034
39918TIP3   OH220635   7.196   2.795   4.852  0.4869 -0.7119  0.2046
39918TIP3    H120636   7.120   2.810   4.796  0.8241 -0.0425 -0.0797
39918TIP3    H220637   7.257   2.865   4.830  1.8593 -2.1220 -0.7200
39919TIP3   OH220638  10.477   7.858   9.453 -0.4676  0.5213 -0.5689
39919TIP3    H120639  10.460   7.900   9.538 -1.3993 -1.2014  0.1622
39919TIP3    H220640  10.391   7.827   9.424  0.0793 -0.2852 -1.3813
39920TIP3   OH220641   4.821  10.270   2.293 -0.3990 -0.1495  0.0244
39920TIP3    H120642   4.853  10.187   2.325  0.5157 -0.0903 -0.7037
39920TIP3    H220643   4.848  10.334   2.358 -0.0770 -0.2653  0.0041
39921TIP3   OH220644   6.994   8.032   2.545 -0.1477  0.6773 -0.4415
39921TIP3    H120645   6.945   7.982   2.479  0.7893  0.2196 -0.8124
39921TIP3    H220646   7.075   7.983   2.556  0.0885  1.2469  0.3971
39922TIP3   OH220647  10.191   8.866   9.029  0.6244  0.2916  0.9607
39922TIP3    H120648  10.146   8.792   9.070  0.1836  0.4553  0.7764
39922TIP3    H220649  10.130   8.939   9.038 -0.0024  0.0581 -1.0418
39923TIP3   OH220650  10.642   2.601   4.843  0.1483 -0.2465 -0.3159
39923TIP3    H120651  10.581   2.667   4.875  1.1388  0.1484  0.8422
39923TIP3    H220652  10.651   2.620   4.750 -0.1885  0.7683 -0.1561
39924TIP3   OH220653   1.606   1.847   0.635 -0.5180  0.6189  0.2140
39924TIP3    H120654   1.600   1.941   0.614  0.0322  0.2969 -1.5465
39924TIP3    H220655   1.528   1.809   0.594  0.3590  0.0225 -0.9471
39925TIP3   OH220656   9.531   0.296  10.736  0.4663 -0.2576  0.7941
39925TIP3    H120657   9.608   0.245  10.715  0.8112  0.9688 -1.1725
39925TIP3    H220658   9.563   0.386  10.746 -0.7894  0.4959 -1.2721
39926TIP3   OH220659   6.616  10.276   7.990  0.1013  0.4271 -0.3283
39926TIP3    H120660   6.627  10.229   7.908  1.4484  2.6547 -1.5388
39926TIP3    H220661   6.521  10.278   8.005 -0.2521  0.6958 -2.3218
39927TIP3   OH220662   4.801  10.407   0.741  0.1362  0.7596  0.3079
39927TIP3    H120663   4.887  10.435   0.712  0.4781 -1.1530 -0.7065
39927TIP3    H220664   4.818  10.348   0.814 -0.1595 -0.6418 -0.6975
39928TIP3   OH220665   6.840   9.009   8.294  0.7588  0.0449  0.3282
39928TIP3    H120666   6.901   9.043   8.359  0.8200  0.4741  0.0485
39928TIP3    H220667   6.883   8.931   8.259  0.6870 -0.2353  0.8588
39929TIP3   OH220668   0.045   6.186   1.615  0.0196  0.2787  0.2143
39929TIP3    H120669   0.078   6.102   1.647  1.8276  0.7056 -0.4113
39929TIP3    H220670   0.104   6.251   1.653  0.8792  0.9661 -2.1583
39930TIP3   OH220671   6.270   3.020   3.235 -0.5417  0.4193 -0.4813
39930TIP3    H120672   6.183   3.017   3.197 -0.3078  2.2146 -1.2768
39930TIP3    H220673   6.279   3.110   3.267  0.9445  0.2229 -0.2682
39931TIP3   OH220674   1.411  10.660   2.399 -0.0664 -0.0929  0.1915
39931TIP3    H120675   1.501  10.629   2.416  0.5085  0.0593 -2.2859
39931TIP3    H220676   1.420  10.755   2.388 -0.6912  0.0409  0.7742
39932TIP3   OH220677   6.644   6.175   8.645  0.6219 -0.8610 -0.2030
39932TIP3    H120678   6.551   6.169   8.627  0.4369  0.4418  0.2177
39932TIP3    H220679   6.680   6.226   8.573  0.7098  0.0598  0.4646
39933TIP3   OH220680   0.515   3.053   4.054 -0.0961 -0.3507 -0.3184
39933TIP3    H120681   0.487   3.145   4.048  0.0312 -0.2698  0.2354
39933TIP3    H220682   0.458   3.016   4.122 -0.7864 -0.9324 -1.1889
39934TIP3   OH220683   2.485   7.136   0.272  0.0583  0.3653  0.9030
39934TIP3    H120684   2.431   7.133   0.193  0.8932 -0.9426  0.3528
39934TIP3    H220685   2.431   7.097   0.340 -0.8914  2.0361  1.1582
39935TIP3   OH220686   1.959   6.122   0.034  0.5127 -0.1344  0.0112
39935TIP3    H120687   1.927   6.071  -0.041  1.6638  0.4502 -0.9010
39935TIP3    H220688   2.042   6.158   0.005 -0.0705  1.9378  0.7832
39936TIP3   OH220689   5.090   4.217   1.763  0.8298  0.1919 -0.7576
39936TIP3    H120690   5.162   4.274   1.735 -0.5446  0.7309 -3.6477
39936TIP3    H220691   5.047   4.265   1.833  0.1560  2.5096 -2.6242
39937TIP3   OH220692   5.753   8.784   7.995  0.3230  0.5768  0.1026
39937TIP3    H120693   5.809   8.836   8.053 -0.2224  0.8898  0.3544
39937TIP3    H220694   5.745   8.700   8.039  0.9282  0.3817 -0.1386
39938TIP3   OH220695   8.954   9.038   2.077 -0.0549  0.2055  0.2288
39938TIP3    H120696   8.860   9.040   2.097 -0.4670  1.0899 -1.5997
39938TIP3    H220697   8.964   9.099   2.004  2.0083  0.3642  0.5908
39939TIP3   OH220698   6.764   3.158   2.421 -0.0800  0.2180  0.3035
39939TIP3    H120699   6.727   3.226   2.477 -0.4830  1.4929 -1.4528
39939TIP3    H220700   6.722   3.077   2.450 -0.4638  0.8678  1.6398
39940TIP3   OH220701   7.548   0.177   6.434  0.2536 -0.4278  0.1082
39940TIP3    H120702   7.459   0.148   6.414 -0.1034  1.1508 -0.7312
39940TIP3    H220703   7.602   0.099   6.418 -1.0114 -1.6110  1.3065
39941TIP3   OH220704   6.103  10.753  10.442 -0.1042  0.0948  0.3706
39941TIP3    H120705   6.146  10.779  10.524  0.8041  1.6874 -0.5704
39941TIP3    H220706   6.015  10.727  10.469  0.2707  0.2830  1.8972
39942TIP3   OH220707   1.671   7.662   2.796  0.5814  0.4328 -0.0750
39942TIP3    H120708   1.727   7.732   2.829  0.8264 -0.4000  1.3608
39942TIP3    H220709   1.616   7.638   2.870  0.5516 -0.9386 -0.5044
39943TIP3   OH220710   8.487   1.165   8.805 -0.1888 -0.2149 -0.4576
39943TIP3    H120711   8.580   1.180   8.789 -0.1076 -0.0096  0.1674
39943TIP3    H220712   8.444   1.247   8.782 -0.4939 -0.9474 -2.7434
39944TIP3   OH220713   4.162   4.570   2.711  0.5060  0.4276  0.0769
39944TIP3    H120714   4.255   4.575   2.732  0.9615 -3.2691 -0.4203
39944TIP3    H220715   4.136   4.483   2.739 -2.8277  1.3041  0.0814
39945TIP3   OH220716   0.216   2.510   4.106 -0.2246  0.0008  0.5706
39945TIP3    H120717   0.301   2.553   4.112  0.8468 -2.1380  1.9312
39945TIP3    H220718   0.198   2.502   4.013  0.9324  0.7023  0.2765
39946TIP3   OH220719   0.986   1.249   8.504  0.1245  0.3599 -0.1604
39946TIP3    H120720   0.939   1.175   8.466  0.1737  0.5366 -0.5694
39946TIP3    H220721   1.058   1.208   8.553 -0.2051  0.1100  0.1257
39947TIP3   OH220722   1.758   6.855   6.450  0.1660 -0.2193 -0.2925
39947TIP3    H120723   1.702   6.881   6.523  0.4482 -2.4326  0.8090
39947TIP3    H220724   1.732   6.912   6.378 -2.1047  0.1516  0.7305
39948TIP3   OH220725   2.882   6.903   7.574 -0.2916 -0.2750 -0.3447
39948TIP3    H120726   2.805   6.860   7.610  0.8394 -0.2848  2.2515
39948TIP3    H220727   2.943   6.831   7.556 -0.7939 -0.2659 -2.3500
39949TIP3   OH220728   7.321   1.731   8.142  0.4495 -0.1213  0.0676
39949TIP3    H120729   7.410   1.763   8.158  0.6173 -0.1426 -0.7540
39949TIP3    H220730   7.264   1.802   8.173  0.7852  0.4162 -0.5225
39950TIP3   OH220731  10.073   6.929   1.080  0.1236  0.5703 -0.4783
39950TIP3    H120732  10.127   6.998   1.119 -2.1001  3.0937 -1.5824
39950TIP3    H220733   9.989   6.935   1.125 -0.3647 -1.0233 -1.0954
39951TIP3   OH220734   7.513   2.537   5.836 -0.1167 -0.4866 -0.1473
39951TIP3    H120735   7.589   2.594   5.845 -0.5298 -0.1819  1.6505
39951TIP3    H220736   7.539   2.454   5.877 -0.6142 -0.5200  0.1067
39952TIP3   OH220737   4.931   3.983   1.778  0.3535 -0.2284 -0.0945
39952TIP3    H120738   4.975   4.056   1.822 -1.1020  0.1260  0.8619
39952TIP3    H220739   4.850   4.021   1.744  0.9408 -0.7574 -2.1846
39953TIP3   OH220740   2.689   0.176   0.367 -0.3949 -0.2842 -0.0540
39953TIP3    H120741   2.608   0.149   0.409 -0.6453 -0.1880 -0.4722
39953TIP3    H220742   2.674   0.267   0.342 -0.1890 -0.2925 -0.2112
39954TIP3   OH220743   9.956   6.236   3.737  0.1441  0.4411 -0.0152
39954TIP3    H120744  10.038   6.281   3.755 -1.0892  3.3822 -1.0353
39954TIP3    H220745   9.952   6.232   3.641  0.5121 -2.6689  0.0051
39955TIP3   OH220746   9.930   4.998   4.389 -0.2134 -0.2582 -0.1947
39955TIP3    H120747   9.836   4.992   4.370 -0.3205  2.3401 -0.8694
39955TIP3    H220748   9.966   5.048   4.316  1.5389 -0.3690  0.5400
39956TIP3   OH220749   3.609   0.616   0.832 -0.0987 -0.2916 -0.2816
39956TIP3    H120750   3.693   0.638   0.873 -0.5264  0.0861  0.4192
39956TIP3    H220751   3.622   0.529   0.794  0.9178  0.1934 -1.0655
39957TIP3   OH220752   0.507   7.684   3.003  0.1923  0.0589  0.1959
39957TIP3    H120753   0.575   7.752   3.001 -0.6817  0.9489 -0.2872
39957TIP3    H220754   0.503   7.657   3.094  1.4770 -0.3133  0.1655
39958TIP3   OH220755   4.324   3.010   6.538  0.6569 -0.0601 -0.4974
39958TIP3    H120756   4.298   2.921   6.562 -2.0477  1.2171  1.8134
39958TIP3    H220757   4.283   3.025   6.453 -1.0605 -0.2171  0.2724
39959TIP3   OH220758   8.579   2.484   6.888  0.0924 -0.4034 -0.1719
39959TIP3    H120759   8.624   2.558   6.846  1.0511 -0.8645  0.0029
39959TIP3    H220760   8.549   2.518   6.972  0.1945 -0.1051 -0.2565
39960TIP3   OH220761   7.739   7.593   7.890  0.4979  0.4898  0.3264
39960TIP3    H120762   7.657   7.544   7.878  1.3864 -0.4579 -2.7112
39960TIP3    H220763   7.725   7.674   7.841  1.6475 -0.0940 -1.0244
39961TIP3   OH220764   7.478   8.970   8.878 -0.5874  0.4629 -0.9563
39961TIP3    H120765   7.559   8.927   8.852  0.2360  1.0834  0.4490
39961TIP3    H220766   7.423   8.968   8.799  0.3475 -0.9540 -1.6101
39962TIP3   OH220767  10.161   7.542   7.511 -0.1834  0.5031 -0.6928
39962TIP3    H120768  10.149   7.633   7.539 -0.9870  0.7254 -1.7273
39962TIP3    H220769  10.090   7.526   7.450  0.2712 -0.6631 -0.9359
39963TIP3   OH220770   0.301   3.840  10.697 -0.9084 -0.2768  0.0065
39963TIP3    H120771   0.263   3.786  10.629  1.9786 -2.7407  0.1385
39963TIP3    H220772   0.347   3.778  10.754  1.8087  2.1709  0.7365
39964TIP3   OH220773   8.842   1.261  10.809 -0.1035 -0.4843  0.1564
39964TIP3    H120774   8.815   1.197  10.874  0.5870 -0.4978  0.4464
39964TIP3    H220775   8.796   1.237  10.729  3.6992 -4.4547 -1.2494
39965TIP3   OH220776   5.869   3.813   9.749 -0.3750  0.0960  0.0788
39965TIP3    H120777   5.872   3.720   9.727 -2.2279 -0.2575  1.0371
39965TIP3    H220778   5.926   3.856   9.685  0.0634 -1.6274 -0.7351
39966TIP3   OH220779   1.440  10.579   9.882  0.0421 -0.1532 -0.3635
39966TIP3    H120780   1.375  10.549   9.945  0.3061  0.3854  0.1649
39966TIP3    H220781   1.430  10.674   9.880  0.3887 -0.1219 -0.7435
39967TIP3   OH220782   0.138   2.181   0.473 -0.1568  0.0261  0.3469
39967TIP3    H120783   0.192   2.106   0.496 -0.0206 -0.4485 -1.4144
39967TIP3    H220784   0.064   2.144   0.425  0.2643  1.0314 -1.1676
39968TIP3   OH220785   8.216   8.960   5.866 -0.4105 -0.4845 -0.0349
39968TIP3    H120786   8.277   9.033   5.882 -2.1170  0.9780  0.1049
39968TIP3    H220787   8.259   8.884   5.904  1.7620  0.2769 -0.7810
39969TIP3   OH220788   7.974   6.282  10.707  0.9388 -0.2989 -0.2364
39969TIP3    H120789   8.045   6.224  10.736  0.4923 -1.1702 -0.8159
39969TIP3    H220790   7.894   6.240  10.740  0.6409  0.2946 -0.1851
39970TIP3   OH220791  10.688   0.556   0.050  0.1604  0.2996  0.8799
39970TIP3    H120792  10.621   0.522  -0.009 -0.2732 -0.3314  1.7248
39970TIP3    H220793  10.658   0.532   0.137  2.2341 -1.4191  1.2152
39971TIP3   OH220794   4.754   6.648  10.519 -0.5622  0.3394  0.3331
39971TIP3    H120795   4.802   6.730  10.526  1.0026 -0.5930  0.8838
39971TIP3    H220796   4.690   6.664  10.450  0.8647  1.4750 -0.7844
39972TIP3   OH220797  10.901   6.166   7.551  0.1403  0.5859  0.2444
39972TIP3    H120798  10.974   6.227   7.560 -0.1453  0.6355  3.1862
39972TIP3    H220799  10.916   6.099   7.618 -2.2527  0.3886  0.6835
39973TIP3   OH220800   0.160   2.868   9.429  0.1384 -0.2675 -0.2696
39973TIP3    H120801   0.126   2.800   9.488  0.4166  0.2446  0.4886
39973TIP3    H220802   0.255   2.865   9.440  0.1147  0.7955  0.4109
39974TIP3   OH220803   3.795   1.000  10.380 -0.0848  0.0729  0.7535
39974TIP3    H120804   3.786   0.922  10.326 -0.8619  1.1486 -0.7469
39974TIP3    H220805   3.888   1.004  10.401  0.1517 -0.6328 -0.1107
39975TIP3   OH220806   8.949   2.119   0.153 -0.1677  0.2746  0.3302
39975TIP3    H120807   9.020   2.155   0.099 -0.1111  0.5809  0.6046
39975TIP3    H220808   8.922   2.040   0.107  0.4031  0.1163  0.2599
39976TIP3   OH220809   0.505   9.733   2.071  1.0851 -0.2425  0.4880
39976TIP3    H120810   0.487   9.690   1.988  0.1035 -0.9307  1.0484
39976TIP3    H220811   0.540   9.664   2.127 -1.1945 -0.5633  1.6280
39977TIP3   OH220812   5.576   7.094   0.380 -0.0044  0.2480 -0.2385
39977TIP3    H120813   5.593   7.097   0.286  2.3434 -0.3349  0.0938
39977TIP3    H220814   5.598   7.004   0.406  0.1303  0.6064  0.9717
39978TIP3   OH220815   5.276   0.366   7.389  0.1192 -0.3949  0.0019
39978TIP3    H120816   5.265   0.290   7.331  2.3214 -0.7678 -0.0302
39978TIP3    H220817   5.364   0.399   7.368 -0.3838  1.5648  0.7427
39979TIP3   OH220818   4.865   9.255   9.077 -0.1090 -0.3660  0.1019
39979TIP3    H120819   4.899   9.224   9.161 -1.4145  0.7324  1.0709
39979TIP3    H220820   4.808   9.184   9.047 -0.3339 -0.3884  0.5752
39980TIP3   OH220821   5.015   8.461  10.107 -0.3800 -0.3230 -0.2346
39980TIP3    H120822   5.015   8.510  10.189 -0.2015 -0.9092  0.1257
39980TIP3    H220823   4.970   8.517  10.044  1.6421  1.2263 -0.3921
39981TIP3   OH220824   2.158   2.967   2.159 -0.0016 -0.8690 -0.6421
39981TIP3    H120825   2.178   2.902   2.227 -0.6342 -0.5072 -0.0933
39981TIP3    H220826   2.158   3.051   2.206  2.6290 -0.1964 -1.6671
39982TIP3   OH220827   2.920   5.031   9.872 -0.3838 -0.2748 -0.3190
39982TIP3    H120828   2.934   4.937   9.881  0.1130 -0.3151 -1.3329
39982TIP3    H220829   2.830   5.044   9.902 -0.7686 -1.2254 -0.9752
39983TIP3   OH220830   6.822   5.162   1.973 -0.0384  0.5239  0.2696
39983TIP3    H120831   6.813   5.257   1.979 -0.9972  0.5545 -1.1391
39983TIP3    H220832   6.732   5.129   1.980  0.3548 -0.3339  1.4314
39984TIP3   OH220833  10.186   2.235   9.431  0.0546 -0.8308  0.0506
39984TIP3    H120834  10.132   2.312   9.411 -1.4987 -1.5051  1.3741
39984TIP3    H220835  10.123   2.165   9.448  1.4201 -2.3866 -0.9041
39985TIP3   OH220836   0.686  10.424   0.318 -0.4305  0.1153  0.1190
39985TIP3    H120837   0.687  10.368   0.240  0.0570  0.6135 -0.2367
39985TIP3    H220838   0.625  10.380   0.377  0.8403 -1.4625  0.3330
39986TIP3   OH220839   8.297   7.274   6.142 -0.2331 -0.1896 -0.2071
39986TIP3    H120840   8.300   7.185   6.176 -1.1564  0.3038  1.2810
39986TIP3    H220841   8.217   7.311   6.179  0.8337  1.6918  0.3837
39987TIP3   OH220842   9.128   7.924   7.972 -0.3199  0.9656  0.2278
39987TIP3    H120843   9.169   7.840   7.994  0.7412  1.7357  1.3437
39987TIP3    H220844   9.078   7.906   7.893  0.1906 -0.6284  0.2237
39988TIP3   OH220845   0.363   9.403   2.882 -0.0415  0.2185 -0.2297
39988TIP3    H120846   0.373   9.464   2.809  1.1031  0.0339 -0.2487
39988TIP3    H220847   0.395   9.452   2.958  1.4733 -0.5239 -0.3470
39989TIP3   OH220848   5.664  10.674   1.461 -0.2868 -0.2404  0.6973
39989TIP3    H120849   5.708  10.589   1.463 -1.8674 -1.1929 -0.8532
39989TIP3    H220850   5.669  10.701   1.369 -0.8064  0.7763  0.9533
39990TIP3   OH220851   8.565   6.072   1.487  0.1406  0.7689  0.1483
39990TIP3    H120852   8.584   6.038   1.575 -2.3005  2.1863  1.3212
39990TIP3    H220853   8.548   6.165   1.500 -0.7162  0.9213 -1.7694
39991TIP3   OH220854   3.589   7.081   6.966  0.1917  0.2768 -0.7770
39991TIP3    H120855   3.522   7.115   6.906 -0.5385 -0.6288 -0.4866
39991TIP3    H220856   3.576   7.132   7.046 -1.1270 -0.8739 -0.2264
39992TIP3   OH220857  10.665   9.135   3.815  0.0875 -0.5192 -0.9679
39992TIP3    H120858  10.742   9.085   3.840 -1.5241 -2.4523  0.5158
39992TIP3    H220859  10.654   9.117   3.721  0.3762 -1.7970 -0.7764
39993TIP3   OH220860   2.371   2.092   8.877 -0.0991  0.1266 -0.4190
39993TIP3    H120861   2.381   2.040   8.798  2.2551  0.3118 -0.3200
39993TIP3    H220862   2.421   2.172   8.860  0.8506 -0.0276  1.3794
39994TIP3   OH220863   4.582   1.875   6.288  0.1017 -0.0801 -0.3571
39994TIP3    H120864   4.627   1.899   6.207  0.1847 -1.3055 -0.7036
39994TIP3    H220865   4.501   1.926   6.286  0.0684 -0.1452 -1.2577
39995TIP3   OH220866   8.362   5.491   2.614  0.0106 -0.0334 -0.2683
39995TIP3    H120867   8.319   5.406   2.623 -0.9775  0.5214  0.4973
39995TIP3    H220868   8.292   5.555   2.629  1.2514  0.9210  2.1500
39996TIP3   OH220869   6.739   4.578   6.103 -0.2779  0.0413 -0.1448
39996TIP3    H120870   6.741   4.650   6.167  0.6531 -0.7079  0.6993
39996TIP3    H220871   6.672   4.519   6.135  0.8927 -0.8510  0.7609
39997TIP3   OH220872   6.557   2.647   6.299  0.0007 -0.3332 -0.0092
39997TIP3    H120873   6.651   2.643   6.281 -0.3440 -1.3713 -1.7840
39997TIP3    H220874   6.537   2.741   6.304  1.1488 -0.1037  0.6597
39998TIP3   OH220875   8.926   5.806   6.246 -0.1900  0.1116  0.0514
39998TIP3    H120876   8.886   5.767   6.324  1.6113  0.6853  1.3269
39998TIP3    H220877   8.902   5.898   6.250 -0.3427  0.0862 -0.2466
39999TIP3   OH220878   7.134   9.218   0.299  0.0749  0.3194  0.5092
39999TIP3    H120879   7.134   9.142   0.358  0.7387  0.1990  0.3622
39999TIP3    H220880   7.165   9.291   0.354 -0.0237  0.3641  0.5048
40000TIP3   OH220881  10.808   4.915   9.658 -0.5518  0.6242 -0.5602
40000TIP3    H120882  10.847   4.964   9.586  1.6134  0.1545  0.1906
40000TIP3    H220883  10.804   4.825   9.627  1.6644  0.1623  0.2707
40001TIP3   OH220884   1.824   5.366   7.912  0.7434 -0.0323  0.6032
40001TIP3    H120885   1.846   5.273   7.908 -0.1825 -0.3292  1.6946
40001TIP3    H220886   1.803   5.382   8.004  2.4684  1.6602  0.7535
40002TIP3   OH220887   9.177   3.475   8.885 -0.9568  0.1404  0.4164
40002TIP3    H120888   9.086   3.478   8.916 -0.5135 -0.4338  1.8794
40002TIP3    H220889   9.201   3.567   8.872 -1.6176  0.3199  0.4510
40003TIP3   OH220890  10.881   1.753   2.217  0.4112  0.5301  0.3548
40003TIP3    H120891  10.864   1.771   2.125  0.3818 -0.4576  0.1562
40003TIP3    H220892  10.954   1.690   2.216  1.8629  2.1075  1.0809
40004TIP3   OH220893  10.811   9.026   4.924  0.0752  0.8237 -0.0731
40004TIP3    H120894  10.806   9.044   5.017  1.5104  0.7316  0.0486
40004TIP3    H220895  10.720   9.023   4.895 -0.4073  0.3289  1.4121
40005TIP3   OH220896   7.242   6.932   7.071 -0.1209 -0.3432  0.1068
40005TIP3    H120897   7.187   6.984   7.013  1.8105  0.3147 -1.2561
40005TIP3    H220898   7.280   6.997   7.131  0.8752 -0.4161 -0.4215
40006TIP3   OH220899  10.129   9.207   0.566 -0.0722  0.0252  0.1911
40006TIP3    H120900  10.187   9.158   0.507  1.3601  1.8603 -0.0309
40006TIP3    H220901  10.095   9.142   0.626  1.8294 -1.2353 -0.0123
40007TIP3   OH220902  10.479   7.288   4.949 -0.6331  0.3324  0.4332
40007TIP3    H120903  10.429   7.206   4.950 -1.3993  0.6780 -2.1083
40007TIP3    H220904  10.541   7.280   5.022 -0.6012 -2.5459  0.1773
40008TIP3   OH220905   9.169   4.283   6.126 -0.2013 -0.1380 -0.2438
40008TIP3    H120906   9.129   4.322   6.049  1.0327  0.6336 -0.5088
40008TIP3    H220907   9.178   4.190   6.104 -0.3735 -0.0237 -0.8004
40009TIP3   OH220908   0.263   1.674   0.608  0.2323 -0.2780 -0.0326
40009TIP3    H120909   0.240   1.762   0.640  1.6534  0.7718 -1.7233
40009TIP3    H220910   0.179   1.634   0.586 -0.4774  0.4319  1.2831
40010TIP3   OH220911   5.144   1.635   6.325  0.4438  0.0008 -0.6902
40010TIP3    H120912   5.190   1.553   6.305  1.2424  0.3946 -0.5098
40010TIP3    H220913   5.205   1.704   6.298 -0.3007  0.5437 -1.0205
40011TIP3   OH220914   2.182   7.037   1.556  0.1302 -0.0272 -0.1112
40011TIP3    H120915   2.138   7.084   1.626 -0.5312 -1.4105  0.4461
40011TIP3    H220916   2.273   7.064   1.562 -0.2788  1.4421 -0.0620
40012TIP3   OH220917   4.139  10.142   3.510 -0.6909 -0.2976  0.0241
40012TIP3    H120918   4.076  10.077   3.538 -1.2567  1.3016  2.8093
40012TIP3    H220919   4.098  10.226   3.530  2.4169  0.8433  2.5842
40013TIP3   OH220920   1.702   4.132   7.809  0.2058  0.4456  0.2840
40013TIP3    H120921   1.698   4.222   7.776  2.5477  0.1936 -0.8948
40013TIP3    H220922   1.724   4.080   7.732  1.9935 -0.7024  1.4999
40014TIP3   OH220923   4.059   5.527   8.012  0.2788  0.2624  0.0859
40014TIP3    H120924   4.084   5.612   8.048  0.6787 -0.0381  0.5305
40014TIP3    H220925   3.994   5.547   7.945 -2.4336  0.6711  2.6436
40015TIP3   OH220926   9.074   8.100   6.894 -0.0255 -0.4079  0.5824
40015TIP3    H120927   9.061   8.010   6.863 -2.1895 -0.8009  2.3311
40015TIP3    H220928   9.134   8.139   6.831  0.1566 -2.7613 -0.8217
40016TIP3   OH220929   8.511   5.765   4.239  0.3443 -0.1113 -0.1363
40016TIP3    H120930   8.607   5.756   4.240  0.2089 -1.6420  0.7110
40016TIP3    H220931   8.483   5.712   4.164  0.2259  1.4056 -1.2061
40017TIP3   OH220932   4.081  10.819   5.006  0.1021  0.5547 -0.4906
40017TIP3    H120933   4.122  10.773   5.079  1.4078  0.7908 -1.0502
40017TIP3    H220934   4.037  10.894   5.046  0.6665  0.5853  0.0841
40018TIP3   OH220935   7.523   9.465   2.872 -0.0072 -0.5287  0.4163
40018TIP3    H120936   7.574   9.391   2.839 -0.1504 -1.1022  1.4153
40018TIP3    H220937   7.456   9.480   2.805  0.9192 -0.3354 -0.4879
40019TIP3   OH220938   6.883   8.993   2.924  0.1139  0.0600  0.3105
40019TIP3    H120939   6.881   9.009   2.829 -0.7584  2.8159  0.6982
40019TIP3    H220940   6.793   8.969   2.946 -0.3101  1.8385  0.7082
40020TIP3   OH220941   6.810   8.833   1.966 -0.1828 -0.1764 -0.2428
40020TIP3    H120942   6.730   8.837   1.914 -0.5918 -1.7457  0.2153
40020TIP3    H220943   6.855   8.755   1.934  0.8907  0.3636 -0.0870
40021TIP3   OH220944   4.107   0.484   3.837 -0.2101  0.3354 -0.0603
40021TIP3    H120945   4.133   0.528   3.917  0.1350  0.7158 -0.3770
40021TIP3    H220946   4.172   0.415   3.825  0.4836  1.0783 -0.6774
40022TIP3   OH220947   3.947   3.774   7.683  0.1432  0.2817 -0.2159
40022TIP3    H120948   3.929   3.762   7.776  1.2694 -1.8335 -0.2034
40022TIP3    H220949   3.861   3.784   7.642 -0.5780 -1.5404  0.7420
40023TIP3   OH220950   9.948   2.327   7.166 -0.4298 -0.3983  0.0539
40023TIP3    H120951   9.886   2.381   7.215 -0.8562 -1.9704  1.3636
40023TIP3    H220952   9.894   2.259   7.126  0.0433  0.3224 -1.8762
40024TIP3   OH220953   2.488  10.191   7.319 -0.7420  0.2643  0.3259
40024TIP3    H120954   2.495  10.226   7.408  1.5140 -1.3922  0.9122
40024TIP3    H220955   2.561  10.231   7.272 -0.8363 -0.2292 -0.2539
40025TIP3   OH220956   0.248   8.173   4.806  0.0443  0.1915 -0.9232
40025TIP3    H120957   0.262   8.259   4.766 -0.7649 -0.5793 -2.9700
40025TIP3    H220958   0.223   8.193   4.896  2.6062  1.9698 -0.4950
40026TIP3   OH220959   9.949   6.015   6.962 -0.3840 -0.5321 -0.5200
40026TIP3    H120960   9.880   6.038   7.024  0.0108  2.1661 -0.9508
40026TIP3    H220961   9.923   6.057   6.880  1.6851  0.4799 -0.7205
40027TIP3   OH220962   1.072   8.223  10.324 -0.3524  0.5470 -0.0956
40027TIP3    H120963   1.127   8.266  10.258 -0.6673  0.7386 -0.2329
40027TIP3    H220964   1.135   8.179  10.382 -0.0344  1.0436 -0.0559
40028TIP3   OH220965   8.287   2.446   0.246  0.1743  0.0650 -0.7461
40028TIP3    H120966   8.242   2.367   0.273 -0.7508  0.5636 -0.8057
40028TIP3    H220967   8.366   2.415   0.201 -1.4632 -0.9173 -3.0966
40029TIP3   OH220968   1.605  10.738   5.219 -0.1890  0.5838  0.2460
40029TIP3    H120969   1.652  10.654   5.211 -1.3112  0.0285 -1.0015
40029TIP3    H220970   1.664  10.802   5.178  0.7328  0.4582  1.3184
40030TIP3   OH220971   1.164   4.603  10.700 -0.2475  0.0172  0.7534
40030TIP3    H120972   1.086   4.597  10.646 -0.3665 -1.7713  1.0749
40030TIP3    H220973   1.167   4.521  10.749  1.1145  0.6033  1.7446
40031TIP3   OH220974   8.287   2.558   6.624 -0.8970 -0.5598  0.0598
40031TIP3    H120975   8.303   2.624   6.556  0.3074  0.6140  1.4100
40031TIP3    H220976   8.269   2.477   6.576 -1.8015  0.5890 -1.6565
40032TIP3   OH220977   8.669   9.450   3.247  0.0202 -0.2641  0.3628
40032TIP3    H120978   8.753   9.480   3.210 -0.2414 -1.4695 -1.3123
40032TIP3    H220979   8.619   9.531   3.260  1.1266  0.4088  0.5891
40033TIP3   OH220980   6.801   5.510   9.306 -0.1337  0.1757  0.4862
40033TIP3    H120981   6.780   5.602   9.323  2.5860  1.1326 -0.7599
40033TIP3    H220982   6.820   5.473   9.393 -3.1974  0.1317  1.2495
40034TIP3   OH220983   8.159   6.848   2.004 -0.2040  0.0383 -0.4095
40034TIP3    H120984   8.109   6.896   2.069 -0.0645  0.3977 -0.5661
40034TIP3    H220985   8.193   6.915   1.945 -0.3147 -0.2779 -0.8413
40035TIP3   OH220986   1.132  10.161   3.768 -0.4435 -0.1134  0.2305
40035TIP3    H120987   1.091  10.155   3.854 -0.1511  1.8925  0.5577
40035TIP3    H220988   1.067  10.124   3.708 -2.0928  1.5127  0.9319
40036TIP3   OH220989   0.536   3.581   3.954  0.1459 -0.5132 -0.2488
40036TIP3    H120990   0.594   3.624   3.891 -0.7248  0.0826 -0.6688
40036TIP3    H220991   0.481   3.652   3.988  0.7808 -0.7825  1.4018
40037TIP3   OH220992   2.562   9.590   4.366 -0.1387  0.3545  0.4762
40037TIP3    H120993   2.535   9.682   4.369  0.2378  0.4751  3.5674
40037TIP3    H220994   2.658   9.593   4.374  0.1685 -0.3247 -1.9241
40038TIP3   OH220995   9.910   4.178   4.217 -0.0077  0.1641  0.1500
40038TIP3    H120996   9.833   4.228   4.189  0.3993  1.3055  0.9963
40038TIP3    H220997   9.974   4.245   4.243  1.3237 -0.7584 -0.6561
40039TIP3   OH220998   6.706  10.662   5.464 -0.5416  0.1896 -0.1309
40039TIP3    H120999   6.634  10.668   5.526 -1.4666 -0.2174 -1.1381
40039TIP3    H221000   6.763  10.594   5.500 -1.4717 -0.6024 -0.1070
40040TIP3   OH221001   0.091  10.473   5.725 -0.8982 -0.4422  0.1133
40040TIP3    H121002   0.096  10.567   5.741 -1.7259 -0.5280  0.9478
40040TIP3    H221003   0.148  10.459   5.649 -0.1686  0.6103  0.4359
40041TIP3   OH221004   4.801   5.153  10.707  0.0828 -0.0356  0.5026
40041TIP3    H121005   4.756   5.088  10.652  1.4194 -0.6909  0.1222
40041TIP3    H221006   4.804   5.232  10.653  1.9648 -0.8608 -0.7296
40042TIP3   OH221007   9.735   9.162   6.267 -0.1366 -0.2788 -0.3669
40042TIP3    H121008   9.663   9.202   6.219 -1.8651 -1.6883  0.9170
40042TIP3    H221009   9.719   9.185   6.358 -0.7330 -3.0342  0.3197
40043TIP3   OH221010   3.917   5.207   5.201  0.9366  0.0164  0.3956
40043TIP3    H121011   3.933   5.122   5.242  4.3143  0.6475  0.6775
40043TIP3    H221012   3.953   5.199   5.113  1.5626  1.2037  0.5219
40044TIP3   OH221013   4.301   3.102   7.028 -0.2749  0.1031 -0.7976
40044TIP3    H121014   4.282   3.162   6.956  1.9375  1.1816 -0.5762
40044TIP3    H221015   4.271   3.017   6.997 -1.1473  0.8638 -2.1803
40045TIP3   OH221016   5.467   7.853   2.635  0.1150  0.3132  0.8208
40045TIP3    H121017   5.499   7.789   2.572  1.8407 -0.9490  2.8398
40045TIP3    H221018   5.391   7.811   2.676  0.0718  0.3937  0.8241
40046TIP3   OH221019  10.900   3.163   7.794 -0.0110 -0.6469 -0.0427
40046TIP3    H121020  10.983   3.182   7.749 -0.7324 -1.1405 -1.6348
40046TIP3    H221021  10.870   3.249   7.825  1.0399 -0.4489  0.4848
40047TIP3   OH221022   0.406   9.684   5.837 -0.0757 -0.4877  0.3910
40047TIP3    H121023   0.324   9.732   5.848 -1.4954 -2.5729 -0.3506
40047TIP3    H221024   0.448   9.688   5.923 -1.1427  0.2868  0.8973
40048TIP3   OH221025   3.798   2.045   1.260 -0.0109  0.3458  0.1612
40048TIP3    H121026   3.825   2.091   1.339  0.5422 -0.2256  0.3023
40048TIP3    H221027   3.706   2.023   1.276  0.2234 -0.1604  0.8279
40049TIP3   OH221028   9.576   9.676   3.786  0.0764  0.1080  0.4098
40049TIP3    H121029   9.540   9.688   3.698 -0.8226 -1.2266  0.5676
40049TIP3    H221030   9.523   9.732   3.842  0.1144  0.3248  0.2320
40050TIP3   OH221031   5.176   5.935   4.051  0.4245  0.1067  0.0196
40050TIP3    H121032   5.241   5.940   3.981  0.4372  1.2220  0.0869
40050TIP3    H221033   5.225   5.949   4.131  0.2650 -0.1897  0.1722
40051TIP3   OH221034   2.758   2.318   3.206  0.0412  0.3333 -0.0123
40051TIP3    H121035   2.813   2.361   3.141 -1.3475  0.3888 -1.2006
40051TIP3    H221036   2.671   2.354   3.191 -0.4900 -0.3673  1.2585
40052TIP3   OH221037   3.460   8.464   8.491 -0.0088 -0.1495  0.2737
40052TIP3    H121038   3.364   8.468   8.492 -0.0126 -0.2618  1.0563
40052TIP3    H221039   3.481   8.408   8.417 -0.6285 -1.6907  1.2129
40053TIP3   OH221040   1.414   2.892   9.226 -0.3850  0.0939  0.0180
40053TIP3    H121041   1.442   2.814   9.178  1.1907  0.7480 -0.1930
40053TIP3    H221042   1.406   2.960   9.158 -3.9073 -0.3276 -0.1603
40054TIP3   OH221043   8.672   8.358   5.412  0.5724 -0.1329  0.1827
40054TIP3    H121044   8.657   8.266   5.435 -0.2094 -0.6864 -2.2728
40054TIP3    H221045   8.761   8.359   5.375  0.2561 -0.0836 -0.5869
40055TIP3   OH221046   0.321   7.735   6.570 -0.3053 -0.3859  0.1836
40055TIP3    H121047   0.292   7.723   6.479  0.1872 -0.0761 -0.0238
40055TIP3    H221048   0.414   7.710   6.568 -0.1637  0.1173  0.4923
40056TIP3   OH221049   1.220   8.279   5.696  0.3692  0.1087 -0.7268
40056TIP3    H121050   1.142   8.325   5.726  0.3368  0.8293 -1.8772
40056TIP3    H221051   1.281   8.283   5.771 -0.9344 -1.1286  0.4627
40057TIP3   OH221052   1.049  10.211   1.374 -0.5561  0.0184  0.3229
40057TIP3    H121053   1.119  10.269   1.406 -0.1082 -0.1169 -0.3935
40057TIP3    H221054   1.095  10.136   1.337 -1.1378 -1.1618  1.8710
40058TIP3   OH221055   2.092   1.522   1.384  0.1161 -0.6315  0.3015
40058TIP3    H121056   2.170   1.577   1.388  0.7480 -1.3512 -1.3567
40058TIP3    H221057   2.126   1.432   1.390 -0.5674 -0.9507 -0.4293
40059TIP3   OH221058   0.176   5.957   4.842 -0.1108  0.1263  0.0476
40059TIP3    H121059   0.086   5.987   4.826  0.5178  1.8456 -0.5309
40059TIP3    H221060   0.169   5.899   4.918 -1.6890  0.3639  0.1116
40060TIP3   OH221061   8.092   4.318   5.972 -0.1939 -0.0565 -0.2303
40060TIP3    H121062   8.060   4.353   5.889 -0.7082  0.6624  0.2609
40060TIP3    H221063   8.149   4.387   6.006  0.9866 -0.8464 -0.5458
40061TIP3   OH221064   3.839   3.960   7.026  0.2839 -0.0175 -0.1163
40061TIP3    H121065   3.817   3.927   6.939 -0.3929  0.8957 -0.3086
40061TIP3    H221066   3.892   4.038   7.009 -0.4030  0.5494  0.2517
40062TIP3   OH221067   2.735   6.600   0.494 -0.0960  0.7093  0.5124
40062TIP3    H121068   2.818   6.593   0.446 -0.4179  0.3440 -0.0038
40062TIP3    H221069   2.750   6.553   0.575 -0.2435 -0.6078 -0.2027
40063TIP3   OH221070  10.309   8.056   6.626  0.9509 -0.6122  0.1154
40063TIP3    H121071  10.391   8.018   6.593  1.1565 -0.6781  0.6985
40063TIP3    H221072  10.258   8.073   6.547  1.9756  0.4687 -0.3402
40064TIP3   OH221073   8.732   4.509   3.069  0.1579 -0.5557  0.1135
40064TIP3    H121074   8.774   4.537   3.151  2.1400  0.6354 -1.2459
40064TIP3    H221075   8.802   4.507   3.005 -1.1636 -2.3841 -1.4041
40065TIP3   OH221076   4.453   3.111   1.506 -0.2979  0.3130  0.3404
40065TIP3    H121077   4.495   3.192   1.477 -0.3549 -0.0692 -0.8922
40065TIP3    H221078   4.362   3.135   1.520 -0.3775  0.4235 -0.2973
40066TIP3   OH221079   4.435   5.666   7.665  0.4006 -0.1453  0.3302
40066TIP3    H121080   4.439   5.652   7.570  0.8333 -0.4977  0.4011
40066TIP3    H221081   4.430   5.579   7.703 -0.3791  0.0121  0.6144
40067TIP3   OH221082   5.449   0.526   7.653 -0.1469 -0.0144  0.4762
40067TIP3    H121083   5.369   0.475   7.644 -1.3912  1.8780  0.3332
40067TIP3    H221084   5.463   0.531   7.748  0.7262 -1.6429  0.4729
40068TIP3   OH221085   9.620   3.557   7.098 -0.1105  0.0973 -0.2290
40068TIP3    H121086   9.662   3.611   7.032 -1.3416  1.8744  0.3476
40068TIP3    H221087   9.581   3.485   7.049  0.3398  0.5124 -1.2228
40069TIP3   OH221088   2.998   7.829   9.831  0.2096 -0.6715 -0.1299
40069TIP3    H121089   3.087   7.823   9.866  0.4907  1.6933 -0.2531
40069TIP3    H221090   3.006   7.805   9.739  0.2863 -2.5902  0.3511
40070TIP3   OH221091   8.930   7.342   3.941 -0.2057  0.6058  0.7589
40070TIP3    H121092   8.958   7.429   3.913  2.1274  0.9338  3.6146
40070TIP3    H221093   8.993   7.283   3.899 -0.4229  0.4894  0.5922
40071TIP3   OH221094  10.602   1.925   0.038  0.2935 -0.2305  0.2697
40071TIP3    H121095  10.634   1.928  -0.052  0.7901 -0.7019  0.4200
40071TIP3    H221096  10.663   1.980   0.087 -0.2496  0.4000  0.2405
40072TIP3   OH221097   4.074   2.156  10.540 -0.1857 -0.0890  0.3787
40072TIP3    H121098   4.166   2.181  10.530 -0.6657  1.5434 -0.4071
40072TIP3    H221099   4.063   2.141  10.634  0.8237 -0.0517  0.5145
40073TIP3   OH221100   6.213   3.274   9.421 -0.4216 -0.5040 -0.2861
40073TIP3    H121101   6.185   3.224   9.344  0.2056  0.9703 -1.5206
40073TIP3    H221102   6.157   3.351   9.421 -0.2568 -0.3725  0.6258
40074TIP3   OH221103  10.488   8.787   0.232 -0.1435 -0.1518  0.3196
40074TIP3    H121104  10.554   8.799   0.164 -0.4574  1.5241  0.2642
40074TIP3    H221105  10.458   8.697   0.222 -1.2324  0.4504 -2.7253
40075TIP3   OH221106   5.316   7.322   0.997 -0.1003 -0.3445  0.1335
40075TIP3    H121107   5.274   7.400   1.035  0.5250 -0.1291  0.3906
40075TIP3    H221108   5.390   7.304   1.055  0.2742 -0.6133 -0.4218
40076TIP3   OH221109   8.910   0.601  10.550 -0.1822 -0.3985  0.2973
40076TIP3    H121110   8.851   0.616  10.624 -0.1269 -0.8331  0.4275
40076TIP3    H221111   8.950   0.687  10.534  0.1223 -0.3997  1.0410
40077TIP3   OH221112   5.937   3.156  10.193  0.4594  0.3184  0.2003
40077TIP3    H121113   5.973   3.131  10.107 -1.5571 -1.5408 -0.1932
40077TIP3    H221114   5.863   3.213  10.172  1.1030  1.4213  0.8392
40078TIP3   OH221115   5.045   7.220   0.075  0.3771 -0.0027  0.2455
40078TIP3    H121116   4.993   7.185   0.147  0.2046 -1.8730 -0.7278
40078TIP3    H221117   5.086   7.299   0.111 -1.4054  0.3272  1.6938
40079TIP3   OH221118   9.492   4.423   8.092  0.1903 -0.0145  0.8710
40079TIP3    H121119   9.574   4.470   8.099  0.8509 -1.1638  1.2019
40079TIP3    H221120   9.443   4.446   8.171 -1.5769  3.7411 -1.0340
40080TIP3   OH221121   5.628   2.093   5.563 -0.0562  0.2368 -0.1550
40080TIP3    H121122   5.533   2.090   5.581 -0.3637 -0.4051 -1.7607
40080TIP3    H221123   5.666   2.126   5.644 -1.6755  0.6733  0.4668
40081TIP3   OH221124   7.254   2.112   9.636 -0.4624 -0.1425  0.1422
40081TIP3    H121125   7.191   2.121   9.708 -0.4540 -0.7256  0.2234
40081TIP3    H221126   7.329   2.068   9.675 -0.0954  0.3377 -0.0124
40082TIP3   OH221127   0.992   5.905   5.015  0.3561 -0.0857 -0.2651
40082TIP3    H121128   1.076   5.860   5.003  0.7743  0.6871 -0.2517
40082TIP3    H221129   0.993   5.934   5.106 -0.1068 -0.4190 -0.1456
40083TIP3   OH221130   7.316   2.878   9.014  0.4822  0.1291  0.2873
40083TIP3    H121131   7.239   2.931   9.031 -1.3898 -2.5571  0.8005
40083TIP3    H221132   7.298   2.837   8.929  1.8686  0.2930 -0.1083
40084TIP3   OH221133  10.902   3.495   3.405  0.0775 -0.5117  0.5862
40084TIP3    H121134  10.946   3.428   3.459 -0.7973 -1.8045 -0.2540
40084TIP3    H221135  10.809   3.482   3.423 -0.0763  1.8781  1.9729
40085TIP3   OH221136   9.679   2.799   7.990  0.0824 -0.3430 -0.6632
40085TIP3    H121137   9.680   2.714   8.033  0.1295 -0.9746 -1.8651
40085TIP3    H221138   9.743   2.851   8.038 -0.8346 -0.5722  0.8609
40086TIP3   OH221139   9.441   4.912   2.007  0.4216 -0.1880 -0.2796
40086TIP3    H121140   9.537   4.908   2.002  0.5016  1.2085 -0.3494
40086TIP3    H221141   9.411   4.888   1.919  0.5859 -2.5692  0.2559
40087TIP3   OH221142   8.816   2.688   0.535 -0.0786  0.0778 -0.3790
40087TIP3    H121143   8.852   2.679   0.623 -1.4766 -0.7884  0.1359
40087TIP3    H221144   8.857   2.618   0.485 -0.7999 -0.7314  0.1335
40088TIP3   OH221145  10.798   5.031   2.324 -0.4971 -0.2372 -0.0220
40088TIP3    H121146  10.713   5.075   2.328 -1.0090 -1.2306  0.3763
40088TIP3    H221147  10.779   4.945   2.285  0.5322 -0.0008 -1.0972
40089TIP3   OH221148   5.194   3.296   8.094  0.6684  0.9366 -0.5009
40089TIP3    H121149   5.101   3.293   8.074  0.6138 -0.7838 -0.0960
40089TIP3    H221150   5.212   3.389   8.108 -0.6721  1.4667 -1.9559
40090TIP3   OH221151   4.954  10.816   8.902 -0.1518  0.1754  0.0252
40090TIP3    H121152   5.027  10.760   8.927 -0.5965 -0.9068 -0.9993
40090TIP3    H221153   4.947  10.880   8.973  0.7251 -0.7217  0.9460
40091TIP3   OH221154  10.242   4.019  10.608 -0.3988 -0.0150 -0.2187
40091TIP3    H121155  10.234   4.032  10.514  1.1785  0.0064 -0.3697
40091TIP3    H221156  10.224   4.105  10.646 -0.7706  0.0391 -0.5149
40092TIP3   OH221157   3.718   7.336   0.555 -0.3214 -0.6721 -0.0895
40092TIP3    H121158   3.644   7.376   0.601 -1.0972  0.2719 -2.0260
40092TIP3    H221159   3.679   7.296   0.477  1.0385 -1.4664 -0.4018
40093TIP3   OH221160  10.579   3.938   1.156  0.4063  0.0577 -0.4058
40093TIP3    H121161  10.530   3.940   1.074 -0.1446 -0.6979 -0.1082
40093TIP3    H221162  10.658   3.990   1.138 -0.8223  1.9350 -0.6607
40094TIP3   OH221163   2.820   7.127   8.922  0.4968 -0.2200 -0.5671
40094TIP3    H121164   2.891   7.104   8.982  0.4133  0.4673 -0.1894
40094TIP3    H221165   2.753   7.060   8.936  0.3169  0.1427  0.3965
40095TIP3   OH221166   1.952   5.333   0.918  0.9736  0.4099  0.1830
40095TIP3    H121167   1.980   5.255   0.965  2.4807 -0.1436 -1.5278
40095TIP3    H221168   1.984   5.321   0.829 -0.5157  2.0742 -0.6538
40096TIP3   OH221169   4.190   7.702   6.371  0.1845  0.1513  0.4335
40096TIP3    H121170   4.242   7.780   6.350  0.4415 -0.0480  0.3319
40096TIP3    H221171   4.192   7.697   6.467  1.3537 -0.5307  0.3913
40097TIP3   OH221172   1.440   8.619   8.852  0.1220  0.3548 -0.7267
40097TIP3    H121173   1.413   8.674   8.925 -0.8902 -0.4914 -0.4392
40097TIP3    H221174   1.360   8.577   8.822  0.4766  0.8424 -2.4779
40098TIP3   OH221175   9.733   8.471   0.029 -0.3317 -0.0264  0.1770
40098TIP3    H121176   9.650   8.517   0.019 -0.6448 -0.9369 -1.8652
40098TIP3    H221177   9.799   8.539   0.013 -0.7421  0.1959 -0.6330
40099TIP3   OH221178   8.513   7.570  10.803 -0.5894  0.2004 -0.7504
40099TIP3    H121179   8.553   7.622  10.734 -0.3639  1.9964  0.6655
40099TIP3    H221180   8.545   7.481  10.789 -0.3453  0.5792 -2.7692
40100TIP3   OH221181   4.150  10.524   4.232 -0.5265  0.8706 -0.0975
40100TIP3    H121182   4.193  10.601   4.194  0.4662  0.9098  1.0722
40100TIP3    H221183   4.207  10.497   4.304 -0.2118 -1.7091 -1.2034
40101TIP3   OH221184   5.267   9.910   6.766  0.4293 -0.2446  0.1750
40101TIP3    H121185   5.252   9.993   6.720  0.9485  0.8604  1.9275
40101TIP3    H221186   5.298   9.850   6.697 -1.4561  0.5071 -1.4351
40102TIP3   OH221187   5.630   1.428   5.475  0.4986  0.8558  0.0660
40102TIP3    H121188   5.697   1.368   5.508 -0.9762 -0.7527  0.2452
40102TIP3    H221189   5.571   1.373   5.424 -1.4227  1.9688  0.9716
40103TIP3   OH221190   7.287   7.153   8.471 -0.7784  0.1551 -0.0828
40103TIP3    H121191   7.363   7.160   8.414 -1.1270 -1.6164 -0.8439
40103TIP3    H221192   7.229   7.224   8.443 -1.1845 -1.0035 -2.3832
40104TIP3   OH221193   3.203   2.229   6.379 -0.6959 -0.1067 -0.8049
40104TIP3    H121194   3.165   2.277   6.453  0.7113  3.6086 -2.2170
40104TIP3    H221195   3.127   2.199   6.328 -1.6626 -0.1735  0.6235
40105TIP3   OH221196   9.888   4.337   4.770  0.0919 -0.2019 -0.2030
40105TIP3    H121197   9.957   4.351   4.835 -0.3523 -1.0728  0.4847
40105TIP3    H221198   9.874   4.423   4.731  1.1446  0.1100  0.0651
40106TIP3   OH221199   0.817   1.845   2.368  0.5203 -0.2706  0.5055
40106TIP3    H121200   0.869   1.869   2.291 -1.8905 -0.1044 -1.1714
40106TIP3    H221201   0.848   1.757   2.391  1.6416 -0.1111 -0.3196
40107TIP3   OH221202   0.650  10.270   1.673 -0.4155  0.1511  0.2302
40107TIP3    H121203   0.729  10.216   1.678 -0.2744  0.3409  0.0808
40107TIP3    H221204   0.656  10.329   1.748  0.0204  0.7416 -0.2546
40108TIP3   OH221205   8.581   7.741   9.217 -0.0639 -0.1328  0.1629
40108TIP3    H121206   8.576   7.785   9.132  0.7989  0.9492  0.6455
40108TIP3    H221207   8.587   7.648   9.195  0.7023  0.1577 -0.9822
40109TIP3   OH221208   4.390   5.047   4.252 -0.2020  0.7268  0.1189
40109TIP3    H121209   4.339   5.041   4.171  0.1349 -1.1098  0.0210
40109TIP3    H221210   4.473   5.087   4.225  0.2707 -0.7262 -0.6360
40110TIP3   OH221211   8.402   8.029  10.049  0.1638 -0.2564 -0.0462
40110TIP3    H121212   8.409   8.069   9.962 -0.3004  0.2279  0.1386
40110TIP3    H221213   8.310   8.002  10.056 -0.3108  1.5134  1.0790
40111TIP3   OH221214   1.286   8.496  10.319 -0.2282 -0.4139 -0.8373
40111TIP3    H121215   1.235   8.560  10.269 -1.0918 -1.1238 -0.8829
40111TIP3    H221216   1.357   8.547  10.357 -1.1852  0.6750 -0.4617
40112TIP3   OH221217  10.079   0.803   1.173  0.0679  0.1951 -0.0833
40112TIP3    H121218  10.097   0.710   1.183 -3.8488 -0.5510  2.1378
40112TIP3    H221219  10.122   0.844   1.248 -0.2343 -0.2050  0.3095
40113TIP3   OH221220   9.470   3.373   4.853 -0.3706  0.4378 -0.1592
40113TIP3    H121221   9.503   3.424   4.927  0.3669  2.0617 -1.5264
40113TIP3    H221222   9.394   3.326   4.887  0.3663  0.5848  1.7831
40114TIP3   OH221223   3.087   8.470   6.978  0.1828  0.7436 -0.0072
40114TIP3    H121224   2.998   8.440   6.958  1.2168 -2.8543  0.0080
40114TIP3    H221225   3.130   8.476   6.893  0.7640 -0.7278  0.1617
40115TIP3   OH221226   6.597  10.481   1.408 -0.4605 -0.1545 -0.2303
40115TIP3    H121227   6.620  10.557   1.354  1.3764  0.9682  1.9784
40115TIP3    H221228   6.629  10.406   1.359  1.1415  0.8304 -0.7802
40116TIP3   OH221229   9.570   3.494   7.724  0.0402  0.7840 -0.2148
40116TIP3    H121230   9.506   3.469   7.657  0.7845  2.2182 -1.5482
40116TIP3    H221231   9.628   3.556   7.679  1.0586  1.1889  1.5622
40117TIP3   OH221232   6.480   7.492   8.778  0.0110 -0.6846  0.0253
40117TIP3    H121233   6.403   7.541   8.749  0.5457  1.2944  1.6656
40117TIP3    H221234   6.520   7.459   8.697 -1.4981 -0.0949 -0.9948
40118TIP3   OH221235   6.696   0.943   5.410 -0.2535  0.0162 -0.5440
40118TIP3    H121236   6.751   0.964   5.486 -1.3679  0.5450  0.1532
40118TIP3    H221237   6.718   1.010   5.345  0.2639 -0.0647 -0.4542
40119TIP3   OH221238   9.760   2.555   1.394 -0.1079 -0.1765 -0.2611
40119TIP3    H121239   9.746   2.469   1.436 -2.1361 -0.1365 -0.7436
40119TIP3    H221240   9.855   2.563   1.388  0.2120 -1.2494  2.1192
40120TIP3   OH221241   9.339   7.138   8.723  0.1826 -0.4983  0.2817
40120TIP3    H121242   9.268   7.198   8.700 -0.2055 -1.5879 -1.4977
40120TIP3    H221243   9.410   7.161   8.663 -0.8596 -3.4253 -2.2883
40121TIP3   OH221244   7.834   4.143   1.607 -0.0828 -0.0063  0.4202
40121TIP3    H121245   7.740   4.146   1.588 -0.1399 -0.8107  0.5172
40121TIP3    H221246   7.852   4.224   1.654 -0.1395  1.5547 -2.1225
40122TIP3   OH221247   4.846   1.199   6.551  0.0147  0.0310 -0.0911
40122TIP3    H121248   4.802   1.247   6.480  1.8151  0.7254 -0.7768
40122TIP3    H221249   4.825   1.107   6.534  0.1196  0.2221 -1.3202
40123TIP3   OH221250   2.518   2.041   4.956  1.3683 -1.3064 -0.7629
40123TIP3    H121251   2.481   2.030   4.869 -1.7382  0.4355  0.2126
40123TIP3    H221252   2.584   2.110   4.945 -1.5006  1.5589 -1.2403
40124TIP3   OH221253   7.190   9.836   2.722  0.0246  0.2571 -0.0482
40124TIP3    H121254   7.154   9.854   2.635 -2.2559 -3.0313  0.0643
40124TIP3    H221255   7.285   9.832   2.708 -0.1904  1.0520 -2.0756
40125TIP3   OH221256   9.725   3.751   9.127 -0.1884 -0.0051  0.1576
40125TIP3    H121257   9.791   3.760   9.059  0.0315 -1.4368  0.1575
40125TIP3    H221258   9.642   3.745   9.080 -0.6161  3.5257  0.2021
40126TIP3   OH221259   0.402   5.214   5.176  0.1486 -0.7773  0.1023
40126TIP3    H121260   0.428   5.125   5.197  0.6133 -0.7251 -0.2559
40126TIP3    H221261   0.466   5.244   5.112  0.5179  0.1211  0.8655
40127TIP3   OH221262   2.089  10.515   1.653  0.1359 -0.6038  0.5715
40127TIP3    H121263   2.172  10.533   1.696  1.8883 -0.7466 -2.4736
40127TIP3    H221264   2.035  10.592   1.672  1.0982 -0.2855  2.1920
40128TIP3   OH221265   1.362   2.289   9.654 -0.0651  0.3539 -0.3648
40128TIP3    H121266   1.273   2.275   9.623  0.6792  0.3921 -2.6790
40128TIP3    H221267   1.353   2.297   9.749 -2.4194 -0.3485 -0.4639
40129TIP3   OH221268   2.882   3.423   6.860 -0.3179  0.0521  0.0935
40129TIP3    H121269   2.863   3.337   6.825  0.9189 -0.2958  0.2234
40129TIP3    H221270   2.799   3.471   6.854 -0.6571 -0.6545 -1.3648
40130TIP3   OH221271   4.014   8.781   7.063  0.7279  0.0065  0.5612
40130TIP3    H121272   4.031   8.868   7.026  0.7103  0.0857  0.7366
40130TIP3    H221273   4.032   8.791   7.157 -0.0026  0.0173  0.7033
40131TIP3   OH221274   6.944   5.613   4.504  0.1838  0.4223  0.0056
40131TIP3    H121275   6.993   5.660   4.572  0.0674  0.5194  0.0230
40131TIP3    H221276   6.972   5.522   4.513 -0.5333  0.2680  0.8052
40132TIP3   OH221277   7.667   0.535   4.959  0.0360 -0.2675 -0.2310
40132TIP3    H121278   7.573   0.552   4.952  0.2243  0.5367 -1.0635
40132TIP3    H221279   7.674   0.465   5.023 -1.0218  0.8755  1.2137
40133TIP3   OH221280   3.286   5.754   6.668 -0.7306 -0.4708 -0.1906
40133TIP3    H121281   3.350   5.812   6.710 -2.2233  0.8204  0.4123
40133TIP3    H221282   3.268   5.687   6.733  0.0491 -0.9022 -0.4010
40134TIP3   OH221283   5.321   9.618  10.312 -0.6047 -0.4670  0.0382
40134TIP3    H121284   5.331   9.549  10.246  3.7287  0.1275 -0.2507
40134TIP3    H221285   5.361   9.582  10.391 -1.3564  0.5446  0.9055
40135TIP3   OH221286   1.000   5.546   9.130  0.0133  0.9809  0.0200
40135TIP3    H121287   1.072   5.566   9.070  0.0613  2.1107  0.4185
40135TIP3    H221288   0.933   5.507   9.075  0.9362 -0.1294 -0.3522
40136TIP3   OH221289   5.772   3.759   8.296  0.5908 -0.1222  0.2165
40136TIP3    H121290   5.784   3.744   8.202  0.6138  0.4935  0.1212
40136TIP3    H221291   5.718   3.837   8.301 -0.1949 -0.6805  0.7051
40137TIP3   OH221292   6.013   5.469   2.168 -0.1511 -0.0809 -0.3840
40137TIP3    H121293   6.056   5.437   2.248 -0.0342 -1.1683 -0.8558
40137TIP3    H221294   5.925   5.493   2.197  0.2381  0.5875  0.2766
40138TIP3   OH221295   5.902   4.340   0.892 -0.1667  0.2641 -0.7714
40138TIP3    H121296   5.843   4.278   0.935  0.1457  1.0521  0.9052
40138TIP3    H221297   5.942   4.389   0.965  1.4751  0.7208 -1.9135
40139TIP3   OH221298   9.639   0.297   1.483 -0.1334 -0.1270 -0.0419
40139TIP3    H121299   9.701   0.334   1.546  0.3624 -2.3085  0.8441
40139TIP3    H221300   9.557   0.344   1.500  0.3163  0.2096  1.3712
40140TIP3   OH221301   3.886   8.076   7.996 -0.3705  0.0411 -0.1744
40140TIP3    H121302   3.919   8.044   8.080  0.1521 -0.2620 -0.4897
40140TIP3    H221303   3.809   8.022   7.979  0.8288 -1.5202 -0.9821
40141TIP3   OH221304   7.087   0.654  10.272 -0.0389  0.1725  0.8145
40141TIP3    H121305   7.061   0.565  10.295 -0.2501  0.0146  0.0018
40141TIP3    H221306   7.165   0.642  10.217 -0.1091  0.4839  0.6472
40142TIP3   OH221307   6.360   8.382   2.819 -0.1910  0.4333  0.7198
40142TIP3    H121308   6.293   8.337   2.768  2.2594  0.9598 -3.4508
40142TIP3    H221309   6.416   8.312   2.852 -0.9699  0.1427  1.4540
40143TIP3   OH221310   5.559   2.089   7.338 -0.3280 -0.4238  0.0283
40143TIP3    H121311   5.558   2.165   7.397 -0.4660 -0.3744 -0.0354
40143TIP3    H221312   5.479   2.041   7.360 -1.1097  0.3341 -1.0645
40144TIP3   OH221313   4.677   4.388   3.941  0.0430  0.2343  0.5000
40144TIP3    H121314   4.595   4.418   3.901  0.3556  1.6849  0.8900
40144TIP3    H221315   4.735   4.372   3.867  0.0314  1.1406  0.2779
40145TIP3   OH221316   1.443   7.438   7.988  0.1474  0.0589  0.1589
40145TIP3    H121317   1.461   7.482   7.905 -2.4464  0.7217 -0.1590
40145TIP3    H221318   1.441   7.509   8.053  1.9847 -0.4313  0.8084
40146TIP3   OH221319   9.114   4.247   4.518 -0.2346  0.3306 -0.3771
40146TIP3    H121320   9.027   4.281   4.540 -0.7883 -1.2835  0.1008
40146TIP3    H221321   9.163   4.253   4.600 -1.4215 -3.0686  0.7684
40147TIP3   OH221322  10.338   6.699   3.019  0.2271  0.1190 -0.5287
40147TIP3    H121323  10.317   6.772   2.960  0.3983  0.0009 -0.7338
40147TIP3    H221324  10.403   6.647   2.972 -0.3698 -0.5268 -0.6527
40148TIP3   OH221325   2.677   8.072   7.743  0.5144 -0.3207 -0.0737
40148TIP3    H121326   2.584   8.076   7.766  0.8073 -0.3722  1.1903
40148TIP3    H221327   2.683   8.117   7.659 -1.0943 -2.7760 -1.6462
40149TIP3   OH221328   6.550   1.425   5.155  0.3392 -0.7316  0.0458
40149TIP3    H121329   6.562   1.476   5.235 -1.8561 -0.9432  0.5618
40149TIP3    H221330   6.481   1.470   5.108  1.5994 -0.6139 -1.7881
40150TIP3   OH221331  10.578   1.305   9.932 -0.1020 -0.0332 -0.1826
40150TIP3    H121332  10.558   1.215   9.907  0.5222 -0.0034 -0.8168
40150TIP3    H221333  10.578   1.353   9.850 -0.2998  0.5225  0.1401
40151TIP3   OH221334   0.862   7.023  10.419 -0.1840 -0.3206 -0.9105
40151TIP3    H121335   0.839   6.935  10.449 -0.9174  0.4027  0.7992
40151TIP3    H221336   0.941   7.045  10.469 -1.0408  0.6527  0.0739
40152TIP3   OH221337   8.989   5.625   3.819  0.0780  0.0128 -0.3804
40152TIP3    H121338   8.987   5.563   3.892  0.6860  0.4312  0.0056
40152TIP3    H221339   9.030   5.578   3.747 -0.1936 -0.2869 -0.3385
40153TIP3   OH221340   7.734   8.113   0.823 -0.2576 -0.0856 -0.6765
40153TIP3    H121341   7.829   8.106   0.830 -0.2900 -0.2250 -0.3563
40153TIP3    H221342   7.701   8.030   0.858 -0.4351 -1.1182 -3.0605
40154TIP3   OH221343   2.173   0.324   3.929  0.2688 -0.2457  0.3441
40154TIP3    H121344   2.085   0.336   3.892 -0.6941  3.0151  3.1483
40154TIP3    H221345   2.219   0.405   3.907  0.7568  0.3233  3.1453
40155TIP3   OH221346  10.622   7.292   3.157  0.1568  0.0302 -0.2977
40155TIP3    H121347  10.709   7.284   3.117 -0.2128 -0.0616 -1.0981
40155TIP3    H221348  10.605   7.205   3.194  0.1345 -0.1338 -0.6951
40156TIP3   OH221349   6.341   2.597  10.882 -0.3079  0.3348 -0.2340
40156TIP3    H121350   6.315   2.529  10.820  0.0036  0.7063 -0.7774
40156TIP3    H221351   6.416   2.559  10.929 -0.7639 -0.0829  0.1687
40157TIP3   OH221352   1.160   4.694   9.666  0.3056 -0.0230 -0.3695
40157TIP3    H121353   1.122   4.747   9.595 -0.3099 -0.7189 -0.5721
40157TIP3    H221354   1.240   4.656   9.627  0.1210 -0.1758 -0.6050
40158TIP3   OH221355  10.011   6.752   7.272 -0.6949 -0.2066  0.2447
40158TIP3    H121356  10.037   6.816   7.206 -1.0834 -0.0331  0.2541
40158TIP3    H221357  10.071   6.679   7.260 -0.7666 -0.1812 -0.3084
40159TIP3   OH221358   3.179   3.034   3.079 -0.0545  0.0770  0.0650
40159TIP3    H121359   3.086   3.034   3.053  0.0227 -1.4173 -0.3327
40159TIP3    H221360   3.226   3.047   2.997  0.0927  0.9865  0.2895
40160TIP3   OH221361   4.690   2.650   5.062 -0.0032 -0.2801  0.1418
40160TIP3    H121362   4.595   2.642   5.073 -0.1582  0.5589 -0.5003
40160TIP3    H221363   4.701   2.696   4.979  0.9831 -0.6981  0.0255
40161TIP3   OH221364   9.494   4.604  10.284 -0.2214  0.1869  0.0345
40161TIP3    H121365   9.520   4.661  10.212 -1.5951  2.5788  1.2645
40161TIP3    H221366   9.552   4.629  10.356  1.2053 -2.2325 -0.1803
40162TIP3   OH221367   8.995   7.104   8.305  0.1353  0.2516  0.0734
40162TIP3    H121368   9.080   7.074   8.338  0.5807  0.4359 -0.8627
40162TIP3    H221369   8.970   7.174   8.365 -0.1810 -0.9132  1.3637
40163TIP3   OH221370  10.847  10.223   4.315 -0.0546  0.1885  0.0880
40163TIP3    H121371  10.886  10.153   4.264  0.7454  0.6539  0.0396
40163TIP3    H221372  10.808  10.282   4.250 -2.9911 -1.4435  0.2047
40164TIP3   OH221373   2.398  10.128   3.952 -0.3382  0.1630 -0.3996
40164TIP3    H121374   2.466  10.068   3.922 -0.0066  0.2023  0.2604
40164TIP3    H221375   2.441  10.214   3.954 -0.1480  0.0472  0.8512
40165TIP3   OH221376   6.006   1.850   8.258 -0.1695  0.4145 -0.1940
40165TIP3    H121377   6.083   1.877   8.208  0.3105  0.7412  0.6800
40165TIP3    H221378   5.958   1.792   8.200  2.0427 -1.8546  0.0672
40166TIP3   OH221379   9.664   0.385   2.186 -0.0251  0.1999  0.0347
40166TIP3    H121380   9.729   0.411   2.121  0.1641 -1.8215 -0.6706
40166TIP3    H221381   9.587   0.439   2.167  1.1703  2.1528  0.4623
40167TIP3   OH221382  10.333   8.549   8.290 -0.0978  0.3318  0.1917
40167TIP3    H121383  10.364   8.510   8.372 -2.8489 -2.4677  0.0740
40167TIP3    H221384  10.264   8.609   8.318  0.8832  1.5988  0.0195
40168TIP3   OH221385   4.732   1.767   7.864  0.4213  0.2112  0.3106
40168TIP3    H121386   4.644   1.759   7.827  0.1391 -0.1838  1.0590
40168TIP3    H221387   4.721   1.824   7.940  1.1650  1.8087 -0.7126
40169TIP3   OH221388  10.504   6.124   7.577 -0.5714  0.0658  0.6567
40169TIP3    H121389  10.527   6.118   7.670 -1.1249 -0.7203  0.7520
40169TIP3    H221390  10.464   6.039   7.557  1.4388 -0.6116 -0.8110
40170TIP3   OH221391   3.201   2.484   3.696  0.1491 -0.0224 -0.1962
40170TIP3    H121392   3.292   2.456   3.704  0.8077  1.9347 -0.4693
40170TIP3    H221393   3.157   2.409   3.655  1.7122 -0.8233 -0.4929
40171TIP3   OH221394   7.570   1.177   5.712 -0.1918 -0.1780  0.4277
40171TIP3    H121395   7.557   1.102   5.654 -2.1037 -0.4635  1.1476
40171TIP3    H221396   7.547   1.143   5.799 -0.2879  1.0227  0.8882
40172TIP3   OH221397   3.621   2.136   8.720  0.2500  0.0213 -0.2007
40172TIP3    H121398   3.579   2.182   8.793 -2.7422 -0.4950 -1.4581
40172TIP3    H221399   3.626   2.045   8.749  1.5702  0.2331  0.3353
40173TIP3   OH221400   9.864   7.253   8.450 -0.2788  0.8262  0.0691
40173TIP3    H121401   9.937   7.254   8.388 -1.4606 -0.9287 -1.4650
40173TIP3    H221402   9.906   7.241   8.536  1.2658  0.6714 -0.6647
40174TIP3   OH221403   6.130   4.380   9.997 -0.4072 -0.1012 -0.0989
40174TIP3    H121404   6.162   4.308   9.943 -0.3623  1.5648 -2.4509
40174TIP3    H221405   6.039   4.393   9.969 -0.5114  0.5590  0.5068
40175TIP3   OH221406   5.313   3.014   0.249  0.7929 -0.3815 -0.1755
40175TIP3    H121407   5.218   3.028   0.242  0.8684  1.1813  1.2304
40175TIP3    H221408   5.343   3.007   0.158 -0.4532  0.8906 -0.7178
40176TIP3   OH221409   7.298   9.465   0.365  0.4153  0.1509  0.4672
40176TIP3    H121410   7.307   9.560   0.378  0.5054  0.5732 -2.0190
40176TIP3    H221411   7.249   9.458   0.282  1.6635 -1.9491 -0.1520
40177TIP3   OH221412   7.562  10.343   1.170  0.6024 -0.1460 -0.9473
40177TIP3    H121413   7.599  10.431   1.183 -1.4603  0.9064 -1.6921
40177TIP3    H221414   7.518  10.324   1.253  0.6077 -0.2352 -0.9656
40178TIP3   OH221415   7.619   5.313   4.919  0.0483  0.4442  0.0187
40178TIP3    H121416   7.677   5.268   4.980 -1.9462 -1.4500  0.6423
40178TIP3    H221417   7.535   5.268   4.927 -1.3658  2.6201 -1.3292
40179TIP3   OH221418   4.508   5.097   4.788 -0.5713  0.1708 -0.7605
40179TIP3    H121419   4.551   5.052   4.715  0.2575  0.2243 -0.3240
40179TIP3    H221420   4.580   5.123   4.846 -0.8850  2.8497 -1.4155
40180TIP3   OH221421   8.484   7.249   8.351 -0.2291  0.2011  0.4646
40180TIP3    H121422   8.536   7.214   8.423  1.3500 -0.9303 -1.1262
40180TIP3    H221423   8.450   7.172   8.306 -3.6253  0.9002  1.5649
40181TIP3   OH221424   2.451   2.054  10.230  0.6243  0.5560  0.6363
40181TIP3    H121425   2.481   1.967  10.206 -0.4037  0.2044  0.5586
40181TIP3    H221426   2.527   2.110  10.219  0.7452  0.0598 -1.5229
40182TIP3   OH221427  10.791   1.986   3.723  0.0833 -0.0880 -0.2426
40182TIP3    H121428  10.800   1.937   3.641  0.4351 -1.0564  0.3632
40182TIP3    H221429  10.697   1.996   3.735 -0.2658 -3.8861  1.4698
40183TIP3   OH221430   9.808   3.668   6.083  0.1610 -0.1042 -0.3420
40183TIP3    H121431   9.758   3.637   6.158 -0.2538 -2.0210 -1.3308
40183TIP3    H221432   9.770   3.621   6.008  0.5906  1.6833 -1.7466
40184TIP3   OH221433   3.543   0.912   4.772 -0.7636 -0.3719 -0.3233
40184TIP3    H121434   3.509   0.834   4.815 -0.5007  0.3142  1.2194
40184TIP3    H221435   3.541   0.979   4.840  2.1381  0.1072 -0.5750
40185TIP3   OH221436   7.837   2.783   8.415 -0.7011  0.3196  0.1732
40185TIP3    H121437   7.761   2.726   8.423 -1.5667  1.1991 -1.2605
40185TIP3    H221438   7.846   2.824   8.501 -2.2250  0.6404  0.2097
40186TIP3   OH221439   9.210   9.123   2.824  0.1770 -0.4919  0.7800
40186TIP3    H121440   9.238   9.108   2.914  0.9226 -1.8768  0.3491
40186TIP3    H221441   9.287   9.104   2.771  0.0074  1.1713 -0.1252
40187TIP3   OH221442   8.655   8.302   1.261  0.4973 -0.0826 -1.1479
40187TIP3    H121443   8.648   8.342   1.175  1.8704 -0.4937 -1.4710
40187TIP3    H221444   8.570   8.261   1.276 -0.7910  2.4656 -1.0109
40188TIP3   OH221445   0.593   7.998   6.943  0.2932  0.3229 -0.2066
40188TIP3    H121446   0.572   7.942   7.018 -1.5031  0.1213 -0.8355
40188TIP3    H221447   0.679   8.035   6.965  0.8747 -1.5274  0.8876
40189TIP3   OH221448   8.417   3.088   4.552  0.0326 -0.3917 -0.3593
40189TIP3    H121449   8.403   3.033   4.630  1.2584 -0.9541 -0.5192
40189TIP3    H221450   8.475   3.037   4.497 -0.9024 -0.0319 -1.7168
40190TIP3   OH221451   7.827   1.626   7.256 -0.4831  0.0131  0.5227
40190TIP3    H121452   7.810   1.681   7.180 -1.4318 -0.8762  0.0753
40190TIP3    H221453   7.821   1.686   7.330 -2.3827  0.3821  0.1246
40191TIP3   OH221454   7.121   3.017   4.067  0.1053 -0.4756 -0.3337
40191TIP3    H121455   7.159   2.966   3.995  2.6310  1.5499 -0.6099
40191TIP3    H221456   7.050   3.067   4.027 -0.1412 -1.1991 -0.8216
40192TIP3   OH221457   9.585   1.234   3.404 -0.4461 -0.0093  0.2167
40192TIP3    H121458   9.642   1.191   3.468  0.4859  4.2363  2.5656
40192TIP3    H221459   9.506   1.257   3.453 -1.1504  0.4969 -1.0862
40193TIP3   OH221460   9.009   3.367   0.336 -0.3245 -0.0042 -0.4178
40193TIP3    H121461   9.080   3.417   0.376 -0.9505 -0.2490  1.0844
40193TIP3    H221462   9.010   3.393   0.244  0.8224  1.0229 -0.1492
40194TIP3   OH221463   3.105   0.808   5.920  0.2018  0.2080  0.3292
40194TIP3    H121464   3.177   0.755   5.954 -0.0946 -0.4039  0.0130
40194TIP3    H221465   3.135   0.898   5.932  1.4388 -0.0263 -0.6388
40195TIP3   OH221466   3.062  10.469   3.588 -0.5800 -0.9751 -0.7190
40195TIP3    H121467   2.979  10.440   3.626 -1.1385  0.9052 -0.3964
40195TIP3    H221468   3.040  10.495   3.499 -0.9831  2.0072  0.1429
40196TIP3   OH221469   9.104   7.797   0.409 -0.1142 -0.2056 -0.8984
40196TIP3    H121470   9.158   7.721   0.431  0.0749 -0.1903 -1.3038
40196TIP3    H221471   9.105   7.800   0.314 -0.7827 -0.1678 -0.9072
40197TIP3   OH221472   7.923   7.182   0.748  0.2196 -0.1438 -0.2928
40197TIP3    H121473   7.828   7.166   0.741  0.1746 -0.1309  0.2549
40197TIP3    H221474   7.962   7.110   0.699 -0.0776  0.0046 -0.7635
40198TIP3   OH221475   6.249   4.553   9.452  0.3488  0.4567 -0.7123
40198TIP3    H121476   6.317   4.606   9.493  2.2033 -2.0327 -0.3299
40198TIP3    H221477   6.168   4.582   9.493  1.1929  3.0614 -0.6968
40199TIP3   OH221478   7.004   9.608   1.117  0.2047 -0.4723  0.2063
40199TIP3    H121479   6.938   9.671   1.148  0.5053  0.5423 -1.1189
40199TIP3    H221480   6.972   9.581   1.031  0.9604 -0.8120  0.0237
40200TIP3   OH221481   3.556   3.051   2.596 -0.0937 -0.7888  0.4883
40200TIP3    H121482   3.476   3.083   2.553  0.5921 -1.2834 -1.2297
40200TIP3    H221483   3.572   2.966   2.556  0.8516 -1.0623  1.4250
40201TIP3   OH221484   5.628  10.848   9.481  0.3347 -0.4423  0.5642
40201TIP3    H121485   5.705  10.791   9.481  0.3362 -0.4896 -1.4225
40201TIP3    H221486   5.657  10.929   9.439 -0.0220  0.5691  2.1794
40202TIP3   OH221487   0.726   7.006   4.662 -0.3141  0.6137 -0.1304
40202TIP3    H121488   0.703   6.947   4.591 -1.9034 -0.3424  1.1012
40202TIP3    H221489   0.778   7.075   4.621 -0.6332 -0.2466 -2.0741
40203TIP3   OH221490   9.875   2.415   6.373 -0.2799 -0.5740 -0.4160
40203TIP3    H121491   9.949   2.358   6.393 -0.2666 -0.5173 -0.3058
40203TIP3    H221492   9.874   2.479   6.443  0.2631  0.1117 -1.0224
40204TIP3   OH221493   8.838   1.494  10.284  0.1658  0.5209 -0.0626
40204TIP3    H121494   8.884   1.421  10.243  1.1545  1.2069 -0.2072
40204TIP3    H221495   8.747   1.464  10.291  0.2236 -0.1237 -1.5683
40205TIP3   OH221496   5.250   6.575   4.572 -0.1695 -0.1719  0.4872
40205TIP3    H121497   5.248   6.634   4.647 -0.2597 -1.1150  1.2415
40205TIP3    H221498   5.337   6.587   4.534 -0.4709  1.0412  0.1294
40206TIP3   OH221499   8.033   2.537   9.988 -0.3749  0.7019  0.0270
40206TIP3    H121500   8.097   2.470   9.962 -0.5849 -0.8438  3.0481
40206TIP3    H221501   8.068   2.618   9.951  1.6043 -0.5769 -1.1171
40207TIP3   OH221502   6.433   3.203   8.554  0.1859  0.0100  0.2108
40207TIP3    H121503   6.407   3.175   8.641  1.6540 -0.2548  0.6028
40207TIP3    H221504   6.507   3.146   8.532  0.3238  0.5838 -0.8862
40208TIP3   OH221505   2.282  10.053   9.009 -0.0647 -0.2783 -0.3164
40208TIP3    H121506   2.273  10.144   8.982 -0.0479  0.6490  2.4730
40208TIP3    H221507   2.231  10.003   8.945  2.1762  1.2739 -3.5778
40209TIP3   OH221508   6.309   8.137   9.953 -0.0650  0.7491 -0.4332
40209TIP3    H121509   6.281   8.051   9.921  0.5789  0.7956 -1.1522
40209TIP3    H221510   6.323   8.188   9.873  3.0264  0.4301 -0.2175
40210TIP3   OH221511   3.389   5.088   3.838 -0.2476  0.5905  0.0211
40210TIP3    H121512   3.396   5.018   3.773  0.4501  1.8626 -1.3015
40210TIP3    H221513   3.307   5.132   3.817 -0.2194  0.7657  0.2743
40211TIP3   OH221514   1.471   4.489   5.078 -0.5479  0.0104  0.1658
40211TIP3    H121515   1.412   4.461   5.147 -1.2348 -0.5362 -0.6238
40211TIP3    H221516   1.549   4.435   5.089  0.1137  1.1889  1.6198
40212TIP3   OH221517   2.728   0.981   9.375  0.0725 -0.0697  0.0156
40212TIP3    H121518   2.731   0.890   9.346 -1.3040 -0.5701  1.2890
40212TIP3    H221519   2.759   1.031   9.300  0.1203 -1.5344 -0.9911
40213TIP3   OH221520   2.529   8.266   8.733  0.1756 -0.4327  0.4151
40213TIP3    H121521   2.497   8.355   8.716  1.3567 -0.2586 -1.0661
40213TIP3    H221522   2.453   8.210   8.716 -0.2509  0.1972  0.1790
40214TIP3   OH221523   7.663   2.182   6.748  0.0123 -0.0311  0.0010
40214TIP3    H121524   7.705   2.268   6.736  2.2671 -0.7290  2.1051
40214TIP3    H221525   7.623   2.187   6.835 -0.2389 -0.9755 -0.0553
40215TIP3   OH221526   3.694   8.369   4.861  0.3402  0.5227 -0.6526
40215TIP3    H121527   3.774   8.339   4.818  2.7142  1.6189  2.6589
40215TIP3    H221528   3.642   8.290   4.874  2.2018 -0.7016 -0.3603
40216TIP3   OH221529   7.663  10.110   6.299 -0.0439  0.0701 -0.5439
40216TIP3    H121530   7.587  10.166   6.290  0.2042  0.8244  1.4926
40216TIP3    H221531   7.660  10.052   6.223 -2.7237 -0.0306 -0.4477
40217TIP3   OH221532   5.181   6.064   1.617  0.3404 -0.0272 -0.7239
40217TIP3    H121533   5.244   6.133   1.635  0.0829  0.1256 -0.3996
40217TIP3    H221534   5.202   6.035   1.528  0.5943  0.3101 -0.7762
40218TIP3   OH221535   7.126   8.246   2.836  0.4847  0.0630  0.4544
40218TIP3    H121536   7.092   8.282   2.754 -0.8561 -1.0154  0.4968
40218TIP3    H221537   7.219   8.232   2.819  0.1936 -0.3391 -0.9696
40219TIP3   OH221538   9.310   8.990   7.145  0.3965  0.8037  0.0399
40219TIP3    H121539   9.333   8.970   7.236  1.1537  1.0595 -0.0861
40219TIP3    H221540   9.291   8.905   7.105  0.4691  0.6527  0.3256
40220TIP3   OH221541  10.523   8.040   7.221 -0.4872  0.1818  0.3674
40220TIP3    H121542  10.604   8.040   7.273  0.1124 -0.7287 -0.5280
40220TIP3    H221543  10.486   7.953   7.236 -0.5626  0.0886 -0.3241
40221TIP3   OH221544  10.021  10.079   9.453  0.4458  0.0776 -0.1091
40221TIP3    H121545  10.076  10.092   9.376  0.4168  1.8129  0.1191
40221TIP3    H221546   9.961  10.009   9.428  0.6437  0.3870 -1.5531
40222TIP3   OH221547   2.374   9.235   4.890  0.0094 -0.4779 -0.7504
40222TIP3    H121548   2.360   9.297   4.819  1.4556  1.5715  0.6278
40222TIP3    H221549   2.435   9.279   4.949 -1.1876 -2.0144  1.8436
40223TIP3   OH221550   0.693   4.208   3.836 -0.0264 -0.8777  0.3902
40223TIP3    H121551   0.672   4.202   3.929  0.7554  1.0613  0.7422
40223TIP3    H221552   0.612   4.183   3.791 -0.1656 -2.6893  1.5388
40224TIP3   OH221553   5.729   8.192   4.563  0.1440 -0.0133 -0.3434
40224TIP3    H121554   5.699   8.240   4.641 -0.0883 -0.7935  0.0506
40224TIP3    H221555   5.662   8.125   4.549 -0.0022  0.3279 -1.4267
40225TIP3   OH221556   5.976   7.874   0.344  0.7374  0.3642 -0.7384
40225TIP3    H121557   6.020   7.807   0.291 -0.6807  0.0269 -1.5804
40225TIP3    H221558   6.010   7.957   0.311 -1.3064  0.2673 -3.5256
40226TIP3   OH221559  10.320   7.051   9.062  0.3133 -0.0337  0.2749
40226TIP3    H121560  10.226   7.056   9.076  0.4769 -0.6088  1.7005
40226TIP3    H221561  10.340   6.958   9.063  0.7317  0.0087 -1.3683
40227TIP3   OH221562   0.884   7.613   3.016  0.2630 -0.2497  0.3528
40227TIP3    H121563   0.880   7.532   2.965 -1.1463 -0.0581  0.1077
40227TIP3    H221564   0.821   7.671   2.973 -0.8893 -0.0410  2.2214
40228TIP3   OH221565   6.038   5.935   6.207 -0.3784  0.5673  0.4727
40228TIP3    H121566   6.032   5.846   6.241 -2.1835 -0.1635 -1.5109
40228TIP3    H221567   6.092   5.928   6.128  0.4417  1.4663  0.9329
40229TIP3   OH221568   7.168   0.002   5.084  0.3820 -0.4611  0.2376
40229TIP3    H121569   7.107  -0.014   5.012  0.6338  0.8735 -0.2927
40229TIP3    H221570   7.248  -0.044   5.059  0.7342  0.6284 -0.7410
40230TIP3   OH221571   5.552   7.002   8.975  0.2679  0.0158 -0.3697
40230TIP3    H121572   5.593   7.080   9.013 -1.4226  0.6314  0.2588
40230TIP3    H221573   5.598   6.929   9.016  1.2131  0.6744 -0.2229
40231TIP3   OH221574   6.245   6.332   4.699 -0.1322  0.5304  0.6582
40231TIP3    H121575   6.216   6.283   4.622  1.3948 -1.1269  1.0518
40231TIP3    H221576   6.303   6.400   4.665  1.0501 -0.5968  0.3206
40232TIP3   OH221577   2.019   8.017   4.000 -0.2047  0.5036 -0.6003
40232TIP3    H121578   2.051   7.951   4.062  0.0777  1.6208  0.4695
40232TIP3    H221579   2.021   7.973   3.915  0.2839 -0.7597  0.0453
40233TIP3   OH221580   6.899   8.134   0.678 -0.4217  0.4778  0.0538
40233TIP3    H121581   6.958   8.190   0.627 -1.8224  0.5382 -1.6043
40233TIP3    H221582   6.877   8.063   0.618 -2.0960  0.5087  0.5944
40234TIP3   OH221583  10.408   3.179  10.826 -0.0498  0.1082  0.4063
40234TIP3    H121584  10.502   3.178  10.842  0.1300  1.3022 -0.4271
40234TIP3    H221585  10.368   3.181  10.913  0.6880 -0.2488  0.7601
40235TIP3   OH221586   3.460   5.098   5.016  0.1253  0.7394 -0.3746
40235TIP3    H121587   3.387   5.142   4.974 -1.2893 -0.5663  0.5909
40235TIP3    H221588   3.447   5.114   5.110  0.3219 -0.5663 -0.1005
40236TIP3   OH221589   2.154   0.609   2.069  0.0710 -0.2052 -0.3884
40236TIP3    H121590   2.104   0.639   2.145 -1.5093 -0.6133 -1.2111
40236TIP3    H221591   2.224   0.555   2.106 -0.4057 -0.0418  0.8007
40237TIP3   OH221592   8.755   4.191   4.461  0.4293 -0.2852  0.4150
40237TIP3    H121593   8.777   4.123   4.397  0.6105  0.0215  0.1502
40237TIP3    H221594   8.760   4.273   4.412 -0.3742 -0.1254  0.5836
40238TIP3   OH221595   9.795   2.188   9.651 -0.2284  0.1090  0.0523
40238TIP3    H121596   9.742   2.257   9.691  0.6220  1.5389 -1.1884
40238TIP3    H221597   9.746   2.107   9.669 -1.9567  1.1643  0.3816
40239TIP3   OH221598   4.529   0.863   3.511  0.1247 -0.0502  0.3027
40239TIP3    H121599   4.562   0.778   3.540 -0.5438 -0.1875  0.6760
40239TIP3    H221600   4.480   0.897   3.586  0.4320  0.6914  0.1746
40240TIP3   OH221601   8.105   1.979   3.862  0.8199 -0.0781  0.9085
40240TIP3    H121602   8.182   1.932   3.892  0.9468 -0.2786  0.2727
40240TIP3    H221603   8.075   1.932   3.785 -1.3154 -1.4102  2.4239
40241TIP3   OH221604   8.735   6.066   6.011 -0.0391 -0.2305  0.2112
40241TIP3    H121605   8.736   6.161   6.024 -0.3311 -0.3659  1.3426
40241TIP3    H221606   8.812   6.034   6.057  0.0005 -0.5563 -0.0749
40242TIP3   OH221607   6.392   3.951   4.319  0.3030  0.0842  0.5566
40242TIP3    H121608   6.479   3.949   4.360  1.8200 -1.0336 -2.4554
40242TIP3    H221609   6.341   3.888   4.369  1.9838 -1.0529  0.9317
40243TIP3   OH221610   3.034   2.905   7.485 -0.0983 -0.2994 -0.2479
40243TIP3    H121611   3.111   2.942   7.443 -1.7273  1.0399 -2.2584
40243TIP3    H221612   3.024   2.818   7.445 -0.3954  0.0752 -0.9881
40244TIP3   OH221613   8.671   9.745   8.851 -0.1333  0.2856  0.0582
40244TIP3    H121614   8.758   9.778   8.871 -0.5978  2.0363 -0.6184
40244TIP3    H221615   8.611   9.806   8.896 -1.0201 -0.8601  0.4880
40245TIP3   OH221616  10.871   4.893   3.946 -0.1557 -0.0048 -0.1068
40245TIP3    H121617  10.912   4.903   4.032  0.6938  1.6484 -0.6769
40245TIP3    H221618  10.909   4.812   3.911 -0.4095 -0.6259  0.9866
40246TIP3   OH221619   4.313   1.204   9.836 -0.0635 -0.1138 -0.1814
40246TIP3    H121620   4.262   1.272   9.880  0.0189 -0.3339  0.2576
40246TIP3    H221621   4.261   1.125   9.847 -0.0329 -0.1749 -0.4695
40247TIP3   OH221622   4.693   1.938  10.894  0.1025  0.3860 -0.2019
40247TIP3    H121623   4.681   1.920  10.801  0.0086  0.5151 -0.2143
40247TIP3    H221624   4.787   1.956  10.904  0.5612 -1.8758  0.1083
40248TIP3   OH221625   6.356   6.626  10.126 -0.1754  0.2235 -0.4777
40248TIP3    H121626   6.304   6.611  10.046  0.1863  1.8371 -1.0441
40248TIP3    H221627   6.323   6.709  10.160 -0.0259 -0.2436  0.8326
40249TIP3   OH221628   2.038   5.468   3.758 -0.4935 -0.4608  0.8317
40249TIP3    H121629   2.079   5.535   3.813  0.7022  0.5049 -1.0881
40249TIP3    H221630   2.053   5.386   3.804 -0.2794  0.3852  2.3188
40250TIP3   OH221631   7.375   4.412   7.223 -0.1624 -0.3631 -0.6462
40250TIP3    H121632   7.456   4.361   7.229 -0.1259 -0.3706 -1.2077
40250TIP3    H221633   7.381   4.473   7.297 -0.6510 -1.7803  0.6190
40251TIP3   OH221634   2.675   0.477   7.775 -0.1652 -1.0184 -0.6147
40251TIP3    H121635   2.732   0.554   7.778 -0.1697 -1.0017  2.0985
40251TIP3    H221636   2.588   0.513   7.758 -0.1857 -0.3463  0.7313
40252TIP3   OH221637   6.173   9.359   1.996 -0.9584  1.2379 -0.7076
40252TIP3    H121638   6.089   9.373   1.953 -2.0255 -1.1437  0.4027
40252TIP3    H221639   6.158   9.384   2.087 -0.1937  1.5398 -0.6522
40253TIP3   OH221640   6.021   1.139   2.235 -0.3050 -0.2359 -0.1587
40253TIP3    H121641   5.956   1.076   2.205 -0.0769 -0.3606 -0.3910
40253TIP3    H221642   6.105   1.097   2.217 -0.1406  0.4266 -0.9510
40254TIP3   OH221643   9.173   9.470   6.797  0.1061  0.3189 -0.2390
40254TIP3    H121644   9.140   9.515   6.875  2.1549  0.8740  0.3843
40254TIP3    H221645   9.127   9.386   6.796 -0.1595  0.4128  1.4270
40255TIP3   OH221646   4.290  10.556   2.924 -0.0229 -0.0219 -0.5131
40255TIP3    H121647   4.323  10.473   2.958  0.6452  0.6968  0.6663
40255TIP3    H221648   4.352  10.582   2.857  0.5486  0.1928  0.0894
40256TIP3   OH221649   1.329   5.389   0.146 -0.5881 -0.4694 -0.7934
40256TIP3    H121650   1.406   5.333   0.135 -1.2884 -1.3656 -1.3216
40256TIP3    H221651   1.296   5.366   0.233  0.1650  0.4868 -0.2335
40257TIP3   OH221652   7.249   1.654   2.416 -0.2952  0.1490 -0.0943
40257TIP3    H121653   7.191   1.594   2.369 -1.3292 -0.0848  1.3995
40257TIP3    H221654   7.207   1.739   2.409 -1.3283 -0.1637  1.6847
40258TIP3   OH221655   2.812   6.334   3.835 -0.9773 -0.3803 -0.1818
40258TIP3    H121656   2.832   6.420   3.799 -0.7897 -1.2694 -2.3653
40258TIP3    H221657   2.897   6.291   3.843 -1.1643 -0.7662 -0.2286
40259TIP3   OH221658   9.869   9.979   6.305 -0.6678 -0.1364  0.0908
40259TIP3    H121659   9.923   9.929   6.366 -0.2372  0.1189 -0.0762
40259TIP3    H221660   9.929  10.003   6.234 -0.7604  0.9417  0.3551
40260TIP3   OH221661  10.483   7.340   1.762 -0.1641 -0.3587  0.2699
40260TIP3    H121662  10.463   7.273   1.697 -0.9827  1.5990 -1.6248
40260TIP3    H221663  10.576   7.358   1.750 -0.5322  0.7561 -1.2114
40261TIP3   OH221664   0.825   3.989  10.112  0.5196  0.4161  0.4289
40261TIP3    H121665   0.760   3.921  10.131 -0.2469  1.0627  0.1857
40261TIP3    H221666   0.826   4.044  10.190  0.8385  0.3594  0.4651
40262TIP3   OH221667   0.041   5.151   8.957 -0.0612  0.2143 -0.0961
40262TIP3    H121668  -0.032   5.200   8.995 -1.0327 -1.3623  0.1612
40262TIP3    H221669   0.063   5.198   8.877  0.4172  2.2174  1.1505
40263TIP3   OH221670   2.533   8.769   9.090 -0.3031 -0.7437 -0.2191
40263TIP3    H121671   2.454   8.722   9.118 -1.4981  1.5446  0.5145
40263TIP3    H221672   2.544   8.838   9.155 -0.9146  2.3890 -3.1667
40264TIP3   OH221673  10.344   2.904  10.516  0.3498 -0.7135  0.1126
40264TIP3    H121674  10.388   2.936  10.437  0.3956 -2.5520 -0.6632
40264TIP3    H221675  10.254   2.887  10.488  0.4130 -1.5400  0.4015
40265TIP3   OH221676   2.044   6.335   5.042  0.7473 -0.9457  0.0889
40265TIP3    H121677   2.022   6.303   5.130  1.9739  1.2756  1.2704
40265TIP3    H221678   1.966   6.384   5.015  0.8212 -0.6143  0.4623
40266TIP3   OH221679   9.884   7.407   9.563 -0.6570  0.0269  0.3812
40266TIP3    H121680   9.917   7.352   9.634  0.8321  1.5275  0.9012
40266TIP3    H221681   9.798   7.370   9.543  1.1454 -4.0543 -0.9722
40267TIP3   OH221682   2.201   9.239   8.811 -0.2513  0.3033  0.2641
40267TIP3    H121683   2.274   9.219   8.871  1.0565  2.0516 -0.6519
40267TIP3    H221684   2.187   9.158   8.763 -0.2188 -0.6374  1.7841
40268TIP3   OH221685  10.594   3.509   3.079  0.3339 -0.1616 -0.3269
40268TIP3    H121686  10.589   3.598   3.115  0.1929 -0.5889  0.7484
40268TIP3    H221687  10.685   3.500   3.050  0.0726  0.7172 -1.5142
40269TIP3   OH221688  10.632   0.644   5.692 -0.5028 -0.5664  0.1937
40269TIP3    H121689  10.660   0.609   5.776 -2.3325 -1.8333  0.3185
40269TIP3    H221690  10.548   0.687   5.710 -0.4398  0.0178 -0.8121
40270TIP3   OH221691   2.816   2.393   6.124 -0.6454  0.2632 -0.1700
40270TIP3    H121692   2.896   2.363   6.081 -0.3952 -0.8801  1.0394
40270TIP3    H221693   2.846   2.463   6.182 -0.3682 -0.6875  0.8628
40271TIP3   OH221694   6.412   2.132   0.936  0.4508 -0.4100 -0.2868
40271TIP3    H121695   6.334   2.089   0.901  0.5719 -0.9972  0.1432
40271TIP3    H221696   6.467   2.060   0.966  0.3631  0.0599  1.0738
40272TIP3   OH221697   7.307   9.093   6.158  0.0052  0.4459  0.0967
40272TIP3    H121698   7.269   9.027   6.100  0.0061  0.4826  0.0550
40272TIP3    H221699   7.391   9.054   6.186  0.1987  0.6081 -0.2561
40273TIP3   OH221700   2.597   0.920   5.676 -0.0761 -0.1582 -0.1241
40273TIP3    H121701   2.514   0.963   5.694 -0.9544 -1.2009 -1.5165
40273TIP3    H221702   2.628   0.892   5.762 -0.2196  1.8173  0.6404
40274TIP3   OH221703   9.165   1.033   1.958  0.9487 -0.3649 -0.2903
40274TIP3    H121704   9.138   1.031   1.866 -0.0129 -3.6405 -0.0444
40274TIP3    H221705   9.254   0.998   1.957  1.1678  0.1779 -0.0247
40275TIP3   OH221706   3.821   7.316   3.242  0.2473 -0.2826  0.1663
40275TIP3    H121707   3.727   7.298   3.237  0.2255 -0.1433  0.0753
40275TIP3    H221708   3.857   7.274   3.163 -0.0407  1.5463 -1.0039
40276TIP3   OH221709   8.593   0.598   1.836 -0.1382  1.2395  0.1675
40276TIP3    H121710   8.551   0.519   1.804 -1.2666  1.8299  0.1171
40276TIP3    H221711   8.683   0.594   1.803  0.2387 -0.6674  1.3228
40277TIP3   OH221712   0.585   2.390  10.433  0.1042 -0.2307  0.6788
40277TIP3    H121713   0.507   2.429  10.396  0.1401 -0.7851 -0.0034
40277TIP3    H221714   0.600   2.438  10.515 -1.3012 -0.5464  1.1418
40278TIP3   OH221715   7.289   2.472   8.225  0.4252  0.0923  0.3644
40278TIP3    H121716   7.325   2.442   8.308  2.1636 -0.7609 -0.6387
40278TIP3    H221717   7.286   2.393   8.170 -0.7096  0.6290 -0.3797
40279TIP3   OH221718   0.676   0.495   1.764 -0.0685  0.0797  0.2087
40279TIP3    H121719   0.720   0.570   1.804  1.0925  0.7526 -2.1570
40279TIP3    H221720   0.712   0.490   1.676 -3.1973 -0.6724 -1.1780
40280TIP3   OH221721  10.179   8.165   4.986  0.1079  0.2584 -0.6193
40280TIP3    H121722  10.221   8.096   5.037  0.7708  1.5951  0.7077
40280TIP3    H221723  10.197   8.141   4.895  1.2625 -0.7510 -0.1567
40281TIP3   OH221724   6.863   2.413   2.741  0.1701 -0.4529 -0.1765
40281TIP3    H121725   6.944   2.452   2.776  0.7459 -2.4574  0.8882
40281TIP3    H221726   6.797   2.433   2.807 -0.4059  1.6561 -1.3020
40282TIP3   OH221727   2.676   6.510   1.690  0.7109  0.0793 -0.7622
40282TIP3    H121728   2.695   6.417   1.707  0.8488  0.0857 -0.8846
40282TIP3    H221729   2.762   6.552   1.686  0.6802  0.0927 -1.4076
40283TIP3   OH221730   9.772   8.682   8.117  0.1377  0.2894  0.7447
40283TIP3    H121731   9.862   8.653   8.137 -0.3146 -0.6021  1.5878
40283TIP3    H221732   9.751   8.638   8.035  0.6563  0.9346  0.2565
40284TIP3   OH221733   9.855   9.895   8.895  0.1463 -0.7977  0.3645
40284TIP3    H121734   9.848   9.909   8.800  2.0820 -0.0109  0.2832
40284TIP3    H221735   9.790   9.955   8.932 -0.5150 -0.9848 -0.4536
40285TIP3   OH221736   1.799   3.670   7.178 -0.1734  0.4111  0.2817
40285TIP3    H121737   1.843   3.750   7.206  1.8273 -0.5392 -0.0108
40285TIP3    H221738   1.763   3.633   7.258 -1.2073  1.6023  0.4083
40286TIP3   OH221739   6.670   0.751   9.435 -0.3401 -0.1664 -0.0943
40286TIP3    H121740   6.652   0.779   9.346  2.3270 -0.1474 -0.7044
40286TIP3    H221741   6.745   0.803   9.463  0.6568 -2.1088  1.1197
40287TIP3   OH221742   8.367   0.316   8.048 -0.1827 -0.1153 -0.6205
40287TIP3    H121743   8.348   0.239   7.995 -0.0561  0.1902 -1.1228
40287TIP3    H221744   8.289   0.328   8.102 -0.1792 -0.6267 -0.5048
40288TIP3   OH221745   2.085   2.785   5.049 -0.0720 -0.6875  0.3503
40288TIP3    H121746   2.048   2.801   4.962 -0.0911 -3.5321 -0.2538
40288TIP3    H221747   2.179   2.794   5.038 -0.1278 -0.1226  0.2893
40289TIP3   OH221748   6.324   3.670   0.637  0.2339 -0.5640  0.1778
40289TIP3    H121749   6.411   3.631   0.634 -0.7706 -2.9613 -0.0286
40289TIP3    H221750   6.269   3.603   0.679 -1.6186  0.6604 -0.1642
40290TIP3   OH221751   2.066   2.542   3.721 -0.2235  0.0560 -0.0088
40290TIP3    H121752   1.993   2.603   3.705  0.4111  0.8521  0.0723
40290TIP3    H221753   2.023   2.458   3.739 -1.1495  0.6573  0.6905
40291TIP3   OH221754   6.420   7.239   9.703  0.4970  0.2835  0.1068
40291TIP3    H121755   6.408   7.221   9.797  0.3570 -0.4546 -0.0491
40291TIP3    H221756   6.383   7.327   9.691  1.7556  0.9594  1.0029
40292TIP3   OH221757   5.155   4.286   9.482 -0.0243 -0.5914 -0.3391
40292TIP3    H121758   5.121   4.279   9.393 -1.4672 -2.0152  0.2891
40292TIP3    H221759   5.191   4.200   9.502  0.4233 -0.2451  0.4232
40293TIP3   OH221760   7.687   8.807   4.475 -0.3733 -0.3706 -0.2015
40293TIP3    H121761   7.712   8.896   4.452 -2.0326  0.0869 -0.3272
40293TIP3    H221762   7.622   8.782   4.410 -0.1162 -1.5984 -0.0192
40294TIP3   OH221763   4.879   5.021   4.252  0.0906 -0.1596  0.2538
40294TIP3    H121764   4.809   4.968   4.292  0.3809 -1.3968 -0.8304
40294TIP3    H221765   4.960   4.976   4.276  0.3227 -0.4043 -0.9239
40295TIP3   OH221766   7.821   2.152   4.469 -1.1632  0.5324  0.6191
40295TIP3    H121767   7.751   2.105   4.424 -0.1255 -0.7281  0.2581
40295TIP3    H221768   7.787   2.241   4.480 -2.0680  0.4762 -1.2701
40296TIP3   OH221769   4.544   8.393   1.627 -0.0446  0.4200  0.5794
40296TIP3    H121770   4.583   8.465   1.577  0.2407  0.2599  0.5663
40296TIP3    H221771   4.474   8.434   1.678 -0.3176  0.5946  0.0784
40297TIP3   OH221772   2.618   7.156   2.730 -0.0197  0.4079 -0.2103
40297TIP3    H121773   2.612   7.065   2.704  0.2820 -0.0208  1.1434
40297TIP3    H221774   2.573   7.204   2.660  0.5543 -0.6797 -1.3554
40298TIP3   OH221775   0.508  10.304   6.979 -0.3144  0.2292 -0.1946
40298TIP3    H121776   0.497  10.369   6.909  0.3987 -0.2496 -0.7651
40298TIP3    H221777   0.429  10.313   7.032 -0.3390  1.4044 -0.3922
40299TIP3   OH221778   2.966   9.870   8.166  0.4189 -0.2392  0.0921
40299TIP3    H121779   3.017   9.950   8.152 -1.1633  0.4656 -2.4060
40299TIP3    H221780   2.885   9.885   8.117  0.5348 -3.8525 -1.5096
40300TIP3   OH221781   0.478   2.255   0.040 -0.4710 -0.0001 -0.0310
40300TIP3    H121782   0.410   2.323   0.037 -1.2766 -0.7977 -0.0790
40300TIP3    H221783   0.483   2.230   0.132 -0.3845 -0.0950 -0.0611
40301TIP3   OH221784   2.048   2.271   6.682  0.0166  0.0977  0.1060
40301TIP3    H121785   2.012   2.211   6.617 -1.0435 -1.2537  1.8778
40301TIP3    H221786   1.986   2.343   6.685 -0.7163 -0.5461  0.6470
40302TIP3   OH221787   1.222   5.816   6.765 -0.1681  0.8361 -0.6528
40302TIP3    H121788   1.239   5.906   6.794  0.1713  0.9015 -1.0488
40302TIP3    H221789   1.220   5.821   6.670  0.4534  0.3229 -0.7027
40303TIP3   OH221790   0.156   1.320   6.825 -0.5489  0.2323  0.0271
40303TIP3    H121791   0.162   1.275   6.909  3.5911 -1.0822 -0.7053
40303TIP3    H221792   0.192   1.407   6.842  0.2397 -0.0153 -0.2935
40304TIP3   OH221793   7.285   8.034  10.021 -0.2130 -0.7703  0.5684
40304TIP3    H121794   7.194   8.024  10.050 -0.3561 -1.2216 -0.0140
40304TIP3    H221795   7.298   8.128  10.013 -1.2926 -0.7405 -1.3674
40305TIP3   OH221796   2.235   8.377   1.015  0.3761  0.1754 -0.0508
40305TIP3    H121797   2.186   8.407   0.938  2.1260  0.8196 -0.9630
40305TIP3    H221798   2.224   8.448   1.079 -1.0427 -0.3389  0.3121
40306TIP3   OH221799   6.500   5.002   3.619  0.0253 -0.4243 -0.2470
40306TIP3    H121800   6.520   5.063   3.691 -0.8925 -0.8328  0.3869
40306TIP3    H221801   6.570   5.015   3.556  0.6077  0.2857  0.5177
40307TIP3   OH221802   9.154  10.427   4.736 -0.0336  0.3575 -0.8073
40307TIP3    H121803   9.227  10.372   4.706 -0.0007 -0.1316  0.1250
40307TIP3    H221804   9.080  10.400   4.683  0.1481 -0.1105 -0.8235
40308TIP3   OH221805   6.239   5.031   9.317  0.3802 -0.3803 -0.0807
40308TIP3    H121806   6.174   4.980   9.268 -0.3526 -0.0938  0.5727
40308TIP3    H221807   6.187   5.084   9.377  1.2395 -0.3633  0.6695
40309TIP3   OH221808   1.288   2.464   2.187  0.2819  0.8131 -0.8716
40309TIP3    H121809   1.375   2.467   2.147  0.7374 -0.3634 -0.0172
40309TIP3    H221810   1.280   2.547   2.234  1.3529  0.5110 -0.1307
40310TIP3   OH221811   2.238   7.603   0.963  0.1673 -0.0767  0.3297
40310TIP3    H121812   2.203   7.580   1.048  0.2958 -0.8662  0.1769
40310TIP3    H221813   2.265   7.694   0.972  0.4044 -0.2251  1.2045
40311TIP3   OH221814   4.175   3.299   8.268  0.2305 -0.6530  0.1030
40311TIP3    H121815   4.228   3.246   8.327 -1.1820 -0.7133  1.3777
40311TIP3    H221816   4.100   3.243   8.247 -0.0813 -0.0334 -0.4552
40312TIP3   OH221817   0.828   1.516   1.880  0.8614 -0.0081  0.3862
40312TIP3    H121818   0.896   1.501   1.814  2.5692  1.1418  1.7932
40312TIP3    H221819   0.792   1.430   1.897  1.3612 -0.5317 -1.0103
40313TIP3   OH221820   4.056   6.119   7.130  0.5212 -0.1175 -0.1347
40313TIP3    H121821   4.012   6.202   7.150  0.0086 -0.6361  0.9853
40313TIP3    H221822   4.097   6.133   7.045 -0.4197  0.9384 -0.4318
40314TIP3   OH221823   9.459   2.278   3.277 -0.2252  0.5126  0.0887
40314TIP3    H121824   9.438   2.358   3.326  0.7717  1.0265 -0.2808
40314TIP3    H221825   9.469   2.308   3.186  0.9526  0.1320  0.0657
40315TIP3   OH221826   0.856   8.191   7.365 -0.7437  0.3506 -0.6428
40315TIP3    H121827   0.819   8.241   7.293 -1.3190  0.6583 -0.1390
40315TIP3    H221828   0.843   8.246   7.442  2.2050  1.2474 -0.6384
40316TIP3   OH221829   9.058   7.932   4.915 -0.6415 -0.0339 -0.1354
40316TIP3    H121830   9.139   7.957   4.959  0.0419 -0.6437 -0.9971
40316TIP3    H221831   9.004   7.893   4.983  0.0423 -0.1945  0.3222
40317TIP3   OH221832   6.092   0.234   9.634  0.1012 -0.4013  0.5635
40317TIP3    H121833   6.015   0.259   9.584  0.4865 -0.6314 -0.1708
40317TIP3    H221834   6.060   0.217   9.722 -0.2003  2.5181  1.0877
40318TIP3   OH221835   9.646   0.856   8.083  0.0515  0.3912  0.6579
40318TIP3    H121836   9.736   0.845   8.114  0.7395  1.3696 -0.8622
40318TIP3    H221837   9.617   0.939   8.122 -0.7302 -0.6022  2.2755
40319TIP3   OH221838   1.401   5.379   2.366 -0.4916 -0.0462  0.6230
40319TIP3    H121839   1.406   5.297   2.317  1.9003  0.7755 -0.6825
40319TIP3    H221840   1.492   5.407   2.376 -1.1697  1.9776  1.8889
40320TIP3   OH221841   5.758   0.189   9.890 -0.0628  0.1625 -0.0685
40320TIP3    H121842   5.705   0.110   9.876 -0.6018  0.4005  0.5543
40320TIP3    H221843   5.744   0.212   9.982  1.2036  0.1925  0.1364
40321TIP3   OH221844   8.947   7.534   8.563  0.5934  0.4621 -0.4689
40321TIP3    H121845   9.007   7.588   8.510  1.3098  0.4033  0.2633
40321TIP3    H221846   8.981   7.541   8.652 -0.5560  0.4865 -0.0198
40322TIP3   OH221847   0.218   6.388   8.726  0.1187 -0.6269 -0.3212
40322TIP3    H121848   0.144   6.333   8.700 -1.6846  2.5348 -2.4846
40322TIP3    H221849   0.181   6.448   8.791  1.0942  0.2029 -0.5156
40323TIP3   OH221850  10.287   7.634   0.076 -0.1170  0.0577  0.4153
40323TIP3    H121851  10.344   7.678   0.139  0.5173 -0.9624  0.5821
40323TIP3    H221852  10.199   7.652   0.106 -0.0193  3.1443 -0.8262
40324TIP3   OH221853   8.369  10.237   7.701  0.1629  0.1745  0.6831
40324TIP3    H121854   8.326  10.294   7.765 -0.1364  1.4728 -0.6379
40324TIP3    H221855   8.461  10.237   7.727 -0.0099  0.3810  1.3193
40325TIP3   OH221856   8.516   6.127   5.173 -0.2833  0.5007  0.2402
40325TIP3    H121857   8.598   6.083   5.149 -1.3377 -0.8010 -1.1354
40325TIP3    H221858   8.448   6.079   5.127 -1.6977  2.5830 -0.0066
40326TIP3   OH221859   3.929   4.914  10.262  0.8185  0.1234  0.5095
40326TIP3    H121860   4.000   4.969  10.230 -0.6991  1.4752 -0.7680
40326TIP3    H221861   3.946   4.828  10.224  0.8352  0.8947 -1.3944
40327TIP3   OH221862   7.180   5.184   6.228 -0.4148 -0.6276 -0.4927
40327TIP3    H121863   7.178   5.112   6.290  1.3026 -0.6844 -0.4513
40327TIP3    H221864   7.160   5.143   6.143  0.5218 -1.1708 -0.4654
40328TIP3   OH221865   5.595   9.405   3.327 -0.4844 -0.0554  0.3667
40328TIP3    H121866   5.551   9.332   3.370 -0.2605 -0.0722  0.5662
40328TIP3    H221867   5.583   9.388   3.234  0.2635 -0.7767  0.3973
40329TIP3   OH221868   7.158   0.947   6.042  0.6187 -0.5539 -0.1872
40329TIP3    H121869   7.106   0.921   6.119 -2.3288 -0.6205 -2.0556
40329TIP3    H221870   7.153   1.042   6.041 -1.4612 -0.6150 -1.5346
40330TIP3   OH221871   0.032  10.164   7.078  0.2315  0.7105 -0.0866
40330TIP3    H121872   0.128  10.171   7.079  0.4843 -1.6884 -0.4976
40330TIP3    H221873   0.011  10.126   7.163 -0.4492  1.7388  0.2227
40331TIP3   OH221874   5.260   7.594   8.036 -0.3544  0.0388 -0.0479
40331TIP3    H121875   5.236   7.521   8.093 -0.8335 -0.8408 -1.3101
40331TIP3    H221876   5.332   7.637   8.081  1.1957 -2.3088 -0.0735
40332TIP3   OH221877   3.573   8.953   5.851 -0.5337  0.2942  0.1246
40332TIP3    H121878   3.655   8.924   5.892  0.2462  1.7374 -0.3447
40332TIP3    H221879   3.533   8.873   5.818  0.3517 -0.5225  0.9565
40333TIP3   OH221880   2.958   8.150   9.295  0.1515 -0.0445 -0.1076
40333TIP3    H121881   2.981   8.189   9.211  2.2823 -1.3239 -0.1969
40333TIP3    H221882   2.992   8.210   9.360  2.6875 -1.2155 -0.2418
40334TIP3   OH221883   5.365  10.239   9.817  0.0994 -0.1075  0.3527
40334TIP3    H121884   5.380  10.299   9.891 -1.4147 -0.8565  1.3142
40334TIP3    H221885   5.365  10.295   9.740 -1.0520  1.1328  1.2097
40335TIP3   OH221886   0.792   1.731   1.668 -0.0214 -0.5592  0.4239
40335TIP3    H121887   0.885   1.746   1.650 -0.1195  0.1258  0.4643
40335TIP3    H221888   0.790   1.700   1.759 -0.0242  1.8784  1.3220
40336TIP3   OH221889   1.636  10.375   6.463  0.3670 -0.0231  0.3112
40336TIP3    H121890   1.703  10.309   6.447  2.0224  1.5680  0.4124
40336TIP3    H221891   1.629  10.424   6.381 -2.4984 -1.6226 -0.5642
40337TIP3   OH221892   9.445   5.101   2.623  0.0793  0.6658  0.0204
40337TIP3    H121893   9.369   5.075   2.571  0.3943  1.6676 -0.9775
40337TIP3    H221894   9.473   5.021   2.667 -0.1908 -0.2145 -1.3542
40338TIP3   OH221895   5.748   0.973   1.046  0.2571  0.6883 -0.0369
40338TIP3    H121896   5.708   1.047   1.001  1.4976  0.3953 -1.6753
40338TIP3    H221897   5.837   1.002   1.067  0.2887  0.1643  0.5988
40339TIP3   OH221898   5.735   0.410   6.244 -1.0366 -0.6065 -0.4694
40339TIP3    H121899   5.782   0.482   6.285 -0.5698 -0.6512 -0.9269
40339TIP3    H221900   5.761   0.332   6.294 -2.7054 -0.2818  1.0149
40340TIP3   OH221901   3.703   1.821   8.983  0.1830 -0.8249 -0.0845
40340TIP3    H121902   3.766   1.754   8.958  0.1329 -0.9328  0.0778
40340TIP3    H221903   3.647   1.779   9.048  1.1118 -0.1562  1.1951
40341TIP3   OH221904   6.875   1.876   4.525  0.1765  0.0277  0.3059
40341TIP3    H121905   6.887   1.792   4.570 -0.5508 -0.6432 -0.6952
40341TIP3    H221906   6.782   1.895   4.536  0.0003 -0.1287 -0.8552
40342TIP3   OH221907   0.154   3.460  10.060  0.0073  0.4690 -0.1488
40342TIP3    H121908   0.226   3.450   9.998  1.0804  0.0460  1.1203
40342TIP3    H221909   0.186   3.523  10.124 -0.8358  0.4417  0.3115
40343TIP3   OH221910   4.527   7.217   1.167 -0.1269  0.3148 -0.2955
40343TIP3    H121911   4.584   7.208   1.090  1.1415 -3.0919  0.8387
40343TIP3    H221912   4.445   7.175   1.141 -0.1192  0.2189 -0.1641
40344TIP3   OH221913   5.808   4.911   9.471 -0.6445  0.0889 -0.3863
40344TIP3    H121914   5.850   4.828   9.449 -0.7319  0.4200 -1.8809
40344TIP3    H221915   5.875   4.977   9.456 -1.5733  0.6150 -2.7357
40345TIP3   OH221916  10.432  10.904   9.485 -0.1092  0.7947  0.2642
40345TIP3    H121917  10.397  10.990   9.509  0.4479  1.7162 -1.9324
40345TIP3    H221918  10.499  10.887   9.551 -0.7220  1.6975  1.1618
40346TIP3   OH221919   4.451   0.217   0.094  0.2490 -0.5820 -0.2760
40346TIP3    H121920   4.394   0.291   0.115  0.2800 -0.1926 -1.5121
40346TIP3    H221921   4.433   0.197   0.003  0.5642 -1.8346 -0.0878
40347TIP3   OH221922   7.870   6.091   9.483  0.0710 -0.0328 -0.0313
40347TIP3    H121923   7.953   6.137   9.496  0.7304 -1.1215 -0.2103
40347TIP3    H221924   7.863   6.081   9.388  0.5637 -1.3731  0.0579
40348TIP3   OH221925   7.647  10.485   6.832  0.1590 -0.4463 -0.2593
40348TIP3    H121926   7.713  10.439   6.779  2.0756  1.8120  0.0231
40348TIP3    H221927   7.687  10.493   6.918 -0.8628  0.2582  0.1670
40349TIP3   OH221928   8.904   3.206   2.595 -0.2004 -0.4091 -0.2055
40349TIP3    H121929   8.831   3.264   2.617 -0.4860 -0.4934 -0.9000
40349TIP3    H221930   8.894   3.190   2.501  1.7553  1.0390 -0.7431
40350TIP3   OH221931   4.632   1.142   6.037 -0.1088  0.0548  0.2666
40350TIP3    H121932   4.605   1.055   6.068 -0.0652  0.1108  0.4575
40350TIP3    H221933   4.726   1.145   6.053 -0.1968  0.3412  0.7498
40351TIP3   OH221934   6.187  10.830   2.106 -0.3461 -0.3027 -0.4247
40351TIP3    H121935   6.281  10.822   2.089 -0.8601 -2.0611 -2.8047
40351TIP3    H221936   6.146  10.769   2.046 -3.1032  0.9756  0.0096
40352TIP3   OH221937   4.427   1.449   1.352  0.1303 -0.4486  0.7323
40352TIP3    H121938   4.478   1.395   1.292 -0.9886 -0.6962 -0.0511
40352TIP3    H221939   4.457   1.539   1.335 -0.8651 -0.3875 -1.0055
40353TIP3   OH221940   1.911   7.703  10.847 -0.2500  0.0402 -0.5145
40353TIP3    H121941   1.892   7.712  10.753  0.9541 -0.7971 -0.8499
40353TIP3    H221942   1.908   7.793  10.880 -0.3587  0.3853 -1.4213
40354TIP3   OH221943   2.445   6.854   5.862 -0.1796 -0.1550  0.2830
40354TIP3    H121944   2.533   6.816   5.865 -0.5082 -0.9297  0.5339
40354TIP3    H221945   2.438   6.906   5.941 -0.2360 -0.7775  0.6949
40355TIP3   OH221946   1.296   4.445   8.599 -0.4781  0.0368 -0.2073
40355TIP3    H121947   1.204   4.446   8.572 -0.4477 -1.5411 -0.4725
40355TIP3    H221948   1.315   4.353   8.618  1.4040  0.0890 -1.4701
40356TIP3   OH221949   4.403   7.350   3.298 -0.1275  0.1641 -0.4155
40356TIP3    H121950   4.480   7.400   3.271  0.0166 -0.2194 -0.7160
40356TIP3    H221951   4.437   7.287   3.362 -0.2245  0.1189 -0.4089
40357TIP3   OH221952   7.599   3.184   9.539  0.0756  0.3024  0.6426
40357TIP3    H121953   7.507   3.175   9.514 -0.3791  0.1929  2.2446
40357TIP3    H221954   7.628   3.094   9.556  0.5948  0.3011 -0.2195
40358TIP3   OH221955   8.664   7.523   3.942 -0.4865  0.2240 -1.1538
40358TIP3    H121956   8.712   7.443   3.919  1.2977  0.9203 -0.0837
40358TIP3    H221957   8.574   7.505   3.916 -0.6237 -3.0057  0.9091
40359TIP3   OH221958   5.557   8.499   9.498  0.1716 -0.0228 -0.8475
40359TIP3    H121959   5.591   8.438   9.563  1.1816  2.6714  1.3695
40359TIP3    H221960   5.633   8.523   9.444  0.6484  1.7624  0.5140
40360TIP3   OH221961   1.321   5.768   1.113 -0.2109 -0.3470 -1.0351
40360TIP3    H121962   1.254   5.724   1.060  0.5902 -2.7819 -0.1811
40360TIP3    H221963   1.273   5.832   1.165 -2.0966 -2.5877  0.1569
40361TIP3   OH221964   9.616   4.367   0.879 -0.0234 -0.0250  0.0459
40361TIP3    H121965   9.668   4.423   0.821 -1.1543  1.8992  0.8039
40361TIP3    H221966   9.543   4.422   0.906  0.2385 -0.9806  2.9934
40362TIP3   OH221967   0.401   8.112   2.123 -0.0583 -0.3332  0.7821
40362TIP3    H121968   0.430   8.025   2.098  1.1205  0.2257  0.1500
40362TIP3    H221969   0.305   8.106   2.124 -0.0234 -1.3372 -0.3150
40363TIP3   OH221970   1.417   9.655   7.382  0.0146  0.3856  0.7422
40363TIP3    H121971   1.416   9.570   7.338 -1.5132  0.2179  1.0243
40363TIP3    H221972   1.330   9.692   7.365 -0.3134  0.7159  2.8189
40364TIP3   OH221973   5.722   8.957   0.023 -0.0811  0.0227 -0.7141
40364TIP3    H121974   5.758   9.033   0.070  0.4541 -0.8506  0.3380
40364TIP3    H221975   5.799   8.904   0.002 -0.4928 -0.4565 -1.0280
40365TIP3   OH221976   1.117   8.355   4.100 -0.1007  0.0832  0.3634
40365TIP3    H121977   1.206   8.385   4.079 -1.5049  1.9950 -3.9068
40365TIP3    H221978   1.124   8.260   4.100  2.1097  0.1631  1.4185
40366TIP3   OH221979   6.141   8.456   7.642 -0.1020  0.0417 -0.0570
40366TIP3    H121980   6.222   8.413   7.668 -0.3616 -0.4535 -0.0433
40366TIP3    H221981   6.089   8.458   7.722  0.4049  1.5459  0.2511
40367TIP3   OH221982  10.050   6.319   0.688 -0.5970 -0.3600  0.3501
40367TIP3    H121983  10.024   6.286   0.774 -3.1619 -1.4841 -0.7543
40367TIP3    H221984  10.072   6.241   0.638 -1.7541 -0.0033 -0.7821
40368TIP3   OH221985   9.403   8.115   9.484  0.2128  0.1480  0.3148
40368TIP3    H121986   9.447   8.037   9.520 -2.0572 -1.0522  0.6532
40368TIP3    H221987   9.394   8.096   9.391 -0.9452 -0.3463  0.5095
40369TIP3   OH221988  10.480   9.753   3.859 -0.1830  0.1667 -0.2934
40369TIP3    H121989  10.403   9.778   3.911 -0.2325  0.7798 -0.6516
40369TIP3    H221990  10.481   9.657   3.863 -0.3707  0.1858  0.5674
40370TIP3   OH221991   5.016   9.829   7.105 -0.0506 -0.0663 -0.6069
40370TIP3    H121992   5.098   9.866   7.075  0.8010  0.4276  2.0648
40370TIP3    H221993   5.017   9.739   7.072  0.3328  0.6509 -2.6895
40371TIP3   OH221994   3.958   3.247   3.033  0.1683 -0.8769 -0.1236
40371TIP3    H121995   4.013   3.171   3.016 -0.0727 -1.4998  1.6849
40371TIP3    H221996   4.017   3.322   3.025  1.1488 -1.4819  1.0994
40372TIP3   OH221997   8.675   1.916   7.170  0.6816 -0.1850 -0.0479
40372TIP3    H121998   8.634   2.002   7.176  1.6937  0.2676  0.6891
40372TIP3    H221999   8.611   1.856   7.208  0.4366  0.4148  0.5138
40373TIP3   OH222000   2.151   4.060   8.566 -0.2319 -1.0258 -0.3234
40373TIP3    H122001   2.193   4.053   8.480  0.0967 -0.5576 -0.2009
40373TIP3    H222002   2.125   3.970   8.587 -0.2971 -1.1492 -0.9021
40374TIP3   OH222003   0.242   8.283   0.484  0.6753 -0.0021  0.4390
40374TIP3    H122004   0.203   8.337   0.416  0.0086  0.8647  1.4704
40374TIP3    H222005   0.241   8.338   0.562 -2.7100 -2.3314  2.3450
40375TIP3   OH222006   7.230   1.354   3.584 -0.3864  0.2961 -0.3895
40375TIP3    H122007   7.196   1.394   3.504 -1.3149  0.2223 -0.0434
40375TIP3    H222008   7.304   1.409   3.609 -1.1244  1.3141 -0.3830
40376TIP3   OH222009   2.920   5.609   2.460 -0.0981 -0.0580 -0.5613
40376TIP3    H122010   2.923   5.704   2.470  0.2699 -0.2666  2.1986
40376TIP3    H222011   2.927   5.575   2.549 -0.6319 -2.6901 -1.4124
40377TIP3   OH222012   8.616   1.816   3.900  0.1659 -0.8099 -0.0557
40377TIP3    H122013   8.600   1.781   3.813  0.2750 -0.3950 -0.2417
40377TIP3    H222014   8.711   1.810   3.911  0.2155 -0.3080 -0.1998
40378TIP3   OH222015   5.278   9.560  10.818  0.4037  0.4253 -0.1476
40378TIP3    H122016   5.186   9.580  10.836  0.4464  2.0954 -1.5349
40378TIP3    H222017   5.308   9.513  10.896 -1.7545 -0.6922  0.0909
40379TIP3   OH222018   9.727   9.504   9.476 -0.6107 -0.2656  0.1654
40379TIP3    H122019   9.632   9.509   9.481 -0.5877  1.8627 -0.4825
40379TIP3    H222020   9.757   9.527   9.564 -0.6944 -0.2208  0.1818
40380TIP3   OH222021   2.200   6.680   4.791  0.7963  0.3223  0.1115
40380TIP3    H122022   2.141   6.751   4.816  0.6774 -0.3089  1.7348
40380TIP3    H222023   2.263   6.721   4.731  0.8843  1.8537  1.2027
40381TIP3   OH222024   8.937  10.707   3.910 -0.6486  0.4906  0.4133
40381TIP3    H122025   8.956  10.618   3.939  0.3793  0.7928  0.7092
40381TIP3    H222026   9.014  10.733   3.860 -1.7234  0.5483 -1.3298
40382TIP3   OH222027   6.332   9.502   5.256  0.0503 -0.3062  0.4310
40382TIP3    H122028   6.376   9.463   5.331 -0.1037 -4.6570 -1.4846
40382TIP3    H222029   6.361   9.451   5.181 -3.3640  0.6905 -1.8214
40383TIP3   OH222030  10.532   8.131   0.646 -0.2810 -0.2866  0.1345
40383TIP3    H122031  10.567   8.213   0.682  0.1096  0.5186 -1.9250
40383TIP3    H222032  10.600   8.066   0.664 -0.2611 -0.0027  1.1305
40384TIP3   OH222033  10.073   4.113   5.041  0.5451  0.1488  0.6243
40384TIP3    H122034  10.060   4.092   4.949 -3.8463 -1.1987  1.3454
40384TIP3    H222035  10.058   4.207   5.047  0.5037  0.1825  0.0023
40385TIP3   OH222036   6.936   6.074   2.623 -0.4710  0.0239 -0.4254
40385TIP3    H122037   7.023   6.049   2.655 -0.2429  0.3089 -0.8116
40385TIP3    H222038   6.910   6.147   2.679 -0.3228  0.1465 -0.5159
40386TIP3   OH222039   9.646  10.374   8.611  0.2058  0.3913  0.3262
40386TIP3    H122040   9.698  10.301   8.645 -0.2511 -0.2609 -0.3428
40386TIP3    H222041   9.595  10.403   8.687  1.4088  0.9467  0.9493
40387TIP3   OH222042   5.669   6.326   7.162  0.1331  0.0915  0.4514
40387TIP3    H122043   5.679   6.232   7.149 -1.9897 -0.0413 -0.7899
40387TIP3    H222044   5.594   6.350   7.106 -2.3454  1.7120  4.0632
40388TIP3   OH222045   8.419   7.107   5.791  0.7506 -1.0536  0.1303
40388TIP3    H122046   8.392   7.075   5.878  1.2547 -2.1390 -0.0909
40388TIP3    H222047   8.353   7.071   5.732  0.5998 -0.5974  0.0192
40389TIP3   OH222048   9.998   7.906   1.015 -0.2782  0.8085 -0.6171
40389TIP3    H122049  10.040   7.858   1.086 -1.1312  0.9554  0.0149
40389TIP3    H222050  10.027   7.863   0.935  0.5526  0.5167 -0.1653
40390TIP3   OH222051   1.605   9.503   7.836  0.2979  0.3031  0.1983
40390TIP3    H122052   1.510   9.491   7.827  0.0994  1.7199  0.2484
40390TIP3    H222053   1.619   9.517   7.929  0.2817  2.1047 -0.0400
40391TIP3   OH222054   8.392   8.721   7.598  0.3003 -0.1227  0.3911
40391TIP3    H122055   8.416   8.812   7.615 -0.2052  0.0493  0.2017
40391TIP3    H222056   8.438   8.699   7.518  1.7196 -0.5529  1.2991
40392TIP3   OH222057   6.695   7.852   4.068  0.0524 -0.3626 -0.3202
40392TIP3    H122058   6.752   7.911   4.118  1.2047 -0.1668 -1.7828
40392TIP3    H222059   6.630   7.822   4.131  0.9494  0.5123  1.0780
40393TIP3   OH222060   4.649   3.459   6.486  0.3383  0.1803  0.2511
40393TIP3    H122061   4.705   3.498   6.553  0.6037  0.0169  0.1243
40393TIP3    H222062   4.567   3.507   6.493 -0.0600 -0.6550  1.5137
40394TIP3   OH222063   8.377  10.316   8.468  0.8411 -0.0679 -0.0536
40394TIP3    H122064   8.286  10.290   8.455  0.5256  0.5612  0.8405
40394TIP3    H222065   8.394  10.296   8.560  1.4203  0.3861 -0.0602
40395TIP3   OH222066   2.819   5.791   6.118 -0.4102 -0.4217 -0.4403
40395TIP3    H122067   2.896   5.733   6.118  0.0452  0.1322 -2.0078
40395TIP3    H222068   2.783   5.783   6.206  1.6016 -0.5085  0.4296
40396TIP3   OH222069   6.396   4.739   3.565 -0.5430 -0.1546  0.0868
40396TIP3    H122070   6.406   4.829   3.595  0.3036 -0.3940  0.5632
40396TIP3    H222071   6.486   4.708   3.554 -0.8168 -0.5484 -1.2781
40397TIP3   OH222072   0.652   3.787  10.265  0.6759 -0.2047 -0.2710
40397TIP3    H122073   0.635   3.780  10.359  2.1616  1.0952  0.1310
40397TIP3    H222074   0.705   3.710  10.245  0.0581 -0.6770 -0.1441
40398TIP3   OH222075   0.985   3.958  10.874 -0.2867  0.3646 -0.9566
40398TIP3    H122076   0.938   4.024  10.823 -0.2761 -0.5658 -2.2288
40398TIP3    H222077   0.930   3.880  10.867  0.2402 -0.0590 -0.3865
40399TIP3   OH222078   6.176  10.312   2.614 -0.3835 -0.3618 -0.2285
40399TIP3    H122079   6.149  10.351   2.697 -0.2723 -0.4919 -0.1320
40399TIP3    H222080   6.129  10.229   2.610  0.7275 -1.0431  0.3866
40400TIP3   OH222081   3.222   3.019   2.084  0.3416 -0.5154  0.2261
40400TIP3    H122082   3.214   2.925   2.070  2.7827 -0.8421  0.5656
40400TIP3    H222083   3.140   3.045   2.126 -2.1300 -1.6871 -3.3373
40401TIP3   OH222084   9.278   7.434   1.484  0.0449  0.0510 -0.4384
40401TIP3    H122085   9.321   7.519   1.484 -0.2464  0.2218 -1.9559
40401TIP3    H222086   9.185   7.453   1.492 -0.0859 -0.0585 -1.5172
40402TIP3   OH222087   1.590   5.082   7.220 -0.1248 -0.4305  0.0079
40402TIP3    H122088   1.567   5.138   7.145 -0.3319 -2.5241 -1.5773
40402TIP3    H222089   1.524   5.103   7.286 -0.2388  1.1278 -0.5496
40403TIP3   OH222090   3.597   8.349   5.216  0.4433 -0.1328 -0.0194
40403TIP3    H122091   3.622   8.435   5.184 -1.3900  0.2120 -0.6533
40403TIP3    H222092   3.558   8.365   5.302 -1.5344 -0.0428 -0.8830
40404TIP3   OH222093   8.244   0.162   2.694  0.1839  0.1179 -0.0720
40404TIP3    H122094   8.169   0.192   2.641 -0.1480  0.2129  0.4392
40404TIP3    H222095   8.246   0.223   2.768  1.1713  0.5129 -0.4074
40405TIP3   OH222096  10.538   5.029   6.010 -0.4732 -0.6339 -0.1129
40405TIP3    H122097  10.545   5.123   6.022  0.5389 -0.8561  1.1935
40405TIP3    H222098  10.591   5.011   5.932  1.3104 -0.3783  0.9823
40406TIP3   OH222099   1.425   2.788   0.081 -0.4525 -0.3889 -0.2867
40406TIP3    H122100   1.488   2.717   0.091  0.8321  0.8756  1.3108
40406TIP3    H222101   1.462   2.842   0.011 -1.5101 -1.3261 -1.6108
40407TIP3   OH222102   4.143   9.834   1.877 -0.1811  0.4406 -0.3547
40407TIP3    H122103   4.209   9.766   1.865  1.0408  0.9343  2.6097
40407TIP3    H222104   4.064   9.788   1.905  0.2168  0.1314  0.2641
40408TIP3   OH222105   4.517   7.483  10.268 -0.6680 -0.3851 -0.0174
40408TIP3    H122106   4.501   7.389  10.277 -2.9242 -0.0371  0.0702
40408TIP3    H222107   4.571   7.504  10.345 -1.6884 -1.2984  0.9999
40409TIP3   OH222108   5.841   4.500  10.488 -0.2605  0.1928 -0.0473
40409TIP3    H122109   5.836   4.461  10.400 -1.6829  1.9073 -0.7801
40409TIP3    H222110   5.822   4.427  10.547 -1.6564 -0.5217 -1.3028
40410TIP3   OH222111   5.830   2.880   0.810  0.1241 -0.2398  0.5386
40410TIP3    H122112   5.922   2.856   0.814 -0.0434 -0.8796  0.6672
40410TIP3    H222113   5.829   2.963   0.763  0.6305 -1.0956 -1.0782
40411TIP3   OH222114   0.276   3.542   7.722  0.5103  0.0333 -0.1739
40411TIP3    H122115   0.241   3.592   7.648 -0.5122 -0.1179  0.1863
40411TIP3    H222116   0.211   3.555   7.792  0.0801 -1.9659 -0.1379
40412TIP3   OH222117   7.364   2.149   7.174 -0.0836  0.0203 -0.0730
40412TIP3    H122118   7.338   2.095   7.249  1.3289  0.8289  1.0531
40412TIP3    H222119   7.414   2.090   7.118  4.6883  0.6930  2.8945
40413TIP3   OH222120   6.725   9.022   4.452  0.6143 -0.0215 -0.6266
40413TIP3    H122121   6.717   9.029   4.357  0.2737 -1.1798 -0.6979
40413TIP3    H222122   6.713   9.111   4.484  3.6370  0.9559 -1.8473
40414TIP3   OH222123   3.798   8.883   9.640 -0.0559  0.4013  0.1158
40414TIP3    H122124   3.764   8.813   9.584 -1.2284  1.1125 -0.1022
40414TIP3    H222125   3.779   8.854   9.729 -1.0951  0.6894  0.0050
40415TIP3   OH222126   8.653   5.803   2.471  0.3724  0.1205 -0.2801
40415TIP3    H122127   8.637   5.708   2.464  0.7737  0.0506 -0.2769
40415TIP3    H222128   8.741   5.814   2.436  0.0538  0.5892 -0.9507
40416TIP3   OH222129   5.723   5.193   3.600 -0.0623  0.2843  0.3136
40416TIP3    H122130   5.698   5.101   3.613  1.6122 -0.7414 -2.6927
40416TIP3    H222131   5.791   5.209   3.665  1.0912 -1.3371 -0.4278
40417TIP3   OH222132   6.847   7.801   9.111  0.1159  0.0477 -0.5968
40417TIP3    H122133   6.859   7.895   9.118  1.7099  0.1161 -2.9901
40417TIP3    H222134   6.764   7.791   9.064  0.8993  0.3617 -2.0875
40418TIP3   OH222135   9.553   7.102   3.552 -0.8919  0.6312 -0.0676
40418TIP3    H122136   9.459   7.096   3.569 -1.1255  1.3755 -1.0302
40418TIP3    H222137   9.593   7.053   3.624 -2.0092  0.3038  0.3575
40419TIP3   OH222138   0.333   7.691   3.524  0.7889 -0.6987 -0.2211
40419TIP3    H122139   0.352   7.635   3.599  1.0564 -1.5359 -0.8937
40419TIP3    H222140   0.385   7.653   3.453  1.8654  1.0618 -0.4371
40420TIP3   OH222141   2.728   2.992   7.174 -0.0988 -0.1371  0.8047
40420TIP3    H122142   2.664   3.058   7.149  0.4086  0.1580  0.2850
40420TIP3    H222143   2.802   3.042   7.208 -0.0001 -0.4691  1.0841
40421TIP3   OH222144   0.956   1.403   1.486 -0.4563  0.0590 -0.0054
40421TIP3    H122145   0.980   1.387   1.578 -0.8552 -0.0740  0.0760
40421TIP3    H222146   0.933   1.317   1.452 -0.6718  0.1654 -0.1280
40422TIP3   OH222147   6.776   5.899   7.659  0.9014 -0.4617 -0.2145
40422TIP3    H122148   6.789   5.810   7.626  0.8431 -0.4212 -0.3504
40422TIP3    H222149   6.864   5.930   7.680  1.2982  0.4383 -2.7505
40423TIP3   OH222150   1.633   9.642   4.142 -0.0819 -0.4659  0.4559
40423TIP3    H122151   1.550   9.688   4.156 -0.0224 -0.6123  1.3629
40423TIP3    H222152   1.697   9.712   4.125  0.1385 -0.1275  2.4616
40424TIP3   OH222153   5.159   7.990   6.216  0.2618  0.2830 -0.2681
40424TIP3    H122154   5.128   7.989   6.306 -1.4366 -0.7171 -0.8139
40424TIP3    H222155   5.100   8.051   6.171 -0.4212 -0.9940 -1.1599
40425TIP3   OH222156   5.575   0.877   9.284 -0.2866 -0.5390 -0.2692
40425TIP3    H122157   5.661   0.880   9.242 -0.0324 -0.7235  0.2444
40425TIP3    H222158   5.533   0.959   9.257 -1.2286 -1.8256 -3.2179
40426TIP3   OH222159  10.243  10.167   7.252  0.0779  0.5733  0.0727
40426TIP3    H122160  10.186  10.231   7.294 -0.7330  1.7192 -2.5805
40426TIP3    H222161  10.192  10.086   7.254 -0.3726  0.8559  0.3714
40427TIP3   OH222162   1.914   2.630   6.002 -0.0590  0.2102  0.4428
40427TIP3    H122163   1.859   2.693   5.956 -0.1901 -0.9364 -1.0799
40427TIP3    H222164   1.895   2.547   5.959  0.2550 -0.8474  2.2505
40428TIP3   OH222165   5.329   7.435   8.913  0.0805 -0.1036  0.2032
40428TIP3    H122166   5.349   7.347   8.882 -0.7701 -0.2186 -0.0456
40428TIP3    H222167   5.405   7.488   8.887 -0.3700 -0.2953 -1.6144
40429TIP3   OH222168   3.572   1.824   9.496  0.3127  0.5929 -0.8556
40429TIP3    H122169   3.553   1.895   9.435  0.8245  1.3847 -0.1121
40429TIP3    H222170   3.523   1.846   9.575  0.4951  0.1341 -0.6094
40430TIP3   OH222171   0.674   2.168   1.380 -0.0829  0.0363  0.0963
40430TIP3    H122172   0.649   2.186   1.289  0.1638 -0.3245 -0.0480
40430TIP3    H222173   0.618   2.095   1.406 -0.5363  0.4955  0.4179
40431TIP3   OH222174   3.601   2.437   9.974 -0.1324  0.2915 -0.0940
40431TIP3    H122175   3.604   2.384  10.054 -1.1219  0.9527  0.4074
40431TIP3    H222176   3.516   2.481   9.979 -1.1236 -1.1613 -2.5069
40432TIP3   OH222177  10.334   4.893   3.460  0.3305 -0.1218  0.1511
40432TIP3    H122178  10.390   4.941   3.399  1.0232 -2.9093 -1.6165
40432TIP3    H222179  10.245   4.923   3.440  0.9224  2.6873  1.3879
40433TIP3   OH222180   3.099   6.020   6.945 -0.2814  0.5646  0.1943
40433TIP3    H122181   3.043   6.090   6.910 -4.2144 -3.4721 -2.7871
40433TIP3    H222182   3.044   5.974   7.008  1.3771 -1.0304  0.5592
40434TIP3   OH222183   3.341   3.707   8.365 -0.2231 -0.2724 -0.0660
40434TIP3    H122184   3.321   3.760   8.443  1.8485 -0.6167  0.7714
40434TIP3    H222185   3.318   3.764   8.291 -1.1463  0.5132  0.7855
40435TIP3   OH222186  10.847   5.414   7.194 -0.5384 -0.0787  0.0556
40435TIP3    H122187  10.865   5.500   7.156  1.2051 -1.4384 -2.5101
40435TIP3    H222188  10.898   5.413   7.275 -0.1288  1.1185 -0.1605
40436TIP3   OH222189   6.843   6.195   5.218  0.6109  0.6285  0.1502
40436TIP3    H122190   6.775   6.129   5.226 -0.9476  1.6171 -3.0491
40436TIP3    H222191   6.915   6.150   5.175  0.2190  0.5717 -0.4641
40437TIP3   OH222192   3.788   9.530   2.325 -0.2573 -0.2767  0.5909
40437TIP3    H122193   3.859   9.581   2.364 -1.6657  0.8946  1.7563
40437TIP3    H222194   3.790   9.554   2.232 -0.4854  1.4590  0.9949
40438TIP3   OH222195   8.558   5.204   8.023 -0.2597  0.1877  0.3429
40438TIP3    H122196   8.521   5.224   8.109 -0.2481 -1.5188  0.7760
40438TIP3    H222197   8.608   5.282   8.000 -1.0063  1.0281  1.4689
40439TIP3   OH222198   4.146   2.638   1.747  0.2798 -0.2735 -0.1922
40439TIP3    H122199   4.189   2.552   1.751  1.4072  0.3089  1.2728
40439TIP3    H222200   4.141   2.658   1.654  1.2836 -1.3220 -0.4975
40440TIP3   OH222201   9.783   2.448   7.357  0.1698 -0.1174  0.6058
40440TIP3    H122202   9.704   2.448   7.304 -0.2609  2.2669  1.1405
40440TIP3    H222203   9.753   2.417   7.443  0.3193 -1.3672  0.2322
40441TIP3   OH222204   2.893   7.817   5.283 -0.5741  0.0420 -0.3293
40441TIP3    H122205   2.966   7.876   5.265  0.1918 -1.3134 -1.8466
40441TIP3    H222206   2.817   7.860   5.243  0.5545 -1.4301 -4.5005
40442TIP3   OH222207   9.296   4.716   7.504  0.5858  0.3391 -0.5127
40442TIP3    H122208   9.303   4.811   7.493 -0.6132  0.3995 -0.9499
40442TIP3    H222209   9.242   4.705   7.582  0.6737  0.0215 -0.4988
40443TIP3   OH222210   6.488   0.202   3.282 -0.5728 -0.1938  0.2921
40443TIP3    H122211   6.459   0.126   3.332 -0.4162 -0.2271  0.3306
40443TIP3    H222212   6.579   0.215   3.308 -0.6059  0.0219  0.3058
40444TIP3   OH222213   8.598   2.233  10.647 -0.3235  0.1345 -0.0989
40444TIP3    H122214   8.609   2.328  10.640 -0.6481  0.1048 -1.2041
40444TIP3    H222215   8.570   2.218  10.737  2.4834  0.8066  1.0125
40445TIP3   OH222216   8.475  10.072   8.008 -0.0756  0.0946 -0.2776
40445TIP3    H122217   8.557  10.074   8.057  0.5648 -2.8835 -1.0117
40445TIP3    H222218   8.488  10.133   7.936  0.4912  1.5277  0.9888
40446TIP3   OH222219   5.645   7.248   9.033 -0.3388 -0.2954 -0.6371
40446TIP3    H122220   5.647   7.280   8.943  0.8042 -0.8280 -0.8114
40446TIP3    H222221   5.662   7.325   9.086 -0.9289  0.0056 -0.8716
40447TIP3   OH222222   0.562   5.014  10.670 -0.0504 -0.1429  0.6956
40447TIP3    H122223   0.493   5.050  10.727 -0.3156  1.0854 -0.3523
40447TIP3    H222224   0.553   5.062  10.588  0.4537 -1.7403 -0.3409
40448TIP3   OH222225   1.999   8.018   9.862 -0.7448 -0.0219  0.4190
40448TIP3    H122226   2.059   7.952   9.828 -1.7849 -0.4770 -0.5771
40448TIP3    H222227   2.022   8.024   9.955 -0.6588 -1.8299  0.5518
40449TIP3   OH222228   5.060   4.610  10.893  0.8079  0.0589 -0.3085
40449TIP3    H122229   5.050   4.571  10.980 -0.4409  0.5318 -0.2133
40449TIP3    H222230   5.002   4.558  10.837 -0.5411  1.4568 -0.2687
40450TIP3   OH222231   7.110   2.032   2.057  0.0233  0.3519 -0.0259
40450TIP3    H122232   7.102   2.109   2.001  1.9617  1.5779  1.2507
40450TIP3    H222233   7.038   2.039   2.119 -0.1713  0.8137 -0.3016
40451TIP3   OH222234   4.937   9.290  10.585 -0.3948  0.1082 -0.0349
40451TIP3    H122235   4.988   9.369  10.568 -1.2308  0.5334 -0.6722
40451TIP3    H222236   4.926   9.250  10.498  0.8329 -1.2305  0.3976
40452TIP3   OH222237   5.478   3.443   1.567 -0.7740  0.0635  0.4794
40452TIP3    H122238   5.439   3.514   1.618 -0.2125 -0.3510  1.5393
40452TIP3    H222239   5.532   3.396   1.631  2.0080  1.0143 -1.0200
40453TIP3   OH222240   1.904   8.358   5.495  0.1550  0.5886 -0.2339
40453TIP3    H122241   1.835   8.295   5.516 -0.0900  0.7107 -0.6537
40453TIP3    H222242   1.913   8.353   5.400  0.9231  0.3769 -0.1529
40454TIP3   OH222243   8.264   0.956   5.784  0.2200  0.2965  0.2430
40454TIP3    H122244   8.210   0.877   5.786 -0.3235  0.6563 -0.0905
40454TIP3    H222245   8.207   1.023   5.748 -0.1219  1.4767  2.8243
40455TIP3   OH222246   2.334   2.853   2.598 -0.3156  0.1131 -0.1847
40455TIP3    H122247   2.403   2.917   2.580 -1.2638  0.7139 -1.9388
40455TIP3    H222248   2.304   2.826   2.512 -0.9505 -1.6219  0.5417
40456TIP3   OH222249   3.791   7.046   4.606 -0.1248 -0.4671 -0.0378
40456TIP3    H122250   3.796   7.141   4.597 -0.6384 -0.2735  1.3984
40456TIP3    H222251   3.725   7.019   4.542  1.7323 -0.2036 -2.2113
40457TIP3   OH222252   9.063   0.166   2.607 -0.6626  0.7537 -0.0655
40457TIP3    H122253   9.090   0.104   2.674 -1.6327 -1.4899 -1.6349
40457TIP3    H222254   8.969   0.179   2.624 -1.0590 -0.3206 -1.3026
40458TIP3   OH222255   2.715   0.065   3.851  0.0558  0.1293 -0.1945
40458TIP3    H122256   2.729   0.036   3.761 -0.0473  0.7803 -0.4228
40458TIP3    H222257   2.676   0.152   3.843  0.9887  0.6305  0.4902
40459TIP3   OH222258   8.414   5.829   5.765 -0.2821 -0.4405  0.2091
40459TIP3    H122259   8.434   5.744   5.725 -1.8822  0.5723 -3.0189
40459TIP3    H222260   8.467   5.892   5.716 -0.3026  0.6311  1.5030
40460TIP3   OH222261   6.968   7.778   7.471  0.2242  0.4132  0.1921
40460TIP3    H122262   6.908   7.704   7.476 -0.5729  1.0955  1.2069
40460TIP3    H222263   6.913   7.852   7.447  1.0881  0.6297 -1.3045
40461TIP3   OH222264   5.810   0.918  10.007  0.3935 -0.2458  0.4450
40461TIP3    H122265   5.887   0.864  10.025 -0.1177 -0.7331  1.2507
40461TIP3    H222266   5.822   0.949   9.917  1.3618 -0.5852  0.4517
40462TIP3   OH222267   8.090   7.100   0.489 -0.2962  1.0531  0.6353
40462TIP3    H122268   8.090   7.065   0.400 -1.7149  2.6082 -0.0271
40462TIP3    H222269   8.124   7.029   0.543  1.0566  0.2279 -1.1921
40463TIP3   OH222270   9.326   2.057   1.430  0.4399 -0.6352 -0.9299
40463TIP3    H122271   9.246   2.030   1.387 -0.0551  0.7850 -0.9317
40463TIP3    H222272   9.316   2.028   1.521 -1.7914  2.7414  0.0624
40464TIP3   OH222273   5.068   6.103   0.532 -0.2769  0.5914  0.7707
40464TIP3    H122274   5.163   6.089   0.522  0.0018  1.0621  2.4452
40464TIP3    H222275   5.036   6.019   0.565 -0.3232  0.6383  0.8446
40465TIP3   OH222276   2.028   6.512   4.482 -0.1937 -0.2418 -0.2780
40465TIP3    H122277   1.970   6.572   4.530 -1.6727 -1.7888 -0.0565
40465TIP3    H222278   1.979   6.430   4.477  1.6598 -1.3611 -0.8435
40466TIP3   OH222279   2.708   3.653   4.577 -0.1156  0.6976 -0.6923
40466TIP3    H122280   2.779   3.629   4.517 -0.3169  0.7393 -0.9488
40466TIP3    H222281   2.722   3.745   4.595  0.2690  0.5535 -0.2351
40467TIP3   OH222282   9.078   4.257   9.085 -0.2673 -0.9052  0.0050
40467TIP3    H122283   8.999   4.310   9.077 -0.7357 -1.6227 -0.2662
40467TIP3    H222284   9.116   4.282   9.169  0.1391  0.6637 -0.6157
40468TIP3   OH222285  10.358   6.692   4.753  0.0105  0.3745 -0.0030
40468TIP3    H122286  10.366   6.672   4.660  1.5967  0.5147  0.0767
40468TIP3    H222287  10.381   6.610   4.797  1.7933  0.9800  0.2648
40469TIP3   OH222288   0.489  10.195   0.209  0.1734  0.0024 -0.1040
40469TIP3    H122289   0.442  10.277   0.194  0.5233  0.0249 -1.2300
40469TIP3    H222290   0.580  10.216   0.188  0.6035 -0.1768  1.5078
40470TIP3   OH222291   8.940   4.247  10.639 -0.0042 -0.3269 -0.5611
40470TIP3    H122292   8.986   4.284  10.564 -0.2821 -0.2217 -0.6852
40470TIP3    H222293   9.007   4.236  10.706 -0.1747  1.9229  0.0625
40471TIP3   OH222294   7.253   8.479   2.097 -0.0297 -0.6604  0.1025
40471TIP3    H122295   7.180   8.521   2.144  0.9315  2.0177 -0.6314
40471TIP3    H222296   7.272   8.538   2.025  1.6918 -2.2514 -0.8146
40472TIP3   OH222297   3.800   6.727   4.138  0.2011 -0.3117  0.1681
40472TIP3    H122298   3.859   6.794   4.102  0.2789  0.1780  1.1824
40472TIP3    H222299   3.715   6.747   4.100  0.3823 -0.1117 -0.1369
40473TIP3   OH222300   9.957   9.422   0.353  0.7272  0.2813 -0.1777
40473TIP3    H122301   9.862   9.415   0.357  0.7597 -0.6177 -0.5661
40473TIP3    H222302   9.988   9.383   0.435  0.7513  0.8177  0.0677
40474TIP3   OH222303   7.914   2.124   2.044 -0.3078 -0.1376  0.3303
40474TIP3    H122304   7.828   2.127   2.003 -0.9320  0.4632  1.6112
40474TIP3    H222305   7.976   2.137   1.973 -1.2972 -0.1251 -0.5470
40475TIP3   OH222306   6.598   8.255   6.031  0.3125 -0.4564 -0.1604
40475TIP3    H122307   6.522   8.295   6.074 -0.8086 -1.6774 -0.9292
40475TIP3    H222308   6.626   8.319   5.966 -0.6178 -0.3503 -0.4668
40476TIP3   OH222309   3.351   4.073   6.535 -0.2847  0.7809 -0.3403
40476TIP3    H122310   3.412   4.064   6.609 -1.8090  0.5324  0.9567
40476TIP3    H222311   3.351   3.987   6.493  0.8794  1.0334 -0.8964
40477TIP3   OH222312   5.419   0.085   5.936 -0.1829 -0.1313 -0.0359
40477TIP3    H122313   5.412   0.141   6.012 -2.2894  0.2128 -0.4226
40477TIP3    H222314   5.334   0.092   5.893  0.0615 -2.3114 -1.0115
40478TIP3   OH222315   0.674   8.778   2.110 -0.6859 -0.4806  0.3019
40478TIP3    H122316   0.598   8.757   2.165  0.2859  1.7550  2.6841
40478TIP3    H222317   0.744   8.721   2.142 -0.7146 -0.8679 -0.2996
40479TIP3   OH222318   0.460   0.889   5.325 -0.0364  0.2038  0.5221
40479TIP3    H122319   0.549   0.901   5.358 -1.2050  2.4427  3.2951
40479TIP3    H222320   0.413   0.966   5.355 -2.5748 -0.0726 -2.3320
40480TIP3   OH222321   1.268   2.847   7.422  0.0944 -0.3439 -0.7692
40480TIP3    H122322   1.288   2.898   7.344  0.1512 -1.2988 -1.4007
40480TIP3    H222323   1.192   2.890   7.460 -0.5868 -0.4613 -1.9426
40481TIP3   OH222324   2.587   6.761   4.444  0.2011  0.1858 -0.1247
40481TIP3    H122325   2.538   6.743   4.364 -0.3355  1.2344 -0.0415
40481TIP3    H222326   2.623   6.676   4.469 -0.2432 -0.2951 -1.0664
40482TIP3   OH222327   2.791   6.215   5.319 -0.4846  0.0892 -0.5548
40482TIP3    H122328   2.745   6.153   5.376  0.3014  0.5629  0.6471
40482TIP3    H222329   2.843   6.161   5.260  0.0192 -0.4036  0.3310
40483TIP3   OH222330   6.375   1.185   4.667  0.2627 -0.6685  0.1793
40483TIP3    H122331   6.307   1.241   4.704  1.6116 -0.0879  1.8929
40483TIP3    H222332   6.433   1.166   4.740  0.7283 -3.0440 -0.7008
40484TIP3   OH222333   7.350   7.473   1.255 -0.3598 -0.0055 -0.6309
40484TIP3    H122334   7.274   7.532   1.259  0.4498  1.0417 -0.5219
40484TIP3    H222335   7.311   7.385   1.256 -1.5985  0.5115 -1.0858
40485TIP3   OH222336   8.826   6.800   2.454 -0.0483 -0.3593  0.6932
40485TIP3    H122337   8.826   6.813   2.359  0.7607  0.8844  0.8473
40485TIP3    H222338   8.874   6.719   2.467 -0.0167 -0.4511  0.0502
40486TIP3   OH222339   2.714   2.437   9.646  0.1593 -0.3108 -0.3755
40486TIP3    H122340   2.804   2.415   9.623  0.2993 -0.1364 -0.0014
40486TIP3    H222341   2.661   2.377   9.595  0.4901 -0.4264 -0.5854
40487TIP3   OH222342   1.426  10.581   3.323  0.4261  0.3534  0.2418
40487TIP3    H122343   1.345  10.612   3.363 -0.7390 -1.4572 -0.5504
40487TIP3    H222344   1.398  10.539   3.242  1.9041 -1.8281  0.7523
40488TIP3   OH222345   6.960   9.013   9.414 -0.7711  0.0446 -0.4409
40488TIP3    H122346   7.005   8.991   9.332 -0.5518  0.8317 -0.5432
40488TIP3    H222347   6.896   8.942   9.426  0.1484 -0.8290 -0.5535
40489TIP3   OH222348   0.490  10.802   0.641  0.3103 -0.1785 -0.0919
40489TIP3    H122349   0.502  10.880   0.587 -0.3663  0.1718  0.2579
40489TIP3    H222350   0.559  10.742   0.612  0.3891  0.2722 -0.8563
40490TIP3   OH222351   7.104  10.599   1.181  0.2715 -0.6910 -0.0052
40490TIP3    H122352   7.105  10.530   1.247  1.7582  0.1435  0.9022
40490TIP3    H222353   7.180  10.581   1.126 -0.8406 -1.2569 -1.3995
40491TIP3   OH222354   0.025   4.344   2.401  0.9483  0.3419 -0.2388
40491TIP3    H122355  -0.002   4.393   2.479  0.9635 -1.1928  0.7907
40491TIP3    H222356   0.022   4.407   2.330  0.8954  1.7897  1.0033
40492TIP3   OH222357   4.556   4.077   4.518 -0.2742  0.1261 -0.5387
40492TIP3    H122358   4.527   3.995   4.478  1.1678 -0.6034 -0.1646
40492TIP3    H222359   4.574   4.135   4.444  1.3306 -0.8442 -0.9519
40493TIP3   OH222360   2.648   2.368   0.134 -0.6026  0.2102  0.3121
40493TIP3    H122361   2.688   2.452   0.156 -0.5906  0.2629  0.0854
40493TIP3    H222362   2.645   2.321   0.217 -1.5453  0.8234  0.6480
40494TIP3   OH222363  10.637   8.860   3.727 -0.0245  0.5935 -0.0287
40494TIP3    H122364  10.550   8.893   3.704 -0.5614  0.0886  1.1499
40494TIP3    H222365  10.666   8.919   3.797 -0.2319 -0.3532  0.8658
40495TIP3   OH222366   6.486   7.246   1.270  0.1195  0.0427  0.2179
40495TIP3    H122367   6.480   7.176   1.205 -0.3738 -0.8757  1.2061
40495TIP3    H222368   6.425   7.220   1.339  0.5409  1.0355  1.0010
40496TIP3   OH222369   9.572   5.216   3.811 -0.0262 -0.3704 -0.6700
40496TIP3    H122370   9.608   5.304   3.813 -0.0566 -0.1854 -3.3984
40496TIP3    H222371   9.615   5.170   3.883  1.2711  1.4130 -0.2463
40497TIP3   OH222372   6.064   1.971   9.447  1.1648 -0.0273 -0.1978
40497TIP3    H122373   6.142   1.999   9.399  0.7997  1.6425  0.1328
40497TIP3    H222374   6.062   1.876   9.435  1.8474  0.1684 -2.3333
40498TIP3   OH222375   9.689   7.027   8.370 -0.2456  0.5239 -0.4081
40498TIP3    H122376   9.619   7.079   8.331 -0.0965  0.6285 -0.5358
40498TIP3    H222377   9.750   7.092   8.406 -0.2355  0.4328 -0.2624
40499TIP3   OH222378   0.616   4.325   4.661  0.3111  0.7438  0.3258
40499TIP3    H122379   0.555   4.266   4.706 -1.4210  0.2429 -2.4488
40499TIP3    H222380   0.703   4.291   4.682 -0.4070  0.2494  2.7546
40500TIP3   OH222381   6.154   4.621  10.204 -0.2238  0.1021 -0.4870
40500TIP3    H122382   6.146   4.527  10.186  0.7836 -0.1334  0.2251
40500TIP3    H222383   6.117   4.632  10.292 -2.5255  0.7906 -1.4619
40501TIP3   OH222384   9.431   9.787   1.257  0.2425 -0.3065 -0.1659
40501TIP3    H122385   9.356   9.796   1.198  0.1720  1.8442  0.1824
40501TIP3    H222386   9.480   9.712   1.223 -0.8696 -0.3622 -1.7304
40502TIP3   OH222387  10.591   6.696   8.441 -1.0454  0.0352 -0.0108
40502TIP3    H122388  10.552   6.728   8.522  2.7953 -1.2593  2.6582
40502TIP3    H222389  10.579   6.601   8.444 -0.6780 -0.0480 -0.8356
40503TIP3   OH222390   6.078   3.406   6.245 -0.0984 -0.2908  0.5214
40503TIP3    H122391   6.045   3.351   6.316  0.9903  0.4614  1.6577
40503TIP3    H222392   6.046   3.363   6.165 -0.2681 -1.8901  1.3947
40504TIP3   OH222393   8.546   9.023  10.763 -0.2839 -0.0920  0.3964
40504TIP3    H122394   8.611   8.980  10.707  0.0257 -1.8260  1.9827
40504TIP3    H222395   8.465   9.020  10.712 -0.1956 -2.3583  0.2941
40505TIP3   OH222396   2.036   0.824   0.097  0.0236  0.4717  0.1202
40505TIP3    H122397   1.966   0.819   0.162 -2.9700  0.5803 -2.8026
40505TIP3    H222398   2.092   0.748   0.116 -0.6810  0.4942  2.7153
40506TIP3   OH222399   9.902   6.703  10.218  0.1532  0.8411 -0.0344
40506TIP3    H122400   9.930   6.745  10.300  0.8096 -1.8025  1.2113
40506TIP3    H222401   9.984   6.685  10.172 -0.0161 -0.2470  0.0852
40507TIP3   OH222402   1.336  10.900   6.232  0.1165  0.1095 -0.0706
40507TIP3    H122403   1.269  10.846   6.274  0.4858 -0.0457  0.3260
40507TIP3    H222404   1.358  10.852   6.153  0.5700 -0.4229  0.3672
40508TIP3   OH222405   2.849   0.599   1.788 -0.0114 -0.2461  0.7872
40508TIP3    H122406   2.846   0.616   1.882 -2.6308 -2.2858  1.1963
40508TIP3    H222407   2.852   0.504   1.781  0.2395 -0.1311 -1.2124
40509TIP3   OH222408   6.934   2.113   8.032  0.0108  0.3055  0.2437
40509TIP3    H122409   6.910   2.206   8.028  5.3260  2.0154 -0.9631
40509TIP3    H222410   6.984   2.105   8.113  2.1452 -0.5938 -1.0685
40510TIP3   OH222411   6.666   6.557   7.351  0.4354 -0.1138  0.0022
40510TIP3    H122412   6.611   6.520   7.419  0.3247  0.6304  0.3324
40510TIP3    H222413   6.652   6.652   7.358  1.4751  0.0689 -0.1365
40511TIP3   OH222414   3.660   2.337  10.252  0.1556  0.1572  0.1761
40511TIP3    H122415   3.749   2.312  10.279 -0.8986 -2.5344  1.5095
40511TIP3    H222416   3.635   2.407  10.312  0.1299 -1.5262  2.2479
40512TIP3   OH222417   6.228   5.834   1.868 -0.2647 -0.0879 -0.0215
40512TIP3    H122418   6.275   5.808   1.789  1.4212  2.0276  0.1725
40512TIP3    H222419   6.156   5.889   1.837  0.3418  0.6670 -0.1213
40513TIP3   OH222420  10.346   3.180   8.006  0.2432  0.0197  0.0172
40513TIP3    H122421  10.437   3.162   7.983  0.4330 -0.0362  0.7807
40513TIP3    H222422  10.335   3.274   7.991  0.6004  0.1408  0.4862
40514TIP3   OH222423   6.412  10.713   8.096  0.4765  0.4457 -0.1044
40514TIP3    H122424   6.359  10.635   8.082  0.4111  0.3780  0.4970
40514TIP3    H222425   6.449  10.733   8.010  2.5457 -1.7506  0.1722
40515TIP3   OH222426   8.562   3.466   7.653 -0.5229 -0.5890 -0.1153
40515TIP3    H122427   8.497   3.396   7.642 -0.9985 -0.1330 -0.2441
40515TIP3    H222428   8.611   3.441   7.731  0.9492 -2.3596 -1.5137
40516TIP3   OH222429   6.598   0.258   7.925  0.8341  0.3448  0.3080
40516TIP3    H122430   6.611   0.214   7.841 -1.8920 -0.0058 -0.0312
40516TIP3    H222431   6.586   0.186   7.988  1.6649  0.6171  0.7935
40517TIP3   OH222432   7.383  10.703   5.576 -0.3501 -0.4467 -0.3094
40517TIP3    H122433   7.343  10.789   5.592  0.6265 -0.1955  0.9701
40517TIP3    H222434   7.360  10.682   5.486 -1.7003  0.5669 -0.2236
40518TIP3   OH222435   1.673   7.027   6.922 -0.5602  0.0338 -0.8337
40518TIP3    H122436   1.604   6.962   6.938 -0.7387  0.2943 -0.5273
40518TIP3    H222437   1.677   7.077   7.004  1.6228 -1.4840  0.0754
40519TIP3   OH222438   6.684   7.159   1.615  0.1279 -0.6301 -0.8508
40519TIP3    H122439   6.770   7.188   1.646  0.0520 -1.9678  0.7607
40519TIP3    H222440   6.624   7.228   1.642  0.4684 -0.4809 -0.4654
40520TIP3   OH222441   5.256   3.369   0.767 -0.1093  0.0272  0.1070
40520TIP3    H122442   5.232   3.296   0.824  1.1589 -1.2286 -0.9054
40520TIP3    H222443   5.206   3.355   0.687  0.0314  0.3613 -0.0441
40521TIP3   OH222444   4.269   6.283   5.699 -0.0199  0.2088 -0.3459
40521TIP3    H122445   4.198   6.253   5.756 -0.9438 -0.4193 -1.7615
40521TIP3    H222446   4.234   6.362   5.657  1.6992  2.3476  1.9534
40522TIP3   OH222447   4.960   5.684   1.407 -0.1387  0.4629  0.2484
40522TIP3    H122448   5.027   5.703   1.472  0.8086 -2.9922  0.4652
40522TIP3    H222449   5.007   5.642   1.335 -1.8134 -0.2534 -0.4790
40523TIP3   OH222450   6.817   4.615   2.693 -0.1166  0.1474 -0.2743
40523TIP3    H122451   6.889   4.605   2.756 -1.1602 -1.2579  0.7751
40523TIP3    H222452   6.752   4.550   2.722 -0.2503 -1.2437 -3.3601
40524TIP3   OH222453   6.778   0.755   2.192  0.0468  0.7588 -0.1646
40524TIP3    H122454   6.749   0.691   2.258 -0.5413  0.9085 -0.2727
40524TIP3    H222455   6.740   0.838   2.221  0.8435  1.0773 -0.0012
40525TIP3   OH222456   4.620   2.623  10.047 -0.2049 -0.0009 -0.6399
40525TIP3    H122457   4.670   2.651   9.970  1.9750  1.2796  1.1035
40525TIP3    H222458   4.603   2.704  10.095 -0.6897 -0.8506  0.6657
40526TIP3   OH222459   2.731   3.375   9.256  0.0301 -0.0566  0.0008
40526TIP3    H122460   2.686   3.291   9.251  0.5212 -0.4496  1.6597
40526TIP3    H222461   2.666   3.435   9.293 -0.1149  0.1499 -0.5760
40527TIP3   OH222462   6.367   3.385   6.069 -0.1938 -0.1497  0.0173
40527TIP3    H122463   6.361   3.291   6.084  0.6172 -0.2001  0.0321
40527TIP3    H222464   6.336   3.424   6.150 -1.0778 -0.3935 -0.1913
40528TIP3   OH222465   2.373   5.423   5.628 -0.0177  0.1299 -0.6663
40528TIP3    H122466   2.410   5.509   5.609  1.7601  0.0382  1.8309
40528TIP3    H222467   2.381   5.374   5.547  0.5182  1.7789 -1.6410
40529TIP3   OH222468   1.249   4.295   1.169  0.2467  0.0868 -0.1392
40529TIP3    H122469   1.271   4.340   1.088  2.2209  0.9267  0.7967
40529TIP3    H222470   1.284   4.206   1.157 -0.8809 -0.2894 -0.7846
40530TIP3   OH222471   1.433   4.090  10.420  0.5890 -0.6224  0.0454
40530TIP3    H122472   1.490   4.073  10.495 -0.5332  0.2446  1.1245
40530TIP3    H222473   1.494   4.105  10.347  1.6765 -3.0567  0.3767
40531TIP3   OH222474   3.234   2.044   6.060  0.2001  0.5477 -0.1668
40531TIP3    H122475   3.222   1.951   6.075 -3.7893  0.7058 -1.2689
40531TIP3    H222476   3.232   2.054   5.965 -1.4328  1.8582 -0.0512
40532TIP3   OH222477   1.671   0.260   5.255 -0.2525 -0.5373  0.2436
40532TIP3    H122478   1.625   0.258   5.171  0.1968  0.0911 -0.0213
40532TIP3    H222479   1.714   0.175   5.260 -0.6172 -0.7389  0.0286
40533TIP3   OH222480   8.429   7.292   7.300 -0.0255  0.0297 -0.2725
40533TIP3    H122481   8.494   7.275   7.232  0.5420 -0.5045  0.3774
40533TIP3    H222482   8.396   7.205   7.323  0.8239  0.0494  1.1123
40534TIP3   OH222483   2.562   9.903   9.346 -0.0067 -0.2465  0.6583
40534TIP3    H122484   2.639   9.960   9.346 -1.1239  1.3079  0.5661
40534TIP3    H222485   2.537   9.896   9.253 -0.8166  0.4625  0.8095
40535TIP3   OH222486   7.326   3.836   2.365 -0.7602  0.1105  0.3651
40535TIP3    H122487   7.295   3.753   2.402 -0.7438 -0.1800 -0.2672
40535TIP3    H222488   7.399   3.811   2.309 -0.9924  0.5123 -0.1178
40536TIP3   OH222489   1.312   6.225   9.197  0.1024  0.2658 -0.0223
40536TIP3    H122490   1.257   6.152   9.169  0.0845  0.6773 -1.1127
40536TIP3    H222491   1.268   6.259   9.275 -1.4940  0.8910 -1.1327
40537TIP3   OH222492   0.958   6.926   6.137 -0.6175 -0.0197 -1.0257
40537TIP3    H122493   1.024   6.980   6.179 -2.1398  1.0943  0.0306
40537TIP3    H222494   0.934   6.974   6.057 -1.2056  0.3350 -0.6394
40538TIP3   OH222495   8.750   0.192   2.516 -0.2070  0.4743 -0.1211
40538TIP3    H122496   8.771   0.182   2.423 -0.0047 -1.4126  0.0881
40538TIP3    H222497   8.658   0.169   2.522 -0.0899  0.0893  0.2105
40539TIP3   OH222498   0.123   5.405   4.756 -0.4772  0.2221  0.3372
40539TIP3    H122499   0.197   5.352   4.787  0.7933  1.5137 -0.3965
40539TIP3    H222500   0.048   5.345   4.761  1.0386 -2.0068 -1.4038
40540TIP3   OH222501   9.114   8.843   6.631  0.6118 -0.3342  0.2253
40540TIP3    H122502   9.122   8.784   6.705  1.0091 -0.7207 -0.1151
40540TIP3    H222503   9.164   8.921   6.657  0.5547 -0.3757  0.4561
40541TIP3   OH222504   9.676   1.952   5.641 -0.5217  0.2211  0.1982
40541TIP3    H122505   9.728   1.871   5.637 -0.6981  0.0281  1.4315
40541TIP3    H222506   9.587   1.925   5.622 -0.3321  0.4262 -1.1169
40542TIP3   OH222507   6.806   2.744   0.888  0.4560 -0.3559 -0.0397
40542TIP3    H122508   6.862   2.683   0.936  0.5984  1.1619  1.8257
40542TIP3    H222509   6.867   2.804   0.845  0.4122  1.7745  2.6158
40543TIP3   OH222510   1.984   8.642   5.061 -0.4864  0.3345 -0.3757
40543TIP3    H122511   1.990   8.666   5.154 -1.5918  0.8939 -0.4398
40543TIP3    H222512   2.071   8.662   5.027  1.0902 -3.0126  1.2040
40544TIP3   OH222513   0.005   1.210   5.952 -0.1132 -0.8419 -0.0144
40544TIP3    H122514  -0.024   1.297   5.925 -1.5549 -1.0997  0.6099
40544TIP3    H222515  -0.022   1.152   5.881 -0.6431 -1.0001  0.3069
40545TIP3   OH222516   8.590  10.545   9.974 -0.1987  0.0080 -0.1256
40545TIP3    H122517   8.653  10.472   9.979 -0.7656 -0.4191  1.2012
40545TIP3    H222518   8.515  10.509   9.926  0.0266  0.1250 -0.5769
40546TIP3   OH222519   2.068   0.756   2.762  0.4320  0.5206 -0.8838
40546TIP3    H122520   2.001   0.708   2.810  2.5216 -1.1668  0.5574
40546TIP3    H222521   2.055   0.848   2.788 -0.6480  0.1040  0.1515
40547TIP3   OH222522   5.548   5.497   0.609  0.2905 -0.7778  0.4866
40547TIP3    H122523   5.521   5.426   0.550  2.1772 -0.4101 -0.9200
40547TIP3    H222524   5.520   5.577   0.564 -0.5053 -0.5685  1.3413
40548TIP3   OH222525   3.336   1.441   9.169 -0.0703 -0.1861  0.2062
40548TIP3    H122526   3.382   1.525   9.164 -0.7971  0.2756  1.0663
40548TIP3    H222527   3.271   1.445   9.099  0.7380 -0.5696 -0.5833
40549TIP3   OH222528   7.426   9.278   3.282 -0.0568 -0.1862  0.1528
40549TIP3    H122529   7.449   9.338   3.212 -1.8289  1.3886  0.8120
40549TIP3    H222530   7.360   9.221   3.244  0.3634 -0.5749  0.0081
40550TIP3   OH222531   0.259   0.576   7.249 -0.4745 -0.0638  0.0021
40550TIP3    H122532   0.293   0.499   7.293 -1.4690 -0.0449  0.8408
40550TIP3    H222533   0.196   0.542   7.185 -0.3315  0.0120 -0.1806
40551TIP3   OH222534   9.251   6.926   7.719 -0.2067  0.1421  0.4871
40551TIP3    H122535   9.257   6.918   7.623 -0.5757  1.2509  0.3529
40551TIP3    H222536   9.341   6.943   7.746 -0.2283  0.7141  0.2282
40552TIP3   OH222537   8.468   7.946   2.241 -0.2860 -0.3829 -0.7093
40552TIP3    H122538   8.523   8.009   2.194  1.0950 -1.3589 -0.4681
40552TIP3    H222539   8.504   7.945   2.329 -1.0941 -0.5990 -0.3782
40553TIP3   OH222540   0.097   6.238   4.113 -0.4020 -0.0427  0.6201
40553TIP3    H122541   0.043   6.190   4.051  2.1476 -2.2423 -0.0244
40553TIP3    H222542   0.117   6.175   4.182  1.0052  0.8299  1.0481
40554TIP3   OH222543   9.428   7.483   2.215 -0.1767 -0.6670 -0.8470
40554TIP3    H122544   9.387   7.418   2.272 -0.2326  0.1519  0.0642
40554TIP3    H222545   9.404   7.568   2.253 -0.7314 -0.0794 -2.4446
40555TIP3   OH222546   0.408   5.124   7.350  0.6754  0.3580  0.2900
40555TIP3    H122547   0.368   5.086   7.428  0.1179  0.9921  0.3239
40555TIP3    H222548   0.461   5.053   7.313 -1.2745 -0.8675 -0.3395
40556TIP3   OH222549   4.387   8.280   7.339  0.3886 -0.3501 -0.4443
40556TIP3    H122550   4.397   8.256   7.432  1.3629 -1.4940 -0.8167
40556TIP3    H222551   4.375   8.375   7.340 -1.0847 -0.5004  0.9419
40557TIP3   OH222552   5.384   8.707   8.710 -0.2241  0.0163  0.3295
40557TIP3    H122553   5.336   8.785   8.739 -0.5379  0.7732 -2.0259
40557TIP3    H222554   5.475   8.737   8.702  0.3502 -0.8421  2.6735
40558TIP3   OH222555   1.072   9.082   9.257  0.3900 -0.4365  0.7243
40558TIP3    H122556   1.048   9.088   9.164  2.3391  1.9367  0.2422
40558TIP3    H222557   1.122   9.001   9.263 -2.5400 -2.4024  0.5406
40559TIP3   OH222558   0.149   2.742   5.894 -0.7489  0.4084  0.0372
40559TIP3    H122559   0.167   2.729   5.987  1.1928 -1.2135 -0.4796
40559TIP3    H222560   0.081   2.678   5.873 -0.8657  0.4614  0.2586
40560TIP3   OH222561  10.379   0.329   0.720 -0.5689  0.3438  0.3442
40560TIP3    H122562  10.307   0.363   0.667 -1.1149 -0.5027  0.5306
40560TIP3    H222563  10.432   0.278   0.659 -0.9620 -0.2764  0.5123
40561TIP3   OH222564   3.567   5.939   0.735 -0.1116  0.4336 -0.2116
40561TIP3    H122565   3.636   5.959   0.672  0.2119  0.5474  0.1807
40561TIP3    H222566   3.565   6.015   0.794  0.4360 -0.2179  0.6670
40562TIP3   OH222567   3.959   0.753   0.296 -0.6043 -0.1764 -0.4333
40562TIP3    H122568   3.895   0.820   0.272 -1.2270 -0.5922  0.0340
40562TIP3    H222569   3.995   0.782   0.379  2.0500  1.6162 -2.0706
40563TIP3   OH222570  10.124   8.941   4.105 -0.2690  0.4251  0.2716
40563TIP3    H122571  10.204   8.949   4.157  1.2543 -0.9545 -1.7407
40563TIP3    H222572  10.141   8.994   4.027 -1.7327  0.8856  0.2403
40564TIP3   OH222573  10.473   6.340   6.120 -0.1566 -0.8387 -0.1396
40564TIP3    H122574  10.401   6.277   6.129 -0.6409 -0.2722 -0.0160
40564TIP3    H222575  10.482   6.379   6.207  0.3313 -0.9283 -0.1435
40565TIP3   OH222576   3.900   7.801   5.816 -0.0486 -0.2784 -0.2313
40565TIP3    H122577   3.810   7.771   5.810 -0.2948  0.4871 -0.5223
40565TIP3    H222578   3.899   7.888   5.776  0.3238  0.7979  1.9822
40566TIP3   OH222579   9.295   6.711   5.004 -0.0835  0.1477  0.2412
40566TIP3    H122580   9.390   6.706   5.015  0.3201  0.9570 -2.1009
40566TIP3    H222581   9.266   6.771   5.072  0.9353 -0.7188  1.5030
40567TIP3   OH222582   7.542   8.050   5.578 -0.0460  0.5459 -0.5354
40567TIP3    H122583   7.474   8.117   5.569  0.3652  1.3731  1.8090
40567TIP3    H222584   7.621   8.091   5.542  0.2620  1.4660  1.1247
40568TIP3   OH222585   7.685   1.411   6.944  0.3851 -0.6857  0.3227
40568TIP3    H122586   7.730   1.425   6.860  0.3629 -0.5460  0.3340
40568TIP3    H222587   7.756   1.406   7.008  0.3368  2.4232  0.7905
40569TIP3   OH222588   5.166   0.109   6.704 -0.7641  0.1081  0.0027
40569TIP3    H122589   5.143   0.180   6.644 -0.5114  0.2540  0.0751
40569TIP3    H222590   5.234   0.147   6.761  2.2735 -1.2813 -2.4014
40570TIP3   OH222591  10.115   8.801   7.670 -0.1017  0.3541  0.1355
40570TIP3    H122592  10.152   8.766   7.750  1.0732 -0.7517 -0.8458
40570TIP3    H222593  10.131   8.733   7.604 -1.7928  0.8598 -0.8591
40571TIP3   OH222594   2.327   7.157   4.511  0.0782  0.2758  0.3658
40571TIP3    H122595   2.316   7.252   4.524  1.1992  0.2803  1.4805
40571TIP3    H222596   2.246   7.119   4.545  0.5039  0.7198  1.9567
40572TIP3   OH222597  10.288   1.084   5.043 -0.1727 -0.0215  0.2286
40572TIP3    H122598  10.290   0.989   5.055  1.5664  0.1295  1.6835
40572TIP3    H222599  10.335   1.118   5.119 -2.7466  2.1798  0.9922
40573TIP3   OH222600   4.875  10.451   0.224  0.3669 -0.3866 -0.0609
40573TIP3    H122601   4.940  10.444   0.155  0.9421  2.3323  0.0950
40573TIP3    H222602   4.885  10.540   0.258 -1.3945 -0.8933  2.0347
40574TIP3   OH222603   4.891   9.648   7.899  1.1482  0.5350 -0.2115
40574TIP3    H122604   4.927   9.568   7.860  0.7108 -0.1394  0.7361
40574TIP3    H222605   4.962   9.684   7.951  1.5088  1.0592 -1.0353
40575TIP3   OH222606  10.177   8.707   9.986 -0.0416 -0.4005  0.2573
40575TIP3    H122607  10.267   8.677  10.001  0.4598  1.3396  1.0404
40575TIP3    H222608  10.174   8.793  10.028 -1.7189  0.1110 -0.8339
40576TIP3   OH222609   2.541   3.784   4.080 -0.3128  0.0122 -0.1440
40576TIP3    H122610   2.594   3.708   4.057 -0.0450  0.2961 -0.4744
40576TIP3    H222611   2.538   3.837   4.000  0.2035  0.7522  0.3066
40577TIP3   OH222612   9.837   6.201   6.140  0.1569  0.3759  0.2139
40577TIP3    H122613   9.867   6.119   6.099  0.9014  0.6606  0.1774
40577TIP3    H222614   9.742   6.192   6.144  0.2976 -1.0775  1.4233
40578TIP3   OH222615   2.005   7.141   3.709 -0.2588 -0.0160  0.1840
40578TIP3    H122616   1.991   7.103   3.795 -2.2455  0.1647 -0.0053
40578TIP3    H222617   1.926   7.194   3.693  0.2178  0.2431 -1.5824
40579TIP3   OH222618   9.289   3.055   6.899 -0.3810 -0.2819 -1.0848
40579TIP3    H122619   9.325   2.981   6.948 -1.6032 -0.4514 -0.4036
40579TIP3    H222620   9.322   3.044   6.810  0.0993 -1.1925 -0.7984
40580TIP3   OH222621   1.462  10.310  10.192 -0.1945 -0.4645  0.6210
40580TIP3    H122622   1.534  10.274  10.140 -0.1864  0.1048  0.2295
40580TIP3    H222623   1.497  10.316  10.281  1.1524  2.1706  0.0079
40581TIP3   OH222624   2.183  10.434  10.622 -0.2773  0.1261 -0.3181
40581TIP3    H122625   2.275  10.431  10.594 -0.3679  0.1373 -0.6166
40581TIP3    H222626   2.133  10.442  10.541 -0.5770 -0.4765 -0.2015
40582TIP3   OH222627   8.576   5.902   9.536  0.0970  0.4038 -0.3211
40582TIP3    H122628   8.524   5.892   9.616 -0.8126 -0.2354 -0.9733
40582TIP3    H222629   8.617   5.817   9.522 -1.4241 -0.1756 -1.6374
40583TIP3   OH222630   3.461   0.819   1.039  0.1710  0.5098 -0.4434
40583TIP3    H122631   3.526   0.805   1.108  0.2274  1.9559 -0.1739
40583TIP3    H222632   3.478   0.750   0.976  1.1292  0.0904  0.2564
40584TIP3   OH222633   1.225   9.462   1.824 -0.0121 -0.2985 -0.2086
40584TIP3    H122634   1.201   9.371   1.808 -0.2685 -0.2244 -0.2621
40584TIP3    H222635   1.317   9.468   1.800  0.9127 -1.2677  2.6804
40585TIP3   OH222636   4.806   7.676  10.693 -0.4721 -0.3576 -0.0133
40585TIP3    H122637   4.797   7.633  10.777 -0.2337  1.2425  0.8702
40585TIP3    H222638   4.870   7.623  10.645  0.1415 -0.7397  1.1895
40586TIP3   OH222639   2.459   3.228   6.000 -0.2000 -0.1501  0.1272
40586TIP3    H122640   2.514   3.160   6.037 -0.7599  0.0404  1.3425
40586TIP3    H222641   2.398   3.182   5.943  0.3890 -0.4834 -0.2538
40587TIP3   OH222642   6.093   9.397   1.391  0.7406 -0.2982 -0.4041
40587TIP3    H122643   6.120   9.452   1.465  0.6840 -0.9180  0.0777
40587TIP3    H222644   6.034   9.332   1.429 -0.8630  0.5552 -1.3065
40588TIP3   OH222645   6.644   7.965  10.454 -0.0742 -0.2490 -0.5786
40588TIP3    H122646   6.579   7.918  10.401 -2.2060  1.9742 -0.1383
40588TIP3    H222647   6.606   7.968  10.541  1.1090  0.2707 -0.0660
40589TIP3   OH222648   0.361   1.646   1.718 -0.7241  0.3579  0.4758
40589TIP3    H122649   0.306   1.568   1.727 -0.3267 -0.0307 -0.3533
40589TIP3    H222650   0.313   1.704   1.660 -0.2955  0.0459 -0.1969
40590TIP3   OH222651   3.878   1.726   6.277  0.1274  0.0883  0.7381
40590TIP3    H122652   3.802   1.782   6.289  0.7011  0.7569  1.2902
40590TIP3    H222653   3.863   1.684   6.192  0.7080  2.7299 -0.7880
40591TIP3   OH222654   3.115   6.414   9.232  0.3267 -0.1738 -0.1022
40591TIP3    H122655   3.126   6.498   9.277 -0.4567  0.6078 -1.3226
40591TIP3    H222656   3.205   6.385   9.213  0.6196  0.1193  0.7802
40592TIP3   OH222657   9.466   2.517   6.932 -0.0116 -0.0989  0.0841
40592TIP3    H122658   9.534   2.452   6.914  0.8620  1.3784 -2.5935
40592TIP3    H222659   9.386   2.478   6.896 -0.1953 -0.9748  1.3796
40593TIP3   OH222660   2.405   4.094   4.036  0.3140 -0.2449  0.2392
40593TIP3    H122661   2.422   4.034   4.109 -0.6277 -1.9904 -0.8882
40593TIP3    H222662   2.462   4.062   3.966 -0.8104 -0.3634 -0.6468
40594TIP3   OH222663   0.061   1.085   8.236  0.1889  0.2374 -0.1962
40594TIP3    H122664   0.025   0.996   8.234  0.5741  0.0761 -0.0606
40594TIP3    H222665  -0.011   1.141   8.206  0.0470 -0.1509 -0.5895
40595TIP3   OH222666  10.738   9.041   4.504 -0.0473  0.3881 -0.0486
40595TIP3    H122667  10.666   8.979   4.500  0.8845 -0.6907 -0.3525
40595TIP3    H222668  10.703   9.114   4.557 -1.4286  0.0177 -0.4029
40596TIP3   OH222669   0.590  10.084   0.844 -0.8539  1.0443  0.2700
40596TIP3    H122670   0.522  10.103   0.780 -0.6574  0.2782 -0.1828
40596TIP3    H222671   0.560  10.125   0.925 -3.0046 -1.2151  0.7190
40597TIP3   OH222672   6.840   8.911   9.976  0.8024  0.0255  0.1678
40597TIP3    H122673   6.893   8.887   9.900 -0.1920 -0.2780 -0.4486
40597TIP3    H222674   6.846   9.006   9.980  0.1913  0.1205 -0.8103
40598TIP3   OH222675   3.810   0.453   3.752 -0.3222 -0.4528 -0.2437
40598TIP3    H122676   3.898   0.469   3.787 -1.0015 -0.8620  1.8445
40598TIP3    H222677   3.752   0.468   3.827 -2.1253  0.5200 -1.7502
40599TIP3   OH222678   9.961   5.864   2.991 -0.1076  0.0322 -0.0299
40599TIP3    H122679   9.921   5.920   2.924  0.0686  1.0400  0.6777
40599TIP3    H222680   9.893   5.854   3.058 -1.2304 -3.0864 -1.4260
40600TIP3   OH222681   3.581   4.081   6.718  0.3045 -0.3574  0.3060
40600TIP3    H122682   3.616   4.085   6.629  1.4639  1.4513  0.7864
40600TIP3    H222683   3.614   3.998   6.753 -1.2762 -1.7791 -1.3045
40601TIP3   OH222684   6.404   2.674   9.755 -0.0487  0.3530 -0.4293
40601TIP3    H122685   6.443   2.761   9.762  0.7349 -0.1516  3.4055
40601TIP3    H222686   6.466   2.616   9.799 -2.7502 -1.2929  1.4918
40602TIP3   OH222687   7.910   3.462  10.793  0.4746  0.0196  0.2066
40602TIP3    H122688   7.860   3.540  10.817 -0.1068  0.4790 -2.2293
40602TIP3    H222689   7.852   3.415  10.733  1.3100 -1.6836  0.6842
40603TIP3   OH222690   6.159   0.280   6.474 -0.2101  0.4059 -0.4291
40603TIP3    H122691   6.185   0.350   6.414  1.6816  0.7609  0.7028
40603TIP3    H222692   6.223   0.210   6.458 -1.3306 -0.5822 -0.6849
40604TIP3   OH222693   0.263   3.713   1.406 -0.4591 -0.0325 -0.1216
40604TIP3    H122694   0.174   3.701   1.437 -0.4803  0.5623  0.0649
40604TIP3    H222695   0.287   3.802   1.434  0.1527 -0.1470 -0.2559
40605TIP3   OH222696   3.657   3.640   8.712 -0.0689 -0.3140 -0.4782
40605TIP3    H122697   3.667   3.588   8.633 -0.9743  0.4191 -1.1099
40605TIP3    H222698   3.570   3.680   8.703  0.0544  0.2439  0.6071
40606TIP3   OH222699  10.132   3.517   2.171 -0.0015 -0.1688  0.2753
40606TIP3    H122700  10.060   3.557   2.121  1.5039  3.1705  0.5002
40606TIP3    H222701  10.097   3.510   2.260 -1.2331 -2.0935 -0.3060
40607TIP3   OH222702   1.057   0.766   7.096  0.4104 -0.2054 -0.2816
40607TIP3    H122703   1.066   0.751   7.190  0.8166 -1.2003 -0.4706
40607TIP3    H222704   0.978   0.718   7.072  0.3123  0.0405 -0.4626
40608TIP3   OH222705   1.195   3.246   0.565 -0.2025 -0.7850  0.3511
40608TIP3    H122706   1.238   3.175   0.612  0.1595 -0.1272  1.0509
40608TIP3    H222707   1.259   3.317   0.565 -1.2448  0.2033  1.3906
40609TIP3   OH222708   5.653   9.682  10.272  0.3044  0.2552  0.2137
40609TIP3    H122709   5.620   9.593  10.262  0.5012  0.2850 -0.8260
40609TIP3    H222710   5.640   9.723  10.187  1.7327  0.7003  0.1799
40610TIP3   OH222711   5.490   7.664   1.027  0.2442 -0.3534 -0.2283
40610TIP3    H122712   5.483   7.631   0.938 -0.2634 -1.8993  0.3401
40610TIP3    H222713   5.583   7.684   1.038  0.3986 -0.6448 -0.9323
40611TIP3   OH222714   6.836   8.131   6.437 -0.1400  0.0744  0.1445
40611TIP3    H122715   6.856   8.102   6.526 -1.3891  1.4949  0.9317
40611TIP3    H222716   6.810   8.051   6.391  0.9264 -0.7440  0.9110
40612TIP3   OH222717   1.663   7.105   7.750 -0.4492 -0.1650  0.1772
40612TIP3    H122718   1.687   7.168   7.682  0.3651 -2.1193 -1.4361
40612TIP3    H222719   1.569   7.119   7.763 -0.4661  0.7576 -0.8043
40613TIP3   OH222720   9.429   7.684   6.434 -0.4625 -0.3807 -0.5248
40613TIP3    H122721   9.497   7.652   6.493  0.7405  1.1200 -1.0169
40613TIP3    H222722   9.444   7.637   6.351 -0.5979 -0.6865 -0.3788
40614TIP3   OH222723   3.812   1.067   8.728  0.4826 -0.2262  0.3142
40614TIP3    H122724   3.853   1.022   8.802 -0.5405  1.6106  2.1147
40614TIP3    H222725   3.732   1.105   8.765 -0.8947 -0.5395 -2.1583
40615TIP3   OH222726   0.818  10.330   7.078 -0.7164  0.1993  0.1540
40615TIP3    H122727   0.728  10.311   7.052 -0.2356 -1.1886 -0.5756
40615TIP3    H222728   0.838  10.412   7.033 -2.2549  1.6919  1.9824
40616TIP3   OH222729   8.927   9.361   9.318 -0.4708 -0.0353  0.3055
40616TIP3    H122730   8.965   9.309   9.247 -0.5840  0.6453 -0.2667
40616TIP3    H222731   8.930   9.303   9.394  1.8408  0.0355  0.3244
40617TIP3   OH222732   1.085  10.608   3.325  0.1632  0.0239 -0.1768
40617TIP3    H122733   1.072  10.549   3.399 -0.2437 -0.4102 -0.5917
40617TIP3    H222734   1.037  10.687   3.349 -0.6786 -0.4290 -0.3466
40618TIP3   OH222735   3.772   5.491  10.388 -0.4924 -0.2262 -0.0926
40618TIP3    H122736   3.815   5.551  10.448 -0.8687 -1.0833  1.0631
40618TIP3    H222737   3.692   5.536  10.362 -0.3683  0.1159  0.1076
40619TIP3   OH222738   8.407   1.922   7.297  0.1711  0.4440  0.1643
40619TIP3    H122739   8.318   1.889   7.286  0.7323 -1.5810  1.2427
40619TIP3    H222740   8.418   1.986   7.227 -1.7146 -0.1682 -0.7493
40620TIP3   OH222741   3.158   8.397   3.044  0.5933 -0.5685 -0.0933
40620TIP3    H122742   3.247   8.361   3.036  0.3163 -1.0823 -0.9710
40620TIP3    H222743   3.115   8.338   3.106  1.9584  1.9061  3.5546
40621TIP3   OH222744  10.625   6.724   3.150 -0.4169  0.1720  0.5678
40621TIP3    H122745  10.667   6.653   3.199 -1.0238  0.2126  1.1681
40621TIP3    H222746  10.531   6.705   3.157 -0.6749  1.6907  1.8169
40622TIP3   OH222747  10.111   9.317   2.224  0.2621 -0.1701 -0.3987
40622TIP3    H122748  10.185   9.349   2.276  0.4247 -0.6780 -0.3117
40622TIP3    H222749  10.070   9.396   2.190 -0.6438  0.2485  1.5734
40623TIP3   OH222750   4.007  10.819   6.168  0.0178 -0.2487  0.9400
40623TIP3    H122751   4.079  10.874   6.198 -0.3440  0.7573  0.0188
40623TIP3    H222752   3.993  10.757   6.240  2.5973 -1.3138  0.6269
40624TIP3   OH222753   1.808  10.176   6.365  0.3969 -0.6210  0.2819
40624TIP3    H122754   1.869  10.119   6.318  0.3683 -0.1214 -0.3717
40624TIP3    H222755   1.721  10.143   6.341  0.2958  0.9454 -1.7942
40625TIP3   OH222756   8.883   9.591   3.150 -0.0005  0.5754 -0.7634
40625TIP3    H122757   8.905   9.569   3.059  1.0872  1.9230 -0.8597
40625TIP3    H222758   8.837   9.675   3.144 -0.4549  0.3805 -0.1104
40626TIP3   OH222759   4.141   6.881  10.079 -0.1551  0.0990  0.2057
40626TIP3    H122760   4.069   6.820  10.064  0.6791 -0.9698  0.4770
40626TIP3    H222761   4.098   6.966  10.091 -1.3145 -0.3903 -0.3882
40627TIP3   OH222762   7.409   3.728   4.164 -0.2577 -0.0088  0.3474
40627TIP3    H122763   7.333   3.785   4.148 -0.2163  0.3571  1.4117
40627TIP3    H222764   7.398   3.657   4.101 -1.1420  0.3756  0.0448
40628TIP3   OH222765   9.293   4.804   2.862  0.1682  0.2401 -0.1918
40628TIP3    H122766   9.269   4.892   2.893 -0.6464 -0.7906  2.4080
40628TIP3    H222767   9.388   4.801   2.869  0.3439  1.3123 -1.6219
40629TIP3   OH222768   8.214   9.059  10.381  0.1674 -0.5231 -0.4436
40629TIP3    H122769   8.250   9.057  10.293 -0.5600 -1.8867 -0.7366
40629TIP3    H222770   8.121   9.077  10.369  0.0716 -0.6693  0.0512
40630TIP3   OH222771   3.850   2.056   3.089  0.3272  0.1740 -0.5730
40630TIP3    H122772   3.805   1.973   3.070  0.3631 -0.5086  1.9309
40630TIP3    H222773   3.780   2.120   3.099  0.1544 -0.0246 -0.4985
40631TIP3   OH222774   7.308   4.706   3.842 -0.1452  0.2425 -0.2753
40631TIP3    H122775   7.346   4.620   3.823 -0.2811  0.1372 -0.0680
40631TIP3    H222776   7.216   4.687   3.863 -0.4359  0.5399 -1.2273
40632TIP3   OH222777   4.347  10.650  10.139 -0.2523  0.2594  0.0386
40632TIP3    H122778   4.370  10.670  10.049  1.1981  0.5884  0.4619
40632TIP3    H222779   4.431  10.644  10.185 -0.9706  0.3721  1.4273
40633TIP3   OH222780   2.311   8.978   3.096 -0.1235  0.4548  0.2865
40633TIP3    H122781   2.298   9.025   3.014 -2.4896 -0.1345  0.2446
40633TIP3    H222782   2.285   9.041   3.164 -3.0805 -0.5503  0.2411
40634TIP3   OH222783   4.077   1.250   0.126 -0.0861 -0.2334 -0.1343
40634TIP3    H122784   4.131   1.328   0.110 -0.8340  0.5163  0.8175
40634TIP3    H222785   4.116   1.210   0.203 -1.6018  1.0629  1.3989
40635TIP3   OH222786   3.634   9.876  10.722  0.6307  0.3932 -0.2351
40635TIP3    H122787   3.676   9.902  10.641  0.7173  0.0884 -0.2898
40635TIP3    H222788   3.543   9.856  10.697  0.0459  2.3896  0.1170
40636TIP3   OH222789   2.317   0.421   0.388 -0.2687  0.2189 -0.6386
40636TIP3    H122790   2.370   0.424   0.469 -0.6894  0.3344 -0.3632
40636TIP3    H222791   2.381   0.429   0.318  0.1279 -0.1434 -0.3217
40637TIP3   OH222792   9.255   3.370   1.667 -0.5492 -0.4542  0.2686
40637TIP3    H122793   9.252   3.459   1.633  0.3158 -0.6878 -0.4575
40637TIP3    H222794   9.348   3.347   1.666 -0.8633 -1.7959 -0.7294
40638TIP3   OH222795   6.269   5.891   8.982 -0.2274  0.0723  0.3612
40638TIP3    H122796   6.351   5.940   8.983 -1.0502  1.6285 -1.6957
40638TIP3    H222797   6.201   5.958   8.979 -1.4093 -1.1272 -2.0321
40639TIP3   OH222798  10.476   7.337   4.560 -0.1777  0.1568  0.4208
40639TIP3    H122799  10.403   7.329   4.620 -0.4583  1.3984  0.2757
40639TIP3    H222800  10.546   7.286   4.600 -0.0987  1.5721  2.2175
40640TIP3   OH222801   0.728   1.040   9.921 -0.1808 -0.0978  0.0825
40640TIP3    H122802   0.656   1.080   9.970  0.0867  0.4774  0.0136
40640TIP3    H222803   0.758   1.108   9.862 -1.1112 -1.0598 -1.5864
40641TIP3   OH222804   8.158   6.221  10.103 -0.0002 -0.1711 -0.7079
40641TIP3    H122805   8.117   6.221  10.017  0.5776 -1.9933 -1.0189
40641TIP3    H222806   8.248   6.194  10.086  0.1290 -0.5083  0.4666
40642TIP3   OH222807   0.161   8.804   5.599  0.2698 -0.4146 -0.5046
40642TIP3    H122808   0.102   8.875   5.574 -0.9141 -0.5633  1.6027
40642TIP3    H222809   0.208   8.782   5.519  0.1539  2.2388 -1.3942
40643TIP3   OH222810   6.765   2.817  10.332  0.3628 -0.2403 -0.6127
40643TIP3    H122811   6.707   2.880  10.373  1.9757  1.5879 -0.9833
40643TIP3    H222812   6.810   2.774  10.405 -1.1640 -1.4632 -0.3383
40644TIP3   OH222813   3.991   2.579   4.793 -0.2488 -0.2190 -0.0286
40644TIP3    H122814   4.009   2.506   4.734 -0.9407 -0.4044 -0.0244
40644TIP3    H222815   3.911   2.619   4.757 -1.2162 -0.8996  1.3000
40645TIP3   OH222816   5.765   4.193   6.656  0.4020  0.2164  0.1246
40645TIP3    H122817   5.786   4.198   6.563  0.6457 -0.2620  0.1493
40645TIP3    H222818   5.748   4.100   6.671 -0.3114  0.3886  0.4142
40646TIP3   OH222819   6.040   2.465   7.800  0.1626  0.1194 -0.4519
40646TIP3    H122820   6.093   2.425   7.869 -0.6905 -0.2440  0.0098
40646TIP3    H222821   6.104   2.501   7.738  0.9878  2.2681  1.5158
40647TIP3   OH222822   1.215  10.372   4.566  0.3593  0.1158  0.1109
40647TIP3    H122823   1.256  10.291   4.535  2.0077  0.0880  2.1368
40647TIP3    H222824   1.289  10.433   4.577 -0.3774  0.7498  1.9027
40648TIP3   OH222825  10.284   7.942   5.550  0.2766 -0.2953  0.1505
40648TIP3    H122826  10.319   7.895   5.475 -0.6853 -0.8637  0.0473
40648TIP3    H222827  10.322   8.030   5.544  0.2650 -0.3606 -0.9468
40649TIP3   OH222828  10.331   5.715   0.090 -0.2544 -0.1203 -0.0613
40649TIP3    H122829  10.255   5.658   0.079 -1.0571  0.5978  1.4245
40649TIP3    H222830  10.355   5.705   0.182  0.3560  0.9836 -0.0795
40650TIP3   OH222831   2.125   5.467   0.524 -0.1766  0.0203  0.4956
40650TIP3    H122832   2.202   5.456   0.581  0.1188 -1.2038 -0.1205
40650TIP3    H222833   2.140   5.408   0.451 -1.1023  0.7356 -0.2960
40651TIP3   OH222834   4.839  10.118  10.685  0.3605  0.0135  0.1203
40651TIP3    H122835   4.776  10.180  10.646  0.5239 -0.5952 -1.1750
40651TIP3    H222836   4.912  10.172  10.714 -1.0634  0.8367  2.3890
40652TIP3   OH222837   8.078   2.788   0.763  0.0491 -0.0572  0.1698
40652TIP3    H122838   8.053   2.788   0.671  0.4992  1.4278  0.0209
40652TIP3    H222839   7.995   2.777   0.810 -0.3703  0.5559 -0.3986
40653TIP3   OH222840   3.689   8.545   1.134 -0.0600 -0.1761 -0.2377
40653TIP3    H122841   3.740   8.540   1.215 -2.4972 -0.9459  1.3522
40653TIP3    H222842   3.679   8.454   1.106  1.6076  0.1335 -2.0576
40654TIP3   OH222843   5.404   4.540   9.254  0.0457  0.8055  0.0386
40654TIP3    H122844   5.381   4.548   9.346  0.0368 -1.7392  0.3409
40654TIP3    H222845   5.355   4.610   9.210 -0.6100  1.5213  1.8415
40655TIP3   OH222846   0.519   9.954   4.407 -0.0424  0.3688  0.6877
40655TIP3    H122847   0.591   9.895   4.385  1.2636  2.6296 -1.6303
40655TIP3    H222848   0.458   9.945   4.335 -0.9445  0.2479  1.4477
40656TIP3   OH222849   2.256   7.073   3.785 -0.1075  0.0297 -0.2263
40656TIP3    H122850   2.175   7.079   3.734  0.2131 -3.3205 -1.3603
40656TIP3    H222851   2.305   7.151   3.760 -3.3378  2.8336  1.4113
40657TIP3   OH222852   3.519   1.067   7.173 -0.5694 -0.4251  1.1485
40657TIP3    H122853   3.611   1.088   7.159 -1.2390  0.7782 -2.4286
40657TIP3    H222854   3.516   0.971   7.172  0.4738 -0.4746 -0.6480
40658TIP3   OH222855   4.095   0.670  10.187  0.2221 -0.1455  0.0700
40658TIP3    H122856   4.114   0.681  10.280  0.7836  1.5084 -0.2146
40658TIP3    H222857   4.072   0.577  10.178  0.1789 -0.3366  1.8380
40659TIP3   OH222858   2.159   3.215   5.572  0.5719 -0.3200 -0.3769
40659TIP3    H122859   2.114   3.299   5.566  1.8470  0.4999  0.9861
40659TIP3    H222860   2.207   3.219   5.654  0.8326 -2.3133 -0.3907
40660TIP3   OH222861   3.881   6.865   3.615  0.3337  0.3339 -0.0273
40660TIP3    H122862   3.835   6.781   3.609  0.3633  0.2516  0.8228
40660TIP3    H222863   3.913   6.880   3.526 -1.8137  0.6716 -0.8017
40661TIP3   OH222864   3.059   9.037   0.788 -0.4703 -0.0614  0.7364
40661TIP3    H122865   2.977   9.015   0.833 -0.0882 -1.6223  0.7040
40661TIP3    H222866   3.059   8.982   0.710 -0.3899  1.4963 -0.4114
40662TIP3   OH222867   6.178   8.706   2.604  0.4323 -0.2175  0.0720
40662TIP3    H122868   6.259   8.739   2.644  1.0442 -0.4604 -0.9180
40662TIP3    H222869   6.202   8.620   2.570  0.9934  1.2449 -3.8017
40663TIP3   OH222870   9.196   4.842   5.502  0.4311  0.0459  0.0559
40663TIP3    H122871   9.156   4.758   5.479  1.1924 -0.0999 -0.7738
40663TIP3    H222872   9.279   4.843   5.455  0.4305  1.2761  0.0501
40664TIP3   OH222873   7.618   6.193   2.677  0.2545 -0.2956  0.2186
40664TIP3    H122874   7.703   6.239   2.672  0.5998 -0.9607 -0.1271
40664TIP3    H222875   7.615   6.140   2.598  0.7530 -2.4003  1.5330
40665TIP3   OH222876   4.258   9.861  10.903  0.0067 -0.2250  0.3483
40665TIP3    H122877   4.287   9.862  10.812  0.3844  1.2167  0.4620
40665TIP3    H222878   4.199   9.786  10.908  1.1638 -1.2446 -0.6962
40666TIP3   OH222879   5.523   1.496   9.931 -0.5299 -0.0125  0.1478
40666TIP3    H122880   5.546   1.524  10.020  0.1398 -0.4521  0.1214
40666TIP3    H222881   5.565   1.411   9.922 -0.3971  0.1354 -0.6767
40667TIP3   OH222882   6.690   6.658   0.033  0.6947 -0.1187 -0.2297
40667TIP3    H122883   6.636   6.714  -0.023  0.5597  1.0038  0.9619
40667TIP3    H222884   6.656   6.673   0.121  1.9002 -0.6336  0.3483
40668TIP3   OH222885   7.320  10.612   9.628  0.3548 -0.0844  0.6551
40668TIP3    H122886   7.350  10.681   9.569 -0.2534 -0.5443 -0.2061
40668TIP3    H222887   7.385  10.611   9.699  2.4974 -1.1300 -1.1948
40669TIP3   OH222888   6.038   8.033   1.091 -0.0423  0.3305  0.3584
40669TIP3    H122889   6.012   8.115   1.050  4.2664  2.1348  0.7274
40669TIP3    H222890   6.089   8.059   1.168  1.5369 -2.6571  0.4893
40670TIP3   OH222891   0.862   5.576   5.875 -0.2711 -0.0068  0.3260
40670TIP3    H122892   0.833   5.603   5.787  2.8260  2.6379 -0.0822
40670TIP3    H222893   0.955   5.557   5.864 -0.1883 -1.2911  2.7637
40671TIP3   OH222894   8.852   0.274   3.645 -0.1081  0.1598 -0.2596
40671TIP3    H122895   8.846   0.182   3.620 -1.1475  0.3666 -0.8053
40671TIP3    H222896   8.787   0.318   3.592 -0.1845  1.0991  0.5770
40672TIP3   OH222897   8.947   6.565   2.523 -0.1671 -0.9883 -0.2193
40672TIP3    H122898   8.942   6.519   2.607  0.0088 -1.8823 -0.6823
40672TIP3    H222899   9.022   6.525   2.478 -0.5379 -0.8498 -0.9871
40673TIP3   OH222900   0.075   0.869   5.922 -0.2126  0.3425  0.3941
40673TIP3    H122901   0.088   0.920   6.003  0.3133  2.1372 -0.7526
40673TIP3    H222902   0.037   0.932   5.861  0.0879 -0.7835 -0.9955
40674TIP3   OH222903   8.001   7.291   4.170 -0.3779  0.1501  0.0705
40674TIP3    H122904   7.939   7.320   4.103 -1.5117 -0.2182  0.9221
40674TIP3    H222905   7.959   7.313   4.253  1.1415  0.8971  0.6869
40675TIP3   OH222906   0.299   2.469   0.060  0.0563 -0.0174  0.5283
40675TIP3    H122907   0.357   2.544   0.075 -0.3551 -0.1836  3.6156
40675TIP3    H222908   0.211   2.507   0.060 -0.1009 -0.3714  1.1804
40676TIP3   OH222909   4.224  10.304   3.985  0.4962 -0.1673 -0.4066
40676TIP3    H122910   4.147  10.248   3.978  0.5946 -0.1392 -2.3781
40676TIP3    H222911   4.208  10.357   4.063 -2.6113  1.4362 -1.9320
40677TIP3   OH222912   6.417   5.635   4.112  0.6523  0.3086  0.6808
40677TIP3    H122913   6.433   5.729   4.119  1.0824  0.1805  1.5140
40677TIP3    H222914   6.489   5.602   4.058  0.1134  0.5506 -0.2102
40678TIP3   OH222915   2.825   4.599   5.535  0.0444 -0.0347  0.1282
40678TIP3    H122916   2.736   4.635   5.535  0.6283  1.4764 -0.0261
40678TIP3    H222917   2.866   4.640   5.611  1.3266  1.1997 -1.1689
40679TIP3   OH222918   0.594   1.912  10.099  0.3520 -0.3621 -0.0294
40679TIP3    H122919   0.631   1.924  10.011  0.9741 -0.5280  0.2072
40679TIP3    H222920   0.667   1.928  10.158  0.5437 -2.5025  0.3954
40680TIP3   OH222921   5.746   0.858   8.815 -0.2801 -0.0385 -0.2031
40680TIP3    H122922   5.685   0.887   8.882  1.2354  0.0260  1.2257
40680TIP3    H222923   5.767   0.937   8.765 -2.4098 -0.3184 -1.6959
40681TIP3   OH222924   2.114   6.810   0.391  0.0520  0.1167  0.2601
40681TIP3    H122925   2.082   6.898   0.412  0.3502 -0.1680  2.0422
40681TIP3    H222926   2.062   6.752   0.446  1.8655 -0.5592  1.3408
40682TIP3   OH222927   9.619   3.442   0.795 -0.3680  0.3041 -0.3010
40682TIP3    H122928   9.531   3.406   0.802 -0.7714  1.3249  0.2309
40682TIP3    H222929   9.658   3.428   0.881  0.4747 -1.2901 -0.9138
40683TIP3   OH222930   5.388   2.241   8.252 -0.4590 -0.1656 -0.5421
40683TIP3    H122931   5.343   2.185   8.316  2.4484 -0.5974  1.3172
40683TIP3    H222932   5.410   2.320   8.302  1.0215 -0.0957 -1.2596
40684TIP3   OH222933   7.650   7.238  10.782  0.8365 -0.2676 -0.3224
40684TIP3    H122934   7.571   7.217  10.732 -1.0557  0.2771  2.1844
40684TIP3    H222935   7.704   7.289  10.722 -1.8073  1.4135 -1.4890
40685TIP3   OH222936   4.701   2.984   8.153 -0.0832  0.2013 -0.3104
40685TIP3    H122937   4.621   2.968   8.204 -0.6060  1.1591 -0.7897
40685TIP3    H222938   4.763   2.918   8.183 -0.6187  0.2817  1.0381
40686TIP3   OH222939   5.273   9.849   3.711  0.3132 -0.1254 -0.4214
40686TIP3    H122940   5.326   9.922   3.745 -1.1574  0.7574  0.0624
40686TIP3    H222941   5.188   9.888   3.692 -0.5673 -1.7622  0.0162
40687TIP3   OH222942   2.979   7.067  10.426 -0.4140  0.3394 -0.2538
40687TIP3    H122943   2.913   7.134  10.410 -0.7718  0.1013  0.1786
40687TIP3    H222944   3.059   7.101  10.387 -0.5019  1.1813  0.2805
40688TIP3   OH222945   0.326   9.383   7.815 -0.1296  0.3024  0.1997
40688TIP3    H122946   0.295   9.472   7.831 -0.5417  0.6371 -2.1181
40688TIP3    H222947   0.391   9.392   7.745  0.2766 -1.1468  0.3577
40689TIP3   OH222948   7.633   0.317   2.162 -0.3921 -1.4691  0.3662
40689TIP3    H122949   7.538   0.323   2.166 -0.6491 -4.1528  0.0596
40689TIP3    H222950   7.662   0.403   2.132 -2.5678 -0.0821  1.9648
40690TIP3   OH222951   5.508  10.089   7.531  0.0654  0.6381  0.2552
40690TIP3    H122952   5.438  10.074   7.594 -0.4563  0.5503 -0.3305
40690TIP3    H222953   5.584  10.112   7.584  0.1575 -1.2738  1.0282
40691TIP3   OH222954   6.504   9.296   6.931 -0.4233 -0.1823 -0.0901
40691TIP3    H122955   6.443   9.263   6.865  0.2842  0.5438 -1.1282
40691TIP3    H222956   6.491   9.390   6.932 -0.3588 -0.1727  0.7546
40692TIP3   OH222957   1.752   9.920   2.127  0.2436 -0.4276 -0.3947
40692TIP3    H122958   1.802   9.879   2.197 -2.2254  0.8247  2.2693
40692TIP3    H222959   1.661   9.913   2.154 -0.6749  2.1007 -2.3957
40693TIP3   OH222960   8.087   8.255   6.128  0.4496 -0.6448  0.2021
40693TIP3    H122961   8.081   8.173   6.080 -0.3906  0.1141 -1.0385
40693TIP3    H222962   8.085   8.230   6.220 -2.6142 -1.8707 -0.0886
40694TIP3   OH222963   5.518   6.282   0.005 -0.2404 -0.1676  0.0140
40694TIP3    H122964   5.507   6.324  -0.080  0.0923  0.2837  0.1888
40694TIP3    H222965   5.463   6.333   0.064 -1.4063 -1.2012 -0.1455
40695TIP3   OH222966   0.331   2.836   4.173 -0.4866  0.1094  0.0323
40695TIP3    H122967   0.256   2.851   4.115  1.4451  0.4572 -2.5624
40695TIP3    H222968   0.391   2.783   4.121  1.8903  1.4252  1.2728
40696TIP3   OH222969   8.153   2.923   2.336 -0.5040 -0.5115 -0.6693
40696TIP3    H122970   8.063   2.936   2.366 -0.2384 -1.0478  0.4458
40696TIP3    H222971   8.145   2.868   2.258 -1.2387  1.1245 -1.7740
40697TIP3   OH222972   0.341  10.723   0.219  0.7096 -0.6288 -0.3984
40697TIP3    H122973   0.380  10.776   0.288 -1.9991  2.0760 -0.7261
40697TIP3    H222974   0.385  10.750   0.139 -1.7079  2.6916 -0.8269
40698TIP3   OH222975   1.322   4.142   2.828 -0.2725  0.4074 -0.2225
40698TIP3    H122976   1.338   4.060   2.782  0.3022  0.5268 -0.2526
40698TIP3    H222977   1.371   4.208   2.777  0.9434  0.4312  0.9156
40699TIP3   OH222978   6.783   6.553   0.582 -0.1891 -0.4293 -0.6115
40699TIP3    H122979   6.728   6.515   0.651  0.5774  0.7225  0.6769
40699TIP3    H222980   6.869   6.515   0.596  0.6842  1.9339  0.9289
40700TIP3   OH222981   8.014  10.790   3.539  0.2983 -0.3671 -0.0262
40700TIP3    H122982   8.057  10.873   3.562 -0.5712 -0.2365  1.2566
40700TIP3    H222983   8.081  10.741   3.492  1.7818 -0.0420  1.6073
40701TIP3   OH222984   2.373   0.331   4.424  0.5591 -0.1003  0.6986
40701TIP3    H122985   2.412   0.394   4.364  1.5193 -0.7935  0.5788
40701TIP3    H222986   2.298   0.296   4.376  1.5752 -0.9748 -0.2925
40702TIP3   OH222987   4.439   6.715   9.285  0.2950 -0.4226 -0.1176
40702TIP3    H122988   4.506   6.726   9.353  2.0901  2.7679 -2.1295
40702TIP3    H222989   4.477   6.652   9.224  1.3554  1.0087 -0.9987
40703TIP3   OH222990   0.934   0.496   5.868 -0.5693 -0.6527  0.4429
40703TIP3    H122991   0.933   0.402   5.883 -0.1487 -0.4856  1.6883
40703TIP3    H222992   1.025   0.522   5.883 -0.2998 -0.2646 -1.5583
40704TIP3   OH222993   2.371   4.555   7.875 -0.1450  0.9421  0.5379
40704TIP3    H122994   2.457   4.520   7.900  0.2900  0.4603 -1.4877
40704TIP3    H222995   2.385   4.592   7.788 -1.8796  1.3958  0.4239
40705TIP3   OH222996   3.585   3.344   1.137  0.3014  0.1190  0.2844
40705TIP3    H122997   3.620   3.432   1.125  0.6885 -0.3223 -2.4885
40705TIP3    H222998   3.660   3.292   1.166  0.5101  0.3392  0.1432
40706TIP3   OH222999   4.165   5.790   0.692 -0.5735 -0.3255 -0.0815
40706TIP3    H123000   4.112   5.766   0.615 -0.1351  1.2480 -0.9130
40706TIP3    H223001   4.213   5.868   0.665 -0.4357  0.3042  1.8381
40707TIP3   OH223002   2.149   1.781   6.074  0.5755  0.8639 -0.6973
40707TIP3    H123003   2.173   1.799   5.983 -0.1595 -0.6253 -1.2168
40707TIP3    H223004   2.233   1.779   6.121  1.1948 -0.6691 -1.7947
40708TIP3   OH223005   8.980   2.040  10.644  0.2780  0.2094  0.0130
40708TIP3    H123006   8.904   2.094  10.624  0.4151 -0.2566 -1.9493
40708TIP3    H223007   8.948   1.950  10.639  0.6420  0.0350  0.6551
40709TIP3   OH223008   1.997   7.855   3.441 -0.3178 -0.2430 -0.4446
40709TIP3    H123009   1.903   7.849   3.457 -0.6863 -1.8871 -2.7102
40709TIP3    H223010   2.010   7.945   3.409 -1.0753  0.0433  0.0199
40710TIP3   OH223011   8.232   7.025  10.896  0.2600 -0.2841 -0.1284
40710TIP3    H123012   8.140   7.045  10.879  0.1768  0.8867  1.4736
40710TIP3    H223013   8.280   7.087  10.840  0.0265  0.5891  0.6032
40711TIP3   OH223014   6.948   7.811   4.722  0.4269  0.0923  0.1205
40711TIP3    H123015   6.896   7.736   4.694  0.4661  0.0486  0.1649
40711TIP3    H223016   6.927   7.821   4.815 -0.2804  0.7007 -0.0929
40712TIP3   OH223017   8.837   6.320   4.474 -0.3345 -0.1878  0.6918
40712TIP3    H123018   8.818   6.271   4.553  1.3395 -1.0023  0.6452
40712TIP3    H223019   8.908   6.270   4.432  0.2635  1.3628 -0.2188
40713TIP3   OH223020  10.349  10.256   0.107  0.1648 -0.4475  0.2971
40713TIP3    H123021  10.310  10.257   0.020 -2.6529  1.6758  1.4346
40713TIP3    H223022  10.404  10.335   0.109 -1.5833  0.8183  1.0741
40714TIP3   OH223023   4.076   3.992   5.491  0.5031  0.3986 -0.0646
40714TIP3    H123024   4.028   3.924   5.443 -1.5266  1.3801  0.4784
40714TIP3    H223025   4.008   4.050   5.525  2.0500  1.3908  1.4965
40715TIP3   OH223026   8.097   9.364   3.761  0.0049  0.4215 -0.8632
40715TIP3    H123027   8.052   9.280   3.768 -1.4124  1.2941  3.1970
40715TIP3    H223028   8.032   9.423   3.722  0.2656  0.1096 -1.7827
40716TIP3   OH223029   3.245   0.197   8.192  0.0672  0.2007  0.3902
40716TIP3    H123030   3.314   0.165   8.249  0.1845  0.8938  0.6475
40716TIP3    H223031   3.290   0.228   8.114 -0.1741 -1.7526 -0.5926
40717TIP3   OH223032  10.869   8.251   7.957  0.2174 -0.0597 -0.8439
40717TIP3    H123033  10.774   8.259   7.954  0.2177  0.2755 -0.0941
40717TIP3    H223034  10.900   8.341   7.962  0.4584 -0.2105  1.5724
40718TIP3   OH223035  10.773   2.826   0.301 -0.2112 -0.4925 -0.1493
40718TIP3    H123036  10.798   2.757   0.362  1.0535 -0.2509 -0.3659
40718TIP3    H223037  10.712   2.784   0.241  1.0184 -1.6116 -0.6685
40719TIP3   OH223038   3.004   8.817   3.934  0.0180  0.0438  0.4680
40719TIP3    H123039   2.998   8.759   3.858  0.7745 -0.9618  1.1527
40719TIP3    H223040   2.936   8.785   3.994 -1.2175  1.4246 -0.1451
40720TIP3   OH223041   6.174   3.170   4.477 -0.0992 -0.2354 -0.2252
40720TIP3    H123042   6.251   3.168   4.533 -0.3862  1.8933  0.3085
40720TIP3    H223043   6.111   3.112   4.521  1.0578 -1.7960 -0.5442
40721TIP3   OH223044   6.556   2.087   9.492  0.1712  0.6206  0.0481
40721TIP3    H123045   6.480   2.029   9.490  1.0900 -0.6100  0.1579
40721TIP3    H223046   6.519   2.175   9.485 -1.4517  0.2107  2.3666
40722TIP3   OH223047   8.635   3.305   4.275 -0.1569  0.0297  0.2725
40722TIP3    H123048   8.566   3.294   4.342 -0.1434  0.1510  0.3051
40722TIP3    H223049   8.711   3.335   4.324  0.1557 -0.8568  0.3577
40723TIP3   OH223050   8.709   4.854   5.997 -0.4011 -0.4186  0.1499
40723TIP3    H123051   8.761   4.927   5.963 -0.5617 -0.4459 -0.1615
40723TIP3    H223052   8.684   4.881   6.085 -1.4551  0.4357 -0.3759
40724TIP3   OH223053   0.343  10.605   4.333 -0.5391  0.0370  0.3840
40724TIP3    H123054   0.351  10.686   4.283 -0.6977  0.7955  1.5508
40724TIP3    H223055   0.331  10.633   4.423 -0.2726 -1.2966  0.8668
40725TIP3   OH223056   3.851   4.379   3.590  0.1059 -0.5824  0.1317
40725TIP3    H123057   3.927   4.321   3.589  0.1162 -0.5723 -1.2550
40725TIP3    H223058   3.786   4.333   3.644  1.1842 -0.4359  1.6085
40726TIP3   OH223059   0.750   3.779   0.008  0.1010 -0.3961 -0.5461
40726TIP3    H123060   0.751   3.703  -0.050 -2.5294  0.7528 -2.2777
40726TIP3    H223061   0.713   3.747   0.090 -0.3608 -1.1363 -1.0339
40727TIP3   OH223062   0.281   9.533   7.203 -0.3509  1.1759 -0.0992
40727TIP3    H123063   0.255   9.612   7.155  0.7488  1.1799 -0.7242
40727TIP3    H223064   0.278   9.560   7.295  1.2928  2.3987 -0.3554
40728TIP3   OH223065   8.352   3.238   5.430  0.4179 -0.7673 -0.0495
40728TIP3    H123066   8.366   3.145   5.414  0.4370 -0.5944 -1.1647
40728TIP3    H223067   8.359   3.278   5.343 -0.2255  0.1948  0.3275
40729TIP3   OH223068   7.054   5.336   4.518  0.7511  0.5736  0.2003
40729TIP3    H123069   7.083   5.277   4.448 -2.6198 -1.6550  0.4888
40729TIP3    H223070   7.088   5.297   4.598 -0.9393 -0.7296  0.3308
40730TIP3   OH223071   2.135   6.019   1.705  0.3973 -0.2840  0.5451
40730TIP3    H123072   2.134   6.069   1.624 -0.5746 -0.6315  0.3232
40730TIP3    H223073   2.219   5.974   1.705  0.3724 -0.3456 -0.3198
40731TIP3   OH223074  10.025   7.934   4.285  0.2023 -0.2332  0.1963
40731TIP3    H123075  10.019   7.845   4.252 -0.3892 -0.4527  0.8517
40731TIP3    H223076   9.935   7.957   4.309  0.3511  0.5298  0.0541
40732TIP3   OH223077  10.096   0.951   0.205  0.2080 -0.0442  0.7579
40732TIP3    H123078  10.012   0.912   0.181 -0.4689  1.7470  0.0231
40732TIP3    H223079  10.105   0.933   0.299 -0.0178 -1.9598  0.4482
40733TIP3   OH223080   8.768   0.250   0.905  0.2176  0.1823  0.0347
40733TIP3    H123081   8.809   0.324   0.951 -0.7422 -0.2485  1.6598
40733TIP3    H223082   8.842   0.202   0.867  1.0013  0.8966  0.6113
40734TIP3   OH223083  10.343   3.763   9.687  0.6546  0.0096 -0.4207
40734TIP3    H123084  10.284   3.771   9.763  0.9354  2.3949 -0.3873
40734TIP3    H223085  10.305   3.692   9.635 -0.0682 -1.0786  1.4679
40735TIP3   OH223086   2.361   5.942   3.470  0.2303  0.5758 -0.1179
40735TIP3    H123087   2.312   5.999   3.530 -1.4547 -1.3131  0.4287
40735TIP3    H223088   2.450   5.939   3.507 -0.5815  0.0142  1.9847
40736TIP3   OH223089  10.904  10.741   0.382  0.0459  0.0930  0.0865
40736TIP3    H123090  10.826  10.685   0.387  1.0649 -1.3149  0.9652
40736TIP3    H223091  10.956  10.704   0.312 -0.5666  1.7816 -1.3526
40737TIP3   OH223092   9.044   8.185   7.521 -0.0393  0.4877 -0.1083
40737TIP3    H123093   8.976   8.208   7.584 -0.1156  2.7061 -0.9295
40737TIP3    H223094   8.997   8.164   7.440  0.1779  2.4425 -0.8065
40738TIP3   OH223095   4.384   3.510   7.478 -0.4690 -0.2551 -0.1154
40738TIP3    H123096   4.467   3.463   7.476  0.2783  1.0309  0.1440
40738TIP3    H223097   4.375   3.539   7.569  0.4174  2.3839 -0.7888
40739TIP3   OH223098   6.284   1.402   9.394 -0.2709  0.5089 -0.4437
40739TIP3    H123099   6.310   1.331   9.336 -1.8132 -1.6270  1.2897
40739TIP3    H223100   6.347   1.397   9.467 -1.1607  0.0385  0.3050
40740TIP3   OH223101   4.859   4.579   8.154  0.4615  0.2075 -0.2879
40740TIP3    H123102   4.920   4.559   8.083 -0.7452  1.3525 -1.7149
40740TIP3    H223103   4.840   4.672   8.144 -1.7700 -0.1792 -0.1162
40741TIP3   OH223104   0.508   7.713   5.305  0.0998  0.3357  0.3119
40741TIP3    H123105   0.503   7.671   5.391  2.1531  1.5734  1.1262
40741TIP3    H223106   0.600   7.739   5.297  0.2204 -0.6616 -2.7498
40742TIP3   OH223107   3.654   7.622   4.130 -0.2847  0.2496  0.0595
40742TIP3    H123108   3.715   7.603   4.059  0.1258  0.1706  0.4353
40742TIP3    H223109   3.606   7.700   4.100  1.3625  1.5360  0.6114
40743TIP3   OH223110   1.022   0.310   9.726  0.2407  0.0234  0.5558
40743TIP3    H123111   1.068   0.384   9.687 -0.0087 -0.5260 -0.8332
40743TIP3    H223112   1.090   0.259   9.770  0.5705  0.5097  0.6120
40744TIP3   OH223113   3.135   0.922   2.260 -0.0592 -0.1734 -0.6668
40744TIP3    H123114   3.204   0.987   2.274 -1.2211  0.8801  0.5556
40744TIP3    H223115   3.148   0.858   2.330 -1.1449  0.8209  0.4969
40745TIP3   OH223116   4.934   0.731   6.276  0.2506 -0.3633  0.2581
40745TIP3    H123117   4.972   0.719   6.363  0.4584  3.4334  0.8357
40745TIP3    H223118   5.005   0.764   6.222 -0.6594  0.5732 -0.4121
40746TIP3   OH223119   5.177   9.161   6.628  0.1913  0.0717 -0.5429
40746TIP3    H123120   5.183   9.235   6.689 -0.4574 -0.3521  0.0492
40746TIP3    H223121   5.084   9.152   6.610  0.2963 -0.3904 -0.8741
40747TIP3   OH223122   2.239   5.109   3.068  0.0243 -0.2693 -0.0837
40747TIP3    H123123   2.168   5.131   3.127  0.2044  0.8362 -0.2575
40747TIP3    H223124   2.317   5.104   3.125 -0.0208 -0.5367 -0.0402
40748TIP3   OH223125   3.176   3.427   0.243  0.1849  0.2621 -0.1538
40748TIP3    H123126   3.214   3.361   0.300 -0.6334  1.1187  1.4384
40748TIP3    H223127   3.165   3.383   0.159  3.3894 -0.4295 -0.3450
40749TIP3   OH223128   1.056   6.230  10.777 -0.4603  0.3721  0.6494
40749TIP3    H123129   0.968   6.214  10.812  0.8778 -2.6056  3.0545
40749TIP3    H223130   1.114   6.219  10.852  2.1151  1.2082 -1.0826
40750TIP3   OH223131   1.913   4.689   2.004  0.0232 -0.6038  0.3829
40750TIP3    H123132   1.890   4.769   2.051 -1.4892  0.9448 -2.6258
40750TIP3    H223133   1.897   4.618   2.066 -0.9689  1.2951  2.4046
40751TIP3   OH223134   2.140  10.366   0.033 -0.2989  0.5010  0.7747
40751TIP3    H123135   2.087  10.445   0.019 -0.1320  0.7311  1.4130
40751TIP3    H223136   2.227  10.399   0.054  0.0586  0.1228 -0.0767
40752TIP3   OH223137   6.064   9.171   5.009  0.3966  0.0792  0.7564
40752TIP3    H123138   6.089   9.237   4.945 -0.2045  0.0410  0.4706
40752TIP3    H223139   6.121   9.096   4.991 -1.2881 -0.8124 -1.2873
40753TIP3   OH223140   6.861   3.731   5.118 -0.0151  0.3071 -0.0270
40753TIP3    H123141   6.925   3.691   5.177 -0.9340 -0.0706  0.7376
40753TIP3    H223142   6.885   3.698   5.031  1.6055  1.1922  0.0320
40754TIP3   OH223143   1.242   0.253   8.138 -0.2211  0.0517  0.6206
40754TIP3    H123144   1.202   0.317   8.196 -1.6173 -1.1213  1.0074
40754TIP3    H223145   1.183   0.177   8.140  0.8410 -0.8720 -0.6015
40755TIP3   OH223146   9.818   4.288   8.248 -0.4261 -0.0941 -0.2252
40755TIP3    H123147   9.797   4.321   8.335  0.2301  0.4828 -0.2765
40755TIP3    H223148   9.774   4.348   8.188 -0.5528 -0.2621 -0.3029
40756TIP3   OH223149  10.679   7.612   2.342  0.1301  0.4109  0.0541
40756TIP3    H123150  10.601   7.562   2.318  1.1013 -1.1117 -0.0740
40756TIP3    H223151  10.655   7.703   2.327 -1.5767 -0.0299 -0.0822
40757TIP3   OH223152   2.990   5.391   3.067  0.4932  0.2150 -0.4367
40757TIP3    H123153   2.986   5.348   3.152  1.1248 -1.0400 -1.0240
40757TIP3    H223154   3.079   5.424   3.061  0.5412  0.0253 -0.7492
40758TIP3   OH223155   6.587   9.707   4.424  0.6664  0.0356 -0.0290
40758TIP3    H123156   6.581   9.768   4.498  2.3575  2.9351 -2.0525
40758TIP3    H223157   6.501   9.665   4.421 -0.9953  2.9908  1.0504
40759TIP3   OH223158   9.578   5.878   6.978  0.1405 -0.0662 -0.1216
40759TIP3    H123159   9.607   5.959   7.020  0.3462  0.3555 -1.0497
40759TIP3    H223160   9.482   5.884   6.980  0.1489  0.7659 -1.2096
40760TIP3   OH223161   1.380  10.465   6.206  0.1718 -0.3904 -0.0023
40760TIP3    H123162   1.470  10.496   6.215 -0.3124  1.3105 -0.6436
40760TIP3    H223163   1.365  10.463   6.111 -1.3863  2.3743  0.0693
40761TIP3   OH223164   4.093   5.977   7.854  0.3368 -0.5227 -0.0456
40761TIP3    H123165   4.156   6.005   7.920  0.0573  1.2705 -0.4851
40761TIP3    H223166   4.102   5.882   7.851  1.3341 -0.5135  1.5691
40762TIP3   OH223167   9.506   8.063   4.961 -0.3447 -0.0362 -0.3201
40762TIP3    H123168   9.536   8.153   4.953 -1.1536  0.1401 -1.5760
40762TIP3    H223169   9.537   8.020   4.881  1.0953 -1.2231  0.8072
40763TIP3   OH223170   1.630   1.835   5.548  0.4140 -0.2293  0.1529
40763TIP3    H123171   1.630   1.929   5.566  1.3593  0.3172 -2.2238
40763TIP3    H223172   1.593   1.795   5.626 -0.1899  2.1306  1.1627
40764TIP3   OH223173   3.128   0.987   9.817 -0.0821 -0.1408  0.0421
40764TIP3    H123174   3.208   1.040   9.810 -0.8127  0.9472 -0.3456
40764TIP3    H223175   3.060   1.050   9.843 -1.2085 -0.6666 -1.4760
40765TIP3   OH223176   0.065   5.174   1.889 -0.1038  0.2335  0.5071
40765TIP3    H123177   0.135   5.147   1.830  2.3811 -0.6823  3.6233
40765TIP3    H223178   0.024   5.091   1.916 -1.2564  0.6452  0.1022
40766TIP3   OH223179   6.984  10.425  10.517 -0.3487 -0.1101 -0.0229
40766TIP3    H123180   7.024  10.339  10.525 -0.1365 -0.1472 -1.2060
40766TIP3    H223181   6.911  10.424  10.579  0.4997 -0.6259  0.9788
40767TIP3   OH223182   4.925  10.051   2.912 -0.4822 -0.2411 -0.5313
40767TIP3    H123183   4.871  10.082   2.985 -0.3645 -0.1397 -0.4867
40767TIP3    H223184   4.874   9.981   2.873 -0.4628 -0.4223 -0.2376
40768TIP3   OH223185   6.162   0.323   7.825  0.1552 -0.0171 -0.1786
40768TIP3    H123186   6.208   0.371   7.894  2.0088 -0.2618 -1.2005
40768TIP3    H223187   6.097   0.271   7.871  3.0454 -2.2225  1.7558
40769TIP3   OH223188  10.690   7.406   7.058 -0.2881 -0.2668  0.5601
40769TIP3    H123189  10.700   7.311   7.050  2.2445  0.0540 -1.5180
40769TIP3    H223190  10.731   7.428   7.141  1.2199 -0.8036 -0.0171
40770TIP3   OH223191   2.255   8.593   5.044  0.5106  0.3308 -0.6412
40770TIP3    H123192   2.317   8.666   5.037  1.0737 -0.0791  0.0056
40770TIP3    H223193   2.218   8.585   4.956  2.0759 -0.0246 -1.3049
40771TIP3   OH223194   9.103   3.448   6.889 -0.2024  0.0826  0.4039
40771TIP3    H123195   9.079   3.379   6.828  0.1988 -1.3591  1.8129
40771TIP3    H223196   9.021   3.493   6.909 -0.8921 -1.4790  1.2222
40772TIP3   OH223197   7.480   5.294   1.360 -0.1490  0.1417 -0.2220
40772TIP3    H123198   7.387   5.307   1.378  0.1000  0.7542  0.6459
40772TIP3    H223199   7.508   5.374   1.316  0.2137  0.4356  0.5240
40773TIP3   OH223200   6.710   5.195   3.491  0.3765  0.4344 -0.0650
40773TIP3    H123201   6.775   5.259   3.517  0.6840 -0.4378  1.4460
40773TIP3    H223202   6.626   5.240   3.502  0.6019  0.6873  0.6838
40774TIP3   OH223203   8.395   9.087   4.374  0.2058 -0.9136  0.3046
40774TIP3    H123204   8.347   9.136   4.440  0.4122  2.3179 -1.7216
40774TIP3    H223205   8.339   9.012   4.355 -0.8967 -0.7363  2.4886
40775TIP3   OH223206   8.615   3.975   2.196 -0.1967 -0.2847 -0.1986
40775TIP3    H123207   8.538   4.027   2.176 -2.2233 -2.2946  1.7339
40775TIP3    H223208   8.652   4.016   2.274  0.6095  0.5436 -0.9931
40776TIP3   OH223209  10.873   4.491   4.198 -0.6311 -0.0418  0.3692
40776TIP3    H123210  10.802   4.516   4.139 -0.0198 -1.1418 -0.8931
40776TIP3    H223211  10.948   4.476   4.140  0.4729  0.4932  1.6098
40777TIP3   OH223212   2.717   4.172   9.951  0.4524 -0.2032 -0.0793
40777TIP3    H123213   2.749   4.102   9.894  0.4944 -0.7380  0.5843
40777TIP3    H223214   2.691   4.242   9.891  0.9313 -0.5688 -0.7274
40778TIP3   OH223215   6.266   1.938   0.166 -0.3952  0.8800 -0.4237
40778TIP3    H123216   6.177   1.972   0.171 -0.1971  1.8366 -2.3159
40778TIP3    H223217   6.315   2.007   0.121  0.7585 -0.5915 -1.5339
40779TIP3   OH223218   0.836   3.341   6.113 -0.5114 -0.3006  0.2363
40779TIP3    H123219   0.776   3.389   6.056 -1.1821  0.2122  1.3529
40779TIP3    H223220   0.914   3.396   6.120 -0.0427 -0.7874 -0.8979
40780TIP3   OH223221   2.031   0.595   6.981  0.2046 -0.1117  0.0754
40780TIP3    H123222   2.111   0.641   7.006  0.7607 -0.3340 -1.2134
40780TIP3    H223223   1.961   0.657   7.002  0.7989  0.5237  0.2308
40781TIP3   OH223224   4.221   3.308   9.402  0.6456  0.6975  0.3351
40781TIP3    H123225   4.266   3.291   9.485 -0.2011  1.2518  0.9190
40781TIP3    H223226   4.145   3.360   9.426  1.1256  2.0675 -0.9521
40782TIP3   OH223227   8.619   6.388   1.795  0.1392 -0.1426 -0.0093
40782TIP3    H123228   8.683   6.457   1.777 -0.0796  0.0851  0.0729
40782TIP3    H223229   8.672   6.309   1.808  0.3025 -0.3572 -1.7376
40783TIP3   OH223230   3.366   0.470   3.349 -0.3796 -0.7074  0.2925
40783TIP3    H123231   3.369   0.471   3.253  1.2635 -1.1338  0.3224
40783TIP3    H223232   3.437   0.412   3.375  0.2410  0.6707  1.8294
40784TIP3   OH223233   4.082  10.072   7.365 -0.2862  0.1001 -0.2744
40784TIP3    H123234   4.037  10.149   7.399 -0.7361  1.2042 -3.1235
40784TIP3    H223235   4.175  10.096   7.369 -0.3991  0.6624 -0.7653
40785TIP3   OH223236   8.934   2.525   5.369 -0.6542  0.4779 -0.0221
40785TIP3    H123237   8.969   2.523   5.281 -0.9711  1.6678 -0.1929
40785TIP3    H223238   8.938   2.434   5.399 -0.9214 -0.0149 -1.4044
40786TIP3   OH223239   8.569   0.631   0.169  0.0180 -0.1172 -0.2676
40786TIP3    H123240   8.560   0.574   0.092  1.0376 -0.7196  0.0282
40786TIP3    H223241   8.491   0.686   0.168 -0.8750 -1.3371 -0.7267
40787TIP3   OH223242  10.509   2.352   9.943 -0.2323  0.5844 -0.7126
40787TIP3    H123243  10.414   2.354   9.952 -0.0981  0.6784  1.1304
40787TIP3    H223244  10.530   2.260   9.929 -0.5396  0.4194 -0.1273
40788TIP3   OH223245  10.668   6.962   2.426 -0.1486 -0.0571 -0.3485
40788TIP3    H123246  10.720   7.009   2.492  0.3265  1.5550 -1.7950
40788TIP3    H223247  10.729   6.903   2.384  0.0903  0.4846 -0.7803
40789TIP3   OH223248   4.027   4.713   9.673  0.7429  0.2364 -0.3278
40789TIP3    H123249   4.026   4.808   9.660 -1.2523  0.0566 -1.8635
40789TIP3    H223250   3.970   4.698   9.749 -0.0060  0.1918 -0.8901
40790TIP3   OH223251   3.830  10.802   5.809  0.1507  0.1168  0.1568
40790TIP3    H123252   3.774  10.741   5.761 -0.0288  0.2640  0.1748
40790TIP3    H223253   3.794  10.802   5.898  0.5135 -0.1956  0.3088
40791TIP3   OH223254   3.144   7.097   8.788 -0.1912  0.0635 -0.1472
40791TIP3    H123255   3.224   7.149   8.789  0.5529 -1.0545  1.2353
40791TIP3    H223256   3.131   7.071   8.879  0.1314 -3.1500 -0.8964
40792TIP3   OH223257   8.934   5.947   0.159  0.7672 -0.2474  0.3875
40792TIP3    H123258   8.876   5.898   0.100  0.8359 -1.4779  1.3216
40792TIP3    H223259   8.881   6.022   0.187 -0.5683 -1.5941  1.5925
40793TIP3   OH223260   8.108   1.163   9.050 -0.2946 -0.5731 -0.2928
40793TIP3    H123261   8.063   1.236   9.094  0.4895  1.6267 -2.8467
40793TIP3    H223262   8.067   1.085   9.086 -2.1614  1.1400  1.6169
40794TIP3   OH223263   1.445   5.916   2.897  0.6455 -0.4861  0.1851
40794TIP3    H123264   1.366   5.944   2.851  0.8613  0.6011  0.4443
40794TIP3    H223265   1.418   5.907   2.988  0.8449 -0.0111  0.2912
40795TIP3   OH223266   2.022   0.837   9.768  0.0331 -0.0603  1.0209
40795TIP3    H123267   2.051   0.832   9.859  1.6764  0.2706  0.5454
40795TIP3    H223268   2.082   0.781   9.720 -0.5060  0.1522  0.0641
40796TIP3   OH223269   7.506   0.234   6.111  0.3854 -0.6496  0.5660
40796TIP3    H123270   7.544   0.245   6.024  0.5245 -4.4179 -0.0122
40796TIP3    H223271   7.580   0.244   6.171  0.6091  0.2396  0.1635
40797TIP3   OH223272   0.153   7.056   0.397  0.2338  0.3328 -0.0429
40797TIP3    H123273   0.228   7.013   0.440 -1.3827 -2.2059  0.4397
40797TIP3    H223274   0.143   7.139   0.443  1.7010 -0.0442  1.0197
40798TIP3   OH223275   9.620   1.232   0.660 -0.1916 -0.0303  0.3248
40798TIP3    H123276   9.553   1.188   0.609  0.0781 -0.2177  0.1297
40798TIP3    H223277   9.618   1.189   0.745 -1.5314  1.1335  0.9323
40799TIP3   OH223278   2.250   4.343   4.987 -0.0801  0.2648 -0.1550
40799TIP3    H123279   2.293   4.381   4.910  1.7833  0.3269  0.8672
40799TIP3    H223280   2.255   4.249   4.972  1.5544  0.2162  0.4921
40800TIP3   OH223281  10.001   7.104   2.797 -0.1492  0.8511  0.3246
40800TIP3    H123282   9.918   7.125   2.840 -0.6132  1.0203 -0.6360
40800TIP3    H223283   9.990   7.134   2.707  1.0400  1.0835  0.2341
40801TIP3   OH223284   8.207   5.298   7.051  0.5510 -0.0536  0.1642
40801TIP3    H123285   8.211   5.337   7.139  0.3328 -3.0914  1.6696
40801TIP3    H223286   8.114   5.297   7.029  0.6457  1.1207 -0.3380
40802TIP3   OH223287   8.790   8.818   1.794  0.4405 -0.8796  0.0842
40802TIP3    H123288   8.798   8.912   1.777 -0.6499 -0.6819  0.5920
40802TIP3    H223289   8.713   8.791   1.744 -1.9934 -0.5677  3.3224
40803TIP3   OH223290  10.206   0.910   5.726 -0.1888  0.6306  0.5368
40803TIP3    H123291  10.182   0.837   5.783  1.3549  0.3622  0.8958
40803TIP3    H223292  10.130   0.968   5.727 -1.1064 -0.5385  0.9480
40804TIP3   OH223293   5.069   5.321  10.731 -0.2947 -0.0810 -0.1755
40804TIP3    H123294   5.052   5.327  10.825  0.1443  0.2226 -0.1103
40804TIP3    H223295   5.014   5.248  10.702 -1.1301  0.4083  0.1426
40805TIP3   OH223296   8.979   6.228  10.717  0.1335 -0.2603  0.0375
40805TIP3    H123297   8.896   6.199  10.681 -0.1209 -1.8309  1.7443
40805TIP3    H223298   8.994   6.313  10.676 -1.8328 -0.3495 -1.0055
40806TIP3   OH223299  10.243   7.097   5.477  0.0102  0.0749  0.1140
40806TIP3    H123300  10.266   7.184   5.509 -3.7931  1.2127  0.3098
40806TIP3    H223301  10.234   7.109   5.382 -0.1689 -0.1531  0.1008
40807TIP3   OH223302   9.967   4.496   0.916 -0.6561  0.3234 -0.4341
40807TIP3    H123303   9.895   4.526   0.861 -0.7270  1.0173  0.0265
40807TIP3    H223304   9.977   4.404   0.894 -2.2121  0.0109  0.0804
40808TIP3   OH223305   5.460   8.292   4.337  0.1446  0.5406 -0.4013
40808TIP3    H123306   5.534   8.340   4.300 -1.6292  2.1491 -2.0829
40808TIP3    H223307   5.384   8.324   4.289 -1.9053  0.1834  2.3647
40809TIP3   OH223308   6.944   3.355   4.490 -0.5836 -0.1192 -0.1415
40809TIP3    H123309   6.948   3.271   4.534  1.9609  0.4281  0.8132
40809TIP3    H223310   7.035   3.376   4.469 -1.1731  2.2529 -0.6343
40810TIP3   OH223311   2.905   8.044   6.346 -0.1677 -0.0869  0.0593
40810TIP3    H123312   2.976   8.037   6.411  0.2946 -2.3105 -0.5809
40810TIP3    H223313   2.941   8.098   6.276  0.5430 -0.3590  0.2055
40811TIP3   OH223314   5.356   7.752   9.141  0.0220 -0.1577 -0.5735
40811TIP3    H123315   5.338   7.841   9.171  0.0582 -0.0407 -0.8901
40811TIP3    H223316   5.411   7.764   9.063  0.4386 -0.4742 -0.3290
40812TIP3   OH223317   5.206   8.014   0.149  0.0819 -0.8691  0.2936
40812TIP3    H123318   5.232   7.975   0.065  0.4611  0.6677 -0.3261
40812TIP3    H223319   5.222   7.944   0.213  1.4568 -1.4928 -0.6750
40813TIP3   OH223320   3.226   3.582   2.305  0.2179  0.3349 -0.0857
40813TIP3    H123321   3.141   3.627   2.313  0.6290  1.1111  0.0428
40813TIP3    H223322   3.252   3.597   2.215  0.9298  1.4407  0.2777
40814TIP3   OH223323  10.578   1.145   9.188  0.6901  0.3640  0.3191
40814TIP3    H123324  10.513   1.144   9.118  1.1714 -0.7677 -0.1334
40814TIP3    H223325  10.555   1.221   9.241  0.1910  1.1144 -0.9402
40815TIP3   OH223326   2.199   8.694   6.640  0.1257 -0.1420 -0.0997
40815TIP3    H123327   2.225   8.617   6.692  0.3156 -0.8493 -1.2032
40815TIP3    H223328   2.120   8.666   6.595  0.4542  0.1353 -0.8700
40816TIP3   OH223329   8.974   7.249   6.271  0.2320 -0.1565  0.3351
40816TIP3    H123330   9.043   7.296   6.224  0.6564 -0.8939  0.2091
40816TIP3    H223331   9.008   7.160   6.283 -1.2513 -0.9460 -0.9441
40817TIP3   OH223332   0.206   4.392   9.076  0.3219 -0.1869 -0.0614
40817TIP3    H123333   0.283   4.339   9.054  0.3196  0.5239 -1.9992
40817TIP3    H223334   0.218   4.473   9.026 -2.0426 -0.3866 -1.0905
40818TIP3   OH223335   9.095   9.346   1.291 -0.1911  0.2955  0.3296
40818TIP3    H123336   9.047   9.279   1.339  0.0064  0.5772  0.9383
40818TIP3    H223337   9.068   9.335   1.200 -1.1245  0.2074  0.6052
40819TIP3   OH223338   7.561   2.271   2.524  0.0760 -0.8004 -0.1000
40819TIP3    H123339   7.623   2.199   2.539 -0.6466 -0.9040  3.0057
40819TIP3    H223340   7.501   2.237   2.457  1.8630 -1.6352 -1.3485
40820TIP3   OH223341  10.897   1.857   2.477 -0.1327 -0.5413  1.0681
40820TIP3    H123342  10.945   1.843   2.395  2.0485  2.7941  1.5655
40820TIP3    H223343  10.805   1.853   2.452  0.4301  2.1562 -2.0667
40821TIP3   OH223344   9.025   4.828   2.302 -0.2611 -0.1132 -0.1068
40821TIP3    H123345   8.998   4.872   2.382  0.3088 -0.1735  0.1253
40821TIP3    H223346   8.961   4.856   2.236 -1.6584 -1.2792  0.7009
40822TIP3   OH223347   2.276   2.664   2.083 -0.4026  0.4253  0.8518
40822TIP3    H123348   2.237   2.608   2.016  0.1506  0.4592  0.4982
40822TIP3    H223349   2.242   2.752   2.064  1.3458  0.8357 -0.6762
40823TIP3   OH223350   4.748   9.131   4.746 -0.3274 -0.1052  0.4925
40823TIP3    H123351   4.779   9.212   4.787 -0.6626 -0.0720  0.6901
40823TIP3    H223352   4.705   9.083   4.817 -1.5256  0.2670  0.0499
40824TIP3   OH223353   9.647   5.796  10.703  0.1183  0.4018 -0.1447
40824TIP3    H123354   9.599   5.713  10.692 -0.0475  0.7553 -2.4280
40824TIP3    H223355   9.615   5.830  10.787 -0.2210 -1.5566  0.5861
40825TIP3   OH223356   3.883   7.916   6.091 -0.1607 -0.2069  0.3469
40825TIP3    H123357   3.889   7.850   6.022 -1.3745 -3.0744  2.7666
40825TIP3    H223358   3.793   7.910   6.122  0.0017  1.8777  1.4354
40826TIP3   OH223359   1.607   8.015   7.291  0.6215 -0.1786 -0.9199
40826TIP3    H123360   1.664   7.969   7.228 -0.5370 -3.4120  0.1975
40826TIP3    H223361   1.644   7.992   7.376 -0.6024  0.1781 -0.2842
40827TIP3   OH223362   6.850   0.221   0.838  0.4560  0.3366 -0.1372
40827TIP3    H123363   6.816   0.144   0.791 -1.0486  0.5743  0.5106
40827TIP3    H223364   6.914   0.185   0.899 -1.5874 -0.7268  1.5285
40828TIP3   OH223365   4.536   4.578   6.784 -0.3650 -0.4079 -0.6995
40828TIP3    H123366   4.508   4.547   6.698  3.0247 -3.8722 -0.8749
40828TIP3    H223367   4.607   4.640   6.766 -0.0843 -0.6396 -0.4136
40829TIP3   OH223368   6.266  10.806   4.479 -0.5722 -0.7111 -0.4870
40829TIP3    H123369   6.227  10.740   4.536  2.1809 -0.9778  1.2901
40829TIP3    H223370   6.206  10.880   4.481 -1.5057 -1.4799  1.1827
40830TIP3   OH223371   4.975   4.578   9.200 -0.1616 -0.8759  0.4001
40830TIP3    H123372   4.906   4.598   9.136  2.0381  0.9468 -1.5694
40830TIP3    H223373   5.032   4.516   9.155  0.8314 -0.4157  0.9946
40831TIP3   OH223374   3.362   1.783   5.220  0.0855 -0.5517  0.6753
40831TIP3    H123375   3.393   1.804   5.132 -0.9756  1.5831  0.7444
40831TIP3    H223376   3.276   1.825   5.226 -0.2667 -1.4044  2.4423
40832TIP3   OH223377   2.241   2.577   3.119 -0.5270 -0.4830  0.4054
40832TIP3    H123378   2.290   2.638   3.174 -0.4861 -0.8069  0.7295
40832TIP3    H223379   2.285   2.493   3.131  0.0880 -0.3737 -0.8815
40833TIP3   OH223380   8.963   2.185   7.956  0.7657  0.2902  0.5812
40833TIP3    H123381   8.874   2.178   7.991 -0.1961  1.9264 -1.3158
40833TIP3    H223382   8.975   2.106   7.904  0.1894  0.2951  0.4300
40834TIP3   OH223383   9.287   8.018  10.426  0.2748  0.1940 -0.2345
40834TIP3    H123384   9.247   7.942  10.385 -0.9744  2.5106 -3.8128
40834TIP3    H223385   9.217   8.058  10.478  1.4299 -1.8701  3.2420
40835TIP3   OH223386   7.949   0.733   6.743 -0.3925  0.5628 -0.1638
40835TIP3    H123387   8.044   0.731   6.757 -0.4500  1.3500  0.4272
40835TIP3    H223388   7.912   0.712   6.829 -0.7457  0.9755 -0.2082
40836TIP3   OH223389   0.019   5.332   7.927 -0.3778 -0.1781  0.3130
40836TIP3    H123390  -0.025   5.310   8.009 -0.8173 -0.0374  0.1227
40836TIP3    H223391  -0.052   5.335   7.862 -0.1912  0.7838  0.1359
40837TIP3   OH223392   1.063   8.835   3.292 -0.0401 -0.6055 -0.2348
40837TIP3    H123393   0.972   8.847   3.265 -0.4706 -1.3926  0.7897
40837TIP3    H223394   1.094   8.924   3.310 -0.3617 -0.2557 -1.2892
40838TIP3   OH223395   4.180  10.180   6.348 -0.1100  0.0858  0.0794
40838TIP3    H123396   4.214  10.222   6.268 -1.2096 -1.6806 -1.4002
40838TIP3    H223397   4.235  10.103   6.359 -1.9141 -1.4204 -0.8870
40839TIP3   OH223398  10.122  10.260   4.249  0.1971 -0.0708  0.4658
40839TIP3    H123399  10.074  10.273   4.167  0.7333 -2.1961 -0.2549
40839TIP3    H223400  10.195  10.323   4.245 -0.1426  0.2786 -0.3879
40840TIP3   OH223401   8.947   8.905   5.153  0.0900 -0.0653 -0.2436
40840TIP3    H123402   9.025   8.940   5.111  0.8334 -0.9733  0.3279
40840TIP3    H223403   8.918   8.835   5.094  0.0600 -0.1179 -0.1660
40841TIP3   OH223404   6.931   9.032   5.943 -0.1716 -0.5269 -0.0103
40841TIP3    H123405   6.952   9.125   5.948 -0.9382 -0.3334 -0.2472
40841TIP3    H223406   6.850   9.022   5.993 -0.9711 -0.7640 -1.2902
40842TIP3   OH223407   2.103   3.901   4.146 -0.7123  0.0480  0.3074
40842TIP3    H123408   2.011   3.899   4.170 -0.8919 -1.5788 -0.4088
40842TIP3    H223409   2.105   3.877   4.053  0.4907 -0.9293  0.5587
40843TIP3   OH223410   2.130   5.571   6.846  0.0581 -0.2273  0.1496
40843TIP3    H123411   2.072   5.579   6.770 -0.6499  5.1350  0.8564
40843TIP3    H223412   2.080   5.609   6.918  3.2962  1.9696  1.4724
40844TIP3   OH223413   6.193   3.849   7.120 -0.4945 -0.3887  0.1909
40844TIP3    H123414   6.278   3.894   7.115 -0.6132  0.0617  1.7574
40844TIP3    H223415   6.134   3.903   7.068 -0.4084  0.7901  1.2605
40845TIP3   OH223416   6.388   7.810   9.571  0.8378  0.2846  0.1706
40845TIP3    H123417   6.413   7.875   9.505  0.0505  0.1431 -0.2833
40845TIP3    H223418   6.437   7.732   9.547  1.3536  0.5381  0.3791
40846TIP3   OH223419   8.525   1.345   6.539  0.0694  0.3999  0.1570
40846TIP3    H123420   8.504   1.354   6.446 -0.0521  0.0320  0.1473
40846TIP3    H223421   8.604   1.398   6.551  0.7635 -0.4743 -0.4065
40847TIP3   OH223422   0.953   3.232   0.431  0.2782 -0.0478 -0.2401
40847TIP3    H123423   0.975   3.214   0.340  0.9512 -0.1568 -0.0574
40847TIP3    H223424   1.036   3.257   0.472 -0.1096  0.5187  0.2201
40848TIP3   OH223425   3.959   6.570   4.902 -0.3443 -0.4612 -0.1676
40848TIP3    H123426   3.869   6.593   4.925 -0.5089 -1.9826  0.7978
40848TIP3    H223427   4.012   6.637   4.945 -0.9197 -0.6660  0.9020
40849TIP3   OH223428   9.279   6.788   1.019 -0.8800  0.0247 -0.0036
40849TIP3    H123429   9.311   6.860   1.074 -0.6082 -0.2904  0.2562
40849TIP3    H223430   9.243   6.831   0.941 -0.7323  0.4414  0.1565
40850TIP3   OH223431   5.905  10.110   6.429  0.3967  0.4190 -0.1354
40850TIP3    H123432   5.888  10.043   6.496 -0.1441 -0.5913 -1.2506
40850TIP3    H223433   5.832  10.102   6.368  0.1154  2.3195 -0.0924
40851TIP3   OH223434  10.726   8.672   7.773  0.0747 -0.4059  0.4967
40851TIP3    H123435  10.747   8.621   7.694  0.5888  0.1705  0.2520
40851TIP3    H223436  10.668   8.741   7.741  2.2511  1.3572  0.1096
40852TIP3   OH223437   5.397  10.589   8.754  0.4859 -0.0028 -0.2893
40852TIP3    H123438   5.485  10.601   8.718  0.9286 -4.2086 -1.2418
40852TIP3    H223439   5.411  10.552   8.841 -0.4111  0.9006  0.2634
40853TIP3   OH223440   8.218   9.371   9.004  0.1064  0.1729 -0.3321
40853TIP3    H123441   8.129   9.338   9.016  0.0092  0.7140  0.5945
40853TIP3    H223442   8.207   9.456   8.961  0.2876 -0.4654 -1.6921
40854TIP3   OH223443   3.241   1.320   0.580 -0.3207 -0.6837  0.3042
40854TIP3    H123444   3.171   1.363   0.629  1.2056  0.7752  1.2824
40854TIP3    H223445   3.310   1.306   0.644  0.9515 -0.5611 -0.9997
40855TIP3   OH223446   6.999   1.882   6.205  0.7874 -0.0534 -0.3425
40855TIP3    H123447   7.045   1.848   6.282 -0.1248 -1.5083 -0.4018
40855TIP3    H223448   7.068   1.922   6.152  1.6044 -0.0429  0.6872
40856TIP3   OH223449   1.417   8.982   1.809 -0.5986 -0.0249 -0.3877
40856TIP3    H123450   1.423   8.887   1.816 -1.2806 -0.0966 -0.7576
40856TIP3    H223451   1.361   8.998   1.733 -0.0157  0.6818 -0.6874
40857TIP3   OH223452   2.672   0.066   8.866  0.1412  0.1918 -0.4393
40857TIP3    H123453   2.709   0.025   8.788  0.2929  1.7901 -1.2481
40857TIP3    H223454   2.674   0.160   8.847 -0.6656  0.5593  1.1241
40858TIP3   OH223455   5.343   8.213   1.887  0.1323 -0.0611  0.5609
40858TIP3    H123456   5.400   8.139   1.905 -0.1392 -0.4102  0.0054
40858TIP3    H223457   5.287   8.184   1.815 -0.3760  0.4695  0.7303
40859TIP3   OH223458   9.108   6.100   2.501  0.4561 -0.5564 -0.1045
40859TIP3    H123459   9.015   6.108   2.523  0.9333 -0.2039  2.0069
40859TIP3    H223460   9.118   6.009   2.473 -0.8962 -0.0277 -2.6449
40860TIP3   OH223461   7.463   4.138   5.649  0.0492  0.3033 -0.3490
40860TIP3    H123462   7.469   4.232   5.634 -1.5516  0.5870  0.7075
40860TIP3    H223463   7.386   4.126   5.703  0.6604 -1.5584  0.1922
40861TIP3   OH223464   8.431   3.469  10.162 -0.1937  0.1492 -0.3556
40861TIP3    H123465   8.392   3.397  10.210  1.0993  0.2680  0.9474
40861TIP3    H223466   8.465   3.528  10.229 -1.5682  2.2259 -1.3616
40862TIP3   OH223467   3.484   6.835   6.938 -0.3429  0.0985 -0.4578
40862TIP3    H123468   3.449   6.815   7.025 -0.3940  0.8073 -0.3084
40862TIP3    H223469   3.545   6.908   6.953 -1.1718  0.9644 -1.1571
40863TIP3   OH223470  10.018  10.226   8.984  0.0255 -0.1051  0.6973
40863TIP3    H123471  10.003  10.303   9.040 -1.6734  0.4700 -0.4555
40863TIP3    H223472  10.056  10.161   9.043  0.9428  1.4066  1.8458
40864TIP3   OH223473   5.200   6.147   9.230  0.0508 -0.5089  0.0157
40864TIP3    H123474   5.272   6.133   9.169 -0.4609 -1.0448 -0.4872
40864TIP3    H223475   5.160   6.061   9.240  0.3169 -0.4951  1.3764
40865TIP3   OH223476   9.629   3.992   5.213 -0.1583 -0.3131 -0.5508
40865TIP3    H123477   9.586   3.974   5.296  1.4471 -1.0038  0.1695
40865TIP3    H223478   9.583   3.938   5.149 -0.5972 -0.7405  0.1204
40866TIP3   OH223479   0.453   7.589   3.284  0.3614  0.3246 -0.2028
40866TIP3    H123480   0.519   7.522   3.304  0.2470 -0.2121 -1.5214
40866TIP3    H223481   0.376   7.540   3.258 -0.2297  0.9679  0.2981
40867TIP3   OH223482   9.700   5.087   1.859  0.4030 -0.5037 -0.1350
40867TIP3    H123483   9.757   5.014   1.834  1.7847  0.0308  1.3242
40867TIP3    H223484   9.759   5.158   1.882 -0.5865 -0.8092  4.2234
40868TIP3   OH223485  10.427   4.053   9.057  0.3926 -0.4263 -0.4471
40868TIP3    H123486  10.358   4.079   8.996  0.1076  0.0274  0.0474
40868TIP3    H223487  10.421   3.958   9.062 -1.0490 -0.3233  0.5353
40869TIP3   OH223488  10.219   1.449   7.597 -0.2822 -0.2730 -0.2765
40869TIP3    H123489  10.194   1.401   7.676  0.2477 -0.0553  0.0228
40869TIP3    H223490  10.264   1.527   7.629  1.4122 -0.9993 -0.8063
40870TIP3   OH223491   9.346   5.266   9.177 -0.3206 -0.2658 -0.5645
40870TIP3    H123492   9.320   5.187   9.224  0.2522 -1.0803 -1.5673
40870TIP3    H223493   9.441   5.258   9.167 -0.3596  0.1290 -1.3989
40871TIP3   OH223494   7.571   1.555   2.108  0.1139  0.1040  0.9510
40871TIP3    H123495   7.637   1.508   2.159 -0.4793  0.4423  2.0635
40871TIP3    H223496   7.488   1.534   2.151 -0.3733  0.6084  0.2751
40872TIP3   OH223497   6.628   7.958   7.463 -0.3283 -0.4787 -0.1241
40872TIP3    H123498   6.587   7.960   7.549 -1.0096 -1.4420 -0.4140
40872TIP3    H223499   6.655   7.867   7.451  0.7119 -0.1381 -0.4983
40873TIP3   OH223500   3.185   4.029   3.504 -0.2370 -0.8005  0.0316
40873TIP3    H123501   3.169   4.012   3.412 -3.1161 -0.7320  0.4365
40873TIP3    H223502   3.124   3.972   3.550  2.3475 -2.1657  2.0227
40874TIP3   OH223503   2.053   6.209   1.495  0.4227 -0.1045 -0.2520
40874TIP3    H123504   2.147   6.199   1.481  0.1205 -1.7125 -1.6297
40874TIP3    H223505   2.025   6.271   1.428  0.8165  2.5145  1.8520
40875TIP3   OH223506   8.374  10.812   6.086 -0.4094 -0.7302  0.3898
40875TIP3    H123507   8.424  10.815   6.167 -0.5601  1.2352  0.4646
40875TIP3    H223508   8.312  10.885   6.093 -0.2163 -0.3062 -1.6003
40876TIP3   OH223509   8.690   0.651   2.100 -0.1573 -0.3475  0.4896
40876TIP3    H123510   8.652   0.633   2.015  0.2677 -1.4568  0.5170
40876TIP3    H223511   8.690   0.747   2.107 -0.5392 -0.2604 -0.5867
40877TIP3   OH223512   8.991   9.380   6.470 -0.1197  0.5303  0.3893
40877TIP3    H123513   9.070   9.425   6.497 -0.6871  2.7616 -1.4033
40877TIP3    H223514   9.019   9.290   6.453  1.6736  0.8823  1.2494
40878TIP3   OH223515   5.861   3.564   6.772  0.2249  0.1842  0.3741
40878TIP3    H123516   5.803   3.488   6.770  1.7116 -0.9927  0.0206
40878TIP3    H223517   5.829   3.618   6.845 -1.6773 -0.0748 -0.2179
40879TIP3   OH223518  10.116   1.632   3.593  0.2409 -0.1571 -0.4194
40879TIP3    H123519  10.132   1.652   3.685  1.2780 -0.3603 -0.5423
40879TIP3    H223520  10.133   1.538   3.585 -0.2496 -0.2254 -0.7373
40880TIP3   OH223521   4.864   1.618   4.208  0.2612  0.4835  0.0905
40880TIP3    H123522   4.787   1.615   4.264  1.4639 -3.6907  1.8758
40880TIP3    H223523   4.937   1.638   4.267  1.2048 -1.4337 -0.3238
40881TIP3   OH223524   8.159   3.558   0.503 -0.1513  0.5417 -0.3486
40881TIP3    H123525   8.176   3.617   0.429 -0.6555  1.3190  0.1465
40881TIP3    H223526   8.201   3.601   0.578 -0.1963  0.0736 -0.0542
40882TIP3   OH223527   5.516   6.644   3.939 -0.1624  0.9134  0.5136
40882TIP3    H123528   5.582   6.667   3.874  0.8866 -1.5007  0.6133
40882TIP3    H223529   5.556   6.668   4.023 -0.1811  1.1115  0.4666
40883TIP3   OH223530   1.546   9.584   6.008 -0.3413  0.6484 -0.0204
40883TIP3    H123531   1.558   9.663   5.956 -1.8268  0.6075 -0.4669
40883TIP3    H223532   1.577   9.513   5.952  0.0780  0.8071  0.0057
40884TIP3   OH223533   6.716   4.475   8.469 -0.2070 -0.0765 -0.4162
40884TIP3    H123534   6.620   4.469   8.472 -0.2286  0.0519 -0.7429
40884TIP3    H223535   6.746   4.385   8.469 -0.3441 -0.1232 -0.6710
40885TIP3   OH223536   9.566   6.573   6.739 -0.1253 -0.3349 -0.5637
40885TIP3    H123537   9.632   6.636   6.710 -1.9689  2.0472  0.1491
40885TIP3    H223538   9.590   6.492   6.693  3.6710  0.1517  0.2131
40886TIP3   OH223539   4.242   5.033   8.612 -0.1197  0.3562  0.4606
40886TIP3    H123540   4.240   5.126   8.635 -0.5886  0.5576 -0.3641
40886TIP3    H223541   4.187   4.991   8.678 -0.8478  0.8271  0.1699
40887TIP3   OH223542   2.903   0.013   3.005  0.0491  0.2815  0.0556
40887TIP3    H123543   2.904  -0.038   3.085  0.5561  0.9772  0.5087
40887TIP3    H223544   2.886   0.103   3.034 -1.4189  0.3020 -0.7678
40888TIP3   OH223545   9.259   2.137   3.402 -0.1341  0.1380  0.2397
40888TIP3    H123546   9.263   2.094   3.317 -2.5211  2.2752 -1.1036
40888TIP3    H223547   9.316   2.214   3.393  0.3123 -0.1042  0.9111
40889TIP3   OH223548   7.890   7.782   3.515 -0.4946  0.3197  0.0779
40889TIP3    H123549   7.973   7.831   3.519  0.3473 -1.1052  0.9062
40889TIP3    H223550   7.883   7.740   3.600 -1.3728 -0.6889 -0.4740
40890TIP3   OH223551   9.681   3.949   2.564 -0.2165 -0.2694  0.5283
40890TIP3    H123552   9.734   4.025   2.589  0.1345 -0.2336 -0.2959
40890TIP3    H223553   9.594   3.984   2.549  0.5296  0.5583 -2.6706
40891TIP3   OH223554   4.932   8.971   0.105  0.4206  0.4386  0.4514
40891TIP3    H123555   4.883   8.920   0.170  1.1611 -0.9300 -0.0179
40891TIP3    H223556   4.871   8.980   0.032  0.4015 -0.1137  0.3923
40892TIP3   OH223557  10.866   7.164   4.301 -0.1031  0.3349  1.1062
40892TIP3    H123558  10.864   7.259   4.310  0.3351  0.3649  0.8877
40892TIP3    H223559  10.958   7.141   4.313  0.5598  0.3183 -2.7792
40893TIP3   OH223560   1.610  10.326   2.426  0.0144  0.0585 -0.1840
40893TIP3    H123561   1.611  10.309   2.331  0.2386 -0.5977 -0.0692
40893TIP3    H223562   1.642  10.245   2.465 -1.7392 -0.3091  0.5652
40894TIP3   OH223563   5.501   2.717   0.267 -0.4483 -0.2666 -0.2712
40894TIP3    H123564   5.538   2.805   0.267  0.8878 -0.7757 -1.6313
40894TIP3    H223565   5.421   2.725   0.215  0.4989 -0.1302 -1.7615
40895TIP3   OH223566   8.027   3.536   5.699  0.7836 -0.1762  0.1413
40895TIP3    H123567   8.048   3.443   5.686 -1.6054 -1.4557  3.8503
40895TIP3    H223568   8.111   3.576   5.720  1.7712 -1.6058 -0.8461
40896TIP3   OH223569   7.842   6.392   1.658  0.3115  0.0356  0.4682
40896TIP3    H123570   7.900   6.331   1.703  1.4534 -0.3831 -1.4756
40896TIP3    H223571   7.754   6.371   1.690  0.6998 -2.4355  0.0771
40897TIP3   OH223572   6.213   0.315   2.155 -0.2243  0.3824  0.2925
40897TIP3    H123573   6.226   0.294   2.247  0.1533 -1.2115 -0.0891
40897TIP3    H223574   6.131   0.271   2.131 -0.3978  0.9020 -0.1051
40898TIP3   OH223575   9.588   9.508  10.758 -0.0614 -0.3876 -0.0244
40898TIP3    H123576   9.545   9.429  10.791 -1.6264 -0.4585 -2.0088
40898TIP3    H223577   9.613   9.556  10.836 -0.4272 -2.1337  1.2316
40899TIP3   OH223578   2.929   3.580   9.233  0.3969  0.7636 -0.2534
40899TIP3    H123579   2.939   3.634   9.312 -0.5160  1.6970 -0.7468
40899TIP3    H223580   2.858   3.520   9.254  0.2180  0.9484 -0.3267
40900TIP3   OH223581   1.524   1.344   0.762 -0.2778 -0.0142 -0.0977
40900TIP3    H123582   1.495   1.435   0.759 -0.8746 -0.2076 -0.5796
40900TIP3    H223583   1.605   1.346   0.812 -0.0251  0.8482 -0.5243
40901TIP3   OH223584   7.039   0.387  10.296  0.1619  0.0880  0.0012
40901TIP3    H123585   6.993   0.412  10.215  0.7174  2.2249  0.2819
40901TIP3    H223586   7.012   0.297  10.312  0.9222 -0.8319 -3.1733
40902TIP3   OH223587   8.630   1.626   3.205 -0.1312 -0.2955 -0.0737
40902TIP3    H123588   8.546   1.626   3.250 -0.6075 -0.0261 -0.9280
40902TIP3    H223589   8.691   1.664   3.267 -0.8442  0.4318  0.2016
40903TIP3   OH223590   6.427   1.839   1.805 -0.1110 -0.3636  0.5021
40903TIP3    H123591   6.393   1.830   1.717 -0.8576  1.2405  0.5882
40903TIP3    H223592   6.386   1.768   1.855 -0.9095 -0.3245 -0.0932
40904TIP3   OH223593   7.130   0.817   3.203  0.3883  0.4671 -0.3322
40904TIP3    H123594   7.207   0.844   3.154 -0.3310  2.2552 -0.5732
40904TIP3    H223595   7.070   0.892   3.196 -0.2590  0.2669  2.1562
40905TIP3   OH223596   8.716   0.889   3.257 -0.5140  0.5992  0.0771
40905TIP3    H123597   8.651   0.958   3.265  0.6232  1.7817 -0.5515
40905TIP3    H223598   8.798   0.928   3.287  0.1293 -0.5170 -0.1284
40906TIP3   OH223599   6.505   1.861   8.494 -0.2909  0.6440 -0.0584
40906TIP3    H123600   6.574   1.794   8.502 -0.2853  0.7415  0.9090
40906TIP3    H223601   6.432   1.826   8.544 -0.7720  0.7727 -0.6637
40907TIP3   OH223602   5.261   9.477   3.652 -0.1487  0.2297  0.1388
40907TIP3    H123603   5.198   9.514   3.589  1.8899  5.0619  0.4930
40907TIP3    H223604   5.214   9.477   3.736 -1.1955 -1.2289 -0.3997
40908TIP3   OH223605   7.903   8.703   6.464  0.4849  0.5053 -0.1254
40908TIP3    H123606   7.911   8.788   6.508  0.8734  1.8794 -2.7133
40908TIP3    H223607   7.810   8.696   6.441  0.4349  0.1646  0.1645
40909TIP3   OH223608   6.051   0.698   9.327  0.5520 -0.5153 -0.2450
40909TIP3    H123609   6.099   0.734   9.401  0.5193 -0.3257 -0.3144
40909TIP3    H223610   6.105   0.720   9.251  0.4927 -0.5443 -0.2958
40910TIP3   OH223611  10.629   0.259   8.590 -0.0132 -0.2723 -0.1714
40910TIP3    H123612  10.573   0.208   8.649  1.3096 -2.0657 -0.3790
40910TIP3    H223613  10.718   0.238   8.617  0.6027  1.1475 -0.9741
40911TIP3   OH223614   5.835   3.343   6.986  0.2963 -0.0165  0.7009
40911TIP3    H123615   5.865   3.350   7.076 -1.7710  0.2942  1.4241
40911TIP3    H223616   5.747   3.307   6.993  0.4957 -1.0560 -1.2896
40912TIP3   OH223617   7.280   6.045   9.978 -0.3684 -0.2915  0.4379
40912TIP3    H123618   7.206   6.006   9.931  0.7316 -1.9254 -0.0311
40912TIP3    H223619   7.298   6.126   9.931  0.5562 -1.7655 -1.9132
40913TIP3   OH223620   8.243   7.447   9.745 -0.4021  0.0166 -0.0323
40913TIP3    H123621   8.157   7.486   9.763 -1.2010 -1.8717  0.4931
40913TIP3    H223622   8.280   7.502   9.676 -3.0159 -0.4104 -1.9200
40914TIP3   OH223623   7.972   7.470   7.884  0.3640  0.4855 -0.7223
40914TIP3    H123624   7.999   7.560   7.901  0.2447  1.0417 -3.0585
40914TIP3    H223625   7.877   7.471   7.897  0.3839  0.6648 -0.5915
40915TIP3   OH223626   9.977   2.963   0.964  0.1793  0.5771 -0.6452
40915TIP3    H123627   9.942   3.033   0.909  0.9920  0.6500 -1.0862
40915TIP3    H223628   9.913   2.954   1.035 -1.2620 -0.0170 -1.9627
40916TIP3   OH223629   0.292   9.296   8.087 -0.0259 -0.3695  0.1186
40916TIP3    H123630   0.217   9.346   8.119 -0.0959  0.9464 -1.9038
40916TIP3    H223631   0.311   9.333   8.001  3.7708  0.2413  1.0202
40917TIP3   OH223632   4.065   6.011   1.115 -0.5381  0.2339  0.4748
40917TIP3    H123633   3.986   6.064   1.127  0.2001  1.1383  1.5613
40917TIP3    H223634   4.035   5.920   1.120 -1.4716  0.5674  1.0901
40918TIP3   OH223635   8.550   7.529   0.880  0.2417 -0.3691  0.3817
40918TIP3    H123636   8.542   7.503   0.788 -0.8534  1.7788 -0.1797
40918TIP3    H223637   8.467   7.501   0.920  0.2663 -0.3106  0.4711
40919TIP3   OH223638   3.355   8.867   4.804 -0.4303 -0.0772  0.3503
40919TIP3    H123639   3.333   8.785   4.847 -0.0649  0.1525  0.9958
40919TIP3    H223640   3.406   8.915   4.869  0.7515 -0.0110 -0.5791
40920TIP3   OH223641   4.455  10.306   6.209  0.0169 -0.0824 -0.1354
40920TIP3    H123642   4.379  10.363   6.212 -0.1142 -0.1381 -1.6395
40920TIP3    H223643   4.528  10.365   6.190  0.1516 -0.1840  0.0675
40921TIP3   OH223644   1.513   1.289   2.291 -0.2291 -0.0784  0.3906
40921TIP3    H123645   1.505   1.383   2.277 -2.5243 -0.1686  0.7203
40921TIP3    H223646   1.589   1.279   2.347  0.4109  1.5144 -0.1437
40922TIP3   OH223647   8.425  10.098   7.399 -0.5910 -0.6492 -0.0752
40922TIP3    H123648   8.375  10.179   7.387  0.8728  0.2544 -0.4119
40922TIP3    H223649   8.371  10.045   7.457 -1.0458  1.0990  1.2037
40923TIP3   OH223650   5.239   0.802  10.487  0.0683  0.3770 -0.4387
40923TIP3    H123651   5.243   0.779  10.580 -1.8326 -0.2342 -0.4687
40923TIP3    H223652   5.201   0.890  10.485 -0.8244 -0.0002 -0.6510
40924TIP3   OH223653   9.787   5.226   3.446  0.4797  0.5134 -0.2253
40924TIP3    H123654   9.827   5.305   3.482  2.2100  0.5726 -2.1473
40924TIP3    H223655   9.801   5.232   3.352 -0.4570 -1.5056 -0.5470
40925TIP3   OH223656   6.464   9.227   8.126  0.3394 -0.0475 -0.6263
40925TIP3    H123657   6.408   9.172   8.180 -0.7704  0.2816 -1.4051
40925TIP3    H223658   6.538   9.172   8.104  0.9175 -0.1404  1.3542
40926TIP3   OH223659   5.162  10.072   8.282  0.1524 -0.9873  0.0574
40926TIP3    H123660   5.083  10.125   8.293  0.8745  0.7167 -2.3221
40926TIP3    H223661   5.158  10.041   8.192  0.8484 -3.2967  0.7443
40927TIP3   OH223662   4.541   2.541   6.380  0.2520  0.4094  0.8347
40927TIP3    H123663   4.573   2.535   6.470 -1.0252  0.0519  1.2902
40927TIP3    H223664   4.578   2.623   6.347  0.0068  1.0159  1.9975
40928TIP3   OH223665   8.698   5.972   8.298  0.6837  0.2403  0.3208
40928TIP3    H123666   8.752   5.919   8.357  0.2212 -1.4137 -0.6717
40928TIP3    H223667   8.753   6.048   8.278  1.6386 -0.1627  1.3087
40929TIP3   OH223668   8.683   5.462  10.176 -0.4514  0.3575 -0.2242
40929TIP3    H123669   8.626   5.464  10.252 -1.2243  0.3001 -0.7940
40929TIP3    H223670   8.624   5.464  10.100  0.3309  1.5347 -0.8416
40930TIP3   OH223671   6.664   8.823   9.146  0.4674 -0.4302 -0.4503
40930TIP3    H123672   6.748   8.779   9.132  0.0584 -0.9225 -1.5713
40930TIP3    H223673   6.599   8.755   9.127 -0.1756  0.1500 -0.3617
40931TIP3   OH223674   8.641   4.843   1.892  0.0273 -0.3705 -0.3902
40931TIP3    H123675   8.714   4.846   1.830 -1.4510  2.3129 -2.2064
40931TIP3    H223676   8.599   4.759   1.876  0.7971 -0.5379 -1.6866
40932TIP3   OH223677   7.267   5.730   3.632 -0.5191  0.3157 -0.1151
40932TIP3    H123678   7.326   5.792   3.588  0.9742 -0.8794  0.0999
40932TIP3    H223679   7.204   5.705   3.565  0.4236  0.1387 -0.9630
40933TIP3   OH223680   3.285  10.740  10.824  0.3597  0.4522 -0.1254
40933TIP3    H123681   3.246  10.653  10.829  1.0575  0.1719  0.8739
40933TIP3    H223682   3.378  10.725  10.843  0.4318  1.4493  0.3473
40934TIP3   OH223683   8.239   0.993   2.472 -0.2263  0.0920 -0.9397
40934TIP3    H123684   8.320   0.942   2.469 -1.0364 -1.2528 -0.5957
40934TIP3    H223685   8.172   0.933   2.441 -1.9197 -0.5153  3.2875
40935TIP3   OH223686   2.795   4.308  10.193 -0.0341  0.8372  0.3117
40935TIP3    H123687   2.789   4.258  10.113 -2.8786  1.2190  0.1853
40935TIP3    H223688   2.824   4.245  10.259 -1.6120 -0.5284 -0.2327
40936TIP3   OH223689   6.331   0.107   9.567 -0.4695  0.1999  0.2954
40936TIP3    H123690   6.349   0.037   9.630  0.8222  1.0442  0.9104
40936TIP3    H223691   6.248   0.146   9.597 -0.5055 -0.2023  0.7297
40937TIP3   OH223692  10.740   6.116   5.466 -0.2085  0.5409  0.0330
40937TIP3    H123693  10.705   6.038   5.422 -1.4162  1.0565  0.0352
40937TIP3    H223694  10.681   6.129   5.541  1.2267  0.2553  1.2560
40938TIP3   OH223695   0.733   9.802   4.290  0.0808  0.2838 -0.2521
40938TIP3    H123696   0.771   9.812   4.377  0.2725  1.0724 -0.4205
40938TIP3    H223697   0.770   9.874   4.239  0.4483 -0.5386 -1.1615
40939TIP3   OH223698   7.938   0.224   1.032  0.2641 -0.3106 -0.7628
40939TIP3    H123699   7.890   0.269   0.963 -0.4303  0.4422  0.1870
40939TIP3    H223700   8.007   0.286   1.058 -0.0194 -0.2219 -0.1975
40940TIP3   OH223701  10.840   0.024   4.678 -0.2740  0.2190  0.1104
40940TIP3    H123702  10.843   0.062   4.765  1.1358  1.1969 -0.3249
40940TIP3    H223703  10.834  -0.071   4.693  0.7516  0.3161  1.3026
40941TIP3   OH223704   2.682  10.837   3.310 -0.4171 -0.0202 -0.0990
40941TIP3    H123705   2.618  10.808   3.375  1.1314  0.5256  1.7916
40941TIP3    H223706   2.655  10.926   3.289 -1.3482 -0.4509 -0.7946
40942TIP3   OH223707   6.715   6.668   7.946  0.0750 -0.1697  0.1894
40942TIP3    H123708   6.806   6.644   7.965 -0.1031 -2.3388 -1.3808
40942TIP3    H223709   6.667   6.586   7.946 -1.2039  0.4516 -2.4941
40943TIP3   OH223710   4.167   9.812   3.019 -0.2152 -0.8269 -0.1843
40943TIP3    H123711   4.247   9.847   3.057 -0.1762 -1.9086  0.7752
40943TIP3    H223712   4.131   9.885   2.968  0.3117  0.3184  1.0251
40944TIP3   OH223713   6.625   7.336   0.897  0.3441 -0.0540 -0.4911
40944TIP3    H123714   6.557   7.271   0.911 -0.6531  1.0472 -0.1118
40944TIP3    H223715   6.693   7.289   0.848 -0.8793 -1.0416 -1.2933
40945TIP3   OH223716   4.490   8.650   8.431  0.0302  0.4670 -0.1362
40945TIP3    H123717   4.535   8.604   8.502  0.0007 -1.6078 -1.3836
40945TIP3    H223718   4.404   8.673   8.469 -1.4830 -3.8485 -0.4100
40946TIP3   OH223719   5.074  10.019   1.282 -0.0981 -0.2325  0.2178
40946TIP3    H123720   5.140  10.087   1.270 -2.0388  1.5431 -1.3948
40946TIP3    H223721   5.033  10.040   1.367 -0.5846  0.5593 -0.2022
40947TIP3   OH223722   7.361   1.410   5.916  0.0745 -0.5001 -0.1134
40947TIP3    H123723   7.374   1.504   5.916 -1.4475 -0.2426 -1.4656
40947TIP3    H223724   7.417   1.378   5.986  0.0149  1.4915  0.9208
40948TIP3   OH223725  10.750   0.355   6.771 -0.6323 -0.5229  0.2321
40948TIP3    H123726  10.724   0.436   6.815 -1.9061 -1.7813  1.9476
40948TIP3    H223727  10.668   0.308   6.758  0.0410 -1.3873 -1.1160
40949TIP3   OH223728   4.905   5.422   9.382 -0.1395  0.0404 -0.3338
40949TIP3    H123729   4.856   5.451   9.459  1.9216  1.8198  0.4188
40949TIP3    H223730   4.985   5.385   9.418  1.4341  2.0327 -1.5579
40950TIP3   OH223731   8.277   0.223   4.849 -0.0863  0.0177 -0.2062
40950TIP3    H123732   8.358   0.197   4.893  0.8770  1.6843 -0.8896
40950TIP3    H223733   8.275   0.170   4.769  0.4957  0.1644 -0.3240
40951TIP3   OH223734   9.064   8.448   7.280  0.4000 -0.1275  0.0987
40951TIP3    H123735   8.979   8.414   7.306  0.1741  1.4000  1.4696
40951TIP3    H223736   9.119   8.370   7.269 -0.8635 -1.0663  0.2784
40952TIP3   OH223737   5.657   8.689   7.465  0.5625  0.1527 -0.5772
40952TIP3    H123738   5.628   8.627   7.398  0.7085 -0.1595 -0.3577
40952TIP3    H223739   5.677   8.769   7.417  2.6143 -0.6723 -1.2058
40953TIP3   OH223740   7.583   7.316   6.244  0.2950  0.7764  0.4394
40953TIP3    H123741   7.489   7.329   6.231  0.4613  1.4124 -0.1919
40953TIP3    H223742   7.620   7.404   6.236  1.2107  0.2512 -1.6346
40954TIP3   OH223743   9.746   1.895   6.301 -0.7654  0.6568  0.6182
40954TIP3    H123744   9.718   1.986   6.292  0.1727  0.9835  0.8919
40954TIP3    H223745   9.666   1.844   6.292 -1.0495  1.3818 -1.5197
40955TIP3   OH223746   4.678   9.733   5.274 -0.6515  0.0014  0.4984
40955TIP3    H123747   4.680   9.711   5.368 -0.6008  0.1685  0.5371
40955TIP3    H223748   4.729   9.813   5.267 -0.7719  0.0666  0.3472
40956TIP3   OH223749   9.241   7.785  10.765 -0.2838 -0.5619  0.1712
40956TIP3    H123750   9.226   7.728  10.690  2.4402 -1.8505  0.4927
40956TIP3    H223751   9.194   7.866  10.743 -2.5830 -2.1404 -1.2041
40957TIP3   OH223752   9.747  10.628   7.349 -0.2426  0.5304 -0.0989
40957TIP3    H123753   9.657  10.611   7.321 -0.8093  1.1658  1.2757
40957TIP3    H223754   9.787  10.541   7.357 -0.8714  0.2283 -0.2387
40958TIP3   OH223755   6.214   1.825   1.281  0.1970  0.5238  0.3625
40958TIP3    H123756   6.154   1.750   1.283 -0.8754  1.3038 -1.0159
40958TIP3    H223757   6.282   1.799   1.219 -0.7771  1.0773 -0.9946
40959TIP3   OH223758   1.005   3.692   4.924 -0.8258 -0.8257  0.1699
40959TIP3    H123759   0.975   3.615   4.972 -0.2217 -1.1441  0.0550
40959TIP3    H223760   1.022   3.758   4.991 -1.8909 -0.6023  0.2231
40960TIP3   OH223761   4.441   3.045   0.002 -0.6145 -0.4421  0.5808
40960TIP3    H123762   4.508   3.096   0.047  0.7986 -1.0990 -0.7027
40960TIP3    H223763   4.359   3.073   0.043  0.2886  1.3811  1.2731
40961TIP3   OH223764   2.727   8.029   7.158  1.2324 -0.0231 -0.2011
40961TIP3    H123765   2.744   7.944   7.199  1.8904  0.6247  0.9449
40961TIP3    H223766   2.637   8.050   7.182  1.4679  0.1454  0.5641
40962TIP3   OH223767   1.039   6.769   5.585  0.7617 -0.1639  0.1448
40962TIP3    H123768   1.080   6.723   5.512 -0.6470 -1.0066 -0.1618
40962TIP3    H223769   1.106   6.829   5.617  2.0028 -1.0515 -0.6970
40963TIP3   OH223770   9.102   2.670   5.605  0.4165 -0.1527 -0.0997
40963TIP3    H123771   9.186   2.695   5.643  0.2145 -0.5655  0.6308
40963TIP3    H223772   9.108   2.698   5.514  1.3422 -0.1653 -0.0531
40964TIP3   OH223773   4.311  10.005  10.038 -0.0111  0.1140 -0.1708
40964TIP3    H123774   4.392  10.024  10.085  0.4098  0.2099 -0.9176
40964TIP3    H223775   4.306   9.909  10.039  0.0021  0.1139  0.0563
40965TIP3   OH223776   0.084   0.264   8.411  0.2763  0.2045 -0.4967
40965TIP3    H123777   0.059   0.355   8.393  1.9577  0.6985 -0.4853
40965TIP3    H223778   0.039   0.242   8.493 -1.0692  0.6071 -1.0912
40966TIP3   OH223779   3.195   1.604   7.317 -0.6317  0.2041 -0.0551
40966TIP3    H123780   3.254   1.606   7.393 -1.4958  2.6937  0.6438
40966TIP3    H223781   3.109   1.583   7.353 -1.0386  1.3520 -0.3112
40967TIP3   OH223782   2.956   8.601   2.087 -0.1987  0.3618  0.7205
40967TIP3    H123783   2.995   8.563   2.165  1.8564 -0.2297 -0.5243
40967TIP3    H223784   2.988   8.691   2.085 -0.1872  0.3537  0.5257
40968TIP3   OH223785   0.507   3.898   2.084 -0.4365  0.3927  0.5527
40968TIP3    H123786   0.420   3.861   2.073 -0.6527  0.6455  1.3315
40968TIP3    H223787   0.567   3.828   2.059 -0.8611  0.5801 -1.0518
40969TIP3   OH223788   6.875   6.003   8.243  0.0241  0.0289 -0.2997
40969TIP3    H123789   6.883   5.909   8.257  0.8503  0.1620  0.1870
40969TIP3    H223790   6.802   6.012   8.182  1.2845 -1.0709 -2.0630
40970TIP3   OH223791   8.759   0.130   8.106  0.0279  0.0178  0.4192
40970TIP3    H123792   8.797   0.121   8.193 -0.2526 -0.4955  0.4907
40970TIP3    H223793   8.688   0.065   8.103  1.0800 -1.1475 -0.7663
40971TIP3   OH223794   4.314   2.409   4.941 -0.4283 -0.1205 -0.0188
40971TIP3    H123795   4.307   2.426   5.035  0.9082 -1.6760  0.3980
40971TIP3    H223796   4.226   2.428   4.907 -1.7491 -2.1710  2.0157
40972TIP3   OH223797   0.964   7.243   0.618  0.0218  0.4346  0.1984
40972TIP3    H123798   1.007   7.249   0.533 -0.0144  1.1060  0.2272
40972TIP3    H223799   0.890   7.303   0.612 -0.9652 -0.7547  0.1275
40973TIP3   OH223800  10.171   0.561   1.212  0.0297  0.0852  0.6253
40973TIP3    H123801  10.193   0.567   1.305 -1.2402  1.1009  0.8793
40973TIP3    H223802  10.247   0.516   1.173  2.3012  2.8213  1.5420
40974TIP3   OH223803   0.950   7.724   3.275  0.1977  0.0922  0.4580
40974TIP3    H123804   1.042   7.708   3.293 -0.0783 -1.8998  0.4100
40974TIP3    H223805   0.937   7.693   3.185 -0.6128 -0.1473  0.6489
40975TIP3   OH223806   8.894   8.146   6.522  0.3088  0.7386 -0.0484
40975TIP3    H123807   8.834   8.184   6.458 -0.6031  0.1194  0.4065
40975TIP3    H223808   8.963   8.105   6.470 -0.1486  0.6855 -0.6198
40976TIP3   OH223809  10.358   7.422   1.112  0.3600 -0.2031  0.3137
40976TIP3    H123810  10.394   7.511   1.116  2.1835 -0.9368  1.2696
40976TIP3    H223811  10.391   7.387   1.029  0.1437 -0.1981  0.2251
40977TIP3   OH223812   6.599   7.969   3.252  0.2121 -0.2719 -0.2417
40977TIP3    H123813   6.591   8.064   3.253 -0.5852 -0.3413  0.6734
40977TIP3    H223814   6.536   7.938   3.316  0.9002 -1.3955 -0.0702
40978TIP3   OH223815   2.435   6.527   3.985  0.4783 -0.1037 -0.0041
40978TIP3    H123816   2.511   6.574   3.952  0.2254  0.5130  0.2758
40978TIP3    H223817   2.386   6.592   4.035  1.2098 -1.1503  2.2158
40979TIP3   OH223818   9.193  10.753   2.198 -0.3364 -0.1841 -0.3636
40979TIP3    H123819   9.264  10.788   2.145  1.1557 -2.0171  0.3052
40979TIP3    H223820   9.210  10.787   2.286 -1.0894  0.4372 -0.4437
40980TIP3   OH223821   4.650  10.257   0.541 -0.4831 -0.0635  0.1305
40980TIP3    H123822   4.698  10.233   0.462 -0.2034  2.3125 -0.4957
40980TIP3    H223823   4.717  10.293   0.600 -0.8207 -0.9941  1.1228
40981TIP3   OH223824   3.929  10.629   5.288 -0.2368  0.3814  0.3165
40981TIP3    H123825   3.903  10.720   5.272  1.8967  0.8742 -0.6446
40981TIP3    H223826   3.930  10.589   5.201 -1.3109 -0.6452  0.7456
40982TIP3   OH223827   2.181   4.257   1.416  0.5466 -0.1409 -0.4748
40982TIP3    H123828   2.197   4.166   1.442  0.5708  0.5937  2.4728
40982TIP3    H223829   2.086   4.266   1.418  0.5562 -0.0423 -0.4457
40983TIP3   OH223830   3.796   5.926   2.300  0.4223  0.2077  0.3720
40983TIP3    H123831   3.754   5.999   2.255  2.2588  0.8488 -0.3654
40983TIP3    H223832   3.868   5.899   2.243  1.0806 -0.8152  1.6103
40984TIP3   OH223833   9.799   6.737   9.177  0.4196  0.0656  0.6662
40984TIP3    H123834   9.840   6.692   9.103  0.2514  0.8662  0.0756
40984TIP3    H223835   9.773   6.822   9.143  1.4908  0.9671  1.9952
40985TIP3   OH223836   0.442   8.865   6.590  0.3733 -0.4131 -0.0654
40985TIP3    H123837   0.365   8.901   6.633  0.8203 -0.1042  0.4964
40985TIP3    H223838   0.516   8.896   6.643  0.9695  0.2618 -1.2368
40986TIP3   OH223839   6.427   5.705   6.839 -0.1242  0.3719 -0.0693
40986TIP3    H123840   6.374   5.738   6.911  2.2758 -1.1112  2.5487
40986TIP3    H223841   6.388   5.620   6.818  0.5140 -0.2350  1.1137
40987TIP3   OH223842  10.535   4.887  10.838 -0.5241 -0.6133 -0.1385
40987TIP3    H123843  10.571   4.894  10.926  3.2133  0.7087 -1.5713
40987TIP3    H223844  10.440   4.895  10.850 -0.2907 -1.8889  3.8054
40988TIP3   OH223845   9.685  10.114   2.765  0.2850  0.0314 -0.0584
40988TIP3    H123846   9.776  10.143   2.756  0.4870 -0.2617  0.9600
40988TIP3    H223847   9.659  10.140   2.853 -0.2658 -0.8513  0.0603
40989TIP3   OH223848   5.735   1.351   6.211  0.0737  0.0078  0.2185
40989TIP3    H123849   5.699   1.424   6.262  1.3667  1.0779 -0.3478
40989TIP3    H223850   5.699   1.363   6.124 -0.6985 -0.7701  0.4231
40990TIP3   OH223851   2.786   0.066   0.129 -0.0079  0.5043  0.1581
40990TIP3    H123852   2.850   0.004   0.165 -0.6388 -0.2935 -0.0869
40990TIP3    H223853   2.754   0.114   0.206 -0.3942 -0.2987  0.5075
40991TIP3   OH223854   9.880   8.706  10.562  0.4345 -0.7844  0.2080
40991TIP3    H123855   9.808   8.647  10.540 -0.2174 -1.0850  2.8314
40991TIP3    H223856   9.844   8.794  10.551  0.3876 -0.9081 -0.6419
40992TIP3   OH223857   3.392   3.949   7.880  0.1058  0.2322  0.5662
40992TIP3    H123858   3.480   3.910   7.877 -0.6368 -1.5622  0.7085
40992TIP3    H223859   3.385   3.999   7.799  1.0791 -0.0108  0.3179
40993TIP3   OH223860   7.714   4.811   8.593  0.4350 -0.2945  0.2875
40993TIP3    H123861   7.660   4.738   8.564 -0.2766  0.2571  0.2152
40993TIP3    H223862   7.657   4.888   8.587  0.9533  0.1665  1.0181
40994TIP3   OH223863   8.443   7.849   1.237 -0.4388  0.2865 -0.0864
40994TIP3    H123864   8.364   7.853   1.182 -0.8030 -0.1257  0.4027
40994TIP3    H223865   8.496   7.780   1.197 -0.3558  0.5081 -0.3670
40995TIP3   OH223866   4.054   7.629   0.550 -0.6412  0.5959  0.1992
40995TIP3    H123867   3.987   7.602   0.488  0.3265  0.2977 -0.7574
40995TIP3    H223868   4.052   7.562   0.619 -1.0474  0.3745 -0.0261
40996TIP3   OH223869   7.978   6.540   5.905 -0.3533 -0.3099 -0.0653
40996TIP3    H123870   7.923   6.612   5.875 -1.2702 -0.7777  0.4487
40996TIP3    H223871   8.062   6.580   5.923 -0.5156  0.4276 -0.8548
40997TIP3   OH223872   4.722   5.565   6.378 -0.3802  0.3804  0.2819
40997TIP3    H123873   4.767   5.481   6.388  0.9924  1.2041  1.4443
40997TIP3    H223874   4.789   5.631   6.398 -1.3937  1.7664 -0.6943
40998TIP3   OH223875   0.313   9.229  10.301 -0.0240 -0.3245  0.6015
40998TIP3    H123876   0.221   9.216  10.277  0.3083 -1.9511  0.0684
40998TIP3    H223877   0.357   9.248  10.218  0.1919  0.0712  0.8025
40999TIP3   OH223878   4.906   6.784   1.033 -0.0105  0.0993  0.0333
40999TIP3    H123879   4.910   6.741   0.947  2.5267  1.0626 -0.4349
40999TIP3    H223880   4.877   6.873   1.014  0.9469  0.4360  0.0699
41000TIP3   OH223881   8.745   6.323   2.970  0.2882  1.1315 -0.1895
41000TIP3    H123882   8.748   6.284   3.058  2.5374  0.2620 -0.5927
41000TIP3    H223883   8.749   6.417   2.986  0.2615  0.9996  0.6449
41001TIP3   OH223884   1.258   1.442   5.881  0.0343  0.2195  0.0175
41001TIP3    H123885   1.241   1.370   5.821 -4.4148  2.6276 -2.0600
41001TIP3    H223886   1.266   1.519   5.825  0.3738  1.9691  2.3198
41002TIP3   OH223887  10.087   5.770   9.564 -0.0847  0.2644 -0.1539
41002TIP3    H123888  10.161   5.831   9.565 -0.3387  0.6339  2.5063
41002TIP3    H223889  10.115   5.697   9.619 -1.0852 -0.4042 -0.4926
41003TIP3   OH223890  10.225   6.614   2.709  0.3045 -0.6162 -0.0485
41003TIP3    H123891  10.225   6.615   2.805  0.7912 -2.4618  0.0086
41003TIP3    H223892  10.149   6.668   2.685  0.3051  0.0597  1.3508
41004TIP3   OH223893   8.834   1.812  10.649 -0.0251 -0.5103  0.1474
41004TIP3    H123894   8.873   1.728  10.623 -1.2896 -1.0138 -0.1885
41004TIP3    H223895   8.759   1.822  10.591 -0.5763  0.2830  0.9801
41005TIP3   OH223896   2.917   2.594   6.703 -0.2294  0.0136 -0.8495
41005TIP3    H123897   2.950   2.678   6.673 -0.2320  0.6652  0.8620
41005TIP3    H223898   2.971   2.571   6.778 -0.5116 -1.3080 -1.0129
41006TIP3   OH223899   2.481  10.321   9.672  0.3644 -0.4084 -0.4560
41006TIP3    H123900   2.457  10.277   9.591  0.5633 -1.3778 -0.0019
41006TIP3    H223901   2.455  10.259   9.741 -0.9410  0.8965  0.2847
41007TIP3   OH223902   2.135  10.344   8.736  1.4174 -0.0875 -0.4661
41007TIP3    H123903   2.189  10.369   8.811 -1.4215  3.3544  0.7158
41007TIP3    H223904   2.092  10.263   8.765  1.8803  0.0866  0.7963
41008TIP3   OH223905   9.014   4.307  10.343 -0.2868  0.8278  0.3623
41008TIP3    H123906   8.931   4.298  10.296 -0.2611 -0.4063  0.5276
41008TIP3    H223907   9.063   4.228  10.320 -0.1352  0.3641  2.1735
41009TIP3   OH223908   6.169   0.456   0.742 -0.1906  0.0711  0.3626
41009TIP3    H123909   6.241   0.441   0.681 -0.1166  0.8775  0.2419
41009TIP3    H223910   6.124   0.372   0.747  1.1302 -0.6417  0.9178
41010TIP3   OH223911   9.215   7.987   2.511  0.7045 -0.6259  0.5596
41010TIP3    H123912   9.220   8.042   2.433  1.0644 -1.7270 -0.2206
41010TIP3    H223913   9.123   7.992   2.538  0.5498 -0.3122 -0.0039
41011TIP3   OH223914   4.073   5.950   0.155 -0.1145  0.3361  0.1139
41011TIP3    H123915   4.132   5.888   0.198 -1.2206 -1.2823 -0.5939
41011TIP3    H223916   4.050   6.013   0.223  0.5799 -0.3655  1.0146
41012TIP3   OH223917   9.515   8.182   2.376 -0.4742 -0.2296  0.5510
41012TIP3    H123918   9.546   8.102   2.333 -0.1229 -0.2184  0.7736
41012TIP3    H223919   9.515   8.248   2.307 -0.5166 -0.3622  0.4243
41013TIP3   OH223920   9.438   2.740   0.001  0.0756 -0.1320  0.0443
41013TIP3    H123921   9.470   2.763   0.088  1.2028 -1.4665  0.0240
41013TIP3    H223922   9.356   2.788  -0.008 -0.4196 -0.4840  2.1022
41014TIP3   OH223923   3.857   8.658   2.588 -0.5244  0.5646  0.1707
41014TIP3    H123924   3.867   8.571   2.550  0.4430  1.6024 -2.2232
41014TIP3    H223925   3.785   8.650   2.650 -1.0213 -1.7227 -0.6145
41015TIP3   OH223926   1.822   3.814   6.295  1.1040 -0.3767 -0.2623
41015TIP3    H123927   1.801   3.747   6.360  0.5784 -1.0578 -1.1105
41015TIP3    H223928   1.766   3.793   6.220  2.0310  0.1164 -1.1119
41016TIP3   OH223929   2.598   2.556  10.475 -0.2484  0.3495  0.8988
41016TIP3    H123930   2.616   2.529  10.385 -0.6057  0.0996  0.8969
41016TIP3    H223931   2.503   2.547  10.483 -0.2222  0.4100  1.2881
41017TIP3   OH223932   8.165  10.010   1.905  0.8147 -0.3752  0.4990
41017TIP3    H123933   8.162   9.931   1.959  0.1049  0.5157  1.8368
41017TIP3    H223934   8.130   9.983   1.821  1.6085 -1.7334  0.5756
41018TIP3   OH223935   3.928   4.304   5.515  0.4855  0.0716 -0.8523
41018TIP3    H123936   3.905   4.224   5.562 -0.5567  0.9468  0.2062
41018TIP3    H223937   4.004   4.338   5.562 -1.4869  1.7846  1.4004
41019TIP3   OH223938   0.121   8.436   9.457  0.1593  0.6108 -0.2391
41019TIP3    H123939   0.061   8.459   9.528  0.4468  0.7905 -0.0518
41019TIP3    H223940   0.106   8.343   9.442  0.3494  0.4852  0.3058
41020TIP3   OH223941   1.855   0.828   6.493  0.3448  0.4345 -0.1427
41020TIP3    H123942   1.774   0.838   6.445  0.6631 -0.0963 -0.7959
41020TIP3    H223943   1.924   0.837   6.427  0.7589 -1.8899 -0.1188
41021TIP3   OH223944   5.699  10.184   0.937  0.4190 -0.1611  0.5658
41021TIP3    H123945   5.749  10.248   0.988  0.5177  0.7674 -0.6406
41021TIP3    H223946   5.624  10.233   0.903  2.1618  0.3176 -3.0759
41022TIP3   OH223947   5.664   9.695   8.750  0.2839 -0.0866  0.2045
41022TIP3    H123948   5.578   9.733   8.734  0.7961  1.4573  0.9212
41022TIP3    H223949   5.650   9.600   8.744 -1.6799  0.0884  1.3400
41023TIP3   OH223950   2.499   6.311   0.149 -0.1524  0.2703 -0.2290
41023TIP3    H123951   2.498   6.401   0.181  1.6303  0.2577 -0.0517
41023TIP3    H223952   2.590   6.284   0.157 -0.6879 -1.6303 -0.0773
41024TIP3   OH223953   4.525   5.590   5.897 -0.4053  0.1132  0.0391
41024TIP3    H123954   4.469   5.572   5.821 -0.7839 -0.4352  0.4361
41024TIP3    H223955   4.602   5.633   5.860  0.0096 -1.2738 -0.8281
41025TIP3   OH223956   1.473   7.022   5.344  0.3200 -0.1075  0.0069
41025TIP3    H123957   1.568   7.035   5.347 -0.0249  4.0390 -1.1010
41025TIP3    H223958   1.442   7.049   5.430  0.0277  0.5134 -0.2839
41026TIP3   OH223959   9.284   7.372   4.045  0.2839  0.2473  0.3229
41026TIP3    H123960   9.259   7.280   4.033 -3.7324  1.0823  0.9417
41026TIP3    H223961   9.302   7.381   4.138 -0.2158  0.2641  0.4185
41027TIP3   OH223962   2.295   6.537   3.549 -0.1512 -0.0220 -0.1202
41027TIP3    H123963   2.382   6.505   3.571  0.0604  1.1479  0.8549
41027TIP3    H223964   2.246   6.534   3.631 -0.3613  1.3204 -0.1698
41028TIP3   OH223965   5.380   3.854   8.407 -0.3627  0.1219 -0.0076
41028TIP3    H123966   5.380   3.813   8.493 -1.1502 -2.4827 -1.1299
41028TIP3    H223967   5.288   3.877   8.391 -0.1821  0.8175 -0.0719
41029TIP3   OH223968   6.335   3.552   3.741 -0.2794 -0.7174 -0.5666
41029TIP3    H123969   6.336   3.567   3.646  0.7165 -0.1805 -0.4809
41029TIP3    H223970   6.358   3.460   3.751 -3.6251 -1.7288 -0.9701
41030TIP3   OH223971   9.630   0.598   2.540 -0.1797  0.1652 -0.2668
41030TIP3    H123972   9.708   0.552   2.508 -0.0980 -0.8468  1.2959
41030TIP3    H223973   9.565   0.528   2.552 -1.1664  0.9240 -1.0061
41031TIP3   OH223974   5.051   2.996   4.467  0.7189  0.1770  0.1780
41031TIP3    H123975   5.073   2.984   4.375 -0.0901 -1.0426  0.1206
41031TIP3    H223976   5.091   3.080   4.491 -0.9143  1.6326 -1.8719
41032TIP3   OH223977   3.065   6.789   2.122 -0.0807 -0.2995  0.6864
41032TIP3    H123978   3.104   6.706   2.149  2.3440  0.7256  0.5665
41032TIP3    H223979   3.071   6.846   2.199 -0.4941  0.1770  0.3765
41033TIP3   OH223980   3.641   0.485   4.652 -0.4534  0.0150 -0.5860
41033TIP3    H123981   3.644   0.556   4.588  0.2124  0.8172  0.2983
41033TIP3    H223982   3.589   0.521   4.725  1.5094  0.3907  0.7251
41034TIP3   OH223983   2.637   1.190   8.978 -0.0938  0.0026  0.7924
41034TIP3    H123984   2.622   1.112   9.033 -0.9657  0.6938  1.5747
41034TIP3    H223985   2.575   1.255   9.012 -0.7111  0.4444 -1.0699
41035TIP3   OH223986   6.617   3.248   6.603 -0.5156 -0.3135  0.1599
41035TIP3    H123987   6.623   3.248   6.507  1.6338 -0.3878  0.2527
41035TIP3    H223988   6.677   3.316   6.630 -0.7481 -0.6210  1.4898
41036TIP3   OH223989   6.449   4.923   9.472  0.1316 -0.1594  0.2843
41036TIP3    H123990   6.381   4.946   9.410  0.5229  0.2570  0.0090
41036TIP3    H223991   6.441   4.987   9.542  1.6428  1.2722 -0.7948
41037TIP3   OH223992   6.111   2.990   4.145 -0.6778  0.3304  0.1123
41037TIP3    H123993   6.189   2.935   4.139 -0.6603  0.4797 -1.2502
41037TIP3    H223994   6.040   2.929   4.164 -0.5881 -0.1234 -0.9555
41038TIP3   OH223995  10.376  10.512   0.642  0.2595  0.1923  0.4769
41038TIP3    H123996  10.297  10.465   0.615  0.3117 -1.5465  2.9527
41038TIP3    H223997  10.346  10.570   0.713  0.6255  2.3515 -1.0172
41039TIP3   OH223998   7.069   4.329   7.497 -0.2309  0.1848  0.3362
41039TIP3    H123999   6.976   4.308   7.502 -0.4133  1.2794  2.1342
41039TIP3    H224000   7.072   4.423   7.483  0.6459 -0.1026 -1.9755
41040TIP3   OH224001   3.224   0.467   7.645 -0.0078  0.6098 -0.1317
41040TIP3    H124002   3.230   0.447   7.552 -0.0499 -0.3402  0.0580
41040TIP3    H224003   3.167   0.544   7.650  0.0984  0.7391 -0.8915
41041TIP3   OH224004   9.382   9.798   0.982 -0.1844 -0.4314 -0.2953
41041TIP3    H124005   9.364   9.830   0.894  2.3990  0.1224 -0.7209
41041TIP3    H224006   9.387   9.703   0.974 -1.7117 -0.5286 -0.3342
41042TIP3   OH224007   6.146   7.532   9.346  0.0357 -0.2113 -0.7910
41042TIP3    H124008   6.071   7.496   9.299 -0.6083 -0.0654  0.0925
41042TIP3    H224009   6.222   7.496   9.301 -0.5499 -2.9988  0.2832
41043TIP3   OH224010   9.769   7.862   8.932 -0.2831 -0.0712  0.0375
41043TIP3    H124011   9.757   7.942   8.882  1.5055  0.1045 -0.1616
41043TIP3    H224012   9.767   7.792   8.867  0.7291  0.0456 -0.1293
41044TIP3   OH224013   8.530   2.335   1.203  0.5226 -0.3973  0.1371
41044TIP3    H124014   8.541   2.398   1.132 -0.0513 -0.5353 -0.0815
41044TIP3    H224015   8.436   2.337   1.223  0.7259 -0.0953  1.1340
41045TIP3   OH224016   0.099   8.427   2.123  0.3096 -0.3421  0.4425
41045TIP3    H124017   0.155   8.467   2.057  0.9586  0.8995  1.6803
41045TIP3    H224018   0.027   8.488   2.133 -0.3392 -1.0478  0.1448
41046TIP3   OH224019   6.054   5.219   7.088 -0.0382 -0.4378  0.1276
41046TIP3    H124020   6.045   5.228   7.183 -1.0675 -0.3485  0.0402
41046TIP3    H224021   5.989   5.153   7.064 -0.3286  0.0942 -0.5955
41047TIP3   OH224022   4.841   0.684   9.380 -0.1130  0.6921 -0.2124
41047TIP3    H124023   4.844   0.777   9.358  0.7836  0.5332 -0.7757
41047TIP3    H224024   4.881   0.678   9.467  4.4105  0.3074 -2.0627
41048TIP3   OH224025   2.563   1.953   0.211  0.2853 -0.0791  0.2697
41048TIP3    H124026   2.495   2.021   0.207  0.7571  0.5135  1.5943
41048TIP3    H224027   2.645   2.000   0.195  0.7441 -0.0497  2.3596
41049TIP3   OH224028   8.260  10.651   4.990  0.2804 -0.1532  0.1708
41049TIP3    H124029   8.226  10.583   5.048 -0.3193 -0.0184 -0.0078
41049TIP3    H224030   8.340  10.615   4.953 -0.5889 -1.2105 -0.7613
41050TIP3   OH224031   0.542   4.952   9.422 -0.1358  0.1247 -0.3100
41050TIP3    H124032   0.592   5.023   9.382  0.0721  0.0997 -0.0985
41050TIP3    H224033   0.451   4.969   9.397  0.1196 -0.5489 -1.7865
41051TIP3   OH224034   5.689   6.016   1.372  0.3559 -0.1521 -0.2739
41051TIP3    H124035   5.731   5.993   1.290  2.2945  1.0681  0.3123
41051TIP3    H224036   5.689   6.112   1.373 -0.0701 -0.1467  0.9312
41052TIP3   OH224037   5.991   2.250   1.501 -0.5562 -0.0731 -0.1689
41052TIP3    H124038   5.969   2.317   1.435 -2.1720  0.2150  0.6010
41052TIP3    H224039   6.066   2.285   1.548 -2.0382  1.7686  0.9397
41053TIP3   OH224040   2.759   0.042   9.925 -0.2988 -0.7089 -0.6345
41053TIP3    H124041   2.700   0.008   9.858 -1.4976  1.1538 -0.5759
41053TIP3    H224042   2.785   0.129   9.894  0.1594 -0.3417  0.7059
41054TIP3   OH224043   4.943   7.136   2.015  0.2516 -0.9695  0.2589
41054TIP3    H124044   4.943   7.040   2.017 -0.7303 -0.9879  0.1484
41054TIP3    H224045   4.955   7.162   2.106  1.2714 -1.1789  0.1950
41055TIP3   OH224046   8.314   1.137  10.148 -0.1191  0.0492 -0.0844
41055TIP3    H124047   8.242   1.183  10.190 -0.9016 -0.1272 -1.1970
41055TIP3    H224048   8.278   1.052  10.123  0.1275  0.3566 -1.6145
41056TIP3   OH224049   9.165   7.465  10.907  0.0353 -0.4666 -0.5111
41056TIP3    H124050   9.079   7.466  10.865  0.1318  0.3613 -0.7081
41056TIP3    H224051   9.215   7.399  10.859 -0.5474 -1.0966 -0.2651
41057TIP3   OH224052   1.543   9.469   2.715  0.7443  0.1966  0.2469
41057TIP3    H124053   1.526   9.561   2.735  2.6495  0.8598 -0.8893
41057TIP3    H224054   1.572   9.431   2.797 -0.6978  0.4066  0.8847
41058TIP3   OH224055   3.561   7.909   7.070 -0.2444  0.1915 -0.3868
41058TIP3    H124056   3.558   8.002   7.047  0.0572  0.0092 -1.1945
41058TIP3    H224057   3.490   7.898   7.133  1.0464  1.4046  1.3830
41059TIP3   OH224058   8.257   0.656   5.744 -0.1625  0.1843 -0.1793
41059TIP3    H124059   8.333   0.685   5.794 -0.4095  2.9266 -1.2165
41059TIP3    H224060   8.279   0.675   5.653 -0.1090 -3.7642 -1.1956
41060TIP3   OH224061   8.359   4.515   9.823 -0.1429  0.0253  0.2328
41060TIP3    H124062   8.429   4.512   9.758 -0.6000  1.9090 -0.3934
41060TIP3    H224063   8.403   4.505   9.907  0.7694  0.2378 -0.2146
41061TIP3   OH224064   6.662   7.149   5.856 -0.1656  0.3599 -0.1214
41061TIP3    H124065   6.598   7.181   5.919  0.4817  1.6689 -0.0899
41061TIP3    H224066   6.731   7.215   5.856  0.4625 -0.2538 -1.2662
41062TIP3   OH224067   2.520   9.326   8.311 -0.3652 -0.2955 -0.0694
41062TIP3    H124068   2.607   9.300   8.280 -0.0116  0.2716  0.4243
41062TIP3    H224069   2.506   9.275   8.391  0.5267  1.2783  1.1635
41063TIP3   OH224070   9.641   3.913   2.100  0.3862 -0.2076  0.3609
41063TIP3    H124071   9.589   3.993   2.105  1.4591  0.5426 -0.0139
41063TIP3    H224072   9.577   3.843   2.084 -0.4075  0.7940 -1.0048
41064TIP3   OH224073   0.305   2.903   1.523  0.0478 -0.0558  0.4079
41064TIP3    H124074   0.324   2.982   1.574 -1.6906  0.6068  0.0967
41064TIP3    H224075   0.211   2.908   1.505  0.2501 -1.2555 -1.2086
41065TIP3   OH224076   2.119   7.621   5.796  0.4322 -0.1016  0.0180
41065TIP3    H124077   2.037   7.596   5.754  0.2928  1.4048 -0.6858
41065TIP3    H224078   2.158   7.538   5.825  0.3758 -1.2359 -2.7849
41066TIP3   OH224079   1.898   2.523   6.763 -0.5923  0.1991  0.1499
41066TIP3    H124080   1.942   2.580   6.700  0.4073  0.1165  0.7390
41066TIP3    H224081   1.928   2.555   6.848 -1.4437 -0.0714  0.5556
41067TIP3   OH224082   2.298   6.643   7.617  0.4529  0.0146 -0.2144
41067TIP3    H124083   2.261   6.625   7.530 -0.3270  0.3712  0.0307
41067TIP3    H224084   2.222   6.650   7.674  0.9299  0.3814  0.3885
41068TIP3   OH224085   4.176   3.438   5.709 -0.3079 -0.2952 -0.1197
41068TIP3    H124086   4.171   3.480   5.795 -0.8638 -1.4726  0.4598
41068TIP3    H224087   4.253   3.476   5.667 -0.3100  0.6493  0.7034
41069TIP3   OH224088   9.154   9.049   5.034  0.7462  0.0035 -0.2377
41069TIP3    H124089   9.171   9.143   5.034 -1.7446  0.5344 -0.3898
41069TIP3    H224090   9.231   9.010   5.076  1.7162  2.1110  0.0715
41070TIP3   OH224091   0.948   5.991   2.917 -0.6022 -0.2388  0.4279
41070TIP3    H124092   0.890   6.058   2.882 -1.1040 -0.7030  0.3570
41070TIP3    H224093   0.976   6.025   3.002 -0.1535  0.4528  0.0050
41071TIP3   OH224094   0.837   3.021   3.669  0.0367 -0.2909 -0.1437
41071TIP3    H124095   0.837   3.104   3.622  1.2955 -0.0902  0.1721
41071TIP3    H224096   0.789   3.040   3.750  0.5335  0.1985  0.0423
41072TIP3   OH224097   6.377   3.723   6.718  0.1916 -0.1188  0.3151
41072TIP3    H124098   6.288   3.694   6.737  0.1451 -0.3961 -0.2869
41072TIP3    H224099   6.425   3.642   6.701  0.0894  0.1131 -1.2658
41073TIP3   OH224100   3.721   6.030   5.807 -0.4518 -0.1584  0.0410
41073TIP3    H124101   3.631   6.011   5.832  0.2423 -1.9848  1.3724
41073TIP3    H224102   3.769   6.029   5.890  0.5793  2.4306 -0.4289
41074TIP3   OH224103   9.634   3.385   6.774 -0.0820  0.6498  0.3183
41074TIP3    H124104   9.656   3.466   6.819  0.6544  0.4878  0.2579
41074TIP3    H224105   9.662   3.399   6.684 -3.7757  1.9322 -0.8198
41075TIP3   OH224106   2.160   6.095   7.551  0.2652  0.5726  0.0102
41075TIP3    H124107   2.169   6.003   7.578  0.7649 -0.1905 -2.4393
41075TIP3    H224108   2.067   6.105   7.532  0.0710  0.8434  1.0346
41076TIP3   OH224109   6.991   6.492   7.499  0.4011 -0.3190 -0.0147
41076TIP3    H124110   6.976   6.541   7.418 -1.1431  1.2211  1.1233
41076TIP3    H224111   6.932   6.417   7.493  0.9142 -0.6764 -0.6701
41077TIP3   OH224112   8.343   4.037  10.193  0.0427  0.2915  0.4780
41077TIP3    H124113   8.292   3.966  10.154 -0.7578  1.0050  0.1967
41077TIP3    H224114   8.411   3.993  10.244 -0.9159 -0.6717  0.9386
41078TIP3   OH224115   1.482   1.648   8.342  0.7426 -0.3382 -0.0895
41078TIP3    H124116   1.479   1.698   8.260  1.2204  0.1264  0.1665
41078TIP3    H224117   1.558   1.590   8.332  0.5838 -0.5427 -0.1188
41079TIP3   OH224118   4.473   3.607   6.224 -0.6268 -0.2516 -0.6553
41079TIP3    H124119   4.521   3.690   6.219  0.2678 -0.8239 -2.1516
41079TIP3    H224120   4.439   3.605   6.313  1.0758  0.7812  0.0790
41080TIP3   OH224121   8.701   1.529   8.662  0.2087  0.0408  0.3198
41080TIP3    H124122   8.725   1.436   8.671 -1.8758 -0.7340 -1.3312
41080TIP3    H224123   8.626   1.540   8.719  0.0804  0.5557  0.0570
41081TIP3   OH224124   7.302   4.989   1.497 -0.0590  0.2444 -0.3672
41081TIP3    H124125   7.260   5.073   1.480 -2.0716 -0.6628 -0.2421
41081TIP3    H224126   7.318   4.989   1.591  2.3200  1.4543 -0.7005
41082TIP3   OH224127   4.082   6.161   5.851  0.3983  0.3003 -0.3621
41082TIP3    H124128   4.010   6.181   5.791 -0.3601  0.4522  0.5813
41082TIP3    H224129   4.046   6.096   5.911  0.9868  0.5161  0.2399
41083TIP3   OH224130   9.377   2.457   0.765  0.0433 -0.0231  0.2693
41083TIP3    H124131   9.366   2.365   0.743 -2.0022  0.5423 -1.5675
41083TIP3    H224132   9.366   2.503   0.681  3.6128  1.8218  0.6117
41084TIP3   OH224133   0.499   9.813   2.482 -0.2667 -0.4124 -0.3199
41084TIP3    H124134   0.471   9.863   2.406 -1.9791 -0.2954  0.3526
41084TIP3    H224135   0.447   9.733   2.480  1.3366 -1.5147 -0.5252
41085TIP3   OH224136   9.377   6.033   0.826  0.1408  0.2776  0.4593
41085TIP3    H124137   9.346   5.943   0.840 -0.1624  0.3759  0.4295
41085TIP3    H224138   9.457   6.040   0.879 -0.7158  0.4946  1.7580
41086TIP3   OH224139   0.697   3.101   0.893  0.1766 -0.4455  0.1925
41086TIP3    H124140   0.671   3.181   0.939 -0.7678 -1.2246  1.0498
41086TIP3    H224141   0.735   3.132   0.811 -2.4594  0.8324 -0.6607
41087TIP3   OH224142   8.504   1.085   3.928 -0.4013 -0.3053 -0.1349
41087TIP3    H124143   8.453   1.118   4.002  1.8103  0.7329  1.0036
41087TIP3    H224144   8.563   1.020   3.966  1.2848  0.7705 -0.8062
41088TIP3   OH224145   5.294   5.708   4.721 -0.3052 -0.3565 -0.3103
41088TIP3    H124146   5.288   5.765   4.798 -0.3180 -1.0995  0.2456
41088TIP3    H224147   5.330   5.765   4.652  0.1879  0.1838  0.3776
41089TIP3   OH224148   0.903   5.806   6.475 -0.1721  0.4018 -0.9786
41089TIP3    H124149   0.856   5.883   6.444  2.6165  2.8947  0.4262
41089TIP3    H224150   0.871   5.793   6.565 -1.4870 -0.9199 -1.5950
41090TIP3   OH224151   7.694   8.692   8.504 -0.1163 -0.3957 -0.3935
41090TIP3    H124152   7.723   8.783   8.501  0.0589 -0.3513  1.2800
41090TIP3    H224153   7.665   8.672   8.415  4.2521 -0.2213 -2.1104
41091TIP3   OH224154  10.489   6.292   1.079 -0.2670  0.6649  0.2349
41091TIP3    H124155  10.471   6.381   1.047  0.2875  1.3607  1.7423
41091TIP3    H224156  10.408   6.244   1.063 -0.6034  1.4628 -0.5382
41092TIP3   OH224157   9.731   2.826   3.069 -0.6562  0.4775  0.1483
41092TIP3    H124158   9.749   2.848   3.160  0.2297 -0.5639  0.2476
41092TIP3    H224159   9.815   2.795   3.035 -0.7813  1.5749 -1.2485
41093TIP3   OH224160   9.928   8.183   1.298  0.2450 -0.0925  0.9704
41093TIP3    H124161   9.893   8.260   1.343 -2.6261  0.9056 -2.5090
41093TIP3    H224162   9.862   8.115   1.312  0.3762 -0.4052  0.1095
41094TIP3   OH224163   2.104   1.106   3.921 -1.1244 -0.2183  0.3268
41094TIP3    H124164   2.101   1.075   3.831 -0.7791 -3.3651  1.2705
41094TIP3    H224165   2.014   1.097   3.952 -0.8851 -1.0826  0.8190
41095TIP3   OH224166   9.192   7.593  10.573  0.3057  0.1396 -0.1229
41095TIP3    H124167   9.101   7.622  10.571  0.0034 -0.7885 -0.9708
41095TIP3    H224168   9.191   7.515  10.628  0.4472 -0.2717 -0.6895
41096TIP3   OH224169   0.960   6.094   4.422 -0.0354 -0.5695 -0.2787
41096TIP3    H124170   0.916   6.009   4.415  1.8119 -1.4268 -3.2227
41096TIP3    H224171   0.918   6.147   4.353  1.6948 -0.5891 -1.4043
41097TIP3   OH224172   6.614   1.773   4.347 -0.6330 -0.2385  0.2669
41097TIP3    H124173   6.520   1.789   4.350 -0.8856 -0.7251 -2.3891
41097TIP3    H224174   6.653   1.857   4.372 -1.8179  0.6997 -0.8843
41098TIP3   OH224175   2.625   4.511   1.431 -0.5482 -0.2434  0.2845
41098TIP3    H124176   2.575   4.585   1.466  0.3083 -0.6521  2.5301
41098TIP3    H224177   2.592   4.435   1.478  0.2027 -0.9562 -0.3039
41099TIP3   OH224178   4.159   9.330   5.607  0.0353 -0.4115 -0.0316
41099TIP3    H124179   4.108   9.306   5.685  0.4059 -1.8899 -0.2144
41099TIP3    H224180   4.170   9.247   5.559 -0.2724  0.4736 -1.7125
41100TIP3   OH224181   7.980   6.163   2.279  0.5037 -0.2946 -0.3664
41100TIP3    H124182   7.952   6.133   2.365  1.3621  1.7124  0.6619
41100TIP3    H224183   8.070   6.193   2.291 -0.1375  2.2895 -1.3422
41101TIP3   OH224184  10.585   5.545   8.314 -0.5539  0.6449  0.3642
41101TIP3    H124185  10.525   5.562   8.387 -2.1292 -1.9835 -0.1446
41101TIP3    H224186  10.601   5.450   8.319  0.0840  0.5597 -2.1003
41102TIP3   OH224187  10.863  10.443   2.475 -0.3043  0.6267 -0.4083
41102TIP3    H124188  10.867  10.377   2.406  0.6399  0.3328 -0.0918
41102TIP3    H224189  10.842  10.524   2.430  0.9789  0.5714 -1.1618
41103TIP3   OH224190   1.934   2.898   3.713 -0.4113  0.1187  0.0237
41103TIP3    H124191   1.877   2.892   3.789  0.1452 -0.8397  0.3770
41103TIP3    H224192   1.876   2.881   3.638 -1.0004  1.2738  0.1861
41104TIP3   OH224193  10.530   2.117   3.208  0.3250  0.2016 -0.0449
41104TIP3    H124194  10.478   2.181   3.159 -0.9161 -1.1500 -0.5582
41104TIP3    H224195  10.620   2.132   3.180  0.4247  3.1464  1.4470
41105TIP3   OH224196   9.953  10.492   9.634  0.5378  0.3883  0.4377
41105TIP3    H124197   9.937  10.517   9.725 -1.6667 -0.1297  0.2471
41105TIP3    H224198   9.917  10.404   9.627 -1.4438  1.2480 -1.4339
41106TIP3   OH224199   6.722   6.782   7.137 -0.5230 -0.1428  0.7120
41106TIP3    H124200   6.764   6.708   7.179 -0.9907 -0.5546  0.4656
41106TIP3    H224201   6.748   6.776   7.045 -0.6155 -0.0414  0.6783
41107TIP3   OH224202   2.355   0.308  10.472  0.0092  0.0262 -0.3999
41107TIP3    H124203   2.292   0.368  10.432 -0.3182  1.0213  1.4698
41107TIP3    H224204   2.434   0.361  10.483 -0.4525  0.3696  1.7687
41108TIP3   OH224205   9.354   3.815   1.332  0.1303 -0.2713 -0.2554
41108TIP3    H124206   9.330   3.767   1.412  2.1864  1.2036  1.3563
41108TIP3    H224207   9.434   3.772   1.302  0.0080 -0.0677 -0.8808
41109TIP3   OH224208   7.740   1.223   8.224  0.4551  0.1838 -0.1490
41109TIP3    H124209   7.833   1.203   8.227  0.2129 -1.2103  3.4906
41109TIP3    H224210   7.698   1.141   8.200  0.0658  0.0502  0.9480
41110TIP3   OH224211   0.900   1.943   6.054  0.2965  0.2591  0.6155
41110TIP3    H124212   0.887   1.917   6.145 -0.6064  1.3422  0.8296
41110TIP3    H224213   0.811   1.948   6.018  0.5311  1.3743  0.1360
41111TIP3   OH224214   9.969   9.036   6.582  0.1952 -0.0684  0.2177
41111TIP3    H124215   9.910   8.962   6.568  0.2589 -0.6922  2.8390
41111TIP3    H224216  10.057   8.999   6.571  0.2283 -0.4134  1.5798
41112TIP3   OH224217   0.980   8.815   2.380 -0.1597 -0.0860 -0.8474
41112TIP3    H124218   0.930   8.759   2.440 -1.1232 -1.0702 -2.4962
41112TIP3    H224219   0.929   8.816   2.299  0.0882  2.7894 -1.0958
41113TIP3   OH224220   6.815   2.404   1.795  0.2273  0.9677  0.0785
41113TIP3    H124221   6.756   2.367   1.861 -0.1807 -0.8345 -1.2186
41113TIP3    H224222   6.820   2.497   1.817  1.0839  0.2743  3.3530
41114TIP3   OH224223   8.438   4.205   0.793  0.3510  0.7085 -0.0168
41114TIP3    H124224   8.487   4.287   0.784  0.6494  0.7316  1.6141
41114TIP3    H224225   8.347   4.233   0.804  0.4886  0.8409  0.8121
41115TIP3   OH224226  10.596   4.300   3.670  0.3606  0.6082 -0.0801
41115TIP3    H124227  10.677   4.258   3.698 -1.0906 -0.2872  3.2573
41115TIP3    H224228  10.555   4.331   3.751 -3.2671 -0.1760 -1.4092
41116TIP3   OH224229   6.956   8.384   3.031 -0.6727 -0.2926  0.3215
41116TIP3    H124230   7.028   8.436   3.065 -0.8491 -0.0183  0.2798
41116TIP3    H224231   6.996   8.322   2.970 -0.7751  1.8594 -2.1073
41117TIP3   OH224232   6.515   7.289   2.798  0.4065 -0.0521  0.1451
41117TIP3    H124233   6.523   7.194   2.791 -1.7807 -0.1635 -2.8492
41117TIP3    H224234   6.428   7.303   2.835  1.1192  0.8418  1.5501
41118TIP3   OH224235  10.111   7.310   8.010  0.6768 -0.0826  0.3135
41118TIP3    H124236  10.165   7.244   7.968 -0.5456  0.0597 -1.6015
41118TIP3    H224237  10.132   7.392   7.965 -0.7111  0.0615 -0.1317
41119TIP3   OH224238  10.533   4.667   5.566  0.5442  0.2737 -0.2250
41119TIP3    H124239  10.450   4.716   5.560  0.0011 -0.6285 -0.3253
41119TIP3    H224240  10.564   4.662   5.475  0.1881 -0.2515 -0.3198
41120TIP3   OH224241   8.545   2.153   9.149 -0.6784 -0.3185  0.5468
41120TIP3    H124242   8.486   2.168   9.074  0.4057 -0.3200 -0.3289
41120TIP3    H224243   8.497   2.091   9.204 -0.6565 -2.0274 -1.2207
41121TIP3   OH224244   5.599   1.521  10.505 -0.6732 -0.0995 -0.3416
41121TIP3    H124245   5.578   1.465  10.579  2.0540 -0.2413  0.4153
41121TIP3    H224246   5.580   1.609  10.535  1.4499 -0.0477  1.0051
41122TIP3   OH224247   1.495   3.052   1.351 -0.2747  0.1450  0.0095
41122TIP3    H124248   1.515   2.970   1.306  0.4176  1.1328 -1.5604
41122TIP3    H224249   1.445   3.026   1.428 -1.3868 -1.6327 -1.2567
41123TIP3   OH224250   0.497   1.254   1.722  0.1081  0.6835 -0.2887
41123TIP3    H124251   0.562   1.281   1.786  0.1803  0.3981 -0.2399
41123TIP3    H224252   0.547   1.215   1.651  0.1076  2.0119 -1.0406
41124TIP3   OH224253   8.630   6.962   9.405 -0.3988 -0.6436  0.7534
41124TIP3    H124254   8.540   6.991   9.418 -0.9691 -2.2396  0.5908
41124TIP3    H224255   8.663   6.945   9.494  0.1894  1.0745  0.9130
41125TIP3   OH224256   3.173  10.443   4.506 -0.2379 -0.6911 -0.1124
41125TIP3    H124257   3.163  10.533   4.537 -1.1334 -0.3933 -1.2092
41125TIP3    H224258   3.097  10.397   4.543  0.1905 -0.9830  0.4047
41126TIP3   OH224259   2.547   9.433  10.577  0.1652  0.0552  0.2724
41126TIP3    H124260   2.454   9.423  10.595 -0.1358  0.1538 -1.1140
41126TIP3    H224261   2.585   9.348  10.599 -0.2626 -0.0267  0.7124
41127TIP3   OH224262   2.115   7.364   4.273 -0.3817  0.2579  0.6591
41127TIP3    H124263   2.170   7.399   4.343  0.4212  1.3520 -0.4678
41127TIP3    H224264   2.175   7.308   4.222 -0.9988 -0.6679  0.9262
41128TIP3   OH224265   5.033   9.544   7.044 -0.0695  0.2991 -0.1438
41128TIP3    H124266   4.962   9.509   6.990 -0.6276  1.2776 -0.0483
41128TIP3    H224267   5.015   9.510   7.132  0.8149 -1.2578 -0.5088
41129TIP3   OH224268   5.724   2.466   8.477 -0.0224 -0.2288 -0.3560
41129TIP3    H124269   5.775   2.536   8.517 -1.4205  0.4474  0.3214
41129TIP3    H224270   5.711   2.402   8.548 -1.0138  0.1379 -0.1803
41130TIP3   OH224271   0.733  10.654   5.512 -0.0199  0.1844 -0.3701
41130TIP3    H124272   0.701  10.744   5.518 -0.5989 -0.0630  0.4066
41130TIP3    H224273   0.743  10.626   5.604 -2.0494 -1.3103 -0.5443
41131TIP3   OH224274   2.111   0.318   9.730 -0.9503 -0.0601 -0.6470
41131TIP3    H124275   2.117   0.271   9.647 -2.4796  2.1686 -2.1483
41131TIP3    H224276   2.017   0.333   9.743 -0.7647 -0.5064  1.6210
41132TIP3   OH224277   0.893   6.249  10.146 -0.1027 -0.4231  0.0534
41132TIP3    H124278   0.918   6.269  10.236 -2.5223  1.0560  0.4928
41132TIP3    H224279   0.828   6.180  10.154 -0.8348  0.1887 -0.4876
41133TIP3   OH224280   1.046   9.075   5.724 -0.1045 -0.3994 -0.0389
41133TIP3    H124281   1.096   9.031   5.793  0.7333  0.8871  0.2151
41133TIP3    H224282   1.097   9.154   5.705 -1.8729  0.7957 -0.0004
41134TIP3   OH224283   6.301   8.197   4.426  0.2816 -0.7446  0.0615
41134TIP3    H124284   6.363   8.161   4.362  0.7818  1.1057 -0.5574
41134TIP3    H224285   6.216   8.196   4.380  0.8533  1.7617 -1.2130
41135TIP3   OH224286   2.027   0.167   6.400  0.0239 -0.0002 -0.1499
41135TIP3    H124287   1.997   0.084   6.362 -2.8423  1.0093 -0.2985
41135TIP3    H224288   1.957   0.192   6.460  0.6045  2.5519 -0.4460
41136TIP3   OH224289   6.071   6.286   7.678  0.3672  0.2667  0.8242
41136TIP3    H124290   6.164   6.294   7.658 -0.0312  1.6003 -0.7279
41136TIP3    H224291   6.048   6.368   7.721 -0.8108  1.6981 -2.2238
41137TIP3   OH224292   6.888   2.731   4.185 -0.0587 -0.4227  0.0227
41137TIP3    H124293   6.795   2.715   4.196  0.0822 -0.6741  0.9784
41137TIP3    H224294   6.930   2.671   4.247  0.6501  0.9858  0.9455
41138TIP3   OH224295   3.113   3.163   0.363 -0.3988  0.0376 -0.5793
41138TIP3    H124296   3.027   3.179   0.324 -1.7319  1.0711  2.4612
41138TIP3    H224297   3.109   3.072   0.393 -0.5646  0.1623 -0.2116
41139TIP3   OH224298   3.419  10.771   6.167 -0.4876  0.1374 -0.5324
41139TIP3    H124299   3.359  10.699   6.184 -2.4754  1.8522  0.1115
41139TIP3    H224300   3.371  10.828   6.106 -0.1060  2.2247  1.0212
41140TIP3   OH224301   3.868   4.632   4.879 -0.1025 -0.2072 -0.3161
41140TIP3    H124302   3.926   4.582   4.936  0.1219 -1.2898 -1.4467
41140TIP3    H224303   3.842   4.708   4.931  2.0251  0.1151  0.3490
41141TIP3   OH224304   8.870   5.512   7.698  0.4430  0.0764 -0.6659
41141TIP3    H124305   8.885   5.434   7.645 -3.4651 -1.7624  0.4916
41141TIP3    H224306   8.816   5.481   7.771  1.8047  3.2673  1.9395
41142TIP3   OH224307   6.374   9.730   0.266 -0.3626 -0.5049  0.4233
41142TIP3    H124308   6.345   9.668   0.199 -2.8858 -0.8864  1.7446
41142TIP3    H224309   6.293   9.769   0.299  0.8147  0.0379  2.9022
41143TIP3   OH224310   7.141   7.842   4.535  0.3156  0.2961  0.2188
41143TIP3    H124311   7.055   7.827   4.574 -0.1958 -1.5361 -1.4258
41143TIP3    H224312   7.122   7.886   4.452  0.8834 -0.6394 -0.4262
41144TIP3   OH224313   3.891   1.471   3.606  0.7476 -0.2182  0.5670
41144TIP3    H124314   3.901   1.380   3.634 -0.6706 -0.8817 -0.9195
41144TIP3    H224315   3.936   1.476   3.521  0.9088  0.5052  0.6839
41145TIP3   OH224316  10.796   0.520   3.783  0.1560  0.0697  0.1540
41145TIP3    H124317  10.767   0.591   3.840 -2.5059 -0.9358  0.1875
41145TIP3    H224318  10.826   0.452   3.842 -0.5792 -0.1437  0.2928
41146TIP3   OH224319   3.515   1.442   4.668 -0.1778  0.1379 -0.0636
41146TIP3    H124320   3.456   1.484   4.606  0.3342 -0.5282 -1.0242
41146TIP3    H224321   3.523   1.504   4.740 -3.5698 -0.5415  1.0546
41147TIP3   OH224322   4.992   8.849   8.863 -0.0132  0.4420  0.2455
41147TIP3    H124323   5.038   8.929   8.887  0.3399  0.0088  1.0449
41147TIP3    H224324   5.060   8.789   8.833  0.0706 -0.4327  2.0567
41148TIP3   OH224325   0.630   1.903   3.486 -0.0069  0.6908 -0.3942
41148TIP3    H124326   0.671   1.839   3.428  0.1114 -0.2797  0.7300
41148TIP3    H224327   0.691   1.976   3.488  0.7156  0.0868 -0.2819
41149TIP3   OH224328   6.678   5.069  10.491  0.3150 -1.0266 -0.3859
41149TIP3    H124329   6.711   5.158  10.503 -0.9732 -0.6045  0.1136
41149TIP3    H224330   6.598   5.079  10.441 -1.5629 -1.5541  2.2680
41150TIP3   OH224331   5.355   5.992   0.206 -0.5359  0.6763  0.4317
41150TIP3    H124332   5.331   5.912   0.159  0.3816 -1.1258  2.8112
41150TIP3    H224333   5.291   6.057   0.179 -0.5582 -0.4695 -2.5577
41151TIP3   OH224334   8.400   8.470   7.680 -0.3517  0.3795  0.1539
41151TIP3    H124335   8.390   8.543   7.619  2.7405  0.9151  0.1667
41151TIP3    H224336   8.431   8.510   7.761  2.8022 -0.9760 -0.2682
41152TIP3   OH224337   8.091   8.668   9.510 -0.1933 -0.5119  0.3266
41152TIP3    H124338   8.000   8.688   9.532 -0.3088  0.2313 -0.7259
41152TIP3    H224339   8.094   8.672   9.415  0.7317 -1.5449  0.2878
41153TIP3   OH224340   8.674   2.952  10.747  0.3504 -0.4386 -0.4224
41153TIP3    H124341   8.718   2.890  10.804 -0.7476 -1.7519 -0.9488
41153TIP3    H224342   8.715   2.939  10.661  0.2627 -0.2907 -0.4876
41154TIP3   OH224343   3.785   3.215   4.585 -0.7469 -0.0229 -0.4342
41154TIP3    H124344   3.830   3.239   4.666 -1.6797 -0.9512  0.3866
41154TIP3    H224345   3.708   3.166   4.614 -0.6028 -1.1818 -1.9291
41155TIP3   OH224346   8.292   0.589   5.391 -0.3651  0.0546  0.4748
41155TIP3    H124347   8.230   0.651   5.352 -0.7596 -0.3361  0.4655
41155TIP3    H224348   8.273   0.506   5.348  1.6793  0.3626 -1.1474
41156TIP3   OH224349   5.347   9.589   4.930  0.0855  0.1972 -0.1739
41156TIP3    H124350   5.409   9.539   4.877  1.5051  0.9405  0.7057
41156TIP3    H224351   5.365   9.680   4.907 -0.6852  0.4181  0.0959
41157TIP3   OH224352   2.034   0.018   0.954 -0.3667  0.4362  0.3058
41157TIP3    H124353   2.089   0.058   0.887  0.0246 -1.6074 -0.6806
41157TIP3    H224354   2.092  -0.044   0.998 -1.2680 -0.0170  0.8919
41158TIP3   OH224355   9.830   5.903   9.772  0.5616 -0.0266  0.0920
41158TIP3    H124356   9.817   5.953   9.852  0.8966 -0.0887  0.1874
41158TIP3    H224357   9.850   5.968   9.705  0.2860  0.0250  0.0572
41159TIP3   OH224358   8.518   8.002   1.444 -0.8297 -0.1703  0.7885
41159TIP3    H124359   8.467   8.082   1.430  0.0375  0.4040  0.8167
41159TIP3    H224360   8.490   7.943   1.375 -1.1584  0.3215  0.4969
41160TIP3   OH224361   0.565   3.872   2.869  0.6726  0.7961 -0.0815
41160TIP3    H124362   0.522   3.803   2.920  1.7522 -1.0105 -1.4816
41160TIP3    H224363   0.494   3.931   2.844 -0.5349 -0.5642 -0.0027
41161TIP3   OH224364   9.323   1.895   4.300  0.1267 -0.6337  0.1089
41161TIP3    H124365   9.401   1.872   4.248  0.0422 -0.7501  0.0333
41161TIP3    H224366   9.333   1.989   4.316  0.6278 -0.7751  0.6775
41162TIP3   OH224367   6.124   5.399   9.438 -0.1780 -0.3088  0.1684
41162TIP3    H124368   6.212   5.388   9.474 -0.0883  0.7785  0.3159
41162TIP3    H224369   6.095   5.485   9.470 -1.1636 -0.5079 -0.1457
41163TIP3   OH224370  10.315  10.406   2.289  0.2261  0.2884  0.1100
41163TIP3    H124371  10.259  10.376   2.360 -0.3284  1.0352  0.0049
41163TIP3    H224372  10.259  10.464   2.237  0.3307 -0.9819 -1.4878
41164TIP3   OH224373   8.212   7.923   1.141  0.9496 -0.1629  0.2663
41164TIP3    H124374   8.168   7.885   1.217  0.6606 -0.8296 -0.2167
41164TIP3    H224375   8.144   7.971   1.095  1.1705  0.4144  0.5354
41165TIP3   OH224376   7.251   7.058   2.776 -0.3997 -0.2091  0.2352
41165TIP3    H124377   7.255   7.040   2.869  1.7789  0.8547  0.4159
41165TIP3    H224378   7.203   7.141   2.769  0.6511  0.4519  0.5830
41166TIP3   OH224379   7.158   1.874   6.750  0.1914 -0.2176  0.0022
41166TIP3    H124380   7.120   1.873   6.838 -0.3031 -0.8272 -0.2122
41166TIP3    H224381   7.244   1.833   6.759 -0.1810 -0.9895  0.0620
41167TIP3   OH224382   4.627  10.705   9.652  0.3442 -0.4848 -0.7649
41167TIP3    H124383   4.615  10.633   9.714  2.7971 -0.4511 -0.1479
41167TIP3    H224384   4.540  10.721   9.616 -0.8881 -1.4892  1.5830
41168TIP3   OH224385   1.502   1.836   0.890  0.0815  0.0053  0.4066
41168TIP3    H124386   1.561   1.840   0.814  0.2222 -0.3535  0.4987
41168TIP3    H224387   1.541   1.897   0.953 -0.3727  0.7783 -0.0427
41169TIP3   OH224388   5.200   3.114   2.410 -0.0836  0.0678  0.5583
41169TIP3    H124389   5.125   3.066   2.374 -0.8802  0.4983  1.5972
41169TIP3    H224390   5.277   3.073   2.369 -0.9175  0.2458 -1.2621
41170TIP3   OH224391   0.922   0.019   4.691 -1.3400 -0.4897  0.2898
41170TIP3    H124392   0.874   0.043   4.611  0.6437 -0.6332 -0.9890
41170TIP3    H224393   0.920  -0.076   4.693 -1.7393 -0.4770  0.6513
41171TIP3   OH224394  10.596   9.962   7.092 -0.0832  0.1912  0.0337
41171TIP3    H124395  10.549   9.929   7.168 -0.5365 -0.9617 -0.7222
41171TIP3    H224396  10.637   9.884   7.053  0.2694  0.7773 -0.8098
41172TIP3   OH224397   4.722   3.249   1.553 -0.0599  0.1116  0.7608
41172TIP3    H124398   4.738   3.335   1.513 -2.1768  0.5224  0.6788
41172TIP3    H224399   4.715   3.267   1.646 -0.6777  0.0812  0.7269
41173TIP3   OH224400   4.588   2.332   7.088  0.1066 -0.3725  0.0484
41173TIP3    H124401   4.638   2.253   7.067  0.5625 -0.0754 -0.0140
41173TIP3    H224402   4.626   2.364   7.170  0.4753  0.2260 -0.3474
41174TIP3   OH224403   4.318   3.477   5.339  0.6329  0.2046 -0.1922
41174TIP3    H124404   4.292   3.486   5.248 -1.3131 -0.0973  0.2936
41174TIP3    H224405   4.277   3.551   5.383 -1.5469 -1.6089  1.0167
41175TIP3   OH224406   9.841   7.903   0.230  0.6324 -0.0562 -0.4406
41175TIP3    H124407   9.895   7.932   0.304  0.9549  0.7482 -0.9837
41175TIP3    H224408   9.770   7.854   0.271  1.3809 -0.5381  0.3351
41176TIP3   OH224409   2.109  10.047   8.534  0.1691  0.4828 -0.1941
41176TIP3    H124410   2.084   9.957   8.556  1.2415 -0.1232 -1.3002
41176TIP3    H224411   2.198  10.056   8.569  0.9550  0.3066 -2.0283
41177TIP3   OH224412   3.347   1.941   3.605  0.1794  0.2339  0.3556
41177TIP3    H124413   3.435   1.959   3.637  0.8554 -0.7295 -0.8459
41177TIP3    H224414   3.292   1.938   3.684  1.1213  1.2725  1.0786
41178TIP3   OH224415   9.276   6.058   7.679 -0.1451 -0.4488  0.0168
41178TIP3    H124416   9.367   6.076   7.653  0.2653  0.9954  2.1891
41178TIP3    H224417   9.285   6.008   7.761 -1.2925 -0.1683  0.3208
41179TIP3   OH224418   6.061   6.855   7.841  0.1119  0.2689  0.3530
41179TIP3    H124419   5.990   6.888   7.896 -0.2305 -1.0411  0.7385
41179TIP3    H224420   6.025   6.860   7.752 -1.3336 -2.2180  0.6789
41180TIP3   OH224421  10.800   1.799   5.665 -0.1632 -0.1117  0.7713
41180TIP3    H124422  10.876   1.851   5.639 -1.6325  1.6561 -0.2468
41180TIP3    H224423  10.731   1.864   5.682 -2.4408 -1.6600 -1.6925
41181TIP3   OH224424   8.839   9.658   5.495  0.4663 -0.0633  0.7002
41181TIP3    H124425   8.878   9.593   5.437 -0.3557 -0.1507  0.2294
41181TIP3    H224426   8.763   9.691   5.447  1.8024  2.5116  0.1691
41182TIP3   OH224427  10.731   3.725   5.359 -0.8782  0.6440 -0.2086
41182TIP3    H124428  10.643   3.737   5.395 -0.1132  3.1894  1.0024
41182TIP3    H224429  10.755   3.636   5.385 -2.2735  0.6596  1.3187
41183TIP3   OH224430   9.457   9.497   4.393 -0.5473 -0.0815 -0.3557
41183TIP3    H124431   9.534   9.497   4.336 -0.6943 -0.0527 -0.5569
41183TIP3    H224432   9.383   9.501   4.332 -0.8331 -3.0527 -0.3781
41184TIP3   OH224433   0.473   2.263   2.109 -0.1512  0.2823  0.4585
41184TIP3    H124434   0.554   2.223   2.141 -1.5160 -1.6204  1.7664
41184TIP3    H224435   0.414   2.259   2.184 -1.9701  0.1255 -0.9234
41185TIP3   OH224436   9.530   5.181  10.169 -0.9015 -0.1619  0.3470
41185TIP3    H124437   9.541   5.275  10.184 -1.0271 -0.2494  0.9899
41185TIP3    H224438   9.610   5.155  10.123 -0.5779  0.1335  0.7396
41186TIP3   OH224439   6.485  10.067   8.571 -0.1081  0.1460  0.2477
41186TIP3    H124440   6.465  10.096   8.482  2.7809  0.5602 -0.3715
41186TIP3    H224441   6.545  10.134   8.605  1.0515 -1.4153  1.4348
41187TIP3   OH224442   6.149   4.157   5.334  0.0842  0.0015 -0.1946
41187TIP3    H124443   6.086   4.111   5.390  0.4056 -1.0914 -0.6946
41187TIP3    H224444   6.224   4.173   5.391 -0.0899  0.0379  0.0250
41188TIP3   OH224445   3.023   3.706   9.716  0.5123  0.2251  0.5244
41188TIP3    H124446   3.013   3.785   9.769  0.2150  0.1247  0.6237
41188TIP3    H224447   3.110   3.674   9.736  1.5042  1.6996 -1.1148
41189TIP3   OH224448   5.015  10.129   7.510 -0.3642  0.0949 -0.2219
41189TIP3    H124449   4.971  10.076   7.576 -1.3800 -1.1909 -1.8410
41189TIP3    H224450   4.947  10.147   7.444  0.5903  1.3416 -0.9283
41190TIP3   OH224451   7.932   9.891   3.951 -0.3156 -0.1530 -0.3547
41190TIP3    H124452   7.924   9.918   4.043 -1.4455  0.2866 -0.5610
41190TIP3    H224453   8.019   9.921   3.925  0.6455 -1.6154  0.9727
41191TIP3   OH224454   1.943   9.536   6.483  0.3556  0.0395  0.2721
41191TIP3    H124455   1.885   9.577   6.418  0.9806  2.1240  0.9652
41191TIP3    H224456   2.027   9.580   6.472  0.8375 -0.4970  1.6198
41192TIP3   OH224457   7.219   5.359   1.359 -0.2288 -0.5681  0.0241
41192TIP3    H124458   7.223   5.308   1.278 -0.8170 -1.4768  0.5380
41192TIP3    H224459   7.128   5.350   1.387  0.1942 -1.1282  1.3037
41193TIP3   OH224460  10.189   7.003   0.228 -0.6775 -0.3167 -0.4385
41193TIP3    H124461  10.161   6.919   0.193 -0.3385 -1.2272  1.3523
41193TIP3    H224462  10.162   7.001   0.320 -0.2759  1.3589 -0.2458
41194TIP3   OH224463   3.155   4.765   4.826  0.1082 -0.4317  0.8296
41194TIP3    H124464   3.167   4.732   4.915 -0.1408 -0.3339  0.8977
41194TIP3    H224465   3.195   4.698   4.770 -0.7537 -1.0517  0.9436
41195TIP3   OH224466  10.376   3.813   3.675 -0.1055  0.1142 -0.0862
41195TIP3    H124467  10.286   3.843   3.660  0.1765  2.7269  2.6150
41195TIP3    H224468  10.371   3.763   3.756  0.9611  0.9049  0.4856
41196TIP3   OH224469   7.437   9.726  10.459 -0.0992  0.1619  0.6777
41196TIP3    H124470   7.425   9.817  10.487  0.9254  0.3172  0.6836
41196TIP3    H224471   7.528   9.707  10.481  0.5195 -0.0094 -1.6974
41197TIP3   OH224472  10.283   5.315   2.187  0.1130 -0.4134  0.1354
41197TIP3    H124473  10.222   5.252   2.150  0.3141 -0.2400 -0.4904
41197TIP3    H224474  10.361   5.263   2.209 -0.0654 -0.5435  0.4678
41198TIP3   OH224475   5.662   8.199   5.532  0.6598 -0.4811 -0.1220
41198TIP3    H124476   5.717   8.277   5.533 -0.7618  0.5663 -0.4372
41198TIP3    H224477   5.621   8.196   5.618  0.1439 -0.4579 -0.3635
41199TIP3   OH224478   2.297   0.738   0.497  0.0747 -0.1849 -0.1682
41199TIP3    H124479   2.281   0.739   0.592  0.3683 -0.0132 -0.1176
41199TIP3    H224480   2.390   0.717   0.489  0.5585  1.7683 -0.3342
41200TIP3   OH224481   3.217  10.011   1.619 -0.0332 -0.2669  0.0111
41200TIP3    H124482   3.152   9.996   1.551 -0.5177  0.2717  0.3383
41200TIP3    H224483   3.256  10.096   1.597 -0.5208  0.1363  0.6399
41201TIP3   OH224484   1.391   4.365   4.424 -0.0452  0.3864 -0.4104
41201TIP3    H124485   1.433   4.305   4.486 -0.9727 -0.4987 -0.6233
41201TIP3    H224486   1.354   4.434   4.479  0.7093  0.5890 -0.1348
41202TIP3   OH224487   3.555   6.885   8.066  0.1553 -0.1040  0.2425
41202TIP3    H124488   3.644   6.893   8.031 -0.1724  0.4269 -0.5082
41202TIP3    H224489   3.544   6.791   8.080  0.9087 -0.1589  0.5564
41203TIP3   OH224490   9.642   8.279   6.973 -0.0631 -0.0117 -0.0777
41203TIP3    H124491   9.559   8.236   6.995  0.6511 -1.1712  0.4792
41203TIP3    H224492   9.661   8.250   6.884 -0.1324  0.0480 -0.1119
41204TIP3   OH224493   7.159   3.509   6.664 -0.1870  0.8228  0.4170
41204TIP3    H124494   7.199   3.432   6.625  2.6345  1.0971  2.4744
41204TIP3    H224495   7.122   3.557   6.590 -3.0955 -2.9028 -0.8656
41205TIP3   OH224496   9.955   7.615   6.794  0.1831  0.1274 -0.1673
41205TIP3    H124497   9.925   7.697   6.833  0.1847 -1.4790  3.6557
41205TIP3    H224498   9.874   7.571   6.766 -0.0604  0.2666  0.3078
41206TIP3   OH224499   4.084   0.157   3.272  0.5589 -0.7135 -0.0624
41206TIP3    H124500   4.134   0.226   3.316 -0.5677  0.1361 -0.0651
41206TIP3    H224501   4.050   0.103   3.342  1.0034 -0.9635 -0.0348
41207TIP3   OH224502   6.973   2.972   1.387 -0.3104  0.1658  0.5869
41207TIP3    H124503   6.997   2.906   1.452  2.5697 -1.0190 -1.4794
41207TIP3    H224504   7.012   3.053   1.420 -0.4520 -0.0121  1.2096
41208TIP3   OH224505   8.339   6.468   9.011 -0.1027  0.1777  0.5665
41208TIP3    H124506   8.245   6.459   8.995 -0.2930 -0.5475  1.9757
41208TIP3    H224507   8.361   6.397   9.071  1.7924 -1.0093 -1.3554
41209TIP3   OH224508   1.409   9.612   1.252  0.1791 -1.0936 -0.4460
41209TIP3    H124509   1.411   9.696   1.206 -0.1112 -2.0510 -2.3139
41209TIP3    H224510   1.501   9.590   1.265  0.2894  0.3077  1.7347
41210TIP3   OH224511   9.465   9.560   0.275 -0.3626 -0.3383 -0.0551
41210TIP3    H124512   9.486   9.635   0.219  0.2015 -0.4822 -0.0443
41210TIP3    H224513   9.400   9.593   0.336 -1.1282 -0.2244 -0.9116
41211TIP3   OH224514  10.103   7.440   5.986 -0.7171  0.4810 -0.2465
41211TIP3    H124515  10.158   7.505   5.943 -0.5611  0.8162  0.4368
41211TIP3    H224516  10.015   7.456   5.953 -0.6132  0.7890 -0.3707
41212TIP3   OH224517   9.136   7.095   0.318 -0.3854 -0.2145  0.0988
41212TIP3    H124518   9.141   7.180   0.361 -0.0782 -0.0694 -0.2143
41212TIP3    H224519   9.208   7.096   0.255 -0.2454 -0.7891  0.2439
41213TIP3   OH224520   4.498   3.814   7.376 -1.0966 -0.2820  0.7802
41213TIP3    H124521   4.441   3.790   7.303  0.9947 -0.8616 -0.7609
41213TIP3    H224522   4.529   3.731   7.411  0.7409 -0.0068 -0.0682
41214TIP3   OH224523   9.902   1.677   9.090  0.1660  0.5525  0.0094
41214TIP3    H124524   9.841   1.633   9.149  0.3055  1.1166  0.5975
41214TIP3    H224525   9.939   1.748   9.143  0.2176  1.1449 -0.7981
41215TIP3   OH224526   8.433   4.967   9.888 -0.2193 -0.4714  0.3592
41215TIP3    H124527   8.458   4.962   9.796 -0.6585  1.3495  0.1019
41215TIP3    H224528   8.516   4.980   9.935 -0.2642  2.3536 -0.1836
41216TIP3   OH224529   2.774   5.545   2.736  0.3627 -0.0492  0.4951
41216TIP3    H124530   2.746   5.631   2.765  1.0256  0.2469  0.2673
41216TIP3    H224531   2.717   5.525   2.661  1.2474  0.8930 -0.4704
41217TIP3   OH224532   2.172   1.833   5.801 -0.2159 -0.1325  0.1490
41217TIP3    H124533   2.210   1.911   5.762  0.0832 -0.4465 -0.1978
41217TIP3    H224534   2.088   1.822   5.757  0.0544 -0.4008 -0.3077
41218TIP3   OH224535   4.923   9.864   8.235 -0.2565 -0.2790  0.7947
41218TIP3    H124536   4.978   9.876   8.158  0.1364  0.7721  1.2221
41218TIP3    H224537   4.933   9.945   8.285 -1.9931 -0.1450  1.0071
41219TIP3   OH224538   9.970   3.705   9.008 -0.1959 -0.6840 -0.4398
41219TIP3    H124539   9.988   3.612   9.020  1.2845 -0.5377 -1.3457
41219TIP3    H224540  10.042   3.750   9.051 -1.6231  0.1148  1.2259
41220TIP3   OH224541   8.772   9.098   9.607 -0.3716 -0.3742 -0.0409
41220TIP3    H124542   8.709   9.074   9.539 -0.8536 -0.2338  0.3533
41220TIP3    H224543   8.803   9.015   9.643 -2.8225 -0.4992  2.0546
41221TIP3   OH224544   9.015   0.020   5.926 -0.2166  0.4981  0.6120
41221TIP3    H124545   9.007   0.105   5.968  2.1606  1.8320 -1.3564
41221TIP3    H224546   9.104   0.018   5.891 -0.5020 -2.4042 -0.2727
41222TIP3   OH224547   1.116   9.174   6.339  0.5089  0.0412  0.4288
41222TIP3    H124548   1.036   9.128   6.315  0.5014  0.0946  0.3492
41222TIP3    H224549   1.106   9.262   6.301  0.6051  0.0475  0.4167
41223TIP3   OH224550   8.559   3.279   0.638  0.0450 -0.3229 -0.2269
41223TIP3    H124551   8.618   3.219   0.591  0.3654  0.4255 -0.7926
41223TIP3    H224552   8.601   3.364   0.632 -0.5484  0.0230  0.3390
41224TIP3   OH224553   3.989  10.868   1.700 -0.0282  0.5390  0.1803
41224TIP3    H124554   3.989  10.835   1.789  0.9209 -0.6106 -0.2133
41224TIP3    H224555   3.901  10.901   1.686 -0.9750 -1.5782  0.7358
41225TIP3   OH224556   9.614   1.840   1.773  0.0236 -0.5143  0.1372
41225TIP3    H124557   9.699   1.877   1.747  1.0473 -1.1208  2.3662
41225TIP3    H224558   9.633   1.789   1.851 -2.3603 -1.0170  0.4653
41226TIP3   OH224559  10.017   9.928   3.800 -0.5771  0.1096  0.1530
41226TIP3    H124560  10.027   9.969   3.714 -1.6877  1.9040  0.8345
41226TIP3    H224561  10.084   9.970   3.855  1.0805 -2.0177 -0.0933
41227TIP3   OH224562   7.408   1.085   7.570 -0.3588 -0.1944 -0.0714
41227TIP3    H124563   7.433   0.994   7.555  0.5331  0.0695 -0.2537
41227TIP3    H224564   7.487   1.135   7.552 -1.4022  0.8212 -2.1057
41228TIP3   OH224565   8.907   7.994   9.378 -0.7660  0.0673  0.2155
41228TIP3    H124566   8.938   8.063   9.320 -0.2232 -1.2092 -1.0511
41228TIP3    H224567   8.869   8.041   9.453  0.0346  1.7131 -0.3744
41229TIP3   OH224568   9.571  10.266   5.059  0.5534  0.0843  0.4123
41229TIP3    H124569   9.517  10.345   5.054  1.2627  0.5642  0.1564
41229TIP3    H224570   9.628  10.271   4.982  0.0307 -1.1133 -0.0778
41230TIP3   OH224571   3.004   8.992   5.881  0.3189  0.1846 -0.6330
41230TIP3    H124572   2.996   9.087   5.890 -1.3297  0.0700 -0.6928
41230TIP3    H224573   3.098   8.977   5.868  0.6094  1.7885 -0.5343
41231TIP3   OH224574   9.787   9.373   8.527  0.5516  0.0388 -0.4704
41231TIP3    H124575   9.762   9.420   8.607  2.4292 -1.8747  1.3983
41231TIP3    H224576   9.705   9.360   8.480 -1.1815 -1.1746  2.5611
41232TIP3   OH224577   5.808   0.633   9.522  0.4581 -0.1330  0.1140
41232TIP3    H124578   5.819   0.555   9.575  0.9957 -2.2954 -2.8799
41232TIP3    H224579   5.897   0.662   9.504  0.3970 -0.7047 -1.2343
41233TIP3   OH224580   9.708   7.842   4.290 -0.6566  0.1894  0.4664
41233TIP3    H124581   9.673   7.775   4.231 -3.6219  0.7606  1.4028
41233TIP3    H224582   9.744   7.793   4.363  0.2272 -0.4390 -0.3685
41234TIP3   OH224583   7.469   7.666   9.176  0.1785  0.0703 -0.1662
41234TIP3    H124584   7.516   7.750   9.173 -3.5528  2.3655 -0.3606
41234TIP3    H224585   7.424   7.666   9.260 -1.1796 -0.9435 -0.8428
41235TIP3   OH224586   8.664   9.752   5.113  0.2872  0.4492  0.3928
41235TIP3    H124587   8.641   9.748   5.206  1.0531 -0.5891  0.5569
41235TIP3    H224588   8.759   9.746   5.111  0.3239  1.1196 -0.4414
41236TIP3   OH224589   2.762  10.398   2.571  0.8208  0.0612  0.1518
41236TIP3    H124590   2.712  10.372   2.649  0.7913 -2.6934 -0.6623
41236TIP3    H224591   2.818  10.322   2.553  1.7596  1.1461 -1.7780
41237TIP3   OH224592   8.143   2.228   8.257 -0.2459  0.4673 -0.0051
41237TIP3    H124593   8.181   2.156   8.208 -1.6798 -0.7389  0.5850
41237TIP3    H224594   8.210   2.250   8.322 -0.3094 -1.2692  0.6990
41238TIP3   OH224595   6.381   8.135   9.487  0.4496  0.0246  0.5847
41238TIP3    H124596   6.458   8.079   9.483  0.0677 -0.5002  0.4135
41238TIP3    H224597   6.391   8.196   9.414 -0.1080 -1.1266 -0.5032
41239TIP3   OH224598   0.659   6.640   7.565  0.1983  0.8627 -0.0560
41239TIP3    H124599   0.648   6.714   7.624 -1.3707  0.6922 -0.0821
41239TIP3    H224600   0.637   6.563   7.618 -0.2750  0.6256 -0.5829
41240TIP3   OH224601   2.433   6.685   2.521  0.0156 -0.1219 -0.1668
41240TIP3    H124602   2.399   6.772   2.542 -0.6390 -0.4717  0.2569
41240TIP3    H224603   2.359   6.626   2.535  0.8504 -0.9405  1.1063
41241TIP3   OH224604   9.763   5.642   0.524 -0.5962 -0.5619  0.2036
41241TIP3    H124605   9.822   5.586   0.573 -1.7718 -0.5202  1.7469
41241TIP3    H224606   9.761   5.605   0.436  1.2363 -0.8982  0.2775
41242TIP3   OH224607   1.169   4.757   0.347  0.2293  0.0382  0.4834
41242TIP3    H124608   1.163   4.853   0.351 -1.9717  0.0577 -1.2343
41242TIP3    H224609   1.188   4.737   0.256 -2.2340 -1.1601  0.1469
41243TIP3   OH224610   0.289   2.917  10.485  0.3282  0.3953  0.6642
41243TIP3    H124611   0.195   2.903  10.494  0.5987 -2.4681 -0.0641
41243TIP3    H224612   0.297   2.998  10.435 -1.7413  0.6061  0.6169
41244TIP3   OH224613   0.762   6.656   6.711  0.2400  0.1307  0.1926
41244TIP3    H124614   0.797   6.569   6.692 -0.0773 -0.1395  0.8223
41244TIP3    H224615   0.827   6.716   6.676  0.7717 -0.3568  0.3244
41245TIP3   OH224616  10.885  10.555   7.924  0.0999 -0.0417 -0.0703
41245TIP3    H124617  10.916  10.609   7.996 -0.4458  1.5974 -0.9998
41245TIP3    H224618  10.816  10.501   7.962  2.1566 -1.8047  1.3997
41246TIP3   OH224619   8.417   7.282   6.756 -0.1926  0.1499  0.3887
41246TIP3    H124620   8.432   7.273   6.661 -1.6341 -1.5517  0.2649
41246TIP3    H224621   8.326   7.311   6.763 -0.0656  0.3555  1.2645
41247TIP3   OH224622   9.315   4.839   0.920 -0.5629  0.5373  0.4017
41247TIP3    H124623   9.220   4.845   0.930 -0.6502  0.3951 -0.3101
41247TIP3    H224624   9.345   4.930   0.923 -0.4735  0.4886  2.7604
41248TIP3   OH224625   7.087   6.792   4.850 -0.0924 -0.7767 -0.0476
41248TIP3    H124626   7.009   6.772   4.902 -0.5921  0.3755 -0.3020
41248TIP3    H224627   7.110   6.881   4.877  0.0109 -0.4031 -1.3304
41249TIP3   OH224628   1.946   5.309   9.962  0.2467 -0.4652  0.0669
41249TIP3    H124629   1.953   5.275   9.873  0.8601 -1.0116  0.3153
41249TIP3    H224630   1.959   5.404   9.953  4.9394 -0.8776  0.0044
41250TIP3   OH224631   0.194   5.490   5.720 -0.7202 -0.5082 -0.3707
41250TIP3    H124632   0.289   5.496   5.707 -0.6143  0.4001  0.6968
41250TIP3    H224633   0.165   5.581   5.732 -1.6547 -0.8136 -0.1883
41251TIP3   OH224634   3.962   7.507  10.318 -0.3208  0.1702 -0.3494
41251TIP3    H124635   4.045   7.464  10.294 -0.9396 -1.1332 -0.2318
41251TIP3    H224636   3.988   7.578  10.376  0.5541 -1.8658  1.9116
41252TIP3   OH224637   1.755   4.461   8.001  0.0873  0.2889 -0.4840
41252TIP3    H124638   1.688   4.410   7.956  0.4878  0.9628 -1.8922
41252TIP3    H224639   1.824   4.398   8.023 -0.3731 -0.1500 -0.2934
41253TIP3   OH224640   7.867   5.169   4.021 -0.3566 -0.8115  0.3049
41253TIP3    H124641   7.814   5.092   4.044 -1.4145  0.1305  1.1984
41253TIP3    H224642   7.851   5.182   3.928 -0.4684 -1.4592  0.2290
41254TIP3   OH224643   8.817   5.917   2.071  0.6989 -0.4654  0.3078
41254TIP3    H124644   8.787   5.842   2.122  2.2572 -0.3533  1.4722
41254TIP3    H224645   8.899   5.944   2.114  1.0728  0.8290 -1.1251
41255TIP3   OH224646   2.799   8.330   8.688 -0.1345 -0.1033 -0.4108
41255TIP3    H124647   2.705   8.314   8.692 -0.0864 -0.2070  0.7206
41255TIP3    H224648   2.837   8.270   8.752  0.7598 -0.3941 -1.1840
41256TIP3   OH224649   0.498   5.940   0.176 -1.0791  0.1807  0.0613
41256TIP3    H124650   0.541   5.861   0.209 -0.5498  0.3033 -0.3185
41256TIP3    H224651   0.465   5.983   0.255  0.2589  0.5236  0.4711
41257TIP3   OH224652   2.498   6.651   8.443  0.2407 -0.2889 -0.1180
41257TIP3    H124653   2.461   6.662   8.355  0.2909  1.2904  0.0386
41257TIP3    H224654   2.571   6.590   8.431 -1.2055 -1.9840 -0.7462
41258TIP3   OH224655   3.602   6.938   1.501 -0.5159  0.1131 -0.2029
41258TIP3    H124656   3.553   7.017   1.525  0.4147  1.1555 -1.6198
41258TIP3    H224657   3.535   6.870   1.496 -1.1814  0.4388  2.3412
41259TIP3   OH224658   3.384   6.699   4.980 -0.1888 -0.8756  0.7202
41259TIP3    H124659   3.372   6.758   5.055 -0.2423  0.2056 -0.1235
41259TIP3    H224660   3.305   6.710   4.928  0.4551 -0.5654 -0.2099
41260TIP3   OH224661   9.763   5.687   8.014  0.1386  0.4373  0.0039
41260TIP3    H124662   9.807   5.735   7.944  0.2194  2.3543  1.3153
41260TIP3    H224663   9.804   5.718   8.094 -0.1659 -1.4899  0.9657
41261TIP3   OH224664   5.755   9.985   2.432 -0.1097 -0.3456  0.0771
41261TIP3    H124665   5.827  10.022   2.483 -0.0481  0.7094 -0.7376
41261TIP3    H224666   5.676  10.008   2.480 -0.0242  0.2283 -0.0563
41262TIP3   OH224667   1.633  10.019   6.707 -0.6409 -0.0892  0.1312
41262TIP3    H124668   1.669   9.944   6.659 -1.3793 -0.1539 -0.3340
41262TIP3    H224669   1.539  10.015   6.691 -0.6441  1.2533 -0.3595
41263TIP3   OH224670   3.055   6.504   5.122  0.5663  0.1266  0.0260
41263TIP3    H124671   3.071   6.596   5.141 -1.0898  0.5376 -0.4229
41263TIP3    H224672   2.981   6.480   5.179  0.3407 -0.6450 -0.5759
41264TIP3   OH224673   7.266   1.186   0.411 -0.1419  0.0463 -0.4901
41264TIP3    H124674   7.211   1.262   0.431 -0.0722 -0.2514  0.9368
41264TIP3    H224675   7.266   1.181   0.316 -0.2620  1.7500 -0.6061
41265TIP3   OH224676   2.158   7.200   1.150 -0.1194 -0.0959  0.5816
41265TIP3    H124677   2.103   7.201   1.228 -1.6783 -1.0321 -0.4487
41265TIP3    H224678   2.233   7.255   1.172 -2.5138  3.1393  1.2723
41266TIP3   OH224679   4.047   8.025   1.445 -0.5778 -0.3713  0.2684
41266TIP3    H124680   4.121   8.026   1.383 -0.6292 -0.8227  0.1939
41266TIP3    H224681   4.009   8.113   1.438  0.0435 -0.0860  0.4200
41267TIP3   OH224682   0.389   5.997   2.154 -0.0468 -0.6099 -0.1935
41267TIP3    H124683   0.311   6.005   2.209 -0.3135 -0.9234 -0.5164
41267TIP3    H224684   0.422   5.909   2.172  2.3896  0.7131  2.7268
41268TIP3   OH224685   5.024   7.820   8.487 -0.9627 -0.1117 -0.2596
41268TIP3    H124686   4.930   7.803   8.490 -0.8673 -0.7615 -0.6958
41268TIP3    H224687   5.055   7.800   8.575 -1.5251  2.0396  0.4846
41269TIP3   OH224688   9.627   1.376   1.169 -0.1587  0.0897 -0.2633
41269TIP3    H124689   9.579   1.293   1.175  1.4820 -0.9987 -1.3762
41269TIP3    H224690   9.560   1.440   1.145 -0.9917 -1.5417 -2.7583
41270TIP3   OH224691   8.160   5.594   3.522 -0.4060  0.1218  0.4454
41270TIP3    H124692   8.102   5.605   3.597  0.5089  0.0975  1.1755
41270TIP3    H224693   8.126   5.518   3.475 -2.1911  1.3306 -0.3249
41271TIP3   OH224694   7.225   4.568   9.813 -0.2212 -0.1555  0.0118
41271TIP3    H124695   7.262   4.630   9.876  2.4203 -0.9832 -0.6038
41271TIP3    H224696   7.176   4.623   9.751 -0.9874  0.8921  1.4771
41272TIP3   OH224697   2.627  10.125   0.952 -0.1138 -0.0890 -0.0764
41272TIP3    H124698   2.718  10.104   0.972  0.5624  0.4797 -2.3120
41272TIP3    H224699   2.601  10.186   1.021  0.8790 -0.9365  1.1038
41273TIP3   OH224700   1.444   6.486   1.847 -0.2023  0.2869 -0.2505
41273TIP3    H124701   1.488   6.442   1.775 -0.9773 -1.2084  0.1462
41273TIP3    H224702   1.514   6.523   1.900  0.8372 -3.4398  1.3087
41274TIP3   OH224703  10.400   7.319   0.026 -0.2321  0.2742 -0.0424
41274TIP3    H124704  10.416   7.242   0.080 -0.3859  0.5384  0.3862
41274TIP3    H224705  10.306   7.335   0.033 -0.6120 -0.8255 -1.9425
41275TIP3   OH224706   8.491   3.808   0.485  0.2786 -0.9218  0.4301
41275TIP3    H124707   8.501   3.788   0.578  0.4853 -0.4854  0.5047
41275TIP3    H224708   8.435   3.886   0.483  0.3497 -0.8758  0.1947
41276TIP3   OH224709   7.863   1.689   5.336 -0.1279 -0.0633 -0.4709
41276TIP3    H124710   7.786   1.642   5.370  0.6438 -0.0489  1.4643
41276TIP3    H224711   7.908   1.624   5.282 -0.4019 -0.7778  0.1252
41277TIP3   OH224712   6.039   5.304   1.168  0.1360  0.2364 -0.1154
41277TIP3    H124713   6.010   5.385   1.125  0.9649  0.1900 -0.7807
41277TIP3    H224714   5.986   5.235   1.129  0.5627  0.2557 -0.7357
41278TIP3   OH224715   5.388   2.196   3.205 -0.2124  0.1471 -0.1257
41278TIP3    H124716   5.337   2.276   3.196  1.6287  1.4391  0.3881
41278TIP3    H224717   5.394   2.161   3.116 -0.3774  1.0099 -0.4790
41279TIP3   OH224718   6.813   3.459   6.171 -0.1489  0.3848  0.1649
41279TIP3    H124719   6.866   3.517   6.118 -0.0757  0.6768  0.5516
41279TIP3    H224720   6.865   3.445   6.250 -0.1547 -0.2273  0.0618
41280TIP3   OH224721   6.282   2.221   1.919 -0.3992 -0.3153 -0.8829
41280TIP3    H124722   6.189   2.219   1.895 -0.3489  0.9049 -1.2661
41280TIP3    H224723   6.292   2.303   1.967  0.5185 -0.3232 -1.0526
41281TIP3   OH224724   8.217   4.213   9.810 -0.0243  0.2306  0.0334
41281TIP3    H124725   8.261   4.159   9.875  1.4245  1.1013 -0.1667
41281TIP3    H224726   8.285   4.232   9.745 -1.1438  0.2886 -1.1687
41282TIP3   OH224727   1.396   1.146   7.068 -0.0076 -0.2239 -0.2953
41282TIP3    H124728   1.354   1.071   7.024 -1.0102 -0.9031  1.6874
41282TIP3    H224729   1.334   1.171   7.136  1.6926  0.4198  1.0929
41283TIP3   OH224730   3.447   8.008   8.453  0.2833 -0.2251  0.1612
41283TIP3    H124731   3.529   8.054   8.439 -0.5645  1.7645  1.3785
41283TIP3    H224732   3.386   8.075   8.483 -1.7918 -1.6544 -0.6237
41284TIP3   OH224733   2.133   3.253   1.942 -0.1556  0.0388 -0.4489
41284TIP3    H124734   2.072   3.229   1.872 -1.2164 -1.2117  0.8597
41284TIP3    H224735   2.183   3.173   1.958  1.0590  0.7185 -0.6916
41285TIP3   OH224736   9.818   5.622   2.180  0.3471  0.3204  0.3033
41285TIP3    H124737   9.753   5.672   2.131  0.9978 -0.4816 -1.4590
41285TIP3    H224738   9.900   5.637   2.133  1.2237  0.2881  1.7385
41286TIP3   OH224739   2.902   3.135   6.446 -0.3674  0.0436  0.1953
41286TIP3    H124740   2.853   3.205   6.405 -0.1845  0.2638  0.3472
41286TIP3    H224741   2.994   3.162   6.439 -0.3586  0.3479  1.2101
41287TIP3   OH224742  10.721  10.769   2.761  0.4844 -0.2670 -0.2702
41287TIP3    H124743  10.665  10.784   2.837  1.4531 -0.2771  0.4724
41287TIP3    H224744  10.798  10.823   2.777  0.3365  0.4000 -1.6786
41288TIP3   OH224745   8.422   0.320   9.176  0.4740 -0.1302 -0.6474
41288TIP3    H124746   8.404   0.285   9.263 -1.5992 -0.4566 -1.1594
41288TIP3    H224747   8.509   0.286   9.154  0.9294 -0.2490  1.1565
41289TIP3   OH224748   7.374   7.143   2.214 -0.2308 -0.4434  0.1430
41289TIP3    H124749   7.439   7.170   2.279 -1.8583  1.6042  1.0170
41289TIP3    H224750   7.391   7.050   2.202  1.4657 -0.4497  1.9548
41290TIP3   OH224751   1.092   4.053   7.737  0.1491  0.0713  0.4818
41290TIP3    H124752   1.045   4.023   7.659 -0.3522 -1.7909  1.4410
41290TIP3    H224753   1.088   3.979   7.797  1.3199  1.1348  1.9402
41291TIP3   OH224754   9.806   0.269   9.167 -0.1533  0.4104 -0.1636
41291TIP3    H124755   9.881   0.269   9.226 -0.6040  0.8000  0.4222
41291TIP3    H224756   9.840   0.301   9.084  0.6279 -0.7390 -0.3081
41292TIP3   OH224757  10.654   3.128   6.416 -0.3313  0.2871  0.0714
41292TIP3    H124758  10.742   3.113   6.381  0.0544  0.3050  1.0164
41292TIP3    H224759  10.597   3.070   6.365  0.7586 -2.7055  2.0176
41293TIP3   OH224760   2.027   3.885   0.310 -0.3916  0.3472  0.2154
41293TIP3    H124761   1.998   3.924   0.227 -0.1964  1.0703  0.4789
41293TIP3    H224762   2.038   3.792   0.290 -1.3920  0.3147 -0.2952
41294TIP3   OH224763   2.368   9.590   2.077  0.4225 -0.1286 -0.1008
41294TIP3    H124764   2.345   9.600   1.984 -0.5858 -2.3914 -0.1602
41294TIP3    H224765   2.323   9.662   2.121  1.7538  1.6016 -1.4266
41295TIP3   OH224766   6.678  10.755   7.498 -0.5131  0.1672 -0.1647
41295TIP3    H124767   6.656  10.676   7.548 -1.1047  1.5432  1.8627
41295TIP3    H224768   6.607  10.815   7.516  0.4616  1.5604 -0.7998
41296TIP3   OH224769   6.688  10.247   5.996  0.1735 -0.0158 -0.0071
41296TIP3    H124770   6.694  10.216   5.905  2.2059  2.6932 -0.9086
41296TIP3    H224771   6.612  10.305   5.997 -0.4387 -0.8019  0.3212
41297TIP3   OH224772   0.480   5.567   7.866 -0.6854  0.7719 -0.8314
41297TIP3    H124773   0.544   5.500   7.889 -2.4180 -0.8332 -0.4380
41297TIP3    H224774   0.402   5.543   7.915 -0.9811  3.9501  0.4680
41298TIP3   OH224775   7.723   9.731   3.609  0.3344  0.6573 -0.0246
41298TIP3    H124776   7.763   9.812   3.578  0.2676 -0.0198 -2.0822
41298TIP3    H224777   7.658   9.710   3.542 -0.4475 -0.4981  1.0563
41299TIP3   OH224778   6.840   1.570   1.360  0.4809  0.7121  0.1745
41299TIP3    H124779   6.879   1.518   1.290  0.1815  0.2007  0.3876
41299TIP3    H224780   6.762   1.521   1.387 -0.2315  1.6395 -0.1401
41300TIP3   OH224781   0.628   0.987   7.657  0.4613 -0.2257  0.0710
41300TIP3    H124782   0.693   0.999   7.726  1.1181 -0.8637 -0.4266
41300TIP3    H224783   0.625   1.072   7.612  1.6252 -0.4544 -0.4737
41301TIP3   OH224784   5.741   7.376   2.575 -0.5999 -0.3314  0.1875
41301TIP3    H124785   5.656   7.334   2.558 -0.2421 -0.6878 -0.7889
41301TIP3    H224786   5.805   7.306   2.562  0.0067  0.4824 -1.4868
41302TIP3   OH224787   5.593   9.251  10.833 -0.0746 -0.2459  0.4499
41302TIP3    H124788   5.665   9.223  10.890  0.3394 -0.5390 -0.2026
41302TIP3    H224789   5.519   9.263  10.893  0.1278 -1.3390  0.9601
41303TIP3   OH224790   0.589   5.135   9.225 -0.2978  0.0322 -0.1384
41303TIP3    H124791   0.515   5.097   9.177 -0.2970 -0.6723  0.4117
41303TIP3    H224792   0.661   5.074   9.210 -0.7728 -1.2439  2.2660
41304TIP3   OH224793   5.841   2.760   6.887 -0.2150 -0.2579  0.4732
41304TIP3    H124794   5.836   2.741   6.981 -1.0192  1.0285  0.7054
41304TIP3    H224795   5.753   2.786   6.862 -0.6335 -2.9272 -1.2099
41305TIP3   OH224796   0.722   2.376   4.272  0.3337  0.2121 -0.4624
41305TIP3    H124797   0.751   2.422   4.193  1.8727 -2.1527 -1.4077
41305TIP3    H224798   0.787   2.399   4.339  0.9954 -0.3842 -0.8806
41306TIP3   OH224799   6.154   8.156   6.385  0.4382 -0.0602  0.4156
41306TIP3    H124800   6.211   8.231   6.373  1.4919 -0.9590 -0.3892
41306TIP3    H224801   6.184   8.115   6.466  0.3769 -0.0525  0.4428
41307TIP3   OH224802   2.368   7.092  10.735 -0.4974 -0.1738 -0.8393
41307TIP3    H124803   2.281   7.065  10.706 -0.9747  0.7764 -0.3425
41307TIP3    H224804   2.375   7.184  10.708  0.5308 -0.3625 -1.2640
41308TIP3   OH224805   3.565   7.472   5.127 -0.2852  0.2020  0.3655
41308TIP3    H124806   3.615   7.453   5.048 -2.5291  0.5106 -1.2173
41308TIP3    H224807   3.607   7.550   5.164 -1.0098  1.9627 -2.2860
41309TIP3   OH224808   5.275   3.368   6.807 -0.4375 -0.1622  0.4551
41309TIP3    H124809   5.268   3.435   6.875  1.9275  0.5970  0.0525
41309TIP3    H224810   5.261   3.285   6.853  1.7665  0.2800  2.0865
41310TIP3   OH224811   5.178   7.442   2.295  0.5958  0.2817  0.2027
41310TIP3    H124812   5.130   7.501   2.352  1.2562  0.9774  0.0449
41310TIP3    H224813   5.188   7.490   2.213 -0.0901 -0.5895 -0.4160
41311TIP3   OH224814   4.606   9.858   1.627  0.1126  0.3163 -0.6004
41311TIP3    H124815   4.635   9.918   1.696 -0.0034 -0.7981  0.4568
41311TIP3    H224816   4.626   9.771   1.661 -0.5404 -0.2934 -1.7136
41312TIP3   OH224817   1.123   0.167   8.715 -0.3382  0.6413  0.5713
41312TIP3    H124818   1.128   0.183   8.621  1.4831  2.1508  0.8520
41312TIP3    H224819   1.104   0.253   8.753  0.6276  0.4118  1.6601
41313TIP3   OH224820   9.798   2.693   2.233  0.6338  0.1258 -0.1104
41313TIP3    H124821   9.788   2.600   2.214  1.3871  0.2178 -1.0403
41313TIP3    H224822   9.862   2.696   2.303 -1.2170 -0.1541  1.6910
41314TIP3   OH224823   7.399   0.487   9.200 -0.8055  0.1159  0.1828
41314TIP3    H124824   7.449   0.569   9.197 -2.2273  1.1212  2.0095
41314TIP3    H224825   7.381   0.473   9.293 -1.0695 -2.0053 -0.1380
41315TIP3   OH224826   3.825   7.082   2.569  0.1978 -0.2386  0.0513
41315TIP3    H124827   3.781   7.089   2.654  0.3063 -0.7797  0.1578
41315TIP3    H224828   3.755   7.059   2.508  0.3934 -1.5280  0.2970
41316TIP3   OH224829   4.694   2.985   0.611  0.3156 -0.0805  1.0438
41316TIP3    H124830   4.689   3.034   0.529 -2.0286  2.0812  2.3734
41316TIP3    H224831   4.756   3.034   0.665 -1.1507  0.8102  1.9597
41317TIP3   OH224832   7.397  10.038   9.296  0.2252 -0.3719  0.0095
41317TIP3    H124833   7.462  10.088   9.346  1.2747 -0.5546 -1.1339
41317TIP3    H224834   7.374  10.095   9.223 -0.8240 -0.3685  0.3287
41318TIP3   OH224835   0.916   5.267   9.977  0.2316  0.5238 -0.8044
41318TIP3    H124836   0.991   5.238  10.028 -0.2101 -1.5911 -1.2309
41318TIP3    H224837   0.947   5.265   9.886 -0.1704  0.1397 -0.9385
41319TIP3   OH224838  10.022   2.792   8.021 -0.1798 -0.2375 -1.0047
41319TIP3    H124839   9.973   2.710   8.026 -0.2226 -0.1787 -0.4375
41319TIP3    H224840  10.105   2.774   8.064  0.0562 -0.1600 -1.4260
41320TIP3   OH224841  10.348   0.623   2.560  0.7107 -0.2752 -0.0899
41320TIP3    H124842  10.304   0.652   2.480  2.0780 -0.3469 -0.9170
41320TIP3    H224843  10.378   0.534   2.540  2.9120  0.4450 -0.3523
41321TIP3   OH224844   9.804   1.776   8.100  0.6692  0.3581  0.4232
41321TIP3    H124845   9.721   1.805   8.062  0.8457 -2.3328 -2.3403
41321TIP3    H224846   9.779   1.741   8.186 -0.8806  0.5111  0.0684
41322TIP3   OH224847   8.964  10.158   9.680  0.1073  0.3332  0.2919
41322TIP3    H124848   8.934  10.242   9.644 -2.3268  0.0263  1.4022
41322TIP3    H224849   8.999  10.180   9.766 -0.8075  0.1829  0.7064
41323TIP3   OH224850   4.612   0.180   2.814  0.4754  0.3393 -0.4024
41323TIP3    H124851   4.583   0.092   2.838 -0.4434  0.1809 -1.9837
41323TIP3    H224852   4.656   0.169   2.730 -2.4710  1.7343 -2.3153
41324TIP3   OH224853   9.919   9.878   5.197 -0.8278  0.7336  0.2466
41324TIP3    H124854   9.955   9.834   5.120 -1.3225  0.7231  0.0189
41324TIP3    H224855   9.962   9.963   5.197 -1.9201  1.3296 -0.9197
41325TIP3   OH224856   9.881   2.453   3.522 -0.4281 -0.0468 -0.4195
41325TIP3    H124857   9.931   2.530   3.550 -0.8695  0.3334 -0.6641
41325TIP3    H224858   9.793   2.486   3.506 -0.3473 -0.3911 -1.6231
41326TIP3   OH224859   6.543   5.940   9.281  0.9392 -0.6495  0.2084
41326TIP3    H124860   6.503   5.980   9.359  0.1465 -0.9429 -0.0361
41326TIP3    H224861   6.507   5.989   9.208 -1.1809 -2.6166 -0.2044
41327TIP3   OH224862   3.358   4.963   9.996  0.2163  0.2891 -0.1713
41327TIP3    H124863   3.289   5.028   9.978  0.3035  0.1565 -1.0077
41327TIP3    H224864   3.330   4.921  10.077 -0.1314  0.9815  0.0832
41328TIP3   OH224865   4.169   7.235   3.268  0.9468 -0.3376 -0.4925
41328TIP3    H124866   4.245   7.294   3.273  0.2400  0.5290  0.5212
41328TIP3    H224867   4.153   7.208   3.358  1.2676 -2.1521 -0.9436
41329TIP3   OH224868   8.677   9.430   8.778 -0.2080 -0.0466 -0.3555
41329TIP3    H124869   8.709   9.511   8.738  0.1855 -0.4735 -0.9364
41329TIP3    H224870   8.695   9.362   8.712 -1.0177 -0.5233 -0.1009
41330TIP3   OH224871   0.956   1.602   7.368  0.0253  0.2528 -0.2995
41330TIP3    H124872   0.928   1.548   7.294 -3.3687  0.3359  0.7459
41330TIP3    H224873   0.936   1.692   7.342  1.3336  0.5706 -0.2700
41331TIP3   OH224874   4.352   5.278  10.572 -0.1558 -0.1292  0.1251
41331TIP3    H124875   4.410   5.246  10.641  0.5150  1.7964  0.5022
41331TIP3    H224876   4.392   5.360  10.543 -1.6070  0.1993 -1.0556
41332TIP3   OH224877   9.529   7.336   1.489  0.0353 -0.2945 -0.5512
41332TIP3    H124878   9.435   7.353   1.493  0.0852  0.6623 -2.3521
41332TIP3    H224879   9.559   7.384   1.412  2.0367 -0.4670  0.0521
41333TIP3   OH224880   3.520   2.031   1.254 -0.2137 -0.4075 -0.6383
41333TIP3    H124881   3.443   2.015   1.199 -0.5620  0.2728 -0.3658
41333TIP3    H224882   3.483   2.067   1.335  0.5017  1.6372 -1.1797
41334TIP3   OH224883   7.548   0.965   0.666 -0.1794 -0.2963 -0.4272
41334TIP3    H124884   7.508   1.043   0.703  1.2182  0.2194  0.0672
41334TIP3    H224885   7.497   0.892   0.701 -0.4369  0.3097  0.4781
41335TIP3   OH224886   2.242   1.929   2.860  0.1497  0.9404  0.1235
41335TIP3    H124887   2.308   1.941   2.792  1.5119  3.1007  1.6693
41335TIP3    H224888   2.242   1.835   2.878  1.5183  0.6629 -1.1701
41336TIP3   OH224889   8.100   4.418   0.530  0.9912  0.1313  0.0301
41336TIP3    H124890   8.130   4.378   0.448  1.4816  0.8705 -0.1635
41336TIP3    H224891   8.006   4.433   0.516  0.7440 -1.1226  0.1937
41337TIP3   OH224892   8.301   8.093   8.199  0.4644 -0.5898 -0.6242
41337TIP3    H124893   8.237   8.054   8.139 -1.1639  0.3426  0.4495
41337TIP3    H224894   8.251   8.115   8.277  1.5730  2.3619 -0.6240
41338TIP3   OH224895   7.522   6.617   1.168 -0.4962 -0.2605 -0.1912
41338TIP3    H124896   7.456   6.683   1.186  0.8657  1.0347  0.2658
41338TIP3    H224897   7.570   6.651   1.092  1.0875 -0.0051  0.8758
41339TIP3   OH224898   6.686   5.863   6.897  0.3520  0.3409  0.2652
41339TIP3    H124899   6.607   5.813   6.875 -0.4137  1.4743  0.3221
41339TIP3    H224900   6.686   5.935   6.834  1.7868 -0.0731 -0.2365
41340TIP3   OH224901  10.627   2.102   1.214 -0.2044 -0.2939  0.3157
41340TIP3    H124902  10.667   2.024   1.176  0.8212  0.7676 -0.9371
41340TIP3    H224903  10.534   2.094   1.195  0.2872  0.3821 -3.0416
41341TIP3   OH224904   3.565   4.744   6.660 -0.1937  0.3322  0.0099
41341TIP3    H124905   3.652   4.758   6.622 -0.4778 -0.3527 -0.9434
41341TIP3    H224906   3.555   4.814   6.724 -0.4830  2.8448 -2.6116
41342TIP3   OH224907   5.524   6.864   1.613  0.0248  0.6076  0.3154
41342TIP3    H124908   5.486   6.908   1.538 -0.7160  1.9572  1.4367
41342TIP3    H224909   5.516   6.927   1.685  2.4124  0.1083  1.1155
41343TIP3   OH224910   1.776  10.240   7.763 -0.6375  0.4621  0.8129
41343TIP3    H124911   1.821  10.156   7.774  0.2943  1.1148  2.2507
41343TIP3    H224912   1.734  10.234   7.677 -1.1612 -1.7332  1.1703
41344TIP3   OH224913   8.511   3.912   1.067 -0.0188  0.2323 -0.8372
41344TIP3    H124914   8.441   3.914   1.002 -0.2182  0.2182 -0.6222
41344TIP3    H224915   8.542   4.002   1.071 -1.1251  0.5907  0.2608
41345TIP3   OH224916   3.899   7.204   3.485 -0.6722 -0.3600  0.2502
41345TIP3    H124917   3.811   7.175   3.511 -0.6204  0.2601  1.1814
41345TIP3    H224918   3.886   7.247   3.401 -1.6524  1.5906  1.3236
41346TIP3   OH224919   6.298   4.799   0.924 -0.3459 -0.3723 -0.2733
41346TIP3    H124920   6.237   4.769   0.991  1.1707 -3.4860 -0.0794
41346TIP3    H224921   6.376   4.744   0.936  1.8195  2.1591 -1.6501
41347TIP3   OH224922   9.617   0.113   6.369 -0.1535 -0.0139  0.1492
41347TIP3    H124923   9.574   0.029   6.356 -0.8571  0.7077 -2.9999
41347TIP3    H224924   9.693   0.093   6.423 -0.7125 -2.5243  0.1346
41348TIP3   OH224925   6.539   1.626   2.467 -0.5472 -0.2212 -0.0367
41348TIP3    H124926   6.564   1.696   2.407  0.6435 -0.4157  0.2139
41348TIP3    H224927   6.588   1.550   2.437 -0.7288 -0.5828  0.5640
41349TIP3   OH224928  10.454   0.913   9.377 -0.2836  0.2571  0.3730
41349TIP3    H124929  10.514   0.841   9.397  0.7097  1.0108  0.2034
41349TIP3    H224930  10.484   0.946   9.292 -2.4740 -0.8949 -0.9359
41350TIP3   OH224931   5.872   0.414   0.930 -0.1407  0.1109  0.2069
41350TIP3    H124932   5.912   0.488   0.883  0.5476 -2.3194 -3.4397
41350TIP3    H224933   5.779   0.421   0.911  0.0600 -0.5036 -1.1772
41351TIP3   OH224934   3.403   9.014   6.981  0.6891 -0.3860 -0.1255
41351TIP3    H124935   3.308   9.024   6.985  0.7043 -0.1327 -0.3773
41351TIP3    H224936   3.428   8.991   7.070  0.4717  0.2724  0.1107
41352TIP3   OH224937   2.532   0.540   2.430  0.5433 -0.1564  0.1157
41352TIP3    H124938   2.513   0.500   2.515  0.3698  0.4834  0.3846
41352TIP3    H224939   2.449   0.578   2.402  0.6005 -0.3608 -0.3426
41353TIP3   OH224940   8.155   1.362   9.707 -0.0030 -0.4434 -0.2087
41353TIP3    H124941   8.197   1.276   9.703  0.0160 -0.4029 -0.8907
41353TIP3    H224942   8.224   1.421   9.736 -0.0504 -0.6775  0.3960
41354TIP3   OH224943   7.518   2.321   7.445 -0.0150 -0.0893  0.0239
41354TIP3    H124944   7.487   2.396   7.496 -0.9351 -0.3706 -0.0944
41354TIP3    H224945   7.446   2.303   7.384  0.7019 -0.3121 -0.7647
41355TIP3   OH224946   1.555   5.390  10.155 -0.3531 -0.0121  0.5798
41355TIP3    H124947   1.562   5.485  10.144  0.3832 -0.0243  0.8451
41355TIP3    H224948   1.546   5.357  10.066  4.6985 -0.0369 -0.2616
41356TIP3   OH224949   1.809   6.814  10.014 -0.5381  0.4134 -0.1914
41356TIP3    H124950   1.800   6.906  10.041 -0.3205  0.6762 -0.9794
41356TIP3    H224951   1.735   6.798   9.956 -0.4212  0.1747 -0.2786
41357TIP3   OH224952   3.300   9.393   5.032 -0.5282 -0.4398  0.3898
41357TIP3    H124953   3.281   9.431   4.946 -2.0666 -0.3211  0.7611
41357TIP3    H224954   3.389   9.359   5.023 -0.6838 -0.5166 -1.2841
41358TIP3   OH224955   8.007   4.180   5.428 -0.0779  0.3417 -0.0958
41358TIP3    H124956   8.077   4.119   5.448 -0.1578  0.4055  0.3904
41358TIP3    H224957   7.955   4.184   5.508 -0.3525  0.6739 -0.2878
41359TIP3   OH224958   8.748   7.868   7.934 -1.0885  0.1261 -0.1471
41359TIP3    H124959   8.690   7.863   8.009  0.6525  0.1015  1.2580
41359TIP3    H224960   8.750   7.961   7.911 -0.9912  0.2511  0.3642
41360TIP3   OH224961   1.793   9.587   3.272  0.0174  0.3194 -0.1568
41360TIP3    H124962   1.725   9.621   3.331 -0.6213 -0.7272 -0.2704
41360TIP3    H224963   1.762   9.611   3.184 -0.5731 -0.7461 -0.2568
41361TIP3   OH224964   0.617   7.282   2.716  0.1742  0.2442  0.3123
41361TIP3    H124965   0.565   7.334   2.654 -1.1273 -1.9688 -0.5782
41361TIP3    H224966   0.570   7.288   2.798 -0.8179 -0.6975 -0.1674
41362TIP3   OH224967   8.303   7.253   1.693  0.2654 -0.1599  0.4013
41362TIP3    H124968   8.212   7.270   1.668  0.0754 -0.9917  0.4956
41362TIP3    H224969   8.354   7.277   1.616 -0.2066 -1.4837 -0.3654
41363TIP3   OH224970   2.621   9.150   3.046  0.0618 -0.3123  0.4629
41363TIP3    H124971   2.593   9.186   3.130  1.2190 -1.0628  1.2017
41363TIP3    H224972   2.717   9.152   3.050  0.1834 -2.4086  0.1214
41364TIP3   OH224973   3.092   8.974   6.775  1.1336 -0.2132  0.1557
41364TIP3    H124974   3.153   8.905   6.803  1.0232 -0.0433  0.8374
41364TIP3    H224975   3.032   8.985   6.849  1.3366  0.8317  0.1866
41365TIP3   OH224976   4.409   6.949   7.874  0.0470 -0.0027  0.2227
41365TIP3    H124977   4.368   7.033   7.894 -1.6769 -1.0838  1.5400
41365TIP3    H224978   4.445   6.919   7.958  2.0215  0.0571 -0.5305
41366TIP3   OH224979   7.003   1.080   4.865 -0.2702 -0.1746  0.3970
41366TIP3    H124980   7.071   1.078   4.932  0.0621  1.8877  0.1864
41366TIP3    H224981   6.950   1.002   4.883  0.4320 -0.2683  2.3886
41367TIP3   OH224982  10.547   1.971   0.293 -0.5373 -0.0035  0.6187
41367TIP3    H124983  10.535   1.959   0.199 -1.0626  0.7920  0.5779
41367TIP3    H224984  10.478   1.919   0.333  0.7795 -1.8188  0.6454
41368TIP3   OH224985   3.402   4.851   2.118  0.0394 -0.2618 -0.2471
41368TIP3    H124986   3.469   4.874   2.182 -0.4625  1.3920 -0.2519
41368TIP3    H224987   3.433   4.891   2.036 -0.4856 -0.3033 -0.4687
41369TIP3   OH224988   0.984   8.684   6.702  0.1692  0.2598  0.1256
41369TIP3    H124989   0.928   8.722   6.769 -1.0820 -0.6786 -0.3563
41369TIP3    H224990   1.029   8.611   6.746 -1.5169 -1.0967 -0.2800
41370TIP3   OH224991   6.652   3.304   5.895 -0.2001  1.0557 -0.0638
41370TIP3    H124992   6.591   3.375   5.914  0.7235  2.0010 -0.5276
41370TIP3    H224993   6.729   3.348   5.858  0.9366 -0.0395  0.9030
41371TIP3   OH224994   2.221  10.055  10.475  0.0569  0.2008 -0.0883
41371TIP3    H124995   2.306  10.098  10.468  0.6387 -0.6617  1.1740
41371TIP3    H224996   2.241   9.962  10.463 -0.8990  0.0998 -0.9939
41372TIP3   OH224997   6.649   1.962   0.092  0.5075  0.5453 -0.4101
41372TIP3    H124998   6.618   2.048   0.062  0.6771  0.3375 -1.1901
41372TIP3    H224999   6.744   1.964   0.079  0.4557  0.0611 -0.9044
41373TIP3   OH225000   7.748  10.734   9.186 -0.1380  0.2967 -0.1309
41373TIP3    H125001   7.726  10.694   9.270  1.7180 -1.6426 -0.5100
41373TIP3    H225002   7.769  10.661   9.129  0.1178  1.6611 -1.8726
41374TIP3   OH225003   3.721   1.140   6.637 -0.1712 -0.1050 -0.5366
41374TIP3    H125004   3.630   1.167   6.636  0.1712  1.0969 -1.3875
41374TIP3    H225005   3.770   1.218   6.662  0.5024 -1.3375  2.4136
41375TIP3   OH225006   8.243  10.671   8.558  0.1845  0.1388 -0.0099
41375TIP3    H125007   8.303  10.745   8.557  2.4027 -1.5588 -0.1471
41375TIP3    H225008   8.251  10.633   8.471  2.4315 -2.6913  1.2780
41376TIP3   OH225009   3.448   0.431   1.338  0.1764  0.2140 -0.3693
41376TIP3    H125010   3.524   0.482   1.310  0.1982  0.5893  0.3485
41376TIP3    H225011   3.482   0.342   1.347  0.5688  0.4007  0.0680
41377TIP3   OH225012   5.930   0.954   1.403 -0.3953  0.3548  0.2388
41377TIP3    H125013   5.959   1.004   1.480 -2.7731  1.2386  0.6365
41377TIP3    H225014   5.868   1.012   1.359 -0.9594 -1.1187 -0.9721
41378TIP3   OH225015  10.673   3.649   0.459 -0.1774  0.2649 -0.3264
41378TIP3    H125016  10.752   3.679   0.505  0.2459 -1.0630 -0.1504
41378TIP3    H225017  10.674   3.554   0.470 -1.3098  0.1471 -1.1347
41379TIP3   OH225018   8.384   1.147   9.057  0.1783 -0.7298 -0.0548
41379TIP3    H125019   8.410   1.158   8.966 -0.8688  1.6053 -0.1315
41379TIP3    H225020   8.292   1.172   9.060  1.1006  3.3164  2.2013
41380TIP3   OH225021   8.403   4.436   7.333  0.4283 -0.1260  0.2175
41380TIP3    H125022   8.395   4.341   7.337  1.1427 -0.1716  0.7378
41380TIP3    H225023   8.453   4.460   7.412 -0.0008  0.7076  0.2525
41381TIP3   OH225024   0.403   0.291   8.853  0.4150  0.7223 -0.2000
41381TIP3    H125025   0.383   0.283   8.760 -0.3379 -2.2281  0.1316
41381TIP3    H225026   0.319   0.316   8.893 -0.1365 -1.2821 -0.0019
41382TIP3   OH225027  10.146  10.303   0.678  0.6368 -0.1986 -0.0582
41382TIP3    H125028  10.225  10.249   0.679  1.6494  1.2150 -0.6910
41382TIP3    H225029  10.083  10.252   0.626  1.9813 -0.2473 -1.7237
41383TIP3   OH225030   1.373   6.091   2.175  0.5018  0.4301  0.2219
41383TIP3    H125031   1.330   6.167   2.137 -0.4874 -0.5998 -0.8013
41383TIP3    H225032   1.424   6.053   2.102  1.0288  0.1467  0.7269
41384TIP3   OH225033   7.138   6.648   0.561 -0.1654 -0.3780  0.3518
41384TIP3    H125034   7.142   6.731   0.514  0.9110 -0.4857  0.2134
41384TIP3    H225035   7.224   6.608   0.545  0.0044 -0.6904  1.8986
41385TIP3   OH225036  10.660   5.778   2.908  0.1018  0.2478  0.1768
41385TIP3    H125037  10.652   5.724   2.829  0.6989  0.5470 -0.0959
41385TIP3    H225038  10.577   5.767   2.953  0.0430 -0.5429 -0.1035
41386TIP3   OH225039   9.085   5.304   5.156  0.6202 -0.6685 -0.3658
41386TIP3    H125040   9.112   5.327   5.067  3.6051 -1.7908  0.1002
41386TIP3    H225041   9.046   5.217   5.147 -0.4179 -0.1698 -0.7423
41387TIP3   OH225042   4.573   4.316   2.960 -0.3257  0.5057 -0.1870
41387TIP3    H125043   4.642   4.382   2.952  0.1499 -0.0475 -0.7437
41387TIP3    H225044   4.578   4.265   2.879 -0.5044 -0.3886  0.3470
41388TIP3   OH225045   9.756   5.653   7.515 -0.0944  0.1135  0.3708
41388TIP3    H125046   9.783   5.603   7.437  0.1613  0.7139  0.0636
41388TIP3    H225047   9.703   5.591   7.566 -0.1462 -0.3344 -0.2100
41389TIP3   OH225048   3.813   5.987   3.801  0.2231  0.0470 -0.3950
41389TIP3    H125049   3.789   6.070   3.762 -0.6457 -0.8301 -1.8123
41389TIP3    H225050   3.817   6.004   3.895 -0.1617  1.6100 -0.6448
41390TIP3   OH225051  10.306   5.593   9.317 -0.1901  0.1941  0.3480
41390TIP3    H125052  10.365   5.668   9.315 -1.3581  1.1441 -1.2669
41390TIP3    H225053  10.323   5.550   9.401  0.7153  2.1045  1.1883
41391TIP3   OH225054   3.929   0.720   5.151  0.7282 -0.4971  0.0108
41391TIP3    H125055   3.982   0.655   5.195 -0.5334 -0.2010  2.0770
41391TIP3    H225056   3.967   0.804   5.177 -0.3588 -0.3031  1.0327
41392TIP3   OH225057   1.115   3.867   2.354  0.3159  0.2647  0.4084
41392TIP3    H125058   1.208   3.877   2.335  0.3242  1.5294  1.0406
41392TIP3    H225059   1.073   3.861   2.268  0.7269  2.1620  0.0408
41393TIP3   OH225060   2.107   1.732   1.906  0.3153 -0.3726 -0.0821
41393TIP3    H125061   2.101   1.821   1.871 -0.2144  0.0946  1.1555
41393TIP3    H225062   2.200   1.719   1.923  0.4775 -0.3078 -0.8672
41394TIP3   OH225063   7.427   9.397   4.014 -0.1780  0.1318 -0.3955
41394TIP3    H125064   7.391   9.376   3.928  1.2732 -1.6126 -0.6483
41394TIP3    H225065   7.520   9.416   3.997 -0.3237  1.9419  0.5390
41395TIP3   OH225066   0.736   0.253   8.337 -0.0593 -0.5103 -0.5294
41395TIP3    H125067   0.669   0.185   8.324 -2.6027  2.0771 -2.2558
41395TIP3    H225068   0.785   0.254   8.254 -1.0101  0.6785 -1.0984
41396TIP3   OH225069   0.749   5.584   5.131  0.4374  0.3303 -0.1106
41396TIP3    H125070   0.806   5.529   5.078 -1.6654 -0.7811 -1.3047
41396TIP3    H225071   0.728   5.659   5.074 -0.5563 -0.0725 -0.2890
41397TIP3   OH225072   3.398  10.846   6.828 -0.2972 -0.1350 -0.0790
41397TIP3    H125073   3.373  10.816   6.915 -0.2624 -0.6187 -0.2304
41397TIP3    H225074   3.472  10.904   6.842  1.1031 -1.8878  0.0545
41398TIP3   OH225075   3.649   0.610  10.835  0.3794 -0.3613 -0.4865
41398TIP3    H125076   3.596   0.663  10.894  1.5726  0.1049  0.1990
41398TIP3    H225077   3.739   0.626  10.863  0.9846 -0.0887 -2.4847
41399TIP3   OH225078   9.993   4.858   1.484 -0.1192  0.0756 -0.8036
41399TIP3    H125079   9.943   4.935   1.458 -1.4796 -0.5655 -0.1537
41399TIP3    H225080  10.021   4.818   1.401 -1.8059 -0.2571 -1.2584
41400TIP3   OH225081   3.676  10.754  10.354  0.5937  0.1359 -0.1823
41400TIP3    H125082   3.705  10.675  10.400  1.6171  0.2990 -0.5187
41400TIP3    H225083   3.644  10.812  10.424  1.7604  0.2249  0.2966
41401TIP3   OH225084   5.967   3.655   7.089 -0.1185  0.3640  0.0817
41401TIP3    H125085   5.923   3.705   7.020  2.0146 -0.0798 -1.6994
41401TIP3    H225086   6.045   3.706   7.110  1.7403 -1.7830 -1.2784
41402TIP3   OH225087   1.912   0.707   0.335 -0.2581 -0.4359 -0.0731
41402TIP3    H125088   1.903   0.612   0.343 -0.9512 -0.7073 -2.8919
41402TIP3    H225089   1.848   0.731   0.267  0.2415  1.9837  0.2219
41403TIP3   OH225090   1.664   3.154  10.614 -0.5308 -0.3036 -0.3135
41403TIP3    H125091   1.629   3.096  10.546 -0.3026 -1.4144  0.4958
41403TIP3    H225092   1.592   3.164  10.677  0.1087 -1.4198  0.6151
41404TIP3   OH225093   8.409   8.864   4.000 -0.5280  0.1919  0.7208
41404TIP3    H125094   8.454   8.933   3.951  0.1102  0.0018  1.0279
41404TIP3    H225095   8.333   8.843   3.946 -0.6891  1.0740  0.5769
41405TIP3   OH225096   4.570   0.795   9.517  0.5311  0.2731 -0.5495
41405TIP3    H125097   4.583   0.712   9.563  0.1907  0.3451 -0.3155
41405TIP3    H225098   4.507   0.842   9.572 -0.2225  0.1824 -1.3259
41406TIP3   OH225099   7.731   7.653   1.870 -0.2074  0.6600  0.3524
41406TIP3    H125100   7.783   7.732   1.859  2.9127 -1.0390  1.6543
41406TIP3    H225101   7.706   7.653   1.963 -1.5864  0.8660  0.0021
41407TIP3   OH225102   7.299   6.491   9.515 -0.7165  0.7361 -0.1875
41407TIP3    H125103   7.212   6.454   9.529 -0.4661 -0.1143 -0.7905
41407TIP3    H225104   7.290   6.544   9.436 -1.1659  2.3247  0.8766
41408TIP3   OH225105   1.367   7.885   0.629 -0.4376  0.0089 -0.6214
41408TIP3    H125106   1.425   7.956   0.655 -0.9539  0.4170 -0.5658
41408TIP3    H225107   1.361   7.829   0.707 -0.2990  0.0921 -0.5511
41409TIP3   OH225108   4.479   6.297   7.807 -0.1248  0.6144  0.1740
41409TIP3    H125109   4.476   6.207   7.776 -1.7804  0.5687  0.3828
41409TIP3    H225110   4.563   6.305   7.852  0.6090 -0.4268 -0.9778
41410TIP3   OH225111   1.690   7.194   0.747 -0.5714 -0.0064 -0.4331
41410TIP3    H125112   1.651   7.267   0.795 -0.2117  0.5419 -0.9621
41410TIP3    H225113   1.727   7.233   0.668 -1.4958 -0.9472 -1.3630
41411TIP3   OH225114   5.743   4.062   3.579 -0.8085 -0.1819 -0.3482
41411TIP3    H125115   5.832   4.068   3.613 -0.5706 -0.6810 -0.8675
41411TIP3    H225116   5.746   4.111   3.497 -0.4238 -2.0352 -1.5009
41412TIP3   OH225117  10.166   2.801   9.042 -0.0694  0.3721  0.5662
41412TIP3    H125118  10.167   2.818   9.136 -0.5593  0.1197  0.6236
41412TIP3    H225119  10.100   2.861   9.008  0.7638  1.1238  0.2403
41413TIP3   OH225120   6.450   0.550   8.219 -0.2120  0.3117  0.3318
41413TIP3    H125121   6.420   0.505   8.140 -0.2811  1.5584 -0.3729
41413TIP3    H225122   6.416   0.497   8.291 -1.8441  0.2285 -0.4605
41414TIP3   OH225123   0.381   1.078   2.457  0.1745  0.0097 -0.8308
41414TIP3    H125124   0.410   1.110   2.542  1.2806  1.7359 -1.8189
41414TIP3    H225125   0.458   1.039   2.418 -0.5393 -1.5875 -0.7326
41415TIP3   OH225126   9.657   0.999   8.804 -0.0338 -0.4093  0.0481
41415TIP3    H125127   9.736   1.011   8.857  0.0706 -2.1626  0.3667
41415TIP3    H225128   9.683   1.026   8.716  0.6915 -0.2309  0.3082
41416TIP3   OH225129   4.302   1.623  10.721  0.0356 -0.2463 -0.7486
41416TIP3    H125130   4.344   1.709  10.710 -0.0817 -0.2332 -1.0964
41416TIP3    H225131   4.352   1.581  10.792 -1.1933  0.9117  0.8690
41417TIP3   OH225132   2.925   5.561   4.781 -0.3955 -0.0732  0.1321
41417TIP3    H125133   2.851   5.581   4.837  1.2765  0.2743  2.3551
41417TIP3    H225134   3.002   5.586   4.832  1.2511  1.4860 -2.8287
41418TIP3   OH225135   5.810   2.169   1.261 -0.5328 -0.1574  0.3705
41418TIP3    H125136   5.845   2.256   1.277 -2.1889  0.5813  0.2231
41418TIP3    H225137   5.883   2.109   1.277  0.8144  1.2970 -0.1990
41419TIP3   OH225138   2.418   8.107   6.354 -0.3367  0.1035  0.0992
41419TIP3    H125139   2.509   8.134   6.360  0.0042 -0.3992 -2.1263
41419TIP3    H225140   2.413   8.025   6.403  0.6803 -0.4660 -0.7288
41420TIP3   OH225141   7.617   1.588   1.685 -0.5821  0.3158 -0.4037
41420TIP3    H125142   7.528   1.624   1.680 -0.7216 -0.1612 -2.2106
41420TIP3    H225143   7.670   1.648   1.632 -0.1831 -0.3481 -0.7653
41421TIP3   OH225144   0.511   2.727   1.499  0.5263 -0.6073 -0.1504
41421TIP3    H125145   0.523   2.705   1.407  1.4278 -2.2302  0.3246
41421TIP3    H225146   0.446   2.797   1.498 -0.8566 -1.8268 -1.9145
41422TIP3   OH225147   1.888   8.056   6.647  0.0984  0.0481  0.0264
41422TIP3    H125148   1.982   8.062   6.631  0.5823 -0.2898  2.3678
41422TIP3    H225149   1.879   7.993   6.718 -1.8903  0.2119 -0.0116
41423TIP3   OH225150   1.124   7.021   1.998 -0.0946 -0.3069 -0.2512
41423TIP3    H125151   1.047   7.001   2.051 -1.2476  1.3365 -1.2174
41423TIP3    H225152   1.115   6.966   1.920 -0.8408  0.6006 -0.8186
41424TIP3   OH225153   9.760   1.969   3.248 -0.2966 -0.6950 -0.2860
41424TIP3    H125154   9.830   1.989   3.185  0.0020  0.0502  0.2621
41424TIP3    H225155   9.679   1.986   3.200 -0.0637  1.4275 -0.0310
41425TIP3   OH225156   2.697   7.681   2.679 -0.1585  0.3895  0.4632
41425TIP3    H125157   2.682   7.658   2.771 -0.8648  1.5514  0.6568
41425TIP3    H225158   2.790   7.666   2.666 -0.0446  0.2266  1.3745
41426TIP3   OH225159   4.031   2.836   3.751  0.3578 -0.7139  0.3964
41426TIP3    H125160   4.112   2.793   3.779  1.3558  0.0689 -1.1867
41426TIP3    H225161   4.059   2.913   3.702 -1.3212 -0.7127 -0.6638
41427TIP3   OH225162   1.044   7.065   9.700  0.0043 -0.1192 -0.1625
41427TIP3    H125163   0.952   7.084   9.684  0.6270  2.1803 -1.4295
41427TIP3    H225164   1.043   6.997   9.768 -2.6158 -1.5564 -1.4845
41428TIP3   OH225165   5.827   2.719   4.636 -0.1412 -1.0094 -0.2464
41428TIP3    H125166   5.836   2.659   4.562  0.8928 -2.2436  0.8435
41428TIP3    H225167   5.874   2.798   4.609  1.0781 -1.8126 -0.5370
41429TIP3   OH225168   2.458   9.907   3.703 -0.4379  0.3845 -0.1940
41429TIP3    H125169   2.367   9.881   3.714  0.3168 -1.5042  2.8858
41429TIP3    H225170   2.484   9.868   3.619 -1.6475 -1.8559  0.3916
41430TIP3   OH225171   9.132   7.156   5.599  0.4863  0.1644 -0.5293
41430TIP3    H125172   9.133   7.061   5.587  1.2850  0.2987 -1.6276
41430TIP3    H225173   9.204   7.174   5.660 -1.1889 -0.1404  1.6526
41431TIP3   OH225174   4.398   0.838   7.756  0.3563 -0.2157  0.0445
41431TIP3    H125175   4.322   0.896   7.758  1.1395  0.8520 -0.1188
41431TIP3    H225176   4.380   0.772   7.822 -1.5750 -1.1238 -1.2939
41432TIP3   OH225177  10.236   3.636   5.251 -0.1185 -0.0844 -0.0534
41432TIP3    H125178  10.191   3.583   5.186 -0.2699 -0.8492  0.6488
41432TIP3    H225179  10.279   3.705   5.201 -1.2655  0.0923 -0.8361
41433TIP3   OH225180  10.481   9.665   5.178  0.1199  0.5032 -0.1611
41433TIP3    H125181  10.556   9.690   5.232  1.6374  0.1205 -1.9631
41433TIP3    H225182  10.413   9.639   5.241  1.8557 -0.1514  1.5392
41434TIP3   OH225183   4.629   0.639   7.662  0.9914 -0.3713 -0.2970
41434TIP3    H125184   4.722   0.659   7.649  1.1053  0.2863  1.2364
41434TIP3    H225185   4.589   0.724   7.683  0.0349 -0.6461 -0.9286
41435TIP3   OH225186   6.253   8.545   8.475  0.0308  0.3549  0.5271
41435TIP3    H125187   6.246   8.604   8.550  0.0166 -1.0537  1.6674
41435TIP3    H225188   6.313   8.590   8.415  0.4972  1.2502  1.6311
41436TIP3   OH225189   4.801   6.572   8.975 -0.2355 -0.2043 -0.7479
41436TIP3    H125190   4.810   6.479   8.956  0.4650  0.2469 -2.9822
41436TIP3    H225191   4.840   6.583   9.062 -0.5415 -2.0054 -0.3546
41437TIP3   OH225192   4.551   9.027   2.663 -0.0727 -0.6330 -0.6386
41437TIP3    H125193   4.617   9.046   2.597  0.6515 -0.7553  0.0352
41437TIP3    H225194   4.509   8.946   2.634 -0.2006 -0.3427 -1.2727
41438TIP3   OH225195   6.142   6.636   4.375  0.2416 -0.3464 -0.0092
41438TIP3    H125196   6.074   6.575   4.347  0.5796 -2.1000  2.6301
41438TIP3    H225197   6.097   6.719   4.386 -0.3413 -0.0922 -3.2090
41439TIP3   OH225198   0.936   2.984   2.483  0.2164 -0.2080  0.2621
41439TIP3    H125199   0.890   2.903   2.502 -3.0171  1.5697  0.6556
41439TIP3    H225200   1.025   2.956   2.459 -1.1052 -3.9182 -0.9774
41440TIP3   OH225201  10.613   0.970   9.668  0.0130 -0.0569  0.3270
41440TIP3    H125202  10.605   1.042   9.605 -1.0145 -0.6855 -0.2804
41440TIP3    H225203  10.642   0.896   9.615 -0.2061 -0.4181  0.7097
41441TIP3   OH225204   2.278   6.305   3.018  0.2786 -0.0644  0.0703
41441TIP3    H125205   2.209   6.260   3.067  0.4354  1.7148  2.0866
41441TIP3    H225206   2.232   6.375   2.972  0.6800  1.0832  1.3636
41442TIP3   OH225207   9.406   1.521   7.008  0.5145 -0.7502 -0.0689
41442TIP3    H125208   9.423   1.429   7.027  1.2787 -0.3974  1.0369
41442TIP3    H225209   9.423   1.566   7.091 -2.1920  0.1089  0.1148
41443TIP3   OH225210   8.826   4.946   0.552  0.0340 -0.0275  0.4756
41443TIP3    H125211   8.847   4.854   0.570 -0.4648  0.3533  3.4260
41443TIP3    H225212   8.753   4.942   0.490 -0.9613 -1.6869  1.6869
41444TIP3   OH225213   5.054   2.253   6.549  0.1681  0.4118  0.2757
41444TIP3    H125214   5.142   2.249   6.587  0.0688  1.6524  0.6860
41444TIP3    H225215   5.012   2.172   6.578  1.4478 -0.6517 -0.6921
41445TIP3   OH225216  10.404   3.574   6.029  0.2483  0.0549  0.7024
41445TIP3    H125217  10.441   3.527   5.954 -0.7434 -2.0950  1.4591
41445TIP3    H225218  10.442   3.531   6.105 -2.7323 -1.4983  1.4881
41446TIP3   OH225219   2.046   0.146   7.349  0.7389 -0.3853 -0.2721
41446TIP3    H125220   1.991   0.067   7.345  1.2775 -1.0618  3.1519
41446TIP3    H225221   2.134   0.115   7.329  0.7575 -0.4145 -0.1448
41447TIP3   OH225222   2.943   4.591   3.610  0.0989  0.6269 -0.5596
41447TIP3    H125223   3.003   4.629   3.673  0.0904 -0.4036  0.0806
41447TIP3    H225224   2.993   4.586   3.528  0.7152  0.2486 -0.1615
41448TIP3   OH225225   5.643   5.057   9.116  0.3725  0.0069 -0.6793
41448TIP3    H125226   5.682   5.103   9.042  0.0049  1.3918 -0.0472
41448TIP3    H225227   5.667   4.965   9.104  0.0396  0.1495 -2.6908
41449TIP3   OH225228   0.786  10.835   0.089  0.3743  0.3269  0.1522
41449TIP3    H125229   0.812  10.926   0.074  0.4145  0.1229 -1.0638
41449TIP3    H225230   0.698  10.828   0.052  1.0985 -0.5927 -1.4959
41450TIP3   OH225231   8.098   5.511   8.374 -0.1415 -0.4733  0.0489
41450TIP3    H125232   8.013   5.503   8.416 -0.7978 -0.3707 -1.2067
41450TIP3    H225233   8.112   5.426   8.330 -0.3836  0.0643 -1.1196
41451TIP3   OH225234   4.614   9.634   5.527 -0.2534 -0.0267  0.0529
41451TIP3    H125235   4.537   9.579   5.543  0.0063 -0.5267 -0.3993
41451TIP3    H225236   4.593   9.717   5.571 -1.3989  0.1317 -0.7314
41452TIP3   OH225237   0.868   8.367   6.059  0.1084 -0.1191 -0.1026
41452TIP3    H125238   0.832   8.282   6.036  0.9447 -0.3032 -0.8233
41452TIP3    H225239   0.796   8.428   6.046 -0.0611 -0.5141 -1.1568
41453TIP3   OH225240   5.753   3.454   7.727  0.4702 -0.0662  0.1357
41453TIP3    H125241   5.690   3.413   7.667  1.3100  0.5533 -1.2155
41453TIP3    H225242   5.700   3.510   7.784 -0.3690 -0.8487  0.1442
41454TIP3   OH225243   1.937  10.215   1.291 -0.0944 -0.2745 -0.6509
41454TIP3    H125244   1.925  10.131   1.246  1.7007 -0.7429 -0.3395
41454TIP3    H225245   1.974  10.272   1.225  0.1310 -0.1877 -0.4491
41455TIP3   OH225246   2.699   4.017   3.616 -0.4122 -0.2261 -0.3472
41455TIP3    H125247   2.751   4.096   3.626  1.0785 -1.2681  0.4911
41455TIP3    H225248   2.609   4.045   3.635  0.4013  0.7676  2.5044
41456TIP3   OH225249   3.355   9.595   1.670  0.1350  0.2331  0.3160
41456TIP3    H125250   3.284   9.619   1.610 -0.3769 -0.0631  0.7894
41456TIP3    H225251   3.333   9.506   1.698  2.0897 -0.9107 -1.5407
41457TIP3   OH225252   2.573   9.493   7.969  0.4637 -0.2676  0.5317
41457TIP3    H125253   2.648   9.518   8.022  0.8328 -0.2058 -0.0171
41457TIP3    H225254   2.511   9.565   7.980  0.7884  0.0362  0.3962
41458TIP3   OH225255  10.853   6.307   6.586 -0.4082  0.1835  0.2852
41458TIP3    H125256  10.827   6.218   6.560  0.1753 -0.4381  1.7226
41458TIP3    H225257  10.929   6.294   6.644  1.1803  1.7668 -1.3229
41459TIP3   OH225258   7.168   8.573   3.081 -0.1875 -0.1548  0.4112
41459TIP3    H125259   7.221   8.545   3.156 -0.7928 -1.4533  0.3772
41459TIP3    H225260   7.112   8.643   3.116  0.5920  0.3046  0.7776
41460TIP3   OH225261   4.096  10.356   1.549  0.6677  0.1182  0.1335
41460TIP3    H125262   4.085  10.351   1.644 -0.5685  1.5360  0.0960
41460TIP3    H225263   4.139  10.440   1.534 -0.5096  0.6044 -0.6434
41461TIP3   OH225264   1.381   8.492   3.030 -0.0568 -0.2675 -0.3021
41461TIP3    H125265   1.346   8.504   2.941 -1.1669  0.0035  0.1483
41461TIP3    H225266   1.339   8.411   3.061  0.4363 -0.4367 -0.0766
41462TIP3   OH225267   8.248   1.115   0.197  0.1233 -0.3807  0.1154
41462TIP3    H125268   8.157   1.124   0.169  0.1596  0.9332  0.3610
41462TIP3    H225269   8.243   1.110   0.293  0.2626 -1.1729  0.0905
41463TIP3   OH225270   5.670   9.960   4.013 -0.4087 -0.0386  0.0098
41463TIP3    H125271   5.636  10.020   3.946 -2.0130 -1.3869 -0.4513
41463TIP3    H225272   5.673  10.012   4.093  1.2460  1.5177 -0.9918
41464TIP3   OH225273   3.555   0.285   7.333  0.0289  0.4952 -0.4281
41464TIP3    H125274   3.489   0.244   7.277 -0.4991 -1.3582  1.4273
41464TIP3    H225275   3.506   0.349   7.384  0.0376  0.4908 -0.4144
41465TIP3   OH225276   9.326   8.832   2.206 -0.1083 -0.2277  0.5356
41465TIP3    H125277   9.339   8.816   2.300 -0.2389 -2.0016  0.2739
41465TIP3    H225278   9.278   8.915   2.202  1.5320  0.8625  1.9521
41466TIP3   OH225279  10.095   4.560   4.012  0.5495 -0.7682 -0.1598
41466TIP3    H125280  10.045   4.642   4.012  0.4947 -0.7770  1.0961
41466TIP3    H225281  10.184   4.587   3.989  0.6627 -0.2370  0.8212
41467TIP3   OH225282   9.849   6.119   0.244 -0.0629 -0.3740  0.1795
41467TIP3    H125283   9.797   6.194   0.216 -0.1021 -0.6784 -0.5680
41467TIP3    H225284   9.924   6.158   0.289 -0.0933  0.1125 -0.1827
41468TIP3   OH225285   2.169   7.972   4.453 -0.0047  0.1309  0.6664
41468TIP3    H125286   2.237   8.003   4.392  0.2653 -1.6871 -0.0226
41468TIP3    H225287   2.121   8.051   4.477  1.2335  1.2124 -0.2260
41469TIP3   OH225288  10.891  10.402   8.410  0.4151 -0.3658  0.5166
41469TIP3    H125289  10.815  10.417   8.354  0.7490  1.1882  0.4230
41469TIP3    H225290  10.957  10.365   8.352 -0.0041 -0.9933  0.4276
41470TIP3   OH225291   0.973   4.967   6.938  0.4738  0.0263  0.3233
41470TIP3    H125292   0.956   4.950   7.031  1.5739 -0.3247  0.4702
41470TIP3    H225293   0.909   5.034   6.915  0.1452  0.0828  1.3166
41471TIP3   OH225294   5.217   5.480   1.451  0.0138 -0.4323  0.5086
41471TIP3    H125295   5.179   5.513   1.369  3.2671 -2.1815 -1.9599
41471TIP3    H225296   5.309   5.505   1.446  0.4749 -1.2547  3.3379
41472TIP3   OH225297   8.687   4.652  10.894  0.4168 -0.7420 -0.2476
41472TIP3    H125298   8.711   4.619  10.808 -1.3568 -1.8301 -0.3743
41472TIP3    H225299   8.732   4.736  10.901 -0.6492  0.1443 -2.9031
41473TIP3   OH225300   6.004   0.384   2.481  0.1246 -0.4942  0.0346
41473TIP3    H125301   6.089   0.358   2.445  1.2282  0.8385  1.5289
41473TIP3    H225302   6.019   0.394   2.575 -1.7861 -0.5255  0.3978
41474TIP3   OH225303   6.829   9.874   1.071  0.4139  0.5198 -0.0651
41474TIP3    H125304   6.845   9.900   1.162  0.3012  0.6464 -0.0802
41474TIP3    H225305   6.778   9.946   1.035  1.4753  1.0285 -0.5790
41475TIP3   OH225306   8.547   1.408  10.292 -0.0959 -0.3986 -0.0627
41475TIP3    H125307   8.511   1.494  10.270  0.8815 -0.3890 -1.7856
41475TIP3    H225308   8.478   1.366  10.345 -0.8456  1.1850  0.2614
41476TIP3   OH225309   1.397  10.380   9.226 -0.4353 -0.5714  0.1097
41476TIP3    H125310   1.312  10.393   9.268 -0.1847  0.1215  0.4273
41476TIP3    H225311   1.423  10.291   9.250 -1.0649 -0.7850  0.0138
41477TIP3   OH225312   8.980   9.758   4.084  0.6495 -0.5747 -0.3055
41477TIP3    H125313   8.968   9.853   4.087  2.0416 -0.3574 -0.8252
41477TIP3    H225314   8.911   9.723   4.139  0.8721  0.8166  0.9046
41478TIP3   OH225315   9.042   0.403   9.131 -0.5283  0.1507 -0.6672
41478TIP3    H125316   9.122   0.351   9.129 -2.4966 -3.2699  0.8762
41478TIP3    H225317   9.045   0.450   9.215  0.6001  1.4979 -1.4224
41479TIP3   OH225318   5.587  10.551   0.915 -0.2884 -0.5017 -0.3173
41479TIP3    H125319   5.594  10.540   1.010 -0.3655 -1.8324 -0.4385
41479TIP3    H225320   5.677  10.562   0.885 -0.2220 -0.5529 -0.1366
41480TIP3   OH225321   0.423   7.239   7.373 -0.1461 -0.1303 -0.1679
41480TIP3    H125322   0.499   7.199   7.329 -0.0741  0.1394 -0.2917
41480TIP3    H225323   0.461   7.292   7.443 -0.2249 -0.0488 -0.1868
41481TIP3   OH225324   1.047   5.831   7.858  0.0422  0.3501 -0.0590
41481TIP3    H125325   0.952   5.831   7.862 -0.0232  0.6738 -1.1100
41481TIP3    H225326   1.073   5.908   7.908 -0.1705 -0.3795  1.2130
41482TIP3   OH225327   3.960   1.989   1.560  0.1284 -0.1762  0.1838
41482TIP3    H125328   3.958   1.901   1.521  1.3086  0.1609 -0.6975
41482TIP3    H225329   3.990   1.975   1.649  0.0755 -0.7002  0.1211
41483TIP3   OH225330   0.575   8.721   4.300 -0.2350  0.3019 -0.2054
41483TIP3    H125331   0.519   8.699   4.375 -1.2702  3.0893 -0.0318
41483TIP3    H225332   0.524   8.786   4.251  1.7554  0.9171 -1.5726
41484TIP3   OH225333  10.530   2.411   8.212 -0.1527  0.2478  0.2072
41484TIP3    H125334  10.487   2.330   8.185 -0.2856  0.4228 -0.1143
41484TIP3    H225335  10.537   2.463   8.132 -0.2653  0.6448  0.4485
41485TIP3   OH225336   3.061   3.063   9.292 -0.2966  0.3487 -0.5541
41485TIP3    H125337   3.098   2.978   9.315 -0.8229  0.1837 -0.2918
41485TIP3    H225338   3.119   3.097   9.224  1.1145  0.7142  0.7952
41486TIP3   OH225339   9.796   8.619  10.204  0.6150 -0.0212  0.3195
41486TIP3    H125340   9.778   8.628  10.297 -0.3916 -0.1988  0.1518
41486TIP3    H225341   9.709   8.621  10.162  0.9150 -1.6144 -0.4730
41487TIP3   OH225342   1.355   3.773  10.343 -0.4043  0.2080 -0.4359
41487TIP3    H125343   1.370   3.867  10.333 -0.5821  0.1512 -1.3346
41487TIP3    H225344   1.433   3.733  10.306  0.4677 -0.0026  1.4869
41488TIP3   OH225345   4.765  10.690   6.229 -0.2081  0.0847  0.0416
41488TIP3    H125346   4.688  10.708   6.282 -0.9439 -1.6009 -0.3898
41488TIP3    H225347   4.755  10.747   6.152 -0.6917  0.3282  0.2814
41489TIP3   OH225348   3.804   2.030   9.157  0.1538 -0.2442  0.2050
41489TIP3    H125349   3.750   1.995   9.086 -0.7055 -1.2788  1.3418
41489TIP3    H225350   3.869   2.084   9.112 -0.4803 -0.7133 -1.3561
41490TIP3   OH225351   1.684   6.821   2.277 -0.2958  0.9307  1.0647
41490TIP3    H125352   1.595   6.838   2.246 -0.8111 -2.2257  0.4656
41490TIP3    H225353   1.672   6.765   2.354  1.0615 -2.3374 -0.9153
41491TIP3   OH225354   1.611   5.430   0.222 -0.4144  0.1104 -0.3141
41491TIP3    H125355   1.656   5.370   0.162 -1.6733 -0.4609 -0.7253
41491TIP3    H225356   1.681   5.485   0.258  0.8047 -1.6580  0.1508
41492TIP3   OH225357   7.963   3.394   1.825 -0.7541 -0.0416  0.6885
41492TIP3    H125358   7.926   3.319   1.778 -0.5250 -0.6345  1.4194
41492TIP3    H225359   7.887   3.439   1.862 -0.9599  0.6550 -0.5684
41493TIP3   OH225360   8.831   1.827   0.278 -0.4491 -0.1094  0.2144
41493TIP3    H125361   8.926   1.825   0.288 -0.6005 -0.9940  1.9413
41493TIP3    H225362   8.816   1.848   0.186  1.3905  1.0169  0.1341
41494TIP3   OH225363   3.875   9.122   5.377  0.5082 -0.6037 -0.0298
41494TIP3    H125364   3.812   9.193   5.364 -0.3041 -1.5178 -1.3971
41494TIP3    H225365   3.904   9.132   5.467 -0.1045  1.0439  0.0238
41495TIP3   OH225366   1.909   1.803   7.520  1.2251  0.1457 -0.2541
41495TIP3    H125367   1.878   1.746   7.450  0.2179 -0.2869  0.5024
41495TIP3    H225368   1.990   1.762   7.550 -0.1223 -1.7322  1.1445
41496TIP3   OH225369   9.046   5.405   6.848  0.3363 -0.4211  0.3509
41496TIP3    H125370   9.012   5.320   6.878 -1.3426  0.1657  0.2245
41496TIP3    H225371   8.970   5.449   6.810  0.7992  1.7399  1.7317
41497TIP3   OH225372   6.491  10.124   7.541 -0.2180  0.0069 -0.6800
41497TIP3    H125373   6.526  10.047   7.496  0.2126 -0.5118  0.5106
41497TIP3    H225374   6.421  10.156   7.483 -2.0275 -2.6605 -0.1211
41498TIP3   OH225375   6.026   0.160   4.043  0.5991 -0.5767  0.4125
41498TIP3    H125376   6.036   0.242   4.091 -0.2019 -0.5942  0.6300
41498TIP3    H225377   6.098   0.159   3.981 -1.1882  1.8956 -1.9329
41499TIP3   OH225378   3.882   3.968  10.128  0.1931 -0.4198  0.2784
41499TIP3    H125379   3.844   4.032  10.188  1.8391 -0.3480  1.2957
41499TIP3    H225380   3.929   4.020  10.063 -0.0478 -0.5509 -0.0026
41500TIP3   OH225381   7.080   3.283   5.189  0.2418  0.2446  0.1407
41500TIP3    H125382   7.113   3.259   5.275  0.3721 -0.8998 -0.2133
41500TIP3    H225383   6.993   3.320   5.205 -0.1355 -0.8492  0.6797
41501TIP3   OH225384   3.133   8.608   1.470  0.3627  0.0563  0.1573
41501TIP3    H125385   3.084   8.649   1.398 -0.2668  0.9418  1.0665
41501TIP3    H225386   3.068   8.590   1.537  1.1729  0.7148  1.1606
41502TIP3   OH225387   9.853   9.606  10.404  0.3269  0.3790  0.4802
41502TIP3    H125388   9.923   9.664  10.376 -2.0853  2.3594 -2.1076
41502TIP3    H225389   9.806   9.655  10.471  0.6870 -0.4018  1.3116
41503TIP3   OH225390   9.154   6.489   1.142 -0.2170  0.1303 -0.2658
41503TIP3    H125391   9.211   6.515   1.070  0.4007  0.2452  0.2553
41503TIP3    H225392   9.209   6.495   1.220 -0.6090 -0.8475  0.1135
41504TIP3   OH225393   4.675   6.861   6.443 -0.0260 -0.0017  0.2465
41504TIP3    H125394   4.644   6.772   6.458 -0.6621  0.3760  1.2081
41504TIP3    H225395   4.629   6.914   6.507  2.9231  0.5482  2.0710
41505TIP3   OH225396   5.893   8.978   8.175  0.1013  0.9771  0.6721
41505TIP3    H125397   5.899   9.070   8.199 -1.5330  0.8170  1.8732
41505TIP3    H225398   5.946   8.932   8.240 -2.7793  0.7199  3.0071
41506TIP3   OH225399   3.503   4.530   6.896 -0.3968  0.2121  0.1470
41506TIP3    H125400   3.595   4.510   6.910 -0.0428  1.4571 -0.3375
41506TIP3    H225401   3.497   4.555   6.803 -0.9152  1.7080  0.5592
41507TIP3   OH225402   8.966   2.908   8.006  0.4191  0.2413  0.1757
41507TIP3    H125403   8.928   2.865   7.929  0.9623  0.8309 -0.4367
41507TIP3    H225404   8.931   2.859   8.080 -0.3844 -0.1269 -0.4292
41508TIP3   OH225405   8.598   4.428   0.803 -0.4685 -0.0219  0.1032
41508TIP3    H125406   8.549   4.497   0.847  0.4491  1.6267 -1.3414
41508TIP3    H225407   8.671   4.410   0.862 -0.8884  0.0022  0.6411
41509TIP3   OH225408   8.353   1.813   4.233 -0.5208  0.0581  0.2469
41509TIP3    H125409   8.421   1.771   4.285  0.0919  1.3017  0.4798
41509TIP3    H225410   8.274   1.809   4.288 -0.5596 -1.0018  0.1486
41510TIP3   OH225411   2.170   5.727   1.868 -0.1271 -0.1363  0.2482
41510TIP3    H125412   2.100   5.697   1.810 -1.0921  0.9643  0.8172
41510TIP3    H225413   2.245   5.740   1.809 -0.6206 -0.5587 -0.4965
41511TIP3   OH225414   5.285  10.532   5.500 -0.4087  0.0288 -0.3297
41511TIP3    H125415   5.272  10.517   5.594  2.1505  0.7550  0.2056
41511TIP3    H225416   5.248  10.619   5.485  0.2228  0.4133  0.2843
41512TIP3   OH225417   2.828   5.655   7.118 -0.4338 -0.6202  0.4555
41512TIP3    H125418   2.828   5.734   7.172 -0.0823  0.6366 -1.3051
41512TIP3    H225419   2.754   5.667   7.058 -1.1131 -2.2085  0.9086
41513TIP3   OH225420   1.539   9.213   8.044  0.7675 -0.1017  0.0838
41513TIP3    H125421   1.461   9.249   8.086 -0.1662  0.5718 -2.0554
41513TIP3    H225422   1.594   9.290   8.027 -0.4152  0.2315 -2.8667
41514TIP3   OH225423   4.466   1.570   5.032  0.5816  0.8829  0.2216
41514TIP3    H125424   4.402   1.618   4.980 -1.3696 -0.5503  1.1552
41514TIP3    H225425   4.542   1.562   4.976  0.2989  3.3889 -0.6376
41515TIP3   OH225426   5.914   1.951   0.697 -0.3116 -0.0301  0.1534
41515TIP3    H125427   5.943   1.955   0.788  0.5515  1.2826 -0.1561
41515TIP3    H225428   5.859   1.873   0.693 -0.4075 -0.0870  1.8079
41516TIP3   OH225429   8.143   5.489   9.656  0.1104  0.1930  0.0699
41516TIP3    H125430   8.116   5.397   9.650 -0.5824  0.4291 -0.7347
41516TIP3    H225431   8.145   5.520   9.565 -2.2608  1.6591  0.4024
41517TIP3   OH225432   5.430   9.419   2.546  0.4112 -0.1892  0.5712
41517TIP3    H125433   5.367   9.438   2.616  0.4958 -1.1603  0.9200
41517TIP3    H225434   5.455   9.328   2.561  1.4738  0.0203  0.0903
41518TIP3   OH225435   5.646   0.477   3.479 -0.0637  0.4851  0.4290
41518TIP3    H125436   5.715   0.543   3.471 -1.0099  1.4106 -0.3503
41518TIP3    H225437   5.619   0.481   3.570  1.6680 -0.7113  1.0542
41519TIP3   OH225438   1.548   9.197   8.981  0.2727 -0.3469  0.0617
41519TIP3    H125439   1.636   9.226   8.958  0.2928  0.6950  1.3153
41519TIP3    H225440   1.490   9.265   8.945  0.0479 -0.5728 -0.0076
41520TIP3   OH225441   7.630   1.397   4.559 -0.4440 -0.0273  0.1116
41520TIP3    H125442   7.561   1.459   4.534 -1.7984 -1.4293  0.2468
41520TIP3    H225443   7.661   1.428   4.644 -2.4661 -0.6110  1.0980
41521TIP3   OH225444   3.513   0.999   9.588  0.3795  0.7220 -0.3007
41521TIP3    H125445   3.488   0.969   9.675 -0.8505 -0.0228 -0.8995
41521TIP3    H225446   3.458   0.949   9.528  0.3752  2.0629 -1.4578
41522TIP3   OH225447   8.768   1.827   6.306 -0.4983  0.5536  0.6219
41522TIP3    H125448   8.785   1.776   6.385  1.4985 -1.0818 -0.7413
41522TIP3    H225449   8.728   1.765   6.246 -2.9832  2.0512  0.6262
41523TIP3   OH225450   2.166   5.611   4.917  0.1951 -0.1665  0.0632
41523TIP3    H125451   2.205   5.575   4.838 -0.4420  0.5446 -0.5902
41523TIP3    H225452   2.111   5.682   4.886 -0.7271 -0.4185  1.0667
41524TIP3   OH225453   3.497   6.789   0.169 -0.3759  0.3780 -0.5207
41524TIP3    H125454   3.422   6.745   0.130 -0.1438 -0.5626  0.0599
41524TIP3    H225455   3.491   6.769   0.263  1.0727 -0.4799 -0.5744
41525TIP3   OH225456   4.800   8.116   2.734 -0.8096  0.2993 -0.4601
41525TIP3    H125457   4.809   8.022   2.721  1.9771  0.6071 -1.4569
41525TIP3    H225458   4.837   8.155   2.655 -0.5623  2.2331  0.5468
41526TIP3   OH225459  10.864  10.661   1.421  1.1330  0.1838 -0.5789
41526TIP3    H125460  10.807  10.670   1.344  0.7471  1.3243 -0.1842
41526TIP3    H225461  10.905  10.576   1.410  1.5611  0.5672 -2.3819
41527TIP3   OH225462   5.176   7.750   5.158 -0.0778  0.4789  0.2683
41527TIP3    H125463   5.267   7.771   5.180  0.0797  0.4515 -0.3403
41527TIP3    H225464   5.158   7.670   5.206  0.3160  0.3260  0.1670
41528TIP3   OH225465   2.623   6.584   6.313 -0.7183  0.1255  0.6696
41528TIP3    H125466   2.614   6.494   6.345  0.6065 -0.1109  0.4646
41528TIP3    H225467   2.535   6.608   6.284 -1.8039  0.0270  3.5619
41529TIP3   OH225468   5.086   0.184   5.098  0.1843  0.4831 -0.0416
41529TIP3    H125469   5.164   0.239   5.095  0.1773  0.4862 -0.1525
41529TIP3    H225470   5.023   0.234   5.149 -0.3000  1.1817 -1.2943
41530TIP3   OH225471   9.455   5.366   3.561  0.0909 -0.0698  0.1013
41530TIP3    H125472   9.436   5.375   3.467  0.4667 -1.7006 -0.1640
41530TIP3    H225473   9.533   5.419   3.576 -0.3993  0.7938 -0.3438
41531TIP3   OH225474   1.042   2.853   8.706  0.0742 -0.3789 -0.1780
41531TIP3    H125475   1.069   2.809   8.625  0.3644 -0.7494  0.1199
41531TIP3    H225476   1.061   2.790   8.775 -1.2727 -0.5418  0.0725
41532TIP3   OH225477   6.493   7.219   6.073  0.2483  0.5731  0.5596
41532TIP3    H125478   6.494   7.312   6.096 -1.4148  0.9817 -0.7971
41532TIP3    H225479   6.400   7.198   6.063  0.6295 -1.0862  0.2486
41533TIP3   OH225480  10.247   8.979   7.952  0.3902  0.1731 -0.3405
41533TIP3    H125481  10.323   8.935   7.989  0.8176 -0.3909 -1.7914
41533TIP3    H225482  10.276   9.069   7.937  0.3400  0.2993  0.2982
41534TIP3   OH225483   0.982   9.200  10.115  0.0989 -0.0759  0.1037
41534TIP3    H125484   1.017   9.111  10.107  1.9436  0.6088  0.0927
41534TIP3    H225485   1.030   9.238  10.189 -2.1243  0.2785  1.4326
41535TIP3   OH225486   6.014   6.377  10.090 -0.8327 -0.4570 -0.2235
41535TIP3    H125487   6.056   6.301  10.052  0.9137  0.0918  0.4743
41535TIP3    H225488   6.013   6.443  10.020 -2.0734 -0.9792 -0.7338
41536TIP3   OH225489  10.807   9.878   9.703  0.1730  0.4397  0.2749
41536TIP3    H125490  10.850   9.952   9.745  0.6603  0.5147 -0.3458
41536TIP3    H225491  10.722   9.871   9.748  0.6750  0.5067  1.2694
41537TIP3   OH225492   7.774  10.098   1.280  0.1390  0.1460  0.4100
41537TIP3    H125493   7.696  10.148   1.305 -1.4929 -2.2235  0.3304
41537TIP3    H225494   7.740  10.019   1.238  2.6478 -0.0725 -1.4677
41538TIP3   OH225495   4.537   4.257   3.425 -0.1713  0.0295  0.1032
41538TIP3    H125496   4.515   4.207   3.347 -1.0405  0.1793  0.2344
41538TIP3    H225497   4.524   4.196   3.498  0.7415 -0.1423  0.1295
41539TIP3   OH225498   4.284   9.383   8.857 -0.1702 -0.4717 -0.2436
41539TIP3    H125499   4.241   9.385   8.771  0.5573 -0.1294 -0.6042
41539TIP3    H225500   4.282   9.475   8.886  0.0798 -0.4995 -0.1414
41540TIP3   OH225501   2.341   7.846   1.052  0.1397 -0.1143 -0.3249
41540TIP3    H125502   2.435   7.861   1.057  0.6604 -2.6578 -0.9763
41540TIP3    H225503   2.307   7.922   1.004  1.6691  1.3327  0.7858
41541TIP3   OH225504   4.224   5.165   2.476 -0.1521 -0.3941 -0.4505
41541TIP3    H125505   4.228   5.070   2.485 -0.0326 -0.3170  0.3628
41541TIP3    H225506   4.144   5.181   2.425 -1.0481 -0.8491  0.7596
41542TIP3   OH225507   9.124   2.901   8.575  0.2635 -0.7589 -0.5226
41542TIP3    H125508   9.183   2.856   8.636 -1.7154 -2.3076  0.3473
41542TIP3    H225509   9.103   2.835   8.509 -1.1476 -0.5224 -0.3357
41543TIP3   OH225510   6.521   8.708  10.512 -0.0533 -0.2746 -0.4196
41543TIP3    H125511   6.437   8.701  10.466 -0.4495 -0.2218  0.2898
41543TIP3    H225512   6.561   8.621  10.504 -1.4745 -1.2022  1.6948
41544TIP3   OH225513   4.302   9.253   1.855 -0.0470  0.6552  0.1848
41544TIP3    H125514   4.302   9.157   1.858 -1.5868  0.4394 -2.6666
41544TIP3    H225515   4.377   9.276   1.800  1.4527  1.2874  2.3733
41545TIP3   OH225516   1.212   5.894  10.765 -0.5147  0.7112 -0.1258
41545TIP3    H125517   1.216   5.956  10.838  0.6632 -0.8873  1.2829
41545TIP3    H225518   1.143   5.832  10.790  0.0420  0.0292 -0.2321
41546TIP3   OH225519  10.474  10.189   1.683  0.4885  0.2761  0.0309
41546TIP3    H125520  10.403  10.252   1.669  1.0204  0.4802 -2.0137
41546TIP3    H225521  10.455  10.118   1.623  2.4670  0.7572 -1.2405
41547TIP3   OH225522   3.643   6.887   3.971  0.3136 -0.0248  0.2726
41547TIP3    H125523   3.712   6.927   3.918  0.9200  0.3434  1.2949
41547TIP3    H225524   3.609   6.959   4.024 -0.6340 -0.2750  0.0143
41548TIP3   OH225525   9.596   6.831   2.865  0.6406  0.4899  0.0522
41548TIP3    H125526   9.666   6.838   2.800 -0.4865  0.2213 -1.2385
41548TIP3    H225527   9.534   6.900   2.841 -0.7314 -0.8424 -0.3717
41549TIP3   OH225528   0.680   0.970   8.005  0.2350  0.4717 -0.3913
41549TIP3    H125529   0.651   0.882   7.982 -2.1349  0.8281  0.9275
41549TIP3    H225530   0.681   0.971   8.101 -0.0809  1.9613 -0.3762
41550TIP3   OH225531   7.526   3.071   8.637  0.1465  0.2486 -0.0650
41550TIP3    H125532   7.455   3.127   8.605  0.6850  0.8655 -0.1974
41550TIP3    H225533   7.512   3.067   8.731 -1.0376 -1.0086 -0.2620
41551TIP3   OH225534   7.269   1.071   3.508  0.2516 -0.1656 -0.9380
41551TIP3    H125535   7.298   1.018   3.582 -1.6119  0.5555  0.3897
41551TIP3    H225536   7.279   1.162   3.537 -2.2389  0.1293 -0.7595
41552TIP3   OH225537   2.514   8.098   5.181 -1.2862  0.1927 -0.1665
41552TIP3    H125538   2.427   8.072   5.151 -1.5751 -2.4356  2.3847
41552TIP3    H225539   2.496   8.157   5.254 -0.7455  2.5427 -1.8461
41553TIP3   OH225540   6.175   0.035   8.694  0.5377 -0.5343  0.1176
41553TIP3    H125541   6.228   0.106   8.655  0.8105 -0.6533  0.2674
41553TIP3    H225542   6.178   0.051   8.788  1.0303 -1.0366  0.1941
41554TIP3   OH225543   5.506   6.144  10.044  0.1715  0.3514  0.2619
41554TIP3    H125544   5.586   6.092  10.044 -0.6535 -1.0067  1.6715
41554TIP3    H225545   5.435   6.081  10.033 -0.8455  1.1968  1.5280
41555TIP3   OH225546  10.184   3.366   9.326 -0.4595  0.1590 -0.9917
41555TIP3    H125547  10.111   3.421   9.354  0.1611  0.8430 -0.7244
41555TIP3    H225548  10.141   3.294   9.278 -1.4358 -0.3376  0.5365
41556TIP3   OH225549   8.191   9.151   0.083 -0.0247 -0.2018  0.4895
41556TIP3    H125550   8.160   9.118   0.168 -1.1475  1.4709  0.7802
41556TIP3    H225551   8.280   9.117   0.075 -0.4710 -1.7161  1.5911
41557TIP3   OH225552   7.632   6.384   1.008 -0.4590  0.0744  0.0214
41557TIP3    H125553   7.624   6.370   0.914  1.1421 -0.1219 -0.1219
41557TIP3    H225554   7.557   6.439   1.031 -0.2431  1.1171 -1.5950
41558TIP3   OH225555   2.999   1.177   2.478  0.1787  0.3121 -0.1192
41558TIP3    H125556   2.946   1.190   2.400 -0.1208  0.3577  0.0903
41558TIP3    H225557   2.966   1.242   2.541 -0.7367 -0.8473  0.6355
41559TIP3   OH225558   8.672   8.507   3.847 -0.7695 -0.1847  0.8600
41559TIP3    H125559   8.665   8.595   3.809  0.2542 -0.1827  0.6559
41559TIP3    H225560   8.628   8.450   3.784 -0.0646 -0.0236  0.2036
41560TIP3   OH225561   4.097   7.140   0.680  0.8372 -0.3000 -0.1857
41560TIP3    H125562   4.026   7.102   0.731  0.9032 -0.3150 -0.1047
41560TIP3    H225563   4.146   7.065   0.646  0.7207 -0.2912 -0.3735
41561TIP3   OH225564  10.657   3.746   9.361 -0.1308 -0.9804  0.4654
41561TIP3    H125565  10.675   3.813   9.427  1.2905 -0.8461 -0.0226
41561TIP3    H225566  10.564   3.726   9.372 -0.1498 -0.2664  1.8485
41562TIP3   OH225567   0.110  10.541   6.308  0.0985  0.0936 -0.6044
41562TIP3    H125568   0.143  10.474   6.248  0.6718 -0.0543 -0.1402
41562TIP3    H225569   0.107  10.621   6.256  0.9987  0.0601 -0.7242
41563TIP3   OH225570   9.005   0.498   8.434  0.1972  0.7418  0.3760
41563TIP3    H125571   8.988   0.430   8.499  0.8709  1.1927  1.0333
41563TIP3    H225572   9.096   0.523   8.448  0.5772  0.3469 -1.2151
41564TIP3   OH225573   6.853   8.704   0.619 -0.6100  0.2724  0.1881
41564TIP3    H125574   6.781   8.750   0.577 -0.9987 -1.1457 -0.7762
41564TIP3    H225575   6.837   8.714   0.713 -1.7011  0.5243 -0.0119
41565TIP3   OH225576  10.517   1.639   3.825 -0.0922  0.2586 -0.1679
41565TIP3    H125577  10.444   1.587   3.859 -1.3274  1.5282 -0.7725
41565TIP3    H225578  10.587   1.576   3.811 -1.5833 -1.2834 -1.0359
41566TIP3   OH225579   2.466   0.960   8.862 -0.0019 -0.0183 -0.3037
41566TIP3    H125580   2.505   0.934   8.779  3.6318  1.9728  0.5543
41566TIP3    H225581   2.521   0.919   8.928 -0.8004  1.0171  1.0589
41567TIP3   OH225582   8.288   8.766   6.340  0.3479  0.5489  0.3964
41567TIP3    H125583   8.212   8.820   6.317 -0.0180 -0.6701 -1.4539
41567TIP3    H225584   8.250   8.687   6.378  0.8109  0.7373  1.2849
41568TIP3   OH225585   5.105   8.325   8.802 -0.0355 -0.6189  0.1274
41568TIP3    H125586   5.086   8.360   8.889 -0.2407  1.3940 -0.6633
41568TIP3    H225587   5.194   8.355   8.783 -1.0330  1.6074 -1.4842
41569TIP3   OH225588   3.447   5.521   0.545 -0.0351 -0.2861 -0.0618
41569TIP3    H125589   3.450   5.487   0.635  1.8047 -0.5193 -0.1872
41569TIP3    H225590   3.538   5.527   0.518 -0.5454 -2.1164 -2.6439
41570TIP3   OH225591   9.539   8.740   4.849  0.1721  0.6853  0.0825
41570TIP3    H125592   9.598   8.719   4.777 -0.0558 -1.1831  0.3767
41570TIP3    H225593   9.465   8.786   4.808  1.1926  1.8950 -0.4660
41571TIP3   OH225594   9.635   9.459  10.104 -0.3402 -0.1459 -0.3839
41571TIP3    H125595   9.636   9.473  10.010 -0.5192  1.4616 -0.1823
41571TIP3    H225596   9.726   9.474  10.132 -0.9224  3.2363  0.1202
41572TIP3   OH225597   4.019   2.332   9.699  0.0790 -0.3643 -0.2114
41572TIP3    H125598   4.030   2.411   9.646 -1.2013  0.3848  0.5772
41572TIP3    H225599   3.924   2.320   9.703  0.0929 -0.2001  2.1291
41573TIP3   OH225600   4.756   0.717   9.063 -0.1197 -0.4613  0.2281
41573TIP3    H125601   4.744   0.709   8.969  1.3180  0.9465 -0.1186
41573TIP3    H225602   4.823   0.653   9.085  0.3144 -0.0491  0.1082
41574TIP3   OH225603   9.390   6.764   0.683  0.6030  0.0451 -0.7349
41574TIP3    H125604   9.315   6.823   0.671 -0.7656 -1.1204  1.4475
41574TIP3    H225605   9.376   6.695   0.618 -0.6532 -0.5406  0.1235
41575TIP3   OH225606   5.414   7.314   0.271 -0.3875 -0.4850 -0.2736
41575TIP3    H125607   5.341   7.295   0.330 -0.0472 -2.5574 -0.4323
41575TIP3    H225608   5.484   7.257   0.302  0.8277  0.6930 -0.7785
41576TIP3   OH225609   4.250   7.366   0.408  0.0258  0.2168  0.1507
41576TIP3    H125610   4.163   7.362   0.447 -0.5734  0.6629 -1.0972
41576TIP3    H225611   4.297   7.292   0.447 -1.1053 -0.4156  0.3661
41577TIP3   OH225612   6.936   7.033   3.710 -0.1248  0.3697 -0.3324
41577TIP3    H125613   6.979   7.103   3.759  2.3472 -0.5021 -1.1175
41577TIP3    H225614   6.935   6.958   3.770 -0.3439  0.3098 -0.4074
41578TIP3   OH225615   5.162   0.819   6.096  0.1373  0.2218 -0.2286
41578TIP3    H125616   5.241   0.860   6.131 -0.6705  0.6223  1.2171
41578TIP3    H225617   5.192   0.767   6.022  1.6125  1.0894 -0.2726
41579TIP3   OH225618   4.659   4.956   2.491  0.0670 -0.2150  0.2013
41579TIP3    H125619   4.698   4.875   2.526  0.9841  0.0908 -0.0831
41579TIP3    H225620   4.672   5.020   2.561 -0.6890 -0.3136  0.4389
41580TIP3   OH225621  10.194   6.838   9.845  0.1210 -0.9650 -0.0404
41580TIP3    H125622  10.150   6.811   9.926 -0.4745  1.4961  0.5539
41580TIP3    H225623  10.256   6.767   9.827 -0.4605 -2.0938  1.9783
41581TIP3   OH225624   5.020   8.768   1.918 -0.0048  0.4127 -0.2293
41581TIP3    H125625   5.071   8.833   1.967  0.0576 -1.3653  2.2524
41581TIP3    H225626   5.056   8.684   1.945 -3.4468 -0.9122  0.7695
41582TIP3   OH225627   1.306   6.851   0.315 -0.2140 -0.5644  0.0755
41582TIP3    H125628   1.371   6.796   0.359  0.6118 -0.7077 -1.2619
41582TIP3    H225629   1.222   6.809   0.334  0.3767 -2.2245 -0.7843
41583TIP3   OH225630   2.065   4.644  10.788 -0.7007  0.3738 -0.0178
41583TIP3    H125631   2.014   4.724  10.803 -3.8623 -1.9239  3.1869
41583TIP3    H225632   2.136   4.649  10.853 -0.8631  0.5801  0.1461
41584TIP3   OH225633   3.316   4.882   1.815  0.2160 -0.8448  0.4421
41584TIP3    H125634   3.268   4.853   1.737  0.7143 -0.7977  0.1187
41584TIP3    H225635   3.274   4.964   1.840  0.9500 -0.1368 -0.5970
41585TIP3   OH225636   9.375   4.285   1.694 -0.1642  0.3334  0.1519
41585TIP3    H125637   9.309   4.221   1.720 -0.4354  0.5953  0.1099
41585TIP3    H225638   9.429   4.297   1.772 -2.2841  2.7848  1.3898
41586TIP3   OH225639   0.089   7.474   8.036 -0.5259 -0.2910  0.0084
41586TIP3    H125640   0.023   7.422   7.990  0.5937 -1.2830 -0.5267
41586TIP3    H225641   0.083   7.561   7.996  0.4678 -1.1429 -2.1360
41587TIP3   OH225642   1.814   6.442   8.388  0.4515  0.0654 -0.3549
41587TIP3    H125643   1.891   6.440   8.332  0.1991  1.5844 -0.7910
41587TIP3    H225644   1.814   6.529   8.428  0.1114 -0.6406  1.3004
41588TIP3   OH225645   3.675   4.552   9.150 -0.0712 -0.2368 -0.4681
41588TIP3    H125646   3.652   4.601   9.071 -0.2778  0.3616 -0.0504
41588TIP3    H225647   3.617   4.589   9.217 -0.4861 -1.3151 -0.2228
41589TIP3   OH225648   3.476   2.029   9.306 -0.5438  0.2968 -0.2249
41589TIP3    H125649   3.546   2.091   9.328 -1.2836  2.0026 -2.3608
41589TIP3    H225650   3.395   2.078   9.321 -1.1932 -0.5476 -0.8841
41590TIP3   OH225651   3.923  10.557   6.076  0.5520 -0.6525  0.0118
41590TIP3    H125652   3.955  10.645   6.097 -0.9573  0.4390 -1.8765
41590TIP3    H225653   3.902  10.518   6.161 -0.1304  1.3873  0.8369
41591TIP3   OH225654   2.760   8.049   2.892 -0.1936  0.1232 -0.6302
41591TIP3    H125655   2.805   7.997   2.826  1.0759 -1.1952  1.1636
41591TIP3    H225656   2.673   8.011   2.898  0.5290 -1.5572  0.2426
41592TIP3   OH225657   6.808   0.854   3.293 -1.0520 -0.0476 -0.0328
41592TIP3    H125658   6.773   0.765   3.300 -0.0343 -0.4530 -0.0549
41592TIP3    H225659   6.855   0.869   3.375 -2.6307  1.1213  0.7231
41593TIP3   OH225660   3.136   0.122  10.720 -0.0220  0.2455  0.9163
41593TIP3    H125661   3.226   0.137  10.749  0.8057 -0.8458 -0.8724
41593TIP3    H225662   3.081   0.156  10.791  1.8021 -0.2678  2.6700
41594TIP3   OH225663   8.307   8.355   3.211  0.2296 -0.2982 -0.4575
41594TIP3    H125664   8.383   8.315   3.254 -0.3956 -1.0292  0.0007
41594TIP3    H225665   8.260   8.281   3.172 -0.6368  0.0518 -0.0968
41595TIP3   OH225666   6.092  10.276   4.988 -0.0604 -0.1225  0.0960
41595TIP3    H125667   6.144  10.211   5.036  0.2623 -0.0128 -0.1057
41595TIP3    H225668   6.016  10.227   4.958 -1.5364  0.3300  2.7793
41596TIP3   OH225669   6.022   2.556   8.930  0.1249 -0.0977 -0.1870
41596TIP3    H125670   5.960   2.626   8.947 -1.3427 -1.4226  0.1194
41596TIP3    H225671   5.996   2.521   8.844  0.1595 -0.9484  0.1423
41597TIP3   OH225672   5.048   6.699   4.410  0.0719  0.2608  0.4165
41597TIP3    H125673   5.097   6.648   4.475 -0.5281  1.3046  1.7143
41597TIP3    H225674   4.991   6.756   4.461  0.2969  1.8323 -1.0023
41598TIP3   OH225675   9.302   5.514   9.629  0.7469  0.1205  0.2057
41598TIP3    H125676   9.213   5.522   9.663  0.6553  0.2727 -0.0684
41598TIP3    H225677   9.338   5.603   9.633  0.5379  0.2538 -0.6276
41599TIP3   OH225678   0.901   5.573   6.323  0.4887  0.0391  0.3263
41599TIP3    H125679   0.996   5.563   6.319  0.6157  0.9603  0.8833
41599TIP3    H225680   0.887   5.658   6.364 -0.5812 -0.1151  0.3122
41600TIP3   OH225681   6.118   1.597   9.263  0.2343 -0.5983 -0.2754
41600TIP3    H125682   6.185   1.547   9.309 -0.1532 -1.5485 -0.7109
41600TIP3    H225683   6.042   1.538   9.259 -0.6809  0.5076  0.3385
41601TIP3   OH225684   9.315   7.732   7.662  0.2186 -0.4346  0.2189
41601TIP3    H125685   9.310   7.827   7.650  1.2390 -0.4607 -0.5165
41601TIP3    H225686   9.233   7.700   7.624 -0.0234  0.1299  0.2448
41602TIP3   OH225687   4.665   1.012   7.874  0.2225 -0.4628  0.5482
41602TIP3    H125688   4.598   1.050   7.816  0.1069 -1.2532  0.1550
41602TIP3    H225689   4.746   1.054   7.846  0.1212 -0.6105  0.0106
41603TIP3   OH225690   9.112   2.675   2.944  0.2127  0.4454 -0.4249
41603TIP3    H125691   9.121   2.749   2.884  1.6805  0.1590 -0.5952
41603TIP3    H225692   9.096   2.715   3.029 -0.3784  0.9013 -0.7400
41604TIP3   OH225693   3.060   7.646   0.476  0.0117 -0.0501 -0.0070
41604TIP3    H125694   3.152   7.669   0.462 -0.2569  1.2531  0.2416
41604TIP3    H225695   3.014   7.730   0.474 -0.9339 -0.4873  1.6755
41605TIP3   OH225696  10.441   3.928   2.422 -0.2586  0.6695 -0.5916
41605TIP3    H125697  10.419   3.930   2.515  3.9671  1.5324  0.6054
41605TIP3    H225698  10.483   3.843   2.410 -0.4516  0.7160 -1.6406
41606TIP3   OH225699   0.522  10.049  10.671 -0.3582  0.0899  0.0068
41606TIP3    H125700   0.514   9.961  10.636  1.4105  0.3988 -1.3002
41606TIP3    H225701   0.452  10.056  10.735 -0.5362 -2.2609  0.1425
41607TIP3   OH225702   6.853   8.115   9.784 -0.5744 -0.0261 -0.2091
41607TIP3    H125703   6.821   8.120   9.874  1.4404 -2.2454  0.7354
41607TIP3    H225704   6.818   8.033   9.751  0.6305 -0.4128 -0.5843
41608TIP3   OH225705   5.807   5.003   2.401 -0.2407  0.1799 -0.2413
41608TIP3    H125706   5.745   5.055   2.350  0.2084  1.3600  0.3909
41608TIP3    H225707   5.892   5.020   2.361  0.0150  0.5349  0.4405
41609TIP3   OH225708   1.556   4.788   5.977 -0.0454 -0.1836 -0.2398
41609TIP3    H125709   1.544   4.716   5.916 -0.3840 -0.8907  0.6332
41609TIP3    H225710   1.543   4.867   5.925 -1.9647 -0.7902 -0.7585
41610TIP3   OH225711   1.746   5.531   8.715 -0.9135  0.6392 -0.2289
41610TIP3    H125712   1.804   5.607   8.713  0.4380 -0.3054  1.0933
41610TIP3    H225713   1.659   5.567   8.732 -0.4737  1.9700 -0.7297
41611TIP3   OH225714   6.645   7.304   9.523 -0.5562 -0.2825 -0.0947
41611TIP3    H125715   6.733   7.292   9.559 -0.6426 -2.3304 -0.4478
41611TIP3    H225716   6.586   7.274   9.593 -0.7755 -2.7981 -1.2430
41612TIP3   OH225717   7.126   2.050   1.694  0.2118 -0.2712  0.2421
41612TIP3    H125718   7.113   1.963   1.732 -0.0404  0.9449  3.1526
41612TIP3    H225719   7.216   2.047   1.660  0.1381 -1.7252  0.1150
41613TIP3   OH225720   2.129  10.881   5.899  0.1727 -0.3978  0.3774
41613TIP3    H125721   2.104  10.971   5.921 -0.9998 -0.4868 -0.4727
41613TIP3    H225722   2.206  10.891   5.843  0.2131  0.0726  0.5092
41614TIP3   OH225723   6.213   5.650   0.061 -0.0481  0.1693  0.7814
41614TIP3    H125724   6.253   5.617   0.142 -1.0918  0.0089  1.2558
41614TIP3    H225725   6.180   5.572   0.017  1.2034  0.1719 -0.2115
41615TIP3   OH225726   0.928   7.468   9.934  0.3281 -0.0030 -0.5661
41615TIP3    H125727   0.919   7.458   9.839  1.0228  0.5427 -0.6917
41615TIP3    H225728   0.885   7.390   9.969  2.7646 -1.8437 -1.4245
41616TIP3   OH225729   1.528  10.359   1.779  0.5252  0.0804 -0.0360
41616TIP3    H125730   1.434  10.346   1.763  0.0735  2.2672  0.5073
41616TIP3    H225731   1.564  10.271   1.781 -1.8443 -0.9806  1.6875
41617TIP3   OH225732   5.271   2.499   1.140 -0.1965  0.2435  0.4201
41617TIP3    H125733   5.303   2.572   1.193 -1.1348  0.8523  0.1844
41617TIP3    H225734   5.287   2.526   1.049 -1.1901  0.5024  0.3029
41618TIP3   OH225735   4.900   0.941   5.944 -0.4443  0.0524  0.2129
41618TIP3    H125736   4.812   0.971   5.923 -1.3945 -2.4411  0.3236
41618TIP3    H225737   4.927   0.995   6.019 -0.6196  2.8457 -1.5785
41619TIP3   OH225738   4.914   2.735   5.181  0.0963 -0.4145  0.1007
41619TIP3    H125739   4.912   2.815   5.130 -0.8114 -0.2561  0.3692
41619TIP3    H225740   4.845   2.680   5.143 -0.4475 -0.3801  1.0089
41620TIP3   OH225741   7.157  10.555   3.822 -0.3350  0.2979 -0.5981
41620TIP3    H125742   7.241  10.567   3.778 -0.1485 -1.0126 -0.6451
41620TIP3    H225743   7.159  10.616   3.896  0.9409 -0.1645 -0.2211
41621TIP3   OH225744   1.476  10.179   6.260 -0.4410 -0.5058  0.0838
41621TIP3    H125745   1.499  10.270   6.240  1.1789 -1.3119 -1.9830
41621TIP3    H225746   1.432  10.147   6.181 -1.3508 -1.4465  0.9286
41622TIP3   OH225747   9.507   5.593   6.420 -0.1977  0.4204  0.0932
41622TIP3    H125748   9.489   5.669   6.365 -0.4786  0.8251  0.7293
41622TIP3    H225749   9.462   5.521   6.377 -1.4117  0.9623  0.4181
41623TIP3   OH225750   6.915   9.329   8.363  0.0540 -0.0933 -0.3375
41623TIP3    H125751   6.845   9.391   8.388 -0.1799 -0.9790  1.2910
41623TIP3    H225752   6.902   9.317   8.269  0.7253  3.0727 -0.9735
41624TIP3   OH225753   8.021   6.538   9.917  0.0188 -1.2889  0.7134
41624TIP3    H125754   8.024   6.443   9.913  1.2051 -1.2382 -0.2350
41624TIP3    H225755   7.973   6.564   9.838 -2.1466 -1.1258  1.9979
41625TIP3   OH225756   1.017   2.773   2.711  0.1023  0.0374  0.0411
41625TIP3    H125757   1.035   2.679   2.703  0.0343 -0.1544  1.7953
41625TIP3    H225758   0.922   2.780   2.700  0.4094  0.4240 -3.8724
41626TIP3   OH225759   6.600   2.360   0.325  0.2564 -0.1387 -0.8562
41626TIP3    H125760   6.615   2.307   0.404 -0.1002 -1.0065 -1.3490
41626TIP3    H225761   6.639   2.309   0.255 -0.7912 -0.1455 -1.4622
41627TIP3   OH225762   2.311   0.923   3.557  0.2483 -0.2464 -0.2133
41627TIP3    H125763   2.262   0.849   3.593  1.6377 -0.5737  1.1159
41627TIP3    H225764   2.246   0.993   3.549 -0.5233 -0.7639  1.2091
41628TIP3   OH225765   6.344   8.204   0.702  0.5568 -0.1048  0.2024
41628TIP3    H125766   6.299   8.282   0.735  1.9989 -0.5294  3.6106
41628TIP3    H225767   6.413   8.239   0.645 -1.6896  0.7160 -2.2369
41629TIP3   OH225768  10.311   4.258   3.646  0.7044  0.3061  0.1946
41629TIP3    H125769  10.403   4.275   3.667  0.7524  1.4736 -0.8928
41629TIP3    H225770  10.298   4.296   3.559  0.3155 -3.6164 -1.6798
41630TIP3   OH225771   8.499   2.299   5.244 -0.9229 -0.2672  0.2079
41630TIP3    H125772   8.478   2.220   5.194 -2.1564 -0.3070  0.7352
41630TIP3    H225773   8.513   2.366   5.178  0.1376 -0.9080 -0.2483
41631TIP3   OH225774   2.006   7.083   5.140 -0.3849 -0.6357 -0.0241
41631TIP3    H125775   1.931   7.058   5.194  0.6066 -3.1766  0.2881
41631TIP3    H225776   2.054   7.147   5.194 -1.7135  0.2214  0.2001
41632TIP3   OH225777   9.533   8.020   2.006 -0.4255  0.1923  0.3197
41632TIP3    H125778   9.528   7.926   1.990 -0.1340  0.4144 -1.2917
41632TIP3    H225779   9.600   8.029   2.074  1.0674 -0.6686 -0.9541
41633TIP3   OH225780   4.127   1.424   3.100 -0.0321  0.3070 -0.0746
41633TIP3    H125781   4.129   1.334   3.066  1.2504 -0.5964  2.1772
41633TIP3    H225782   4.034   1.446   3.103 -0.3218 -0.5445 -1.5979
41634TIP3   OH225783   1.426   4.976   3.436  0.0650  0.2629  0.2903
41634TIP3    H125784   1.364   5.014   3.499 -1.3121 -0.6896 -0.4209
41634TIP3    H225785   1.484   5.048   3.413  0.0352  0.8603  1.9617
41635TIP3   OH225786   4.782   8.372   0.137 -0.5202 -0.2290  0.4846
41635TIP3    H125787   4.831   8.375   0.055  0.3508 -0.0416  1.0002
41635TIP3    H225788   4.794   8.282   0.169  2.4296  0.6913  2.3235
41636TIP3   OH225789   7.391   9.836   3.320 -0.3124  0.4090  0.1738
41636TIP3    H125790   7.337   9.829   3.241 -0.7790  1.2388  0.4024
41636TIP3    H225791   7.339   9.793   3.388  1.3389 -2.9978 -0.4843
41637TIP3   OH225792   0.253   4.508   3.433 -0.0337 -0.5993  0.4032
41637TIP3    H125793   0.195   4.559   3.375 -0.1352 -0.8420  0.2924
41637TIP3    H225794   0.195   4.449   3.480  0.1393 -0.9350  0.1960
41638TIP3   OH225795   6.174   4.773   0.421  0.1558 -0.0002  0.1119
41638TIP3    H125796   6.259   4.816   0.421 -0.2234  0.7640 -0.1078
41638TIP3    H225797   6.154   4.760   0.514  0.3607  0.1185  0.1740
41639TIP3   OH225798   3.605   6.375   8.818 -0.0575  0.1300  0.3682
41639TIP3    H125799   3.534   6.430   8.787  1.1104  1.1624 -0.5651
41639TIP3    H225800   3.621   6.313   8.747  0.4316  0.3606  0.2706
41640TIP3   OH225801   5.000   9.761   1.049 -0.5790 -0.8883  0.0364
41640TIP3    H125802   5.054   9.789   1.124 -0.3872  0.4394 -0.5592
41640TIP3    H225803   4.954   9.683   1.080  0.8188 -1.3980  0.9468
41641TIP3   OH225804   4.918   4.188   2.528  0.1387  0.3477 -0.0901
41641TIP3    H125805   5.012   4.167   2.528 -0.4995 -3.2522  0.1446
41641TIP3    H225806   4.893   4.187   2.436 -0.0704 -1.5104 -0.0647
41642TIP3   OH225807   3.618   4.173   5.868  0.1741 -0.3967  0.0085
41642TIP3    H125808   3.601   4.179   5.774  2.1001 -0.7016 -0.3944
41642TIP3    H225809   3.578   4.252   5.905  0.1008  0.1346 -1.1652
41643TIP3   OH225810   5.014   9.005   0.885 -0.1798 -0.1343  0.0842
41643TIP3    H125811   5.008   9.007   0.981 -2.2263 -1.2278  0.0384
41643TIP3    H225812   4.975   9.087   0.857  1.7784  0.8896  0.1577
41644TIP3   OH225813   6.962   2.298   4.802 -0.2412  0.0592  0.6018
41644TIP3    H125814   7.008   2.380   4.821  0.4816 -0.2017  0.0209
41644TIP3    H225815   7.002   2.234   4.861  2.2688 -0.8397 -1.8610
41645TIP3   OH225816  10.903   1.473   1.246  0.4890  0.1745  0.4355
41645TIP3    H125817  10.939   1.414   1.312  0.0949 -1.0959 -0.4325
41645TIP3    H225818  10.809   1.455   1.245  0.3678  0.7871  0.1232
41646TIP3   OH225819   8.210   4.869   7.801  0.3386 -0.0923  0.9621
41646TIP3    H125820   8.290   4.910   7.768 -0.4533  1.3637  0.7541
41646TIP3    H225821   8.154   4.861   7.724  0.9540 -2.9815  0.6747
41647TIP3   OH225822   2.242   5.046   8.761 -0.3257  0.2191  0.0722
41647TIP3    H125823   2.296   4.977   8.720 -0.0564  0.6004 -0.2240
41647TIP3    H225824   2.280   5.128   8.729 -0.5664  0.5095  0.5263
41648TIP3   OH225825   1.497   3.743  10.113  0.1900  0.2663 -0.3354
41648TIP3    H125826   1.420   3.686  10.125 -1.4351  2.4826  0.3996
41648TIP3    H225827   1.462   3.820  10.069  1.9856  1.4208  0.1927
41649TIP3   OH225828   3.948   1.943   8.843 -0.2601  0.1481  0.4675
41649TIP3    H125829   3.970   2.034   8.866 -0.7783 -0.4360  3.8184
41649TIP3    H225830   3.859   1.931   8.876  0.2476 -1.8880  1.2249
41650TIP3   OH225831   0.883   4.851   7.188  0.1902  0.1978  0.0446
41650TIP3    H125832   0.831   4.890   7.258 -0.5176  2.0406 -1.4545
41650TIP3    H225833   0.945   4.793   7.234 -1.7478 -0.4416  2.0080
41651TIP3   OH225834   2.254   4.780   9.363  1.0205  0.2339 -0.2766
41651TIP3    H125835   2.271   4.782   9.457 -0.8053 -0.1899  0.0982
41651TIP3    H225836   2.309   4.850   9.327  1.6419  0.4898  1.1174
41652TIP3   OH225837   1.705   4.740   4.002 -0.5239  0.2356  0.1088
41652TIP3    H125838   1.631   4.699   3.957 -0.9745  1.1226  0.0234
41652TIP3    H225839   1.776   4.676   3.996 -1.6346 -1.1605  1.2596
41653TIP3   OH225840   9.048   4.856   0.957  0.1905 -0.1251  0.0359
41653TIP3    H125841   9.001   4.889   1.033  1.1904 -0.5625  0.8809
41653TIP3    H225842   9.071   4.934   0.907 -1.2517  0.1047 -0.3119
41654TIP3   OH225843   5.864   2.346   0.951 -0.0434  0.2952 -0.2231
41654TIP3    H125844   5.884   2.388   0.868 -1.1575  1.3491  0.0071
41654TIP3    H225845   5.872   2.416   1.016 -0.5695 -0.1722  0.3617
41655TIP3   OH225846   7.694   3.468   1.559  0.1263  0.1793  0.0350
41655TIP3    H125847   7.769   3.527   1.559  0.2336  0.0533  0.8002
41655TIP3    H225848   7.730   3.383   1.585 -0.5872  0.5632  2.5210
41656TIP3   OH225849   6.908   7.472   5.663 -0.4444 -0.7024 -0.3722
41656TIP3    H125850   6.986   7.504   5.616 -0.3428 -1.4411 -0.7254
41656TIP3    H225851   6.912   7.377   5.652 -0.3363 -0.9175  1.2692
41657TIP3   OH225852   9.498   4.213   0.508 -0.0661  0.0141 -0.0137
41657TIP3    H125853   9.473   4.207   0.600 -0.2765  0.3511 -0.0483
41657TIP3    H225854   9.578   4.265   0.509  2.2814 -3.2634  0.3791
41658TIP3   OH225855   1.669   7.598   0.372  0.4423 -0.1677  0.1920
41658TIP3    H125856   1.612   7.603   0.295  0.7229  0.0019 -0.0087
41658TIP3    H225857   1.620   7.644   0.440 -0.2989 -1.2942  0.4336
41659TIP3   OH225858   1.617   6.968   6.023  0.5984  0.0975 -0.9097
41659TIP3    H125859   1.583   6.884   5.992 -0.5666  0.3919 -0.4638
41659TIP3    H225860   1.618   7.023   5.945  0.8304 -0.1568 -1.0897
41660TIP3   OH225861  10.850   5.070   7.376 -0.4341 -0.1927 -0.1637
41660TIP3    H125862  10.923   5.076   7.315  0.3848  1.1273  0.8892
41660TIP3    H225863  10.780   5.120   7.333 -0.6484 -1.2185 -1.0443
41661TIP3   OH225864   2.884   5.933   6.385 -0.3422  0.2442  0.3870
41661TIP3    H125865   2.926   5.988   6.451  0.7385 -1.4178  1.1522
41661TIP3    H225866   2.881   5.846   6.424  1.6956 -1.1584 -2.2738
41662TIP3   OH225867   8.749   1.259   8.610  0.1159 -0.1354 -0.4820
41662TIP3    H125868   8.684   1.230   8.545  0.2771 -0.5115 -0.4778
41662TIP3    H225869   8.761   1.183   8.667  0.2237  0.0855 -0.2114
41663TIP3   OH225870   5.280   0.960   5.159  0.0270  0.2531  0.2784
41663TIP3    H125871   5.307   0.871   5.140  1.0508  0.3243  1.2806
41663TIP3    H225872   5.258   0.998   5.074  0.1309 -0.7694 -0.2106
41664TIP3   OH225873   0.673   9.185   7.089 -0.2102 -0.1404  0.1973
41664TIP3    H125874   0.582   9.176   7.061 -0.6792 -0.8141  1.8011
41664TIP3    H225875   0.668   9.185   7.185  1.3784  0.9573  0.3119
41665TIP3   OH225876   0.919  10.761  10.349 -0.0241  0.2013  0.1510
41665TIP3    H125877   0.941  10.698  10.418  0.0665 -1.9002 -1.7124
41665TIP3    H225878   0.997  10.765  10.294 -0.2776  1.4668 -0.1643
41666TIP3   OH225879  10.542   6.433   6.414 -0.6150  0.5726 -0.0969
41666TIP3    H125880  10.488   6.377   6.470 -0.1479 -0.1792 -0.3783
41666TIP3    H225881  10.573   6.502   6.472 -0.2391 -0.1246  0.5530
41667TIP3   OH225882   9.279  10.517   8.700  0.3061  0.2891 -0.1215
41667TIP3    H125883   9.225  10.491   8.775  2.0230 -1.5174  0.5595
41667TIP3    H225884   9.272  10.445   8.638  1.8939  0.0195 -0.0273
41668TIP3   OH225885   9.076  10.501   7.030 -0.1594  0.3008 -0.1092
41668TIP3    H125886   9.081  10.406   7.040 -1.5346  0.0797 -1.1462
41668TIP3    H225887   9.132  10.536   7.099 -1.2652 -1.2185  1.6606
41669TIP3   OH225888   4.377   8.890   2.109 -0.3644  0.3100 -0.0729
41669TIP3    H125889   4.387   8.983   2.085  0.3296  0.2661  0.0356
41669TIP3    H225890   4.291   8.866   2.074 -0.9646  1.2405  0.7077
41670TIP3   OH225891   5.395   9.453   1.414 -0.0061  0.7790 -0.1341
41670TIP3    H125892   5.442   9.482   1.336  2.3758 -2.7515 -0.2769
41670TIP3    H225893   5.417   9.519   1.481 -1.8002  3.6736 -2.1693
41671TIP3   OH225894   5.130   3.857   1.638  0.1079  0.3724  0.1316
41671TIP3    H125895   5.097   3.885   1.553  1.0733  0.5791 -0.1832
41671TIP3    H225896   5.074   3.901   1.701 -0.6551  0.1731 -0.3915
41672TIP3   OH225897   5.575   9.846   5.094 -0.0255  0.2387  0.3663
41672TIP3    H125898   5.600   9.932   5.128 -1.9177  0.6873  0.7206
41672TIP3    H225899   5.649   9.820   5.039  0.7689  1.9051  0.5783
41673TIP3   OH225900   8.537   6.020   5.618  0.3987 -0.2457  0.0513
41673TIP3    H125901   8.488   5.991   5.541  0.1590  0.1219  0.0664
41673TIP3    H225902   8.588   6.094   5.588 -0.8817  0.9098  0.6117
41674TIP3   OH225903   2.339   1.149   8.592  0.5310 -0.2658 -0.3001
41674TIP3    H125904   2.291   1.066   8.592  0.8016 -0.4215 -0.5648
41674TIP3    H225905   2.380   1.154   8.506  0.3334  0.2520 -0.3708
41675TIP3   OH225906   9.432   1.636   7.279 -0.8821  0.3249 -0.5452
41675TIP3    H125907   9.378   1.670   7.351 -1.5839 -2.9147  0.6148
41675TIP3    H225908   9.519   1.629   7.316 -0.7877  0.5812 -0.7113
41676TIP3   OH225909   1.240   9.170   5.938  0.2402  0.1509  0.0622
41676TIP3    H125910   1.283   9.255   5.946 -0.4947  0.7669 -1.8359
41676TIP3    H225911   1.157   9.180   5.984  0.5087  0.1692  0.5527
41677TIP3   OH225912   7.361   2.743   5.562  0.7337 -0.2769 -0.4099
41677TIP3    H125913   7.382   2.651   5.579 -0.1920 -0.3916  0.2203
41677TIP3    H225914   7.324   2.774   5.645  0.2671  0.4287 -0.8775
41678TIP3   OH225915   7.931   5.585   4.207  0.2288 -0.2654 -0.1679
41678TIP3    H125916   7.873   5.574   4.132  0.9425 -0.0798 -0.7507
41678TIP3    H225917   7.872   5.587   4.283 -0.4064 -1.8765 -0.5742
41679TIP3   OH225918   2.894   9.961   8.570 -0.1337 -0.1686 -0.2802
41679TIP3    H125919   2.902   9.916   8.654 -2.0971  0.6039  0.3784
41679TIP3    H225920   2.875  10.052   8.593 -2.8511 -0.3439 -1.4631
41680TIP3   OH225921   0.586   0.115   5.028 -0.0278  0.1376 -0.6096
41680TIP3    H125922   0.579   0.201   5.070 -0.6228  0.5275 -1.4762
41680TIP3    H225923   0.676   0.088   5.045  0.2308  1.0222 -0.5016
41681TIP3   OH225924   8.687   8.296   6.100 -0.3711 -0.1611 -0.0078
41681TIP3    H125925   8.754   8.295   6.031 -0.0196  1.3659  0.2583
41681TIP3    H225926   8.604   8.305   6.052 -0.4210 -2.0669 -0.3370
41682TIP3   OH225927   4.972  10.325   4.479  0.2629  0.3492  1.0000
41682TIP3    H125928   4.882  10.337   4.450 -0.3645 -0.8992  2.3127
41682TIP3    H225929   4.964  10.283   4.565  2.1011 -0.6918  0.7124
41683TIP3   OH225930   0.106   5.884   3.613 -0.0848  0.5748 -0.3810
41683TIP3    H125931   0.180   5.825   3.630  0.0922  0.8342 -0.2406
41683TIP3    H225932   0.145   5.971   3.611 -0.2211  0.6271 -1.3645
41684TIP3   OH225933   7.712   3.049   1.304 -0.0077  0.1540 -0.1282
41684TIP3    H125934   7.654   3.125   1.305 -0.7285 -0.3654 -0.8007
41684TIP3    H225935   7.774   3.067   1.234  1.3396  1.1808  1.2596
41685TIP3   OH225936   6.776   2.256   5.428 -0.0759 -0.6600  0.6671
41685TIP3    H125937   6.742   2.295   5.347 -0.6192  1.3041  1.7706
41685TIP3    H225938   6.756   2.162   5.420 -1.6538 -0.2543 -0.7405
41686TIP3   OH225939   9.778   5.784   5.513  0.0530 -0.0093 -0.2253
41686TIP3    H125940   9.769   5.767   5.607  1.1263 -1.3560 -0.3316
41686TIP3    H225941   9.798   5.877   5.507 -1.4805  0.4133  0.7620
41687TIP3   OH225942  10.220   4.100   3.354 -0.0468 -0.2143 -0.0826
41687TIP3    H125943  10.188   4.019   3.396 -0.1979  0.4487  1.1110
41687TIP3    H225944  10.303   4.118   3.398 -0.3741  0.6725  0.1836
41688TIP3   OH225945   4.905   9.267   0.917  0.3804  0.3299  0.4886
41688TIP3    H125946   4.842   9.308   0.976  0.8029  1.7514 -0.0014
41688TIP3    H225947   4.991   9.290   0.953  0.6355  0.5050 -0.2001
41689TIP3   OH225948   1.203   5.431   0.883  0.2514  0.1094  0.3081
41689TIP3    H125949   1.248   5.347   0.883  0.3895  0.1569  2.0411
41689TIP3    H225950   1.213   5.463   0.793  0.5752 -1.5021 -0.2629
41690TIP3   OH225951   0.609   9.969   6.251  0.0367  0.2522  0.0359
41690TIP3    H125952   0.675   9.978   6.182  0.0387 -1.4359 -0.2424
41690TIP3    H225953   0.648  10.011   6.327  1.5495 -0.8358 -0.0750
41691TIP3   OH225954   8.857   1.174   2.112 -0.1271 -0.2863 -0.4741
41691TIP3    H125955   8.943   1.217   2.112  0.5661 -1.2289 -4.6144
41691TIP3    H225956   8.795   1.244   2.088 -0.1939 -0.0459  0.3914
41692TIP3   OH225957   9.532   8.606   3.716  0.1782  0.5534  0.4752
41692TIP3    H125958   9.579   8.682   3.750 -1.6100  1.9332  0.0959
41692TIP3    H225959   9.559   8.601   3.624  2.5330 -1.1598  1.1868
41693TIP3   OH225960   2.064   0.272   8.169 -0.3300 -0.2947  0.0514
41693TIP3    H125961   1.979   0.246   8.133 -0.1046  2.0023 -2.4325
41693TIP3    H225962   2.128   0.225   8.115 -0.0210  0.8212 -0.5797
41694TIP3   OH225963   2.184   4.054   9.676  0.8233 -0.9883 -0.4397
41694TIP3    H125964   2.121   4.057   9.603  0.5939 -0.9055 -0.2388
41694TIP3    H225965   2.130   4.046   9.754  1.0128  0.1497 -0.1741
41695TIP3   OH225966   4.790   7.013   2.953  0.1584 -0.0702  0.0081
41695TIP3    H125967   4.835   6.986   3.032  2.2581 -1.7558 -1.6294
41695TIP3    H225968   4.726   6.943   2.937  0.3326 -0.1823 -0.2132
41696TIP3   OH225969   9.283   9.067  10.797  0.0127 -0.4217  0.2707
41696TIP3    H125970   9.198   9.108  10.810  0.4431  0.1377  1.5011
41696TIP3    H225971   9.278   8.986  10.848 -0.4816 -1.4556 -1.3395
41697TIP3   OH225972  10.891   8.421   0.659 -0.1597  0.4093  0.0775
41697TIP3    H125973  10.845   8.368   0.595  0.0428 -0.3484  0.5470
41697TIP3    H225974  10.927   8.358   0.722 -0.5132  1.1352  1.0391
41698TIP3   OH225975   2.023   4.586   8.455  0.2022 -0.3525 -0.1099
41698TIP3    H125976   2.071   4.667   8.472  0.6456 -0.7433  0.5425
41698TIP3    H225977   1.941   4.614   8.414  0.4962  0.3993 -0.1885
41699TIP3   OH225978   7.421   7.950   6.504 -0.0750 -0.2654 -0.5501
41699TIP3    H125979   7.509   7.914   6.501 -0.1475 -0.3662 -2.2321
41699TIP3    H225980   7.363   7.874   6.515  0.0165 -0.2300  0.2217
41700TIP3   OH225981   9.413   3.799   6.801 -0.3264  0.6307 -0.1278
41700TIP3    H125982   9.439   3.866   6.864 -0.6881  1.6421 -1.0211
41700TIP3    H225983   9.470   3.813   6.726 -1.9026  1.4820 -1.2464
41701TIP3   OH225984   9.717   8.156   0.073  0.2156 -0.1037  0.0481
41701TIP3    H125985   9.627   8.131   0.052  0.1288 -2.0985  2.3581
41701TIP3    H225986   9.754   8.080   0.117  3.0135  0.7334 -0.6103
41702TIP3   OH225987   3.343   8.020   0.193 -1.0190 -0.6970  0.0673
41702TIP3    H125988   3.315   8.101   0.150 -1.3766 -0.7547  0.1877
41702TIP3    H225989   3.431   8.004   0.161 -0.3038  0.6149  1.2803
41703TIP3   OH225990   7.243   3.275   2.734  0.0244  0.4108  0.7375
41703TIP3    H125991   7.297   3.217   2.787 -0.2361  0.1060  0.6683
41703TIP3    H225992   7.244   3.236   2.646  0.1947  0.7396  0.5912
41704TIP3   OH225993   5.014   0.688   5.876 -0.2767  0.1172 -0.2568
41704TIP3    H125994   4.994   0.763   5.932 -4.4794 -0.4155 -0.7267
41704TIP3    H225995   4.928   0.654   5.850  1.4236 -3.8930 -1.3945
41705TIP3   OH225996   8.509   6.673   5.488 -0.4697  0.5049 -0.1450
41705TIP3    H125997   8.415   6.660   5.480 -0.7461  2.4533 -0.3376
41705TIP3    H225998   8.546   6.630   5.411 -1.3668  1.3669 -1.0766
41706TIP3   OH225999   0.154   8.560   9.001  0.3320  0.2051  0.1982
41706TIP3    H126000   0.124   8.629   8.942 -0.0215 -0.4277 -0.3760
41706TIP3    H226001   0.247   8.576   9.013  0.4539  0.2011 -0.7237
41707TIP3   OH226002   3.395   4.195   2.436 -0.4302 -0.5252  0.0247
41707TIP3    H126003   3.321   4.134   2.436  1.4630 -2.9952  0.2319
41707TIP3    H226004   3.460   4.154   2.494  0.7413  2.0509  0.6909
41708TIP3   OH226005   6.020   2.185   3.232 -0.2538 -0.3511  0.5355
41708TIP3    H126006   6.046   2.276   3.251 -0.5197 -0.3832  1.0685
41708TIP3    H226007   6.005   2.184   3.137 -1.3143  0.4415  0.6793
41709TIP3   OH226008  10.236   4.420   8.449 -0.1790  0.2959  0.1499
41709TIP3    H126009  10.283   4.492   8.491  0.0650  0.2048  0.0321
41709TIP3    H226010  10.146   4.427   8.483  0.6045 -1.4513  2.8637
41710TIP3   OH226011   5.619   9.722   3.894  0.3879  0.1449  0.3332
41710TIP3    H126012   5.642   9.814   3.907  1.1680  0.2742 -1.6103
41710TIP3    H226013   5.569   9.720   3.813  1.2521 -1.2378 -0.2207
41711TIP3   OH226014   5.600   5.320   2.418 -0.5713  0.2626  0.0802
41711TIP3    H126015   5.512   5.291   2.394 -0.1713 -0.4591 -0.5510
41711TIP3    H226016   5.651   5.310   2.338  0.5267 -1.0886  0.9014
41712TIP3   OH226017   2.661   8.245   6.344  0.3450 -0.2139  0.2899
41712TIP3    H126018   2.707   8.162   6.362  1.8965  0.6781  0.5931
41712TIP3    H226019   2.686   8.267   6.255 -0.3213 -0.2220  0.0988
41713TIP3   OH226020   9.341   3.625   0.185 -0.0535 -0.3647 -0.1638
41713TIP3    H126021   9.382   3.695   0.135  0.2300  1.3879  2.3214
41713TIP3    H226022   9.249   3.651   0.191  0.2229  0.3823  1.5343
41714TIP3   OH226023   1.960   9.068   7.375 -0.4691 -0.2179 -0.5332
41714TIP3    H126024   2.012   8.987   7.372  0.3870  0.3243 -3.0060
41714TIP3    H226025   1.871   9.039   7.392  0.0490 -1.5486  0.0097
41715TIP3   OH226026   9.050   2.785  10.546  0.2353 -0.1111 -0.1415
41715TIP3    H126027   9.115   2.785  10.617  0.4671  1.0261 -0.3300
41715TIP3    H226028   9.017   2.875  10.543 -0.6010 -0.4208 -0.7338
41716TIP3   OH226029   2.421   5.824   4.167 -0.2862  0.2716  1.0894
41716TIP3    H126030   2.445   5.829   4.259  2.3486  0.6060  0.4709
41716TIP3    H226031   2.459   5.903   4.128  0.8268 -1.0336 -0.6716
41717TIP3   OH226032   4.829   9.234  10.834  0.3750 -0.2785 -0.6278
41717TIP3    H126033   4.835   9.142  10.809  0.0030 -0.1039 -1.4029
41717TIP3    H226034   4.871   9.281  10.761  2.3527  0.0711  0.6542
41718TIP3   OH226035   7.225   7.931   3.655  0.4168  0.1509  0.0808
41718TIP3    H126036   7.302   7.878   3.636  0.0910 -0.5630  0.6992
41718TIP3    H226037   7.182   7.942   3.570 -0.7147 -2.4947  0.2049
41719TIP3   OH226038   3.543   4.073   9.635  0.4995  0.2642 -0.0104
41719TIP3    H126039   3.566   3.980   9.636 -0.2500  0.0337 -1.7378
41719TIP3    H226040   3.621   4.117   9.601  1.3795  0.4738  2.1399
41720TIP3   OH226041   8.164   6.301   8.651  0.4032  0.0346 -0.3355
41720TIP3    H126042   8.254   6.277   8.627  0.6378 -0.0744  0.5973
41720TIP3    H226043   8.131   6.349   8.575  1.7462  1.3367 -0.1505
41721TIP3   OH226044   9.138   6.283   5.156 -0.2762  0.5106 -0.0951
41721TIP3    H126045   9.079   6.219   5.116 -1.2063  1.4131 -0.2170
41721TIP3    H226046   9.162   6.341   5.084  1.7538 -0.5197 -0.3243
41722TIP3   OH226047   1.798   1.235   2.661  0.0049 -0.3369  0.2418
41722TIP3    H126048   1.705   1.238   2.682 -0.1747  2.7245 -0.5103
41722TIP3    H226049   1.801   1.230   2.565  0.4515  3.0440 -0.0234
41723TIP3   OH226050   1.736   3.716   7.476 -0.3477 -0.2166  0.4054
41723TIP3    H126051   1.682   3.785   7.438 -0.7729 -0.7011  0.1071
41723TIP3    H226052   1.683   3.637   7.466  0.8720 -0.9187 -0.9805
41724TIP3   OH226053   1.811   2.184   9.784  0.1400  0.2555 -0.2260
41724TIP3    H126054   1.861   2.182   9.866 -0.4716 -0.4570  0.1414
41724TIP3    H226055   1.738   2.242   9.801  1.7810  2.8461 -1.3641
41725TIP3   OH226056   6.664   9.284   4.497 -0.2041 -0.7476  0.0988
41725TIP3    H126057   6.604   9.358   4.500 -0.4384 -0.9342  0.0750
41725TIP3    H226058   6.710   9.287   4.581  2.0362  1.2418 -1.0647
41726TIP3   OH226059  10.741   5.568   1.462 -0.5239 -0.3897  0.0558
41726TIP3    H126060  10.764   5.500   1.525 -0.7434 -2.7852 -2.2896
41726TIP3    H226061  10.798   5.551   1.387 -1.1271  1.5824 -0.9097
41727TIP3   OH226062   6.472   8.611   9.819  0.4903 -0.2198 -0.0437
41727TIP3    H126063   6.528   8.623   9.896  2.6408  0.8364 -1.6547
41727TIP3    H226064   6.413   8.687   9.820  0.6514 -0.0980  0.4286
41728TIP3   OH226065   7.648   8.121   3.182  0.1258 -0.3254 -0.6145
41728TIP3    H126066   7.557   8.121   3.212  0.2272 -1.2789 -0.2641
41728TIP3    H226067   7.684   8.204   3.213 -1.0450  0.7691 -2.1020
41729TIP3   OH226068   4.247   5.271   5.555 -0.1911  0.4188  0.1052
41729TIP3    H126069   4.171   5.242   5.504 -0.9277 -0.5208  1.6568
41729TIP3    H226070   4.288   5.339   5.501 -1.9417  0.7189 -0.9184
41730TIP3   OH226071   9.544   3.525   2.154  0.2698  0.1537 -0.0326
41730TIP3    H126072   9.508   3.573   2.080  0.3123  0.4153  0.1114
41730TIP3    H226073   9.512   3.435   2.144  0.7945  0.0408 -0.7114
41731TIP3   OH226074   7.381   5.482   2.519  0.7867 -0.0452 -0.2816
41731TIP3    H126075   7.302   5.429   2.526 -0.5055  1.8789  0.7031
41731TIP3    H226076   7.422   5.476   2.606  1.4270 -0.5713 -0.6127
41732TIP3   OH226077   9.032   5.996   4.068  0.2832 -0.2756  0.4012
41732TIP3    H126078   9.013   5.971   3.978  0.9029 -0.0462  0.1980
41732TIP3    H226079   9.122   5.965   4.083  0.0550 -0.6446  1.0618
41733TIP3   OH226080  10.892   9.859   2.953 -0.1503  0.0163 -0.1255
41733TIP3    H126081  10.986   9.846   2.964 -0.2303 -0.0849  0.4248
41733TIP3    H226082  10.878   9.952   2.971  0.1361  0.5167 -2.2139
41734TIP3   OH226083   5.119   8.437   8.514 -0.1403  0.6073 -0.1904
41734TIP3    H126084   5.056   8.393   8.457 -0.1100 -0.5260  0.6081
41734TIP3    H226085   5.194   8.378   8.518 -0.2043  0.5762  1.1142
41735TIP3   OH226086   6.723   7.803   8.446  0.4561  0.4164 -0.3203
41735TIP3    H126087   6.795   7.850   8.488  0.5933 -0.7073  0.7716
41735TIP3    H226088   6.763   7.757   8.373  0.7384  0.2216 -0.0405
41736TIP3   OH226089   4.043  10.669   0.603  0.3398  0.1229  0.0169
41736TIP3    H126090   4.134  10.640   0.606  0.0692 -0.8904 -0.9619
41736TIP3    H226091   4.044  10.757   0.642  1.8365  0.3992 -0.6060
41737TIP3   OH226092   4.263   8.954   1.294  0.3760  0.0007  0.3790
41737TIP3    H126093   4.355   8.961   1.319  0.6472 -0.6156 -0.4090
41737TIP3    H226094   4.235   9.044   1.282  1.4943  0.1548 -1.4879
41738TIP3   OH226095   2.444   2.336   3.899  0.1944 -0.0889 -0.0607
41738TIP3    H126096   2.474   2.407   3.842 -1.3903  0.5859 -0.0976
41738TIP3    H226097   2.518   2.320   3.958  0.4280  1.9297  0.2681
41739TIP3   OH226098   9.527   7.999   4.441 -0.7600 -0.0267 -0.5594
41739TIP3    H126099   9.575   7.957   4.369  2.0821  0.3880  0.9379
41739TIP3    H226100   9.564   8.087   4.446 -0.3131 -0.2835  1.8311
41740TIP3   OH226101   2.238   6.064   3.951  0.1276 -0.3914  0.2183
41740TIP3    H126102   2.321   6.046   3.994 -1.1789 -0.7592  2.7734
41740TIP3    H226103   2.239   6.159   3.936  1.6977 -0.6236 -1.4708
41741TIP3   OH226104  10.209   0.448   8.059  0.3230  0.0815 -0.4585
41741TIP3    H126105  10.225   0.479   7.970 -1.5807  1.6226 -0.3122
41741TIP3    H226106  10.142   0.381   8.049  0.9628 -0.6089 -0.2645
41742TIP3   OH226107   9.246   0.765   6.767  0.4498  0.0060  0.2082
41742TIP3    H126108   9.324   0.720   6.799  1.1972  0.1137 -1.3282
41742TIP3    H226109   9.278   0.815   6.691 -0.4848  2.4986  1.3362
41743TIP3   OH226110   9.102   9.125   9.288 -0.4103 -0.2702  0.2099
41743TIP3    H126111   9.180   9.157   9.244 -0.3897 -0.4597  0.1078
41743TIP3    H226112   9.127   9.118   9.381  0.1281 -1.6152 -0.0063
41744TIP3   OH226113   2.121   6.212   7.829  0.2061  0.0686 -0.1204
41744TIP3    H126114   2.154   6.136   7.877  0.1016 -0.1457 -0.3871
41744TIP3    H226115   2.126   6.186   7.737 -0.7539  0.0076 -0.1689
41745TIP3   OH226116   9.320   2.601   1.240  0.0753  0.1197  0.2032
41745TIP3    H126117   9.384   2.672   1.239  0.2526  0.0118  1.5365
41745TIP3    H226118   9.318   2.569   1.150  0.5796  1.2843 -0.2437
41746TIP3   OH226119  10.332   0.779   5.059  1.0008  0.3822 -0.4489
41746TIP3    H126120  10.355   0.686   5.054  0.2008  0.0460  1.2762
41746TIP3    H226121  10.412   0.821   5.092  0.7353 -0.0511  0.8273
41747TIP3   OH226122   6.401   9.220   5.674  0.3166 -0.4339  0.5513
41747TIP3    H126123   6.377   9.286   5.610 -0.6642 -1.1710  0.1260
41747TIP3    H226124   6.317   9.186   5.706  0.7407  0.4409  2.8053
41748TIP3   OH226125   7.480   9.793   6.739 -0.0728  0.5760  0.4037
41748TIP3    H126126   7.561   9.758   6.777 -0.9777 -0.9909  0.9893
41748TIP3    H226127   7.474   9.882   6.772  1.5693  0.8405  0.0745
41749TIP3   OH226128   4.526   0.778   1.759  0.1799  0.2606 -0.3671
41749TIP3    H126129   4.550   0.739   1.675  0.6785  0.3002 -0.2416
41749TIP3    H226130   4.554   0.869   1.752  1.6088 -0.0962  0.4033
41750TIP3   OH226131   9.828   1.899   1.110  0.2359  0.6069 -0.0384
41750TIP3    H126132   9.760   1.955   1.072 -0.8558 -2.4107 -3.0673
41750TIP3    H226133   9.779   1.825   1.148  1.6971 -0.6890 -0.5700
41751TIP3   OH226134   5.701  10.682   7.727  0.1807  0.2970 -0.0922
41751TIP3    H126135   5.701  10.732   7.809 -3.9269  0.0214  0.2852
41751TIP3    H226136   5.670  10.745   7.662 -1.6195 -0.7355 -0.3032
41752TIP3   OH226137   1.988   1.135   5.581  0.0095 -0.8704 -0.2404
41752TIP3    H126138   2.081   1.115   5.593 -0.0145 -0.8242  0.0443
41752TIP3    H226139   1.987   1.214   5.527  0.1181 -1.3288 -0.9115
41753TIP3   OH226140   9.393   5.423   7.768  0.2799 -0.3241 -0.0009
41753TIP3    H126141   9.446   5.416   7.847 -0.6302 -2.2490  0.4871
41753TIP3    H226142   9.443   5.482   7.711  1.5539  0.1138  1.5005
41754TIP3   OH226143   9.417   2.531   4.369 -0.2543 -0.0955 -0.3938
41754TIP3    H126144   9.352   2.499   4.432 -0.5105 -0.2339 -0.7269
41754TIP3    H226145   9.414   2.469   4.297 -1.4663  1.1864 -1.5085
41755TIP3   OH226146   9.039   8.198   9.227  0.2992 -0.2621 -0.0814
41755TIP3    H126147   9.088   8.195   9.309  0.6543 -1.8616 -0.3099
41755TIP3    H226148   9.088   8.140   9.168  0.5429  1.5325 -1.7275
41756TIP3   OH226149   4.919   1.845   7.661 -0.0286 -0.4136  0.1192
41756TIP3    H126150   4.878   1.787   7.726  1.1760  0.3757  1.6572
41756TIP3    H226151   4.854   1.852   7.591 -1.5049 -1.1087  1.3491
41757TIP3   OH226152   7.945   5.811   7.755  0.4758 -0.1427 -0.1686
41757TIP3    H126153   7.965   5.857   7.673  1.1407 -3.0513 -1.7713
41757TIP3    H226154   7.864   5.851   7.787 -0.4871  0.2927 -2.9181
41758TIP3   OH226155   1.412   1.625   3.461  0.5329  0.3431 -0.0850
41758TIP3    H126156   1.505   1.604   3.455  0.1810 -1.5821  0.3141
41758TIP3    H226157   1.401   1.661   3.549  0.7785 -0.2815  0.2119
41759TIP3   OH226158   4.109   8.333  10.781 -0.2741 -0.4266 -0.4093
41759TIP3    H126159   4.030   8.382  10.758  0.2884 -0.0436 -1.5988
41759TIP3    H226160   4.175   8.400  10.798  0.1703 -0.7514 -0.8258
41760TIP3   OH226161  10.105   7.164   5.914 -0.1220  0.2477  1.0377
41760TIP3    H126162  10.087   7.258   5.909 -1.1805  0.0057 -1.0971
41760TIP3    H226163  10.196   7.155   5.887 -0.4190  0.5977 -0.1733
41761TIP3   OH226164  10.191   9.235   9.404  0.5072 -0.7164 -0.3634
41761TIP3    H126165  10.200   9.305   9.340  1.8606 -0.7862 -0.2623
41761TIP3    H226166  10.205   9.279   9.489 -1.0283 -0.6692 -0.0986
41762TIP3   OH226167   7.739   8.404   0.505  0.5759 -0.2585  0.2995
41762TIP3    H126168   7.772   8.387   0.417 -1.1996  1.2753 -0.7428
41762TIP3    H226169   7.777   8.489   0.529  0.1084 -0.0942  0.4864
41763TIP3   OH226170   6.616   7.359   8.601 -0.5845  0.0683  0.5395
41763TIP3    H126171   6.626   7.286   8.540 -0.7296  0.3077  0.2261
41763TIP3    H226172   6.639   7.322   8.686  0.1908 -0.1144  0.2596
41764TIP3   OH226173   7.175  10.342   3.215 -0.5443 -0.0750  0.4555
41764TIP3    H126174   7.180  10.379   3.127  0.3493  2.2303  1.3733
41764TIP3    H226175   7.118  10.402   3.263 -0.5515 -0.9570  1.5845
41765TIP3   OH226176   8.025   9.920   8.327  0.0649 -0.0613  0.2630
41765TIP3    H126177   8.046   9.983   8.395 -1.3553  0.8128 -0.0768
41765TIP3    H226178   8.047   9.835   8.366  0.7443  0.5267  1.2110
41766TIP3   OH226179   1.147   7.318   9.772  0.0874 -0.3957  0.1464
41766TIP3    H126180   1.106   7.232   9.780 -1.9948  0.5780  0.6632
41766TIP3    H226181   1.101   7.359   9.699  1.4983  0.0610 -0.5026
41767TIP3   OH226182   4.713   0.670  10.169  0.0161 -0.3522  0.7317
41767TIP3    H126183   4.636   0.624  10.134  0.2526  1.2324 -2.2371
41767TIP3    H226184   4.787   0.614  10.144  0.0449 -0.2571  0.6046
41768TIP3   OH226185   1.715   6.568   4.375  0.1364  0.1429  0.2432
41768TIP3    H126186   1.786   6.614   4.330 -2.1249  2.9763 -0.7516
41768TIP3    H226187   1.710   6.611   4.460 -0.8239  0.4761  0.0272
41769TIP3   OH226188   9.359   8.148   6.710 -0.1104 -0.0893 -0.1178
41769TIP3    H126189   9.267   8.159   6.686  0.3144 -0.6257 -2.2785
41769TIP3    H226190   9.407   8.200   6.645  1.1733 -1.3199 -0.2171
41770TIP3   OH226191   6.991   7.913   3.782 -0.3940 -0.2853 -0.2995
41770TIP3    H126192   7.011   7.847   3.848  0.7029  1.4517  1.1908
41770TIP3    H226193   7.060   7.904   3.716  1.4790  1.1910  1.3630
41771TIP3   OH226194   1.476   9.760   2.542  0.1385 -0.4017 -0.2650
41771TIP3    H126195   1.452   9.852   2.533  0.7177 -0.1890  0.2884
41771TIP3    H226196   1.481   9.745   2.636 -0.4526 -1.1426 -0.3347
41772TIP3   OH226197   5.128   2.860   1.055  0.2301  0.1119 -0.2903
41772TIP3    H126198   5.196   2.796   1.076 -0.5872 -0.5129  0.5116
41772TIP3    H226199   5.171   2.945   1.065  1.3974 -0.2862 -1.6107
41773TIP3   OH226200   8.918   5.207   5.623  0.0537  0.1677  0.3480
41773TIP3    H126201   8.958   5.151   5.557 -0.3641  1.0875 -0.7215
41773TIP3    H226202   8.985   5.273   5.642  1.1288 -1.4638  2.7097
41774TIP3   OH226203   7.730   9.079   4.514 -0.2529 -0.9563  0.2499
41774TIP3    H126204   7.776   9.081   4.598 -0.8862 -0.4120  0.5980
41774TIP3    H226205   7.638   9.096   4.537 -0.1304  1.5260 -0.7561
41775TIP3   OH226206   9.648   1.124   5.123  0.1600 -0.2886  0.0772
41775TIP3    H126207   9.655   1.029   5.114  1.2929 -0.1742 -0.4005
41775TIP3    H226208   9.577   1.148   5.064  0.6629 -0.7116 -0.7167
41776TIP3   OH226209   4.831   2.263   3.969 -0.3260 -0.5825  0.3018
41776TIP3    H126210   4.762   2.315   3.928 -0.0350 -0.5048 -0.0908
41776TIP3    H226211   4.829   2.179   3.922  1.1391  0.0968 -1.0502
41777TIP3   OH226212   7.612   7.525   1.404 -0.0164 -0.4362 -0.3265
41777TIP3    H126213   7.581   7.559   1.489 -1.2635  2.4395 -1.7931
41777TIP3    H226214   7.532   7.493   1.362  0.4167 -0.8497 -0.8284
41778TIP3   OH226215   7.912   5.062   0.934 -0.4989  0.5807  0.5945
41778TIP3    H126216   7.847   5.000   0.900 -0.7040  1.2132 -0.2145
41778TIP3    H226217   7.932   5.118   0.859  0.4645  0.8333  1.0286
41779TIP3   OH226218   3.568   9.753   5.278 -0.6644 -0.0045  0.1607
41779TIP3    H126219   3.522   9.833   5.303 -0.6600 -0.6115  2.2840
41779TIP3    H226220   3.503   9.684   5.290  0.1709 -0.6336  1.2304
41780TIP3   OH226221  10.691   3.020   7.498  0.2343  0.2823  0.5348
41780TIP3    H126222  10.715   3.027   7.406 -1.6742 -0.4136 -0.0536
41780TIP3    H226223  10.622   3.085   7.510 -2.2925 -2.2062  0.4199
41781TIP3   OH226224   9.099   3.436   6.230  0.7755 -0.6368  0.0420
41781TIP3    H126225   9.047   3.388   6.294  0.9178  1.1077  1.5556
41781TIP3    H226226   9.035   3.472   6.168  0.5900 -1.8398 -0.5000
41782TIP3   OH226227   7.712   6.013   7.056 -0.6061  0.3485  0.5797
41782TIP3    H126228   7.714   5.958   6.978 -1.3532  1.1849 -0.0455
41782TIP3    H226229   7.771   6.086   7.037 -0.5478  0.3953  0.9215
41783TIP3   OH226230   5.001   7.349   3.779 -0.0363 -0.1950  0.1653
41783TIP3    H126231   5.028   7.280   3.719  1.4250 -0.4362  1.0664
41783TIP3    H226232   4.939   7.306   3.838 -1.5808  0.0728 -1.1881
41784TIP3   OH226233   5.512   9.875   5.442  0.0943 -0.0263 -0.5540
41784TIP3    H126234   5.506   9.794   5.391 -0.8140  1.1151 -2.3726
41784TIP3    H226235   5.421   9.896   5.464  0.4649 -0.4875  1.6289
41785TIP3   OH226236   5.504   2.075   3.680  0.0921  0.1268 -0.5614
41785TIP3    H126237   5.593   2.045   3.701 -0.2199  0.0142  0.6586
41785TIP3    H226238   5.516   2.133   3.605  1.4987  1.7955  0.8556
41786TIP3   OH226239   1.587   0.319   6.539 -0.3733 -0.0478  0.1127
41786TIP3    H126240   1.518   0.262   6.506  0.5200 -0.9020 -0.3217
41786TIP3    H226241   1.653   0.259   6.575  1.4455  0.5584 -1.9844
41787TIP3   OH226242   4.779   0.531   1.868 -0.3825  0.0587  0.0241
41787TIP3    H126243   4.869   0.501   1.855  0.0815  1.4788 -0.1517
41787TIP3    H226244   4.734   0.505   1.788 -0.4126 -1.5867  0.5366
41788TIP3   OH226245   6.686   3.651  10.688  0.2843  0.1265 -0.0711
41788TIP3    H126246   6.629   3.674  10.761 -1.9939 -3.5915 -0.4273
41788TIP3    H226247   6.640   3.683  10.610  0.1215 -0.3585 -0.1777
41789TIP3   OH226248   0.431   3.322   4.054  0.4855 -0.3916 -0.4005
41789TIP3    H126249   0.377   3.320   4.133  0.4429 -3.1299 -0.4020
41789TIP3    H226250   0.470   3.409   4.054 -1.9641  0.8057  0.9223
41790TIP3   OH226251   1.363   8.276   0.352 -0.4154  0.2189 -0.0394
41790TIP3    H126252   1.405   8.204   0.306  0.0825 -0.6365  1.6810
41790TIP3    H226253   1.305   8.235   0.415 -0.4088  1.3082  0.7164
41791TIP3   OH226254   6.071   4.524   6.555  0.1223  0.0921 -0.2877
41791TIP3    H126255   6.125   4.445   6.550  1.4822  1.0321 -1.2245
41791TIP3    H226256   5.985   4.496   6.522  0.0459 -1.3924  1.0517
41792TIP3   OH226257   7.151   9.895   6.921  0.2236 -0.0507  0.0535
41792TIP3    H126258   7.138   9.801   6.904 -0.8843 -0.0586  0.8004
41792TIP3    H226259   7.071   9.922   6.967  0.7283  1.1651  0.2573
41793TIP3   OH226260   5.624  10.836   7.515  0.2549 -0.4019 -0.3908
41793TIP3    H126261   5.598  10.787   7.436  0.6523 -1.4939  0.1399
41793TIP3    H226262   5.595  10.926   7.497 -0.2620 -0.7620 -1.5012
41794TIP3   OH226263   6.576   4.024   0.319  0.5315  0.6449 -0.0343
41794TIP3    H126264   6.669   4.037   0.300  0.6322 -0.1767 -0.1218
41794TIP3    H226265   6.553   3.944   0.273  0.4712 -0.7317  2.2511
41795TIP3   OH226266   8.272   5.080   8.842  0.2961 -0.2657 -0.7822
41795TIP3    H126267   8.339   5.028   8.885  0.4083  0.6058  0.1371
41795TIP3    H226268   8.192   5.061   8.890  0.1887 -0.1643 -0.9202
41796TIP3   OH226269   5.520  10.133   6.822  0.0736  0.0693 -1.5532
41796TIP3    H126270   5.581  10.192   6.777  0.7867  0.0368 -0.6576
41796TIP3    H226271   5.547  10.046   6.795  0.7962  0.0255 -0.7292
41797TIP3   OH226272  10.535   8.074   5.911 -0.1706  0.0731 -0.5002
41797TIP3    H126273  10.526   8.093   5.818 -0.7634 -0.2963 -0.5233
41797TIP3    H226274  10.611   8.125   5.939  0.4166 -0.3336 -1.3277
41798TIP3   OH226275   3.563   9.231   7.863  0.0293 -0.3664  0.5251
41798TIP3    H126276   3.638   9.238   7.921  1.3359  2.1487 -1.2714
41798TIP3    H226277   3.564   9.140   7.833  2.9254 -0.2239 -0.0807
41799TIP3   OH226278  10.685   3.977   4.124  0.0941 -0.5104  0.6608
41799TIP3    H126279  10.623   4.004   4.192  0.4365  2.4426 -0.0621
41799TIP3    H226280  10.642   4.003   4.042  0.8814 -1.5101 -0.0929
41800TIP3   OH226281   2.965   8.021   5.093  0.2768 -0.5315 -0.5413
41800TIP3    H126282   3.005   8.059   5.015 -1.1375  0.4246 -0.8310
41800TIP3    H226283   2.906   8.088   5.125  1.4306 -0.5549  1.8840
41801TIP3   OH226284  10.906   8.201   8.251 -0.6356 -0.2467  0.0719
41801TIP3    H126285  10.854   8.134   8.207 -0.5765  0.6010 -1.3180
41801TIP3    H226286  10.842   8.268   8.276 -0.7573 -0.9641  1.8144
41802TIP3   OH226287   1.825  10.772   6.909 -0.3553 -0.0906  0.2032
41802TIP3    H126288   1.734  10.765   6.881 -0.3892  1.7087 -0.2464
41802TIP3    H226289   1.836  10.864   6.931  0.4723 -0.8767  3.4813
41803TIP3   OH226290   7.723   0.664   4.423  0.3772  0.1732 -0.4184
41803TIP3    H126291   7.714   0.654   4.518 -0.0304 -0.0988 -0.4868
41803TIP3    H226292   7.775   0.745   4.413  0.1028  0.4095  0.0260
41804TIP3   OH226293   8.807   1.913   1.585  0.2647  0.2269  0.2892
41804TIP3    H126294   8.788   1.830   1.542  1.5229 -0.7856  1.5924
41804TIP3    H226295   8.753   1.977   1.538 -1.1121 -1.3789 -0.4173
41805TIP3   OH226296   1.171   1.762   6.643  0.0087 -0.3910 -0.0351
41805TIP3    H126297   1.143   1.701   6.575 -0.4452  1.0470 -1.1868
41805TIP3    H226298   1.121   1.735   6.721 -1.4254 -0.4806 -0.9505
41806TIP3   OH226299   3.329   8.306   3.441  0.0488  0.2369  0.3714
41806TIP3    H126300   3.299   8.229   3.490  0.3019  0.9206  1.6607
41806TIP3    H226301   3.252   8.363   3.437  0.6306  1.2550  2.2058
41807TIP3   OH226302   2.149   8.024   5.882  0.6264  0.1425  0.1741
41807TIP3    H126303   2.225   7.990   5.930 -0.5384 -0.5546  1.6076
41807TIP3    H226304   2.165   8.000   5.791  1.8706 -0.4341  0.5191
41808TIP3   OH226305   5.672   8.939   0.946  0.6878  0.4566 -0.1144
41808TIP3    H126306   5.657   8.992   0.867  0.4961  0.7734  0.1330
41808TIP3    H226307   5.767   8.934   0.954  0.7307  2.1385  0.7681
41809TIP3   OH226308   2.777   0.364   2.630  0.4350  0.5234  0.0626
41809TIP3    H126309   2.685   0.389   2.631  0.4398  0.5254  0.5100
41809TIP3    H226310   2.816   0.413   2.703  0.7453  0.3573  0.0082
41810TIP3   OH226311   7.661   9.077   1.863  0.8069 -0.0712  0.1821
41810TIP3    H126312   7.585   9.050   1.914  0.2969 -0.3944 -0.7223
41810TIP3    H226313   7.704   8.994   1.839  0.6447  0.0316 -0.4886
41811TIP3   OH226314   6.388   5.333   9.159 -0.8296 -0.1482  0.4304
41811TIP3    H126315   6.371   5.272   9.086  2.0188 -1.9522  1.0930
41811TIP3    H226316   6.310   5.327   9.213 -1.7019 -1.2493 -0.8552
41812TIP3   OH226317   4.058   1.150   8.367  0.3519 -0.4209  0.4244
41812TIP3    H126318   4.015   1.182   8.446 -2.8255 -1.5667 -0.6642
41812TIP3    H226319   4.073   1.228   8.314 -2.2734 -0.0516  0.0897
41813TIP3   OH226320   7.428   7.519   4.013  0.8489 -0.0896  0.5382
41813TIP3    H126321   7.497   7.505   4.077 -0.2521  1.9285  2.2954
41813TIP3    H226322   7.352   7.546   4.065 -0.6920 -0.3108 -1.4717
41814TIP3   OH226323   2.265   7.500   7.090  0.8846 -0.1010 -0.6823
41814TIP3    H126324   2.250   7.504   7.184 -0.1809  1.0783 -0.8742
41814TIP3    H226325   2.257   7.408   7.068 -0.5577 -0.1984  0.1307
41815TIP3   OH226326   7.766   2.567   1.375  0.0723  0.4360  0.0476
41815TIP3    H126327   7.789   2.607   1.291 -1.2307  0.9974 -0.0717
41815TIP3    H226328   7.673   2.588   1.387  0.1424  0.0717  1.4664
41816TIP3   OH226329   7.531   1.991   8.699 -0.7202  0.2997 -0.7051
41816TIP3    H126330   7.489   2.057   8.754 -1.1865 -0.5299 -0.0344
41816TIP3    H226331   7.608   1.963   8.749 -0.3448  0.5730 -1.1327
41817TIP3   OH226332   2.277   1.358   4.500  0.0649 -0.0833  0.8485
41817TIP3    H126333   2.205   1.322   4.552 -0.5076 -0.6722 -0.2949
41817TIP3    H226334   2.289   1.447   4.533  0.0657 -0.5930  2.2941
41818TIP3   OH226335  10.260   0.460   4.763 -0.0631  0.5423  0.0478
41818TIP3    H126336  10.197   0.390   4.748 -0.5336  0.8897  0.3590
41818TIP3    H226337  10.309   0.433   4.841 -0.2293  0.5529  0.1543
41819TIP3   OH226338   0.477   0.233   6.461  0.2259 -0.2999 -0.3218
41819TIP3    H126339   0.552   0.199   6.511 -0.1596 -0.3602  0.2289
41819TIP3    H226340   0.406   0.173   6.483  0.1926 -0.6732 -1.4191
41820TIP3   OH226341   9.360   6.022   9.372 -0.0156 -0.3649 -0.1611
41820TIP3    H126342   9.323   5.979   9.295  1.2815  0.1024 -1.0891
41820TIP3    H226343   9.432   5.964   9.399 -1.6775 -1.6147  2.0172
41821TIP3   OH226344   0.014  10.769   8.402  0.0792  0.4748 -0.2438
41821TIP3    H126345   0.054  10.851   8.373 -1.2270  1.1841 -0.1325
41821TIP3    H226346  -0.066  10.796   8.448 -1.2759 -0.9124 -1.6552
41822TIP3   OH226347  10.442   0.902   3.767  0.3141 -0.2810  0.1635
41822TIP3    H126348  10.398   0.985   3.748 -0.0213 -0.3365  0.6635
41822TIP3    H226349  10.419   0.845   3.693  0.7625  0.1482 -0.3109
41823TIP3   OH226350   7.335   4.430   3.821 -0.4005 -0.3441  0.0020
41823TIP3    H126351   7.277   4.366   3.861 -0.4446 -1.3948 -1.6520
41823TIP3    H226352   7.418   4.421   3.869 -1.5337  1.3050  2.5068
41824TIP3   OH226353  10.235   2.768   6.085  0.0064  0.0645  0.8668
41824TIP3    H126354  10.315   2.819   6.072  0.1497 -0.4948 -0.6294
41824TIP3    H226355  10.230   2.711   6.009 -1.7971  0.0420  0.9526
41825TIP3   OH226356   6.960   6.546   2.898 -0.3607 -0.2045  0.4661
41825TIP3    H126357   7.017   6.506   2.832 -0.2950  0.5809  0.0175
41825TIP3    H226358   6.967   6.490   2.974  2.0898  0.5598  0.9058
41826TIP3   OH226359   1.087   2.266   8.089  0.0391  0.1265  0.5836
41826TIP3    H126360   1.063   2.349   8.047 -1.0882 -0.4286  0.0771
41826TIP3    H226361   1.024   2.257   8.161 -0.7170 -0.9215 -0.1877
41827TIP3   OH226362   6.357   6.111   5.667 -0.4360  0.7927  0.2800
41827TIP3    H126363   6.405   6.039   5.626 -1.5023  0.1129  0.1858
41827TIP3    H226364   6.379   6.105   5.760 -2.1584 -1.0522  0.6548
41828TIP3   OH226365   2.177  10.606   6.059  0.2582 -0.5852  0.0690
41828TIP3    H126366   2.169  10.685   6.005 -2.1119 -0.4295  0.5334
41828TIP3    H226367   2.246  10.555   6.017  1.9121  1.7368 -0.1993
41829TIP3   OH226368   1.231   0.448   4.264  0.5183 -0.2445 -0.2345
41829TIP3    H126369   1.158   0.488   4.217  1.7874  0.3798 -1.7872
41829TIP3    H226370   1.237   0.496   4.346 -0.0593  0.5139 -0.6246
41830TIP3   OH226371   3.756   3.233   9.882 -0.6631  0.5739 -0.8263
41830TIP3    H126372   3.796   3.252   9.797 -3.6140  0.6018 -2.3254
41830TIP3    H226373   3.763   3.315   9.931  0.7810  0.6435 -1.0876
41831TIP3   OH226374   5.127   2.788   2.357 -0.2012 -0.2929  0.1208
41831TIP3    H126375   5.089   2.708   2.321  0.1975  0.3288 -1.7666
41831TIP3    H226376   5.094   2.858   2.301 -0.3296  0.8647  1.5708
41832TIP3   OH226377   7.981   6.602  10.193  0.0829 -0.6220 -0.1439
41832TIP3    H126378   8.034   6.680  10.211  1.5244 -2.0790  2.4666
41832TIP3    H226379   8.006   6.577  10.104  0.8507  0.9228 -0.4023
41833TIP3   OH226380   1.482   3.871   1.799 -0.4642 -0.4124  0.3134
41833TIP3    H126381   1.478   3.810   1.725 -1.9720 -0.1635  0.1570
41833TIP3    H226382   1.465   3.957   1.760  2.4841  0.3218  0.3928
41834TIP3   OH226383   9.959   1.623   9.844 -0.7039  0.1757 -0.0168
41834TIP3    H126384   9.942   1.529   9.852 -1.6478  0.0997 -2.2779
41834TIP3    H226385   9.992   1.649   9.931  1.0028 -2.4942  0.2557
41835TIP3   OH226386   5.128   7.516   9.805  0.4178  0.2239  0.1298
41835TIP3    H126387   5.157   7.606   9.796  0.3836  0.0635 -2.2834
41835TIP3    H226388   5.198   7.472   9.853  1.2995  1.1410 -0.2893
41836TIP3   OH226389   1.549  10.671   8.885 -0.4477  0.5607 -0.3202
41836TIP3    H126390   1.487  10.658   8.957 -0.7406  3.0868 -0.0212
41836TIP3    H226391   1.524  10.605   8.820 -2.4438  0.4865  0.4521
41837TIP3   OH226392   8.363   1.236  10.468  0.4240 -0.2677  0.1938
41837TIP3    H126393   8.333   1.145  10.476  0.8832 -0.5360 -0.9831
41837TIP3    H226394   8.295   1.279  10.417  0.8188 -0.2615 -0.3310
41838TIP3   OH226395   7.506   9.472   1.884  0.4629 -0.7552  0.7232
41838TIP3    H126396   7.530   9.536   1.951  0.2951 -0.2725  0.3337
41838TIP3    H226397   7.452   9.408   1.930  0.5331 -0.5497  1.0987
41839TIP3   OH226398   0.367   6.084   0.980 -0.3623 -0.0582 -0.0928
41839TIP3    H126399   0.296   6.118   1.035 -0.5166 -0.7448  0.1400
41839TIP3    H226400   0.447   6.107   1.027 -0.5143 -1.5422  0.9848
41840TIP3   OH226401   3.090   5.339   7.454  0.4922  0.0073 -0.1793
41840TIP3    H126402   3.086   5.433   7.436  0.6362 -0.0701 -0.6175
41840TIP3    H226403   3.178   5.314   7.426  1.3830  0.2128  2.1849
41841TIP3   OH226404   6.802   5.503   2.932  0.0633 -0.4473  0.1867
41841TIP3    H126405   6.863   5.485   3.004  0.7134 -0.7254 -0.4314
41841TIP3    H226406   6.855   5.497   2.853 -0.8505 -1.1448 -0.3939
41842TIP3   OH226407   8.019   9.305   0.825 -0.3816 -0.0506 -0.5372
41842TIP3    H126408   7.930   9.284   0.796 -0.8170 -0.2291  0.8485
41842TIP3    H226409   8.028   9.398   0.809 -1.0788  0.1099 -0.0726
41843TIP3   OH226410   8.422   8.598   4.072  0.0986  0.1934 -0.0374
41843TIP3    H126411   8.440   8.691   4.079  0.1140  0.1486  0.5036
41843TIP3    H226412   8.507   8.556   4.080  0.0444  0.1090  0.0887
41844TIP3   OH226413   0.256   5.546   5.292  0.6582  0.3289 -0.5113
41844TIP3    H126414   0.300   5.542   5.206  0.2956 -0.2744 -0.6803
41844TIP3    H226415   0.174   5.499   5.278  1.4305 -1.4813  0.6534
41845TIP3   OH226416   5.725   8.082   7.141  0.5248 -0.2602 -0.4818
41845TIP3    H126417   5.801   8.131   7.174  1.2580 -1.1966 -0.7453
41845TIP3    H226418   5.714   8.111   7.051  0.2555  0.2436 -0.2888
41846TIP3   OH226419   5.142   9.094   8.975 -0.1155 -0.0866 -0.0081
41846TIP3    H126420   5.095   9.151   9.035  0.5164  0.4489 -0.0055
41846TIP3    H226421   5.169   9.151   8.903 -2.5992 -1.1009 -1.8774
41847TIP3   OH226422   6.928   5.160   0.793 -0.0956 -0.7119 -0.1762
41847TIP3    H126423   6.962   5.250   0.797  2.4833 -1.6644  0.9343
41847TIP3    H226424   6.898   5.150   0.703 -0.5987  1.2865 -0.2913
41848TIP3   OH226425   1.927   6.649   5.219 -0.0009  0.2171 -0.5553
41848TIP3    H126426   1.886   6.570   5.182 -0.4982  0.7079 -1.0799
41848TIP3    H226427   1.912   6.641   5.314 -0.9202  0.1538 -0.6918
41849TIP3   OH226428   6.524   6.698   9.007 -0.1537  0.3904  0.2116
41849TIP3    H126429   6.569   6.731   8.929 -3.5000  0.9064 -1.6893
41849TIP3    H226430   6.521   6.603   8.994  0.3231  0.3521  0.3474
41850TIP3   OH226431   4.874   5.610   5.373 -0.5343  0.0761  0.2657
41850TIP3    H126432   4.957   5.642   5.408  0.7406 -0.6799 -1.8584
41850TIP3    H226433   4.846   5.543   5.435  1.8834 -1.5763 -0.2806
41851TIP3   OH226434   2.322   3.337   7.801 -0.7863 -0.3460 -0.4055
41851TIP3    H126435   2.266   3.395   7.851 -0.8069 -0.3141 -0.4654
41851TIP3    H226436   2.355   3.273   7.865  0.3632  0.5688 -0.0457
41852TIP3   OH226437   5.026   1.772   6.909 -0.3457 -0.2021 -0.2384
41852TIP3    H126438   4.963   1.760   6.837 -0.7090  3.2752 -0.6521
41852TIP3    H226439   4.985   1.729   6.984 -1.4808 -1.1258 -1.3332
41853TIP3   OH226440   1.029   3.826   5.913  0.7265  0.6573 -0.4264
41853TIP3    H126441   0.988   3.784   5.838  1.7817 -0.3577 -0.4604
41853TIP3    H226442   0.978   3.796   5.988  1.0373 -0.1307 -0.5243
41854TIP3   OH226443   7.951   7.339   5.204 -0.1310  0.2226  0.4675
41854TIP3    H126444   7.997   7.421   5.190  0.4903 -0.1789  0.1558
41854TIP3    H226445   7.883   7.337   5.136  0.2688  0.1757  0.0694
41855TIP3   OH226446   5.449   7.709   4.034  0.4033 -0.0230 -0.2453
41855TIP3    H126447   5.497   7.787   4.006  1.9243 -1.3187 -1.4135
41855TIP3    H226448   5.404   7.679   3.954 -0.0856 -0.4049  0.1632
41856TIP3   OH226449   1.450   7.888   9.951 -0.6637  0.4621  0.3431
41856TIP3    H126450   1.441   7.811   9.895 -0.2625 -0.2565  1.2388
41856TIP3    H226451   1.462   7.853  10.039 -1.9641  1.5694  1.0037
41857TIP3   OH226452   9.813   8.740   7.665 -0.2829 -0.0739 -0.6931
41857TIP3    H126453   9.896   8.774   7.698  0.1647  0.0637 -1.8787
41857TIP3    H226454   9.818   8.756   7.570 -1.9570  0.5741 -0.6934
41858TIP3   OH226455   0.440   0.277   4.548 -0.1579  0.0148  0.6455
41858TIP3    H126456   0.430   0.208   4.482 -0.0829 -0.7395  1.4097
41858TIP3    H226457   0.396   0.353   4.509  1.4816  0.1649 -1.0869
41859TIP3   OH226458   2.692   0.517   5.909 -0.2903  0.2755  0.0318
41859TIP3    H126459   2.758   0.466   5.957 -0.3108  2.3338  2.4614
41859TIP3    H226460   2.744   0.577   5.856 -0.2595 -2.2397 -3.0878
41860TIP3   OH226461   4.431   6.546   4.908 -0.4253  0.2304  0.1607
41860TIP3    H126462   4.388   6.621   4.948  0.5290 -0.2060  2.1109
41860TIP3    H226463   4.518   6.578   4.882  0.7050 -0.5513  2.6738
41861TIP3   OH226464   9.649   2.260   0.308  0.4073  0.0808 -0.2852
41861TIP3    H126465   9.624   2.341   0.354 -1.0875  0.0804 -1.0457
41861TIP3    H226466   9.621   2.274   0.218  1.2726 -0.8136 -0.7072
41862TIP3   OH226467   8.358   8.619   5.067  0.3208  0.4977 -0.5419
41862TIP3    H126468   8.447   8.624   5.030  0.0615  0.7008 -1.1619
41862TIP3    H226469   8.339   8.526   5.071  0.3629  0.4690 -0.9182
41863TIP3   OH226470  10.807   7.178  10.156  0.2036 -0.4506 -0.1282
41863TIP3    H126471  10.746   7.108  10.178 -1.4756  1.4224  1.5154
41863TIP3    H226472  10.784   7.202  10.066 -0.5467 -0.6825 -0.0060
41864TIP3   OH226473   3.446   2.470  10.801  0.4875 -0.2615 -0.2531
41864TIP3    H126474   3.482   2.422  10.876 -1.7234  1.2971  1.9809
41864TIP3    H226475   3.368   2.421  10.776 -0.5647  0.8720  0.6367
41865TIP3   OH226476   7.182   1.205   0.125 -0.2679  0.4784  0.0761
41865TIP3    H126477   7.253   1.216   0.062  0.0712 -2.1334 -0.0939
41865TIP3    H226478   7.120   1.146   0.083 -1.6028  1.1521  0.9987
41866TIP3   OH226479   1.181   2.104   4.008  0.4411  0.0922  0.1025
41866TIP3    H126480   1.101   2.114   4.059 -0.4274  1.9231 -1.4714
41866TIP3    H226481   1.151   2.070   3.923  1.0779  2.1232 -1.0034
41867TIP3   OH226482   7.257   6.671   7.126  0.4458 -0.9067 -0.0933
41867TIP3    H126483   7.349   6.668   7.100  1.4165  1.4571  2.5099
41867TIP3    H226484   7.236   6.764   7.128 -0.0897 -0.8644  4.8320
41868TIP3   OH226485   1.085   9.521   2.236  0.1688 -0.2956 -0.0177
41868TIP3    H126486   1.149   9.574   2.284 -2.0504  0.2473  2.5532
41868TIP3    H226487   1.040   9.584   2.179 -0.9451  0.2295  1.3851
41869TIP3   OH226488   2.584   5.758   3.752 -0.3924 -0.5694 -0.2883
41869TIP3    H126489   2.622   5.846   3.757 -0.4393 -0.5592 -0.1216
41869TIP3    H226490   2.494   5.769   3.783 -0.8572 -0.4045 -1.6260
41870TIP3   OH226491   6.454   3.616   8.451 -0.2465  0.4063  0.0291
41870TIP3    H126492   6.367   3.577   8.445  0.5890 -1.7194  0.8333
41870TIP3    H226493   6.497   3.593   8.369  0.3013 -0.5270  0.5654
41871TIP3   OH226494   3.290   2.064   8.165 -0.2117  0.6031 -0.0392
41871TIP3    H126495   3.379   2.030   8.177 -0.1215  1.1589  0.9787
41871TIP3    H226496   3.291   2.103   8.077  0.1123 -0.6639 -0.6225
41872TIP3   OH226497   8.711   6.850   4.240 -0.0595 -0.3913 -0.0009
41872TIP3    H126498   8.750   6.860   4.153  0.7498 -1.0077  0.2753
41872TIP3    H226499   8.616   6.856   4.225  0.0714 -0.5560 -0.9297
41873TIP3   OH226500   8.835   5.709  10.864  0.2139  0.0990 -0.2853
41873TIP3    H126501   8.748   5.709  10.903  0.9067  2.0054  1.4899
41873TIP3    H226502   8.820   5.725  10.771 -1.3726 -1.5858 -0.3751
41874TIP3   OH226503   2.553   7.314   4.129 -0.0070 -0.4607  0.0563
41874TIP3    H126504   2.550   7.228   4.171  1.0184 -0.0549  1.0352
41874TIP3    H226505   2.499   7.370   4.184  1.0343 -0.0132  0.6642
41875TIP3   OH226506   0.678   2.731   8.401  0.3297 -0.0992 -0.0572
41875TIP3    H126507   0.742   2.797   8.428  0.9346 -0.8912  0.4827
41875TIP3    H226508   0.593   2.766   8.431  0.4871  0.9481 -0.7655
41876TIP3   OH226509   4.456  10.603   7.476  0.0071 -0.3516 -0.0049
41876TIP3    H126510   4.424  10.560   7.396  0.5825  0.4045 -0.6561
41876TIP3    H226511   4.456  10.696   7.455 -1.4814  0.0358  1.4842
41877TIP3   OH226512   1.255   1.629   6.136 -0.5396  0.5645  0.0276
41877TIP3    H126513   1.232   1.596   6.049 -3.2327 -0.7833  1.1037
41877TIP3    H226514   1.350   1.625   6.139 -0.1401  2.8088 -3.5877
41878TIP3   OH226515   0.816   0.199   0.072 -0.3799  0.1528 -0.8407
41878TIP3    H126516   0.745   0.250   0.033 -0.8978  1.0711  1.1593
41878TIP3    H226517   0.895   0.252   0.057 -0.5617  0.4633 -0.7052
41879TIP3   OH226518   8.509   3.183   9.714 -0.0566  0.3854  0.5449
41879TIP3    H126519   8.527   3.275   9.695 -0.3705  0.2191 -0.6413
41879TIP3    H226520   8.423   3.183   9.755 -0.9240  0.4942 -1.1638
41880TIP3   OH226521   5.787   7.665   0.987 -0.0360 -0.0732  0.6941
41880TIP3    H126522   5.826   7.578   0.977 -1.4220 -0.5736 -0.9170
41880TIP3    H226523   5.852   7.725   0.949 -0.3476 -0.7814 -1.0928
41881TIP3   OH226524   6.477   9.920   1.624  0.1564  0.0075  0.3643
41881TIP3    H126525   6.449  10.003   1.586  1.5213  0.6907  0.7830
41881TIP3    H226526   6.510   9.869   1.550  0.7569  0.4592  0.3158
41882TIP3   OH226527   2.806   3.528  10.452  0.3197 -0.3067 -0.6835
41882TIP3    H126528   2.893   3.567  10.438  0.6950 -1.1279 -0.7093
41882TIP3    H226529   2.815   3.439  10.418 -0.6211 -0.3067 -0.9362
41883TIP3   OH226530   8.824   0.426   6.733 -0.3320  0.0857  0.2104
41883TIP3    H126531   8.841   0.433   6.827  1.9855 -1.3893 -0.0396
41883TIP3    H226532   8.821   0.332   6.716 -0.6197  0.3329 -1.2265
41884TIP3   OH226533   9.300   4.465   9.537  0.0214 -0.1504 -0.0637
41884TIP3    H126534   9.321   4.553   9.567  0.2959 -0.3341  0.2913
41884TIP3    H226535   9.293   4.413   9.617  0.0118 -0.4822 -0.2749
41885TIP3   OH226536   0.942   4.374   5.687 -0.2145  0.0507 -0.1670
41885TIP3    H126537   0.923   4.381   5.781 -0.9653  1.2638 -0.3833
41885TIP3    H226538   1.013   4.437   5.673 -0.1426 -0.0884 -0.4330
41886TIP3   OH226539   3.455   8.038  10.289 -0.4278 -0.3014  0.3874
41886TIP3    H126540   3.543   8.050  10.254  0.0421 -0.0968  1.5958
41886TIP3    H226541   3.441   8.114  10.346 -0.5375 -1.3673  1.8470
41887TIP3   OH226542   0.787   8.851   1.291 -0.4216 -0.0987  0.1957
41887TIP3    H126543   0.846   8.816   1.357  1.7739 -0.1753 -1.6635
41887TIP3    H226544   0.718   8.895   1.340  2.0805  1.5129  2.5577
41888TIP3   OH226545  10.578   6.329   8.218  0.3308 -0.5420  0.2267
41888TIP3    H126546  10.533   6.383   8.153 -2.0305 -1.2982  1.1246
41888TIP3    H226547  10.629   6.266   8.166 -0.8110 -0.5779 -0.8926
41889TIP3   OH226548   5.557   9.585   4.373  0.3601  0.2649  0.6189
41889TIP3    H126549   5.466   9.613   4.379  0.2490 -0.2227  1.3989
41889TIP3    H226550   5.552   9.490   4.360  0.7372 -0.0351  2.3494
41890TIP3   OH226551   5.751   7.533   6.154  0.2260 -0.2273  0.1019
41890TIP3    H126552   5.814   7.467   6.182 -1.0793 -0.4377  2.7884
41890TIP3    H226553   5.777   7.613   6.199 -1.6376 -0.4413  1.6800
41891TIP3   OH226554   8.932  10.221   3.838 -0.4572  0.6363  0.5653
41891TIP3    H126555   8.927  10.130   3.867  0.9038  0.5014  0.4639
41891TIP3    H226556   8.971  10.268   3.911  1.4189  0.6011 -0.3452
41892TIP3   OH226557   2.896   4.891   7.450 -0.3443 -0.1972  0.6943
41892TIP3    H126558   2.905   4.915   7.542  1.8441  0.4754  0.3718
41892TIP3    H226559   2.972   4.834   7.433 -0.0709  0.6011 -0.9508
41893TIP3   OH226560   5.859   9.849   6.586  0.4634  1.0543 -0.6364
41893TIP3    H126561   5.901   9.763   6.584  0.9810  1.3023 -0.5178
41893TIP3    H226562   5.808   9.848   6.667 -1.0775  0.1504 -1.5565
41894TIP3   OH226563   8.984   4.024   0.093 -0.0110  0.2143 -0.1863
41894TIP3    H126564   8.958   4.018   0.185 -1.0500  0.7293 -0.4248
41894TIP3    H226565   8.939   4.102   0.061  1.4347  0.8251 -0.8019
41895TIP3   OH226566   1.149   0.764   2.339 -0.5298  0.3560  0.1650
41895TIP3    H126567   1.134   0.833   2.404 -0.6320 -0.6736  1.2574
41895TIP3    H226568   1.119   0.684   2.381  1.4254 -0.6863 -0.3125
41896TIP3   OH226569   8.868  10.731   3.112 -0.3406 -0.4225  0.3106
41896TIP3    H126570   8.943  10.676   3.135  0.1540  0.4694  0.8619
41896TIP3    H226571   8.792  10.683   3.144 -0.0148 -1.3080 -0.2030
41897TIP3   OH226572   0.883   3.270   2.685 -0.0666 -0.1065 -0.0118
41897TIP3    H126573   0.961   3.214   2.682 -0.2545 -0.3779  0.0714
41897TIP3    H226574   0.817   3.222   2.635 -0.3129 -0.0921  0.2945
41898TIP3   OH226575   4.824   9.601   1.210  0.5200 -0.2244  0.6011
41898TIP3    H126576   4.764   9.555   1.151 -0.5351 -0.0846  1.5331
41898TIP3    H226577   4.793   9.579   1.298  0.9556  1.0254  1.0808
41899TIP3   OH226578   9.951  10.142   0.508  0.1231  0.3458  0.0732
41899TIP3    H126579   9.971  10.057   0.470  0.4448 -0.1256  1.2541
41899TIP3    H226580   9.970  10.205   0.438  0.4120 -0.5015 -0.6312
41900TIP3   OH226581   5.874   2.688   8.297  0.2408 -0.1503  0.2193
41900TIP3    H126582   5.866   2.592   8.300 -1.8549 -0.0138  3.2479
41900TIP3    H226583   5.783   2.719   8.293  0.8888  1.7360 -0.7999
41901TIP3   OH226584   9.408   1.219   1.289 -0.6431 -0.3820 -0.2784
41901TIP3    H126585   9.383   1.308   1.315 -0.0536 -0.5547  0.9475
41901TIP3    H226586   9.351   1.199   1.215 -0.8156  0.9996 -0.5497
41902TIP3   OH226587   8.172  10.687   7.010  0.4380 -0.6320 -0.4548
41902TIP3    H126588   8.244  10.623   7.012  2.0498  1.0890  1.6639
41902TIP3    H226589   8.204  10.761   7.061 -1.6607  1.5834 -2.0942
41903TIP3   OH226590   7.472   4.743   1.976 -0.2983  0.0023 -0.2139
41903TIP3    H126591   7.449   4.805   2.045  0.8630 -0.2995  0.4510
41903TIP3    H226592   7.565   4.757   1.961 -0.2210 -0.9725 -0.6747
41904TIP3   OH226593   6.899   4.159   5.819 -0.2067  0.3551 -0.0701
41904TIP3    H126594   6.911   4.084   5.877 -1.0695  0.0703 -0.2442
41904TIP3    H226595   6.914   4.236   5.874  0.5825  0.0605  0.1310
41905TIP3   OH226596   6.822   3.626   0.672  0.0559 -0.1190 -0.5037
41905TIP3    H126597   6.758   3.650   0.605  0.5213 -0.7862 -1.2049
41905TIP3    H226598   6.893   3.689   0.660 -0.0550  0.0365 -0.3456
41906TIP3   OH226599   2.873   6.572   1.368 -0.5259 -0.2632  0.1262
41906TIP3    H126600   2.923   6.643   1.328  0.6772 -1.7520 -1.0897
41906TIP3    H226601   2.919   6.553   1.449 -2.8136  2.5724  2.3289
41907TIP3   OH226602  10.400   1.385   0.071 -0.2672  0.4401 -0.1041
41907TIP3    H126603  10.443   1.315   0.119 -0.2290 -0.8049 -1.8705
41907TIP3    H226604  10.325   1.343   0.030 -0.6500  1.6018 -0.6279
41908TIP3   OH226605   6.138   6.388   0.043  0.3121 -0.6129 -0.2143
41908TIP3    H126606   6.049   6.354   0.041 -0.5229  1.4193 -0.7896
41908TIP3    H226607   6.179   6.346   0.118 -1.1923 -1.4180  0.1932
41909TIP3   OH226608  10.580   9.165   5.516 -0.1977 -0.2720  0.0049
41909TIP3    H126609  10.623   9.101   5.460 -1.1221 -1.3119  0.4420
41909TIP3    H226610  10.624   9.157   5.600 -0.1281 -0.1216 -0.0163
41910TIP3   OH226611   9.994   3.502   2.414 -0.6279  0.0009  0.0864
41910TIP3    H126612   9.909   3.485   2.374 -0.4297 -0.9225  0.0571
41910TIP3    H226613   9.973   3.531   2.503 -0.9844  0.2718 -0.0796
41911TIP3   OH226614   6.097   3.606   0.190  0.2496  0.3437  0.2302
41911TIP3    H126615   6.152   3.535   0.223 -0.1028  0.2797  0.6962
41911TIP3    H226616   6.112   3.606   0.095  1.5539  0.7665  0.4187
41912TIP3   OH226617   7.197   4.874   9.127  0.0189 -0.1928  0.0141
41912TIP3    H126618   7.212   4.879   9.222  0.1930 -0.7664  0.0206
41912TIP3    H226619   7.116   4.825   9.118  2.5767 -5.0365 -0.2123
41913TIP3   OH226620   0.984   4.322   1.227  0.0411 -0.8862  0.4350
41913TIP3    H126621   1.079   4.311   1.220  0.1298 -0.5095  0.9807
41913TIP3    H226622   0.951   4.302   1.140  0.6968 -0.2915  0.0468
41914TIP3   OH226623   0.712   6.639   0.755  0.2461 -0.5728  0.0859
41914TIP3    H126624   0.732   6.546   0.764 -0.4088 -0.6508  0.7289
41914TIP3    H226625   0.792   6.676   0.717  0.0485 -1.6101 -1.4547
41915TIP3   OH226626   3.517   3.101   4.348 -0.3019  0.5784 -0.4782
41915TIP3    H126627   3.588   3.093   4.285  1.5271  1.5662  1.3733
41915TIP3    H226628   3.495   3.010   4.371  1.0062  0.2804 -0.3752
41916TIP3   OH226629   0.993   5.365   6.077  0.3830  0.6802  0.6279
41916TIP3    H126630   0.924   5.313   6.036  0.3258  0.1012  1.4411
41916TIP3    H226631   0.966   5.374   6.168  1.1586  0.8261  0.8522
41917TIP3   OH226632   9.337   8.606   4.587 -0.1201  0.2243  0.1699
41917TIP3    H126633   9.273   8.662   4.544 -1.6167  1.9959  4.1828
41917TIP3    H226634   9.418   8.656   4.585 -0.2093  0.3565 -0.3503
41918TIP3   OH226635   9.074  10.554   3.515 -0.5360  0.0943  0.3887
41918TIP3    H126636   9.149  10.497   3.532 -0.4581  0.3121  0.7834
41918TIP3    H226637   9.053  10.539   3.423 -1.2132 -1.4345  0.7441
41919TIP3   OH226638   7.656   5.398   3.560  0.0675 -0.2811  0.1030
41919TIP3    H126639   7.680   5.343   3.486  0.9277 -0.2862  0.3650
41919TIP3    H226640   7.563   5.415   3.549 -0.2686 -1.9350  0.1225
41920TIP3   OH226641   0.277  10.212   9.142  0.1686 -0.2616  0.2881
41920TIP3    H126642   0.241  10.165   9.067  0.2001 -0.9103  0.6791
41920TIP3    H226643   0.265  10.154   9.216 -0.5385  0.6770  0.9375
41921TIP3   OH226644   2.211   0.628   0.162 -0.1377 -0.2662 -0.4723
41921TIP3    H126645   2.293   0.674   0.180 -0.2715 -0.2479  0.1008
41921TIP3    H226646   2.192   0.581   0.243 -2.5092  2.4377  0.6581
41922TIP3   OH226647   5.473   7.841   4.420 -0.7784  0.1288 -0.3958
41922TIP3    H126648   5.495   7.906   4.487 -1.6872  0.0977 -0.0514
41922TIP3    H226649   5.557   7.816   4.382 -0.2382  0.0873  0.7845
41923TIP3   OH226650   4.412   2.450   1.032 -0.4058  0.2858 -0.2386
41923TIP3    H126651   4.494   2.478   1.074  0.2344  0.1537 -1.3570
41923TIP3    H226652   4.421   2.355   1.024 -1.2446  0.1053  0.7887
41924TIP3   OH226653   4.005  10.279   2.282 -0.5931 -0.2195  0.2712
41924TIP3    H126654   3.952  10.338   2.335 -0.1463 -0.3193  0.8307
41924TIP3    H226655   3.967  10.286   2.194 -1.7207 -0.5025  0.7145
41925TIP3   OH226656  10.105   7.057   3.688 -0.0649  0.0733  0.5286
41925TIP3    H126657  10.161   7.034   3.762 -1.0501 -0.9714  1.0002
41925TIP3    H226658  10.120   6.988   3.624 -0.0441  0.3518  0.2333
41926TIP3   OH226659   3.393   1.554   9.542 -0.9026 -0.4580  0.1933
41926TIP3    H126660   3.409   1.600   9.460 -1.8240 -0.3600  0.0597
41926TIP3    H226661   3.384   1.462   9.516 -1.7345 -0.3574  0.1059
41927TIP3   OH226662   3.155   7.646   5.258 -0.1857  0.3809 -0.6652
41927TIP3    H126663   3.190   7.623   5.171 -0.4778  0.6747 -0.8648
41927TIP3    H226664   3.141   7.741   5.254 -2.3232  0.1061 -1.1028
41928TIP3   OH226665   5.632   6.549   1.680 -0.1909 -0.1190 -0.0524
41928TIP3    H126666   5.585   6.628   1.708  0.1870 -0.0165  0.3003
41928TIP3    H226667   5.598   6.479   1.736 -0.7139 -0.2633 -0.5391
41929TIP3   OH226668   0.096   2.920   3.582 -0.2256 -0.4319 -0.3297
41929TIP3    H126669   0.139   2.850   3.631 -1.2131 -0.4874  0.4923
41929TIP3    H226670   0.164   2.952   3.522  0.8457 -0.7392  0.6751
41930TIP3   OH226671   9.557   2.513   0.349 -0.5419  0.1778  0.4367
41930TIP3    H126672   9.486   2.563   0.309  0.2935  0.0163 -1.3541
41930TIP3    H226673   9.624   2.578   0.369  0.4854 -0.1130 -1.7610
41931TIP3   OH226674   9.509   5.732   4.646  0.0322  0.3887  0.2747
41931TIP3    H126675   9.529   5.825   4.636  1.9968  0.0724  0.9243
41931TIP3    H226676   9.435   5.730   4.706  0.0269  1.5208  0.3353
41932TIP3   OH226677   0.717   3.288   2.920 -0.3779 -0.1208  0.2097
41932TIP3    H126678   0.629   3.291   2.881 -1.0569  0.3613  1.7260
41932TIP3    H226679   0.775   3.273   2.845 -1.6272  0.8031 -1.0045
41933TIP3   OH226680   3.373   2.138   4.856 -0.2025  0.3378 -0.0496
41933TIP3    H126681   3.436   2.153   4.785  1.1132 -0.1224  0.9675
41933TIP3    H226682   3.305   2.204   4.842  1.6072  2.3488  0.0059
41934TIP3   OH226683   7.571   6.618   4.363  0.0642  0.4695 -0.3060
41934TIP3    H126684   7.652   6.573   4.390  0.5072  0.9293 -0.8524
41934TIP3    H226685   7.557   6.589   4.273 -1.0994 -0.6144  0.1880
41935TIP3   OH226686   5.753   3.287   5.327 -0.3246 -0.3480 -0.2291
41935TIP3    H126687   5.832   3.294   5.272  0.1684 -0.6180  0.4291
41935TIP3    H226688   5.747   3.194   5.347  0.7005 -0.0244  1.8611
41936TIP3   OH226689   1.865   0.824   8.400  0.7688  0.3262  0.2795
41936TIP3    H126690   1.803   0.811   8.328 -0.0163  1.3875  0.7521
41936TIP3    H226691   1.818   0.876   8.464  1.2260 -1.1677  1.9052
41937TIP3   OH226692  10.788   7.850  10.340 -0.0116  0.0624  0.4383
41937TIP3    H126693  10.767   7.775  10.396  0.2110 -0.5125 -0.2377
41937TIP3    H226694  10.840   7.908  10.396 -1.3710  0.3999  1.4060
41938TIP3   OH226695   6.971   7.703   8.676 -0.0075 -0.8319 -0.4837
41938TIP3    H126696   7.048   7.657   8.643 -0.3727 -0.9188 -1.2281
41938TIP3    H226697   6.926   7.735   8.598 -0.7205 -0.7627 -0.0569
41939TIP3   OH226698   8.805   8.614   9.573 -0.5477 -0.2811 -0.2302
41939TIP3    H126699   8.857   8.564   9.635  0.4266  0.7021 -0.2175
41939TIP3    H226700   8.717   8.615   9.610 -0.4025 -1.2826  0.1657
41940TIP3   OH226701   7.250   6.498   6.603  0.3340 -0.1012  0.0302
41940TIP3    H126702   7.247   6.510   6.508  1.0799 -2.2541 -0.3081
41940TIP3    H226703   7.171   6.449   6.623 -0.6364  1.6814  0.7998
41941TIP3   OH226704   4.765   0.121   8.019 -0.0380 -0.5553  0.3828
41941TIP3    H126705   4.852   0.157   8.038  0.1102 -1.5364  1.6389
41941TIP3    H226706   4.705   0.194   8.037  0.5582  0.5995 -1.8651
41942TIP3   OH226707   4.669   6.703   4.813  0.0595 -0.0925 -0.1674
41942TIP3    H126708   4.687   6.717   4.720  0.9913 -0.1223 -0.0056
41942TIP3    H226709   4.636   6.787   4.844 -0.2112 -0.0684 -0.5175
41943TIP3   OH226710   4.165   8.004   7.117 -0.4628 -0.2124 -0.5568
41943TIP3    H126711   4.118   7.998   7.034 -3.3706 -0.6627  1.0017
41943TIP3    H226712   4.111   8.061   7.172  0.7653 -0.8300  1.4211
41944TIP3   OH226713   5.990   4.943   7.055 -0.7086 -0.4577  0.1213
41944TIP3    H126714   5.954   4.866   7.011  0.0342 -0.0800 -1.1999
41944TIP3    H226715   6.081   4.920   7.075  0.2321  0.7847 -2.2932
41945TIP3   OH226716   8.143   7.957   4.969 -0.1917  0.5120  0.0374
41945TIP3    H126717   8.167   7.865   4.957  0.9216  0.7054  0.6638
41945TIP3    H226718   8.091   7.978   4.891  1.1386 -0.1221 -1.0780
41946TIP3   OH226719   7.037   4.865   7.928  0.1139  0.0115  0.5303
41946TIP3    H126720   6.966   4.925   7.948  0.3942  0.6154 -0.2603
41946TIP3    H226721   7.032   4.851   7.834  0.6478 -0.4377  0.5630
41947TIP3   OH226722   9.834   4.623   6.805  0.0005  0.1469 -0.1591
41947TIP3    H126723   9.752   4.645   6.759 -0.0767  0.2507  0.0286
41947TIP3    H226724   9.841   4.528   6.795 -0.0294  0.1648 -0.3646
41948TIP3   OH226725   1.657   9.487   1.291 -0.0913  0.0983 -0.5135
41948TIP3    H126726   1.707   9.554   1.245 -0.3342  0.4063 -0.3293
41948TIP3    H226727   1.626   9.429   1.222  0.4475 -0.0458 -0.6367
41949TIP3   OH226728   3.102   8.908  10.384 -0.7036  0.1148 -0.2028
41949TIP3    H126729   3.086   8.920  10.291  0.0159 -0.1627 -0.3655
41949TIP3    H226730   3.058   8.825  10.406 -0.5376 -0.0201 -0.3803
41950TIP3   OH226731   1.956   1.457  10.591 -0.0218  0.4241 -0.2887
41950TIP3    H126732   2.043   1.485  10.562  0.9171 -1.9868  0.0070
41950TIP3    H226733   1.920   1.534  10.634  2.6352  1.0497  1.0322
41951TIP3   OH226734   2.215   5.895   9.812  0.6042  0.1305 -0.4403
41951TIP3    H126735   2.270   5.972   9.799 -0.0601  0.3193 -2.5735
41951TIP3    H226736   2.237   5.864   9.899  2.4863  1.4486 -0.3906
41952TIP3   OH226737   6.380   0.465   7.383  0.8171  0.3914  0.3897
41952TIP3    H126738   6.341   0.513   7.310  1.5876 -1.9747 -1.7325
41952TIP3    H226739   6.472   0.492   7.383  0.9223  0.0450  0.1481
41953TIP3   OH226740   1.581   9.962   4.642  0.2181 -0.0651 -1.1956
41953TIP3    H126741   1.579   9.866   4.635  1.0311 -0.1732 -0.2342
41953TIP3    H226742   1.655   9.989   4.587  0.2577 -0.0276 -1.1238
41954TIP3   OH226743   1.524   9.526   4.857  0.0673 -0.2093  0.3002
41954TIP3    H126744   1.559   9.535   4.946  1.3958  0.6741 -0.2844
41954TIP3    H226745   1.442   9.477   4.869  1.2268 -1.9537  1.7957
41955TIP3   OH226746   3.428   0.468   3.678  0.1821  0.2518  0.5210
41955TIP3    H126747   3.442   0.456   3.772  1.3437 -2.2712  0.1149
41955TIP3    H226748   3.350   0.416   3.659 -0.7748  1.7379  0.2332
41956TIP3   OH226749   4.712   2.082   5.515  0.0793  0.1109 -0.0748
41956TIP3    H126750   4.755   2.015   5.463 -1.5260 -0.6687 -0.4688
41956TIP3    H226751   4.783   2.138   5.546  1.4128 -1.4521 -0.1702
41957TIP3   OH226752   4.002   5.127   7.114  0.1802 -0.0294 -0.1813
41957TIP3    H126753   4.002   5.109   7.020  1.0801  1.3420 -0.4818
41957TIP3    H226754   3.917   5.095   7.145 -0.8933  1.0518 -1.8054
41958TIP3   OH226755   2.110   8.802   9.805 -0.3695  0.4798 -0.5669
41958TIP3    H126756   2.077   8.728   9.753 -1.3413 -0.7825  1.6921
41958TIP3    H226757   2.048   8.809   9.877  1.0737  1.9539  0.5877
41959TIP3   OH226758   4.690   3.809   3.791  0.1430  0.1542 -0.0501
41959TIP3    H126759   4.777   3.789   3.758  0.5633 -0.3125  1.3105
41959TIP3    H226760   4.690   3.780   3.882 -0.4755  2.7437  0.8874
41960TIP3   OH226761   3.503   6.522   9.726 -0.0606 -0.5896 -0.2808
41960TIP3    H126762   3.530   6.603   9.683 -1.4523 -0.1212 -0.3363
41960TIP3    H226763   3.408   6.518   9.713 -0.2440 -1.4505  1.0345
41961TIP3   OH226764   7.578   3.766   2.255 -0.0230  0.2085 -0.1671
41961TIP3    H126765   7.631   3.739   2.329 -1.6033  2.0103  1.7383
41961TIP3    H226766   7.636   3.758   2.179  1.8800 -0.9645  1.3307
41962TIP3   OH226767  10.204   2.831   1.452  1.0623 -0.9409 -0.2719
41962TIP3    H126768  10.224   2.754   1.506  1.2295 -0.3709  0.4823
41962TIP3    H226769  10.266   2.898   1.481  0.9861 -0.5464 -0.9994
41963TIP3   OH226770  10.055  10.495   7.346 -0.6039 -0.4155  0.0381
41963TIP3    H126771  10.072  10.434   7.419 -1.9831 -0.9691 -0.0850
41963TIP3    H226772  10.017  10.440   7.278 -0.5080  0.3387 -0.6335
41964TIP3   OH226773   4.521   7.589   2.353  0.0278 -0.5979  0.4543
41964TIP3    H126774   4.440   7.620   2.394  0.8887  1.1971  0.9387
41964TIP3    H226775   4.495   7.514   2.300 -2.0210  0.1688  0.2835
41965TIP3   OH226776   2.046   2.131   1.253  0.2442 -0.2363 -0.0072
41965TIP3    H126777   2.039   2.059   1.191 -0.9476 -1.7607  1.7926
41965TIP3    H226778   2.108   2.192   1.212  0.3194 -1.6456 -2.1614
41966TIP3   OH226779   7.870  10.060   0.104 -0.2517 -0.0714  0.0173
41966TIP3    H126780   7.959  10.066   0.070 -0.5225 -0.1264 -0.7382
41966TIP3    H226781   7.865  10.127   0.172 -0.9758  3.4303 -3.1386
41967TIP3   OH226782   6.551   7.922   9.889  0.2659 -0.5815  0.1777
41967TIP3    H126783   6.572   7.919   9.982 -0.9725 -0.6151  0.4695
41967TIP3    H226784   6.480   7.859   9.878  0.9558 -1.2081 -0.9582
41968TIP3   OH226785   6.646   7.712   6.949  0.1573  0.2119  0.3412
41968TIP3    H126786   6.699   7.713   6.869 -1.0901 -0.9111 -0.5460
41968TIP3    H226787   6.633   7.804   6.971 -0.1821  0.5777 -1.2604
41969TIP3   OH226788   0.343   0.544   4.478  0.1283 -0.1562 -0.7772
41969TIP3    H126789   0.414   0.583   4.427  0.4899  2.3137  1.3716
41969TIP3    H226790   0.273   0.610   4.477 -0.4394 -0.6782  0.6113
41970TIP3   OH226791   3.954   6.500   6.404  0.4356  0.2515 -0.6264
41970TIP3    H126792   4.017   6.512   6.475  2.7357  2.0098 -2.7815
41970TIP3    H226793   3.990   6.430   6.350  0.2211  0.8101 -1.5308
41971TIP3   OH226794   0.827   5.773   1.608 -0.0143  0.5778 -0.6373
41971TIP3    H126795   0.757   5.713   1.635  0.1272 -0.0235 -1.5776
41971TIP3    H226796   0.906   5.740   1.650  0.3544 -0.8110 -2.3183
41972TIP3   OH226797   9.755   7.474   2.022  0.0445 -0.4258 -0.3389
41972TIP3    H126798   9.775   7.551   1.969  0.4511  0.4362  1.0246
41972TIP3    H226799   9.831   7.463   2.079 -0.2094 -1.5605 -0.1858
41973TIP3   OH226800   7.611   0.825   6.165  0.2450  0.0071  0.2199
41973TIP3    H126801   7.670   0.859   6.232 -1.9404  0.8897  1.8206
41973TIP3    H226802   7.544   0.778   6.214 -0.7789 -0.3685 -1.4656
41974TIP3   OH226803   7.665   1.221   7.514 -0.4907  0.5269  0.1215
41974TIP3    H126804   7.705   1.233   7.600 -0.5652 -2.7297  0.7600
41974TIP3    H226805   7.710   1.283   7.458  0.4999  1.8449  2.2293
41975TIP3   OH226806   1.231   6.913  10.271 -0.0879 -0.1208  0.6154
41975TIP3    H126807   1.270   6.978  10.330 -0.3255 -0.0560  0.7043
41975TIP3    H226808   1.303   6.856  10.246  0.1645  0.2960  0.3788
41976TIP3   OH226809   5.798   0.768   8.273 -0.0234 -0.9957 -0.1184
41976TIP3    H126810   5.801   0.693   8.332  0.7457 -0.4660  0.5452
41976TIP3    H226811   5.865   0.749   8.207  2.2988  0.3697  1.6858
41977TIP3   OH226812   7.677   7.020   3.334  0.4838 -0.2203  0.4095
41977TIP3    H126813   7.709   7.073   3.407  1.8751 -2.6797  1.7097
41977TIP3    H226814   7.633   6.946   3.375 -2.2152  0.2712 -1.3529
41978TIP3   OH226815   8.106   1.421   8.458  0.6962  0.1110  0.8443
41978TIP3    H126816   8.085   1.350   8.397 -1.2227  2.6508 -1.7271
41978TIP3    H226817   8.050   1.404   8.534 -0.4819 -0.6082 -0.1410
41979TIP3   OH226818   8.951   2.367   4.535 -0.3274  0.1415  0.0968
41979TIP3    H126819   8.974   2.284   4.494 -0.1146 -0.7583  1.9204
41979TIP3    H226820   8.887   2.407   4.476 -0.5424 -1.3818 -0.7388
41980TIP3   OH226821   6.726   4.695   8.017  0.1648  0.0631 -0.1001
41980TIP3    H126822   6.640   4.657   7.997 -0.6572  1.5448  0.3988
41980TIP3    H226823   6.765   4.633   8.079 -0.9111 -0.2212  0.3264
41981TIP3   OH226824   4.371   5.332   6.037  0.1620 -0.4926 -0.1857
41981TIP3    H126825   4.433   5.376   6.095 -0.2867  2.7686 -1.9468
41981TIP3    H226826   4.425   5.278   5.980  0.8175 -1.7462  1.5357
41982TIP3   OH226827   6.294   5.647  10.673 -0.1473  0.5484 -0.4186
41982TIP3    H126828   6.261   5.703  10.602  1.5799  0.5593 -1.2548
41982TIP3    H226829   6.302   5.706  10.747  0.5550  1.1646 -0.9698
41983TIP3   OH226830  10.906   6.548   3.982 -0.4544  0.2526 -0.5494
41983TIP3    H126831  10.885   6.460   4.013 -1.3297  0.5463 -0.2955
41983TIP3    H226832  10.927   6.597   4.061  3.2934 -0.5048 -0.8591
41984TIP3   OH226833   2.083   1.672  10.258  0.2983  0.2991 -0.0076
41984TIP3    H126834   2.009   1.698  10.313  0.1579 -0.4021  0.1416
41984TIP3    H226835   2.155   1.658  10.320  0.3322  0.1914 -0.0714
41985TIP3   OH226836   3.239   2.229   0.972 -0.3216  0.0716  0.3234
41985TIP3    H126837   3.269   2.240   1.062  1.5805  0.0704 -0.2612
41985TIP3    H226838   3.256   2.314   0.930  2.1475 -0.8989 -0.8692
41986TIP3   OH226839   4.343   4.107   1.551 -0.4250  0.2828 -0.0722
41986TIP3    H126840   4.328   4.139   1.462 -0.6761  1.7062  0.4546
41986TIP3    H226841   4.258   4.117   1.595 -0.0113  0.7129  0.6492
41987TIP3   OH226842   2.322   3.565   0.623  0.1068 -0.6296 -0.1030
41987TIP3    H126843   2.312   3.589   0.715  0.7801  0.0144 -0.1827
41987TIP3    H226844   2.410   3.597   0.599 -0.3894  0.0047 -1.1899
41988TIP3   OH226845   0.467   0.761   7.113 -0.5632 -0.6543 -0.2884
41988TIP3    H126846   0.404   0.832   7.125  1.3244  1.4995 -2.1236
41988TIP3    H226847   0.417   0.692   7.069 -2.0972  0.1888  0.0751
41989TIP3   OH226848   2.802   8.913   0.812 -0.3622  0.0307  0.1030
41989TIP3    H126849   2.805   8.873   0.725  0.8519  0.9824 -0.3195
41989TIP3    H226850   2.713   8.894   0.844 -0.8746 -0.2248 -1.3903
41990TIP3   OH226851   0.377   2.866   1.042  0.5140  0.5336  0.0683
41990TIP3    H126852   0.403   2.928   1.111 -1.3137 -0.1835  1.5014
41990TIP3    H226853   0.459   2.843   0.998  1.9338  0.3353  2.6010
41991TIP3   OH226854   2.963   3.842   8.059  0.1316 -0.0869 -0.6147
41991TIP3    H126855   2.946   3.759   8.014 -1.9516 -0.1596  0.1788
41991TIP3    H226856   3.010   3.817   8.138 -2.5209 -0.9044  0.8318
41992TIP3   OH226857   5.304   5.576   6.269 -0.5039 -0.6757  0.9391
41992TIP3    H126858   5.393   5.611   6.264 -0.1709 -1.5935  0.0509
41992TIP3    H226859   5.254   5.628   6.207 -0.4247 -0.6255  0.9172
41993TIP3   OH226860   2.854  10.068   7.153  0.0190 -0.5213  0.7493
41993TIP3    H126861   2.898   9.994   7.111 -1.3800 -0.8215 -0.2531
41993TIP3    H226862   2.791  10.028   7.213 -0.7011 -0.1610  0.2478
41994TIP3   OH226863   3.668   1.545   4.159  0.0669  0.1946  0.3147
41994TIP3    H126864   3.625   1.579   4.238  1.0582  1.7429  0.2240
41994TIP3    H226865   3.627   1.592   4.087 -0.6997 -1.0777 -0.1000
41995TIP3   OH226866   7.405   4.071   4.217 -0.2126 -0.0701  0.3586
41995TIP3    H126867   7.321   4.028   4.201  1.0689 -2.3546 -0.7277
41995TIP3    H226868   7.451   4.066   4.134  0.8055  1.7132  0.7527
41996TIP3   OH226869   1.151   6.570   2.939 -0.3860  0.0804 -0.3919
41996TIP3    H126870   1.108   6.516   2.873  0.4466 -0.3551 -0.5925
41996TIP3    H226871   1.235   6.593   2.900 -0.4923  1.0568 -0.0760
41997TIP3   OH226872   8.076   9.414   4.508  0.3394  0.9716 -0.0331
41997TIP3    H126873   8.167   9.384   4.510  0.4079  0.9288 -1.8467
41997TIP3    H226874   8.062   9.454   4.593  2.0505  0.9432  0.3006
41998TIP3   OH226875   2.354   6.402   6.442  0.2526  0.4059  0.3603
41998TIP3    H126876   2.428   6.367   6.393 -0.1905 -0.6403  0.3987
41998TIP3    H226877   2.362   6.497   6.434  0.7144  0.2752 -0.9533
41999TIP3   OH226878   7.080   9.667   0.325  0.5021 -0.5333  0.5885
41999TIP3    H126879   7.129   9.626   0.253 -0.3255  0.6036 -0.6870
41999TIP3    H226880   6.996   9.623   0.325  1.4512 -2.5731  2.8661
42000TIP3   OH226881   5.711   8.463   8.362 -0.0940  0.1316  0.7373
42000TIP3    H126882   5.628   8.431   8.397 -1.6492  2.0806 -0.9297
42000TIP3    H226883   5.776   8.402   8.397 -2.4036 -2.7126  0.5227
42001TIP3   OH226884   1.232   9.253   4.023 -0.4167 -0.0917  0.8501
42001TIP3    H126885   1.160   9.232   4.082 -2.1821  3.1086  0.0423
42001TIP3    H226886   1.204   9.220   3.938  0.4878 -1.4692  1.0540
42002TIP3   OH226887   7.170   1.972   0.947 -0.0055  0.2597  0.4289
42002TIP3    H126888   7.239   1.908   0.931 -1.1974 -0.8124 -0.6907
42002TIP3    H226889   7.103   1.924   0.996 -0.8250  0.6823 -0.2337
42003TIP3   OH226890   3.905   2.676   5.214  0.2480 -0.3729  0.6529
42003TIP3    H126891   3.820   2.715   5.198  0.2994  0.0516  1.3461
42003TIP3    H226892   3.905   2.657   5.308  0.9461 -0.2813  0.6801
42004TIP3   OH226893   1.236   0.387   5.100 -0.1886 -0.2181 -0.3619
42004TIP3    H126894   1.217   0.398   5.007 -0.2184 -0.2989 -0.3657
42004TIP3    H226895   1.173   0.444   5.144 -0.0171  0.0050 -0.4014
42005TIP3   OH226896   5.453  10.521   8.185 -0.1847 -0.2696 -0.5816
42005TIP3    H126897   5.441  10.606   8.143 -0.5908  0.2213  0.5103
42005TIP3    H226898   5.390  10.463   8.141 -1.2077  0.4439 -0.0859
42006TIP3   OH226899   8.790   0.999   5.326 -0.7525 -0.2081 -0.1765
42006TIP3    H126900   8.742   0.946   5.263 -2.2769  0.8930 -0.0234
42006TIP3    H226901   8.733   1.002   5.403  0.1431  0.1301  0.4903
42007TIP3   OH226902   3.800   9.968   0.926 -0.5312 -0.2239 -0.4041
42007TIP3    H126903   3.883  10.009   0.951  0.9634 -3.9753  1.8115
42007TIP3    H226904   3.821   9.919   0.846 -1.4227  0.9181 -1.3587
42008TIP3   OH226905   7.184   8.870   7.844  1.1619  0.1136  0.1162
42008TIP3    H126906   7.139   8.865   7.760  2.2057  0.3010 -0.4730
42008TIP3    H226907   7.124   8.917   7.901  0.5175  0.1396 -0.5722
42009TIP3   OH226908   3.013   8.704   5.304  0.2798 -0.1331  0.1955
42009TIP3    H126909   2.937   8.658   5.268 -0.7844  0.8318  1.1342
42009TIP3    H226910   3.071   8.633   5.334  0.6160 -0.9232 -2.1364
42010TIP3   OH226911   0.506   3.917   8.076  0.0547  0.2917  0.3241
42010TIP3    H126912   0.601   3.912   8.077  0.0102 -1.5416 -0.8615
42010TIP3    H226913   0.477   3.853   8.140 -0.3934  0.1835  0.0169
42011TIP3   OH226914   9.831  10.782   9.149 -0.2866 -0.2219 -0.4147
42011TIP3    H126915   9.741  10.812   9.138  0.0862  1.3882  0.4725
42011TIP3    H226916   9.872  10.850   9.203  1.6866 -0.4647 -1.4925
42012TIP3   OH226917   2.573   5.108   8.389 -0.2706  0.1095 -0.5135
42012TIP3    H126918   2.501   5.118   8.450 -1.1123 -0.6704 -1.3578
42012TIP3    H226919   2.551   5.166   8.316 -0.0565 -0.1522 -0.7902
42013TIP3   OH226920   4.589   3.638   9.029  0.0827  0.8191  0.5390
42013TIP3    H126921   4.507   3.606   8.990  0.7688 -0.7931  0.3077
42013TIP3    H226922   4.613   3.713   8.976 -1.0133  1.0424  0.3278
42014TIP3   OH226923   6.068   4.651   2.988 -0.2566  0.2892 -0.0305
42014TIP3    H126924   6.078   4.563   3.023 -0.2077  0.2062 -0.2533
42014TIP3    H226925   5.989   4.646   2.934 -0.3728  0.4355  0.1247
42015TIP3   OH226926   0.748   0.965   1.035 -0.0070 -0.1409  0.5781
42015TIP3    H126927   0.793   0.890   1.074  1.4674  0.1053 -0.5423
42015TIP3    H226928   0.812   1.036   1.039 -0.5493  0.4274 -0.3969
42016TIP3   OH226929   5.495   4.260   9.393 -0.3747 -0.0384  0.9882
42016TIP3    H126930   5.498   4.349   9.428 -1.1368 -0.5502  2.4328
42016TIP3    H226931   5.440   4.211   9.455  1.7446 -2.0316  1.4325
42017TIP3   OH226932   2.716   3.470   3.124 -0.3953  0.0033 -0.4758
42017TIP3    H126933   2.702   3.381   3.155  0.3445 -0.0546 -0.2997
42017TIP3    H226934   2.792   3.501   3.173 -0.2286  0.4957 -1.0327
42018TIP3   OH226935   1.661   5.372   9.441  0.2211  0.0099  0.0838
42018TIP3    H126936   1.598   5.313   9.398 -0.2369  0.4706  0.1136
42018TIP3    H226937   1.664   5.342   9.531 -0.3807  0.3297  0.2158
42019TIP3   OH226938   4.389   6.600   1.183 -0.3336  0.2704 -0.5014
42019TIP3    H126939   4.408   6.561   1.268  1.0761 -0.0096 -0.9149
42019TIP3    H226940   4.415   6.533   1.120 -1.0488  0.6020 -1.1593
42020TIP3   OH226941   7.643   4.049   2.136  0.1153 -0.2273 -0.1268
42020TIP3    H126942   7.718   4.041   2.195 -0.3398  0.4218  0.5571
42020TIP3    H226943   7.567   4.046   2.193 -0.4241 -1.4216 -0.8656
42021TIP3   OH226944   9.251   2.002   1.113 -1.1252 -0.4855  0.3333
42021TIP3    H126945   9.212   2.022   1.028 -1.0890 -1.8168 -0.0220
42021TIP3    H226946   9.177   1.980   1.169 -1.0702 -0.6983  0.3251
42022TIP3   OH226947   9.144   4.037   4.819 -0.5222 -0.1089 -0.4498
42022TIP3    H126948   9.195   3.968   4.862 -1.8439 -0.7732  0.0860
42022TIP3    H226949   9.197   4.061   4.743  1.1908  0.0941  0.7265
42023TIP3   OH226950  10.057   9.749   2.422  0.3601  0.2063 -0.0473
42023TIP3    H126951  10.038   9.767   2.330  2.3544  0.1945 -0.5080
42023TIP3    H226952  10.028   9.659   2.435 -0.8779  0.5419 -0.3613
42024TIP3   OH226953   6.164   4.165  10.505  0.5072 -0.0965 -0.1805
42024TIP3    H126954   6.248   4.123  10.520 -0.0573 -1.5536 -0.8681
42024TIP3    H226955   6.108   4.133  10.576 -0.0530 -0.9035 -0.9661
42025TIP3   OH226956   9.426   8.572  10.668  0.1513  0.1417  0.3509
42025TIP3    H126957   9.388   8.496  10.711 -1.1684  1.4686  1.6827
42025TIP3    H226958   9.449   8.631  10.740 -0.0970  1.5409 -0.6554
42026TIP3   OH226959   6.760   8.771   4.197  0.0339 -0.5401 -0.2658
42026TIP3    H126960   6.695   8.725   4.144 -0.4004 -0.9110  0.5736
42026TIP3    H226961   6.808   8.824   4.134 -2.9764  2.0841 -0.5997
42027TIP3   OH226962   5.815   9.470   9.395  0.4082 -0.0646 -0.3053
42027TIP3    H126963   5.765   9.388   9.390 -0.4245  0.5036 -1.8524
42027TIP3    H226964   5.905   9.442   9.416 -0.5479 -1.0789  3.0496
42028TIP3   OH226965   5.329   4.023   4.749 -0.0739  0.0989 -0.4318
42028TIP3    H126966   5.372   3.940   4.730 -0.9633 -0.6513  0.7332
42028TIP3    H226967   5.400   4.087   4.752  1.2073 -1.2801  2.5595
42029TIP3   OH226968   2.378   2.919   9.797 -0.2881  0.2764 -0.2827
42029TIP3    H126969   2.381   3.011   9.771 -0.0375  0.4622  0.3807
42029TIP3    H226970   2.465   2.901   9.832 -0.8707  0.2873  1.2368
42030TIP3   OH226971   4.568   4.664   7.626  0.3937  0.3469  0.0088
42030TIP3    H126972   4.659   4.688   7.605  0.3587 -0.1224 -0.7368
42030TIP3    H226973   4.517   4.705   7.557 -0.0970  1.5728  1.0699
42031TIP3   OH226974   2.208   0.355   7.892 -0.3363  0.5194  0.0686
42031TIP3    H126975   2.183   0.266   7.918 -0.4186  0.7097  0.6457
42031TIP3    H226976   2.126   0.401   7.880 -0.3014  0.4368 -0.5470
42032TIP3   OH226977   1.353   5.878   8.108  0.2659  0.0917 -0.7175
42032TIP3    H126978   1.327   5.960   8.067 -1.9360 -0.8428 -1.3720
42032TIP3    H226979   1.403   5.904   8.186 -0.5797  2.0357 -0.7706
42033TIP3   OH226980   0.347   4.240   6.174 -0.2787 -0.2980  0.2944
42033TIP3    H126981   0.282   4.252   6.105  0.2607 -1.4812 -0.4747
42033TIP3    H226982   0.385   4.154   6.155  3.1954  1.2921 -0.7826
42034TIP3   OH226983  10.066   2.517   4.405 -0.3761  0.6808 -0.1817
42034TIP3    H126984  10.145   2.468   4.430 -0.6035  0.5453  0.2695
42034TIP3    H226985  10.049   2.575   4.478  0.3499  2.0293 -1.0515
42035TIP3   OH226986   4.177   8.633   7.597 -0.3505 -0.2691 -0.3385
42035TIP3    H126987   4.267   8.611   7.574 -0.8039 -1.7398 -0.8753
42035TIP3    H226988   4.169   8.727   7.581  0.6913 -0.3818 -1.6449
42036TIP3   OH226989   0.429   2.735   8.992  0.7015  0.2347  0.0514
42036TIP3    H126990   0.385   2.699   8.914  0.2946  2.1653 -0.6797
42036TIP3    H226991   0.518   2.700   8.988 -0.2091 -2.3784  0.6128
42037TIP3   OH226992   9.494   3.983  10.547  0.2448  0.1648  0.1415
42037TIP3    H126993   9.585   3.955  10.535 -0.0626  0.2226 -3.3327
42037TIP3    H226994   9.441   3.909  10.519 -0.7541  0.7663  0.3685
42038TIP3   OH226995   8.994  10.407   1.470 -0.1472  0.3366  1.1869
42038TIP3    H126996   9.053  10.337   1.441  0.0706  0.6608  0.8433
42038TIP3    H226997   9.000  10.405   1.565 -0.0594 -0.0403  1.1787
42039TIP3   OH226998   8.659   6.180   8.959 -0.2220  0.8574 -0.3433
42039TIP3    H126999   8.687   6.233   9.033 -0.3597 -0.5201  0.7502
42039TIP3    H227000   8.567   6.161   8.976  0.2735 -1.2573  0.3251
42040TIP3   OH227001   5.573   7.894   8.972 -0.1028 -0.7777  0.5285
42040TIP3    H127002   5.489   7.940   8.978  0.3780  0.3693 -1.0284
42040TIP3    H227003   5.617   7.912   9.055  0.2619  2.0319 -0.1808
42041TIP3   OH227004   1.865  10.160   1.555  0.0249  0.8588 -0.4668
42041TIP3    H127005   1.878  10.071   1.589 -3.3291 -0.0289 -1.1129
42041TIP3    H227006   1.928  10.168   1.483  0.5352 -0.9293 -0.2694
42042TIP3   OH227007   8.196   9.639   1.783  0.2010  0.6596  0.7819
42042TIP3    H127008   8.122   9.595   1.826  0.2084 -0.0325  0.1119
42042TIP3    H227009   8.157   9.685   1.709  0.3747  0.7214  0.7273
42043TIP3   OH227010   9.929  10.625   6.214  0.6620  0.9547 -0.2106
42043TIP3    H127011   9.952  10.672   6.294  0.1371  1.1318 -0.1621
42043TIP3    H227012  10.004  10.640   6.155  0.5388  1.7808 -0.1644
42044TIP3   OH227013   4.051   6.690   3.005 -0.1558 -0.1239 -0.1092
42044TIP3    H127014   4.129   6.655   2.963 -0.4610 -1.3807  0.3397
42044TIP3    H227015   4.036   6.775   2.962  0.6697 -0.4801 -1.1273
42045TIP3   OH227016   2.533   2.324   3.402  0.8943 -0.1040  0.7426
42045TIP3    H127017   2.520   2.257   3.335  0.5646  1.2850 -0.6279
42045TIP3    H227018   2.445   2.340   3.437  1.0623 -0.8123  1.5477
42046TIP3   OH227019   6.862   9.558   3.313  0.3491  0.1960  0.2283
42046TIP3    H127020   6.916   9.634   3.332  1.3688 -0.4744  0.0629
42046TIP3    H227021   6.855   9.555   3.218 -2.3069  1.8510  0.2848
42047TIP3   OH227022   1.978   5.575   4.483  0.0544 -0.0836  0.0725
42047TIP3    H127023   1.989   5.663   4.448 -1.0575  1.2789  2.8281
42047TIP3    H227024   2.054   5.562   4.539  0.1882 -0.9025 -0.2827
42048TIP3   OH227025   0.449   2.621   0.818  0.1385  0.4616 -0.5928
42048TIP3    H127026   0.521   2.682   0.803  0.0343  0.2903 -1.9096
42048TIP3    H227027   0.490   2.545   0.859  0.4188  1.0343  0.2100
42049TIP3   OH227028   4.446   4.854   9.414  0.1393 -0.0265  0.0382
42049TIP3    H127029   4.524   4.803   9.392  1.2078  1.2519  0.7082
42049TIP3    H227030   4.473   4.908   9.488 -1.2549  0.7801 -0.0092
42050TIP3   OH227031  10.701  10.376   8.011 -0.0716  0.1056  0.1253
42050TIP3    H127032  10.754  10.303   7.979 -2.3026 -1.3652 -0.5015
42050TIP3    H227033  10.705  10.369   8.106  0.8427  0.0540  0.0940
42051TIP3   OH227034   7.898   8.031   0.378 -0.4854 -0.3286  0.0444
42051TIP3    H127035   7.959   7.958   0.387 -0.5903 -0.4969 -0.5764
42051TIP3    H227036   7.948   8.100   0.336 -0.2585  0.1311  1.0372
42052TIP3   OH227037   5.286   0.128  10.084  0.3898 -0.1524  0.5582
42052TIP3    H127038   5.222   0.190  10.049 -0.7049 -0.6689  1.5748
42052TIP3    H227039   5.262   0.118  10.176  0.7360 -1.8592  0.4947
42053TIP3   OH227040   2.822   0.122  10.566 -0.4798 -0.5680 -0.2787
42053TIP3    H127041   2.918   0.126  10.558 -0.3984 -1.4746  0.1600
42053TIP3    H227042   2.801   0.184  10.635 -0.5949  2.4819 -2.8034
42054TIP3   OH227043   4.200   4.075   9.649 -0.5170 -0.2680  0.0984
42054TIP3    H127044   4.121   4.023   9.662 -1.2109  0.9085  0.6422
42054TIP3    H227045   4.210   4.125   9.729 -1.0621  2.0421 -1.2007
42055TIP3   OH227046   5.222   9.015  10.414 -0.6969 -0.2200 -0.2346
42055TIP3    H127047   5.216   9.019  10.319  2.2755  0.6074 -0.4811
42055TIP3    H227048   5.211   9.106  10.443  4.6904  0.9004 -0.5254
42056TIP3   OH227049  10.540   3.437   0.222 -0.7701  0.2062 -0.0388
42056TIP3    H127050  10.562   3.530   0.215 -0.8278  0.4073  1.8463
42056TIP3    H227051  10.624   3.394   0.242 -0.3111 -0.5212 -3.0209
42057TIP3   OH227052   0.620   0.704   5.648  0.5121 -0.4071  0.2877
42057TIP3    H127053   0.665   0.753   5.716  1.7080  0.4941 -1.0806
42057TIP3    H227054   0.652   0.742   5.566 -1.0121 -1.3110 -0.7888
42058TIP3   OH227055   0.176   0.037  10.689 -1.0171 -0.1462 -0.4484
42058TIP3    H127056   0.271   0.046  10.688 -1.1839  3.0013  0.7966
42058TIP3    H227057   0.146   0.090  10.615 -1.8216  0.7584  0.4884
42059TIP3   OH227058   0.955   5.087   8.389  0.0276 -0.1828 -0.4695
42059TIP3    H127059   1.006   5.168   8.381  0.7588 -0.7889 -2.7971
42059TIP3    H227060   0.872   5.115   8.427  0.7335  1.4428 -0.0206
42060TIP3   OH227061   9.741  10.020   4.928  0.8418  0.0510  0.5523
42060TIP3    H127062   9.708  10.020   5.018  1.6492 -0.6095  0.8666
42060TIP3    H227063   9.835  10.001   4.937  1.1824  1.1952 -0.3566
42061TIP3   OH227064   9.747   6.434   3.341 -0.0588 -0.1058  0.2656
42061TIP3    H127065   9.794   6.352   3.354 -0.0560 -0.1728 -0.1512
42061TIP3    H227066   9.688   6.417   3.268 -1.1018 -0.1743  1.0940
42062TIP3   OH227067   2.880   5.241   9.312 -0.2104 -0.6448  0.1655
42062TIP3    H127068   2.922   5.155   9.302  0.0862 -0.4160 -0.6102
42062TIP3    H227069   2.803   5.236   9.255 -0.1575 -0.3802  0.0705
42063TIP3   OH227070   6.783   7.864   2.692 -0.5099 -0.4772  0.0427
42063TIP3    H127071   6.731   7.784   2.689 -0.5942 -0.4079 -0.7562
42063TIP3    H227072   6.874   7.834   2.689 -0.5452 -0.5399 -1.5006
42064TIP3   OH227073   3.684   5.617   4.216 -0.4506 -0.0000  0.4874
42064TIP3    H127074   3.693   5.683   4.285 -0.3596 -1.0265  1.4857
42064TIP3    H227075   3.648   5.541   4.260 -1.0380 -0.4663 -0.7532
42065TIP3   OH227076   6.166   4.499   5.882  0.1563  0.1771 -0.3782
42065TIP3    H127077   6.225   4.481   5.809  0.7967 -0.0980  0.1841
42065TIP3    H227078   6.164   4.417   5.932  0.3157  0.5725  0.3033
42066TIP3   OH227079   5.933   3.879   5.413 -0.3585  0.4459 -0.2895
42066TIP3    H127080   5.959   3.799   5.458 -0.0231  0.3968 -0.5569
42066TIP3    H227081   5.933   3.855   5.320 -0.0216  0.8165 -0.3883
42067TIP3   OH227082   8.872   4.335   3.257 -0.0787  0.2312  0.0521
42067TIP3    H127083   8.777   4.328   3.266 -0.4657 -1.1300 -3.3237
42067TIP3    H227084   8.906   4.310   3.342 -2.7091  2.0031  1.7751
42068TIP3   OH227085  10.896   6.136  10.330  0.3829  0.1505  0.2078
42068TIP3    H127086  10.976   6.171  10.368  1.9856 -3.6733  0.8353
42068TIP3    H227087  10.925   6.089  10.251 -1.5512  0.2298 -0.6127
42069TIP3   OH227088   8.314   1.351   0.331 -0.3296 -0.0867 -0.3147
42069TIP3    H127089   8.277   1.358   0.243 -0.1584  0.0485 -0.3764
42069TIP3    H227090   8.338   1.441   0.354  1.7301 -0.4067 -1.0371
42070TIP3   OH227091   2.134   6.362   9.206 -0.2426  0.2797 -0.5701
42070TIP3    H127092   2.040   6.359   9.188  0.0487 -1.1160 -2.1299
42070TIP3    H227093   2.174   6.379   9.121  0.9838 -1.0765 -0.3047
42071TIP3   OH227094   3.955   3.066   7.388 -0.0844  0.4112 -0.4422
42071TIP3    H127095   3.925   3.006   7.320  0.7777  0.5874 -0.9928
42071TIP3    H227096   3.889   3.135   7.390 -0.5657 -0.0458 -0.4937
42072TIP3   OH227097   5.091   5.800   4.403 -0.3075  0.8892 -0.3597
42072TIP3    H127098   5.083   5.872   4.340 -0.6798  1.4969  0.3736
42072TIP3    H227099   5.038   5.827   4.478 -0.1629  0.0084  0.0716
42073TIP3   OH227100   8.707   5.137   4.473 -0.2704 -0.0513 -0.1477
42073TIP3    H127101   8.676   5.066   4.528  1.1983 -0.3379  0.3489
42073TIP3    H227102   8.632   5.158   4.416 -1.0134 -1.3602  0.3099
42074TIP3   OH227103   1.168   0.507   7.072 -0.4045 -0.2204 -0.2954
42074TIP3    H127104   1.149   0.600   7.067 -2.5495 -0.5285  1.0209
42074TIP3    H227105   1.176   0.488   7.165 -1.8162 -1.6508 -0.4164
42075TIP3   OH227106   8.291   7.670   5.742 -0.4325  0.3563  0.2261
42075TIP3    H127107   8.287   7.685   5.648  0.2058 -0.5743  0.0255
42075TIP3    H227108   8.252   7.583   5.754  1.1635 -0.3683  0.5495
42076TIP3   OH227109   4.486   4.370   2.635 -0.1037 -0.3214  0.1245
42076TIP3    H127110   4.538   4.364   2.555 -1.7513  3.3452 -1.4354
42076TIP3    H227111   4.402   4.332   2.612 -0.4438  0.3608  0.2238
42077TIP3   OH227112   8.641   6.123   0.545 -0.5149  0.2165  0.3022
42077TIP3    H127113   8.720   6.172   0.523 -1.2423 -0.0716 -3.4934
42077TIP3    H227114   8.664   6.032   0.527 -1.5057  0.0650 -0.2354
42078TIP3   OH227115   7.035   4.716   3.911  0.0014 -0.1479  0.1758
42078TIP3    H127116   7.026   4.730   4.005 -2.7919  0.9809 -0.1712
42078TIP3    H227117   6.953   4.674   3.885  0.7412 -0.4858 -1.7453
42079TIP3   OH227118   0.039   2.390   6.627  0.1606 -0.4589  0.4849
42079TIP3    H127119   0.058   2.304   6.665  0.6827 -0.0698  1.1003
42079TIP3    H227120  -0.056   2.400   6.637  0.0713 -1.0292  0.2582
42080TIP3   OH227121   0.281   6.411   8.372  0.3390 -0.0288 -0.1471
42080TIP3    H127122   0.250   6.468   8.443  0.2860 -1.2543  0.8473
42080TIP3    H227123   0.365   6.449   8.347 -0.1165  1.0258 -0.1543
42081TIP3   OH227124   2.576   0.922   8.344 -0.4318 -0.0764 -0.5263
42081TIP3    H127125   2.669   0.899   8.343 -0.3280  0.0194  1.6702
42081TIP3    H227126   2.546   0.905   8.255  1.0338 -2.9279 -0.6013
42082TIP3   OH227127  10.507   4.203   7.102 -0.1903  0.0538  0.3670
42082TIP3    H127128  10.594   4.175   7.074  0.0910  0.4989  0.7867
42082TIP3    H227129  10.522   4.253   7.182 -0.7566  0.7555  0.0461
42083TIP3   OH227130   6.095   2.199   2.455 -0.0506  0.3476  0.5278
42083TIP3    H127131   6.065   2.117   2.417  0.3889  0.6905 -0.6032
42083TIP3    H227132   6.080   2.264   2.386  1.6865  0.8285  0.5673
42084TIP3   OH227133   9.821   1.870   4.138  0.2550  0.3501 -0.2553
42084TIP3    H127134   9.852   1.927   4.068  1.1713 -1.9241 -1.8276
42084TIP3    H227135   9.899   1.823   4.166 -0.6909 -1.1499 -0.0337
42085TIP3   OH227136   2.041   8.075   3.244  0.2198 -0.0567  0.1185
42085TIP3    H127137   2.106   8.004   3.238 -0.8982 -1.3014  1.7020
42085TIP3    H227138   2.001   8.078   3.157  0.0564 -1.6585  0.1008
42086TIP3   OH227139   9.020   0.785   2.013 -0.8125 -0.1025  0.3666
42086TIP3    H127140   9.003   0.734   2.093 -1.1091  1.2049  1.1643
42086TIP3    H227141   9.115   0.788   2.007 -0.6342 -3.6070 -1.6190
42087TIP3   OH227142   8.578   8.654   6.296  0.0187 -0.5523 -0.2437
42087TIP3    H127143   8.653   8.689   6.249  0.7964  0.2322  1.4762
42087TIP3    H227144   8.508   8.717   6.280  0.5203  0.1687  0.2864
42088TIP3   OH227145   7.039   8.932   2.477  0.5675 -0.8152 -0.3533
42088TIP3    H127146   6.999   8.916   2.391 -2.3811  2.6054  0.1516
42088TIP3    H227147   7.005   8.862   2.533  0.5908 -1.7041 -1.4159
42089TIP3   OH227148   0.097   3.057   6.859  0.0341 -0.2248 -0.2093
42089TIP3    H127149   0.131   3.089   6.943 -0.0018 -1.0863  0.1395
42089TIP3    H227150   0.041   3.128   6.828  0.5332  0.3616  0.1894
42090TIP3   OH227151   1.107   0.066   7.936 -0.2091 -0.1979  0.1890
42090TIP3    H127152   1.129   0.093   7.847 -1.0281 -2.2687 -0.7061
42090TIP3    H227153   1.190   0.036   7.974 -0.1027 -0.6936 -0.4212
42091TIP3   OH227154   2.201   6.562   4.288  0.1310 -0.1979 -0.0135
42091TIP3    H127155   2.129   6.536   4.345  0.2472 -1.3566 -0.3683
42091TIP3    H227156   2.267   6.494   4.300  0.4923 -0.0256 -0.9096
42092TIP3   OH227157   1.166   2.811   6.040  0.3063 -0.1145  0.9184
42092TIP3    H127158   1.241   2.866   6.019 -1.4801  1.6034 -1.5734
42092TIP3    H227159   1.120   2.800   5.956 -2.4897 -0.6276  2.3889
42093TIP3   OH227160   2.762   9.876   1.671  0.2966 -0.0006  0.2123
42093TIP3    H127161   2.838   9.879   1.729 -1.1488  0.7607  2.1793
42093TIP3    H227162   2.706   9.808   1.709 -0.6519  0.4536 -0.3391
42094TIP3   OH227163   2.235   2.988   0.109 -0.2792 -0.2979  0.0976
42094TIP3    H127164   2.315   3.004   0.059 -0.8234 -0.1521 -0.7428
42094TIP3    H227165   2.248   3.039   0.190  0.2954  0.0665 -0.2100
42095TIP3   OH227166   8.504  10.678   5.805 -0.4876  0.6540 -0.0698
42095TIP3    H127167   8.435  10.630   5.852 -0.6350  1.7857  0.9282
42095TIP3    H227168   8.566  10.703   5.874  0.2820  0.7188 -0.7774
42096TIP3   OH227169   5.057   0.170   8.039 -0.1178  0.2765  0.2671
42096TIP3    H127170   5.049   0.076   8.057  0.8617 -0.3805 -2.2834
42096TIP3    H227171   5.145   0.192   8.070  1.2883 -0.6855 -2.7121
42097TIP3   OH227172   4.716   8.670   9.716 -0.6216 -0.3557  0.1166
42097TIP3    H127173   4.686   8.759   9.737 -0.2857 -0.4340  0.9489
42097TIP3    H227174   4.709   8.665   9.621  0.0658  0.8269 -0.0225
42098TIP3   OH227175   5.006   8.513   7.294 -0.2224  0.6246 -0.1578
42098TIP3    H127176   4.910   8.510   7.299 -0.3230  0.4118 -1.7710
42098TIP3    H227177   5.029   8.446   7.230  0.9101  1.6289 -0.8403
42099TIP3   OH227178   6.306   1.543   2.624  0.2271 -0.3987 -0.2515
42099TIP3    H127179   6.272   1.575   2.541  1.7687  1.5071 -0.2083
42099TIP3    H227180   6.391   1.505   2.603  1.2775  1.3553  0.5758
42100TIP3   OH227181   4.867   6.493   0.850 -0.0370  0.3162 -0.0553
42100TIP3    H127182   4.949   6.485   0.801 -0.4075 -0.9518 -0.5363
42100TIP3    H227183   4.825   6.571   0.814 -0.3170 -0.5993 -1.8667
42101TIP3   OH227184   4.738   3.336   4.101  0.5420 -0.2415 -0.4674
42101TIP3    H127185   4.690   3.254   4.112  0.9935 -0.6262 -1.2494
42101TIP3    H227186   4.690   3.399   4.154 -1.0085 -0.5531 -1.4318
42102TIP3   OH227187   8.392   6.384   2.136 -0.6836  0.1244  0.0215
42102TIP3    H127188   8.478   6.341   2.129 -0.9807 -0.2223 -2.1720
42102TIP3    H227189   8.412   6.477   2.147  0.0578  0.3829 -2.8456
42103TIP3   OH227190   4.220   0.118  10.186  0.0600 -0.0409 -0.3292
42103TIP3    H127191   4.129   0.112  10.217  0.0178 -0.5629 -0.5425
42103TIP3    H227192   4.246   0.027  10.172  0.2954  0.1540 -1.2027
42104TIP3   OH227193   4.469   3.071   2.454 -0.7446 -0.2413 -0.1605
42104TIP3    H127194   4.467   3.012   2.529 -0.3739  1.0130  0.8815
42104TIP3    H227195   4.498   3.155   2.491 -0.0948  0.2867 -1.7909
42105TIP3   OH227196   3.547   4.989   8.240 -0.3149  0.5007  0.3225
42105TIP3    H127197   3.480   4.978   8.172  0.6944 -1.1880 -0.4726
42105TIP3    H227198   3.623   5.025   8.193  0.7368 -1.6422  0.2517
42106TIP3   OH227199   9.571   8.738   1.357 -0.1219  0.2636  0.1885
42106TIP3    H127200   9.603   8.649   1.341  0.6995  0.3986  0.9805
42106TIP3    H227201   9.521   8.731   1.438  2.2891  0.9978  1.8521
42107TIP3   OH227202   8.447   9.156   1.477  0.0696  0.1252 -0.0690
42107TIP3    H127203   8.503   9.170   1.554  2.9082 -0.4572 -1.8956
42107TIP3    H227204   8.480   9.217   1.412 -2.6306  1.0006 -0.7820
42108TIP3   OH227205   9.372   9.298   0.640  0.2235 -0.1308 -0.2085
42108TIP3    H127206   9.364   9.305   0.545  1.2860  0.0698 -0.2987
42108TIP3    H227207   9.445   9.238   0.654 -1.0037 -1.5243  0.5143
42109TIP3   OH227208   6.039   6.247   8.922  0.1439 -0.2808 -0.0694
42109TIP3    H127209   5.952   6.264   8.958  0.7653 -0.0173  1.3572
42109TIP3    H227210   6.077   6.334   8.910  1.0247 -0.4225  1.4405
42110TIP3   OH227211   9.438   9.648   2.603  0.1813 -0.6188 -0.2582
42110TIP3    H127212   9.368   9.597   2.643  0.4901  1.5333  3.4143
42110TIP3    H227213   9.396   9.731   2.579  1.0250 -0.1050  0.0153
42111TIP3   OH227214   1.118   1.049   2.752  0.5192  0.0303  0.2867
42111TIP3    H127215   1.122   1.013   2.841  1.1638 -2.2290 -0.5702
42111TIP3    H227216   1.209   1.062   2.728  0.3151  1.6660  0.2993
42112TIP3   OH227217   0.588   8.281   0.966  0.4784 -0.1620 -0.1392
42112TIP3    H127218   0.655   8.295   0.899 -1.1160 -0.3588 -1.8805
42112TIP3    H227219   0.607   8.346   1.034  0.8140  1.6835 -1.9040
42113TIP3   OH227220   2.154   2.813   1.836 -0.6731 -0.0919 -0.0779
42113TIP3    H127221   2.225   2.760   1.798 -1.9480 -1.9883  0.0606
42113TIP3    H227222   2.094   2.827   1.763 -1.3615 -0.6481  0.3712
42114TIP3   OH227223  10.167   4.539   0.257 -0.1005  0.2728  0.6758
42114TIP3    H127224  10.134   4.603   0.320 -2.2699 -1.7500  1.7560
42114TIP3    H227225  10.226   4.483   0.308 -2.0805 -1.5467  1.1600
42115TIP3   OH227226   7.148  10.470   2.977 -0.3452 -0.6767 -0.5237
42115TIP3    H127227   7.226  10.487   2.923 -1.0384  1.0474 -1.0523
42115TIP3    H227228   7.076  10.469   2.914 -0.9703 -0.3249  0.1794
42116TIP3   OH227229   3.718   9.914   6.430  0.1367 -0.3239 -0.1784
42116TIP3    H127230   3.756   9.862   6.359 -0.2626  1.1529 -1.5308
42116TIP3    H227231   3.636   9.948   6.394  0.7591  1.8832  0.3476
42117TIP3   OH227232   2.727   9.565   8.845  0.2745  0.0381 -0.0335
42117TIP3    H127233   2.668   9.507   8.893  0.2377  0.2265  0.1519
42117TIP3    H227234   2.804   9.574   8.901  0.6006 -0.4280 -0.3969
42118TIP3   OH227235   1.366   4.205   8.352  0.8942  0.6856  0.8668
42118TIP3    H127236   1.316   4.283   8.332  0.5823  0.5351  1.0478
42118TIP3    H227237   1.418   4.229   8.429  1.6461  1.0708  0.2558
42119TIP3   OH227238   1.629   6.962  10.362  0.2975 -0.0879 -0.0594
42119TIP3    H127239   1.604   6.927  10.276  0.7954  1.9129 -1.0667
42119TIP3    H227240   1.556   7.017  10.388  0.8412  0.5999  0.0338
42120TIP3   OH227241   7.193   0.441   0.988 -0.0256 -0.4484  0.0348
42120TIP3    H127242   7.221   0.513   1.045  0.1469 -1.2670  1.0085
42120TIP3    H227243   7.108   0.415   1.022 -0.4566 -0.1930 -0.8159
42121TIP3   OH227244  10.767   0.024   3.312  0.2615  0.0539  0.3450
42121TIP3    H127245  10.678   0.012   3.343  0.3822  1.8415  1.5411
42121TIP3    H227246  10.780  -0.045   3.246 -0.4729 -3.2361  3.3044
42122TIP3   OH227247   6.966   5.104   9.184 -0.1768  0.6077  0.2637
42122TIP3    H127248   7.059   5.125   9.195  0.1158  0.2477 -1.3403
42122TIP3    H227249   6.960   5.065   9.097 -1.6809 -0.2947  0.7365
42123TIP3   OH227250   1.564  10.478   0.051 -0.4668 -0.3183 -0.1500
42123TIP3    H127251   1.612  10.517   0.125 -2.3786  0.4595  0.7512
42123TIP3    H227252   1.631  10.434  -0.000  1.1935  0.6381  1.0882
42124TIP3   OH227253   8.072   8.930   0.708  0.3728  0.0450 -0.2315
42124TIP3    H127254   8.131   8.977   0.766 -0.1369  0.8400 -0.3440
42124TIP3    H227255   7.984   8.947   0.742  0.1515 -0.4924 -0.5120
42125TIP3   OH227256   4.476   4.154   8.091  0.5726  0.7075  0.4655
42125TIP3    H127257   4.514   4.236   8.124  0.9425  0.9119 -0.4480
42125TIP3    H227258   4.498   4.153   7.998  0.5520 -0.4282  0.4622
42126TIP3   OH227259   1.476   9.961   3.040 -0.1627 -0.5664  0.3695
42126TIP3    H127260   1.414   9.994   3.105 -0.5009 -0.6809  0.1104
42126TIP3    H227261   1.529   9.896   3.087 -1.2143 -1.5536  0.2400
42127TIP3   OH227262   6.844   0.211   3.035 -0.3181 -0.1642  0.1625
42127TIP3    H127263   6.807   0.126   3.057 -0.4646  0.2614  1.6519
42127TIP3    H227264   6.935   0.206   3.064 -0.4975  0.3912  0.8560
42128TIP3   OH227265   2.842   8.730   2.363 -0.2528  0.0696 -0.2130
42128TIP3    H127266   2.832   8.672   2.438 -1.9846  1.5311  0.7556
42128TIP3    H227267   2.760   8.722   2.315 -0.2296  1.1387 -0.4697
42129TIP3   OH227268   7.224   1.917   3.838  0.2920 -0.2235  0.3794
42129TIP3    H127269   7.212   1.832   3.797 -1.4267  1.0841 -2.1050
42129TIP3    H227270   7.136   1.942   3.868  0.0357  1.9677 -1.8701
42130TIP3   OH227271   2.638   5.891   9.653  0.1387 -0.5085 -0.1954
42130TIP3    H127272   2.634   5.982   9.622  0.4128 -0.3953  0.0964
42130TIP3    H227273   2.700   5.894   9.727  0.2635 -0.9603 -0.2826
42131TIP3   OH227274   7.318   8.332   5.751  0.0770 -0.3682 -0.4213
42131TIP3    H127275   7.380   8.322   5.679  0.4813  1.0947 -0.3021
42131TIP3    H227276   7.235   8.299   5.716  1.0466 -3.2103 -0.2871
42132TIP3   OH227277   3.919  10.511   7.327 -0.6148  0.3734 -0.2963
42132TIP3    H127278   3.907  10.520   7.232  2.0441 -1.6334 -0.9868
42132TIP3    H227279   3.876  10.429   7.349 -0.6326  0.4814  0.0772
42133TIP3   OH227280   3.870   9.799   6.228 -0.2356 -0.1850  0.2517
42133TIP3    H127281   3.959   9.801   6.192  0.1691  0.2859  1.2396
42133TIP3    H227282   3.849   9.706   6.233 -0.0722 -0.2766 -0.6389
42134TIP3   OH227283   4.993   0.738  10.275 -0.4192  0.8011  0.2734
42134TIP3    H127284   4.994   0.753  10.369 -0.3756  0.6571  0.2964
42134TIP3    H227285   5.086   0.728  10.251 -0.4516  0.4554  0.2804
42135TIP3   OH227286   5.818   5.440   9.210 -0.0034 -0.5024 -0.3160
42135TIP3    H127287   5.759   5.504   9.171 -1.2887 -0.1595  1.9698
42135TIP3    H227288   5.905   5.480   9.204 -0.7858  1.6659  1.2464
42136TIP3   OH227289  10.569   2.270   7.793  0.2060  0.5433  0.0913
42136TIP3    H127290  10.525   2.267   7.708  1.1842 -1.6473 -0.4026
42136TIP3    H227291  10.655   2.233   7.777  1.1352  1.8925  1.6796
42137TIP3   OH227292  10.201   6.754   0.547 -0.0499 -0.3182 -0.4201
42137TIP3    H127293  10.247   6.708   0.617 -0.0675 -0.5523 -0.5589
42137TIP3    H227294  10.129   6.695   0.522 -2.1996  1.2047  1.6896
42138TIP3   OH227295   2.376  10.183   2.212 -0.2061  0.2687  0.6632
42138TIP3    H127296   2.310  10.129   2.169  0.4628  0.6344 -0.8888
42138TIP3    H227297   2.326  10.241   2.269 -1.0319 -1.0099  1.3018
42139TIP3   OH227298   7.358   6.853  10.035 -0.5204 -0.0738 -0.0589
42139TIP3    H127299   7.319   6.940  10.027 -0.2871 -0.0130 -0.5776
42139TIP3    H227300   7.306   6.798   9.977  0.0800 -0.0161 -0.6666
42140TIP3   OH227301   9.912   7.159   0.926  0.2084  0.2278  0.2675
42140TIP3    H127302   9.877   7.108   0.999 -0.2568  0.0315 -0.0893
42140TIP3    H227303   9.885   7.249   0.943 -1.6195 -0.0970 -0.6567
42141TIP3   OH227304   7.175   5.702   0.852  0.4553  0.1201  0.4237
42141TIP3    H127305   7.214   5.690   0.765 -2.6144  1.2429 -1.2636
42141TIP3    H227306   7.108   5.633   0.858  1.1703 -0.4746  2.3168
42142TIP3   OH227307   3.959   9.109   0.259 -0.8433  0.0101  0.1722
42142TIP3    H127308   3.972   9.025   0.214  0.5972 -0.6406  1.6807
42142TIP3    H227309   3.900   9.158   0.202 -1.3128 -1.8261 -1.0083
42143TIP3   OH227310   3.928   2.639   1.942 -0.0035  0.7216  0.1450
42143TIP3    H127311   3.915   2.554   1.900  3.5842 -0.1225  0.4478
42143TIP3    H227312   3.919   2.702   1.871 -2.1473  0.1303 -0.1963
42144TIP3   OH227313   2.324   3.781   9.438  0.1658 -0.4046 -0.3531
42144TIP3    H127314   2.338   3.726   9.515  1.5605  1.0257  0.4682
42144TIP3    H227315   2.240   3.824   9.454 -0.9976 -2.3017 -1.0598
42145TIP3   OH227316   6.237   2.775   3.823  0.3812 -0.4634  0.3097
42145TIP3    H127317   6.198   2.855   3.787  2.2823  0.2101 -0.4337
42145TIP3    H227318   6.168   2.710   3.818 -0.5874  0.6022 -1.1011
42146TIP3   OH227319   3.788   0.324   4.485 -0.0005  0.3835 -0.1864
42146TIP3    H127320   3.876   0.340   4.521  0.0486  2.2958 -1.0250
42146TIP3    H227321   3.729   0.364   4.549 -0.1632  0.3090 -0.2917
42147TIP3   OH227322   0.193   3.574   3.895  0.6255  0.1184  0.0104
42147TIP3    H127323   0.250   3.509   3.937 -0.0592  1.2609  2.8819
42147TIP3    H227324   0.220   3.658   3.932 -2.2974  0.8072  0.8409
42148TIP3   OH227325   4.141   4.612   5.962 -0.2468 -0.3223 -0.2201
42148TIP3    H127326   4.049   4.604   5.985 -0.1674 -2.0031 -0.3822
42148TIP3    H227327   4.180   4.659   6.036 -1.0841 -0.2273  0.1776
42149TIP3   OH227328   4.915   3.258   5.510  0.2385 -0.4409  0.3500
42149TIP3    H127329   4.876   3.344   5.494  1.5829 -0.0067 -0.7408
42149TIP3    H227330   5.000   3.262   5.467  0.5562 -2.1351  0.7670
42150TIP3   OH227331   0.744   7.164   4.117  0.1912  0.1668 -0.2312
42150TIP3    H127332   0.782   7.243   4.154 -0.7602  0.4184  0.2302
42150TIP3    H227333   0.653   7.187   4.096 -0.2091 -0.8948  0.2515
42151TIP3   OH227334   7.377   0.389  10.052 -0.5738  0.6662  0.0844
42151TIP3    H127335   7.377   0.319  10.117 -0.3167 -0.4407 -1.0665
42151TIP3    H227336   7.468   0.418  10.048 -0.3823  0.0119 -0.5112
42152TIP3   OH227337   6.014   1.289   8.206 -0.3670 -0.5016 -0.1378
42152TIP3    H127338   5.996   1.294   8.300 -1.4180  0.2605 -0.3634
42152TIP3    H227339   5.953   1.222   8.174 -0.4206 -0.3391 -0.3748
42153TIP3   OH227340   3.870   2.832   6.017 -0.1768 -0.4459 -0.1984
42153TIP3    H127341   3.963   2.807   6.020  0.4177  1.4309 -1.3432
42153TIP3    H227342   3.862   2.883   5.937 -1.2588  2.8643  1.8262
42154TIP3   OH227343   5.034  10.653   4.410  0.6357  0.7684  0.1668
42154TIP3    H127344   5.048  10.594   4.337 -0.5000  0.4807  0.1577
42154TIP3    H227345   5.099  10.722   4.398  0.7306  0.5155 -0.8807
42155TIP3   OH227346   1.891   8.439   1.856 -0.4062  0.5160  0.1365
42155TIP3    H127347   1.907   8.449   1.950 -0.2480  1.0264  0.0561
42155TIP3    H227348   1.944   8.363   1.831 -1.0569 -0.1089  0.6073
42156TIP3   OH227349   0.106   1.808   9.786 -0.5752 -0.0909 -0.4555
42156TIP3    H127350   0.200   1.814   9.806 -0.3786  0.7977 -1.5157
42156TIP3    H227351   0.068   1.762   9.861  0.4364  1.1421  0.8699
42157TIP3   OH227352   2.997   5.114   8.881 -0.6368 -0.5001 -0.1825
42157TIP3    H127353   2.952   5.031   8.901 -2.8457  0.0487 -2.3812
42157TIP3    H227354   3.003   5.115   8.786 -0.1799  1.6293 -0.1684
42158TIP3   OH227355   0.577   1.852   4.582 -0.3434  0.1138 -0.1807
42158TIP3    H127356   0.540   1.781   4.635  0.4331 -0.3393 -0.2161
42158TIP3    H227357   0.531   1.930   4.611 -1.7972 -0.5189 -0.7214
42159TIP3   OH227358   8.083   9.042   4.958  0.0914  0.0976 -0.1268
42159TIP3    H127359   8.146   8.974   4.934 -1.4024 -2.3729  2.3812
42159TIP3    H227360   8.006   9.025   4.903 -0.6754 -1.0089  1.2257
42160TIP3   OH227361   5.804  10.253   7.542 -0.5820  0.0704 -0.0268
42160TIP3    H127362   5.814  10.294   7.628  0.6370 -0.6099  0.1708
42160TIP3    H227363   5.872  10.186   7.539  0.3135  0.9829 -2.0527
42161TIP3   OH227364   5.864  10.090   2.211  0.1962 -0.3683 -0.3902
42161TIP3    H127365   5.826  10.061   2.294 -1.7254  1.4370 -0.5503
42161TIP3    H227366   5.934  10.027   2.192 -0.6381 -1.9637  1.5849
42162TIP3   OH227367   9.285   3.970   9.828 -0.2926  0.0834 -0.2863
42162TIP3    H127368   9.237   3.903   9.877  0.7941 -0.4635  0.0712
42162TIP3    H227369   9.339   4.014   9.894  0.1059  0.3228 -0.7643
42163TIP3   OH227370   6.794   2.020   5.276  0.2158  0.0554 -0.2367
42163TIP3    H127371   6.761   1.931   5.267  2.1183 -0.8648  1.2016
42163TIP3    H227372   6.887   2.014   5.253  0.1132  1.9691 -1.4080
42164TIP3   OH227373   4.755   4.348   1.264 -0.6275  0.1935  0.3830
42164TIP3    H127374   4.807   4.268   1.255 -0.1329  0.3185  1.8292
42164TIP3    H227375   4.809   4.415   1.221 -0.1093  0.1131  0.8932
42165TIP3   OH227376   1.539   7.591  10.710 -0.2182  0.5987  0.1690
42165TIP3    H127377   1.546   7.628  10.798 -1.8486  1.6301 -0.0918
42165TIP3    H227378   1.474   7.522  10.718 -0.0486  0.4022 -0.1312
42166TIP3   OH227379   1.631  10.326   8.927  0.3291  0.0921  0.4657
42166TIP3    H127380   1.680  10.318   8.845 -1.6132 -1.1611 -0.6488
42166TIP3    H227381   1.589  10.412   8.921 -0.3523 -0.2808 -0.1843
42167TIP3   OH227382   3.881   3.030   4.369  0.0174 -0.1573  0.2325
42167TIP3    H127383   3.817   3.024   4.297  0.5825 -1.2004 -0.2114
42167TIP3    H227384   3.868   3.118   4.406 -0.4470  0.3151 -0.9972
42168TIP3   OH227385  10.272  10.509   1.818 -0.5706 -0.3893 -0.7568
42168TIP3    H127386  10.254  10.420   1.847 -2.1975  0.5791  1.4916
42168TIP3    H227387  10.347  10.537   1.870 -1.9962  0.5367  0.9045
42169TIP3   OH227388   9.265  10.229   0.643  0.2603  0.0420  0.1090
42169TIP3    H127389   9.346  10.241   0.693  1.3658 -1.7212 -1.1237
42169TIP3    H227390   9.290  10.170   0.571 -1.0918  2.7405 -2.8150
42170TIP3   OH227391   8.000   7.863   9.594  0.1109  0.5009 -0.2409
42170TIP3    H127392   7.927   7.922   9.613 -0.8907 -0.6415 -0.4040
42170TIP3    H227393   8.077   7.919   9.596 -0.7582  1.7370 -0.0006
42171TIP3   OH227394   0.535   5.820   8.440  0.6757 -0.2470 -0.1196
42171TIP3    H127395   0.544   5.881   8.367 -0.2493 -0.5668 -0.5117
42171TIP3    H227396   0.480   5.866   8.503  1.0104 -0.1902  0.1321
42172TIP3   OH227397  10.383   7.694   0.988  0.0714 -0.3202 -0.3363
42172TIP3    H127398  10.405   7.785   0.972 -0.7682 -0.1679 -0.6677
42172TIP3    H227399  10.440   7.644   0.929  0.0429  0.0219 -0.6548
42173TIP3   OH227400   1.174  10.026   8.601 -0.5972 -0.5105  0.7030
42173TIP3    H127401   1.188   9.939   8.564 -1.6395 -1.3060  2.0801
42173TIP3    H227402   1.170  10.011   8.696  3.8251  1.6785  1.4677
42174TIP3   OH227403   0.680   9.226   3.587 -0.2158  0.3038 -0.6188
42174TIP3    H127404   0.745   9.194   3.524 -0.8716  0.4271 -1.3884
42174TIP3    H227405   0.622   9.151   3.601 -0.4559  0.4737 -0.6882
42175TIP3   OH227406  10.433   7.800   6.221  0.2113 -0.1749  0.2023
42175TIP3    H127407  10.501   7.787   6.287  2.0525 -2.1158 -1.9114
42175TIP3    H227408  10.404   7.712   6.199 -2.8421  0.5862  0.7674
42176TIP3   OH227409  10.891   5.624   6.202  0.1801  0.2558  0.1157
42176TIP3    H127410  10.818   5.653   6.148 -2.5142 -1.0432  2.7378
42176TIP3    H227411  10.910   5.535   6.171 -0.0987  0.1969  0.1114
42177TIP3   OH227412   6.968   3.868   0.014 -0.2054 -0.2176  0.3118
42177TIP3    H127413   7.060   3.894   0.025  0.3476 -1.8073 -0.3633
42177TIP3    H227414   6.963   3.837  -0.076 -1.5936  0.5231  0.1176
42178TIP3   OH227415   9.447   2.706   7.420  0.2649 -0.5619 -0.1962
42178TIP3    H127416   9.488   2.690   7.334  1.9243  2.4378 -0.0957
42178TIP3    H227417   9.495   2.780   7.456 -0.6703 -1.4174  3.2019
42179TIP3   OH227418   0.917   2.161   1.179  0.0469 -0.2766  0.0551
42179TIP3    H127419   0.961   2.239   1.146  1.1635 -0.4649  1.0356
42179TIP3    H227420   0.834   2.158   1.130  2.0760 -1.2838 -3.7335
42180TIP3   OH227421   1.337  10.073   9.788  0.2095 -0.1167 -0.5042
42180TIP3    H127422   1.304  10.146   9.841  2.0439  0.5035 -0.1434
42180TIP3    H227423   1.267  10.056   9.725 -1.4939 -0.0114  1.2679
42181TIP3   OH227424   3.389   4.316   7.257 -0.6076  0.0813  0.0423
42181TIP3    H127425   3.463   4.319   7.195 -0.5068  0.7007  0.1916
42181TIP3    H227426   3.313   4.300   7.202 -0.4298 -0.0842 -0.1633
42182TIP3   OH227427  10.264   1.813   8.931  0.4034  0.4517  0.6140
42182TIP3    H127428  10.314   1.860   8.998  0.0062  0.4227  0.9307
42182TIP3    H227429  10.299   1.724   8.934 -0.0599  0.2879  1.2318
42183TIP3   OH227430   5.746   1.120   1.696 -0.1223  0.1143  0.2125
42183TIP3    H127431   5.693   1.045   1.669  1.4146 -1.2105  0.6638
42183TIP3    H227432   5.815   1.081   1.751  2.1308  1.5119 -1.4702
42184TIP3   OH227433   4.187   7.969   8.023  0.3339  0.5045 -0.2668
42184TIP3    H127434   4.266   7.932   8.061  1.2659  1.2309 -1.4355
42184TIP3    H227435   4.127   7.978   8.097  1.3357 -0.0510  0.6415
42185TIP3   OH227436   6.452   5.671   0.936 -0.9442 -0.0876 -0.3181
42185TIP3    H127437   6.428   5.633   0.851  1.1526  0.1255 -1.0703
42185TIP3    H227438   6.488   5.757   0.914  1.1430 -0.6855  0.5846
42186TIP3   OH227439   4.841   6.919   8.898  0.6945  0.3104  0.0503
42186TIP3    H127440   4.867   6.951   8.985 -1.2372  0.1582  0.7442
42186TIP3    H227441   4.807   6.831   8.915  0.2277  0.3102 -0.8505
42187TIP3   OH227442   3.288   8.721   3.033  0.4591  0.3627  0.3667
42187TIP3    H127443   3.244   8.690   2.953  0.2383  1.4564  0.0476
42187TIP3    H227444   3.233   8.792   3.064 -0.0516 -0.7530  2.1387
42188TIP3   OH227445   6.220  10.198   9.295  0.9980 -0.1472  0.1859
42188TIP3    H127446   6.311  10.201   9.265  0.1391 -0.1630 -2.6956
42188TIP3    H227447   6.180  10.127   9.245 -1.2806  1.7598 -0.8929
42189TIP3   OH227448   0.634   9.497   2.841  0.3222 -1.1067  0.0742
42189TIP3    H127449   0.663   9.430   2.902  0.5390  0.0782  1.3139
42189TIP3    H227450   0.704   9.504   2.776  1.4516 -0.3602  1.3434
42190TIP3   OH227451   4.481  10.405  10.370  0.5666 -0.0681 -0.6253
42190TIP3    H127452   4.425  10.426  10.444  0.9880  0.7358 -0.5284
42190TIP3    H227453   4.564  10.447  10.390  0.7509 -0.0203 -1.4579
42191TIP3   OH227454   7.463   8.901   8.360 -0.9494 -0.0823  0.1786
42191TIP3    H127455   7.514   8.980   8.343  1.9003 -1.8346 -0.0477
42191TIP3    H227456   7.403   8.895   8.286 -0.5909  1.3812 -0.2652
42192TIP3   OH227457   6.990   1.935   9.581 -0.0422 -0.3233  0.0806
42192TIP3    H127458   7.008   1.916   9.673  2.6362  0.0880 -0.2835
42192TIP3    H227459   6.946   2.021   9.583  1.0211  0.2239  0.9387
42193TIP3   OH227460   6.930   9.310  10.879  0.4214  0.1768  0.5355
42193TIP3    H127461   6.893   9.277  10.797 -1.1896  2.6469  0.1722
42193TIP3    H227462   7.010   9.355  10.853  1.8185 -1.9816  0.8468
42194TIP3   OH227463   9.959   4.523   8.542 -0.8412 -0.8542 -0.2795
42194TIP3    H127464   9.897   4.570   8.486 -0.1254 -0.6828 -0.9524
42194TIP3    H227465   9.989   4.589   8.605 -0.5224 -0.6389 -0.6501
42195TIP3   OH227466   4.641   8.412   5.989 -0.3626  0.3249  0.0105
42195TIP3    H127467   4.619   8.385   5.900  0.8430  0.7204 -0.4225
42195TIP3    H227468   4.657   8.330   6.036 -2.3846  0.0275  0.2820
42196TIP3   OH227469   1.205   6.343   5.333  0.0811  0.1136 -0.3437
42196TIP3    H127470   1.159   6.281   5.390  0.4869 -1.6867 -1.8605
42196TIP3    H227471   1.242   6.408   5.393  1.1649 -2.1219  1.5827
42197TIP3   OH227472   1.338   2.104   0.717 -0.2246 -0.1736 -0.0817
42197TIP3    H127473   1.315   2.117   0.809 -1.0771  1.3728 -0.4807
42197TIP3    H227474   1.272   2.043   0.684 -0.6442  0.2027  0.0513
42198TIP3   OH227475   7.273   5.067   8.310 -0.3730  0.2766 -0.0611
42198TIP3    H127476   7.278   5.138   8.247  0.5538 -0.9026 -1.3993
42198TIP3    H227477   7.181   5.064   8.336 -0.5692  1.4551 -0.5539
42199TIP3   OH227478   1.265   5.001   9.828  0.7811 -0.7150  0.6664
42199TIP3    H127479   1.189   4.985   9.771 -0.7401  2.2932  1.6307
42199TIP3    H227480   1.334   5.029   9.768  0.4890 -1.3987 -0.0195
42200TIP3   OH227481   0.677   1.495   0.149 -0.4439  0.0317 -0.5618
42200TIP3    H127482   0.585   1.473   0.135 -0.6321  0.8997 -0.7916
42200TIP3    H227483   0.697   1.459   0.236 -1.3983  0.9726  0.0800
42201TIP3   OH227484   1.108   2.462   3.338  0.0925 -0.0074 -0.0215
42201TIP3    H127485   1.152   2.504   3.263 -0.3995  1.8565  0.6773
42201TIP3    H227486   1.131   2.370   3.330  3.1153  0.6600 -0.3999
42202TIP3   OH227487   6.002   1.738   6.532 -0.0954  0.4873 -0.1240
42202TIP3    H127488   6.080   1.792   6.544  0.0936  0.2654 -0.3451
42202TIP3    H227489   5.944   1.764   6.603 -0.0172  0.9976 -0.2412
42203TIP3   OH227490   4.611  10.644   5.197  0.2258  0.0264  0.4475
42203TIP3    H127491   4.584  10.560   5.159 -0.8903 -0.2791  1.8401
42203TIP3    H227492   4.561  10.710   5.149 -0.9493 -0.3348  1.1313
42204TIP3   OH227493   6.514   9.044  10.864 -0.1405 -0.1581  0.2941
42204TIP3    H127494   6.479   9.012  10.947  0.5013 -0.1902  0.5601
42204TIP3    H227495   6.607   9.018  10.866  0.2563  1.1844  0.2535
42205TIP3   OH227496   1.899   0.058   1.480 -0.6170  0.1756 -0.0688
42205TIP3    H127497   1.938  -0.018   1.436  1.1651  1.2757 -0.5343
42205TIP3    H227498   1.809   0.061   1.448 -0.1688 -0.6561 -1.5286
42206TIP3   OH227499   1.369   3.762   5.691  0.4386  0.1523  0.0861
42206TIP3    H127500   1.307   3.689   5.692  2.7015 -1.9032  1.5197
42206TIP3    H227501   1.416   3.753   5.609 -0.0484  0.7793 -0.2799
42207TIP3   OH227502   8.155   3.725  10.601  0.4980 -0.7266 -0.0458
42207TIP3    H127503   8.100   3.803  10.610  1.4775 -0.0181 -0.0169
42207TIP3    H227504   8.144   3.679  10.683  2.5240  1.1565  1.4027
42208TIP3   OH227505   3.776   9.767   1.325  0.6848 -0.0163 -0.2016
42208TIP3    H127506   3.866   9.779   1.294  1.1354 -0.8116  0.7129
42208TIP3    H227507   3.777   9.680   1.367  0.0242  0.7678  1.5457
42209TIP3   OH227508   5.953   3.345   5.136 -0.8967 -0.0596 -0.8000
42209TIP3    H127509   5.994   3.427   5.164 -1.0930  0.0329 -0.7834
42209TIP3    H227510   5.982   3.334   5.045 -1.1386  0.1992 -0.9074
42210TIP3   OH227511   1.316   6.908   1.118 -0.7823  0.5374  0.4989
42210TIP3    H127512   1.378   6.944   1.182 -0.0865 -0.2349  0.2865
42210TIP3    H227513   1.249   6.975   1.109 -0.9188  0.6550  2.0654
42211TIP3   OH227514   7.768   6.898   6.348  0.1502 -0.4400  0.3461
42211TIP3    H127515   7.750   6.874   6.439 -0.6011  0.7864  0.5468
42211TIP3    H227516   7.683   6.924   6.312  0.8368  1.8466  0.1807
42212TIP3   OH227517   6.310   7.952  10.689 -0.6171  0.0431 -0.2115
42212TIP3    H127518   6.307   7.886  10.758 -2.1124  1.8637  1.5871
42212TIP3    H227519   6.404   7.971  10.679 -0.3340 -0.5633  1.0378
42213TIP3   OH227520   1.327   0.926   6.933 -0.0985  0.3057 -0.5581
42213TIP3    H127521   1.293   0.886   7.014  0.0295  1.0616 -0.1242
42213TIP3    H227522   1.290   0.873   6.863 -0.4719 -0.1674 -0.0147
42214TIP3   OH227523   1.722   8.905   1.855  0.8928  0.3953  0.6123
42214TIP3    H127524   1.689   8.950   1.777 -1.4286 -2.2763 -0.1290
42214TIP3    H227525   1.701   8.965   1.927  0.5698  1.7245 -0.5246
42215TIP3   OH227526   4.926   2.250   5.577  0.3372 -0.5199  0.3385
42215TIP3    H127527   4.972   2.237   5.660 -0.0249 -0.4098  0.5579
42215TIP3    H227528   4.953   2.337   5.548 -0.9376  0.2082  1.2521
42216TIP3   OH227529   4.781   5.332   3.320 -0.3676 -0.1455 -0.2129
42216TIP3    H127530   4.795   5.279   3.242 -0.9102  1.2082 -1.2541
42216TIP3    H227531   4.865   5.330   3.366  0.1174 -0.5150 -1.0858
42217TIP3   OH227532   4.777   3.867   6.775  0.4126  0.7689  0.6524
42217TIP3    H127533   4.699   3.865   6.830 -0.8250 -0.5506 -1.0642
42217TIP3    H227534   4.806   3.776   6.771  0.3108  0.7797 -1.0486
42218TIP3   OH227535   4.159   7.524   7.591  0.2378 -0.5601  0.2401
42218TIP3    H127536   4.252   7.532   7.608  0.3382  0.5111 -0.7013
42218TIP3    H227537   4.129   7.614   7.576 -0.3703 -1.1103 -2.2439
42219TIP3   OH227538  10.618   8.237   5.038 -0.1845 -0.0828  0.5676
42219TIP3    H127539  10.563   8.176   5.087  0.4218 -0.6395  0.5651
42219TIP3    H227540  10.630   8.196   4.952  0.2214  0.0362  0.5644
42220TIP3   OH227541   0.497   8.056   4.775  0.1039  1.0030  0.0366
42220TIP3    H127542   0.419   8.098   4.739  0.0946  1.2114  0.2995
42220TIP3    H227543   0.483   8.054   4.869 -0.6880 -1.2138 -0.0811
42221TIP3   OH227544   6.737   6.662   9.184  0.2092  0.4305  0.4558
42221TIP3    H127545   6.670   6.700   9.127  1.1793  0.2373 -0.8343
42221TIP3    H227546   6.687   6.616   9.251 -0.9635  1.5255  0.3827
42222TIP3   OH227547  10.649   5.149   2.739  0.3718  0.1072  0.2504
42222TIP3    H127548  10.636   5.197   2.657  0.4338 -0.7709 -0.2871
42222TIP3    H227549  10.562   5.141   2.776  0.4672  1.3815  0.7860
42223TIP3   OH227550   6.719   1.541   9.776 -0.0871 -0.3666  0.2017
42223TIP3    H127551   6.713   1.632   9.745 -0.0655  0.2307  1.8549
42223TIP3    H227552   6.683   1.544   9.865 -0.9771 -2.1801 -0.0607
42224TIP3   OH227553   8.524   4.239   6.863 -0.6337 -0.6966  0.1422
42224TIP3    H127554   8.500   4.258   6.954 -1.4361 -0.0988 -0.1777
42224TIP3    H227555   8.617   4.217   6.867 -0.7460 -1.0589  1.1559
42225TIP3   OH227556   6.082   2.575   4.412 -0.4917 -0.3678 -0.0344
42225TIP3    H127557   5.989   2.592   4.429  0.1597  3.0027  0.8697
42225TIP3    H227558   6.128   2.622   4.482  1.9461  0.9375 -2.3195
42226TIP3   OH227559   1.144   6.808   7.721  0.6709  0.0004 -0.0301
42226TIP3    H127560   1.223   6.835   7.768  1.6741  0.3448 -1.8236
42226TIP3    H227561   1.171   6.730   7.673 -0.7617 -1.2411  1.1067
42227TIP3   OH227562   6.597   5.996  10.428  0.4691  0.1069 -0.2125
42227TIP3    H127563   6.641   6.080  10.441 -1.6075  1.2405 -0.1379
42227TIP3    H227564   6.564   5.972  10.514 -0.4983  0.1250 -0.5704
42228TIP3   OH227565   3.826   6.225  10.368 -0.4362  0.4286 -0.0509
42228TIP3    H127566   3.812   6.243  10.461  0.3944  0.3285  0.0971
42228TIP3    H227567   3.883   6.296  10.338  0.4449 -0.3021 -0.1501
42229TIP3   OH227568   4.084   0.109   9.142 -0.0140  0.0199  0.6389
42229TIP3    H127569   4.154   0.174   9.145  0.3366 -0.3743  1.2919
42229TIP3    H227570   4.024   0.141   9.075  0.5565  0.6016  0.3969
42230TIP3   OH227571   6.944   7.955   8.511  0.3943 -0.3220 -0.0350
42230TIP3    H127572   7.038   7.951   8.525  0.5676 -0.7217 -1.2703
42230TIP3    H227573   6.931   8.029   8.452 -0.3008  1.1389  1.8275
42231TIP3   OH227574   3.986   5.972   2.965  0.0103 -0.1559 -0.0850
42231TIP3    H127575   4.048   6.045   2.963  0.3078 -0.3393  1.2847
42231TIP3    H227576   3.987   5.937   2.876  0.6468  0.8500 -0.4945
42232TIP3   OH227577  10.739  10.023   2.733  0.0586 -0.0386 -0.1101
42232TIP3    H127578  10.810   9.989   2.787  0.3427  0.3100 -0.2623
42232TIP3    H227579  10.774  10.023   2.644 -0.7032 -1.4280 -0.4318
42233TIP3   OH227580   4.435   1.776   4.073  0.5037 -0.2980 -0.4059
42233TIP3    H127581   4.402   1.762   3.984  1.0758  0.3763 -0.7358
42233TIP3    H227582   4.503   1.710   4.084 -0.7974 -1.5827  0.2158
42234TIP3   OH227583   8.795   7.090   9.619  0.4888  0.4104  0.3788
42234TIP3    H127584   8.876   7.142   9.615  0.5135  0.4395  1.1067
42234TIP3    H227585   8.763   7.102   9.709 -1.3509  1.9339 -0.4216
42235TIP3   OH227586   4.332   4.067   2.648 -0.4211 -0.4158  0.4032
42235TIP3    H127587   4.298   4.126   2.581 -2.8313 -3.5069 -1.3659
42235TIP3    H227588   4.420   4.044   2.617  0.1831  1.3990  0.6471
42236TIP3   OH227589   2.242   3.255   4.646 -0.2951 -0.5627  0.3600
42236TIP3    H127590   2.242   3.165   4.680  0.3161 -0.9259 -0.5623
42236TIP3    H227591   2.326   3.264   4.602  0.1058  0.8398  1.3397
42237TIP3   OH227592   3.261   2.655   2.507 -0.2747  0.1394 -0.2443
42237TIP3    H127593   3.183   2.690   2.464 -0.6777 -1.8152 -1.2164
42237TIP3    H227594   3.303   2.732   2.547 -1.0103  1.7434 -2.3475
42238TIP3   OH227595  10.538  10.678   7.710 -0.2023 -0.1617 -0.5032
42238TIP3    H127596  10.629  10.707   7.714 -0.4797  0.7033 -0.2682
42238TIP3    H227597  10.524  10.629   7.791 -0.0878  0.1383 -0.3006
42239TIP3   OH227598   4.218   3.105   1.154  0.4858  0.1154 -0.4703
42239TIP3    H127599   4.302   3.064   1.131 -0.0193  0.1874 -2.6474
42239TIP3    H227600   4.194   3.156   1.077 -1.4328  0.3443  0.2179
42240TIP3   OH227601   3.869   9.318   2.525  0.4205 -0.1007 -0.5436
42240TIP3    H127602   3.818   9.399   2.530  1.3981  0.4719  0.7149
42240TIP3    H227603   3.950   9.343   2.481 -0.2018 -0.9461 -2.2676
42241TIP3   OH227604   8.917   0.360   8.201  0.6798 -0.0588 -0.4100
42241TIP3    H127605   8.916   0.373   8.296 -1.2610  0.0428 -0.4057
42241TIP3    H227606   8.880   0.273   8.188 -2.3737  1.2060 -1.1428
42242TIP3   OH227607  10.072   7.700   8.928  0.2631  0.2068  0.0785
42242TIP3    H127608  10.067   7.760   9.002  2.2354  1.7651 -0.9419
42242TIP3    H227609  10.063   7.757   8.851 -1.3850 -1.3117 -0.9393
42243TIP3   OH227610   5.765   2.215   8.643  0.1338  0.3187 -0.1494
42243TIP3    H127611   5.784   2.153   8.713  0.9559  0.8658  0.1181
42243TIP3    H227612   5.740   2.160   8.568  1.0773 -0.3565  0.0137
42244TIP3   OH227613   6.586  10.236  10.341  0.0418 -0.3437  0.3153
42244TIP3    H127614   6.578  10.241  10.436 -0.4369 -0.7451  0.3000
42244TIP3    H227615   6.524  10.301  10.308  0.7127  0.2942  0.2835
42245TIP3   OH227616   2.957   2.751   2.174  0.2071  0.4392  0.1546
42245TIP3    H127617   2.897   2.823   2.152 -0.2207  0.5183  1.4836
42245TIP3    H227618   2.905   2.672   2.162 -0.2977  0.5227  1.6113
42246TIP3   OH227619   4.252   4.093  10.646  0.2210  0.5368  0.2018
42246TIP3    H127620   4.256   4.140  10.729 -1.3249  0.7957  0.1570
42246TIP3    H227621   4.233   4.002  10.671 -1.3272  0.8064  0.1320
42247TIP3   OH227622   5.537   0.221   3.072 -1.2655  0.1680  0.1673
42247TIP3    H127623   5.600   0.272   3.020 -1.9079 -0.2306 -1.0309
42247TIP3    H227624   5.498   0.285   3.132  0.9162  0.2489  1.6017
42248TIP3   OH227625   8.830   2.120   0.386 -0.4014  0.1825  0.1760
42248TIP3    H127626   8.880   2.131   0.305  1.0679 -0.5913  0.9267
42248TIP3    H227627   8.796   2.031   0.381  1.4260 -0.6367  1.2638
42249TIP3   OH227628   4.711   3.998   5.532 -0.0114 -0.0753  0.6245
42249TIP3    H127629   4.798   3.964   5.552  0.1930 -0.1397 -0.3344
42249TIP3    H227630   4.660   3.921   5.509 -0.3967 -0.0648  1.4050
42250TIP3   OH227631   6.917   0.654   6.500 -0.7097 -0.2436 -0.0355
42250TIP3    H127632   6.987   0.637   6.437 -0.5185 -0.9018  0.3380
42250TIP3    H227633   6.876   0.735   6.470  0.0837  0.0416 -0.3781
42251TIP3   OH227634   1.942   8.155   9.632 -0.3467  0.3205  0.2814
42251TIP3    H127635   1.861   8.117   9.597 -0.5224  1.2118 -0.3350
42251TIP3    H227636   1.960   8.105   9.711 -1.1185 -0.3573  0.0470
42252TIP3   OH227637   5.835   1.028   6.047 -0.7930 -0.5272  0.3606
42252TIP3    H127638   5.819   0.963   6.115  0.8095 -1.8504 -0.4540
42252TIP3    H227639   5.889   1.095   6.089  1.9629 -2.3595 -0.0053
42253TIP3   OH227640  10.677   1.975   9.495 -0.0686  0.0886 -0.0535
42253TIP3    H127641  10.616   1.915   9.452 -3.1178  2.1708  1.0076
42253TIP3    H227642  10.755   1.975   9.438 -1.6762 -1.4278 -2.4594
42254TIP3   OH227643   2.690   2.307   6.423 -0.1178 -0.2861 -0.0142
42254TIP3    H127644   2.678   2.212   6.424  1.3638 -0.4915 -0.4879
42254TIP3    H227645   2.741   2.324   6.344  1.1865  0.7031  1.0097
42255TIP3   OH227646   3.974  10.184   3.965  0.5011  0.3368  0.3546
42255TIP3    H127647   3.976  10.088   3.971  0.7323  0.3058 -0.1167
42255TIP3    H227648   3.885  10.208   3.988  0.2556 -0.0470 -0.1854
42256TIP3   OH227649   7.103   5.215   7.961 -0.3378 -0.0379  0.2321
42256TIP3    H127650   7.038   5.198   8.029 -1.7720  0.6333 -0.9100
42256TIP3    H227651   7.172   5.264   8.005 -0.4033 -1.0967  1.5619
42257TIP3   OH227652   2.197   3.750   2.137  0.7449 -0.4059  0.3379
42257TIP3    H127653   2.132   3.730   2.071 -1.0840  0.9094  1.6504
42257TIP3    H227654   2.155   3.729   2.221  2.7087 -1.3216  1.1751
42258TIP3   OH227655   7.318   3.740   7.880  0.0421 -0.1567  0.3567
42258TIP3    H127656   7.372   3.706   7.809 -0.9956 -1.9728  0.3690
42258TIP3    H227657   7.376   3.799   7.928  0.6810  1.3788 -2.1263
42259TIP3   OH227658   4.020   5.126   7.821 -0.0442 -0.3483  0.1271
42259TIP3    H127659   3.955   5.193   7.798 -0.0191  0.7540  2.8035
42259TIP3    H227660   4.084   5.174   7.874  2.9689 -1.4289 -2.3105
42260TIP3   OH227661   8.907   9.365  10.666 -0.6598  0.3733 -0.1436
42260TIP3    H127662   8.953   9.433  10.716 -0.0404 -0.4989  0.5087
42260TIP3    H227663   8.977   9.307  10.636 -1.2025 -0.1079 -0.4789
42261TIP3   OH227664   1.381   9.379   4.207 -0.3169 -0.2025  0.0777
42261TIP3    H127665   1.340   9.360   4.292 -1.2414 -0.2224 -0.3568
42261TIP3    H227666   1.325   9.335   4.143  0.8082 -0.8378 -0.4947
42262TIP3   OH227667   9.203   4.019   6.108 -0.4223 -0.1874  0.0084
42262TIP3    H127668   9.257   3.985   6.037 -0.4450  0.7941 -0.5054
42262TIP3    H227669   9.214   3.956   6.179  1.1910 -0.1633 -0.1822
42263TIP3   OH227670   7.963   5.738   3.783  0.2587  0.3163 -0.1715
42263TIP3    H127671   7.960   5.646   3.810 -0.0826 -0.0859 -1.5367
42263TIP3    H227672   7.997   5.783   3.860  0.9986 -1.0195  0.3365
42264TIP3   OH227673   6.307   2.975   2.323 -0.6683  0.3190 -0.0430
42264TIP3    H127674   6.315   3.068   2.343 -2.0191  0.3958  0.2473
42264TIP3    H227675   6.252   2.972   2.244 -2.2382 -0.2575  1.0132
42265TIP3   OH227676   2.406   2.119   1.721 -0.0933 -0.1549 -0.3351
42265TIP3    H127677   2.396   2.199   1.773  0.9320  0.2609 -0.7455
42265TIP3    H227678   2.463   2.145   1.648 -0.1679 -1.1344 -0.7576
42266TIP3   OH227679   0.159   6.106   2.831 -0.4701 -0.3876  0.2432
42266TIP3    H127680   0.225   6.127   2.765  1.0063 -0.2973  1.6920
42266TIP3    H227681   0.079   6.148   2.800  0.2405 -0.1812 -1.3663
42267TIP3   OH227682   0.520   6.104   7.374  0.0843 -0.2205 -0.1866
42267TIP3    H127683   0.426   6.097   7.387 -0.0787  2.1744  0.3356
42267TIP3    H227684   0.533   6.088   7.280 -0.8704 -0.2905 -0.3104
42268TIP3   OH227685   1.640   8.597  10.165  0.2499  0.0476 -0.2739
42268TIP3    H127686   1.576   8.669  10.167  0.4189  0.1960 -0.1519
42268TIP3    H227687   1.641   8.564  10.255 -0.3006 -0.5306 -0.4703
42269TIP3   OH227688   1.203   6.726   6.303 -0.1613 -0.3194  0.0563
42269TIP3    H127689   1.197   6.817   6.274 -1.6104 -0.5246 -0.3586
42269TIP3    H227690   1.236   6.679   6.226 -1.6248 -0.4779 -0.5060
42270TIP3   OH227691   3.242   8.892   7.713  0.4142 -0.1718  0.6081
42270TIP3    H127692   3.221   8.811   7.759  1.8368 -0.6689  0.4270
42270TIP3    H227693   3.180   8.956   7.748  0.7448 -0.7949  2.4353
42271TIP3   OH227694  10.432   1.052   2.808  0.2659 -0.1701 -0.4674
42271TIP3    H127695  10.399   1.138   2.833  0.6377  0.0497 -0.7317
42271TIP3    H227696  10.437   1.054   2.712 -0.4802 -0.7639 -0.5253
42272TIP3   OH227697   5.739   2.066   5.036  0.1355  0.1507  0.6301
42272TIP3    H127698   5.679   2.027   4.973  1.9356  1.9656 -2.5045
42272TIP3    H227699   5.695   2.059   5.121 -3.8958  0.3259 -1.2505
42273TIP3   OH227700   0.428   4.863   6.619 -0.0538 -0.9155 -0.2378
42273TIP3    H127701   0.481   4.818   6.686  1.8344 -0.8851 -1.6066
42273TIP3    H227702   0.381   4.792   6.575 -0.9831 -0.9785  0.8266
42274TIP3   OH227703  10.536  10.784   0.581 -0.4950 -0.1476 -0.7235
42274TIP3    H127704  10.442  10.800   0.592 -0.3159  1.0889 -0.8754
42274TIP3    H227705  10.554  10.811   0.491  0.1812  0.5423 -0.3930
42275TIP3   OH227706   9.766   3.277   6.059  0.2072 -0.7640 -0.1815
42275TIP3    H127707   9.760   3.307   6.150  1.2960 -1.0428 -0.0010
42275TIP3    H227708   9.852   3.235   6.054  0.3049 -0.4346 -1.4297
42276TIP3   OH227709   2.305   2.326   1.345  0.1209  0.5456 -0.3455
42276TIP3    H127710   2.255   2.380   1.284  1.1028  0.0727 -1.6009
42276TIP3    H227711   2.394   2.361   1.340  0.4858 -0.3415 -0.1644
42277TIP3   OH227712   3.686   3.125   6.895 -0.1633 -0.0540  1.0701
42277TIP3    H127713   3.742   3.192   6.935  0.3994 -0.5916  1.1964
42277TIP3    H227714   3.611   3.174   6.861 -0.3162  0.5102  2.1537
42278TIP3   OH227715   4.237   9.082  10.606 -0.1301  0.3551  0.6478
42278TIP3    H127716   4.311   9.109  10.550 -1.2160  0.8713 -0.5870
42278TIP3    H227717   4.274   9.081  10.695  1.7716 -0.9179 -0.0791
42279TIP3   OH227718   7.747   1.874   8.866 -0.8473  0.0258 -0.4310
42279TIP3    H127719   7.797   1.801   8.902  0.6836  0.8035 -0.8956
42279TIP3    H227720   7.672   1.883   8.925  0.2574 -0.3425  1.0856
42280TIP3   OH227721   4.797   0.141   9.280  0.1259  0.1800  0.0424
42280TIP3    H127722   4.780   0.082   9.354 -0.8179 -1.3199 -1.3205
42280TIP3    H227723   4.718   0.194   9.274  0.0435  0.0376 -0.1278
42281TIP3   OH227724   2.022   1.472   1.970 -0.0263  0.0379  0.4774
42281TIP3    H127725   1.951   1.465   1.907  1.5231  2.6762 -1.7993
42281TIP3    H227726   2.038   1.566   1.977  2.1664 -0.3856  2.1411
42282TIP3   OH227727   5.951   9.942   4.709  0.3680 -0.1024 -0.1811
42282TIP3    H127728   5.972  10.007   4.776 -1.2513  0.1129  0.1415
42282TIP3    H227729   5.894   9.879   4.753  1.7430 -1.6803 -0.5376
42283TIP3   OH227730   9.489   4.171   5.761 -0.1424  0.2129 -0.3223
42283TIP3    H127731   9.466   4.132   5.677 -1.3922 -0.2335  0.2003
42283TIP3    H227732   9.487   4.265   5.745 -0.1302  0.1281 -0.8400
42284TIP3   OH227733  10.025   9.823   2.165  1.1736  0.3948  0.4642
42284TIP3    H127734  10.030   9.806   2.071  0.6278  0.7806  0.3603
42284TIP3    H227735   9.976   9.905   2.172  0.1025 -0.2736  1.1335
42285TIP3   OH227736   3.404   3.035  10.853 -0.1693 -0.3085 -1.0691
42285TIP3    H127737   3.392   2.961  10.794  0.7075  1.0818 -3.1076
42285TIP3    H227738   3.469   3.004  10.917 -2.5965 -2.5220  0.5603
42286TIP3   OH227739   8.781   2.291   5.125 -0.2825 -1.0404  0.0149
42286TIP3    H127740   8.745   2.331   5.046  0.1660 -2.0704 -0.7412
42286TIP3    H227741   8.843   2.355   5.159 -0.5014 -0.5729 -0.4573
42287TIP3   OH227742   7.835   6.411   5.306  0.1677 -0.7032  0.0376
42287TIP3    H127743   7.758   6.469   5.302  0.0785 -0.7008  1.3628
42287TIP3    H227744   7.887   6.436   5.230 -1.5304 -1.2828 -1.3820
42288TIP3   OH227745  10.704   2.780   1.475 -0.1694  0.1183  0.6510
42288TIP3    H127746  10.642   2.784   1.402  0.7964 -0.9182 -0.2780
42288TIP3    H227747  10.678   2.703   1.524 -0.2348  0.2629  0.8427
42289TIP3   OH227748   7.999   2.675   4.430  0.8588 -0.1520  0.7437
42289TIP3    H127749   8.066   2.608   4.418  0.3718 -0.5573  0.1859
42289TIP3    H227750   8.027   2.746   4.372  0.1999 -0.8082 -0.4239
42290TIP3   OH227751   1.087   0.104   2.237 -0.0802  0.4067  0.9658
42290TIP3    H127752   1.059   0.020   2.273 -0.8076 -0.3944 -1.3155
42290TIP3    H227753   1.182   0.096   2.227 -0.3066 -0.8144 -0.6800
42291TIP3   OH227754   7.950   8.668   4.282 -0.1403  0.4209  0.1737
42291TIP3    H127755   7.870   8.648   4.233 -0.1645  1.7016 -0.3507
42291TIP3    H227756   7.924   8.737   4.343  0.3797  0.2789  0.5618
42292TIP3   OH227757  10.496   1.737  10.051  0.3409 -0.0170 -0.1768
42292TIP3    H127758  10.488   1.785  10.133 -0.5604 -1.2902  0.5057
42292TIP3    H227759  10.563   1.785  10.002  0.6619  0.9519  1.1510
42293TIP3   OH227760  10.646   7.773   3.057  0.1541  0.4736 -0.2246
42293TIP3    H127761  10.607   7.724   2.984 -2.5614  1.2177  0.6348
42293TIP3    H227762  10.610   7.861   3.049 -0.6797  0.4416  2.2866
42294TIP3   OH227763  10.185   2.786   5.369  0.5529  0.0528  0.2694
42294TIP3    H127764  10.210   2.700   5.336  0.4902 -0.0751  0.5444
42294TIP3    H227765  10.244   2.847   5.326  0.5298 -0.1176 -0.0080
42295TIP3   OH227766   3.798   4.914  10.505  0.3570  0.2574  0.0611
42295TIP3    H127767   3.851   4.885  10.580  0.0571  1.5804  0.8144
42295TIP3    H227768   3.853   4.896  10.429  0.7990 -0.8303  0.6125
42296TIP3   OH227769   0.039   6.293   8.110  0.4892 -0.6284  0.0646
42296TIP3    H127770   0.018   6.214   8.159  1.6869  0.1291  1.9090
42296TIP3    H227771  -0.013   6.286   8.030 -0.3363 -2.6863  0.7127
42297TIP3   OH227772   0.557   2.056   9.449 -0.3440 -0.1404 -0.3316
42297TIP3    H127773   0.529   1.972   9.413 -2.7757  0.0109  0.9578
42297TIP3    H227774   0.501   2.069   9.526  0.6843  2.1815  0.1153
42298TIP3   OH227775   8.150   2.960   9.501  0.3180  0.2359  0.1514
42298TIP3    H127776   8.223   2.958   9.439  0.0723  0.0552 -0.1333
42298TIP3    H227777   8.137   2.868   9.525 -0.6990  0.1003 -0.8436
42299TIP3   OH227778   7.744   5.207   3.370  0.8625  0.3629  0.2313
42299TIP3    H127779   7.691   5.237   3.296 -1.2102 -1.2127  1.0006
42299TIP3    H227780   7.810   5.150   3.330 -0.3233 -0.5850 -0.4337
42300TIP3   OH227781   6.168   7.055   2.640 -0.1090  0.2668 -0.1549
42300TIP3    H127782   6.148   6.994   2.710 -1.8808  1.2771  0.2773
42300TIP3    H227783   6.249   7.022   2.601 -1.0447 -2.3895 -0.0173
42301TIP3   OH227784   2.066   2.540   7.256  0.5061  0.1478  0.1825
42301TIP3    H127785   2.042   2.629   7.280 -0.3673  0.1821 -0.7273
42301TIP3    H227786   1.983   2.493   7.249  0.8005 -0.2432 -1.1646
42302TIP3   OH227787   2.145   9.664   2.566  0.0291  0.4871  0.1991
42302TIP3    H127788   2.239   9.668   2.547  0.0846  1.0919  0.5720
42302TIP3    H227789   2.118   9.756   2.576 -0.2558  0.2716  1.7151
42303TIP3   OH227790   1.392   7.575   9.943  0.0900 -0.0444  0.1495
42303TIP3    H127791   1.297   7.587   9.936  0.2623  0.1969 -3.6399
42303TIP3    H227792   1.407   7.484   9.919  0.8750  0.1157  0.0055
42304TIP3   OH227793   4.737   8.182  10.361 -0.3181 -0.0705  0.0402
42304TIP3    H127794   4.719   8.201  10.269 -0.3006  0.4207  0.1379
42304TIP3    H227795   4.650   8.174  10.401 -0.3269 -0.4904 -0.0608
42305TIP3   OH227796   8.247  10.182   3.567  0.4447  0.0356 -0.4962
42305TIP3    H127797   8.269  10.236   3.491  1.4309 -0.0999 -0.3094
42305TIP3    H227798   8.329  10.173   3.615 -0.1302 -0.0371  0.4920
42306TIP3   OH227799   4.603   8.287   9.161 -0.5621  0.0329 -0.0011
42306TIP3    H127800   4.675   8.290   9.098 -1.1163  2.0288 -0.5800
42306TIP3    H227801   4.538   8.348   9.128 -2.5805 -1.6989  0.5219
42307TIP3   OH227802   6.507   3.207  10.040 -0.7183 -0.5287 -0.6012
42307TIP3    H127803   6.438   3.263  10.075  2.2881  1.1260  3.4607
42307TIP3    H227804   6.544   3.256   9.967  0.6148  2.0939  1.6830
42308TIP3   OH227805   1.731   2.325  10.441  0.1235 -0.0688  0.2756
42308TIP3    H127806   1.755   2.357  10.354 -0.8990  1.1092  0.3971
42308TIP3    H227807   1.775   2.241  10.448  1.0703  0.2859 -0.9700
42309TIP3   OH227808   3.129   5.964   4.349  0.1696 -0.3161  0.3283
42309TIP3    H127809   3.092   5.876   4.352  0.7794 -0.5630  0.9971
42309TIP3    H227810   3.082   6.008   4.278 -0.3484 -1.0824  0.1872
42310TIP3   OH227811   7.462   7.550   0.453 -0.1686 -0.5913 -0.1614
42310TIP3    H127812   7.428   7.615   0.391  1.2874  1.9222  1.4685
42310TIP3    H227813   7.384   7.518   0.499 -0.8469  2.7756  1.4115
42311TIP3   OH227814   1.628   1.109   8.067 -0.2018 -0.4837 -0.2300
42311TIP3    H127815   1.708   1.159   8.081 -0.1855 -0.1679 -1.3760
42311TIP3    H227816   1.560   1.160   8.111  0.4018 -1.4654  1.9891
42312TIP3   OH227817   9.626   9.850   9.185  0.0125  0.8475  0.3146
42312TIP3    H127818   9.624   9.911   9.111  1.9377 -1.1099 -1.4935
42312TIP3    H227819   9.694   9.787   9.162 -1.7787 -1.9475  2.1102
42313TIP3   OH227820   7.644   5.576   3.798 -0.1726  0.1807  0.7898
42313TIP3    H127821   7.594   5.502   3.763  1.3495 -1.2849  1.5967
42313TIP3    H227822   7.695   5.539   3.870  1.2032  1.8560  0.7410
42314TIP3   OH227823   0.262   4.799   0.908  0.5595 -0.4319  0.1555
42314TIP3    H127824   0.312   4.836   0.981 -1.0481  0.2382  0.9671
42314TIP3    H227825   0.246   4.708   0.933  0.6920 -0.4262  0.2603
42315TIP3   OH227826   2.880   8.177   0.915 -0.1198 -0.5504 -0.7417
42315TIP3    H127827   2.838   8.243   0.970  1.9220  0.3213 -0.1298
42315TIP3    H227828   2.846   8.093   0.947 -2.0172  0.1263 -0.8932
42316TIP3   OH227829   9.310   9.029   0.719  0.0954 -0.2531  0.5736
42316TIP3    H127830   9.347   9.024   0.807  1.9656 -0.9178 -0.1782
42316TIP3    H227831   9.380   9.069   0.666 -0.0447 -1.9838 -1.0284
42317TIP3   OH227832   1.529   4.672   0.463  1.0400 -0.6737 -0.1311
42317TIP3    H127833   1.519   4.765   0.485  2.2357 -1.0075  2.0575
42317TIP3    H227834   1.562   4.673   0.373 -0.0404  0.9660 -0.5498
42318TIP3   OH227835   6.784   0.990   8.072 -0.6270  0.0598 -0.9216
42318TIP3    H127836   6.735   0.908   8.064 -2.3299  0.7804  1.2786
42318TIP3    H227837   6.876   0.965   8.058 -0.6784 -2.8619  2.7139
42319TIP3   OH227838   0.905   4.258   2.341  0.2034 -0.0092  0.2799
42319TIP3    H127839   0.845   4.249   2.415 -0.5565  0.5878 -0.2423
42319TIP3    H227840   0.914   4.353   2.329 -1.0080 -0.0546 -1.4101
42320TIP3   OH227841  10.725   9.098   3.554  1.0405 -0.3697  0.2747
42320TIP3    H127842  10.688   9.036   3.491 -0.1424  1.1224 -0.5703
42320TIP3    H227843  10.786   9.151   3.503 -1.3212  2.1198 -0.2310
42321TIP3   OH227844   6.131   5.332   2.364 -0.3233 -0.4230  0.1135
42321TIP3    H127845   6.080   5.259   2.328  0.8489 -1.1793 -0.0579
42321TIP3    H227846   6.134   5.314   2.458 -0.0845 -0.5518  0.0795
42322TIP3   OH227847   1.079   9.007   1.397  0.2514  0.4455  0.3175
42322TIP3    H127848   1.084   9.006   1.302 -2.0141 -0.2944  0.1603
42322TIP3    H227849   1.028   9.085   1.418 -0.3827 -0.1064  0.8496
42323TIP3   OH227850   5.934   4.959   0.858  0.1749  0.1106  0.8727
42323TIP3    H127851   5.990   4.912   0.797  1.6574  0.5865  1.8064
42323TIP3    H227852   5.845   4.946   0.825  0.9849  1.9087 -2.4749
42324TIP3   OH227853   0.756   0.234   0.385  0.1510  0.5636  0.1470
42324TIP3    H127854   0.817   0.242   0.312  0.6609  1.1302  0.6191
42324TIP3    H227855   0.672   0.259   0.348 -0.3861 -2.6910 -1.1897
42325TIP3   OH227856   3.937   9.920   4.911 -0.6021 -0.1461 -0.5181
42325TIP3    H127857   3.941   9.828   4.885  0.6510 -0.0929 -0.5854
42325TIP3    H227858   3.843   9.939   4.919 -0.8814 -1.7159  0.5451
42326TIP3   OH227859   6.782   3.028   9.089  0.2415 -0.2801  0.1082
42326TIP3    H127860   6.827   3.112   9.098  2.3024 -1.2929 -0.1019
42326TIP3    H227861   6.695   3.043   9.126 -0.5298  2.7028 -2.4332
42327TIP3   OH227862   6.354   8.975   9.379 -0.2253 -0.5489  0.5191
42327TIP3    H127863   6.290   8.998   9.312 -0.7180 -0.6146  0.9647
42327TIP3    H227864   6.307   8.985   9.462  1.2835  2.8180  1.1241
42328TIP3   OH227865   7.370   7.708   3.544  0.4427  0.4464  0.2725
42328TIP3    H127866   7.336   7.640   3.486  3.5456  0.4771 -1.8138
42328TIP3    H227867   7.351   7.675   3.632 -3.5971 -0.0421 -0.6026
42329TIP3   OH227868   8.258   7.893   1.585 -0.0459 -0.2180 -0.1082
42329TIP3    H127869   8.344   7.925   1.559  0.0364  2.3897  2.7439
42329TIP3    H227870   8.274   7.846   1.667 -1.2787  0.2140  0.4108
42330TIP3   OH227871   4.836   0.777   1.957  0.0760  0.5396 -0.4881
42330TIP3    H127872   4.798   0.699   1.918  1.3019  0.3163 -1.3067
42330TIP3    H227873   4.902   0.744   2.018 -0.1806  0.9182 -0.0037
42331TIP3   OH227874   9.936   9.471   2.447 -0.0228 -0.3348 -0.1294
42331TIP3    H127875   9.924   9.376   2.448 -1.0507 -0.2257  0.1795
42331TIP3    H227876   9.905   9.499   2.533  2.0855  0.1077  0.5423
42332TIP3   OH227877   3.409   4.203   8.762  0.3772 -0.4737 -0.4051
42332TIP3    H127878   3.449   4.161   8.838  0.0386 -2.2809 -1.1751
42332TIP3    H227879   3.483   4.242   8.715  0.5759  0.7610  0.8793
42333TIP3   OH227880   9.856   1.742   5.558 -0.4815  0.3081 -0.5604
42333TIP3    H127881   9.886   1.716   5.645 -0.4305  2.1710  0.0364
42333TIP3    H227882   9.810   1.665   5.524 -0.7432 -0.3750  1.2229
42334TIP3   OH227883   5.904   0.727   6.649 -0.1115  0.4562 -0.1977
42334TIP3    H127884   5.989   0.695   6.679 -0.9290 -1.2585  0.4355
42334TIP3    H227885   5.889   0.681   6.566 -0.8291 -0.0107  0.1785
42335TIP3   OH227886   8.787   2.044   1.988  0.0037  0.0219  0.3328
42335TIP3    H127887   8.756   2.135   1.994  0.0108 -0.0448  1.9777
42335TIP3    H227888   8.800   2.018   2.079 -4.0076 -3.0290  0.2731
42336TIP3   OH227889   5.536   5.658   2.361  0.2692 -0.1113 -0.5899
42336TIP3    H127890   5.520   5.705   2.442  0.2972 -0.0063 -0.6437
42336TIP3    H227891   5.476   5.583   2.363 -0.4085  0.4170 -0.9120
42337TIP3   OH227892   3.102   6.758   4.810  0.2691  0.6583  0.7925
42337TIP3    H127893   3.027   6.794   4.858 -0.6013  1.3994 -1.0009
42337TIP3    H227894   3.064   6.689   4.755  1.2123 -0.0923  1.0612
42338TIP3   OH227895  10.606   3.816   9.761  0.4881  0.5784 -0.4967
42338TIP3    H127896  10.518   3.787   9.736  0.2073  1.1782 -0.2326
42338TIP3    H227897  10.594   3.907   9.790  0.8915  0.1276  1.1868
42339TIP3   OH227898   6.630   9.675   1.072  0.7249  0.4426  0.0788
42339TIP3    H127899   6.722   9.667   1.046  0.7953  0.6032  0.2679
42339TIP3    H227900   6.603   9.760   1.038  1.1908  1.2475  1.5888
42340TIP3   OH227901  10.317   1.267   9.559  0.2225 -0.2531  0.2140
42340TIP3    H127902  10.306   1.336   9.625 -0.3490 -0.7290  0.6261
42340TIP3    H227903  10.363   1.310   9.487 -0.4293  0.6587  0.3181
42341TIP3   OH227904   8.408   4.919   5.511  0.4794 -0.2825 -0.6564
42341TIP3    H127905   8.480   4.867   5.547  1.4523  0.8848 -0.8247
42341TIP3    H227906   8.375   4.970   5.586 -2.6003 -3.2970  0.3006
42342TIP3   OH227907   3.160   1.361   2.808 -0.5570  0.5968 -0.6837
42342TIP3    H127908   3.225   1.397   2.747 -0.3235  0.0034 -0.8004
42342TIP3    H227909   3.141   1.274   2.773  0.2026 -0.0972  0.5302
42343TIP3   OH227910   0.740   7.715  10.368 -0.2879  0.1923 -1.0199
42343TIP3    H127911   0.739   7.685  10.277 -0.7801  0.1888 -1.0209
42343TIP3    H227912   0.825   7.756  10.380  0.6650 -1.7215 -0.8386
42344TIP3   OH227913   9.890  10.817   2.683  0.1212  0.1816  0.3699
42344TIP3    H127914   9.932  10.862   2.757  1.3699 -1.1270  0.4909
42344TIP3    H227915   9.927  10.729   2.684  0.4235  0.2288 -2.0223
42345TIP3   OH227916   4.006   9.357   9.007  0.0636 -0.1315  0.2548
42345TIP3    H127917   3.941   9.336   9.074 -0.4827  0.4244 -0.0999
42345TIP3    H227918   4.040   9.443   9.032 -0.4500  0.2718 -0.4166
42346TIP3   OH227919   4.097   8.115   5.245  0.2924  0.0881  0.6195
42346TIP3    H127920   4.040   8.191   5.257 -1.3875 -0.9565 -0.2732
42346TIP3    H227921   4.130   8.123   5.155  0.5685  0.0538  0.7175
42347TIP3   OH227922   3.202   8.661   8.989  0.1253 -0.2084 -0.2481
42347TIP3    H127923   3.244   8.709   8.918  1.1127 -0.6119  0.0464
42347TIP3    H227924   3.265   8.594   9.014 -1.2183 -1.6999 -0.6610
42348TIP3   OH227925   6.838   2.241   1.390 -0.6353 -0.1959  0.2390
42348TIP3    H127926   6.840   2.336   1.378 -0.9477 -0.3116 -0.8700
42348TIP3    H227927   6.819   2.229   1.483 -0.5815  0.8222  0.3995
42349TIP3   OH227928   2.154   5.797   7.496  0.6311  0.2093  0.0709
42349TIP3    H127929   2.103   5.832   7.422 -0.4427  1.6185  1.4171
42349TIP3    H227930   2.195   5.718   7.461 -0.0320  0.7065 -1.9649
42350TIP3   OH227931   3.009   5.386   8.425  0.4164  0.1630  0.2811
42350TIP3    H127932   2.934   5.328   8.441  0.4489 -0.1933 -0.7967
42350TIP3    H227933   2.974   5.455   8.368  0.6625  0.5639  0.6133
42351TIP3   OH227934   0.629   5.653   4.397 -0.2012 -0.0130  0.1012
42351TIP3    H127935   0.575   5.582   4.430 -0.5509 -0.0951 -0.6100
42351TIP3    H227936   0.587   5.679   4.315  0.2499  0.6247  0.0575
42352TIP3   OH227937   7.992   3.552   2.560  0.1348 -0.1531  0.6372
42352TIP3    H127938   8.007   3.457   2.558 -0.5645 -0.4253  3.6247
42352TIP3    H227939   8.078   3.590   2.541  0.2888 -1.3124 -1.2619
42353TIP3   OH227940   0.132   3.487   0.865  0.3594 -0.3745  0.0953
42353TIP3    H127941   0.213   3.538   0.856  0.4306 -0.8040 -2.6978
42353TIP3    H227942   0.064   3.554   0.875  0.4498  0.4856 -3.5190
42354TIP3   OH227943   1.810  10.428   0.718  0.4999 -0.2420  0.1861
42354TIP3    H127944   1.891  10.475   0.741  0.1728  0.6329 -0.3843
42354TIP3    H227945   1.749  10.497   0.694  0.0540 -0.9742 -0.8490
42355TIP3   OH227946   5.099   6.159   6.800  0.1295  0.6253  0.1060
42355TIP3    H127947   5.155   6.217   6.748  0.6048  1.7605  1.7816
42355TIP3    H227948   5.032   6.129   6.739  0.5809  1.9754 -1.1186
42356TIP3   OH227949   9.572   0.896  10.384 -0.3712 -0.2263  0.5929
42356TIP3    H127950   9.583   0.899  10.480 -0.5886  0.0711  0.6096
42356TIP3    H227951   9.481   0.919  10.370  0.2208  2.2523  0.1889
42357TIP3   OH227952   1.943   9.163   0.533  0.1530  0.4054 -0.0381
42357TIP3    H127953   1.863   9.160   0.586  0.6929  0.4843  0.7923
42357TIP3    H227954   1.984   9.246   0.556  0.7855  0.0895  0.0175
42358TIP3   OH227955   0.641   0.887   1.922 -0.2004 -0.1063  0.4392
42358TIP3    H127956   0.693   0.928   1.853 -1.1480  0.6841  0.1636
42358TIP3    H227957   0.553   0.880   1.884 -0.5363 -0.4498  1.2603
42359TIP3   OH227958  10.532   1.304   7.132 -0.0606  0.5092 -0.3418
42359TIP3    H127959  10.589   1.378   7.110  2.2523 -0.5151  1.7012
42359TIP3    H227960  10.593   1.232   7.150 -2.0681 -0.9601  0.9716
42360TIP3   OH227961   8.170   1.825   7.293  0.5591  0.2382 -0.5100
42360TIP3    H127962   8.131   1.837   7.380  1.4584 -1.1312  0.1051
42360TIP3    H227963   8.151   1.734   7.270  1.0103  0.3620 -1.4163
42361TIP3   OH227964   5.319   6.208   1.197  0.0560 -0.2661 -0.4435
42361TIP3    H127965   5.373   6.248   1.265 -0.1944 -0.0709 -0.3568
42361TIP3    H227966   5.268   6.281   1.162 -0.2244 -0.4664 -0.4511
42362TIP3   OH227967   2.053   7.381   5.208  0.3958 -0.1333 -0.6274
42362TIP3    H127968   2.145   7.388   5.181  0.7435 -2.0559 -0.1286
42362TIP3    H227969   2.007   7.448   5.156  1.9488  0.3503 -1.4477
42363TIP3   OH227970   5.987   7.625   1.757 -0.2616 -0.5824 -0.5058
42363TIP3    H127971   6.027   7.552   1.710 -0.5622 -0.8778 -0.3009
42363TIP3    H227972   5.951   7.681   1.688 -1.7397 -1.6045 -0.6032
42364TIP3   OH227973   2.667   8.866   6.800 -0.0843 -0.2017 -0.1828
42364TIP3    H127974   2.575   8.881   6.823 -0.7519  1.0280 -3.1336
42364TIP3    H227975   2.716   8.914   6.866 -1.6409  0.5140  0.5154
42365TIP3   OH227976   6.904   9.541   9.979  0.2102  0.0520  0.5784
42365TIP3    H127977   6.916   9.574  10.069 -1.2690  0.0281  0.8263
42365TIP3    H227978   6.854   9.611   9.936 -1.4668 -1.0662  0.6041
42366TIP3   OH227979   7.914   3.295   4.059  0.0062  0.2688 -0.0504
42366TIP3    H127980   7.877   3.380   4.082 -0.4913  0.1902 -0.5457
42366TIP3    H227981   7.863   3.232   4.109  1.7706  0.3735  2.0234
42367TIP3   OH227982   8.975   8.970   2.944  0.1250  0.6416 -0.0389
42367TIP3    H127983   8.995   8.931   2.858  1.0073 -1.4229  1.0224
42367TIP3    H227984   9.019   9.055   2.942 -1.4667  1.5280 -2.2830
42368TIP3   OH227985   6.628  10.535   5.870 -0.3236 -0.4858 -0.3956
42368TIP3    H127986   6.537  10.511   5.851 -0.7365  0.5470  0.1916
42368TIP3    H227987   6.622  10.616   5.920  0.9008 -0.7467  0.2325
42369TIP3   OH227988   6.153   6.608   0.193 -0.6019  0.1564 -0.2868
42369TIP3    H127989   6.150   6.536   0.130  2.5780 -0.4507  0.1088
42369TIP3    H227990   6.169   6.566   0.277 -1.9626  1.1607  0.5231
42370TIP3   OH227991   6.141   6.266   2.713 -0.1095 -0.1891  0.1392
42370TIP3    H127992   6.124   6.261   2.619 -1.1363 -1.1472  0.3576
42370TIP3    H227993   6.206   6.198   2.729 -0.3808 -0.4289  0.2189
42371TIP3   OH227994   0.007   3.619   2.129  0.2519 -0.0527  0.0133
42371TIP3    H127995  -0.014   3.534   2.168 -0.2979 -0.3541 -0.9340
42371TIP3    H227996   0.008   3.679   2.204 -0.2157 -0.7233  0.5768
42372TIP3   OH227997   4.310   4.499   6.308 -0.6373  0.0765  0.3542
42372TIP3    H127998   4.257   4.422   6.285 -0.1438 -1.0417  2.6529
42372TIP3    H227999   4.329   4.540   6.224  0.6091 -3.3309 -1.2292
42373TIP3   OH228000   5.999   3.448  10.132  0.2410  0.1164 -0.1302
42373TIP3    H128001   5.947   3.502  10.072 -0.7539 -1.2879 -0.5861
42373TIP3    H228002   6.006   3.499  10.212 -1.1467  0.6818 -0.3571
42374TIP3   OH228003   3.804   4.562   5.595 -0.4364  0.3815 -0.7541
42374TIP3    H128004   3.863   4.493   5.564 -0.8206 -0.4896  0.3839
42374TIP3    H228005   3.862   4.625   5.637  0.0131  1.2334 -2.5361
42375TIP3   OH228006   0.478   0.304   1.773  0.0687 -0.2042  0.4386
42375TIP3    H128007   0.559   0.338   1.735 -0.4354 -0.5587 -1.0156
42375TIP3    H228008   0.460   0.362   1.847  1.7932 -0.3103  0.9737
42376TIP3   OH228009   7.549   8.214   9.591 -0.3726  0.3406 -0.4993
42376TIP3    H128010   7.494   8.138   9.570 -1.0063  0.7200 -0.2478
42376TIP3    H228011   7.487   8.285   9.606  0.2175  0.9251 -0.7795
42377TIP3   OH228012   4.920   3.052   9.677  0.8540 -0.1480 -0.5063
42377TIP3    H128013   4.899   3.107   9.753  1.0139 -0.1423 -0.4662
42377TIP3    H228014   4.979   2.985   9.712  0.9545 -0.1252 -0.6324
42378TIP3   OH228015   4.592  10.816   8.030 -0.0136 -0.2128 -0.1484
42378TIP3    H128016   4.644  10.743   7.996  0.6712  0.0337  0.3588
42378TIP3    H228017   4.655  10.888   8.040 -0.1904 -0.2593  1.5869
42379TIP3   OH228018   6.935   9.272   9.768  0.3529 -0.3185  0.1419
42379TIP3    H128019   6.857   9.236   9.810  0.7410  0.2322  1.3635
42379TIP3    H228020   6.949   9.356   9.811  1.3297 -0.1761 -0.4300
42380TIP3   OH228021   0.036   0.209   8.154  0.1305 -0.1734  0.0143
42380TIP3    H128022   0.003   0.291   8.118 -1.7794 -0.6296  0.6151
42380TIP3    H228023   0.069   0.232   8.241  2.2937  0.4402 -0.9109
42381TIP3   OH228024   9.791   1.225   3.646  0.0215  0.7674  0.6317
42381TIP3    H128025   9.812   1.319   3.643  0.8591  0.5930 -2.5653
42381TIP3    H228026   9.843   1.192   3.720  2.1778  2.3427 -0.0602
42382TIP3   OH228027   1.878   6.893   2.572  0.1300  0.1720  0.0396
42382TIP3    H128028   1.829   6.826   2.619 -1.0674  2.1334  1.7118
42382TIP3    H228029   1.913   6.847   2.495  0.2306 -2.5788  1.5991
42383TIP3   OH228030   5.543   3.115   5.622  0.0697 -0.4397 -0.1700
42383TIP3    H128031   5.452   3.086   5.620 -0.0548 -0.0554 -2.4325
42383TIP3    H228032   5.538   3.210   5.633  0.2024 -0.4460 -0.0509
42384TIP3   OH228033   1.172   0.554   4.869  0.1767  0.0090  0.5764
42384TIP3    H128034   1.087   0.572   4.909  0.4445 -1.0847  1.7200
42384TIP3    H228035   1.196   0.635   4.825 -1.5930  0.2386 -0.0493
42385TIP3   OH228036   0.246  10.198   5.679  0.1191 -0.5202  0.0597
42385TIP3    H128037   0.158  10.174   5.649 -0.0176  0.4060 -0.3115
42385TIP3    H228038   0.305  10.156   5.616 -0.1572  1.1141 -1.3578
42386TIP3   OH228039   7.993   5.422   1.578 -0.0613  0.0272  0.1843
42386TIP3    H128040   7.988   5.330   1.552  1.2596  0.0539 -0.2491
42386TIP3    H228041   8.063   5.424   1.644 -0.8468  0.5526  1.0186
42387TIP3   OH228042   1.162   3.579   3.000  0.1513  0.0504  0.7361
42387TIP3    H128043   1.153   3.666   2.963 -0.0075 -0.7939 -1.3457
42387TIP3    H228044   1.073   3.545   3.004  0.1797  0.0614  1.8097
42388TIP3   OH228045   8.988   0.017   9.073 -0.2800  0.0941  0.0847
42388TIP3    H128046   8.951  -0.024   9.152 -0.4465  0.3884  0.1603
42388TIP3    H228047   9.038   0.092   9.106 -0.7425  0.4979 -0.1281
42389TIP3   OH228048   9.207   6.905   5.216 -0.1142 -0.2444 -0.0500
42389TIP3    H128049   9.162   6.842   5.272 -0.5280 -0.5612 -0.7273
42389TIP3    H228050   9.171   6.990   5.242  0.7050 -0.2351  1.1117
42390TIP3   OH228051   0.324   2.186   1.005 -0.0800 -0.6663  0.3680
42390TIP3    H128052   0.341   2.170   0.912 -0.2934  1.1138 -0.0236
42390TIP3    H228053   0.400   2.236   1.034  0.4508 -2.0481  1.4263
42391TIP3   OH228054   2.614   6.864   7.658  0.7477  0.0442 -0.1812
42391TIP3    H128055   2.551   6.860   7.730 -0.5373  1.4366 -1.1707
42391TIP3    H228056   2.598   6.949   7.617  1.9438 -0.4076 -1.6775
42392TIP3   OH228057   3.317   0.362   9.144 -0.7846  0.2306 -0.0006
42392TIP3    H128058   3.407   0.365   9.113  0.2828  0.3367  2.7594
42392TIP3    H228059   3.289   0.272   9.128  0.0909 -0.0114 -0.1979
42393TIP3   OH228060   8.595   0.028   1.074 -0.0345 -0.1359 -0.1617
42393TIP3    H128061   8.606   0.087   0.999 -0.3300  0.5678  0.3398
42393TIP3    H228062   8.684   0.005   1.099  0.1077  0.5789  0.0111
42394TIP3   OH228063   8.514   4.612  10.047  0.1858  0.9316 -0.5865
42394TIP3    H128064   8.564   4.684  10.084  3.1296 -0.9059 -0.6732
42394TIP3    H228065   8.473   4.570  10.122  2.1000  0.1446  0.0789
42395TIP3   OH228066   9.947   0.055   4.532 -0.5341 -0.6447  0.3639
42395TIP3    H128067   9.995   0.011   4.462 -0.2133  0.5709 -0.2002
42395TIP3    H228068   9.856   0.057   4.502 -0.3754 -0.0120 -0.0790
42396TIP3   OH228069   0.628   8.708   3.775  0.1832  0.3936 -0.4320
42396TIP3    H128070   0.574   8.629   3.772  2.4464 -1.2539 -0.4062
42396TIP3    H228071   0.649   8.719   3.868 -0.4356  1.2815 -0.3889
42397TIP3   OH228072   6.260   2.306   6.714 -0.4246  0.1638  0.6136
42397TIP3    H128073   6.323   2.315   6.785 -0.0534 -0.9749  0.4455
42397TIP3    H228074   6.192   2.248   6.749 -0.8544  0.5594  0.4451
42398TIP3   OH228075  10.631   3.147   9.163 -0.2184  0.2295 -0.5953
42398TIP3    H128076  10.699   3.084   9.137  0.1836  0.6413 -0.5716
42398TIP3    H228077  10.549   3.103   9.145  0.0587 -0.1830 -0.8703
42399TIP3   OH228078   8.457   6.284   9.200 -0.7320 -0.0623  0.5273
42399TIP3    H128079   8.533   6.330   9.234 -1.1272  1.1816 -0.1940
42399TIP3    H228080   8.480   6.192   9.205  0.0418  0.1828  2.1316
42400TIP3   OH228081   9.375   3.858   4.617 -0.3566 -0.6963 -0.1309
42400TIP3    H128082   9.416   3.771   4.617 -1.3239 -1.1640  0.5707
42400TIP3    H228083   9.302   3.850   4.678 -1.4094  0.1643 -1.2474
42401TIP3   OH228084   8.007   5.464   3.799 -0.0341 -0.2518 -0.0938
42401TIP3    H128085   8.089   5.415   3.794  0.2389  0.2764 -0.8873
42401TIP3    H228086   7.940   5.397   3.812  0.7687 -0.5452  3.8087
42402TIP3   OH228087   1.160   1.433   8.387 -0.0269 -0.2331  0.2508
42402TIP3    H128088   1.082   1.387   8.419 -0.8780  1.3353  0.5910
42402TIP3    H228089   1.221   1.364   8.362 -1.1031 -1.5138  1.0234
42403TIP3   OH228090   9.272   0.846  10.269 -0.2859  0.1811  0.3190
42403TIP3    H128091   9.236   0.758  10.272 -0.5589  0.3071  0.9118
42403TIP3    H228092   9.213   0.898  10.323  1.4994  0.1278  2.4425
42404TIP3   OH228093   6.450  10.422   6.201 -0.0520 -0.1779  0.3550
42404TIP3    H128094   6.364  10.446   6.234  0.6860  1.6884  1.0602
42404TIP3    H228095   6.435  10.397   6.110 -1.2709  0.6654  0.3100
42405TIP3   OH228096   7.068   4.675   5.495  0.5057 -0.3004  0.1554
42405TIP3    H128097   6.985   4.702   5.536  0.6564 -0.2600  0.4348
42405TIP3    H228098   7.100   4.604   5.550  0.5024 -0.5267 -0.1327
42406TIP3   OH228099   0.784   2.687   4.491 -0.0546 -0.0736  0.3694
42406TIP3    H128100   0.692   2.695   4.517  0.4803  2.2613  1.8839
42406TIP3    H228101   0.831   2.672   4.573  1.0158 -0.2790 -0.2582
42407TIP3   OH228102   8.879   4.333   1.124 -0.6727 -0.3603  0.1756
42407TIP3    H128103   8.965   4.306   1.155 -0.9742 -1.8802 -0.2304
42407TIP3    H228104   8.892   4.354   1.031 -0.9317 -1.7426 -0.2018
42408TIP3   OH228105  10.284   9.749   2.219 -0.1291 -0.5036  0.0567
42408TIP3    H128106  10.210   9.809   2.212 -0.7142 -1.2032  0.1151
42408TIP3    H228107  10.246   9.662   2.206  0.7072 -0.8623 -0.0670
42409TIP3   OH228108   2.924   5.808   5.100 -0.0302 -0.0131 -0.5533
42409TIP3    H128109   2.838   5.816   5.142 -0.1727  0.1353 -0.8736
42409TIP3    H228110   2.983   5.786   5.172 -0.0941  1.1983 -0.1066
42410TIP3   OH228111   7.514   9.792   4.862 -0.4310 -0.5267 -0.2168
42410TIP3    H128112   7.555   9.874   4.890  0.0948 -0.4800 -1.0891
42410TIP3    H228113   7.502   9.743   4.943 -0.7623  0.4064  0.3258
42411TIP3   OH228114  10.692   2.882   3.523 -0.2748 -0.1155 -0.7282
42411TIP3    H128115  10.787   2.883   3.513 -0.1364  0.8480  0.4230
42411TIP3    H228116  10.672   2.965   3.568 -1.6464 -0.3293 -0.9058
42412TIP3   OH228117   5.153   6.698   7.707 -0.1426  0.0446  0.0563
42412TIP3    H128118   5.194   6.742   7.633 -0.3482  0.6446  0.2883
42412TIP3    H228119   5.104   6.625   7.668  0.8676 -0.4795 -0.2463
42413TIP3   OH228120   6.706   4.570   7.505  0.3467  0.4297 -0.4458
42413TIP3    H128121   6.642   4.502   7.481  0.0559  0.6589 -0.3278
42413TIP3    H228122   6.764   4.576   7.429 -1.7565  2.5646 -2.0158
42414TIP3   OH228123  10.207   6.133   1.679 -0.4264 -0.0239  0.2534
42414TIP3    H128124  10.302   6.145   1.681 -0.3548 -0.6127  0.4230
42414TIP3    H228125  10.173   6.221   1.663  0.1394  0.2179  0.3376
42415TIP3   OH228126   2.760   7.711   4.645 -0.2787  0.0414  0.2580
42415TIP3    H128127   2.770   7.739   4.554 -0.8756 -1.7483 -0.3996
42415TIP3    H228128   2.776   7.791   4.696 -1.8008  1.5359 -1.4599
42416TIP3   OH228129  10.037  10.701   5.362 -0.2267 -0.4465  0.5357
42416TIP3    H128130  10.009  10.782   5.319  1.4182  0.8769  1.8455
42416TIP3    H228131  10.095  10.658   5.299 -0.0991  0.0431  0.3208
42417TIP3   OH228132   7.548   6.884   7.909  0.3087 -0.4616  0.0205
42417TIP3    H128133   7.579   6.974   7.909  0.5762 -0.5273  1.4153
42417TIP3    H228134   7.454   6.890   7.892  0.3656  0.0530 -0.1115
42418TIP3   OH228135   4.528   3.068   6.866  0.4797 -0.2971 -0.3776
42418TIP3    H128136   4.448   3.067   6.920  1.3583 -1.6076  0.9930
42418TIP3    H228137   4.496   3.061   6.776 -1.0117  1.1605 -0.0188
42419TIP3   OH228138   9.745   9.836   0.409 -0.2915 -0.1723 -0.6567
42419TIP3    H128139   9.722   9.772   0.476 -1.8571  0.8225 -0.1801
42419TIP3    H228140   9.812   9.793   0.356  0.8260 -1.1026  1.3670
42420TIP3   OH228141   6.316  10.406  10.265 -0.4863  0.2684  0.1697
42420TIP3    H128142   6.237  10.457  10.246  0.1486  1.4870  0.7229
42420TIP3    H228143   6.293  10.355  10.343 -0.6816  0.7467  0.4310
42421TIP3   OH228144   6.251   0.900   2.962  0.3477  0.8403 -1.1399
42421TIP3    H128145   6.335   0.898   2.916 -0.5497  0.3724 -2.8471
42421TIP3    H228146   6.188   0.866   2.898 -1.1645  1.2927  0.0540
42422TIP3   OH228147  10.086   9.082   8.864  0.2758 -0.5443  0.0303
42422TIP3    H128148  10.048   9.124   8.786  1.0901  1.8000  0.8220
42422TIP3    H228149  10.022   9.099   8.933  0.8319 -0.2070  0.4638
42423TIP3   OH228150   6.129   7.471  10.114  0.0514  0.0571  0.0003
42423TIP3    H128151   6.149   7.528  10.039 -0.1087 -1.2643 -1.0823
42423TIP3    H228152   6.035   7.454  10.107  0.5537 -2.7981 -1.5866
42424TIP3   OH228153   7.043   1.761  10.862  0.4585  0.1992  0.0321
42424TIP3    H128154   7.016   1.768  10.953 -0.2433 -0.3637 -0.1169
42424TIP3    H228155   6.979   1.701  10.823  1.4018 -0.4494 -0.5638
42425TIP3   OH228156   4.560   4.443   8.535 -0.1349 -0.7128  0.0198
42425TIP3    H128157   4.522   4.484   8.613 -0.2267 -0.9626  0.1080
42425TIP3    H228158   4.651   4.424   8.559  0.7998  2.0446 -0.9812
42426TIP3   OH228159   4.988   9.403   9.922 -0.0157 -0.1402 -0.3935
42426TIP3    H128160   5.058   9.419   9.859 -0.4310 -0.2472 -0.8923
42426TIP3    H228161   4.959   9.490   9.949 -1.5940  0.0331 -2.3433
42427TIP3   OH228162   8.412   2.141   3.795 -0.0107 -0.7427  0.0851
42427TIP3    H128163   8.420   2.079   3.867 -2.5156 -1.7607 -0.4070
42427TIP3    H228164   8.338   2.108   3.743  0.2843  1.1952 -1.7006
42428TIP3   OH228165   7.304   4.271   7.617 -0.1934  0.1937 -0.1850
42428TIP3    H128166   7.215   4.272   7.583 -1.5885  0.7680  3.0569
42428TIP3    H228167   7.325   4.364   7.631  0.5063  0.0147 -0.0122
42429TIP3   OH228168   6.319   1.064   2.653  1.0988  0.0024  0.3909
42429TIP3    H128169   6.363   0.984   2.680 -0.4329 -0.5263  1.4973
42429TIP3    H228170   6.237   1.034   2.614  1.0548  1.0004 -0.3178
42430TIP3   OH228171   7.796  10.354   0.221  0.2984 -0.8548  0.2126
42430TIP3    H128172   7.872  10.355   0.279  1.1715  0.6908 -0.8862
42430TIP3    H228173   7.778  10.447   0.204 -0.2261 -1.2412 -1.5720
42431TIP3   OH228174   1.285   5.079   2.615  0.0226  0.6304 -0.4996
42431TIP3    H128175   1.290   5.171   2.641 -1.4649  0.8097 -0.7512
42431TIP3    H228176   1.233   5.038   2.684  0.7901 -0.0613 -0.3194
42432TIP3   OH228177   0.217  10.053   2.570  0.3104 -0.8813 -0.7368
42432TIP3    H128178   0.300  10.015   2.599  0.8522  0.6925 -0.1239
42432TIP3    H228179   0.213  10.138   2.613 -0.7736 -0.1488 -2.1870
42433TIP3   OH228180   3.326   7.132   6.301  0.3509 -0.2796 -0.5759
42433TIP3    H128181   3.310   7.046   6.261  0.9723 -1.6727  2.0083
42433TIP3    H228182   3.382   7.114   6.376 -0.3866  2.2518  0.6904
42434TIP3   OH228183   2.614   8.736   4.695  0.1120  0.0033  0.1046
42434TIP3    H128184   2.555   8.806   4.725 -0.5017  0.2135 -1.4641
42434TIP3    H228185   2.555   8.671   4.656  0.8713  0.2644 -1.5989
42435TIP3   OH228186   3.903   6.736  10.035  0.2125  0.2742 -0.3190
42435TIP3    H128187   3.960   6.660  10.041 -1.3380 -0.9464 -0.2312
42435TIP3    H228188   3.847   6.730  10.112  0.0671  1.5347 -0.2990
42436TIP3   OH228189   0.311  10.390   2.492 -0.1763  0.1236  0.4784
42436TIP3    H128190   0.334  10.456   2.427  1.3624 -1.8448 -1.1482
42436TIP3    H228191   0.341  10.307   2.453 -3.3188 -1.7831  1.6847
42437TIP3   OH228192  10.017   1.165   8.386 -0.2186  0.3098  0.3628
42437TIP3    H128193  10.056   1.097   8.331 -2.0165  0.0224 -0.6401
42437TIP3    H228194  10.083   1.183   8.453  1.5632 -0.1782 -1.1916
42438TIP3   OH228195   3.833   7.164   4.239 -0.1892  0.6298 -0.2562
42438TIP3    H128196   3.860   7.073   4.248 -0.3491  0.2835 -2.7075
42438TIP3    H228197   3.779   7.165   4.160 -1.6909  2.5393  0.7336
42439TIP3   OH228198  10.438   3.981   4.362  0.1966 -0.3522 -0.0970
42439TIP3    H128199  10.454   4.024   4.445 -1.4927 -1.3494  0.8055
42439TIP3    H228200  10.358   4.022   4.328 -0.9052 -2.0495  0.3273
42440TIP3   OH228201   2.355   8.935   6.653  0.0296  0.2926 -0.1265
42440TIP3    H128202   2.284   8.997   6.672 -0.4695 -0.1873 -0.4214
42440TIP3    H228203   2.312   8.851   6.643  0.7563 -0.1917  0.6806
42441TIP3   OH228204   2.659   8.990   8.585 -0.2994 -0.2654 -0.2424
42441TIP3    H128205   2.702   9.034   8.659 -1.6378  1.6919 -0.5566
42441TIP3    H228206   2.728   8.937   8.546  1.3465  1.3113  0.3821
42442TIP3   OH228207   0.248   5.914   1.344 -0.0418  0.4697 -0.0855
42442TIP3    H128208   0.215   5.890   1.258  1.6896  0.4696 -0.7935
42442TIP3    H228209   0.197   5.991   1.369 -0.9003  0.1788 -0.8740
42443TIP3   OH228210   9.840   7.557   5.200  0.7955  0.2056  0.0387
42443TIP3    H128211   9.755   7.520   5.178  1.7692 -1.9792 -0.3750
42443TIP3    H228212   9.839   7.566   5.295 -0.3702  1.6018 -0.0631
42444TIP3   OH228213   5.372   8.617   5.228  0.2601 -0.6315 -0.1472
42444TIP3    H128214   5.437   8.631   5.159 -0.0889 -3.0011 -1.0572
42444TIP3    H228215   5.315   8.547   5.193 -1.0268 -0.6186  1.7992
42445TIP3   OH228216   2.279   1.604   4.679  0.1672  0.2208 -0.2844
42445TIP3    H128217   2.298   1.583   4.770 -2.0666  0.1355  0.2086
42445TIP3    H228218   2.328   1.685   4.663  1.9505 -0.6618  0.4216
42446TIP3   OH228219   3.536   4.948   9.194  0.6123  0.2731  0.2504
42446TIP3    H128220   3.459   4.903   9.228  0.9577 -0.7876 -0.3107
42446TIP3    H228221   3.529   4.937   9.099  0.8796  1.1424  0.1251
42447TIP3   OH228222   0.494   9.505   2.566 -0.1394  0.4498 -0.1905
42447TIP3    H128223   0.524   9.415   2.580 -0.5504 -0.1337 -2.5229
42447TIP3    H228224   0.549   9.558   2.624  0.0567 -1.2853  1.3092
42448TIP3   OH228225   3.846   1.099   9.671 -0.4837 -0.3885 -0.0024
42448TIP3    H128226   3.938   1.087   9.647  0.0716  0.4070  1.5705
42448TIP3    H228227   3.816   1.171   9.616  0.5536  0.9313  1.0786
42449TIP3   OH228228   1.428  10.200   3.372 -0.1136 -0.0063 -0.4357
42449TIP3    H128229   1.394  10.163   3.453 -0.7367  0.1292 -0.6323
42449TIP3    H228230   1.389  10.148   3.303 -0.4621  0.5826 -0.6882
42450TIP3   OH228231  10.798   7.234   8.831  0.3065  0.0794 -0.0667
42450TIP3    H128232  10.775   7.241   8.739 -0.6861 -1.3125  0.0424
42450TIP3    H228233  10.793   7.323   8.865 -0.0460  0.4939 -1.1895
42451TIP3   OH228234   6.424   3.877   5.356  0.0618 -0.3299  0.8140
42451TIP3    H128235   6.489   3.926   5.306 -0.4788 -0.2241  0.2073
42451TIP3    H228236   6.471   3.799   5.385  0.4496 -0.2789  0.3430
42452TIP3   OH228237   8.349   3.533   5.032 -0.7702 -0.5164 -0.7142
42452TIP3    H128238   8.255   3.549   5.038 -0.4128  2.3943 -1.1141
42452TIP3    H228239   8.384   3.614   4.994  2.4076  0.7118  3.9671
42453TIP3   OH228240   4.347   2.188  10.505 -0.5205  0.4191 -0.1012
42453TIP3    H128241   4.435   2.160  10.529 -0.5446  0.3301 -0.1152
42453TIP3    H228242   4.360   2.265  10.450 -0.4477  0.3618 -0.1650
42454TIP3   OH228243   1.736   8.193   8.612  0.5332  0.2515 -0.0533
42454TIP3    H128244   1.670   8.165   8.675  0.7503 -2.4688 -0.9220
42454TIP3    H228245   1.819   8.185   8.658  0.4659  1.5732  0.3443
42455TIP3   OH228246   3.402   2.135   7.436  0.0284 -0.2838 -0.8981
42455TIP3    H128247   3.330   2.147   7.497  1.9472 -0.7105  1.6433
42455TIP3    H228248   3.397   2.211   7.377 -2.5522 -0.4312 -0.9554
42456TIP3   OH228249   5.647  10.273   9.263  0.0042 -1.0577  0.4964
42456TIP3    H128250   5.676  10.356   9.299  1.0221 -0.8468 -0.7310
42456TIP3    H228251   5.724  10.238   9.219 -1.5297 -0.4052 -3.0458
42457TIP3   OH228252   6.374   1.829   1.511  0.1186  0.2244  0.0574
42457TIP3    H128253   6.314   1.852   1.441  1.3520  1.7601 -0.5441
42457TIP3    H228254   6.435   1.902   1.516 -0.4510  0.6470  3.3932
42458TIP3   OH228255   9.481   0.581   8.440 -0.1843 -0.1175 -0.2993
42458TIP3    H128256   9.466   0.669   8.405  1.1018 -0.5664 -2.1536
42458TIP3    H228257   9.398   0.556   8.480 -1.7131  0.6227 -2.7583
42459TIP3   OH228258  10.160   1.188   1.965 -0.0732  0.6115  0.2144
42459TIP3    H128259  10.233   1.247   1.949 -2.0897  3.0544 -0.6249
42459TIP3    H228260  10.084   1.245   1.970 -2.1874 -1.9459 -0.6328
42460TIP3   OH228261  10.436   7.839   7.462 -0.7547  0.0638  0.1373
42460TIP3    H128262  10.530   7.825   7.473 -0.7905  0.0050  0.3631
42460TIP3    H228263  10.400   7.751   7.451 -0.6479  0.1408 -1.0392
42461TIP3   OH228264   4.604   5.537   8.747  0.3536  0.4651  0.1524
42461TIP3    H128265   4.636   5.496   8.827  1.4415 -1.0767 -1.0156
42461TIP3    H228266   4.515   5.565   8.768  1.0381  1.2603  2.2564
42462TIP3   OH228267   2.634   2.071   7.926 -0.1197 -0.4065 -0.4895
42462TIP3    H128268   2.684   2.052   8.006  0.5175  1.2128 -0.4653
42462TIP3    H228269   2.569   2.001   7.921 -0.8099 -0.0515  1.9879
42463TIP3   OH228270   3.332   7.307   2.522  0.1114  0.0189 -0.1317
42463TIP3    H128271   3.282   7.383   2.548 -2.0879 -0.7622 -1.7344
42463TIP3    H228272   3.411   7.310   2.576 -1.2785  1.7532  1.9726
42464TIP3   OH228273   1.920  10.408   5.049 -0.0884 -0.5078  0.6119
42464TIP3    H128274   1.847  10.431   5.107 -2.2630 -2.1089 -1.2905
42464TIP3    H228275   1.937  10.316   5.068 -0.8145 -1.0519 -1.1745
42465TIP3   OH228276   1.709   8.369   8.953  0.3177 -0.3623  0.1487
42465TIP3    H128277   1.630   8.392   8.903  0.1825  1.2187  1.0061
42465TIP3    H228278   1.721   8.443   9.013  2.7822 -0.3228 -0.3262
42466TIP3   OH228279   1.050   4.572   1.698  0.2746  0.5327 -0.1922
42466TIP3    H128280   1.119   4.587   1.762 -0.1272 -1.7665  0.9047
42466TIP3    H228281   1.042   4.477   1.694 -4.0070  0.6050  1.1671
42467TIP3   OH228282   4.687   9.429   9.759  0.0255 -0.1752 -0.4762
42467TIP3    H128283   4.628   9.436   9.684 -1.2861 -0.3722  0.5072
42467TIP3    H228284   4.717   9.518   9.774 -1.6507  0.3172  0.2470
42468TIP3   OH228285   7.827   5.191   7.323 -0.9078  0.1262  0.1014
42468TIP3    H128286   7.911   5.237   7.325  1.8648 -4.3127 -0.9487
42468TIP3    H228287   7.780   5.231   7.250  1.0455  1.6388 -0.4172
42469TIP3   OH228288   6.416   2.171   5.585  0.1280 -0.3566  0.1894
42469TIP3    H128289   6.408   2.184   5.490 -0.2918 -0.0051  0.2709
42469TIP3    H228290   6.498   2.122   5.596  0.1651 -0.4189 -0.3559
42470TIP3   OH228291   0.339   7.016   6.189  0.3462  0.0518  0.6463
42470TIP3    H128292   0.293   6.959   6.127 -0.1214 -0.0124  1.0462
42470TIP3    H228293   0.323   7.105   6.156 -1.1470  0.1239  1.4703
42471TIP3   OH228294  10.407   6.372   7.617 -0.4796  0.0137  0.4193
42471TIP3    H128295  10.436   6.421   7.540  0.1412  1.3801  1.4772
42471TIP3    H228296  10.428   6.281   7.598 -0.3675  0.3303 -1.0263
42472TIP3   OH228297   3.709   0.821   9.173 -0.0030 -0.5791 -0.5477
42472TIP3    H128298   3.651   0.750   9.199 -1.1412  0.2447 -0.7402
42472TIP3    H228299   3.749   0.850   9.255  0.5352 -1.4681 -0.4793
42473TIP3   OH228300   3.600   5.798   4.016  0.1394 -0.2383  0.8039
42473TIP3    H128301   3.611   5.715   4.064  1.6744 -0.8261 -0.4842
42473TIP3    H228302   3.685   5.841   4.023 -0.2668  0.6439  0.3913
42474TIP3   OH228303   1.547   0.652   5.529  0.3881 -0.1438  0.0939
42474TIP3    H128304   1.519   0.633   5.619 -2.3757  0.2999 -0.5824
42474TIP3    H228305   1.564   0.747   5.530  1.3525 -0.3018  0.3388
42475TIP3   OH228306   7.911  10.268   5.178 -0.7504  0.6069 -0.5829
42475TIP3    H128307   7.864  10.248   5.258  0.2045  0.2275 -0.1010
42475TIP3    H228308   7.879  10.355   5.152 -0.1094  1.3334  0.9484
42476TIP3   OH228309   0.449   2.071   6.549  0.2724  0.1711 -0.1413
42476TIP3    H128310   0.456   2.162   6.522 -0.7942  1.0573  2.3308
42476TIP3    H228311   0.432   2.023   6.468  1.3620  2.0756 -1.5560
42477TIP3   OH228312   3.894   7.823  10.844 -0.2280 -0.1187 -0.0286
42477TIP3    H128313   3.985   7.809  10.870  0.1117 -0.5670 -1.3257
42477TIP3    H228314   3.881   7.917  10.849  0.9111  0.1607 -1.5686
42478TIP3   OH228315   0.832  10.472   6.017 -0.2151 -0.6670 -0.5513
42478TIP3    H128316   0.746  10.514   6.007 -0.2784 -1.1216 -2.3400
42478TIP3    H228317   0.893  10.536   5.980  0.0041 -1.0608 -0.8716
42479TIP3   OH228318   7.921   7.050   1.241  0.4716  0.5735 -0.1083
42479TIP3    H128319   7.878   6.989   1.300 -0.5825  0.8749 -0.5446
42479TIP3    H228320   7.980   6.996   1.188  0.0310  0.0384 -0.0515
42480TIP3   OH228321   3.280   9.144   0.870  0.3322  0.0599  0.4445
42480TIP3    H128322   3.335   9.068   0.889 -0.2668 -0.0739  1.8059
42480TIP3    H228323   3.205   9.108   0.823  0.7646  0.0413 -0.2375
42481TIP3   OH228324   8.067   1.610   3.270 -0.3270  0.2296 -0.0019
42481TIP3    H128325   8.022   1.545   3.215 -1.4046  0.3384  0.7082
42481TIP3    H228326   8.086   1.682   3.210 -0.9985  0.1235 -0.3594
42482TIP3   OH228327   5.594   1.301   2.923 -0.3627  0.3831  0.1755
42482TIP3    H128328   5.506   1.332   2.900 -0.3948  1.6316  1.8426
42482TIP3    H228329   5.613   1.235   2.857 -2.4434  0.2628 -0.3869
42483TIP3   OH228330   2.445   6.402   7.624 -0.5150 -0.1026  0.2884
42483TIP3    H128331   2.362   6.433   7.588  0.3395  0.8881 -0.9109
42483TIP3    H228332   2.437   6.307   7.623 -1.6535 -0.0252  0.2680
42484TIP3   OH228333   4.363   9.421   0.729  0.3047 -0.4698 -0.3896
42484TIP3    H128334   4.365   9.416   0.825 -1.2651 -0.7972 -0.3400
42484TIP3    H228335   4.364   9.515   0.710  0.0585 -0.3892 -0.0214
42485TIP3   OH228336   2.275   6.012   9.281  0.3227  0.6351  0.2692
42485TIP3    H128337   2.236   5.928   9.305 -0.9768  0.9209 -0.7230
42485TIP3    H228338   2.240   6.074   9.344 -0.2292  0.7555 -0.1511
42486TIP3   OH228339   3.018   0.679   3.082 -0.3855 -0.3087 -0.1116
42486TIP3    H128340   3.100   0.704   3.124 -0.7238  1.7052 -0.5329
42486TIP3    H228341   3.024   0.717   2.994 -2.3353  1.2233  0.3343
42487TIP3   OH228342   6.323   3.904   0.474  0.1116 -0.0197 -0.4132
42487TIP3    H128343   6.307   3.827   0.528 -0.3507  0.7143  0.5320
42487TIP3    H228344   6.255   3.900   0.407 -1.7609  1.0312  1.3133
42488TIP3   OH228345   5.609  10.843   0.342 -0.3194 -0.8335 -0.2424
42488TIP3    H128346   5.540  10.795   0.388 -0.6021 -0.7687 -0.5910
42488TIP3    H228347   5.568  10.870   0.260  0.9298 -3.1531 -1.7299
42489TIP3   OH228348   4.550   3.726   1.449 -0.5996 -0.1822  0.2723
42489TIP3    H128349   4.542   3.636   1.419 -0.8776 -0.4995  1.2759
42489TIP3    H228350   4.555   3.720   1.544  0.5916  0.7769  0.2990
42490TIP3   OH228351   0.454   3.009   5.088  0.5517 -0.3596  0.2330
42490TIP3    H128352   0.359   3.019   5.088  0.4242 -1.4693  0.0814
42490TIP3    H228353   0.470   2.934   5.145  1.4467  0.6378  1.3580
42491TIP3   OH228354   3.710  10.290   8.336 -0.3329  0.2937 -0.7285
42491TIP3    H128355   3.708  10.326   8.424 -1.1122 -0.7268 -0.3149
42491TIP3    H228356   3.743  10.362   8.281  0.7048  0.7554  0.4626
42492TIP3   OH228357   8.276   2.590   9.315  0.5503  0.1859  0.3788
42492TIP3    H128358   8.222   2.560   9.242 -1.9475 -1.2664  2.6577
42492TIP3    H228359   8.358   2.541   9.306 -0.5660 -1.6538 -0.2661
42493TIP3   OH228360   7.026   0.619   3.568  0.4668 -0.1388 -0.6335
42493TIP3    H128361   7.007   0.700   3.616 -1.1841  0.5038 -2.2642
42493TIP3    H228362   6.950   0.563   3.586  2.5576 -2.3303  2.2915
42494TIP3   OH228363   8.231   4.023   9.204  0.2338  0.0430  0.8624
42494TIP3    H128364   8.226   4.085   9.277  0.1022 -0.1413  1.0098
42494TIP3    H228365   8.145   4.027   9.162  0.2317 -0.0241  0.8589
42495TIP3   OH228366   6.813   3.650   1.460  0.2426 -0.6072 -0.1068
42495TIP3    H128367   6.907   3.629   1.468  0.3846  0.5928  2.2968
42495TIP3    H228368   6.789   3.685   1.545 -3.3268 -4.3067  0.7483
42496TIP3   OH228369   3.445   3.755   0.667 -0.5222 -0.3148  0.3821
42496TIP3    H128370   3.379   3.751   0.736 -1.2264  1.1156 -0.1624
42496TIP3    H228371   3.527   3.777   0.712 -0.4905 -1.6292  1.0055
42497TIP3   OH228372   9.193   1.068   8.695  0.2160 -0.3816 -0.2787
42497TIP3    H128373   9.275   1.057   8.744  0.2356  0.4532 -0.1086
42497TIP3    H228374   9.125   1.067   8.762  0.3110  1.6704 -0.0980
42498TIP3   OH228375   1.590   2.489   5.536  0.1336  0.5694  0.8962
42498TIP3    H128376   1.554   2.401   5.530  0.0443  0.6677 -0.2271
42498TIP3    H228377   1.683   2.475   5.557 -0.0178  0.2412  1.3746
42499TIP3   OH228378   6.529   5.538   8.089 -0.1844  0.5104 -0.3099
42499TIP3    H128379   6.546   5.513   7.999  0.1945 -0.3617 -0.0029
42499TIP3    H228380   6.455   5.483   8.115 -0.4466  0.9305 -0.1626
42500TIP3   OH228381   5.201   6.472  10.017 -0.3045 -0.5322  0.3759
42500TIP3    H128382   5.173   6.483  10.108  0.6670 -1.4041  0.8027
42500TIP3    H228383   5.162   6.388   9.991  0.4932 -0.9338  0.4371
42501TIP3   OH228384   1.631   2.467   4.975 -0.0181 -0.0143 -0.8605
42501TIP3    H128385   1.618   2.378   5.008 -0.2399  0.5787  0.7352
42501TIP3    H228386   1.707   2.500   5.023 -0.3084  0.8601 -0.9740
42502TIP3   OH228387   1.592   7.803  10.514 -0.3138 -0.9645 -0.5317
42502TIP3    H128388   1.611   7.781  10.605  0.2804  0.6426 -0.2394
42502TIP3    H228389   1.674   7.787  10.468  0.1235  0.5132 -0.3168
42503TIP3   OH228390  10.358   4.752   6.044 -0.4203  0.0210  0.4832
42503TIP3    H128391  10.406   4.712   6.117 -0.7049 -0.7686  0.2517
42503TIP3    H228392  10.414   4.824   6.015  1.1478 -1.4846 -0.4149
42504TIP3   OH228393   1.076   5.299   2.904  0.3669  0.2422 -0.6042
42504TIP3    H128394   1.169   5.303   2.928  0.1048  0.4727  0.4589
42504TIP3    H228395   1.073   5.249   2.823  1.1098 -2.8857  1.1563
42505TIP3   OH228396   9.056   9.545   8.186  0.4084 -0.1485  0.1552
42505TIP3    H128397   9.128   9.571   8.129 -0.6165  0.1676 -1.0365
42505TIP3    H228398   9.057   9.609   8.257  0.8260  0.3129 -0.2579
42506TIP3   OH228399   2.828   9.724   7.777 -0.3436 -0.3748  0.3788
42506TIP3    H128400   2.881   9.762   7.708 -0.4116 -1.6360 -0.4121
42506TIP3    H228401   2.886   9.720   7.853 -0.6702  2.2725  0.8692
42507TIP3   OH228402   1.836   2.405   7.701  0.6390  0.0725  0.2829
42507TIP3    H128403   1.785   2.392   7.621 -1.5535 -1.4543  1.8178
42507TIP3    H228404   1.866   2.496   7.695 -1.4443  0.7518 -1.2017
42508TIP3   OH228405   5.988   0.859  10.262 -0.8136 -0.1759  0.2475
42508TIP3    H128406   6.016   0.938  10.216 -2.4786 -0.0210 -0.5926
42508TIP3    H228407   5.952   0.892  10.345 -1.1075 -0.0846  0.0860
42509TIP3   OH228408   8.964   9.666  10.605  0.6322 -0.1841  0.1554
42509TIP3    H128409   8.894   9.652  10.541  1.8837 -1.1365 -1.0588
42509TIP3    H228410   8.954   9.758  10.631 -2.3999 -0.8055  1.7156
42510TIP3   OH228411   2.917   6.041   0.870 -0.7619  0.1134  0.1170
42510TIP3    H128412   2.863   6.120   0.866  1.2143  1.5048 -0.6260
42510TIP3    H228413   3.004   6.070   0.843  0.1024 -2.2806  0.0961
42511TIP3   OH228414   5.975   8.445   6.639  0.4134  0.2235 -0.3527
42511TIP3    H128415   5.993   8.530   6.681 -1.4539 -0.2652  1.6580
42511TIP3    H228416   5.988   8.381   6.709  2.7486 -1.3581 -2.0742
42512TIP3   OH228417   7.798   0.146   5.298 -0.1579  0.2856 -0.3127
42512TIP3    H128418   7.768   0.087   5.367 -1.3347 -0.3412 -1.3160
42512TIP3    H228419   7.863   0.202   5.341 -0.8555 -0.0747  1.2847
42513TIP3   OH228420  10.595   1.507   5.250 -0.3042  0.2424  0.0587
42513TIP3    H128421  10.536   1.520   5.325  0.7233  2.7206  0.5448
42513TIP3    H228422  10.551   1.442   5.196 -3.0071  1.2302  0.8957
42514TIP3   OH228423   8.588   8.234   7.709 -0.2620  0.2137  0.3664
42514TIP3    H128424   8.531   8.308   7.690  0.4801  0.7706  0.3095
42514TIP3    H228425   8.535   8.157   7.684 -0.4898  0.7751 -0.9645
42515TIP3   OH228426   5.052   9.315   6.346  0.1019 -0.1669  0.0975
42515TIP3    H128427   5.135   9.308   6.393 -0.5895  1.8420  1.8042
42515TIP3    H228428   5.074   9.295   6.255  1.8140 -2.6451  0.9652
42516TIP3   OH228429   0.644   2.480   5.321 -0.0557  0.0560 -0.5095
42516TIP3    H128430   0.706   2.527   5.265  1.3581 -0.2615  0.7194
42516TIP3    H228431   0.690   2.400   5.346 -1.1233 -0.3860  0.1352
42517TIP3   OH228432   8.212   2.678   6.145 -0.0051 -0.1185  0.0721
42517TIP3    H128433   8.235   2.693   6.053 -0.3571 -0.7433 -0.1308
42517TIP3    H228434   8.155   2.752   6.168  1.2544  0.8188  0.2366
42518TIP3   OH228435   5.038  10.153   6.828 -0.0382  0.0124  0.0894
42518TIP3    H128436   4.978  10.114   6.764  0.5202 -0.6752 -0.0327
42518TIP3    H228437   5.069  10.233   6.787  2.1703 -1.5875 -1.6033
42519TIP3   OH228438   9.111   1.915   4.116  0.3977  0.3621 -0.4018
42519TIP3    H128439   9.189   1.920   4.172  1.3960 -2.1532 -1.4121
42519TIP3    H228440   9.057   1.847   4.158  0.8234 -1.0281 -1.9839
42520TIP3   OH228441   3.369   3.589   4.110  0.3335 -0.3059 -0.6991
42520TIP3    H128442   3.409   3.554   4.190 -2.8927 -2.6533  0.0837
42520TIP3    H228443   3.302   3.649   4.142  1.2391  1.3748 -1.8439
42521TIP3   OH228444   4.878   0.783   7.479  0.1371 -0.0056  0.2061
42521TIP3    H128445   4.823   0.785   7.400 -0.3075  0.4482  0.5225
42521TIP3    H228446   4.931   0.704   7.469  0.7735  0.5509 -1.0110
42522TIP3   OH228447  10.489   6.336   6.692 -0.6977  0.5034  0.1650
42522TIP3    H128448  10.555   6.396   6.728 -1.1894  0.8905  0.4367
42522TIP3    H228449  10.509   6.251   6.733  0.7411  0.1823 -1.1377
42523TIP3   OH228450   8.605   2.729   0.083 -0.5286  0.1516 -0.5287
42523TIP3    H128451   8.541   2.674   0.127 -1.6974  0.3883 -1.8614
42523TIP3    H228452   8.606   2.810   0.134  0.9273 -0.8823  1.2210
42524TIP3   OH228453   0.206   3.165  10.730 -0.0356  0.2535 -0.6104
42524TIP3    H128454   0.247   3.177  10.645  1.4246 -0.4538 -0.0317
42524TIP3    H228455   0.121   3.124  10.711  0.5635 -0.5260 -1.6841
42525TIP3   OH228456   1.298   0.655   2.951 -0.4396 -0.0914 -0.1943
42525TIP3    H128457   1.269   0.573   2.912 -0.4799  0.5629 -1.6211
42525TIP3    H228458   1.243   0.722   2.910 -1.3648  0.5482  1.9635
42526TIP3   OH228459   3.671   2.035   4.775  0.3674  0.1282 -0.3669
42526TIP3    H128460   3.614   2.035   4.699 -1.3184  0.9757  0.8377
42526TIP3    H228461   3.744   2.092   4.751 -0.1525  0.4060 -1.3253
42527TIP3   OH228462   2.131   2.121   5.281 -0.0173  0.4350 -0.3655
42527TIP3    H128463   2.192   2.160   5.343  0.2138  1.2540 -1.0808
42527TIP3    H228464   2.061   2.084   5.335  1.5606 -1.3822  0.5177
42528TIP3   OH228465   9.932   0.558   5.599  0.5764  0.2014 -0.2302
42528TIP3    H128466   9.901   0.491   5.660  0.7772 -0.3830 -0.7602
42528TIP3    H228467   9.922   0.518   5.512  4.7012 -0.9061 -0.4028
42529TIP3   OH228468   2.213   8.810  10.407 -0.2040  0.4185  0.2312
42529TIP3    H128469   2.150   8.878  10.388  2.0056  2.6049  0.2372
42529TIP3    H228470   2.247   8.784  10.322 -0.0310  0.3480  0.3206
42530TIP3   OH228471   7.661  10.232   9.873  0.6830  0.1417  0.4805
42530TIP3    H128472   7.618  10.160   9.827  0.3132 -0.4181  1.6751
42530TIP3    H228473   7.595  10.301   9.878  0.2270 -0.3624  1.4825
42531TIP3   OH228474   8.605   7.605   6.720 -0.5296 -0.1103 -0.0714
42531TIP3    H128475   8.620   7.634   6.630 -0.5040 -0.4955 -0.1966
42531TIP3    H228476   8.614   7.509   6.715 -0.5707 -0.1345  0.3322
42532TIP3   OH228477   9.258   2.957   7.489 -0.5005  0.0026  0.5097
42532TIP3    H128478   9.231   2.986   7.576 -0.7282 -2.2263  1.2536
42532TIP3    H228479   9.352   2.941   7.498 -0.6676 -0.9617  0.5839
42533TIP3   OH228480   0.794   1.961   7.572 -0.2835  0.1430 -0.1475
42533TIP3    H128481   0.835   2.048   7.563 -1.4405  0.8252  0.8768
42533TIP3    H228482   0.826   1.928   7.655  0.1340 -0.4186 -0.5255
42534TIP3   OH228483   0.170   6.716   8.065 -0.2301 -0.1547 -0.1256
42534TIP3    H128484   0.198   6.808   8.068 -0.6273 -0.0184 -0.4108
42534TIP3    H228485   0.084   6.719   8.022 -0.1068 -0.6919 -0.4165
42535TIP3   OH228486   7.355  10.000   1.712 -0.2941 -0.0823  0.0575
42535TIP3    H128487   7.261  10.002   1.696 -0.5110 -0.4010  1.1707
42535TIP3    H228488   7.391   9.947   1.641 -1.3927 -2.9452  1.4797
42536TIP3   OH228489   2.735   8.423   6.552  0.2959 -0.2436  0.6800
42536TIP3    H128490   2.707   8.344   6.506  1.3166 -0.3954  0.2923
42536TIP3    H228491   2.796   8.392   6.619 -0.4751  0.0707  1.5537
42537TIP3   OH228492   5.911   2.258   2.145  0.2920  0.2364 -0.2861
42537TIP3    H128493   5.943   2.339   2.185  0.7691  0.5874 -1.3429
42537TIP3    H228494   5.977   2.192   2.167  0.3025  0.3114 -0.0889
42538TIP3   OH228495   4.412   4.308   4.132  0.1443  0.0746  0.1996
42538TIP3    H128496   4.430   4.401   4.128 -0.6015  0.3622  2.3663
42538TIP3    H228497   4.485   4.271   4.182 -0.0089 -0.3781  0.1014
42539TIP3   OH228498   4.423   6.740   3.427  0.0960 -0.5738  0.0228
42539TIP3    H128499   4.444   6.691   3.347 -0.4668  0.4381 -0.7739
42539TIP3    H228500   4.341   6.785   3.406 -0.1416 -0.4090  1.2387
42540TIP3   OH228501   3.358   1.403   0.081 -0.1079 -0.4775 -0.1278
42540TIP3    H128502   3.283   1.373   0.133 -0.6229 -3.6903 -2.4248
42540TIP3    H228503   3.426   1.418   0.146 -2.3448  1.5717  1.9466
42541TIP3   OH228504   2.060   8.429   0.397  0.0353 -0.0680 -0.2401
42541TIP3    H128505   1.971   8.429   0.361  0.5179  0.8254 -1.5694
42541TIP3    H228506   2.096   8.344   0.372 -0.8478 -1.0153  1.5132
42542TIP3   OH228507   7.300   0.594   6.748  0.6196 -0.1409 -0.4165
42542TIP3    H128508   7.353   0.620   6.672 -0.4121 -1.5034 -1.6704
42542TIP3    H228509   7.314   0.500   6.756 -1.5005 -0.5486 -0.7778
42543TIP3   OH228510   5.105   3.334   7.615 -0.5307 -0.0097  0.0717
42543TIP3    H128511   5.118   3.402   7.681 -0.8038  0.1237 -0.0096
42543TIP3    H228512   5.162   3.262   7.643  0.8931  0.7980 -0.6335
42544TIP3   OH228513   6.788   8.261   1.594 -0.4311 -0.5006 -0.4033
42544TIP3    H128514   6.837   8.337   1.565 -0.1971 -1.6983 -3.5137
42544TIP3    H228515   6.853   8.205   1.635 -0.2065  0.0683  0.0277
42545TIP3   OH228516   4.374   7.196   3.050  0.5402 -0.3981  0.1055
42545TIP3    H128517   4.348   7.108   3.079 -0.1801 -0.4611 -0.6803
42545TIP3    H228518   4.343   7.254   3.120 -2.1174 -0.4435 -0.9177
42546TIP3   OH228519   7.092   8.305   9.021  0.0109 -0.4610  0.1708
42546TIP3    H128520   7.152   8.249   8.972  0.1172 -0.4445  0.2832
42546TIP3    H228521   7.010   8.301   8.971 -0.0994 -1.0284  0.3835
42547TIP3   OH228522   5.879   9.752  10.050 -0.2285 -0.0588 -0.1659
42547TIP3    H128523   5.803   9.786  10.004 -1.0289 -1.6719 -0.1059
42547TIP3    H228524   5.947   9.818  10.035 -1.4722  1.1968 -0.6155
42548TIP3   OH228525   3.484   7.316   7.519  0.0810 -0.6435  0.2070
42548TIP3    H128526   3.456   7.343   7.606 -0.7668 -2.2100  0.4598
42548TIP3    H228527   3.468   7.392   7.463  0.7043  0.4028  1.4065
42549TIP3   OH228528   9.789   9.054   5.991  0.0552 -0.3889 -0.5151
42549TIP3    H128529   9.764   9.070   6.082 -1.0820  1.2969 -1.0734
42549TIP3    H228530   9.755   9.129   5.944  2.0653 -0.4094 -2.1090
42550TIP3   OH228531   8.348   7.796   1.833 -0.6276  0.1185 -0.6557
42550TIP3    H128532   8.420   7.840   1.878  1.2196  1.1845 -4.2795
42550TIP3    H228533   8.361   7.703   1.852  0.3691  0.4695  0.5046
42551TIP3   OH228534   8.838   3.122   2.847  0.1280  0.5056 -0.1048
42551TIP3    H128535   8.874   3.125   2.758 -1.3820 -0.1065 -0.7703
42551TIP3    H228536   8.911   3.091   2.901  0.4302 -1.4313 -1.5103
42552TIP3   OH228537  10.266   0.636   0.622 -0.9837  0.2848  0.4798
42552TIP3    H128538  10.275   0.648   0.717 -1.5483  1.0082  0.4492
42552TIP3    H228539  10.221   0.552   0.612 -1.8741  0.6973  0.8942
42553TIP3   OH228540   3.417   7.348   5.321  0.0386 -0.4981 -0.6244
42553TIP3    H128541   3.510   7.326   5.330  0.5725  1.4278 -0.9737
42553TIP3    H228542   3.416   7.432   5.275 -1.9161 -0.7632 -1.1765
42554TIP3   OH228543   9.801   1.350   9.674 -0.5259  0.4205  0.1223
42554TIP3    H128544   9.875   1.369   9.732 -0.1565  3.9238 -1.2628
42554TIP3    H228545   9.734   1.312   9.731  1.1390  0.2963  2.0692
42555TIP3   OH228546   4.770   7.758   0.407  0.0842 -0.1364 -0.2931
42555TIP3    H128547   4.718   7.839   0.405  1.1405  0.5448 -1.9483
42555TIP3    H228548   4.850   7.782   0.452 -0.9854 -1.2321  2.4082
42556TIP3   OH228549   6.515   0.509   5.853  0.6286  0.1893 -0.4179
42556TIP3    H128550   6.493   0.515   5.760  1.1854 -0.0699 -0.5724
42556TIP3    H228551   6.516   0.415   5.871 -0.6636  0.2629  0.1511
42557TIP3   OH228552  10.879   7.916   5.462  0.4430  0.6619  0.0869
42557TIP3    H128553  10.847   7.908   5.552  1.0879  0.0063  0.2658
42557TIP3    H228554  10.813   7.970   5.418 -0.2990  0.3129  0.7409
42558TIP3   OH228555  10.733  10.318   0.949  0.2404  0.4732 -0.8001
42558TIP3    H128556  10.780  10.322   1.032 -0.7548  1.6098 -0.2533
42558TIP3    H228557  10.754  10.401   0.906 -0.0726  0.3427 -1.2108
42559TIP3   OH228558   0.719   0.180   6.592 -0.8881 -0.1291 -0.3356
42559TIP3    H128559   0.742   0.120   6.521  3.2998  1.5769 -0.7345
42559TIP3    H228560   0.790   0.172   6.655  0.0112  4.3041 -0.4638
42560TIP3   OH228561   5.394   2.800   5.826  0.5283  0.0221  0.3379
42560TIP3    H128562   5.364   2.828   5.740  1.0629  0.3810  0.2715
42560TIP3    H228563   5.314   2.768   5.869 -0.0694  1.4952  0.3675
42561TIP3   OH228564   8.016   7.620   5.203  0.3410 -0.1032  0.8407
42561TIP3    H128565   7.927   7.654   5.195  0.8046  1.1740  0.8713
42561TIP3    H228566   8.064   7.689   5.249  1.2310 -0.9926  1.2915
42562TIP3   OH228567   3.886   1.698   1.666  0.1811  0.6848  0.7738
42562TIP3    H128568   3.817   1.647   1.710  0.6429  1.2448  2.2186
42562TIP3    H228569   3.967   1.658   1.698  0.5495  0.2274 -0.6776
42563TIP3   OH228570   5.448   5.221   8.505 -0.8606  0.1043 -0.0262
42563TIP3    H128571   5.497   5.295   8.539 -1.2228 -0.5104  1.9486
42563TIP3    H228572   5.427   5.168   8.582 -1.9771 -1.2285 -1.1831
42564TIP3   OH228573   2.570   2.824  10.603  0.0211  0.6374  0.2051
42564TIP3    H128574   2.556   2.753  10.540  0.4976 -0.3389  1.1675
42564TIP3    H228575   2.527   2.900  10.563 -0.2064 -0.0959 -1.0103
42565TIP3   OH228576   6.662   7.499   4.839  0.9595 -0.4092  0.3957
42565TIP3    H128577   6.704   7.465   4.918 -2.0967 -0.3973  2.1888
42565TIP3    H228578   6.632   7.586   4.863  2.0398  0.6188 -1.6641
42566TIP3   OH228579   7.283   7.119   5.499  0.0829 -0.1573 -0.2001
42566TIP3    H128580   7.281   7.023   5.498 -0.3211 -0.1637 -1.6952
42566TIP3    H228581   7.369   7.141   5.535  0.3186 -1.0875 -0.1704
42567TIP3   OH228582   7.917   7.119   3.679 -0.2366  0.2309 -0.1700
42567TIP3    H128583   7.987   7.180   3.701  0.2752 -0.9379  1.7041
42567TIP3    H228584   7.961   7.046   3.635 -0.4268 -0.0206  0.0536
42568TIP3   OH228585   0.956   2.846   6.824  0.2103 -0.2738 -0.0470
42568TIP3    H128586   1.042   2.807   6.809  0.6184  0.4050  0.4745
42568TIP3    H228587   0.896   2.772   6.826  0.8962 -0.8282  0.4403
42569TIP3   OH228588   0.828   3.132   1.662  0.9926 -0.1273  0.1263
42569TIP3    H128589   0.851   3.039   1.660 -0.9703 -0.7211  1.8407
42569TIP3    H228590   0.762   3.139   1.731  0.5060  2.4138 -0.5016
42570TIP3   OH228591   6.371   7.525   7.500 -0.0216  0.2668 -0.5552
42570TIP3    H128592   6.321   7.544   7.580 -0.1146 -0.3628 -0.4608
42570TIP3    H228593   6.462   7.542   7.524  0.3272 -2.6431  0.6015
42571TIP3   OH228594   0.458   2.294   3.388  0.1799  0.0382  0.4395
42571TIP3    H128595   0.516   2.369   3.406 -0.0777  0.5795 -0.8771
42571TIP3    H228596   0.506   2.242   3.324 -0.5760  0.2186 -0.2746
42572TIP3   OH228597   2.610   5.168   5.934 -0.1186  0.1095  0.0312
42572TIP3    H128598   2.649   5.095   5.982 -0.0391 -0.0662 -0.2968
42572TIP3    H228599   2.654   5.246   5.968 -0.0501 -0.0146  0.2291
42573TIP3   OH228600   5.198   0.675   6.336  0.0884  0.7576 -0.3353
42573TIP3    H128601   5.225   0.692   6.426 -1.4440  0.9838  0.0932
42573TIP3    H228602   5.247   0.739   6.285  0.1401  1.3620  0.4538
42574TIP3   OH228603   8.385   5.423  10.140  0.1818  0.5941 -0.3699
42574TIP3    H128604   8.326   5.499  10.143 -0.2885  0.4046 -2.8768
42574TIP3    H228605   8.362   5.378  10.060  2.3634 -0.6666 -0.3645
42575TIP3   OH228606   4.998   7.103   0.797  0.0280  0.5839 -0.3023
42575TIP3    H128607   5.090   7.106   0.772 -0.1193  3.0752 -0.7934
42575TIP3    H228608   4.996   7.138   0.886 -0.4160  0.2588 -0.1784
42576TIP3   OH228609   2.402   7.855   6.460 -0.4865  0.8237 -0.7615
42576TIP3    H128610   2.342   7.842   6.534  0.0570  3.5312  0.2686
42576TIP3    H228611   2.484   7.817   6.490 -0.4877  1.1810 -0.2844
42577TIP3   OH228612   5.584   2.074   0.706 -0.3868 -0.1442 -0.3288
42577TIP3    H128613   5.499   2.050   0.743 -0.3272 -3.0287 -1.7651
42577TIP3    H228614   5.646   2.056   0.776 -0.7497 -0.4151 -0.0690
42578TIP3   OH228615   1.281  10.007   4.241 -0.3710  0.2524 -0.5742
42578TIP3    H128616   1.205   9.967   4.282  0.6656 -0.6044  0.5647
42578TIP3    H228617   1.344  10.019   4.312  0.7211  0.5530 -1.5588
42579TIP3   OH228618   3.835   0.550   9.065  0.2603 -0.2463  0.6837
42579TIP3    H128619   3.880   0.581   9.143 -0.2212 -0.5206  1.0818
42579TIP3    H228620   3.892   0.574   8.992  0.7991 -0.1467  1.1351
42580TIP3   OH228621   3.921   5.562   8.534  0.0012 -0.0934  0.3294
42580TIP3    H128622   3.908   5.560   8.439 -2.2282  0.0720  0.5776
42580TIP3    H228623   3.891   5.477   8.564  0.9607 -0.2489  0.8860
42581TIP3   OH228624   9.615  10.092   6.876  0.3767  0.1997  0.0153
42581TIP3    H128625   9.568  10.091   6.793 -1.0567  1.4224  0.7453
42581TIP3    H228626   9.631  10.000   6.897 -0.6577 -0.1890 -0.8563
42582TIP3   OH228627   3.179   1.464   4.849 -0.4681 -0.2167  0.5682
42582TIP3    H128628   3.136   1.396   4.797 -0.4357 -0.8899  1.3922
42582TIP3    H228629   3.161   1.439   4.940 -0.5846  0.9670  0.8848
42583TIP3   OH228630   9.020   9.617   1.246  0.4903  0.3239 -0.0585
42583TIP3    H128631   9.024   9.525   1.274  0.9175 -0.0484 -1.2796
42583TIP3    H228632   9.056   9.616   1.157 -0.5720  1.4969 -0.5281
42584TIP3   OH228633   0.012   2.136   6.022 -0.1724  0.2955 -0.5548
42584TIP3    H128634   0.093   2.093   5.995  0.1860  0.0766  0.7690
42584TIP3    H228635   0.040   2.222   6.053 -0.5313  0.4671 -0.7068
42585TIP3   OH228636   8.073   2.798   7.045  0.0204  0.3384 -0.2868
42585TIP3    H128637   8.003   2.816   6.982  0.1220  2.2524  0.0883
42585TIP3    H228638   8.149   2.779   6.991 -0.7721 -2.0876 -0.7077
42586TIP3   OH228639   6.098  10.462   9.954 -0.4441 -0.4142  0.1626
42586TIP3    H128640   6.036  10.531   9.933  0.7371  0.9108  0.8878
42586TIP3    H228641   6.121  10.477  10.046  1.4786 -0.4067 -0.2805
42587TIP3   OH228642   5.205   9.994   1.673 -0.5259  0.0247  0.6599
42587TIP3    H128643   5.190  10.010   1.766  0.7362 -0.1744  0.9183
42587TIP3    H228644   5.275   9.929   1.671 -0.2420  0.3438 -0.4342
42588TIP3   OH228645   0.293   0.561   8.671  0.1512  0.1841 -0.8041
42588TIP3    H128646   0.254   0.592   8.589  0.1419  0.8324 -0.5553
42588TIP3    H228647   0.353   0.630   8.697 -0.6710  0.5087  0.3140
42589TIP3   OH228648   1.605   6.060   4.692  0.1544 -0.4037  0.1942
42589TIP3    H128649   1.533   6.112   4.728  0.6742 -0.2484  1.0388
42589TIP3    H228650   1.665   6.125   4.655  0.1714 -0.4894  0.0704
42590TIP3   OH228651   9.294  10.701   5.182 -0.0823 -0.2835 -0.0280
42590TIP3    H128652   9.297  10.729   5.273 -0.4649  0.7717 -0.3316
42590TIP3    H228653   9.252  10.614   5.186 -3.2531  1.1239  0.5361
42591TIP3   OH228654  10.065   1.627   4.488  0.0049  0.2258 -0.1363
42591TIP3    H128655  10.020   1.596   4.567  1.8582 -2.9603 -0.1448
42591TIP3    H228656  10.157   1.607   4.504  0.4547 -0.4837 -3.0564
42592TIP3   OH228657   5.105   9.554   1.611 -0.8218 -0.2560  0.0474
42592TIP3    H128658   5.195   9.536   1.639  0.1808  2.3137 -1.2465
42592TIP3    H228659   5.086   9.485   1.548  0.4945 -0.4761 -0.1395
42593TIP3   OH228660   4.073   9.813   1.217  0.2079 -0.2523 -0.1405
42593TIP3    H128661   4.142   9.836   1.280 -1.9020  1.5225  1.6990
42593TIP3    H228662   4.106   9.735   1.173  2.3046 -0.9614  2.4123
42594TIP3   OH228663   7.267   2.820   7.316  0.0326 -0.4195 -0.5785
42594TIP3    H128664   7.332   2.768   7.270 -1.0641 -1.1991 -1.2892
42594TIP3    H228665   7.257   2.899   7.263  0.8865  0.0397 -0.0876
42595TIP3   OH228666   2.864   3.387   1.917 -0.2401 -0.0584 -0.1205
42595TIP3    H128667   2.831   3.337   1.992 -0.3606  0.4412  0.1654
42595TIP3    H228668   2.825   3.346   1.841  1.5118 -1.9110 -0.1065
42596TIP3   OH228669  10.632   7.572   7.475  0.1928  0.5037  0.3712
42596TIP3    H128670  10.690   7.574   7.550  1.3175 -1.1314 -0.4043
42596TIP3    H228671  10.684   7.608   7.403  0.9149 -2.4273 -0.6960
42597TIP3   OH228672   6.057   5.134   2.947 -0.5024  0.0312 -0.0991
42597TIP3    H128673   6.059   5.046   2.986 -1.2523 -0.4702 -1.1540
42597TIP3    H228674   6.145   5.169   2.964 -0.7957 -0.1450  2.0139
42598TIP3   OH228675   2.373   0.141   9.700  0.4297  0.5394  0.6789
42598TIP3    H128676   2.298   0.108   9.651  0.9318  1.1415 -0.5093
42598TIP3    H228677   2.345   0.137   9.792 -0.7442 -0.0037  0.3116
42599TIP3   OH228678   5.231   4.816   9.846  0.3926  0.2289  0.0979
42599TIP3    H128679   5.199   4.907   9.843  1.8470  0.7565 -0.4733
42599TIP3    H228680   5.166   4.766   9.797 -0.9259  0.7891  1.2283
42600TIP3   OH228681   9.557   7.098   2.769 -0.6798  0.2403  0.0401
42600TIP3    H128682   9.462   7.111   2.759 -0.5795 -0.2197 -2.1506
42600TIP3    H228683   9.595   7.145   2.695  0.8547  0.5931  1.0033
42601TIP3   OH228684   2.707   3.319   5.207 -0.5354  0.5565 -0.5425
42601TIP3    H128685   2.615   3.322   5.180 -1.0568  1.6003  1.2112
42601TIP3    H228686   2.731   3.411   5.218  0.3191  0.2426  0.3038
42602TIP3   OH228687   4.589   6.597   6.470  0.2526  0.3406 -0.0247
42602TIP3    H128688   4.495   6.588   6.455  0.2640  0.4784 -0.1810
42602TIP3    H228689   4.608   6.537   6.543  0.0592  0.2536 -0.0462
42603TIP3   OH228690   9.874  10.675   1.925  0.1118  0.2235  0.5365
42603TIP3    H128691   9.959  10.662   1.881 -0.7715  0.6395 -1.3991
42603TIP3    H228692   9.813  10.621   1.874 -1.6394  3.4554 -1.0579
42604TIP3   OH228693   2.086   7.593   1.189  0.1685 -0.1780  0.3068
42604TIP3    H128694   1.997   7.559   1.187  0.9255 -2.4811 -3.0257
42604TIP3    H228695   2.129   7.541   1.257 -0.6236 -0.1894  0.8124
42605TIP3   OH228696   3.613   4.623  10.815 -0.9354  0.0686 -0.1661
42605TIP3    H128697   3.617   4.713  10.784  0.3279  0.2582  0.4781
42605TIP3    H228698   3.555   4.578  10.753  1.3133  0.4432 -2.7005
42606TIP3   OH228699   5.157   5.779   9.432  0.0562 -0.2467 -0.3238
42606TIP3    H128700   5.242   5.737   9.417 -0.0337 -1.1005  1.3479
42606TIP3    H228701   5.106   5.714   9.480 -1.1626  0.6760 -0.3235
42607TIP3   OH228702   4.751   7.747   2.879  0.1581  0.2311 -0.6558
42607TIP3    H128703   4.745   7.791   2.795 -1.3661  1.1639 -0.1125
42607TIP3    H228704   4.697   7.668   2.869  3.5829 -2.1922 -1.9100
42608TIP3   OH228705  10.005   5.993   0.627 -0.4980 -0.2513  0.8895
42608TIP3    H128706   9.967   5.969   0.542 -0.8383 -0.6150  1.1425
42608TIP3    H228707   9.936   6.042   0.671 -0.9365 -1.5076  1.6300
42609TIP3   OH228708   0.486   4.979   6.950  0.1907  0.2305 -0.1602
42609TIP3    H128709   0.526   4.893   6.938 -0.9520 -0.2914 -0.3588
42609TIP3    H228710   0.502   5.025   6.867  0.9098  0.2662 -0.0072
42610TIP3   OH228711   7.341   1.286   7.948 -0.0778  0.3361  0.2742
42610TIP3    H128712   7.389   1.273   8.030  1.1880  0.2965 -0.4396
42610TIP3    H228713   7.367   1.212   7.893 -0.5620  0.6006 -0.3252
42611TIP3   OH228714   1.257   9.337   6.915 -0.2284 -0.1293  0.4306
42611TIP3    H128715   1.275   9.395   6.989  0.6147  1.0225 -0.6148
42611TIP3    H228716   1.187   9.382   6.866 -0.6148 -0.7532  0.4059
42612TIP3   OH228717   8.847   5.843   6.641 -0.6353  0.3185  0.7066
42612TIP3    H128718   8.865   5.937   6.648 -0.4157  0.3096  0.2833
42612TIP3    H228719   8.902   5.803   6.708  0.6327  0.3318 -0.2801
42613TIP3   OH228720   4.517   9.288   8.529 -1.1873 -0.0715  0.7136
42613TIP3    H128721   4.438   9.326   8.566 -1.5289  1.0180 -1.0242
42613TIP3    H228722   4.538   9.344   8.455  0.8700 -0.7113  0.7533
42614TIP3   OH228723   9.012   5.583   2.079  0.1303  0.0491  0.3257
42614TIP3    H128724   9.079   5.534   2.031  0.2891  0.2399  0.3529
42614TIP3    H228725   9.049   5.593   2.167 -0.3969 -0.7835  0.6528
42615TIP3   OH228726   7.481   3.457  10.302  0.1215 -0.1412 -0.3156
42615TIP3    H128727   7.478   3.539  10.351 -0.2794 -0.5499  0.3513
42615TIP3    H228728   7.462   3.483  10.211  3.0424  0.9590 -0.7443
42616TIP3   OH228729  10.141   3.831   3.473 -0.0766 -0.2367 -0.1425
42616TIP3    H128730  10.067   3.831   3.412  0.7582 -0.9177 -1.1923
42616TIP3    H228731  10.140   3.743   3.512 -0.4190  0.0930  0.6072
42617TIP3   OH228732   8.969   4.340   9.690 -0.0288 -0.2497 -0.3657
42617TIP3    H128733   8.963   4.306   9.600  1.2743 -1.6633  0.0552
42617TIP3    H228734   9.049   4.303   9.725 -0.3225  0.5855  1.2881
42618TIP3   OH228735   3.197   1.838   2.187 -0.0686  0.4571  0.1520
42618TIP3    H128736   3.180   1.909   2.250 -1.2770  0.1103  0.2418
42618TIP3    H228737   3.153   1.867   2.106 -2.7536 -1.2358  0.8800
42619TIP3   OH228738   9.998  10.620  10.652 -0.4596  0.5933 -0.2561
42619TIP3    H128739   9.981  10.571  10.572 -0.5041  1.9076 -1.0878
42619TIP3    H228740  10.022  10.708  10.622 -0.7170  1.1898  1.1722
42620TIP3   OH228741   1.533   5.165   8.948  0.2712 -0.7953  0.8781
42620TIP3    H128742   1.619   5.167   8.992  0.3096  0.6760  0.7897
42620TIP3    H228743   1.532   5.081   8.902  2.6885  0.0877 -1.0672
42621TIP3   OH228744   3.353   0.874   2.944 -0.1253  0.4535  0.0606
42621TIP3    H128745   3.370   0.924   3.023 -0.0252  1.8449 -0.8157
42621TIP3    H228746   3.317   0.937   2.882 -1.2485 -0.8312 -0.6612
42622TIP3   OH228747   4.102   9.171   0.470 -0.1236 -0.5572 -0.8329
42622TIP3    H128748   4.076   9.145   0.382 -0.6090  0.5047 -1.0232
42622TIP3    H228749   4.161   9.246   0.457 -2.4647  1.5323 -0.2488
42623TIP3   OH228750   8.424   8.391   6.287  0.0200  0.3174  0.1338
42623TIP3    H128751   8.441   8.367   6.196  0.9156  0.2870  0.2982
42623TIP3    H228752   8.461   8.479   6.296  0.2114  0.1996  0.5413
42624TIP3   OH228753   3.804   9.015   4.871 -0.1865  0.3183  0.0529
42624TIP3    H128754   3.732   9.059   4.827  0.6267  0.8556 -0.7696
42624TIP3    H228755   3.842   9.082   4.928 -0.0267  0.1831  0.1075
42625TIP3   OH228756   6.382   3.484   3.096 -0.2651  0.3349 -0.6949
42625TIP3    H128757   6.394   3.448   3.008  0.5235 -0.1545 -0.3971
42625TIP3    H228758   6.396   3.578   3.085  0.4333  0.2026 -0.9972
42626TIP3   OH228759   0.468   8.268   6.888 -0.1304 -0.0225  1.0542
42626TIP3    H128760   0.373   8.281   6.886 -0.3605 -1.4598 -0.8907
42626TIP3    H228761   0.479   8.175   6.909  0.7450 -0.2423 -0.2343
42627TIP3   OH228762   8.236   6.646   2.421  0.3149  0.0593 -0.1978
42627TIP3    H128763   8.292   6.574   2.448 -2.1485 -1.1548  2.1732
42627TIP3    H228764   8.160   6.604   2.380 -0.3104  1.4092 -0.5045
42628TIP3   OH228765   1.414   8.963   0.563  0.0711  0.0941  0.4071
42628TIP3    H128766   1.496   8.919   0.541  0.5777  0.5150  1.4087
42628TIP3    H228767   1.402   9.028   0.494 -0.4567 -1.2557 -0.8447
42629TIP3   OH228768   9.229  10.901   7.800  0.1327  0.1157 -0.7066
42629TIP3    H128769   9.311  10.935   7.836 -1.4944  0.9715  2.6927
42629TIP3    H228770   9.185  10.979   7.765 -1.4518  0.8508  2.5410
42630TIP3   OH228771   5.666  10.448   4.411 -0.7287  0.7429 -0.1533
42630TIP3    H128772   5.760  10.433   4.422 -0.5700 -1.2489 -3.1384
42630TIP3    H228773   5.625  10.368   4.444 -1.5181  1.8551  1.7304
42631TIP3   OH228774   8.496   8.903   8.617 -0.0603  0.4184 -0.5996
42631TIP3    H128775   8.478   8.997   8.609  2.7243  1.3309  1.8897
42631TIP3    H228776   8.588   8.899   8.646  0.0917 -3.1246 -1.1824
42632TIP3   OH228777   2.300  10.866   6.676  0.8148 -0.0890 -0.2201
42632TIP3    H128778   2.347  10.785   6.693 -1.1629 -1.0399  1.0518
42632TIP3    H228779   2.323  10.923   6.750  1.3341  0.1088 -0.5301
42633TIP3   OH228780   8.319   9.290   4.594 -0.0209  0.1582 -0.3065
42633TIP3    H128781   8.408   9.262   4.619 -0.0590  2.4494  3.0249
42633TIP3    H228782   8.263   9.217   4.621  0.5453  0.2069  1.0765
42634TIP3   OH228783   5.272   5.759   6.988 -0.1174  0.4997 -0.0459
42634TIP3    H128784   5.256   5.761   6.894  0.1648  3.0657 -0.1115
42634TIP3    H228785   5.185   5.754   7.028 -0.7310  4.5828 -0.4871
42635TIP3   OH228786   8.358   7.395   3.530 -0.1978  0.1509  0.4428
42635TIP3    H128787   8.391   7.485   3.532  0.2524  0.0050  2.6547
42635TIP3    H228788   8.348   7.374   3.437 -0.5545  2.5525 -0.1127
42636TIP3   OH228789  10.265   4.487   6.101  0.6719  0.2299  0.9355
42636TIP3    H128790  10.306   4.455   6.181  0.2047 -0.3455  0.9575
42636TIP3    H228791  10.280   4.581   6.101  0.9049  0.1942  1.5625
42637TIP3   OH228792   0.217   1.626   4.213 -0.0629 -0.6182 -0.1329
42637TIP3    H128793   0.134   1.663   4.241 -0.0403 -1.1181  0.6380
42637TIP3    H228794   0.224   1.543   4.260  2.3806  0.8912  2.5040
42638TIP3   OH228795   4.308   8.863   7.201  0.5281  0.0575 -0.1889
42638TIP3    H128796   4.272   8.802   7.137 -2.2094  1.7550 -0.4050
42638TIP3    H228797   4.341   8.936   7.149  0.5269  0.3442  0.2044
42639TIP3   OH228798   8.198   0.296   5.273  0.3273  0.1430 -0.3844
42639TIP3    H128799   8.262   0.344   5.221  0.4847 -0.2946 -0.6013
42639TIP3    H228800   8.216   0.204   5.253  0.4286 -0.0326  0.4857
42640TIP3   OH228801   5.218   8.601   0.179 -0.1119 -1.0555  0.2250
42640TIP3    H128802   5.136   8.597   0.130  0.9932 -1.0951 -1.7137
42640TIP3    H228803   5.262   8.518   0.160 -0.2952 -1.7864  2.5951
42641TIP3   OH228804   2.467   8.358   2.526 -0.0869  0.6737 -0.3548
42641TIP3    H128805   2.535   8.290   2.535 -2.2921 -1.4829  1.2831
42641TIP3    H228806   2.478   8.413   2.604  0.3133  0.9007 -0.5645
42642TIP3   OH228807   7.859   1.028   8.437 -0.3065 -0.1423  0.6797
42642TIP3    H128808   7.890   1.019   8.527 -2.4780  1.0017  1.6187
42642TIP3    H228809   7.766   1.007   8.442 -0.6470  0.7786 -1.1439
42643TIP3   OH228810   8.627   0.693   4.521  0.6128  0.4761  0.1101
42643TIP3    H128811   8.715   0.730   4.519  0.1307  1.7338  0.6742
42643TIP3    H228812   8.636   0.606   4.483  2.1399  0.4902  0.3894
42644TIP3   OH228813   0.242   1.818   1.541  0.1569  0.2892  0.1541
42644TIP3    H128814   0.242   1.913   1.525 -1.4828  0.0892 -1.4163
42644TIP3    H228815   0.155   1.790   1.513  1.0886 -1.8836 -0.7666
42645TIP3   OH228816  10.520  10.039   1.017 -0.0448 -0.6154 -0.0468
42645TIP3    H128817  10.579   9.965   1.003 -1.1459 -1.3696 -0.8711
42645TIP3    H228818  10.514  10.081   0.932 -2.2151 -1.7503 -0.5357
42646TIP3   OH228819   5.119   3.475   4.293  0.9470 -0.4833  0.1973
42646TIP3    H128820   5.153   3.563   4.309 -1.3208  0.9607 -2.1465
42646TIP3    H228821   5.191   3.430   4.248  1.2633  1.1090 -1.0072
42647TIP3   OH228822   3.129   3.163   0.763 -0.0643 -0.5490  0.1235
42647TIP3    H128823   3.169   3.219   0.696 -0.5593 -1.0523 -0.6033
42647TIP3    H228824   3.036   3.186   0.762 -0.2462 -1.2845 -0.0791
42648TIP3   OH228825   7.984   1.322   3.604 -0.2993  0.2825  0.5134
42648TIP3    H128826   7.938   1.384   3.661 -0.9652  0.0393  0.2461
42648TIP3    H228827   8.021   1.257   3.664  0.4135  0.9419  0.7945
42649TIP3   OH228828  10.215   7.670   5.717 -0.9027  0.0683  0.2586
42649TIP3    H128829  10.264   7.686   5.637 -0.9421 -0.1515  0.1927
42649TIP3    H228830  10.272   7.704   5.787 -1.2312  1.0535  0.0714
42650TIP3   OH228831   2.197   2.559   8.194 -0.0369  0.8411 -0.0066
42650TIP3    H128832   2.274   2.616   8.204  0.7579 -0.1991  0.0363
42650TIP3    H228833   2.130   2.599   8.249  0.3170  2.0170 -0.3852
42651TIP3   OH228834   0.851  10.068   3.331  0.3870 -0.8582  0.0548
42651TIP3    H128835   0.866  10.024   3.247  2.0922 -0.0329 -0.1171
42651TIP3    H228836   0.771  10.028   3.364  0.5993 -2.4285 -1.1639
42652TIP3   OH228837   0.882   5.644   4.133  0.3688  0.1697 -0.2904
42652TIP3    H128838   0.931   5.645   4.216  1.6284  0.4325 -1.0127
42652TIP3    H228839   0.900   5.558   4.096  1.0118  0.5793 -0.9639
42653TIP3   OH228840   4.965   0.568   6.941  0.3086 -0.3694 -0.2494
42653TIP3    H128841   4.884   0.606   6.906 -1.1466 -1.4451  1.7853
42653TIP3    H228842   5.018   0.645   6.964 -0.8889  0.3847  0.0881
42654TIP3   OH228843   3.690   3.447   0.132  0.1693 -0.7771  0.4207
42654TIP3    H128844   3.707   3.540   0.122  0.0462 -0.4131  2.8279
42654TIP3    H228845   3.617   3.429   0.073 -0.4835  0.8988  0.6497
42655TIP3   OH228846   9.824   9.143   9.913  1.1247  0.0842 -0.0875
42655TIP3    H128847   9.877   9.221   9.905 -1.0409  1.5934 -0.7236
42655TIP3    H228848   9.886   9.073   9.932  3.9233  0.8066 -5.0213
42656TIP3   OH228849   3.392  10.305   2.404 -0.0261  0.1226 -0.2811
42656TIP3    H128850   3.454  10.259   2.348  0.2318  0.9856 -0.7127
42656TIP3    H228851   3.391  10.395   2.372 -1.8816  0.0278 -0.6099
42657TIP3   OH228852   7.522   3.327   2.471 -0.1618 -0.2238 -0.1432
42657TIP3    H128853   7.570   3.359   2.547  0.8024  0.9182 -1.1810
42657TIP3    H228854   7.556   3.379   2.398 -0.2181 -2.0712 -1.5537
42658TIP3   OH228855   1.938   0.304   0.305 -0.1146 -0.8016 -0.2329
42658TIP3    H128856   1.874   0.326   0.237  0.4093 -0.1407 -0.5281
42658TIP3    H228857   1.968   0.388   0.338  1.1143 -1.0641 -0.5962
42659TIP3   OH228858   2.427   8.188  10.347 -0.3380 -0.0165 -0.0566
42659TIP3    H128859   2.521   8.207  10.344  0.1631 -1.9414  1.1857
42659TIP3    H228860   2.419   8.104  10.302 -1.4021 -0.0911  0.2535
42660TIP3   OH228861   1.758   9.744   3.044 -0.1388  0.6452 -0.2131
42660TIP3    H128862   1.676   9.716   3.085  0.0752 -0.0802 -0.2645
42660TIP3    H228863   1.746   9.838   3.028 -0.3581  0.8833  1.1985
42661TIP3   OH228864   0.089   1.297   8.478  0.6834  0.5192 -0.2106
42661TIP3    H128865   0.161   1.255   8.432  0.5734 -1.0338  0.9494
42661TIP3    H228866   0.019   1.304   8.413  0.8523 -0.7569 -0.5475
42662TIP3   OH228867  10.630   8.064   0.165  0.1831  0.3593  0.2202
42662TIP3    H128868  10.559   8.115   0.125  0.5986 -0.5318 -1.8187
42662TIP3    H228869  10.676   8.026   0.090 -0.2887 -3.2500  1.5848
42663TIP3   OH228870  10.469   5.468   5.022 -0.9191 -0.1697  0.1319
42663TIP3    H128871  10.455   5.513   5.105 -0.3046 -0.8967  0.6451
42663TIP3    H228872  10.383   5.466   4.981 -1.3522 -0.3528  1.0368
42664TIP3   OH228873   4.345   5.103   9.705 -0.2321  0.1037  0.0542
42664TIP3    H128874   4.385   5.071   9.786 -0.7279 -0.9801 -0.1179
42664TIP3    H228875   4.418   5.114   9.645  0.0270 -0.0302  0.3404
42665TIP3   OH228876   3.241   9.576   8.062  0.1639 -0.1807  0.2510
42665TIP3    H128877   3.324   9.543   8.028 -0.7136 -1.3661 -0.8634
42665TIP3    H228878   3.266   9.646   8.123  1.9738 -0.7518  0.2347
42666TIP3   OH228879   8.549   4.064   9.327 -0.7626 -0.3497 -0.1982
42666TIP3    H128880   8.459   4.095   9.330 -1.0956 -1.1325 -1.3623
42666TIP3    H228881   8.550   3.985   9.380 -1.3860 -1.7163 -2.0925
42667TIP3   OH228882   2.407   8.649   1.770 -0.3245 -0.2987 -0.3185
42667TIP3    H128883   2.432   8.736   1.739  0.7283 -1.1754 -2.0825
42667TIP3    H228884   2.378   8.663   1.860  3.1552  1.3781  0.6961
42668TIP3   OH228885   0.593   1.554   7.378 -0.0368  0.4971 -0.6181
42668TIP3    H128886   0.572   1.647   7.384  2.4210  1.1436 -0.9500
42668TIP3    H228887   0.592   1.535   7.285 -1.5032 -0.0958 -0.5046
42669TIP3   OH228888   4.283   1.524   1.901 -0.1716 -1.0039 -0.0020
42669TIP3    H128889   4.283   1.434   1.933 -1.1288 -1.3783 -0.9817
42669TIP3    H228890   4.200   1.561   1.934 -0.2571 -0.8009 -0.4446
42670TIP3   OH228891   3.061   6.774   1.778 -0.0427 -0.1915 -0.3037
42670TIP3    H128892   2.984   6.830   1.773 -1.9618 -2.3841  2.2390
42670TIP3    H228893   3.098   6.791   1.864  0.7751 -1.0680 -0.4632
42671TIP3   OH228894   4.193   3.683   5.442 -0.1380  0.0302 -0.0115
42671TIP3    H128895   4.104   3.706   5.470 -0.3567 -0.2639 -0.4516
42671TIP3    H228896   4.250   3.718   5.510 -0.5678  0.5498  0.0848
42672TIP3   OH228897   2.193   8.955   8.652 -0.1744 -0.4066 -0.3052
42672TIP3    H128898   2.281   8.919   8.647  1.6617  3.1512  1.8411
42672TIP3    H228899   2.171   8.979   8.562  1.7198 -0.0801 -0.7135
42673TIP3   OH228900   2.462   4.357   4.482  0.0576  0.3370 -0.8476
42673TIP3    H128901   2.482   4.449   4.464  0.8793  0.1827 -0.7306
42673TIP3    H228902   2.464   4.315   4.397  1.5346  0.0751 -0.6990
42674TIP3   OH228903   5.195   0.458   5.458  0.3363 -0.2714 -0.5434
42674TIP3    H128904   5.204   0.521   5.387  4.1352 -0.5389 -0.5151
42674TIP3    H228905   5.177   0.511   5.536  1.1220  0.5345 -0.9004
42675TIP3   OH228906   2.075   4.092   3.128 -0.6119 -0.3621 -0.0583
42675TIP3    H128907   2.154   4.113   3.077  0.1491  1.0056  1.5988
42675TIP3    H228908   2.012   4.061   3.062  0.8701 -0.2551 -1.5970
42676TIP3   OH228909  10.339   0.197   3.185 -0.3760  0.1918  0.2721
42676TIP3    H128910  10.355   0.289   3.207 -1.2112  0.0572  1.5331
42676TIP3    H228911  10.301   0.200   3.097 -0.6461  1.0799  0.4083
42677TIP3   OH228912   2.557   6.431  10.155  0.6121  0.7708  0.5910
42677TIP3    H128913   2.480   6.386  10.120  1.5492 -0.3559 -0.0636
42677TIP3    H228914   2.578   6.497  10.088  0.4588  0.8153  0.5862
42678TIP3   OH228915   7.973   4.603  10.125  0.3344 -0.4875 -0.0556
42678TIP3    H128916   8.038   4.653  10.175  0.8369  0.6857 -1.7725
42678TIP3    H228917   8.021   4.527  10.093  0.4838 -0.3301 -0.2053
42679TIP3   OH228918   5.772   1.120   3.577  0.1681 -0.6449 -0.0512
42679TIP3    H128919   5.744   1.129   3.669  0.9137 -1.5114  0.2766
42679TIP3    H228920   5.809   1.032   3.572  2.3031  0.2389 -0.5959
42680TIP3   OH228921   0.638   7.061   9.154 -0.1555 -0.0520 -0.2684
42680TIP3    H128922   0.727   7.032   9.138  0.0090 -1.2397  2.3888
42680TIP3    H228923   0.644   7.119   9.230 -1.5500  0.6036 -0.6123
42681TIP3   OH228924   0.834   3.922   8.213 -0.1709  0.6475 -0.6510
42681TIP3    H128925   0.832   3.980   8.137  0.1747  1.5840  0.0409
42681TIP3    H228926   0.877   3.843   8.181 -0.1561  0.9675 -1.4630
42682TIP3   OH228927   4.401   4.500   0.855 -0.6910  0.4073  0.1555
42682TIP3    H128928   4.489   4.474   0.881  0.2975  1.9546 -1.4431
42682TIP3    H228929   4.370   4.556   0.927 -0.7867 -0.9140  1.1690
42683TIP3   OH228930   8.173   9.830   1.579  0.0696  0.0146  0.4904
42683TIP3    H128931   8.124   9.909   1.604 -0.2295  0.7674 -2.1525
42683TIP3    H228932   8.182   9.837   1.484  1.8584 -2.1328  0.4296
42684TIP3   OH228933   7.415   3.343   5.122 -0.0776  0.3331 -0.5372
42684TIP3    H128934   7.368   3.422   5.150 -1.3302 -0.0575 -1.4656
42684TIP3    H228935   7.346   3.277   5.112  1.0752 -1.2392  1.3572
42685TIP3   OH228936   4.819  10.168   3.647 -0.1763  0.0684 -0.0257
42685TIP3    H128937   4.733  10.148   3.684  0.0916 -2.2440 -0.5067
42685TIP3    H228938   4.800  10.209   3.563 -0.8103 -0.2735 -0.0563
42686TIP3   OH228939   7.048   6.017   6.726 -0.5026 -0.4132  0.4383
42686TIP3    H128940   7.030   6.089   6.787  0.1430 -0.9600  1.2999
42686TIP3    H228941   7.095   6.058   6.653 -0.6411  0.1322  0.6528
42687TIP3   OH228942   5.462   0.998   7.032  0.2431 -0.7589  0.4360
42687TIP3    H128943   5.410   1.024   7.108 -1.5235 -0.8024 -0.6995
42687TIP3    H228944   5.516   1.074   7.012 -1.5578  0.4374 -0.1194
42688TIP3   OH228945   5.230   4.387   8.593  0.0392 -0.2103 -0.3318
42688TIP3    H128946   5.225   4.325   8.666 -0.7363  0.5888  0.3162
42688TIP3    H228947   5.262   4.468   8.634 -0.2432  0.1948 -0.9129
42689TIP3   OH228948   9.288   4.884   3.922 -0.4702 -0.2847 -0.0785
42689TIP3    H128949   9.361   4.923   3.873 -0.7030  0.7082  0.3249
42689TIP3    H228950   9.218   4.875   3.857 -1.3031  2.4411  0.2922
42690TIP3   OH228951   6.535   5.525   7.795  0.0883  0.4362 -0.8277
42690TIP3    H128952   6.545   5.607   7.746  0.0973  0.5673 -0.6039
42690TIP3    H228953   6.441   5.509   7.794 -0.0624  1.1703  0.3139
42691TIP3   OH228954   1.620   1.637   2.831 -0.4011 -0.0856 -0.3526
42691TIP3    H128955   1.651   1.558   2.877 -0.2923 -0.2234 -0.6562
42691TIP3    H228956   1.528   1.618   2.810 -0.1956 -0.4137 -1.0077
42692TIP3   OH228957   3.220   2.768   5.024 -0.0956  0.3526 -0.2875
42692TIP3    H128958   3.260   2.792   4.940 -0.0298  0.6663 -0.1667
42692TIP3    H228959   3.251   2.679   5.040 -1.1299 -0.1928 -1.2145
42693TIP3   OH228960   6.945   0.841   6.209  0.1757 -0.4747  0.4501
42693TIP3    H128961   6.908   0.843   6.297  1.1890 -0.4556  0.8915
42693TIP3    H228962   6.869   0.841   6.151 -0.5644  2.0191  1.2599
42694TIP3   OH228963   0.975   0.590   1.002 -0.3431 -0.2060 -0.1223
42694TIP3    H128964   0.902   0.529   0.998  0.5825 -1.3377 -2.8290
42694TIP3    H228965   1.050   0.536   1.026  0.1617  0.2208 -0.6960
42695TIP3   OH228966   4.530   1.127   7.679 -0.3301 -0.2977  0.2833
42695TIP3    H128967   4.477   1.206   7.670  0.0253  0.4338  3.4164
42695TIP3    H228968   4.514   1.078   7.598 -2.2209  1.9611 -0.8398
42696TIP3   OH228969   0.887   9.991   0.982  0.1183  0.3990 -0.2988
42696TIP3    H128970   0.821  10.019   1.045 -0.4293 -0.3233 -0.5509
42696TIP3    H228971   0.883  10.057   0.913 -1.1464 -0.2511 -0.8726
42697TIP3   OH228972   3.092   0.378   1.227  0.6419  0.4588  0.1608
42697TIP3    H128973   3.122   0.460   1.189 -1.0252  0.7119 -0.6944
42697TIP3    H228974   3.093   0.316   1.155 -0.1465  0.2856  0.2947
42698TIP3   OH228975   6.820   7.858   6.275  0.5395 -0.5720  0.3089
42698TIP3    H128976   6.835   7.797   6.347  0.2990 -2.9018 -1.5133
42698TIP3    H228977   6.900   7.853   6.223 -1.0005 -2.5665 -2.0479
42699TIP3   OH228978   9.209   5.805   9.914  0.1789 -0.0601  0.7387
42699TIP3    H128979   9.231   5.823  10.006  2.1817  2.1411 -0.0643
42699TIP3    H228980   9.287   5.763   9.879  0.0805  0.6323 -0.3451
42700TIP3   OH228981   6.113  10.352   6.999  0.6082  0.9868  0.2398
42700TIP3    H128982   6.053  10.346   6.924  1.0825  1.0029 -0.1472
42700TIP3    H228983   6.159  10.269   7.000  1.8258  1.6157 -0.5488
42701TIP3   OH228984   3.020  10.606   6.697 -0.1305  0.2098 -0.6151
42701TIP3    H128985   3.006  10.564   6.613  1.8966 -0.8033 -0.5205
42701TIP3    H228986   2.933  10.614   6.735 -0.9720 -0.2938 -2.3365
42702TIP3   OH228987   1.581   9.160   7.266  0.3619  0.2733 -0.2223
42702TIP3    H128988   1.623   9.125   7.345  1.4067  1.0095 -0.4262
42702TIP3    H228989   1.491   9.177   7.293  0.2018 -1.1859  0.2839
42703TIP3   OH228990   1.462   1.219   6.664 -0.8744 -0.8071  0.2934
42703TIP3    H128991   1.434   1.223   6.573 -3.9455  0.7206  1.1842
42703TIP3    H228992   1.395   1.167   6.708 -1.2795  1.1556  2.1865
42704TIP3   OH228993   5.019   0.490   8.356 -0.4486  0.0564  0.1771
42704TIP3    H128994   5.056   0.437   8.428  0.3135  0.1531 -0.1310
42704TIP3    H228995   4.935   0.520   8.390 -0.3620 -0.3785  0.8113
42705TIP3   OH228996   8.005   1.634   3.982 -0.1392 -0.8232  0.2568
42705TIP3    H128997   8.089   1.611   4.022 -0.4636 -0.2701  1.2768
42705TIP3    H228998   8.012   1.601   3.892  0.7154 -1.8291  0.6686
42706TIP3   OH228999   2.926   1.986   3.686 -0.0752 -0.5510  0.1456
42706TIP3    H129000   2.842   2.029   3.702  0.0585  0.1905 -1.0407
42706TIP3    H229001   2.920   1.902   3.732 -1.0726 -0.0700  0.9017
42707TIP3   OH229002  10.422   2.454   9.601  0.7355 -0.6544 -0.2645
42707TIP3    H129003  10.505   2.418   9.633  0.1116 -1.6309  0.3266
42707TIP3    H229004  10.365   2.377   9.593  0.2481 -0.1734 -1.8363
42708TIP3   OH229005   7.339   0.902   1.262 -0.2640  0.1290  0.0629
42708TIP3    H129006   7.395   0.936   1.332  0.8850 -2.0569  0.3098
42708TIP3    H229007   7.250   0.924   1.290  0.1510 -0.7428  2.3080
42709TIP3   OH229008  10.710   1.448   2.848  0.1826 -0.6713 -0.0743
42709TIP3    H129009  10.635   1.482   2.896  0.0574 -0.6513 -0.2807
42709TIP3    H229010  10.781   1.447   2.912  0.1317 -0.2262 -0.0061
42710TIP3   OH229011  10.769   1.660   7.495 -0.4298  0.7740  0.3461
42710TIP3    H129012  10.731   1.576   7.469  1.6083  0.4458 -1.8791
42710TIP3    H229013  10.693   1.716   7.513 -1.8435 -1.1523  0.6890
42711TIP3   OH229014   7.480   5.706   7.566  0.2867 -0.0728 -0.1694
42711TIP3    H129015   7.422   5.635   7.539  0.5017 -1.2669  2.2336
42711TIP3    H229016   7.444   5.736   7.649  1.5847  0.9713  0.0459
42712TIP3   OH229017   6.398   3.309   5.001  0.4384 -0.1805  0.5267
42712TIP3    H129018   6.320   3.273   5.043  0.2287 -0.7733 -0.3332
42712TIP3    H229019   6.448   3.233   4.974  0.4358  0.1700 -0.5092
42713TIP3   OH229020   1.171   6.652   5.386 -0.3258  0.4332  0.5308
42713TIP3    H129021   1.157   6.581   5.324  0.6989 -0.9339  1.7892
42713TIP3    H229022   1.214   6.721   5.334 -0.9735 -0.0023 -0.6238
42714TIP3   OH229023   7.483   9.893   2.228  0.3962  0.3719 -0.4831
42714TIP3    H129024   7.534   9.968   2.256 -0.5795  1.7393 -2.1396
42714TIP3    H229025   7.485   9.897   2.132 -1.0018 -0.7823 -0.6013
42715TIP3   OH229026   5.785   8.590   2.237  0.2445 -0.7701 -0.0147
42715TIP3    H129027   5.873   8.611   2.268  0.0023 -0.8208  0.7170
42715TIP3    H229028   5.763   8.507   2.280  0.4880 -1.6403 -1.4967
42716TIP3   OH229029   0.416   1.101   0.159  0.6038 -0.1279  0.2099
42716TIP3    H129030   0.431   1.041   0.086 -1.7276  1.2807 -1.5352
42716TIP3    H229031   0.345   1.061   0.209  0.2900  0.2624  0.0831
42717TIP3   OH229032   0.369   1.512  10.083  0.2130  0.2847 -0.0644
42717TIP3    H129033   0.310   1.439  10.065  1.0078 -0.3677 -0.1082
42717TIP3    H229034   0.452   1.486  10.043 -0.0036  2.0920 -1.8171
42718TIP3   OH229035   4.094   4.068   5.883  0.0466 -0.0396  0.6677
42718TIP3    H129036   4.014   4.120   5.893 -0.0582  0.2973 -1.3311
42718TIP3    H229037   4.151   4.123   5.829 -0.1278 -1.9967 -1.6664
42719TIP3   OH229038   3.274   5.103   9.191  0.4500 -0.5321 -0.5228
42719TIP3    H129039   3.226   5.155   9.255 -0.4341 -0.1836 -1.4459
42719TIP3    H229040   3.261   5.013   9.219  0.9448 -0.3337  0.3737
42720TIP3   OH229041   7.043   3.066   8.664  0.0296  0.1089  0.1588
42720TIP3    H129042   7.069   3.004   8.596 -0.3100  0.9440 -0.7615
42720TIP3    H229043   7.053   3.152   8.623 -2.4846  0.5524  0.2834
42721TIP3   OH229044   4.637   1.784   0.199 -0.4953 -0.3530 -0.4593
42721TIP3    H129045   4.662   1.827   0.118  0.1957  0.4898  0.1817
42721TIP3    H229046   4.543   1.798   0.207 -0.3711  0.5457 -0.5491
42722TIP3   OH229047   2.155   6.925   1.013  0.7120  0.7207  0.6481
42722TIP3    H129048   2.149   7.014   1.046 -1.3356  0.5147  0.9294
42722TIP3    H229049   2.154   6.870   1.092 -1.3278  0.3534  0.4262
42723TIP3   OH229050   6.536   9.515   5.751 -0.3263  0.1481 -0.5678
42723TIP3    H129051   6.504   9.586   5.807 -0.2463 -0.0184 -0.3080
42723TIP3    H229052   6.464   9.453   5.748  0.2116 -0.5743  0.6097
42724TIP3   OH229053   0.413   2.489   1.171  0.3237 -0.3087  0.1332
42724TIP3    H129054   0.323   2.494   1.137 -0.2466 -1.7250  1.3293
42724TIP3    H229055   0.465   2.462   1.095 -0.4147 -0.4224 -0.3512
42725TIP3   OH229056   0.530   9.661   9.305 -0.0391 -0.3325 -0.3464
42725TIP3    H129057   0.485   9.725   9.250  1.7482  1.2302 -0.0943
42725TIP3    H229058   0.464   9.594   9.322 -1.9654  1.3577 -0.7159
42726TIP3   OH229059   0.790   6.334   9.761 -0.3258  0.8071 -0.0056
42726TIP3    H129060   0.804   6.394   9.834 -0.9875  0.7559  0.1658
42726TIP3    H229061   0.769   6.391   9.687  1.0910  0.9155 -0.3676
42727TIP3   OH229062   8.462   0.195   3.252  0.0572  0.0038 -0.0150
42727TIP3    H129063   8.521   0.270   3.240 -1.6874  1.1704 -1.8965
42727TIP3    H229064   8.511   0.121   3.217  1.3098  0.4747  0.6680
42728TIP3   OH229065   9.663   9.695   0.616 -0.0973 -0.5844  0.4394
42728TIP3    H129066   9.747   9.714   0.656 -0.3278  1.7307 -0.0088
42728TIP3    H229067   9.598   9.721   0.681 -0.4934 -2.0323  0.6544
42729TIP3   OH229068   0.821   2.238   2.907 -0.2490  0.5312 -0.1082
42729TIP3    H129069   0.848   2.234   2.815 -0.1553  1.8603 -0.1470
42729TIP3    H229070   0.748   2.300   2.908 -1.2062 -0.5413  0.5101
42730TIP3   OH229071   7.973   2.549   2.587 -0.0614  0.3972 -0.1293
42730TIP3    H129072   7.982   2.509   2.500  3.4863  1.3281 -0.3570
42730TIP3    H229073   7.919   2.627   2.572  1.2757  1.0713 -1.7545
42731TIP3   OH229074   5.972  10.322   5.946 -0.2447  0.5518 -0.5130
42731TIP3    H129075   6.064  10.328   5.969 -0.5550 -1.3885  1.5583
42731TIP3    H229076   5.960  10.388   5.878  2.8002  0.3764 -1.3611
42732TIP3   OH229077   8.065   0.022   8.969  0.0911 -0.0188  0.6101
42732TIP3    H129078   8.049   0.031   8.875 -0.1070  1.0002  0.7260
42732TIP3    H229079   8.071   0.112   9.000 -3.7647 -0.1587  2.2319
42733TIP3   OH229080   4.944   7.427   0.584  0.2383 -0.1494  0.3516
42733TIP3    H129081   5.040   7.422   0.593  0.3490  0.9700  0.0141
42733TIP3    H229082   4.925   7.521   0.589 -0.6470 -0.2020 -1.4037
42734TIP3   OH229083   9.347   4.311   7.890 -0.2578 -0.2339  0.2036
42734TIP3    H129084   9.408   4.286   7.820  0.8208  0.8485  0.7151
42734TIP3    H229085   9.403   4.342   7.961 -1.3944  0.7259  0.7224
42735TIP3   OH229086   8.965   9.009   6.159  0.2305 -0.2378 -0.3096
42735TIP3    H129087   8.877   9.037   6.134 -0.6162 -1.0980  1.4906
42735TIP3    H229088   8.996   8.957   6.085 -1.7259 -1.8189 -0.1012
42736TIP3   OH229089   4.101   1.402   4.251  0.1521  0.3159 -0.3193
42736TIP3    H129090   4.140   1.450   4.178 -1.2421 -0.6530 -1.7848
42736TIP3    H229091   4.008   1.396   4.229 -0.0874 -1.1171  0.9131
42737TIP3   OH229092   2.674  10.608   5.856 -0.4448  0.3206 -0.1751
42737TIP3    H129093   2.746  10.553   5.887  0.5508  1.5683 -0.1643
42737TIP3    H229094   2.662  10.673   5.926 -1.9917 -0.2021  0.0833
42738TIP3   OH229095  10.561   2.697  10.109 -0.3014  0.3858  0.0395
42738TIP3    H129096  10.619   2.621  10.118  1.7748  1.8761 -0.0458
42738TIP3    H229097  10.535   2.695  10.016  0.7123  0.4292 -0.2588
42739TIP3   OH229098   3.312   2.167   3.940 -0.2725 -0.0926 -0.6137
42739TIP3    H129099   3.336   2.117   4.019 -0.1946  0.6067 -0.1920
42739TIP3    H229100   3.263   2.242   3.973  0.3790  0.5935 -1.1744
42740TIP3   OH229101   5.595   4.245   1.846  0.3692 -0.3270  0.3816
42740TIP3    H129102   5.537   4.192   1.792 -1.1506 -0.5181  2.1180
42740TIP3    H229103   5.682   4.232   1.807 -0.5156 -1.1816 -1.4134
42741TIP3   OH229104   8.394   1.261   7.516 -0.2163 -0.3369 -0.0723
42741TIP3    H129105   8.474   1.282   7.565 -1.0939  0.8060  0.9311
42741TIP3    H229106   8.424   1.204   7.445  1.5768  0.5050 -0.0483
42742TIP3   OH229107   8.932   8.240   5.998  0.1438 -0.2606  0.5145
42742TIP3    H129108   9.021   8.229   6.032  0.4621  3.4036  1.2524
42742TIP3    H229109   8.941   8.235   5.903  1.0161 -0.6176  0.6107
42743TIP3   OH229110   8.905   3.917   5.136 -0.0793 -0.3039 -0.3784
42743TIP3    H129111   8.923   3.876   5.051 -0.6136 -0.3746 -0.4638
42743TIP3    H229112   8.906   3.844   5.198  1.1313 -0.1388 -0.1906
42744TIP3   OH229113   5.998   4.207   3.078 -0.0196  0.3708 -0.7705
42744TIP3    H129114   6.042   4.208   2.993  0.1379  1.3250 -0.6967
42744TIP3    H229115   6.069   4.191   3.141 -0.0007  0.4928 -0.7599
42745TIP3   OH229116   4.147   2.539  10.648  0.3286 -0.4477 -0.0053
42745TIP3    H129117   4.096   2.493  10.715 -0.3817  0.9911  0.4974
42745TIP3    H229118   4.193   2.608  10.696 -0.4803  0.8455 -1.0088
42746TIP3   OH229119   2.871   0.610   4.707  0.1096  0.4170 -0.8334
42746TIP3    H129120   2.936   0.668   4.746  0.4743  0.4410 -1.4691
42746TIP3    H229121   2.920   0.533   4.681 -0.6151 -0.9613  1.5082
42747TIP3   OH229122   7.685   9.280   8.670  0.3964 -0.7678 -0.1801
42747TIP3    H129123   7.737   9.331   8.608  0.2114 -1.6478 -1.0929
42747TIP3    H229124   7.724   9.297   8.755 -0.0496  1.3982 -0.3477
42748TIP3   OH229125   9.220   7.392   8.210  0.6802  0.3546  0.0034
42748TIP3    H129126   9.170   7.465   8.246 -0.2133 -1.3920  2.6171
42748TIP3    H229127   9.160   7.349   8.149  0.5594  0.7253 -0.1415
42749TIP3   OH229128   9.862   2.967   5.920  0.3693 -0.0766  0.7581
42749TIP3    H129129   9.899   3.028   5.983  0.6221 -0.7409  1.2616
42749TIP3    H229130   9.803   2.912   5.971 -0.1544 -0.0155  0.2398
42750TIP3   OH229131   9.835   3.882   9.350  0.8003  0.1815  0.2410
42750TIP3    H129132   9.785   3.834   9.284 -0.2409 -2.0167  2.4907
42750TIP3    H229133   9.778   3.956   9.374  0.6148  0.2395 -0.3518
42751TIP3   OH229134   3.439   8.583   0.634  0.1711  0.1770  0.0079
42751TIP3    H129135   3.504   8.637   0.680 -0.9871  1.2646  0.4321
42751TIP3    H229136   3.429   8.505   0.688  1.2176 -0.0778 -0.1424
42752TIP3   OH229137   1.060  10.572   8.745 -0.3466  0.3437  0.1988
42752TIP3    H129138   1.127  10.517   8.704 -0.7829 -1.3053  1.5468
42752TIP3    H229139   1.107  10.651   8.771  0.6339  0.0458 -0.5971
42753TIP3   OH229140   2.987   9.133   8.639  0.8696  0.3135 -0.1183
42753TIP3    H129141   2.953   9.102   8.555  2.4742  0.9974 -1.0526
42753TIP3    H229142   3.016   9.222   8.622  0.7430  0.6588  1.3197
42754TIP3   OH229143   9.236   0.507   6.502  0.5331  0.1997  0.1266
42754TIP3    H129144   9.178   0.451   6.450  0.0271  2.4845 -1.9737
42754TIP3    H229145   9.310   0.525   6.443  0.0805  2.6529  0.1872
42755TIP3   OH229146   2.171   4.239   0.493  0.0650 -0.5575  0.3039
42755TIP3    H129147   2.252   4.198   0.522 -0.5392 -3.1462 -1.3572
42755TIP3    H229148   2.101   4.182   0.527 -0.8907 -0.2271 -1.0224
42756TIP3   OH229149  10.353  10.847   1.547  0.0787 -0.1983 -0.0400
42756TIP3    H129150  10.379  10.890   1.465 -0.1307  1.1600  0.5673
42756TIP3    H229151  10.418  10.877   1.610 -1.2459  0.9009  0.8530
42757TIP3   OH229152   6.617   9.071   9.274  0.0983  0.1315 -0.4995
42757TIP3    H129153   6.524   9.061   9.295 -0.0850  0.8171 -0.9428
42757TIP3    H229154   6.651   8.981   9.270 -0.5728 -0.1302 -0.4610
42758TIP3   OH229155   0.097   4.029   3.537  0.0655 -0.5262 -0.1336
42758TIP3    H129156   0.178   4.074   3.562 -0.3319 -0.1774  0.5393
42758TIP3    H229157   0.107   4.014   3.443 -0.2330  1.8719 -0.6149
42759TIP3   OH229158   3.891   1.706  10.187 -0.0869  0.0859 -0.1242
42759TIP3    H129159   3.909   1.612  10.177  1.7318  0.3510  0.1994
42759TIP3    H229160   3.963   1.748  10.140 -1.9980  1.3718 -2.0663
42760TIP3   OH229161   9.364   3.596  10.115 -0.0267  0.3621 -0.1642
42760TIP3    H129162   9.409   3.540  10.178  1.3536  1.4197 -0.1506
42760TIP3    H229163   9.389   3.685  10.139 -1.6900  0.9750 -0.5449
42761TIP3   OH229164   7.064   0.864   8.343 -0.2910 -0.2175  0.1337
42761TIP3    H129165   7.055   0.780   8.297 -2.1009 -0.4277  0.7659
42761TIP3    H229166   6.978   0.877   8.384  0.6702  0.8783  1.8718
42762TIP3   OH229167  10.604   3.439   0.814 -0.5927 -0.3227  0.1635
42762TIP3    H129168  10.526   3.391   0.784  0.4913 -2.2124  0.2503
42762TIP3    H229169  10.593   3.444   0.909 -2.2299  2.4653 -0.0549
42763TIP3   OH229170   2.060   5.143  10.452  0.2700 -0.2397 -0.1578
42763TIP3    H129171   2.029   5.231  10.472  1.5636  1.0069 -3.0580
42763TIP3    H229172   1.998   5.110  10.386  0.6234 -0.8902 -0.1720
42764TIP3   OH229173   9.971   5.083   4.714  0.0823 -0.0407  0.1479
42764TIP3    H129174   9.942   5.098   4.624  0.0186 -2.5843 -0.3527
42764TIP3    H229175   9.914   5.012   4.746  0.7891  0.0996  1.8247
42765TIP3   OH229176   1.553   2.708   9.083 -0.5948  0.2094  0.4381
42765TIP3    H129177   1.630   2.721   9.139  2.0132 -1.3468 -2.3974
42765TIP3    H229178   1.526   2.618   9.101 -0.3789  0.0454 -0.0307
42766TIP3   OH229179   0.445   9.244   0.795 -0.3784  0.6740  0.3623
42766TIP3    H129180   0.443   9.171   0.856  0.9086 -0.2691 -0.6651
42766TIP3    H229181   0.462   9.205   0.710  1.4793  2.2098 -0.0598
42767TIP3   OH229182   2.623   5.494   2.175  0.0352 -0.1454  0.2971
42767TIP3    H129183   2.594   5.418   2.225  2.2912 -1.0324  0.4137
42767TIP3    H229184   2.584   5.482   2.088  1.3135 -2.1905 -0.0719
42768TIP3   OH229185   7.965   9.753   4.549 -0.3140 -0.0584  0.0064
42768TIP3    H129186   7.913   9.771   4.628  1.7378  2.5194  0.9058
42768TIP3    H229187   8.054   9.738   4.581  0.1533 -1.1889 -1.6958
42769TIP3   OH229188   4.593   4.666   3.895 -0.1488  0.1837  0.3892
42769TIP3    H129189   4.538   4.617   3.835 -0.6296 -0.2555  1.1827
42769TIP3    H229190   4.592   4.616   3.977  1.7234 -0.0516  0.3314
42770TIP3   OH229191   6.430   1.854  10.875 -0.3903  0.0202 -0.1532
42770TIP3    H129192   6.520   1.820  10.882 -1.3528 -2.8929 -0.5367
42770TIP3    H229193   6.389   1.830  10.957 -1.0791  0.5172 -0.3493
42771TIP3   OH229194   6.837   4.165   3.507  0.0236  0.6171 -0.5664
42771TIP3    H129195   6.824   4.085   3.557 -1.2434  1.3558  0.3436
42771TIP3    H229196   6.800   4.235   3.561  0.3493  1.7189 -1.6906
42772TIP3   OH229197   4.564   7.988   6.985  0.3297 -0.5274 -0.0769
42772TIP3    H129198   4.630   8.000   6.916  0.1719 -0.3871 -0.2061
42772TIP3    H229199   4.519   8.073   6.990 -0.2744 -0.8155 -0.4467
42773TIP3   OH229200   9.131   4.565   6.500 -0.0640  0.2481  0.2422
42773TIP3    H129201   9.053   4.574   6.445 -0.5146  0.3368  0.8789
42773TIP3    H229202   9.169   4.482   6.474  0.2092  0.6762 -0.7941
42774TIP3   OH229203   4.658   8.944   4.269 -0.0857  0.1055  0.6456
42774TIP3    H129204   4.627   8.933   4.359  0.4044 -0.7194  0.7207
42774TIP3    H229205   4.603   8.884   4.218  1.2787 -1.3049  0.7675
42775TIP3   OH229206   5.029   8.150   1.182 -0.3196 -0.1274  0.3171
42775TIP3    H129207   4.999   8.079   1.125  2.1232 -0.7926 -0.2688
42775TIP3    H229208   5.053   8.221   1.123  0.6257 -0.1824  0.6102
42776TIP3   OH229209   5.971  10.760   5.679 -0.2826  0.2767  0.1442
42776TIP3    H129210   5.957  10.829   5.743 -0.2373  0.4508 -0.0318
42776TIP3    H229211   5.988  10.806   5.597  2.3853  0.1317  0.5186
42777TIP3   OH229212   8.977   0.989   1.438 -0.4421 -0.0868 -0.0166
42777TIP3    H129213   8.922   1.056   1.399 -2.2348 -1.0348  0.7794
42777TIP3    H229214   9.006   0.936   1.364 -1.8933 -0.4924 -0.3232
42778TIP3   OH229215   8.664   2.767   6.769  0.3148  0.0023  0.0807
42778TIP3    H129216   8.584   2.732   6.809  0.3179 -0.5786 -0.4129
42778TIP3    H229217   8.636   2.851   6.732  0.0062 -0.0574  0.1732
42779TIP3   OH229218   7.988  10.449   4.542 -0.2284  0.2159 -0.1315
42779TIP3    H129219   8.008  10.499   4.463 -1.7025  0.6197 -0.2869
42779TIP3    H229220   7.943  10.371   4.511 -0.2215  0.0550  0.2589
42780TIP3   OH229221   3.017   3.322   5.339 -0.8022 -0.1643 -0.7812
42780TIP3    H129222   2.934   3.281   5.364 -0.1898 -0.1664  1.4898
42780TIP3    H229223   3.016   3.407   5.382  0.0550  0.1415 -1.3446
42781TIP3   OH229224   5.408   1.131   7.703 -0.0431  0.6086 -0.0630
42781TIP3    H129225   5.347   1.190   7.747  0.0791 -0.6862  1.9976
42781TIP3    H229226   5.356   1.054   7.682  0.3543  0.4417 -0.4504
42782TIP3   OH229227   0.905   0.086   6.814  0.2760  0.1992  0.1669
42782TIP3    H129228   0.978   0.025   6.802 -1.3915 -1.6882 -1.1834
42782TIP3    H229229   0.907   0.109   6.907  1.1171 -1.7982  0.6966
42783TIP3   OH229230   2.988   7.226   3.882 -0.1396 -0.3358  0.7764
42783TIP3    H129231   2.975   7.292   3.950  0.6421  0.9895 -0.3001
42783TIP3    H229232   2.906   7.177   3.879 -1.1665  1.3214  0.8551
42784TIP3   OH229233   2.127   5.452   2.860  0.7471  0.5522 -0.3331
42784TIP3    H129234   2.061   5.385   2.880  0.6747  0.0735 -2.0303
42784TIP3    H229235   2.175   5.463   2.942 -2.5866  2.2930  1.5895
42785TIP3   OH229236   1.390   7.578   8.434  0.2754 -0.6760  0.0377
42785TIP3    H129237   1.438   7.506   8.474 -0.8255 -1.6049 -0.2815
42785TIP3    H229238   1.381   7.553   8.342 -1.3482 -0.8217  0.2176
42786TIP3   OH229239  10.275   1.320   2.543  0.0482 -0.3414 -0.1897
42786TIP3    H129240  10.346   1.286   2.598  1.2714  0.6796 -1.0875
42786TIP3    H229241  10.317   1.386   2.487 -1.8141  1.1092  0.0132
42787TIP3   OH229242   1.714   4.406  10.259  0.3674  0.4255 -0.7228
42787TIP3    H129243   1.672   4.441  10.337 -1.8451  1.2722 -2.1932
42787TIP3    H229244   1.808   4.422  10.273 -0.0971  1.9093  1.0810
42788TIP3   OH229245   2.806   1.951   1.176 -0.3320  0.2077  0.0948
42788TIP3    H129246   2.829   1.899   1.254 -1.2144  0.0948  0.2869
42788TIP3    H229247   2.777   2.035   1.211 -0.9109  0.0898 -0.1022
42789TIP3   OH229248   8.005   7.931  10.863 -0.3202 -0.3290 -0.9012
42789TIP3    H129249   7.912   7.946  10.881 -0.5105 -3.0536  0.8887
42789TIP3    H229250   8.008   7.906  10.771 -1.5157 -1.2037 -0.7171
42790TIP3   OH229251   8.827   6.302   2.307  0.2174  0.1034 -0.0844
42790TIP3    H129252   8.848   6.392   2.332  0.7486  0.2373 -0.9659
42790TIP3    H229253   8.794   6.261   2.387 -2.4297  1.7599 -0.2017
42791TIP3   OH229254   2.785   3.962   8.882  0.0753  0.1048 -0.0548
42791TIP3    H129255   2.833   3.934   8.804 -0.3966  0.1762 -0.3743
42791TIP3    H229256   2.766   3.881   8.929 -0.4444 -0.0275 -0.4861
42792TIP3   OH229257   9.995   2.310   5.069 -0.1393 -0.0474 -0.2683
42792TIP3    H129258  10.035   2.257   5.138  1.3156  1.0571 -0.2187
42792TIP3    H229259   9.901   2.303   5.085  0.0153 -2.2573 -0.0323
42793TIP3   OH229260   2.158   8.652   7.686  1.1655  0.4683  0.2119
42793TIP3    H129261   2.106   8.682   7.760  0.8821 -1.2097  0.7434
42793TIP3    H229262   2.106   8.582   7.646  2.8332 -1.1073  0.6139
42794TIP3   OH229263   1.345   0.595   6.869  0.2210 -0.7494  0.3343
42794TIP3    H129264   1.428   0.628   6.834 -0.3393 -0.0112 -0.3383
42794TIP3    H229265   1.278   0.634   6.813 -0.6499 -0.3554  1.5992
42795TIP3   OH229266   0.900   4.710   5.814  0.4152  0.2939 -0.3337
42795TIP3    H129267   0.806   4.693   5.819 -0.0115  2.5524  0.5116
42795TIP3    H229268   0.933   4.686   5.901  0.4131  0.6230 -0.2430
42796TIP3   OH229269   1.853   1.362   4.975  0.1635 -0.3944 -0.3188
42796TIP3    H129270   1.793   1.351   4.901 -0.3321 -0.7921  0.1280
42796TIP3    H229271   1.796   1.369   5.051  0.5904  1.8459 -0.1471
42797TIP3   OH229272   8.880   5.345   9.149 -0.2918  0.0308  0.4020
42797TIP3    H129273   8.888   5.365   9.056  1.7589  1.0349  0.7465
42797TIP3    H229274   8.799   5.293   9.155 -0.2974 -0.3530 -1.9559
42798TIP3   OH229275   1.145   9.743   0.554 -0.1830  0.4619  0.1881
42798TIP3    H129276   1.052   9.762   0.553  0.3158  3.4290 -0.0655
42798TIP3    H229277   1.169   9.741   0.646 -0.5890 -1.1155  0.2834
42799TIP3   OH229278   1.306   4.595   3.287 -0.0981 -0.2018  0.1053
42799TIP3    H129279   1.389   4.616   3.331  0.7007  0.5002 -1.6552
42799TIP3    H229280   1.262   4.679   3.277 -0.8897 -0.5303  0.7310
42800TIP3   OH229281   7.459   5.432   2.146  0.1639 -0.1342 -0.0907
42800TIP3    H129282   7.548   5.469   2.140  0.5347 -1.0256 -0.2115
42800TIP3    H229283   7.403   5.508   2.160  1.0391  0.3725  0.8121
42801TIP3   OH229284   4.784   8.198   6.122 -0.2511  0.7262  0.0606
42801TIP3    H129285   4.749   8.128   6.068  1.2492  0.5794 -0.7871
42801TIP3    H229286   4.802   8.157   6.207  2.5647 -0.5745 -1.0227
42802TIP3   OH229287   8.779   5.724   3.639  0.0874  0.5666  0.6237
42802TIP3    H129288   8.852   5.688   3.689 -0.3145  0.0451  0.8307
42802TIP3    H229289   8.709   5.659   3.646 -0.2167  0.8098 -0.0265
42803TIP3   OH229290   1.545   3.731   8.055  0.8440 -0.5291  0.1304
42803TIP3    H129291   1.615   3.785   8.017  0.2768  0.0831 -0.0725
42803TIP3    H229292   1.500   3.694   7.979  1.1109 -1.1506  0.2665
42804TIP3   OH229293  10.057   4.720   8.708  0.6486 -0.0884 -0.0460
42804TIP3    H129294  10.046   4.814   8.723  0.3124  0.0840 -1.2530
42804TIP3    H229295  10.145   4.711   8.672  0.8063 -0.2791  0.3826
42805TIP3   OH229296   0.027   2.003   5.227  0.5464  0.1572  0.0369
42805TIP3    H129297  -0.025   2.082   5.214  0.3762 -0.0635 -0.6581
42805TIP3    H229298   0.058   2.010   5.318 -0.9814  0.1217  0.5988
42806TIP3   OH229299   8.140   6.371   8.004 -0.1112  0.6047 -0.2544
42806TIP3    H129300   8.110   6.282   8.023 -1.1068  0.7764 -0.9192
42806TIP3    H229301   8.232   6.372   8.030 -0.7756  0.2127  2.3826
42807TIP3   OH229302   1.941   6.720   0.982 -0.3093 -0.0657 -0.1071
42807TIP3    H129303   1.851   6.747   1.000 -0.0718  0.2165  0.7233
42807TIP3    H229304   1.995   6.788   1.022  0.2828 -0.9275  0.6013
42808TIP3   OH229305   2.842   1.193   3.131 -0.4050  0.0241 -0.7873
42808TIP3    H129306   2.837   1.098   3.121  1.1542 -0.1973  0.2106
42808TIP3    H229307   2.777   1.213   3.199  0.4082 -0.5901  0.2199
42809TIP3   OH229308   1.695   3.321   5.509  0.3478  0.1858 -0.8098
42809TIP3    H129309   1.672   3.251   5.447  1.5560  0.1654 -1.2602
42809TIP3    H229310   1.611   3.359   5.534 -0.1606  0.3357 -2.6255
42810TIP3   OH229311   9.345   5.837  10.431  0.1686  0.1066  0.4095
42810TIP3    H129312   9.358   5.931  10.445  1.1826  0.2800 -1.4460
42810TIP3    H229313   9.432   5.799  10.440  0.0598 -0.3937 -0.5297
42811TIP3   OH229314   0.394   1.922   2.665  0.4428  0.2032  0.3498
42811TIP3    H129315   0.343   1.841   2.661  0.6138  0.0217  1.4847
42811TIP3    H229316   0.332   1.988   2.698  0.3064  0.5384 -0.5571
42812TIP3   OH229317   5.625   9.993   3.631 -0.1930  0.1535 -0.2754
42812TIP3    H129318   5.657   9.939   3.559 -0.9953  1.6233 -1.8157
42812TIP3    H229319   5.695  10.057   3.645  1.8053 -2.4188  3.0785
42813TIP3   OH229320   1.750  10.382   4.179 -0.2248 -0.3155 -0.1466
42813TIP3    H129321   1.663  10.359   4.212  0.9012  0.3763  3.7932
42813TIP3    H229322   1.809  10.325   4.227  1.8209  2.7632  1.2866
42814TIP3   OH229323   4.448   0.091   1.310  0.3171 -0.2233 -0.1190
42814TIP3    H129324   4.491   0.131   1.386  0.0751  0.1149 -0.1607
42814TIP3    H229325   4.356   0.112   1.321  0.0636 -1.4972  0.3088
42815TIP3   OH229326   7.018   0.136   2.403  0.6175  0.4418 -0.0880
42815TIP3    H129327   7.096   0.080   2.396  1.0045  0.9338  0.1791
42815TIP3    H229328   7.026   0.178   2.489 -1.0445 -1.0972  0.8808
42816TIP3   OH229329  10.162   3.440   1.482  0.0087  0.3294 -0.5176
42816TIP3    H129330  10.165   3.345   1.475  0.0825  0.3998 -1.6142
42816TIP3    H229331  10.108   3.456   1.559  1.2244 -0.6013  0.5663
42817TIP3   OH229332   8.031   8.889   6.865 -0.5387 -0.0433  0.3014
42817TIP3    H129333   7.940   8.858   6.864 -0.2165 -1.0711  1.1029
42817TIP3    H229334   8.082   8.815   6.832 -0.0133  0.6543 -0.4884
42818TIP3   OH229335   8.930   7.088   4.673  0.0810  0.2404  0.1498
42818TIP3    H129336   8.928   7.007   4.725  1.1498 -1.6239 -2.5222
42818TIP3    H229337   8.838   7.117   4.672 -0.6970 -2.0165 -0.3467
42819TIP3   OH229338   8.470   4.882   1.568 -0.2284  0.4041 -0.2451
42819TIP3    H129339   8.407   4.887   1.496 -2.2593  0.8991  1.4963
42819TIP3    H229340   8.511   4.796   1.558 -0.8073  0.2680 -1.6990
42820TIP3   OH229341   4.705   4.809   4.345 -0.2693  0.3911  0.4117
42820TIP3    H129342   4.688   4.745   4.414 -0.7541 -0.6515 -0.6580
42820TIP3    H229343   4.637   4.794   4.280 -0.7900  2.4309  0.4004
42821TIP3   OH229344   9.528  10.084   1.797  0.3023  0.3370 -0.4470
42821TIP3    H129345   9.432  10.092   1.801  0.3659  0.4869  1.1338
42821TIP3    H229346   9.546  10.074   1.703 -1.3730 -1.0355 -0.6998
42822TIP3   OH229347   0.265   1.580   0.231 -1.1946 -0.3689  0.5504
42822TIP3    H129348   0.333   1.605   0.168  0.5439  1.7219  3.0201
42822TIP3    H229349   0.201   1.651   0.227 -0.6340  0.2286  1.6486
42823TIP3   OH229350   5.699   1.705   3.017  0.3875 -0.0445 -0.3183
42823TIP3    H129351   5.672   1.675   3.104 -2.0367 -0.4785 -1.1306
42823TIP3    H229352   5.683   1.630   2.960  1.9857  0.2198 -1.1665
42824TIP3   OH229353   0.476   7.885   1.959 -0.0333 -0.2019  0.0440
42824TIP3    H129354   0.506   7.795   1.973 -1.4996 -0.5489  1.2381
42824TIP3    H229355   0.513   7.910   1.874 -0.0562 -2.1291 -0.5739
42825TIP3   OH229356   0.660  10.864   4.484  0.1084  0.1500  0.2739
42825TIP3    H129357   0.731  10.820   4.437  0.1850  0.2510  0.2941
42825TIP3    H229358   0.692  10.953   4.498 -0.5950  0.6381 -1.0100
42826TIP3   OH229359  10.301   0.538   5.843 -0.0096  0.0586 -0.4516
42826TIP3    H129360  10.363   0.505   5.909  0.5339  0.9527 -0.5074
42826TIP3    H229361  10.347   0.610   5.800 -0.8158  0.2610 -1.0014
42827TIP3   OH229362   2.340   8.181   9.018 -0.0771 -0.3774  0.1380
42827TIP3    H129363   2.436   8.187   9.019 -0.0291 -0.6068  2.6333
42827TIP3    H229364   2.311   8.272   9.027 -0.1321 -0.2471 -1.2026
42828TIP3   OH229365   6.116   0.508   6.631 -0.3475 -0.3093  0.3383
42828TIP3    H129366   6.170   0.542   6.560 -0.5467 -0.5481  0.0719
42828TIP3    H229367   6.106   0.414   6.611  0.2760 -0.5485  1.1098
42829TIP3   OH229368   0.625   2.465   9.791  0.5890  0.4249 -0.3081
42829TIP3    H129369   0.680   2.398   9.831  1.4065  0.6515 -1.0253
42829TIP3    H229370   0.548   2.470   9.848  0.3278 -1.3773 -0.4369
42830TIP3   OH229371   8.480   6.942   0.089  0.2338 -0.0051 -0.0891
42830TIP3    H129372   8.417   6.893   0.142  1.4128  0.1672  1.5303
42830TIP3    H229373   8.425   6.997   0.032 -1.0924 -2.0455 -0.9036
42831TIP3   OH229374   8.496   7.221   6.495 -0.1131  0.1851 -0.1312
42831TIP3    H129375   8.578   7.173   6.486 -1.2540 -1.6160 -1.9583
42831TIP3    H229376   8.440   7.185   6.426 -2.3163  1.6130  0.8002
42832TIP3   OH229377   1.719   5.015   6.439 -0.0590 -0.1874  0.1185
42832TIP3    H129378   1.744   4.925   6.419  2.3459  0.1249  1.3945
42832TIP3    H229379   1.752   5.066   6.365 -1.8081 -0.3347 -0.8232
42833TIP3   OH229380   6.530   9.569   3.195  0.2415 -0.1334 -0.2407
42833TIP3    H129381   6.580   9.491   3.217  0.1541 -0.3379 -0.7638
42833TIP3    H229382   6.500   9.603   3.279  1.1176 -0.1003  0.0647
42834TIP3   OH229383  10.798   1.981   8.447  0.0746 -0.0348 -0.0004
42834TIP3    H129384  10.783   2.006   8.538 -0.2435 -1.2073  0.2867
42834TIP3    H229385  10.765   2.055   8.396 -0.5889  0.2496  0.8138
42835TIP3   OH229386   3.897   0.582   5.477  0.2470 -0.7068 -0.4457
42835TIP3    H129387   3.911   0.506   5.533 -0.6465 -0.4878  0.0836
42835TIP3    H229388   3.843   0.642   5.529 -0.8860 -0.6423 -1.6292
42836TIP3   OH229389   3.237   2.120   2.015  0.1125  0.5078 -0.2206
42836TIP3    H129390   3.177   2.166   2.074 -0.8373 -0.9633  0.0412
42836TIP3    H229391   3.317   2.111   2.065 -0.4156  0.0023  0.5637
42837TIP3   OH229392   6.623   6.110   7.067  0.2475 -0.0215  0.0626
42837TIP3    H129393   6.565   6.091   6.995 -0.2734 -1.0859  0.7412
42837TIP3    H229394   6.631   6.206   7.068 -0.5864  0.0574 -0.7249
42838TIP3   OH229395   0.306   5.393   2.408 -0.5279 -0.0927  0.0381
42838TIP3    H129396   0.227   5.343   2.389 -0.5674  0.4919 -1.4757
42838TIP3    H229397   0.276   5.483   2.420 -0.0836  0.1809 -0.8098
42839TIP3   OH229398   1.488   6.990   2.518 -0.0099 -0.3223  0.0855
42839TIP3    H129399   1.552   7.059   2.499  0.4456 -0.6522  0.4056
42839TIP3    H229400   1.528   6.938   2.587 -0.3551 -0.9080 -0.1467
42840TIP3   OH229401   9.109   8.708   7.310 -0.4906  0.5420 -0.7763
42840TIP3    H129402   9.101   8.613   7.300  0.1192  0.4021 -0.0913
42840TIP3    H229403   9.175   8.733   7.246  0.1832  0.3184 -0.1883
42841TIP3   OH229404   6.324   8.240   8.717 -0.5819 -0.0908 -0.3204
42841TIP3    H129405   6.342   8.189   8.796 -2.5564  0.6473  0.6894
42841TIP3    H229406   6.410   8.259   8.679  0.5170  0.5492  2.3055
42842TIP3   OH229407   8.045   1.778   5.924  0.4660  0.2915  0.6197
42842TIP3    H129408   8.054   1.747   6.014  0.9913 -0.5473  0.2928
42842TIP3    H229409   7.956   1.753   5.899  0.6733 -0.4249  0.5670
42843TIP3   OH229410   6.318  10.090   3.671 -0.1347 -0.4839  0.0675
42843TIP3    H129411   6.399  10.131   3.641 -0.5214  0.6102  0.5022
42843TIP3    H229412   6.253  10.115   3.606 -0.3465 -0.5104  0.2693
42844TIP3   OH229413   9.708   8.200   3.645 -0.0908 -0.0853 -0.1010
42844TIP3    H129414   9.726   8.111   3.673 -0.1195 -0.3087 -0.7676
42844TIP3    H229415   9.641   8.231   3.705  1.2838  0.1795  1.3504
42845TIP3   OH229416   7.325  10.544   0.993  0.2594  0.0413 -0.7928
42845TIP3    H129417   7.286  10.459   1.016  1.2020 -0.6257 -1.5659
42845TIP3    H229418   7.399  10.521   0.936  1.3853  1.2975  0.1113
42846TIP3   OH229419   9.070   1.980   5.406 -0.2651 -0.0539  0.1075
42846TIP3    H129420   9.143   1.959   5.464 -0.2635 -1.5900 -0.3978
42846TIP3    H229421   8.993   1.983   5.463  0.1736  1.6009  0.6466
42847TIP3   OH229422   5.445   0.098   1.057  0.1235 -0.0793 -0.4385
42847TIP3    H129423   5.429   0.180   1.105  1.4470 -1.0606  1.8047
42847TIP3    H229424   5.361   0.052   1.060  0.5007 -0.7786  2.3946
42848TIP3   OH229425   0.691   0.949   5.805  0.4186 -0.2742 -0.0486
42848TIP3    H129426   0.620   0.986   5.858  0.0966  0.0901 -0.7285
42848TIP3    H229427   0.731   0.883   5.862  0.0330  0.0602  0.6264
42849TIP3   OH229428   9.795  10.750  10.268  0.1970 -0.0555  0.0073
42849TIP3    H129429   9.722  10.690  10.252  1.1900 -0.7992 -2.1368
42849TIP3    H229430   9.871  10.706  10.230  1.6886  0.9543  1.6518
42850TIP3   OH229431   7.432   6.632   8.258 -0.3847 -0.2986  0.5926
42850TIP3    H129432   7.471   6.707   8.212 -0.9868  0.3149  1.0501
42850TIP3    H229433   7.505   6.573   8.274  0.7560  1.5303  2.8548
42851TIP3   OH229434   0.234   7.544   7.741 -0.1567 -0.6366 -0.1774
42851TIP3    H129435   0.300   7.499   7.793 -1.8259 -1.9621  0.9287
42851TIP3    H229436   0.235   7.634   7.773  1.1333 -0.6068 -0.2558
42852TIP3   OH229437  10.595   8.485   5.878  0.5642 -0.7707  0.2778
42852TIP3    H129438  10.571   8.436   5.956 -0.0216 -0.8050  0.0794
42852TIP3    H229439  10.513   8.524   5.847  0.5648 -1.6978 -0.9781
42853TIP3   OH229440   1.910   8.686   2.381  0.8123 -0.2497  0.1702
42853TIP3    H129441   1.854   8.621   2.338  0.4145 -0.1513  0.5336
42853TIP3    H229442   1.881   8.686   2.472 -0.7154  2.0174 -0.2507
42854TIP3   OH229443   1.981   9.687   8.900  0.1416  0.5371 -0.0074
42854TIP3    H129444   2.043   9.615   8.888 -0.4612 -0.5555  2.6772
42854TIP3    H229445   1.948   9.705   8.812  0.4972 -2.3233 -0.8448
42855TIP3   OH229446   2.655   3.976   9.668  0.0066 -0.2198 -0.1996
42855TIP3    H129447   2.736   3.992   9.717  0.1384 -0.4275 -0.3507
42855TIP3    H229448   2.681   3.984   9.576 -0.0995 -0.5085 -0.2533
42856TIP3   OH229449   1.838   5.089   7.039  0.2095 -0.2598 -0.2612
42856TIP3    H129450   1.770   5.153   7.022 -0.2660 -0.9477 -1.0426
42856TIP3    H229451   1.833   5.074   7.134  2.8569  3.5849  0.7076
42857TIP3   OH229452  10.765   3.383   0.576  0.5987 -0.3256  0.2466
42857TIP3    H129453  10.738   3.422   0.659  0.0448 -2.0191  0.9146
42857TIP3    H229454  10.730   3.293   0.579  1.8120 -0.8977 -1.1819
42858TIP3   OH229455   5.048   7.634   1.792 -0.1834  0.6432  0.0632
42858TIP3    H129456   5.076   7.546   1.813  2.1328  1.4005  0.4015
42858TIP3    H229457   5.020   7.629   1.701  1.1217 -0.1999 -0.3153
42859TIP3   OH229458   1.752   9.355   8.849  0.1184  0.0907 -0.1635
42859TIP3    H129459   1.805   9.282   8.882 -0.7696 -0.5507 -0.1281
42859TIP3    H229460   1.783   9.369   8.759 -1.0778 -1.7091 -0.9107
42860TIP3   OH229461   6.837   3.707   8.015  0.0495  0.0413  0.1426
42860TIP3    H129462   6.839   3.774   8.083 -0.9710  0.5835 -0.3382
42860TIP3    H229463   6.785   3.636   8.052 -0.7972  0.4799 -0.1813
42861TIP3   OH229464   7.554   4.464   0.678  0.0543 -0.0131 -1.0481
42861TIP3    H129465   7.589   4.378   0.656 -0.4762 -0.6923  0.5935
42861TIP3    H229466   7.463   4.448   0.701  0.2162  0.8026  0.2696
42862TIP3   OH229467   9.782   5.288   4.887 -0.0770 -0.4485  0.0697
42862TIP3    H129468   9.771   5.259   4.796  1.7673  0.2585 -0.4255
42862TIP3    H229469   9.876   5.281   4.903 -0.0695  1.4992  1.1853
42863TIP3   OH229470   4.204   6.420   0.404 -0.1487 -0.1844  0.1893
42863TIP3    H129471   4.227   6.454   0.490 -0.4769 -1.4437  0.7996
42863TIP3    H229472   4.172   6.496   0.356  2.0410  0.9710  0.4311
42864TIP3   OH229473   1.699   5.654   8.316 -0.4209  0.3348  0.5355
42864TIP3    H129474   1.774   5.713   8.323 -0.2362  0.1474  0.1326
42864TIP3    H229475   1.637   5.686   8.383 -0.9978  1.9662 -0.7076
42865TIP3   OH229476   4.933   4.912   3.986  0.3290  0.3358 -0.4389
42865TIP3    H129477   4.945   4.817   3.981 -1.6586  0.0623 -0.6500
42865TIP3    H229478   4.891   4.927   4.071 -0.0853  0.9281 -0.7372
42866TIP3   OH229479   8.432   8.942   4.745 -0.3304 -0.1256  0.0763
42866TIP3    H129480   8.486   9.014   4.779  0.9472 -1.1887  0.3450
42866TIP3    H229481   8.494   8.875   4.719 -1.5099 -1.2036 -0.0617
42867TIP3   OH229482   4.342   9.222   3.931 -0.3619  0.0324  0.6826
42867TIP3    H129483   4.425   9.184   3.959 -1.5101 -2.4327  0.9856
42867TIP3    H229484   4.318   9.172   3.853 -1.9464  0.1242  1.0822
42868TIP3   OH229485   4.410   9.013   1.815 -0.1306 -0.2034 -0.0045
42868TIP3    H129486   4.377   8.925   1.833 -0.4270 -0.1400 -0.2335
42868TIP3    H229487   4.503   9.000   1.799 -0.5954 -0.8713 -2.6241
42869TIP3   OH229488   1.765   5.064   4.800  0.0689 -0.0134 -0.0695
42869TIP3    H129489   1.702   5.127   4.764  1.8692  1.9079  0.0238
42869TIP3    H229490   1.778   5.091   4.890  1.8510  0.3128 -0.4019
42870TIP3   OH229491   9.134   4.018   1.527  0.5541  0.2725 -0.1160
42870TIP3    H129492   9.066   3.985   1.469  1.3050  0.9240 -1.4329
42870TIP3    H229493   9.180   3.940   1.557 -1.7571 -0.3221  2.1648
42871TIP3   OH229494   9.091   6.056   6.468 -0.9426  0.2129  0.7294
42871TIP3    H129495   9.044   6.119   6.522  0.1865 -0.0237  2.0512
42871TIP3    H229496   9.092   5.976   6.520  2.7721  0.7975  1.8737
42872TIP3   OH229497   0.109   8.758   9.503  0.4862  0.2833 -0.3317
42872TIP3    H129498   0.204   8.771   9.515  0.3263  0.8021  0.4519
42872TIP3    H229499   0.102   8.673   9.460  1.3537  0.6622 -1.2582
42873TIP3   OH229500   6.571   4.256   7.926 -0.4004  0.1450 -0.0314
42873TIP3    H129501   6.562   4.163   7.906 -0.1170  0.4958 -2.0143
42873TIP3    H229502   6.607   4.294   7.845  1.5521  1.6315  1.4444
42874TIP3   OH229503   5.920   9.927   1.372  0.4201  0.0653  0.1776
42874TIP3    H129504   5.892   9.954   1.459 -0.1377  1.7830 -0.4727
42874TIP3    H229505   5.857   9.859   1.347  0.1566  0.0528  0.8460
42875TIP3   OH229506   7.560  10.666   1.126 -0.3877  0.1484  0.1113
42875TIP3    H129507   7.490  10.658   1.060 -0.1189 -0.1123 -0.1433
42875TIP3    H229508   7.635  10.700   1.078 -0.1373 -0.2079  0.2511
42876TIP3   OH229509   5.661   1.273   9.942 -0.0717  0.2478  0.3174
42876TIP3    H129510   5.722   1.229  10.001 -0.7458 -0.5843  0.4155
42876TIP3    H229511   5.577   1.228   9.956 -0.2497  0.0347 -1.2657
42877TIP3   OH229512   8.371   8.628   0.047 -0.6427 -0.0128  0.1529
42877TIP3    H129513   8.401   8.660   0.131 -1.1174  0.4724  0.1429
42877TIP3    H229514   8.314   8.554   0.068 -1.2462  0.4887  0.2926
42878TIP3   OH229515   0.216   8.032  10.715  0.3974 -0.0593 -0.4779
42878TIP3    H129516   0.294   7.989  10.679  0.5404 -0.5016  0.3351
42878TIP3    H229517   0.221   8.017  10.810 -1.1599 -0.9325 -0.4845
42879TIP3   OH229518   2.919   5.012   1.885 -0.1086  0.9976 -0.5628
42879TIP3    H129519   2.928   5.105   1.867  2.6613  0.8112 -0.6279
42879TIP3    H229520   3.005   4.986   1.918 -1.0451 -1.3862  0.2183
42880TIP3   OH229521   1.626   4.333   0.260  0.1415 -0.2134  0.6630
42880TIP3    H129522   1.554   4.306   0.203  1.3191  0.1461 -1.0934
42880TIP3    H229523   1.669   4.404   0.212  1.9804 -0.7761  1.3922
42881TIP3   OH229524   1.408   7.111   7.604 -0.0745 -0.2881 -0.0671
42881TIP3    H129525   1.333   7.170   7.616  0.0031 -0.2505  0.2210
42881TIP3    H229526   1.376   7.025   7.632 -0.1191 -0.3414 -0.2794
42882TIP3   OH229527   3.592   7.257   7.176 -0.0817  0.4785 -0.0930
42882TIP3    H129528   3.651   7.332   7.167  0.0721  0.4638  0.7358
42882TIP3    H229529   3.633   7.202   7.243 -1.9623  1.3840  1.8718
42883TIP3   OH229530   2.473   5.385   9.543  0.3860 -0.3861  0.0191
42883TIP3    H129531   2.431   5.375   9.458  4.0816  2.2111 -2.4136
42883TIP3    H229532   2.456   5.476   9.569  0.1266 -0.8508  1.6325
42884TIP3   OH229533   0.958   1.713   3.613  0.5474  0.5345 -0.0803
42884TIP3    H129534   0.867   1.683   3.604  0.4584 -0.0289  2.1000
42884TIP3    H229535   1.008   1.658   3.553 -0.3633 -0.1948 -0.1926
42885TIP3   OH229536   5.417   3.756  10.468  0.5137  0.8111  0.4180
42885TIP3    H129537   5.434   3.756  10.562 -1.2078  0.7859  0.7656
42885TIP3    H229538   5.500   3.730  10.428  1.0763  0.1483  1.9579
42886TIP3   OH229539   8.095   2.148   1.847  0.0308 -0.2631  0.0868
42886TIP3    H129540   8.064   2.077   1.790 -0.1414 -0.6732  0.6765
42886TIP3    H229541   8.072   2.228   1.800 -0.6957 -0.5865 -0.1259
42887TIP3   OH229542   6.922  10.446   5.129 -0.3695 -0.2328  0.4603
42887TIP3    H129543   6.849  10.460   5.068  1.0370  0.0737 -1.2541
42887TIP3    H229544   6.960  10.534   5.141 -0.8247 -0.2296  2.1079
42888TIP3   OH229545   1.242   0.575   9.446 -0.4704  0.1239  0.2320
42888TIP3    H129546   1.186   0.629   9.501 -0.2680 -0.4064  0.9723
42888TIP3    H229547   1.241   0.619   9.360 -1.0440  0.7771  0.5643
42889TIP3   OH229548   9.832   1.060   9.829  0.0386  0.1272  0.5672
42889TIP3    H129549   9.925   1.050   9.851 -0.2642 -1.4254  1.2722
42889TIP3    H229550   9.786   1.007   9.894 -1.4178  1.5243  0.7366
42890TIP3   OH229551   9.382   1.184   5.611 -0.2426 -0.1963  0.0689
42890TIP3    H129552   9.310   1.233   5.572 -0.4538  1.5382  2.4103
42890TIP3    H229553   9.457   1.243   5.604 -0.1400 -0.0991  1.5755
42891TIP3   OH229554   8.353   0.973   1.452 -0.4412  0.3360  0.0659
42891TIP3    H129555   8.393   1.060   1.449 -3.2267  1.6868 -2.1550
42891TIP3    H229556   8.379   0.938   1.537  3.7883  1.7378 -0.4144
42892TIP3   OH229557   9.577   9.786   6.841 -0.0918 -0.0085 -0.3082
42892TIP3    H129558   9.539   9.758   6.924  0.2976  2.2345  0.7157
42892TIP3    H229559   9.509   9.771   6.776 -0.5236 -1.5081  0.4561
42893TIP3   OH229560   1.010   8.748   7.994 -0.3781  0.5697 -0.6476
42893TIP3    H129561   0.985   8.841   8.003  0.2399  0.8639 -1.8301
42893TIP3    H229562   1.091   8.740   8.044 -0.7532  0.5113 -0.0341
42894TIP3   OH229563   4.114   4.751   0.518  0.4324  0.1838 -0.1748
42894TIP3    H129564   4.057   4.731   0.445  1.4793  2.5530 -1.7667
42894TIP3    H229565   4.198   4.709   0.496  0.1378 -1.0181  0.8450
42895TIP3   OH229566   8.671   2.231   1.783  0.1136  0.1081  0.6030
42895TIP3    H129567   8.663   2.308   1.727 -0.7147  1.7485  2.8545
42895TIP3    H229568   8.764   2.225   1.803  0.1197  0.8461  0.8234
42896TIP3   OH229569   7.772   7.300   3.504  0.0985  0.1539 -0.2877
42896TIP3    H129570   7.798   7.276   3.593 -1.3683 -0.7732 -0.0664
42896TIP3    H229571   7.755   7.394   3.508  0.8666  0.2841  0.1814
42897TIP3   OH229572  10.065   6.597   8.747 -0.2190 -0.3235  0.2532
42897TIP3    H129573  10.144   6.579   8.798  1.7086  0.3923 -2.2256
42897TIP3    H229574  10.034   6.511   8.719  1.0005 -0.5603 -0.4748
42898TIP3   OH229575   6.684   5.748   4.574 -0.0905  0.4399 -0.4531
42898TIP3    H129576   6.760   5.692   4.557  0.5432  1.4861 -1.2258
42898TIP3    H229577   6.649   5.767   4.487 -0.6978  0.7027 -0.1577
42899TIP3   OH229578   3.918   9.665   2.046 -0.3580  0.1570 -0.3857
42899TIP3    H129579   3.838   9.714   2.029  0.3373  0.8026 -1.9943
42899TIP3    H229580   3.977   9.728   2.086 -0.4832 -0.2110  0.4071
42900TIP3   OH229581   1.970   8.808   1.841  0.0630  0.0653  0.2182
42900TIP3    H129582   1.982   8.771   1.928 -0.4308  2.2370  1.2887
42900TIP3    H229583   1.889   8.858   1.847 -0.3566 -0.2855 -1.7185
42901TIP3   OH229584   1.054   8.164   8.579  0.5695  0.1397  0.5956
42901TIP3    H129585   0.973   8.202   8.614  0.7900 -0.3548  1.6717
42901TIP3    H229586   1.112   8.239   8.566  1.0110  0.2083  2.7131
42902TIP3   OH229587   9.844   8.544   9.461 -0.3444 -0.3551  0.0030
42902TIP3    H129588   9.773   8.600   9.492  0.2814  0.1383  0.5796
42902TIP3    H229589   9.890   8.598   9.397  0.4938 -0.0521  0.8449
42903TIP3   OH229590  10.807   2.763   2.471  0.1105 -0.0619 -1.0277
42903TIP3    H129591  10.869   2.787   2.540  1.7788 -2.0855 -1.7306
42903TIP3    H229592  10.725   2.745   2.518  0.3690  1.4391  0.0667
42904TIP3   OH229593   8.742   5.678   3.959 -0.1617 -0.2231 -1.0610
42904TIP3    H129594   8.823   5.663   3.910 -0.7848 -0.2749 -2.1206
42904TIP3    H229595   8.717   5.768   3.938 -0.5505 -0.3193 -1.0214
42905TIP3   OH229596   2.585   3.746   8.966 -0.7489 -0.0049  0.1710
42905TIP3    H129597   2.570   3.721   8.875 -1.5388  0.5298  0.1464
42905TIP3    H229598   2.679   3.761   8.972 -0.5846 -0.8066 -0.3603
42906TIP3   OH229599   6.774  10.872   4.255  0.0475  0.3800  0.6016
42906TIP3    H129600   6.743  10.791   4.214 -0.4483  0.0793  1.5490
42906TIP3    H229601   6.705  10.896   4.317  1.2859  0.1882  2.1091
42907TIP3   OH229602   3.655   0.073   4.240  0.1269  0.0551  0.5083
42907TIP3    H129603   3.704   0.153   4.221  0.0961  0.1767  0.9323
42907TIP3    H229604   3.583   0.074   4.177 -0.6671  1.0665  1.3808
42908TIP3   OH229605   0.668   1.084   8.751 -0.5048 -0.5221  0.9797
42908TIP3    H129606   0.709   1.007   8.711  0.8538  0.9992 -0.7498
42908TIP3    H229607   0.741   1.133   8.789 -1.0629  0.8319  0.3727
42909TIP3   OH229608   0.054   8.909   0.261  0.0648  0.3333 -0.2829
42909TIP3    H129609   0.007   8.964   0.324 -0.4724 -0.4125 -0.0198
42909TIP3    H229610   0.145   8.912   0.291 -0.4426 -1.5889  1.7761
42910TIP3   OH229611   8.729   7.704   5.513  0.1401  0.3963 -0.1311
42910TIP3    H129612   8.672   7.775   5.541  1.0024  0.4034  1.7920
42910TIP3    H229613   8.671   7.629   5.502 -0.5432  0.9652 -0.4371
42911TIP3   OH229614   1.914   2.567   4.779  0.4473 -0.0596  0.5981
42911TIP3    H129615   1.950   2.480   4.766 -0.2514 -0.3777  0.7401
42911TIP3    H229616   1.871   2.563   4.865 -1.5749 -0.2837 -0.3827
42912TIP3   OH229617   0.002   0.269   2.991  0.7383  0.4004 -0.1385
42912TIP3    H129618   0.062   0.341   2.974  1.7813 -0.2566  0.6480
42912TIP3    H229619  -0.064   0.307   3.050  1.3482  0.6823  0.3738
42913TIP3   OH229620   0.589   7.554   8.603 -0.1548 -0.2337  0.0497
42913TIP3    H129621   0.642   7.490   8.556  0.0194  2.1325 -3.3429
42913TIP3    H229622   0.500   7.543   8.569 -0.5678 -0.0482  1.0191
42914TIP3   OH229623   3.707   7.125   2.832  0.3279 -0.1920 -0.1457
42914TIP3    H129624   3.719   7.206   2.881 -0.2161 -0.5326  0.5688
42914TIP3    H229625   3.688   7.059   2.899 -2.8421 -0.2196 -0.8983
42915TIP3   OH229626   0.088   6.251   0.836 -0.0917  0.2114 -0.3350
42915TIP3    H129627   0.091   6.216   0.748  1.6076 -1.6791  0.3872
42915TIP3    H229628   0.006   6.220   0.873 -0.5102  0.4844 -1.0327
42916TIP3   OH229629   1.305   8.903   9.392  0.1655 -0.1181  0.3355
42916TIP3    H129630   1.325   8.831   9.332 -1.8250  0.4947 -1.1719
42916TIP3    H229631   1.304   8.863   9.479 -0.3654 -1.8041 -0.4142
42917TIP3   OH229632   2.590   5.465   2.911  0.6727  0.5873  0.3280
42917TIP3    H129633   2.672   5.478   2.863  0.4699  0.0908 -0.1690
42917TIP3    H229634   2.617   5.427   2.994  0.9230 -0.0194 -0.0207
42918TIP3   OH229635   0.577   9.214   6.276  0.2856  0.6158  0.7029
42918TIP3    H129636   0.519   9.257   6.214  0.0282 -1.6472 -0.7473
42918TIP3    H229637   0.520   9.154   6.325  1.3206 -1.9407 -1.0100
42919TIP3   OH229638   6.528   8.478   5.778  0.6281  0.0519 -0.0806
42919TIP3    H129639   6.620   8.453   5.768  0.2523 -0.5944 -3.1247
42919TIP3    H229640   6.530   8.574   5.780  1.3567  0.1481 -2.0936
42920TIP3   OH229641   6.633   3.579   4.254  0.5896  0.1971  0.0101
42920TIP3    H129642   6.557   3.531   4.222  0.5543  1.3920 -1.8465
42920TIP3    H229643   6.688   3.513   4.294  1.2109 -1.7419 -3.6692
42921TIP3   OH229644  10.249   0.665   6.922  0.0244 -0.1983 -0.3803
42921TIP3    H129645  10.236   0.754   6.890  0.4133  0.3443  0.9171
42921TIP3    H229646  10.338   0.665   6.959 -0.1825 -0.9541  0.1547
42922TIP3   OH229647  10.874   7.480   7.252 -0.4924 -0.3525 -0.6660
42922TIP3    H129648  10.926   7.462   7.331  0.0583 -1.7524 -1.3065
42922TIP3    H229649  10.849   7.572   7.259 -2.6021 -0.9971  2.4090
42923TIP3   OH229650   0.382   4.310   5.540  0.5678 -0.5662  0.0676
42923TIP3    H129651   0.296   4.338   5.571 -0.8124 -1.2181 -2.8009
42923TIP3    H229652   0.417   4.256   5.611 -0.8133  0.7291  1.8152
42924TIP3   OH229653   0.653   4.893   9.902 -0.3230  0.8519 -0.1942
42924TIP3    H129654   0.561   4.913   9.917 -0.7583  0.6704 -2.2555
42924TIP3    H229655   0.653   4.801   9.875  0.5301  0.6899  0.3312
42925TIP3   OH229656  10.505   2.228   7.527 -0.4154 -0.6232  0.5638
42925TIP3    H129657  10.544   2.242   7.441 -1.5858  1.4356  0.3235
42925TIP3    H229658  10.454   2.147   7.518 -0.7890 -0.2524 -0.7620
42926TIP3   OH229659  10.020   3.980   9.794 -0.5719 -0.0383  0.2216
42926TIP3    H129660  10.047   4.010   9.707 -0.7022  1.0914  0.5542
42926TIP3    H229661   9.950   4.041   9.820 -0.0205  0.1086  1.4283
42927TIP3   OH229662   8.714   5.698   7.591 -0.1233 -0.0746  0.1583
42927TIP3    H129663   8.672   5.736   7.668  1.9710  1.2860  0.7144
42927TIP3    H229664   8.785   5.645   7.626 -0.7386 -1.6211 -0.7913
42928TIP3   OH229665   8.160   2.647   1.460  0.5587  0.5784 -0.2752
42928TIP3    H129666   8.239   2.697   1.479  0.0185  1.5892 -0.6060
42928TIP3    H229667   8.149   2.654   1.365  0.5446 -0.3069 -0.3541
42929TIP3   OH229668   4.743   6.871   8.322  0.0647  0.0700  0.1492
42929TIP3    H129669   4.794   6.821   8.258  0.5731  0.6406  0.0974
42929TIP3    H229670   4.668   6.904   8.272  0.5475  0.6520 -0.2003
42930TIP3   OH229671   7.636   4.486   4.538 -0.6265  0.8104 -0.0330
42930TIP3    H129672   7.636   4.472   4.632  0.1381  0.0090 -0.1401
42930TIP3    H229673   7.566   4.549   4.523 -1.1356  0.5071  1.0011
42931TIP3   OH229674   7.938   6.016   3.899 -0.3788 -0.1931 -0.4413
42931TIP3    H129675   7.848   5.987   3.912 -0.3299  0.3739  1.3797
42931TIP3    H229676   7.952   6.009   3.804 -2.4510  0.0959 -0.8082
42932TIP3   OH229677   1.910   6.544   3.272 -0.4064  0.7336  0.5219
42932TIP3    H129678   1.926   6.484   3.199  0.3317  0.7225  0.6886
42932TIP3    H229679   1.996   6.580   3.293  0.2404 -2.2717  4.0162
42933TIP3   OH229680   8.127   3.274   7.461 -0.7808 -0.5787 -0.5239
42933TIP3    H129681   8.171   3.334   7.400 -0.4656 -1.5163 -1.2321
42933TIP3    H229682   8.034   3.285   7.443 -0.7107 -0.5341 -0.8621
42934TIP3   OH229683   0.825   7.702   9.465  0.2409 -0.1353 -0.4616
42934TIP3    H129684   0.745   7.652   9.449 -0.4758  0.7081  0.3748
42934TIP3    H229685   0.820   7.776   9.405  0.5207 -0.2157 -0.5862
42935TIP3   OH229686   8.023  10.292   6.068 -0.2864 -0.1356  0.1119
42935TIP3    H129687   7.975  10.305   6.149 -1.2785 -0.0373 -0.4690
42935TIP3    H229688   7.961  10.249   6.009  0.8009 -1.3405 -0.2104
42936TIP3   OH229689   7.977   3.608   5.448 -0.0532 -0.1009  0.4066
42936TIP3    H129690   7.972   3.517   5.419  2.3109 -0.4285  0.7658
42936TIP3    H229691   8.001   3.601   5.541 -0.8562  0.9147  0.7092
42937TIP3   OH229692  10.635   9.534   9.769  0.1552 -0.2477 -0.0861
42937TIP3    H129693  10.611   9.586   9.693  0.9930  0.5794  0.1968
42937TIP3    H229694  10.552   9.519   9.815 -0.4690 -1.3819 -1.5146
42938TIP3   OH229695   9.124   6.485   9.916  0.4265 -0.2517 -0.1075
42938TIP3    H129696   9.131   6.488   9.820  2.5964  0.5796  0.0119
42938TIP3    H229697   9.186   6.552   9.946 -1.3533  0.6254  1.8777
42939TIP3   OH229698   0.817   7.661   1.406 -0.0271 -0.2585  0.1375
42939TIP3    H129699   0.799   7.670   1.312  1.2371 -1.1036 -0.2087
42939TIP3    H229700   0.854   7.746   1.430  1.3081 -0.6055 -0.5618
42940TIP3   OH229701   5.921   8.785   1.967 -0.1296  0.0862  0.4062
42940TIP3    H129702   5.975   8.838   2.027  2.1166  1.6603 -2.7186
42940TIP3    H229703   5.842   8.836   1.954  0.1405  0.5758  0.6677
42941TIP3   OH229704   4.837   7.185   6.913  0.0714  0.0504 -0.1086
42941TIP3    H129705   4.899   7.257   6.926  0.8054 -0.8016  1.4461
42941TIP3    H229706   4.771   7.197   6.981 -0.0542 -0.4720 -0.1286
42942TIP3   OH229707   8.555   3.038   3.930 -0.3206 -0.2722 -0.3618
42942TIP3    H129708   8.466   3.054   3.897 -0.5952 -0.3446  0.3349
42942TIP3    H229709   8.559   2.943   3.943 -0.2253 -0.2401 -0.1522
42943TIP3   OH229710   7.265   3.124   4.403  0.1012  0.2733  0.9213
42943TIP3    H129711   7.316   3.153   4.479 -0.1741  2.0136  0.4807
42943TIP3    H229712   7.324   3.133   4.329 -0.1802  0.2421  0.6926
42944TIP3   OH229713   9.678   8.853   0.947  0.5082 -0.0817  0.0036
42944TIP3    H129714   9.744   8.809   1.000  1.0402  0.0333 -0.5540
42944TIP3    H229715   9.715   8.855   0.859 -0.6878 -0.9523 -0.5500
42945TIP3   OH229716  10.577   3.386   1.084  0.0443 -0.2670 -0.4063
42945TIP3    H129717  10.534   3.389   1.169 -2.1075 -2.6170 -1.2866
42945TIP3    H229718  10.647   3.321   1.095 -0.4565 -0.8286 -0.5039
42946TIP3   OH229719   1.602   3.235   3.832  0.0753 -0.0232 -0.3578
42946TIP3    H129720   1.634   3.300   3.769  0.7475 -1.0509 -1.1185
42946TIP3    H229721   1.507   3.243   3.828  0.1473  1.4848  0.2053
42947TIP3   OH229722   1.316   9.926   6.879  0.1441 -0.2592  0.1356
42947TIP3    H129723   1.346   9.986   6.810  3.6798 -0.9058  0.9318
42947TIP3    H229724   1.332   9.973   6.960 -0.7505 -0.8173  0.6507
42948TIP3   OH229725   0.142   7.038   2.748  0.4535 -0.0624 -0.0405
42948TIP3    H129726   0.061   7.060   2.703  2.1361  0.4509 -3.1574
42948TIP3    H229727   0.192   7.120   2.749  1.7490 -0.8155 -0.1643
42949TIP3   OH229728   2.365   8.055  10.582 -0.2125 -0.1116  0.1146
42949TIP3    H129729   2.349   8.100  10.499  2.9922  0.0692 -0.5309
42949TIP3    H229730   2.383   7.964  10.558 -0.6335 -0.3784  0.7704
42950TIP3   OH229731   9.492   3.126   3.190 -0.1588  0.3711 -0.5351
42950TIP3    H129732   9.529   3.197   3.243  0.6995 -0.3051 -0.2033
42950TIP3    H229733   9.552   3.116   3.117 -0.1880 -0.1034 -0.5009
42951TIP3   OH229734   5.430   1.845   2.153 -0.3107  0.4729 -0.6835
42951TIP3    H129735   5.353   1.888   2.190 -0.6615  1.1104 -2.1097
42951TIP3    H229736   5.414   1.842   2.059  0.6633 -0.9160 -0.8374
42952TIP3   OH229737  10.672   7.890   2.297  0.0493  0.0130 -0.2315
42952TIP3    H129738  10.736   7.924   2.233 -0.2239  3.0021  0.9408
42952TIP3    H229739  10.679   7.949   2.372 -2.8580 -0.6317  0.6711
42953TIP3   OH229740   7.849   9.052   4.779  0.1966  0.6615 -0.1211
42953TIP3    H129741   7.809   8.965   4.779  1.6938 -0.0487  0.4546
42953TIP3    H229742   7.812   9.095   4.856 -1.6177  1.0847 -1.1689
42954TIP3   OH229743  10.470   1.664   9.650  0.6017 -0.4319  0.0382
42954TIP3    H129744  10.395   1.615   9.619 -0.2863 -0.0549  1.5148
42954TIP3    H229745  10.443   1.756   9.644  0.9348 -0.2925  0.5759
42955TIP3   OH229746   2.384   0.398   4.691  0.5740  0.2191 -0.3226
42955TIP3    H129747   2.416   0.485   4.713 -1.2232  1.0423 -0.7498
42955TIP3    H229748   2.370   0.400   4.596 -1.1734  0.1335 -0.1153
42956TIP3   OH229749   0.802   6.370   0.858  0.1531 -0.0758  0.5634
42956TIP3    H129750   0.751   6.302   0.902  0.3949  0.2789  1.4246
42956TIP3    H229751   0.884   6.373   0.908  2.1336 -2.3203 -2.1924
42957TIP3   OH229752   9.714   2.939   2.787 -0.1245  0.2691  0.1197
42957TIP3    H129753   9.725   2.954   2.881  0.4697  2.9030 -0.3018
42957TIP3    H229754   9.629   2.978   2.766  0.8002  1.9118 -0.7933
42958TIP3   OH229755   2.338   5.654   3.508 -0.1579 -0.6527  0.0848
42958TIP3    H129756   2.346   5.744   3.474  1.7741 -1.1034 -0.8312
42958TIP3    H229757   2.268   5.659   3.573 -0.4080  1.4180 -0.2575
42959TIP3   OH229758   6.796   9.573   0.200  0.2396  0.1058  0.0888
42959TIP3    H129759   6.744   9.638   0.248  1.0901  2.1810 -1.6572
42959TIP3    H229760   6.762   9.577   0.111  1.2815 -0.8249 -0.3635
42960TIP3   OH229761  10.481   1.610   3.551 -0.1784  0.0637 -0.2455
42960TIP3    H129762  10.488   1.596   3.645  1.1200  0.4794 -0.2606
42960TIP3    H229763  10.564   1.578   3.516 -0.2026  0.9095 -1.1153
42961TIP3   OH229764   1.012  10.501   6.252  0.0023  0.2112  0.1437
42961TIP3    H129765   0.981  10.516   6.163  1.2906 -0.0333 -0.3721
42961TIP3    H229766   0.940  10.531   6.308 -0.7966  0.4368 -0.9668
42962TIP3   OH229767   2.581   5.062   6.541 -0.2374  0.2766  0.6297
42962TIP3    H129768   2.610   5.082   6.630  0.4955  0.6304  0.3199
42962TIP3    H229769   2.487   5.080   6.542 -0.1853  0.5417  1.2564
42963TIP3   OH229770   3.727   9.611  10.799  0.0293  0.4897 -0.2032
42963TIP3    H129771   3.705   9.696  10.761 -1.3118  0.7536  1.0754
42963TIP3    H229772   3.798   9.630  10.861  0.8907  0.3769 -1.1355
42964TIP3   OH229773   7.604   2.045   4.314 -0.9749 -0.5017  0.3355
42964TIP3    H129774   7.540   2.061   4.245 -0.6254 -0.0737  0.1040
42964TIP3    H229775   7.557   1.993   4.379 -0.9120 -2.1090 -0.8508
42965TIP3   OH229776   8.574  10.554   1.326 -0.2920  0.0047  0.1091
42965TIP3    H129777   8.667  10.549   1.304 -0.0278 -1.2892  1.3834
42965TIP3    H229778   8.562  10.643   1.360  0.5636  0.0575  0.2952
42966TIP3   OH229779   3.539   5.272   3.624  0.1576 -0.3549 -0.1987
42966TIP3    H129780   3.518   5.361   3.653  0.6634 -0.3094  0.0270
42966TIP3    H229781   3.595   5.236   3.693  1.2644 -0.2970 -1.0478
42967TIP3   OH229782  10.653   2.428   2.633 -0.5163  0.4384 -0.1986
42967TIP3    H129783  10.701   2.406   2.713 -0.0826  3.3640  0.4431
42967TIP3    H229784  10.711   2.397   2.563 -0.0800 -0.5868  0.5734
42968TIP3   OH229785   4.577   8.321   1.076 -0.4110  0.4565 -0.4779
42968TIP3    H129786   4.544   8.359   0.994  2.9932  0.7167 -1.8765
42968TIP3    H229787   4.622   8.241   1.049  0.7776  0.5305  1.1201
42969TIP3   OH229788   2.690   9.188  10.627 -0.1296 -0.3788  0.1152
42969TIP3    H129789   2.774   9.162  10.588  0.3259 -0.5788  1.2036
42969TIP3    H229790   2.679   9.128  10.701 -1.6495 -0.9191 -0.5069
42970TIP3   OH229791   9.194   7.332   8.982  0.6357 -0.4133 -0.1344
42970TIP3    H129792   9.157   7.243   8.978  0.7655 -0.5145  0.7135
42970TIP3    H229793   9.260   7.334   8.913  0.9884 -1.1482  0.1745
42971TIP3   OH229794   5.340  10.524   0.008 -0.5653 -0.6112  0.1990
42971TIP3    H129795   5.421  10.542   0.057 -0.8797  0.3006  0.4052
42971TIP3    H229796   5.353  10.437  -0.028  0.3940 -0.5973  0.4761
42972TIP3   OH229797   0.146   9.938   1.961  0.0195  0.0810 -0.4959
42972TIP3    H129798   0.136   9.848   1.993  0.2358  0.3268  0.2742
42972TIP3    H229799   0.171   9.989   2.038  2.1703  0.3975 -1.3426
42973TIP3   OH229800  10.060   2.866   6.720  0.6370 -0.2683 -0.7176
42973TIP3    H129801  10.120   2.921   6.771 -0.7239  0.4345  0.1892
42973TIP3    H229802  10.086   2.776   6.742 -1.2416 -0.0940  3.1468
42974TIP3   OH229803   5.595   4.397   8.998 -0.0881  0.1930  0.1532
42974TIP3    H129804   5.645   4.462   9.047 -1.9898  1.2141  0.8704
42974TIP3    H229805   5.519   4.446   8.965 -0.1176 -1.0435 -1.7301
42975TIP3   OH229806   9.192   1.611   6.037 -0.7752 -0.1682  0.0218
42975TIP3    H129807   9.121   1.580   5.980 -0.9234 -0.7588  0.5163
42975TIP3    H229808   9.195   1.547   6.108  0.8508 -0.6588 -0.4516
42976TIP3   OH229809   7.664   2.590   4.033  0.5692 -0.2041  0.3192
42976TIP3    H129810   7.585   2.605   3.982  1.0939 -1.7117 -1.0244
42976TIP3    H229811   7.682   2.496   4.022  0.9884 -0.4945  2.9005
42977TIP3   OH229812   9.709   7.585   8.292  0.4529 -0.5897  0.0900
42977TIP3    H129813   9.637   7.636   8.330  0.1171 -0.5511 -0.5742
42977TIP3    H229814   9.670   7.542   8.216  0.9573 -1.1407  0.1390
42978TIP3   OH229815   5.193   0.393   2.032  0.5774  0.0113 -0.0182
42978TIP3    H129816   5.245   0.459   2.077  0.6550 -0.2081  0.2189
42978TIP3    H229817   5.151   0.343   2.102  0.5646 -0.2244 -0.1921
42979TIP3   OH229818   9.299   4.587   1.513 -0.0373 -0.2728  0.2075
42979TIP3    H129819   9.239   4.654   1.547  0.4823 -1.0691  2.9056
42979TIP3    H229820   9.377   4.596   1.567  1.6202 -0.5110 -2.0056
42980TIP3   OH229821   2.938   0.639   0.933 -0.4685  0.4285  0.4599
42980TIP3    H129822   2.936   0.580   0.859 -1.4446 -0.3155  1.0534
42980TIP3    H229823   2.853   0.682   0.932  0.1512  1.6960  0.1576
  10.90787  10.90787  10.90787
